1000 SPC/Fw water molecules t= 130.00000 step= 130000
 3000
    1SOL     OW    1   2.378   2.200   0.965 -0.0576  0.1504  0.2601
    1SOL    HW1    2   2.361   2.192   0.868  0.2733 -0.2121  5.7927
    1SOL    HW2    3   2.315   2.139   1.012 -2.0835  0.5840 -1.5275
    2SOL     OW    4   1.368   2.073   2.271 -0.4558  0.7414  0.3476
    2SOL    HW1    5   1.307   2.134   2.317  1.5989  0.3778  0.3737
    2SOL    HW2    6   1.328   1.980   2.263 -0.8077  1.0103  2.9889
    3SOL     OW    7   1.602   2.425   2.492  0.6541  0.1237 -0.1939
    3SOL    HW1    8   1.626   2.484   2.414  1.6219 -2.2880 -0.3472
    3SOL    HW2    9   1.623   2.325   2.484 -0.3332 -1.7145  1.3828
    4SOL     OW   10   1.295   2.441   2.122 -0.6734  0.3214 -0.3662
    4SOL    HW1   11   1.395   2.445   2.099  2.6518  1.2126 -0.0014
    4SOL    HW2   12   1.280   2.447   2.224  0.7230  0.2597  0.7654
    5SOL     OW   13   0.608   0.969   1.457  0.0525 -0.5654 -0.7586
    5SOL    HW1   14   0.519   0.939   1.421  2.2247 -0.9277 -1.4295
    5SOL    HW2   15   0.593   0.979   1.562 -0.1024  0.6262  0.8313
    6SOL     OW   16   2.388   0.832   0.042  0.5617  0.5712  0.5074
    6SOL    HW1   17   2.335   0.861   0.126 -0.2833  0.6589  3.4225
    6SOL    HW2   18   2.398   0.729   0.031  1.6440 -4.4824  0.6048
    7SOL     OW   19   0.369   0.143   1.661  0.1494 -0.2940  0.6840
    7SOL    HW1   20   0.468   0.141   1.682  2.4185  1.4886 -0.2361
    7SOL    HW2   21   0.320   0.054   1.664 -1.0685  3.0231 -1.4459
    8SOL     OW   22   1.214   2.897   1.406  0.4043  0.0064  0.4191
    8SOL    HW1   23   1.128   2.865   1.360  0.1298  3.7107  1.1048
    8SOL    HW2   24   1.203   2.903   1.509 -0.7749 -1.6501 -0.8344
    9SOL     OW   25   0.678   0.672   0.329  0.3399  0.6300 -0.2770
    9SOL    HW1   26   0.583   0.692   0.360 -2.8504 -0.0648 -0.4959
    9SOL    HW2   27   0.716   0.747   0.278 -0.2826 -1.6298 -1.0696
   10SOL     OW   28   0.865   2.452   2.460  0.3156 -0.0538 -0.1209
   10SOL    HW1   29   0.849   2.351   2.455  1.3277 -0.6651  1.2050
   10SOL    HW2   30   0.780   2.502   2.438 -1.5096  2.4764 -0.5019
   11SOL     OW   31   0.453   1.883   0.098  0.3088  0.1340 -0.8423
   11SOL    HW1   32   0.369   1.892   0.041 -1.6543 -1.4818  1.2287
   11SOL    HW2   33   0.426   1.880   0.200  2.6085  0.5985  0.0957
   12SOL     OW   34   0.347   0.159   1.378 -0.4747  0.3170 -0.4475
   12SOL    HW1   35   0.367   0.174   1.477 -1.3108  0.0300  1.0231
   12SOL    HW2   36   0.356   0.060   1.358 -0.6359 -1.1600  2.5266
   13SOL     OW   37   0.721   2.657   0.056  0.0336 -0.2279 -0.6159
   13SOL    HW1   38   0.817   2.642   0.089  2.5470 -1.0323 -0.0200
   13SOL    HW2   39   0.690   2.756   0.059 -2.9595 -0.4219 -0.7224
   14SOL     OW   40   1.456   1.599   0.885  0.0241 -0.1150  0.3864
   14SOL    HW1   41   1.551   1.615   0.917 -0.8478 -0.2640  0.8798
   14SOL    HW2   42   1.410   1.691   0.866 -1.0313 -0.6681 -1.5343
   15SOL     OW   43   0.025   1.177   2.307 -0.1282 -0.3145  0.0415
   15SOL    HW1   44   3.053   1.137   2.363  0.0150  0.0708 -1.0452
   15SOL    HW2   45   0.056   1.272   2.332  2.4383 -0.2914  1.1416
   16SOL     OW   46   1.419   2.866   2.894 -0.1712  0.2048  0.6659
   16SOL    HW1   47   1.376   2.790   2.847  2.1549  2.7896  1.0156
   16SOL    HW2   48   1.521   2.863   2.878 -0.9147 -2.9653 -2.6657
   17SOL     OW   49   0.739   2.453   2.102 -0.5881 -0.3875 -0.0384
   17SOL    HW1   50   0.737   2.365   2.157 -1.4111  2.8783  0.3874
   17SOL    HW2   51   0.673   2.518   2.142 -1.0388 -1.0615  0.7498
   18SOL     OW   52   1.617   0.736   0.252 -0.0498 -0.3082  0.7427
   18SOL    HW1   53   1.541   0.731   0.314 -0.6461 -2.2149  0.5824
   18SOL    HW2   54   1.705   0.777   0.286 -0.1435  2.9690 -1.7692
   19SOL     OW   55   2.488   2.011   2.759  0.1040 -0.4983 -0.4201
   19SOL    HW1   56   2.507   1.992   2.858 -2.7018 -2.9776  0.1772
   19SOL    HW2   57   2.551   1.955   2.700 -1.1534  1.0673 -0.3573
   20SOL     OW   58   2.464   2.095   2.280  0.1748  0.5455  0.3565
   20SOL    HW1   59   2.371   2.125   2.244  3.1960 -0.0675  0.2104
   20SOL    HW2   60   2.529   2.174   2.295  1.7548 -0.6510  0.0764
   21SOL     OW   61   0.533   2.152   0.055 -1.4398  0.5873 -0.3092
   21SOL    HW1   62   0.491   2.208   0.133 -0.5494 -0.9698 -0.6214
   21SOL    HW2   63   0.521   2.052   0.082 -1.4571 -1.7869  0.0015
   22SOL     OW   64   2.248   2.771   1.390  0.5557  0.7971 -0.1115
   22SOL    HW1   65   2.202   2.861   1.411 -1.4063  2.6914 -0.6026
   22SOL    HW2   66   2.290   2.736   1.481  1.3803 -2.5207 -1.3647
   23SOL     OW   67   0.372   1.256   1.482 -0.1902  0.2706 -0.0534
   23SOL    HW1   68   0.330   1.333   1.538  1.7021 -0.1491  2.3465
   23SOL    HW2   69   0.465   1.237   1.522 -0.2234  3.2143  0.0656
   24SOL     OW   70   2.066   1.871   1.628  0.7239  0.0756  0.1636
   24SOL    HW1   71   2.090   1.771   1.621  1.8079 -0.1427  0.9866
   24SOL    HW2   72   2.017   1.894   1.711 -0.4569 -1.9773 -3.3170
   25SOL     OW   73   1.904   0.001   2.637 -0.3311  0.6514 -0.5840
   25SOL    HW1   74   1.984   3.055   2.680 -0.3181 -1.4425  0.6187
   25SOL    HW2   75   1.896   3.088   2.534 -0.4292  1.5305 -2.2538
   26SOL     OW   76   1.379   3.019   0.965  0.9348  0.1615  0.3201
   26SOL    HW1   77   1.452   3.056   0.899  1.5954  2.4196 -1.6502
   26SOL    HW2   78   1.333   3.097   1.009 -0.9257 -1.9169  0.5271
   27SOL     OW   79   1.143   1.948   0.158 -0.7099 -0.0360  0.3951
   27SOL    HW1   80   1.132   1.978   0.254  1.5899  1.9264  0.2964
   27SOL    HW2   81   1.053   1.920   0.117 -0.0488 -0.9636 -1.4601
   28SOL     OW   82   2.761   1.695   1.376  0.3052 -0.0071  0.6217
   28SOL    HW1   83   2.725   1.608   1.415  1.0978  1.1642 -1.5533
   28SOL    HW2   84   2.853   1.686   1.338  1.2070 -0.7859 -0.8150
   29SOL     OW   85   2.323   2.488   2.119 -0.1228 -0.3299  0.2139
   29SOL    HW1   86   2.391   2.564   2.131  0.4677  0.6717 -0.6749
   29SOL    HW2   87   2.254   2.484   2.197 -2.4893 -3.0006 -0.6363
   30SOL     OW   88   0.942   2.757   1.049 -0.1951  0.2473 -0.4234
   30SOL    HW1   89   1.016   2.684   1.043  3.6426 -0.6624  0.2855
   30SOL    HW2   90   0.902   2.762   0.954 -1.9180 -0.6052 -0.9740
   31SOL     OW   91   0.017   1.971   2.068 -0.3410  0.3076 -0.0698
   31SOL    HW1   92   0.015   1.873   2.081  1.0638  1.5415 -0.2765
   31SOL    HW2   93   0.106   2.005   2.031  0.2750  0.3304 -0.6473
   32SOL     OW   94   1.536   1.130   2.091  0.4139  0.3253 -0.0249
   32SOL    HW1   95   1.513   1.035   2.061 -1.9153 -0.7906  0.5178
   32SOL    HW2   96   1.454   1.190   2.102  1.2093  3.3180  2.2209
   33SOL     OW   97   0.617   3.022   2.630  0.0907  0.0073 -0.2957
   33SOL    HW1   98   0.524   3.030   2.584  0.5573  0.8934 -2.8607
   33SOL    HW2   99   0.687   3.010   2.560  0.6188  0.1526 -1.4317
   34SOL     OW  100   1.458   3.077   1.561 -0.0226  0.2917 -0.1195
   34SOL    HW1  101   1.460   2.974   1.572 -2.4042  0.1038  1.3618
   34SOL    HW2  102   1.535   0.010   1.613 -2.6004  0.3937 -1.5887
   35SOL     OW  103   1.989   0.289   1.312 -0.0471  0.2573  0.5182
   35SOL    HW1  104   1.987   0.363   1.383 -0.4703  0.6004  1.0193
   35SOL    HW2  105   1.895   0.250   1.299 -1.1355 -3.1515  2.2360
   36SOL     OW  106   2.223   2.813   2.678 -0.0235 -0.3360 -0.5298
   36SOL    HW1  107   2.244   2.716   2.706 -1.5309  2.8743  0.3010
   36SOL    HW2  108   2.260   2.828   2.582  0.9046 -2.8359  1.7850
   37SOL     OW  109   1.288   2.219   3.027 -0.0481 -0.3296 -0.4105
   37SOL    HW1  110   1.253   2.234   0.018  0.1821  1.3379 -0.6125
   37SOL    HW2  111   1.284   2.120   2.989  1.6438 -4.1763 -1.5927
   38SOL     OW  112   2.833   0.895   2.622  0.0750 -0.4825  0.2751
   38SOL    HW1  113   2.736   0.864   2.601 -0.0203 -1.0932  0.9278
   38SOL    HW2  114   2.874   0.870   2.714 -0.8496  0.1725  1.3647
   39SOL     OW  115   2.082   2.163   1.970  0.0377  0.0927 -0.1517
   39SOL    HW1  116   2.016   2.101   1.923  0.1435  0.9218 -2.5660
   39SOL    HW2  117   2.049   2.263   1.961 -0.9108  2.1168 -1.9126
   40SOL     OW  118   0.195   0.370   2.941 -0.3065  0.6658  0.0311
   40SOL    HW1  119   0.248   0.348   3.024  0.0268  1.4128 -3.5679
   40SOL    HW2  120   0.164   0.280   2.897 -1.3480 -1.5629 -2.4934
   41SOL     OW  121   1.333   0.921   1.437 -0.8590 -0.1586  0.7499
   41SOL    HW1  122   1.361   1.020   1.445 -0.2029  2.6804  2.1500
   41SOL    HW2  123   1.241   0.920   1.381 -0.9933  0.4909 -1.3518
   42SOL     OW  124   0.165   0.240   1.946  0.0885  0.2843 -0.2004
   42SOL    HW1  125   0.110   0.307   1.891  0.4359 -0.0336  4.0926
   42SOL    HW2  126   0.250   0.284   1.984  2.7031 -1.0746  1.7052
   43SOL     OW  127   1.528   1.506   1.927 -0.2240  0.2784  0.1298
   43SOL    HW1  128   1.435   1.510   1.964  0.0476  2.1686  1.4343
   43SOL    HW2  129   1.594   1.477   1.997 -1.5594  2.5808 -4.0768
   44SOL     OW  130   2.921   2.768   2.579 -0.6091 -0.0361 -0.3898
   44SOL    HW1  131   2.893   2.866   2.592 -1.9481  0.6586  0.4528
   44SOL    HW2  132   2.984   2.766   2.496  2.6986  0.9971  1.5854
   45SOL     OW  133   0.551   2.306   1.374 -0.4905 -0.9626  0.5162
   45SOL    HW1  134   0.535   2.237   1.447 -0.1380 -0.4750 -3.7586
   45SOL    HW2  135   0.647   2.311   1.351 -1.1140  0.7696  0.4208
   46SOL     OW  136   2.573   2.361   1.978  0.9554  0.2604  0.4109
   46SOL    HW1  137   2.493   2.399   2.029  0.3879  0.1916  1.7921
   46SOL    HW2  138   2.658   2.415   1.996  0.9397  0.2402 -0.3957
   47SOL     OW  139   1.673   1.794   1.644 -0.0397 -0.2355 -0.5604
   47SOL    HW1  140   1.580   1.760   1.666 -1.1821  0.9609 -0.5340
   47SOL    HW2  141   1.740   1.717   1.638 -1.9960 -1.1137  0.1867
   48SOL     OW  142   0.215   1.993   0.576  0.1214  0.3026 -0.5159
   48SOL    HW1  143   0.262   1.911   0.617 -1.8891  0.3995  1.8362
   48SOL    HW2  144   0.240   2.063   0.641  1.6107 -2.7979 -1.6248
   49SOL     OW  145   3.091   0.992   2.081  0.3080 -0.3552  0.2786
   49SOL    HW1  146   0.084   0.948   2.078  0.9147  2.6997 -1.0163
   49SOL    HW2  147   3.090   1.058   2.155  0.3692 -0.5753 -0.0196
   50SOL     OW  148   2.041   0.779   0.917  0.1291  0.4228  0.1622
   50SOL    HW1  149   2.094   0.858   0.884  0.0243  0.5988  0.6332
   50SOL    HW2  150   1.968   0.748   0.849 -0.5905 -1.1995 -1.3207
   51SOL     OW  151   1.260   0.543   0.668  0.0224 -0.3365  0.2923
   51SOL    HW1  152   1.175   0.581   0.709  1.6661  0.5332  3.0190
   51SOL    HW2  153   1.311   0.483   0.737  3.9159 -0.2404  1.2820
   52SOL     OW  154   1.373   1.032   0.373  0.1277 -0.0691 -0.0926
   52SOL    HW1  155   1.360   0.932   0.357 -1.8116 -1.5481 -1.2226
   52SOL    HW2  156   1.448   1.054   0.441  0.0481  0.3826  0.0671
   53SOL     OW  157   1.163   2.365   2.765 -0.3982 -0.2519 -0.0143
   53SOL    HW1  158   1.237   2.313   2.717  1.3988 -1.0744 -1.5452
   53SOL    HW2  159   1.158   2.345   2.864  0.0844 -2.7205 -1.7666
   54SOL     OW  160   1.391   0.856   1.701 -0.4532 -0.2437  0.1489
   54SOL    HW1  161   1.380   0.753   1.711  0.6332 -0.7895  0.1268
   54SOL    HW2  162   1.363   0.879   1.607  0.4258 -3.3461  0.0191
   55SOL     OW  163   1.949   2.971   0.496  0.8058 -0.0584  0.2480
   55SOL    HW1  164   1.966   2.891   0.436  1.8302 -1.3248  3.8947
   55SOL    HW2  165   1.863   3.015   0.467  4.6870 -0.3013 -1.6070
   56SOL     OW  166   0.960   2.822   1.316  0.1885 -0.0078 -0.0858
   56SOL    HW1  167   0.939   2.790   1.218 -2.0666 -2.3667  0.5774
   56SOL    HW2  168   0.889   2.885   1.349 -2.4646  1.2381  1.9618
   57SOL     OW  169   1.754   0.833   2.980  0.2155 -0.4829 -0.8032
   57SOL    HW1  170   1.750   0.844   2.878  0.0719  0.3613 -1.5030
   57SOL    HW2  171   1.770   0.924   3.022  0.5224 -1.1896  2.0726
   58SOL     OW  172   3.067   0.985   1.807 -0.5692 -0.5941 -0.3928
   58SOL    HW1  173   3.060   0.995   1.904 -0.4931 -2.5299 -1.0283
   58SOL    HW2  174   3.004   1.051   1.763 -1.6701  0.0983 -0.4492
   59SOL     OW  175   0.669   2.648   2.367 -0.1087  0.1861 -0.5006
   59SOL    HW1  176   0.606   2.658   2.288 -0.1312  1.1602  0.0999
   59SOL    HW2  177   0.716   2.733   2.394 -0.7536 -0.9918 -0.2793
   60SOL     OW  178   2.648   2.398   1.234 -0.5494  0.2992  0.1401
   60SOL    HW1  179   2.615   2.385   1.137 -0.2070 -3.2617 -1.1374
   60SOL    HW2  180   2.723   2.469   1.233  1.3343  2.2611 -0.6665
   61SOL     OW  181   0.935   2.396   0.446  0.1373  0.3120  0.2252
   61SOL    HW1  182   1.027   2.426   0.464 -1.2656 -0.4966 -3.9521
   61SOL    HW2  183   0.940   2.304   0.395 -1.9318  0.2858  0.2428
   62SOL     OW  184   2.030   2.610   2.932 -0.2700  0.1686  0.5747
   62SOL    HW1  185   2.126   2.570   2.941  3.2224 -1.4062  0.9269
   62SOL    HW2  186   1.987   2.578   2.843 -0.9670 -0.3308  0.6166
   63SOL     OW  187   2.002   0.244   0.035 -0.5772 -0.3070  0.0007
   63SOL    HW1  188   1.937   0.204   3.073 -0.1150  0.5553  3.5778
   63SOL    HW2  189   2.092   0.235   3.086  3.1840 -0.1610  1.0198
   64SOL     OW  190   0.930   1.100   2.504  0.5432  0.8381 -0.1488
   64SOL    HW1  191   0.872   1.120   2.580  1.0112  0.8496 -0.9710
   64SOL    HW2  192   0.940   1.004   2.482  0.5139  2.0757 -1.4198
   65SOL     OW  193   1.480   2.788   0.518  0.1356  0.7755  0.6471
   65SOL    HW1  194   1.489   2.685   0.509  1.7112 -2.0356 -0.5268
   65SOL    HW2  195   1.537   2.818   0.599  0.2241 -0.4729  0.0924
   66SOL     OW  196   0.534   1.539   1.621 -0.6508  0.2171 -0.0183
   66SOL    HW1  197   0.605   1.463   1.618 -0.9997 -2.5090  0.4964
   66SOL    HW2  198   0.438   1.501   1.616 -2.2058 -1.6305 -0.0378
   67SOL     OW  199   2.334   0.012   2.245 -0.5742 -0.3090  0.0847
   67SOL    HW1  200   2.421   3.078   2.272 -2.8501  1.4867  1.0477
   67SOL    HW2  201   2.334   0.111   2.223 -0.0369  0.3129 -1.1184
   68SOL     OW  202   0.909   0.848   1.461  0.4224 -0.1419 -0.4163
   68SOL    HW1  203   0.891   0.750   1.436 -1.0715  1.4547  0.5192
   68SOL    HW2  204   0.834   0.907   1.418 -3.2528  3.3363  0.3621
   69SOL     OW  205   1.895   3.025   0.108 -0.3055  0.0590 -0.3047
   69SOL    HW1  206   1.804   2.981   0.128 -0.8100  0.2591 -2.3231
   69SOL    HW2  207   1.921   3.101   0.172 -0.6202 -0.7578  1.4341
   70SOL     OW  208   2.641   1.011   2.910 -0.5902  0.6441 -0.1854
   70SOL    HW1  209   2.681   1.098   2.877 -0.2977  1.1104  1.5766
   70SOL    HW2  210   2.725   0.944   2.918  3.6205 -2.3099 -0.0656
   71SOL     OW  211   2.935   1.856   0.031  0.9143 -0.0944 -0.0767
   71SOL    HW1  212   2.895   1.895   3.047 -1.3490 -1.9653 -0.1317
   71SOL    HW2  213   3.017   1.912   0.056 -1.3671  0.9476  0.1630
   72SOL     OW  214   3.061   1.985   0.534  0.1934 -0.8689 -0.9027
   72SOL    HW1  215   3.029   1.894   0.493  0.6286 -2.2063 -0.7989
   72SOL    HW2  216   0.062   1.996   0.534  0.2484 -0.2509  0.2978
   73SOL     OW  217   1.020   0.989   0.427 -0.1316  0.1238 -0.6552
   73SOL    HW1  218   1.075   0.949   0.501  1.9400 -0.3001  1.1284
   73SOL    HW2  219   1.069   0.990   0.342  1.2782  0.1986  0.7108
   74SOL     OW  220   0.304   1.728   1.920 -0.1002  0.0862 -0.4161
   74SOL    HW1  221   0.292   1.822   1.954  0.0204  0.3789  1.3084
   74SOL    HW2  222   0.398   1.717   1.890 -2.3757 -0.9054  1.9598
   75SOL     OW  223   1.702   1.402   1.709 -0.2114 -0.7105 -0.2235
   75SOL    HW1  224   1.739   1.305   1.732  1.4104 -1.6822 -0.0790
   75SOL    HW2  225   1.634   1.425   1.778 -0.0430 -4.5714 -0.3627
   76SOL     OW  226   2.346   2.432   1.459  0.2891 -0.5273  0.3292
   76SOL    HW1  227   2.344   2.419   1.565  0.4192 -1.6934  3.1746
   76SOL    HW2  228   2.263   2.485   1.422 -1.0950  1.9881 -1.8676
   77SOL     OW  229   2.891   1.427   1.746 -0.0293 -0.0413 -0.1787
   77SOL    HW1  230   2.824   1.408   1.820 -0.0259 -0.9501 -0.6466
   77SOL    HW2  231   2.985   1.417   1.779 -3.5648 -0.6988 -2.0728
   78SOL     OW  232   1.478   0.277   0.548  0.0731 -0.5094 -0.1933
   78SOL    HW1  233   1.461   0.306   0.646 -1.1447  2.7347  0.5064
   78SOL    HW2  234   1.530   0.346   0.495 -0.0558 -1.9773 -1.1628
   79SOL     OW  235   2.461   1.507   1.488 -0.2209  0.2569 -0.0078
   79SOL    HW1  236   2.457   1.513   1.388  3.1190  2.5310 -0.8620
   79SOL    HW2  237   2.449   1.596   1.536  2.1419 -0.5701 -0.7856
   80SOL     OW  238   0.806   0.588   1.416 -0.4750  0.4306  0.3529
   80SOL    HW1  239   0.720   0.582   1.365  0.1064 -1.2122  0.3235
   80SOL    HW2  240   0.838   0.497   1.431  2.2200  2.5566 -0.8159
   81SOL     OW  241   0.822   2.769   0.808  0.0600  0.4517 -0.1613
   81SOL    HW1  242   0.882   2.704   0.751  5.3713  2.3336  0.2972
   81SOL    HW2  243   0.769   2.835   0.750  0.1925 -0.5890 -0.7559
   82SOL     OW  244   1.622   3.047   2.035 -0.0518 -0.4232  0.1789
   82SOL    HW1  245   1.536   3.005   2.004 -2.1742  2.6593  2.5677
   82SOL    HW2  246   1.639   0.037   1.988 -2.1338  1.6770 -0.4163
   83SOL     OW  247   1.371   1.885   0.795  0.3605 -0.5458  0.1213
   83SOL    HW1  248   1.399   1.917   0.886 -0.1682 -0.8931 -0.1032
   83SOL    HW2  249   1.444   1.901   0.727  1.9751  0.5212  0.0781
   84SOL     OW  250   0.002   1.548   2.904 -0.2458  0.6405 -0.0830
   84SOL    HW1  251   3.067   1.474   2.842 -0.8684 -1.0874 -1.4023
   84SOL    HW2  252   0.022   1.633   2.852  0.0399 -0.1420 -1.1527
   85SOL     OW  253   0.433   2.273   1.147 -0.5180  0.6099  0.2517
   85SOL    HW1  254   0.395   2.360   1.118 -1.2920  0.7744 -0.2740
   85SOL    HW2  255   0.482   2.294   1.236  0.4332  0.5984  2.3190
   86SOL     OW  256   2.334   2.244   1.723  0.6071  0.1006  0.4048
   86SOL    HW1  257   2.428   2.274   1.706 -3.8317 -1.3868 -2.0030
   86SOL    HW2  258   2.281   2.306   1.780 -1.5646 -0.1998 -1.0599
   87SOL     OW  259   2.997   2.182   0.734 -0.0145  0.2928 -0.3049
   87SOL    HW1  260   2.909   2.154   0.767 -0.4653  1.0891 -0.0359
   87SOL    HW2  261   3.008   2.157   0.632 -1.2569  1.4312 -0.1320
   88SOL     OW  262   0.914   0.954   1.096  0.1898  0.5176 -0.5036
   88SOL    HW1  263   0.922   0.997   1.003 -1.4534  1.9497 -2.6891
   88SOL    HW2  264   0.870   1.017   1.157 -1.3016  0.7671  0.1526
   89SOL     OW  265   0.976   0.176   2.266 -0.2294  0.1580 -0.5017
   89SOL    HW1  266   0.899   0.184   2.332  0.6874 -0.1289  0.3019
   89SOL    HW2  267   0.951   0.227   2.182  1.0345  0.4303  1.8844
   90SOL     OW  268   0.069   2.071   1.469  0.2260  0.8147  0.2309
   90SOL    HW1  269   0.120   1.980   1.470  0.7955  2.4444 -0.4394
   90SOL    HW2  270   0.129   2.142   1.505  1.8063  1.2123  0.3062
   91SOL     OW  271   1.514   2.238   1.397  0.1638 -0.1889 -0.4391
   91SOL    HW1  272   1.476   2.177   1.467 -0.6771 -0.6886  1.1321
   91SOL    HW2  273   1.615   2.224   1.381  2.6945  0.8081  0.9106
   92SOL     OW  274   2.758   2.933   1.518 -0.2898  0.4279 -0.4323
   92SOL    HW1  275   2.773   3.011   1.455 -0.3658  0.1698 -0.8279
   92SOL    HW2  276   2.799   2.960   1.612  0.7061  0.0145 -0.4887
   93SOL     OW  277   0.158   1.146   2.674  0.2559  0.6969  0.0686
   93SOL    HW1  278   0.217   1.061   2.679 -0.1614 -0.9134 -1.1279
   93SOL    HW2  279   0.103   1.160   2.755  0.8058 -1.9903 -2.7838
   94SOL     OW  280   2.780   2.558   1.985  0.1855  0.1609 -0.5237
   94SOL    HW1  281   2.875   2.549   2.025 -0.4381 -0.6304  0.5867
   94SOL    HW2  282   2.754   2.642   1.931 -2.7757 -1.1895 -0.7544
   95SOL     OW  283   1.384   0.546   2.117  0.6831 -0.5986 -0.0778
   95SOL    HW1  284   1.412   0.634   2.162  1.7722  0.2568  1.1050
   95SOL    HW2  285   1.467   0.489   2.106  0.1641 -1.5559  0.2304
   96SOL     OW  286   2.546   0.634   1.704 -0.1969 -0.0129  0.4447
   96SOL    HW1  287   2.517   0.567   1.634  1.8349  0.1484 -0.8127
   96SOL    HW2  288   2.476   0.642   1.780 -2.2698 -1.2771 -0.0621
   97SOL     OW  289   1.885   0.392   1.863  0.1876  0.1220 -0.5243
   97SOL    HW1  290   1.844   0.346   1.945 -0.5135 -2.8476 -0.6584
   97SOL    HW2  291   1.833   0.369   1.780  0.3023 -0.7056 -1.8557
   98SOL     OW  292   2.060   2.554   1.342  0.2871 -0.2086  0.1260
   98SOL    HW1  293   2.109   2.643   1.324  2.0489  2.2076 -0.6262
   98SOL    HW2  294   2.019   2.551   1.438  0.3519 -1.0336 -1.4598
   99SOL     OW  295   2.715   0.340   1.960  0.5427 -0.1905  0.2788
   99SOL    HW1  296   2.749   0.287   2.039 -1.2102 -0.0718 -0.9952
   99SOL    HW2  297   2.778   0.418   1.951 -1.6805 -0.0651 -0.7617
  100SOL     OW  298   2.316   1.401   1.680  0.9268  0.7172  0.2828
  100SOL    HW1  299   2.350   1.431   1.588  0.5460 -1.4643 -0.6785
  100SOL    HW2  300   2.387   1.385   1.748 -1.1821 -0.8311 -0.4635
  101SOL     OW  301   1.590   0.003   0.815 -0.2335 -0.3151  0.0759
  101SOL    HW1  302   1.636   0.084   0.772  0.4660 -0.0265  0.3681
  101SOL    HW2  303   1.664   3.043   0.851 -0.2809  0.5477 -0.5156
  102SOL     OW  304   0.626   0.814   1.140  0.1468  0.0324  0.4157
  102SOL    HW1  305   0.551   0.833   1.207 -1.6505  0.0502  1.4503
  102SOL    HW2  306   0.708   0.873   1.159 -0.9950  1.8885  0.7500
  103SOL     OW  307   2.728   0.347   3.071  0.1133 -0.0542  0.3175
  103SOL    HW1  308   2.807   0.303   3.020  3.3800 -1.3761 -1.1581
  103SOL    HW2  309   2.747   0.367   0.068 -3.2855  0.1377  0.9093
  104SOL     OW  310   2.652   0.214   1.708 -1.2431 -0.4742 -0.1437
  104SOL    HW1  311   2.713   0.160   1.646 -0.2298 -0.2010  0.4396
  104SOL    HW2  312   2.693   0.248   1.793  0.5573  0.2744 -0.1044
  105SOL     OW  313   1.755   0.959   1.938 -0.1764 -0.2227  0.3660
  105SOL    HW1  314   1.727   0.870   1.976 -0.3312  1.5814 -0.7932
  105SOL    HW2  315   1.776   1.022   2.013 -1.8203 -3.3352 -0.6912
  106SOL     OW  316   1.839   2.977   0.878 -0.1952  0.6077 -0.1566
  106SOL    HW1  317   1.887   2.959   0.967 -2.5561  1.0181  0.1474
  106SOL    HW2  318   1.899   3.034   0.817 -0.9681 -3.6117  1.6457
  107SOL     OW  319   0.677   0.916   0.716 -0.4573  0.6774  0.3164
  107SOL    HW1  320   0.661   0.989   0.649  0.4129 -0.9387  1.3237
  107SOL    HW2  321   0.597   0.904   0.782 -0.5073 -0.4375  2.4265
  108SOL     OW  322   2.699   0.298   2.269  0.2454 -0.2596  0.3267
  108SOL    HW1  323   2.781   0.236   2.284 -0.0416 -1.3972 -0.1020
  108SOL    HW2  324   2.673   0.341   2.358 -0.4722 -1.0301 -0.6488
  109SOL     OW  325   2.021   0.477   0.155 -0.1247  0.0489 -0.3681
  109SOL    HW1  326   1.950   0.534   0.113  1.6150 -0.1200 -0.1818
  109SOL    HW2  327   2.012   0.379   0.122  0.9163  2.0982  1.2552
  110SOL     OW  328   3.040   2.242   2.861  0.2716  0.2832  0.1327
  110SOL    HW1  329   3.041   2.303   2.781 -0.7062 -1.9077  0.2045
  110SOL    HW2  330   3.089   2.279   2.941  0.4656 -2.6718 -2.0237
  111SOL     OW  331   2.071   0.255   2.171 -0.3353 -0.3966  0.6084
  111SOL    HW1  332   2.094   0.353   2.167  0.5663 -2.3084 -0.8416
  111SOL    HW2  333   2.066   0.221   2.262  0.5948  0.7045 -2.2638
  112SOL     OW  334   2.471   3.006   0.489  0.2742 -0.5245 -0.1781
  112SOL    HW1  335   2.449   0.001   0.468 -1.4530  4.1887  0.4102
  112SOL    HW2  336   2.393   2.960   0.535  4.1812  0.5198 -2.1044
  113SOL     OW  337   2.426   1.770   1.590 -0.0074  0.0840  0.6995
  113SOL    HW1  338   2.395   1.836   1.522 -0.6086  3.8272  0.3576
  113SOL    HW2  339   2.480   1.817   1.661 -0.4877 -0.7721 -1.2672
  114SOL     OW  340   2.819   0.575   0.873  0.3816 -0.1323 -0.2045
  114SOL    HW1  341   2.719   0.564   0.856  1.0579  0.0841  1.4704
  114SOL    HW2  342   2.877   0.562   0.796 -0.7723 -0.7998  0.9211
  115SOL     OW  343   2.728   1.780   0.182 -0.4656 -0.6494  0.3231
  115SOL    HW1  344   2.792   1.757   0.257 -4.2807  0.1242 -0.9534
  115SOL    HW2  345   2.787   1.820   0.109 -0.8669 -1.0690  0.8783
  116SOL     OW  346   0.003   1.396   1.915  0.5572 -0.6909 -0.6778
  116SOL    HW1  347   3.033   1.387   1.988 -0.0760 -0.3860  0.7408
  116SOL    HW2  348   0.071   1.324   1.907 -0.8120  1.2126 -1.5831
  117SOL     OW  349   2.723   0.011   0.545 -0.5747  0.5070 -0.2019
  117SOL    HW1  350   2.632   3.067   0.540 -0.2022 -0.8438  4.6530
  117SOL    HW2  351   2.734   0.093   0.482 -1.6898 -0.2110  0.1412
  118SOL     OW  352   0.477   2.454   1.760 -0.1380 -0.4516  0.3796
  118SOL    HW1  353   0.566   2.425   1.803  2.9766 -0.2688  1.8834
  118SOL    HW2  354   0.489   2.534   1.699 -0.3456  0.5219  0.6614
  119SOL     OW  355   1.754   2.219   1.246  0.5016 -0.1043  0.2212
  119SOL    HW1  356   1.839   2.164   1.232 -0.2510  1.5060  0.9830
  119SOL    HW2  357   1.773   2.318   1.232  1.7178  0.7771 -1.8997
  120SOL     OW  358   0.323   1.751   2.293 -0.3532 -0.3147 -0.1764
  120SOL    HW1  359   0.238   1.706   2.283  1.6337  0.8197  0.9716
  120SOL    HW2  360   0.326   1.831   2.364  3.1195  2.3619  2.2200
  121SOL     OW  361   2.721   1.629   0.933  0.0587 -0.7673 -0.0919
  121SOL    HW1  362   2.692   1.671   1.021 -2.7293  1.3724 -1.0093
  121SOL    HW2  363   2.805   1.575   0.943  2.0220  1.5311  1.0019
  122SOL     OW  364   2.433   1.869   2.059  0.3975  0.3853 -0.8223
  122SOL    HW1  365   2.491   1.866   2.141 -0.2676 -1.2781 -0.0048
  122SOL    HW2  366   2.406   1.960   2.030  0.5677 -2.3586 -0.3924
  123SOL     OW  367   2.819   0.134   0.763  0.8735 -0.1139  0.3006
  123SOL    HW1  368   2.881   0.067   0.803 -1.6454  0.7217 -0.9000
  123SOL    HW2  369   2.768   0.096   0.681 -0.4888 -0.4999 -2.5949
  124SOL     OW  370   1.239   1.061   2.674 -1.0490  0.1202 -0.2290
  124SOL    HW1  371   1.158   1.093   2.618 -2.5643 -1.3010 -0.3549
  124SOL    HW2  372   1.314   1.129   2.679  0.4787 -1.6258  0.5223
  125SOL     OW  373   0.408   1.531   2.725  0.0077 -0.1135 -0.0495
  125SOL    HW1  374   0.472   1.477   2.788  0.8943  1.5980 -0.7125
  125SOL    HW2  375   0.328   1.475   2.697  2.7551  0.3589 -1.0767
  126SOL     OW  376   2.807   2.219   0.239 -0.0254 -0.3542 -0.1440
  126SOL    HW1  377   2.785   2.320   0.257  0.4238 -0.9245 -0.7712
  126SOL    HW2  378   2.815   2.167   0.325  0.0095  1.7295 -0.5113
  127SOL     OW  379   0.739   1.685   0.856  0.7866 -0.0587  0.1519
  127SOL    HW1  380   0.689   1.741   0.921  2.8816 -4.2907  0.0758
  127SOL    HW2  381   0.726   1.714   0.759 -1.0277  0.4919 -0.7997
  128SOL     OW  382   1.474   0.778   3.090  0.1082  0.3798  0.5887
  128SOL    HW1  383   1.567   0.768   0.032  0.9757  0.0107  0.9989
  128SOL    HW2  384   1.470   0.848   3.016 -1.7155 -0.8772 -1.6696
  129SOL     OW  385   2.328   1.853   1.192  0.0730  0.6066 -0.7281
  129SOL    HW1  386   2.374   1.896   1.274 -2.0742 -0.3121 -2.8261
  129SOL    HW2  387   2.271   1.924   1.147  3.4031 -0.8372 -0.7530
  130SOL     OW  388   1.774   1.312   0.558  0.1818  0.2668 -0.1559
  130SOL    HW1  389   1.791   1.404   0.519  1.4432 -0.8162  1.0440
  130SOL    HW2  390   1.760   1.317   0.660 -0.3504  0.4460 -0.0172
  131SOL     OW  391   2.931   1.090   2.485  0.0529 -0.1841  0.0418
  131SOL    HW1  392   2.870   1.030   2.539 -1.1287  0.0689  0.0809
  131SOL    HW2  393   3.004   1.124   2.552  1.9562 -3.0728 -0.4375
  132SOL     OW  394   2.114   1.569   1.563 -0.1389 -0.3446  0.1775
  132SOL    HW1  395   2.158   1.606   1.479  0.6690 -1.2189  0.0279
  132SOL    HW2  396   2.179   1.519   1.627 -1.0868 -0.3699  2.3641
  133SOL     OW  397   0.237   1.502   3.036  0.1555 -0.4052  0.0995
  133SOL    HW1  398   0.155   1.518   2.983  2.1408 -1.2984 -2.0967
  133SOL    HW2  399   0.261   1.406   3.017  1.0374 -3.0960  2.1105
  134SOL     OW  400   2.968   1.591   0.029 -0.1286  0.1222  0.0676
  134SOL    HW1  401   3.040   1.566   3.066 -1.2432  2.8368  1.4550
  134SOL    HW2  402   2.948   1.690   0.026  0.0484 -2.8556 -2.8582
  135SOL     OW  403   2.341   1.277   0.478 -0.2747  0.0199  0.8582
  135SOL    HW1  404   2.289   1.320   0.402  1.3692 -1.6599  1.1547
  135SOL    HW2  405   2.439   1.306   0.476  0.5367  0.0714  1.3937
  136SOL     OW  406   1.910   1.411   1.355  0.6087  0.3111  0.0122
  136SOL    HW1  407   1.932   1.510   1.355 -1.4141  0.6988  0.0843
  136SOL    HW2  408   1.815   1.391   1.384 -0.3983 -0.6206 -0.2357
  137SOL     OW  409   2.622   2.261   0.610  0.5469  0.0559 -0.2076
  137SOL    HW1  410   2.521   2.251   0.617  1.2537 -2.4301  4.1271
  137SOL    HW2  411   2.675   2.196   0.549  1.0395  0.6020  0.2894
  138SOL     OW  412   1.238   0.142   1.623 -0.3811  0.3868  0.2339
  138SOL    HW1  413   1.304   0.097   1.561  1.0025  0.9069  1.9134
  138SOL    HW2  414   1.233   0.087   1.711  0.4180  0.2244  0.6373
  139SOL     OW  415   2.498   0.231   2.998 -0.1620  0.0440 -0.1111
  139SOL    HW1  416   2.588   0.277   2.994  2.8616  0.2509  3.7513
  139SOL    HW2  417   2.501   0.163   3.075 -1.3206  1.1117 -1.2014
  140SOL     OW  418   1.530   2.023   2.651  0.6705  0.1893 -0.0741
  140SOL    HW1  419   1.562   2.063   2.563  0.8107  3.0023 -0.2925
  140SOL    HW2  420   1.527   1.923   2.642 -0.9813  0.6127 -0.5940
  141SOL     OW  421   0.816   1.101   1.784  0.8083  0.1876 -0.4004
  141SOL    HW1  422   0.775   1.062   1.869 -0.9765  2.3959  1.3813
  141SOL    HW2  423   0.886   1.039   1.742 -0.4208  4.4528 -1.3953
  142SOL     OW  424   2.355   2.865   0.050 -0.0353  0.2513 -0.6798
  142SOL    HW1  425   2.267   2.830   0.023  2.5088  0.7838 -0.4074
  142SOL    HW2  426   2.427   2.805   0.008  2.1740  0.5205 -1.0473
  143SOL     OW  427   0.814   2.184   0.054 -0.5311  0.1491 -0.3460
  143SOL    HW1  428   0.841   2.249   3.079  2.2889  5.3015 -0.2239
  143SOL    HW2  429   0.712   2.176   0.056 -1.3172 -1.7178 -0.0926
  144SOL     OW  430   1.001   2.655   0.151 -0.1394  0.1497  0.1805
  144SOL    HW1  431   1.068   2.679   0.078  0.8916 -3.8204 -1.5722
  144SOL    HW2  432   1.030   2.575   0.203 -1.2940  0.9504 -1.4168
  145SOL     OW  433   2.296   1.707   0.022 -0.1180  0.7202  0.5923
  145SOL    HW1  434   2.339   1.771   0.085 -0.7231 -2.3914 -0.9355
  145SOL    HW2  435   2.200   1.737   0.005 -0.0191 -1.8113 -0.9020
  146SOL     OW  436   2.556   2.724   2.983  0.0752 -0.5407 -0.2600
  146SOL    HW1  437   2.554   2.806   2.920 -0.4428  0.4722  1.4410
  146SOL    HW2  438   2.603   2.646   2.944 -2.2035  3.1362  4.6650
  147SOL     OW  439   2.711   1.965   1.443  0.4981 -0.4360 -0.0586
  147SOL    HW1  440   2.761   2.008   1.365  0.6153  1.7522  2.6631
  147SOL    HW2  441   2.713   1.861   1.436  0.4250 -0.2072 -0.0780
  148SOL     OW  442   1.700   0.001   3.043 -0.2876  0.6775  0.3178
  148SOL    HW1  443   1.785   3.052   3.070 -1.6511 -3.0499  3.0067
  148SOL    HW2  444   1.632   3.097   0.018  1.4481 -0.0901  5.7021
  149SOL     OW  445   1.161   1.393   2.789 -0.2511 -0.3668  0.4112
  149SOL    HW1  446   1.173   1.455   2.867  0.6206 -2.3835  2.5253
  149SOL    HW2  447   1.106   1.308   2.817 -1.7943 -1.2261 -1.9714
  150SOL     OW  448   0.700   2.208   0.726  0.3519  0.0854 -0.3677
  150SOL    HW1  449   0.745   2.291   0.769  0.7877  0.3443  0.5106
  150SOL    HW2  450   0.758   2.124   0.726 -0.3804 -0.9120  2.3502
  151SOL     OW  451   0.521   1.918   2.781 -0.2987 -0.5095 -0.0313
  151SOL    HW1  452   0.574   1.867   2.856  1.1547 -1.3918  1.4407
  151SOL    HW2  453   0.531   2.019   2.785 -1.4386  0.1217  1.0124
  152SOL     OW  454   2.607   1.392   0.431  0.4312  0.4266  0.6240
  152SOL    HW1  455   2.623   1.456   0.352  1.6592  0.1421  1.3188
  152SOL    HW2  456   2.659   1.416   0.512  2.6939  2.2622 -1.6669
  153SOL     OW  457   2.189   2.622   0.522 -0.1127 -1.2640  0.5306
  153SOL    HW1  458   2.201   2.586   0.428 -0.7155 -1.5804 -0.0980
  153SOL    HW2  459   2.090   2.603   0.543  0.9474 -0.4391 -1.6655
  154SOL     OW  460   0.641   2.952   0.707 -0.0041  0.0353 -0.5284
  154SOL    HW1  461   0.697   3.036   0.718  0.2908 -2.4831 -0.7096
  154SOL    HW2  462   0.639   2.911   0.613  1.7835 -2.1148  0.5849
  155SOL     OW  463   0.472   2.185   0.873 -0.3244  0.6467 -0.2533
  155SOL    HW1  464   0.554   2.213   0.821  1.4318 -1.0536  1.7674
  155SOL    HW2  465   0.475   2.229   0.964  2.1794  0.7618  0.8957
  156SOL     OW  466   2.494   2.458   0.006  0.0559  0.5151 -0.5029
  156SOL    HW1  467   2.571   2.487   3.048 -1.3337 -1.2321 -0.3047
  156SOL    HW2  468   2.480   2.519   0.087 -2.3009  1.1893 -1.5271
  157SOL     OW  469   1.118   2.036   1.323  0.0708 -0.0277 -0.2142
  157SOL    HW1  470   1.048   2.060   1.397  0.1846  1.2927  1.6318
  157SOL    HW2  471   1.162   1.942   1.340 -2.4222 -1.3474 -1.8189
  158SOL     OW  472   1.834   0.602   0.006 -0.2610  0.4913  0.1787
  158SOL    HW1  473   1.747   0.552   0.005  0.6331  1.3517  0.5708
  158SOL    HW2  474   1.844   0.664   3.022 -1.8316  2.3484 -2.4027
  159SOL     OW  475   0.959   0.340   2.936 -0.0868  0.5529 -0.4936
  159SOL    HW1  476   1.001   0.427   2.977  1.1272  1.6472  1.7857
  159SOL    HW2  477   1.007   0.257   2.973  0.1877 -0.3921  0.1407
  160SOL     OW  478   1.264   1.401   0.119 -0.2034 -0.6291 -0.3022
  160SOL    HW1  479   1.241   1.477   0.180  0.0986 -2.3329 -0.3623
  160SOL    HW2  480   1.359   1.366   0.137 -0.2756 -0.7970  1.1356
  161SOL     OW  481   0.003   2.048   2.675 -0.6770 -0.1601  0.0051
  161SOL    HW1  482   3.066   2.107   2.747  2.3394  0.2121 -2.8692
  161SOL    HW2  483   0.099   2.080   2.651 -1.9364 -0.1538 -2.2068
  162SOL     OW  484   0.595   2.646   0.938  0.6995  0.2206  0.0672
  162SOL    HW1  485   0.659   2.727   0.922 -0.9360  0.0182 -0.3666
  162SOL    HW2  486   0.538   2.667   1.021 -2.5599 -0.3423 -0.1791
  163SOL     OW  487   2.919   1.069   3.059 -0.2205 -1.0370  0.5447
  163SOL    HW1  488   2.941   0.975   3.024 -0.5561  1.1833 -1.2244
  163SOL    HW2  489   2.861   1.064   0.044 -0.3905  1.1519  1.7681
  164SOL     OW  490   0.165   0.104   2.860 -0.3422 -0.1299 -0.2454
  164SOL    HW1  491   0.121   0.013   2.862 -0.8370 -2.0996  1.7671
  164SOL    HW2  492   0.269   0.102   2.873 -0.7860 -0.3984  0.7541
  165SOL     OW  493   1.872   0.263   1.596 -0.4592 -0.2392  0.0011
  165SOL    HW1  494   1.936   0.204   1.539  2.4982  0.6465 -1.7100
  165SOL    HW2  495   1.858   0.359   1.564 -0.3497  2.4801  1.9219
  166SOL     OW  496   2.084   3.003   1.445  0.3991 -0.0540 -0.1020
  166SOL    HW1  497   1.990   2.968   1.427 -0.4654  0.1115 -0.3224
  166SOL    HW2  498   2.079   3.059   1.532  1.4061 -0.0824  0.8675
  167SOL     OW  499   1.072   0.362   1.799  0.3686  0.2610 -0.1195
  167SOL    HW1  500   1.111   0.373   1.892 -0.0576  1.3138 -0.6603
  167SOL    HW2  501   1.138   0.337   1.730 -3.0723 -0.4379  1.7624
  168SOL     OW  502   2.452   0.472   1.932 -0.2918  0.2166  0.2736
  168SOL    HW1  503   2.546   0.436   1.923  0.5224  0.5226  0.6949
  168SOL    HW2  504   2.390   0.444   1.855 -1.2380  1.1973 -0.0433
  169SOL     OW  505   0.392   1.538   0.166 -0.0153  0.3790 -0.4836
  169SOL    HW1  506   0.357   1.582   0.083  2.2573 -0.1760  2.0876
  169SOL    HW2  507   0.349   1.444   0.175  1.1884 -3.8975 -1.4149
  170SOL     OW  508   0.248   1.447   1.633 -0.3587  0.1910 -0.2421
  170SOL    HW1  509   0.239   1.369   1.705  0.9248 -2.0942 -0.6836
  170SOL    HW2  510   0.191   1.530   1.657  1.4361 -0.6518  1.1353
  171SOL     OW  511   1.101   2.519   2.369 -0.1049  0.3620 -0.8043
  171SOL    HW1  512   1.005   2.510   2.405  4.7089  0.8013  1.1381
  171SOL    HW2  513   1.133   2.421   2.363  0.1946  2.2247 -0.4620
  172SOL     OW  514   0.590   2.653   1.612 -0.3083  0.6449 -0.0771
  172SOL    HW1  515   0.678   2.599   1.603  0.0222  0.1584  1.1738
  172SOL    HW2  516   0.602   2.742   1.567  0.8723 -1.7941 -1.3448
  173SOL     OW  517   1.559   2.395   1.033  0.6167  0.5264 -0.2832
  173SOL    HW1  518   1.620   2.380   1.112 -0.1703  0.4591  0.1343
  173SOL    HW2  519   1.465   2.425   1.069 -0.6690  2.4419  0.3052
  174SOL     OW  520   1.183   3.099   0.476 -0.2082 -0.0089  0.8966
  174SOL    HW1  521   1.274   0.022   0.514 -0.7789  1.7188 -1.7266
  174SOL    HW2  522   1.123   3.059   0.545  1.3586  0.0827 -3.1189
  175SOL     OW  523   1.179   1.115   0.195  0.3807 -0.2373 -0.7195
  175SOL    HW1  524   1.169   1.215   0.210  0.2304 -1.2181  0.5545
  175SOL    HW2  525   1.263   1.080   0.242  1.2729 -1.2725 -0.6098
  176SOL     OW  526   1.625   0.456   0.390  0.4797 -0.2597 -0.8038
  176SOL    HW1  527   1.604   0.537   0.452  2.0163  0.6228  1.1436
  176SOL    HW2  528   1.623   0.486   0.293  0.9354 -0.8292 -0.6836
  177SOL     OW  529   1.302   0.713   0.959  0.4893  0.0366  0.3648
  177SOL    HW1  530   1.202   0.710   0.944  2.8397 -1.0778 -3.2590
  177SOL    HW2  531   1.327   0.776   1.039  1.2487 -1.0956  0.5537
  178SOL     OW  532   2.693   1.545   2.857  0.2043 -0.2343  0.7164
  178SOL    HW1  533   2.765   1.481   2.893  0.7249  1.3410  4.0910
  178SOL    HW2  534   2.604   1.510   2.878  1.8185  0.9073  0.2600
  179SOL     OW  535   0.664   2.571   2.927  0.1447  0.5378  0.7750
  179SOL    HW1  536   0.683   2.649   2.861  0.9328  1.1453 -4.0623
  179SOL    HW2  537   0.673   2.603   3.022 -1.0679 -1.4196 -1.3439
  180SOL     OW  538   1.865   1.617   1.648  0.3459  0.6961  0.0388
  180SOL    HW1  539   1.957   1.592   1.608 -0.2641 -2.3178 -1.1911
  180SOL    HW2  540   1.806   1.538   1.669  2.6623  0.5418 -0.1905
  181SOL     OW  541   1.320   1.284   2.151  0.3175 -0.3771 -0.0595
  181SOL    HW1  542   1.229   1.277   2.111  1.2955 -0.9723  1.6854
  181SOL    HW2  543   1.352   1.380   2.171  1.8920 -0.1437 -1.2909
  182SOL     OW  544   0.217   0.915   2.376  0.5063 -0.1688  0.4225
  182SOL    HW1  545   0.228   1.018   2.387 -2.3564  1.6286  1.5541
  182SOL    HW2  546   0.132   0.890   2.428 -0.1308 -0.6806  0.1798
  183SOL     OW  547   1.540   0.379   2.416 -0.0928  0.3003 -0.2442
  183SOL    HW1  548   1.447   0.423   2.414  0.7591  4.5349 -1.7193
  183SOL    HW2  549   1.588   0.390   2.504 -3.4272 -0.5536  1.4572
  184SOL     OW  550   0.222   0.609   1.371 -0.2975 -0.6134  0.2654
  184SOL    HW1  551   0.244   0.519   1.330  0.0607  2.4018  0.2588
  184SOL    HW2  552   0.136   0.649   1.325  3.1916  0.1425  0.7700
  185SOL     OW  553   2.411   1.668   0.870  0.0595 -0.0663 -0.0073
  185SOL    HW1  554   2.385   1.745   0.924  2.2324 -0.0729 -2.2155
  185SOL    HW2  555   2.509   1.680   0.853 -1.0177 -1.3257  0.4865
  186SOL     OW  556   0.651   1.782   2.580 -0.0789  0.1126 -0.0625
  186SOL    HW1  557   0.615   1.686   2.571 -1.0118 -1.6162 -0.8891
  186SOL    HW2  558   0.591   1.844   2.633  0.0090 -1.7820 -1.6435
  187SOL     OW  559   2.582   1.916   3.013  0.0705  0.4119  0.2004
  187SOL    HW1  560   2.656   1.989   3.037  2.5436 -1.0226  2.1684
  187SOL    HW2  561   2.535   1.878   3.096 -0.1415  0.6075 -1.2588
  188SOL     OW  562   0.508   2.389   0.607  0.1131 -0.1185 -0.2171
  188SOL    HW1  563   0.560   2.311   0.644  2.5358  1.7742  0.6712
  188SOL    HW2  564   0.474   2.374   0.512  0.0862 -0.6702  0.8763
  189SOL     OW  565   2.181   0.894   2.871 -0.2747  0.2579 -0.7011
  189SOL    HW1  566   2.131   0.919   2.957  0.3240  0.5820  0.3341
  189SOL    HW2  567   2.142   0.941   2.793  1.5754 -1.4908 -0.2906
  190SOL     OW  568   0.921   1.991   2.016 -0.3655 -0.5949  0.1755
  190SOL    HW1  569   0.856   2.067   2.013 -0.6324 -0.1781  0.1576
  190SOL    HW2  570   0.987   2.000   1.934  4.2534  0.8889 -2.2067
  191SOL     OW  571   2.190   0.745   1.290 -0.4057 -0.4038  0.1380
  191SOL    HW1  572   2.187   0.693   1.376 -1.5691  1.8639  0.3107
  191SOL    HW2  573   2.096   0.763   1.255 -1.5021 -2.0891 -3.7882
  192SOL     OW  574   2.115   0.243   1.842  0.7174 -0.0364 -0.3571
  192SOL    HW1  575   2.025   0.287   1.834  1.3853  0.9232 -0.3101
  192SOL    HW2  576   2.137   0.219   1.938  1.9129 -1.2322  0.6170
  193SOL     OW  577   0.098   0.627   0.864  0.4822 -0.5152 -0.0177
  193SOL    HW1  578   0.039   0.593   0.946 -1.8256  0.5253  2.2259
  193SOL    HW2  579   0.187   0.571   0.860  2.6949 -2.3881  4.6660
  194SOL     OW  580   1.744   2.491   1.633  0.0848  0.3500  0.5291
  194SOL    HW1  581   1.665   2.501   1.569 -1.8441  2.1015  0.5062
  194SOL    HW2  582   1.785   2.399   1.617  0.0355 -0.9692 -0.0867
  195SOL     OW  583   2.576   0.591   0.719  0.2629 -0.2757 -0.8822
  195SOL    HW1  584   2.490   0.545   0.687 -1.5190  1.9010 -0.9094
  195SOL    HW2  585   2.649   0.587   0.650 -5.2958 -2.0148  2.3827
  196SOL     OW  586   1.053   2.081   1.779 -0.1399  0.1921  0.0903
  196SOL    HW1  587   1.103   2.170   1.772  1.4158  0.8674 -0.3173
  196SOL    HW2  588   1.111   2.008   1.743 -1.2404 -0.5665 -0.2704
  197SOL     OW  589   0.093   0.208   2.615 -0.0207  0.2922 -0.0318
  197SOL    HW1  590   0.111   0.170   2.708  3.0736  1.7178  1.3474
  197SOL    HW2  591   0.134   0.301   2.608  0.6130 -1.8904  1.1920
  198SOL     OW  592   1.150   0.930   0.670  0.1387 -0.1381  0.3298
  198SOL    HW1  593   1.205   0.985   0.735  2.5375  3.6097  1.4652
  198SOL    HW2  594   1.153   0.837   0.712 -0.8040  1.9947  1.0862
  199SOL     OW  595   2.684   0.960   1.837 -0.1737  0.7302 -0.3110
  199SOL    HW1  596   2.707   0.885   1.772 -0.5627  0.6170 -0.5159
  199SOL    HW2  597   2.586   0.953   1.855  0.6175 -2.7023 -1.9832
  200SOL     OW  598   2.302   2.808   2.406 -0.1345  0.4614  0.0143
  200SOL    HW1  599   2.233   2.877   2.379 -0.6149 -4.2127 -2.1832
  200SOL    HW2  600   2.268   2.717   2.365 -0.2500 -2.9877  0.2447
  201SOL     OW  601   2.465   0.403   1.584 -0.0172  0.3254  0.1503
  201SOL    HW1  602   2.523   0.327   1.624  0.6627 -0.4501  3.8083
  201SOL    HW2  603   2.450   0.399   1.485  0.8519 -0.9666 -1.9454
  202SOL     OW  604   2.240   3.065   0.185 -0.3790 -0.4589  0.4753
  202SOL    HW1  605   2.160   0.012   0.228 -0.2463 -2.2333  3.6147
  202SOL    HW2  606   2.222   2.975   0.137  0.6773 -1.1183 -1.0257
  203SOL     OW  607   1.177   2.252   2.414 -0.1666 -0.0934 -0.1208
  203SOL    HW1  608   1.077   2.227   2.416  1.7146  2.5210 -0.8964
  203SOL    HW2  609   1.221   2.232   2.505  0.9894  1.7608  0.0571
  204SOL     OW  610   1.015   1.507   2.570  0.1308 -0.0826 -0.1222
  204SOL    HW1  611   1.054   1.458   2.652 -1.2476  0.3677 -1.0809
  204SOL    HW2  612   0.983   1.446   2.495 -3.1515 -0.2007 -3.0187
  205SOL     OW  613   1.067   1.351   1.403  0.1764 -0.4616  0.3247
  205SOL    HW1  614   1.124   1.334   1.321 -1.7630  0.3212 -0.1159
  205SOL    HW2  615   1.101   1.297   1.480  0.2927  0.2193 -1.6465
  206SOL     OW  616   0.342   0.517   2.740  0.3882 -0.0511 -0.2650
  206SOL    HW1  617   0.278   0.535   2.664 -1.3490 -2.9110  1.4998
  206SOL    HW2  618   0.288   0.464   2.811 -0.7711 -1.4205  0.8387
  207SOL     OW  619   1.704   2.623   2.298 -0.1395  0.0424 -0.2117
  207SOL    HW1  620   1.744   2.707   2.331 -1.7607 -3.2452 -0.7344
  207SOL    HW2  621   1.658   2.631   2.204 -0.0965  1.1144 -4.0386
  208SOL     OW  622   0.819   2.342   1.308 -0.0068  0.1185 -0.1813
  208SOL    HW1  623   0.843   2.436   1.343  0.2279  1.4920 -2.5274
  208SOL    HW2  624   0.834   2.342   1.206 -1.1112 -0.8266 -1.4544
  209SOL     OW  625   1.208   1.162   2.384 -0.3636  0.2804  0.0092
  209SOL    HW1  626   1.197   1.192   2.287  0.8819 -1.2945  1.4507
  209SOL    HW2  627   1.128   1.187   2.441 -0.2583  3.1793  1.4875
  210SOL     OW  628   1.879   1.146   0.938 -0.1147  0.6374  0.0505
  210SOL    HW1  629   1.900   1.145   1.038  0.9624 -0.0506 -0.3644
  210SOL    HW2  630   1.824   1.061   0.912 -1.2547 -1.4506  0.1588
  211SOL     OW  631   0.700   2.542   0.480 -0.2125  0.1493 -0.1415
  211SOL    HW1  632   0.649   2.489   0.546  0.9187  2.1857 -1.3549
  211SOL    HW2  633   0.788   2.493   0.458  0.8752  0.3635 -0.4602
  212SOL     OW  634   1.889   1.860   0.286  0.6648  0.2956 -0.2402
  212SOL    HW1  635   1.790   1.846   0.271  0.1395  0.4080  0.0120
  212SOL    HW2  636   1.905   1.945   0.341  0.5704  0.9431  0.8744
  213SOL     OW  637   1.664   0.374   2.869 -0.2377 -0.6022  0.0287
  213SOL    HW1  638   1.635   0.398   2.963  0.1205 -1.0682 -1.5425
  213SOL    HW2  639   1.753   0.321   2.876  3.0947 -1.0185  1.3301
  214SOL     OW  640   1.242   1.752   2.194 -0.1686 -0.2120 -0.1396
  214SOL    HW1  641   1.216   1.743   2.097  0.9250 -0.8171  1.5462
  214SOL    HW2  642   1.158   1.742   2.255  2.7697  2.4070 -0.4517
  215SOL     OW  643   0.839   1.820   0.364  0.3175 -0.3414 -0.6761
  215SOL    HW1  644   0.831   1.839   0.263  0.1769  0.4459 -3.0187
  215SOL    HW2  645   0.804   1.721   0.373  0.8670 -1.8659  2.5960
  216SOL     OW  646   0.250   2.848   2.597 -0.1818  0.1183 -0.2512
  216SOL    HW1  647   0.267   2.779   2.670 -3.3295  2.8521  0.2385
  216SOL    HW2  648   0.216   2.800   2.514 -0.7984 -2.3482 -0.0173
  217SOL     OW  649   2.521   0.731   0.975 -0.1766  0.3593  0.1081
  217SOL    HW1  650   2.525   0.676   0.888 -0.2468 -1.3415 -1.4398
  217SOL    HW2  651   2.453   0.687   1.039  0.7713 -0.1991 -1.5858
  218SOL     OW  652   2.121   1.638   1.989 -0.6571 -0.6554 -0.0919
  218SOL    HW1  653   2.145   1.635   2.088  0.2273  1.9086 -1.3144
  218SOL    HW2  654   2.209   1.628   1.941  2.5589  2.9014  0.2123
  219SOL     OW  655   1.989   1.608   0.279 -0.4937  0.1354  0.2674
  219SOL    HW1  656   1.963   1.564   0.192 -0.0623  1.1775 -1.1236
  219SOL    HW2  657   1.958   1.707   0.283  1.7185 -0.8077 -1.7396
  220SOL     OW  658   1.557   1.134   0.541  0.2076 -0.2407 -0.3529
  220SOL    HW1  659   1.521   1.128   0.636 -0.8236 -2.1788 -4.0612
  220SOL    HW2  660   1.631   1.206   0.534  1.7782  1.3184  1.7074
  221SOL     OW  661   0.549   0.661   2.842 -0.4671 -0.4557  0.1540
  221SOL    HW1  662   0.572   0.670   2.939  2.2794 -0.4279 -0.5777
  221SOL    HW2  663   0.455   0.629   2.824 -1.1795  3.4687  0.9521
  222SOL     OW  664   1.473   1.262   0.239 -0.3153  0.1015  0.3481
  222SOL    HW1  665   1.492   1.347   0.292  2.3206 -3.7021 -1.0936
  222SOL    HW2  666   1.459   1.182   0.300 -0.6281  0.9207 -1.5229
  223SOL     OW  667   1.152   0.117   0.242  0.2385  0.5879 -0.1734
  223SOL    HW1  668   1.142   0.073   0.334 -0.4287  0.2369  2.4015
  223SOL    HW2  669   1.227   0.183   0.237 -0.6204 -1.0241  0.4455
  224SOL     OW  670   2.109   0.011   1.695  0.5017 -0.1957  0.6531
  224SOL    HW1  671   2.124   0.098   1.738 -0.2906 -3.5986 -3.7598
  224SOL    HW2  672   2.193   3.055   1.700 -3.7070  2.6656 -1.6092
  225SOL     OW  673   0.319   2.920   1.102 -0.0651 -0.1541  0.5220
  225SOL    HW1  674   0.221   2.953   1.108 -2.4875  0.1419  1.5056
  225SOL    HW2  675   0.364   2.963   1.020 -1.3440  0.0939 -2.3865
  226SOL     OW  676   1.193   1.590   3.031 -0.2656 -0.0037 -0.4378
  226SOL    HW1  677   1.281   1.626   2.993 -1.1178 -0.0168  0.9320
  226SOL    HW2  678   1.216   1.525   0.005 -0.8947 -1.7372  3.3192
  227SOL     OW  679   1.087   1.483   0.958  0.2837  0.0495  0.5130
  227SOL    HW1  680   1.075   1.579   0.933 -0.4405  2.3260  1.1870
  227SOL    HW2  681   1.150   1.439   0.893 -1.0997 -0.4327  0.2891
  228SOL     OW  682   0.429   1.695   0.576 -0.5734  0.4776  0.0327
  228SOL    HW1  683   0.424   1.611   0.518 -0.2974  0.5749 -0.0728
  228SOL    HW2  684   0.362   1.680   0.647  2.5303 -0.7027 -1.3307
  229SOL     OW  685   1.383   0.390   3.052  0.3268 -0.1055  0.4408
  229SOL    HW1  686   1.401   0.456   2.974  1.3538 -1.6046 -0.6447
  229SOL    HW2  687   1.309   0.329   3.028 -1.3586  1.3563 -0.7134
  230SOL     OW  688   1.692   0.713   2.489  0.1305 -0.0601  0.6552
  230SOL    HW1  689   1.705   0.616   2.516  0.0918 -1.9221  0.3715
  230SOL    HW2  690   1.749   0.765   2.550 -2.9423 -1.2395 -0.4481
  231SOL     OW  691   1.231   1.828   2.571 -0.3772 -0.1864 -0.0843
  231SOL    HW1  692   1.193   1.879   2.650 -3.0669  1.3103  0.4892
  231SOL    HW2  693   1.163   1.838   2.498  0.2810 -2.0381 -0.1457
  232SOL     OW  694   2.332   2.202   0.662  0.0408 -0.3781 -0.0503
  232SOL    HW1  695   2.298   2.299   0.681 -0.5134  0.5558  0.0621
  232SOL    HW2  696   2.282   2.158   0.584  0.3770  0.4724 -0.8488
  233SOL     OW  697   2.530   2.899   0.247 -0.5614  0.1709  0.0618
  233SOL    HW1  698   2.463   2.927   0.174  1.6478  0.5133 -1.2859
  233SOL    HW2  699   2.500   2.938   0.338  0.4681  1.4535  1.6405
  234SOL     OW  700   0.725   0.557   2.687  0.0667  0.2731 -0.1107
  234SOL    HW1  701   0.650   0.577   2.759 -3.3635  1.6020  2.0777
  234SOL    HW2  702   0.807   0.604   2.722 -1.9419  0.8998  4.2567
  235SOL     OW  703   2.715   0.488   2.673 -0.0981 -0.0350  0.0436
  235SOL    HW1  704   2.660   0.427   2.614 -2.4853 -1.0932 -2.0006
  235SOL    HW2  705   2.681   0.585   2.669  0.5261  1.4346  1.0899
  236SOL     OW  706   2.188   2.439   1.879 -0.6694  0.2233  0.0661
  236SOL    HW1  707   2.093   2.455   1.917  0.9880  1.7440  0.0922
  236SOL    HW2  708   2.255   2.459   1.951  0.0172 -2.7945 -1.2246
  237SOL     OW  709   0.663   1.579   2.083 -0.4349  0.0163 -0.0144
  237SOL    HW1  710   0.634   1.665   2.127  1.0028  0.9958  2.4605
  237SOL    HW2  711   0.674   1.504   2.151  0.7527  2.9056  1.4171
  238SOL     OW  712   1.485   0.199   2.768 -0.2229  0.0179  0.1875
  238SOL    HW1  713   1.540   0.279   2.796  0.5930 -1.4860  1.1609
  238SOL    HW2  714   1.531   0.146   2.698 -1.1857 -0.3864 -0.5575
  239SOL     OW  715   0.249   2.232   1.591 -0.2152 -0.3925 -0.0122
  239SOL    HW1  716   0.217   2.254   1.685 -2.2769  1.6887 -0.7976
  239SOL    HW2  717   0.350   2.209   1.588  0.6230 -2.5468  1.4711
  240SOL     OW  718   2.746   2.160   0.844  0.4480  0.8285 -0.3539
  240SOL    HW1  719   2.691   2.186   0.763  0.8851  0.6635  0.8504
  240SOL    HW2  720   2.745   2.240   0.910  0.8342  2.7265 -0.3389
  241SOL     OW  721   2.579   1.032   0.766  0.1512  0.0123  0.1325
  241SOL    HW1  722   2.552   1.023   0.864 -0.7531  0.4105 -1.9902
  241SOL    HW2  723   2.496   1.045   0.703 -1.3292  0.5320 -1.5869
  242SOL     OW  724   2.081   2.177   2.369  0.2550 -0.4268  0.4276
  242SOL    HW1  725   2.090   2.090   2.420  0.0559 -2.3609 -1.0283
  242SOL    HW2  726   2.135   2.180   2.284  3.5689 -2.0672 -1.7981
  243SOL     OW  727   0.862   2.596   1.694  0.5176 -0.5318  0.1985
  243SOL    HW1  728   0.883   2.692   1.700 -1.7173  0.5620 -3.4031
  243SOL    HW2  729   0.891   2.548   1.610 -1.1048 -0.9838  2.1553
  244SOL     OW  730   1.842   0.159   2.859  0.5088 -0.2335  0.0697
  244SOL    HW1  731   1.758   0.121   2.908  1.6139  1.6926 -0.9115
  244SOL    HW2  732   1.868   0.100   2.779  1.7989  1.0376  0.2432
  245SOL     OW  733   1.262   0.041   1.324 -0.0159 -0.0332  0.4327
  245SOL    HW1  734   1.179   0.059   1.268 -0.7191 -0.6395  1.3404
  245SOL    HW2  735   1.263   3.045   1.354  0.4283  0.4876 -0.0827
  246SOL     OW  736   1.666   2.415   0.336 -0.1624 -0.1483 -0.6438
  246SOL    HW1  737   1.722   2.495   0.358 -2.2653 -4.6124 -1.0679
  246SOL    HW2  738   1.625   2.444   0.244 -1.1337 -0.6201 -2.6864
  247SOL     OW  739   1.276   0.467   2.508  0.2498  0.5193 -0.0085
  247SOL    HW1  740   1.194   0.480   2.445 -1.2132 -1.3578 -0.7893
  247SOL    HW2  741   1.263   0.375   2.561 -1.8873 -1.7071  2.4146
  248SOL     OW  742   0.510   1.992   1.831  0.1283  0.4834 -0.2627
  248SOL    HW1  743   0.428   1.999   1.892  0.2069  1.4820  0.7668
  248SOL    HW2  744   0.541   1.899   1.833 -0.2384  3.6550  0.3087
  249SOL     OW  745   2.214   0.320   0.390  0.4181  0.8453 -0.0822
  249SOL    HW1  746   2.245   0.362   0.304 -0.9459  0.8421 -0.6686
  249SOL    HW2  747   2.139   0.254   0.379  2.6223 -2.4407  3.3872
  250SOL     OW  748   0.196   0.612   0.477  0.5589 -0.0088 -0.2130
  250SOL    HW1  749   0.283   0.661   0.491  2.1586 -0.7488 -1.2601
  250SOL    HW2  750   0.128   0.676   0.436 -3.0396  0.5464 -1.0723
  251SOL     OW  751   1.464   0.584   2.880  0.3426 -0.1035  0.2028
  251SOL    HW1  752   1.476   0.662   2.945 -2.1745  0.8359  0.5950
  251SOL    HW2  753   1.422   0.609   2.790 -0.0332  0.8112 -1.4933
  252SOL     OW  754   1.625   1.794   2.012  0.0292  0.0590  0.1008
  252SOL    HW1  755   1.720   1.777   1.995 -1.5878 -0.4342 -0.6224
  252SOL    HW2  756   1.563   1.733   1.954 -1.9454 -1.4135 -2.1077
  253SOL     OW  757   2.592   2.322   1.708 -0.1587 -0.6608  0.5747
  253SOL    HW1  758   2.578   2.350   1.803 -1.3767 -3.0626 -1.0726
  253SOL    HW2  759   2.658   2.244   1.696  0.2093 -0.8509  0.6238
  254SOL     OW  760   2.871   1.180   1.075  0.7748  0.0245  0.1765
  254SOL    HW1  761   2.907   1.240   1.150  1.3227 -2.1821  1.3781
  254SOL    HW2  762   2.943   1.116   1.042 -1.3834 -1.4501 -2.1815
  255SOL     OW  763   0.895   0.425   1.152 -0.3223  0.1387  0.1967
  255SOL    HW1  764   0.916   0.407   1.250  1.5098  0.5898 -0.6090
  255SOL    HW2  765   0.804   0.469   1.139  0.4780  0.4328  1.2778
  256SOL     OW  766   1.889   2.252   1.601  0.2117 -0.2535  0.1004
  256SOL    HW1  767   1.982   2.217   1.579  1.5901 -1.0120 -3.2904
  256SOL    HW2  768   1.825   2.174   1.590  1.6993  2.8497  2.6291
  257SOL     OW  769   0.783   2.894   2.428  0.3874 -0.3351 -0.1676
  257SOL    HW1  770   0.844   2.863   2.507  1.9474 -0.0972  2.2297
  257SOL    HW2  771   0.832   2.906   2.341  0.7298  0.9664  1.3961
  258SOL     OW  772   0.946   2.184   0.304  0.4143  0.6657 -0.0469
  258SOL    HW1  773   0.871   2.161   0.240 -0.8598  2.1493  1.0449
  258SOL    HW2  774   0.964   2.109   0.366  1.2624  4.3466 -2.4230
  259SOL     OW  775   1.142   2.985   2.708  0.5898  0.1025 -0.9324
  259SOL    HW1  776   1.105   3.030   2.625  0.4110 -1.9863  1.1054
  259SOL    HW2  777   1.243   2.977   2.701  0.9481 -0.8089 -0.4308
  260SOL     OW  778   1.667   0.730   1.135 -0.5187 -0.5361 -0.2441
  260SOL    HW1  779   1.590   0.767   1.193 -1.9837  2.6692  0.7237
  260SOL    HW2  780   1.677   0.627   1.149 -1.7316  1.0482 -0.7730
  261SOL     OW  781   0.489   0.278   2.451 -1.0152  0.6375  0.1358
  261SOL    HW1  782   0.409   0.268   2.386 -0.7852 -1.6912  1.5129
  261SOL    HW2  783   0.528   0.373   2.444  0.2043 -0.2339  0.6527
  262SOL     OW  784   0.271   2.029   2.001  0.2588  0.3430 -0.2839
  262SOL    HW1  785   0.293   2.075   2.087  2.1505  2.2285  0.1564
  262SOL    HW2  786   0.269   2.098   1.927  0.1900 -0.3112 -3.8215
  263SOL     OW  787   2.593   1.279   2.453  0.2239 -0.3304 -0.4997
  263SOL    HW1  788   2.523   1.223   2.491  1.4858  0.1843 -0.0319
  263SOL    HW2  789   2.574   1.376   2.460 -0.3418  0.7565  1.3602
  264SOL     OW  790   0.901   1.024   0.817 -0.7375  0.1975 -0.2530
  264SOL    HW1  791   0.812   0.979   0.790  1.4128 -0.9265  3.1192
  264SOL    HW2  792   0.974   0.983   0.757 -1.1002 -1.7804  0.4324
  265SOL     OW  793   1.332   2.519   1.162 -0.7822 -0.1270 -0.7891
  265SOL    HW1  794   1.329   2.432   1.221 -1.3518 -3.6309  2.0012
  265SOL    HW2  795   1.358   2.599   1.218 -1.0874 -1.3277 -1.0834
  266SOL     OW  796   1.636   1.038   1.177  0.0139  0.0142  0.0104
  266SOL    HW1  797   1.736   1.056   1.195  2.8743 -0.0976  0.8437
  266SOL    HW2  798   1.622   1.031   1.077  0.2188 -1.5326 -2.6167
  267SOL     OW  799   2.452   1.092   3.095  0.5594  0.1957  0.0234
  267SOL    HW1  800   2.541   1.062   3.052  1.2244 -0.3205 -2.0595
  267SOL    HW2  801   2.406   1.008   0.026  2.0138  0.7216  1.4859
  268SOL     OW  802   1.377   0.306   0.225  0.0467 -0.4749  0.2570
  268SOL    HW1  803   1.465   0.268   0.258  0.2389 -2.0668  4.3760
  268SOL    HW2  804   1.376   0.353   0.136 -0.2942  2.2785  3.8171
  269SOL     OW  805   2.588   0.779   2.584  0.2809  0.2056 -0.3053
  269SOL    HW1  806   2.545   0.821   2.667  0.4104 -0.5002  1.1576
  269SOL    HW2  807   2.516   0.733   2.535  2.2880  2.0923 -0.6819
  270SOL     OW  808   0.319   0.934   2.759 -0.0703  0.2891  0.1341
  270SOL    HW1  809   0.406   0.898   2.716  3.2213 -1.2294 -0.2616
  270SOL    HW2  810   0.341   0.979   2.849  2.1270  0.1739 -0.4528
  271SOL     OW  811   2.796   1.069   0.204  0.2856  0.3160  0.3604
  271SOL    HW1  812   2.723   1.027   0.257 -1.7782  0.8536  0.8216
  271SOL    HW2  813   2.826   1.149   0.260 -3.9862 -2.6683  1.8333
  272SOL     OW  814   2.713   2.602   2.572 -0.4019 -0.4790 -0.2299
  272SOL    HW1  815   2.800   2.648   2.599 -1.8440  0.1902  0.7048
  272SOL    HW2  816   2.691   2.524   2.629  2.1608 -0.1582 -2.3519
  273SOL     OW  817   2.910   3.040   2.634 -0.0413 -0.1024 -0.0016
  273SOL    HW1  818   2.944   0.014   2.573  1.5560 -0.5301  1.0731
  273SOL    HW2  819   2.888   3.067   2.729 -0.8348  0.0417 -4.1749
  274SOL     OW  820   0.789   2.454   0.806 -0.3922  0.1402 -0.2288
  274SOL    HW1  821   0.724   2.505   0.861  0.6723  0.6496  0.6317
  274SOL    HW2  822   0.861   2.518   0.780 -0.0982 -2.7443  0.4223
  275SOL     OW  823   2.263   0.868   0.297  0.4900 -0.6578  0.3723
  275SOL    HW1  824   2.197   0.795   0.326 -3.8947  3.7707 -0.5706
  275SOL    HW2  825   2.342   0.869   0.361  0.8346  4.4724 -0.0591
  276SOL     OW  826   2.855   1.135   1.745  0.7555 -0.3910  0.2787
  276SOL    HW1  827   2.791   1.059   1.779  2.1738  0.6743 -0.0450
  276SOL    HW2  828   2.817   1.226   1.761  0.2574  1.0489  2.2997
  277SOL     OW  829   2.232   3.090   1.225 -0.1934  0.4874 -0.3506
  277SOL    HW1  830   2.168   3.070   1.304 -0.1234  0.7031  0.0466
  277SOL    HW2  831   2.309   3.019   1.222  1.5824 -2.8311  0.3613
  278SOL     OW  832   1.608   2.556   2.749  0.0318  0.3199 -0.1101
  278SOL    HW1  833   1.610   2.498   2.665  0.7025  2.0684  0.0790
  278SOL    HW2  834   1.528   2.537   2.810  0.8900 -1.1719  1.1799
  279SOL     OW  835   1.581   1.989   1.242  0.4598 -0.0007 -0.0551
  279SOL    HW1  836   1.641   1.914   1.279  0.0052 -0.3889  0.1784
  279SOL    HW2  837   1.626   2.080   1.245  0.9927  0.8412 -0.3568
  280SOL     OW  838   0.387   1.472   0.955 -0.2448 -0.6256  0.4250
  280SOL    HW1  839   0.363   1.559   0.911  1.8776 -0.0086 -0.6615
  280SOL    HW2  840   0.339   1.454   1.043 -1.4739 -0.9272  1.2378
  281SOL     OW  841   2.731   1.242   2.691 -0.2983  0.2022  0.6370
  281SOL    HW1  842   2.654   1.257   2.757  0.9204  0.4209  0.4161
  281SOL    HW2  843   2.710   1.271   2.595 -0.5868  1.6475  0.4920
  282SOL     OW  844   0.651   1.513   3.086  0.0836  0.3310 -0.1540
  282SOL    HW1  845   0.577   1.562   0.033  0.1234  1.1885 -2.0216
  282SOL    HW2  846   0.739   1.521   0.031 -1.7128 -1.0601 -1.3298
  283SOL     OW  847   2.016   2.557   0.097 -0.2351 -0.6257  0.0344
  283SOL    HW1  848   2.051   2.592   0.008 -1.0196 -1.5554  4.0076
  283SOL    HW2  849   1.917   2.533   0.093  0.7749 -0.7454 -0.6152
  284SOL     OW  850   0.955   3.050   0.941 -0.3013 -0.3038 -0.2567
  284SOL    HW1  851   0.921   3.077   0.850  1.0382 -1.0343  0.5255
  284SOL    HW2  852   0.957   2.948   0.944 -2.3029  0.1996 -1.9669
  285SOL     OW  853   2.112   1.433   2.643  0.0545 -0.5609  1.4349
  285SOL    HW1  854   2.115   1.423   2.538  1.4482  0.7446 -2.2999
  285SOL    HW2  855   2.065   1.349   2.678 -2.0564  1.9038 -1.9067
  286SOL     OW  856   2.073   2.472   1.068  0.6184 -0.3892 -0.3744
  286SOL    HW1  857   2.070   2.472   1.170  1.9739  0.7181  0.3140
  286SOL    HW2  858   2.159   2.515   1.041 -0.4023  1.6413  2.5522
  287SOL     OW  859   1.004   0.334   0.879  0.0559  0.4281 -0.7304
  287SOL    HW1  860   1.013   0.232   0.889 -0.5226 -0.1343  0.7234
  287SOL    HW2  861   0.963   0.372   0.966  0.0219 -1.2547 -0.9975
  288SOL     OW  862   0.845   2.363   2.937  0.6051 -0.1182 -0.1749
  288SOL    HW1  863   0.788   2.444   2.911  2.6577 -1.5013  1.0007
  288SOL    HW2  864   0.935   2.398   2.966  2.3412 -2.1558  0.7982
  289SOL     OW  865   2.976   1.517   0.963  0.0126 -0.1845 -0.5212
  289SOL    HW1  866   3.031   1.584   0.903  0.7670  0.3869 -0.1721
  289SOL    HW2  867   3.035   1.492   1.043 -0.9658  0.6735  0.5992
  290SOL     OW  868   1.410   1.985   1.040 -0.0747 -0.1543 -0.2798
  290SOL    HW1  869   1.477   1.983   1.119  1.7926 -4.0522  1.0940
  290SOL    HW2  870   1.342   2.065   1.040 -2.0026  0.7921 -0.5918
  291SOL     OW  871   1.474   0.011   0.115  0.3140 -0.0858  0.1832
  291SOL    HW1  872   1.433   3.043   0.179 -0.8353 -0.7439  1.1778
  291SOL    HW2  873   1.412   0.033   0.038 -0.0606 -0.3062  0.5114
  292SOL     OW  874   0.434   0.320   2.073 -0.0016  0.2402  0.2017
  292SOL    HW1  875   0.443   0.415   2.105  0.4868 -0.3953  1.1259
  292SOL    HW2  876   0.519   0.288   2.025 -1.6185  3.0143 -2.5336
  293SOL     OW  877   2.435   1.986   1.418  0.1532  0.0434 -0.1765
  293SOL    HW1  878   2.538   1.988   1.440 -1.8633 -0.2926 -1.3192
  293SOL    HW2  879   2.404   2.083   1.392  1.4144  2.7315  0.2025
  294SOL     OW  880   0.771   0.195   2.425 -0.2554  0.2835 -0.0853
  294SOL    HW1  881   0.822   0.277   2.461  2.0884 -1.2187  0.5147
  294SOL    HW2  882   0.669   0.192   2.438  0.0545  2.1104 -2.7323
  295SOL     OW  883   1.665   1.579   1.229  0.3514 -0.1689 -0.0602
  295SOL    HW1  884   1.654   1.509   1.303  0.6076  0.2272  1.4854
  295SOL    HW2  885   1.670   1.673   1.268 -0.7546  0.8769 -0.2086
  296SOL     OW  886   2.470   1.865   0.157  0.1120 -0.0070  0.0090
  296SOL    HW1  887   2.432   1.921   0.238 -1.7073  0.3479  1.0281
  296SOL    HW2  888   2.558   1.825   0.188 -3.0394  1.5685 -1.0171
  297SOL     OW  889   2.680   0.237   0.311 -0.2969 -0.7187  0.0207
  297SOL    HW1  890   2.644   0.184   0.230 -0.0310  4.4755 -0.9902
  297SOL    HW2  891   2.736   0.316   0.279  0.5799 -0.4048  1.3726
  298SOL     OW  892   0.789   0.010   2.921 -0.1061  0.3010 -0.5154
  298SOL    HW1  893   0.733   3.047   2.974  0.4164  1.3100  0.4801
  298SOL    HW2  894   0.756   0.103   2.933  0.9283 -2.4371  1.7553
  299SOL     OW  895   0.667   2.201   2.248  0.0890 -0.4554 -0.7601
  299SOL    HW1  896   0.671   2.166   2.153  2.0764  0.1002 -1.4666
  299SOL    HW2  897   0.665   2.125   2.316 -0.7356  1.2868 -3.2518
  300SOL     OW  898   2.750   3.052   2.197 -0.4828  0.6411 -0.2869
  300SOL    HW1  899   2.793   0.045   2.196  1.9285  1.7114  0.5098
  300SOL    HW2  900   2.825   2.990   2.185 -2.3664  3.0896  0.5967
  301SOL     OW  901   1.127   0.767   1.821 -0.2964  0.2699  0.2691
  301SOL    HW1  902   1.145   0.676   1.776  0.6550  0.6951 -0.9134
  301SOL    HW2  903   1.197   0.791   1.888 -0.1869  1.5861 -0.9626
  302SOL     OW  904   3.100   2.215   0.208  0.5282 -0.4331 -0.4919
  302SOL    HW1  905   0.054   2.234   0.292  0.6988 -1.5830 -0.0856
  302SOL    HW2  906   3.000   2.217   0.220 -1.3310  1.9356 -1.0553
  303SOL     OW  907   2.531   2.698   1.671 -0.0207  0.4087  0.0472
  303SOL    HW1  908   2.583   2.611   1.655 -0.7073  2.0582 -0.4574
  303SOL    HW2  909   2.588   2.755   1.732  1.1753 -1.5633  4.2617
  304SOL     OW  910   2.743   0.805   1.629  0.0116 -0.0074 -0.4856
  304SOL    HW1  911   2.685   0.726   1.650  0.9550  0.2547  0.9436
  304SOL    HW2  912   2.841   0.791   1.635 -1.7282  0.8540  0.4291
  305SOL     OW  913   0.937   1.962   1.131  0.1418  0.3292  1.0030
  305SOL    HW1  914   0.995   2.005   1.204 -0.0304  0.0134  0.9899
  305SOL    HW2  915   0.855   2.023   1.110 -0.9558  1.9345  0.2366
  306SOL     OW  916   0.474   1.277   2.123  0.0695 -0.1735  0.1001
  306SOL    HW1  917   0.393   1.342   2.120 -1.4438  2.6530 -0.6625
  306SOL    HW2  918   0.541   1.312   2.191  2.7223  0.6288 -0.6809
  307SOL     OW  919   0.824   0.400   1.728 -0.5007  0.1053 -0.2783
  307SOL    HW1  920   0.926   0.398   1.755 -0.0243  1.9487  0.8658
  307SOL    HW2  921   0.822   0.403   1.625 -2.0540 -1.9319 -0.0068
  308SOL     OW  922   3.068   1.020   0.970  0.8994  0.1037 -0.0792
  308SOL    HW1  923   0.049   0.985   1.021  2.7244  0.4782  0.4797
  308SOL    HW2  924   3.065   0.980   0.878 -0.1419  1.7999 -0.7292
  309SOL     OW  925   2.660   1.106   1.267 -0.4948  0.0626 -0.5022
  309SOL    HW1  926   2.599   1.179   1.306 -0.1426  0.1683 -0.1186
  309SOL    HW2  927   2.728   1.157   1.212  0.8913  2.2881  1.7472
  310SOL     OW  928   0.081   1.882   2.490  0.6339  0.2116 -0.5145
  310SOL    HW1  929   0.044   1.925   2.570 -1.6309 -1.2991 -0.5219
  310SOL    HW2  930   0.179   1.910   2.476 -1.1551 -1.5630 -1.5495
  311SOL     OW  931   2.715   2.591   2.306  0.4162  0.0230  0.0796
  311SOL    HW1  932   2.809   2.593   2.264  0.5684  0.4564  0.1051
  311SOL    HW2  933   2.721   2.602   2.410  0.9595  0.9099  2.5624
  312SOL     OW  934   2.184   2.099   3.061 -0.6160  0.5209  0.0315
  312SOL    HW1  935   2.091   2.129   3.095  0.9213  0.5133  0.9747
  312SOL    HW2  936   2.185   2.001   3.076 -1.4418  1.1215  0.4981
  313SOL     OW  937   2.941   2.937   0.575  0.0144 -0.1442 -0.7387
  313SOL    HW1  938   2.854   2.985   0.563  2.2083  0.2586 -0.3205
  313SOL    HW2  939   3.012   2.959   0.503 -1.3549  0.4251  0.7993
  314SOL     OW  940   1.815   1.052   0.061  0.0912  0.1142 -0.7995
  314SOL    HW1  941   1.801   1.083   0.157 -0.9601  2.2919  0.9647
  314SOL    HW2  942   1.893   1.102   0.019  1.2373 -0.7529  1.5335
  315SOL     OW  943   1.409   2.978   2.603 -0.0479  0.7262 -0.0383
  315SOL    HW1  944   1.462   3.056   2.564  1.3323 -2.6580  0.4220
  315SOL    HW2  945   1.474   2.897   2.614 -0.4225  2.4053  1.2759
  316SOL     OW  946   2.933   1.523   0.300  0.0041  0.1073 -0.5557
  316SOL    HW1  947   2.946   1.425   0.319  1.2007  4.0569 -1.4089
  316SOL    HW2  948   2.958   1.548   0.204 -1.4053 -0.1103 -2.9937
  317SOL     OW  949   0.444   2.987   3.089 -0.0515  0.0009  0.1527
  317SOL    HW1  950   0.435   3.055   3.013  0.4113  1.0543  0.3424
  317SOL    HW2  951   0.542   2.983   0.017 -0.3162  0.7083 -4.4366
  318SOL     OW  952   2.576   2.376   0.963 -0.3217  0.6254 -0.0295
  318SOL    HW1  953   2.489   2.323   0.979  0.5889 -1.1048  0.9181
  318SOL    HW2  954   2.573   2.426   0.871  0.3990  2.2842 -2.5632
  319SOL     OW  955   1.245   1.959   2.982  0.3574  0.8384 -0.2283
  319SOL    HW1  956   1.189   1.960   2.898 -3.0054 -0.0278  1.7796
  319SOL    HW2  957   1.192   1.944   3.064 -0.1824 -0.8775  0.3464
  320SOL     OW  958   0.689   2.088   1.127  0.2870 -0.5744  0.0467
  320SOL    HW1  959   0.730   2.171   1.079 -1.6195  0.2060  0.8160
  320SOL    HW2  960   0.594   2.110   1.160 -0.7503  0.0653 -1.5098
  321SOL     OW  961   1.278   2.670   2.538 -0.7822 -0.0111  0.5767
  321SOL    HW1  962   1.280   2.769   2.508  1.2929 -0.5733  0.6059
  321SOL    HW2  963   1.207   2.620   2.490  1.0624 -0.2564 -0.9226
  322SOL     OW  964   2.462   1.482   1.999  0.7200  0.3562 -0.0497
  322SOL    HW1  965   2.481   1.517   2.094 -0.0874 -0.6539  0.5702
  322SOL    HW2  966   2.430   1.553   1.936  2.8914 -0.1848 -0.5812
  323SOL     OW  967   2.769   0.815   0.991 -0.1486  0.0584  0.0585
  323SOL    HW1  968   2.810   0.736   0.928  3.0028 -6.0929 -1.1653
  323SOL    HW2  969   2.669   0.797   0.993 -3.4521 -1.8327 -1.9429
  324SOL     OW  970   2.557   3.048   2.388  0.2595  0.0734 -0.5007
  324SOL    HW1  971   2.576   2.962   2.440  1.7248 -2.4722  2.1934
  324SOL    HW2  972   2.630   3.052   2.319 -1.8535 -1.9896  1.0080
  325SOL     OW  973   1.050   0.528   2.359  0.0783 -0.3798 -0.0516
  325SOL    HW1  974   0.993   0.452   2.400  2.3071  2.3205 -3.1835
  325SOL    HW2  975   0.996   0.564   2.280  0.8715  0.2189  2.8287
  326SOL     OW  976   2.093   2.773   2.104 -0.1901  0.3170 -0.1057
  326SOL    HW1  977   2.083   2.864   2.144 -0.5049 -1.6479 -0.1367
  326SOL    HW2  978   1.997   2.754   2.065 -0.0503  1.6375 -0.3739
  327SOL     OW  979   2.238   0.286   3.018  0.1968  0.0243 -0.1615
  327SOL    HW1  980   2.331   0.245   2.999 -1.8436 -3.1917  0.3182
  327SOL    HW2  981   2.192   0.319   2.931 -0.0682  3.3388  1.8069
  328SOL     OW  982   0.189   1.415   2.341 -0.0255  0.1335 -0.2812
  328SOL    HW1  983   0.228   1.425   2.249 -0.7506 -0.9278 -1.4012
  328SOL    HW2  984   0.137   1.502   2.366  0.8821  1.4763 -0.1776
  329SOL     OW  985   1.666   0.100   1.702 -0.0449 -0.4739 -0.0219
  329SOL    HW1  986   1.626   0.151   1.779 -1.4803  0.7217  0.3013
  329SOL    HW2  987   1.737   0.154   1.655  2.0733 -1.7736 -1.0374
  330SOL     OW  988   0.282   1.271   0.799 -0.2864 -0.0318 -0.2364
  330SOL    HW1  989   0.183   1.296   0.799 -0.5606  0.3652 -2.1169
  330SOL    HW2  990   0.331   1.337   0.856  3.2449 -2.6157 -0.2092
  331SOL     OW  991   0.246   1.471   2.053 -0.1348 -0.1690 -0.0123
  331SOL    HW1  992   0.167   1.453   1.994 -3.4219 -0.1101 -0.5470
  331SOL    HW2  993   0.299   1.554   2.022  0.1475  1.0596 -0.3527
  332SOL     OW  994   2.963   2.596   1.757 -0.6481  0.3854  0.1124
  332SOL    HW1  995   2.910   2.630   1.678  0.5858 -2.3792  0.0600
  332SOL    HW2  996   2.973   2.496   1.753  1.1639  2.4464 -1.2667
  333SOL     OW  997   2.493   3.040   0.948 -0.2650  0.0583  0.4445
  333SOL    HW1  998   2.535   0.032   0.954 -1.2608 -0.8673 -1.0251
  333SOL    HW2  999   2.469   3.015   1.039 -0.9594  0.8056 -3.2675
  334SOL     OW 1000   0.684   1.811   0.609 -0.4245  0.3253  0.1430
  334SOL    HW1 1001   0.721   1.806   0.515  0.5660  0.1639 -4.1295
  334SOL    HW2 1002   0.588   1.778   0.613 -2.0236  0.4724  0.0199
  335SOL     OW 1003   0.245   2.603   2.755 -0.4607  0.8655 -0.1928
  335SOL    HW1 1004   0.145   2.583   2.774 -0.8040 -3.6577  1.2321
  335SOL    HW2 1005   0.300   2.570   2.837 -1.3953  0.6116  0.6501
  336SOL     OW 1006   0.220   2.787   2.332  0.1646  0.1134 -0.2694
  336SOL    HW1 1007   0.273   2.867   2.297 -2.0083 -1.0095  4.1276
  336SOL    HW2 1008   0.246   2.707   2.278 -3.3885 -0.9444 -2.2651
  337SOL     OW 1009   2.165   2.583   2.310 -0.5315  0.4334  0.6582
  337SOL    HW1 1010   2.140   2.635   2.226 -1.6746  1.4100  3.2774
  337SOL    HW2 1011   2.081   2.528   2.335 -2.6141  0.9686 -1.9773
  338SOL     OW 1012   0.578   0.064   0.348 -0.0757  0.0562 -0.6529
  338SOL    HW1 1013   0.597   0.112   0.262  1.0816  1.1290  0.3158
  338SOL    HW2 1014   0.497   0.003   0.342 -1.3217  1.9328  0.4845
  339SOL     OW 1015   0.488   0.988   2.087 -0.1661 -0.2782  0.2282
  339SOL    HW1 1016   0.406   0.931   2.086  1.4473 -3.2379  0.6420
  339SOL    HW2 1017   0.468   1.087   2.098 -1.5094 -1.8859  1.9908
  340SOL     OW 1018   1.675   3.081   0.430  0.3222 -0.1656  0.6433
  340SOL    HW1 1019   1.712   0.072   0.453 -2.1037  0.7999 -0.4410
  340SOL    HW2 1020   1.589   3.066   0.483  4.3985 -4.2014 -2.0479
  341SOL     OW 1021   2.139   1.069   0.848  0.7006  0.0993 -0.4254
  341SOL    HW1 1022   2.038   1.082   0.850 -1.5646  0.9152 -1.6704
  341SOL    HW2 1023   2.187   1.102   0.929 -3.1438  0.2165 -0.6514
  342SOL     OW 1024   2.479   0.082   0.115 -0.0039 -0.2156  0.2093
  342SOL    HW1 1025   2.388   0.050   0.155 -0.8582  1.5801  1.1739
  342SOL    HW2 1026   2.545   0.007   0.108 -0.9234  1.3195  1.3973
  343SOL     OW 1027   1.211   2.303   1.748 -0.1653 -0.3222  0.3720
  343SOL    HW1 1028   1.167   2.369   1.809  0.2943  0.0799 -0.6529
  343SOL    HW2 1029   1.312   2.306   1.765 -2.5498  0.5474 -1.4985
  344SOL     OW 1030   2.644   2.733   1.162 -0.3278 -0.0346 -0.0144
  344SOL    HW1 1031   2.719   2.662   1.150 -2.2110 -0.9106  1.3658
  344SOL    HW2 1032   2.561   2.693   1.205 -0.0463 -1.7749 -0.3696
  345SOL     OW 1033   2.653   2.152   0.029  0.0775  0.3135 -0.2167
  345SOL    HW1 1034   2.561   2.197   0.042 -2.5728 -0.5546  2.2142
  345SOL    HW2 1035   2.709   2.175   0.110 -0.8125 -0.0594 -4.0422
  346SOL     OW 1036   2.402   1.952   0.739 -0.0942 -0.1573 -0.0175
  346SOL    HW1 1037   2.387   2.042   0.704  2.6219 -3.3751  2.4524
  346SOL    HW2 1038   2.474   1.955   0.812  1.1395  0.7756  1.2819
  347SOL     OW 1039   1.449   2.089   1.619  0.6974 -0.0130 -0.1505
  347SOL    HW1 1040   1.450   2.151   1.698  1.2140 -0.9311 -1.7722
  347SOL    HW2 1041   1.386   2.013   1.636  1.4028  0.6903 -0.1160
  348SOL     OW 1042   0.492   1.575   2.465 -0.1308 -0.3314  0.5685
  348SOL    HW1 1043   0.451   1.533   2.546  1.3158  0.8061 -2.1447
  348SOL    HW2 1044   0.427   1.630   2.408 -2.2861  0.3313 -0.3754
  349SOL     OW 1045   2.443   1.390   0.934 -0.7025 -0.4143  0.0113
  349SOL    HW1 1046   2.537   1.348   0.918  0.3631  1.5717 -1.1668
  349SOL    HW2 1047   2.440   1.483   0.902 -0.0827  2.1043 -0.8922
  350SOL     OW 1048   2.845   2.594   1.099 -0.3392 -0.0320  0.0942
  350SOL    HW1 1049   2.833   2.554   1.008 -0.5936  0.8112 -0.2507
  350SOL    HW2 1050   2.934   2.639   1.091  1.3284  0.0102 -0.2920
  351SOL     OW 1051   0.467   2.978   1.921  0.3207 -0.3547  0.0089
  351SOL    HW1 1052   0.372   3.014   1.906 -3.1513  0.2127  0.5043
  351SOL    HW2 1053   0.536   3.046   1.938 -2.2053  0.1128  1.2507
  352SOL     OW 1054   0.841   1.443   0.906  0.2003 -0.0572  0.0262
  352SOL    HW1 1055   0.826   1.544   0.893  0.3459 -1.6277  0.4132
  352SOL    HW2 1056   0.931   1.435   0.947  0.0094  0.3269  1.1504
  353SOL     OW 1057   1.325   1.586   2.555 -0.3584 -0.5754  0.0061
  353SOL    HW1 1058   1.292   1.681   2.531 -2.2906  1.1556  0.6584
  353SOL    HW2 1059   1.248   1.532   2.593  0.2156  0.5989  0.6147
  354SOL     OW 1060   1.592   3.054   1.292 -1.2168  0.2367 -0.8923
  354SOL    HW1 1061   1.569   2.981   1.228  2.1885  0.1385 -1.0264
  354SOL    HW2 1062   1.518   3.067   1.362  0.0448 -1.2787 -1.8868
  355SOL     OW 1063   2.157   1.321   0.672  0.4190 -0.0417  0.0843
  355SOL    HW1 1064   2.239   1.302   0.612  0.9759 -1.1891 -2.1926
  355SOL    HW2 1065   2.107   1.234   0.692 -2.8009 -0.5987  0.0265
  356SOL     OW 1066   2.795   1.654   2.133 -0.2341 -0.0375 -0.4373
  356SOL    HW1 1067   2.769   1.711   2.051  0.1770  2.6925  1.0684
  356SOL    HW2 1068   2.717   1.621   2.187  2.0898  0.3699 -1.7010
  357SOL     OW 1069   0.583   2.916   1.531 -0.1026 -0.0282 -0.0200
  357SOL    HW1 1070   0.495   2.932   1.572  3.2459 -2.9220  1.4893
  357SOL    HW2 1071   0.586   2.952   1.436 -0.3297  0.2462 -0.4560
  358SOL     OW 1072   2.411   0.922   1.810  0.0003 -0.6530  0.1074
  358SOL    HW1 1073   2.353   0.931   1.888 -0.2588  0.5456 -1.3486
  358SOL    HW2 1074   2.361   0.889   1.722 -1.4515 -1.6988 -3.1641
  359SOL     OW 1075   2.262   2.544   2.685 -0.2262 -0.1415 -0.1504
  359SOL    HW1 1076   2.206   2.476   2.633 -0.3224  1.4191 -0.4679
  359SOL    HW2 1077   2.273   2.522   2.785  0.8917 -3.0010 -3.4076
  360SOL     OW 1078   0.670   0.568   1.011  0.5572  0.3235  0.3620
  360SOL    HW1 1079   0.640   0.633   1.082  1.6793 -1.3711  0.7548
  360SOL    HW2 1080   0.638   0.594   0.917  0.7535  1.1519  1.3884
  361SOL     OW 1081   1.972   2.956   1.106  0.0791  0.4520 -0.3055
  361SOL    HW1 1082   1.911   2.951   1.187  0.3270  0.2362 -0.8792
  361SOL    HW2 1083   2.049   3.023   1.113  1.6042 -0.6037 -2.0328
  362SOL     OW 1084   1.252   1.025   0.923 -0.1294  0.5843  0.0696
  362SOL    HW1 1085   1.206   1.110   0.948 -0.8953  1.6648  1.5098
  362SOL    HW2 1086   1.309   0.995   1.002 -2.6656 -0.3680  1.3216
  363SOL     OW 1087   2.348   1.566   2.688  0.1587  0.5109 -0.5589
  363SOL    HW1 1088   2.385   1.560   2.789  1.3221  0.3530  1.6619
  363SOL    HW2 1089   2.255   1.520   2.676 -1.0301 -0.8108 -0.1223
  364SOL     OW 1090   0.100   0.253   1.029  0.3377 -0.0436 -0.5912
  364SOL    HW1 1091   0.129   0.315   1.100  1.2012  0.2627  0.1659
  364SOL    HW2 1092   3.100   0.249   1.021  0.3798 -1.8749  1.1787
  365SOL     OW 1093   0.084   2.951   2.807  0.6046  0.1682 -0.3228
  365SOL    HW1 1094   0.146   2.921   2.734 -0.0152  1.1648  0.6131
  365SOL    HW2 1095   3.086   2.959   2.779 -1.4380  2.1653  0.7703
  366SOL     OW 1096   2.323   2.279   0.132  0.0713 -0.4107  0.1477
  366SOL    HW1 1097   2.285   2.203   0.072  0.4929 -1.3171 -3.9120
  366SOL    HW2 1098   2.381   2.337   0.065  0.9950 -3.7330 -5.1337
  367SOL     OW 1099   2.675   2.483   2.913  0.0850  0.1537  0.7142
  367SOL    HW1 1100   2.687   2.398   2.858  0.3534  1.6645  0.1409
  367SOL    HW2 1101   2.756   2.501   2.974  1.2953  1.9871 -0.8226
  368SOL     OW 1102   0.335   1.957   0.910 -0.2754  0.3510  0.0420
  368SOL    HW1 1103   0.390   2.041   0.916 -2.1909  1.1483  2.5869
  368SOL    HW2 1104   0.236   1.980   0.923 -0.5505 -1.0666 -0.1026
  369SOL     OW 1105   0.656   2.765   2.734  0.1994  0.2914  0.2502
  369SOL    HW1 1106   0.616   2.855   2.700  3.8171  0.1171  0.9984
  369SOL    HW2 1107   0.757   2.755   2.710  2.8118 -2.9887  1.2110
  370SOL     OW 1108   0.027   0.859   0.741 -0.0084 -0.1186 -0.3479
  370SOL    HW1 1109   0.058   0.872   0.649  0.4525  1.4404 -0.0352
  370SOL    HW2 1110   0.049   0.773   0.791 -1.7060  0.5234 -0.2958
  371SOL     OW 1111   1.926   2.308   0.902 -0.2778  0.5846 -0.0327
  371SOL    HW1 1112   1.973   2.372   0.972  1.0450  0.0889 -1.4342
  371SOL    HW2 1113   1.947   2.214   0.926  1.2880  0.4392  3.8552
  372SOL     OW 1114   0.581   0.845   2.661 -0.0442 -0.6111  0.7071
  372SOL    HW1 1115   0.669   0.896   2.675 -0.2714  0.4236 -1.9477
  372SOL    HW2 1116   0.571   0.762   2.718  2.0861  0.9312 -0.6288
  373SOL     OW 1117   0.026   1.978   0.873 -1.0043  1.0830 -0.2502
  373SOL    HW1 1118   3.101   2.057   0.816  3.0075  1.3067  0.3694
  373SOL    HW2 1119   3.100   1.996   0.977  2.0876  1.8561  5.8737
  374SOL     OW 1120   0.107   2.712   0.130  0.4978 -0.7335  0.7241
  374SOL    HW1 1121   0.144   2.622   0.088  0.6588 -1.9747 -0.0237
  374SOL    HW2 1122   0.132   2.793   0.066  1.4574 -1.9382 -0.7381
  375SOL     OW 1123   0.231   0.462   0.210 -0.0219 -0.2359  0.5526
  375SOL    HW1 1124   0.282   0.447   0.301 -1.6307 -1.7593  3.0202
  375SOL    HW2 1125   0.131   0.464   0.221 -1.1730  1.3091 -2.7806
  376SOL     OW 1126   0.088   2.519   1.955 -0.3859 -0.2111  0.0771
  376SOL    HW1 1127   0.003   2.519   1.896 -3.4386 -2.7112 -1.7325
  376SOL    HW2 1128   0.155   2.585   1.908  0.8199  1.9048  0.7439
  377SOL     OW 1129   1.779   2.481   0.021  0.2262  0.1653 -0.5362
  377SOL    HW1 1130   1.764   2.575   3.087  0.2386 -2.7422  1.4649
  377SOL    HW2 1131   1.694   2.443   0.065  0.3087 -0.9091 -1.7805
  378SOL     OW 1132   0.623   0.442   0.475  0.1869 -0.0410 -0.2435
  378SOL    HW1 1133   0.698   0.382   0.503 -0.9529  0.8901 -0.8436
  378SOL    HW2 1134   0.666   0.504   0.403 -0.9029  0.1732  0.2428
  379SOL     OW 1135   0.720   1.583   0.383 -0.9500  0.2229  0.0858
  379SOL    HW1 1136   0.618   1.561   0.393 -3.9130  0.7074  0.8167
  379SOL    HW2 1137   0.777   1.530   0.444  1.6402 -0.6281  1.7245
  380SOL     OW 1138   0.410   1.874   1.418  0.7552  0.2789  0.0176
  380SOL    HW1 1139   0.496   1.821   1.416  0.8164  0.3064 -1.1233
  380SOL    HW2 1140   0.391   1.922   1.327 -0.2204  2.5443  0.6129
  381SOL     OW 1141   0.514   1.222   1.862  0.5021 -0.2043 -0.0405
  381SOL    HW1 1142   0.598   1.240   1.802  0.2303 -2.7206 -3.6182
  381SOL    HW2 1143   0.529   1.241   1.962  0.2580  0.2324  0.7617
  382SOL     OW 1144   2.215   1.800   0.634 -0.1459 -0.0407 -0.2375
  382SOL    HW1 1145   2.289   1.841   0.692 -0.6964 -0.7115 -0.9184
  382SOL    HW2 1146   2.189   1.711   0.669  1.1474  2.4090  0.5086
  383SOL     OW 1147   2.730   1.716   2.566 -0.1718  0.2619 -0.1922
  383SOL    HW1 1148   2.729   1.757   2.662  0.0570  0.5962  1.3785
  383SOL    HW2 1149   2.820   1.669   2.554  1.8892 -1.1976  1.6278
  384SOL     OW 1150   0.332   1.960   2.463  0.0603  0.4552  0.6183
  384SOL    HW1 1151   0.330   2.012   2.552  0.5349  1.4333 -0.8889
  384SOL    HW2 1152   0.356   2.031   2.391 -1.8575  1.1777 -0.9118
  385SOL     OW 1153   2.597   1.935   0.932  0.2680 -0.0640 -0.6737
  385SOL    HW1 1154   2.622   1.871   1.008 -1.4409  2.5186  0.8116
  385SOL    HW2 1155   2.655   2.018   0.930  0.0179  1.0127 -1.6812
  386SOL     OW 1156   1.689   0.923   0.932  0.1525  0.3314  0.5701
  386SOL    HW1 1157   1.677   0.854   1.006 -0.7416 -4.1191 -1.9639
  386SOL    HW2 1158   1.651   0.884   0.844  0.6799  0.2150 -0.1917
  387SOL     OW 1159   0.448   0.724   1.783 -0.2343  0.1020  0.0178
  387SOL    HW1 1160   0.460   0.826   1.776 -0.8594 -1.8534  0.1741
  387SOL    HW2 1161   0.528   0.679   1.744 -0.4717  1.1544  2.5098
  388SOL     OW 1162   2.264   1.035   2.160 -0.0711  0.4105 -0.9593
  388SOL    HW1 1163   2.226   1.089   2.237 -0.4772 -1.3335  1.0785
  388SOL    HW2 1164   2.204   1.034   2.081  2.9460  0.1771  2.0235
  389SOL     OW 1165   1.929   1.365   1.953  0.0836  0.4332  0.5123
  389SOL    HW1 1166   1.985   1.310   1.885  1.4279  0.6686 -2.0162
  389SOL    HW2 1167   1.953   1.468   1.945  0.0889  3.0385 -2.7337
  390SOL     OW 1168   1.692   2.883   0.197 -0.6242  0.0386  0.0032
  390SOL    HW1 1169   1.653   2.948   0.260  0.8169 -0.1134  0.6304
  390SOL    HW2 1170   1.614   2.832   0.152 -2.7307  0.8543  1.4700
  391SOL     OW 1171   2.194   2.059   1.073 -0.7112  0.2692 -0.3510
  391SOL    HW1 1172   2.126   1.996   1.025 -1.1622 -0.8067  0.1448
  391SOL    HW2 1173   2.143   2.101   1.149 -2.2611 -0.9034 -2.1905
  392SOL     OW 1174   3.096   2.709   1.463  0.8532 -0.1101 -0.3728
  392SOL    HW1 1175   2.997   2.702   1.470  4.0422 -1.1135  0.8607
  392SOL    HW2 1176   0.029   2.634   1.403 -1.5519 -0.9073  2.5149
  393SOL     OW 1177   2.069   1.869   0.067  0.1295 -0.1767  0.2603
  393SOL    HW1 1178   2.007   1.845   0.144 -0.5013  0.2193 -0.3824
  393SOL    HW2 1179   2.028   1.841   3.080 -0.3123 -0.0425 -2.1946
  394SOL     OW 1180   0.186   0.458   2.500  0.2425  0.2618 -0.0857
  394SOL    HW1 1181   0.206   0.374   2.434  2.1705 -3.2718 -2.1697
  394SOL    HW2 1182   0.107   0.507   2.456  0.5376  0.1800 -1.6633
  395SOL     OW 1183   1.055   0.691   0.762  0.2624 -0.3040 -0.3915
  395SOL    HW1 1184   1.003   0.677   0.851 -0.5566 -0.3519 -1.1602
  395SOL    HW2 1185   0.990   0.712   0.690  0.3907 -1.5195  1.4479
  396SOL     OW 1186   1.207   0.773   3.047  0.2844 -0.3434 -0.3136
  396SOL    HW1 1187   1.305   0.761   3.069  2.2671 -1.1622  0.3584
  396SOL    HW2 1188   1.198   0.794   2.948  0.7588 -1.2101  0.4479
  397SOL     OW 1189   0.455   0.621   2.038 -0.6662 -0.1734  0.5049
  397SOL    HW1 1190   0.366   0.633   2.086  1.5148 -0.7585 -0.4595
  397SOL    HW2 1191   0.448   0.655   1.940  0.5948  1.9239 -0.8849
  398SOL     OW 1192   0.831   0.064   0.440  0.3554  0.1013 -0.0401
  398SOL    HW1 1193   0.877   3.076   0.426  0.5558 -1.2080 -2.3680
  398SOL    HW2 1194   0.735   0.062   0.406  1.1676  1.4764  1.2924
  399SOL     OW 1195   2.343   2.993   1.737 -0.1255 -0.7356 -0.1582
  399SOL    HW1 1196   2.366   2.900   1.784  1.2342 -3.7989  1.6066
  399SOL    HW2 1197   2.388   3.068   1.797 -0.2743  2.4458  0.7207
  400SOL     OW 1198   0.578   1.829   2.219 -0.2669 -0.2733  0.1780
  400SOL    HW1 1199   0.477   1.807   2.234  2.3974 -0.1494  0.1940
  400SOL    HW2 1200   0.607   1.898   2.283  0.3929 -0.1399 -1.8195
  401SOL     OW 1201   0.602   0.533   2.426  0.1018  0.2647 -0.4657
  401SOL    HW1 1202   0.667   0.538   2.504 -0.7571  1.9659  0.0254
  401SOL    HW2 1203   0.530   0.602   2.418  0.6323 -1.7882 -0.2363
  402SOL     OW 1204   3.053   2.078   1.717  0.2637 -0.7314  0.5176
  402SOL    HW1 1205   3.047   1.987   1.752 -0.9307 -0.4512  1.9709
  402SOL    HW2 1206   3.096   2.081   1.622  1.7389 -0.5185 -0.2613
  403SOL     OW 1207   0.480   0.985   1.713  0.5262  0.2935  0.6172
  403SOL    HW1 1208   0.383   0.996   1.676  0.7285 -0.9303 -1.7409
  403SOL    HW2 1209   0.499   1.057   1.784 -1.4418  2.7781  0.7170
  404SOL     OW 1210   3.045   2.819   1.892  0.1575 -0.0640  0.3127
  404SOL    HW1 1211   0.042   2.808   1.906 -3.5608 -1.0488  0.4068
  404SOL    HW2 1212   3.013   2.742   1.833  0.8169 -0.3561  0.9743
  405SOL     OW 1213   0.443   0.406   1.788  0.4379  0.0537  0.0918
  405SOL    HW1 1214   0.414   0.451   1.873 -1.7112  1.5887  0.3871
  405SOL    HW2 1215   0.409   0.314   1.779  0.7327  0.8965  2.0156
  406SOL     OW 1216   1.913   2.192   2.807 -0.0641 -0.4122  0.0995
  406SOL    HW1 1217   1.927   2.218   2.904  0.6804 -0.0887  2.5529
  406SOL    HW2 1218   1.987   2.130   2.772 -1.7220 -2.5304 -1.4261
  407SOL     OW 1219   1.432   1.521   2.189 -0.7967  0.1574  0.4289
  407SOL    HW1 1220   1.355   1.589   2.184  2.3009 -0.5416  0.6463
  407SOL    HW2 1221   1.465   1.499   2.281 -2.4612  0.3830  0.4933
  408SOL     OW 1222   0.488   0.284   2.748 -0.1603 -0.1758  0.2188
  408SOL    HW1 1223   0.481   0.247   2.655 -1.3694  0.3596  0.2412
  408SOL    HW2 1224   0.463   0.384   2.746  0.9890  0.3716  1.5160
  409SOL     OW 1225   0.373   1.879   0.345  0.2565  0.1979  0.2536
  409SOL    HW1 1226   0.415   1.821   0.419  1.3739  1.1259 -0.6395
  409SOL    HW2 1227   0.287   1.920   0.366 -0.7580  1.0331 -1.1130
  410SOL     OW 1228   2.546   1.578   0.206 -0.0668  0.2084  0.8253
  410SOL    HW1 1229   2.623   1.639   0.179  1.1153 -0.3818  0.0603
  410SOL    HW2 1230   2.529   1.507   0.131  0.1982  0.5664 -0.2404
  411SOL     OW 1231   2.928   0.326   0.986  0.4064 -0.2421 -0.3479
  411SOL    HW1 1232   2.862   0.284   1.050 -1.2644  0.7378 -2.2293
  411SOL    HW2 1233   2.871   0.400   0.933 -0.3232  0.9995 -1.8206
  412SOL     OW 1234   1.349   0.903   1.145  0.2899 -0.5304  0.1443
  412SOL    HW1 1235   1.423   0.916   1.212  2.3409 -0.5626 -1.6110
  412SOL    HW2 1236   1.259   0.896   1.195 -1.1067 -1.7775  3.2115
  413SOL     OW 1237   0.573   3.015   1.258 -0.5768  0.3839 -0.1638
  413SOL    HW1 1238   0.501   2.947   1.220  1.4383 -0.6163  0.8177
  413SOL    HW2 1239   0.601   3.080   1.185 -1.1928  0.9082  1.1034
  414SOL     OW 1240   0.019   1.778   2.779  0.0028 -0.2413  0.2272
  414SOL    HW1 1241   3.068   1.868   2.773 -1.2904 -0.9829 -1.1084
  414SOL    HW2 1242   0.115   1.789   2.744 -1.0285  1.2465  2.2752
  415SOL     OW 1243   0.378   2.193   2.934 -0.3991  0.3886 -0.3662
  415SOL    HW1 1244   0.453   2.187   3.006  0.4196 -0.5692  4.3832
  415SOL    HW2 1245   0.316   2.114   2.954  1.3179 -1.9381 -3.4746
  416SOL     OW 1246   1.818   0.252   0.456 -0.7172 -0.2295 -0.3152
  416SOL    HW1 1247   1.795   0.248   0.553  0.0688 -0.1426 -4.0520
  416SOL    HW2 1248   1.802   0.347   0.418  1.4435 -2.2438 -2.5715
  417SOL     OW 1249   0.309   1.270   0.530  0.2714  0.2691 -0.3615
  417SOL    HW1 1250   0.297   1.255   0.632 -0.7134 -0.0803  2.1019
  417SOL    HW2 1251   0.231   1.224   0.481  1.8202 -1.2816 -1.7379
  418SOL     OW 1252   2.090   1.062   1.964 -0.8635 -0.4599  0.3461
  418SOL    HW1 1253   2.031   0.999   1.915 -0.8053  1.7990  0.3526
  418SOL    HW2 1254   2.091   1.154   1.919 -0.4590  1.8845  0.9382
  419SOL     OW 1255   3.063   0.519   0.642 -0.0665 -0.5203  0.1288
  419SOL    HW1 1256   0.030   0.551   0.707  1.1877 -0.7625 -1.1262
  419SOL    HW2 1257   0.004   0.516   0.549 -1.5814 -0.0197  1.1298
  420SOL     OW 1258   0.464   1.466   0.439  1.0840 -0.2602 -0.4045
  420SOL    HW1 1259   0.427   1.483   0.346 -2.9762 -0.0391  1.0482
  420SOL    HW2 1260   0.421   1.376   0.467 -0.2496 -0.7911 -0.8158
  421SOL     OW 1261   0.956   2.607   0.648 -0.0689  0.3609 -0.0459
  421SOL    HW1 1262   0.924   2.531   0.586  1.8802  0.5570 -1.1160
  421SOL    HW2 1263   1.043   2.643   0.608 -2.3933 -0.8987  0.2203
  422SOL     OW 1264   0.023   0.753   1.243 -0.6023  0.9220 -0.1602
  422SOL    HW1 1265   3.027   0.784   1.248  1.2214  3.1063 -0.0410
  422SOL    HW2 1266   0.076   0.793   1.165 -0.8081 -0.0379 -1.0757
  423SOL     OW 1267   1.344   1.555   1.467  0.1115  0.3190  0.4866
  423SOL    HW1 1268   1.328   1.464   1.504 -1.6671 -0.4022 -0.3552
  423SOL    HW2 1269   1.394   1.547   1.379  0.6939  0.7805  0.7285
  424SOL     OW 1270   1.986   1.248   2.816  0.1072  0.1338 -0.1686
  424SOL    HW1 1271   1.989   1.259   2.918  0.7631  0.1081 -1.0728
  424SOL    HW2 1272   1.925   1.313   2.778  1.3123 -2.5528 -0.1993
  425SOL     OW 1273   0.107   0.507   1.887  0.6850 -0.4660 -0.2170
  425SOL    HW1 1274   0.140   0.552   1.800 -1.0850  0.3440 -2.3632
  425SOL    HW2 1275   0.006   0.515   1.888  0.1257 -1.0475  0.5278
  426SOL     OW 1276   2.566   2.825   2.550 -0.4647 -0.0650 -0.1499
  426SOL    HW1 1277   2.619   2.736   2.543 -0.7042 -0.9965  1.0338
  426SOL    HW2 1278   2.478   2.822   2.504 -0.1632 -0.8481  0.2849
  427SOL     OW 1279   0.922   0.631   2.141 -0.7345  0.5012 -0.2039
  427SOL    HW1 1280   0.830   0.593   2.161  1.0648 -0.3427 -1.0336
  427SOL    HW2 1281   0.926   0.660   2.043 -0.7990  0.7085  2.2293
  428SOL     OW 1282   2.115   0.855   1.642 -0.5134 -0.2765  0.1340
  428SOL    HW1 1283   2.128   0.799   1.727  0.7586  1.9853 -1.2397
  428SOL    HW2 1284   2.021   0.858   1.612  0.6055 -0.3861 -2.2997
  429SOL     OW 1285   2.790   2.876   0.293  0.4135 -0.3998  0.5168
  429SOL    HW1 1286   2.832   2.960   0.266 -3.8095 -1.3500 -1.0979
  429SOL    HW2 1287   2.687   2.882   0.285  0.4898  1.2296  1.1783
  430SOL     OW 1288   1.756   1.810   2.564 -0.1293 -0.2463 -0.0456
  430SOL    HW1 1289   1.745   1.805   2.467  3.2049  0.0968  1.8662
  430SOL    HW2 1290   1.675   1.777   2.611  3.0185  0.9159  3.7098
  431SOL     OW 1291   3.054   1.761   1.243 -0.0566 -0.5608 -0.0771
  431SOL    HW1 1292   3.080   1.683   1.186 -0.8805  1.4087 -0.3611
  431SOL    HW2 1293   0.013   1.767   1.324 -2.4110 -1.1828 -3.0533
  432SOL     OW 1294   1.602   2.774   2.588 -0.1973 -0.3475  0.0314
  432SOL    HW1 1295   1.636   2.709   2.656  0.5352 -1.7130  0.8400
  432SOL    HW2 1296   1.606   2.733   2.498  2.0837 -2.2277 -1.2097
  433SOL     OW 1297   1.611   3.000   2.292 -0.6925  0.6970 -0.0530
  433SOL    HW1 1298   1.619   3.023   2.190  1.9138  2.3857 -2.6792
  433SOL    HW2 1299   1.687   2.933   2.316  2.8988 -2.5487 -0.4644
  434SOL     OW 1300   0.529   2.655   2.135  0.1316  0.2130  0.7793
  434SOL    HW1 1301   0.440   2.613   2.167 -2.0119 -0.3103 -0.6352
  434SOL    HW2 1302   0.524   2.675   2.032 -1.6924 -0.5602 -1.8048
  435SOL     OW 1303   0.059   2.334   3.083  0.4218  0.3942  0.4909
  435SOL    HW1 1304   0.135   2.396   3.080 -2.3786 -2.9276  1.8161
  435SOL    HW2 1305   0.037   2.289   0.072 -0.0701 -0.3201  0.0258
  436SOL     OW 1306   0.674   0.605   1.686 -0.5556  0.1031 -0.8639
  436SOL    HW1 1307   0.708   0.515   1.718 -1.1803 -1.1741 -0.6488
  436SOL    HW2 1308   0.676   0.605   1.585 -0.2356  0.2227 -1.9400
  437SOL     OW 1309   0.566   2.497   2.591 -0.1505 -0.1008  0.4276
  437SOL    HW1 1310   0.595   2.569   2.524  0.0839  1.3440  1.6195
  437SOL    HW2 1311   0.531   2.542   2.675 -1.0981 -1.3434  1.4622
  438SOL     OW 1312   0.615   1.716   1.419 -0.2940 -0.4912 -0.0924
  438SOL    HW1 1313   0.712   1.734   1.431  0.8991 -3.1487 -0.0094
  438SOL    HW2 1314   0.591   1.637   1.477  0.6414 -1.2776 -2.0761
  439SOL     OW 1315   2.056   1.036   2.680  0.3500  0.4075 -0.0451
  439SOL    HW1 1316   2.032   1.120   2.728  0.7307 -1.4097 -2.2532
  439SOL    HW2 1317   2.053   1.054   2.580  1.2954  0.3180 -0.7258
  440SOL     OW 1318   0.639   0.673   0.010 -0.8920  0.7727 -0.2468
  440SOL    HW1 1319   0.705   0.605   0.041  0.4932 -0.0330  0.6166
  440SOL    HW2 1320   0.664   0.767   0.038  0.9200 -0.7357 -1.1658
  441SOL     OW 1321   0.890   2.113   1.455  0.1593  0.0449  0.1428
  441SOL    HW1 1322   0.859   2.134   1.549 -0.5045  1.9929 -2.7354
  441SOL    HW2 1323   0.846   2.179   1.391 -1.2541  0.5444 -1.2828
  442SOL     OW 1324   2.807   1.716   0.667  1.1010 -0.4792 -0.2896
  442SOL    HW1 1325   2.727   1.765   0.628 -0.0540 -0.7552 -0.7524
  442SOL    HW2 1326   2.789   1.709   0.764  0.4738  0.7523 -1.7203
  443SOL     OW 1327   2.765   2.054   2.656  0.4822 -0.8883  0.2557
  443SOL    HW1 1328   2.827   2.041   2.578  0.4356 -1.0347  1.6761
  443SOL    HW2 1329   2.784   1.986   2.731  1.0143 -0.8401  0.0559
  444SOL     OW 1330   1.395   1.253   2.746  0.1655 -0.0414  0.1857
  444SOL    HW1 1331   1.303   1.302   2.751 -1.7701  2.4907 -0.4092
  444SOL    HW2 1332   1.465   1.322   2.762  0.3156 -0.4882 -1.2908
  445SOL     OW 1333   2.467   0.106   1.887  0.1602 -0.2772 -0.0645
  445SOL    HW1 1334   2.546   0.126   1.827 -1.6397  0.5969 -0.1139
  445SOL    HW2 1335   2.474   0.175   1.960 -0.5233  1.6979  0.7737
  446SOL     OW 1336   0.372   1.068   0.978  0.4292  0.9364  0.5195
  446SOL    HW1 1337   0.395   1.110   1.067 -1.5591  0.5825 -2.2618
  446SOL    HW2 1338   0.360   1.143   0.906 -1.5013  0.1997 -0.2523
  447SOL     OW 1339   0.982   1.807   0.921  0.0373 -0.4766 -0.0429
  447SOL    HW1 1340   0.961   1.870   1.002 -0.9927 -0.7358 -0.8946
  447SOL    HW2 1341   0.895   1.753   0.906 -1.4355  2.5465  0.8548
  448SOL     OW 1342   1.125   1.211   1.636  0.2106 -0.0562 -0.0484
  448SOL    HW1 1343   1.103   1.263   1.720  0.5256 -0.6073  1.6673
  448SOL    HW2 1344   1.086   1.116   1.639  1.2728 -3.1195 -0.7809
  449SOL     OW 1345   2.864   2.057   2.097  0.6249 -0.3490 -0.4270
  449SOL    HW1 1346   2.856   2.150   2.143 -1.1720  2.4731  1.9307
  449SOL    HW2 1347   2.960   2.026   2.096 -1.6382 -1.8459 -0.3715
  450SOL     OW 1348   0.125   1.685   1.721 -0.0253 -0.3666  0.0185
  450SOL    HW1 1349   0.043   1.742   1.733  1.4441 -0.0091  0.6883
  450SOL    HW2 1350   0.177   1.685   1.808  0.9181 -1.5026 -0.4500
  451SOL     OW 1351   1.944   0.773   1.176  0.7434  0.1116  0.3465
  451SOL    HW1 1352   1.843   0.747   1.188  1.1830 -0.8004  0.0366
  451SOL    HW2 1353   1.972   0.775   1.078  1.9843  2.3906 -0.7946
  452SOL     OW 1354   0.597   1.331   0.844 -0.2366 -0.5556 -0.0948
  452SOL    HW1 1355   0.687   1.373   0.859 -1.1014  2.3091  2.6483
  452SOL    HW2 1356   0.523   1.391   0.881  2.3812  0.5482 -0.6202
  453SOL     OW 1357   1.245   2.226   0.784 -0.2553 -0.2126 -0.2568
  453SOL    HW1 1358   1.187   2.273   0.711 -1.4765  3.9823  0.2392
  453SOL    HW2 1359   1.338   2.206   0.742  1.1444 -1.3559 -0.6064
  454SOL     OW 1360   0.622   1.797   3.000  0.1315  0.2342 -0.2722
  454SOL    HW1 1361   0.677   1.712   3.014  0.4595 -3.0030  1.3775
  454SOL    HW2 1362   0.541   1.805   3.065 -0.3182  1.0306 -0.7170
  455SOL     OW 1363   1.451   0.703   0.531  0.0399  0.3911 -0.2089
  455SOL    HW1 1364   1.394   0.749   0.457 -2.5118  0.0821 -1.3910
  455SOL    HW2 1365   1.391   0.642   0.588 -0.8235  0.2911  1.7735
  456SOL     OW 1366   2.002   2.104   1.283  0.0490 -0.1265 -0.0211
  456SOL    HW1 1367   2.002   2.005   1.302 -1.3879  3.6354  0.0620
  456SOL    HW2 1368   2.044   2.160   1.360  0.8404 -0.0035  1.2344
  457SOL     OW 1369   1.695   2.918   2.842 -0.2691 -0.0863 -0.3183
  457SOL    HW1 1370   1.689   3.013   2.882 -0.0879 -1.1205 -0.9202
  457SOL    HW2 1371   1.737   2.917   2.748 -0.2218 -0.1933 -0.0061
  458SOL     OW 1372   2.475   0.519   0.344  0.0872  0.0295  0.5967
  458SOL    HW1 1373   2.415   0.474   0.273 -0.1676 -1.4839 -0.9336
  458SOL    HW2 1374   2.417   0.525   0.427 -1.9883  0.6916  1.3948
  459SOL     OW 1375   0.019   0.582   2.339 -0.0063 -0.4306  0.0512
  459SOL    HW1 1376   3.099   0.662   2.401 -1.1588 -0.9553 -1.1604
  459SOL    HW2 1377   3.038   0.541   2.291  1.5529  0.6406  0.2268
  460SOL     OW 1378   0.210   1.221   2.990 -0.3156 -0.4046 -0.0311
  460SOL    HW1 1379   0.269   1.140   2.968 -1.1972  1.5624 -1.0504
  460SOL    HW2 1380   0.115   1.203   2.948 -2.8479 -0.8854 -0.6123
  461SOL     OW 1381   2.806   2.580   0.797  0.1645 -0.3417 -0.0747
  461SOL    HW1 1382   2.823   2.590   0.698 -0.8482  2.8942 -0.8113
  461SOL    HW2 1383   2.708   2.565   0.807  0.3051 -1.3311 -2.0992
  462SOL     OW 1384   2.924   0.140   1.588  0.3447  0.0666 -0.1494
  462SOL    HW1 1385   2.924   0.243   1.572  0.0178  0.2595  0.9971
  462SOL    HW2 1386   3.020   0.108   1.579  1.3930 -0.2856  0.9102
  463SOL     OW 1387   1.803   2.045   2.258  0.1433  0.0808 -0.2148
  463SOL    HW1 1388   1.871   2.059   2.183 -1.6876  1.6783 -2.2841
  463SOL    HW2 1389   1.766   1.953   2.268 -0.0218  0.3625  0.4283
  464SOL     OW 1390   0.821   3.064   1.314 -0.4845  0.1273  0.3941
  464SOL    HW1 1391   0.732   3.032   1.282  1.3311  1.6693 -1.6747
  464SOL    HW2 1392   0.821   0.037   1.382  0.2920  0.7148 -3.3475
  465SOL     OW 1393   0.642   0.141   1.705 -0.5428  0.3763  0.5515
  465SOL    HW1 1394   0.704   0.058   1.692  1.2350 -2.8179 -1.5460
  465SOL    HW2 1395   0.691   0.228   1.722 -1.1087 -0.2785 -3.2090
  466SOL     OW 1396   1.541   2.669   2.076 -0.1056  0.6664 -0.5109
  466SOL    HW1 1397   1.476   2.745   2.059  1.4575  2.8949 -2.6209
  466SOL    HW2 1398   1.580   2.628   1.990  0.8588  0.7891 -0.0498
  467SOL     OW 1399   0.366   2.011   1.179 -0.0128 -0.6332 -0.4223
  467SOL    HW1 1400   0.323   1.978   1.093 -0.0028  0.9043 -2.0146
  467SOL    HW2 1401   0.381   2.111   1.172 -1.0080 -1.2961 -0.7892
  468SOL     OW 1402   2.543   1.537   2.517 -0.0180 -0.1369  0.4922
  468SOL    HW1 1403   2.623   1.597   2.546  0.8039  1.4746  0.4949
  468SOL    HW2 1404   2.462   1.556   2.581  1.3202 -1.1390  1.3589
  469SOL     OW 1405   1.244   1.880   0.527 -0.1382  0.5125  0.3448
  469SOL    HW1 1406   1.267   1.883   0.625 -0.1295  1.5308  0.8400
  469SOL    HW2 1407   1.160   1.932   0.511  1.3860  0.7210  0.9253
  470SOL     OW 1408   2.457   1.251   1.383 -0.2756 -0.2628 -0.6426
  470SOL    HW1 1409   2.446   1.336   1.436  0.4344  1.8541  0.6580
  470SOL    HW2 1410   2.441   1.169   1.440  1.2824  1.9045 -0.1840
  471SOL     OW 1411   0.424   2.472   2.884  0.0142 -0.9955  0.1273
  471SOL    HW1 1412   0.423   2.373   2.885 -0.4027  2.7412 -0.6814
  471SOL    HW2 1413   0.518   2.514   2.896  2.3877  1.6698 -3.2297
  472SOL     OW 1414   3.059   1.676   2.090 -0.5087 -0.3711  0.0183
  472SOL    HW1 1415   3.088   1.618   2.015 -2.1641  0.2964 -1.3895
  472SOL    HW2 1416   2.966   1.653   2.108  1.6730  0.8766 -1.6458
  473SOL     OW 1417   0.737   2.819   0.443  0.1942 -0.4154 -0.0981
  473SOL    HW1 1418   0.720   2.718   0.435 -1.4891 -1.3040 -0.5394
  473SOL    HW2 1419   0.835   2.847   0.428  2.4882  2.4802 -3.6529
  474SOL     OW 1420   2.758   2.913   0.988  0.1811 -0.1475 -0.7985
  474SOL    HW1 1421   2.676   2.939   0.938  1.2843 -0.9498  1.7885
  474SOL    HW2 1422   2.715   2.843   1.052 -1.2024  1.6338  1.0497
  475SOL     OW 1423   1.861   2.990   1.750  0.6427  0.1230 -0.4373
  475SOL    HW1 1424   1.938   3.044   1.722 -1.1020 -2.4149 -0.5571
  475SOL    HW2 1425   1.778   3.044   1.740  0.4921 -0.5747 -0.4234
  476SOL     OW 1426   0.580   0.576   0.736  0.0020  0.9828  0.1992
  476SOL    HW1 1427   0.620   0.562   0.642 -1.3428  1.8264  1.4878
  476SOL    HW2 1428   0.513   0.653   0.734 -0.7047  1.6178 -2.1540
  477SOL     OW 1429   0.860   2.286   1.023  1.0930 -0.1133  0.1188
  477SOL    HW1 1430   0.840   2.354   0.949  0.6822 -0.9640  1.0123
  477SOL    HW2 1431   0.957   2.272   1.043 -2.3796 -0.1800  1.2230
  478SOL     OW 1432   0.196   2.322   2.356  0.0174  0.0813 -1.1910
  478SOL    HW1 1433   0.103   2.282   2.376 -2.0585  1.5100  0.8654
  478SOL    HW2 1434   0.238   2.358   2.444  1.2594 -1.5107 -0.9507
  479SOL     OW 1435   0.180   0.669   1.632 -0.4329 -0.3846  0.0022
  479SOL    HW1 1436   0.256   0.716   1.678 -1.1538  1.6237  1.1332
  479SOL    HW2 1437   0.197   0.659   1.533  1.3409 -0.7049 -0.0233
  480SOL     OW 1438   2.911   2.524   3.053  0.3519  0.1285 -0.0461
  480SOL    HW1 1439   2.911   2.576   0.036  2.4421  1.2286 -0.3306
  480SOL    HW2 1440   2.991   2.465   3.047 -0.6681  1.5000  2.8815
  481SOL     OW 1441   1.556   2.078   2.046  0.3986 -0.3916  0.1826
  481SOL    HW1 1442   1.585   1.993   2.002 -3.2105  3.8786 -0.8797
  481SOL    HW2 1443   1.491   2.060   2.122  0.4850 -0.0300  2.5327
  482SOL     OW 1444   1.662   2.142   2.873  0.1006 -0.4692  0.1281
  482SOL    HW1 1445   1.591   2.105   2.809  1.4180 -0.3937  1.1893
  482SOL    HW2 1446   1.753   2.135   2.830 -1.0423 -1.3290  1.2057
  483SOL     OW 1447   0.670   2.024   2.453 -0.5134 -0.2624 -0.0315
  483SOL    HW1 1448   0.680   1.929   2.492 -0.8212 -1.3431 -0.2946
  483SOL    HW2 1449   0.641   2.095   2.523  0.2641  0.6166 -2.6952
  484SOL     OW 1450   3.101   0.526   1.100 -0.8091  0.2485  0.1817
  484SOL    HW1 1451   3.030   0.463   1.071  2.0650 -1.0563  0.7644
  484SOL    HW2 1452   3.076   0.609   1.150  0.0172  3.1578  0.3273
  485SOL     OW 1453   2.288   0.597   0.555  0.0870  0.5468  0.4704
  485SOL    HW1 1454   2.248   0.532   0.626 -1.3229 -1.7983 -0.6027
  485SOL    HW2 1455   2.210   0.628   0.499 -0.1776 -0.2378  0.5124
  486SOL     OW 1456   1.854   2.858   2.363  0.1135 -0.2774 -0.0665
  486SOL    HW1 1457   1.925   2.919   2.322 -0.6235  2.8492  1.5071
  486SOL    HW2 1458   1.906   2.808   2.439  2.5545 -1.2843 -0.3887
  487SOL     OW 1459   1.325   1.314   0.917  0.3005 -0.7466  0.1990
  487SOL    HW1 1460   1.380   1.237   0.884 -1.6308 -0.2333  0.4079
  487SOL    HW2 1461   1.378   1.379   0.963 -1.4922 -1.3151  0.6567
  488SOL     OW 1462   2.248   1.228   0.112 -0.1040 -0.3223 -0.8939
  488SOL    HW1 1463   2.335   1.191   0.076  2.3253  0.0136  0.7924
  488SOL    HW2 1464   2.256   1.325   0.148  0.8765  2.0757 -2.2700
  489SOL     OW 1465   2.445   0.202   0.468  0.5943  0.1666 -0.2112
  489SOL    HW1 1466   2.358   0.244   0.443 -0.7686  0.5744 -1.1751
  489SOL    HW2 1467   2.521   0.223   0.407  0.1087 -0.3081  0.1255
  490SOL     OW 1468   1.455   2.790   0.074 -0.4254 -0.4528 -0.2399
  490SOL    HW1 1469   1.421   2.840   3.092 -1.0627 -0.3799 -1.3514
  490SOL    HW2 1470   1.401   2.816   0.154 -0.5700  0.6052 -5.0410
  491SOL     OW 1471   0.844   0.754   0.600 -0.2276 -0.4530 -0.5355
  491SOL    HW1 1472   0.784   0.830   0.642 -1.8470  1.0827  0.4923
  491SOL    HW2 1473   0.810   0.729   0.506  0.9255 -0.1236  1.4011
  492SOL     OW 1474   1.629   0.423   0.039  0.4625 -0.2119 -0.5004
  492SOL    HW1 1475   1.648   0.341   0.101 -1.2277 -0.5826  1.4313
  492SOL    HW2 1476   1.535   0.412   0.003  2.1156 -1.0958  0.1286
  493SOL     OW 1477   1.976   2.295   3.036  0.4301  0.4905 -0.1229
  493SOL    HW1 1478   2.054   2.317   3.092 -1.1043 -0.5419 -2.5756
  493SOL    HW2 1479   1.898   2.354   3.054  3.5900 -0.6714 -0.4858
  494SOL     OW 1480   0.587   1.185   0.624  0.1815 -0.4599  0.5081
  494SOL    HW1 1481   0.495   1.189   0.578 -3.4737 -1.4553 -2.3746
  494SOL    HW2 1482   0.583   1.244   0.709  1.0461  0.8204 -1.8637
  495SOL     OW 1483   0.050   2.712   1.105  0.2302  0.0867  0.0346
  495SOL    HW1 1484   0.033   2.673   1.015 -2.5348 -0.4063 -1.4115
  495SOL    HW2 1485   0.091   2.648   1.174 -1.2729  0.3654 -0.3266
  496SOL     OW 1486   2.260   0.460   1.744  0.4223  0.8964 -0.2375
  496SOL    HW1 1487   2.321   0.434   1.668  3.3114 -0.4565  2.2280
  496SOL    HW2 1488   2.213   0.376   1.784 -1.2749 -2.8502  5.5720
  497SOL     OW 1489   1.976   1.761   2.698 -0.2230 -0.1947  0.2998
  497SOL    HW1 1490   1.886   1.771   2.649 -1.9934 -1.4136 -0.6313
  497SOL    HW2 1491   2.053   1.719   2.646  1.9516 -1.3424 -0.2162
  498SOL     OW 1492   0.851   1.997   0.718  0.0530  0.3825 -0.4124
  498SOL    HW1 1493   0.794   1.935   0.657 -1.4034  2.3821 -3.2764
  498SOL    HW2 1494   0.875   1.959   0.809 -2.4109  0.9448  1.7964
  499SOL     OW 1495   0.594   1.858   1.000 -0.1083 -0.2787 -0.3059
  499SOL    HW1 1496   0.626   1.941   1.053  1.4398  1.0039  1.4498
  499SOL    HW2 1497   0.505   1.876   0.952  1.0966 -0.9737  2.1539
  500SOL     OW 1498   1.338   2.270   0.368 -0.1114 -0.2310  0.0772
  500SOL    HW1 1499   1.371   2.205   0.294  2.1575 -2.4561 -0.6618
  500SOL    HW2 1500   1.393   2.248   0.452 -0.3401  0.7924 -0.6378
  501SOL     OW 1501   2.421   2.619   1.253  0.2456  0.3523  0.5124
  501SOL    HW1 1502   2.446   2.543   1.319 -1.5555  0.8450 -1.3477
  501SOL    HW2 1503   2.351   2.677   1.301 -3.0164 -0.1659  1.2466
  502SOL     OW 1504   0.391   0.877   1.331 -0.3425  0.5673  0.2944
  502SOL    HW1 1505   0.369   0.778   1.318  0.7219 -0.5134 -0.3009
  502SOL    HW2 1506   0.310   0.926   1.362  1.8946 -1.0039  2.5296
  503SOL     OW 1507   1.916   0.506   1.483 -0.1209  0.0362  0.5163
  503SOL    HW1 1508   1.845   0.577   1.456  0.8706  1.0511 -0.6635
  503SOL    HW2 1509   2.001   0.558   1.514  0.4188  1.7303  1.1072
  504SOL     OW 1510   1.646   0.722   2.070 -0.0480  0.4211  0.4942
  504SOL    HW1 1511   1.626   0.738   2.169 -2.1748  0.4106 -1.8797
  504SOL    HW2 1512   1.573   0.766   2.012 -2.8229 -1.1942 -2.5139
  505SOL     OW 1513   0.963   0.179   2.737 -0.5730 -0.5285  0.3653
  505SOL    HW1 1514   0.887   0.114   2.749  4.6447  2.6728  1.6989
  505SOL    HW2 1515   0.963   0.246   2.811 -0.2032 -0.5362 -2.2689
  506SOL     OW 1516   0.417   0.471   1.509 -0.1157  0.0764  0.7399
  506SOL    HW1 1517   0.345   0.536   1.481  3.0835 -0.9922 -0.3894
  506SOL    HW2 1518   0.415   0.449   1.611  3.2574 -0.1721  2.7138
  507SOL     OW 1519   1.344   0.054   2.969 -0.5057  0.0635  0.1299
  507SOL    HW1 1520   1.326   3.056   2.946 -0.9852 -0.1754  0.0202
  507SOL    HW2 1521   1.392   0.096   2.888 -2.9229  0.4914 -1.9394
  508SOL     OW 1522   2.348   0.642   2.507  0.1902 -0.6603  0.5325
  508SOL    HW1 1523   2.270   0.621   2.570  1.7779  0.0910 -1.7926
  508SOL    HW2 1524   2.310   0.689   2.425 -0.6274  0.5404 -1.4233
  509SOL     OW 1525   0.846   1.542   1.886  0.1627 -1.4972 -0.2732
  509SOL    HW1 1526   0.879   1.628   1.847  0.9975  1.1120 -0.4564
  509SOL    HW2 1527   0.773   1.562   1.950  0.6583 -2.1639 -1.9143
  510SOL     OW 1528   0.003   1.295   0.806  0.2621 -0.1691 -0.0231
  510SOL    HW1 1529   3.080   1.393   0.839  0.0800  4.3428 -1.2641
  510SOL    HW2 1530   3.099   1.225   0.877 -1.4415  1.7432 -1.6261
  511SOL     OW 1531   1.731   1.578   0.968  0.4658 -0.0737  0.5821
  511SOL    HW1 1532   1.705   1.573   1.062 -0.3665 -1.8162 -2.1393
  511SOL    HW2 1533   1.830   1.609   0.958  2.4858 -1.3091  1.3240
  512SOL     OW 1534   0.759   0.974   0.413  0.0651 -0.0950  0.9718
  512SOL    HW1 1535   0.728   1.068   0.394  0.3728  2.0621  0.4012
  512SOL    HW2 1536   0.860   0.973   0.426 -4.7277 -1.2097  0.0820
  513SOL     OW 1537   0.251   2.193   0.740 -0.3615  0.0730  0.2862
  513SOL    HW1 1538   0.190   2.273   0.761 -1.2340  0.9164  0.9089
  513SOL    HW2 1539   0.343   2.197   0.785 -1.0652  0.0797  1.8808
  514SOL     OW 1540   2.883   1.944   2.391  0.2511 -0.0318 -0.0500
  514SOL    HW1 1541   2.894   1.858   2.439 -0.1392  2.6282 -0.7298
  514SOL    HW2 1542   2.859   1.945   2.292 -2.5674 -1.0578 -1.0820
  515SOL     OW 1543   2.635   0.675   0.170  0.2741  0.1008  0.2361
  515SOL    HW1 1544   2.655   0.766   0.208 -1.4487 -0.3397 -0.0196
  515SOL    HW2 1545   2.565   0.627   0.227 -1.1504  1.5528 -1.5669
  516SOL     OW 1546   2.400   2.820   0.821  0.2058  0.2625  0.2024
  516SOL    HW1 1547   2.448   2.907   0.853 -0.0179 -1.2896 -1.1043
  516SOL    HW2 1548   2.347   2.838   0.737 -2.6583  1.2259  1.1555
  517SOL     OW 1549   1.398   1.734   2.935 -0.5861  0.6423 -0.2561
  517SOL    HW1 1550   1.480   1.728   2.994  0.4157 -0.3358 -0.6595
  517SOL    HW2 1551   1.350   1.820   2.950  2.5120  0.9946  1.2496
  518SOL     OW 1552   1.017   0.958   1.667  0.2287 -0.4928 -0.2677
  518SOL    HW1 1553   0.979   0.917   1.580 -0.0020  1.0359  1.0021
  518SOL    HW2 1554   1.064   0.889   1.720  2.4509 -0.4863  0.0670
  519SOL     OW 1555   2.948   1.757   0.409 -0.0036  0.2185  0.3810
  519SOL    HW1 1556   2.908   1.750   0.501  3.0183  0.2469 -2.1587
  519SOL    HW2 1557   2.946   1.662   0.368  0.5123 -2.3192  1.4327
  520SOL     OW 1558   2.435   2.133   1.945 -0.4984  0.4381  0.3946
  520SOL    HW1 1559   2.495   2.216   1.960  0.8236 -2.6160  2.0543
  520SOL    HW2 1560   2.351   2.152   1.895  3.6680  2.8651  1.0383
  521SOL     OW 1561   1.023   3.085   2.479  0.1122 -0.3853 -0.8629
  521SOL    HW1 1562   0.951   0.050   2.496  1.9442 -0.3443  1.0256
  521SOL    HW2 1563   1.004   3.042   2.388  0.5404 -0.8025 -1.3599
  522SOL     OW 1564   2.109   0.540   2.178  0.4581 -0.4749  0.0115
  522SOL    HW1 1565   2.205   0.579   2.173  0.8805  1.5319 -0.2366
  522SOL    HW2 1566   2.045   0.581   2.111  2.6460 -1.5034 -0.2249
  523SOL     OW 1567   2.022   2.597   1.596  0.0462  0.1339  0.9010
  523SOL    HW1 1568   2.003   2.515   1.644  1.9309  1.6059 -1.2235
  523SOL    HW2 1569   2.119   2.633   1.612 -0.4178  2.0121 -0.8499
  524SOL     OW 1570   1.684   2.104   0.032  0.5660 -0.3330  0.0836
  524SOL    HW1 1571   1.664   2.141   3.038  2.1183  0.1650 -1.3491
  524SOL    HW2 1572   1.726   2.013   0.024  0.9111 -1.1634  2.2133
  525SOL     OW 1573   0.145   0.799   3.101 -0.1406  0.0930  0.6542
  525SOL    HW1 1574   0.243   0.782   0.026 -2.6598  1.5565  1.0000
  525SOL    HW2 1575   0.097   0.707   3.088 -1.3481 -0.7896  0.4646
  526SOL     OW 1576   1.197   2.724   0.568 -0.1312  0.0710  0.0588
  526SOL    HW1 1577   1.291   2.746   0.538  0.4473  1.6463  2.3771
  526SOL    HW2 1578   1.190   2.734   0.671  0.8973  1.7948 -0.3357
  527SOL     OW 1579   2.608   1.878   0.556 -0.5556  0.2850  0.1462
  527SOL    HW1 1580   2.549   1.878   0.638 -3.7229  0.1323 -2.1589
  527SOL    HW2 1581   2.555   1.829   0.485 -0.2513  0.1507 -0.3727
  528SOL     OW 1582   0.736   0.935   1.986 -0.0873 -0.4400  0.3365
  528SOL    HW1 1583   0.648   0.938   2.032  1.7099  0.9785  1.0552
  528SOL    HW2 1584   0.757   0.841   1.956 -0.2852 -0.1357  2.2155
  529SOL     OW 1585   1.517   1.739   2.682  0.1496  0.4212  0.2167
  529SOL    HW1 1586   1.485   1.769   2.775 -3.7886 -0.0820  3.4697
  529SOL    HW2 1587   1.443   1.690   2.633  1.2514 -0.4381 -0.7794
  530SOL     OW 1588   1.482   1.130   2.396 -0.3377 -0.0488  0.6300
  530SOL    HW1 1589   1.500   1.086   2.306  0.5396  0.2935  0.5751
  530SOL    HW2 1590   1.384   1.124   2.417  0.1870 -0.6425  2.6351
  531SOL     OW 1591   0.632   2.203   2.661  0.0631  0.5194  1.0241
  531SOL    HW1 1592   0.614   2.303   2.651 -0.4113  1.2546 -0.7207
  531SOL    HW2 1593   0.701   2.185   2.731  0.9882 -0.6629 -1.0430
  532SOL     OW 1594   2.438   0.821   0.508 -0.3007 -0.1676 -0.9942
  532SOL    HW1 1595   2.390   0.880   0.572  1.2305  0.5087 -2.3441
  532SOL    HW2 1596   2.407   0.725   0.521  1.1795 -0.4442 -0.7219
  533SOL     OW 1597   0.115   0.235   1.637  0.2497  0.2481  0.5034
  533SOL    HW1 1598   0.214   0.221   1.650 -0.9201 -0.3538 -0.5886
  533SOL    HW2 1599   0.095   0.256   1.538  0.4318 -0.7011  1.0327
  534SOL     OW 1600   0.628   0.169   0.099  0.7313 -0.1188 -0.2331
  534SOL    HW1 1601   0.526   0.177   0.086  0.1826  0.4676  1.8343
  534SOL    HW2 1602   0.678   0.227   0.028  0.7559  1.8003 -1.7354
  535SOL     OW 1603   0.205   0.034   0.088  0.1644 -0.3847 -0.1551
  535SOL    HW1 1604   0.205   3.043   0.044 -0.8868 -0.1063 -0.5254
  535SOL    HW2 1605   0.139   0.048   0.165  1.2417  0.9851 -1.2384
  536SOL     OW 1606   0.545   1.634   1.181  0.7746 -0.1382 -0.0321
  536SOL    HW1 1607   0.566   1.710   1.116 -0.2227 -0.1901 -0.9237
  536SOL    HW2 1608   0.570   1.666   1.278 -0.7741  2.0469  2.7177
  537SOL     OW 1609   0.956   2.826   1.782  0.1372  0.3019 -0.8768
  537SOL    HW1 1610   1.038   2.857   1.728 -1.0106  0.8561  2.2519
  537SOL    HW2 1611   0.981   2.754   1.847  1.2442  2.2504  0.9220
  538SOL     OW 1612   0.259   1.937   2.997  0.4525 -0.0046 -0.0093
  538SOL    HW1 1613   0.179   1.933   3.058 -1.0572  0.2329 -1.3710
  538SOL    HW2 1614   0.258   1.861   2.926  1.1782 -1.6496 -2.0710
  539SOL     OW 1615   2.438   0.917   2.759  0.5624  0.6035  0.1954
  539SOL    HW1 1616   2.351   0.901   2.809  3.6011  0.7072 -0.2943
  539SOL    HW2 1617   2.505   0.970   2.816  2.9179  1.4902 -1.4198
  540SOL     OW 1618   1.713   0.462   2.615 -0.4569  0.6978 -0.0076
  540SOL    HW1 1619   1.656   0.456   2.701 -1.3996 -1.9455  1.9133
  540SOL    HW2 1620   1.813   0.474   2.639 -0.5959  0.6260  1.2592
  541SOL     OW 1621   0.676   0.046   2.032 -0.5993 -0.0525  0.2782
  541SOL    HW1 1622   0.624   0.008   2.110  1.0016  1.2938  1.5292
  541SOL    HW2 1623   0.723   0.133   2.056  0.1727 -0.4914 -0.3444
  542SOL     OW 1624   1.788   2.726   2.997  0.1349  0.1183 -0.0980
  542SOL    HW1 1625   1.875   2.681   2.965 -1.5220 -1.0568  0.7057
  542SOL    HW2 1626   1.751   2.792   2.929  1.1551  0.4665  0.6038
  543SOL     OW 1627   0.828   0.046   0.709  0.1604 -0.0194  0.0797
  543SOL    HW1 1628   0.772   0.129   0.737 -2.6855  0.0184  1.8918
  543SOL    HW2 1629   0.839   0.050   0.605 -1.9254  1.6023 -2.3723
  544SOL     OW 1630   2.713   1.357   1.931  0.4432  0.2927  0.4556
  544SOL    HW1 1631   2.761   1.365   2.020  0.0192  0.2208  0.9806
  544SOL    HW2 1632   2.622   1.391   1.951  0.9565 -0.7976 -1.7476
  545SOL     OW 1633   2.196   1.627   1.309  0.6770 -0.2451 -0.6564
  545SOL    HW1 1634   2.249   1.708   1.289  0.6132  1.0776 -2.2336
  545SOL    HW2 1635   2.202   1.563   1.230 -1.5441 -1.5013  0.9028
  546SOL     OW 1636   0.083   0.083   2.154 -0.3857 -0.5932  0.3954
  546SOL    HW1 1637   0.096   0.139   2.070  0.2463 -1.6664  0.3544
  546SOL    HW2 1638   0.161   0.021   2.177  1.1101  0.8150  3.0032
  547SOL     OW 1639   1.548   0.610   0.877  0.4317  0.0243  0.3332
  547SOL    HW1 1640   1.452   0.639   0.902 -0.7331 -2.6109 -0.5324
  547SOL    HW2 1641   1.600   0.588   0.959 -0.8555 -0.8581 -1.6173
  548SOL     OW 1642   1.513   2.374   2.978  0.0390 -0.2871  0.1571
  548SOL    HW1 1643   1.428   2.325   3.017 -2.5495 -0.7988  0.3752
  548SOL    HW2 1644   1.583   2.310   2.949  0.9525 -2.2727 -1.5270
  549SOL     OW 1645   2.301   0.437   0.148 -0.0048  0.3290 -0.1313
  549SOL    HW1 1646   2.207   0.479   0.158 -0.7926  0.5035 -0.8868
  549SOL    HW2 1647   2.303   0.386   0.058  2.1265 -1.7428  0.2235
  550SOL     OW 1648   2.807   2.089   0.473  0.5755  0.1102  0.3501
  550SOL    HW1 1649   2.733   2.021   0.487  0.9481  2.1270 -0.0337
  550SOL    HW2 1650   2.899   2.045   0.492 -1.1318 -0.5440 -0.5989
  551SOL     OW 1651   1.329   2.947   2.293  0.3458  0.2402 -0.3457
  551SOL    HW1 1652   1.412   2.922   2.347  1.4330 -0.2580 -1.3182
  551SOL    HW2 1653   1.301   3.037   2.330  1.2776 -1.9832 -0.4994
  552SOL     OW 1654   2.958   2.386   2.635 -0.0707  0.1994  0.2661
  552SOL    HW1 1655   2.986   2.325   2.560  0.1710 -1.4919  2.1814
  552SOL    HW2 1656   2.863   2.359   2.661  2.3826  0.5475  2.5910
  553SOL     OW 1657   0.070   0.062   0.824 -0.5225 -0.7993 -0.3059
  553SOL    HW1 1658   0.072   0.146   0.884 -1.9816  0.8684 -2.5863
  553SOL    HW2 1659   3.092   0.008   0.848  3.1749 -1.4813  0.0770
  554SOL     OW 1660   2.151   2.141   1.544 -0.4868  0.0264 -0.2868
  554SOL    HW1 1661   2.144   2.042   1.564  2.5707 -0.7206  2.2332
  554SOL    HW2 1662   2.234   2.173   1.601  0.4212 -2.3805  0.5101
  555SOL     OW 1663   1.574   2.347   2.116 -0.2144  0.0893  0.1883
  555SOL    HW1 1664   1.600   2.250   2.123 -2.0635 -0.7094 -1.5350
  555SOL    HW2 1665   1.645   2.411   2.145 -1.4904  0.1211  0.9903
  556SOL     OW 1666   1.243   1.330   1.199 -0.2621  0.2504 -0.1396
  556SOL    HW1 1667   1.212   1.320   1.103  2.6440 -3.3017  0.9664
  556SOL    HW2 1668   1.281   1.425   1.210 -0.5224  1.1205  2.1556
  557SOL     OW 1669   2.310   2.739   1.927  0.1669  0.1345 -0.2272
  557SOL    HW1 1670   2.376   2.718   2.002  1.1206 -1.6046 -0.3613
  557SOL    HW2 1671   2.222   2.755   1.968  3.5478  0.6914  0.4322
  558SOL     OW 1672   0.220   3.057   1.880 -0.2986  0.3384  0.3871
  558SOL    HW1 1673   0.202   0.052   1.878  0.4663 -1.6690 -0.8139
  558SOL    HW2 1674   0.148   2.995   1.845  2.3950 -0.2158  1.8432
  559SOL     OW 1675   2.004   0.042   0.715  0.1332  0.0299  0.0394
  559SOL    HW1 1676   2.101   0.047   0.748 -0.8428  0.0979  0.9167
  559SOL    HW2 1677   1.992   3.093   0.626 -1.2905  1.5006  1.1500
  560SOL     OW 1678   1.715   2.777   0.716 -0.3375  0.6967  0.0239
  560SOL    HW1 1679   1.762   2.855   0.762 -1.6532 -0.8182  1.4749
  560SOL    HW2 1680   1.663   2.724   0.785  1.2592  0.9085 -0.9941
  561SOL     OW 1681   0.613   0.279   1.049  0.4320 -0.0523 -0.4192
  561SOL    HW1 1682   0.638   0.375   1.035 -0.5979 -0.5414  1.2829
  561SOL    HW2 1683   0.518   0.259   1.023  1.3641 -0.6689 -0.7941
  562SOL     OW 1684   0.555   1.099   2.529 -0.2671  0.0581  0.2952
  562SOL    HW1 1685   0.466   1.131   2.492  1.3273 -0.8999  2.0488
  562SOL    HW2 1686   0.553   0.999   2.554  1.3190  0.9443  1.2822
  563SOL     OW 1687   1.613   2.160   2.430 -0.1094  0.1444 -0.3350
  563SOL    HW1 1688   1.698   2.130   2.379  0.0208  0.4103  0.5090
  563SOL    HW2 1689   1.541   2.170   2.359  2.2285 -1.9333  1.8674
  564SOL     OW 1690   2.829   0.929   0.704  0.1585 -0.3736  0.0413
  564SOL    HW1 1691   2.867   0.885   0.785  1.1501 -0.3550 -0.3748
  564SOL    HW2 1692   2.741   0.984   0.722  0.3500  1.1270  1.2226
  565SOL     OW 1693   0.734   0.873   0.160  0.4709 -0.3384  0.1833
  565SOL    HW1 1694   0.825   0.890   0.131 -2.5080 -0.7209  1.4945
  565SOL    HW2 1695   0.723   0.915   0.254 -0.4856 -0.0804 -0.7517
  566SOL     OW 1696   2.162   0.314   2.574 -0.4746  0.5133  0.2514
  566SOL    HW1 1697   2.238   0.245   2.579 -0.7136 -1.2376 -0.0671
  566SOL    HW2 1698   2.138   0.348   2.667  0.1483  0.0505  0.6463
  567SOL     OW 1699   1.622   0.886   0.662 -0.3272  0.1856 -0.2047
  567SOL    HW1 1700   1.560   0.804   0.635 -1.8625 -1.2938  0.8296
  567SOL    HW2 1701   1.621   0.947   0.581 -1.2519  0.1294 -0.0091
  568SOL     OW 1702   1.926   1.751   2.957 -0.6289 -0.6268 -0.3311
  568SOL    HW1 1703   1.827   1.767   2.963 -1.1148 -3.4525 -0.6473
  568SOL    HW2 1704   1.953   1.763   2.863  0.2330 -0.5906  4.1635
  569SOL     OW 1705   2.020   1.270   3.081  0.3364 -0.0082 -0.2134
  569SOL    HW1 1706   2.004   1.360   0.019  0.3268 -0.6594 -0.9175
  569SOL    HW2 1707   2.110   1.245   0.024 -1.6064 -2.2817  2.0818
  570SOL     OW 1708   0.269   2.317   1.853 -0.2843 -0.2740 -0.6785
  570SOL    HW1 1709   0.351   2.369   1.818  1.1395 -0.3010  1.5082
  570SOL    HW2 1710   0.188   2.374   1.879  0.2525  2.8204 -1.4376
  571SOL     OW 1711   0.253   1.257   1.818  0.4015  0.0608 -0.1648
  571SOL    HW1 1712   0.355   1.249   1.837  0.2592 -1.3517  2.6327
  571SOL    HW2 1713   0.230   1.176   1.763  1.0739  2.5217 -1.1118
  572SOL     OW 1714   1.585   1.931   0.597 -0.1236 -0.0146 -0.4913
  572SOL    HW1 1715   1.538   1.886   0.521  3.7216 -1.3704  0.6602
  572SOL    HW2 1716   1.647   1.874   0.650  1.7782 -0.2260  1.1526
  573SOL     OW 1717   1.919   2.120   0.498 -0.1718 -0.9182 -0.0625
  573SOL    HW1 1718   1.855   2.127   0.416  0.2304 -3.0774 -1.1012
  573SOL    HW2 1719   1.914   2.206   0.554 -0.5917 -0.0385  0.6743
  574SOL     OW 1720   0.647   0.220   1.308 -0.4656  0.0773  0.1403
  574SOL    HW1 1721   0.556   0.210   1.350  0.8779  1.0850 -1.0921
  574SOL    HW2 1722   0.644   0.250   1.208  0.8380 -0.8752 -3.9291
  575SOL     OW 1723   0.640   1.263   1.568  1.0270 -0.1232  0.0610
  575SOL    HW1 1724   0.708   1.291   1.502  0.0265  1.4309  1.5484
  575SOL    HW2 1725   0.682   1.188   1.621 -1.7980  2.1856  1.0451
  576SOL     OW 1726   2.785   0.012   1.271  0.7386 -0.2724  0.1518
  576SOL    HW1 1727   2.776   3.016   1.250 -1.0480  3.5030  2.0938
  576SOL    HW2 1728   2.693   0.062   1.269 -3.5374  1.5072  0.2820
  577SOL     OW 1729   1.061   1.227   2.122 -0.3057 -0.5358  0.4713
  577SOL    HW1 1730   1.025   1.256   2.028 -0.8156 -2.1865  0.3684
  577SOL    HW2 1731   1.034   1.128   2.141 -2.3781  1.1011  2.0897
  578SOL     OW 1732   1.686   1.083   2.543 -0.0957 -0.1144  0.0147
  578SOL    HW1 1733   1.764   1.054   2.482 -1.1322 -2.9198  0.0101
  578SOL    HW2 1734   1.600   1.094   2.491  1.5276  1.1549 -0.2085
  579SOL     OW 1735   1.468   2.300   1.823 -0.5873 -0.5543  0.7070
  579SOL    HW1 1736   1.481   2.243   1.906 -2.5437 -0.2447 -0.5864
  579SOL    HW2 1737   1.535   2.371   1.817 -1.7089 -0.0485 -0.3641
  580SOL     OW 1738   1.451   1.763   0.390  0.6261  0.2747  0.2120
  580SOL    HW1 1739   1.467   1.661   0.399 -2.1101 -0.1705  0.6191
  580SOL    HW2 1740   1.371   1.797   0.441 -1.8074  0.3745 -0.7756
  581SOL     OW 1741   1.229   0.890   2.112 -0.1049 -0.1147  0.0270
  581SOL    HW1 1742   1.133   0.925   2.098  0.1765  1.1285  1.0604
  581SOL    HW2 1743   1.248   0.895   2.213 -1.2400 -1.6801 -0.1837
  582SOL     OW 1744   0.798   1.349   1.392 -0.1762  0.1742 -0.5756
  582SOL    HW1 1745   0.902   1.357   1.398  2.0928 -2.0194 -0.8000
  582SOL    HW2 1746   0.762   1.396   1.306  0.4964 -1.0399 -2.8984
  583SOL     OW 1747   0.963   1.303   1.881  0.0485 -0.3736 -0.3916
  583SOL    HW1 1748   0.911   1.221   1.848  1.2882  0.8363  1.0748
  583SOL    HW2 1749   0.911   1.393   1.876  1.3491  1.7405  1.2737
  584SOL     OW 1750   2.535   2.571   0.786  0.1672 -0.1394  0.7825
  584SOL    HW1 1751   2.459   2.526   0.739  3.0883  1.9212 -1.0496
  584SOL    HW2 1752   2.498   2.664   0.820 -1.8702 -1.3175  1.2544
  585SOL     OW 1753   2.022   0.364   2.849 -0.1336  0.4996  0.1389
  585SOL    HW1 1754   1.964   0.283   2.832  1.4563 -1.8891  0.0283
  585SOL    HW2 1755   1.971   0.451   2.852  2.0091 -1.0456  1.4679
  586SOL     OW 1756   0.072   2.376   0.796 -0.1900  0.1574 -0.1331
  586SOL    HW1 1757   0.054   2.474   0.792 -1.7268 -0.8743  2.0301
  586SOL    HW2 1758   3.098   2.330   0.754  0.1124  1.8601  0.7204
  587SOL     OW 1759   1.652   1.711   3.045  0.1319  0.2789  0.4352
  587SOL    HW1 1760   1.665   1.735   0.040 -0.7047 -0.2296 -4.3602
  587SOL    HW2 1761   1.661   1.612   3.031  1.7381  0.8097  3.5777
  588SOL     OW 1762   0.248   0.367   1.244  0.0080 -0.3662  0.3006
  588SOL    HW1 1763   0.304   0.297   1.291 -0.8951  0.6188 -1.6606
  588SOL    HW2 1764   0.158   0.378   1.288  0.8648 -0.0364 -0.9723
  589SOL     OW 1765   1.417   0.379   0.810 -0.8334  0.2662 -0.2181
  589SOL    HW1 1766   1.420   0.315   0.888 -1.4307 -1.1971 -1.1398
  589SOL    HW2 1767   1.479   0.458   0.833 -0.2315 -0.6135  1.6318
  590SOL     OW 1768   1.018   0.909   0.103  0.1502  0.2061  0.2082
  590SOL    HW1 1769   1.062   0.999   0.128 -1.2993 -0.2314  0.4880
  590SOL    HW2 1770   1.075   0.862   0.034  1.2173 -1.5533 -1.4814
  591SOL     OW 1771   2.577   2.354   2.306 -0.1335 -0.2597 -0.1911
  591SOL    HW1 1772   2.532   2.346   2.397 -0.1840  0.7117 -1.2806
  591SOL    HW2 1773   2.609   2.448   2.287  2.4079  0.5843  2.4380
  592SOL     OW 1774   2.016   1.842   1.354  0.3690 -0.5248  0.0812
  592SOL    HW1 1775   2.064   1.871   1.441 -0.9955 -0.0529 -2.0435
  592SOL    HW2 1776   2.039   1.749   1.322 -1.0109  1.5768  0.5833
  593SOL     OW 1777   1.162   0.617   1.455  0.2992  0.1039  0.3458
  593SOL    HW1 1778   1.067   0.584   1.473 -0.1607 -0.1262 -0.1707
  593SOL    HW2 1779   1.192   0.580   1.361  0.3901 -0.8733 -0.1972
  594SOL     OW 1780   2.420   1.081   2.520  0.1589  0.5409 -0.4771
  594SOL    HW1 1781   2.421   1.031   2.613 -1.1604 -2.2761 -0.4669
  594SOL    HW2 1782   2.487   1.033   2.457 -1.0681  0.8364  0.4299
  595SOL     OW 1783   0.177   0.134   0.398  0.2973 -0.1207  0.3482
  595SOL    HW1 1784   0.193   0.088   0.483 -0.4540 -1.7384 -2.1690
  595SOL    HW2 1785   0.225   0.226   0.402 -0.0014 -0.6417  0.0156
  596SOL     OW 1786   0.021   1.492   1.181  1.0715  0.6223  0.2590
  596SOL    HW1 1787   0.117   1.488   1.202 -4.9131  0.0352 -2.8294
  596SOL    HW2 1788   3.064   1.444   1.252 -1.7569 -0.7941 -0.1293
  597SOL     OW 1789   1.782   1.561   0.477  0.3706  0.5453  0.2807
  597SOL    HW1 1790   1.785   1.639   0.544  2.1354  0.5688  0.0310
  597SOL    HW2 1791   1.864   1.559   0.415  1.7399 -1.4561 -0.6080
  598SOL     OW 1792   0.239   2.744   1.876 -0.0843 -0.0548  0.1567
  598SOL    HW1 1793   0.231   2.770   1.779  1.0870 -0.3929 -2.1191
  598SOL    HW2 1794   0.337   2.730   1.910 -0.2111  0.0464  0.8731
  599SOL     OW 1795   2.472   1.252   2.845  0.7009 -0.1905  0.4151
  599SOL    HW1 1796   2.418   1.193   2.909  0.8814 -0.6126  2.3594
  599SOL    HW2 1797   2.412   1.325   2.808 -1.1902  0.0169  0.5736
  600SOL     OW 1798   0.514   1.082   0.224 -0.1853 -0.8202  0.2118
  600SOL    HW1 1799   0.583   1.157   0.251 -1.5386  0.0478 -0.7035
  600SOL    HW2 1800   0.420   1.120   0.210  1.4962  0.2208 -0.5478
  601SOL     OW 1801   0.478   0.858   0.896  0.0928 -0.2079  0.3560
  601SOL    HW1 1802   0.515   0.806   0.976  2.9071  0.7073  3.1264
  601SOL    HW2 1803   0.432   0.945   0.925  0.8556  1.2270 -0.2169
  602SOL     OW 1804   1.498   2.508   0.542  0.0274 -0.0993 -1.0602
  602SOL    HW1 1805   1.531   2.457   0.628  1.6833  0.5029  1.7744
  602SOL    HW2 1806   1.530   2.458   0.460  0.5207 -0.6987  1.5069
  603SOL     OW 1807   0.952   2.622   2.039 -0.5111  0.2779 -0.4444
  603SOL    HW1 1808   1.008   2.649   2.123  0.7219  2.2245  1.6743
  603SOL    HW2 1809   0.866   2.578   2.067  0.1866 -0.3706  1.2751
  604SOL     OW 1810   0.274   0.268   2.284 -0.1782  0.3437 -0.7545
  604SOL    HW1 1811   0.208   0.193   2.267  0.9713  4.2007  1.4592
  604SOL    HW2 1812   0.333   0.290   2.205 -0.2027  1.0998  2.6161
  605SOL     OW 1813   3.031   0.995   1.503 -0.0228  0.6999 -0.0720
  605SOL    HW1 1814   2.943   1.043   1.518  0.2667 -2.7867 -2.2347
  605SOL    HW2 1815   3.030   0.912   1.557 -1.4807  0.2963  1.7826
  606SOL     OW 1816   0.903   1.751   2.699  0.2718  0.3280 -0.7745
  606SOL    HW1 1817   0.822   1.728   2.649  3.5121  2.4058  4.0001
  606SOL    HW2 1818   0.976   1.684   2.671 -0.7663  0.1260 -3.0385
  607SOL     OW 1819   0.344   2.995   0.301  0.1745 -0.9841  0.5388
  607SOL    HW1 1820   0.287   3.012   0.218 -0.3232 -0.7296 -2.6152
  607SOL    HW2 1821   0.293   2.999   0.391  0.6472  2.2231 -0.5918
  608SOL     OW 1822   2.331   1.689   1.855 -0.4960 -0.0078  0.9524
  608SOL    HW1 1823   2.332   1.724   1.756  0.6734  0.7379 -0.3151
  608SOL    HW2 1824   2.362   1.759   1.921  0.1108 -1.3476  2.6427
  609SOL     OW 1825   2.686   0.378   1.143  0.0208  0.5133 -0.1194
  609SOL    HW1 1826   2.654   0.336   1.058 -1.5893  2.6182  1.2300
  609SOL    HW2 1827   2.616   0.366   1.214  0.4558  1.4815  0.1260
  610SOL     OW 1828   0.224   2.673   0.381  0.4929 -0.1877  0.2848
  610SOL    HW1 1829   0.324   2.678   0.399 -1.6497  0.3551 -0.6126
  610SOL    HW2 1830   0.206   2.689   0.283 -0.3982 -2.3832  0.1026
  611SOL     OW 1831   1.565   1.199   3.071  0.0309  0.0241  0.2559
  611SOL    HW1 1832   1.644   1.144   3.088  1.4407 -0.8124  1.4419
  611SOL    HW2 1833   1.520   1.229   0.059  2.5952  2.0956  1.1360
  612SOL     OW 1834   0.735   2.409   1.836 -0.4719  0.3129  0.5548
  612SOL    HW1 1835   0.738   2.439   1.935  0.1806 -2.0192  2.5110
  612SOL    HW2 1836   0.781   2.483   1.781 -0.4172  2.4045 -1.2214
  613SOL     OW 1837   0.377   2.589   0.767  0.1227  0.3739 -0.3103
  613SOL    HW1 1838   0.453   2.626   0.818 -3.2613 -0.4551 -1.6420
  613SOL    HW2 1839   0.422   2.531   0.696  0.5099  0.2417 -2.4596
  614SOL     OW 1840   2.263   2.657   1.666  0.1366 -0.4946 -0.0464
  614SOL    HW1 1841   2.364   2.674   1.647  0.5342  0.6764 -1.3724
  614SOL    HW2 1842   2.246   2.659   1.765 -1.5958 -1.3514  1.1837
  615SOL     OW 1843   1.829   1.131   0.310 -0.0252  0.0933  0.3063
  615SOL    HW1 1844   1.800   1.183   0.392  0.2401 -1.4227 -1.0873
  615SOL    HW2 1845   1.925   1.102   0.308 -1.5767  1.5805 -0.6746
  616SOL     OW 1846   2.087   0.671   0.353 -0.2507  0.0929 -0.2180
  616SOL    HW1 1847   2.040   0.754   0.317 -0.0563 -2.3020  2.5092
  616SOL    HW2 1848   2.078   0.592   0.289 -0.3668 -0.5385  1.6882
  617SOL     OW 1849   0.967   0.672   2.811 -0.0536  0.1970 -0.2302
  617SOL    HW1 1850   1.049   0.723   2.791 -2.4366 -3.7867  0.8352
  617SOL    HW2 1851   0.983   0.622   2.901  0.3379  1.7395 -1.2658
  618SOL     OW 1852   0.953   3.029   1.961 -0.1636 -0.3160 -0.6292
  618SOL    HW1 1853   0.943   2.945   1.904  0.2580  2.3063  0.5905
  618SOL    HW2 1854   0.862   3.076   1.981 -1.2434  1.8881 -2.6377
  619SOL     OW 1855   2.982   1.329   1.377 -0.4349 -0.1437  0.1709
  619SOL    HW1 1856   2.897   1.367   1.413 -2.2950 -1.2715 -0.9382
  619SOL    HW2 1857   3.021   1.258   1.437  2.8390  0.6090 -0.3015
  620SOL     OW 1858   0.078   0.773   2.805 -0.1297  0.2813  0.1580
  620SOL    HW1 1859   0.071   0.706   2.882  2.0078  0.7240  1.1052
  620SOL    HW2 1860   0.164   0.835   2.808  0.6546  3.8849  0.7283
  621SOL     OW 1861   2.252   2.206   2.164 -0.1459 -0.0844  0.1511
  621SOL    HW1 1862   2.185   2.171   2.093  0.1903 -1.5997  0.6905
  621SOL    HW2 1863   2.294   2.293   2.136  1.6647 -4.4802 -1.5379
  622SOL     OW 1864   1.156   0.428   2.030  0.2758  0.0923 -0.3667
  622SOL    HW1 1865   1.070   0.477   2.057 -0.8936 -0.4767  0.7735
  622SOL    HW2 1866   1.238   0.480   2.064  0.7673  1.5496 -1.0699
  623SOL     OW 1867   0.973   0.978   2.161  0.2261 -0.4250  0.4582
  623SOL    HW1 1868   0.882   0.978   2.115 -1.9774  0.4627 -0.2128
  623SOL    HW2 1869   0.971   0.919   2.244 -1.1839  2.9635  0.8106
  624SOL     OW 1870   2.665   0.900   0.355  0.1156 -0.3840  0.1432
  624SOL    HW1 1871   2.570   0.895   0.402 -4.2942  1.1159  1.1427
  624SOL    HW2 1872   2.743   0.848   0.398  0.6671 -1.3421  0.8269
  625SOL     OW 1873   0.946   1.283   0.728 -0.1867 -0.1380  0.0682
  625SOL    HW1 1874   0.893   1.349   0.782  2.5856 -0.3077  3.2308
  625SOL    HW2 1875   0.913   1.184   0.745  1.2651 -3.4406  0.7963
  626SOL     OW 1876   1.796   0.887   2.697 -0.1306 -0.6264  0.5229
  626SOL    HW1 1877   1.885   0.935   2.701  2.0871  1.7231 -1.6543
  626SOL    HW2 1878   1.732   0.930   2.629 -0.5423  0.6196 -1.7526
  627SOL     OW 1879   1.023   2.973   2.971 -0.4240  0.4308 -0.1359
  627SOL    HW1 1880   1.098   2.955   2.903  1.7130 -0.0741 -0.1115
  627SOL    HW2 1881   0.945   3.032   2.938  2.4557 -0.6435  0.8096
  628SOL     OW 1882   1.976   0.166   2.402  0.1911  0.0342 -0.3050
  628SOL    HW1 1883   2.049   0.199   2.473  4.2879 -2.0297 -1.2696
  628SOL    HW2 1884   1.889   0.216   2.409  0.8571 -1.8552  1.8443
  629SOL     OW 1885   0.707   0.263   2.952  0.0150 -0.2375 -0.2746
  629SOL    HW1 1886   0.678   0.284   2.856 -0.9179  1.0135 -0.7311
  629SOL    HW2 1887   0.799   0.308   2.964 -0.7508 -1.9114 -3.5641
  630SOL     OW 1888   0.901   0.385   2.565  0.3451  0.0340  0.2430
  630SOL    HW1 1889   0.950   0.332   2.638 -0.7883 -0.5881  0.0354
  630SOL    HW2 1890   0.827   0.446   2.607  0.1882 -1.5757 -2.6109
  631SOL     OW 1891   2.348   1.082   0.653  0.1027 -0.2395 -0.0784
  631SOL    HW1 1892   2.256   1.080   0.700 -1.9248  1.6813  0.2562
  631SOL    HW2 1893   2.351   1.145   0.577  0.2564 -3.5051  1.7699
  632SOL     OW 1894   1.916   0.892   1.429 -0.2513 -0.0590  1.1688
  632SOL    HW1 1895   1.929   0.865   1.330 -0.5840  1.8117  2.5083
  632SOL    HW2 1896   1.831   0.845   1.457 -0.1039  0.7521  2.3201
  633SOL     OW 1897   1.172   1.609   0.262 -0.1471  0.0313  0.4205
  633SOL    HW1 1898   1.211   1.705   0.254  3.3375  2.9042 -2.3261
  633SOL    HW2 1899   1.172   1.579   0.360  0.4978 -1.8346 -0.0059
  634SOL     OW 1900   2.486   2.981   1.497 -0.1601  0.4631 -0.0397
  634SOL    HW1 1901   2.431   2.979   1.583  1.3724 -2.0762 -1.5398
  634SOL    HW2 1902   2.578   2.938   1.511  1.3199 -2.4308 -1.4000
  635SOL     OW 1903   1.851   0.225   1.017  0.6797  0.0169  0.0088
  635SOL    HW1 1904   1.817   0.173   0.934 -1.3491 -0.4833 -2.9687
  635SOL    HW2 1905   1.815   0.185   1.110 -1.1188  3.2052 -0.1529
  636SOL     OW 1906   0.722   1.240   0.382 -0.1252 -0.4707 -0.1624
  636SOL    HW1 1907   0.679   1.241   0.474  0.4202  2.1455 -2.0515
  636SOL    HW2 1908   0.813   1.282   0.392  1.0756 -1.6810  0.8245
  637SOL     OW 1909   2.858   2.066   2.958 -0.5478 -0.5521 -0.1758
  637SOL    HW1 1910   2.795   2.113   3.021  0.4632  0.1253  3.6474
  637SOL    HW2 1911   2.925   2.133   2.923  0.8452 -0.7045  2.8687
  638SOL     OW 1912   1.303   2.633   2.810 -0.0204  0.2823  0.2756
  638SOL    HW1 1913   1.320   2.643   2.709  0.7279 -2.6471  1.0664
  638SOL    HW2 1914   1.255   2.545   2.822 -0.3890  2.0745 -0.7273
  639SOL     OW 1915   1.359   1.589   1.178 -0.0673 -0.6661  0.2408
  639SOL    HW1 1916   1.314   1.662   1.121 -0.5021 -1.8119 -0.1706
  639SOL    HW2 1917   1.459   1.585   1.153 -0.0094  0.8791 -2.2996
  640SOL     OW 1918   2.239   2.873   0.608 -0.5156  0.5227 -1.0306
  640SOL    HW1 1919   2.156   2.935   0.604 -0.6416 -0.6868  0.5639
  640SOL    HW2 1920   2.218   2.782   0.576  2.0921  2.3451 -0.6535
  641SOL     OW 1921   2.853   3.050   2.911 -0.4722 -0.2117 -0.0063
  641SOL    HW1 1922   2.794   3.066   2.993 -0.4230  1.7352  0.4078
  641SOL    HW2 1923   2.901   2.958   2.926  2.2055 -0.0899 -2.5611
  642SOL     OW 1924   2.857   0.741   1.244  0.8303 -0.0943 -0.1936
  642SOL    HW1 1925   2.824   0.751   1.145 -0.6655 -1.8492 -0.9289
  642SOL    HW2 1926   2.782   0.787   1.302 -0.5915  0.3532  1.6980
  643SOL     OW 1927   0.859   1.839   2.229  0.1244  0.4509  0.2864
  643SOL    HW1 1928   0.778   1.780   2.214  1.1019 -0.5674 -0.3580
  643SOL    HW2 1929   0.881   1.903   2.151  1.2974  0.3180 -0.5985
  644SOL     OW 1930   1.877   2.362   0.623 -0.3493  0.5096  0.5392
  644SOL    HW1 1931   1.926   2.368   0.714  0.0428 -0.8718 -2.0634
  644SOL    HW2 1932   1.859   2.456   0.585 -1.8346 -1.6692 -0.9396
  645SOL     OW 1933   2.014   1.893   0.978  0.4899 -0.0247 -0.1548
  645SOL    HW1 1934   1.985   1.911   0.879  0.4553 -2.4162 -0.7102
  645SOL    HW2 1935   2.037   1.795   0.990  1.0939  0.5429 -0.7681
  646SOL     OW 1936   1.070   2.441   3.033 -0.2329 -0.1212  0.0940
  646SOL    HW1 1937   1.082   2.542   3.044 -1.3043 -0.9185  0.5915
  646SOL    HW2 1938   1.103   2.387   0.012  2.0233  4.3522  2.5255
  647SOL     OW 1939   0.514   2.721   1.877 -0.2965 -0.5455 -0.5216
  647SOL    HW1 1940   0.500   2.821   1.900 -1.7692  5.3698  0.7856
  647SOL    HW2 1941   0.561   2.703   1.794 -0.9009  2.7529  4.0529
  648SOL     OW 1942   1.631   0.490   1.698 -0.0005  0.2877 -0.4038
  648SOL    HW1 1943   1.645   0.590   1.709  0.4683  0.4035 -2.4984
  648SOL    HW2 1944   1.531   0.467   1.719 -2.3422 -0.7446 -0.6399
  649SOL     OW 1945   1.759   2.136   0.297 -0.5025 -0.4882  0.0644
  649SOL    HW1 1946   1.709   2.224   0.316 -0.9891  1.7990  1.4138
  649SOL    HW2 1947   1.750   2.121   0.195  2.1941  1.0874 -0.4118
  650SOL     OW 1948   1.862   1.715   1.914 -0.1094 -0.1689 -0.1518
  650SOL    HW1 1949   1.951   1.693   1.960  1.2431 -2.6401 -1.0568
  650SOL    HW2 1950   1.864   1.702   1.811  1.7272 -2.3834 -3.9970
  651SOL     OW 1951   1.513   2.531   0.131  0.3472  0.5839  0.6696
  651SOL    HW1 1952   1.512   2.486   0.044  1.0554  0.6337  1.9479
  651SOL    HW2 1953   1.497   2.630   0.120 -1.2666 -0.2693 -0.2543
  652SOL     OW 1954   0.415   2.298   0.321  0.0537  0.4469  0.1929
  652SOL    HW1 1955   0.322   2.289   0.350  0.4462  1.0869 -1.8073
  652SOL    HW2 1956   0.434   2.394   0.303 -1.0114  0.2437 -0.8223
  653SOL     OW 1957   2.383   2.219   1.286 -0.2872 -0.1383  0.0336
  653SOL    HW1 1958   2.413   2.264   1.200 -1.2365  2.0974 -0.0106
  653SOL    HW2 1959   2.360   2.286   1.355 -1.7047 -0.8867 -1.0314
  654SOL     OW 1960   2.840   2.679   1.500  0.7383  0.4839 -0.0980
  654SOL    HW1 1961   2.793   2.769   1.512  1.3415 -0.5187 -0.8227
  654SOL    HW2 1962   2.773   2.598   1.494 -1.2006 -1.8463 -0.8099
  655SOL     OW 1963   0.005   2.038   1.131 -0.5269  0.1003  0.2622
  655SOL    HW1 1964   3.084   1.951   1.179 -1.2228 -0.9975  0.7107
  655SOL    HW2 1965   3.097   2.118   1.187 -0.1781 -0.3595 -3.0052
  656SOL     OW 1966   3.060   2.769   2.344  0.1341  0.0364  0.0595
  656SOL    HW1 1967   3.008   2.829   2.280 -0.8080 -0.0101  1.6509
  656SOL    HW2 1968   0.060   2.779   2.344 -0.2898 -0.9951  2.2341
  657SOL     OW 1969   3.076   1.196   2.861  0.0458 -0.1753  0.1242
  657SOL    HW1 1970   3.005   1.140   2.913 -0.4023  0.3193  1.8235
  657SOL    HW2 1971   3.042   1.259   2.789 -1.7658 -0.1523  2.0990
  658SOL     OW 1972   1.745   1.712   0.699 -0.4206 -0.1501  0.1078
  658SOL    HW1 1973   1.827   1.776   0.699 -0.0294 -0.7433  0.0241
  658SOL    HW2 1974   1.742   1.657   0.785 -0.3979 -2.1171 -3.6847
  659SOL     OW 1975   1.282   0.538   1.230  0.0410 -0.1493 -0.2629
  659SOL    HW1 1976   1.231   0.540   1.144 -0.5703 -0.3243 -0.3225
  659SOL    HW2 1977   1.325   0.447   1.249  0.1255 -1.5284  2.9997
  660SOL     OW 1978   1.680   1.439   3.007 -0.1091  0.3691 -0.0814
  660SOL    HW1 1979   1.642   1.357   3.056 -1.9756  2.5398  0.7840
  660SOL    HW2 1980   1.648   1.438   2.915  0.4098 -1.6816  3.1810
  661SOL     OW 1981   0.161   2.289   0.457 -0.4886  0.1165 -0.0430
  661SOL    HW1 1982   0.192   2.234   0.540 -0.5541 -2.2745  1.0053
  661SOL    HW2 1983   0.091   2.357   0.483 -2.2488  1.5757 -3.7439
  662SOL     OW 1984   0.221   0.860   2.106 -0.0645 -0.1266  0.4416
  662SOL    HW1 1985   0.239   0.878   2.205  1.5491 -2.1462  0.2876
  662SOL    HW2 1986   0.196   0.759   2.083 -0.9506 -3.9355  0.2153
  663SOL     OW 1987   1.754   1.355   0.811  0.2854  0.6625  0.7190
  663SOL    HW1 1988   1.820   1.296   0.864  0.2239 -3.6126  0.6817
  663SOL    HW2 1989   1.739   1.447   0.861  2.2709 -1.6170  0.2632
  664SOL     OW 1990   0.974   0.665   1.015 -0.7460  0.3213 -0.3511
  664SOL    HW1 1991   0.955   0.574   1.061 -2.2663 -2.3899  1.4646
  664SOL    HW2 1992   0.931   0.745   1.065  0.4775 -1.3801 -1.1401
  665SOL     OW 1993   0.988   3.000   0.142 -0.0572  0.1242  0.4803
  665SOL    HW1 1994   1.042   3.086   0.158  1.0632  1.9976 -1.9011
  665SOL    HW2 1995   1.012   2.976   0.043  0.5818  0.7928 -2.5844
  666SOL     OW 1996   2.928   0.245   2.546  0.0391 -0.4077  0.4582
  666SOL    HW1 1997   3.022   0.220   2.566 -0.9751  0.8909 -0.6384
  666SOL    HW2 1998   2.885   0.302   2.622 -0.7127  1.8097 -0.5704
  667SOL     OW 1999   2.557   1.607   2.252 -0.2995 -0.2930  0.0522
  667SOL    HW1 2000   2.574   1.702   2.270 -1.6650 -0.7761  0.5974
  667SOL    HW2 2001   2.563   1.558   2.339 -0.6627  0.1383 -3.2303
  668SOL     OW 2002   0.729   1.224   2.691  0.0514 -0.3654 -0.2783
  668SOL    HW1 2003   0.675   1.274   2.764 -2.6333  0.7344  0.4741
  668SOL    HW2 2004   0.656   1.199   2.623 -1.3895  1.0100 -0.0241
  669SOL     OW 2005   2.176   2.292   2.603  0.2980 -0.0189 -0.4864
  669SOL    HW1 2006   2.130   2.248   2.526  1.8713  2.5541  2.3168
  669SOL    HW2 2007   2.176   2.248   2.692  0.2521  0.8194 -2.6329
  670SOL     OW 2008   2.158   1.130   2.431  0.5887 -0.3411 -0.5546
  670SOL    HW1 2009   2.254   1.102   2.453 -1.5415 -1.7529  0.6317
  670SOL    HW2 2010   2.158   1.231   2.413  1.3853 -0.8939  0.5580
  671SOL     OW 2011   2.564   1.373   0.025  0.4467 -0.1489 -0.1316
  671SOL    HW1 2012   2.536   1.273   0.017  0.2661 -2.3477  5.3049
  671SOL    HW2 2013   2.667   1.373   0.006 -0.7291 -1.4243  0.2998
  672SOL     OW 2014   2.525   1.087   2.081 -0.2243  0.2293  0.5514
  672SOL    HW1 2015   2.438   1.068   2.128  0.7225  1.1273  1.9890
  672SOL    HW2 2016   2.524   1.084   1.980 -1.5933  1.4325  1.7393
  673SOL     OW 2017   2.636   0.863   1.376  0.3237 -0.4895  0.5372
  673SOL    HW1 2018   2.642   0.960   1.339 -3.3664  1.6190 -0.8799
  673SOL    HW2 2019   2.675   0.857   1.469 -1.8948  3.2426  1.5039
  674SOL     OW 2020   1.914   1.980   1.838 -0.5298 -0.2002 -0.2309
  674SOL    HW1 2021   1.884   1.893   1.879  3.3496  1.9927 -0.0010
  674SOL    HW2 2022   1.845   2.026   1.778 -1.8102 -1.5833  0.2054
  675SOL     OW 2023   0.343   0.462   0.823  0.5674 -0.2654  0.1650
  675SOL    HW1 2024   0.433   0.476   0.791 -3.8639 -0.4406  1.7225
  675SOL    HW2 2025   0.335   0.364   0.859  2.7525 -2.4411 -0.8759
  676SOL     OW 2026   1.888   1.134   1.219 -0.1087 -0.1400 -0.3304
  676SOL    HW1 2027   1.875   1.227   1.251  1.0955  2.2890 -1.7010
  676SOL    HW2 2028   1.977   1.093   1.255  2.1038 -1.4861 -0.2653
  677SOL     OW 2029   2.220   1.644   2.238 -0.0705  0.0263  0.0529
  677SOL    HW1 2030   2.162   1.666   2.324 -2.1033 -1.5593  2.6266
  677SOL    HW2 2031   2.316   1.676   2.240 -1.7005 -1.2337 -0.3974
  678SOL     OW 2032   3.074   1.709   0.823  0.3068  0.4410  0.1183
  678SOL    HW1 2033   3.095   1.803   0.850 -1.0546  0.2204  2.9406
  678SOL    HW2 2034   3.002   1.713   0.750 -1.3671  0.8208  0.0499
  679SOL     OW 2035   2.864   2.664   0.530 -0.1418 -0.0042  0.5846
  679SOL    HW1 2036   2.771   2.667   0.484 -2.2211 -1.0039 -0.2525
  679SOL    HW2 2037   2.901   2.760   0.538 -0.0975  0.3610  0.3102
  680SOL     OW 2038   0.084   2.515   1.298 -0.4521  0.5225 -0.0781
  680SOL    HW1 2039   0.181   2.499   1.338  2.2594 -0.8857  1.3657
  680SOL    HW2 2040   0.023   2.432   1.309  1.0183 -1.0266  0.8460
  681SOL     OW 2041   0.486   1.191   1.208 -0.1338 -0.1496 -0.1022
  681SOL    HW1 2042   0.573   1.240   1.190 -2.1746 -1.2156  0.4113
  681SOL    HW2 2043   0.478   1.187   1.308  0.4823 -1.4044  1.7287
  682SOL     OW 2044   1.889   2.684   1.055 -0.1841  0.0993  0.4039
  682SOL    HW1 2045   1.959   2.608   1.059  1.8233 -1.5323  0.8628
  682SOL    HW2 2046   1.934   2.777   1.064 -2.3872 -1.1108 -2.2549
  683SOL     OW 2047   2.304   1.170   1.054  0.5775 -0.9615  0.4085
  683SOL    HW1 2048   2.334   1.265   1.025 -1.0263  0.1214 -0.1876
  683SOL    HW2 2049   2.385   1.112   1.072 -1.8762 -2.3086  1.0115
  684SOL     OW 2050   0.684   2.164   1.978 -0.4791  0.0582  0.1358
  684SOL    HW1 2051   0.702   2.261   1.956 -0.6189  2.1246  2.0946
  684SOL    HW2 2052   0.620   2.126   1.910 -1.7395 -0.2769 -0.0456
  685SOL     OW 2053   2.227   1.487   0.197 -0.0624 -0.2217 -0.0463
  685SOL    HW1 2054   2.267   1.558   0.135 -0.9134  2.3446 -2.2290
  685SOL    HW2 2055   2.153   1.531   0.253 -0.5955 -0.6309  0.2575
  686SOL     OW 2056   0.017   0.763   0.356  0.0219 -0.3157  0.1392
  686SOL    HW1 2057   0.045   0.858   0.324  1.7501  1.4255 -3.5178
  686SOL    HW2 2058   3.026   0.771   0.402  1.0751  2.3350 -0.8790
  687SOL     OW 2059   0.995   2.870   0.413  0.0918  0.1764  0.4550
  687SOL    HW1 2060   1.079   2.838   0.448 -2.6017  2.1451 -0.6447
  687SOL    HW2 2061   0.991   2.879   0.315  3.2133  1.3265 -1.0699
  688SOL     OW 2062   1.713   1.730   2.306  0.2423 -0.5717  0.3313
  688SOL    HW1 2063   1.742   1.639   2.334 -3.5465  3.1059 -0.6069
  688SOL    HW2 2064   1.629   1.729   2.247 -0.0827 -1.2909  1.6156
  689SOL     OW 2065   2.643   0.996   2.350  0.5770 -0.2826 -0.2586
  689SOL    HW1 2066   2.654   1.002   2.251  2.5577  0.1191 -1.4106
  689SOL    HW2 2067   2.724   1.032   2.400 -1.1411 -0.1400 -0.7438
  690SOL     OW 2068   1.718   0.471   1.127 -0.2968 -0.3874  0.5494
  690SOL    HW1 2069   1.641   0.413   1.089 -0.2638 -1.8051 -0.1418
  690SOL    HW2 2070   1.805   0.424   1.104  0.1966 -3.0537 -0.2004
  691SOL     OW 2071   1.028   1.647   1.375 -0.0649  0.3885  0.3575
  691SOL    HW1 2072   1.034   1.542   1.373  0.1576 -2.2511  3.0183
  691SOL    HW2 2073   1.121   1.688   1.365 -1.1891  0.5155 -3.3203
  692SOL     OW 2074   1.536   0.227   1.907  0.3381  0.0011 -0.5480
  692SOL    HW1 2075   1.589   0.311   1.946 -0.5090  1.6061 -0.9987
  692SOL    HW2 2076   1.447   0.223   1.961 -2.6911 -0.0640  0.7301
  693SOL     OW 2077   0.639   0.998   3.032 -0.1837  0.3016  0.2118
  693SOL    HW1 2078   0.673   0.987   0.025  0.6892  0.9812 -2.0403
  693SOL    HW2 2079   0.709   1.016   2.962 -0.2443  1.1354 -0.8437
  694SOL     OW 2080   2.288   2.486   0.731 -0.0304 -0.7869  0.7395
  694SOL    HW1 2081   2.251   2.512   0.825  0.8194  1.1762  1.1131
  694SOL    HW2 2082   2.252   2.554   0.662  1.6626  0.9895 -0.8267
  695SOL     OW 2083   1.491   1.417   2.431 -0.2242  1.0640  0.7067
  695SOL    HW1 2084   1.419   1.471   2.479  0.1757  0.1062 -1.3093
  695SOL    HW2 2085   1.478   1.318   2.443 -1.1257  1.0753  2.1557
  696SOL     OW 2086   1.404   0.285   1.293  0.2901  0.1409 -0.3110
  696SOL    HW1 2087   1.349   0.205   1.315  0.6702  1.6200  1.3320
  696SOL    HW2 2088   1.464   0.311   1.369 -0.9871 -1.4548 -0.1869
  697SOL     OW 2089   1.209   3.092   1.889 -0.2086  0.0098 -0.0648
  697SOL    HW1 2090   1.110   3.069   1.884  0.0809 -2.3153  0.5986
  697SOL    HW2 2091   1.224   0.058   1.966  1.4797 -1.4166  2.5081
  698SOL     OW 2092   1.765   1.429   2.357 -0.2130  0.0486 -0.5575
  698SOL    HW1 2093   1.755   1.420   2.254 -1.5660 -1.8171  0.1089
  698SOL    HW2 2094   1.676   1.416   2.404  0.9714 -0.6257 -2.4741
  699SOL     OW 2095   1.464   1.187   1.328  0.0062  0.4693  0.0160
  699SOL    HW1 2096   1.535   1.141   1.272  1.5669 -2.8624  0.9073
  699SOL    HW2 2097   1.393   1.231   1.272  2.1257  1.6714  0.2895
  700SOL     OW 2098   1.633   0.191   0.224 -0.0384 -0.0967 -0.0939
  700SOL    HW1 2099   1.681   0.220   0.310  1.0605 -1.0368  1.3425
  700SOL    HW2 2100   1.612   0.094   0.210 -3.0893  2.8397  1.6107
  701SOL     OW 2101   0.277   2.973   1.591 -0.3442 -0.3784 -0.4347
  701SOL    HW1 2102   0.187   3.004   1.561  2.0519 -0.4771 -2.0107
  701SOL    HW2 2103   0.282   2.870   1.592  1.0167 -1.1379 -0.2862
  702SOL     OW 2104   1.541   2.860   1.094  0.0535 -0.0616  0.4263
  702SOL    HW1 2105   1.555   2.776   1.041 -0.3124 -1.6669  0.1617
  702SOL    HW2 2106   1.480   2.927   1.052 -1.5895  0.0068  1.1698
  703SOL     OW 2107   2.446   0.251   2.154 -0.1106  0.2300 -0.1011
  703SOL    HW1 2108   2.383   0.332   2.150  0.9810 -2.4584 -1.6947
  703SOL    HW2 2109   2.539   0.263   2.201  0.4017  0.3078 -0.0583
  704SOL     OW 2110   1.228   1.782   1.058  0.5405 -0.2574  0.1149
  704SOL    HW1 2111   1.141   1.791   1.008 -2.4329 -0.8717 -2.2854
  704SOL    HW2 2112   1.280   1.873   1.053  0.3242 -0.9795 -0.4449
  705SOL     OW 2113   2.932   1.424   2.120  0.3499  0.3241 -0.2709
  705SOL    HW1 2114   2.883   1.512   2.134 -0.4834  2.9121  1.9903
  705SOL    HW2 2115   2.887   1.340   2.149 -1.5335  0.5258 -3.0782
  706SOL     OW 2116   1.438   0.020   0.567  0.4602 -0.2304  0.6111
  706SOL    HW1 2117   1.447   0.125   0.552  0.0372  2.0513 -1.7212
  706SOL    HW2 2118   1.475   3.089   0.650 -0.8474 -1.4848 -5.3771
  707SOL     OW 2119   1.004   2.576   2.691 -0.3995  0.3649  0.4778
  707SOL    HW1 2120   0.966   2.537   2.605 -2.2776  0.4884 -0.5111
  707SOL    HW2 2121   1.064   2.510   2.740  0.6215 -2.1516 -1.4729
  708SOL     OW 2122   0.312   2.474   1.460 -0.9890  0.6340  0.4093
  708SOL    HW1 2123   0.270   2.412   1.530  0.3964 -0.9850  1.2179
  708SOL    HW2 2124   0.390   2.422   1.416  0.0842 -2.3854 -0.7756
  709SOL     OW 2125   1.918   0.630   1.996 -0.0887 -0.2726 -0.3270
  709SOL    HW1 2126   1.835   0.678   2.032 -0.7934  0.9832  1.3764
  709SOL    HW2 2127   1.895   0.540   1.951 -2.6648 -0.7109  3.3325
  710SOL     OW 2128   3.001   0.434   1.664  0.2056 -0.0780  0.1914
  710SOL    HW1 2129   2.971   0.469   1.573  0.7498 -1.2067 -2.6483
  710SOL    HW2 2130   3.081   0.367   1.657  1.6661 -0.6590 -0.2007
  711SOL     OW 2131   3.053   2.471   0.513 -0.0490  0.2980  0.1003
  711SOL    HW1 2132   0.007   2.533   0.576  0.6429  3.3509  0.4220
  711SOL    HW2 2133   2.964   2.513   0.491 -0.7740  2.6040  0.3769
  712SOL     OW 2134   0.311   2.408   2.580  0.2330  0.3583 -0.3244
  712SOL    HW1 2135   0.412   2.413   2.572 -2.0399 -3.2029  2.7111
  712SOL    HW2 2136   0.283   2.490   2.633 -1.1679  0.0822  0.9479
  713SOL     OW 2137   1.907   0.799   0.172 -1.0026 -0.7225 -0.5973
  713SOL    HW1 2138   1.854   0.890   0.165 -0.2375  1.1733 -1.2430
  713SOL    HW2 2139   1.870   0.729   0.109 -0.0469  0.8080  3.3853
  714SOL     OW 2140   1.472   2.201   0.611 -0.4212  0.1250 -0.2776
  714SOL    HW1 2141   1.515   2.107   0.599  0.4819 -0.8577  3.4588
  714SOL    HW2 2142   1.531   2.265   0.661 -0.6590 -1.4805 -1.0616
  715SOL     OW 2143   3.016   0.220   0.329  0.3930 -0.2801  0.4317
  715SOL    HW1 2144   2.965   0.253   0.409  2.2278  0.7815 -2.2083
  715SOL    HW2 2145   0.005   0.184   0.359 -0.2336  2.6533 -1.3618
  716SOL     OW 2146   0.566   3.065   2.303 -0.6936  0.3598 -0.2440
  716SOL    HW1 2147   0.522   0.034   2.363  1.7853  1.7161 -1.2807
  716SOL    HW2 2148   0.644   3.023   2.358  2.9469 -1.5652 -1.4920
  717SOL     OW 2149   0.029   0.574   3.019 -0.0909  0.1567 -0.0415
  717SOL    HW1 2150   0.086   0.494   3.001 -0.1447 -0.2502  0.9347
  717SOL    HW2 2151   3.056   0.575   2.951 -2.1388 -1.6713 -0.5362
  718SOL     OW 2152   1.175   0.418   0.420 -0.7379 -0.0719 -0.2256
  718SOL    HW1 2153   1.181   0.431   0.520 -0.5073 -3.1649 -0.9130
  718SOL    HW2 2154   1.249   0.361   0.383 -0.1973  0.3684  0.5917
  719SOL     OW 2155   2.705   2.306   2.680  0.5328  0.0241 -0.2900
  719SOL    HW1 2156   2.609   2.311   2.644 -2.6980  0.4185 -1.1849
  719SOL    HW2 2157   2.729   2.206   2.694 -0.6841  0.6683 -1.3580
  720SOL     OW 2158   1.667   0.803   1.730 -0.0639 -0.1330 -0.0419
  720SOL    HW1 2159   1.723   0.872   1.784  3.2614  2.5625  2.8565
  720SOL    HW2 2160   1.573   0.830   1.710 -0.4069  1.5792  0.7598
  721SOL     OW 2161   2.607   0.200   0.926  0.4178  0.5417 -0.5172
  721SOL    HW1 2162   2.539   0.246   0.860 -1.8349  1.1705 -0.3064
  721SOL    HW2 2163   2.702   0.191   0.881  0.0612  0.4353  1.2796
  722SOL     OW 2164   1.364   2.230   2.627 -0.3504 -0.1323 -0.5982
  722SOL    HW1 2165   1.419   2.311   2.603 -1.7290  0.9548  0.4352
  722SOL    HW2 2166   1.423   2.146   2.641  0.7443  0.5901  0.1398
  723SOL     OW 2167   0.679   0.257   0.774 -0.1957 -0.3704  0.2244
  723SOL    HW1 2168   0.746   0.323   0.739 -0.0990  1.4457  1.3221
  723SOL    HW2 2169   0.623   0.289   0.854  1.4005  1.1168  1.7577
  724SOL     OW 2170   0.938   2.159   2.436 -0.3678 -0.2902 -0.1997
  724SOL    HW1 2171   0.892   2.144   2.526  1.7456 -0.4260  0.4095
  724SOL    HW2 2172   0.892   2.102   2.367 -0.3646  4.0043 -1.1968
  725SOL     OW 2173   0.173   0.873   1.047  0.5343  0.0683 -0.3594
  725SOL    HW1 2174   0.248   0.937   1.060 -4.2695 -2.5505 -0.7260
  725SOL    HW2 2175   0.196   0.798   0.983 -0.1683 -1.4171 -0.7388
  726SOL     OW 2176   1.775   0.194   0.736 -0.1297  0.6453  0.5116
  726SOL    HW1 2177   1.770   0.294   0.746 -0.0842 -1.1902 -0.9364
  726SOL    HW2 2178   1.867   0.149   0.732 -2.6328  0.1373 -1.3630
  727SOL     OW 2179   1.850   1.081   2.161  0.6238 -0.4678  0.1124
  727SOL    HW1 2180   1.946   1.107   2.124  0.7917 -0.4422 -1.2940
  727SOL    HW2 2181   1.850   1.040   2.251 -1.0349  0.5074 -2.5361
  728SOL     OW 2182   1.794   2.788   1.572  0.4430 -0.8059 -0.3376
  728SOL    HW1 2183   1.832   2.856   1.648  1.1370  3.5745  2.3163
  728SOL    HW2 2184   1.828   2.694   1.588  0.0993  0.7693  2.3962
  729SOL     OW 2185   1.383   0.337   1.694  0.0272 -0.3379 -0.1741
  729SOL    HW1 2186   1.316   0.270   1.660 -0.6792  1.0804 -1.0368
  729SOL    HW2 2187   1.440   0.305   1.768  0.1883  2.1724  0.8562
  730SOL     OW 2188   0.873   1.822   1.507 -0.1831 -0.0263  0.0352
  730SOL    HW1 2189   0.862   1.917   1.470 -1.0976 -1.9986 -1.7503
  730SOL    HW2 2190   0.942   1.767   1.460 -1.9857  0.3018 -0.8645
  731SOL     OW 2191   0.353   0.263   0.064  0.5180  0.5929 -0.3985
  731SOL    HW1 2192   0.319   0.332   0.132 -0.0395  2.2183  1.2778
  731SOL    HW2 2193   0.297   0.180   0.052 -0.6845 -1.2386 -0.7726
  732SOL     OW 2194   0.443   0.833   0.316  0.2981 -0.2434  0.1954
  732SOL    HW1 2195   0.392   0.794   0.237 -3.3927  1.0118 -0.1246
  732SOL    HW2 2196   0.465   0.931   0.296  0.8118 -0.4258 -1.5421
  733SOL     OW 2197   1.447   1.658   1.701  0.0366  0.2401 -0.3001
  733SOL    HW1 2198   1.497   1.605   1.777  2.1433 -2.0217 -0.1551
  733SOL    HW2 2199   1.405   1.599   1.631  1.3645  0.2197 -1.2785
  734SOL     OW 2200   2.999   2.534   2.167  0.2873 -0.3261 -0.2395
  734SOL    HW1 2201   3.083   2.531   2.107 -1.3789  0.7652  0.6154
  734SOL    HW2 2202   3.020   2.583   2.252 -0.6061  1.7130  0.4095
  735SOL     OW 2203   1.237   2.800   0.831  0.5366  1.1886  0.3781
  735SOL    HW1 2204   1.202   2.723   0.893  1.9606 -1.9985  1.4975
  735SOL    HW2 2205   1.280   2.874   0.883  1.1979 -0.2657  0.1322
  736SOL     OW 2206   1.199   0.807   2.758  0.7741 -0.3386 -0.1131
  736SOL    HW1 2207   1.260   0.747   2.703 -0.0539 -1.1593 -2.1734
  736SOL    HW2 2208   1.198   0.905   2.726 -1.6631  0.6279 -2.6200
  737SOL     OW 2209   0.037   0.975   0.194  0.0282  0.1623  0.6882
  737SOL    HW1 2210   0.069   0.918   0.117 -1.7886  1.1054  0.5327
  737SOL    HW2 2211   3.046   1.014   0.176 -0.1391 -0.8056 -0.7385
  738SOL     OW 2212   0.232   2.721   1.582 -0.0947  0.4781 -0.2822
  738SOL    HW1 2213   0.284   2.645   1.533  0.3269  0.7018 -0.1454
  738SOL    HW2 2214   0.137   2.717   1.551 -2.7356  0.1303  2.6436
  739SOL     OW 2215   1.389   2.928   0.300  0.4428 -0.2029 -0.2196
  739SOL    HW1 2216   1.431   2.883   0.385  1.5711 -1.3840  0.5830
  739SOL    HW2 2217   1.311   2.990   0.334 -0.4333  3.4631  0.7987
  740SOL     OW 2218   1.820   2.944   1.332 -0.0836 -0.5117 -0.0530
  740SOL    HW1 2219   1.740   3.000   1.306  0.3507  1.6576 -1.1723
  740SOL    HW2 2220   1.795   2.896   1.418 -0.8703 -0.3520 -0.1439
  741SOL     OW 2221   2.182   0.400   0.695 -0.0295  0.1546  0.1777
  741SOL    HW1 2222   2.158   0.369   0.790 -1.0071  1.2160 -0.5003
  741SOL    HW2 2223   2.109   0.372   0.632 -0.2937 -0.9905  0.4505
  742SOL     OW 2224   1.136   2.495   1.916 -0.0809 -0.4042 -0.0896
  742SOL    HW1 2225   1.054   2.548   1.956 -3.2871 -0.2902 -0.4860
  742SOL    HW2 2226   1.204   2.481   1.990 -0.6814 -0.6426  0.0194
  743SOL     OW 2227   2.141   0.690   1.840 -0.1114 -0.5149 -0.0572
  743SOL    HW1 2228   2.173   0.601   1.811 -3.2266  3.1485  0.1323
  743SOL    HW2 2229   2.058   0.685   1.898  1.4040  1.2333  1.0359
  744SOL     OW 2230   2.249   0.621   1.055 -0.3057  0.1759 -0.3477
  744SOL    HW1 2231   2.179   0.587   0.987  2.6350  1.2922 -1.2456
  744SOL    HW2 2232   2.210   0.669   1.131  0.7763  1.2692  0.3026
  745SOL     OW 2233   2.098   1.260   1.762  0.1605 -0.1413  0.8603
  745SOL    HW1 2234   2.165   1.319   1.715 -1.6476 -2.0316  0.7426
  745SOL    HW2 2235   2.046   1.191   1.704 -0.9771 -1.2868  0.0582
  746SOL     OW 2236   1.359   1.435   0.634 -0.4601  0.7473  0.1187
  746SOL    HW1 2237   1.384   1.471   0.725 -1.3007 -1.4111 -0.2674
  746SOL    HW2 2238   1.323   1.333   0.641 -1.7927 -2.6890 -0.0040
  747SOL     OW 2239   2.100   1.407   1.176  0.0748 -0.1273 -0.0257
  747SOL    HW1 2240   2.020   1.396   1.239 -0.3725 -0.0848  1.5723
  747SOL    HW2 2241   2.146   1.321   1.153  0.0905 -1.6948 -0.5419
  748SOL     OW 2242   0.018   2.904   0.286 -0.2225  0.0595  0.1199
  748SOL    HW1 2243   0.076   2.909   0.369  0.9099  0.7009  0.3320
  748SOL    HW2 2244   0.061   2.836   0.221  0.0878  1.6205 -2.0711
  749SOL     OW 2245   0.210   0.592   2.126 -0.1921 -0.1572  0.1691
  749SOL    HW1 2246   0.159   0.599   2.214 -1.0824  2.5818  1.7841
  749SOL    HW2 2247   0.158   0.542   2.054 -1.2664  2.1242 -0.9273
  750SOL     OW 2248   1.852   2.833   1.970 -0.0851  0.0536  0.2628
  750SOL    HW1 2249   1.808   2.887   2.046  4.1259 -0.7877  0.6668
  750SOL    HW2 2250   1.862   2.885   1.881  0.4788  1.3738  2.3971
  751SOL     OW 2251   2.724   0.554   0.486 -0.3340  0.0053 -0.0459
  751SOL    HW1 2252   2.641   0.533   0.433 -1.0952 -1.1790  1.2413
  751SOL    HW2 2253   2.768   0.467   0.515 -3.0163  0.5224  0.4507
  752SOL     OW 2254   0.265   2.495   1.012 -0.4665  0.1995  0.2585
  752SOL    HW1 2255   0.312   2.519   0.926 -0.4736  3.2553 -0.6009
  752SOL    HW2 2256   0.172   2.455   1.001 -5.9997 -2.4633  0.0998
  753SOL     OW 2257   0.855   0.325   1.456 -0.6263  0.0091  0.5435
  753SOL    HW1 2258   0.772   0.295   1.407 -1.2706 -0.7400  0.4966
  753SOL    HW2 2259   0.888   0.241   1.498  0.1515  1.3348  1.9155
  754SOL     OW 2260   0.936   2.944   2.219  0.0284  0.2116  0.3782
  754SOL    HW1 2261   0.907   2.982   2.130 -1.7526 -0.8630 -0.9595
  754SOL    HW2 2262   1.027   2.895   2.215 -0.5237  0.8197 -0.5335
  755SOL     OW 2263   2.115   1.091   0.309  0.6513  0.4010  0.4527
  755SOL    HW1 2264   2.160   1.000   0.315  3.0793 -0.2591  0.2690
  755SOL    HW2 2265   2.160   1.146   0.238  1.6596 -0.7980 -1.2880
  756SOL     OW 2266   2.326   1.977   2.522 -0.5614  0.1152 -0.8069
  756SOL    HW1 2267   2.387   2.026   2.591 -1.1528  1.5037  2.2000
  756SOL    HW2 2268   2.347   1.997   2.424 -0.1667  1.2444  0.8465
  757SOL     OW 2269   1.528   0.273   1.050 -0.1505  0.0147  0.6909
  757SOL    HW1 2270   1.505   0.257   1.145  0.8038 -0.0346 -1.9888
  757SOL    HW2 2271   1.543   0.186   0.998 -0.5419 -0.6618 -0.9899
  758SOL     OW 2272   1.633   2.634   0.945 -0.3192 -0.5027 -0.1059
  758SOL    HW1 2273   1.725   2.651   0.990  0.2402  1.3825  0.2473
  758SOL    HW2 2274   1.606   2.537   0.970  2.4587  0.1739  1.5309
  759SOL     OW 2275   2.467   0.656   1.282 -0.1586  0.3080  0.2695
  759SOL    HW1 2276   2.389   0.708   1.242  0.7712  1.6756  0.1287
  759SOL    HW2 2277   2.535   0.720   1.321  0.1092  0.0850  0.4444
  760SOL     OW 2278   2.506   0.982   1.036  0.2733 -0.1181 -0.1469
  760SOL    HW1 2279   2.569   1.008   1.110 -3.2218  0.5709 -1.5484
  760SOL    HW2 2280   2.527   0.885   1.005  2.3963  0.9660 -0.3527
  761SOL     OW 2281   0.346   0.364   0.445  0.0191 -0.2152 -0.4135
  761SOL    HW1 2282   0.448   0.353   0.458  1.1750 -1.3344  0.8049
  761SOL    HW2 2283   0.314   0.441   0.494  0.9168 -2.8520 -3.3362
  762SOL     OW 2284   1.734   1.808   1.368 -0.0034  0.3881 -0.4588
  762SOL    HW1 2285   1.830   1.847   1.351  0.2952 -0.0046 -2.3503
  762SOL    HW2 2286   1.710   1.809   1.469  1.3410  3.3744 -3.3301
  763SOL     OW 2287   1.207   1.452   1.933  0.4117 -0.0804  0.2998
  763SOL    HW1 2288   1.127   1.394   1.916 -1.0038 -0.9723 -0.1373
  763SOL    HW2 2289   1.187   1.552   1.928  1.7686  0.0399 -0.1212
  764SOL     OW 2290   0.071   1.645   2.363  0.3076 -0.2108  0.7637
  764SOL    HW1 2291   0.033   1.661   2.266 -0.7039 -0.0666  0.5587
  764SOL    HW2 2292   0.077   1.729   2.417  2.5793 -3.3370 -4.4026
  765SOL     OW 2293   1.553   2.524   1.448  0.0184  0.1304 -0.0257
  765SOL    HW1 2294   1.500   2.440   1.429 -0.2595 -0.7816 -1.5286
  765SOL    HW2 2295   1.507   2.596   1.397  0.8134 -2.1346  3.3173
  766SOL     OW 2296   3.054   2.605   2.752  0.1849 -1.0246  0.0570
  766SOL    HW1 2297   3.024   2.688   2.699 -0.4765 -1.1578  1.2013
  766SOL    HW2 2298   3.021   2.522   2.705 -0.9844 -1.1538  1.2887
  767SOL     OW 2299   1.275   0.865   2.380 -0.0756  0.1111  0.0597
  767SOL    HW1 2300   1.267   0.960   2.411  1.6775 -2.7157  3.4259
  767SOL    HW2 2301   1.245   0.797   2.449 -0.8776 -3.9543 -0.4449
  768SOL     OW 2302   1.433   2.117   0.165 -0.7325 -0.0733 -0.3000
  768SOL    HW1 2303   1.522   2.124   0.114 -0.6582  0.8523  0.5941
  768SOL    HW2 2304   1.367   2.061   0.112  0.0811 -1.7305 -2.9806
  769SOL     OW 2305   0.436   2.681   1.153 -0.7985  0.4348 -0.3813
  769SOL    HW1 2306   0.365   2.608   1.139 -0.1680 -0.7755 -0.6339
  769SOL    HW2 2307   0.385   2.769   1.152  0.6467  0.5277 -1.6214
  770SOL     OW 2308   1.428   1.007   2.930 -0.6512 -0.1769 -0.5584
  770SOL    HW1 2309   1.470   1.080   2.987 -0.6441 -0.0128  1.6921
  770SOL    HW2 2310   1.378   1.041   2.843 -1.9468 -0.7168 -0.8451
  771SOL     OW 2311   0.326   3.032   2.179 -0.1834 -0.7922  0.3919
  771SOL    HW1 2312   0.401   3.027   2.246 -0.3370  1.8279  1.9378
  771SOL    HW2 2313   0.353   3.028   2.080 -0.5868  0.0002 -2.2790
  772SOL     OW 2314   2.083   3.015   2.297  0.3282 -0.2551 -0.1214
  772SOL    HW1 2315   2.176   3.053   2.281 -2.3392  0.5154  1.0997
  772SOL    HW2 2316   2.023   3.090   2.329  0.6236  0.4571  2.2256
  773SOL     OW 2317   0.810   2.179   1.685  0.2521 -0.1318  0.1649
  773SOL    HW1 2318   0.881   2.131   1.743 -1.7226  0.8965 -0.6189
  773SOL    HW2 2319   0.760   2.240   1.744 -2.8254 -1.5403 -0.3575
  774SOL     OW 2320   1.298   0.200   2.065  0.0377  0.5028  0.4342
  774SOL    HW1 2321   1.317   0.164   2.156 -0.6729  2.0510 -1.0842
  774SOL    HW2 2322   1.256   0.294   2.079  0.9782  1.3608  0.3803
  775SOL     OW 2323   2.082   2.842   3.100 -0.1457 -0.0596  0.3937
  775SOL    HW1 2324   2.043   2.792   3.026 -2.0315  2.7099  2.5434
  775SOL    HW2 2325   2.023   2.919   0.025  0.6224 -1.4268 -0.8433
  776SOL     OW 2326   2.619   0.695   2.295 -0.2622 -0.1715 -0.5062
  776SOL    HW1 2327   2.691   0.650   2.351  0.1173 -1.6923  0.6981
  776SOL    HW2 2328   2.623   0.796   2.301 -1.8872 -0.9141  1.5207
  777SOL     OW 2329   2.595   1.862   2.327 -0.0535  0.1333  0.8072
  777SOL    HW1 2330   2.676   1.874   2.391 -0.8914 -0.9721 -0.2342
  777SOL    HW2 2331   2.537   1.945   2.323 -0.3422  0.5161  1.5288
  778SOL     OW 2332   1.926   1.012   2.406  0.0826 -0.2496  0.6388
  778SOL    HW1 2333   1.952   0.917   2.426  0.0440  2.4537  1.2932
  778SOL    HW2 2334   2.013   1.067   2.407  0.2956 -0.8547 -1.6035
  779SOL     OW 2335   3.044   0.301   0.062  0.0657  0.3893  0.5360
  779SOL    HW1 2336   3.039   0.398   0.088  1.5590 -1.1365  0.9204
  779SOL    HW2 2337   3.040   0.238   0.142  3.1636 -3.7243 -1.0014
  780SOL     OW 2338   2.801   0.689   3.048  0.0393  0.3366 -0.2032
  780SOL    HW1 2339   2.807   0.603   2.996  2.8774 -2.9175  0.4220
  780SOL    HW2 2340   2.733   0.680   0.022 -0.9741 -0.5627 -0.8866
  781SOL     OW 2341   0.008   3.008   1.506  0.2416 -0.2220  0.1509
  781SOL    HW1 2342   3.089   3.064   1.423  2.3898 -1.5108  0.3107
  781SOL    HW2 2343   3.088   2.913   1.492  0.5555  2.2264  0.9248
  782SOL     OW 2344   1.902   2.643   0.561  0.0977  0.3341  0.3604
  782SOL    HW1 2345   1.902   2.672   0.465  1.2624 -1.9691  2.6470
  782SOL    HW2 2346   1.831   2.685   0.620  2.0116 -2.3028  2.6953
  783SOL     OW 2347   0.738   1.424   1.141 -0.6025  0.2957  0.0298
  783SOL    HW1 2348   0.677   1.504   1.126  2.6749 -2.6915  0.1836
  783SOL    HW2 2349   0.811   1.430   1.070 -2.2552 -0.7561  1.4164
  784SOL     OW 2350   1.383   0.677   2.605  0.4929 -0.2305 -0.3384
  784SOL    HW1 2351   1.347   0.602   2.542 -0.0707  1.0209  0.0817
  784SOL    HW2 2352   1.471   0.719   2.571 -1.2541  0.3859 -1.8025
  785SOL     OW 2353   2.418   0.388   1.314  0.1899  0.0700  0.0570
  785SOL    HW1 2354   2.425   0.488   1.307 -1.3026 -0.5497 -1.4834
  785SOL    HW2 2355   2.340   0.354   1.256 -0.2350  0.0919  0.4347
  786SOL     OW 2356   1.284   2.614   1.622  0.5700 -0.3776  0.2900
  786SOL    HW1 2357   1.259   2.555   1.543 -1.1715 -0.3250 -2.3196
  786SOL    HW2 2358   1.224   2.596   1.702 -0.2216 -2.3312  0.7393
  787SOL     OW 2359   1.743   0.196   1.294  0.1040 -0.3627  0.0469
  787SOL    HW1 2360   1.698   0.102   1.292 -2.1878 -2.2515  1.5087
  787SOL    HW2 2361   1.695   0.261   1.358 -0.0676  1.5198 -0.7599
  788SOL     OW 2362   2.900   1.267   0.362 -0.4074  0.0249  0.2986
  788SOL    HW1 2363   2.814   1.307   0.401  0.9819  0.9553 -0.0389
  788SOL    HW2 2364   2.938   1.208   0.436  0.8313 -3.3103  3.4918
  789SOL     OW 2365   0.503   2.110   1.566 -0.1630 -0.0642 -0.2707
  789SOL    HW1 2366   0.470   2.029   1.515  0.6902 -2.4948  2.7559
  789SOL    HW2 2367   0.553   2.084   1.652  0.5436  0.9715 -0.8983
  790SOL     OW 2368   0.688   0.512   2.165 -0.5741 -0.7254 -0.2994
  790SOL    HW1 2369   0.670   0.499   2.265 -1.3547 -1.2106 -1.2390
  790SOL    HW2 2370   0.614   0.578   2.128 -0.3958 -0.6555 -0.6658
  791SOL     OW 2371   2.091   0.311   0.936  0.5442 -0.0031  0.1019
  791SOL    HW1 2372   1.997   0.281   0.969 -3.5922  1.0971 -1.0733
  791SOL    HW2 2373   2.147   0.318   1.020 -1.2611  0.2493  2.6055
  792SOL     OW 2374   1.193   2.904   1.684 -0.0855  0.0006 -0.1162
  792SOL    HW1 2375   1.225   2.963   1.761  0.6706  1.6563 -0.6660
  792SOL    HW2 2376   1.245   2.817   1.681  2.0059 -0.2660 -1.3232
  793SOL     OW 2377   0.258   0.028   0.637  0.5814  0.6846 -0.0576
  793SOL    HW1 2378   0.343   0.079   0.629 -3.3137 -2.5165 -1.9066
  793SOL    HW2 2379   0.192   0.058   0.707 -0.3985 -2.5692 -2.6669
  794SOL     OW 2380   0.201   1.009   1.670  0.1015  0.1157 -0.4387
  794SOL    HW1 2381   0.114   0.996   1.722 -0.3870  0.1548 -1.0054
  794SOL    HW2 2382   0.187   0.989   1.568  1.2840 -0.3178 -2.2014
  795SOL     OW 2383   0.390   2.163   2.243 -0.2308  0.9736 -0.3034
  795SOL    HW1 2384   0.311   2.225   2.263 -1.8497 -2.9828  0.6716
  795SOL    HW2 2385   0.478   2.211   2.232  0.8414  2.3785  1.1724
  796SOL     OW 2386   2.374   0.577   2.160 -0.2022 -0.2167 -0.0310
  796SOL    HW1 2387   2.459   0.583   2.215  0.2331 -2.8584 -1.2980
  796SOL    HW2 2388   2.392   0.543   2.069 -0.1080 -0.9035  2.9914
  797SOL     OW 2389   2.457   2.362   2.544 -0.3487 -0.1455 -0.0607
  797SOL    HW1 2390   2.360   2.330   2.546  0.6852 -1.5015  0.5112
  797SOL    HW2 2391   2.464   2.453   2.590 -0.2759  0.7643  0.4623
  798SOL     OW 2392   2.975   2.927   2.118  0.0804  0.2894 -0.0037
  798SOL    HW1 2393   3.042   3.001   2.116 -1.2024 -0.8891 -2.0377
  798SOL    HW2 2394   2.982   2.875   2.031  2.4747 -1.0335  1.6383
  799SOL     OW 2395   0.265   2.550   2.203 -0.2529  0.2083  0.0104
  799SOL    HW1 2396   0.239   2.480   2.276  0.1858 -1.0915 -0.7670
  799SOL    HW2 2397   0.229   2.518   2.114  2.8343 -1.5243  1.7235
  800SOL     OW 2398   0.076   1.982   0.089 -0.0851  0.0728  0.4636
  800SOL    HW1 2399   0.075   2.083   0.114 -1.0119  1.7887  0.6754
  800SOL    HW2 2400   0.063   1.928   0.171  0.9559 -2.1447 -4.8660
  801SOL     OW 2401   1.654   1.353   1.438  0.0301  0.1717 -0.0063
  801SOL    HW1 2402   1.594   1.280   1.408  2.8810 -0.6030  1.1973
  801SOL    HW2 2403   1.660   1.362   1.536  1.8978 -2.2019 -5.6859
  802SOL     OW 2404   0.100   1.163   0.373  0.0321  0.4915 -0.2538
  802SOL    HW1 2405   0.032   1.166   0.446 -0.2434 -0.5329 -1.5314
  802SOL    HW2 2406   0.074   1.094   0.295 -1.0225 -0.5734 -0.1049
  803SOL     OW 2407   1.160   1.703   1.913  0.1675  0.4930  0.8561
  803SOL    HW1 2408   1.067   1.729   1.877 -0.9922  1.1599 -1.7663
  803SOL    HW2 2409   1.228   1.745   1.854  0.7963 -1.4551 -0.8130
  804SOL     OW 2410   1.995   1.605   0.979  0.1567  0.3199  0.2813
  804SOL    HW1 2411   2.027   1.553   1.059  0.5913  0.7057 -1.1549
  804SOL    HW2 2412   2.050   1.583   0.896  1.6161 -1.4799 -0.0294
  805SOL     OW 2413   2.973   1.367   2.697  1.1905  0.3109 -0.5099
  805SOL    HW1 2414   2.967   1.462   2.648 -0.2527  0.9492  0.0857
  805SOL    HW2 2415   2.879   1.320   2.703 -0.5621 -0.2120  1.3306
  806SOL     OW 2416   0.270   2.536   0.020 -0.1391  0.1265  0.2641
  806SOL    HW1 2417   0.306   2.503   3.029  2.7663  0.4473 -2.9292
  806SOL    HW2 2418   0.350   2.550   0.079 -1.1810  0.6483  0.0690
  807SOL     OW 2419   2.420   1.558   2.954  0.0396  0.7912  0.2538
  807SOL    HW1 2420   2.440   1.480   3.021 -2.7024 -1.9750 -0.8582
  807SOL    HW2 2421   2.369   1.630   3.007  0.0313 -0.0236  0.8163
  808SOL     OW 2422   1.274   2.246   1.262  0.1903 -0.1684  0.6403
  808SOL    HW1 2423   1.218   2.160   1.280 -0.7932 -1.5931 -0.2042
  808SOL    HW2 2424   1.369   2.235   1.305  1.2820 -0.2820  1.3475
  809SOL     OW 2425   2.894   0.754   0.501  0.0926 -0.0216 -0.7445
  809SOL    HW1 2426   2.865   0.812   0.580 -0.3751 -0.6495  3.9903
  809SOL    HW2 2427   2.828   0.672   0.489 -1.4779  0.9147 -3.1849
  810SOL     OW 2428   0.925   1.455   0.517  0.8314  0.8867 -0.7446
  810SOL    HW1 2429   0.942   1.379   0.585 -1.5526  0.3131 -0.8171
  810SOL    HW2 2430   0.994   1.530   0.523  0.7788 -2.3828 -0.2142
  811SOL     OW 2431   1.744   2.491   1.232  0.0103 -0.3871 -0.3142
  811SOL    HW1 2432   1.781   2.568   1.176 -0.4402  1.0450  1.6445
  811SOL    HW2 2433   1.686   2.519   1.311  0.3185 -0.7660  2.8624
  812SOL     OW 2434   1.506   2.814   1.585  0.3525  0.1616  0.8441
  812SOL    HW1 2435   1.602   2.792   1.572 -3.1818  2.3084 -0.5458
  812SOL    HW2 2436   1.451   2.734   1.617  0.0805 -1.1292 -1.2664
  813SOL     OW 2437   0.808   3.005   1.636  0.3739  0.4129  0.0084
  813SOL    HW1 2438   0.727   2.963   1.586 -0.4157 -1.4573  0.6437
  813SOL    HW2 2439   0.858   2.937   1.694 -1.8020  1.8594 -1.6315
  814SOL     OW 2440   1.132   2.761   2.223  0.3789  0.2006  0.1840
  814SOL    HW1 2441   1.203   2.832   2.249  0.8368  1.8381  0.0550
  814SOL    HW2 2442   1.134   2.674   2.282  2.4504 -2.0364  1.8596
  815SOL     OW 2443   0.442   0.037   2.868 -0.3536  0.3300  0.0026
  815SOL    HW1 2444   0.498   3.069   2.817 -1.2642 -0.2054  1.3638
  815SOL    HW2 2445   0.449   0.134   2.826 -1.1751  3.5629 -1.2521
  816SOL     OW 2446   2.185   0.632   2.758 -0.1337  0.0940  0.3480
  816SOL    HW1 2447   2.232   0.558   2.808 -0.3936 -2.5458  0.2204
  816SOL    HW2 2448   2.215   0.726   2.786  0.8124 -0.7838 -0.8233
  817SOL     OW 2449   2.500   2.684   2.140 -0.2545 -0.2506 -0.4267
  817SOL    HW1 2450   2.586   2.644   2.182  0.6956 -1.7185 -0.1440
  817SOL    HW2 2451   2.502   2.785   2.134 -4.1279 -3.7959  1.8561
  818SOL     OW 2452   1.098   0.664   0.342 -0.1132 -0.5342 -0.1918
  818SOL    HW1 2453   1.147   0.583   0.381 -1.2712  2.8345  0.0935
  818SOL    HW2 2454   1.009   0.631   0.299 -0.5223  2.3795 -1.5595
  819SOL     OW 2455   1.809   1.312   2.606 -0.0772 -0.3887 -0.3649
  819SOL    HW1 2456   1.807   1.358   2.515 -0.3975  1.6273  1.5450
  819SOL    HW2 2457   1.758   1.223   2.599  1.0558  1.1276 -1.3100
  820SOL     OW 2458   2.977   1.616   2.590  0.7156  0.5171 -0.1059
  820SOL    HW1 2459   3.025   1.678   2.653 -1.2350 -0.3307 -3.3352
  820SOL    HW2 2460   3.030   1.613   2.503  2.6313  2.3499  1.4854
  821SOL     OW 2461   0.145   2.641   0.628 -0.3825  0.8829  0.2892
  821SOL    HW1 2462   0.226   2.633   0.686 -0.1460  1.2224 -0.8356
  821SOL    HW2 2463   0.160   2.655   0.524 -0.6073  1.7617 -1.5763
  822SOL     OW 2464   2.258   2.457   2.940 -0.7561 -0.1154 -0.4285
  822SOL    HW1 2465   2.263   2.367   2.894 -2.1398 -3.6542 -1.4151
  822SOL    HW2 2466   2.325   2.470   3.012  0.7392  2.0065 -1.3785
  823SOL     OW 2467   1.548   0.090   2.471  0.0551  0.2984 -0.3964
  823SOL    HW1 2468   1.540   0.182   2.425 -1.0715 -0.8167 -1.0452
  823SOL    HW2 2469   1.582   0.016   2.412  0.9542 -2.7013  1.7169
  824SOL     OW 2470   2.835   2.284   2.214 -0.1000  0.0337 -0.3393
  824SOL    HW1 2471   2.888   2.370   2.203 -3.3978 -3.6205  0.1721
  824SOL    HW2 2472   2.739   2.300   2.244  0.5686  1.4184 -0.7705
  825SOL     OW 2473   3.022   2.225   2.421 -0.3514  0.5730 -0.0035
  825SOL    HW1 2474   2.985   2.130   2.426  1.7524 -1.5350 -1.0977
  825SOL    HW2 2475   2.973   2.277   2.349 -2.9426  2.1264 -0.7302
  826SOL     OW 2476   1.914   0.615   2.768 -0.4073 -0.1833  0.7334
  826SOL    HW1 2477   1.883   0.714   2.770  0.6715 -1.5165 -0.1984
  826SOL    HW2 2478   2.016   0.602   2.750  3.1215 -0.2250  0.9947
  827SOL     OW 2479   2.979   1.817   1.747 -0.3850  0.3310 -0.7187
  827SOL    HW1 2480   2.913   1.821   1.824  2.3338 -1.6447 -3.7653
  827SOL    HW2 2481   2.922   1.794   1.660 -1.9355  0.2558 -1.0887
  828SOL     OW 2482   3.061   0.075   1.282 -0.1542 -0.5235  0.0311
  828SOL    HW1 2483   0.019   0.023   1.217  0.8284  1.8585 -1.7287
  828SOL    HW2 2484   2.963   0.062   1.257  2.8282  0.3571 -1.9324
  829SOL     OW 2485   1.062   1.977   2.767 -0.1002  0.4418  0.0866
  829SOL    HW1 2486   1.019   2.065   2.787  0.8959  0.2383 -1.7855
  829SOL    HW2 2487   0.993   1.902   2.749  0.1150 -1.2902  2.0720
  830SOL     OW 2488   0.794   1.072   1.300 -0.3257 -0.6430  0.1351
  830SOL    HW1 2489   0.806   1.170   1.312 -0.0978  0.8044 -0.6449
  830SOL    HW2 2490   0.713   1.038   1.357 -1.3544 -1.6276  0.9556
  831SOL     OW 2491   2.725   1.796   2.810  0.4606  0.3875 -0.2405
  831SOL    HW1 2492   2.735   1.695   2.828 -2.4300 -2.4330  2.9966
  831SOL    HW2 2493   2.679   1.834   2.888  3.5696 -1.2388 -2.7331
  832SOL     OW 2494   1.868   2.483   2.728 -0.0713 -0.0026 -0.2358
  832SOL    HW1 2495   1.893   2.383   2.723 -1.8839  0.1275  0.1712
  832SOL    HW2 2496   1.774   2.493   2.769  0.1066 -0.1659  0.3206
  833SOL     OW 2497   0.816   0.286   2.034  0.2215 -0.1403  0.3447
  833SOL    HW1 2498   0.846   0.297   1.939  0.4056 -1.4291  0.2345
  833SOL    HW2 2499   0.779   0.374   2.077 -1.5897 -1.8549  0.6332
  834SOL     OW 2500   0.003   0.318   1.368 -0.6385  0.0688 -0.3206
  834SOL    HW1 2501   3.094   0.220   1.344 -1.2823  3.6629  0.6957
  834SOL    HW2 2502   3.017   0.374   1.368 -0.6991  2.4384  1.6902
  835SOL     OW 2503   2.812   0.462   0.213 -0.0681 -0.1558 -0.1293
  835SOL    HW1 2504   2.760   0.553   0.217 -2.5926  1.8110 -2.0976
  835SOL    HW2 2505   2.909   0.486   0.216 -0.6424  1.2214  0.9813
  836SOL     OW 2506   1.626   1.856   0.204  0.0278  0.3744  0.1736
  836SOL    HW1 2507   1.558   1.828   0.277 -1.1353  0.5038  1.8298
  836SOL    HW2 2508   1.620   1.957   0.181 -0.3162  0.4638  0.5344
  837SOL     OW 2509   1.938   1.880   0.688 -0.3815 -0.2555 -0.2294
  837SOL    HW1 2510   2.037   1.852   0.689 -0.1401  0.8353 -0.9823
  837SOL    HW2 2511   1.916   1.961   0.634  0.5899 -1.5600  2.4578
  838SOL     OW 2512   1.523   0.784   2.295 -0.3406 -0.5030 -0.3397
  838SOL    HW1 2513   1.583   0.764   2.376 -2.5497  0.2387  1.6770
  838SOL    HW2 2514   1.432   0.833   2.315 -2.4520  3.6479 -0.0486
  839SOL     OW 2515   0.658   1.403   2.304 -0.6563  0.0379  0.8699
  839SOL    HW1 2516   0.606   1.452   2.373 -0.7684 -2.7505  0.1768
  839SOL    HW2 2517   0.741   1.355   2.345  0.9441  0.6624  2.2958
  840SOL     OW 2518   1.174   1.588   0.529 -0.5854 -0.2255 -0.0567
  840SOL    HW1 2519   1.169   1.686   0.567  3.1394  2.9650  1.9277
  840SOL    HW2 2520   1.246   1.530   0.572 -0.3609 -2.9934 -0.4044
  841SOL     OW 2521   1.632   2.353   0.741 -0.1807  0.5615 -0.1415
  841SOL    HW1 2522   1.732   2.355   0.714  0.3425  0.3889 -1.5966
  841SOL    HW2 2523   1.626   2.356   0.842 -2.3152  0.6683 -0.0738
  842SOL     OW 2524   0.363   0.676   0.072 -0.4646 -0.2568 -0.2050
  842SOL    HW1 2525   0.316   0.589   0.096 -1.9270 -0.0161 -3.1834
  842SOL    HW2 2526   0.457   0.655   0.037  0.3298  1.8769 -2.5103
  843SOL     OW 2527   0.503   0.147   0.609  0.1024 -0.0929 -0.4564
  843SOL    HW1 2528   0.541   0.138   0.515  0.9948  0.0495 -0.8372
  843SOL    HW2 2529   0.564   0.190   0.681 -0.0275  2.7521  2.3819
  844SOL     OW 2530   2.357   0.147   2.541 -0.3392  0.2245 -0.0287
  844SOL    HW1 2531   2.381   0.106   2.634 -1.0270 -0.2578 -0.5475
  844SOL    HW2 2532   2.403   0.093   2.470 -1.3994  1.1524 -0.8086
  845SOL     OW 2533   2.982   2.328   1.805  0.1269 -0.1861 -0.2075
  845SOL    HW1 2534   2.895   2.303   1.858 -0.4245  0.7346 -0.3610
  845SOL    HW2 2535   3.027   2.242   1.757 -0.5307 -3.7233 -2.9533
  846SOL     OW 2536   2.110   1.381   2.363 -0.1602 -0.4960  0.2408
  846SOL    HW1 2537   2.173   1.439   2.307 -0.6205 -1.0188 -1.7089
  846SOL    HW2 2538   2.012   1.387   2.331 -0.1403  0.2119  0.3038
  847SOL     OW 2539   0.851   0.706   1.902 -0.0192 -1.0253 -0.4640
  847SOL    HW1 2540   0.800   0.660   1.830  1.4878 -0.4822  1.9706
  847SOL    HW2 2541   0.937   0.743   1.864  0.7714  0.2951  0.2040
  848SOL     OW 2542   2.409   0.061   2.793  1.0511  0.2338 -0.9292
  848SOL    HW1 2543   2.471   3.084   2.791 -0.7512  1.4205  0.0016
  848SOL    HW2 2544   2.433   0.123   2.875 -0.5222 -0.2785 -1.2713
  849SOL     OW 2545   0.188   2.889   3.057  0.0950  0.4986  0.4490
  849SOL    HW1 2546   0.141   2.904   2.966 -1.5475  1.4927  0.7967
  849SOL    HW2 2547   0.288   2.896   3.064  0.8416 -1.8688 -0.5901
  850SOL     OW 2548   1.137   2.566   0.994  0.2339  0.1989 -0.1698
  850SOL    HW1 2549   1.217   2.540   1.052 -0.2221  0.4689  1.5608
  850SOL    HW2 2550   1.088   2.482   0.957  1.2324 -0.4820 -2.1728
  851SOL     OW 2551   1.979   0.487   2.420  0.6377  0.3733 -0.0329
  851SOL    HW1 2552   2.029   0.496   2.333 -0.1531  0.5405  1.3398
  851SOL    HW2 2553   2.042   0.445   2.485 -0.1143  3.5582 -0.0677
  852SOL     OW 2554   1.227   0.205   2.624  0.3987  0.3904  0.0277
  852SOL    HW1 2555   1.285   0.191   2.701  1.1054  1.0586 -1.3186
  852SOL    HW2 2556   1.131   0.199   2.654  1.2086 -1.6840 -1.3235
  853SOL     OW 2557   2.967   2.810   2.976 -0.1852  0.7657  0.0853
  853SOL    HW1 2558   2.972   2.808   3.076  0.5042 -0.1861 -4.3120
  853SOL    HW2 2559   2.976   2.717   2.938 -0.1548 -0.6532  1.0620
  854SOL     OW 2560   2.034   0.764   2.415 -0.3200  0.1467  0.2751
  854SOL    HW1 2561   2.124   0.778   2.366  3.1767  1.4238  0.9930
  854SOL    HW2 2562   2.016   0.664   2.415  0.1395 -1.2598  0.4821
  855SOL     OW 2563   0.478   2.546   0.182 -0.5064  0.6201  0.0341
  855SOL    HW1 2564   0.490   2.630   0.245 -0.1366 -1.8386  2.0755
  855SOL    HW2 2565   0.569   2.518   0.138  0.6890 -2.6966 -0.8407
  856SOL     OW 2566   0.358   3.083   2.531  0.0377 -0.3135 -0.1097
  856SOL    HW1 2567   0.320   2.998   2.571 -0.7051  1.6560 -0.2847
  856SOL    HW2 2568   0.286   0.053   2.518  1.1353  2.2291 -0.1922
  857SOL     OW 2569   1.043   0.053   1.172  0.3475 -0.0106 -0.0729
  857SOL    HW1 2570   0.972   0.048   1.242  1.1593  2.9013 -3.3128
  857SOL    HW2 2571   0.999   0.025   1.085 -0.4514  1.1954  0.1609
  858SOL     OW 2572   2.535   1.942   1.770 -0.0440 -0.2188  0.1301
  858SOL    HW1 2573   2.597   2.012   1.723  0.5796 -0.0625  1.6051
  858SOL    HW2 2574   2.493   1.989   1.852 -0.3155  0.2834  3.1659
  859SOL     OW 2575   1.953   2.410   2.018 -0.5628 -0.1871 -0.5380
  859SOL    HW1 2576   1.883   2.469   1.979 -0.2976  1.1847  1.0434
  859SOL    HW2 2577   1.956   2.405   2.122  1.6300 -0.5935  1.7682
  860SOL     OW 2578   2.010   0.153   0.311 -0.3201  0.4280  0.5021
  860SOL    HW1 2579   1.993   0.183   0.218 -1.3436 -0.7626  2.3864
  860SOL    HW2 2580   1.941   0.187   0.375  1.9188  1.7537 -1.3724
  861SOL     OW 2581   2.886   0.326   0.563  0.6280  0.3242  0.2867
  861SOL    HW1 2582   2.959   0.390   0.596  2.3773  1.2183  0.5909
  861SOL    HW2 2583   2.872   0.254   0.633 -1.6151 -1.2602 -0.6595
  862SOL     OW 2584   0.924   2.826   2.661  0.6547 -0.0325  0.6716
  862SOL    HW1 2585   1.000   2.887   2.678  1.3980 -0.3650 -2.3974
  862SOL    HW2 2586   0.945   2.726   2.687 -1.1407 -2.1328  0.5267
  863SOL     OW 2587   0.562   0.546   1.291 -0.2148  0.2536 -0.5790
  863SOL    HW1 2588   0.507   0.518   1.372  4.2966  0.6886  2.1982
  863SOL    HW2 2589   0.508   0.569   1.209  2.2340  0.9667  0.4727
  864SOL     OW 2590   2.878   2.997   1.762  0.6030 -0.2363  0.1029
  864SOL    HW1 2591   2.904   3.089   1.720  0.7757  3.8611 -2.6284
  864SOL    HW2 2592   2.951   2.951   1.814 -0.7605 -0.9954 -1.6858
  865SOL     OW 2593   0.556   1.367   2.893 -0.7546  0.0469 -0.4868
  865SOL    HW1 2594   0.534   1.280   2.931  3.5293  2.6883 -0.7446
  865SOL    HW2 2595   0.590   1.426   2.972 -1.3301  0.0232  1.2892
  866SOL     OW 2596   2.926   0.224   2.926 -0.1313  0.6567 -0.1542
  866SOL    HW1 2597   2.998   0.230   2.996  1.2835 -0.0599  0.6255
  866SOL    HW2 2598   2.898   0.128   2.922 -1.7855 -0.9611 -2.3527
  867SOL     OW 2599   2.588   2.932   2.798  0.1648  0.0903 -0.0903
  867SOL    HW1 2600   2.680   2.960   2.823  1.0627  0.3669 -2.1840
  867SOL    HW2 2601   2.582   2.899   2.701  0.9654  0.5630 -1.7112
  868SOL     OW 2602   1.337   0.775   0.297  0.0595 -0.4460 -0.5851
  868SOL    HW1 2603   1.245   0.731   0.314  1.8213  0.1639  2.4716
  868SOL    HW2 2604   1.362   0.769   0.201 -1.8272 -0.8249  1.0422
  869SOL     OW 2605   2.740   1.440   0.661  0.2936 -0.0413 -0.1488
  869SOL    HW1 2606   2.777   1.532   0.687 -0.3488  1.1636 -0.4877
  869SOL    HW2 2607   2.721   1.383   0.745 -0.1702 -0.7014 -0.1892
  870SOL     OW 2608   2.449   1.716   0.429 -0.4211 -0.0142  0.1629
  870SOL    HW1 2609   2.468   1.673   0.337  0.6089 -0.7084  1.5120
  870SOL    HW2 2610   2.373   1.666   0.470 -0.5380 -2.6849 -0.2859
  871SOL     OW 2611   1.200   1.215   0.625 -0.4564 -0.1681  0.2157
  871SOL    HW1 2612   1.201   1.151   0.549  1.5327 -0.3123 -0.1998
  871SOL    HW2 2613   1.105   1.227   0.670  0.4546  0.6441 -1.8865
  872SOL     OW 2614   1.261   1.876   1.656 -0.6485  0.0474 -0.2640
  872SOL    HW1 2615   1.267   1.877   1.556 -0.0296 -0.2253 -0.1741
  872SOL    HW2 2616   1.332   1.813   1.697  2.4900  1.3096  2.8248
  873SOL     OW 2617   1.042   1.737   2.385  0.4271  0.4597 -0.3210
  873SOL    HW1 2618   1.011   1.648   2.430  1.5081 -1.3386  2.5869
  873SOL    HW2 2619   0.964   1.780   2.339  3.9852 -0.7309 -2.7841
  874SOL     OW 2620   1.139   2.242   1.032  0.1849 -0.4165  0.3705
  874SOL    HW1 2621   1.181   2.242   0.938 -0.2793  0.6439  1.4137
  874SOL    HW2 2622   1.209   2.269   1.104  1.6131 -1.5701  0.2932
  875SOL     OW 2623   2.214   0.255   1.171  0.0269 -0.1694  0.0777
  875SOL    HW1 2624   2.123   0.268   1.221 -2.3569 -0.3297 -0.3426
  875SOL    HW2 2625   2.255   0.162   1.191  0.6744 -0.8829  0.2211
  876SOL     OW 2626   0.853   0.534   0.162  0.2899  0.2908 -0.0763
  876SOL    HW1 2627   0.780   0.574   0.219 -0.0553 -1.0143  0.7460
  876SOL    HW2 2628   0.866   0.442   0.204 -2.0963 -2.4221  3.6610
  877SOL     OW 2629   2.884   0.484   1.400 -0.3791 -0.0002  0.2329
  877SOL    HW1 2630   2.788   0.462   1.407  1.3327  0.6298  1.5682
  877SOL    HW2 2631   2.901   0.578   1.359 -2.1409  1.6955 -1.1598
  878SOL     OW 2632   2.221   2.501   0.279  0.5147 -0.0969  0.1829
  878SOL    HW1 2633   2.133   2.511   0.230  2.2894  0.6214 -0.8352
  878SOL    HW2 2634   2.266   2.428   0.230 -0.8398  0.7538  0.7932
  879SOL     OW 2635   2.734   1.429   1.506  0.1505 -0.9734 -0.0571
  879SOL    HW1 2636   2.632   1.437   1.502 -1.4485 -0.5672 -1.9339
  879SOL    HW2 2637   2.770   1.393   1.593 -0.6752 -2.7207  0.0800
  880SOL     OW 2638   1.417   2.723   1.298 -0.0363  0.6339  0.5548
  880SOL    HW1 2639   1.473   2.790   1.241  1.7237  1.2295 -2.2466
  880SOL    HW2 2640   1.355   2.777   1.358  1.1111 -2.0960 -0.0139
  881SOL     OW 2641   1.144   2.300   0.158 -0.0061  0.5483  0.0719
  881SOL    HW1 2642   1.062   2.248   0.185  1.8206  0.3168 -0.8006
  881SOL    HW2 2643   1.211   2.298   0.235 -3.0405 -0.9811 -1.6326
  882SOL     OW 2644   1.710   0.719   1.477  0.0164 -0.2292  0.1035
  882SOL    HW1 2645   1.693   0.745   1.575  1.9866  2.4846 -0.4441
  882SOL    HW2 2646   1.625   0.732   1.427 -2.4614  1.1072 -1.8668
  883SOL     OW 2647   1.264   0.100   2.340  0.1288 -0.7266  0.5756
  883SOL    HW1 2648   1.284   0.119   2.438 -0.7362  2.1288  0.5214
  883SOL    HW2 2649   1.164   0.114   2.315 -1.5854  0.3625  0.5403
  884SOL     OW 2650   3.063   0.568   0.171 -0.4767 -0.4915 -0.6995
  884SOL    HW1 2651   3.094   0.640   0.238 -0.9595  0.9396 -1.8805
  884SOL    HW2 2652   3.074   0.590   0.071 -2.9633 -0.5109 -1.1992
  885SOL     OW 2653   0.964   1.245   0.010 -0.3023  0.1070  0.1523
  885SOL    HW1 2654   0.909   1.321   0.046  1.1949  0.1759 -0.0946
  885SOL    HW2 2655   1.063   1.254   0.035  1.5467 -0.1822 -0.2725
  886SOL     OW 2656   1.605   1.472   2.746 -0.4620 -0.4840 -0.5485
  886SOL    HW1 2657   1.584   1.560   2.707 -0.9473 -2.7676  1.3433
  886SOL    HW2 2658   1.667   1.406   2.695  1.4647 -3.4188  0.2681
  887SOL     OW 2659   1.310   0.592   1.665  0.2037 -0.0005 -0.2501
  887SOL    HW1 2660   1.274   0.616   1.573  3.7162  1.7087 -0.9130
  887SOL    HW2 2661   1.326   0.492   1.662 -0.9046 -0.8584 -0.8140
  888SOL     OW 2662   2.949   0.564   1.916  0.0762 -0.0432  0.2370
  888SOL    HW1 2663   2.936   0.662   1.938  0.6700 -2.4955  0.2826
  888SOL    HW2 2664   2.941   0.542   1.820 -1.3347 -2.2522 -2.2750
  889SOL     OW 2665   3.066   2.652   0.846 -0.2014 -0.1317 -0.1935
  889SOL    HW1 2666   2.964   2.648   0.823  1.8629 -1.1266 -1.5985
  889SOL    HW2 2667   0.025   2.689   0.772  0.6482 -1.1638 -0.0046
  890SOL     OW 2668   2.911   2.686   0.165  0.0294  0.0031 -0.4682
  890SOL    HW1 2669   3.005   2.687   0.206 -0.3960  2.7210 -0.8889
  890SOL    HW2 2670   2.864   2.764   0.211  0.0773 -2.6237  2.5864
  891SOL     OW 2671   0.942   1.699   2.984 -0.7778  1.1388  0.7361
  891SOL    HW1 2672   1.031   1.645   2.979  1.5692 -1.0284 -0.7618
  891SOL    HW2 2673   0.902   1.708   2.890 -3.0391 -0.2219  1.4455
  892SOL     OW 2674   2.957   3.009   0.854 -0.1457  0.0122 -0.5049
  892SOL    HW1 2675   2.959   2.981   0.752  1.0879 -0.5984 -1.4439
  892SOL    HW2 2676   2.885   2.956   0.908  0.6589 -1.8503  0.8019
  893SOL     OW 2677   0.714   0.021   1.027  0.0714 -0.2692  0.1061
  893SOL    HW1 2678   0.695   0.117   1.023  0.1278 -2.1661 -0.7717
  893SOL    HW2 2679   0.812   0.002   1.006  1.5813  2.4292  1.2430
  894SOL     OW 2680   3.008   1.138   0.584  0.3215  0.3151  0.1292
  894SOL    HW1 2681   2.947   1.059   0.608  2.5846  1.4121  0.4673
  894SOL    HW2 2682   3.041   1.183   0.670  0.7287 -0.5156  2.4153
  895SOL     OW 2683   2.676   2.829   1.858 -0.0927  0.4987  0.0501
  895SOL    HW1 2684   2.619   2.866   1.931  2.4095 -2.1282 -0.8223
  895SOL    HW2 2685   2.740   2.898   1.825  0.3698 -0.0942  0.0263
  896SOL     OW 2686   0.972   0.101   1.531  0.4998  0.2194 -0.2363
  896SOL    HW1 2687   1.068   0.105   1.569  0.7299  2.0994 -0.1030
  896SOL    HW2 2688   0.917   0.019   1.562 -0.0609 -1.2568  1.5561
  897SOL     OW 2689   0.922   1.806   1.794 -0.2033 -0.4851  0.4414
  897SOL    HW1 2690   0.902   1.789   1.695  0.6957  0.5609  1.7694
  897SOL    HW2 2691   0.842   1.850   1.837 -1.0502 -1.1778  1.2227
  898SOL     OW 2692   1.764   2.583   1.893  0.1946 -0.2818  0.0188
  898SOL    HW1 2693   1.763   2.537   1.802 -0.1114  0.8454  0.9236
  898SOL    HW2 2694   1.803   2.679   1.898  1.8997  0.9173  1.8501
  899SOL     OW 2695   0.864   0.469   0.646 -0.6143 -0.2334 -0.0807
  899SOL    HW1 2696   0.936   0.451   0.714 -0.5080  1.6446 -0.6450
  899SOL    HW2 2697   0.839   0.567   0.647  0.9090  0.9610 -0.8503
  900SOL     OW 2698   1.946   2.441   2.300  0.2539 -0.1936 -0.4186
  900SOL    HW1 2699   1.854   2.483   2.317 -2.4066 -2.4043 -0.0917
  900SOL    HW2 2700   1.961   2.350   2.335 -2.2749  3.0763 -1.0777
  901SOL     OW 2701   0.933   2.205   2.732  0.0114  0.2400 -0.0254
  901SOL    HW1 2702   1.003   2.260   2.685 -1.1775 -0.2362  1.6225
  901SOL    HW2 2703   0.895   2.257   2.813 -0.7134  0.4959  0.3909
  902SOL     OW 2704   1.898   0.852   0.662 -0.0903  0.0298 -0.2728
  902SOL    HW1 2705   1.944   0.939   0.649 -0.8195 -1.6158 -2.9594
  902SOL    HW2 2706   1.796   0.864   0.668  1.8688  0.4788 -1.0231
  903SOL     OW 2707   1.934   0.593   0.573 -0.8651 -0.0328  0.1419
  903SOL    HW1 2708   1.999   0.595   0.490  1.0512 -0.1957 -3.1455
  903SOL    HW2 2709   1.911   0.689   0.601  0.5381 -2.6965 -1.8328
  904SOL     OW 2710   0.826   0.912   2.790  0.1022  0.2677 -0.5775
  904SOL    HW1 2711   0.907   0.968   2.821  0.8947 -0.3597 -0.4745
  904SOL    HW2 2712   0.852   0.812   2.790 -0.4123 -1.1282  0.5713
  905SOL     OW 2713   2.225   0.049   0.882 -0.2969  0.2502 -0.8482
  905SOL    HW1 2714   2.315   0.015   0.915  0.6083  2.0602  1.0584
  905SOL    HW2 2715   2.209   0.145   0.915  1.9407 -0.1713 -0.2166
  906SOL     OW 2716   3.041   2.258   1.335  0.3936  0.0508  0.3317
  906SOL    HW1 2717   3.087   2.182   1.390  0.0697  0.7560  1.6496
  906SOL    HW2 2718   2.942   2.241   1.327  1.3945 -2.0031  1.9902
  907SOL     OW 2719   1.032   0.565   3.056  0.0254  0.0722  0.3808
  907SOL    HW1 2720   0.971   0.541   0.034 -3.3852  2.5252 -1.5642
  907SOL    HW2 2721   1.097   0.641   3.076  0.0479  1.3602 -2.0486
  908SOL     OW 2722   2.277   2.627   1.007  0.7988 -0.5210  0.0564
  908SOL    HW1 2723   2.336   2.621   1.089 -0.7940  0.6060  1.2912
  908SOL    HW2 2724   2.295   2.716   0.956 -1.0801  1.9881 -1.8499
  909SOL     OW 2725   2.147   1.025   1.230 -0.2884 -0.5098  0.2410
  909SOL    HW1 2726   2.174   0.926   1.237 -2.1286  0.2674 -0.5496
  909SOL    HW2 2727   2.214   1.082   1.176  0.8893  0.8764 -0.2351
  910SOL     OW 2728   1.362   2.880   2.019  0.6165 -0.2466  0.8560
  910SOL    HW1 2729   1.364   2.882   2.119  2.6319 -0.3286 -1.5651
  910SOL    HW2 2730   1.306   2.956   1.978 -3.0620 -1.3914 -0.0189
  911SOL     OW 2731   2.908   0.510   2.200  0.2690 -0.1984 -0.4004
  911SOL    HW1 2732   2.954   0.528   2.110  1.1747 -0.8993 -0.3767
  911SOL    HW2 2733   2.849   0.427   2.200 -0.9151  3.5243 -0.8319
  912SOL     OW 2734   0.196   1.051   1.393  0.6997 -0.2974  0.3240
  912SOL    HW1 2735   0.094   1.041   1.398 -2.4192 -0.4949  0.0836
  912SOL    HW2 2736   0.223   1.143   1.414 -0.9310 -2.8146 -0.5687
  913SOL     OW 2737   2.749   2.104   1.682 -0.0429 -0.0823  0.4139
  913SOL    HW1 2738   2.840   2.090   1.727 -1.1865 -0.7685  0.7579
  913SOL    HW2 2739   2.743   2.049   1.597  1.0562  0.2138 -0.6489
  914SOL     OW 2740   1.475   0.719   1.340  0.0720 -0.6697  0.1257
  914SOL    HW1 2741   1.406   0.668   1.289 -0.1733  0.2481  1.3097
  914SOL    HW2 2742   1.432   0.794   1.392 -1.0741 -1.0311 -1.4592
  915SOL     OW 2743   1.621   0.384   1.444 -0.1636  0.5315 -0.3551
  915SOL    HW1 2744   1.627   0.387   1.546  0.1030 -0.2740  0.1521
  915SOL    HW2 2745   1.623   0.479   1.408  1.5032 -1.4232 -1.3216
  916SOL     OW 2746   2.656   2.483   1.497 -0.4782 -0.2974 -0.0617
  916SOL    HW1 2747   2.623   2.429   1.417 -2.1449 -0.1417  0.2205
  916SOL    HW2 2748   2.644   2.428   1.583  1.7043  1.2402  1.2903
  917SOL     OW 2749   2.396   2.097   0.336 -0.2462 -1.1681  0.3388
  917SOL    HW1 2750   2.391   2.169   0.267 -0.1305  1.3632  0.9029
  917SOL    HW2 2751   2.310   2.084   0.386  1.0621  0.2347  0.3292
  918SOL     OW 2752   1.975   2.732   2.570 -0.2796  0.1822  0.1134
  918SOL    HW1 2753   2.073   2.741   2.606  3.2351  0.3486  0.7784
  918SOL    HW2 2754   1.930   2.655   2.622  0.5221 -1.9339 -0.0519
  919SOL     OW 2755   1.177   2.392   1.488  0.1434 -0.1773  0.1869
  919SOL    HW1 2756   1.205   2.354   1.579 -1.0302  0.2286 -0.5321
  919SOL    HW2 2757   1.175   2.319   1.417 -1.9137  1.4503 -0.3814
  920SOL     OW 2758   2.938   0.148   2.243  0.3646 -0.5132  0.3166
  920SOL    HW1 2759   2.939   0.182   2.334 -0.7218 -2.2928 -5.7506
  920SOL    HW2 2760   3.030   0.140   2.202  0.3045  1.7735 -1.1247
  921SOL     OW 2761   3.013   0.758   1.685  0.1711  0.1995  0.0987
  921SOL    HW1 2762   3.014   0.838   1.748 -1.4337 -1.1683 -1.3179
  921SOL    HW2 2763   0.007   0.726   1.669  1.1400  0.4736  1.3269
  922SOL     OW 2764   2.190   2.066   0.484 -0.4458 -0.1339  0.6383
  922SOL    HW1 2765   2.197   1.968   0.511 -1.5286  0.2568 -0.4703
  922SOL    HW2 2766   2.093   2.099   0.481  0.9315  1.7920  0.2019
  923SOL     OW 2767   0.875   1.877   0.086 -0.1343  0.2271  0.0315
  923SOL    HW1 2768   0.904   1.800   0.027 -1.1436  1.7852 -0.5156
  923SOL    HW2 2769   0.798   1.926   0.041 -3.2454 -0.3256 -0.8619
  924SOL     OW 2770   0.904   0.331   0.350 -0.1017 -0.0208  0.4485
  924SOL    HW1 2771   0.895   0.233   0.374  0.3168  1.8382  1.7231
  924SOL    HW2 2772   1.001   0.362   0.370  2.7575  1.3594 -1.1318
  925SOL     OW 2773   2.436   0.277   0.740  0.0085 -0.4319 -0.3383
  925SOL    HW1 2774   2.350   0.327   0.751 -0.4943 -0.2177 -0.2158
  925SOL    HW2 2775   2.447   0.242   0.647 -0.8100 -1.4438  0.2813
  926SOL     OW 2776   0.385   0.555   1.073  0.3209  0.5017 -0.3699
  926SOL    HW1 2777   0.387   0.535   0.973 -1.0602  2.6478  2.4657
  926SOL    HW2 2778   0.328   0.496   1.128  1.1279 -0.7868  2.5565
  927SOL     OW 2779   0.191   1.405   2.617  0.2072 -0.2530 -0.2486
  927SOL    HW1 2780   0.197   1.406   2.515 -1.9266  0.9223  2.9008
  927SOL    HW2 2781   0.149   1.321   2.659 -0.3770  1.3174 -0.5797
  928SOL     OW 2782   2.922   0.846   2.877  0.5710  0.3563  0.5351
  928SOL    HW1 2783   2.882   0.773   2.936  1.7047  2.1293 -2.5734
  928SOL    HW2 2784   3.013   0.826   2.839 -0.6082 -0.0462 -1.8086
  929SOL     OW 2785   2.560   0.136   1.412 -0.3358  0.2064 -0.2326
  929SOL    HW1 2786   2.506   0.210   1.365 -1.2496 -0.5508  2.8271
  929SOL    HW2 2787   2.510   0.047   1.423 -1.9660 -2.0640  1.1307
  930SOL     OW 2788   1.923   1.076   1.656  0.1768 -0.6679  0.0606
  930SOL    HW1 2789   1.827   1.098   1.684 -1.1911 -1.3677 -1.0933
  930SOL    HW2 2790   1.937   1.017   1.571  1.2176 -0.5621 -1.1897
  931SOL     OW 2791   1.973   1.100   0.554  0.1936 -0.6664  0.0813
  931SOL    HW1 2792   2.020   1.090   0.462  0.3591  1.1453 -0.9330
  931SOL    HW2 2793   1.918   1.181   0.553  0.0210 -2.1208  4.4065
  932SOL     OW 2794   2.704   1.285   0.874 -0.5856 -0.1600  0.1078
  932SOL    HW1 2795   2.688   1.205   0.811 -0.2758  1.1387  0.9324
  932SOL    HW2 2796   2.776   1.264   0.946 -0.0605  2.8065  0.2295
  933SOL     OW 2797   2.613   1.779   1.154  0.2763 -0.5445  0.2381
  933SOL    HW1 2798   2.660   1.773   1.247 -1.2678 -2.1184 -1.0786
  933SOL    HW2 2799   2.510   1.785   1.155  0.2790 -0.9096 -1.3915
  934SOL     OW 2800   1.776   0.363   2.272 -0.0059 -0.2464  0.5963
  934SOL    HW1 2801   1.688   0.381   2.326  0.0973  2.3457  2.2625
  934SOL    HW2 2802   1.852   0.416   2.320  1.6609  2.6419 -1.1508
  935SOL     OW 2803   0.258   1.718   0.796  0.0695 -0.2486  0.0293
  935SOL    HW1 2804   0.154   1.735   0.786 -2.0138  1.3668  0.3160
  935SOL    HW2 2805   0.297   1.807   0.828  2.4472  0.1035 -1.9074
  936SOL     OW 2806   0.421   0.764   0.565 -0.5154  0.0412 -0.1925
  936SOL    HW1 2807   0.445   0.827   0.486  0.5965 -1.4785 -3.2138
  936SOL    HW2 2808   0.371   0.812   0.643 -1.6939 -1.6293  2.4525
  937SOL     OW 2809   2.457   2.942   1.191  0.0852  0.4243 -0.4489
  937SOL    HW1 2810   2.509   2.858   1.175 -0.1188 -1.9194 -0.2538
  937SOL    HW2 2811   2.462   2.965   1.291 -0.2121  1.0946  1.1034
  938SOL     OW 2812   2.718   2.474   0.266  0.9582 -0.0607 -0.6089
  938SOL    HW1 2813   2.773   2.553   0.236  0.9394 -1.0690  1.4385
  938SOL    HW2 2814   2.627   2.496   0.316 -1.5614 -0.2930  0.5585
  939SOL     OW 2815   1.004   1.993   0.495  0.1845  0.3699  0.1638
  939SOL    HW1 2816   0.946   1.931   0.440  0.1176 -1.4020  1.0974
  939SOL    HW2 2817   0.962   2.011   0.589  0.0728  1.6641  2.0899
  940SOL     OW 2818   2.898   0.499   2.872 -0.1865  0.4746 -0.5237
  940SOL    HW1 2819   2.909   0.405   2.903  0.2074 -0.0593  0.5439
  940SOL    HW2 2820   2.840   0.500   2.787  0.0529  0.2057  1.2462
  941SOL     OW 2821   1.112   0.176   3.068 -0.2402 -0.2544 -0.0107
  941SOL    HW1 2822   1.189   0.123   3.033 -3.7388  0.1015  0.2913
  941SOL    HW2 2823   1.111   0.188   0.068  1.0840 -0.2698  2.2090
  942SOL     OW 2824   1.115   0.880   1.264  0.1865  0.3252 -0.0340
  942SOL    HW1 2825   1.061   0.861   1.348 -3.0740  2.6835  0.4831
  942SOL    HW2 2826   1.041   0.897   1.198 -0.8321  0.5869  1.9192
  943SOL     OW 2827   1.441   0.900   1.976 -0.4997  0.3074 -0.6771
  943SOL    HW1 2828   1.413   0.905   1.883  3.6855 -3.4950  0.0074
  943SOL    HW2 2829   1.360   0.889   2.036  0.8755  0.1753  1.2690
  944SOL     OW 2830   1.666   1.134   1.751 -0.1466 -0.3555 -0.3795
  944SOL    HW1 2831   1.681   1.067   1.828 -0.8028 -0.2495 -1.0995
  944SOL    HW2 2832   1.571   1.156   1.740  1.6042 -2.6443  0.0624
  945SOL     OW 2833   2.926   3.097   0.215 -0.0843  0.0380  0.1742
  945SOL    HW1 2834   2.987   3.024   0.253  0.4082  1.5834  0.0745
  945SOL    HW2 2835   2.951   0.089   0.248  0.1659  0.4662 -0.8417
  946SOL     OW 2836   2.897   0.817   1.988 -0.3053  0.2105  0.2495
  946SOL    HW1 2837   2.959   0.865   2.050  0.7517 -0.4118  2.2141
  946SOL    HW2 2838   2.811   0.870   1.983  0.3647  0.9451  0.7154
  947SOL     OW 2839   0.496   2.781   0.331 -0.0362  0.3997  0.2841
  947SOL    HW1 2840   0.593   2.809   0.353 -0.2945  0.6552  0.0450
  947SOL    HW2 2841   0.440   2.863   0.309 -1.9065  1.9057 -1.5869
  948SOL     OW 2842   2.281   1.049   1.473  0.5646 -0.4270 -0.1346
  948SOL    HW1 2843   2.256   0.964   1.521  1.0229 -0.8185  0.7361
  948SOL    HW2 2844   2.215   1.066   1.396 -0.9239  1.0890 -0.9774
  949SOL     OW 2845   0.694   0.832   2.286  0.3614 -0.1497  0.2359
  949SOL    HW1 2846   0.683   0.843   2.187  0.4632 -1.0619  1.4458
  949SOL    HW2 2847   0.603   0.822   2.328 -2.3196  1.6950 -2.4005
  950SOL     OW 2848   0.469   3.046   0.907 -0.0523 -0.2936 -0.5173
  950SOL    HW1 2849   0.559   3.057   0.955 -1.8278 -2.9142  0.0876
  950SOL    HW2 2850   0.488   3.012   0.811  2.0204 -2.1395 -2.7525
  951SOL     OW 2851   0.928   1.348   2.371  0.1479  0.7958  0.1544
  951SOL    HW1 2852   0.940   1.343   2.271  2.5435  2.3090  1.2165
  951SOL    HW2 2853   0.920   1.253   2.407  0.3079  0.8767 -0.6720
  952SOL     OW 2854   0.865   1.531   0.147  0.2008  0.3857  0.0028
  952SOL    HW1 2855   0.962   1.542   0.164 -0.3554  1.3217  0.3939
  952SOL    HW2 2856   0.811   1.560   0.226  1.6115 -0.1914 -2.4075
  953SOL     OW 2857   2.523   0.394   2.478  0.1474 -0.3645  0.4252
  953SOL    HW1 2858   2.464   0.481   2.467  1.5412  1.4339 -2.3002
  953SOL    HW2 2859   2.468   0.306   2.488 -0.1649 -0.8899  1.7734
  954SOL     OW 2860   1.552   1.176   0.817  0.0993 -0.1787  0.8202
  954SOL    HW1 2861   1.582   1.084   0.846  0.6636  3.6447 -0.8194
  954SOL    HW2 2862   1.632   1.241   0.815  0.4470  0.3451  2.3184
  955SOL     OW 2863   0.257   2.151   2.672  0.0871 -0.3765 -0.2691
  955SOL    HW1 2864   0.282   2.155   2.772 -0.4014 -0.2210  0.6279
  955SOL    HW2 2865   0.261   2.244   2.633  0.1957  2.5853 -2.8710
  956SOL     OW 2866   1.644   0.427   2.048  0.0467  0.6053  0.0061
  956SOL    HW1 2867   1.698   0.394   2.128  1.4755 -0.0708  0.5270
  956SOL    HW2 2868   1.658   0.526   2.037 -0.2739 -0.7646 -1.3837
  957SOL     OW 2869   2.067   2.029   2.623 -0.0384 -0.4739  0.1714
  957SOL    HW1 2870   2.163   2.003   2.607 -0.3604  1.9823  0.0389
  957SOL    HW2 2871   2.014   1.943   2.631  4.0536  3.0716 -0.7038
  958SOL     OW 2872   1.245   1.799   1.361 -0.3853 -0.1275  0.3338
  958SOL    HW1 2873   1.305   1.726   1.406  1.1697 -0.2043 -1.1826
  958SOL    HW2 2874   1.244   1.779   1.261 -2.4455 -0.3059  0.1876
  959SOL     OW 2875   2.311   2.199   2.850 -0.3974  0.3081 -0.0279
  959SOL    HW1 2876   2.369   2.126   2.804  0.1946  0.0538 -3.2623
  959SOL    HW2 2877   2.262   2.159   2.932 -1.1790  1.2954  1.0350
  960SOL     OW 2878   0.005   0.814   2.546 -0.3640 -0.4907  0.4423
  960SOL    HW1 2879   0.048   0.782   2.627 -1.3642  0.2002 -2.4894
  960SOL    HW2 2880   3.007   0.838   2.554  0.0884 -2.7754 -0.7491
  961SOL     OW 2881   0.943   0.847   2.406  0.2431  0.1288  0.1618
  961SOL    HW1 2882   0.850   0.840   2.367  2.2615 -1.0939 -2.3927
  961SOL    HW2 2883   0.993   0.761   2.403  3.4932  2.5888  1.5909
  962SOL     OW 2884   0.967   1.191   2.822  0.1114  0.4762  0.4010
  962SOL    HW1 2885   0.955   1.184   2.920  1.0470 -0.3320 -1.2663
  962SOL    HW2 2886   0.882   1.226   2.778 -1.2037  0.5132  1.9877
  963SOL     OW 2887   2.470   2.638   0.218 -0.0759 -0.3866 -0.3348
  963SOL    HW1 2888   2.499   2.734   0.241  1.3137 -0.2614 -1.0100
  963SOL    HW2 2889   2.376   2.618   0.258  1.8512 -0.1478 -1.2141
  964SOL     OW 2890   0.971   2.541   1.441 -0.3998  0.2037  0.1683
  964SOL    HW1 2891   1.052   2.480   1.465  0.8559 -0.6475  0.8000
  964SOL    HW2 2892   0.997   2.627   1.397 -0.1700 -1.1289  1.9721
  965SOL     OW 2893   1.505   1.474   0.399  0.0323 -0.2751 -0.1643
  965SOL    HW1 2894   1.603   1.496   0.412 -2.0209  0.7075  0.4177
  965SOL    HW2 2895   1.458   1.459   0.487  0.8423 -0.9852  0.6106
  966SOL     OW 2896   0.091   1.813   0.291  0.0078 -0.2096 -0.4157
  966SOL    HW1 2897   0.155   1.734   0.301  0.6245  3.6434 -2.9583
  966SOL    HW2 2898   0.009   1.811   0.343  2.4000  2.5739 -1.0374
  967SOL     OW 2899   1.820   0.203   2.056 -0.6736  0.0292 -0.0276
  967SOL    HW1 2900   1.910   0.161   2.079  2.0835 -0.5572 -0.4358
  967SOL    HW2 2901   1.776   0.245   2.136  1.3508  1.5211  1.1334
  968SOL     OW 2902   1.765   0.465   0.745 -0.1508 -0.1551 -0.5098
  968SOL    HW1 2903   1.841   0.518   0.698 -2.5532 -2.4342  1.1619
  968SOL    HW2 2904   1.702   0.530   0.792 -0.6173 -1.3976  0.7201
  969SOL     OW 2905   0.280   1.174   2.433  0.0570 -0.4046  0.1860
  969SOL    HW1 2906   0.246   1.242   2.364 -0.4140  0.3899 -2.4268
  969SOL    HW2 2907   0.234   1.182   2.519  0.8570  2.6553 -1.3514
  970SOL     OW 2908   2.527   1.472   1.234  0.0909 -0.9158 -0.1580
  970SOL    HW1 2909   2.502   1.384   1.278 -2.1666  3.0325 -1.3636
  970SOL    HW2 2910   2.537   1.465   1.134 -1.0592  0.0914  3.4547
  971SOL     OW 2911   0.060   2.994   1.097 -0.0484 -0.1864 -0.3232
  971SOL    HW1 2912   0.025   2.900   1.123 -2.3323 -2.1600 -1.9882
  971SOL    HW2 2913   0.017   3.019   1.009 -0.7921 -2.1789 -1.7878
  972SOL     OW 2914   0.433   0.752   2.424  0.3742  0.4813  0.0888
  972SOL    HW1 2915   0.470   0.768   2.519  1.9887 -0.7136  3.4061
  972SOL    HW2 2916   0.340   0.792   2.415  1.5954 -0.1362  0.2590
  973SOL     OW 2917   0.365   0.210   0.956 -0.7163  0.1491 -0.1739
  973SOL    HW1 2918   0.275   0.208   1.003 -1.5458  1.0587 -2.2359
  973SOL    HW2 2919   0.386   0.123   0.912  0.0675 -0.1970  0.1569
  974SOL     OW 2920   2.138   0.612   1.533 -0.3181  0.3635  0.1282
  974SOL    HW1 2921   2.130   0.705   1.568  2.1920 -0.3161  0.1504
  974SOL    HW2 2922   2.199   0.562   1.597 -3.3253 -0.0960 -0.3088
  975SOL     OW 2923   2.698   3.011   0.027 -0.0961 -0.2149 -0.2030
  975SOL    HW1 2924   2.786   3.023   0.079  3.1614 -0.1538 -0.2126
  975SOL    HW2 2925   2.671   2.910   0.024  0.5529  0.6067 -2.2885
  976SOL     OW 2926   0.292   1.463   1.208 -0.5669 -0.0009  0.3998
  976SOL    HW1 2927   0.307   1.366   1.238 -1.2702 -1.8873  1.8528
  976SOL    HW2 2928   0.376   1.527   1.212  4.7572  3.8493 -0.3650
  977SOL     OW 2929   1.187   2.397   0.559  0.3233 -0.5561  0.1084
  977SOL    HW1 2930   1.242   2.365   0.478 -0.5485  1.3247 -2.3246
  977SOL    HW2 2931   1.231   2.474   0.607 -0.0246 -0.4229  1.1168
  978SOL     OW 2932   0.372   1.017   3.017 -0.2726  0.1266 -0.0695
  978SOL    HW1 2933   0.343   1.034   0.007  1.9192 -2.0206 -0.0377
  978SOL    HW2 2934   0.474   1.014   3.010 -1.5394  1.6171 -0.0267
  979SOL     OW 2935   2.141   1.560   0.777 -0.2987  0.5146 -0.0728
  979SOL    HW1 2936   2.142   1.469   0.725 -2.5274  0.4259  3.3102
  979SOL    HW2 2937   2.235   1.578   0.814 -0.5250 -0.7510 -0.7593
  980SOL     OW 2938   0.566   1.712   1.863  0.1131 -0.0771  0.2697
  980SOL    HW1 2939   0.561   1.661   1.773 -0.3084 -0.5779  0.8997
  980SOL    HW2 2940   0.615   1.662   1.933  0.4453 -0.2374 -3.8969
  981SOL     OW 2941   2.818   1.346   3.034 -0.3338 -0.4910 -0.0017
  981SOL    HW1 2942   2.852   1.251   3.026  0.9145  0.1246 -0.0149
  981SOL    HW2 2943   2.887   1.400   3.078  0.3169  1.1882 -0.9549
  982SOL     OW 2944   2.538   2.968   2.050 -0.2811 -0.9850 -0.1498
  982SOL    HW1 2945   2.450   3.017   2.038 -0.9351 -1.4776 -1.8426
  982SOL    HW2 2946   2.617   3.027   2.089  4.1163  2.9020  0.8436
  983SOL     OW 2947   1.225   0.192   1.010  0.0396 -0.4144 -0.0812
  983SOL    HW1 2948   1.172   0.145   1.081  1.7045  1.2115 -1.4654
  983SOL    HW2 2949   1.169   0.255   0.953  0.0559 -0.1074  0.8970
  984SOL     OW 2950   1.117   2.723   3.003  0.2454 -0.0534 -0.1214
  984SOL    HW1 2951   1.068   2.803   2.969  1.5200 -2.1456 -0.1624
  984SOL    HW2 2952   1.189   2.693   2.940 -3.4674  1.5037  3.0190
  985SOL     OW 2953   1.713   2.050   1.614  0.3636 -0.0483  0.3253
  985SOL    HW1 2954   1.620   2.093   1.603 -1.7952  4.0559 -1.2821
  985SOL    HW2 2955   1.709   1.952   1.624  1.7975  1.2572  1.8067
  986SOL     OW 2956   2.146   3.077   2.753 -0.0992 -0.2321  0.0541
  986SOL    HW1 2957   2.170   2.979   2.747  0.5145 -1.8393  0.3577
  986SOL    HW2 2958   2.220   0.027   2.797 -1.3223  2.0375  1.7409
  987SOL     OW 2959   2.721   1.249   2.186  0.1410 -0.0099 -0.7030
  987SOL    HW1 2960   2.656   1.190   2.135  0.7659 -0.6674  1.5859
  987SOL    HW2 2961   2.699   1.248   2.287  1.5939  3.1432  2.7084
  988SOL     OW 2962   2.256   0.795   2.295 -0.1865 -0.2456  0.3028
  988SOL    HW1 2963   2.311   0.729   2.237  1.3115  0.1224  0.0334
  988SOL    HW2 2964   2.266   0.887   2.253  0.2330  1.1186 -0.5878
  989SOL     OW 2965   1.697   1.348   2.105  0.1301  0.0864  0.2528
  989SOL    HW1 2966   1.634   1.266   2.109  2.9676  0.5355 -0.1659
  989SOL    HW2 2967   1.779   1.333   2.051  0.5233  1.3004  0.1214
  990SOL     OW 2968   0.276   1.243   0.173 -0.1441 -0.2553  0.4562
  990SOL    HW1 2969   0.201   1.223   0.235  0.9229  0.0715 -0.5901
  990SOL    HW2 2970   0.250   1.258   0.078  1.1918  0.3846  1.6562
  991SOL     OW 2971   0.298   1.791   2.754 -0.1186 -0.3856  0.0225
  991SOL    HW1 2972   0.336   1.696   2.740  2.9225 -1.8327  1.2060
  991SOL    HW2 2973   0.379   1.855   2.769  2.3841 -0.6109  0.2893
  992SOL     OW 2974   2.756   1.851   1.946 -0.7728  0.1561  0.0362
  992SOL    HW1 2975   2.779   1.937   2.000 -1.9165  0.8420 -0.9943
  992SOL    HW2 2976   2.671   1.860   1.894  2.6083  0.4156 -2.1994
  993SOL     OW 2977   0.136   2.916   0.540  0.3877  0.3579  0.7244
  993SOL    HW1 2978   0.183   2.988   0.590 -2.1474 -1.1597 -0.4656
  993SOL    HW2 2979   0.136   2.825   0.594 -0.4668  1.2311  3.1046
  994SOL     OW 2980   0.144   1.810   1.487  0.0170 -0.3420 -0.1210
  994SOL    HW1 2981   0.129   1.748   1.565  0.0145  0.0427 -1.9949
  994SOL    HW2 2982   0.238   1.815   1.457 -1.3279  1.1631 -0.1058
  995SOL     OW 2983   2.212   1.729   2.507  0.3426 -0.3997  0.2862
  995SOL    HW1 2984   2.262   1.815   2.523  0.4839  0.9602 -1.0334
  995SOL    HW2 2985   2.250   1.661   2.567  0.9980  2.0964  2.0679
  996SOL     OW 2986   1.930   1.519   3.100  0.3133 -0.1956 -1.0549
  996SOL    HW1 2987   1.834   1.489   3.075 -2.7355 -1.0436  0.9437
  996SOL    HW2 2988   1.963   1.592   3.041 -2.1064 -3.8715  3.2878
  997SOL     OW 2989   1.364   1.304   1.763  0.0432  0.3939  0.5622
  997SOL    HW1 2990   1.292   1.250   1.719 -1.6110  2.5202 -0.6769
  997SOL    HW2 2991   1.326   1.358   1.841 -2.8839 -2.4568 -0.6377
  998SOL     OW 2992   2.804   2.144   1.258 -0.0296  0.6346 -0.4107
  998SOL    HW1 2993   2.755   2.235   1.274 -0.8621  0.4064 -0.2787
  998SOL    HW2 2994   2.863   2.147   1.174 -1.2335  2.3205 -3.8076
  999SOL     OW 2995   1.899   2.738   0.294  0.4101  0.0626 -0.4530
  999SOL    HW1 2996   1.826   2.794   0.246 -1.7457 -0.4256 -3.1436
  999SOL    HW2 2997   1.968   2.698   0.229  3.5719 -0.2624 -0.6192
 1000SOL     OW 2998   0.713   3.011   0.066 -0.0546  0.0604  0.0105
 1000SOL    HW1 2999   0.810   2.985   0.084  0.4281 -1.4083  0.9742
 1000SOL    HW2 3000   0.689   0.010   0.084  2.9978 -0.0636  2.7945
   3.10142   3.10142   3.10142
