1000 SPC/Fw water molecules t=  81.00000 step= 81000
 3000
    1SOL     OW    1   1.980   2.737   0.749  0.2162  0.0068 -0.7318
    1SOL    HW1    2   1.930   2.661   0.712  1.3665 -1.1053  1.9889
    1SOL    HW2    3   2.006   2.801   0.678 -1.0067  0.7987  0.3683
    2SOL     OW    4   0.687   1.249   2.193 -0.0532  0.1447  0.3617
    2SOL    HW1    5   0.680   1.191   2.278 -1.2929 -2.2285  0.2571
    2SOL    HW2    6   0.714   1.339   2.221 -0.7951 -2.7561  0.5418
    3SOL     OW    7   1.566   2.942   2.546 -0.3433  0.2397  0.1794
    3SOL    HW1    8   1.494   2.995   2.600 -0.3394  0.1835  1.3524
    3SOL    HW2    9   1.524   2.849   2.526 -0.4907  1.3272  1.5890
    4SOL     OW   10   1.140   1.923   2.722 -0.2472  0.2210 -0.2355
    4SOL    HW1   11   1.189   1.918   2.634  0.5492  0.1338  1.1627
    4SOL    HW2   12   1.183   1.856   2.789 -1.2656  0.3254  0.4821
    5SOL     OW   13   0.618   0.861   1.900  0.0043 -0.2739 -0.6375
    5SOL    HW1   14   0.645   0.835   1.805 -1.8240  1.1741  1.8043
    5SOL    HW2   15   0.643   0.959   1.913  1.9011  0.7836 -0.4630
    6SOL     OW   16   1.975   0.550   2.658 -0.6674 -0.2083  0.0657
    6SOL    HW1   17   2.027   0.581   2.571  2.2287  1.0063 -0.8434
    6SOL    HW2   18   1.898   0.613   2.689 -0.8021  0.1174 -0.6235
    7SOL     OW   19   0.340   0.247   1.585 -0.7129  0.0574 -0.6867
    7SOL    HW1   20   0.330   0.347   1.572  1.5305 -2.9759  2.2371
    7SOL    HW2   21   0.393   0.219   1.673  0.9860 -0.6850  3.1868
    8SOL     OW   22   1.814   3.026   1.817  0.2591  0.1220  0.0729
    8SOL    HW1   23   1.778   3.095   1.879 -2.5525 -0.0792 -2.4455
    8SOL    HW2   24   1.895   3.052   1.760  3.2241 -1.8981  1.9758
    9SOL     OW   25   0.334   0.052   0.574  0.5542 -0.3312 -0.0711
    9SOL    HW1   26   0.372   0.067   0.665  0.5765 -0.8952 -1.2661
    9SOL    HW2   27   0.275   3.087   0.576 -0.5114  2.0483 -0.2370
   10SOL     OW   28   0.465   2.198   2.438  0.2284 -0.3425  0.1281
   10SOL    HW1   29   0.544   2.136   2.433 -2.0172  1.0251 -1.5942
   10SOL    HW2   30   0.456   2.250   2.353 -2.2374 -1.3818  2.0039
   11SOL     OW   31   0.602   1.497   0.185  0.2932  0.1830  0.0772
   11SOL    HW1   32   0.659   1.472   0.103  3.0669 -0.0728 -0.6767
   11SOL    HW2   33   0.663   1.511   0.263  0.9160  0.7742 -1.2855
   12SOL     OW   34   2.979   2.863   1.303 -0.1739 -0.0785 -0.5054
   12SOL    HW1   35   2.955   2.913   1.216 -3.6135 -1.1248 -2.1527
   12SOL    HW2   36   3.048   2.789   1.284  1.0759 -1.3615 -1.9993
   13SOL     OW   37   0.868   2.786   0.437  0.1188  0.1284  0.2493
   13SOL    HW1   38   0.851   2.743   0.345  0.3211 -1.4811 -0.7033
   13SOL    HW2   39   0.875   2.887   0.442  0.5805  1.6606 -0.0658
   14SOL     OW   40   1.638   1.636   1.450 -0.0553 -0.0327  0.0661
   14SOL    HW1   41   1.599   1.673   1.357  1.3996  2.8245 -0.0169
   14SOL    HW2   42   1.617   1.538   1.463 -2.2979 -3.4736 -1.7644
   15SOL     OW   43   0.158   1.751   2.411  0.2063 -0.1891 -0.1852
   15SOL    HW1   44   0.096   1.815   2.365  0.1614  1.3338 -3.0035
   15SOL    HW2   45   0.171   1.773   2.510 -1.8016 -0.7766 -0.0952
   16SOL     OW   46   1.600   0.635   2.568 -0.4692  0.6904 -0.3499
   16SOL    HW1   47   1.689   0.653   2.615 -0.3783  1.3812  0.9659
   16SOL    HW2   48   1.523   0.671   2.621  0.9711 -4.2562 -1.8102
   17SOL     OW   49   0.057   2.223   2.497 -0.6370  0.1569  0.4207
   17SOL    HW1   50   0.135   2.256   2.556  0.9950 -3.7991 -0.2932
   17SOL    HW2   51   0.024   2.140   2.539  1.7371  0.7097 -0.2947
   18SOL     OW   52   0.983   1.322   0.709  0.0156 -0.2222 -0.1957
   18SOL    HW1   53   1.016   1.416   0.712 -0.5582  2.1291 -0.1767
   18SOL    HW2   54   0.983   1.282   0.803 -2.2325  1.1554 -0.1322
   19SOL     OW   55   2.889   1.879   2.498 -0.3252 -0.5187  0.3895
   19SOL    HW1   56   2.884   1.787   2.541  0.1611 -0.0487 -2.2981
   19SOL    HW2   57   2.801   1.904   2.459  4.9689 -2.9576  1.6475
   20SOL     OW   58   2.471   2.317   2.442 -0.3662  0.1087 -0.2987
   20SOL    HW1   59   2.435   2.220   2.430 -1.7601  3.3586  0.2599
   20SOL    HW2   60   2.394   2.379   2.470 -0.9760 -0.2285 -0.9357
   21SOL     OW   61   1.427   1.743   0.203  0.3547 -0.0916 -0.0908
   21SOL    HW1   62   1.358   1.672   0.175 -1.7915  0.3893 -1.5135
   21SOL    HW2   63   1.455   1.743   0.305  0.9870 -0.9872 -0.5286
   22SOL     OW   64   2.289   2.253   1.445  0.1803  0.4623 -0.0113
   22SOL    HW1   65   2.324   2.344   1.477 -0.3009 -1.0459 -1.2157
   22SOL    HW2   66   2.254   2.206   1.533  0.9686 -1.8340  3.4565
   23SOL     OW   67   0.069   1.146   1.250 -0.0889 -0.4484 -0.3766
   23SOL    HW1   68   0.103   1.063   1.201 -0.9056 -1.2771 -0.6538
   23SOL    HW2   69   0.118   1.149   1.341  1.1171  0.9054 -0.7250
   24SOL     OW   70   2.485   1.700   2.389  0.3260 -0.2765  0.0490
   24SOL    HW1   71   2.460   1.636   2.462  2.5006  0.3779 -1.5565
   24SOL    HW2   72   2.553   1.764   2.423  2.2765  0.3633 -0.8780
   25SOL     OW   73   1.929   0.395   2.209 -0.7457 -0.1562 -0.0795
   25SOL    HW1   74   2.021   0.357   2.232  0.3098  2.5818 -0.9377
   25SOL    HW2   75   1.944   0.475   2.144  0.9900 -0.0059 -2.2075
   26SOL     OW   76   1.271   0.025   0.314  0.0979  0.2944 -0.1021
   26SOL    HW1   77   1.303   0.072   0.228  0.8098  1.2290 -1.6027
   26SOL    HW2   78   1.295   0.068   0.402 -1.0190 -1.9030 -0.7049
   27SOL     OW   79   0.777   1.625   0.404 -0.5769  0.5990  0.1357
   27SOL    HW1   80   0.734   1.695   0.464  3.9286 -2.4062  1.4745
   27SOL    HW2   81   0.765   1.530   0.451 -1.3901 -3.9134  1.5484
   28SOL     OW   82   2.462   2.006   1.082 -0.2184 -0.2215 -0.7504
   28SOL    HW1   83   2.490   1.946   1.162 -0.7158 -1.0732 -1.1834
   28SOL    HW2   84   2.393   2.073   1.110  2.5508 -2.6335  0.2508
   29SOL     OW   85   2.278   2.925   1.681  0.1235 -0.0927 -0.1403
   29SOL    HW1   86   2.207   2.851   1.674 -0.0268  1.2413  2.3384
   29SOL    HW2   87   2.319   2.930   1.770  0.9388  0.3660 -3.6126
   30SOL     OW   88   0.993   3.037   1.346  0.2485 -0.2979  0.1123
   30SOL    HW1   89   1.062   3.058   1.278 -1.4929  0.7016  2.8320
   30SOL    HW2   90   0.964   2.940   1.332 -1.9115 -0.4257 -0.0268
   31SOL     OW   91   0.062   2.145   1.806 -0.1954  0.2879  0.4125
   31SOL    HW1   92   0.087   2.045   1.826  1.3365 -0.7924  0.1287
   31SOL    HW2   93   0.013   2.190   1.879  1.0626 -1.2094 -1.4148
   32SOL     OW   94   1.469   1.547   1.827  0.0332  0.2360 -0.1312
   32SOL    HW1   95   1.399   1.576   1.756 -1.0848 -0.9273  1.1934
   32SOL    HW2   96   1.484   1.625   1.887 -4.0347 -4.5829 -3.2599
   33SOL     OW   97   0.346   0.134   3.034 -0.1512  0.3746 -0.1732
   33SOL    HW1   98   0.394   0.220   3.005  0.8561 -0.8664 -1.2139
   33SOL    HW2   99   0.285   0.104   2.957 -1.7607 -0.0723 -0.0984
   34SOL     OW  100   2.430   0.003   0.519  0.2580  0.2053 -0.0150
   34SOL    HW1  101   2.393   3.105   0.609  2.5484  2.0891 -2.3238
   34SOL    HW2  102   2.449   3.022   0.475  0.6079  0.2683 -3.1423
   35SOL     OW  103   2.674   0.075   1.472 -0.0382  0.2286  0.0666
   35SOL    HW1  104   2.692   0.144   1.542  2.2510 -0.6474 -0.2594
   35SOL    HW2  105   2.581   0.043   1.484  1.7068  1.6748 -1.2232
   36SOL     OW  106   2.825   2.724   2.840  0.0942 -0.0740  0.2695
   36SOL    HW1  107   2.787   2.818   2.850 -0.3998 -1.2106 -0.6433
   36SOL    HW2  108   2.845   2.710   2.740  1.4447 -0.1325  3.0513
   37SOL     OW  109   1.540   2.624   2.799 -0.3363 -0.1988 -0.0920
   37SOL    HW1  110   1.557   2.718   2.831 -0.2021 -2.4332 -0.1227
   37SOL    HW2  111   1.461   2.584   2.847  0.8198 -1.3399 -0.0468
   38SOL     OW  112   2.960   0.941   2.992  0.0729 -0.4902 -0.3596
   38SOL    HW1  113   2.867   0.941   3.036 -1.3588 -3.1419 -2.4594
   38SOL    HW2  114   3.014   1.019   3.037  0.3144  3.1472  1.7361
   39SOL     OW  115   1.713   1.829   2.120 -0.2649 -0.0499  0.0034
   39SOL    HW1  116   1.736   1.924   2.158 -1.9463  3.6731  1.8514
   39SOL    HW2  117   1.795   1.769   2.128 -0.6083  0.1207 -0.8362
   40SOL     OW  118   0.280   0.317   2.704  0.0785 -0.0208 -0.1025
   40SOL    HW1  119   0.248   0.227   2.742  0.9366  0.7742 -0.6215
   40SOL    HW2  120   0.366   0.344   2.749  1.9306 -1.1239 -0.0633
   41SOL     OW  121   1.882   1.431   1.814  0.8314 -0.1166 -0.6719
   41SOL    HW1  122   1.888   1.372   1.737 -2.0129  2.4818  2.1049
   41SOL    HW2  123   1.814   1.394   1.884 -2.0834 -1.1112  0.9960
   42SOL     OW  124   0.100   0.142   1.756  0.2555 -0.4128  0.4726
   42SOL    HW1  125   0.132   0.233   1.794 -0.3463  0.8783  1.3706
   42SOL    HW2  126   0.142   0.063   1.803  0.3428 -0.3133  0.8592
   43SOL     OW  127   1.394   1.334   1.998 -0.2790  0.7287  0.0792
   43SOL    HW1  128   1.418   1.239   1.969 -0.5324 -0.3354 -0.8873
   43SOL    HW2  129   1.432   1.411   1.940 -0.6305  3.2712 -0.1016
   44SOL     OW  130   3.076   0.232   3.008 -0.0522  0.3112  0.2400
   44SOL    HW1  131   3.054   0.159   2.935 -2.0290  0.9346 -1.0415
   44SOL    HW2  132   3.003   0.245   3.079 -1.8021 -1.6920  1.4249
   45SOL     OW  133   0.381   2.138   1.185 -0.2712  0.4149 -0.2409
   45SOL    HW1  134   0.437   2.137   1.268 -3.0546 -1.6799 -2.7665
   45SOL    HW2  135   0.372   2.037   1.155 -3.6922 -1.4413 -0.0431
   46SOL     OW  136   2.485   2.690   1.696  0.2748  0.8023  0.7856
   46SOL    HW1  137   2.445   2.774   1.650  0.6681  0.3707 -2.3807
   46SOL    HW2  138   2.583   2.685   1.692 -2.0300 -0.3854 -0.1523
   47SOL     OW  139   0.711   1.722   1.159 -0.3392  0.0945 -0.5576
   47SOL    HW1  140   0.723   1.629   1.116 -2.0131 -0.2153 -1.5301
   47SOL    HW2  141   0.677   1.790   1.087  0.5306  0.6943  1.9441
   48SOL     OW  142   0.476   2.623   0.274  0.1768 -0.2173 -0.3101
   48SOL    HW1  143   0.456   2.610   0.373  0.5327  2.2230 -0.3426
   48SOL    HW2  144   0.434   2.703   0.237  2.7320  0.5999  1.1225
   49SOL     OW  145   2.951   1.684   1.886 -0.5213 -0.1451  0.3953
   49SOL    HW1  146   2.908   1.687   1.974  1.5253  1.1189 -1.4324
   49SOL    HW2  147   2.916   1.609   1.824 -2.4655 -1.0159 -0.2398
   50SOL     OW  148   1.546   0.933   0.657 -0.1980 -0.8339 -0.7929
   50SOL    HW1  149   1.618   0.872   0.615  5.1829  0.1510  1.8199
   50SOL    HW2  150   1.574   0.965   0.754 -0.1982 -0.2603 -2.4436
   51SOL     OW  151   1.083   0.580   1.023 -0.0030  0.4951 -0.4565
   51SOL    HW1  152   1.142   0.659   1.054 -3.2258  0.1213 -1.2953
   51SOL    HW2  153   1.005   0.562   1.084  0.3589  0.5114 -2.3339
   52SOL     OW  154   0.932   1.351   0.292  0.0026 -0.2036 -0.2769
   52SOL    HW1  155   1.015   1.336   0.349 -1.0631  0.0827 -0.7130
   52SOL    HW2  156   0.859   1.298   0.330  2.1320  0.8033  0.1971
   53SOL     OW  157   1.294   0.130   2.552  0.2946 -0.4544  0.1593
   53SOL    HW1  158   1.373   0.153   2.612 -1.7428 -0.7178 -0.4015
   53SOL    HW2  159   1.273   0.029   2.553 -2.6655 -1.7184  0.0364
   54SOL     OW  160   1.811   0.935   1.611  0.2196 -0.2028  0.5028
   54SOL    HW1  161   1.721   0.934   1.556 -4.0101 -0.8360 -1.5833
   54SOL    HW2  162   1.898   0.918   1.551  2.1252 -1.2602 -2.1505
   55SOL     OW  163   2.779   2.801   0.404  0.5915 -0.3350  0.0893
   55SOL    HW1  164   2.815   2.731   0.469 -0.4275 -1.0421  0.1789
   55SOL    HW2  165   2.688   2.836   0.435 -2.0134 -0.0138 -0.9217
   56SOL     OW  166   0.848   2.503   1.990  0.1205 -0.2143  0.0961
   56SOL    HW1  167   0.839   2.573   1.918  1.5445 -0.2575  1.1000
   56SOL    HW2  168   0.830   2.407   1.956  0.9372  3.1487  1.2761
   57SOL     OW  169   1.788   0.959   2.614  0.2202 -0.1599  0.0176
   57SOL    HW1  170   1.785   0.942   2.713 -0.4814  0.6500 -3.8595
   57SOL    HW2  171   1.692   0.979   2.587 -1.2108 -0.6143  3.0442
   58SOL     OW  172   0.412   1.152   2.015 -0.4548  0.0206  0.7228
   58SOL    HW1  173   0.344   1.141   1.938  1.9909 -1.5693 -1.8978
   58SOL    HW2  174   0.508   1.165   1.976  3.8535 -0.6442 -2.0277
   59SOL     OW  175   0.552   2.681   2.315 -0.7669 -0.3921  0.4372
   59SOL    HW1  176   0.621   2.746   2.272  2.7588  2.7819  2.0205
   59SOL    HW2  177   0.584   2.588   2.302 -0.4893 -0.3532  0.6668
   60SOL     OW  178   2.695   2.538   0.214  0.1666 -0.2825 -0.2343
   60SOL    HW1  179   2.695   2.639   0.219  1.9267 -2.3939  2.5242
   60SOL    HW2  180   2.599   2.503   0.208  1.2773  1.7928  0.7654
   61SOL     OW  181   0.933   2.530   0.519 -0.4235  0.4303 -0.1893
   61SOL    HW1  182   0.995   2.483   0.453 -1.3000  2.1129  2.1816
   61SOL    HW2  183   0.924   2.632   0.497 -1.3801  0.0575  1.6571
   62SOL     OW  184   1.666   2.389   2.733  0.0932 -0.2753 -0.2301
   62SOL    HW1  185   1.651   2.356   2.637 -1.2337 -1.9380 -2.2790
   62SOL    HW2  186   1.629   2.483   2.752  1.0630  0.0730 -1.5753
   63SOL     OW  187   2.117   0.684   0.081  0.7461  0.0589 -0.0984
   63SOL    HW1  188   2.100   0.682   3.096  1.1631  1.5495 -0.1800
   63SOL    HW2  189   2.216   0.695   0.098 -1.5079  0.9268  1.6859
   64SOL     OW  190   0.823   1.458   2.733 -0.1761 -0.0978 -0.3329
   64SOL    HW1  191   0.732   1.420   2.717 -0.3210 -2.3343 -3.2761
   64SOL    HW2  192   0.820   1.527   2.812 -0.7608  1.5736  2.6979
   65SOL     OW  193   1.214   2.998   1.134 -0.0818  0.0945 -0.0892
   65SOL    HW1  194   1.284   3.073   1.118  0.2985 -0.9722  1.4255
   65SOL    HW2  195   1.186   2.963   1.044 -0.2652  1.9185 -0.6191
   66SOL     OW  196   0.626   1.684   1.633 -0.4198 -0.3020 -0.4851
   66SOL    HW1  197   0.707   1.650   1.586 -1.3576 -0.3251  3.1680
   66SOL    HW2  198   0.632   1.781   1.666 -0.5906  1.9680  0.9212
   67SOL     OW  199   2.329   2.741   2.114  0.0506 -0.0834  0.5788
   67SOL    HW1  200   2.401   2.726   2.182 -1.4011 -2.1256  0.4375
   67SOL    HW2  201   2.348   2.817   2.049 -1.9119 -0.6274  3.1083
   68SOL     OW  202   0.851   1.014   1.776  0.0708 -0.0243 -0.0602
   68SOL    HW1  203   0.811   1.064   1.852  1.0133 -3.4550 -0.4617
   68SOL    HW2  204   0.778   0.957   1.727 -2.0803 -2.0292  0.2189
   69SOL     OW  205   2.444   2.443   0.178  0.0062 -0.2310 -0.5749
   69SOL    HW1  206   2.370   2.508   0.197  0.7535 -2.6424 -1.1265
   69SOL    HW2  207   2.401   2.355   0.147  1.2622  0.8745 -1.1056
   70SOL     OW  208   2.350   0.752   2.806  0.0510  0.0294  0.1179
   70SOL    HW1  209   2.366   0.743   2.705  0.2624  1.6774  0.0204
   70SOL    HW2  210   2.439   0.770   2.853  1.0458  1.9770 -1.7815
   71SOL     OW  211   0.049   2.295   0.531  0.0725 -0.2177 -0.1608
   71SOL    HW1  212   3.064   2.274   0.530 -3.7176 -0.4455 -3.4114
   71SOL    HW2  213   0.108   2.215   0.509 -0.2625  3.8526 -0.9035
   72SOL     OW  214   2.915   1.816   0.524 -0.4752  0.2705 -0.5091
   72SOL    HW1  215   2.976   1.883   0.569 -0.4288 -1.0854 -0.5390
   72SOL    HW2  216   2.973   1.736   0.494  0.5528 -1.0507 -0.2764
   73SOL     OW  217   1.097   0.441   0.630  0.1318  0.9059  0.2672
   73SOL    HW1  218   1.194   0.444   0.601 -1.2459  1.1906 -0.0288
   73SOL    HW2  219   1.074   0.530   0.674  0.0449 -1.4451  1.4138
   74SOL     OW  220   3.082   2.266   2.050  0.1437  0.0529  0.1352
   74SOL    HW1  221   0.001   2.174   2.087 -1.4441 -0.4113 -0.6613
   74SOL    HW2  222   0.022   2.341   2.087 -0.2046 -0.3003 -2.8462
   75SOL     OW  223   1.839   1.681   1.743  0.2518  0.2699  0.4681
   75SOL    HW1  224   1.846   1.583   1.767  0.1857  1.2216  0.9367
   75SOL    HW2  225   1.742   1.709   1.732  3.3624  0.6813  0.4813
   76SOL     OW  226   1.452   2.009   1.243 -0.1445 -0.1134  0.0880
   76SOL    HW1  227   1.501   2.044   1.165 -1.9372 -1.2273  2.9013
   76SOL    HW2  228   1.358   2.052   1.245 -3.1022 -0.8502  1.6289
   77SOL     OW  229   2.505   1.512   2.167  0.0855 -0.2618  0.3245
   77SOL    HW1  230   2.596   1.467   2.165  1.8512 -2.2028 -0.4838
   77SOL    HW2  231   2.497   1.580   2.242 -1.4620 -0.9109  0.1572
   78SOL     OW  232   1.606   0.494   0.739 -0.0570  0.2605 -0.1259
   78SOL    HW1  233   1.599   0.432   0.817  2.8556 -0.8469 -1.8201
   78SOL    HW2  234   1.705   0.531   0.734  0.6099  0.1629 -1.4201
   79SOL     OW  235   2.075   1.528   1.959  0.4188 -0.2050  0.1866
   79SOL    HW1  236   2.142   1.456   1.972 -2.4449  0.2911  2.8017
   79SOL    HW2  237   2.008   1.490   1.891 -1.0143  1.6531 -0.7021
   80SOL     OW  238   1.365   0.253   1.262  0.7778 -0.0680 -0.6451
   80SOL    HW1  239   1.405   0.167   1.218  4.1984 -0.7749 -2.6599
   80SOL    HW2  240   1.305   0.232   1.340  0.1663 -0.6922 -0.6408
   81SOL     OW  241   0.699   2.328   0.507 -0.2838  0.2593 -0.7028
   81SOL    HW1  242   0.773   2.396   0.507  2.3337 -0.6668  0.2129
   81SOL    HW2  243   0.732   2.248   0.564  2.6573 -1.8797  1.6188
   82SOL     OW  244   1.530   0.551   1.726 -0.0054  0.2031  0.2118
   82SOL    HW1  245   1.480   0.599   1.649 -0.2138 -1.3764 -0.0620
   82SOL    HW2  246   1.528   0.448   1.721  0.3400 -1.5481 -1.9131
   83SOL     OW  247   0.496   2.122   0.711  0.3184 -0.3114 -0.0834
   83SOL    HW1  248   0.481   2.197   0.777  0.2482  0.8037 -0.4683
   83SOL    HW2  249   0.590   2.121   0.671  1.7839 -1.2656  1.5221
   84SOL     OW  250   2.637   1.516   2.988  0.1014 -0.3650  0.2563
   84SOL    HW1  251   2.731   1.521   2.951  0.1338  0.0859  2.6795
   84SOL    HW2  252   2.573   1.493   2.910 -1.5491 -0.1883 -2.1747
   85SOL     OW  253   0.153   2.650   1.532 -0.1008  0.2178 -0.1489
   85SOL    HW1  254   0.107   2.727   1.582 -1.2835  0.7811 -1.9199
   85SOL    HW2  255   0.128   2.653   1.432  1.6129  0.3897 -1.0033
   86SOL     OW  256   1.770   2.948   1.028  0.6721  0.7613 -0.4509
   86SOL    HW1  257   1.785   2.865   1.085  0.7540 -0.9570  1.5259
   86SOL    HW2  258   1.861   2.988   1.003 -0.9075  1.4042 -2.0696
   87SOL     OW  259   2.800   1.437   0.567  0.0565 -0.8701  0.1048
   87SOL    HW1  260   2.709   1.427   0.520 -1.3099  0.7429  0.0070
   87SOL    HW2  261   2.786   1.424   0.666  0.0470 -0.3359 -1.0027
   88SOL     OW  262   0.884   0.557   1.253 -0.0918 -0.1623  0.4447
   88SOL    HW1  263   0.917   0.544   1.347  2.3987 -1.6196  1.3932
   88SOL    HW2  264   0.868   0.466   1.211 -0.3099 -1.2108 -0.4239
   89SOL     OW  265   0.887   2.786   1.941  0.0106  0.7443 -0.2189
   89SOL    HW1  266   0.884   2.845   1.859 -1.1564 -0.0006  2.3455
   89SOL    HW2  267   0.981   2.747   1.963 -0.9274 -0.7550  4.0852
   90SOL     OW  268   2.994   1.792   1.288  0.4440  0.1008  0.3981
   90SOL    HW1  269   2.925   1.736   1.232  0.5785 -1.6482 -0.8775
   90SOL    HW2  270   2.969   1.792   1.389  0.4136  0.0353 -1.8440
   91SOL     OW  271   1.116   1.756   1.159 -0.3434 -0.1536  0.3424
   91SOL    HW1  272   1.185   1.732   1.222 -5.0292 -3.7794  0.1241
   91SOL    HW2  273   1.112   1.679   1.091 -0.2467 -0.3800  0.7126
   92SOL     OW  274   2.817   2.777   1.891  0.1015  0.2264  0.3073
   92SOL    HW1  275   2.774   2.731   1.807  1.8371  1.7830  0.8779
   92SOL    HW2  276   2.743   2.823   1.944  0.9773 -0.7283 -0.6812
   93SOL     OW  277   2.899   1.303   2.844  0.1005  0.6624 -0.0173
   93SOL    HW1  278   2.817   1.301   2.791  2.5000 -0.3538 -0.9196
   93SOL    HW2  279   2.971   1.275   2.778 -0.3754  1.8928  1.5337
   94SOL     OW  280   2.356   2.971   1.953 -0.0005  0.0660  0.4191
   94SOL    HW1  281   2.298   3.029   2.016  0.8313 -2.0274  1.3671
   94SOL    HW2  282   2.455   2.995   1.971  1.3709 -1.0389 -1.8105
   95SOL     OW  283   1.756   0.812   2.068  0.8854  0.0745 -0.3341
   95SOL    HW1  284   1.681   0.851   2.127  0.3350  0.9009  1.5264
   95SOL    HW2  285   1.785   0.875   1.995 -1.5777  0.7979  3.2116
   96SOL     OW  286   2.631   0.735   1.617 -0.3994 -0.0828 -0.1534
   96SOL    HW1  287   2.688   0.760   1.697 -0.6544 -2.5875  1.0583
   96SOL    HW2  288   2.692   0.718   1.535 -0.8262 -2.5834  1.8459
   97SOL     OW  289   2.421   3.028   1.471  0.1410 -0.3861  0.1540
   97SOL    HW1  290   2.465   2.953   1.417  2.5468  0.3210 -1.3479
   97SOL    HW2  291   2.354   2.998   1.540  0.0312  3.5393  0.0400
   98SOL     OW  292   2.051   2.577   1.263 -0.0588  0.2379 -0.4594
   98SOL    HW1  293   2.148   2.614   1.281 -1.7292 -0.5572 -1.0132
   98SOL    HW2  294   2.006   2.564   1.352  0.2056 -2.2280  0.7454
   99SOL     OW  295   2.750   0.260   1.638  0.5224  0.0442  0.1036
   99SOL    HW1  296   2.695   0.327   1.693  0.1370 -1.6865 -2.0092
   99SOL    HW2  297   2.804   0.204   1.701 -2.1361  2.4117  0.6104
  100SOL     OW  298   2.203   1.732   2.314 -0.4649  0.4387  0.1280
  100SOL    HW1  299   2.301   1.724   2.321 -1.7921 -2.6540  0.9681
  100SOL    HW2  300   2.166   1.763   2.404 -0.1633  2.0691  0.0188
  101SOL     OW  301   2.113   0.080   0.162 -0.0914  0.1796 -0.5363
  101SOL    HW1  302   2.201   0.056   0.213  1.8814 -0.0811  3.9534
  101SOL    HW2  303   2.123   0.179   0.144  1.5514  0.5796  0.7683
  102SOL     OW  304   0.391   0.607   1.347  0.1175  0.2766 -0.1666
  102SOL    HW1  305   0.344   0.564   1.429  0.4262  0.0417 -0.3546
  102SOL    HW2  306   0.368   0.551   1.268 -1.0223  1.8525 -3.4751
  103SOL     OW  307   2.565   0.066   2.535  0.4744  0.2066  0.0207
  103SOL    HW1  308   2.576   0.053   2.640 -0.0800  0.2576  5.1870
  103SOL    HW2  309   2.536   3.096   2.488  0.7153  1.3659 -2.0974
  104SOL     OW  310   3.099   2.806   1.876 -0.4633 -0.4823  0.2601
  104SOL    HW1  311   0.007   2.715   1.920  0.6111  0.0075  1.6437
  104SOL    HW2  312   2.995   2.814   1.871 -0.1583 -0.3095  0.1070
  105SOL     OW  313   1.378   1.010   2.077 -0.4446 -0.2748  0.3600
  105SOL    HW1  314   1.295   1.037   2.125  0.4717  0.1558  0.1010
  105SOL    HW2  315   1.350   0.938   2.005 -1.1800  0.7328  1.4785
  106SOL     OW  316   1.884   0.604   0.727  0.3917 -0.1103 -0.5887
  106SOL    HW1  317   1.901   0.583   0.825 -2.6700 -0.7189 -0.9819
  106SOL    HW2  318   1.901   0.700   0.698  2.1932 -0.3570 -1.9381
  107SOL     OW  319   0.583   1.100   1.223 -0.2651 -0.4695 -0.5132
  107SOL    HW1  320   0.509   1.033   1.232  1.2177  1.5369 -0.9544
  107SOL    HW2  321   0.680   1.064   1.210 -0.4878 -0.5826 -0.5553
  108SOL     OW  322   3.017   0.287   2.304  0.1794 -0.0749 -0.2212
  108SOL    HW1  323   3.066   0.242   2.227 -0.6427  0.1821 -0.0537
  108SOL    HW2  324   3.080   0.289   2.383  0.9346 -0.1691  0.7352
  109SOL     OW  325   2.037   3.097   3.033 -0.3495  0.3642 -0.7512
  109SOL    HW1  326   2.058   0.006   0.014  1.8390  0.2219 -3.1611
  109SOL    HW2  327   2.016   0.068   2.985  1.0300 -3.0381 -0.4467
  110SOL     OW  328   3.064   1.786   2.885 -0.3940 -0.0859  0.0068
  110SOL    HW1  329   3.059   1.700   2.938  0.9100 -0.7809 -1.3005
  110SOL    HW2  330   3.004   1.857   2.929 -2.8312  1.4119  1.3024
  111SOL     OW  331   2.604   0.301   2.415 -0.3769  0.3073 -0.0419
  111SOL    HW1  332   2.536   0.361   2.461 -0.1296 -3.3497 -0.1311
  111SOL    HW2  333   2.623   0.216   2.466  1.4275  0.7871 -0.7623
  112SOL     OW  334   2.619   2.862   1.009 -0.0542 -0.2771 -0.0784
  112SOL    HW1  335   2.708   2.817   1.013 -1.7815 -1.4849  2.4449
  112SOL    HW2  336   2.622   2.958   0.977 -1.1165 -1.4544  1.4898
  113SOL     OW  337   2.242   2.063   2.153 -0.6822  0.0996  0.2237
  113SOL    HW1  338   2.341   2.076   2.123 -0.5988  0.9563 -1.1293
  113SOL    HW2  339   2.181   2.103   2.085  1.6864 -0.9102  2.1520
  114SOL     OW  340   2.636   0.191   0.489 -0.0291 -0.1409 -0.2519
  114SOL    HW1  341   2.549   0.137   0.494 -1.5525  0.2623  1.6293
  114SOL    HW2  342   2.698   0.169   0.569 -0.6462  1.0444  2.2223
  115SOL     OW  343   2.866   1.827   0.241  0.7103 -0.0672  0.1640
  115SOL    HW1  344   2.852   1.814   0.340  0.2921 -3.3649  1.3932
  115SOL    HW2  345   2.781   1.824   0.188  0.2929 -2.2444 -2.0701
  116SOL     OW  346   3.048   1.352   2.166  0.0157 -0.3652  0.7365
  116SOL    HW1  347   3.102   1.416   2.112  0.0469 -0.6451 -0.3215
  116SOL    HW2  348   3.077   1.338   2.262 -2.4316 -1.8512  1.6581
  117SOL     OW  349   2.137   0.126   0.922 -0.1384 -0.2746 -0.0786
  117SOL    HW1  350   2.075   0.048   0.942  1.6270  0.1411  0.4100
  117SOL    HW2  351   2.179   0.165   1.009  0.8580  2.7959  3.9040
  118SOL     OW  352   0.291   2.262   1.743 -0.2005  0.0167  0.2866
  118SOL    HW1  353   0.197   2.233   1.757  1.3979  2.2029 -1.6439
  118SOL    HW2  354   0.354   2.217   1.806  0.2930 -0.0987 -0.8588
  119SOL     OW  355   1.161   2.139   1.494 -0.2772  0.1273 -0.2867
  119SOL    HW1  356   1.186   2.156   1.399 -0.4912  0.0883  1.2825
  119SOL    HW2  357   1.066   2.102   1.485  0.3591 -3.1547  0.5462
  120SOL     OW  358   0.286   1.804   1.382 -0.0259  0.2579  0.0971
  120SOL    HW1  359   0.230   1.810   1.464  0.7539  0.7124 -1.4233
  120SOL    HW2  360   0.386   1.821   1.393 -1.3371 -0.0899  2.3139
  121SOL     OW  361   2.103   1.318   0.995 -0.1130 -0.4242 -0.1651
  121SOL    HW1  362   2.033   1.289   1.062 -0.7512  3.0670  0.6960
  121SOL    HW2  363   2.160   1.404   1.023  1.5783  4.1681  0.1396
  122SOL     OW  364   2.263   2.057   3.014  0.5831  0.0259 -0.4539
  122SOL    HW1  365   2.183   1.998   3.007  0.9681  1.5363  1.5892
  122SOL    HW2  366   2.287   2.101   2.923  0.9408  0.9252 -0.5602
  123SOL     OW  367   2.942   2.971   0.628 -0.0256 -0.3308  0.2760
  123SOL    HW1  368   2.985   2.990   0.716 -0.2665 -0.6747  1.9014
  123SOL    HW2  369   2.934   2.869   0.613  1.0511  0.2255 -1.2906
  124SOL     OW  370   1.144   1.075   0.085 -0.1847 -0.0792  0.0526
  124SOL    HW1  371   1.044   1.095   0.105  1.9109 -1.0124 -1.6201
  124SOL    HW2  372   1.146   0.975   0.057  1.8718 -3.9645  2.5470
  125SOL     OW  373   0.001   1.514   2.409  0.4592 -0.3012  0.6422
  125SOL    HW1  374   0.076   1.577   2.389 -1.2201  0.4408 -0.4555
  125SOL    HW2  375   0.033   1.419   2.397  0.5656  0.8142  1.9000
  126SOL     OW  376   0.030   2.550   0.494 -0.1566  0.3591 -0.0007
  126SOL    HW1  377   0.037   2.587   0.402  1.2428 -0.4138  1.3681
  126SOL    HW2  378   0.044   2.447   0.491  0.5200 -1.2589  0.2708
  127SOL     OW  379   3.007   1.571   0.449  0.1965  0.1723  0.2783
  127SOL    HW1  380   2.928   1.519   0.490 -2.0977  2.6481 -1.0560
  127SOL    HW2  381   3.083   1.504   0.431 -0.0194 -0.3756 -0.0029
  128SOL     OW  382   1.142   1.231   0.484 -0.4476 -0.4739 -0.0540
  128SOL    HW1  383   1.092   1.270   0.566  3.0148  1.0098  1.1979
  128SOL    HW2  384   1.121   1.133   0.472  1.1836  0.6533 -1.0144
  129SOL     OW  385   2.100   2.098   1.624 -0.0989  0.2958 -0.4034
  129SOL    HW1  386   2.060   2.009   1.663  1.2917 -0.7499 -0.0536
  129SOL    HW2  387   2.022   2.154   1.600  0.4990  1.6348  0.0845
  130SOL     OW  388   1.921   0.997   0.679 -0.4099  0.4214 -0.1665
  130SOL    HW1  389   1.841   0.993   0.746  0.4171 -0.8373  1.2394
  130SOL    HW2  390   1.971   1.083   0.685  0.2442 -2.9456 -0.8311
  131SOL     OW  391   3.085   0.918   2.760 -0.2819 -0.3326 -0.1798
  131SOL    HW1  392   3.028   0.925   2.846 -1.1396  1.4510  2.0078
  131SOL    HW2  393   0.002   1.013   2.727 -1.2460  2.3069 -0.1227
  132SOL     OW  394   1.701   1.326   2.050  0.1185 -0.2568 -0.2841
  132SOL    HW1  395   1.661   1.257   1.989  0.6346 -1.2879 -0.1050
  132SOL    HW2  396   1.645   1.353   2.132 -0.5955 -1.1988  0.9998
  133SOL     OW  397   3.079   1.157   3.108  0.1041  0.2573 -0.8194
  133SOL    HW1  398   3.006   1.193   3.046 -0.4618  0.3092  0.8964
  133SOL    HW2  399   3.064   1.197   0.085  1.2323  2.0350 -2.5557
  134SOL     OW  400   2.863   0.880   0.724 -0.2687 -0.4359 -0.8245
  134SOL    HW1  401   2.901   0.932   0.647  1.0135  0.8310 -1.4958
  134SOL    HW2  402   2.911   0.786   0.723 -0.2399 -2.0230 -0.3564
  135SOL     OW  403   2.001   1.010   3.001  0.0319 -0.7749 -0.4677
  135SOL    HW1  404   2.103   0.987   2.985  0.9046  2.0444 -1.8223
  135SOL    HW2  405   1.990   1.111   2.999 -2.9395  0.0597 -2.0256
  136SOL     OW  406   1.913   1.953   1.817 -0.1579  0.3310  0.3611
  136SOL    HW1  407   1.893   1.852   1.809  1.5541 -2.5746 -2.1643
  136SOL    HW2  408   1.837   2.003   1.862  0.6015  1.7283  0.8644
  137SOL     OW  409   2.161   2.547   0.589  0.3316 -0.2983  0.8698
  137SOL    HW1  410   2.199   2.559   0.678 -0.1700 -0.6832 -2.1666
  137SOL    HW2  411   2.067   2.507   0.587  0.1676  1.8289  1.7732
  138SOL     OW  412   2.338   0.344   1.585 -0.5721  0.0482  0.3167
  138SOL    HW1  413   2.240   0.361   1.588  1.1246  3.0115 -1.0648
  138SOL    HW2  414   2.380   0.429   1.621 -1.6129 -1.6077  0.8889
  139SOL     OW  415   2.622   0.068   2.796  0.1406 -0.0134 -0.4658
  139SOL    HW1  416   2.536   0.077   2.856 -2.2128  0.2679 -0.2381
  139SOL    HW2  417   2.682   0.146   2.817 -1.0394 -0.5037  1.6882
  140SOL     OW  418   1.115   1.408   2.426 -0.2864  0.3801 -0.2786
  140SOL    HW1  419   1.035   1.348   2.453 -1.1835 -1.1603  1.2309
  140SOL    HW2  420   1.174   1.415   2.510  0.4860  0.3400 -1.0502
  141SOL     OW  421   0.671   0.389   2.310  0.6167  0.1420  0.1076
  141SOL    HW1  422   0.599   0.436   2.256 -0.3643 -2.0938  1.7186
  141SOL    HW2  423   0.745   0.360   2.248 -0.8797  2.3107  1.2469
  142SOL     OW  424   2.674   2.516   2.901  0.2850  0.6260 -0.3243
  142SOL    HW1  425   2.731   2.454   2.958  1.7411 -1.3344  1.0002
  142SOL    HW2  426   2.729   2.599   2.892 -1.0927 -1.1317  0.3923
  143SOL     OW  427   0.854   2.004   0.339 -0.2681 -0.4204 -0.6273
  143SOL    HW1  428   0.795   2.083   0.303 -0.7825  2.2291 -0.0346
  143SOL    HW2  429   0.955   2.018   0.330  0.4804 -1.4509  0.9193
  144SOL     OW  430   1.306   2.534   2.926  1.3622 -0.1315 -0.1973
  144SOL    HW1  431   1.273   2.444   2.880 -1.5166 -3.7817 -1.0299
  144SOL    HW2  432   1.328   2.521   3.022 -0.9462  1.2063 -1.7421
  145SOL     OW  433   1.485   1.801   2.596 -0.6385  0.0788  0.1266
  145SOL    HW1  434   1.507   1.897   2.629  2.1824 -0.7888 -0.7102
  145SOL    HW2  435   1.551   1.777   2.519  1.2870  2.3161  0.0841
  146SOL     OW  436   2.722   2.966   2.940  0.0484 -0.0225  0.2956
  146SOL    HW1  437   2.786   2.993   3.016 -0.5864  0.8940 -1.9040
  146SOL    HW2  438   2.700   3.046   2.883 -1.3363 -1.4868 -1.2467
  147SOL     OW  439   2.943   1.455   1.039 -0.3278 -0.1449  0.6629
  147SOL    HW1  440   3.007   1.513   0.979 -0.1668 -1.2050  1.4988
  147SOL    HW2  441   2.891   1.511   1.106 -0.7968 -0.7428  0.5632
  148SOL     OW  442   1.839   2.771   0.060  0.2245  0.0651 -0.2190
  148SOL    HW1  443   1.736   2.765   0.061 -1.1992 -1.0585  0.7600
  148SOL    HW2  444   1.878   2.786   3.080  0.0221  0.1435  1.4376
  149SOL     OW  445   0.469   1.908   2.735  0.3199 -0.0461  0.5253
  149SOL    HW1  446   0.545   1.874   2.789 -3.0637  2.4978 -0.8794
  149SOL    HW2  447   0.441   2.002   2.755 -0.8142 -0.1202  0.9910
  150SOL     OW  448   0.329   2.370   0.316  0.9069  0.2563 -0.0630
  150SOL    HW1  449   0.244   2.401   0.262  1.0613  2.2825 -3.7965
  150SOL    HW2  450   0.406   2.358   0.254 -1.3266  1.9132  2.5288
  151SOL     OW  451   0.468   1.179   0.271  0.3340  0.3543 -0.1840
  151SOL    HW1  452   0.427   1.086   0.254  1.8473 -1.3089 -0.4975
  151SOL    HW2  453   0.430   1.228   0.353 -0.2143  1.2370 -0.6148
  152SOL     OW  454   2.685   1.891   0.634 -0.3835  0.6053  0.2640
  152SOL    HW1  455   2.769   1.847   0.590  0.7471 -2.4500  0.9849
  152SOL    HW2  456   2.632   1.951   0.575  1.7145 -1.0075  0.3272
  153SOL     OW  457   1.785   2.048   0.600  0.5157  0.3456 -0.1650
  153SOL    HW1  458   1.839   2.111   0.655 -0.7069 -2.0507  2.4841
  153SOL    HW2  459   1.805   2.051   0.496 -0.3468 -1.8559  0.6250
  154SOL     OW  460   0.896   2.558   0.809 -0.0020  0.7170  0.2791
  154SOL    HW1  461   0.910   2.566   0.706 -1.6354 -0.2890 -1.2813
  154SOL    HW2  462   0.799   2.537   0.825 -0.7928  2.7463 -0.2039
  155SOL     OW  463   2.771   1.671   0.875  0.1607 -0.1062  0.2190
  155SOL    HW1  464   2.746   1.573   0.867  1.0819 -1.0483  1.2466
  155SOL    HW2  465   2.874   1.685   0.884  2.2660  1.8896  1.4715
  156SOL     OW  466   2.737   2.258   0.223 -0.1941  0.0300  0.1459
  156SOL    HW1  467   2.672   2.180   0.200 -2.2581 -1.5877 -1.5695
  156SOL    HW2  468   2.692   2.345   0.198  0.5993 -1.1369 -2.1770
  157SOL     OW  469   0.555   2.080   1.392  0.1640  0.3296 -0.4402
  157SOL    HW1  470   0.637   2.136   1.388 -0.2064 -0.9978 -0.5498
  157SOL    HW2  471   0.568   1.979   1.384  0.7080 -1.5180  0.0757
  158SOL     OW  472   1.496   0.601   0.345 -0.2233 -0.6062  0.4523
  158SOL    HW1  473   1.554   0.643   0.422  0.4392  0.0778  2.2306
  158SOL    HW2  474   1.488   0.503   0.355  0.7650  1.7831  1.3124
  159SOL     OW  475   1.175   0.685   0.346  0.1377  0.5555  0.5758
  159SOL    HW1  476   1.242   0.650   0.413 -2.1800  0.4370  0.3426
  159SOL    HW2  477   1.197   0.643   0.259  0.6784 -1.2591  0.6537
  160SOL     OW  478   0.759   1.375   0.553  0.0121 -0.3641 -0.2001
  160SOL    HW1  479   0.668   1.379   0.604 -0.4268 -0.4943  1.2059
  160SOL    HW2  480   0.842   1.348   0.600 -0.7852 -0.6309 -0.6590
  161SOL     OW  481   0.130   2.491   2.756  0.1008  0.0603 -0.3474
  161SOL    HW1  482   0.059   2.436   2.807 -1.3538  1.1590  3.3418
  161SOL    HW2  483   0.188   2.427   2.704  1.1601  0.3143 -0.8269
  162SOL     OW  484   0.242   2.556   1.053  0.2032  0.3427  0.2164
  162SOL    HW1  485   0.240   2.498   1.139  1.5901 -0.6443  1.4930
  162SOL    HW2  486   0.254   2.497   0.969  1.0323  0.6741  1.5582
  163SOL     OW  487   2.972   0.444   2.742  0.1332 -0.1535  0.3719
  163SOL    HW1  488   2.957   0.503   2.661  0.3295 -2.9393 -0.5094
  163SOL    HW2  489   3.041   0.476   2.812 -2.1784 -0.2773 -0.6655
  164SOL     OW  490   0.579   3.050   2.795 -0.2048 -0.2820  0.0856
  164SOL    HW1  491   0.476   3.035   2.795 -1.5338 -0.7625 -1.1134
  164SOL    HW2  492   0.615   2.990   2.719  0.4687  0.6459 -0.8625
  165SOL     OW  493   2.457   0.550   1.700  0.0222  0.2559 -0.0499
  165SOL    HW1  494   2.370   0.603   1.710  2.3543  2.1575 -1.0883
  165SOL    HW2  495   2.534   0.612   1.674  2.9437  1.4729 -3.4674
  166SOL     OW  496   1.913   2.329   1.713  0.5844  0.9156 -0.4546
  166SOL    HW1  497   1.838   2.292   1.775 -1.8477  2.5734  1.7041
  166SOL    HW2  498   2.006   2.320   1.754 -0.6223  2.3615 -1.5252
  167SOL     OW  499   0.668   1.113   2.444  0.1883 -0.8466  0.1503
  167SOL    HW1  500   0.615   1.138   2.526 -0.1054  1.3273  1.8002
  167SOL    HW2  501   0.673   1.016   2.428  1.8135  4.0470  0.7020
  168SOL     OW  502   2.249   0.057   2.138  0.0255  0.1450  0.1505
  168SOL    HW1  503   2.186   0.129   2.177 -1.6683 -0.3348 -3.1896
  168SOL    HW2  504   2.346   0.065   2.176 -0.0867 -0.4608  0.8431
  169SOL     OW  505   0.316   0.935   0.247  0.2062  0.0330  0.0343
  169SOL    HW1  506   0.388   0.868   0.227  1.8274  3.0538  1.2510
  169SOL    HW2  507   0.245   0.925   0.171 -4.6677  0.3447 -0.4238
  170SOL     OW  508   0.025   1.526   1.990 -0.0285  0.3619  0.1396
  170SOL    HW1  509   0.100   1.509   1.920  1.4124  3.8898  0.7708
  170SOL    HW2  510   3.058   1.568   1.948 -1.6760  0.4106  0.1214
  171SOL     OW  511   1.114   2.259   2.149  0.2166  0.3526 -0.3821
  171SOL    HW1  512   1.068   2.349   2.163 -0.3626 -1.7944  2.0403
  171SOL    HW2  513   1.207   2.274   2.182  0.0434  1.1294 -0.5675
  172SOL     OW  514   1.027   2.517   2.233  0.0945  0.1302  0.7957
  172SOL    HW1  515   0.962   2.534   2.150 -2.7472 -0.6645 -4.0015
  172SOL    HW2  516   1.104   2.588   2.229  3.6791  0.0186  0.1428
  173SOL     OW  517   1.450   2.395   0.725  0.3016 -0.0409  0.1213
  173SOL    HW1  518   1.422   2.312   0.777 -4.4389  1.9427 -2.2600
  173SOL    HW2  519   1.401   2.479   0.757 -1.1711  4.0805  0.3792
  174SOL     OW  520   2.353   0.125   0.274 -0.2267 -0.3092 -0.3378
  174SOL    HW1  521   2.350   0.087   0.366 -0.8193  2.3915 -2.6818
  174SOL    HW2  522   2.391   0.219   0.271 -1.3569 -1.1338  1.1926
  175SOL     OW  523   1.008   1.758   0.450 -0.2665  0.7534 -0.5190
  175SOL    HW1  524   1.067   1.787   0.369  1.3187  1.1932  1.9864
  175SOL    HW2  525   0.919   1.717   0.413 -0.6828  0.2991 -0.1637
  176SOL     OW  526   0.507   1.601   0.691  0.4408 -0.3347  0.2372
  176SOL    HW1  527   0.582   1.663   0.727  0.0516 -1.0287 -1.8329
  176SOL    HW2  528   0.441   1.654   0.635  2.3928  1.3406  0.9387
  177SOL     OW  529   1.191   1.219   1.463  0.4116 -0.2084 -0.1763
  177SOL    HW1  530   1.138   1.253   1.544  0.2464 -0.6833 -0.5142
  177SOL    HW2  531   1.287   1.211   1.495 -1.0322 -1.9958 -1.5686
  178SOL     OW  532   2.499   1.669   0.608  0.3532 -0.5448  0.4903
  178SOL    HW1  533   2.569   1.731   0.645  1.6618 -0.0086 -4.3230
  178SOL    HW2  534   2.514   1.667   0.506  3.0935 -0.6291  0.9015
  179SOL     OW  535   1.023   2.541   2.867  0.1627 -0.3411  0.2558
  179SOL    HW1  536   1.117   2.512   2.846  0.8005  0.8939  1.4372
  179SOL    HW2  537   0.997   2.641   2.866 -2.9844  1.8583 -0.9029
  180SOL     OW  538   1.957   1.696   2.155  0.4664 -0.0340  0.3397
  180SOL    HW1  539   2.028   1.729   2.218  0.7275  1.3951 -0.4827
  180SOL    HW2  540   1.991   1.616   2.096  2.2461 -1.5476 -2.8624
  181SOL     OW  541   0.707   0.856   2.372  0.1688 -0.5105 -0.2883
  181SOL    HW1  542   0.641   0.843   2.292 -0.5940  0.9224  2.3927
  181SOL    HW2  543   0.780   0.787   2.371 -1.5535  0.7630 -0.1313
  182SOL     OW  544   2.919   1.016   2.352  0.6359  0.5203  0.0604
  182SOL    HW1  545   2.835   0.973   2.396 -2.3678 -1.1240  1.1658
  182SOL    HW2  546   2.999   0.975   2.397 -4.8761  1.3133  0.6632
  183SOL     OW  547   1.535   0.873   2.234  0.0221 -0.2118 -0.0192
  183SOL    HW1  548   1.496   0.785   2.259  3.0029  3.0765 -0.0585
  183SOL    HW2  549   1.477   0.926   2.173 -0.1113 -2.1517  0.5303
  184SOL     OW  550   0.399   0.621   1.785  0.1982  0.2384  0.3976
  184SOL    HW1  551   0.489   0.668   1.784  5.3963 -0.0296 -2.7270
  184SOL    HW2  552   0.384   0.571   1.875  0.3439 -0.0519  3.1317
  185SOL     OW  553   2.059   1.929   0.843  0.1345  0.4188 -0.5816
  185SOL    HW1  554   2.136   1.955   0.782  0.2199  2.3719  1.7787
  185SOL    HW2  555   2.080   1.948   0.942  1.8152  2.6035 -0.4688
  186SOL     OW  556   0.415   1.890   0.445 -0.0482  0.0660  0.0998
  186SOL    HW1  557   0.456   1.879   0.355  1.7370 -2.5387  0.6035
  186SOL    HW2  558   0.369   1.804   0.466 -1.5998  1.5863 -2.4742
  187SOL     OW  559   2.001   1.987   0.248  0.1214 -0.2452 -0.1973
  187SOL    HW1  560   2.093   2.011   0.285 -0.9010  0.1370  0.9318
  187SOL    HW2  561   2.004   1.989   0.147 -0.9353 -0.5611 -1.4046
  188SOL     OW  562   0.894   2.292   0.856 -0.4175 -0.1830  0.0331
  188SOL    HW1  563   0.977   2.245   0.898 -1.2322  0.0071  0.4630
  188SOL    HW2  564   0.905   2.393   0.834 -0.9008  1.4762  0.0102
  189SOL     OW  565   1.965   1.444   2.791 -0.6162  0.2513 -0.0306
  189SOL    HW1  566   2.028   1.368   2.770 -0.2677  0.6263  2.9100
  189SOL    HW2  567   1.873   1.421   2.756 -0.8450  0.3447  1.1447
  190SOL     OW  568   1.085   2.077   2.410 -0.5112  0.0274 -0.0153
  190SOL    HW1  569   1.173   2.025   2.433 -0.0675 -1.7969  0.6449
  190SOL    HW2  570   1.101   2.170   2.376 -0.4335 -0.1451 -0.9551
  191SOL     OW  571   2.235   0.741   1.231  0.0891 -0.2574 -0.4888
  191SOL    HW1  572   2.213   0.716   1.328  0.0510  1.5918 -0.9002
  191SOL    HW2  573   2.329   0.784   1.223  1.0541 -1.1553  1.0185
  192SOL     OW  574   2.645   0.407   1.838  0.1237  0.2643 -0.4314
  192SOL    HW1  575   2.556   0.442   1.796 -0.9027 -0.0448 -0.6430
  192SOL    HW2  576   2.676   0.468   1.916 -1.3543 -1.7721  3.7356
  193SOL     OW  577   0.687   0.032   0.704 -0.2154  1.0859  0.2605
  193SOL    HW1  578   0.724   3.096   0.624  0.5753 -1.1491 -1.5771
  193SOL    HW2  579   0.757   0.031   0.776 -0.6121  0.1931  1.3789
  194SOL     OW  580   1.253   2.291   1.687  0.8096 -0.0425  0.2156
  194SOL    HW1  581   1.201   2.230   1.619  1.2321 -0.3207 -3.0512
  194SOL    HW2  582   1.204   2.379   1.712 -0.1503  1.5651  0.8191
  195SOL     OW  583   2.834   0.943   0.979  0.3212  0.2227  0.1938
  195SOL    HW1  584   2.764   1.023   0.983 -1.4629 -1.3626  1.0836
  195SOL    HW2  585   2.841   0.909   0.881  2.2634 -2.2652 -1.5711
  196SOL     OW  586   1.011   1.872   1.723 -0.6752 -0.2850 -0.2084
  196SOL    HW1  587   0.958   1.933   1.655 -0.2613  0.5758 -3.5278
  196SOL    HW2  588   0.962   1.882   1.812  1.9369  1.6790 -0.2197
  197SOL     OW  589   0.244   0.804   2.336  0.1772 -0.3639 -0.6763
  197SOL    HW1  590   0.219   0.868   2.261  0.9660  1.8000  0.4311
  197SOL    HW2  591   0.206   0.712   2.321 -0.8938  0.1952 -2.1478
  198SOL     OW  592   1.431   0.781   0.161 -0.1810  0.9604  0.3865
  198SOL    HW1  593   1.463   0.706   0.226  2.7626 -1.6795 -1.9789
  198SOL    HW2  594   1.385   0.853   0.215 -0.0503 -2.4678 -0.7183
  199SOL     OW  595   2.716   0.572   2.046 -0.1252  0.3425  0.2500
  199SOL    HW1  596   2.750   0.523   2.133  2.1358  0.4482  4.1942
  199SOL    HW2  597   2.672   0.663   2.075  1.1071  1.3935  0.6797
  200SOL     OW  598   2.242   2.489   2.505 -0.9925 -0.4917 -0.5401
  200SOL    HW1  599   2.282   2.582   2.504 -1.3832  0.4397  0.5252
  200SOL    HW2  600   2.216   2.462   2.599  4.2342  1.6003  2.5625
  201SOL     OW  601   2.307   0.155   1.370  0.3651  0.2429 -0.2120
  201SOL    HW1  602   2.316   0.231   1.437 -1.6793 -4.1396 -1.6847
  201SOL    HW2  603   2.341   0.071   1.405 -1.3895  1.2201  0.2583
  202SOL     OW  604   2.952   2.828   0.173 -0.1857  0.2917 -0.1836
  202SOL    HW1  605   2.911   2.908   0.127  0.6768  1.7071  2.5694
  202SOL    HW2  606   2.912   2.831   0.267  2.4830 -2.2500 -0.3406
  203SOL     OW  607   1.020   2.184   2.734  0.0701 -0.2311 -0.1620
  203SOL    HW1  608   0.924   2.192   2.699 -0.1031  2.4996 -1.9630
  203SOL    HW2  609   1.055   2.089   2.732 -1.0265  1.9996 -0.5249
  204SOL     OW  610   0.506   1.872   2.448  0.3185  0.0839 -0.6222
  204SOL    HW1  611   0.600   1.911   2.439 -1.0461  2.8072 -1.3905
  204SOL    HW2  612   0.480   1.855   2.546 -1.2893  1.8333  0.6358
  205SOL     OW  613   0.864   1.028   1.226 -0.1303  0.4632 -0.3408
  205SOL    HW1  614   0.824   0.937   1.195 -0.1510  1.0313 -0.4998
  205SOL    HW2  615   0.949   1.015   1.281 -0.9180 -0.7309  0.8938
  206SOL     OW  616   0.095   0.577   2.562 -0.0003  0.1159 -0.3695
  206SOL    HW1  617   3.113   0.608   2.548  1.1629 -1.6800 -0.8932
  206SOL    HW2  618   0.149   0.558   2.476  0.2581  1.3719  0.5269
  207SOL     OW  619   1.772   2.299   2.095 -0.1146  0.6607  0.3597
  207SOL    HW1  620   1.869   2.333   2.087  4.4862  0.1088 -1.0742
  207SOL    HW2  621   1.729   2.298   2.003  1.4214  0.4712  1.6643
  208SOL     OW  622   1.069   2.691   1.476 -0.3348 -0.9360  0.3858
  208SOL    HW1  623   1.013   2.711   1.392 -0.8298  2.1172  1.3161
  208SOL    HW2  624   1.149   2.750   1.470  0.3815  2.4119 -2.0398
  209SOL     OW  625   1.135   1.416   3.054  0.9873  0.1581 -0.0173
  209SOL    HW1  626   1.200   1.340   3.041 -0.9384  1.5894  1.1412
  209SOL    HW2  627   1.103   1.445   2.959  2.6661  0.0090 -2.4058
  210SOL     OW  628   2.322   0.669   0.848 -0.2027 -0.1478  0.1371
  210SOL    HW1  629   2.411   0.707   0.867  0.3563 -1.6146 -1.7363
  210SOL    HW2  630   2.283   0.719   0.768  0.1421  0.1902  1.3447
  211SOL     OW  631   1.471   2.544   0.477 -0.1990 -0.0860  0.2835
  211SOL    HW1  632   1.390   2.601   0.450 -1.6662  1.1495 -1.3335
  211SOL    HW2  633   1.453   2.490   0.561 -1.0291  1.6424 -1.3304
  212SOL     OW  634   1.953   2.175   0.777  0.2629 -0.1911 -0.0644
  212SOL    HW1  635   2.026   2.248   0.797  0.6744  1.3519 -0.4621
  212SOL    HW2  636   1.988   2.084   0.798 -1.1587  2.8412 -0.4645
  213SOL     OW  637   1.763   0.689   2.806 -0.0282 -0.4385 -0.1055
  213SOL    HW1  638   1.689   0.642   2.858 -0.3652  1.7174  0.9620
  213SOL    HW2  639   1.764   0.787   2.835 -0.0385  2.3182 -0.0345
  214SOL     OW  640   0.794   1.861   1.939 -1.0006 -0.2371  0.0048
  214SOL    HW1  641   0.729   1.904   1.875 -0.7102 -1.5376 -0.3323
  214SOL    HW2  642   0.793   1.906   2.029 -0.7692 -0.7551 -0.2085
  215SOL     OW  643   0.137   1.441   0.386  0.3737 -0.3745 -0.2766
  215SOL    HW1  644   0.209   1.473   0.323  0.7835  0.9307  0.2511
  215SOL    HW2  645   0.149   1.489   0.476  0.0992  1.2454  1.8132
  216SOL     OW  646   0.175   2.883   2.527 -0.1526 -0.0372 -0.0184
  216SOL    HW1  647   0.275   2.880   2.549  1.8201  1.4136  1.6714
  216SOL    HW2  648   0.117   2.821   2.582  0.5770 -0.4808 -1.0239
  217SOL     OW  649   2.582   1.031   1.325  0.3271  0.1078  0.2287
  217SOL    HW1  650   2.536   0.998   1.407 -1.1601  2.9402 -1.4708
  217SOL    HW2  651   2.658   1.094   1.345 -0.7232  2.5784 -0.1867
  218SOL     OW  652   1.304   1.587   2.144 -0.2074 -0.1718  0.1172
  218SOL    HW1  653   1.369   1.617   2.071  0.5769 -0.5687  1.2232
  218SOL    HW2  654   1.231   1.520   2.121  1.0788 -0.4146 -0.0956
  219SOL     OW  655   2.220   1.488   0.274  0.1296 -0.0919  0.0262
  219SOL    HW1  656   2.308   1.462   0.230  0.6444  1.9901  0.6658
  219SOL    HW2  657   2.162   1.407   0.297 -2.4302 -0.6386  1.1620
  220SOL     OW  658   2.171   1.049   0.193  0.1822 -1.5344  0.0258
  220SOL    HW1  659   2.263   1.030   0.159 -1.1800  0.5285  0.9624
  220SOL    HW2  660   2.108   1.061   0.114  0.9376 -0.1672 -1.0066
  221SOL     OW  661   0.093   0.322   0.130  0.1646 -0.2119  0.1914
  221SOL    HW1  662   0.127   0.234   0.171 -0.7194 -1.8290  0.9581
  221SOL    HW2  663   0.052   0.310   0.034 -0.0979  1.2773 -3.3441
  222SOL     OW  664   1.301   1.525   0.625 -0.4246 -0.6607  0.3892
  222SOL    HW1  665   1.362   1.602   0.610 -2.9713 -0.7887 -1.9987
  222SOL    HW2  666   1.201   1.551   0.636 -2.9257  0.9542  0.9279
  223SOL     OW  667   0.729   0.191   0.057 -0.3914 -0.6208 -0.1987
  223SOL    HW1  668   0.766   0.096   0.067  3.7157 -2.2845 -1.8803
  223SOL    HW2  669   0.715   0.206   3.069  2.1453 -0.5056 -2.0903
  224SOL     OW  670   1.819   0.134   1.215  0.3670  0.2867 -0.5001
  224SOL    HW1  671   1.770   0.103   1.300  1.5336  0.0028  1.5571
  224SOL    HW2  672   1.809   0.067   1.141  0.8398  0.3898  1.9378
  225SOL     OW  673   0.678   2.637   1.333  0.2663 -0.3487  0.1282
  225SOL    HW1  674   0.666   2.654   1.234 -0.3708  1.2817 -0.6934
  225SOL    HW2  675   0.590   2.595   1.372  0.1963  2.8537 -1.2947
  226SOL     OW  676   0.949   1.552   0.086  0.2001  0.3066 -0.5445
  226SOL    HW1  677   0.936   1.502   0.173 -0.6901 -1.6724 -2.4429
  226SOL    HW2  678   1.022   1.505   0.027  2.5105 -2.6460 -1.0052
  227SOL     OW  679   0.846   1.597   0.873 -0.5712 -0.0149  0.4200
  227SOL    HW1  680   0.789   1.666   0.835  0.3479 -1.7024  2.4101
  227SOL    HW2  681   0.805   1.538   0.947  0.8570 -0.5617  0.5673
  228SOL     OW  682   0.283   1.703   0.562  0.1852 -0.4830  0.3847
  228SOL    HW1  683   0.224   1.790   0.566 -1.3399  0.6710  1.8084
  228SOL    HW2  684   0.227   1.622   0.585 -1.2227  0.1674  0.1884
  229SOL     OW  685   2.428   0.380   2.759  0.3904  0.5079  0.0143
  229SOL    HW1  686   2.337   0.376   2.719  0.2372  1.3395 -1.9384
  229SOL    HW2  687   2.428   0.359   2.861  0.0425 -0.5388  1.5701
  230SOL     OW  688   1.847   1.225   0.459  0.8587 -0.2495 -0.2057
  230SOL    HW1  689   1.837   1.304   0.522 -0.9776 -0.1814  1.8785
  230SOL    HW2  690   1.760   1.175   0.442 -0.5245  0.4261  1.3724
  231SOL     OW  691   1.292   1.455   2.622  0.5507 -0.6960  0.1000
  231SOL    HW1  692   1.326   1.500   2.536  0.1639  0.1459 -0.2858
  231SOL    HW2  693   1.370   1.441   2.682 -1.1645  1.2307 -1.6831
  232SOL     OW  694   2.413   2.166   0.852 -0.8784  0.3268  0.5197
  232SOL    HW1  695   2.454   2.124   0.933  2.7526  0.3074 -1.3427
  232SOL    HW2  696   2.487   2.218   0.807 -0.9656 -3.7645  2.7667
  233SOL     OW  697   0.457   2.470   0.545 -0.6398 -0.4915 -0.4867
  233SOL    HW1  698   0.552   2.431   0.532  1.6943 -2.2022 -1.6636
  233SOL    HW2  699   0.397   2.436   0.469 -1.3342 -0.7235 -1.1332
  234SOL     OW  700   0.539   0.616   2.710  0.1706 -0.0630  0.7844
  234SOL    HW1  701   0.516   0.697   2.648  1.3145  1.2872 -0.5741
  234SOL    HW2  702   0.603   0.644   2.783 -0.8137 -1.7379 -0.0678
  235SOL     OW  703   2.795   0.433   2.263  0.1869  0.2656  0.1832
  235SOL    HW1  704   2.719   0.383   2.306  1.0399 -2.0290  0.9106
  235SOL    HW2  705   2.875   0.373   2.255  1.2371  0.5703  1.9208
  236SOL     OW  706   1.790   2.688   1.211  0.0265 -0.3217 -0.6466
  236SOL    HW1  707   1.887   2.658   1.235 -0.6588 -1.9484 -0.1636
  236SOL    HW2  708   1.727   2.609   1.191 -0.0309  1.6845  0.0003
  237SOL     OW  709   0.942   1.882   2.309 -0.2302 -0.7703  0.0780
  237SOL    HW1  710   1.002   1.948   2.356 -0.8319 -1.4058 -0.9778
  237SOL    HW2  711   0.947   1.797   2.368  1.0773  0.0912 -2.3627
  238SOL     OW  712   1.225   0.441   1.960 -0.2287  0.2350  0.0445
  238SOL    HW1  713   1.153   0.506   1.974  0.6725 -1.1766  0.4806
  238SOL    HW2  714   1.241   0.397   2.050  1.5368 -1.9409 -1.6530
  239SOL     OW  715   0.430   2.341   2.211 -0.0831 -0.2068 -0.4808
  239SOL    HW1  716   0.504   2.407   2.221 -2.4453  2.3440  2.1161
  239SOL    HW2  717   0.374   2.365   2.129 -0.6466  0.0398  0.3748
  240SOL     OW  718   2.482   2.868   0.399 -0.2199  0.1216  0.0771
  240SOL    HW1  719   2.399   2.832   0.445 -1.5829 -1.9883 -1.8788
  240SOL    HW2  720   2.473   2.860   0.299 -3.9470  0.6752  0.5049
  241SOL     OW  721   2.644   1.160   1.016  0.0968  0.2897 -0.5848
  241SOL    HW1  722   2.637   1.201   1.108 -0.2806 -0.7785 -2.7427
  241SOL    HW2  723   2.565   1.102   0.987 -1.4739 -0.7998 -1.0319
  242SOL     OW  724   2.016   2.447   2.045  0.0131 -0.1936 -0.3452
  242SOL    HW1  725   2.018   2.457   2.146  3.7857 -0.1648 -2.4640
  242SOL    HW2  726   1.987   2.535   1.999  0.9345  0.3164 -1.2226
  243SOL     OW  727   0.852   2.699   1.655 -1.0587 -0.2346 -0.2304
  243SOL    HW1  728   0.933   2.687   1.594  1.9909  0.4234 -1.7952
  243SOL    HW2  729   0.847   2.799   1.683 -0.5693  1.9153  0.7678
  244SOL     OW  730   2.151   0.610   2.897 -0.2653 -0.0999  0.3488
  244SOL    HW1  731   2.072   0.600   2.832 -1.6613 -0.5628 -2.6119
  244SOL    HW2  732   2.228   0.671   2.858  2.2359  4.1599 -0.6771
  245SOL     OW  733   1.579   0.438   1.209 -0.5176  0.9992 -0.5007
  245SOL    HW1  734   1.534   0.514   1.160 -0.6220 -3.6732  0.2328
  245SOL    HW2  735   1.504   0.378   1.248  0.9889 -0.3421 -0.2994
  246SOL     OW  736   1.799   2.491   2.977  0.2330 -0.5198  0.0209
  246SOL    HW1  737   1.871   2.554   2.946  0.0841  2.3257 -0.2657
  246SOL    HW2  738   1.757   2.431   2.905  0.2571 -1.6507 -2.4737
  247SOL     OW  739   0.917   0.669   2.556 -0.2982 -0.5232 -0.3037
  247SOL    HW1  740   0.853   0.590   2.562  1.1049  1.5420 -0.0595
  247SOL    HW2  741   0.923   0.723   2.645  0.8623 -0.7678 -2.0488
  248SOL     OW  742   0.463   2.160   1.977 -0.0351  0.2072 -0.1573
  248SOL    HW1  743   0.450   2.067   2.014 -2.5064  1.0714  0.1174
  248SOL    HW2  744   0.472   2.226   2.054  2.4552  0.0779  0.6266
  249SOL     OW  745   2.568   0.450   0.428 -0.4171 -0.6988 -0.3881
  249SOL    HW1  746   2.501   0.445   0.352  0.4984 -0.8668 -1.4002
  249SOL    HW2  747   2.580   0.355   0.462 -0.5973  0.6887 -0.2591
  250SOL     OW  748   2.779   0.261   2.851  0.0364 -0.1789  0.1211
  250SOL    HW1  749   2.753   0.305   2.940 -2.7595  1.4073 -1.3374
  250SOL    HW2  750   2.853   0.325   2.817  0.4543 -0.4376  2.5376
  251SOL     OW  751   1.375   0.766   2.995 -0.2956  0.0821  0.3564
  251SOL    HW1  752   1.441   0.690   2.982 -0.0247  0.3010  1.5407
  251SOL    HW2  753   1.393   0.811   3.082  1.5704 -0.3259 -0.6339
  252SOL     OW  754   1.411   1.986   1.816 -0.1581 -0.1392  0.0142
  252SOL    HW1  755   1.343   1.985   1.736 -3.0713  0.3150 -2.9883
  252SOL    HW2  756   1.426   2.080   1.856  0.3245  0.9210  2.6468
  253SOL     OW  757   2.281   2.581   0.841  0.0225  0.7247 -0.0252
  253SOL    HW1  758   2.349   2.653   0.818  0.1731  2.1004  0.2651
  253SOL    HW2  759   2.306   2.526   0.920  1.0581 -0.2691 -0.4454
  254SOL     OW  760   2.285   1.267   0.555  0.3626  0.2268  0.6200
  254SOL    HW1  761   2.224   1.278   0.477  1.0294  2.0367  3.1367
  254SOL    HW2  762   2.274   1.180   0.604  0.8861  1.0723  0.0027
  255SOL     OW  763   1.466   0.031   1.135 -0.0127 -0.1044  0.0396
  255SOL    HW1  764   1.459   3.076   1.060 -2.2233  0.8251 -0.7841
  255SOL    HW2  765   1.537   0.002   1.208  1.4639  1.1367  1.0693
  256SOL     OW  766   1.443   2.459   1.522  0.1015 -0.0625 -0.1767
  256SOL    HW1  767   1.543   2.431   1.517  2.7075 -0.0791  1.4532
  256SOL    HW2  768   1.395   2.400   1.588  1.3669  1.8951 -1.7075
  257SOL     OW  769   0.679   2.894   2.596  0.2640  0.2078 -0.0976
  257SOL    HW1  770   0.704   2.963   2.527 -0.7166  1.6439 -0.9014
  257SOL    HW2  771   0.753   2.825   2.613  0.3655  1.3998  3.5731
  258SOL     OW  772   1.097   2.413   0.334 -0.3173  0.2769 -0.0199
  258SOL    HW1  773   1.017   2.384   0.275  0.5686  0.1782  0.9251
  258SOL    HW2  774   1.166   2.337   0.360  2.4704 -0.6113 -0.1767
  259SOL     OW  775   1.534   0.322   2.858 -0.0921  0.0779  0.2259
  259SOL    HW1  776   1.628   0.289   2.886  0.3589 -2.7954 -4.4501
  259SOL    HW2  777   1.525   0.338   2.758 -2.5057  0.9213 -0.1818
  260SOL     OW  778   2.489   0.424   1.355 -0.3066 -0.4385 -0.2818
  260SOL    HW1  779   2.588   0.405   1.357  0.0135 -1.2507 -1.5854
  260SOL    HW2  780   2.452   0.402   1.453 -0.8039 -0.8406  2.8656
  261SOL     OW  781   0.719   0.470   2.555 -0.3417 -0.0228  0.2701
  261SOL    HW1  782   0.640   0.522   2.598  0.9475  1.7727  0.1403
  261SOL    HW2  783   0.693   0.435   2.462 -1.6576 -2.1792  1.2530
  262SOL     OW  784   0.932   2.368   2.424 -0.0732  0.4291  0.8438
  262SOL    HW1  785   0.873   2.416   2.488  0.9940  2.6074  1.9598
  262SOL    HW2  786   0.963   2.430   2.347  0.4310  1.5699  0.2972
  263SOL     OW  787   0.182   1.925   2.977 -0.4140  0.4283 -0.6492
  263SOL    HW1  788   0.093   1.887   2.941 -1.4587  0.9236  0.1472
  263SOL    HW2  789   0.172   2.025   3.004 -0.9258  2.6247  1.1629
  264SOL     OW  790   1.040   1.592   0.658  0.4006  0.2732 -0.3418
  264SOL    HW1  791   0.962   1.588   0.725  1.3220 -2.4624 -1.5546
  264SOL    HW2  792   1.013   1.641   0.571  0.5798  1.3589  2.4879
  265SOL     OW  793   1.278   2.241   0.458 -0.3389 -0.1506  0.0608
  265SOL    HW1  794   1.364   2.189   0.432  1.8840 -1.3866 -3.1946
  265SOL    HW2  795   1.302   2.291   0.542  0.9905 -1.2400  0.0463
  266SOL     OW  796   1.841   0.800   0.987  0.7145 -0.1752  0.1420
  266SOL    HW1  797   1.830   0.700   0.995 -0.3178  3.0406 -0.2446
  266SOL    HW2  798   1.944   0.827   0.985  1.9177  2.0586  0.4729
  267SOL     OW  799   2.681   1.278   2.679 -0.3313  0.4643  0.2501
  267SOL    HW1  800   2.704   1.279   2.578  2.2875  2.8326 -0.9955
  267SOL    HW2  801   2.636   1.191   2.709  3.3068  0.4435  0.2997
  268SOL     OW  802   1.567   0.020   3.049  0.5364  0.0925  0.5167
  268SOL    HW1  803   1.590   3.035   3.050  1.6029 -0.2350  0.0051
  268SOL    HW2  804   1.536   0.053   0.028 -0.9175  0.4362  0.6499
  269SOL     OW  805   2.639   0.635   2.456  0.3137 -0.3122  0.3097
  269SOL    HW1  806   2.666   0.568   2.528  0.1891 -0.4479  0.7451
  269SOL    HW2  807   2.669   0.609   2.363 -0.2233  1.7331 -0.4828
  270SOL     OW  808   2.974   1.572   0.086  0.8776  0.2875  0.6418
  270SOL    HW1  809   3.022   1.501   0.138  1.4138  0.0871 -0.4401
  270SOL    HW2  810   2.955   1.650   0.148 -1.1931 -1.9532  0.4544
  271SOL     OW  811   2.555   1.036   2.686  0.1477  0.1987 -0.5807
  271SOL    HW1  812   2.475   1.032   2.624 -0.3026 -1.6433 -2.2432
  271SOL    HW2  813   2.542   0.973   2.768  0.0769 -3.6206  0.5663
  272SOL     OW  814   3.012   2.433   2.451 -0.0881 -0.4244 -0.0627
  272SOL    HW1  815   3.080   2.358   2.482  0.6842 -0.1183  0.0448
  272SOL    HW2  816   2.912   2.406   2.459  1.3649  1.6410  1.5060
  273SOL     OW  817   0.376   2.714   0.613  0.1351 -0.3921  0.4282
  273SOL    HW1  818   0.470   2.752   0.606  3.0876 -1.1303  1.4615
  273SOL    HW2  819   0.387   2.620   0.577  0.0249  1.5600  1.1847
  274SOL     OW  820   0.805   2.124   0.655  0.3312 -0.6546  0.1331
  274SOL    HW1  821   0.846   2.035   0.626  0.7587  1.2252 -0.5340
  274SOL    HW2  822   0.871   2.173   0.717  2.0807 -1.3134 -2.8368
  275SOL     OW  823   2.568   1.394   0.444  0.3010  0.0777  0.1156
  275SOL    HW1  824   2.483   1.344   0.463 -0.9024 -1.6030 -0.8488
  275SOL    HW2  825   2.558   1.455   0.364  1.2535 -2.5787 -1.5231
  276SOL     OW  826   2.565   1.599   1.405  0.2676 -0.2423  0.9928
  276SOL    HW1  827   2.561   1.579   1.505 -3.8048  0.5863 -0.4572
  276SOL    HW2  828   2.545   1.517   1.347 -1.4410  1.1667 -1.0794
  277SOL     OW  829   2.773   0.082   0.704 -0.5431 -0.2042 -0.1669
  277SOL    HW1  830   2.730   0.024   0.780 -1.2442 -0.9533 -0.7631
  277SOL    HW2  831   2.858   0.036   0.667  2.0841 -0.2473  0.7127
  278SOL     OW  832   1.454   0.356   2.228  0.1556 -0.2835 -0.8902
  278SOL    HW1  833   1.374   0.290   2.225 -1.5104  0.0147 -2.1250
  278SOL    HW2  834   1.530   0.306   2.267 -1.8146 -0.9745  0.4502
  279SOL     OW  835   1.688   2.812   0.714  0.2769 -0.0104 -0.2015
  279SOL    HW1  836   1.781   2.820   0.755  1.9958 -1.0051 -0.5927
  279SOL    HW2  837   1.667   2.904   0.681  1.0362 -0.7220  0.3804
  280SOL     OW  838   0.890   0.899   0.760  0.5396  0.3586 -0.6134
  280SOL    HW1  839   0.861   0.973   0.822  2.0790 -1.4778 -0.8056
  280SOL    HW2  840   0.878   0.917   0.659  0.7851  0.2540  2.1585
  281SOL     OW  841   2.504   1.457   2.767 -0.2972 -0.3507  0.1558
  281SOL    HW1  842   2.561   1.395   2.711  0.1057  0.3216  0.1965
  281SOL    HW2  843   2.443   1.514   2.704 -3.1856  1.0262  1.4306
  282SOL     OW  844   3.073   1.346   0.191 -0.1127  0.5898  0.8347
  282SOL    HW1  845   2.997   1.334   0.261  2.6719 -0.0530 -1.4190
  282SOL    HW2  846   0.050   1.364   0.237  1.5760 -1.6743 -0.9560
  283SOL     OW  847   1.984   2.749   2.576 -0.4082 -0.0553  0.2732
  283SOL    HW1  848   2.001   2.840   2.542 -1.2012  0.8237  0.6071
  283SOL    HW2  849   1.933   2.691   2.511  1.2696  2.6027  0.2475
  284SOL     OW  850   0.959   0.016   0.063 -0.3108 -0.3148  0.3017
  284SOL    HW1  851   0.977   3.029   0.060  0.6206  1.6777  0.4938
  284SOL    HW2  852   0.960   0.061   0.156  1.0294 -0.0399 -2.2497
  285SOL     OW  853   2.299   1.588   2.613  0.1790  0.4267 -0.1233
  285SOL    HW1  854   2.250   1.498   2.600  0.6572 -0.3760 -2.2042
  285SOL    HW2  855   2.233   1.667   2.615 -3.3392 -0.9236 -1.9136
  286SOL     OW  856   1.358   2.150   0.827 -0.0030  0.0201  0.3939
  286SOL    HW1  857   1.348   2.069   0.763 -0.3837 -0.9413 -0.2100
  286SOL    HW2  858   1.426   2.133   0.901 -0.2701 -0.5935 -0.3768
  287SOL     OW  859   1.611   0.324   0.953 -0.0502 -0.0630 -0.4801
  287SOL    HW1  860   1.560   0.334   1.040  1.2024 -0.3234  0.5372
  287SOL    HW2  861   1.664   0.239   0.957 -0.2864 -1.6203 -1.4048
  288SOL     OW  862   0.957   2.963   2.327  0.2721  0.0571  0.1267
  288SOL    HW1  863   1.023   3.020   2.274  1.3073 -1.2336  0.0295
  288SOL    HW2  864   0.887   2.915   2.265 -1.7104 -0.8904 -3.2695
  289SOL     OW  865   0.155   1.478   0.677 -0.1219  0.2331  0.8414
  289SOL    HW1  866   0.207   1.503   0.760  0.9589  0.3805 -1.2720
  289SOL    HW2  867   0.100   1.394   0.689  1.6514  0.4800  1.8028
  290SOL     OW  868   1.098   2.134   0.956 -0.2381 -1.1610  0.5683
  290SOL    HW1  869   1.170   2.145   0.880  2.4741 -0.7178  0.4506
  290SOL    HW2  870   1.039   2.055   0.937  0.7944  3.0395  0.2335
  291SOL     OW  871   1.701   2.640   0.364  0.2588 -0.2787 -0.1163
  291SOL    HW1  872   1.775   2.623   0.425 -2.8470 -0.7034 -0.7444
  291SOL    HW2  873   1.612   2.596   0.402 -0.0949  0.7033  2.4355
  292SOL     OW  874   0.522   0.145   2.295  1.1692 -0.0922 -0.0898
  292SOL    HW1  875   0.604   0.194   2.282 -1.6310  0.7730 -0.3767
  292SOL    HW2  876   0.450   0.200   2.345 -1.2918  2.1477  0.9592
  293SOL     OW  877   2.516   1.813   0.892  0.4424 -0.2547 -0.6154
  293SOL    HW1  878   2.610   1.807   0.862 -0.9477 -2.5355 -0.4794
  293SOL    HW2  879   2.501   1.889   0.962  1.8025 -0.2934  2.3816
  294SOL     OW  880   0.788   0.054   2.170 -0.1267 -0.1952  0.3005
  294SOL    HW1  881   0.863   0.042   2.235 -2.9555  2.3693  0.0916
  294SOL    HW2  882   0.740   3.080   2.177 -1.7767 -0.0806  0.3876
  295SOL     OW  883   1.126   1.570   0.969 -0.7627 -0.1115 -0.0995
  295SOL    HW1  884   1.157   1.479   1.010  1.0081  0.5639 -1.0961
  295SOL    HW2  885   1.025   1.574   0.961 -2.8353 -2.0114  0.2691
  296SOL     OW  886   2.339   1.905   0.695 -0.3387 -0.8210 -0.0111
  296SOL    HW1  887   2.368   1.808   0.705  1.2835 -1.5561 -1.0889
  296SOL    HW2  888   2.381   1.965   0.770 -1.5307  0.6171  0.1554
  297SOL     OW  889   2.431   0.053   2.995  0.1324 -0.1077  0.0129
  297SOL    HW1  890   2.359   3.108   2.953 -1.9625 -1.7277 -1.5608
  297SOL    HW2  891   2.470   0.008   3.083  0.2717 -0.5912  1.2652
  298SOL     OW  892   1.131   0.327   2.483  0.0532  0.5207 -0.0873
  298SOL    HW1  893   1.173   0.417   2.507  1.6244 -0.6464 -0.8579
  298SOL    HW2  894   1.182   0.246   2.528  1.6427 -0.4777 -0.5493
  299SOL     OW  895   1.138   2.679   1.955  0.0619 -0.7811 -0.4756
  299SOL    HW1  896   1.191   2.751   1.911  0.0953  1.4854  0.2840
  299SOL    HW2  897   1.152   2.689   2.056  0.3899  3.4412  0.4502
  300SOL     OW  898   2.636   2.963   2.022 -0.1422  0.0484 -0.3853
  300SOL    HW1  899   2.627   2.991   2.121  0.1511  0.4778 -1.3518
  300SOL    HW2  900   2.713   3.015   1.977  0.2305 -1.1071 -1.3414
  301SOL     OW  901   2.109   0.439   1.881 -0.0826  0.1580 -0.7562
  301SOL    HW1  902   2.205   0.430   1.926  1.1104 -0.3303  1.2700
  301SOL    HW2  903   2.091   0.379   1.801 -1.0794 -1.1128  4.6240
  302SOL     OW  904   0.187   2.506   0.060 -0.2420  0.7629 -0.0924
  302SOL    HW1  905   0.130   2.424   0.029  0.5643  1.4632 -0.7768
  302SOL    HW2  906   0.133   2.552   0.137 -1.0178  2.7107  0.4318
  303SOL     OW  907   1.679   2.328   1.507 -0.2746 -0.0470 -0.2808
  303SOL    HW1  908   1.651   2.238   1.471 -1.5279 -1.1029 -0.8214
  303SOL    HW2  909   1.778   2.327   1.533  1.7487  1.7406 -0.5887
  304SOL     OW  910   2.931   0.930   1.334  0.0140 -0.0408  0.3098
  304SOL    HW1  911   2.919   0.868   1.258  1.2936  1.9543  1.2389
  304SOL    HW2  912   2.923   1.024   1.302 -0.9678 -1.4727  3.7396
  305SOL     OW  913   0.498   0.972   0.867  0.3560  0.3857 -0.2480
  305SOL    HW1  914   0.541   0.891   0.904  1.3480  0.9583  2.1244
  305SOL    HW2  915   0.572   1.039   0.854 -1.4088 -1.3075 -1.2757
  306SOL     OW  916   0.288   1.236   2.735 -0.6115  0.9100 -0.2724
  306SOL    HW1  917   0.330   1.143   2.739 -2.7205  0.8437 -1.5046
  306SOL    HW2  918   0.350   1.308   2.718 -2.4207 -2.0941  1.2360
  307SOL     OW  919   1.166   0.263   1.509  0.2657 -0.6121 -0.2838
  307SOL    HW1  920   1.222   0.304   1.587  3.0584  1.3449  0.5854
  307SOL    HW2  921   1.141   0.167   1.533 -0.6326 -1.2204  1.7434
  308SOL     OW  922   0.405   0.902   1.277 -0.1623 -0.1857 -0.6003
  308SOL    HW1  923   0.325   0.911   1.210 -0.0629  0.5275 -0.1566
  308SOL    HW2  924   0.417   0.806   1.314  0.1130  1.5160  1.2753
  309SOL     OW  925   2.488   0.966   0.933 -0.4127 -0.1387  0.3998
  309SOL    HW1  926   2.517   0.978   0.838 -1.1879 -0.7853  1.6468
  309SOL    HW2  927   2.392   0.995   0.951  1.3886 -0.4111 -0.6983
  310SOL     OW  928   0.802   1.601   2.979 -0.6506  0.8459 -0.1834
  310SOL    HW1  929   0.865   1.608   3.059  0.2873 -0.4233  0.7273
  310SOL    HW2  930   0.719   1.545   3.006 -0.8752 -0.0280 -0.8528
  311SOL     OW  931   2.365   2.734   2.516 -0.0770 -0.5490  0.0551
  311SOL    HW1  932   2.420   2.745   2.430 -1.2978 -1.4445  1.2898
  311SOL    HW2  933   2.415   2.775   2.597 -2.7893  0.1117 -0.2920
  312SOL     OW  934   1.870   2.140   3.096 -0.2131 -0.0433  0.2052
  312SOL    HW1  935   1.923   2.054   3.081 -0.9340  0.0674 -0.8982
  312SOL    HW2  936   1.932   2.222   3.109 -0.1806  1.7902 -0.7216
  313SOL     OW  937   0.633   3.042   0.100 -0.2321  0.4337  0.5716
  313SOL    HW1  938   0.535   3.046   0.075  0.5743  0.9370 -2.7424
  313SOL    HW2  939   0.641   3.014   0.198  0.6563 -3.1892  2.9022
  314SOL     OW  940   2.365   1.242   2.813  0.1403  0.3226 -0.3721
  314SOL    HW1  941   2.381   1.180   2.734  1.6360  1.1934 -1.0486
  314SOL    HW2  942   2.416   1.332   2.797  1.0083  2.1306 -1.3491
  315SOL     OW  943   1.547   0.360   2.584 -0.1643 -0.0065 -0.4341
  315SOL    HW1  944   1.601   0.323   2.506 -2.0298 -2.5337 -1.2570
  315SOL    HW2  945   1.563   0.462   2.580 -1.2763 -0.3856 -2.2926
  316SOL     OW  946   3.114   1.240   0.694  0.0742 -0.5782 -0.3065
  316SOL    HW1  947   3.070   1.229   0.786 -0.9871  1.5901  0.6659
  316SOL    HW2  948   3.074   1.181   0.624  1.2819  0.2737 -1.7299
  317SOL     OW  949   0.680   2.699   3.086 -0.0717  0.6508 -0.2595
  317SOL    HW1  950   0.587   2.675   3.062  1.2441  0.1472 -0.5251
  317SOL    HW2  951   0.699   2.791   3.046 -1.4230 -0.1510 -0.2888
  318SOL     OW  952   2.468   2.752   0.796  0.3812  0.5167 -0.4115
  318SOL    HW1  953   2.412   2.813   0.736 -0.5823  0.5233  0.1446
  318SOL    HW2  954   2.522   2.802   0.868  2.0746  0.6723 -1.0253
  319SOL     OW  955   1.091   1.505   2.798  0.0851 -0.3627 -0.2005
  319SOL    HW1  956   0.999   1.469   2.787  1.9041  0.4860  0.7500
  319SOL    HW2  957   1.150   1.475   2.717  1.9243 -2.1976 -2.1613
  320SOL     OW  958   0.608   1.925   1.004 -0.1012  0.1402  0.3437
  320SOL    HW1  959   0.508   1.931   1.021  1.6225  1.8263 -0.6143
  320SOL    HW2  960   0.653   2.014   1.013  2.0823 -1.0015  0.0898
  321SOL     OW  961   1.624   2.753   2.060 -0.0159 -0.5288  0.5293
  321SOL    HW1  962   1.669   2.707   2.140 -0.1037  1.0803  1.1805
  321SOL    HW2  963   1.626   2.852   2.079 -0.8875 -1.1721 -0.0845
  322SOL     OW  964   2.386   2.063   2.378  0.7344 -0.0342 -0.0743
  322SOL    HW1  965   2.319   2.037   2.456  0.3616  0.1287  0.9980
  322SOL    HW2  966   2.340   2.074   2.285 -0.6739  1.2712  0.0490
  323SOL     OW  967   2.841   0.313   0.815  0.0656  0.1015 -0.0572
  323SOL    HW1  968   2.822   0.223   0.772  0.6526  0.5230 -1.6646
  323SOL    HW2  969   2.755   0.364   0.830  0.8139 -2.5834  0.5132
  324SOL     OW  970   2.904   2.717   2.571  0.2875  0.1444 -0.0901
  324SOL    HW1  971   3.002   2.704   2.588  2.8539 -0.3526 -2.4535
  324SOL    HW2  972   2.867   2.635   2.523 -0.2832 -2.5372  1.0420
  325SOL     OW  973   1.182   0.608   2.517 -0.3088 -0.5678  0.5080
  325SOL    HW1  974   1.203   0.656   2.429 -1.5565 -0.3065 -0.0885
  325SOL    HW2  975   1.085   0.611   2.531  1.2188 -0.8979  0.5212
  326SOL     OW  976   2.285   2.531   1.587  0.1949  0.3634  0.1622
  326SOL    HW1  977   2.364   2.571   1.630  0.3350 -0.8388 -1.9704
  326SOL    HW2  978   2.205   2.569   1.626 -1.1055 -1.0689 -1.1971
  327SOL     OW  979   2.486   3.052   0.134 -0.3624  0.0281 -0.2890
  327SOL    HW1  980   2.433   0.022   0.167 -1.0475  2.6672 -0.9060
  327SOL    HW2  981   2.431   2.972   0.104  0.3478 -2.9172  0.1146
  328SOL     OW  982   0.157   1.152   1.488 -0.3713 -0.3997  0.1880
  328SOL    HW1  983   0.154   1.049   1.500 -1.4970  3.0088 -0.3184
  328SOL    HW2  984   0.236   1.187   1.535 -3.6124 -0.1738 -0.8012
  329SOL     OW  985   2.130   0.671   1.477  0.2348 -0.7253  0.1366
  329SOL    HW1  986   2.175   0.683   1.569  0.7975  0.1489  0.7378
  329SOL    HW2  987   2.058   0.596   1.477 -2.1029 -1.3949  1.0692
  330SOL     OW  988   0.180   0.932   1.118 -0.2259 -0.2522  0.5164
  330SOL    HW1  989   0.194   0.977   1.023 -2.8638  3.3072  0.3794
  330SOL    HW2  990   0.101   0.869   1.119  0.3050  0.2040 -1.9775
  331SOL     OW  991   0.699   1.394   1.840  0.2116  0.3320 -0.1114
  331SOL    HW1  992   0.746   1.478   1.879 -0.0287  1.6784 -0.9748
  331SOL    HW2  993   0.614   1.421   1.795  3.5184 -0.8904  1.5374
  332SOL     OW  994   0.442   2.543   1.484  0.6225  0.3538 -0.0874
  332SOL    HW1  995   0.345   2.568   1.497  1.8461  1.5380 -0.5800
  332SOL    HW2  996   0.434   2.442   1.467  0.6501 -1.7902 -0.8589
  333SOL     OW  997   3.042   3.064   0.870 -0.2429 -0.0998  0.2114
  333SOL    HW1  998   3.083   0.037   0.896 -2.5874 -2.3802  1.5127
  333SOL    HW2  999   3.109   2.992   0.897 -0.0787  1.4251  1.3509
  334SOL     OW 1000   0.332   1.244   0.502  0.1257 -0.3843 -0.9589
  334SOL    HW1 1001   0.255   1.307   0.481  0.8861  1.8844 -0.4590
  334SOL    HW2 1002   0.396   1.278   0.579  1.8720  2.0976  0.7377
  335SOL     OW 1003   0.422   2.610   3.058  0.6468 -0.2833  0.2600
  335SOL    HW1 1004   0.348   2.564   0.000  1.3159 -1.8290 -0.3597
  335SOL    HW2 1005   0.387   2.610   2.959  0.4670  0.5493 -0.3519
  336SOL     OW 1006   3.050   2.596   2.229  0.0704  0.4860 -0.4535
  336SOL    HW1 1007   3.054   2.536   2.312  0.3988 -0.9467 -3.1424
  336SOL    HW2 1008   2.977   2.574   2.164  2.3339  0.3232 -1.8023
  337SOL     OW 1009   1.679   2.209   1.810  0.4728  0.0124  0.1049
  337SOL    HW1 1010   1.579   2.230   1.825 -2.4270  1.0929  2.2885
  337SOL    HW2 1011   1.687   2.131   1.748  0.5386  1.1727  2.0735
  338SOL     OW 1012   0.919   0.413   2.767  0.4429 -0.4671  0.7565
  338SOL    HW1 1013   0.834   0.448   2.736  1.8670 -0.0279  1.2016
  338SOL    HW2 1014   0.937   0.310   2.757 -0.4812  0.7372  2.3737
  339SOL     OW 1015   0.314   1.281   2.270  0.1877 -0.1235 -0.5628
  339SOL    HW1 1016   0.341   1.217   2.193 -2.2142  0.6534  1.4573
  339SOL    HW2 1017   0.391   1.336   2.306  2.2660 -2.2549  0.8053
  340SOL     OW 1018   1.983   0.294   0.773  0.6444 -0.5497  0.1872
  340SOL    HW1 1019   2.062   0.236   0.808  4.1772 -2.5285 -0.2816
  340SOL    HW2 1020   1.963   0.371   0.836  0.1065  1.1294  1.4785
  341SOL     OW 1021   2.010   1.243   0.743  0.5089  0.0114 -0.9321
  341SOL    HW1 1022   2.075   1.270   0.820 -1.4703  2.3325  1.9509
  341SOL    HW2 1023   1.972   1.321   0.689  2.0320  1.9988  0.5489
  342SOL     OW 1024   2.263   2.722   2.977  0.0061 -0.2862  0.4780
  342SOL    HW1 1025   2.323   2.639   2.954 -3.2264  2.1567 -0.9942
  342SOL    HW2 1026   2.167   2.707   2.959  0.9677 -1.5932  0.1386
  343SOL     OW 1027   0.748   2.209   1.678  0.7469  0.2186  1.1240
  343SOL    HW1 1028   0.749   2.235   1.779 -2.5005 -1.2808  0.4698
  343SOL    HW2 1029   0.741   2.288   1.614  0.2809  0.3229 -0.3744
  344SOL     OW 1030   2.310   2.630   1.300  0.3860  0.1542 -0.0954
  344SOL    HW1 1031   2.314   2.585   1.393  0.5125  1.0429 -0.8721
  344SOL    HW2 1032   2.393   2.690   1.279  3.4128  0.5358 -1.2353
  345SOL     OW 1033   2.543   2.060   0.218  0.0237 -0.0934  0.1392
  345SOL    HW1 1034   2.509   1.972   0.185  0.0602  1.1582 -1.7109
  345SOL    HW2 1035   2.552   2.059   0.321  0.5899 -1.4131 -0.3860
  346SOL     OW 1036   1.659   2.456   1.220 -0.0713 -0.1464 -0.0648
  346SOL    HW1 1037   1.689   2.396   1.146 -3.5748 -1.4641  0.3949
  346SOL    HW2 1038   1.667   2.411   1.311 -0.7186 -0.8156 -0.1872
  347SOL     OW 1039   1.294   1.647   1.635 -0.4555 -0.6253  0.0523
  347SOL    HW1 1040   1.280   1.749   1.613 -0.5701  2.3304  0.2568
  347SOL    HW2 1041   1.202   1.605   1.655  1.5226  1.4066 -1.1199
  348SOL     OW 1042   0.474   1.925   2.071 -0.3014 -0.2671 -0.5101
  348SOL    HW1 1043   0.415   1.935   2.157  0.7809 -1.4012  2.9891
  348SOL    HW2 1044   0.573   1.930   2.085 -0.8179 -1.7413  0.5105
  349SOL     OW 1045   1.898   1.692   1.348 -0.3698 -0.7701 -0.5265
  349SOL    HW1 1046   1.811   1.688   1.402 -0.4371 -0.7461  0.1561
  349SOL    HW2 1047   1.972   1.652   1.409 -1.0484  1.2529 -2.2474
  350SOL     OW 1048   2.524   2.335   0.482  0.1760 -0.1153  0.1050
  350SOL    HW1 1049   2.494   2.375   0.395  1.9501 -1.8895  2.9938
  350SOL    HW2 1050   2.548   2.404   0.557 -1.3153 -1.6855 -1.9823
  351SOL     OW 1051   1.058   0.024   1.586 -0.6445  0.8677  0.0311
  351SOL    HW1 1052   0.978   0.076   1.618  1.4359 -1.3069  0.9683
  351SOL    HW2 1053   1.042   3.082   1.502 -1.3073  2.6546 -1.2080
  352SOL     OW 1054   0.191   1.565   0.954  0.6628  0.1997 -0.4560
  352SOL    HW1 1055   0.211   1.471   0.999  2.9087 -1.6331  0.2134
  352SOL    HW2 1056   0.187   1.638   1.027 -0.5667 -0.3639  1.6044
  353SOL     OW 1057   1.138   1.355   2.130  0.1493 -1.3464 -0.6050
  353SOL    HW1 1058   1.226   1.326   2.100 -1.4659  2.0127 -0.6876
  353SOL    HW2 1059   1.130   1.383   2.229 -1.5401 -1.1342  3.4269
  354SOL     OW 1060   1.766   2.757   1.829  0.2887  0.5636 -0.4698
  354SOL    HW1 1061   1.781   2.855   1.800  2.9224  1.4034  0.2696
  354SOL    HW2 1062   1.718   2.749   1.921 -1.0241 -0.5286  2.8177
  355SOL     OW 1063   2.470   1.416   0.144  0.2198  0.1456  0.0611
  355SOL    HW1 1064   2.413   1.368   0.070 -3.2420 -0.7090  0.6209
  355SOL    HW2 1065   2.535   1.485   0.099  2.7743  0.8723 -2.0152
  356SOL     OW 1066   2.950   1.793   1.569 -0.2961 -0.1716  0.4929
  356SOL    HW1 1067   2.898   1.867   1.617 -0.2789  3.0536  0.5396
  356SOL    HW2 1068   2.914   1.702   1.598  1.7178  0.3057 -0.3524
  357SOL     OW 1069   0.275   2.893   1.358  0.4182 -0.0547 -0.1924
  357SOL    HW1 1070   0.207   2.822   1.367  1.4301  1.8901  1.7432
  357SOL    HW2 1071   0.240   2.980   1.387  1.0725  0.1016 -0.7815
  358SOL     OW 1072   2.632   1.671   1.675 -0.0127  0.6614  0.1143
  358SOL    HW1 1073   2.576   1.672   1.760  0.6316 -0.3709  1.5203
  358SOL    HW2 1074   2.698   1.593   1.675  0.4835 -1.3663  0.9806
  359SOL     OW 1075   2.254   2.996   2.890  0.2921 -0.4883 -0.0158
  359SOL    HW1 1076   2.247   2.900   2.925 -4.4203 -1.2701 -2.2841
  359SOL    HW2 1077   2.171   3.049   2.919  2.5353 -0.5310  0.3405
  360SOL     OW 1078   0.946   3.114   0.865  0.1415 -0.3338  0.7165
  360SOL    HW1 1079   1.014   0.075   0.849 -1.4328 -0.5226 -1.0917
  360SOL    HW2 1080   0.993   3.027   0.855  1.9389  0.3071 -1.2907
  361SOL     OW 1081   2.156   0.499   0.382  0.0714  0.0518  0.1552
  361SOL    HW1 1082   2.072   0.457   0.421  2.8178  1.1824 -0.3020
  361SOL    HW2 1083   2.154   0.601   0.387 -0.5298  0.1137  0.0462
  362SOL     OW 1084   1.819   1.243   0.950  0.8350  0.1468 -0.2147
  362SOL    HW1 1085   1.890   1.252   0.877  2.0258 -1.1190 -0.9030
  362SOL    HW2 1086   1.770   1.333   0.977 -0.6979  0.1022  0.3299
  363SOL     OW 1087   2.314   1.031   2.279 -1.0344  0.1288  0.1929
  363SOL    HW1 1088   2.215   1.040   2.265  3.4154  0.6431 -0.5360
  363SOL    HW2 1089   2.363   1.124   2.256 -1.2540  1.5827  0.5493
  364SOL     OW 1090   0.266   0.392   1.176  0.3341  0.3519  0.6549
  364SOL    HW1 1091   0.190   0.460   1.185  3.6286  0.4874 -1.6719
  364SOL    HW2 1092   0.239   0.296   1.202 -1.6516 -1.3967 -0.0050
  365SOL     OW 1093   0.702   0.146   2.881  0.0060 -0.4948 -0.4486
  365SOL    HW1 1094   0.651   0.059   2.858  0.5611  0.3896  2.8405
  365SOL    HW2 1095   0.799   0.137   2.856 -2.0733 -1.7282  0.3644
  366SOL     OW 1096   2.048   2.642   2.813 -0.1515 -0.6999  0.2540
  366SOL    HW1 1097   2.028   2.681   2.721 -1.8347 -0.7192 -2.8622
  366SOL    HW2 1098   2.104   2.556   2.801  0.9582 -3.2133  0.2965
  367SOL     OW 1099   2.949   2.442   0.293  0.0062  0.3325  0.0975
  367SOL    HW1 1100   2.853   2.472   0.280  1.6125 -2.0273 -1.2867
  367SOL    HW2 1101   2.957   2.357   0.351  2.0736 -0.3087  0.0170
  368SOL     OW 1102   2.993   1.326   1.266 -0.0445  0.1839 -0.1965
  368SOL    HW1 1103   2.996   1.379   1.180 -2.5467 -1.0568  3.2130
  368SOL    HW2 1104   3.054   1.244   1.263  2.1286 -1.4952  1.7204
  369SOL     OW 1105   0.958   0.131   2.792 -0.2835  0.0494 -0.5541
  369SOL    HW1 1106   0.974   0.070   2.713 -2.1442  3.4602  3.1680
  369SOL    HW2 1107   1.021   0.119   2.873 -1.9005  0.0426  0.2707
  370SOL     OW 1108   2.814   0.548   0.464 -0.1763 -0.0655  0.1507
  370SOL    HW1 1109   2.724   0.500   0.460 -3.8543  0.3465 -0.6267
  370SOL    HW2 1110   2.882   0.494   0.411 -0.5188  1.7351 -0.4531
  371SOL     OW 1111   1.610   2.070   1.023 -0.2715 -0.0086 -0.0459
  371SOL    HW1 1112   1.656   1.994   0.973  0.2748  0.6212  0.4799
  371SOL    HW2 1113   1.658   2.160   1.005 -2.6942  2.3480 -0.5486
  372SOL     OW 1114   2.962   0.650   2.563 -0.4274 -0.7129 -0.0424
  372SOL    HW1 1115   2.963   0.653   2.458  0.2285  1.8684  0.6229
  372SOL    HW2 1116   2.975   0.738   2.606  1.3178 -1.7461 -0.4154
  373SOL     OW 1117   2.793   1.625   1.200 -0.2012 -0.2026  0.0264
  373SOL    HW1 1118   2.733   1.645   1.119  1.4956 -0.3196  1.2610
  373SOL    HW2 1119   2.751   1.581   1.286 -1.5410  0.2482  1.4165
  374SOL     OW 1120   0.941   2.808   2.836 -0.4328  0.4767  0.0694
  374SOL    HW1 1121   0.880   2.871   2.883 -1.7466 -0.0460 -0.4855
  374SOL    HW2 1122   1.035   2.813   2.880  0.3866 -0.5543  0.8253
  375SOL     OW 1123   0.056   3.060   0.027  0.4901  0.6238 -0.1726
  375SOL    HW1 1124   0.092   3.020   0.111  0.1749  0.1240 -2.0890
  375SOL    HW2 1125   0.091   0.035   3.113  0.6493 -0.5775  1.4768
  376SOL     OW 1126   3.057   2.160   1.558  0.7324  0.4830 -0.3215
  376SOL    HW1 1127   3.088   2.166   1.652 -1.0124 -1.9694 -4.4098
  376SOL    HW2 1128   0.015   2.114   1.506 -3.7740 -3.6924 -0.4314
  377SOL     OW 1129   1.453   2.231   2.554 -0.5054 -0.5081  0.5652
  377SOL    HW1 1130   1.414   2.186   2.634  1.9977 -0.1671  1.7132
  377SOL    HW2 1131   1.469   2.162   2.477  0.0624  0.6063  0.3973
  378SOL     OW 1132   0.490   0.347   2.902 -0.3028  0.0816 -0.0415
  378SOL    HW1 1133   0.517   0.442   2.925 -0.5292 -0.3979  1.5373
  378SOL    HW2 1134   0.570   0.295   2.868  1.1329  0.4411  1.7250
  379SOL     OW 1135   0.630   0.725   0.426  0.3031  0.0929  0.3936
  379SOL    HW1 1136   0.555   0.749   0.490  0.1985 -1.9834 -0.3133
  379SOL    HW2 1137   0.724   0.739   0.459 -0.9289 -2.1169 -0.1007
  380SOL     OW 1138   0.079   1.874   1.859  0.3174  0.5027  0.8030
  380SOL    HW1 1139   3.105   1.831   1.834  3.1011 -0.9793  0.6139
  380SOL    HW2 1140   0.102   1.846   1.955  0.7983 -0.2504  0.0583
  381SOL     OW 1141   0.226   1.138   1.837 -0.0385  0.7741  0.5901
  381SOL    HW1 1142   0.206   1.047   1.807  2.0024  1.8075  1.2067
  381SOL    HW2 1143   0.174   1.207   1.785 -2.5314 -1.6858 -0.5436
  382SOL     OW 1144   2.220   2.015   0.446 -0.2999  0.3178 -0.1771
  382SOL    HW1 1145   2.236   1.937   0.380  1.7961 -1.5792 -1.9310
  382SOL    HW2 1146   2.249   1.987   0.540  2.2203 -0.0260 -0.2358
  383SOL     OW 1147   2.940   2.000   3.018  0.0544  0.2865 -0.5427
  383SOL    HW1 1148   2.938   2.033   3.111  1.5441 -1.0084  0.2378
  383SOL    HW2 1149   2.914   2.074   2.955 -3.2695 -2.1526  2.4952
  384SOL     OW 1150   0.735   2.233   2.697 -0.2926 -0.5029 -0.0814
  384SOL    HW1 1151   0.702   2.255   2.792 -1.0095  2.3379  0.9270
  384SOL    HW2 1152   0.762   2.322   2.648  0.7506 -0.2971 -0.6115
  385SOL     OW 1153   2.779   1.393   0.852  0.2471 -0.2176 -0.1733
  385SOL    HW1 1154   2.845   1.408   0.933  1.9505 -1.2270  2.1052
  385SOL    HW2 1155   2.712   1.323   0.879  0.8299  2.8738 -0.4144
  386SOL     OW 1156   2.214   1.457   1.556  0.1157  0.0559  0.3218
  386SOL    HW1 1157   2.231   1.444   1.458 -2.6619 -3.0709 -2.2190
  386SOL    HW2 1158   2.156   1.540   1.570  0.1134  1.1528 -1.6002
  387SOL     OW 1159   2.612   1.225   2.047  0.3295  0.0278 -0.4883
  387SOL    HW1 1160   2.518   1.210   2.015 -0.2734 -0.4318  2.4686
  387SOL    HW2 1161   2.615   1.190   2.148 -0.8874  2.0699  2.1724
  388SOL     OW 1162   2.796   1.431   2.079 -0.4054  0.4024  0.2432
  388SOL    HW1 1163   2.749   1.343   2.051 -0.5076 -2.1478 -0.7605
  388SOL    HW2 1164   2.898   1.409   2.087  0.1139  0.5366  1.1745
  389SOL     OW 1165   2.055   1.135   1.867  0.1141  0.4258  0.1389
  389SOL    HW1 1166   2.143   1.169   1.899 -1.5617 -2.0691 -1.8671
  389SOL    HW2 1167   2.038   1.170   1.771  2.5563 -2.6829 -1.0806
  390SOL     OW 1168   1.841   0.104   0.626 -0.0894  0.6905  0.1159
  390SOL    HW1 1169   1.904   0.162   0.683  1.9316 -0.8172 -1.7899
  390SOL    HW2 1170   1.803   0.142   0.538 -1.1380  3.1098 -1.7787
  391SOL     OW 1171   2.340   1.692   1.300  0.0082  0.4174  0.1745
  391SOL    HW1 1172   2.314   1.770   1.356 -0.1969  1.0051 -1.6597
  391SOL    HW2 1173   2.434   1.662   1.332 -1.0207 -1.1409  0.1790
  392SOL     OW 1174   2.604   2.560   0.648 -0.4002  0.3170  0.5705
  392SOL    HW1 1175   2.559   2.623   0.712  2.2065 -1.4912 -1.3978
  392SOL    HW2 1176   2.703   2.591   0.631  1.1286  1.5649 -1.1324
  393SOL     OW 1177   1.534   1.649   2.816 -0.3576  0.1332  1.0952
  393SOL    HW1 1178   1.538   1.551   2.786 -0.8545 -1.6048  1.3592
  393SOL    HW2 1179   1.508   1.709   2.737  1.9566  1.3940 -2.1526
  394SOL     OW 1180   0.198   0.048   2.838  0.3669 -0.2775  0.3154
  394SOL    HW1 1181   0.097   0.057   2.832 -0.5613  1.3849 -3.2892
  394SOL    HW2 1182   0.236   3.064   2.839 -0.9494  0.0750  2.0827
  395SOL     OW 1183   0.674   0.751   0.885  0.4898  0.2424  0.1025
  395SOL    HW1 1184   0.659   0.649   0.888  0.4705  2.6459  2.9550
  395SOL    HW2 1185   0.741   0.775   0.809  0.6834  0.1764 -3.5570
  396SOL     OW 1186   1.373   0.720   0.700  1.0172 -0.2213  0.6385
  396SOL    HW1 1187   1.276   0.731   0.732 -2.3010  0.8958  1.8285
  396SOL    HW2 1188   1.421   0.804   0.683 -1.2780 -1.2624  1.9610
  397SOL     OW 1189   0.500   0.554   2.156 -0.4143  0.2375  0.0928
  397SOL    HW1 1190   0.409   0.528   2.114 -0.7941 -1.8332 -0.0802
  397SOL    HW2 1191   0.496   0.642   2.208  1.2724  0.0062  1.2039
  398SOL     OW 1192   1.012   0.097   0.343 -0.5305  0.4322  0.4347
  398SOL    HW1 1193   0.997   0.191   0.371 -0.5000 -2.5817 -1.2834
  398SOL    HW2 1194   1.108   0.077   0.305  1.2310 -0.6996 -2.3243
  399SOL     OW 1195   2.100   2.723   1.681  0.1542 -0.2632  0.1621
  399SOL    HW1 1196   2.078   2.709   1.780 -0.3543 -0.3414 -2.0926
  399SOL    HW2 1197   2.036   2.664   1.627 -0.1706  1.4780  1.9636
  400SOL     OW 1198   1.096   1.818   2.060 -0.1090  0.5193  0.0083
  400SOL    HW1 1199   1.027   1.831   2.134 -0.3830 -1.2912  0.5061
  400SOL    HW2 1200   1.113   1.719   2.042 -0.8707  2.2921 -0.2495
  401SOL     OW 1201   0.644   1.181   2.723 -0.5162  0.3258 -0.0954
  401SOL    HW1 1202   0.734   1.133   2.736  1.2192 -3.8440 -0.6990
  401SOL    HW2 1203   0.571   1.119   2.751 -0.6667  3.3843 -0.6620
  402SOL     OW 1204   2.756   1.976   0.994 -0.5174  0.2533  0.5519
  402SOL    HW1 1205   2.783   1.876   0.988 -1.1614 -0.6645 -2.2892
  402SOL    HW2 1206   2.820   2.026   1.062  1.5280 -0.0280 -0.4654
  403SOL     OW 1207   0.231   0.968   2.123  0.2996  0.0488  0.2821
  403SOL    HW1 1208   0.131   0.984   2.094 -2.9517  1.4854 -2.0664
  403SOL    HW2 1209   0.282   1.052   2.094  1.7206 -1.4643  1.1872
  404SOL     OW 1210   0.325   2.468   1.951  0.1521 -0.2382  0.1286
  404SOL    HW1 1211   0.309   2.424   1.863 -0.3445 -2.8363  0.5847
  404SOL    HW2 1212   0.365   2.561   1.941  1.9019  0.1088 -1.0292
  405SOL     OW 1213   0.358   0.189   2.038 -0.3365 -0.5696 -0.0126
  405SOL    HW1 1214   0.427   0.197   2.115 -3.7139 -1.3893 -0.3477
  405SOL    HW2 1215   0.278   0.137   2.078 -1.5691 -0.9597  0.1685
  406SOL     OW 1216   1.390   1.563   2.402  0.2835 -0.1074 -0.1888
  406SOL    HW1 1217   1.464   1.631   2.386 -0.9886  0.2112  1.7924
  406SOL    HW2 1218   1.334   1.570   2.318  0.2686  1.9668 -0.3138
  407SOL     OW 1219   1.250   0.986   2.393  0.1140  0.3795  0.4219
  407SOL    HW1 1220   1.220   1.008   2.295  2.4308 -1.4502 -1.1461
  407SOL    HW2 1221   1.206   0.897   2.408 -0.4385 -4.9402  0.8074
  408SOL     OW 1222   0.981   3.112   2.546  0.3669  0.2344  0.0812
  408SOL    HW1 1223   0.974   0.070   2.476  0.9009 -2.5156 -0.7324
  408SOL    HW2 1224   0.971   3.021   2.502  2.1407 -1.1415  0.1363
  409SOL     OW 1225   0.281   1.973   0.792 -0.1385 -0.4854 -0.2896
  409SOL    HW1 1226   0.368   2.021   0.757 -0.5804 -1.0311 -2.1610
  409SOL    HW2 1227   0.237   1.949   0.701 -0.0293  1.2385 -0.6430
  410SOL     OW 1228   2.675   1.191   0.184  0.3767  0.3126 -0.7531
  410SOL    HW1 1229   2.762   1.219   0.243  2.2686  2.7567  1.7224
  410SOL    HW2 1230   2.596   1.252   0.195  0.8680 -1.8814 -1.4210
  411SOL     OW 1231   0.235   0.106   1.181  0.7474  0.2999  0.2571
  411SOL    HW1 1232   0.187   0.074   1.265  2.4627  1.4567 -0.8500
  411SOL    HW2 1233   0.312   0.045   1.154 -0.5620 -0.3003  1.9102
  412SOL     OW 1234   1.556   0.883   1.476 -0.3070 -0.2920  0.1126
  412SOL    HW1 1235   1.610   0.873   1.393 -0.2865 -0.0051  0.9956
  412SOL    HW2 1236   1.512   0.791   1.504 -2.7547 -1.6031 -2.4154
  413SOL     OW 1237   0.844   2.978   1.717 -0.1958  1.0421  0.0666
  413SOL    HW1 1238   0.795   3.028   1.792  0.6947 -1.2011  1.1926
  413SOL    HW2 1239   0.839   3.026   1.628  2.0828 -0.9921  1.8685
  414SOL     OW 1240   2.858   1.575   2.484  0.1377  0.0393  0.5835
  414SOL    HW1 1241   2.838   1.578   2.586  0.0032  2.2527  1.0127
  414SOL    HW2 1242   2.954   1.557   2.455  1.0179 -0.2746 -3.0475
  415SOL     OW 1243   0.810   2.453   3.003 -0.6026  0.5926 -0.1523
  415SOL    HW1 1244   0.893   2.463   2.945 -0.2452 -3.4193 -0.4473
  415SOL    HW2 1245   0.783   2.549   3.035 -1.4556  0.5676  0.0878
  416SOL     OW 1246   1.984   2.978   0.301 -0.3821  0.5580  0.5128
  416SOL    HW1 1247   1.958   2.909   0.225  0.8184 -0.6392  0.3801
  416SOL    HW2 1248   2.031   3.060   0.261 -1.0999  2.8132  2.7718
  417SOL     OW 1249   0.260   0.533   0.726  0.1019  0.0444 -0.1080
  417SOL    HW1 1250   0.312   0.605   0.679 -1.0502 -0.9991  2.8268
  417SOL    HW2 1251   0.208   0.480   0.658  3.2284 -0.9571 -2.1729
  418SOL     OW 1252   2.568   0.247   1.031 -0.4513 -0.2809  0.1252
  418SOL    HW1 1253   2.471   0.275   1.048 -2.7182  0.3615  0.4407
  418SOL    HW2 1254   2.620   0.336   1.020 -0.6385  2.9105 -0.5701
  419SOL     OW 1255   0.201   2.916   0.569 -0.2110  0.2069 -0.2274
  419SOL    HW1 1256   0.118   2.877   0.525  0.5054  1.8372 -1.7886
  419SOL    HW2 1257   0.271   2.839   0.568 -0.0689  0.3320 -0.1606
  420SOL     OW 1258   0.173   1.526   1.750 -0.0601 -0.1113 -0.1197
  420SOL    HW1 1259   0.272   1.502   1.732 -1.9855 -1.5023 -1.4081
  420SOL    HW2 1260   0.150   1.620   1.730  0.7384 -1.3851 -0.2048
  421SOL     OW 1261   1.316   2.868   0.404 -0.0772  0.0449 -1.1369
  421SOL    HW1 1262   1.263   2.947   0.372  3.7092 -2.3136  0.6134
  421SOL    HW2 1263   1.264   2.785   0.382  2.6273  1.8192  0.0534
  422SOL     OW 1264   0.271   0.505   1.561  0.6054 -0.1527  0.6269
  422SOL    HW1 1265   0.313   0.550   1.641 -0.5929  1.1198 -1.3853
  422SOL    HW2 1266   0.170   0.518   1.575 -1.1443 -0.5098 -3.2000
  423SOL     OW 1267   0.979   1.247   1.665  0.3864  0.3832  0.3013
  423SOL    HW1 1268   0.975   1.312   1.746 -0.6682 -1.3858  1.9233
  423SOL    HW2 1269   0.933   1.159   1.683  0.2931  0.4515 -1.7500
  424SOL     OW 1270   2.164   1.664   0.068 -0.5357 -0.3743  0.5369
  424SOL    HW1 1271   2.180   1.605   0.150 -2.2653 -2.7047 -1.6013
  424SOL    HW2 1272   2.114   1.609   3.111  0.7041  0.1520  1.2306
  425SOL     OW 1273   0.188   0.050   2.175 -0.2290 -0.1338  0.2614
  425SOL    HW1 1274   0.109   0.082   2.130  3.6674 -0.0536  0.6354
  425SOL    HW2 1275   0.177   0.026   2.274  1.0537 -1.6285  0.6163
  426SOL     OW 1276   0.328   2.922   2.848 -0.1606 -0.7803 -0.2333
  426SOL    HW1 1277   0.320   2.916   2.951 -0.5747  0.1966 -0.4534
  426SOL    HW2 1278   0.309   2.832   2.803 -3.4051  1.2413  0.3926
  427SOL     OW 1279   0.905   0.797   2.804  0.0646 -0.7941  0.5352
  427SOL    HW1 1280   0.883   0.895   2.815 -0.7930 -2.7716  2.7210
  427SOL    HW2 1281   0.965   0.771   2.882  2.3281 -1.1823  0.2872
  428SOL     OW 1282   2.795   1.173   1.702  0.3758 -0.4169  0.2787
  428SOL    HW1 1283   2.693   1.164   1.727 -2.0789  2.0222 -1.0035
  428SOL    HW2 1284   2.855   1.159   1.782 -0.4346  2.4012  1.9836
  429SOL     OW 1285   2.303   3.072   0.817  0.3452 -0.4997  0.1024
  429SOL    HW1 1286   2.254   0.038   0.860 -1.2038  1.6185  0.6293
  429SOL    HW2 1287   2.273   2.985   0.857  0.5015  0.4609 -0.6185
  430SOL     OW 1288   0.764   1.524   2.248 -0.3906 -0.1986 -0.3396
  430SOL    HW1 1289   0.674   1.512   2.300 -0.4574  3.7717  1.7095
  430SOL    HW2 1290   0.836   1.553   2.314  0.8912 -3.2761  1.4067
  431SOL     OW 1291   2.844   1.463   1.688  0.0435 -0.4924 -0.1168
  431SOL    HW1 1292   2.929   1.452   1.636 -2.7579  0.2855 -0.8710
  431SOL    HW2 1293   2.811   1.373   1.723  0.4182 -0.8461  2.3661
  432SOL     OW 1294   1.194   2.720   2.228  0.4958 -0.0827  0.2384
  432SOL    HW1 1295   1.244   2.806   2.205 -0.7611  0.3836 -0.1150
  432SOL    HW2 1296   1.170   2.724   2.328  0.9209  1.3345 -0.1759
  433SOL     OW 1297   1.782   0.119   2.019  0.0370  0.1612  0.1520
  433SOL    HW1 1298   1.879   0.135   1.986  0.9100 -0.7211 -1.3448
  433SOL    HW2 1299   1.726   0.208   2.023 -2.4817 -0.3208  0.3930
  434SOL     OW 1300   0.780   2.497   2.611  0.8894  0.1576 -0.1302
  434SOL    HW1 1301   0.719   2.516   2.695 -1.0973  2.6373  0.0745
  434SOL    HW2 1302   0.828   2.584   2.582  0.4864  1.8551  0.3701
  435SOL     OW 1303   0.347   2.866   0.295 -0.5529  0.3751  0.7865
  435SOL    HW1 1304   0.279   2.941   0.294  1.2524 -0.5191 -3.3331
  435SOL    HW2 1305   0.428   2.904   0.349  1.4130  2.7219 -0.1133
  436SOL     OW 1306   0.682   0.505   1.949 -0.0353 -0.1082  0.4404
  436SOL    HW1 1307   0.618   0.543   2.021  1.4973  0.8220 -0.3006
  436SOL    HW2 1308   0.738   0.425   1.984  0.9236  0.8893  0.1763
  437SOL     OW 1309   0.282   2.290   2.624 -0.1100  0.5406  0.2768
  437SOL    HW1 1310   0.361   2.280   2.552  2.7472  0.5465 -1.8295
  437SOL    HW2 1311   0.320   2.274   2.718 -0.6341 -0.7997  0.6707
  438SOL     OW 1312   0.815   1.349   1.474 -0.8543 -0.4360 -0.0438
  438SOL    HW1 1313   0.794   1.447   1.482 -0.8223 -2.1015 -1.1687
  438SOL    HW2 1314   0.898   1.329   1.529  0.7580  0.6246  0.7714
  439SOL     OW 1315   2.367   0.770   2.307  0.0128  0.0216 -0.0283
  439SOL    HW1 1316   2.360   0.750   2.407 -0.3897  1.6901 -1.7773
  439SOL    HW2 1317   2.339   0.870   2.286 -2.5007 -0.3390  0.4679
  440SOL     OW 1318   0.486   0.727   0.187 -0.7493 -0.0768  0.3499
  440SOL    HW1 1319   0.437   0.640   0.188  2.3413 -1.0144  0.1181
  440SOL    HW2 1320   0.552   0.730   0.264 -2.4177 -2.4937  0.2282
  441SOL     OW 1321   1.067   2.438   1.370  0.1922 -0.4397 -0.2706
  441SOL    HW1 1322   1.084   2.515   1.432  0.0252 -0.5548 -0.8867
  441SOL    HW2 1323   0.975   2.402   1.389  0.6071 -3.8600  2.5196
  442SOL     OW 1324   2.112   1.624   0.706  0.4200 -0.7007 -0.0039
  442SOL    HW1 1325   2.084   1.697   0.772 -1.1755 -0.8129  1.9217
  442SOL    HW2 1326   2.193   1.566   0.740 -1.3348  0.8639  1.6192
  443SOL     OW 1327   2.564   2.054   2.671  0.5196 -0.3086 -0.1876
  443SOL    HW1 1328   2.594   2.153   2.671  0.5516 -0.7995  2.0482
  443SOL    HW2 1329   2.618   2.000   2.605  0.6109  1.0418  0.4564
  444SOL     OW 1330   1.512   1.371   2.821 -0.3765  0.2688 -0.1225
  444SOL    HW1 1331   1.523   1.396   2.919  1.5929  0.2759  0.9228
  444SOL    HW2 1332   1.468   1.276   2.820 -0.8146  0.4464 -2.6718
  445SOL     OW 1333   2.525   2.759   2.317 -0.4842  0.6466  0.1500
  445SOL    HW1 1334   2.605   2.699   2.292  0.6882 -2.1956  0.9108
  445SOL    HW2 1335   2.550   2.859   2.309  0.7258  3.1830  0.5009
  446SOL     OW 1336   0.679   0.819   1.635 -0.6262 -0.2016  0.4008
  446SOL    HW1 1337   0.586   0.863   1.640 -0.6775 -2.3531 -0.8329
  446SOL    HW2 1338   0.686   0.769   1.545  0.3202 -0.7935 -0.7756
  447SOL     OW 1339   0.798   1.071   0.934  0.3248 -0.2615  0.1469
  447SOL    HW1 1340   0.847   1.158   0.926 -1.5738  1.9280  0.2104
  447SOL    HW2 1341   0.826   1.014   1.014 -4.9731  0.5006  2.8181
  448SOL     OW 1342   0.888   0.953   2.107  0.4576  0.2263  0.2883
  448SOL    HW1 1343   0.908   0.859   2.073  0.3070 -1.7458  1.0987
  448SOL    HW2 1344   0.820   0.958   2.181 -0.7682  0.9996 -2.3454
  449SOL     OW 1345   3.082   1.999   2.646  0.2909 -0.1288 -0.5741
  449SOL    HW1 1346   3.024   1.949   2.581 -0.8087 -0.6606 -2.3339
  449SOL    HW2 1347   0.040   1.935   2.683 -1.6724 -4.0969  3.9843
  450SOL     OW 1348   2.499   2.075   2.096  0.8198 -0.1954  0.1141
  450SOL    HW1 1349   2.517   2.146   2.026 -2.5535 -0.4650 -0.2982
  450SOL    HW2 1350   2.585   2.033   2.129 -1.9757  2.0073  1.1596
  451SOL     OW 1351   2.349   1.145   1.250 -0.3476 -0.6066  0.2587
  451SOL    HW1 1352   2.327   1.124   1.153  1.0571 -0.3387 -0.8370
  451SOL    HW2 1353   2.443   1.116   1.278 -1.4542  0.1453  0.7867
  452SOL     OW 1354   0.364   1.297   1.595 -0.4199 -0.1303  0.0443
  452SOL    HW1 1355   0.385   1.367   1.662 -1.1852 -0.2109 -1.2354
  452SOL    HW2 1356   0.441   1.268   1.537  2.6686 -1.9318  0.5472
  453SOL     OW 1357   0.198   1.283   1.031 -0.5898  0.5992  0.0562
  453SOL    HW1 1358   0.208   1.212   0.957 -0.0093  3.5639  0.7284
  453SOL    HW2 1359   0.167   1.242   1.120 -2.6255  1.9615  0.6161
  454SOL     OW 1360   0.304   1.512   0.176 -0.2427 -0.1850 -0.1987
  454SOL    HW1 1361   0.398   1.488   0.156 -2.1807 -2.3198 -2.1560
  454SOL    HW2 1362   0.238   1.458   0.115 -0.7643 -0.4836 -1.7324
  455SOL     OW 1363   1.709   1.008   0.867  0.3144 -0.3799 -0.1525
  455SOL    HW1 1364   1.734   1.103   0.902 -0.7991  0.0582  0.8425
  455SOL    HW2 1365   1.750   0.935   0.926  0.2216 -1.9274  2.7505
  456SOL     OW 1366   1.682   2.535   0.783 -0.5002 -0.1773 -0.5333
  456SOL    HW1 1367   1.677   2.635   0.767  0.0092 -1.0775  0.3858
  456SOL    HW2 1368   1.597   2.487   0.757 -0.0610  1.4830  0.7015
  457SOL     OW 1369   2.025   0.106   2.560 -0.0131  0.1298 -0.0522
  457SOL    HW1 1370   2.043   0.007   2.555  1.1364  0.9473  0.5526
  457SOL    HW2 1371   1.952   0.135   2.500 -0.3874 -0.1661  4.2873
  458SOL     OW 1372   2.490   0.563   3.082 -0.2912  0.0953  0.2631
  458SOL    HW1 1373   2.445   0.471   3.063  0.8417 -0.0468  0.2071
  458SOL    HW2 1374   2.587   0.558   3.045  1.7228  0.3673  0.1979
  459SOL     OW 1375   3.105   1.092   2.136  0.8369 -0.0030 -0.4370
  459SOL    HW1 1376   3.082   1.192   2.122  1.0951  4.0127  0.7819
  459SOL    HW2 1377   3.037   1.048   2.196 -1.5962 -0.5889  0.6975
  460SOL     OW 1378   0.287   0.845   2.893  0.3367  0.1301  0.0462
  460SOL    HW1 1379   0.258   0.761   2.844 -0.1093  0.4304  2.2899
  460SOL    HW2 1380   0.370   0.820   2.948 -0.4295 -1.4573 -0.5239
  461SOL     OW 1381   0.004   2.357   0.808 -0.1373  0.6479 -0.9044
  461SOL    HW1 1382   0.038   2.280   0.866  2.4575 -4.0463  0.3455
  461SOL    HW2 1383   0.024   2.340   0.710  1.2655 -2.7617 -0.5645
  462SOL     OW 1384   0.043   2.907   1.623 -0.2140 -0.0341  0.0097
  462SOL    HW1 1385   0.029   2.877   1.724 -0.6231  2.7795  1.2457
  462SOL    HW2 1386   3.073   2.936   1.580  3.4099  2.3100  2.0353
  463SOL     OW 1387   2.039   2.146   1.991  0.2377  0.9549 -0.6764
  463SOL    HW1 1388   2.083   2.217   1.936 -4.8103  0.3503  0.3793
  463SOL    HW2 1389   2.030   2.060   1.935  0.7095 -1.5958 -1.3473
  464SOL     OW 1390   0.179   2.897   1.087 -0.4483 -0.3547  0.3073
  464SOL    HW1 1391   0.233   2.898   1.170 -0.9395  1.2270 -0.7302
  464SOL    HW2 1392   0.212   2.951   1.007  1.2196  3.4076 -2.2338
  465SOL     OW 1393   0.499   0.046   1.449 -0.3251 -0.6754 -0.5824
  465SOL    HW1 1394   0.483   3.077   1.506  2.1633 -1.7935 -0.7016
  465SOL    HW2 1395   0.451   0.133   1.487 -0.8388  1.7256  0.3297
  466SOL     OW 1396   1.319   1.870   2.226 -0.1536 -0.1006 -0.6115
  466SOL    HW1 1397   1.396   1.814   2.182  1.7951  0.4640 -2.6385
  466SOL    HW2 1398   1.229   1.861   2.177 -1.7181 -0.6817 -0.2091
  467SOL     OW 1399   3.075   1.602   0.845  0.0486 -0.9288  0.0159
  467SOL    HW1 1400   0.054   1.591   0.891  3.3294  0.0866 -0.5072
  467SOL    HW2 1401   3.089   1.612   0.745  1.8350  0.4699  1.3625
  468SOL     OW 1402   2.303   2.152   2.735 -0.1329  0.5122 -0.1605
  468SOL    HW1 1403   2.379   2.084   2.721 -3.6304  0.2231 -0.3820
  468SOL    HW2 1404   2.219   2.119   2.690  1.8538 -1.9639  2.7173
  469SOL     OW 1405   1.140   2.097   0.275 -0.3005  0.4553 -0.4285
  469SOL    HW1 1406   1.165   2.148   0.186 -2.1964 -0.1149 -2.4384
  469SOL    HW2 1407   1.179   2.140   0.361 -1.8436 -0.4262  1.8221
  470SOL     OW 1408   2.075   1.687   1.609  0.5632  0.5196 -0.5253
  470SOL    HW1 1409   2.149   1.755   1.632 -1.1609  0.8711 -1.0033
  470SOL    HW2 1410   1.991   1.709   1.664 -1.2025  3.7513 -0.7412
  471SOL     OW 1411   0.520   2.367   0.132  0.0912 -0.2675  0.2782
  471SOL    HW1 1412   0.489   2.462   0.159 -2.3954  0.5139  1.8648
  471SOL    HW2 1413   0.571   2.370   0.043 -0.2935 -0.0979 -0.7212
  472SOL     OW 1414   2.643   1.976   2.385  0.7607  0.1360  0.2625
  472SOL    HW1 1415   2.540   2.000   2.365 -1.6607  0.9049 -0.9868
  472SOL    HW2 1416   2.694   1.972   2.297 -0.3677  0.1029  2.3364
  473SOL     OW 1417   1.381   2.657   0.770 -0.4225  0.0294  0.3675
  473SOL    HW1 1418   1.296   2.650   0.815  0.1400  1.3482  1.2197
  473SOL    HW2 1419   1.389   2.749   0.730  0.0185 -2.3964  0.5836
  474SOL     OW 1420   2.961   3.085   1.486 -0.3386  0.2412  0.1666
  474SOL    HW1 1421   2.986   3.019   1.411  1.9144 -0.8341 -0.2044
  474SOL    HW2 1422   2.879   0.018   1.452  2.0845 -0.6337 -0.8892
  475SOL     OW 1423   1.647   2.702   1.584  0.0523  0.0351 -0.7203
  475SOL    HW1 1424   1.557   2.666   1.605  2.6607  2.7290  1.7686
  475SOL    HW2 1425   1.692   2.732   1.668  0.8223  0.6927 -0.8949
  476SOL     OW 1426   0.375   0.379   0.916  0.0036 -0.0892 -0.3314
  476SOL    HW1 1427   0.320   0.387   1.002  1.6645 -1.0131  0.2885
  476SOL    HW2 1428   0.340   0.449   0.849 -0.7282  0.0835  0.5587
  477SOL     OW 1429   0.721   2.205   1.054 -0.1537 -0.0113 -0.4601
  477SOL    HW1 1430   0.633   2.255   1.052  2.5581 -2.2247 -1.3693
  477SOL    HW2 1431   0.779   2.222   0.972 -0.9187 -1.9637  0.7414
  478SOL     OW 1432   0.889   2.741   2.598  0.2617 -0.1878 -0.2467
  478SOL    HW1 1433   0.969   2.740   2.531 -0.5054  2.1941 -2.8866
  478SOL    HW2 1434   0.914   2.755   2.696  0.7028 -0.9058  3.7601
  479SOL     OW 1435   0.280   0.437   2.034  0.0337  0.2218  0.3133
  479SOL    HW1 1436   0.196   0.456   1.974 -2.9548 -0.4135 -1.4233
  479SOL    HW2 1437   0.305   0.337   2.036 -1.3754  1.2181  0.8737
  480SOL     OW 1438   0.167   2.187   3.005  0.8030  0.5747  0.0993
  480SOL    HW1 1439   0.151   2.180   3.106 -3.6042  2.3443 -1.5788
  480SOL    HW2 1440   0.089   2.237   2.962  2.7914  1.0002 -0.2369
  481SOL     OW 1441   1.625   3.027   2.131  0.1389 -0.0497  0.2626
  481SOL    HW1 1442   1.677   3.001   2.214 -0.3599 -1.5596  2.5625
  481SOL    HW2 1443   1.664   3.114   2.088 -0.8951  0.6514 -1.9066
  482SOL     OW 1444   1.767   1.752   2.966 -0.0847 -0.1245 -0.1294
  482SOL    HW1 1445   1.745   1.736   3.068  1.8673 -2.4684 -0.9779
  482SOL    HW2 1446   1.696   1.708   2.907 -0.9012  1.2894  1.5373
  483SOL     OW 1447   1.140   2.718   2.504  0.3489 -0.6276 -0.0724
  483SOL    HW1 1448   1.152   2.623   2.542 -0.3392  0.0854 -0.5794
  483SOL    HW2 1449   1.207   2.780   2.544  1.1138 -1.5591 -2.3785
  484SOL     OW 1450   0.628   2.871   0.886 -0.1394  0.1542 -0.1726
  484SOL    HW1 1451   0.613   2.967   0.907 -2.4115 -0.2773  1.9260
  484SOL    HW2 1452   0.536   2.826   0.893 -3.2538 -1.7050 -1.0919
  485SOL     OW 1453   2.122   0.807   0.669  0.0914 -0.3686 -0.5136
  485SOL    HW1 1454   2.047   0.869   0.677  0.1694 -0.6591 -0.2339
  485SOL    HW2 1455   2.136   0.762   0.578  2.1775 -2.0442 -2.9299
  486SOL     OW 1456   1.999   2.710   1.944 -0.5169 -0.3523 -0.1597
  486SOL    HW1 1457   2.031   2.774   2.014  1.4078 -1.9411 -1.0639
  486SOL    HW2 1458   1.905   2.733   1.904 -2.9924 -2.1545  0.1669
  487SOL     OW 1459   1.303   1.952   0.631  0.1449 -0.0689  0.0846
  487SOL    HW1 1460   1.316   1.976   0.532 -1.9335  2.5298  0.0173
  487SOL    HW2 1461   1.233   1.883   0.650  1.8143  2.4799 -2.3824
  488SOL     OW 1462   2.078   0.346   0.136 -0.1295  0.1254 -0.1307
  488SOL    HW1 1463   2.075   0.434   0.185 -1.7829 -0.4626 -1.6201
  488SOL    HW2 1464   2.098   0.367   0.038 -1.9833  1.6018  1.8352
  489SOL     OW 1465   2.003   2.938   0.559  0.4075 -0.6910 -0.2631
  489SOL    HW1 1466   1.947   3.016   0.600 -3.1967  0.3181  2.4154
  489SOL    HW2 1467   1.995   2.932   0.456  1.7982 -0.3499 -4.5080
  490SOL     OW 1468   1.611   2.857   2.951  0.6579 -0.3910  0.2116
  490SOL    HW1 1469   1.713   2.873   2.945  0.7284 -0.6733 -0.9361
  490SOL    HW2 1470   1.591   2.789   3.023  3.2137 -1.4489 -1.4391
  491SOL     OW 1471   0.783   0.322   1.138  0.1827 -0.4066  0.1966
  491SOL    HW1 1472   0.812   0.229   1.115 -1.7496 -0.5508 -0.1916
  491SOL    HW2 1473   0.690   0.322   1.176  0.7344 -1.6406 -2.2467
  492SOL     OW 1474   1.741   3.110   0.263  0.0297  0.2391  0.1723
  492SOL    HW1 1475   1.655   3.056   0.266  2.2556  0.4356 -0.7493
  492SOL    HW2 1476   1.819   3.049   0.273 -1.3284 -0.2644 -0.2371
  493SOL     OW 1477   1.748   2.135   2.836 -0.2263 -0.1332  0.1856
  493SOL    HW1 1478   1.706   2.226   2.802  2.7289  1.2356 -0.6115
  493SOL    HW2 1479   1.788   2.154   2.926  0.0370 -1.6516 -0.8184
  494SOL     OW 1480   0.239   1.063   0.876 -0.1484  0.5157  0.1014
  494SOL    HW1 1481   0.326   1.012   0.861 -0.3401 -2.3583 -0.2106
  494SOL    HW2 1482   0.173   1.061   0.801 -0.0321  2.6770 -0.5966
  495SOL     OW 1483   2.945   0.092   1.717 -0.3447  0.1847 -0.8213
  495SOL    HW1 1484   3.039   0.124   1.743  3.1618  1.8907  0.2813
  495SOL    HW2 1485   2.953   0.049   1.627  0.2819  0.0213  1.4020
  496SOL     OW 1486   2.702   2.499   2.195  0.4073 -0.4218 -0.4632
  496SOL    HW1 1487   2.768   2.512   2.124 -2.4713  0.7925  2.6191
  496SOL    HW2 1488   2.623   2.443   2.163  0.0457  2.5292 -0.8402
  497SOL     OW 1489   1.640   1.201   2.440 -0.5436 -0.2621  0.2787
  497SOL    HW1 1490   1.576   1.262   2.386  1.4149 -1.7075  1.3418
  497SOL    HW2 1491   1.603   1.119   2.480  2.6739  2.0732 -0.8139
  498SOL     OW 1492   0.690   1.786   0.765 -0.0593 -0.0364 -0.2235
  498SOL    HW1 1493   0.663   1.852   0.837 -0.1305 -2.0566  2.3556
  498SOL    HW2 1494   0.683   1.831   0.673 -1.7562  0.6266  0.1855
  499SOL     OW 1495   0.132   1.755   1.159  0.3263  0.0450  0.4136
  499SOL    HW1 1496   0.036   1.760   1.191  0.7821  2.1776  0.1197
  499SOL    HW2 1497   0.197   1.772   1.237  1.4705  0.0136  1.2780
  500SOL     OW 1498   1.355   2.458   0.072  0.0042 -0.8564  0.6070
  500SOL    HW1 1499   1.453   2.441   0.081 -0.6505 -1.5678 -1.2697
  500SOL    HW2 1500   1.320   2.506   0.151  1.1964 -2.1456 -2.9653
  501SOL     OW 1501   2.166   2.838   0.907 -0.9830 -0.1042  0.0988
  501SOL    HW1 1502   2.231   2.770   0.951  1.4406 -3.8914 -0.9682
  501SOL    HW2 1503   2.093   2.789   0.852  1.6512 -1.3791 -0.5923
  502SOL     OW 1504   0.203   0.858   1.733 -0.1059 -0.3916 -0.2282
  502SOL    HW1 1505   0.160   0.878   1.640 -2.4016  1.1956 -2.2449
  502SOL    HW2 1506   0.291   0.806   1.731  1.5827  2.7498  1.9897
  503SOL     OW 1507   2.051   0.005   1.680  0.4000  0.0691  0.1538
  503SOL    HW1 1508   1.997   3.095   1.595  2.0636  0.7144  1.4180
  503SOL    HW2 1509   2.139   3.065   1.680 -0.4141 -3.4390 -1.6645
  504SOL     OW 1510   2.171   0.875   1.918  0.2580  0.5402  0.2469
  504SOL    HW1 1511   2.112   0.842   1.998 -1.2223  1.2383  0.7814
  504SOL    HW2 1512   2.150   0.969   1.900  3.6250 -3.9180  1.5223
  505SOL     OW 1513   1.102   3.107   2.153  0.1308  0.5639  0.3267
  505SOL    HW1 1514   1.091   0.014   2.051 -3.2056  1.1304 -1.8887
  505SOL    HW2 1515   1.186   3.055   2.169 -1.5019  3.2762 -0.8319
  506SOL     OW 1516   0.473   0.093   1.789  0.0716 -0.0301  0.8731
  506SOL    HW1 1517   0.416   0.092   1.872 -2.8972 -1.6466  0.9004
  506SOL    HW2 1518   0.447   0.020   1.726 -0.4973  3.3459 -1.8276
  507SOL     OW 1519   1.745   0.203   2.969  0.0185  0.1759  0.1265
  507SOL    HW1 1520   1.797   0.251   3.044 -0.8475  0.4605  0.5756
  507SOL    HW2 1521   1.687   0.127   3.013 -0.6362 -2.4154  1.8468
  508SOL     OW 1522   2.385   0.644   2.554  0.2144 -0.1159  0.3105
  508SOL    HW1 1523   2.338   0.557   2.579 -0.7577  1.8426  1.4257
  508SOL    HW2 1524   2.485   0.641   2.535  3.6477 -0.2110 -2.1632
  509SOL     OW 1525   0.826   1.585   1.994  0.3207  0.5435  0.1157
  509SOL    HW1 1526   0.798   1.548   2.085  1.7647  1.0071 -0.8720
  509SOL    HW2 1527   0.811   1.684   1.993  1.4854 -1.5778  0.1357
  510SOL     OW 1528   3.023   0.383   1.009 -0.3024  0.1552 -0.1562
  510SOL    HW1 1529   3.073   0.466   0.970  0.9940  0.7807 -1.1697
  510SOL    HW2 1530   2.945   0.357   0.946 -1.2683 -2.5742 -4.2526
  511SOL     OW 1531   1.747   1.473   1.046  0.0629 -0.3185 -0.3543
  511SOL    HW1 1532   1.691   1.554   1.023  2.2777 -1.1185  1.7642
  511SOL    HW2 1533   1.846   1.486   1.030  0.2346  1.1048  1.2536
  512SOL     OW 1534   0.716   1.187   0.365  0.0393  0.0380 -0.1698
  512SOL    HW1 1535   0.626   1.194   0.318  0.8862 -0.4110  2.2171
  512SOL    HW2 1536   0.709   1.258   0.440 -0.4635  0.2459  4.7251
  513SOL     OW 1537   0.329   2.427   0.802 -0.4265  0.4275 -0.0137
  513SOL    HW1 1538   0.245   2.483   0.801 -1.9775  0.2216  0.3008
  513SOL    HW2 1539   0.381   2.431   0.715 -0.6203 -1.0560 -1.9356
  514SOL     OW 1540   0.094   2.173   0.155  0.8264  0.9322 -0.2076
  514SOL    HW1 1541   0.012   2.115   0.135 -3.3120 -4.3902  0.4979
  514SOL    HW2 1542   0.135   2.137   0.241  3.6098 -2.2103  0.3635
  515SOL     OW 1543   2.898   0.283   0.135  0.0976 -0.2091  0.5143
  515SOL    HW1 1544   2.834   0.208   0.166 -1.8657 -0.0071  1.4750
  515SOL    HW2 1545   2.950   0.330   0.210 -0.4522 -0.3318  1.5635
  516SOL     OW 1546   2.008   3.033   1.018  0.0023 -0.0071 -0.6178
  516SOL    HW1 1547   2.023   3.047   1.118 -0.4654 -2.7892  1.6083
  516SOL    HW2 1548   2.069   2.957   0.987  1.9433  0.4825  0.4031
  517SOL     OW 1549   1.252   1.544   0.169  0.3566  0.0921 -0.1032
  517SOL    HW1 1550   1.257   1.477   0.245 -3.1235  0.0902 -0.5659
  517SOL    HW2 1551   1.232   1.498   0.076 -0.3691  2.7841 -3.0594
  518SOL     OW 1552   1.379   0.663   1.509 -0.0165 -0.1761 -0.0864
  518SOL    HW1 1553   1.344   0.598   1.444  4.1195  3.6539  2.4910
  518SOL    HW2 1554   1.299   0.710   1.553  0.5388  0.4726  2.1288
  519SOL     OW 1555   2.889   2.227   0.446 -0.0771  0.4669 -0.0006
  519SOL    HW1 1556   2.828   2.258   0.370  0.5104  1.6369 -2.6388
  519SOL    HW2 1557   2.845   2.205   0.534  2.1486 -0.2745  1.8224
  520SOL     OW 1558   2.154   2.358   1.837  0.1775 -0.1794  0.1714
  520SOL    HW1 1559   2.231   2.429   1.833  2.3391  0.9075  0.6654
  520SOL    HW2 1560   2.091   2.388   1.910 -1.1273  4.4480 -4.2050
  521SOL     OW 1561   1.331   2.951   2.199  0.2042  0.3419 -0.4013
  521SOL    HW1 1562   1.339   3.004   2.285 -1.0286 -0.7242 -1.2181
  521SOL    HW2 1563   1.407   2.955   2.138 -3.6099 -0.9606  1.5861
  522SOL     OW 1564   2.833   0.008   1.942  0.4535  0.3593  0.0653
  522SOL    HW1 1565   2.902   3.081   2.005  1.5553 -1.6776 -1.5982
  522SOL    HW2 1566   2.876   0.036   1.855 -1.1651 -1.2148  0.5602
  523SOL     OW 1567   1.240   1.914   1.606 -0.2486  0.3636  0.1735
  523SOL    HW1 1568   1.166   1.893   1.672  2.7584  0.6655 -0.2546
  523SOL    HW2 1569   1.218   1.998   1.558 -1.0014  0.0487  0.4138
  524SOL     OW 1570   2.074   2.334   0.021 -0.2155  0.1143 -0.2993
  524SOL    HW1 1571   2.174   2.306   0.025  2.8240 -0.5558 -0.9552
  524SOL    HW2 1572   2.066   2.429   0.058 -1.7146 -0.6667 -1.0142
  525SOL     OW 1573   2.943   0.963   0.462 -0.0659 -0.6001  0.1406
  525SOL    HW1 1574   3.009   0.929   0.400 -0.4546  0.7104  0.7410
  525SOL    HW2 1575   2.850   0.933   0.438  0.4724  0.0747  1.7007
  526SOL     OW 1576   1.176   2.918   0.882  0.2607 -0.0400  0.4167
  526SOL    HW1 1577   1.263   2.919   0.836 -0.2659  1.8690 -0.8904
  526SOL    HW2 1578   1.131   2.828   0.891  0.0906  0.1157  0.9043
  527SOL     OW 1579   2.343   1.477   0.731  0.5884 -0.4041  0.4806
  527SOL    HW1 1580   2.339   1.392   0.674  2.5644 -0.0393 -0.4772
  527SOL    HW2 1581   2.402   1.548   0.688  1.1253  0.7239 -2.2685
  528SOL     OW 1582   0.475   0.807   2.526  0.6937  0.0105 -0.1001
  528SOL    HW1 1583   0.563   0.816   2.483  0.2229 -1.6903  0.8778
  528SOL    HW2 1584   0.401   0.788   2.453 -1.4468 -1.9757 -2.3146
  529SOL     OW 1585   0.596   1.429   3.026  0.7115  0.3340 -0.4796
  529SOL    HW1 1586   0.526   1.492   2.989  1.6150 -0.8668 -0.1678
  529SOL    HW2 1587   0.552   1.338   3.024 -2.6292  0.8608 -0.5239
  530SOL     OW 1588   1.581   1.106   1.906  0.7571 -0.2094 -0.1212
  530SOL    HW1 1589   1.672   1.069   1.894  2.9170  0.3068 -1.6064
  530SOL    HW2 1590   1.531   1.055   1.977 -0.4074 -1.1411  0.4654
  531SOL     OW 1591   1.254   2.282   2.799 -0.5381 -0.4058 -0.5229
  531SOL    HW1 1592   1.166   2.252   2.765  2.5503  3.1340 -0.5334
  531SOL    HW2 1593   1.302   2.214   2.860  3.1332  1.2342  0.3717
  532SOL     OW 1594   2.364   0.737   0.155 -0.4319 -0.3026 -0.7637
  532SOL    HW1 1595   2.410   0.828   0.135  1.2889 -1.3946 -0.7822
  532SOL    HW2 1596   2.419   0.667   0.105  0.2872  1.2373  1.8466
  533SOL     OW 1597   0.042   0.444   1.887  0.3801 -0.4325 -0.0403
  533SOL    HW1 1598   0.045   0.444   1.790  2.6562  0.3494  3.1826
  533SOL    HW2 1599   3.076   0.504   1.913  0.7278  2.1221 -1.0620
  534SOL     OW 1600   1.830   0.230   0.138 -0.1241  0.1160  0.7393
  534SOL    HW1 1601   1.787   0.144   0.171  2.0492  3.3616  2.3926
  534SOL    HW2 1602   1.928   0.235   0.156  2.1041 -0.0728  1.0307
  535SOL     OW 1603   0.536   0.310   0.231  0.0908 -0.3640 -0.2000
  535SOL    HW1 1604   0.611   0.269   0.174 -1.0185 -1.4587  2.1592
  535SOL    HW2 1605   0.580   0.348   0.312 -0.0901 -0.8970  2.4551
  536SOL     OW 1606   0.458   1.526   1.786  0.8028  0.0382 -0.5955
  536SOL    HW1 1607   0.441   1.549   1.883  0.2587 -0.9024  3.1737
  536SOL    HW2 1608   0.522   1.594   1.742 -0.3852  0.7398  1.0639
  537SOL     OW 1609   0.435   2.724   1.921  0.5066  0.0083  0.7892
  537SOL    HW1 1610   0.496   2.745   1.843 -2.4968  1.3921 -0.3747
  537SOL    HW2 1611   0.387   2.801   1.965 -0.1002  2.5820  0.4101
  538SOL     OW 1612   0.044   1.839   0.329  0.4706 -0.3152 -0.0272
  538SOL    HW1 1613   0.099   1.803   0.247  2.1367  1.4256 -0.3948
  538SOL    HW2 1614   3.060   1.859   0.304 -1.4265  1.0168 -3.7836
  539SOL     OW 1615   2.767   0.676   2.834 -0.0264 -0.5214 -0.4299
  539SOL    HW1 1616   2.756   0.601   2.766  1.2571 -1.6110 -2.2773
  539SOL    HW2 1617   2.864   0.678   2.871  0.1059 -0.2792  0.7990
  540SOL     OW 1618   1.661   0.873   0.095  0.1973  0.6020 -0.0751
  540SOL    HW1 1619   1.650   0.952   0.035 -0.9631 -2.3201  1.1254
  540SOL    HW2 1620   1.571   0.838   0.130 -0.7677 -0.2441  0.9930
  541SOL     OW 1621   0.781   0.458   1.641  0.4237 -0.6325 -0.0729
  541SOL    HW1 1622   0.737   0.472   1.732  1.3786  0.7400  0.8949
  541SOL    HW2 1623   0.723   0.494   1.564  0.4360 -4.0324 -0.2218
  542SOL     OW 1624   1.752   2.393   2.337 -0.7391  0.1746  0.2415
  542SOL    HW1 1625   1.772   2.367   2.237  0.1253  2.2028 -0.4759
  542SOL    HW2 1626   1.824   2.360   2.398  2.1512  1.2170  2.1695
  543SOL     OW 1627   0.868   2.781   1.012  0.0734  0.5911  0.2616
  543SOL    HW1 1628   0.780   2.800   0.960 -1.4425  1.9610  0.9296
  543SOL    HW2 1629   0.926   2.708   0.973 -0.8882 -0.4124 -2.3124
  544SOL     OW 1630   2.834   1.678   2.170 -0.3248  0.4830 -0.0331
  544SOL    HW1 1631   2.771   1.605   2.145  2.1579  1.0987  1.4999
  544SOL    HW2 1632   2.895   1.651   2.248  0.1215 -1.2548  1.2219
  545SOL     OW 1633   1.632   2.064   1.439 -0.0554  0.0334  0.0792
  545SOL    HW1 1634   1.567   2.057   1.357  0.9179  2.4801 -2.4776
  545SOL    HW2 1635   1.628   1.975   1.492 -2.0325 -1.1579  0.8565
  546SOL     OW 1636   0.307   0.260   2.430  0.1318 -0.0511 -0.0838
  546SOL    HW1 1637   0.252   0.173   2.414  0.5042  0.6898  0.0850
  546SOL    HW2 1638   0.323   0.286   2.528  1.4304  1.7369  3.6165
  547SOL     OW 1639   1.314   0.114   0.554 -0.7135 -0.1770 -0.0798
  547SOL    HW1 1640   1.237   0.060   0.592 -2.0290 -0.1541 -0.5741
  547SOL    HW2 1641   1.370   0.145   0.631 -1.3729 -2.3006 -0.6322
  548SOL     OW 1642   1.344   2.071   2.965 -0.2457 -0.3076  0.3264
  548SOL    HW1 1643   1.256   2.057   3.010  0.5126  0.3607  0.6843
  548SOL    HW2 1644   1.401   2.141   3.016  3.4827  0.0435 -1.6039
  549SOL     OW 1645   1.828   1.080   0.181 -0.2891 -0.3229  0.2035
  549SOL    HW1 1646   1.764   1.004   0.150  0.2933  1.2215 -0.1359
  549SOL    HW2 1647   1.894   1.038   0.249  2.0865 -2.2903  0.4334
  550SOL     OW 1648   2.533   2.051   0.496  0.3931  0.5679  0.1047
  550SOL    HW1 1649   2.441   2.018   0.502 -3.0366 -0.7236  0.4452
  550SOL    HW2 1650   2.542   2.153   0.500  0.2586 -2.6175  0.3643
  551SOL     OW 1651   1.534   0.269   1.742 -0.7679 -0.6105  0.5871
  551SOL    HW1 1652   1.593   0.278   1.824  1.6252 -0.9125  0.2825
  551SOL    HW2 1653   1.540   0.174   1.705 -1.4685  0.7104 -0.0882
  552SOL     OW 1654   3.066   2.337   2.896  0.3679 -0.3212  0.0910
  552SOL    HW1 1655   3.006   2.284   2.834  1.3124 -3.0773 -0.8265
  552SOL    HW2 1656   3.010   2.381   2.967 -0.4554 -4.2966  1.5347
  553SOL     OW 1657   2.876   2.476   0.850 -0.3650 -0.0794  0.7125
  553SOL    HW1 1658   2.962   2.433   0.820 -0.5649  0.8891 -2.1341
  553SOL    HW2 1659   2.799   2.414   0.857  0.6204  1.1657  0.1411
  554SOL     OW 1660   2.204   1.808   1.996  0.2582 -0.1013  0.1011
  554SOL    HW1 1661   2.206   1.831   2.093 -0.2418 -2.7113 -3.2445
  554SOL    HW2 1662   2.151   1.720   1.985  0.2125 -0.0963  1.7820
  555SOL     OW 1663   1.456   2.088   2.316 -0.1316  0.3230 -0.2764
  555SOL    HW1 1664   1.408   2.003   2.306 -1.0165 -0.5759  2.8437
  555SOL    HW2 1665   1.439   2.154   2.242 -0.3019 -1.2372  1.1085
  556SOL     OW 1666   1.299   1.613   1.319  0.3811  0.2034 -0.0468
  556SOL    HW1 1667   1.269   1.607   1.413 -1.2318 -0.8526 -1.7878
  556SOL    HW2 1668   1.285   1.521   1.270 -1.1223 -1.3477  2.0732
  557SOL     OW 1669   1.564   0.011   1.638 -0.6113  0.3865  0.0253
  557SOL    HW1 1670   1.615   3.040   1.658  1.3739  1.7829 -0.0668
  557SOL    HW2 1671   1.472   3.101   1.600  5.2049 -1.0533  1.9906
  558SOL     OW 1672   0.531   3.020   2.123 -0.0644  0.2610 -0.5412
  558SOL    HW1 1673   0.449   2.972   2.103 -0.0111  1.8794  1.9113
  558SOL    HW2 1674   0.511   3.074   2.207 -2.2098 -2.4056 -0.6159
  559SOL     OW 1675   1.985   2.556   0.173 -0.2341  0.4893  0.0624
  559SOL    HW1 1676   1.916   2.630   0.159 -0.8891 -1.5743  0.7151
  559SOL    HW2 1677   1.943   2.477   0.219  1.4516 -0.5328 -1.1220
  560SOL     OW 1678   1.534   2.101   0.460  0.1482 -0.1235 -0.1493
  560SOL    HW1 1679   1.600   2.076   0.538  1.2488 -1.7833  0.9868
  560SOL    HW2 1680   1.560   2.050   0.377  0.5568  0.1866 -0.2247
  561SOL     OW 1681   1.312   0.320   3.013  0.3386 -0.6937  0.4718
  561SOL    HW1 1682   1.250   0.395   2.981 -2.4651  0.3322 -2.0406
  561SOL    HW2 1683   1.403   0.325   2.967  2.0361 -1.3929  2.0915
  562SOL     OW 1684   0.465   1.567   2.062 -0.3797 -0.1057  0.6540
  562SOL    HW1 1685   0.499   1.490   2.117  3.1621  2.3334 -0.1789
  562SOL    HW2 1686   0.437   1.647   2.121 -1.6328  2.3514 -0.8234
  563SOL     OW 1687   1.265   1.895   2.485  0.3404  0.4029  0.4612
  563SOL    HW1 1688   1.336   1.857   2.548 -1.8105  0.5928 -0.2604
  563SOL    HW2 1689   1.280   1.872   2.385  0.0655  2.0447  0.1224
  564SOL     OW 1690   3.009   1.175   0.932 -0.1188 -0.2717  0.1187
  564SOL    HW1 1691   2.987   1.085   0.972  1.1101 -2.6564  0.7768
  564SOL    HW2 1692   3.000   1.255   0.997 -0.2786  1.7547 -0.1386
  565SOL     OW 1693   0.453   1.222   3.089  0.8454 -0.3072  0.0594
  565SOL    HW1 1694   0.355   1.246   3.061  1.6642 -1.6647 -2.2580
  565SOL    HW2 1695   0.468   1.233   0.079 -1.2468  1.0332 -0.5895
  566SOL     OW 1696   2.469   2.919   2.696 -0.0148  0.4792 -0.3688
  566SOL    HW1 1697   2.546   2.957   2.747 -2.8297  1.9383 -0.4403
  566SOL    HW2 1698   2.389   2.935   2.751 -1.8252  0.4629 -1.0497
  567SOL     OW 1699   1.520   1.325   1.170 -0.4454  0.1462 -0.4598
  567SOL    HW1 1700   1.598   1.378   1.136 -1.6873 -1.4904 -0.6534
  567SOL    HW2 1701   1.543   1.228   1.193 -0.5440  2.1405 -1.2402
  568SOL     OW 1702   1.373   1.100   2.741 -0.6352 -0.7010 -0.2926
  568SOL    HW1 1703   1.282   1.112   2.700 -1.8103  1.2693  2.1412
  568SOL    HW2 1704   1.437   1.046   2.683 -1.2215 -0.4174 -1.0903
  569SOL     OW 1705   2.280   1.857   0.214  0.0808  0.5570  0.3076
  569SOL    HW1 1706   2.340   1.873   0.132  1.0956 -2.9581 -0.2717
  569SOL    HW2 1707   2.204   1.797   0.182  0.6794 -0.2747 -0.0934
  570SOL     OW 1708   3.067   2.457   1.725 -0.2288 -0.0295 -0.3510
  570SOL    HW1 1709   0.014   2.460   1.646  0.2888  3.5867  0.3251
  570SOL    HW2 1710   0.002   2.490   1.812  0.3078 -1.7085  3.8605
  571SOL     OW 1711   2.750   1.941   1.712 -0.0770 -0.6173 -0.0829
  571SOL    HW1 1712   2.751   1.994   1.801  1.1128  1.4134  2.6357
  571SOL    HW2 1713   2.690   1.861   1.717 -0.1615 -0.3390  0.0538
  572SOL     OW 1714   1.768   2.044   0.325 -0.3488  0.0586  0.0511
  572SOL    HW1 1715   1.695   2.026   0.254 -0.8476 -0.7121  3.2512
  572SOL    HW2 1716   1.862   2.026   0.291 -2.5365 -1.4403 -2.2092
  573SOL     OW 1717   1.458   1.779   0.461  0.6576  0.6044  0.2452
  573SOL    HW1 1718   1.558   1.796   0.454  0.1152 -0.7915 -0.2597
  573SOL    HW2 1719   1.417   1.833   0.540 -0.7590 -1.9850  1.2453
  574SOL     OW 1720   1.624   0.011   1.378 -0.4568  0.6473  0.5272
  574SOL    HW1 1721   1.623   3.023   1.393 -0.4851 -0.1873 -3.4636
  574SOL    HW2 1722   1.649   0.061   1.464 -0.0580  1.5081  1.1720
  575SOL     OW 1723   0.591   1.208   1.466  0.8901 -0.5265  0.1847
  575SOL    HW1 1724   0.678   1.263   1.461  2.2492  2.5610  1.5393
  575SOL    HW2 1725   0.573   1.157   1.378 -1.0427 -0.5547 -1.3911
  576SOL     OW 1726   2.790   0.664   1.413 -0.3202 -0.3575  0.3601
  576SOL    HW1 1727   2.774   0.567   1.387 -1.1384  2.0928 -2.0348
  576SOL    HW2 1728   2.787   0.725   1.331  1.4218  0.5521  2.4309
  577SOL     OW 1729   1.520   0.955   2.516 -0.1232  0.0006  0.6369
  577SOL    HW1 1730   1.447   0.890   2.553  0.7880  0.0604  0.7813
  577SOL    HW2 1731   1.534   0.941   2.416  1.0052  0.0350  0.2245
  578SOL     OW 1732   2.160   1.349   2.535 -0.1516 -0.2424 -0.7373
  578SOL    HW1 1733   2.115   1.286   2.600 -1.0627  1.9691 -1.2948
  578SOL    HW2 1734   2.084   1.388   2.477  0.8891  1.6470 -3.4792
  579SOL     OW 1735   0.887   2.019   1.528 -0.4941  0.2023  0.1109
  579SOL    HW1 1736   0.843   2.092   1.583 -1.4324  1.6496  2.5366
  579SOL    HW2 1737   0.846   2.000   1.438 -1.6560 -1.1079 -0.3099
  580SOL     OW 1738   1.540   1.990   0.197  0.1000 -0.2566 -0.5175
  580SOL    HW1 1739   1.502   2.054   0.129 -1.2992 -1.8901 -0.9214
  580SOL    HW2 1740   1.507   1.897   0.175 -2.0451  0.3507 -2.0953
  581SOL     OW 1741   0.885   0.680   1.996 -0.3360  1.2121 -0.0028
  581SOL    HW1 1742   0.797   0.645   1.964  0.5142  2.5489  1.1006
  581SOL    HW2 1743   0.895   0.649   2.096 -0.8973  0.0205  1.4404
  582SOL     OW 1744   0.889   1.304   1.217  0.4570 -0.1033  0.1103
  582SOL    HW1 1745   0.909   1.206   1.215  1.6054 -0.0261 -1.2975
  582SOL    HW2 1746   0.873   1.343   1.310  0.5344 -1.0176  0.0487
  583SOL     OW 1747   0.668   1.150   1.941 -0.4423  0.1380  0.0687
  583SOL    HW1 1748   0.691   1.243   1.895 -3.0169  2.2188 -2.1241
  583SOL    HW2 1749   0.678   1.168   2.043  1.1906  0.2620  1.3058
  584SOL     OW 1750   1.873   2.328   0.332 -0.2232 -0.4046  0.3471
  584SOL    HW1 1751   1.954   2.283   0.377  2.5587  1.7712 -3.2308
  584SOL    HW2 1752   1.800   2.261   0.312  0.0796  0.0171 -1.3688
  585SOL     OW 1753   1.988   0.165   2.820  0.1207 -0.0863 -0.0112
  585SOL    HW1 1754   1.892   0.171   2.850 -0.5175 -1.9529  0.9487
  585SOL    HW2 1755   1.998   0.141   2.722 -1.4532 -0.9336 -1.6957
  586SOL     OW 1756   3.013   2.043   0.702  0.7250 -0.4472  0.0462
  586SOL    HW1 1757   3.062   2.066   0.787 -0.4675 -2.7077 -1.2892
  586SOL    HW2 1758   2.929   2.092   0.694  1.1901 -0.3516  1.2312
  587SOL     OW 1759   1.866   1.735   0.317 -0.3150 -0.1310 -0.7537
  587SOL    HW1 1760   1.930   1.660   0.334 -0.6612  0.9977  0.5817
  587SOL    HW2 1761   1.921   1.815   0.298 -1.4421 -1.3599  0.1086
  588SOL     OW 1762   0.125   0.270   0.681 -0.1662 -0.2325  0.0945
  588SOL    HW1 1763   0.100   0.229   0.770  0.9872 -1.5432 -0.1797
  588SOL    HW2 1764   0.227   0.268   0.667 -0.9061 -0.5648  0.0365
  589SOL     OW 1765   1.134   1.043   0.947 -1.0209  0.2064  0.2486
  589SOL    HW1 1766   1.210   1.069   0.885  0.6608  1.9463  1.1949
  589SOL    HW2 1767   1.161   0.959   1.000  0.1886  0.4742  0.9099
  590SOL     OW 1768   1.377   1.218   0.010 -0.0050  0.3083  0.2908
  590SOL    HW1 1769   1.430   1.257   0.091  0.0642  1.1376  1.5821
  590SOL    HW2 1770   1.285   1.177   0.040  0.0601 -0.3049 -0.7504
  591SOL     OW 1771   2.724   2.403   2.461  0.1451  0.2621 -0.3828
  591SOL    HW1 1772   2.630   2.363   2.453  2.0859  0.5997 -3.0538
  591SOL    HW2 1773   2.735   2.463   2.382  0.9590 -2.3194 -0.2944
  592SOL     OW 1774   1.844   1.980   1.295  0.2124  0.0547  0.1975
  592SOL    HW1 1775   1.850   1.880   1.289  2.4205  0.9020 -0.3534
  592SOL    HW2 1776   1.761   2.009   1.351  2.0561  0.6696  1.2644
  593SOL     OW 1777   0.821   0.042   1.097  0.2143 -0.5687 -0.1164
  593SOL    HW1 1778   0.860   0.007   1.185 -0.8726  2.1031 -1.4967
  593SOL    HW2 1779   0.867   0.008   1.018 -0.2396  0.7520  0.9902
  594SOL     OW 1780   2.960   0.666   2.317  0.2253  0.0126  0.1768
  594SOL    HW1 1781   3.007   0.696   2.230  2.5391 -1.6564  1.3168
  594SOL    HW2 1782   2.889   0.595   2.295 -2.3256 -0.5312  0.9119
  595SOL     OW 1783   0.914   2.782   1.278 -0.4553 -0.1793  0.6265
  595SOL    HW1 1784   0.910   2.781   1.175  1.3767  1.0719  0.5810
  595SOL    HW2 1785   0.836   2.738   1.316 -1.3015  1.8333  0.6521
  596SOL     OW 1786   0.106   0.878   1.458 -0.1779 -0.6659  0.3530
  596SOL    HW1 1787   0.150   0.830   1.383 -2.0150 -1.6764  2.1953
  596SOL    HW2 1788   0.006   0.871   1.440  0.1177  1.0369  0.9139
  597SOL     OW 1789   1.675   1.687   0.104  0.5235  0.5105  0.4082
  597SOL    HW1 1790   1.579   1.701   0.138  0.3612 -0.7646 -0.1582
  597SOL    HW2 1791   1.745   1.701   0.171  0.1431  0.3416  1.7486
  598SOL     OW 1792   0.411   2.932   1.616  0.1863  0.3496 -0.4616
  598SOL    HW1 1793   0.359   2.913   1.531 -3.1835 -0.9340 -0.9973
  598SOL    HW2 1794   0.468   2.852   1.634  1.3708 -1.7738 -0.0144
  599SOL     OW 1795   2.441   1.880   3.112  0.2145  0.1862  0.2274
  599SOL    HW1 1796   2.376   1.927   3.050  0.3022 -1.9441  1.1428
  599SOL    HW2 1797   2.522   1.859   3.062 -3.9412 -1.1438  1.0985
  600SOL     OW 1798   0.848   0.791   0.162 -0.0572 -0.5181 -0.0079
  600SOL    HW1 1799   0.821   0.739   0.248  0.4505 -0.8206 -1.2539
  600SOL    HW2 1800   0.842   0.893   0.173  1.0368 -0.6659 -1.7018
  601SOL     OW 1801   0.904   0.669   0.463 -0.5833 -0.2439  0.9307
  601SOL    HW1 1802   0.909   0.594   0.527  0.0964 -0.6648 -4.2815
  601SOL    HW2 1803   0.995   0.683   0.417  0.8310 -2.4860 -1.9056
  602SOL     OW 1804   1.380   2.921   0.667 -0.2364  0.2831 -0.0606
  602SOL    HW1 1805   1.466   2.967   0.688  2.9404 -2.0284  2.6225
  602SOL    HW2 1806   1.360   2.898   0.568  0.3035 -1.5715 -6.2762
  603SOL     OW 1807   0.760   2.853   2.185 -0.1455 -0.6559 -0.2211
  603SOL    HW1 1808   0.670   2.896   2.149 -0.7455  1.1382 -1.7484
  603SOL    HW2 1809   0.808   2.819   2.104 -3.1905 -1.6226  0.0277
  604SOL     OW 1810   2.857   2.935   2.435 -0.1537  0.1176  0.2287
  604SOL    HW1 1811   2.948   2.941   2.383  2.4034 -1.6636 -2.4309
  604SOL    HW2 1812   2.855   2.844   2.487 -2.7945 -1.9477 -1.0558
  605SOL     OW 1813   2.639   2.192   1.344  0.2309 -0.3430 -0.1309
  605SOL    HW1 1814   2.687   2.193   1.435 -2.2914 -0.6915 -0.4394
  605SOL    HW2 1815   2.560   2.127   1.333 -1.3197  3.0129 -2.0137
  606SOL     OW 1816   0.385   1.543   2.892  0.0669  0.3694 -0.3933
  606SOL    HW1 1817   0.411   1.632   2.938  2.5457 -0.1432 -0.4862
  606SOL    HW2 1818   0.289   1.541   2.860  0.2572 -0.1895  2.1694
  607SOL     OW 1819   0.826   3.059   0.469 -0.0388  0.3187 -0.2780
  607SOL    HW1 1820   0.732   3.082   0.435 -1.6184  1.3596  2.5738
  607SOL    HW2 1821   0.901   3.106   0.423  0.0600 -1.2669 -0.4784
  608SOL     OW 1822   1.847   1.243   2.277 -0.6240 -0.1705  1.1192
  608SOL    HW1 1823   1.786   1.192   2.339  0.5340 -0.5012 -0.5714
  608SOL    HW2 1824   1.792   1.277   2.198  0.6224  1.7962 -2.3043
  609SOL     OW 1825   0.088   0.185   0.935 -0.0729 -0.5134  0.1529
  609SOL    HW1 1826   0.152   0.151   0.999  1.8083 -1.1736 -3.0736
  609SOL    HW2 1827   0.031   0.260   0.969 -1.6508  1.1222 -2.7689
  610SOL     OW 1828   0.639   2.849   0.601  0.2214 -0.1179  0.4212
  610SOL    HW1 1829   0.716   2.794   0.570  1.1902  0.6586  0.3751
  610SOL    HW2 1830   0.638   2.864   0.700 -0.8427  1.1844 -1.5906
  611SOL     OW 1831   1.774   0.940   2.875 -0.5771 -0.5330 -0.5177
  611SOL    HW1 1832   1.863   0.962   2.923 -0.0436 -0.3650  0.9005
  611SOL    HW2 1833   1.700   0.998   2.916  1.3277 -2.5343  0.7222
  612SOL     OW 1834   0.749   2.208   2.297  0.5947 -0.2307 -0.5320
  612SOL    HW1 1835   0.834   2.257   2.324  3.8565 -0.7284 -1.9501
  612SOL    HW2 1836   0.731   2.139   2.370 -0.6346  1.1156  0.2734
  613SOL     OW 1837   0.889   2.374   0.179  0.4582 -0.3462  0.0656
  613SOL    HW1 1838   0.826   2.318   0.233 -0.2990 -0.1809  0.9685
  613SOL    HW2 1839   0.875   2.371   0.080 -2.3872  1.1264 -1.3990
  614SOL     OW 1840   2.743   2.709   1.404  0.6431  0.4450  0.4339
  614SOL    HW1 1841   2.798   2.796   1.407 -2.1352  0.3995 -0.3468
  614SOL    HW2 1842   2.757   2.655   1.323 -1.5178 -0.0770  0.1745
  615SOL     OW 1843   2.292   1.313   3.073 -0.3470 -0.4647  0.5542
  615SOL    HW1 1844   2.207   1.366   3.055 -0.2432  1.7521 -2.8782
  615SOL    HW2 1845   2.338   1.294   2.979  1.9882  0.9834 -2.5009
  616SOL     OW 1846   1.719   0.220   0.411 -0.2591  0.8415  0.1937
  616SOL    HW1 1847   1.737   0.134   0.353 -0.4833  2.1456  0.5049
  616SOL    HW2 1848   1.630   0.261   0.399  0.2376 -2.0798  0.7664
  617SOL     OW 1849   1.098   0.778   3.044 -0.6184  0.5775  0.2004
  617SOL    HW1 1850   1.197   0.784   3.014 -1.4061 -0.8115 -0.2779
  617SOL    HW2 1851   1.091   0.719   0.013  2.3819  0.3671  3.5956
  618SOL     OW 1852   0.738   0.076   1.907  0.3253 -0.3245 -0.1546
  618SOL    HW1 1853   0.759   0.070   2.005  1.0245 -1.0967  1.3794
  618SOL    HW2 1854   0.639   0.090   1.890 -0.6649 -1.2561 -0.4740
  619SOL     OW 1855   2.803   1.188   1.412 -0.4145 -0.5920  0.5148
  619SOL    HW1 1856   2.870   1.247   1.365  0.2091  0.1912 -1.2326
  619SOL    HW2 1857   2.812   1.184   1.512 -0.3999  1.2622 -1.9716
  620SOL     OW 1858   2.012   1.174   2.662 -0.4296  0.3752 -0.3788
  620SOL    HW1 1859   2.052   1.087   2.637 -0.0248  2.2262 -2.4491
  620SOL    HW2 1860   1.911   1.164   2.668 -0.2177 -0.5047 -1.6441
  621SOL     OW 1861   2.521   2.809   1.282  0.1693 -0.3332 -0.1290
  621SOL    HW1 1862   2.577   2.833   1.197  0.8469  1.1311 -0.4379
  621SOL    HW2 1863   2.580   2.770   1.349 -2.6178 -1.4120 -1.7707
  622SOL     OW 1864   1.362   0.740   2.696  0.6212  0.0696 -0.0896
  622SOL    HW1 1865   1.292   0.681   2.646  0.3879  0.1644  0.7779
  622SOL    HW2 1866   1.336   0.737   2.795  0.0766 -0.2481  2.0246
  623SOL     OW 1867   1.150   0.510   2.915 -0.2549 -0.0278 -0.1996
  623SOL    HW1 1868   1.069   0.491   2.857 -0.2780 -0.5942 -1.7913
  623SOL    HW2 1869   1.128   0.591   2.971  3.4033  2.5859  0.7899
  624SOL     OW 1870   1.855   0.702   0.169 -0.4158  1.0436  0.0260
  624SOL    HW1 1871   1.792   0.773   0.128  1.0183 -2.3169  0.8567
  624SOL    HW2 1872   1.950   0.701   0.128  0.0056 -0.6527 -1.9568
  625SOL     OW 1873   0.988   1.304   0.974 -0.2546 -0.3186 -0.1821
  625SOL    HW1 1874   1.048   1.221   0.980  1.1196  0.5046 -0.1709
  625SOL    HW2 1875   0.976   1.337   1.071  2.2147  1.0823  1.0780
  626SOL     OW 1876   1.530   1.060   2.972 -0.0407 -0.0646 -0.2903
  626SOL    HW1 1877   1.485   1.122   3.038  0.8078  3.1670 -0.8007
  626SOL    HW2 1878   1.472   1.044   2.893  3.1812  1.0977  3.0509
  627SOL     OW 1879   1.226   0.251   2.194  0.0588 -0.3578  0.2484
  627SOL    HW1 1880   1.167   0.173   2.176  2.3757  0.9382 -0.4210
  627SOL    HW2 1881   1.195   0.286   2.286 -2.8684  2.2784 -0.3402
  628SOL     OW 1882   2.501   0.149   2.218  0.0992  0.3171 -0.0286
  628SOL    HW1 1883   2.555   0.156   2.135 -2.8791 -0.4439  2.1062
  628SOL    HW2 1884   2.539   0.219   2.283  0.7416  0.7658  0.1714
  629SOL     OW 1885   0.722   0.655   2.916  0.0746 -0.1306  0.0292
  629SOL    HW1 1886   0.788   0.724   2.875 -0.1758 -0.2015  0.7576
  629SOL    HW2 1887   0.762   0.599   2.994 -0.9383 -4.0324 -2.3203
  630SOL     OW 1888   1.267   0.236   1.783  0.4243 -0.0493 -0.1933
  630SOL    HW1 1889   1.249   0.319   1.840 -3.3092  1.3772  1.0244
  630SOL    HW2 1890   1.362   0.232   1.746 -0.4563  2.0523  1.0496
  631SOL     OW 1891   3.002   0.636   0.645 -0.2006 -0.1113  0.2173
  631SOL    HW1 1892   2.922   0.616   0.581  0.8886 -1.4022  0.4839
  631SOL    HW2 1893   3.076   0.694   0.594  1.1095  0.3518 -3.3945
  632SOL     OW 1894   2.250   1.104   0.999 -0.5945 -0.0538  0.3135
  632SOL    HW1 1895   2.207   1.206   0.987 -3.9241  1.0932  1.1410
  632SOL    HW2 1896   2.179   1.033   0.974  0.4631 -0.0795  2.6580
  633SOL     OW 1897   1.437   0.640   1.055 -0.8108 -0.4385  0.2744
  633SOL    HW1 1898   1.406   0.660   0.959 -0.0595  1.5227 -0.1644
  633SOL    HW2 1899   1.445   0.721   1.114  3.4172 -0.8047  1.5567
  634SOL     OW 1900   1.743   0.091   0.930  0.1511 -0.5018  0.2519
  634SOL    HW1 1901   1.795   0.111   0.843  0.4275 -0.2248 -0.4300
  634SOL    HW2 1902   1.702   3.112   0.920 -3.0831 -0.5562 -0.8201
  635SOL     OW 1903   1.409   0.935   1.075  0.0022 -0.0380  0.0335
  635SOL    HW1 1904   1.438   0.939   0.977 -2.1516  0.9370 -2.0238
  635SOL    HW2 1905   1.441   1.014   1.130 -1.9520  1.0150  0.1575
  636SOL     OW 1906   1.055   0.684   0.768  0.7594  0.2825 -0.2295
  636SOL    HW1 1907   1.056   0.661   0.867  1.5561  1.4571  2.2899
  636SOL    HW2 1908   1.004   0.774   0.763  3.8042  2.4846 -0.1022
  637SOL     OW 1909   2.100   2.275   0.463  0.2865 -0.6412  0.3208
  637SOL    HW1 1910   2.155   2.359   0.475 -0.5707  0.1111 -0.3734
  637SOL    HW2 1911   2.154   2.196   0.432  0.2803  3.2684  1.2024
  638SOL     OW 1912   1.792   3.026   2.693 -0.6079  0.2585  0.0036
  638SOL    HW1 1913   1.706   2.996   2.647 -1.6909 -0.8679 -0.3067
  638SOL    HW2 1914   1.840   2.952   2.736 -1.4626  0.8132 -3.9460
  639SOL     OW 1915   0.842   2.175   1.298  0.1956  0.1687 -0.3934
  639SOL    HW1 1916   0.831   2.220   1.206  1.0675  0.5428  2.5044
  639SOL    HW2 1917   0.858   2.072   1.284 -1.9134 -0.7626 -0.4194
  640SOL     OW 1918   2.931   2.658   0.631 -0.2674 -0.4110  0.1605
  640SOL    HW1 1919   2.918   2.603   0.713 -2.6082  2.3387 -1.6798
  640SOL    HW2 1920   2.990   2.613   0.566 -1.2981  0.3179 -0.9065
  641SOL     OW 1921   0.321   0.487   0.189 -0.4820  0.2375  0.1887
  641SOL    HW1 1922   0.389   0.412   0.213 -0.5939  2.0837  0.3212
  641SOL    HW2 1923   0.237   0.445   0.155  1.8672  0.8575  0.6993
  642SOL     OW 1924   2.812   0.738   1.144 -0.2011  0.4140  0.2225
  642SOL    HW1 1925   2.727   0.686   1.150 -0.8284  0.4734  0.7051
  642SOL    HW2 1926   2.807   0.805   1.064 -2.6904 -2.1064  2.4387
  643SOL     OW 1927   0.720   1.968   2.174 -0.1273  0.1962 -0.1482
  643SOL    HW1 1928   0.728   2.070   2.175 -1.4776  2.1636  0.2016
  643SOL    HW2 1929   0.804   1.930   2.221 -0.1775 -2.0381  0.3527
  644SOL     OW 1930   1.886   2.486   0.604 -0.1080 -0.4281 -0.0876
  644SOL    HW1 1931   1.823   2.490   0.683 -2.0110 -1.5774 -3.0556
  644SOL    HW2 1932   1.862   2.401   0.554 -0.2244 -1.2026 -0.5555
  645SOL     OW 1933   1.735   2.311   0.997 -0.1846  0.0621  0.3475
  645SOL    HW1 1934   1.833   2.317   1.002 -0.2847  0.9646  3.1095
  645SOL    HW2 1935   1.690   2.375   0.933 -0.3910 -1.0840 -3.1112
  646SOL     OW 1936   1.219   2.655   0.257 -0.7574 -0.3544  0.2221
  646SOL    HW1 1937   1.165   2.582   0.303 -0.5193 -0.2975 -1.2523
  646SOL    HW2 1938   1.160   2.718   0.204  0.2994  0.9853  0.9558
  647SOL     OW 1939   0.261   3.034   1.833  0.2472 -0.2371 -0.0710
  647SOL    HW1 1940   0.238   2.968   1.909 -0.5675 -1.1498  0.9333
  647SOL    HW2 1941   0.298   2.987   1.753  0.2886  2.1069  0.8610
  648SOL     OW 1942   1.784   0.881   1.248  0.1598 -0.3536  0.2829
  648SOL    HW1 1943   1.870   0.892   1.309 -1.0213  0.8203 -0.6838
  648SOL    HW2 1944   1.809   0.850   1.155 -1.5793  0.6625  0.9359
  649SOL     OW 1945   1.502   2.022   2.756 -0.4060  0.3006 -0.0310
  649SOL    HW1 1946   1.594   2.062   2.777  0.9111 -2.3982 -1.9021
  649SOL    HW2 1947   1.445   2.031   2.839  0.6348 -0.7459 -0.7660
  650SOL     OW 1948   2.456   1.624   1.914 -0.5844 -0.2431 -0.1340
  650SOL    HW1 1949   2.473   1.603   2.011  0.4977 -1.1949  0.4687
  650SOL    HW2 1950   2.403   1.710   1.901 -1.4966 -1.1851  1.1185
  651SOL     OW 1951   1.241   1.741   2.895  0.6555  0.4548 -0.0555
  651SOL    HW1 1952   1.210   1.647   2.876  0.0881 -1.7662 -1.6122
  651SOL    HW2 1953   1.338   1.745   2.919  1.0491  0.3210  2.1174
  652SOL     OW 1954   1.182   2.790   2.979  0.4805  0.2599 -0.3354
  652SOL    HW1 1955   1.246   2.709   2.983 -0.2400 -0.9139 -1.3536
  652SOL    HW2 1956   1.235   2.874   2.955  0.0571  0.1803  1.5170
  653SOL     OW 1957   2.281   2.165   1.181 -0.1887  0.0819  0.1546
  653SOL    HW1 1958   2.186   2.133   1.160  1.8756  1.8076  0.4583
  653SOL    HW2 1959   2.286   2.197   1.277 -0.2795  2.8540 -3.0882
  654SOL     OW 1960   2.886   2.543   2.001  0.0769 -0.2513 -0.4211
  654SOL    HW1 1961   2.863   2.631   1.957 -1.0706 -1.2239 -0.1124
  654SOL    HW2 1962   2.898   2.467   1.933 -1.5077 -0.1578 -0.1114
  655SOL     OW 1963   2.714   2.222   0.916  0.0239  0.2403  0.5594
  655SOL    HW1 1964   2.730   2.120   0.929  0.9473 -2.2750  0.1984
  655SOL    HW2 1965   2.713   2.265   1.004  1.1051  0.1671 -0.0973
  656SOL     OW 1966   0.372   2.634   2.783 -0.3609  0.0974  0.0040
  656SOL    HW1 1967   0.390   2.682   2.694  2.1482  0.3242  0.7240
  656SOL    HW2 1968   0.281   2.582   2.787 -0.8678 -0.1647 -0.1170
  657SOL     OW 1969   3.068   0.829   0.241 -0.0402  0.0320  0.5881
  657SOL    HW1 1970   0.001   0.768   0.309 -1.0059 -1.8688  3.1156
  657SOL    HW2 1971   0.023   0.850   0.165  1.1943 -0.5531 -0.6436
  658SOL     OW 1972   1.518   1.744   1.233  0.0962  0.0176 -0.4185
  658SOL    HW1 1973   1.431   1.698   1.261  0.9837  0.7138 -0.3398
  658SOL    HW2 1974   1.513   1.844   1.246 -2.9807  1.9878 -1.4783
  659SOL     OW 1975   1.844   0.420   1.203  0.3874 -0.3283 -0.6555
  659SOL    HW1 1976   1.852   0.324   1.186 -0.9384  3.5781  0.7681
  659SOL    HW2 1977   1.739   0.433   1.208 -1.8966  0.4054  0.0823
  660SOL     OW 1978   1.329   1.378   0.379 -0.0852 -0.0330  0.0644
  660SOL    HW1 1979   1.259   1.303   0.378 -2.1245 -4.0721 -1.0944
  660SOL    HW2 1980   1.327   1.429   0.466  1.9084  0.5175  1.5417
  661SOL     OW 1981   0.121   1.940   0.571  0.7564 -0.4893  0.5122
  661SOL    HW1 1982   0.102   1.918   0.473 -2.8570  2.3745 -1.7087
  661SOL    HW2 1983   0.046   1.989   0.623  0.7845  0.2708  0.1095
  662SOL     OW 1984   3.113   0.747   2.092  0.3851 -0.1014  0.1433
  662SOL    HW1 1985   3.062   0.699   2.016 -1.8633 -0.4134 -0.5118
  662SOL    HW2 1986   0.077   0.795   2.051  1.9168 -1.4231 -3.4248
  663SOL     OW 1987   1.931   1.247   1.199  0.0621 -0.0148  0.0558
  663SOL    HW1 1988   1.878   1.246   1.113 -1.6541 -0.1361 -0.8240
  663SOL    HW2 1989   1.864   1.239   1.273  0.6391  1.5939 -3.8165
  664SOL     OW 1990   0.654   0.461   0.920 -0.1726  0.9118 -0.5220
  664SOL    HW1 1991   0.554   0.431   0.927  0.5196 -3.1993 -0.8357
  664SOL    HW2 1992   0.697   0.430   1.009  0.9827 -0.1314  0.2471
  665SOL     OW 1993   1.292   3.033   2.882  0.2752 -0.1755  0.3794
  665SOL    HW1 1994   1.378   3.076   2.854 -2.0935 -1.3648  0.0517
  665SOL    HW2 1995   1.236   3.100   2.940  0.3000  1.6797  0.1565
  666SOL     OW 1996   0.227   0.504   2.337 -0.3826 -0.0308 -0.3136
  666SOL    HW1 1997   0.279   0.432   2.390  0.8620 -0.2766  1.9679
  666SOL    HW2 1998   0.210   0.471   2.239 -1.9355 -2.0594 -2.0890
  667SOL     OW 1999   2.029   1.443   2.308  0.0969  0.0218  0.1296
  667SOL    HW1 2000   1.991   1.529   2.265 -2.1424  1.5344 -2.5405
  667SOL    HW2 2001   1.957   1.372   2.302 -0.7932  0.6468  0.3916
  668SOL     OW 2002   0.158   1.535   2.761 -0.3608 -0.1135 -0.8579
  668SOL    HW1 2003   0.175   1.482   2.679 -0.4359 -0.6168 -2.2394
  668SOL    HW2 2004   0.063   1.526   2.795  1.1003  0.4410 -1.3202
  669SOL     OW 2005   2.144   2.973   2.487  0.4614 -0.2234  0.8365
  669SOL    HW1 2006   2.170   2.970   2.388  1.0508 -4.4521 -0.9736
  669SOL    HW2 2007   2.173   2.887   2.533 -1.1931 -3.1804  1.8292
  670SOL     OW 2008   2.698   0.907   2.498 -0.3421  0.3560  0.1278
  670SOL    HW1 2009   2.685   0.806   2.507 -1.7460  1.5057  2.1683
  670SOL    HW2 2010   2.659   0.955   2.586 -0.6621  1.4172  2.6035
  671SOL     OW 2011   2.487   1.705   0.321 -0.0960 -0.3009 -0.0612
  671SOL    HW1 2012   2.542   1.710   0.236 -0.1545  1.1794  3.4189
  671SOL    HW2 2013   2.394   1.742   0.307  1.2848  0.1445  2.0907
  672SOL     OW 2014   2.607   1.143   2.328  0.1041 -0.2000  0.3624
  672SOL    HW1 2015   2.625   1.054   2.375 -0.0161 -3.2329 -1.3847
  672SOL    HW2 2016   2.674   1.216   2.341 -0.2775 -0.1548  1.0555
  673SOL     OW 2017   3.050   1.464   1.487 -0.2464 -0.1923 -0.2342
  673SOL    HW1 2018   0.010   1.531   1.473  2.4360 -1.2914 -0.3141
  673SOL    HW2 2019   3.029   1.418   1.399 -2.3150 -3.6479 -0.9065
  674SOL     OW 2020   1.479   1.765   1.996 -0.3159 -0.7022 -0.1526
  674SOL    HW1 2021   1.441   1.856   1.963  1.2220  1.1789 -1.4595
  674SOL    HW2 2022   1.582   1.771   2.016  2.0658 -1.3475  0.6822
  675SOL     OW 2023   2.887   0.260   1.206 -0.2687  0.5696 -0.7858
  675SOL    HW1 2024   2.945   0.277   1.122 -2.3037 -1.1795  2.4856
  675SOL    HW2 2025   2.823   0.185   1.174  0.5370 -1.7197 -2.3329
  676SOL     OW 2026   2.332   1.004   0.684  0.0413  0.3469 -0.3585
  676SOL    HW1 2027   2.409   1.018   0.623 -2.8810  1.1094  2.4056
  676SOL    HW2 2028   2.263   0.942   0.646 -3.3971 -3.0817 -2.6482
  677SOL     OW 2029   1.514   1.367   2.252 -0.9347  0.0541  0.3674
  677SOL    HW1 2030   1.493   1.450   2.307 -3.5733  0.8369  1.6166
  677SOL    HW2 2031   1.445   1.349   2.178 -0.1040 -0.8819  1.7672
  678SOL     OW 2032   2.520   1.420   1.214  0.2481  1.2444  0.1887
  678SOL    HW1 2033   2.508   1.467   1.123 -0.5099  2.0962  1.7806
  678SOL    HW2 2034   2.467   1.338   1.226  0.2870  2.0657  1.2689
  679SOL     OW 2035   0.389   2.752   0.932  0.1104 -0.2810 -0.4027
  679SOL    HW1 2036   0.352   2.663   0.957 -0.9942 -0.8440  3.3513
  679SOL    HW2 2037   0.322   2.816   0.892  2.0567 -1.5606  1.5788
  680SOL     OW 2038   2.928   2.072   1.190 -0.1804 -0.2351 -0.1757
  680SOL    HW1 2039   2.992   2.004   1.233  3.0307  1.8388 -1.7198
  680SOL    HW2 2040   2.874   2.111   1.270 -1.0797  0.4470  2.4629
  681SOL     OW 2041   0.783   0.787   1.129  0.0291 -0.2154  0.0405
  681SOL    HW1 2042   0.833   0.708   1.172  1.3171 -0.3116 -1.0609
  681SOL    HW2 2043   0.750   0.774   1.034  1.2990 -1.2843 -0.2982
  682SOL     OW 2044   1.615   3.088   0.710 -0.3011 -0.5213  0.3021
  682SOL    HW1 2045   1.544   0.038   0.747 -1.6968 -1.0317  1.8636
  682SOL    HW2 2046   1.693   0.034   0.680 -1.3916  1.5254  0.8935
  683SOL     OW 2047   2.373   1.392   1.763 -0.0740 -0.0641 -0.3434
  683SOL    HW1 2048   2.398   1.482   1.810  0.0195 -1.4377  2.0919
  683SOL    HW2 2049   2.321   1.414   1.679  1.3206  0.0811  1.6337
  684SOL     OW 2050   0.109   1.795   1.591 -0.4098  0.2454  0.4707
  684SOL    HW1 2051   0.009   1.813   1.590  0.8228  2.1830  1.4125
  684SOL    HW2 2052   0.153   1.831   1.678 -0.2317  1.8888  0.7707
  685SOL     OW 2053   2.121   1.699   0.420 -0.0024  0.6094 -0.2181
  685SOL    HW1 2054   2.138   1.691   0.521  2.5883  2.3306  3.1484
  685SOL    HW2 2055   2.152   1.614   0.371  0.8312 -0.9707  0.4054
  686SOL     OW 2056   3.007   0.267   0.577  0.1036  0.5120  0.0925
  686SOL    HW1 2057   3.102   0.271   0.619 -0.8254  0.0564  4.4894
  686SOL    HW2 2058   2.938   0.296   0.646  2.2502  0.9043 -1.4348
  687SOL     OW 2059   1.494   0.059   2.752 -0.1493  0.1159 -0.4779
  687SOL    HW1 2060   1.488   0.145   2.810 -2.0645  1.9786 -2.4353
  687SOL    HW2 2061   1.591   0.041   2.726  0.8423  0.1868  0.5915
  688SOL     OW 2062   1.612   1.722   2.377  0.1760 -0.0288  0.1782
  688SOL    HW1 2063   1.685   1.680   2.432 -1.0977  2.8471  0.3261
  688SOL    HW2 2064   1.656   1.781   2.303  1.4327  1.7835 -1.9634
  689SOL     OW 2065   2.763   0.975   2.145  0.5967  0.6654  0.5702
  689SOL    HW1 2066   2.735   1.050   2.079  0.4894  0.0543 -4.3187
  689SOL    HW2 2067   2.838   1.001   2.210 -0.4681  3.4728  2.6066
  690SOL     OW 2068   1.986   1.629   1.083 -0.2922  0.8800  0.6691
  690SOL    HW1 2069   2.083   1.601   1.094 -0.9657  1.1153  0.9677
  690SOL    HW2 2070   1.942   1.651   1.176 -2.2933 -0.3264  3.5204
  691SOL     OW 2071   0.710   1.450   1.059 -0.3547 -0.4043  0.6874
  691SOL    HW1 2072   0.765   1.394   1.122 -3.2585  2.0243 -0.1220
  691SOL    HW2 2073   0.613   1.426   1.068  2.1988 -0.6461 -0.0643
  692SOL     OW 2074   2.020   3.008   2.059  0.0115  0.2342 -0.0094
  692SOL    HW1 2075   1.935   3.002   2.007  0.2716 -1.1683  0.3626
  692SOL    HW2 2076   2.061   3.104   2.048  0.0771  0.6466 -1.5138
  693SOL     OW 2077   2.795   1.313   2.426 -0.6783  0.6716  0.2492
  693SOL    HW1 2078   2.819   1.413   2.420 -1.0273  0.8126  2.9038
  693SOL    HW2 2079   2.868   1.248   2.429 -0.6435 -0.2685 -2.1403
  694SOL     OW 2080   2.301   0.262   1.104 -0.3332  0.2494  0.0266
  694SOL    HW1 2081   2.307   0.254   1.205  0.3162 -1.0474  0.0339
  694SOL    HW2 2082   2.262   0.349   1.069 -3.2688 -0.9202 -1.6549
  695SOL     OW 2083   0.912   1.085   2.787 -0.0589 -0.2798 -0.2439
  695SOL    HW1 2084   0.908   1.161   2.854  0.2633 -1.7091 -0.8923
  695SOL    HW2 2085   1.001   1.082   2.738 -2.1963 -0.1808 -0.2935
  696SOL     OW 2086   2.062   0.315   1.632  0.7891  0.0421 -0.1902
  696SOL    HW1 2087   2.018   0.363   1.554 -2.1353  0.5264 -0.5501
  696SOL    HW2 2088   2.054   0.213   1.622  1.6094  0.8395  4.0603
  697SOL     OW 2089   1.467   0.611   2.304 -0.0211 -0.1201  0.4008
  697SOL    HW1 2090   1.522   0.616   2.388 -0.3864 -1.3717 -1.3179
  697SOL    HW2 2091   1.475   0.517   2.266 -1.0780  0.2989  1.4999
  698SOL     OW 2092   1.808   1.617   2.507 -0.0980 -0.7847 -0.4816
  698SOL    HW1 2093   1.842   1.659   2.592 -1.3600  4.2909 -3.5369
  698SOL    HW2 2094   1.793   1.515   2.518 -0.0071 -0.5141 -1.4883
  699SOL     OW 2095   1.572   1.166   0.494 -0.1711 -0.4530  0.3691
  699SOL    HW1 2096   1.534   1.240   0.553  1.3171  0.5199  1.8961
  699SOL    HW2 2097   1.574   1.079   0.547 -1.2297 -0.0254 -0.0195
  700SOL     OW 2098   1.565   2.722   0.072 -0.0848 -0.4316 -0.2250
  700SOL    HW1 2099   1.538   2.802   0.138  1.1402 -0.3702 -2.0186
  700SOL    HW2 2100   1.558   2.628   0.118 -0.2077 -2.6137  0.4133
  701SOL     OW 2101   0.070   0.569   1.279 -0.3831 -0.3565 -0.2985
  701SOL    HW1 2102   0.040   0.656   1.232  0.4719 -0.7709 -0.3874
  701SOL    HW2 2103   3.104   0.524   1.329 -0.9405 -0.6800  0.9826
  702SOL     OW 2104   1.912   3.054   1.464  0.0875 -0.0563 -0.5364
  702SOL    HW1 2105   1.958   3.066   1.375 -2.3227  0.5806  3.6418
  702SOL    HW2 2106   1.827   2.999   1.448 -0.0186  0.4166  0.4152
  703SOL     OW 2107   2.757   0.398   1.401 -0.0487 -0.1371 -0.3062
  703SOL    HW1 2108   2.750   0.338   1.486  2.1104 -2.6789  2.4474
  703SOL    HW2 2109   2.803   0.346   1.326 -0.1698 -2.2242  0.8535
  704SOL     OW 2110   1.204   2.145   1.226 -0.1908  0.3412 -0.1765
  704SOL    HW1 2111   1.205   2.244   1.239  0.6592  0.0241 -1.4015
  704SOL    HW2 2112   1.154   2.131   1.140 -0.9837  2.3396  0.7923
  705SOL     OW 2113   0.048   2.021   2.141  0.2417 -0.0772  0.0436
  705SOL    HW1 2114   0.065   2.039   2.239  2.0765 -0.9773  2.4422
  705SOL    HW2 2115   0.100   1.940   2.113 -1.0606 -0.2847  0.7588
  706SOL     OW 2116   2.672   0.450   2.661 -0.1206  0.3566 -0.7723
  706SOL    HW1 2117   2.579   0.427   2.698 -0.0728  1.9785 -1.9963
  706SOL    HW2 2118   2.738   0.387   2.704 -2.2231  1.2003 -1.0209
  707SOL     OW 2119   1.763   2.928   2.338 -0.2085  0.1322  0.1760
  707SOL    HW1 2120   1.816   2.846   2.323  1.3262  1.7070 -0.0850
  707SOL    HW2 2121   1.689   2.906   2.403 -0.3297  1.1735 -0.2312
  708SOL     OW 2122   0.809   2.392   1.450 -0.2168  0.3552 -0.5712
  708SOL    HW1 2123   0.760   2.467   1.400 -1.3221  1.6154  0.0573
  708SOL    HW2 2124   0.824   2.309   1.389  2.8699 -3.8702 -0.8110
  709SOL     OW 2125   2.750   0.843   1.863 -0.1303 -0.0061 -0.8114
  709SOL    HW1 2126   2.658   0.878   1.866  1.1460 -1.9474 -0.0585
  709SOL    HW2 2127   2.797   0.844   1.955  2.1511  3.6416 -0.0004
  710SOL     OW 2128   0.008   0.455   1.631 -0.6802  0.4782  0.0073
  710SOL    HW1 2129   3.113   0.369   1.572 -0.3571 -0.6674 -2.7127
  710SOL    HW2 2130   3.053   0.525   1.618 -1.4362  1.3033  1.3417
  711SOL     OW 2131   0.008   2.781   0.912  0.0282 -0.6018 -0.0963
  711SOL    HW1 2132   0.068   2.816   0.991 -0.6057  2.3083 -2.7762
  711SOL    HW2 2133   0.059   2.723   0.845 -1.4623 -0.3328  1.3101
  712SOL     OW 2134   0.446   2.768   2.547  0.0888  0.5042 -0.3104
  712SOL    HW1 2135   0.534   2.815   2.578  4.6351  0.8335 -0.1534
  712SOL    HW2 2136   0.475   2.706   2.466  0.8506 -1.1458  0.5371
  713SOL     OW 2137   2.367   0.417   0.248  0.5961 -0.1399  0.6064
  713SOL    HW1 2138   2.297   0.447   0.311  0.0767  1.3174 -2.5062
  713SOL    HW2 2139   2.359   0.449   0.150  0.8904 -1.6313 -0.0273
  714SOL     OW 2140   1.608   1.455   3.081 -0.0373  0.2148 -0.1892
  714SOL    HW1 2141   1.632   1.552   3.110 -1.2186  3.1598  1.1291
  714SOL    HW2 2142   1.571   1.409   0.045  0.3908 -0.0521 -0.4912
  715SOL     OW 2143   0.234   0.531   0.435 -0.3665 -0.0112  0.0010
  715SOL    HW1 2144   0.265   0.555   0.344  0.6540 -1.9465  3.0226
  715SOL    HW2 2145   0.271   0.440   0.455 -0.9224  0.0061 -1.3198
  716SOL     OW 2146   1.111   0.025   1.894  0.3201 -0.1095 -0.3715
  716SOL    HW1 2147   1.178   0.086   1.844  0.3462 -0.1512  0.1042
  716SOL    HW2 2148   1.017   0.056   1.867  0.6117 -1.2542 -0.5033
  717SOL     OW 2149   0.265   0.607   2.769 -0.2335 -0.4203 -0.0090
  717SOL    HW1 2150   0.365   0.584   2.750 -0.8515 -0.9181  0.1721
  717SOL    HW2 2151   0.201   0.598   2.686  0.9105 -0.9772 -2.9923
  718SOL     OW 2152   1.435   0.299   0.392  0.3687 -0.1620 -0.2705
  718SOL    HW1 2153   1.408   0.362   0.465  1.0693  0.5651  0.4239
  718SOL    HW2 2154   1.396   0.205   0.410  0.0891 -1.2299  0.6737
  719SOL     OW 2155   2.323   2.218   0.102 -0.0525 -0.2140  0.4547
  719SOL    HW1 2156   2.283   2.157   0.033  0.4212 -0.5106  1.5370
  719SOL    HW2 2157   2.382   2.165   0.167 -0.2046  0.9855  0.0099
  720SOL     OW 2158   1.114   0.986   1.355  0.4388  0.3750  0.1355
  720SOL    HW1 2159   1.144   1.071   1.398  1.8339 -1.9335  0.5572
  720SOL    HW2 2160   1.123   0.904   1.417 -2.9365 -2.2422  1.8993
  721SOL     OW 2161   0.100   2.702   1.269 -0.1120 -0.0628  0.1421
  721SOL    HW1 2162   0.095   2.601   1.254  1.7947  3.0751  0.9418
  721SOL    HW2 2163   0.131   2.754   1.185  0.0602 -0.3427  1.1212
  722SOL     OW 2164   0.693   1.834   2.865  0.3549 -0.1231  0.0850
  722SOL    HW1 2165   0.705   1.919   2.918  0.0330 -0.5041 -0.1741
  722SOL    HW2 2166   0.732   1.754   2.917  0.3326  0.9147  0.9315
  723SOL     OW 2167   1.931   0.391   0.509  0.0659 -0.1992 -0.3983
  723SOL    HW1 2168   1.858   0.328   0.480 -1.2337 -0.8162  2.3336
  723SOL    HW2 2169   1.962   0.369   0.601  0.9361  0.9859  0.7022
  724SOL     OW 2170   0.653   2.243   2.942  0.0110 -0.7419 -0.5272
  724SOL    HW1 2171   0.678   2.157   2.991  0.2471 -1.3241 -0.9975
  724SOL    HW2 2172   0.719   2.316   2.967 -2.9717  1.3828 -1.3204
  725SOL     OW 2173   3.085   0.757   1.091 -0.4320 -0.0520 -0.0370
  725SOL    HW1 2174   2.984   0.753   1.115 -3.4445  2.0321  1.8577
  725SOL    HW2 2175   3.108   0.716   1.001 -0.8585  1.1933 -0.4869
  726SOL     OW 2176   2.480   0.677   0.543 -0.2441 -0.1004 -0.0099
  726SOL    HW1 2177   2.530   0.597   0.497  3.6338 -3.1481  0.8385
  726SOL    HW2 2178   2.381   0.693   0.519 -2.3477  0.0100 -0.9750
  727SOL     OW 2179   2.048   1.044   2.280 -0.0580  0.0483 -0.2557
  727SOL    HW1 2180   1.996   1.129   2.272 -1.3428  0.8039 -0.6140
  727SOL    HW2 2181   2.036   1.006   2.373 -0.1062  0.1887 -1.8908
  728SOL     OW 2182   1.719   2.862   1.396 -0.1534  0.0878  0.3070
  728SOL    HW1 2183   1.689   2.799   1.467 -1.2302  1.4650  1.7380
  728SOL    HW2 2184   1.748   2.814   1.312  0.5599  0.3774 -0.6978
  729SOL     OW 2185   2.351   0.455   2.146 -0.1663 -0.3118 -0.3242
  729SOL    HW1 2186   2.367   0.409   2.056  0.2698  4.1605  0.6397
  729SOL    HW2 2187   2.365   0.558   2.135 -0.5406 -0.5994  0.8119
  730SOL     OW 2188   0.656   0.567   1.422 -0.2990 -0.2666 -0.6392
  730SOL    HW1 2189   0.571   0.534   1.378 -0.3492 -0.7862 -0.8737
  730SOL    HW2 2190   0.726   0.582   1.354  1.3844  0.8517  1.1533
  731SOL     OW 2191   0.302   0.154   0.178  0.3909 -0.0337  0.4016
  731SOL    HW1 2192   0.372   0.216   0.217 -0.5174 -0.6292 -0.4501
  731SOL    HW2 2193   0.332   0.127   0.081  2.4882 -1.8032 -0.3928
  732SOL     OW 2194   0.711   0.444   0.469 -0.2611  0.0310 -0.3442
  732SOL    HW1 2195   0.688   0.402   0.561  0.9481  2.5845  0.7890
  732SOL    HW2 2196   0.680   0.540   0.455  1.1457 -2.6171  3.0481
  733SOL     OW 2197   1.725   1.358   2.660 -0.0840  0.3132  0.1394
  733SOL    HW1 2198   1.700   1.307   2.573 -1.6410 -0.7232 -3.2805
  733SOL    HW2 2199   1.651   1.369   2.725  2.7003 -0.2006 -2.0602
  734SOL     OW 2200   2.859   2.100   1.942 -0.2561 -0.2212 -0.1474
  734SOL    HW1 2201   2.946   2.144   1.975  1.8605  0.6366 -0.6331
  734SOL    HW2 2202   2.779   2.159   1.929 -1.8631  0.7344 -1.4779
  735SOL     OW 2203   1.972   0.523   0.977 -0.1104 -0.4255 -0.1255
  735SOL    HW1 2204   2.069   0.530   1.006 -0.8317 -1.8386 -0.8940
  735SOL    HW2 2205   1.921   0.477   1.055  1.4346 -1.1370  1.8800
  736SOL     OW 2206   0.892   1.263   2.996 -0.5313  0.1055 -0.3748
  736SOL    HW1 2207   0.815   1.227   3.041  1.8663  1.4129 -1.6413
  736SOL    HW2 2208   0.943   1.319   3.066 -2.7516 -0.3003  0.2229
  737SOL     OW 2209   3.029   0.396   0.356  0.2009  0.3291  0.1483
  737SOL    HW1 2210   3.099   0.349   0.299  0.1820  1.4014  0.0178
  737SOL    HW2 2211   3.016   0.360   0.453  1.0817  0.8341 -0.3346
  738SOL     OW 2212   0.571   2.702   1.656 -0.0444  0.0668  0.1671
  738SOL    HW1 2213   0.672   2.694   1.642 -1.5835  0.0653  0.3137
  738SOL    HW2 2214   0.521   2.639   1.593  0.2367 -0.0229  4.2413
  739SOL     OW 2215   1.218   2.977   2.609  0.7242  0.4889 -0.5461
  739SOL    HW1 2216   1.244   2.981   2.709  1.8165 -0.2499  2.9792
  739SOL    HW2 2217   1.131   3.037   2.595  0.2003  2.0873  0.7016
  740SOL     OW 2218   1.914   2.549   1.556 -0.2743 -0.6421 -0.2328
  740SOL    HW1 2219   1.815   2.581   1.565 -2.1006 -0.5478  0.2633
  740SOL    HW2 2220   1.922   2.464   1.613 -1.5941  0.8076  0.7169
  741SOL     OW 2221   2.180   0.770   0.401  0.0205  0.1332  0.4972
  741SOL    HW1 2222   2.227   0.760   0.310  1.8645  2.3139  2.5039
  741SOL    HW2 2223   2.103   0.836   0.401  1.9428  1.1974 -0.0990
  742SOL     OW 2224   1.455   2.683   2.551 -0.0590 -0.2413  0.2495
  742SOL    HW1 2225   1.442   2.615   2.475  2.5769 -1.8413 -0.2333
  742SOL    HW2 2226   1.474   2.641   2.643 -2.7354  1.7920  0.0526
  743SOL     OW 2227   2.473   0.947   1.558  0.0943 -0.0171 -0.4946
  743SOL    HW1 2228   2.515   1.018   1.614  2.2848 -1.8355  1.8185
  743SOL    HW2 2229   2.515   0.859   1.578  0.0172  2.5832 -1.2363
  744SOL     OW 2230   2.647   0.509   0.900 -0.1780  0.1801  0.0585
  744SOL    HW1 2231   2.633   0.586   0.830  0.0695  0.7246  1.5002
  744SOL    HW2 2232   2.635   0.543   0.995 -1.4897  1.0063  1.1466
  745SOL     OW 2233   2.529   1.151   1.725  0.0324 -0.0803  0.2168
  745SOL    HW1 2234   2.484   1.242   1.740  1.6042  1.3204 -0.2092
  745SOL    HW2 2235   2.501   1.078   1.790  0.8724  0.9127 -1.2926
  746SOL     OW 2236   1.325   1.739   0.845 -0.0908 -0.2572  0.8116
  746SOL    HW1 2237   1.421   1.712   0.883  2.3407 -1.7838  1.4783
  746SOL    HW2 2238   1.262   1.657   0.846  1.5755 -0.6864 -1.0373
  747SOL     OW 2239   1.598   1.832   1.648 -0.1433  0.1728  0.7587
  747SOL    HW1 2240   1.520   1.878   1.694 -0.7977  1.9427  0.6050
  747SOL    HW2 2241   1.569   1.738   1.615 -0.6163 -1.6560  0.2694
  748SOL     OW 2242   0.354   2.878   0.017 -0.8172 -0.3097  0.7999
  748SOL    HW1 2243   0.361   2.897   0.116 -0.5214 -1.0475 -2.5722
  748SOL    HW2 2244   0.364   2.780   3.112  0.7516  0.4970 -1.0662
  749SOL     OW 2245   0.067   1.241   2.372 -0.7452 -0.2943 -0.2093
  749SOL    HW1 2246   0.162   1.267   2.338  3.5278  2.1699 -0.1798
  749SOL    HW2 2247   0.069   1.139   2.377  2.8472  1.5534 -0.1480
  750SOL     OW 2248   1.639   0.348   1.993 -0.3594 -0.0691  0.1194
  750SOL    HW1 2249   1.573   0.363   2.066  1.0708  0.8199 -1.0721
  750SOL    HW2 2250   1.709   0.423   1.984 -3.5900  0.7631 -1.2069
  751SOL     OW 2251   2.686   0.837   0.423 -0.5321  0.0616  0.3606
  751SOL    HW1 2252   2.726   0.787   0.341 -0.1163 -0.9572 -3.3113
  751SOL    HW2 2253   2.612   0.777   0.458  0.5844 -0.5309  0.3022
  752SOL     OW 2254   0.064   2.125   0.935 -0.3967 -0.4821  0.3148
  752SOL    HW1 2255   0.136   2.076   0.878 -1.8236 -2.7741 -3.4589
  752SOL    HW2 2256   0.030   2.068   1.012  0.3159 -1.6469 -0.6919
  753SOL     OW 2257   1.126   2.644   0.900 -0.3958  0.0030 -0.0234
  753SOL    HW1 2258   1.140   2.615   1.001 -0.6341 -0.2280  2.3077
  753SOL    HW2 2259   1.037   2.619   0.866  3.2312  2.9706  0.0226
  754SOL     OW 2260   0.291   2.900   2.093  0.2198  0.1547  0.6572
  754SOL    HW1 2261   0.276   2.817   2.150 -0.4778 -0.0756 -0.5038
  754SOL    HW2 2262   0.255   2.984   2.136 -0.3130 -1.7010 -0.9268
  755SOL     OW 2263   1.944   0.932   0.392  0.1352 -0.4095 -0.9326
  755SOL    HW1 2264   1.902   0.841   0.387  1.1785  3.7213  1.7181
  755SOL    HW2 2265   1.916   0.974   0.481 -1.0895 -1.3402 -0.1986
  756SOL     OW 2266   2.219   2.422   2.786  0.2787  0.1463  0.2381
  756SOL    HW1 2267   2.249   2.333   2.749  3.0601 -0.7386 -1.3539
  756SOL    HW2 2268   2.275   2.440   2.868  0.1058  0.1420  0.0940
  757SOL     OW 2269   1.883   0.650   0.433  0.3550 -0.1844  0.3497
  757SOL    HW1 2270   1.891   0.652   0.332  1.5710 -1.1766  1.9142
  757SOL    HW2 2271   1.897   0.559   0.467 -0.8613  2.7172  1.5810
  758SOL     OW 2272   2.241   0.528   1.053  0.5669  0.0014  0.9246
  758SOL    HW1 2273   2.259   0.595   1.128 -2.1808 -0.5794  0.3425
  758SOL    HW2 2274   2.271   0.559   0.963  1.1682 -1.5007 -0.5305
  759SOL     OW 2275   2.578   0.594   1.149 -0.0991 -0.0778  0.3385
  759SOL    HW1 2276   2.555   0.511   1.209  0.6597 -3.0466  4.1497
  759SOL    HW2 2277   2.527   0.678   1.182 -2.1384  1.4106  1.0985
  760SOL     OW 2278   2.177   1.328   1.315  0.5305  0.5388 -0.1837
  760SOL    HW1 2279   2.091   1.297   1.266  1.6696  1.7440 -2.7314
  760SOL    HW2 2280   2.247   1.254   1.298 -0.7566  0.2028  1.3666
  761SOL     OW 2281   0.376   0.308   0.512  0.2788  0.0097 -0.0885
  761SOL    HW1 2282   0.451   0.343   0.564  0.1521 -0.9936  0.3258
  761SOL    HW2 2283   0.368   0.203   0.516 -0.7728 -0.5898 -0.9942
  762SOL     OW 2284   0.881   1.910   1.248  0.0019 -0.2409 -0.5614
  762SOL    HW1 2285   0.961   1.844   1.241 -2.5081 -0.5866 -0.7206
  762SOL    HW2 2286   0.803   1.865   1.198 -1.7320  0.2190 -0.9632
  763SOL     OW 2287   1.453   1.114   1.605 -0.3513 -0.7270  0.4571
  763SOL    HW1 2288   1.486   1.084   1.696  1.4223 -2.1494  0.3024
  763SOL    HW2 2289   1.456   1.038   1.538  1.1557  1.8229 -1.7593
  764SOL     OW 2290   0.180   1.804   2.684 -0.7345 -0.1639  0.0738
  764SOL    HW1 2291   0.147   1.714   2.719 -0.5874  4.1183 -1.8099
  764SOL    HW2 2292   0.256   1.845   2.737  0.3418  1.8925 -2.1013
  765SOL     OW 2293   1.176   2.585   1.159  0.3142 -0.3010 -0.0380
  765SOL    HW1 2294   1.129   2.512   1.204  1.7506  1.2633  1.8879
  765SOL    HW2 2295   1.264   2.608   1.200 -0.0025 -1.1468  1.6338
  766SOL     OW 2296   2.673   2.307   2.708  0.3917  0.1132 -0.5043
  766SOL    HW1 2297   2.650   2.362   2.789  1.2027  0.7250  0.4178
  766SOL    HW2 2298   2.700   2.369   2.631  0.1247  0.6304 -1.0931
  767SOL     OW 2299   0.891   1.260   2.505 -0.1606  0.3198  0.3375
  767SOL    HW1 2300   0.861   1.336   2.562  0.8904 -3.4562  0.8155
  767SOL    HW2 2301   0.807   1.211   2.477  2.0176  0.9031  1.3718
  768SOL     OW 2302   1.097   1.915   3.079 -0.0568  0.3992  0.5074
  768SOL    HW1 2303   1.128   1.845   3.005 -0.7978 -1.6569 -1.1323
  768SOL    HW2 2304   1.080   1.873   0.053 -2.3442 -0.7117  1.1396
  769SOL     OW 2305   0.466   2.322   1.003  0.3747  0.0444  0.0206
  769SOL    HW1 2306   0.413   2.258   1.069  0.1506 -0.1659  1.5126
  769SOL    HW2 2307   0.403   2.353   0.931 -0.9990  0.8270 -0.3160
  770SOL     OW 2308   1.111   1.104   2.608  0.0691  0.1226  0.5140
  770SOL    HW1 2309   1.024   1.149   2.582  1.2134  1.1240 -0.3202
  770SOL    HW2 2310   1.154   1.074   2.520  0.8868  1.4802  1.6008
  771SOL     OW 2311   3.106   2.857   2.323  0.5520  0.6349  0.0227
  771SOL    HW1 2312   0.062   2.867   2.398  0.0054 -0.1975  0.1177
  771SOL    HW2 2313   3.097   2.760   2.299 -1.0800 -0.6346 -2.8353
  772SOL     OW 2314   2.331   2.583   1.899  0.0387  0.0023  0.6713
  772SOL    HW1 2315   2.330   2.641   1.985 -1.8995  1.2877  0.7030
  772SOL    HW2 2316   2.396   2.625   1.834 -0.3533  0.6645  1.2552
  773SOL     OW 2317   0.602   1.966   1.753  0.2826 -0.0995 -0.4130
  773SOL    HW1 2318   0.625   2.054   1.708  1.9289 -0.8065  1.4779
  773SOL    HW2 2319   0.515   1.968   1.811 -2.0173 -0.3621  1.5491
  774SOL     OW 2320   1.520   0.749   1.911  0.1879 -0.4526  0.2310
  774SOL    HW1 2321   1.530   0.668   1.853 -1.7025  3.1005  0.3241
  774SOL    HW2 2322   1.594   0.758   1.984 -1.1888 -2.6412  0.9683
  775SOL     OW 2323   1.883   2.855   2.911 -0.0426  0.1960 -0.3708
  775SOL    HW1 2324   1.922   2.942   2.947 -1.2316 -0.5746 -2.1869
  775SOL    HW2 2325   1.951   2.787   2.887  0.0204  1.4799  0.8124
  776SOL     OW 2326   3.103   0.233   2.050 -0.1476 -0.1821  0.0114
  776SOL    HW1 2327   0.016   0.314   1.990  0.2812 -0.0241  0.3103
  776SOL    HW2 2328   3.030   0.177   2.003 -2.2245 -0.7991 -1.7910
  777SOL     OW 2329   2.415   2.410   2.160  0.0015  0.5544  0.1152
  777SOL    HW1 2330   2.437   2.371   2.251  0.0623  0.1501 -1.0613
  777SOL    HW2 2331   2.316   2.422   2.145  0.1543 -1.2017  1.1642
  778SOL     OW 2332   2.011   0.806   2.165 -0.4692 -0.9124 -0.6030
  778SOL    HW1 2333   2.018   0.904   2.195  0.5926 -0.0242 -0.8654
  778SOL    HW2 2334   1.921   0.773   2.145  3.4857  2.1300  1.1343
  779SOL     OW 2335   2.621   0.755   0.773 -0.5304 -0.1654 -0.2403
  779SOL    HW1 2336   2.559   0.721   0.695 -1.9848 -0.5252  0.3509
  779SOL    HW2 2337   2.690   0.826   0.740 -0.6699  4.6390 -3.2846
  780SOL     OW 2338   2.396   0.309   3.014 -0.2231  0.3359 -0.3645
  780SOL    HW1 2339   2.297   0.307   2.991  1.9113 -1.3247 -0.4783
  780SOL    HW2 2340   2.421   0.205   3.015 -1.0509  0.8021  0.0703
  781SOL     OW 2341   0.377   2.272   1.477  0.1454 -0.2901 -0.4198
  781SOL    HW1 2342   0.460   2.215   1.463  1.8733 -0.6873 -0.5621
  781SOL    HW2 2343   0.338   2.255   1.575  0.1089  0.1096  0.2070
  782SOL     OW 2344   2.402   2.486   2.975 -0.1491  0.4275  0.2941
  782SOL    HW1 2345   2.485   2.486   2.919 -1.7936  1.9672  1.5029
  782SOL    HW2 2346   2.429   2.495   3.070 -1.4943 -2.5098 -2.3887
  783SOL     OW 2347   0.571   1.802   1.376  0.1676  0.3903  0.4246
  783SOL    HW1 2348   0.592   1.739   1.449  1.1199  4.3704  0.9033
  783SOL    HW2 2349   0.624   1.787   1.293  0.6291  0.5545 -2.2105
  784SOL     OW 2350   1.588   0.571   2.976  0.1906  0.1697  0.1132
  784SOL    HW1 2351   1.570   0.494   2.911  0.5960  1.1741 -2.9692
  784SOL    HW2 2352   1.623   0.543   3.067 -1.7702  1.0264 -0.2455
  785SOL     OW 2353   2.570   3.111   0.896 -0.1331  0.2081 -0.5005
  785SOL    HW1 2354   2.497   3.100   0.828  0.0327 -1.1225  0.3436
  785SOL    HW2 2355   2.572   0.090   0.939 -1.3894 -1.3135  2.0702
  786SOL     OW 2356   0.968   2.079   2.023 -0.3647  0.5102  0.1283
  786SOL    HW1 2357   1.033   2.007   1.997 -0.5793  2.4547 -1.8929
  786SOL    HW2 2358   1.016   2.155   2.070  3.9147  0.8131 -1.1247
  787SOL     OW 2359   1.167   0.829   1.113 -0.4317  0.6402  0.1053
  787SOL    HW1 2360   1.140   0.871   1.201 -1.1769 -2.7052 -0.6127
  787SOL    HW2 2361   1.265   0.853   1.085  2.4845 -0.7371  0.6235
  788SOL     OW 2362   0.092   0.737   0.502  0.1274  0.1553  0.2414
  788SOL    HW1 2363   0.155   0.810   0.536  1.7439  1.1781  1.8227
  788SOL    HW2 2364   0.153   0.661   0.472  0.3885  0.8715 -0.3008
  789SOL     OW 2365   0.078   2.042   1.335  0.1593  0.1771 -0.2433
  789SOL    HW1 2366   0.164   2.084   1.309 -4.6266 -3.9540 -1.9217
  789SOL    HW2 2367   0.075   1.946   1.312  1.4240  0.1097  2.9635
  790SOL     OW 2368   0.979   0.692   2.282  0.5499  0.0759  0.2454
  790SOL    HW1 2369   1.078   0.709   2.262 -1.4889  2.2225  0.2656
  790SOL    HW2 2370   0.954   0.691   2.380 -0.5901 -0.4834 -0.2889
  791SOL     OW 2371   1.651   0.690   0.546 -0.1982  0.9918 -0.3472
  791SOL    HW1 2372   1.739   0.668   0.498 -0.0480  1.6342  1.1687
  791SOL    HW2 2373   1.618   0.627   0.617 -0.4225 -1.5845 -0.0040
  792SOL     OW 2374   1.466   2.545   1.922  0.0550  0.1166 -0.2963
  792SOL    HW1 2375   1.498   2.621   1.985 -0.1181  1.6909  0.0970
  792SOL    HW2 2376   1.424   2.587   1.840  1.5171 -0.7507  1.2981
  793SOL     OW 2377   1.358   0.463   0.616 -0.5622  0.5764 -0.3628
  793SOL    HW1 2378   1.365   0.562   0.634  2.4551 -2.7435 -2.5978
  793SOL    HW2 2379   1.431   0.413   0.665 -0.8184 -0.9532  1.8159
  794SOL     OW 2380   0.528   0.825   2.174 -0.3407  0.1293 -0.0270
  794SOL    HW1 2381   0.441   0.881   2.189  0.1653 -1.4829  1.4086
  794SOL    HW2 2382   0.567   0.841   2.079 -0.3780 -1.6866  0.3776
  795SOL     OW 2383   0.336   1.998   2.297 -0.6080 -0.1274 -0.7221
  795SOL    HW1 2384   0.368   2.097   2.317  2.0418  1.8953  0.6134
  795SOL    HW2 2385   0.385   1.940   2.368 -0.3265 -1.5244 -1.2882
  796SOL     OW 2386   2.568   0.797   2.129 -0.2972 -0.2401 -0.1826
  796SOL    HW1 2387   2.499   0.778   2.204 -0.6998  3.9783  0.2736
  796SOL    HW2 2388   2.616   0.887   2.151  1.1562  2.0130  1.0035
  797SOL     OW 2389   2.878   2.420   3.088 -0.2967 -0.9920 -0.0311
  797SOL    HW1 2390   2.922   2.512   3.070  2.1485  1.0679 -0.2784
  797SOL    HW2 2391   2.854   2.415   0.069  1.6986 -0.4641 -1.9331
  798SOL     OW 2392   0.169   2.392   2.279 -0.0853 -0.2413 -0.3125
  798SOL    HW1 2393   0.270   2.370   2.289  0.4663 -0.1878  2.1509
  798SOL    HW2 2394   0.119   2.346   2.352  0.5510 -0.7153  0.4738
  799SOL     OW 2395   0.392   2.161   2.852  0.1519 -0.4886 -0.2787
  799SOL    HW1 2396   0.477   2.198   2.897  0.2317  0.7292 -2.3029
  799SOL    HW2 2397   0.316   2.163   2.920  1.2962 -0.7461 -0.3160
  800SOL     OW 2398   0.756   2.024   3.055 -0.3044  0.2249 -0.2226
  800SOL    HW1 2399   0.755   1.935   3.111 -0.2550 -2.7500  2.2408
  800SOL    HW2 2400   0.851   2.064   3.069  0.6488 -0.8000  2.4685
  801SOL     OW 2401   1.768   1.227   1.452  0.1892 -0.1246 -0.0742
  801SOL    HW1 2402   1.852   1.199   1.496 -0.0072  2.3446  1.5631
  801SOL    HW2 2403   1.710   1.291   1.504 -3.1505 -0.9620 -0.3268
  802SOL     OW 2404   2.889   1.247   0.359 -0.4564  0.0124 -0.2860
  802SOL    HW1 2405   2.841   1.303   0.434  1.4862  2.6169 -2.3971
  802SOL    HW2 2406   2.918   1.151   0.393 -1.2643 -2.2330 -0.7633
  803SOL     OW 2407   0.856   1.872   2.653 -0.4706  0.0958 -0.1572
  803SOL    HW1 2408   0.795   1.855   2.736 -0.4132 -0.8609  0.0107
  803SOL    HW2 2409   0.954   1.875   2.684  2.7744  0.3849  3.6578
  804SOL     OW 2410   1.558   1.343   0.213 -0.9672  0.4031  0.3178
  804SOL    HW1 2411   1.473   1.363   0.260 -0.2712 -3.1240 -2.9872
  804SOL    HW2 2412   1.623   1.299   0.276 -0.2109 -1.3506 -3.1003
  805SOL     OW 2413   2.829   1.660   2.758  0.1439 -0.0530 -0.2651
  805SOL    HW1 2414   2.775   1.731   2.805 -1.0836  1.5247  0.8314
  805SOL    HW2 2415   2.922   1.658   2.801 -1.2955  2.3244 -0.5675
  806SOL     OW 2416   0.547   3.015   0.415 -0.1367 -0.9790  0.3828
  806SOL    HW1 2417   0.494   3.089   0.465  0.8549  2.0279  0.7149
  806SOL    HW2 2418   0.589   2.956   0.481  1.2576 -1.6836 -0.6756
  807SOL     OW 2419   1.927   1.710   2.756  0.0917 -0.4541 -0.2073
  807SOL    HW1 2420   1.885   1.756   2.836  1.2837  4.4709 -1.8106
  807SOL    HW2 2421   1.937   1.610   2.764  1.8941  2.8171  0.5617
  808SOL     OW 2422   0.494   1.333   0.691  0.1946 -0.2978  0.3552
  808SOL    HW1 2423   0.488   1.437   0.693 -1.6167  0.0722 -0.2171
  808SOL    HW2 2424   0.511   1.299   0.785 -2.2689 -0.3462 -4.0378
  809SOL     OW 2425   2.541   1.046   0.505  0.5623  0.4260  0.6646
  809SOL    HW1 2426   2.596   1.135   0.504 -2.0198  2.3599 -2.5174
  809SOL    HW2 2427   2.588   0.970   0.455 -1.6170 -2.9586  1.3294
  810SOL     OW 2428   0.868   1.007   0.510  0.2591  0.0720  0.6998
  810SOL    HW1 2429   0.810   1.074   0.456 -0.8664  2.6768 -2.7230
  810SOL    HW2 2430   0.946   0.974   0.456  0.1719  1.4781 -1.7514
  811SOL     OW 2431   1.402   2.587   1.295  0.5266  0.3602 -0.2863
  811SOL    HW1 2432   1.491   2.552   1.268 -2.7861  2.8427 -0.6811
  811SOL    HW2 2433   1.393   2.568   1.396 -2.3285  2.2667  1.0776
  812SOL     OW 2434   1.118   2.508   1.762  0.5338 -0.0238  0.6374
  812SOL    HW1 2435   1.120   2.573   1.839 -2.0016  0.8884 -2.7428
  812SOL    HW2 2436   1.023   2.488   1.729  2.6393  1.8005  1.8292
  813SOL     OW 2437   1.224   2.918   1.791  0.0888  0.3382 -0.3475
  813SOL    HW1 2438   1.182   2.990   1.843  3.4967 -1.9233  1.4216
  813SOL    HW2 2439   1.255   2.950   1.699 -0.8114  0.2864  0.5330
  814SOL     OW 2440   1.173   2.462   2.585  0.3803  0.2377 -0.0376
  814SOL    HW1 2441   1.105   2.411   2.529  1.2698 -1.9282 -3.6690
  814SOL    HW2 2442   1.227   2.399   2.644  0.7056  1.4793 -1.9863
  815SOL     OW 2443   0.922   0.225   2.375  0.4846 -0.4927  0.3413
  815SOL    HW1 2444   0.830   0.266   2.395 -1.6058 -0.1953 -2.3780
  815SOL    HW2 2445   0.996   0.272   2.429 -0.1400  1.6222 -0.5208
  816SOL     OW 2446   2.127   0.357   2.975 -0.2264 -0.1478 -0.3753
  816SOL    HW1 2447   2.146   0.454   2.948  1.1534  0.4013 -2.4250
  816SOL    HW2 2448   2.084   0.305   2.904  0.3694  0.8600 -0.3791
  817SOL     OW 2449   2.176   0.308   2.303  0.7012 -0.4020 -0.2712
  817SOL    HW1 2450   2.181   0.322   2.404 -0.8114  1.8033  1.0987
  817SOL    HW2 2451   2.255   0.356   2.258 -1.4786 -0.6548  0.6516
  818SOL     OW 2452   1.693   0.468   0.081 -0.0179  0.2302 -0.1341
  818SOL    HW1 2453   1.726   0.551   0.127 -1.9454 -1.9335  1.5933
  818SOL    HW2 2454   1.746   0.388   0.120  0.4934  1.0736 -1.2926
  819SOL     OW 2455   2.117   1.789   2.582 -0.9827 -0.1276 -0.0093
  819SOL    HW1 2456   2.049   1.746   2.648 -1.4324  0.5683  0.0548
  819SOL    HW2 2457   2.109   1.888   2.571  1.1660  1.4715 -0.7515
  820SOL     OW 2458   0.161   1.761   0.090  0.1602  0.1882 -0.6172
  820SOL    HW1 2459   0.164   1.813   0.002  2.2442  1.5719  1.4542
  820SOL    HW2 2460   0.238   1.701   0.106 -0.1066  1.9514  0.8631
  821SOL     OW 2461   0.244   2.971   0.825 -0.3727  0.2850 -0.4383
  821SOL    HW1 2462   0.281   3.066   0.830  1.4270 -0.5873  0.6574
  821SOL    HW2 2463   0.199   2.949   0.730  0.7729 -2.7650 -2.0292
  822SOL     OW 2464   2.983   2.671   3.081  0.4398  0.2331  0.0025
  822SOL    HW1 2465   2.984   2.739   0.046 -0.1024 -0.2165  2.6688
  822SOL    HW2 2466   2.909   2.693   3.014  0.7176 -1.2081  1.3666
  823SOL     OW 2467   1.233   0.713   2.204  0.0534  0.2664 -0.2920
  823SOL    HW1 2468   1.260   0.759   2.120 -1.4215 -1.0423  2.2156
  823SOL    HW2 2469   1.303   0.645   2.231 -4.3074 -0.0533 -0.5225
  824SOL     OW 2470   2.549   2.307   1.934  0.0060 -0.2349  0.0942
  824SOL    HW1 2471   2.498   2.355   2.004  1.8071  1.0951 -0.9222
  824SOL    HW2 2472   2.630   2.359   1.898 -0.4762 -1.4575  2.6602
  825SOL     OW 2473   2.903   2.150   2.783  0.2053 -0.3464 -0.2863
  825SOL    HW1 2474   2.818   2.189   2.739  0.2802 -0.4679  1.1438
  825SOL    HW2 2475   2.964   2.094   2.725 -3.6547 -1.1219 -0.1523
  826SOL     OW 2476   2.340   1.118   2.541  0.5236  0.0590  0.2167
  826SOL    HW1 2477   2.371   1.072   2.459  0.6146  0.4505  2.2969
  826SOL    HW2 2478   2.272   1.185   2.519  1.4464 -0.2230 -3.3933
  827SOL     OW 2479   2.327   2.434   1.079  0.0531  0.0455  0.1426
  827SOL    HW1 2480   2.313   2.333   1.083 -0.9151  1.1396  2.3573
  827SOL    HW2 2481   2.301   2.472   1.172 -0.0934 -0.8658  2.4718
  828SOL     OW 2482   0.182   0.020   1.473 -0.6901  0.1609 -0.6625
  828SOL    HW1 2483   0.140   3.071   1.545 -1.0615 -0.5925 -1.5456
  828SOL    HW2 2484   0.226   0.105   1.516 -0.5608  0.4387 -0.5196
  829SOL     OW 2485   1.492   2.455   2.406  0.0134 -0.6885 -0.2280
  829SOL    HW1 2486   1.459   2.378   2.462 -0.2705  0.3761 -2.3507
  829SOL    HW2 2487   1.590   2.440   2.385  1.6985 -0.8165 -3.7792
  830SOL     OW 2488   0.981   0.372   0.386 -0.5580  0.1579  0.7764
  830SOL    HW1 2489   0.884   0.405   0.378 -0.7051  0.0283  2.8416
  830SOL    HW2 2490   1.009   0.379   0.481  0.2371 -1.2867 -4.6469
  831SOL     OW 2491   3.024   1.515   2.943 -0.2350  0.5004 -0.2359
  831SOL    HW1 2492   3.009   1.541   3.040 -2.1100  0.7885 -2.0084
  831SOL    HW2 2493   2.963   1.437   2.920 -0.5895  0.5078 -2.0307
  832SOL     OW 2494   1.739   2.072   2.254  0.1961  0.4698  0.7993
  832SOL    HW1 2495   1.660   2.077   2.314 -0.0621  2.8640  1.6167
  832SOL    HW2 2496   1.753   2.150   2.191  1.7824 -2.3052 -1.2382
  833SOL     OW 2497   0.860   0.322   2.128  0.4961  0.4586 -0.0504
  833SOL    HW1 2498   0.949   0.348   2.179  3.1767  1.8880  3.5812
  833SOL    HW2 2499   0.838   0.222   2.152 -2.1908 -1.5898  1.0563
  834SOL     OW 2500   0.465   0.948   1.570 -0.4351 -0.2555 -0.4100
  834SOL    HW1 2501   0.411   0.922   1.489 -1.1558 -1.1698 -0.2978
  834SOL    HW2 2502   0.501   1.042   1.562 -0.5089 -0.8323 -1.9812
  835SOL     OW 2503   2.727   0.982   0.038 -0.2812  0.5097  0.3258
  835SOL    HW1 2504   2.737   0.908   0.105 -0.3372  1.8341 -0.5907
  835SOL    HW2 2505   2.706   1.073   0.083 -0.8260  0.1466  1.1090
  836SOL     OW 2506   1.174   1.835   0.268 -0.0732  0.9574  0.0723
  836SOL    HW1 2507   1.164   1.936   0.272 -1.2125 -1.0282 -0.6937
  836SOL    HW2 2508   1.260   1.801   0.228 -0.9905  2.2575  2.6569
  837SOL     OW 2509   1.556   1.696   0.969 -0.8087  0.3907  0.2314
  837SOL    HW1 2510   1.630   1.752   0.932 -2.7335  0.3152 -0.2055
  837SOL    HW2 2511   1.534   1.720   1.068 -2.2980 -2.0857  1.2336
  838SOL     OW 2512   1.126   1.073   2.163  0.3763  0.2682 -0.0196
  838SOL    HW1 2513   1.033   1.042   2.138 -0.8189  0.6536  1.0477
  838SOL    HW2 2514   1.124   1.176   2.149 -0.6899 -0.3483  2.4422
  839SOL     OW 2515   0.723   2.045   2.506 -0.1397  0.0411  0.3571
  839SOL    HW1 2516   0.787   1.972   2.536  2.6120  0.4503  0.8599
  839SOL    HW2 2517   0.722   2.109   2.586  2.2663 -0.7139 -0.2409
  840SOL     OW 2518   0.692   2.210   0.267  0.3495 -0.0241 -0.1304
  840SOL    HW1 2519   0.620   2.258   0.209 -3.1082  0.9408 -1.3319
  840SOL    HW2 2520   0.682   2.241   0.364  2.1886  1.7333 -1.2733
  841SOL     OW 2521   1.644   2.428   0.065 -0.5551  0.7187  0.0357
  841SOL    HW1 2522   1.684   2.463   0.151 -0.1447 -1.4111  2.1401
  841SOL    HW2 2523   1.679   2.481   3.098  0.8453  0.2832 -1.7372
  842SOL     OW 2524   0.524   0.768   3.032 -0.3470  0.3259 -0.0050
  842SOL    HW1 2525   0.517   0.737   0.016 -0.1590 -1.8954 -1.1264
  842SOL    HW2 2526   0.596   0.718   2.981 -2.0948  1.4293  0.5392
  843SOL     OW 2527   1.118   0.203   0.802  0.3815  0.4204  0.3458
  843SOL    HW1 2528   1.076   0.276   0.747 -0.1534 -0.6106  2.6545
  843SOL    HW2 2529   1.153   0.240   0.892  0.2096 -0.4628  0.2167
  844SOL     OW 2530   2.887   3.101   2.627 -0.2302  0.4476  0.1018
  844SOL    HW1 2531   2.828   0.059   2.595 -0.3964 -1.8210  0.4013
  844SOL    HW2 2532   2.866   3.026   2.564  0.5800  0.8595  1.1722
  845SOL     OW 2533   2.603   2.372   1.118  0.0615  0.2236 -0.1605
  845SOL    HW1 2534   2.519   2.383   1.063  4.1584 -2.5233 -1.8022
  845SOL    HW2 2535   2.599   2.304   1.195  2.5215  1.3587 -2.7013
  846SOL     OW 2536   2.751   1.957   2.150 -0.6250  0.1866 -0.4447
  846SOL    HW1 2537   2.808   2.017   2.091  0.4091 -3.3694  0.4940
  846SOL    HW2 2538   2.791   1.862   2.175  0.9961 -0.4787  3.4068
  847SOL     OW 2539   1.124   0.735   1.544  0.3472  0.5697 -0.5905
  847SOL    HW1 2540   1.086   0.781   1.630 -2.2401 -0.4302  2.0607
  847SOL    HW2 2541   1.073   0.647   1.530 -0.3832 -0.5597 -0.8301
  848SOL     OW 2542   2.880   3.057   0.021 -0.0614 -0.5321 -0.1265
  848SOL    HW1 2543   2.841   0.011   0.085  0.3214  0.3040  1.5908
  848SOL    HW2 2544   2.979   3.076   0.019 -0.2650  2.5665 -1.4558
  849SOL     OW 2545   0.748   2.937   2.990 -0.4149  0.7961 -0.4179
  849SOL    HW1 2546   0.686   2.969   2.913  1.2050  0.3805 -3.0118
  849SOL    HW2 2547   0.727   2.985   3.081 -1.8339  0.1995 -0.8258
  850SOL     OW 2548   1.494   2.928   0.979 -0.1467 -0.3130 -0.6683
  850SOL    HW1 2549   1.593   2.942   1.000 -1.9018  0.1144 -2.4380
  850SOL    HW2 2550   1.477   2.829   0.969  0.8918  3.3311 -0.9804
  851SOL     OW 2551   2.643   0.199   2.002  0.3809 -0.1133  0.0855
  851SOL    HW1 2552   2.665   0.281   1.946 -2.4859 -0.1936  1.2637
  851SOL    HW2 2553   2.701   0.123   1.978 -0.4850  1.6639 -0.2511
  852SOL     OW 2554   2.109   0.655   2.421 -0.1257  0.1922 -0.0779
  852SOL    HW1 2555   2.059   0.683   2.334 -1.0260  1.6824 -2.2491
  852SOL    HW2 2556   2.207   0.635   2.393  2.6278 -0.7616  0.4236
  853SOL     OW 2557   3.064   0.009   0.429  0.3287 -0.1466 -0.2444
  853SOL    HW1 2558   3.065   0.103   0.468  0.5979 -0.9856 -0.1765
  853SOL    HW2 2559   3.008   3.059   0.491  2.4063  3.8200 -0.5457
  854SOL     OW 2560   2.278   1.339   2.197  0.1405 -0.5446 -0.0320
  854SOL    HW1 2561   2.356   1.399   2.214 -0.3418 -1.4349 -0.1139
  854SOL    HW2 2562   2.191   1.378   2.232  3.9038 -0.1119 -0.4625
  855SOL     OW 2563   0.834   2.661   0.194 -1.0175 -0.5824  0.1288
  855SOL    HW1 2564   0.758   2.680   0.126 -0.6946 -0.9319 -0.7039
  855SOL    HW2 2565   0.847   2.561   0.206  0.0149  5.3119  0.1440
  856SOL     OW 2566   3.030   0.023   2.844 -0.3537 -0.1152 -0.3964
  856SOL    HW1 2567   2.975   0.010   2.759 -0.8817  2.0763  2.1815
  856SOL    HW2 2568   3.043   3.049   2.902 -1.7487 -1.4619 -0.0774
  857SOL     OW 2569   1.317   3.072   1.562  0.4905  0.3263 -0.6064
  857SOL    HW1 2570   1.322   3.016   1.479  0.3394  0.4993  3.8057
  857SOL    HW2 2571   1.222   3.102   1.582  0.9901  2.8237  1.4379
  858SOL     OW 2572   2.820   2.390   1.763  0.0892 -0.0343 -0.0859
  858SOL    HW1 2573   2.788   2.325   1.694  2.0088 -0.2265 -1.7449
  858SOL    HW2 2574   2.919   2.418   1.751 -0.2884  1.4122 -1.2121
  859SOL     OW 2575   1.427   2.278   1.884 -0.0752 -0.0407 -0.1128
  859SOL    HW1 2576   1.361   2.274   1.804 -4.6281  0.0055 -1.9688
  859SOL    HW2 2577   1.445   2.375   1.910  0.1102 -1.5258  2.2547
  860SOL     OW 2578   2.338   2.807   0.121 -0.2478  0.0979 -0.0277
  860SOL    HW1 2579   2.323   2.779   0.021  0.4765 -0.5314 -0.4983
  860SOL    HW2 2580   2.302   2.735   0.185 -0.8891 -0.1015  1.6229
  861SOL     OW 2581   2.283   2.799   0.565  0.3860 -0.2225  0.1209
  861SOL    HW1 2582   2.201   2.859   0.563  0.6901 -0.6982 -0.4299
  861SOL    HW2 2583   2.249   2.702   0.570  1.6374 -2.0392  0.5530
  862SOL     OW 2584   1.711   0.315   2.346  0.0853 -0.1335 -0.0676
  862SOL    HW1 2585   1.723   0.222   2.381 -0.1099  2.4897  1.5072
  862SOL    HW2 2586   1.792   0.356   2.296  0.5839 -0.1281  0.8585
  863SOL     OW 2587   0.028   0.577   0.874  0.0340 -0.3053  0.7053
  863SOL    HW1 2588   0.115   0.561   0.826  3.1478  1.5836 -2.7953
  863SOL    HW2 2589   3.064   0.593   0.806 -2.1721  1.6842 -2.2620
  864SOL     OW 2590   0.290   2.651   2.229  0.5353  0.1508  0.1524
  864SOL    HW1 2591   0.382   2.659   2.269 -1.2042  0.7517  0.9610
  864SOL    HW2 2592   0.240   2.565   2.253  0.4577  1.1568  0.0935
  865SOL     OW 2593   0.657   1.039   3.041  0.3471 -0.1349  0.4996
  865SOL    HW1 2594   0.616   0.942   3.047 -2.9778 -2.6134  2.3388
  865SOL    HW2 2595   0.579   1.106   3.033 -1.3338 -2.3795  2.6609
  866SOL     OW 2596   2.799   0.738   0.180  0.5743 -0.5202  0.0047
  866SOL    HW1 2597   2.900   0.759   0.185  1.0425 -0.5913 -0.9424
  866SOL    HW2 2598   2.776   0.646   0.143 -1.3297  0.6708  1.8054
  867SOL     OW 2599   0.026   2.852   2.954 -0.3834  0.2754  0.0931
  867SOL    HW1 2600   0.074   2.927   3.005  1.2327  0.2843  1.2396
  867SOL    HW2 2601   0.011   2.776   3.021 -0.6692 -0.4145  1.7326
  868SOL     OW 2602   1.549   2.897   0.277 -0.4244 -0.4198  0.0977
  868SOL    HW1 2603   1.457   2.899   0.318 -0.0710  1.4784 -1.5976
  868SOL    HW2 2604   1.605   2.821   0.316  1.4555 -2.8451  2.6273
  869SOL     OW 2605   1.652   1.596   0.715 -0.0620  0.4468 -0.2337
  869SOL    HW1 2606   1.615   1.620   0.808  0.5796  1.1267  2.5980
  869SOL    HW2 2607   1.657   1.679   0.654  1.1033  2.4501  0.2232
  870SOL     OW 2608   1.749   1.910   0.851 -0.1177  0.4931  0.4681
  870SOL    HW1 2609   1.846   1.885   0.845 -1.4679  2.2133  0.0128
  870SOL    HW2 2610   1.730   1.962   0.767  0.1551 -0.5525  1.5621
  871SOL     OW 2611   1.253   1.367   1.227 -0.2032  0.5210  0.3056
  871SOL    HW1 2612   1.225   1.300   1.303 -0.2955 -2.2792 -1.4143
  871SOL    HW2 2613   1.350   1.359   1.204  0.3480  1.1327 -0.4299
  872SOL     OW 2614   1.019   1.610   1.629 -0.0838 -0.4752  0.0730
  872SOL    HW1 2615   0.968   1.589   1.710  0.7838  0.6410 -2.8826
  872SOL    HW2 2616   1.031   1.710   1.609  0.7381 -2.4988  0.7627
  873SOL     OW 2617   0.957   1.641   2.455  0.2116 -0.4592 -0.5133
  873SOL    HW1 2618   1.018   1.558   2.435 -0.2475  0.6055 -0.4818
  873SOL    HW2 2619   0.948   1.661   2.555  0.1293 -0.5249 -1.2277
  874SOL     OW 2620   0.477   1.331   1.083 -0.0903  0.0788  0.4723
  874SOL    HW1 2621   0.378   1.321   1.073 -1.0033 -4.3420  0.3440
  874SOL    HW2 2622   0.521   1.249   1.117 -1.0353  2.2375  1.1940
  875SOL     OW 2623   2.701   0.071   1.212  0.0866 -0.2133 -0.5526
  875SOL    HW1 2624   2.631   0.115   1.159  0.6466 -2.9447 -1.0162
  875SOL    HW2 2625   2.692   0.083   1.317 -2.2138  0.1090  1.8126
  876SOL     OW 2626   0.870   0.561   3.098 -0.7306  0.1128 -0.0096
  876SOL    HW1 2627   0.919   0.483   0.032  0.9735  0.2052  2.5817
  876SOL    HW2 2628   0.848   0.631   0.054  1.1005  0.4902  3.1391
  877SOL     OW 2629   3.067   0.269   1.438  0.0043  0.2905  0.1762
  877SOL    HW1 2630   3.030   0.242   1.344  0.2864 -4.4869 -3.0181
  877SOL    HW2 2631   3.103   0.185   1.486  0.1008  0.2327 -0.0940
  878SOL     OW 2632   1.574   2.178   3.106  0.2847 -0.0187 -0.6594
  878SOL    HW1 2633   1.608   2.272   0.005  0.8592 -1.0998 -2.5164
  878SOL    HW2 2634   1.657   2.122   3.091 -1.1210 -0.6531 -1.7218
  879SOL     OW 2635   2.308   1.907   1.577  0.2903  0.0569 -0.0798
  879SOL    HW1 2636   2.247   1.988   1.575 -2.7202  3.3417  0.3423
  879SOL    HW2 2637   2.352   1.916   1.673 -1.7176  0.5413  3.9811
  880SOL     OW 2638   0.865   0.193   1.670 -0.2781  0.2747 -0.4856
  880SOL    HW1 2639   0.830   0.157   1.757 -0.5613 -1.2012  1.5401
  880SOL    HW2 2640   0.828   0.286   1.658 -0.4081 -1.7855  2.5580
  881SOL     OW 2641   0.987   2.161   3.014 -0.3192 -0.2071  0.2334
  881SOL    HW1 2642   0.988   2.204   2.922  1.4943 -0.9325  1.2634
  881SOL    HW2 2643   1.038   2.077   3.023 -2.9287  0.1064 -0.3121
  882SOL     OW 2644   2.297   1.213   1.952 -0.2071  0.2168  0.2308
  882SOL    HW1 2645   2.278   1.253   2.040 -0.7692  1.7605 -3.1110
  882SOL    HW2 2646   2.322   1.292   1.892 -0.0676 -3.3500 -0.0493
  883SOL     OW 2647   1.261   0.792   1.961 -0.3146  0.0399 -0.2123
  883SOL    HW1 2648   1.188   0.799   1.889  0.7931  0.1841 -0.7891
  883SOL    HW2 2649   1.353   0.751   1.931  3.2310 -1.2306 -0.5602
  884SOL     OW 2650   2.786   0.464   3.079 -0.0523  0.1102 -0.4920
  884SOL    HW1 2651   2.812   0.394   0.030 -1.4089  3.0819 -0.8242
  884SOL    HW2 2652   2.866   0.521   3.056  0.5848 -0.8012  1.4785
  885SOL     OW 2653   0.209   2.135   0.388 -0.3482  0.1461 -0.3900
  885SOL    HW1 2654   0.271   2.076   0.442 -2.4029 -0.3575  1.7741
  885SOL    HW2 2655   0.254   2.224   0.365 -0.0951 -2.9444  0.7601
  886SOL     OW 2656   2.044   1.451   3.043  0.1095 -0.2514 -0.0316
  886SOL    HW1 2657   2.010   1.453   2.952  4.7659  0.1036  2.2029
  886SOL    HW2 2658   1.991   1.380   3.097 -0.6251 -1.3886 -0.1355
  887SOL     OW 2659   1.779   0.647   1.645 -0.2378 -0.1941  0.1832
  887SOL    HW1 2660   1.703   0.602   1.694 -0.5894  2.0428  0.6068
  887SOL    HW2 2661   1.771   0.746   1.651 -1.0455 -4.7722  2.2903
  888SOL     OW 2662   3.006   1.154   1.898  0.2062 -0.1164  0.0606
  888SOL    HW1 2663   3.057   1.203   1.820  0.3855  0.5016  1.9414
  888SOL    HW2 2664   3.069   1.098   1.960  0.4841 -0.6555 -0.0103
  889SOL     OW 2665   2.870   2.713   0.989  0.1844  0.0757  0.7419
  889SOL    HW1 2666   2.962   2.744   0.956  0.8438  2.8678 -0.9954
  889SOL    HW2 2667   2.846   2.636   0.928 -1.1861  3.6358 -0.7858
  890SOL     OW 2668   0.050   2.733   2.700  0.6868 -0.3529  0.1772
  890SOL    HW1 2669   0.075   2.634   2.729  1.1585 -0.6218  1.1449
  890SOL    HW2 2670   0.037   2.788   2.784 -1.7662 -1.4929 -0.0213
  891SOL     OW 2671   0.529   1.808   0.210 -0.3048  0.3167  0.1000
  891SOL    HW1 2672   0.624   1.848   0.204 -0.5076 -2.1891 -0.7008
  891SOL    HW2 2673   0.531   1.707   0.234 -2.3376 -4.1505  2.1882
  892SOL     OW 2674   0.215   2.402   1.273  0.0641 -0.3303  0.1228
  892SOL    HW1 2675   0.268   2.333   1.326 -1.4854 -0.7889  0.8806
  892SOL    HW2 2676   0.120   2.412   1.310  0.9511 -0.1340  0.0547
  893SOL     OW 2677   0.452   3.055   1.212 -0.1176 -0.0961  0.2146
  893SOL    HW1 2678   0.503   3.108   1.279 -0.1828  1.1244  0.0532
  893SOL    HW2 2679   0.414   2.971   1.251 -0.0855 -0.0961 -0.5525
  894SOL     OW 2680   2.480   1.511   0.961  0.1998 -0.3851 -0.1284
  894SOL    HW1 2681   2.490   1.610   0.967  0.7629 -1.0890  0.2801
  894SOL    HW2 2682   2.438   1.488   0.871 -0.8119  0.9958  0.6135
  895SOL     OW 2683   2.751   2.652   1.672 -0.0182  0.3882  0.4996
  895SOL    HW1 2684   2.778   2.555   1.700  1.2177 -0.9652 -2.4643
  895SOL    HW2 2685   2.762   2.663   1.573  0.8505 -2.0936  0.0796
  896SOL     OW 2686   0.999   0.497   1.487  0.0613 -0.2050  0.6214
  896SOL    HW1 2687   1.073   0.427   1.472 -0.9348 -0.4425 -0.6896
  896SOL    HW2 2688   0.929   0.464   1.558  0.9949 -1.2456  3.1645
  897SOL     OW 2689   0.808   1.620   1.443 -0.3195  0.0168 -0.0486
  897SOL    HW1 2690   0.897   1.615   1.485 -0.5944 -1.2263 -2.1123
  897SOL    HW2 2691   0.796   1.664   1.351 -0.8252  1.9130 -0.0594
  898SOL     OW 2692   1.367   2.704   1.696  0.2036 -0.5043 -0.1047
  898SOL    HW1 2693   1.314   2.620   1.667  1.6477  0.7781 -0.4501
  898SOL    HW2 2694   1.312   2.775   1.749 -0.5334 -0.1588  0.2691
  899SOL     OW 2695   0.977   0.348   0.107 -0.2881  0.3428 -0.0009
  899SOL    HW1 2696   0.999   0.368   0.204 -1.4329 -3.1070 -0.1396
  899SOL    HW2 2697   0.901   0.277   0.110 -1.6845  3.4213  1.6972
  900SOL     OW 2698   1.381   2.305   2.190  1.0072 -0.8685  0.2506
  900SOL    HW1 2699   1.447   2.361   2.237 -2.4196  0.8001 -0.3222
  900SOL    HW2 2700   1.404   2.298   2.091 -0.3451 -0.6947 -0.9973
  901SOL     OW 2701   1.208   2.230   0.065  0.6532  0.1509 -0.1387
  901SOL    HW1 2702   1.129   2.264   0.009  1.6202 -1.1418 -1.3618
  901SOL    HW2 2703   1.283   2.299   0.067  0.4544  0.4977  1.6696
  902SOL     OW 2704   1.501   1.352   0.698 -0.3600 -0.0037 -0.3823
  902SOL    HW1 2705   1.430   1.419   0.684  1.8995  0.7048  0.4454
  902SOL    HW2 2706   1.583   1.413   0.699 -4.3088  0.7409  1.5405
  903SOL     OW 2707   2.439   0.989   0.102 -0.2036  0.3880  0.7479
  903SOL    HW1 2708   2.404   1.017   0.007 -2.6440 -0.0103 -6.0926
  903SOL    HW2 2709   2.532   1.019   0.125  2.8646 -0.6040 -0.0046
  904SOL     OW 2710   0.860   1.089   0.128  0.4104 -0.3054 -0.4824
  904SOL    HW1 2711   0.807   1.058   0.048  0.3848 -2.1555  2.5559
  904SOL    HW2 2712   0.814   1.162   0.182  0.0715  0.7904  0.2789
  905SOL     OW 2713   2.131   3.077   1.266 -0.0776 -0.0905  0.1185
  905SOL    HW1 2714   2.166   0.051   1.313  0.9094  2.5634  2.9351
  905SOL    HW2 2715   2.190   2.999   1.295 -1.9999  0.9326 -2.0144
  906SOL     OW 2716   2.818   2.522   1.189  0.2751 -0.3582  0.1070
  906SOL    HW1 2717   2.842   2.591   1.117 -0.4529  3.1877 -2.1083
  906SOL    HW2 2718   2.727   2.474   1.162 -1.7681 -0.3855 -0.5334
  907SOL     OW 2719   1.108   0.949   0.359 -0.1751  0.1886  0.0533
  907SOL    HW1 2720   1.134   0.850   0.341  3.3022 -5.2661 -2.3053
  907SOL    HW2 2721   1.135   1.014   0.290 -0.4735 -1.6355 -0.5020
  908SOL     OW 2722   1.439   0.141   0.814 -0.4211  0.0999 -0.1002
  908SOL    HW1 2723   1.343   0.125   0.850 -1.0249 -0.8669 -1.3887
  908SOL    HW2 2724   1.492   0.200   0.880 -0.0014  0.4135  0.4730
  909SOL     OW 2725   2.202   1.042   1.510  0.1911 -0.0347 -0.5904
  909SOL    HW1 2726   2.289   0.993   1.541  1.3641  1.1939  1.8774
  909SOL    HW2 2727   2.222   1.100   1.425  0.7115 -0.0246  0.0542
  910SOL     OW 2728   1.823   0.543   1.961 -0.0619 -0.2327  0.3285
  910SOL    HW1 2729   1.812   0.637   1.996 -0.3999 -1.5925 -0.8088
  910SOL    HW2 2730   1.904   0.550   1.896 -0.0212  1.8816  0.6853
  911SOL     OW 2731   2.603   0.863   2.916  0.1998 -0.3356  0.1033
  911SOL    HW1 2732   2.672   0.789   2.884  3.8859 -1.2033 -0.0554
  911SOL    HW2 2733   2.628   0.910   3.008  1.3917  0.0630  3.7899
  912SOL     OW 2734   0.033   1.294   1.712  0.0342  0.5103 -0.1519
  912SOL    HW1 2735   0.064   1.260   1.618  0.0808  1.0283 -2.8479
  912SOL    HW2 2736   0.040   1.396   1.712 -2.5082  1.0960  0.5284
  913SOL     OW 2737   3.052   2.416   1.318  0.3445 -0.4848 -0.4852
  913SOL    HW1 2738   3.039   2.341   1.388 -2.4422  0.1727  1.9228
  913SOL    HW2 2739   2.975   2.429   1.259  0.6790 -1.7954 -0.2926
  914SOL     OW 2740   1.816   0.984   1.878  0.1160  0.6188  0.1622
  914SOL    HW1 2741   1.895   1.032   1.911 -1.6384 -1.5882 -3.2730
  914SOL    HW2 2742   1.821   0.980   1.773 -0.3290  0.6778 -0.7869
  915SOL     OW 2743   2.109   0.836   0.996 -0.3921 -0.2328 -0.4499
  915SOL    HW1 2744   2.145   0.824   1.092 -1.8377 -0.6197  0.9596
  915SOL    HW2 2745   2.139   0.758   0.946  0.7760 -0.6494  3.7678
  916SOL     OW 2746   2.022   2.096   1.132 -0.3288 -1.1041  0.0161
  916SOL    HW1 2747   1.988   2.182   1.091  1.3774  0.6479 -1.2615
  916SOL    HW2 2748   1.957   2.060   1.200  0.6767  1.0869  0.4711
  917SOL     OW 2749   1.881   1.971   2.666 -0.7208  0.5000  0.7194
  917SOL    HW1 2750   1.827   2.026   2.728 -0.2607 -3.4104 -4.1289
  917SOL    HW2 2751   1.889   1.875   2.696 -2.2548 -0.6518 -2.3044
  918SOL     OW 2752   1.842   2.668   2.334 -0.0168  0.0182 -0.6103
  918SOL    HW1 2753   1.935   2.687   2.294  1.8356  0.2598 -0.6645
  918SOL    HW2 2754   1.825   2.567   2.340 -1.6968 -0.6993  1.0061
  919SOL     OW 2755   1.335   2.890   1.371  0.6340  0.3498  0.0974
  919SOL    HW1 2756   1.303   2.919   1.274 -1.6675 -0.3302  0.2051
  919SOL    HW2 2757   1.388   2.808   1.370 -1.4295  2.2105  0.2752
  920SOL     OW 2758   0.135   0.058   2.465 -0.1290 -0.0086 -0.2777
  920SOL    HW1 2759   0.139   3.080   2.515  0.4260 -1.3503  2.3143
  920SOL    HW2 2760   0.097   0.124   2.530  2.7031  0.0122  1.7041
  921SOL     OW 2761   2.945   0.972   1.598 -0.1861 -0.0440  0.2299
  921SOL    HW1 2762   2.906   1.057   1.629  3.4386 -1.8529 -0.1199
  921SOL    HW2 2763   2.921   0.948   1.504 -0.0050  1.5215 -0.2305
  922SOL     OW 2764   2.228   2.591   0.259 -0.0637  0.4410 -0.2506
  922SOL    HW1 2765   2.138   2.583   0.218  0.9120  0.2741  2.4057
  922SOL    HW2 2766   2.202   2.576   0.360  2.0722  0.6762  0.8085
  923SOL     OW 2767   0.686   1.872   0.501 -0.3188  0.3266  0.1565
  923SOL    HW1 2768   0.602   1.929   0.497  0.1054 -2.8216  0.3803
  923SOL    HW2 2769   0.765   1.916   0.451 -2.2361  2.4103  1.3071
  924SOL     OW 2770   1.237   0.558   0.103 -0.4678 -0.1220 -0.5077
  924SOL    HW1 2771   1.254   0.471   0.056 -1.6611 -0.1149  0.6251
  924SOL    HW2 2772   1.313   0.624   0.076 -1.2256  1.5955 -2.1430
  925SOL     OW 2773   2.475   0.844   1.167 -0.5364  0.1803  0.7536
  925SOL    HW1 2774   2.523   0.910   1.231 -1.0550 -1.4373  0.6357
  925SOL    HW2 2775   2.485   0.877   1.071 -0.4024 -1.9268  1.4647
  926SOL     OW 2776   0.538   0.319   1.245  0.8536 -0.3171  0.4776
  926SOL    HW1 2777   0.438   0.339   1.236 -0.6403 -0.2115 -0.5611
  926SOL    HW2 2778   0.554   0.245   1.317  3.2944 -0.5059 -0.0773
  927SOL     OW 2779   0.368   1.677   2.290  0.0547  0.2101 -0.0278
  927SOL    HW1 2780   0.280   1.690   2.341  3.2291  0.4212  1.1223
  927SOL    HW2 2781   0.436   1.742   2.332  2.0958 -1.6662  0.8508
  928SOL     OW 2782   0.031   0.260   2.632  0.0588  0.1402  0.2699
  928SOL    HW1 2783   3.069   0.307   2.668  1.7141  0.4209 -1.9671
  928SOL    HW2 2784   0.114   0.313   2.653 -0.0039  0.8050 -0.5828
  929SOL     OW 2785   2.885   3.026   1.106 -0.6076  0.4517 -0.1287
  929SOL    HW1 2786   2.915   3.036   1.006  1.6613 -0.9689 -1.1623
  929SOL    HW2 2787   2.821   3.098   1.134  0.2006 -2.4156  1.4231
  930SOL     OW 2788   2.208   0.664   1.742 -0.0472 -0.6073  0.0839
  930SOL    HW1 2789   2.166   0.578   1.777  1.4188 -2.7913  1.7894
  930SOL    HW2 2790   2.188   0.744   1.807  1.3787  0.6232 -0.6167
  931SOL     OW 2791   1.851   1.281   3.091  0.5952  0.4915 -0.1606
  931SOL    HW1 2792   1.766   1.338   3.073 -0.0323 -1.2381  0.9170
  931SOL    HW2 2793   1.829   1.207   0.040 -0.5176  2.2142  3.5806
  932SOL     OW 2794   2.080   1.257   0.352  0.8504  0.1874 -0.3048
  932SOL    HW1 2795   2.108   1.177   0.300 -1.0630  1.6017 -3.3505
  932SOL    HW2 2796   1.983   1.245   0.388 -3.8646  2.2565 -0.2238
  933SOL     OW 2797   2.241   1.570   1.081  0.3749 -0.2509 -0.2594
  933SOL    HW1 2798   2.322   1.541   1.027 -3.0788  0.5216  0.9886
  933SOL    HW2 2799   2.282   1.610   1.169 -1.4651 -0.3112 -0.8033
  934SOL     OW 2800   2.041   0.928   2.562 -0.0097 -0.2115 -0.4486
  934SOL    HW1 2801   2.072   0.843   2.515 -0.9287  1.6173  0.8661
  934SOL    HW2 2802   1.942   0.940   2.566  2.2738 -1.1448 -1.0084
  935SOL     OW 2803   0.277   0.958   0.510 -0.6642  0.1859  0.4572
  935SOL    HW1 2804   0.284   0.938   0.411  1.1009  1.0056  0.5233
  935SOL    HW2 2805   0.282   1.058   0.523 -1.5405  0.5253  1.2451
  936SOL     OW 2806   0.384   0.117   0.829  0.7873 -0.2451 -0.1292
  936SOL    HW1 2807   0.464   0.063   0.864  0.3167  1.9337 -1.4275
  936SOL    HW2 2808   0.382   0.211   0.876  1.7550  2.1324  1.1997
  937SOL     OW 2809   3.010   2.993   2.090  0.8276  0.1271 -0.2898
  937SOL    HW1 2810   3.043   2.948   2.174 -0.5804  2.0192  0.2293
  937SOL    HW2 2811   3.048   2.951   2.007 -1.7637  0.7760  1.3306
  938SOL     OW 2812   0.011   2.645   0.239  0.2728  0.0670  0.0769
  938SOL    HW1 2813   3.048   2.573   0.241 -4.5313  2.4322  1.6190
  938SOL    HW2 2814   3.086   2.739   0.229  1.9326  0.2166  0.9635
  939SOL     OW 2815   1.092   1.866   0.915  0.3687  0.0470  0.0789
  939SOL    HW1 2816   1.062   1.851   1.015 -0.1793 -1.6581  1.2650
  939SOL    HW2 2817   1.171   1.814   0.886 -4.3603 -0.2473  3.6169
  940SOL     OW 2818   0.056   0.501   2.920 -0.0000 -0.0238  0.1234
  940SOL    HW1 2819   0.061   0.404   2.960  1.7842 -0.9434  1.1226
  940SOL    HW2 2820   0.147   0.523   2.876  1.3065  1.0126  2.3715
  941SOL     OW 2821   2.160   0.351   2.605  0.2554 -0.2090  0.1867
  941SOL    HW1 2822   2.081   0.414   2.638  0.4326  2.8274  0.9008
  941SOL    HW2 2823   2.124   0.260   2.585  0.1660  1.1865  0.4111
  942SOL     OW 2824   1.215   0.315   1.025 -0.2225  0.5215  0.2141
  942SOL    HW1 2825   1.251   0.298   1.118  0.2917  0.6275  1.6327
  942SOL    HW2 2826   1.194   0.414   1.007 -1.0016  2.0840 -0.4027
  943SOL     OW 2827   1.033   0.822   1.793  0.0262  0.0078 -0.4155
  943SOL    HW1 2828   0.986   0.760   1.857  0.4754 -2.1897  1.4513
  943SOL    HW2 2829   0.994   0.914   1.783 -1.7408  0.2290  2.1266
  944SOL     OW 2830   2.008   0.889   1.390  0.5099 -0.5136  0.2314
  944SOL    HW1 2831   2.046   0.794   1.394 -0.1630  1.7329  0.9705
  944SOL    HW2 2832   2.072   0.959   1.418  0.3529  1.5602 -3.3806
  945SOL     OW 2833   2.707   0.101   0.219  0.0806 -0.0591 -0.0944
  945SOL    HW1 2834   2.704   0.141   0.310 -0.0914 -1.3463  0.1498
  945SOL    HW2 2835   2.632   0.032   0.201  2.6720 -0.9066  3.1904
  946SOL     OW 2836   2.966   0.634   1.897  0.1122 -0.4705 -0.0895
  946SOL    HW1 2837   2.882   0.610   1.938  4.8955 -1.3711  0.1128
  946SOL    HW2 2838   2.960   0.685   1.805  1.2453 -0.8347 -3.3894
  947SOL     OW 2839   1.032   2.846   0.100 -0.4419 -0.1042 -0.0817
  947SOL    HW1 2840   1.069   2.837   0.002  1.1837  0.0538 -1.2021
  947SOL    HW2 2841   0.958   2.776   0.122 -6.6663 -2.2216 -0.5413
  948SOL     OW 2842   2.495   1.940   1.355 -0.0861 -0.2457 -0.1076
  948SOL    HW1 2843   2.438   1.946   1.436 -0.1115  1.1726 -2.7686
  948SOL    HW2 2844   2.569   1.872   1.365  1.6618  0.9913 -0.4441
  949SOL     OW 2845   0.178   1.331   3.079 -0.0293  0.0523  0.3246
  949SOL    HW1 2846   0.112   1.254   3.092 -0.6912 -1.5505  2.3556
  949SOL    HW2 2847   0.137   1.411   3.031 -0.0117 -1.0729 -0.6452
  950SOL     OW 2848   0.649   2.529   0.886 -0.0588 -0.1825 -0.1050
  950SOL    HW1 2849   0.646   2.620   0.927 -0.8325  0.0060 -0.0396
  950SOL    HW2 2850   0.577   2.472   0.926 -0.2097 -1.2726 -3.8758
  951SOL     OW 2851   0.549   1.435   2.663 -0.4145  0.0340 -0.2475
  951SOL    HW1 2852   0.503   1.494   2.728 -1.7185 -2.6424 -0.0282
  951SOL    HW2 2853   0.575   1.345   2.698  0.0049  1.2570  0.5102
  952SOL     OW 2854   0.452   0.795   0.622 -0.3773  0.4658  0.1192
  952SOL    HW1 2855   0.508   0.814   0.708 -0.8955  0.0879  2.3560
  952SOL    HW2 2856   0.389   0.870   0.596  2.1141 -1.5857 -0.8838
  953SOL     OW 2857   2.619   3.023   2.286  0.0791  0.4068  0.2890
  953SOL    HW1 2858   2.591   0.004   2.281 -0.6687 -3.1778  2.1679
  953SOL    HW2 2859   2.701   3.012   2.338 -0.5443 -0.9876  1.1751
  954SOL     OW 2860   1.368   1.123   0.786  0.9935  0.2740  0.3659
  954SOL    HW1 2861   1.384   1.217   0.747  0.5765  0.0645 -1.4705
  954SOL    HW2 2862   1.397   1.050   0.723  1.4117  2.8961 -1.5187
  955SOL     OW 2863   0.803   1.822   0.155 -0.2942  0.2666 -0.2435
  955SOL    HW1 2864   0.848   1.732   0.154 -0.0674  1.6471 -0.6949
  955SOL    HW2 2865   0.835   1.884   0.230 -1.4988 -0.3531 -0.5586
  956SOL     OW 2866   2.358   0.296   1.937  0.0103 -0.0789  0.2061
  956SOL    HW1 2867   2.348   0.220   2.005  0.7186  1.4291  0.2327
  956SOL    HW2 2868   2.450   0.307   1.896 -1.5371  2.6695  0.5659
  957SOL     OW 2869   2.039   2.415   2.329 -0.1989  0.3421  0.7052
  957SOL    HW1 2870   2.038   2.319   2.311 -0.2885  5.1406 -0.4134
  957SOL    HW2 2871   2.125   2.448   2.376  1.0502  1.2354 -1.4243
  958SOL     OW 2872   1.597   1.084   1.256  0.4033  0.4287  0.0250
  958SOL    HW1 2873   1.640   1.132   1.335  1.9511  3.6534  2.4071
  958SOL    HW2 2874   1.640   0.991   1.244 -0.6861 -0.3799 -0.2450
  959SOL     OW 2875   2.012   2.158   2.295 -0.2020  0.1760  0.4069
  959SOL    HW1 2876   2.094   2.122   2.245  0.4838 -0.9412  1.3543
  959SOL    HW2 2877   1.924   2.117   2.265  1.4977  1.6973 -0.3928
  960SOL     OW 2878   0.431   0.991   2.723  0.2501 -0.0932 -0.8461
  960SOL    HW1 2879   0.432   0.918   2.652 -2.1146  0.8606 -0.8107
  960SOL    HW2 2880   0.369   0.960   2.801  3.4163 -1.2121  0.2822
  961SOL     OW 2881   0.019   1.179   2.688 -0.3625  0.1369 -0.2287
  961SOL    HW1 2882   0.117   1.207   2.709  0.4091 -0.9358 -0.8601
  961SOL    HW2 2883   0.010   1.166   2.588 -0.8414 -1.7527  0.1814
  962SOL     OW 2884   0.511   1.466   2.388  0.2338 -0.3802  0.4851
  962SOL    HW1 2885   0.452   1.541   2.353  0.5050  1.1293 -1.5360
  962SOL    HW2 2886   0.520   1.470   2.490 -2.3994 -1.7876  0.5511
  963SOL     OW 2887   2.934   2.095   0.159 -0.0210  0.2334  0.2586
  963SOL    HW1 2888   2.873   2.173   0.166 -0.1817 -2.4381  1.7212
  963SOL    HW2 2889   2.927   2.040   0.241 -1.5457  3.2000 -0.1622
  964SOL     OW 2890   0.724   2.261   1.940 -0.1945  0.4977 -1.1165
  964SOL    HW1 2891   0.773   2.192   1.996 -1.3545  1.9093 -0.2828
  964SOL    HW2 2892   0.630   2.229   1.910 -0.6189  0.7244 -0.5450
  965SOL     OW 2893   1.726   1.775   0.528  0.3474  0.5221  0.6422
  965SOL    HW1 2894   1.756   1.860   0.575  0.8128 -1.8244 -1.5483
  965SOL    HW2 2895   1.790   1.754   0.449  2.4353  0.2373 -0.0693
  966SOL     OW 2896   2.682   1.684   0.099  0.1604  0.0909 -0.1156
  966SOL    HW1 2897   2.647   1.662   0.003  0.1236  1.7381  3.1903
  966SOL    HW2 2898   2.763   1.627   0.122  2.9444 -0.6664 -0.6592
  967SOL     OW 2899   2.017   0.167   1.928 -0.0161 -0.9962 -0.2938
  967SOL    HW1 2900   2.061   0.263   1.928  0.0080  0.2947 -1.3383
  967SOL    HW2 2901   2.040   0.126   1.839  1.4563  0.3571 -0.7382
  968SOL     OW 2902   1.415   0.180   0.129  0.2332 -0.0954  0.2968
  968SOL    HW1 2903   1.388   0.236   0.044 -0.0450  0.6503 -3.2441
  968SOL    HW2 2904   1.458   0.248   0.193 -0.1618  1.7639  0.7239
  969SOL     OW 2905   0.155   1.753   2.091 -0.1120 -0.0447 -0.0294
  969SOL    HW1 2906   0.245   1.725   2.120  0.2890  2.1510 -0.6105
  969SOL    HW2 2907   0.093   1.671   2.070 -4.2531 -0.4579 -1.6971
  970SOL     OW 2908   1.990   2.365   1.053 -0.2860  0.0017  0.4749
  970SOL    HW1 2909   2.052   2.361   0.970  1.9480 -0.3913 -0.1980
  970SOL    HW2 2910   2.007   2.436   1.123  1.5002 -0.4454  1.9445
  971SOL     OW 2911   2.173   2.313   0.846 -0.6156  0.2427 -0.2395
  971SOL    HW1 2912   2.215   2.404   0.833 -1.5051 -0.4638 -1.3925
  971SOL    HW2 2913   2.254   2.253   0.849  0.4968  0.1532 -0.7312
  972SOL     OW 2914   0.021   0.928   2.477  0.6773  0.0971  0.4893
  972SOL    HW1 2915   0.094   0.874   2.437 -1.0818  3.1808  1.3320
  972SOL    HW2 2916   0.013   0.908   2.573 -0.0517  1.2788  0.6729
  973SOL     OW 2917   0.631   0.310   0.688 -0.4419 -0.4787 -0.1071
  973SOL    HW1 2918   0.649   0.358   0.780 -0.8218  1.9808  4.2715
  973SOL    HW2 2919   0.652   0.213   0.690 -1.3221  0.1223  0.1748
  974SOL     OW 2920   2.473   0.923   1.907 -0.2977  0.0876 -0.3499
  974SOL    HW1 2921   2.508   0.875   1.990  0.4324  1.7813 -2.9491
  974SOL    HW2 2922   2.372   0.914   1.902  1.0538 -2.1704  1.0524
  975SOL     OW 2923   0.157   3.054   0.283  0.6713  0.7100  0.5211
  975SOL    HW1 2924   0.071   3.061   0.342 -1.7432  0.3100  1.5858
  975SOL    HW2 2925   0.201   0.030   0.264 -1.6275 -0.3546  0.3178
  976SOL     OW 2926   0.329   1.914   1.047  0.0865 -0.1937  0.6057
  976SOL    HW1 2927   0.281   1.834   1.085  1.7563 -1.6061  0.7259
  976SOL    HW2 2928   0.299   1.933   0.954 -0.1299 -2.6169  0.8564
  977SOL     OW 2929   0.970   1.927   0.681  0.6424 -0.2030 -0.2689
  977SOL    HW1 2930   0.983   1.845   0.616  1.9244 -1.0987 -0.4065
  977SOL    HW2 2931   0.994   1.901   0.775 -0.5937 -3.4915  0.9859
  978SOL     OW 2932   0.143   0.913   0.043  0.4326  0.2145  0.0675
  978SOL    HW1 2933   0.178   0.900   3.065 -0.3972  2.2890  0.2052
  978SOL    HW2 2934   0.072   0.983   0.036  1.0065  0.3062  0.0634
  979SOL     OW 2935   1.892   1.453   0.620 -0.0278 -0.0630 -0.3263
  979SOL    HW1 2936   1.965   1.522   0.626 -1.5254  0.3746 -1.5814
  979SOL    HW2 2937   1.801   1.500   0.637  0.7494 -1.4784  2.4430
  980SOL     OW 2938   0.687   2.471   2.204 -0.6250  0.2525  0.2977
  980SOL    HW1 2939   0.729   2.489   2.114 -3.0898 -2.8761  1.8607
  980SOL    HW2 2940   0.714   2.377   2.248 -0.2164 -2.2872  1.4149
  981SOL     OW 2941   2.282   0.978   2.958 -0.1926 -0.8157  0.0674
  981SOL    HW1 2942   2.335   1.053   2.911  4.1591 -0.4873 -0.2409
  981SOL    HW2 2943   2.293   0.891   2.910 -0.6687  0.9478  1.1718
  982SOL     OW 2944   0.079   2.568   1.960  0.3821  0.4245  0.2467
  982SOL    HW1 2945   0.055   2.575   2.061  0.3750 -2.3851  1.6012
  982SOL    HW2 2946   0.179   2.550   1.958 -1.1591 -0.4311  0.2687
  983SOL     OW 2947   1.925   0.482   1.474 -0.0875  0.0006  0.0045
  983SOL    HW1 2948   1.885   0.478   1.382  2.0681  0.5361  1.1333
  983SOL    HW2 2949   1.860   0.535   1.534  1.6633 -0.1722  1.7432
  984SOL     OW 2950   1.759   0.083   2.450 -0.1181  0.8096 -0.2246
  984SOL    HW1 2951   1.773   0.007   2.376  0.1813 -1.4114 -1.0477
  984SOL    HW2 2952   1.774   0.042   2.541 -0.3793 -0.0879  0.5304
  985SOL     OW 2953   1.598   1.371   1.636  0.7904 -0.1524 -0.4945
  985SOL    HW1 2954   1.536   1.294   1.625 -2.4865  1.8825  0.7514
  985SOL    HW2 2955   1.565   1.425   1.720 -0.4883  0.5055  0.1369
  986SOL     OW 2956   2.093   2.813   2.243  0.2660  0.0329 -0.7350
  986SOL    HW1 2957   2.173   2.766   2.200 -0.3350  2.3790  2.6162
  986SOL    HW2 2958   2.075   2.892   2.179  1.9409  0.6065 -3.3528
  987SOL     OW 2959   2.669   1.905   2.934 -0.4807 -0.0987  0.0571
  987SOL    HW1 2960   2.763   1.917   2.976  1.8812  1.3186  1.8997
  987SOL    HW2 2961   2.644   1.971   2.859 -0.7476  1.6690 -2.8219
  988SOL     OW 2962   2.954   0.673   1.623 -0.2866  0.0741  0.2603
  988SOL    HW1 2963   2.966   0.769   1.656 -1.7221 -0.3836 -0.5925
  988SOL    HW2 2964   2.891   0.662   1.547  2.0733  1.0391  0.4076
  989SOL     OW 2965   2.052   1.239   1.622  0.0079 -0.3534 -0.5529
  989SOL    HW1 2966   2.097   1.158   1.588 -1.2988  1.6148  4.6773
  989SOL    HW2 2967   2.094   1.325   1.585 -1.0376 -2.0808 -2.3704
  990SOL     OW 2968   2.977   0.660   3.020  0.3024  0.4723  0.3139
  990SOL    HW1 2969   3.064   0.617   2.991  2.8071  0.4895  0.4462
  990SOL    HW2 2970   2.994   0.761   3.027  0.4920  1.0283 -0.7577
  991SOL     OW 2971   0.405   1.785   3.034  0.3139 -0.1483  0.3976
  991SOL    HW1 2972   0.330   1.851   3.005 -0.3147  1.4162  0.3851
  991SOL    HW2 2973   0.450   1.811   0.006  1.4017  0.1553 -1.1588
  992SOL     OW 2974   2.394   1.918   1.833 -0.0061 -0.1001 -0.1134
  992SOL    HW1 2975   2.318   1.872   1.878  1.8739  0.9700  0.0811
  992SOL    HW2 2976   2.451   1.970   1.895 -0.8815 -0.9952 -3.8411
  993SOL     OW 2977   0.577   0.003   0.987 -0.3769  0.5774  0.0252
  993SOL    HW1 2978   0.529   3.090   1.077 -0.6037 -0.6816  4.3499
  993SOL    HW2 2979   0.671   0.030   1.008  1.1391  1.0250 -3.1751
  994SOL     OW 2980   2.782   2.180   1.568  0.2498  0.1737  0.0087
  994SOL    HW1 2981   2.882   2.178   1.564 -2.0659 -1.0629 -2.1569
  994SOL    HW2 2982   2.741   2.101   1.615  0.0780 -2.3380 -2.3425
  995SOL     OW 2983   2.109   2.057   2.562  0.4730 -0.0039 -0.6029
  995SOL    HW1 2984   2.022   2.051   2.617 -0.6381  1.3912 -2.6292
  995SOL    HW2 2985   2.096   2.087   2.466 -0.5122 -0.5826  3.2186
  996SOL     OW 2986   2.001   1.902   3.069  0.5697 -0.2689  0.0573
  996SOL    HW1 2987   1.915   1.848   3.045 -1.3550  1.2626 -0.4864
  996SOL    HW2 2988   2.071   1.833   3.083 -1.2221  0.8009  3.1002
  997SOL     OW 2989   0.996   1.414   1.872  0.5216 -0.2176 -0.0687
  997SOL    HW1 2990   0.923   1.475   1.913  0.5834  1.9093  1.4199
  997SOL    HW2 2991   1.054   1.375   1.941  0.0398 -2.2188 -1.8964
  998SOL     OW 2992   2.768   2.154   0.677  0.0817 -0.3060  0.2286
  998SOL    HW1 2993   2.743   2.058   0.663 -0.0922  2.6532 -0.9637
  998SOL    HW2 2994   2.739   2.182   0.768 -0.5534 -0.1396 -1.7795
  999SOL     OW 2995   0.146   2.638   0.728 -0.0395 -0.0117 -0.4650
  999SOL    HW1 2996   0.100   2.611   0.643  0.1280  1.0001  1.4936
  999SOL    HW2 2997   0.241   2.671   0.710  3.0699  0.7364 -1.5267
 1000SOL     OW 2998   1.124   0.107   3.006 -0.3914 -0.2313 -0.3287
 1000SOL    HW1 2999   1.061   0.082   3.087  0.9543 -0.9939  1.4425
 1000SOL    HW2 3000   1.171   0.188   3.036 -0.6865 -2.4073  0.4355
   3.11437   3.11437   3.11437
