1000 SPC/Fw water molecules t= 185.00000 step= 185000
 3000
    1SOL     OW    1   2.709   0.014   1.137 -0.5490 -0.1187  0.3536
    1SOL    HW1    2   2.652   0.051   1.212 -1.0710 -1.1716  2.8857
    1SOL    HW2    3   2.662   0.013   1.047 -0.1294  0.2410 -3.7325
    2SOL     OW    4   1.883   1.673   2.064  0.0300 -0.1610  0.0148
    2SOL    HW1    5   1.926   1.618   2.139 -0.6043  0.4757 -0.2255
    2SOL    HW2    6   1.817   1.742   2.098  0.8361  0.4695 -1.0580
    3SOL     OW    7   1.716   2.461   2.184  0.2878 -0.1238 -0.1451
    3SOL    HW1    8   1.765   2.552   2.187  2.4752  0.4279  2.5449
    3SOL    HW2    9   1.791   2.392   2.163  3.5038 -2.0589  0.2030
    4SOL     OW   10   1.885   2.038   2.050  0.1257 -0.0640  0.3103
    4SOL    HW1   11   1.892   2.131   2.097  1.1272  0.7819  3.2083
    4SOL    HW2   12   1.917   2.046   1.955  1.9205  1.4283  1.2473
    5SOL     OW   13   1.098   0.718   1.962  0.2207  0.1076  0.0969
    5SOL    HW1   14   1.172   0.786   1.928  0.2670  2.2276 -0.5658
    5SOL    HW2   15   1.012   0.717   1.906 -0.5707 -0.4887  0.0963
    6SOL     OW   16   2.629   0.723   2.976  0.7266 -0.3022 -0.1929
    6SOL    HW1   17   2.676   0.657   2.916 -0.2058  4.4516 -1.1276
    6SOL    HW2   18   2.595   0.678   3.062 -2.0141 -1.0787  3.2162
    7SOL     OW   19   1.116   0.958   1.610 -0.0587  0.5206 -0.3130
    7SOL    HW1   20   1.055   0.887   1.574 -0.5745 -2.3471 -1.2622
    7SOL    HW2   21   1.169   1.001   1.533 -2.2683  1.0464  1.3926
    8SOL     OW   22   1.416   0.178   1.131  0.0851  0.2945  0.1182
    8SOL    HW1   23   1.399   0.207   1.031  0.3933 -0.9715 -2.3853
    8SOL    HW2   24   1.332   0.198   1.190 -0.0123  0.3427  1.9422
    9SOL     OW   25   1.047   1.009   0.067  0.3636  0.3015 -0.7083
    9SOL    HW1   26   1.045   1.050   3.095 -0.4679 -0.5676 -0.1140
    9SOL    HW2   27   0.971   1.031   0.128  0.2448  0.3409  1.9726
   10SOL     OW   28   0.330   2.819   0.215 -0.1229 -0.8107  0.6431
   10SOL    HW1   29   0.233   2.817   0.179 -2.4322 -0.7242 -1.6225
   10SOL    HW2   30   0.362   2.725   0.233 -0.8355  0.7226 -0.8726
   11SOL     OW   31   0.610   1.463   0.086  0.2559  0.0084  0.0745
   11SOL    HW1   32   0.619   1.418   3.117 -0.9557  0.6812  1.1092
   11SOL    HW2   33   0.522   1.520   0.094 -0.8055 -3.1466  1.9721
   12SOL     OW   34   0.444   0.136   1.613 -0.0103  0.7085  0.3220
   12SOL    HW1   35   0.346   0.118   1.625 -0.4353  2.2024  1.1924
   12SOL    HW2   36   0.480   0.131   1.706 -1.6374  0.5868 -1.7356
   13SOL     OW   37   1.001   2.894   0.533 -0.5009  0.0857 -0.2165
   13SOL    HW1   38   1.024   2.981   0.583 -0.8900 -0.2965 -2.6924
   13SOL    HW2   39   0.906   2.876   0.553  0.5286 -1.0170 -0.1081
   14SOL     OW   40   1.226   2.111   1.363 -0.1618 -0.2625  0.3057
   14SOL    HW1   41   1.127   2.135   1.343  0.6435  1.7746 -0.9833
   14SOL    HW2   42   1.234   2.017   1.396 -1.1036  2.9569 -1.3250
   15SOL     OW   43   2.785   0.697   2.228  0.2992 -0.3123  0.4411
   15SOL    HW1   44   2.714   0.646   2.276  2.2423  2.4423  1.3688
   15SOL    HW2   45   2.851   0.639   2.176 -1.1219 -0.1771 -1.5870
   16SOL     OW   46   1.233   3.003   2.672  0.3457  0.3559 -0.6030
   16SOL    HW1   47   1.263   2.938   2.603 -0.8671 -0.8942  1.3187
   16SOL    HW2   48   1.293   3.002   2.753 -3.1233 -1.7778  2.0968
   17SOL     OW   49   0.961   2.999   1.398 -0.0576 -0.4088 -0.9228
   17SOL    HW1   50   0.877   3.059   1.399 -2.7352 -1.1895  2.1123
   17SOL    HW2   51   1.047   3.057   1.400 -0.6013  0.0723 -0.0981
   18SOL     OW   52   1.136   0.578   0.454 -0.1909 -0.5420 -0.6555
   18SOL    HW1   53   1.037   0.565   0.450  1.9433  0.1004 -1.3009
   18SOL    HW2   54   1.186   0.509   0.403 -0.4368 -0.8783  2.0818
   19SOL     OW   55   2.103   1.441   2.799 -0.2743  0.0883  0.4836
   19SOL    HW1   56   2.080   1.538   2.775 -0.0562  2.5169 -2.1938
   19SOL    HW2   57   2.191   1.440   2.852  2.6112  0.1442  0.3286
   20SOL     OW   58   1.689   1.580   1.800 -0.5842 -0.5892  0.5769
   20SOL    HW1   59   1.756   1.646   1.765 -2.1625  1.0650 -2.6603
   20SOL    HW2   60   1.597   1.630   1.818 -2.5379 -0.0472  0.1821
   21SOL     OW   61   0.615   1.502   2.767  0.3588 -0.1876  0.3133
   21SOL    HW1   62   0.562   1.586   2.791  1.1872  1.5521  0.8248
   21SOL    HW2   63   0.648   1.501   2.670  3.7393 -0.3713  0.3709
   22SOL     OW   64   2.442   3.044   1.447 -0.1540 -0.0516  0.5118
   22SOL    HW1   65   2.340   3.043   1.445  1.3381  1.0765 -0.5068
   22SOL    HW2   66   2.480   0.002   1.401 -3.7438  0.7776  1.6379
   23SOL     OW   67   3.001   0.956   1.480 -0.3866 -0.5836  0.2492
   23SOL    HW1   68   3.097   0.917   1.460  2.7944 -0.4917 -1.2214
   23SOL    HW2   69   2.938   0.953   1.399  0.0075 -2.5793 -0.2840
   24SOL     OW   70   2.610   2.374   1.341  0.2910 -0.4651 -0.0573
   24SOL    HW1   71   2.697   2.377   1.291 -2.9561 -0.7490 -0.2886
   24SOL    HW2   72   2.563   2.464   1.335 -1.0748  0.4941 -0.7756
   25SOL     OW   73   1.892   2.958   2.687 -0.3453 -0.0233  0.4658
   25SOL    HW1   74   1.928   2.975   2.591  0.3800  0.7610 -0.3954
   25SOL    HW2   75   1.829   2.875   2.690 -0.4417 -0.6547 -0.6054
   26SOL     OW   76   1.273   2.974   3.106 -0.0685  0.0026  0.9288
   26SOL    HW1   77   1.193   2.918   3.071 -1.5151  3.3460 -0.3802
   26SOL    HW2   78   1.349   2.923   0.020 -3.2723  1.8136 -0.9715
   27SOL     OW   79   0.638   2.263   2.804  0.6886 -0.1684  0.6507
   27SOL    HW1   80   0.609   2.185   2.868 -0.3655 -1.8119  1.1241
   27SOL    HW2   81   0.561   2.318   2.768  1.1602 -0.7971 -0.4544
   28SOL     OW   82   0.109   1.550   1.369  0.3183 -0.3362  0.1350
   28SOL    HW1   83   0.108   1.635   1.319 -0.7567  2.2276  0.4439
   28SOL    HW2   84   0.200   1.541   1.418  1.2607 -0.0740 -0.7517
   29SOL     OW   85   2.622   2.112   2.190  0.1316 -0.8588 -0.1804
   29SOL    HW1   86   2.621   2.037   2.124 -2.4652  2.0478  0.3135
   29SOL    HW2   87   2.705   2.104   2.254  0.5340 -1.5102  0.5420
   30SOL     OW   88   1.154   2.892   0.850  0.1935  0.3526 -0.0912
   30SOL    HW1   89   1.166   2.791   0.855 -0.1079  1.1826 -1.8449
   30SOL    HW2   90   1.221   2.939   0.909  1.3264 -1.0830  0.0984
   31SOL     OW   91   0.113   2.273   1.704  0.7641  0.5869  0.2029
   31SOL    HW1   92   0.172   2.357   1.715  0.3163  0.2690  1.4984
   31SOL    HW2   93   0.153   2.194   1.749 -3.6411  0.7764 -1.2942
   32SOL     OW   94   1.270   0.882   1.818 -0.1206 -0.0850 -0.1203
   32SOL    HW1   95   1.238   0.917   1.728  0.1441 -0.9105  0.5273
   32SOL    HW2   96   1.313   0.951   1.881 -0.8805  0.7687 -0.9070
   33SOL     OW   97   0.312   2.739   2.380 -0.3338 -0.1974 -0.2425
   33SOL    HW1   98   0.230   2.684   2.402 -0.7080  1.6220 -0.7928
   33SOL    HW2   99   0.309   2.748   2.278 -2.6556  0.1748  0.7319
   34SOL     OW  100   2.118   0.117   0.785  0.4744 -0.3929 -0.6389
   34SOL    HW1  101   2.120   0.110   0.686 -0.9087  2.1924  0.1684
   34SOL    HW2  102   2.027   0.093   0.829 -0.4006 -0.9770 -1.0366
   35SOL     OW  103   2.318   0.748   1.471 -0.0556  0.5457  0.0559
   35SOL    HW1  104   2.290   0.849   1.463 -1.1191  0.5785 -0.3220
   35SOL    HW2  105   2.419   0.740   1.457 -4.6705  0.9660  4.1007
   36SOL     OW  106   2.287   2.604   2.202 -0.0693 -0.7201  0.1608
   36SOL    HW1  107   2.276   2.531   2.134 -1.9310 -1.1423  1.1906
   36SOL    HW2  108   2.204   2.605   2.266 -1.8256 -1.1590  1.1707
   37SOL     OW  109   0.901   2.346   2.209 -0.0853 -0.1510 -0.4184
   37SOL    HW1  110   0.901   2.403   2.121 -1.2967  0.9774  1.9301
   37SOL    HW2  111   0.948   2.389   2.289  2.6193 -2.0361 -0.4129
   38SOL     OW  112   2.517   0.310   2.965 -0.7946 -0.0145 -0.5502
   38SOL    HW1  113   2.543   0.315   3.063 -0.3501 -2.5254  0.1093
   38SOL    HW2  114   2.578   0.377   2.914  0.2258  2.7533 -1.2321
   39SOL     OW  115   2.066   1.609   1.842 -0.3924 -0.1185 -0.4788
   39SOL    HW1  116   2.036   1.640   1.936 -0.1097  1.4296 -0.9428
   39SOL    HW2  117   2.031   1.518   1.821 -0.2623  0.3756  0.3673
   40SOL     OW  118   0.159   0.037   2.661  0.3180  0.3403 -0.0873
   40SOL    HW1  119   0.166   0.100   2.584 -3.7732 -2.8139  1.7795
   40SOL    HW2  120   0.152   3.063   2.624  1.2376  1.1599 -1.0623
   41SOL     OW  121   1.845   0.305   1.215 -0.8557  0.3907 -0.1317
   41SOL    HW1  122   1.942   0.349   1.210  1.9234  3.5583  0.5033
   41SOL    HW2  123   1.787   0.359   1.150 -1.0947 -1.6723 -0.8239
   42SOL     OW  124   0.726   3.102   1.326  0.1500 -0.4727 -0.3817
   42SOL    HW1  125   0.675   0.066   1.335  1.4896  2.5624 -2.2630
   42SOL    HW2  126   0.661   3.026   1.306  0.8385  2.9780  0.9197
   43SOL     OW  127   2.524   0.969   1.975 -0.2234  0.1354  0.1994
   43SOL    HW1  128   2.454   0.956   1.904 -1.6254  0.7037 -0.0162
   43SOL    HW2  129   2.614   0.972   1.928  0.0062  1.8706 -1.7423
   44SOL     OW  130   0.099   2.859   0.091 -0.3504 -0.1145  0.3002
   44SOL    HW1  131   0.049   2.923   0.151 -0.2940 -0.6948 -0.8503
   44SOL    HW2  132   0.053   2.855   0.001  0.7103 -0.3320  0.5449
   45SOL     OW  133   0.197   2.573   1.927 -0.1248 -0.0745 -0.3723
   45SOL    HW1  134   0.237   2.642   1.991 -0.6390  1.6276  0.2989
   45SOL    HW2  135   0.249   2.570   1.838  1.7923  0.5568 -0.1504
   46SOL     OW  136   2.193   2.361   2.039  0.6996 -0.2146 -0.1913
   46SOL    HW1  137   2.254   2.295   2.091  1.4246 -0.3148  1.9785
   46SOL    HW2  138   2.189   2.350   1.939  0.3155  0.3803  0.0174
   47SOL     OW  139   1.591   1.971   1.240 -0.5934 -0.6408 -0.0427
   47SOL    HW1  140   1.524   2.016   1.180 -1.9595  0.2814  1.9040
   47SOL    HW2  141   1.680   1.964   1.190 -2.0349  1.7287 -0.7900
   48SOL     OW  142   0.666   1.713   0.567 -0.3468 -0.1949 -0.0609
   48SOL    HW1  143   0.686   1.735   0.471 -2.5188 -1.3778  0.8619
   48SOL    HW2  144   0.645   1.790   0.626 -1.1970 -2.4482  0.0564
   49SOL     OW  145   2.882   0.397   2.648 -0.6682 -0.2970  0.3535
   49SOL    HW1  146   2.824   0.316   2.646  2.0741  0.9513 -0.5535
   49SOL    HW2  147   2.946   0.399   2.562 -1.6900 -0.0970 -0.2740
   50SOL     OW  148   2.209   0.926   0.846  0.3699  0.0325  0.4796
   50SOL    HW1  149   2.122   0.968   0.815  0.8501  1.3490  0.6086
   50SOL    HW2  150   2.274   1.005   0.868  0.4593 -2.2810  1.6810
   51SOL     OW  151   1.578   0.235   0.822  0.0977 -0.1881  0.4151
   51SOL    HW1  152   1.593   0.137   0.853  1.3821 -0.1395  1.6599
   51SOL    HW2  153   1.476   0.261   0.812 -2.5353 -1.3745  0.4952
   52SOL     OW  154   1.311   1.268   0.126 -1.0523  0.0024 -0.2048
   52SOL    HW1  155   1.282   1.190   0.192 -0.6447 -1.9383  0.9630
   52SOL    HW2  156   1.317   1.356   0.176  0.5573 -2.6262 -1.9112
   53SOL     OW  157   0.880   1.623   2.570 -0.2204 -0.5195  0.0471
   53SOL    HW1  158   0.855   1.710   2.619 -2.3234  0.0645  0.9818
   53SOL    HW2  159   0.798   1.574   2.541  1.5574  0.3452  1.5513
   54SOL     OW  160   2.154   0.315   1.186 -0.2502 -0.5067  0.4381
   54SOL    HW1  161   2.190   0.410   1.201  2.2180 -0.6381 -0.7266
   54SOL    HW2  162   2.180   0.263   1.267 -1.0727  2.8794 -0.9584
   55SOL     OW  163   2.369   2.858   0.816 -0.1790  0.2572  0.1143
   55SOL    HW1  164   2.370   2.955   0.786  1.7100  0.4126  1.4286
   55SOL    HW2  165   2.364   2.791   0.741 -1.4932  0.9540  1.1437
   56SOL     OW  166   0.406   2.880   1.365 -0.4583  0.2269 -0.2878
   56SOL    HW1  167   0.329   2.835   1.415 -0.0425  0.3257  0.8020
   56SOL    HW2  168   0.498   2.858   1.402  1.1966  1.5243  0.2682
   57SOL     OW  169   1.557   1.186   0.754 -1.5757  0.3632  0.0186
   57SOL    HW1  170   1.459   1.162   0.729 -3.0892  1.0601  0.0250
   57SOL    HW2  171   1.604   1.262   0.697 -0.7193  0.0373 -0.3636
   58SOL     OW  172   0.128   0.787   2.278  0.0731 -0.4674  0.1508
   58SOL    HW1  173   0.157   0.863   2.219 -0.3257 -3.2307  1.6882
   58SOL    HW2  174   0.035   0.814   2.307 -1.2001 -0.1264 -0.6568
   59SOL     OW  175   1.008   2.741   2.341 -1.1508 -0.1180 -0.1310
   59SOL    HW1  176   0.992   2.645   2.363 -0.0943  1.0452 -0.4034
   59SOL    HW2  177   0.985   2.804   2.414  0.1790 -0.6891  0.5345
   60SOL     OW  178   2.540   2.739   0.978 -1.0604  0.0260 -0.5854
   60SOL    HW1  179   2.473   2.773   0.911 -0.9142 -1.6464  2.0837
   60SOL    HW2  180   2.559   2.801   1.055 -2.2030  1.0300  1.9032
   61SOL     OW  181   1.082   2.180   0.673 -0.3397  0.1566  0.1312
   61SOL    HW1  182   1.044   2.245   0.742  1.9948 -0.3715 -2.2101
   61SOL    HW2  183   1.011   2.118   0.639 -1.7528  2.2283  1.7322
   62SOL     OW  184   2.102   2.444   2.668 -0.0118  0.0138 -0.4911
   62SOL    HW1  185   2.145   2.447   2.757  0.6205  0.1402 -2.8655
   62SOL    HW2  186   2.162   2.410   2.591 -3.5128 -2.0295 -2.6300
   63SOL     OW  187   2.238   0.547   3.028 -0.3991 -0.4720 -0.0474
   63SOL    HW1  188   2.189   0.606   3.094  1.6352  1.1344 -2.0079
   63SOL    HW2  189   2.176   0.521   2.954  2.3875  1.4752  1.1205
   64SOL     OW  190   1.016   0.757   3.089 -0.3918 -0.1201  0.1729
   64SOL    HW1  191   1.075   0.680   3.118  0.5007  0.5761 -2.5674
   64SOL    HW2  192   1.048   0.844   0.012  0.6043  2.1098  2.5386
   65SOL     OW  193   1.253   2.256   0.479 -0.1623  0.0223 -0.2028
   65SOL    HW1  194   1.199   2.231   0.558  0.0487 -0.1510 -1.1372
   65SOL    HW2  195   1.203   2.243   0.387  1.7852 -2.3826 -3.5223
   66SOL     OW  196   0.700   1.205   1.583 -0.8360 -0.3141 -0.1660
   66SOL    HW1  197   0.699   1.268   1.661  0.8914  0.5000 -0.1536
   66SOL    HW2  198   0.745   1.116   1.605  2.7032  1.2285 -0.5287
   67SOL     OW  199   2.370   2.901   2.540  0.0096  0.0085  0.1980
   67SOL    HW1  200   2.332   2.940   2.624 -0.7854  1.4081 -0.8942
   67SOL    HW2  201   2.311   2.933   2.461 -1.2952  0.3271 -2.8237
   68SOL     OW  202   0.487   1.640   1.174  0.6398  0.0974 -0.2984
   68SOL    HW1  203   0.431   1.595   1.250 -2.3371 -0.9023 -1.0892
   68SOL    HW2  204   0.581   1.599   1.177 -1.3478 -2.3036  4.1023
   69SOL     OW  205   1.432   2.360   0.169 -0.0594  0.2009  0.3936
   69SOL    HW1  206   1.502   2.329   0.233 -1.7777  0.0327 -1.0358
   69SOL    HW2  207   1.418   2.457   0.177 -2.3683 -2.1692  0.5912
   70SOL     OW  208   3.029   1.056   2.583 -0.1193 -0.3602 -0.0631
   70SOL    HW1  209   2.942   1.076   2.532  0.0967 -1.4719 -1.8726
   70SOL    HW2  210   3.039   0.954   2.586 -0.7427 -1.3369 -1.0379
   71SOL     OW  211   2.912   1.617   2.782 -0.3555  0.3850  0.4879
   71SOL    HW1  212   2.981   1.688   2.806  1.9476  2.1047  0.1895
   71SOL    HW2  213   2.901   1.547   2.854  3.6489 -0.0884  1.0466
   72SOL     OW  214   2.898   2.449   0.285 -0.0260 -0.1065 -0.2998
   72SOL    HW1  215   2.948   2.540   0.289 -2.9105  1.9242 -0.1393
   72SOL    HW2  216   2.816   2.459   0.353 -3.5499 -2.7421  0.4340
   73SOL     OW  217   0.645   1.724   0.295 -0.3132  0.4466 -0.2294
   73SOL    HW1  218   0.608   1.812   0.322 -0.2018 -0.9700 -1.9968
   73SOL    HW2  219   0.680   1.734   0.201 -0.7338  2.0383 -1.0048
   74SOL     OW  220   2.959   1.192   2.797 -0.3710 -0.3815 -0.0510
   74SOL    HW1  221   2.994   1.137   2.718 -0.7168 -0.7868  0.4491
   74SOL    HW2  222   2.857   1.191   2.799  1.4670  0.4551  0.9566
   75SOL     OW  223   1.711   1.429   2.102  0.2949  0.6765 -0.2367
   75SOL    HW1  224   1.647   1.428   2.185 -2.9377 -1.4672 -1.0140
   75SOL    HW2  225   1.753   1.516   2.093 -2.9398  0.5829  1.9622
   76SOL     OW  226   1.727   2.271   1.416  0.0948 -0.3288  0.0452
   76SOL    HW1  227   1.716   2.237   1.515  0.9181  0.9900  1.5344
   76SOL    HW2  228   1.687   2.365   1.404  1.3419  1.5490  1.4741
   77SOL     OW  229   2.644   1.014   1.218 -0.0144  0.1539  0.7069
   77SOL    HW1  230   2.682   0.928   1.253 -0.6885  1.0277  2.7650
   77SOL    HW2  231   2.564   0.990   1.159 -0.3830  2.1226 -0.2889
   78SOL     OW  232   1.338   0.928   0.618 -0.2667  0.1321  0.1712
   78SOL    HW1  233   1.333   1.028   0.635 -3.1465  2.1841  0.1185
   78SOL    HW2  234   1.412   0.888   0.677 -1.2380  2.5340  1.2183
   79SOL     OW  235   0.243   1.760   1.816  0.3027 -0.2403  0.2831
   79SOL    HW1  236   0.286   1.670   1.809  0.3664 -1.0259  2.1756
   79SOL    HW2  237   0.233   1.797   1.721 -0.0281  0.1437 -1.8371
   80SOL     OW  238   1.608   1.169   1.722  0.5962  0.2606 -0.5796
   80SOL    HW1  239   1.636   1.072   1.745  1.7993  0.3931  0.2384
   80SOL    HW2  240   1.574   1.174   1.625 -1.9978  1.4139  1.8556
   81SOL     OW  241   0.847   0.114   0.795 -0.2398  0.0171  0.3161
   81SOL    HW1  242   0.761   0.081   0.756 -1.3048  0.6297  3.7546
   81SOL    HW2  243   0.921   0.066   0.743  2.5486 -2.8722 -2.5609
   82SOL     OW  244   1.673   2.636   1.627 -0.7623  0.3299  0.3137
   82SOL    HW1  245   1.684   2.621   1.528 -0.0826  1.8271 -0.8622
   82SOL    HW2  246   1.748   2.581   1.672 -2.3302 -0.8028 -2.2499
   83SOL     OW  247   0.615   2.195   0.872  0.2997  0.1633  0.7500
   83SOL    HW1  248   0.517   2.215   0.894 -0.6663  0.6870 -1.4991
   83SOL    HW2  249   0.665   2.143   0.943  0.8064 -0.5059 -1.8615
   84SOL     OW  250   0.297   1.445   2.589 -0.1882 -0.0091  0.4862
   84SOL    HW1  251   0.291   1.362   2.529  0.8432 -2.3926  0.9409
   84SOL    HW2  252   0.347   1.525   2.546 -1.7422 -0.1858 -0.7722
   85SOL     OW  253   0.144   2.266   1.399  0.3421 -0.7043 -0.2260
   85SOL    HW1  254   0.044   2.266   1.439  0.0003 -1.2223 -0.4651
   85SOL    HW2  255   0.190   2.353   1.415 -3.4297 -2.1810 -1.6460
   86SOL     OW  256   2.443   2.321   1.562  0.1090  0.2316 -0.1215
   86SOL    HW1  257   2.408   2.413   1.587 -0.8738  0.5027 -0.7446
   86SOL    HW2  258   2.515   2.320   1.491 -2.0234 -1.1421  1.5457
   87SOL     OW  259   2.592   2.197   0.022  0.3848 -0.7307 -0.3603
   87SOL    HW1  260   2.572   2.148   0.111  0.1922  0.6424 -0.2001
   87SOL    HW2  261   2.684   2.176   3.102 -2.1111 -1.0430  3.4247
   88SOL     OW  262   0.412   1.772   0.917 -0.5574  0.0995  0.0023
   88SOL    HW1  263   0.429   1.744   1.012 -0.0425  1.4500 -2.7740
   88SOL    HW2  264   0.316   1.796   0.909  3.8656 -0.2856  0.0511
   89SOL     OW  265   1.098   2.853   1.753 -0.7862 -0.2242 -0.2630
   89SOL    HW1  266   1.172   2.823   1.683  3.9785 -3.7597 -1.2679
   89SOL    HW2  267   1.109   2.956   1.762  1.9842  1.9239  0.4259
   90SOL     OW  268   3.052   1.862   1.575  0.1495  0.0333 -0.1994
   90SOL    HW1  269   2.994   1.807   1.641 -1.3520 -1.0430  1.6891
   90SOL    HW2  270   0.027   1.854   1.599  0.0058  2.7680  3.3211
   91SOL     OW  271   1.284   1.982   0.679 -0.1343  0.4766  0.1286
   91SOL    HW1  272   1.273   1.917   0.601  1.0836  0.1765 -2.4558
   91SOL    HW2  273   1.206   2.052   0.684 -1.2227  3.5433  0.1131
   92SOL     OW  274   2.504   2.628   1.360 -0.3217  0.3497 -0.4112
   92SOL    HW1  275   2.557   2.644   1.441 -2.0403 -2.8870 -0.3990
   92SOL    HW2  276   2.521   2.694   1.283 -0.4995 -0.2137 -3.8659
   93SOL     OW  277   2.572   1.417   2.666 -0.0866  0.4746  0.4254
   93SOL    HW1  278   2.485   1.428   2.610 -1.1924  1.4824  0.1510
   93SOL    HW2  279   2.656   1.463   2.623  1.5302  0.6570  2.0797
   94SOL     OW  280   2.839   2.744   2.409 -0.3133  0.0899 -0.1622
   94SOL    HW1  281   2.844   2.671   2.340 -0.2052  0.9125  1.4875
   94SOL    HW2  282   2.747   2.787   2.421  0.5526 -1.8814 -0.5231
   95SOL     OW  283   1.830   0.346   1.675 -0.2651  0.2988 -0.6068
   95SOL    HW1  284   1.882   0.299   1.600 -2.1912 -1.0584 -2.7563
   95SOL    HW2  285   1.741   0.302   1.691  0.9988 -1.0983 -0.4675
   96SOL     OW  286   3.070   2.910   1.494 -0.4504  0.0780  0.1325
   96SOL    HW1  287   2.998   2.973   1.455 -1.4054  2.6568 -2.2632
   96SOL    HW2  288   3.027   2.826   1.531  1.1877 -0.4208 -1.6745
   97SOL     OW  289   2.344   0.309   1.596 -0.0212 -0.1948 -0.4513
   97SOL    HW1  290   2.433   0.358   1.573 -0.4405  3.2768  1.6522
   97SOL    HW2  291   2.339   0.292   1.697 -2.7677 -1.4859  2.0323
   98SOL     OW  292   1.308   2.263   1.574  0.3361 -0.5028  0.2128
   98SOL    HW1  293   1.343   2.360   1.578  0.5450  1.4946  0.7032
   98SOL    HW2  294   1.304   2.228   1.479  0.4854 -0.9977  0.3528
   99SOL     OW  295   0.047   2.924   1.924 -0.4264 -0.1741  0.2084
   99SOL    HW1  296   0.126   2.893   1.865  2.3247 -0.9086  1.2670
   99SOL    HW2  297   0.078   2.938   2.020 -1.9057  2.0859 -0.9264
  100SOL     OW  298   0.046   1.213   2.164  0.1387  0.1350 -0.3759
  100SOL    HW1  299   0.018   1.296   2.117 -2.1803  0.8968 -1.1340
  100SOL    HW2  300   3.089   1.184   2.218  3.6161  0.3429 -3.0453
  101SOL     OW  301   2.146   0.806   0.366 -0.9190 -0.1111  0.3775
  101SOL    HW1  302   2.235   0.778   0.414  0.5726  1.4415  2.0775
  101SOL    HW2  303   2.147   0.903   0.356 -2.0306 -4.4693  1.0335
  102SOL     OW  304   0.078   0.650   1.212  0.0413  0.2737  0.4614
  102SOL    HW1  305   0.049   0.636   1.114 -1.6117 -0.3094 -1.2081
  102SOL    HW2  306   0.077   0.748   1.228  1.0836 -1.0894 -2.9418
  103SOL     OW  307   2.453   0.818   2.671  0.0190  0.6169  0.3365
  103SOL    HW1  308   2.445   0.720   2.683 -2.6987 -0.4601 -1.8551
  103SOL    HW2  309   2.478   0.855   2.761  0.5349  0.2040  1.9586
  104SOL     OW  310   0.268   0.265   2.417  0.5850 -0.2783 -0.7785
  104SOL    HW1  311   0.213   0.351   2.393  1.2061  0.2354 -1.6024
  104SOL    HW2  312   0.367   0.291   2.436  0.2940 -0.2541  0.9471
  105SOL     OW  313   2.009   1.064   1.557 -0.4290 -0.5704  0.1308
  105SOL    HW1  314   1.966   0.972   1.558  1.4372 -1.4557  0.0047
  105SOL    HW2  315   1.939   1.132   1.530 -0.2215  3.1926  0.1237
  106SOL     OW  316   1.060   3.092   0.698  0.2046 -1.2626  0.0956
  106SOL    HW1  317   1.121   0.046   0.672 -1.5677 -0.9552 -1.1800
  106SOL    HW2  318   1.110   3.017   0.751 -0.5517  0.2148  3.1449
  107SOL     OW  319   0.170   1.660   1.113 -0.1852  0.6979  0.2666
  107SOL    HW1  320   0.163   1.705   1.022 -1.0171 -1.6989 -2.7029
  107SOL    HW2  321   0.143   1.563   1.103  0.2708  1.8506  1.6521
  108SOL     OW  322   0.313   0.019   2.331  0.2578 -0.1219  0.6614
  108SOL    HW1  323   0.323   3.073   2.400  0.8212  0.9965 -0.5342
  108SOL    HW2  324   0.295   0.111   2.366  2.1216 -2.0230 -0.1529
  109SOL     OW  325   2.414   0.103   0.485  0.0325  0.2163  0.3847
  109SOL    HW1  326   2.342   0.060   0.426 -1.5646 -1.6548 -0.5863
  109SOL    HW2  327   2.495   0.114   0.431 -3.3778  0.5593 -0.3924
  110SOL     OW  328   0.309   2.160   2.572 -0.0958  0.5076 -0.5211
  110SOL    HW1  329   0.214   2.168   2.537 -0.2049  2.3666  0.2863
  110SOL    HW2  330   0.351   2.247   2.596 -0.7722 -2.4515 -0.1317
  111SOL     OW  331   1.551   3.006   2.334 -0.3520  0.6754  0.0310
  111SOL    HW1  332   1.506   2.971   2.250  1.5088 -0.8434  1.6984
  111SOL    HW2  333   1.635   3.059   2.308  0.1086  0.3482  1.8789
  112SOL     OW  334   1.815   2.348   2.885 -0.2795  0.3274  0.0199
  112SOL    HW1  335   1.806   2.245   2.869 -0.7845  1.1314 -2.7051
  112SOL    HW2  336   1.813   2.390   2.792  2.8515 -0.3888 -0.2783
  113SOL     OW  337   2.728   2.350   1.987 -0.8854 -0.6568  0.1149
  113SOL    HW1  338   2.675   2.314   2.063  1.0515 -0.1365 -1.0515
  113SOL    HW2  339   2.743   2.281   1.915  0.4012 -1.6675 -0.1442
  114SOL     OW  340   2.471   0.881   1.039  0.3538 -0.0835  0.4112
  114SOL    HW1  341   2.383   0.826   1.040  1.6697  1.8780 -1.9234
  114SOL    HW2  342   2.458   0.962   0.973 -1.2474  1.3711 -0.8073
  115SOL     OW  343   0.038   1.799   2.879 -0.2975  0.3572 -0.7154
  115SOL    HW1  344   0.089   1.729   2.829 -1.6547 -1.8693  1.4262
  115SOL    HW2  345   0.074   1.895   2.868  0.0959 -1.8191 -1.4467
  116SOL     OW  346   0.247   1.532   2.244 -0.2924 -0.4675 -0.0884
  116SOL    HW1  347   0.322   1.570   2.303  0.8749  1.4576  0.5657
  116SOL    HW2  348   0.292   1.488   2.162 -0.1036 -4.7546 -2.0373
  117SOL     OW  349   2.698   0.293   0.856  0.0908  0.7684 -0.1017
  117SOL    HW1  350   2.684   0.191   0.878 -0.8892 -1.3320  1.3783
  117SOL    HW2  351   2.656   0.304   0.761  0.2278 -0.1603 -2.9532
  118SOL     OW  352   0.658   2.185   1.552  0.2592  0.0835  0.1814
  118SOL    HW1  353   0.719   2.112   1.580  1.0641  2.3544 -1.3991
  118SOL    HW2  354   0.663   2.220   1.452 -0.9635 -1.0075  0.4127
  119SOL     OW  355   1.660   2.261   0.312 -0.3583 -0.2208  0.3982
  119SOL    HW1  356   1.719   2.215   0.243 -1.4440  3.0899 -0.6738
  119SOL    HW2  357   1.678   2.359   0.311  0.3024 -1.9190 -0.4680
  120SOL     OW  358   0.446   1.644   2.416 -0.0533 -0.7144  0.2612
  120SOL    HW1  359   0.384   1.715   2.449  1.3145  0.1087 -0.3260
  120SOL    HW2  360   0.495   1.675   2.330  3.3445  1.4716 -3.4238
  121SOL     OW  361   2.050   2.309   1.210  0.2459  0.5851  0.0404
  121SOL    HW1  362   2.119   2.277   1.278  0.6477  2.2356 -0.0223
  121SOL    HW2  363   2.097   2.368   1.142 -1.5468 -0.8564  2.8872
  122SOL     OW  364   2.373   2.243   2.225  0.4603  0.3981  0.1542
  122SOL    HW1  365   2.322   2.165   2.267 -1.3956  1.1103 -1.6305
  122SOL    HW2  366   2.468   2.224   2.213 -1.4176  0.2444  3.1869
  123SOL     OW  367   2.887   0.053   0.707 -0.1114  0.0417  0.3308
  123SOL    HW1  368   2.954   0.110   0.764  0.3097  0.2255 -0.7320
  123SOL    HW2  369   2.901   3.076   0.723 -1.9944 -0.2091  1.8648
  124SOL     OW  370   1.862   0.379   2.541 -0.1608  0.0830  0.1753
  124SOL    HW1  371   1.818   0.447   2.476  0.6909  2.4387 -1.9867
  124SOL    HW2  372   1.796   0.304   2.560 -0.0177 -0.9956  0.7136
  125SOL     OW  373   0.522   1.218   0.177  0.8887 -0.0997 -0.0188
  125SOL    HW1  374   0.547   1.315   0.163  1.1626 -0.0149  1.0916
  125SOL    HW2  375   0.441   1.187   0.118 -2.1670  0.7487 -0.0895
  126SOL     OW  376   2.493   2.079   0.255 -0.0064 -1.0385  0.1969
  126SOL    HW1  377   2.525   2.068   0.354  2.2488  0.6049  0.1369
  126SOL    HW2  378   2.446   2.170   0.249  0.6819 -3.6467 -0.8701
  127SOL     OW  379   0.135   1.787   0.889 -0.2645 -0.2824 -0.7265
  127SOL    HW1  380   0.130   1.869   0.830 -2.8438 -1.5395 -2.0290
  127SOL    HW2  381   0.042   1.754   0.889  1.9132  2.2077  0.5580
  128SOL     OW  382   0.760   0.662   3.119 -0.4808  0.6163 -0.3142
  128SOL    HW1  383   0.841   0.718   0.003 -0.9345 -0.2537 -0.3164
  128SOL    HW2  384   0.673   0.711   0.014 -0.5476  0.7411 -1.1497
  129SOL     OW  385   2.367   1.586   0.943  0.0467 -0.3235  0.1761
  129SOL    HW1  386   2.312   1.617   1.018  2.5061 -3.1725  0.5048
  129SOL    HW2  387   2.394   1.673   0.885  0.0430  1.6115  1.3270
  130SOL     OW  388   2.308   1.977   1.253  0.3709 -0.6606 -0.6956
  130SOL    HW1  389   2.231   1.949   1.189  1.1760  0.7145 -1.4794
  130SOL    HW2  390   2.320   1.909   1.331 -0.0770 -0.0693  3.5936
  131SOL     OW  391   2.815   0.962   2.987  0.5930  0.3930 -0.2158
  131SOL    HW1  392   2.746   0.885   2.991 -1.2760 -2.3958  3.4332
  131SOL    HW2  393   2.910   0.928   2.966  0.9440 -1.4296 -0.1380
  132SOL     OW  394   2.730   2.125   1.823  0.1819  0.0884 -0.1833
  132SOL    HW1  395   2.825   2.137   1.784  0.1949  1.3782  0.5648
  132SOL    HW2  396   2.726   2.047   1.888  1.0941 -2.4807 -0.7999
  133SOL     OW  397   3.109   1.173   0.680  0.0713  0.1870  0.4790
  133SOL    HW1  398   0.067   1.181   0.740 -1.4521  0.2812 -1.8547
  133SOL    HW2  399   3.030   1.177   0.740 -0.6069  0.1938 -0.8849
  134SOL     OW  400   0.341   1.114   0.025 -0.2130  0.4360  0.1749
  134SOL    HW1  401   0.320   1.034   0.078  4.4977  2.4042  0.2319
  134SOL    HW2  402   0.384   1.078   3.065  0.7241  0.3607  1.3375
  135SOL     OW  403   2.015   1.294   1.343  0.1523 -0.0631 -0.3862
  135SOL    HW1  404   1.933   1.288   1.405 -4.5264  1.1080  0.1901
  135SOL    HW2  405   2.002   1.229   1.266  0.2907  1.3471  0.5173
  136SOL     OW  406   1.954   1.101   1.101  0.0592 -0.3409 -0.6727
  136SOL    HW1  407   1.992   1.033   1.167 -1.2820  0.9731  0.5713
  136SOL    HW2  408   1.908   1.063   1.019 -2.1987  1.7580 -0.6290
  137SOL     OW  409   2.433   1.813   0.815 -0.0340  0.4299 -0.9359
  137SOL    HW1  410   2.457   1.771   0.722  1.7713 -1.3397  0.4441
  137SOL    HW2  411   2.479   1.901   0.823  0.9761 -1.1267 -1.9663
  138SOL     OW  412   1.592   0.502   1.954 -0.2641  0.0568  0.8015
  138SOL    HW1  413   1.557   0.521   2.051 -2.6482  0.4321  2.5316
  138SOL    HW2  414   1.679   0.559   1.944 -1.4972 -0.4252  1.2243
  139SOL     OW  415   2.353   0.089   0.029  0.0354  0.0839 -0.2377
  139SOL    HW1  416   2.314   0.051   3.066 -0.4592  0.5642  1.6670
  139SOL    HW2  417   2.325   0.182   0.044  1.3130 -1.7294  0.3879
  140SOL     OW  418   1.496   2.162   2.448 -0.1602 -0.2994  0.1466
  140SOL    HW1  419   1.460   2.125   2.535 -2.2967 -1.9323 -3.3874
  140SOL    HW2  420   1.593   2.131   2.434 -1.9690 -0.1370  1.6342
  141SOL     OW  421   1.585   1.465   1.551  0.4066 -0.4123  0.1127
  141SOL    HW1  422   1.628   1.513   1.631  1.3490  1.8310  0.2283
  141SOL    HW2  423   1.497   1.415   1.573  1.1436  1.2590 -1.0314
  142SOL     OW  424   2.818   0.102   3.087 -0.0153  0.1624  0.6947
  142SOL    HW1  425   2.889   0.025   3.092  2.0152 -3.0307  1.9116
  142SOL    HW2  426   2.738   0.065   0.012  0.7155  0.7049 -2.4543
  143SOL     OW  427   0.441   2.548   2.863 -0.3146  0.0888 -0.0906
  143SOL    HW1  428   0.487   2.528   2.951 -0.0590  0.9617  2.4218
  143SOL    HW2  429   0.490   2.616   2.811 -0.0028 -1.5670 -0.7617
  144SOL     OW  430   0.844   2.819   1.884 -0.5899 -0.0359 -0.0857
  144SOL    HW1  431   0.790   2.737   1.873  1.1862  2.6717  0.8995
  144SOL    HW2  432   0.940   2.802   1.857 -0.0255  0.6513  0.3772
  145SOL     OW  433   2.296   1.548   0.441 -0.6789 -0.2268  0.1225
  145SOL    HW1  434   2.330   1.516   0.352  0.1012 -0.7614 -0.7975
  145SOL    HW2  435   2.290   1.463   0.498  2.4872  0.2776  0.6955
  146SOL     OW  436   2.658   2.938   2.837 -0.6599 -0.3869  0.6176
  146SOL    HW1  437   2.620   3.032   2.843  1.2192  0.0008  2.3424
  146SOL    HW2  438   2.724   2.926   2.912  1.1989 -0.0282  2.5557
  147SOL     OW  439   2.815   2.662   1.129 -0.2707  0.0316 -0.3006
  147SOL    HW1  440   2.896   2.724   1.134 -0.5847 -0.6777  0.6908
  147SOL    HW2  441   2.735   2.713   1.099 -0.3066  0.3280  2.3263
  148SOL     OW  442   1.769   3.118   0.118 -0.0174 -0.3060  0.3631
  148SOL    HW1  443   1.705   3.091   0.195 -0.4505  1.5704 -0.4817
  148SOL    HW2  444   1.826   3.037   0.081 -1.0092 -1.3894 -0.1586
  149SOL     OW  445   0.959   0.815   2.805 -0.2359 -0.7694  0.1095
  149SOL    HW1  446   0.983   0.779   2.899  0.0418 -1.8536  2.0081
  149SOL    HW2  447   0.927   0.909   2.798 -1.6826 -1.1899  0.2473
  150SOL     OW  448   1.091   2.521   0.700 -0.1905  0.0310 -0.2352
  150SOL    HW1  449   1.066   2.449   0.771 -2.0511 -0.4230  1.8476
  150SOL    HW2  450   1.007   2.558   0.656 -1.7784 -1.5307  0.0612
  151SOL     OW  451   0.152   1.901   0.059  0.8001 -0.5515  0.0437
  151SOL    HW1  452   0.111   1.807   0.054 -2.0242 -0.0201  0.7247
  151SOL    HW2  453   0.231   1.910   3.122 -1.7614  1.2241  1.1585
  152SOL     OW  454   0.378   1.432   0.519 -0.2417 -0.0275 -0.3346
  152SOL    HW1  455   0.439   1.355   0.502 -0.6090  2.5125 -1.7612
  152SOL    HW2  456   0.306   1.411   0.587  2.1945 -0.4650 -2.7399
  153SOL     OW  457   2.500   2.552   3.085  0.2198 -0.1151 -0.3761
  153SOL    HW1  458   2.563   2.473   3.111  2.0752 -0.9282 -0.0693
  153SOL    HW2  459   2.409   2.519   3.073  0.7834 -0.0772  3.1683
  154SOL     OW  460   0.823   0.322   1.182  0.5866  0.0531 -0.3081
  154SOL    HW1  461   0.797   0.249   1.118  0.4051 -0.6272  0.6644
  154SOL    HW2  462   0.753   0.319   1.257  2.7333  3.2198  0.7488
  155SOL     OW  463   3.023   2.067   1.130 -0.1039  0.1574  0.3188
  155SOL    HW1  464   3.009   1.983   1.074 -1.1497  0.2812 -0.8985
  155SOL    HW2  465   3.014   2.046   1.228  0.8537  1.2838  2.5737
  156SOL     OW  466   2.084   2.103   3.100  0.1574 -0.2553 -0.1946
  156SOL    HW1  467   2.101   2.023   0.039 -3.5669 -1.6768  0.6009
  156SOL    HW2  468   2.164   2.161   3.071  0.0546  1.2611 -2.5573
  157SOL     OW  469   0.678   2.646   0.908 -0.2799 -0.0685 -0.2215
  157SOL    HW1  470   0.706   2.556   0.864 -0.4717 -3.8328 -1.0518
  157SOL    HW2  471   0.741   2.649   0.991  3.1630 -2.7219 -2.2615
  158SOL     OW  472   2.375   0.575   2.767  0.0585 -0.0964  0.1532
  158SOL    HW1  473   2.371   0.577   2.866  0.9611  0.1991 -2.8821
  158SOL    HW2  474   2.319   0.494   2.739 -1.3719 -0.6110 -1.4573
  159SOL     OW  475   0.675   0.137   2.560 -0.2942 -0.8819 -0.4530
  159SOL    HW1  476   0.718   0.122   2.649  0.5973 -4.1564  0.2235
  159SOL    HW2  477   0.749   0.162   2.497  1.8991 -0.3875  0.3922
  160SOL     OW  478   0.938   1.895   0.134  0.5997  0.2341 -0.1318
  160SOL    HW1  479   0.975   1.884   0.226 -1.2454  0.1536 -4.6613
  160SOL    HW2  480   0.896   1.807   0.104  2.2407  0.2319 -0.5588
  161SOL     OW  481   0.007   2.318   2.943 -0.0535 -0.4145  0.3706
  161SOL    HW1  482   0.068   2.395   2.912  1.5788 -1.4967  2.8742
  161SOL    HW2  483   3.044   2.349   2.989 -4.5245  2.9676  1.0227
  162SOL     OW  484   0.410   2.582   0.830  0.9064 -0.0338 -0.3785
  162SOL    HW1  485   0.499   2.609   0.875  0.1480 -2.6250  0.2369
  162SOL    HW2  486   0.340   2.582   0.901  1.0440  0.5002  0.9465
  163SOL     OW  487   2.465   0.598   0.068  0.0816  0.1006 -0.3552
  163SOL    HW1  488   2.486   0.510   0.112  0.3433  0.4659 -0.5717
  163SOL    HW2  489   2.384   0.594   0.004 -1.0126 -0.0312 -0.2908
  164SOL     OW  490   3.088   2.668   0.546 -0.6094  0.4110  0.5624
  164SOL    HW1  491   3.057   2.706   0.460  1.4248 -1.3246  0.4786
  164SOL    HW2  492   3.122   2.735   0.612  0.1242 -0.7023 -2.2220
  165SOL     OW  493   2.555   0.433   1.280 -0.0663 -0.0160 -0.2239
  165SOL    HW1  494   2.570   0.418   1.378  0.9386  0.1476  1.4350
  165SOL    HW2  495   2.463   0.470   1.258 -2.0287  1.6411 -0.7080
  166SOL     OW  496   2.217   0.298   0.939  0.4495  0.1995 -0.8760
  166SOL    HW1  497   2.178   0.222   0.880  0.4857  1.5330 -0.5797
  166SOL    HW2  498   2.180   0.284   1.032 -2.3037  0.7092 -1.5542
  167SOL     OW  499   0.477   0.627   1.401 -0.4651  0.0112 -0.3976
  167SOL    HW1  500   0.421   0.605   1.481 -0.9242  1.2027  0.5770
  167SOL    HW2  501   0.499   0.541   1.350  1.4041 -0.1746 -0.5033
  168SOL     OW  502   2.641   3.065   2.294  0.6007 -0.7789 -0.1230
  168SOL    HW1  503   2.589   2.992   2.342  2.1915  1.8254 -1.3129
  168SOL    HW2  504   2.672   0.014   2.361  0.3206  1.3848 -0.1608
  169SOL     OW  505   2.967   1.486   0.708  0.3261  0.4377 -0.5550
  169SOL    HW1  506   3.013   1.548   0.645  1.0489  1.9884  0.9125
  169SOL    HW2  507   3.031   1.457   0.784  1.4365  0.9238  2.8008
  170SOL     OW  508   2.897   0.674   1.535 -0.5488  0.5021 -0.3215
  170SOL    HW1  509   2.928   0.579   1.555  0.0207  2.1662 -1.3197
  170SOL    HW2  510   2.958   0.741   1.571 -1.5691 -0.8723  0.3301
  171SOL     OW  511   1.028   2.241   1.591 -0.9206  0.5200  0.2009
  171SOL    HW1  512   1.130   2.235   1.597  0.7055 -2.4836 -1.7296
  171SOL    HW2  513   0.991   2.334   1.607  0.4328 -1.2846  0.6022
  172SOL     OW  514   0.357   2.474   1.155  0.1817 -0.3935  0.2318
  172SOL    HW1  515   0.390   2.391   1.102  0.2872  1.8235  0.6987
  172SOL    HW2  516   0.289   2.524   1.101 -0.2711 -2.1384  1.1423
  173SOL     OW  517   1.185   3.035   0.290  0.3742 -0.3064 -0.2694
  173SOL    HW1  518   1.183   3.049   0.190  4.7761 -0.6965 -0.2069
  173SOL    HW2  519   1.255   3.093   0.333 -0.3652 -0.5928  2.7821
  174SOL     OW  520   0.901   2.702   2.725 -0.2394 -0.4893  0.4271
  174SOL    HW1  521   0.995   2.665   2.731  1.0087 -0.2336  2.5480
  174SOL    HW2  522   0.858   2.701   2.814 -0.0998 -0.8762 -2.9935
  175SOL     OW  523   1.505   0.621   0.301  0.4559 -0.6348 -0.4159
  175SOL    HW1  524   1.556   0.595   0.389  2.0696  0.8895 -0.0879
  175SOL    HW2  525   1.548   0.710   0.271 -1.1466 -0.2240  3.6316
  176SOL     OW  526   1.384   0.171   0.277  0.1418  0.2908  0.2767
  176SOL    HW1  527   1.454   0.146   0.206  2.5232  0.8310  0.7728
  176SOL    HW2  528   1.402   0.120   0.361 -2.1494 -1.3896 -0.1393
  177SOL     OW  529   1.297   0.973   1.026 -0.3827  0.2093  0.4036
  177SOL    HW1  530   1.269   1.072   1.039  0.0208  0.6047 -0.3844
  177SOL    HW2  531   1.232   0.899   1.044 -0.1928 -1.8103  3.5344
  178SOL     OW  532   2.270   1.759   2.266  0.3268 -0.3055  0.4168
  178SOL    HW1  533   2.356   1.712   2.247 -0.7722 -1.7259 -0.1183
  178SOL    HW2  534   2.189   1.701   2.237  1.2444 -1.1342  0.8647
  179SOL     OW  535   0.621   2.688   2.675  0.5710  0.0725  0.1820
  179SOL    HW1  536   0.725   2.668   2.681  2.4229 -0.5820 -2.9952
  179SOL    HW2  537   0.593   2.641   2.589  0.4723  1.0947  0.8370
  180SOL     OW  538   1.593   1.925   1.759  0.2856  0.1724 -0.1607
  180SOL    HW1  539   1.641   1.864   1.825 -1.8519  1.2164  0.2090
  180SOL    HW2  540   1.611   1.901   1.665 -2.8555  2.9728 -2.6106
  181SOL     OW  541   1.561   1.252   2.465  0.1192  0.3468 -0.3873
  181SOL    HW1  542   1.538   1.237   2.565  2.4604 -1.1987  1.1723
  181SOL    HW2  543   1.524   1.179   2.402  0.5431  0.4433 -1.8821
  182SOL     OW  544   2.998   0.640   2.689  0.1485  0.3929 -0.0159
  182SOL    HW1  545   2.948   0.550   2.668 -0.4876 -1.7637  0.3867
  182SOL    HW2  546   3.094   0.619   2.693 -0.4470  0.0256  0.2112
  183SOL     OW  547   1.092   0.227   2.736  0.0002  0.2796 -0.2980
  183SOL    HW1  548   1.159   0.273   2.679 -1.5688 -0.1455  1.6789
  183SOL    HW2  549   1.007   0.279   2.745  0.7865  0.9587  0.3804
  184SOL     OW  550   1.018   0.570   1.400  0.3792 -0.4235  0.8026
  184SOL    HW1  551   0.979   0.664   1.407 -1.0585  2.5516 -0.7952
  184SOL    HW2  552   1.004   0.538   1.306  0.9625 -0.7729  0.1082
  185SOL     OW  553   3.112   1.451   0.929  0.0939  0.2682  0.3317
  185SOL    HW1  554   3.024   1.452   0.985 -2.0057  1.5506 -0.0427
  185SOL    HW2  555   0.059   1.401   0.986  2.2359 -0.7328  0.6401
  186SOL     OW  556   0.465   1.716   2.829 -0.4315  0.1647 -0.3305
  186SOL    HW1  557   0.451   1.769   2.919 -0.6223  2.8085 -0.3962
  186SOL    HW2  558   0.444   1.777   2.748 -0.6549 -1.9733  1.0612
  187SOL     OW  559   2.381   1.428   0.220 -0.1583  0.3681 -0.0010
  187SOL    HW1  560   2.447   1.362   0.178 -1.3587 -0.9721  1.3059
  187SOL    HW2  561   2.287   1.410   0.181  0.0127  0.6447 -1.8940
  188SOL     OW  562   0.166   2.509   0.486  0.5919 -0.2394  0.5896
  188SOL    HW1  563   0.176   2.481   0.390  0.5682  1.2876  0.2277
  188SOL    HW2  564   0.076   2.558   0.503  2.4285 -1.1907 -2.6641
  189SOL     OW  565   2.576   0.736   0.266  0.1326 -0.0692  0.4073
  189SOL    HW1  566   2.526   0.688   0.189 -1.7641  0.3603  0.9443
  189SOL    HW2  567   2.672   0.752   0.256 -5.2062  0.2423  1.5967
  190SOL     OW  568   1.389   1.627   2.219 -0.3618 -0.1661 -0.1863
  190SOL    HW1  569   1.464   1.593   2.273  0.2826  0.5483 -2.0156
  190SOL    HW2  570   1.417   1.715   2.176  0.5769  0.2749 -1.6095
  191SOL     OW  571   2.612   0.404   1.555  0.2461 -0.1168  0.1789
  191SOL    HW1  572   2.680   0.330   1.573  1.3608 -0.8171  1.2581
  191SOL    HW2  573   2.620   0.471   1.635 -2.3988  0.3224  0.5219
  192SOL     OW  574   2.345   0.243   1.868 -0.0721 -0.4455  0.3809
  192SOL    HW1  575   2.307   0.179   1.938  2.0573  0.0962  2.0849
  192SOL    HW2  576   2.360   0.335   1.905 -1.9700 -1.7932  0.8879
  193SOL     OW  577   0.890   0.492   0.384 -0.1315 -0.0268 -0.3672
  193SOL    HW1  578   0.901   0.460   0.477 -1.1726 -2.6318 -0.3982
  193SOL    HW2  579   0.801   0.543   0.378  2.9762 -0.0757 -1.4024
  194SOL     OW  580   1.001   2.802   1.205 -0.0376 -0.3185 -0.1484
  194SOL    HW1  581   0.992   2.832   1.107  3.2664  0.3172  0.3186
  194SOL    HW2  582   0.979   2.884   1.266 -1.0456 -0.1805 -1.8471
  195SOL     OW  583   2.188   0.738   1.043  0.0091  0.1208 -0.2979
  195SOL    HW1  584   2.183   0.792   0.955 -1.8056  3.0311  0.1022
  195SOL    HW2  585   2.132   0.792   1.114 -1.8104  0.3562  2.2013
  196SOL     OW  586   1.703   1.840   2.182  0.2304 -0.3117 -0.0274
  196SOL    HW1  587   1.767   1.910   2.148 -1.6306 -1.0598 -1.9015
  196SOL    HW2  588   1.613   1.855   2.141  0.5755  0.7036  0.9928
  197SOL     OW  589   0.197   0.154   0.127  0.3927 -0.0006  0.2469
  197SOL    HW1  590   0.239   0.129   0.219 -0.9055  0.4633  0.0807
  197SOL    HW2  591   0.275   0.151   0.062  1.5726  0.2249  0.2647
  198SOL     OW  592   1.073   1.090   0.708  0.1707  0.3416 -0.1023
  198SOL    HW1  593   1.055   1.165   0.775 -3.0419  0.1521  1.2170
  198SOL    HW2  594   1.058   0.994   0.740 -0.8161  3.2794  0.4095
  199SOL     OW  595   0.055   0.873   1.868 -0.1516 -0.0587 -0.2312
  199SOL    HW1  596   0.060   0.785   1.917  2.0604  2.8283 -0.0845
  199SOL    HW2  597   0.102   0.944   1.920  0.2157  1.3297 -0.5764
  200SOL     OW  598   2.738   2.076   2.605  0.7066  0.5862 -0.3029
  200SOL    HW1  599   2.651   2.079   2.552 -0.6040 -0.3404  1.3203
  200SOL    HW2  600   2.741   2.156   2.673  0.7527  2.1841  1.9065
  201SOL     OW  601   2.501   0.151   1.318  0.0139 -0.3449  0.3642
  201SOL    HW1  602   2.522   0.253   1.317  0.5234 -0.9212 -1.9016
  201SOL    HW2  603   2.425   0.134   1.255 -0.5341 -1.2814 -0.6834
  202SOL     OW  604   2.379   0.703   0.487 -0.2152 -0.2807 -0.0488
  202SOL    HW1  605   2.370   0.711   0.586 -1.2646 -3.3157 -4.1066
  202SOL    HW2  606   2.459   0.748   0.453 -0.0837 -0.6027 -3.4400
  203SOL     OW  607   1.695   1.964   2.427 -0.0585 -0.1513  0.0600
  203SOL    HW1  608   1.710   1.917   2.338 -1.6205 -1.0603  1.0251
  203SOL    HW2  609   1.654   1.896   2.491  1.4371 -1.6025 -0.7078
  204SOL     OW  610   0.989   1.748   2.273 -0.0702  0.5419 -0.0072
  204SOL    HW1  611   0.965   1.652   2.242  0.8247  1.6069  2.1561
  204SOL    HW2  612   1.051   1.742   2.350  0.1783  0.2329 -3.4944
  205SOL     OW  613   0.864   1.995   1.618 -0.2406 -0.3809 -0.5730
  205SOL    HW1  614   0.946   2.059   1.616  2.5947  0.7133 -0.3397
  205SOL    HW2  615   0.867   1.936   1.703 -1.3624 -0.0212  0.2587
  206SOL     OW  616   0.026   0.378   3.115  0.4691  0.0996 -0.2338
  206SOL    HW1  617   0.055   0.304   0.049 -0.6876 -0.9568 -1.8384
  206SOL    HW2  618   3.051   0.361   3.097 -1.5435  0.5533  0.2139
  207SOL     OW  619   1.831   2.714   2.185 -0.2039  0.2885 -0.4593
  207SOL    HW1  620   1.761   2.785   2.204  1.9295 -4.8627  1.4395
  207SOL    HW2  621   1.883   2.731   2.101 -2.3341 -0.9000  1.0798
  208SOL     OW  622   0.353   2.125   1.517 -0.3104  0.2484  0.2624
  208SOL    HW1  623   0.261   2.166   1.489 -2.2180 -1.1573  0.6236
  208SOL    HW2  624   0.397   2.170   1.597  0.4885  2.5161 -0.2013
  209SOL     OW  625   1.604   0.777   2.672 -0.1279  0.9128  0.0229
  209SOL    HW1  626   1.518   0.824   2.670 -3.0083  0.7835 -0.4795
  209SOL    HW2  627   1.639   0.772   2.578  3.1698 -1.4180 -0.6026
  210SOL     OW  628   2.081   0.897   1.229  0.2997  0.5171 -0.4050
  210SOL    HW1  629   2.152   0.922   1.305  2.5952  1.8567  0.1919
  210SOL    HW2  630   2.011   0.835   1.265  0.5113 -0.5034  0.4556
  211SOL     OW  631   0.613   0.426   0.717 -0.1235  0.6710  0.6617
  211SOL    HW1  632   0.585   0.517   0.682 -1.4903 -0.3790 -2.3923
  211SOL    HW2  633   0.548   0.386   0.783  1.3228 -0.1195  1.8300
  212SOL     OW  634   1.826   1.323   0.370  0.0829  0.4889  0.1992
  212SOL    HW1  635   1.867   1.358   0.280 -2.3400  1.8221 -2.6399
  212SOL    HW2  636   1.733   1.282   0.349 -4.6614 -0.9742  0.1396
  213SOL     OW  637   1.697   0.164   2.571  0.2631  0.1921 -0.0795
  213SOL    HW1  638   1.744   0.170   2.661 -0.5718 -0.7128 -1.0959
  213SOL    HW2  639   1.601   0.136   2.579  1.1402  0.2771 -1.1071
  214SOL     OW  640   1.615   1.489   2.351  0.1331  0.2372  0.5403
  214SOL    HW1  641   1.683   1.534   2.410 -2.8711  2.6530  0.9242
  214SOL    HW2  642   1.591   1.396   2.391  1.3804 -2.2248 -0.3284
  215SOL     OW  643   0.190   1.809   0.419 -0.6586 -0.4161  0.0588
  215SOL    HW1  644   0.254   1.744   0.373 -1.1917 -1.1706  1.4849
  215SOL    HW2  645   0.204   1.901   0.381  1.3289  0.9051  0.2946
  216SOL     OW  646   0.561   2.868   2.197 -0.6545  0.3316 -0.5058
  216SOL    HW1  647   0.637   2.807   2.173 -3.2852  1.7731 -2.4926
  216SOL    HW2  648   0.584   2.906   2.286 -3.5488  0.6981  1.4552
  217SOL     OW  649   2.423   1.106   0.511 -0.0820  0.0411  0.1832
  217SOL    HW1  650   2.455   1.076   0.602  1.7350  0.7798  2.0207
  217SOL    HW2  651   2.370   1.192   0.526 -0.2913  2.6349 -1.3024
  218SOL     OW  652   2.194   2.000   2.063 -0.4372 -0.0417  0.0272
  218SOL    HW1  653   2.099   1.995   2.087  2.7671 -0.3803  1.6939
  218SOL    HW2  654   2.252   2.016   2.142 -1.2586 -0.6293 -2.8210
  219SOL     OW  655   1.938   1.437   0.136  0.1577 -0.0037 -0.0703
  219SOL    HW1  656   1.870   1.481   0.073  2.0831 -3.6593  0.0013
  219SOL    HW2  657   2.022   1.409   0.077  1.6206 -1.6123 -0.1373
  220SOL     OW  658   1.172   1.754   1.137  0.2067  0.0549 -0.1814
  220SOL    HW1  659   1.177   1.773   1.233 -2.3029 -1.6324 -0.9985
  220SOL    HW2  660   1.261   1.753   1.085  0.7847  2.8203 -0.2707
  221SOL     OW  661   0.165   0.880   2.789 -0.2271  0.3415 -0.7912
  221SOL    HW1  662   0.160   0.955   2.720  1.4221  2.5144 -1.8978
  221SOL    HW2  663   0.255   0.848   2.816  0.7200 -1.0960 -0.2171
  222SOL     OW  664   0.815   1.686   1.325  0.4750  0.0192 -0.0440
  222SOL    HW1  665   0.765   1.777   1.338  0.4129  3.3443  0.1805
  222SOL    HW2  666   0.838   1.672   1.226 -4.1018 -2.3425 -0.3588
  223SOL     OW  667   1.446   0.083   2.650  0.1668 -0.3491 -0.4902
  223SOL    HW1  668   1.368   0.016   2.641 -0.3418  0.6230  1.3888
  223SOL    HW2  669   1.462   0.106   2.749 -1.9700  1.2115  2.3933
  224SOL     OW  670   2.723   0.770   0.978 -0.1811 -0.2090  0.3709
  224SOL    HW1  671   2.684   0.680   0.958  0.7821 -1.6714  2.1924
  224SOL    HW2  672   2.652   0.839   1.003 -1.3970  0.8432  0.9594
  225SOL     OW  673   1.189   0.472   1.633  0.2360 -0.0159 -0.0333
  225SOL    HW1  674   1.286   0.469   1.604 -2.1991  0.4625 -2.8539
  225SOL    HW2  675   1.140   0.524   1.564 -0.0534 -2.4673 -0.2128
  226SOL     OW  676   1.601   1.900   2.790 -0.3328 -0.5684  0.0985
  226SOL    HW1  677   1.572   1.864   2.697  2.1456  2.0384 -0.9824
  226SOL    HW2  678   1.574   1.837   2.864  0.1891 -1.7259 -1.5208
  227SOL     OW  679   1.223   1.827   1.409 -0.2562 -0.4082  0.0011
  227SOL    HW1  680   1.313   1.785   1.403  1.2133  1.0671  0.8255
  227SOL    HW2  681   1.174   1.779   1.485  0.0751  0.8426  1.6576
  228SOL     OW  682   0.597   1.896   0.751  0.2237  0.1217  0.2601
  228SOL    HW1  683   0.684   1.919   0.797 -1.9334  1.5765 -2.1571
  228SOL    HW2  684   0.531   1.859   0.823  1.2337 -1.0737 -0.7663
  229SOL     OW  685   1.711   0.460   0.026  0.2212  0.3187 -0.1040
  229SOL    HW1  686   1.753   0.466   3.056  2.5619 -0.7655  2.2230
  229SOL    HW2  687   1.755   0.517   0.098 -2.3993 -2.1923 -0.0020
  230SOL     OW  688   1.000   0.424   2.324  0.4112 -0.4780 -0.6573
  230SOL    HW1  689   1.083   0.408   2.268  1.4622  1.5655 -1.2661
  230SOL    HW2  690   1.038   0.457   2.415  0.8205 -0.9331  0.1982
  231SOL     OW  691   1.295   1.671   2.557  0.0048 -0.0807  0.3563
  231SOL    HW1  692   1.270   1.572   2.559 -1.4792 -0.2492 -0.5164
  231SOL    HW2  693   1.214   1.721   2.519  0.2121 -2.6655 -0.0201
  232SOL     OW  694   2.210   1.861   0.980  0.1015  0.3812  0.3600
  232SOL    HW1  695   2.125   1.808   0.959  0.1389  4.5900 -0.5186
  232SOL    HW2  696   2.288   1.838   0.915  1.6218  2.9297 -0.4914
  233SOL     OW  697   1.903   2.869   0.041  0.2724 -0.0045 -0.2663
  233SOL    HW1  698   1.871   2.776   0.070  0.8150 -0.4877  1.8437
  233SOL    HW2  699   2.004   2.876   0.024 -4.4282  1.5546 -1.0560
  234SOL     OW  700   0.996   3.032   2.845  0.0004 -0.1311  0.2138
  234SOL    HW1  701   0.993   2.948   2.898  0.3490  2.0879 -1.5275
  234SOL    HW2  702   1.070   3.032   2.780 -0.9860  2.1582  2.8051
  235SOL     OW  703   2.587   3.084   0.088 -0.3976  0.4738  0.1729
  235SOL    HW1  704   2.515   0.029   0.057  0.5699 -0.7070 -1.9055
  235SOL    HW2  705   2.564   2.985   0.075  0.6587  2.1500 -0.5257
  236SOL     OW  706   2.582   2.355   2.438  0.2365 -0.2483  0.3787
  236SOL    HW1  707   2.558   2.410   2.521  1.2088 -0.1564 -4.4573
  236SOL    HW2  708   2.682   2.358   2.415 -3.4311  1.7522 -0.1887
  237SOL     OW  709   1.254   1.362   1.865 -0.1198  0.3388 -0.3567
  237SOL    HW1  710   1.353   1.343   1.892  1.4197  1.2209  2.3168
  237SOL    HW2  711   1.195   1.291   1.909  0.4575  3.1859 -3.5423
  238SOL     OW  712   2.279   0.135   2.392 -0.1038 -0.3919  0.2026
  238SOL    HW1  713   2.298   0.189   2.304  1.1639 -1.9940 -2.2228
  238SOL    HW2  714   2.214   0.189   2.446  0.4556  0.5506 -1.8369
  239SOL     OW  715   0.332   1.838   2.068  0.1537  0.0153  0.1879
  239SOL    HW1  716   0.414   1.782   2.101  2.4767 -3.9234  0.6114
  239SOL    HW2  717   0.302   1.806   1.973 -2.1190  1.9254 -0.3133
  240SOL     OW  718   2.783   2.863   0.795  0.2783 -0.3803 -0.1831
  240SOL    HW1  719   2.699   2.863   0.857  2.7080  0.9884 -0.4472
  240SOL    HW2  720   2.793   2.778   0.735 -0.8509  0.2409 -0.5242
  241SOL     OW  721   1.878   2.105   0.755  0.3073 -0.3760  0.3024
  241SOL    HW1  722   1.960   2.108   0.808 -1.3964  1.3111 -2.4698
  241SOL    HW2  723   1.845   2.010   0.758  1.4257  0.7282  1.4165
  242SOL     OW  724   1.204   1.808   2.792 -0.3793  0.7041  0.2283
  242SOL    HW1  725   1.146   1.746   2.853 -0.8637 -1.9838 -0.0562
  242SOL    HW2  726   1.267   1.748   2.738  1.7228 -1.2330 -2.3074
  243SOL     OW  727   0.681   2.529   2.204 -0.2090  0.0652  0.0299
  243SOL    HW1  728   0.720   2.623   2.191 -1.2162 -0.5736  0.7094
  243SOL    HW2  729   0.751   2.461   2.190 -1.0029  0.7674 -2.1637
  244SOL     OW  730   2.296   3.051   2.937 -0.2844  0.6684  0.2211
  244SOL    HW1  731   2.391   3.096   2.924  4.0479  0.3772  2.4457
  244SOL    HW2  732   2.254   3.019   2.850 -0.0523  0.9675 -1.8609
  245SOL     OW  733   1.455   2.717   0.523  0.3329  0.1754 -0.7220
  245SOL    HW1  734   1.432   2.620   0.549 -0.5809 -1.9387 -2.3000
  245SOL    HW2  735   1.373   2.762   0.491 -0.9394 -0.2972  1.5255
  246SOL     OW  736   0.892   3.045   0.241  0.0638  0.0172  0.0524
  246SOL    HW1  737   0.935   0.005   0.201  1.2991  3.1728  0.7680
  246SOL    HW2  738   0.959   3.013   0.310 -1.5445 -0.3285 -1.4360
  247SOL     OW  739   0.586   0.866   1.993 -0.5806  0.1999  0.0872
  247SOL    HW1  740   0.583   0.778   1.936  0.3652  0.2222 -1.1358
  247SOL    HW2  741   0.612   0.850   2.092  0.6052 -1.5166  1.4587
  248SOL     OW  742   1.262   1.243   2.320 -0.6093 -0.2797  0.0052
  248SOL    HW1  743   1.240   1.313   2.245 -1.3530  0.3354 -1.5880
  248SOL    HW2  744   1.267   1.283   2.411  1.5256 -2.5300 -2.9038
  249SOL     OW  745   2.135   0.443   0.522  0.3204 -0.0964 -0.4093
  249SOL    HW1  746   2.185   0.449   0.611  1.3879  1.8585 -1.0851
  249SOL    HW2  747   2.073   0.523   0.503 -1.6444  3.1921 -0.0299
  250SOL     OW  748   0.748   0.146   0.427 -0.4213 -0.2091  0.2298
  250SOL    HW1  749   0.737   0.078   0.503 -0.7290 -2.5874 -0.7117
  250SOL    HW2  750   0.845   0.165   0.406 -1.8521  3.4096  0.5271
  251SOL     OW  751   1.591   0.128   2.911 -0.0208  0.1303  0.5110
  251SOL    HW1  752   1.680   0.104   2.871 -0.4574  1.8874  1.2067
  251SOL    HW2  753   1.605   0.155   3.008 -0.4533 -0.0127 -0.0231
  252SOL     OW  754   1.900   1.250   2.014  0.1270 -0.3289  0.2383
  252SOL    HW1  755   1.948   1.201   2.084 -1.0991 -1.1337  1.5022
  252SOL    HW2  756   1.832   1.315   2.054  0.8499 -1.0910  1.7477
  253SOL     OW  757   2.597   2.551   1.871 -0.1514  0.1424  0.1863
  253SOL    HW1  758   2.617   2.632   1.927 -0.1860  0.4479  1.0718
  253SOL    HW2  759   2.628   2.462   1.918 -0.5344  0.6992  0.3363
  254SOL     OW  760   0.403   1.401   1.074  0.1095  0.0594 -0.5873
  254SOL    HW1  761   0.475   1.336   1.101 -0.8565 -1.3978  0.0272
  254SOL    HW2  762   0.430   1.497   1.091  0.0289  0.7654 -2.5331
  255SOL     OW  763   1.153   0.851   1.257  0.9418  0.3484  0.1500
  255SOL    HW1  764   1.096   0.905   1.196 -0.4904  1.3425 -0.4381
  255SOL    HW2  765   1.193   0.912   1.325 -0.6969 -0.0783 -1.7991
  256SOL     OW  766   1.886   2.517   1.828  0.4124  0.3022 -0.0147
  256SOL    HW1  767   1.816   2.446   1.837  1.0736  1.3496 -2.3473
  256SOL    HW2  768   1.973   2.492   1.782  1.5841 -0.1123  4.5696
  257SOL     OW  769   0.170   2.883   2.816  0.2736  0.3640  0.2475
  257SOL    HW1  770   0.137   2.965   2.865 -0.5446 -1.3540  0.1030
  257SOL    HW2  771   0.274   2.885   2.821  1.6609  0.1222  0.7959
  258SOL     OW  772   0.809   2.774   2.151  0.1575 -0.2466 -0.1107
  258SOL    HW1  773   0.895   2.782   2.206  1.9807  1.0810  2.6081
  258SOL    HW2  774   0.826   2.794   2.054 -1.7111  1.1114  0.9001
  259SOL     OW  775   1.246   3.073   2.349 -0.0425 -0.3177 -0.3806
  259SOL    HW1  776   1.344   3.078   2.371  1.4140  3.0468  3.1495
  259SOL    HW2  777   1.226   0.026   2.281 -0.3225 -1.1847 -1.6821
  260SOL     OW  778   1.725   0.398   0.998  0.2972  0.3367  0.7088
  260SOL    HW1  779   1.682   0.339   0.928 -2.0038 -1.3097  1.4767
  260SOL    HW2  780   1.822   0.422   0.968  1.5911 -0.4155 -0.1944
  261SOL     OW  781   0.154   0.588   2.687 -0.3760  0.0522 -0.2643
  261SOL    HW1  782   0.178   0.507   2.742  1.1949 -0.0178  1.6397
  261SOL    HW2  783   0.221   0.658   2.716 -1.6893 -0.7028  3.3160
  262SOL     OW  784   3.062   2.568   1.999  0.1574 -0.4628  0.2741
  262SOL    HW1  785   0.037   2.567   1.966 -0.0679 -3.6421 -3.1646
  262SOL    HW2  786   3.014   2.646   1.951  0.1535  1.8845  0.1041
  263SOL     OW  787   2.699   1.722   2.301  0.2171  0.4375  0.1768
  263SOL    HW1  788   2.768   1.794   2.311  1.5132 -0.8100 -0.9497
  263SOL    HW2  789   2.631   1.723   2.379 -0.0862 -0.6097  0.2745
  264SOL     OW  790   0.618   1.014   0.905  0.6539  0.0367  0.1121
  264SOL    HW1  791   0.643   1.095   0.965  1.8000  1.7466 -2.1375
  264SOL    HW2  792   0.659   1.025   0.811  0.2222  0.6895 -0.2947
  265SOL     OW  793   0.691   2.015   0.072 -0.2157  0.6966 -0.1841
  265SOL    HW1  794   0.786   1.973   0.084  0.7122 -0.4963 -4.8948
  265SOL    HW2  795   0.645   2.025   0.162  1.7745 -3.7258 -1.7462
  266SOL     OW  796   1.493   0.598   1.008 -0.0906  0.5291  0.0884
  266SOL    HW1  797   1.581   0.545   1.012  1.8746 -0.7924  0.9524
  266SOL    HW2  798   1.450   0.583   0.917  1.1345  3.2686 -1.6431
  267SOL     OW  799   2.805   1.174   0.037 -0.3752 -0.2768  0.0857
  267SOL    HW1  800   2.896   1.154   0.079  1.2224  0.0404  0.5596
  267SOL    HW2  801   2.793   1.108   3.085 -1.3555 -0.4192  0.3618
  268SOL     OW  802   1.967   0.131   0.263  0.7697  0.5138 -0.4138
  268SOL    HW1  803   1.940   0.167   0.354 -0.3571  2.2085  4.3270
  268SOL    HW2  804   1.892   0.077   0.222  2.0849 -0.0286  5.1174
  269SOL     OW  805   1.862   0.800   2.815 -0.0639 -0.0652 -0.0071
  269SOL    HW1  806   1.766   0.797   2.784 -0.6585  1.3127 -0.9336
  269SOL    HW2  807   1.876   0.865   2.892  0.1074 -1.2581  2.4919
  270SOL     OW  808   0.524   0.842   0.015  0.3946  0.6285  0.3101
  270SOL    HW1  809   0.541   0.881   3.047  0.0417  1.1914 -0.6646
  270SOL    HW2  810   0.422   0.835   0.023  1.3836  0.7754  1.2722
  271SOL     OW  811   3.082   0.848   0.236 -0.1028 -0.3576  0.4635
  271SOL    HW1  812   3.088   0.799   0.145 -3.0384 -0.8363  1.0223
  271SOL    HW2  813   3.067   0.946   0.221  3.0004 -1.6633  1.5324
  272SOL     OW  814   0.068   2.081   2.829  0.8129  0.4918 -0.2164
  272SOL    HW1  815   0.071   2.092   2.727 -5.3757 -0.1158  3.3903
  272SOL    HW2  816   0.049   2.171   2.874 -0.5763  1.1332 -1.0996
  273SOL     OW  817   2.375   0.002   0.725 -0.2275 -0.2316  0.0308
  273SOL    HW1  818   2.299   0.043   0.778  2.2413  2.8938 -3.3179
  273SOL    HW2  819   2.386   0.041   0.633  1.3561  0.9508 -0.7887
  274SOL     OW  820   0.247   2.130   0.760 -0.0827 -0.4084 -0.1670
  274SOL    HW1  821   0.305   2.054   0.729 -0.1276  0.2986  2.5904
  274SOL    HW2  822   0.262   2.207   0.698  1.7358 -2.6649 -0.8301
  275SOL     OW  823   2.466   1.732   0.556 -0.5839  0.4717  0.0918
  275SOL    HW1  824   2.559   1.709   0.519  0.0613 -2.5489  2.5361
  275SOL    HW2  825   2.405   1.668   0.505  1.2819 -5.6120 -2.8369
  276SOL     OW  826   0.189   0.988   2.115  0.4660  0.1695 -0.2853
  276SOL    HW1  827   0.281   1.025   2.095 -0.4946 -0.6165  1.5414
  276SOL    HW2  828   0.125   1.068   2.126 -0.2162 -3.1779 -0.1953
  277SOL     OW  829   1.866   2.659   1.221 -0.1357 -0.3822 -0.5696
  277SOL    HW1  830   1.954   2.669   1.174 -1.4371 -2.7934  1.4324
  277SOL    HW2  831   1.809   2.744   1.211 -0.7386  1.3521 -0.0465
  278SOL     OW  832   1.159   0.093   2.138  0.0586  0.3666  0.7099
  278SOL    HW1  833   1.061   0.124   2.148  3.5117  0.9746  0.1709
  278SOL    HW2  834   1.189   0.113   2.042 -0.4160 -0.1249  0.3632
  279SOL     OW  835   1.715   1.873   0.456  0.5023 -0.8662 -0.6138
  279SOL    HW1  836   1.658   1.961   0.453 -1.9819  0.7698  2.2740
  279SOL    HW2  837   1.798   1.888   0.396  0.4508  0.5340 -1.8223
  280SOL     OW  838   2.976   1.862   0.964 -0.1086 -0.1907 -0.3150
  280SOL    HW1  839   2.994   1.918   0.879  0.2058  0.5112 -0.1479
  280SOL    HW2  840   2.893   1.799   0.956 -0.4142 -0.0903 -1.9722
  281SOL     OW  841   3.003   0.754   2.412 -0.1361 -0.1953 -0.0708
  281SOL    HW1  842   2.922   0.721   2.357 -0.6878 -2.6251  0.8571
  281SOL    HW2  843   3.000   0.719   2.504  0.2096  2.5685 -3.5360
  282SOL     OW  844   0.760   1.011   0.654 -0.0235  0.1370  0.0237
  282SOL    HW1  845   0.675   1.002   0.605  1.9125 -2.3792  1.5772
  282SOL    HW2  846   0.834   1.022   0.584 -0.8722 -1.2818 -0.0599
  283SOL     OW  847   1.656   2.287   3.078 -0.3143 -0.1814  0.2736
  283SOL    HW1  848   1.566   2.334   3.097 -1.3402 -1.2677  0.9729
  283SOL    HW2  849   1.710   2.342   3.005 -0.1241  2.0287 -0.2406
  284SOL     OW  850   1.298   0.413   0.315 -0.1281 -0.7004 -0.4416
  284SOL    HW1  851   1.309   0.326   0.262  1.5376  1.0698 -0.4294
  284SOL    HW2  852   1.375   0.475   0.294 -2.6189 -2.0295  1.5658
  285SOL     OW  853   2.241   1.069   2.747 -0.3626 -0.1809 -0.8363
  285SOL    HW1  854   2.149   1.028   2.725  0.8796 -0.7199 -0.3199
  285SOL    HW2  855   2.317   1.008   2.713 -0.0037 -0.2815  1.1208
  286SOL     OW  856   1.297   2.761   1.573  0.0154  0.0054  0.5874
  286SOL    HW1  857   1.331   2.850   1.539 -1.3179  2.5006  0.8060
  286SOL    HW2  858   1.369   2.690   1.589  1.1904  0.1034 -0.5575
  287SOL     OW  859   1.024   0.857   0.833 -0.7640  0.3966  0.2486
  287SOL    HW1  860   0.955   0.799   0.880  0.5911  0.7187 -1.9044
  287SOL    HW2  861   1.088   0.795   0.785 -1.4130  0.7196  0.8780
  288SOL     OW  862   1.053   2.603   0.089  0.4787 -0.3558  0.0565
  288SOL    HW1  863   1.112   2.662   0.151 -0.0040  2.7909  2.5567
  288SOL    HW2  864   1.096   2.604   0.003 -0.8585 -1.7970  2.0420
  289SOL     OW  865   0.425   1.488   1.397  0.7063  0.4007  0.0395
  289SOL    HW1  866   0.476   1.505   1.483  1.8556 -0.0639 -0.6581
  289SOL    HW2  867   0.393   1.391   1.385 -0.1873  1.3648  1.4805
  290SOL     OW  868   1.781   2.494   0.925  0.0987 -0.4406  0.1281
  290SOL    HW1  869   1.790   2.463   1.020 -0.0578  1.3792 -3.2738
  290SOL    HW2  870   1.686   2.528   0.905 -0.9421  0.4332  1.1127
  291SOL     OW  871   1.680   2.883   2.972 -0.4937  0.2305 -0.8224
  291SOL    HW1  872   1.684   2.844   2.881 -1.3663 -0.7599  0.3040
  291SOL    HW2  873   1.771   2.877   3.022  0.9348 -0.9400  1.7576
  292SOL     OW  874   0.930   0.602   2.137 -0.0259  0.0167 -0.6653
  292SOL    HW1  875   0.995   0.663   2.092 -3.1034 -2.0718  0.6761
  292SOL    HW2  876   0.966   0.539   2.206 -0.7152  1.2577 -3.7431
  293SOL     OW  877   2.029   2.501   0.802  0.1081 -0.2276  0.0486
  293SOL    HW1  878   2.033   2.407   0.761 -3.3924  1.3950 -1.9358
  293SOL    HW2  879   1.936   2.516   0.836  3.1574 -2.8666 -1.2130
  294SOL     OW  880   0.607   0.768   2.269 -0.0502 -1.0277 -0.2316
  294SOL    HW1  881   0.524   0.799   2.313 -0.5556 -0.4291 -0.1963
  294SOL    HW2  882   0.637   0.679   2.314  1.0295 -0.5456  1.4035
  295SOL     OW  883   1.464   1.745   1.014  0.1160  0.5165 -0.3367
  295SOL    HW1  884   1.539   1.746   1.079  1.5921 -0.1261 -0.9452
  295SOL    HW2  885   1.467   1.803   0.930 -0.3820 -1.6825  0.2348
  296SOL     OW  886   2.473   1.884   0.067  0.5119 -0.3333  0.9272
  296SOL    HW1  887   2.466   1.949   0.142  0.5412 -0.2544 -1.1865
  296SOL    HW2  888   2.514   1.799   0.101  0.4636  1.1398 -1.9790
  297SOL     OW  889   2.224   0.016   0.275 -0.5619 -0.2506  0.5590
  297SOL    HW1  890   2.139   0.073   0.274 -0.6789  1.2422 -0.1860
  297SOL    HW2  891   2.282   0.029   0.189 -1.3415  0.3460 -1.8909
  298SOL     OW  892   1.003   2.472   2.458 -0.0300  0.0575 -0.6897
  298SOL    HW1  893   0.925   2.427   2.503 -1.1142  2.2893 -2.8934
  298SOL    HW2  894   1.062   2.510   2.534 -2.2744  0.3244  3.4741
  299SOL     OW  895   1.344   2.588   2.138 -0.4741 -0.1423  0.3506
  299SOL    HW1  896   1.301   2.672   2.178  0.0706  0.4009  0.5244
  299SOL    HW2  897   1.365   2.521   2.211 -1.8304 -2.6336 -0.8562
  300SOL     OW  898   2.528   0.060   2.845 -0.0513 -0.4805 -0.0267
  300SOL    HW1  899   2.536   0.150   2.894  0.2305  0.9846 -1.2197
  300SOL    HW2  900   2.525   0.085   2.746 -0.0524  3.4842 -3.0475
  301SOL     OW  901   1.504   0.565   2.203 -0.4096  0.0944 -0.3106
  301SOL    HW1  902   1.501   0.666   2.219  0.3349 -1.1366  0.5626
  301SOL    HW2  903   1.411   0.523   2.218 -1.0658  0.0192  0.3222
  302SOL     OW  904   2.630   2.445   0.414 -0.1379 -0.1290  0.1402
  302SOL    HW1  905   2.539   2.426   0.373  0.0759 -1.6950  1.2642
  302SOL    HW2  906   2.650   2.545   0.410 -0.2062  0.8595 -0.6028
  303SOL     OW  907   2.863   2.568   2.183  0.4168 -0.5100 -0.7698
  303SOL    HW1  908   2.806   2.505   2.124 -0.0675 -1.4342 -3.1787
  303SOL    HW2  909   2.957   2.581   2.139  1.2845 -0.6174 -1.7005
  304SOL     OW  910   2.849   0.675   1.894 -0.1038 -0.5354 -0.1203
  304SOL    HW1  911   2.900   0.765   1.898  0.1778  1.6538 -1.3559
  304SOL    HW2  912   2.872   0.613   1.970 -0.4146 -0.2322  0.2730
  305SOL     OW  913   0.544   1.802   1.607  0.0865 -0.6562  0.5519
  305SOL    HW1  914   0.530   1.839   1.513 -1.5865  0.3675 -1.9133
  305SOL    HW2  915   0.543   1.875   1.676  1.1102 -3.0407 -0.1831
  306SOL     OW  916   3.027   1.072   1.734 -0.3597  0.3702 -0.1288
  306SOL    HW1  917   3.072   1.000   1.788  1.8023  5.1105 -0.9637
  306SOL    HW2  918   3.002   1.036   1.641 -1.6612 -0.1309  1.6773
  307SOL     OW  919   1.205   0.456   1.930  0.7479 -0.3928  0.0508
  307SOL    HW1  920   1.174   0.545   1.969  0.9074  2.3118 -2.6666
  307SOL    HW2  921   1.221   0.465   1.830  1.2916  2.9672  3.0599
  308SOL     OW  922   2.969   0.904   0.978 -0.0321  0.1370  0.1986
  308SOL    HW1  923   3.017   0.904   1.064  1.8830  2.1838 -2.5000
  308SOL    HW2  924   2.882   0.846   0.984  1.0353 -1.3294 -1.0732
  309SOL     OW  925   2.220   1.336   0.896  0.4527 -0.1768  0.5015
  309SOL    HW1  926   2.119   1.344   0.918  0.0170  2.3906  0.3749
  309SOL    HW2  927   2.261   1.430   0.895  1.0651  2.1426 -0.1916
  310SOL     OW  928   2.953   1.910   2.582  0.0097  0.0612 -0.2100
  310SOL    HW1  929   2.978   1.881   2.485 -0.8511  1.8332  0.9357
  310SOL    HW2  930   2.889   1.993   2.577 -1.9536 -0.7068 -0.8486
  311SOL     OW  931   0.006   2.791   2.634  0.2688 -0.2756  0.5019
  311SOL    HW1  932   3.035   2.791   2.665  2.7298  1.4085  0.2740
  311SOL    HW2  933   0.073   2.830   2.702  0.8096 -0.8900 -1.5428
  312SOL     OW  934   2.178   1.895   0.143 -0.1439 -0.1721  0.0091
  312SOL    HW1  935   2.263   1.868   0.100  0.6923  0.4435  2.9016
  312SOL    HW2  936   2.121   1.814   0.174  1.8099  0.4184  1.2891
  313SOL     OW  937   2.621   0.029   0.864  0.2706  0.4277  0.0832
  313SOL    HW1  938   2.695   0.005   0.804 -0.7147  0.2628  1.2013
  313SOL    HW2  939   2.530   0.027   0.820 -3.2692  1.4065 -3.4152
  314SOL     OW  940   1.510   0.955   0.381 -0.1515 -0.1781 -0.5804
  314SOL    HW1  941   1.464   1.033   0.336 -2.8993  2.4343  0.0813
  314SOL    HW2  942   1.478   0.949   0.478  1.4798 -0.8494 -1.3168
  315SOL     OW  943   1.386   2.406   1.925  0.6332  0.2962 -0.6626
  315SOL    HW1  944   1.390   2.486   1.990  0.4741 -0.1216  1.2718
  315SOL    HW2  945   1.319   2.338   1.963 -0.4081  0.3289 -1.5554
  316SOL     OW  946   0.170   0.709   0.337 -0.5447  0.6803 -0.9175
  316SOL    HW1  947   0.193   0.623   0.292  0.3271  0.5041 -0.7286
  316SOL    HW2  948   0.075   0.749   0.308  1.0053  0.4352  1.1550
  317SOL     OW  949   0.443   3.054   0.265  0.1354  0.3157  0.2640
  317SOL    HW1  950   0.383   3.121   0.310  1.8385  2.6099  2.4650
  317SOL    HW2  951   0.403   2.964   0.245  3.1007  1.3449  2.5290
  318SOL     OW  952   2.163   2.537   0.405 -0.0355  0.0797  0.8540
  318SOL    HW1  953   2.153   2.436   0.382 -1.2315  1.5375  0.8339
  318SOL    HW2  954   2.170   2.596   0.322  0.5669  0.0397  0.4874
  319SOL     OW  955   1.088   1.598   2.940 -0.0309 -0.4886  0.0425
  319SOL    HW1  956   0.988   1.617   2.943  1.0602  2.1737  0.7979
  319SOL    HW2  957   1.108   1.511   2.985  0.6420 -1.0206  1.3013
  320SOL     OW  958   0.310   2.331   2.016  0.2592 -0.3141 -0.7341
  320SOL    HW1  959   0.277   2.244   1.975 -0.8217  4.1208 -1.4581
  320SOL    HW2  960   0.260   2.416   1.987 -0.9430  1.7547  4.2389
  321SOL     OW  961   1.703   2.761   2.708  0.2314 -0.2753 -0.8843
  321SOL    HW1  962   1.683   2.672   2.662 -1.0507 -0.4068 -1.2205
  321SOL    HW2  963   1.647   2.836   2.664  0.3050 -1.2256 -2.2550
  322SOL     OW  964   2.881   1.397   2.322 -0.1982  0.2402  0.1053
  322SOL    HW1  965   2.830   1.438   2.398 -1.5285 -1.2591  0.0614
  322SOL    HW2  966   2.852   1.434   2.233  2.7361 -0.6227 -0.4583
  323SOL     OW  967   2.262   1.312   0.597 -0.0485 -0.1863 -0.1491
  323SOL    HW1  968   2.228   1.344   0.689 -0.9304  1.3504  3.0268
  323SOL    HW2  969   2.187   1.259   0.546  0.5454 -2.3612  0.5448
  324SOL     OW  970   2.918   3.086   2.622  0.2790 -0.3991  0.0867
  324SOL    HW1  971   2.946   0.017   2.706  3.0736  1.4765  2.2330
  324SOL    HW2  972   2.920   2.989   2.655  0.7376  1.2510  0.4548
  325SOL     OW  973   1.111   0.545   2.805  0.1246 -0.2345 -0.0948
  325SOL    HW1  974   1.041   0.548   2.882 -0.9744 -2.9203 -1.2691
  325SOL    HW2  975   1.205   0.517   2.832 -1.1421 -1.1589  1.4201
  326SOL     OW  976   2.259   2.745   1.873  0.0347  0.0382  0.4216
  326SOL    HW1  977   2.265   2.775   1.775 -1.9186 -0.9413  1.9971
  326SOL    HW2  978   2.342   2.771   1.930 -0.7653  2.0077 -0.2766
  327SOL     OW  979   2.032   0.190   2.998  0.1510  0.5015  0.0362
  327SOL    HW1  980   2.108   0.233   2.941 -1.6117  2.8615 -0.6189
  327SOL    HW2  981   2.038   0.199   3.101 -0.2601  0.9223 -1.3489
  328SOL     OW  982   0.264   1.229   2.404  0.1414 -0.6942  0.2506
  328SOL    HW1  983   0.217   1.159   2.459  3.1112  1.5210  1.8349
  328SOL    HW2  984   0.214   1.250   2.315 -1.3208  1.7913 -0.5445
  329SOL     OW  985   1.933   3.024   1.962 -0.3513 -0.3585 -0.2276
  329SOL    HW1  986   1.923   2.925   1.949 -1.2092 -0.0539  1.5246
  329SOL    HW2  987   2.025   3.061   1.982  0.6754  0.4603 -1.5379
  330SOL     OW  988   2.919   1.447   1.103  0.1166  0.1114  0.1606
  330SOL    HW1  989   2.850   1.373   1.103  0.1179 -0.4049 -2.5348
  330SOL    HW2  990   2.935   1.478   1.196  0.3107 -0.2291 -0.2815
  331SOL     OW  991   0.537   1.699   2.151 -0.2103  0.1372  0.3663
  331SOL    HW1  992   0.607   1.768   2.172 -0.2132 -0.7743  2.0153
  331SOL    HW2  993   0.582   1.623   2.100 -0.9407  1.4593  2.5660
  332SOL     OW  994   0.195   2.751   1.502  0.0544  0.0587  0.6357
  332SOL    HW1  995   0.225   2.789   1.588 -0.8358 -1.9455 -0.6205
  332SOL    HW2  996   0.102   2.785   1.477 -1.4887 -0.3156 -1.8216
  333SOL     OW  997   2.160   2.651   1.157  0.3693  0.0256  0.4915
  333SOL    HW1  998   2.201   2.618   1.242  0.6700  2.3333 -3.5442
  333SOL    HW2  999   2.178   2.577   1.090 -0.1517  1.3773  2.1685
  334SOL     OW 1000   0.858   1.907   0.850  0.3737  0.2622 -0.0305
  334SOL    HW1 1001   0.849   1.806   0.834  0.2359 -2.4762 -1.1518
  334SOL    HW2 1002   0.926   1.923   0.927 -0.0664  1.6891  2.5712
  335SOL     OW 1003   0.169   2.563   2.905 -0.1889  0.0899 -0.4069
  335SOL    HW1 1004   0.271   2.551   2.901 -0.3206 -1.1391  1.1153
  335SOL    HW2 1005   0.145   2.648   2.859  2.2872  0.5895 -0.0759
  336SOL     OW 1006   0.495   0.005   2.115 -0.2280 -0.1214 -0.8439
  336SOL    HW1 1007   0.421   0.032   2.186 -2.9756  1.5243 -1.8043
  336SOL    HW2 1008   0.513   3.027   2.128  1.6480  0.4819 -1.1014
  337SOL     OW 1009   2.320   2.226   3.010  0.1354 -0.2416 -0.1656
  337SOL    HW1 1010   2.393   2.228   3.080 -0.1554 -0.1405 -1.2836
  337SOL    HW2 1011   2.346   2.163   2.931 -0.1138  0.5289 -2.9823
  338SOL     OW 1012   0.935   1.616   1.051  0.2175  0.0649  0.4505
  338SOL    HW1 1013   0.953   1.613   0.950 -1.0620 -0.8890 -3.1934
  338SOL    HW2 1014   1.012   1.670   1.082 -0.1384 -0.0695 -0.6904
  339SOL     OW 1015   0.150   0.835   1.615 -0.7014 -0.2165  0.2233
  339SOL    HW1 1016   0.111   0.847   1.704  0.4210  3.7659 -2.1433
  339SOL    HW2 1017   0.194   0.923   1.584  0.3693  2.6369 -0.0458
  340SOL     OW 1018   1.451   2.669   0.194  0.5649 -0.3550 -0.1740
  340SOL    HW1 1019   1.362   2.689   0.245 -1.3124  1.0355 -0.6134
  340SOL    HW2 1020   1.484   2.756   0.144  3.2420  2.3771  0.0657
  341SOL     OW 1021   1.982   1.403   1.034 -0.2986  0.5793 -0.1410
  341SOL    HW1 1022   1.996   1.322   1.093  2.1671 -1.3110 -0.2500
  341SOL    HW2 1023   1.884   1.429   1.028 -0.9260  1.3081  0.6715
  342SOL     OW 1024   2.765   2.881   0.259  0.0675 -0.0337  0.2008
  342SOL    HW1 1025   2.729   2.830   0.339  0.6245 -0.4776  0.1674
  342SOL    HW2 1026   2.706   2.873   0.178 -1.7853  2.1254  1.0929
  343SOL     OW 1027   1.377   2.124   1.124  0.0689  0.2741  0.1470
  343SOL    HW1 1028   1.351   2.211   1.072 -3.0705  1.8664 -0.2091
  343SOL    HW2 1029   1.330   2.130   1.216  0.1299  1.0690 -1.3206
  344SOL     OW 1030   2.309   2.288   0.604  0.2052  0.6114  0.1729
  344SOL    HW1 1031   2.211   2.262   0.608  1.3761  0.9923  0.8903
  344SOL    HW2 1032   2.332   2.366   0.543  0.1078  1.2969  0.2199
  345SOL     OW 1033   2.738   2.430   0.058 -0.1793 -0.0682 -0.2556
  345SOL    HW1 1034   2.684   2.340   0.050 -1.5806  1.5068 -0.0397
  345SOL    HW2 1035   2.805   2.439   0.137  2.4247  2.5169  2.9275
  346SOL     OW 1036   2.714   1.538   0.779  0.5747 -0.0852 -0.0263
  346SOL    HW1 1037   2.709   1.557   0.879  1.1821 -0.6573 -1.6476
  346SOL    HW2 1038   2.812   1.518   0.755 -1.6269  0.1282  0.9559
  347SOL     OW 1039   1.997   2.174   1.601 -0.1118  0.2836  0.1710
  347SOL    HW1 1040   1.923   2.159   1.538  0.5825 -0.5511  2.5365
  347SOL    HW2 1041   2.023   2.274   1.610 -2.7691  2.4207  1.2513
  348SOL     OW 1042   0.828   1.664   2.887 -0.1379  0.2583 -0.1764
  348SOL    HW1 1043   0.818   1.748   2.828 -1.0291  0.5585 -2.7509
  348SOL    HW2 1044   0.766   1.584   2.858  0.7288  0.3817 -3.0766
  349SOL     OW 1045   2.360   1.422   1.670 -0.2506  0.0704 -0.4777
  349SOL    HW1 1046   2.280   1.366   1.636 -2.1330  2.1534  1.1775
  349SOL    HW2 1047   2.343   1.525   1.650 -0.2893  2.0368  0.1177
  350SOL     OW 1048   3.067   2.600   0.872 -0.0092  0.0074 -0.4056
  350SOL    HW1 1049   2.967   2.575   0.884 -1.4959 -0.7899  0.1679
  350SOL    HW2 1050   3.118   2.520   0.832  3.1661 -1.1079  1.2971
  351SOL     OW 1051   0.359   0.636   2.049 -0.1267  0.2370  0.0049
  351SOL    HW1 1052   0.372   0.724   2.093 -0.4494  0.5068  0.6395
  351SOL    HW2 1053   0.386   0.555   2.108  0.8526 -0.1092 -1.4592
  352SOL     OW 1054   0.467   1.935   1.377 -0.0273 -0.5128 -0.3559
  352SOL    HW1 1055   0.443   2.018   1.423 -3.0756 -1.5725  1.0050
  352SOL    HW2 1056   0.392   1.895   1.322  1.0783 -0.3773 -0.4481
  353SOL     OW 1057   1.557   1.776   2.557 -0.3259 -0.6331  0.0433
  353SOL    HW1 1058   1.467   1.727   2.539 -2.4363  0.9213 -3.2696
  353SOL    HW2 1059   1.632   1.703   2.561  2.2389 -0.5955  1.1276
  354SOL     OW 1060   1.306   0.615   1.277  0.3220 -0.1192 -0.4338
  354SOL    HW1 1061   1.369   0.626   1.198 -0.8766  2.3683  1.6828
  354SOL    HW2 1062   1.235   0.689   1.276 -2.2333  2.5561  1.6764
  355SOL     OW 1063   2.604   0.927   0.768 -0.3109 -0.2158 -0.5716
  355SOL    HW1 1064   2.674   0.871   0.811 -0.4888  0.6212  4.8774
  355SOL    HW2 1065   2.653   0.980   0.696  1.4622 -0.6221 -1.8954
  356SOL     OW 1066   2.527   1.818   2.510  0.2598  0.1035  0.2122
  356SOL    HW1 1067   2.548   1.915   2.515  0.4029 -0.9764 -2.1049
  356SOL    HW2 1068   2.552   1.762   2.594 -0.3286 -1.6985 -1.4989
  357SOL     OW 1069   0.609   2.549   1.280  0.0360 -0.5138  0.0429
  357SOL    HW1 1070   0.694   2.571   1.222 -0.2393  1.5123  0.3906
  357SOL    HW2 1071   0.520   2.556   1.228  0.1932  0.1713  1.6623
  358SOL     OW 1072   2.356   0.937   1.746 -0.2843 -0.1695 -0.0662
  358SOL    HW1 1073   2.426   0.976   1.682  2.1504 -0.4778 -0.7493
  358SOL    HW2 1074   2.328   0.843   1.725 -2.3892 -0.4071  0.0393
  359SOL     OW 1075   2.300   2.468   2.872 -0.7414 -0.0424  0.7723
  359SOL    HW1 1076   2.298   2.386   2.936  0.8400  0.1770  2.9763
  359SOL    HW2 1077   2.382   2.460   2.812 -1.7625  1.4321  1.7250
  360SOL     OW 1078   1.913   0.678   0.996 -0.3311 -0.0582  0.6983
  360SOL    HW1 1079   2.006   0.716   1.004 -0.7199 -1.7455 -1.9247
  360SOL    HW2 1080   1.867   0.686   1.086  0.5052  0.0018 -1.2879
  361SOL     OW 1081   2.359   0.052   1.098  0.3628  0.1227  0.3795
  361SOL    HW1 1082   2.374   0.144   1.056  0.6298 -1.7880 -0.8631
  361SOL    HW2 1083   2.341   3.109   1.023 -1.2768 -0.9884  2.8976
  362SOL     OW 1084   1.314   1.190   0.610  0.3459  0.2389  0.4188
  362SOL    HW1 1085   1.224   1.186   0.656 -0.0303  2.1946 -1.3078
  362SOL    HW2 1086   1.305   1.259   0.541  1.2333 -0.9595  0.3491
  363SOL     OW 1087   2.603   1.713   2.778  0.0295 -0.3542 -0.3103
  363SOL    HW1 1088   2.655   1.631   2.808 -1.1830  0.6362  1.6224
  363SOL    HW2 1089   2.626   1.790   2.833  1.0562  0.7662 -0.3282
  364SOL     OW 1090   0.954   0.326   1.677  0.2608  0.2030 -0.1286
  364SOL    HW1 1091   1.036   0.385   1.690 -1.5183  1.4116  1.0931
  364SOL    HW2 1092   0.941   0.260   1.752  0.1433  2.0868 -0.2591
  365SOL     OW 1093   0.356   3.111   0.706  0.3587 -0.0041  0.2367
  365SOL    HW1 1094   0.353   3.037   0.633 -1.4398  0.2200  0.3470
  365SOL    HW2 1095   0.280   3.101   0.772  0.8378  0.6965  0.6274
  366SOL     OW 1096   2.884   1.417   2.984 -0.5475  0.3018 -0.7035
  366SOL    HW1 1097   2.920   1.450   3.076  2.7103 -0.3772 -0.2099
  366SOL    HW2 1098   2.915   1.323   2.970 -1.7573  0.8915  2.3215
  367SOL     OW 1099   2.876   2.533   2.768  0.0204  0.2127  0.4710
  367SOL    HW1 1100   2.857   2.616   2.711  0.6125 -1.3980  3.8195
  367SOL    HW2 1101   2.883   2.561   2.864  1.6385 -2.7119 -3.9541
  368SOL     OW 1102   3.080   2.029   0.747 -0.7535  0.2200  0.2900
  368SOL    HW1 1103   3.028   2.086   0.683  1.8224  0.8330  0.3946
  368SOL    HW2 1104   0.044   2.075   0.760 -0.0779  0.6122  1.9511
  369SOL     OW 1105   0.637   0.095   0.165  0.0103  0.3364  0.4959
  369SOL    HW1 1106   0.554   0.036   0.181 -3.3306 -1.5586  2.5345
  369SOL    HW2 1107   0.662   0.137   0.254  0.9837 -1.8636  1.2172
  370SOL     OW 1108   0.315   1.115   0.843  0.2214 -0.1072  0.4141
  370SOL    HW1 1109   0.293   1.215   0.814 -1.7281 -1.9704 -2.3109
  370SOL    HW2 1110   0.413   1.093   0.859  2.7505  2.0250  2.2511
  371SOL     OW 1111   2.190   2.644   0.648  0.6176  0.2701 -0.7489
  371SOL    HW1 1112   2.195   2.600   0.556  2.1462 -0.7277 -0.1323
  371SOL    HW2 1113   2.127   2.585   0.705  0.1158  0.5437 -0.1200
  372SOL     OW 1114   0.153   1.080   2.603 -0.3611  0.2900 -0.2963
  372SOL    HW1 1115   0.053   1.068   2.591  1.0722 -1.1977 -1.9079
  372SOL    HW2 1116   0.183   1.155   2.668 -0.8615  1.5626  1.1820
  373SOL     OW 1117   2.732   1.667   0.538  0.6383 -0.3117  0.0542
  373SOL    HW1 1118   2.717   1.614   0.623 -0.5670 -1.4480 -2.1660
  373SOL    HW2 1119   2.819   1.724   0.543  0.1331 -2.3045 -1.6589
  374SOL     OW 1120   0.416   2.575   0.235 -0.2004  0.2868  0.1194
  374SOL    HW1 1121   0.356   2.496   0.256 -2.2861  1.8950 -1.5262
  374SOL    HW2 1122   0.509   2.557   0.274 -2.9216 -1.7028  0.0392
  375SOL     OW 1123   0.498   0.484   0.297  0.2443 -0.8969  0.6970
  375SOL    HW1 1124   0.522   0.398   0.335  1.2473  0.4710  1.3910
  375SOL    HW2 1125   0.556   0.563   0.331  0.8756  0.9420  1.7563
  376SOL     OW 1126   0.277   2.922   1.692  0.9698  0.7912  0.1429
  376SOL    HW1 1127   0.375   2.901   1.701 -1.5290 -0.7561 -0.0867
  376SOL    HW2 1128   0.252   3.006   1.642 -0.8921  0.9173 -1.6471
  377SOL     OW 1129   0.959   2.123   2.602 -0.0192  0.0083  0.5459
  377SOL    HW1 1130   0.964   2.089   2.507 -1.6162  0.6914 -1.2087
  377SOL    HW2 1131   0.946   2.224   2.605 -2.7452 -3.8923 -0.0025
  378SOL     OW 1132   1.208   0.699   0.677  0.5588 -0.2820  0.8793
  378SOL    HW1 1133   1.183   0.643   0.593  0.5520 -1.0494 -1.8918
  378SOL    HW2 1134   1.264   0.779   0.657 -0.2581 -0.9156 -0.3771
  379SOL     OW 1135   0.763   1.703   0.028 -0.2962 -0.1875 -0.4945
  379SOL    HW1 1136   0.754   1.603   0.041 -0.5898 -2.2337 -1.2707
  379SOL    HW2 1137   0.790   1.715   3.053  1.0236 -1.6880 -0.8477
  380SOL     OW 1138   3.022   2.106   1.857  0.5501  0.1520 -0.5961
  380SOL    HW1 1139   3.065   2.105   1.763 -0.6851 -1.1448 -0.6680
  380SOL    HW2 1140   3.066   2.024   1.906  1.7755  1.4032 -1.8244
  381SOL     OW 1141   0.089   1.331   1.661 -0.2379  0.0986 -0.0846
  381SOL    HW1 1142   0.032   1.369   1.583  0.1429 -0.7163  0.7949
  381SOL    HW2 1143   0.046   1.250   1.705 -2.4572 -0.5877 -0.3773
  382SOL     OW 1144   2.756   2.243   0.527 -0.3104  0.1822 -0.3073
  382SOL    HW1 1145   2.688   2.167   0.510 -0.2170  0.7372 -1.3739
  382SOL    HW2 1146   2.730   2.328   0.465 -0.3523  0.4492 -1.1894
  383SOL     OW 1147   2.265   2.004   2.362  0.2896  0.4239 -0.2363
  383SOL    HW1 1148   2.265   1.906   2.344  1.7924  3.0970  0.3777
  383SOL    HW2 1149   2.353   2.023   2.413  1.9299  0.7831  0.3402
  384SOL     OW 1150   0.735   1.824   2.256 -0.3007  0.2890  0.3544
  384SOL    HW1 1151   0.835   1.792   2.266  1.7351 -0.5833 -0.5207
  384SOL    HW2 1152   0.702   1.858   2.345  0.0689  1.0871 -1.8237
  385SOL     OW 1153   2.969   2.282   0.965  0.0414  0.4985  0.6222
  385SOL    HW1 1154   3.061   2.313   0.927 -0.8232  1.5450  1.4892
  385SOL    HW2 1155   2.978   2.205   1.030 -1.0879 -0.9525  0.5811
  386SOL     OW 1156   1.853   0.641   0.194  0.0348 -0.0171  0.1750
  386SOL    HW1 1157   1.775   0.712   0.202  0.8865 -0.0675 -0.6078
  386SOL    HW2 1158   1.904   0.627   0.284 -1.9707 -1.1476  1.8673
  387SOL     OW 1159   0.349   1.061   1.569  0.4940 -0.2400 -0.3743
  387SOL    HW1 1160   0.417   0.993   1.539 -1.4865  1.3925 -2.8932
  387SOL    HW2 1161   0.357   1.070   1.671 -1.0280  0.4376  0.8708
  388SOL     OW 1162   2.861   0.915   2.085 -0.1062 -0.0590  0.1235
  388SOL    HW1 1163   2.877   0.982   2.164 -2.2495  0.2726  2.2766
  388SOL    HW2 1164   2.822   0.828   2.128  4.0978 -1.3349  0.8413
  389SOL     OW 1165   1.734   0.781   2.426 -0.5262 -0.8935  0.1048
  389SOL    HW1 1166   1.671   0.786   2.348 -1.1098 -0.9439  0.4492
  389SOL    HW2 1167   1.787   0.697   2.403  0.2203 -0.9996  2.0795
  390SOL     OW 1168   1.996   2.507   3.064 -0.2500 -0.3477  0.1601
  390SOL    HW1 1169   1.916   2.541   3.123 -0.5583 -0.2191 -0.8146
  390SOL    HW2 1170   1.969   2.443   2.989  0.1630  1.9335  0.6099
  391SOL     OW 1171   1.817   2.185   1.171  0.1345  0.1055  0.2321
  391SOL    HW1 1172   1.910   2.229   1.166 -0.0140 -0.7711  0.9556
  391SOL    HW2 1173   1.783   2.185   1.271 -0.5150 -0.0658  0.7231
  392SOL     OW 1174   3.000   2.564   1.382 -0.1542 -0.5521 -0.2853
  392SOL    HW1 1175   3.032   2.639   1.327  1.2551 -1.9228  0.2012
  392SOL    HW2 1176   2.968   2.491   1.326 -2.0714  0.9078 -0.3262
  393SOL     OW 1177   2.115   1.707   2.960 -0.0938 -0.3648  0.2720
  393SOL    HW1 1178   2.078   1.799   2.929  1.8702 -1.7929 -0.7304
  393SOL    HW2 1179   2.217   1.716   2.961 -0.8284  2.1517  0.8228
  394SOL     OW 1180   0.361   0.058   3.061 -0.0024 -0.1759 -0.0151
  394SOL    HW1 1181   0.402   3.090   3.087  1.6161 -1.8873  0.7524
  394SOL    HW2 1182   0.431   0.115   3.012  0.6846 -0.5430 -0.4410
  395SOL     OW 1183   1.553   1.140   1.434  0.6200  0.6727 -0.0516
  395SOL    HW1 1184   1.534   1.198   1.353 -1.2189  1.0251  1.2626
  395SOL    HW2 1185   1.590   1.047   1.405  1.3737 -0.5642 -0.4604
  396SOL     OW 1186   1.654   0.842   0.206  0.0627 -0.0446  0.3040
  396SOL    HW1 1187   1.714   0.920   0.169  3.7768  3.0686 -0.7670
  396SOL    HW2 1188   1.596   0.877   0.285  0.2152  2.1321 -0.8762
  397SOL     OW 1189   3.023   0.828   2.882 -0.3992  0.1823  0.3955
  397SOL    HW1 1190   2.999   0.764   2.805  0.9844  1.2327 -1.7495
  397SOL    HW2 1191   3.114   0.873   2.874  0.2725  0.4473  0.9833
  398SOL     OW 1192   1.315   0.318   3.097  0.1473  0.1540  0.2297
  398SOL    HW1 1193   1.385   0.273   0.032  0.5286  1.0304  1.8429
  398SOL    HW2 1194   1.262   0.242   3.056 -1.5850  0.1893 -0.5949
  399SOL     OW 1195   2.421   2.798   2.090 -0.1289  0.5018 -0.4204
  399SOL    HW1 1196   2.523   2.793   2.087 -1.7174  2.0719  1.3990
  399SOL    HW2 1197   2.375   2.731   2.155  1.1371 -0.0500  1.7461
  400SOL     OW 1198   0.006   1.536   2.385 -0.5117  0.4941 -0.4284
  400SOL    HW1 1199   0.086   1.520   2.329  1.1974 -2.2382  1.3437
  400SOL    HW2 1200   3.049   1.481   2.361  0.6077 -0.4943 -0.8950
  401SOL     OW 1201   0.513   0.349   2.515 -0.1557 -0.1117  0.0913
  401SOL    HW1 1202   0.441   0.356   2.590 -1.3722  0.3141  2.4793
  401SOL    HW2 1203   0.567   0.268   2.537 -2.7413  2.5003 -1.8510
  402SOL     OW 1204   0.493   2.315   1.722  0.3425  0.4177  0.0858
  402SOL    HW1 1205   0.561   2.268   1.662 -0.2202 -2.1758  0.2582
  402SOL    HW2 1206   0.535   2.370   1.796  2.2231  0.7484  0.1440
  403SOL     OW 1207   0.852   1.459   1.432 -0.0797  0.1985  0.4250
  403SOL    HW1 1208   0.789   1.450   1.512 -0.6247  2.1871 -1.8581
  403SOL    HW2 1209   0.869   1.558   1.404  1.2179 -0.7072  0.3894
  404SOL     OW 1210   2.905   2.690   1.610  0.2889  0.5310  0.1944
  404SOL    HW1 1211   2.805   2.666   1.617 -2.9791 -1.8270  1.4122
  404SOL    HW2 1212   2.947   2.637   1.537 -1.8374  2.5196  2.4377
  405SOL     OW 1213   2.922   0.241   2.063  0.7383  0.0898  0.9295
  405SOL    HW1 1214   2.845   0.177   2.043 -1.1917  0.2721 -0.4182
  405SOL    HW2 1215   3.011   0.189   2.068  0.8711 -3.4079  0.3451
  406SOL     OW 1216   1.392   2.516   2.802 -0.2766 -0.4933 -0.2568
  406SOL    HW1 1217   1.376   2.414   2.801  0.2736  2.0845  1.5237
  406SOL    HW2 1218   1.445   2.547   2.720 -0.7070  2.9339 -0.5806
  407SOL     OW 1219   1.756   1.524   1.336 -0.1021 -0.0401  0.1513
  407SOL    HW1 1220   1.697   1.502   1.417  0.6526 -2.1966  0.4693
  407SOL    HW2 1221   1.811   1.607   1.361  1.2026 -0.4017  4.1493
  408SOL     OW 1222   0.638   0.230   2.195 -0.8099 -0.0774  0.1100
  408SOL    HW1 1223   0.588   0.149   2.159  2.6504  0.6148 -0.4986
  408SOL    HW2 1224   0.717   0.199   2.256 -0.5083 -1.3278  0.6026
  409SOL     OW 1225   2.805   2.479   0.878 -0.1768  0.1197 -0.2693
  409SOL    HW1 1226   2.711   2.482   0.919 -3.8099 -0.3124  2.2771
  409SOL    HW2 1227   2.859   2.398   0.905 -0.1158  2.8656  0.5585
  410SOL     OW 1228   2.068   1.674   0.505  0.1621  0.0507 -0.1469
  410SOL    HW1 1229   2.150   1.615   0.490 -3.2727 -2.4131 -1.9007
  410SOL    HW2 1230   2.091   1.767   0.534 -1.0988 -1.2027 -0.2968
  411SOL     OW 1231   0.111   0.619   0.704  0.0355  0.4308  0.3160
  411SOL    HW1 1232   0.192   0.577   0.656 -1.1697  1.7710  0.6951
  411SOL    HW2 1233   0.111   0.721   0.694 -1.1550  1.5042  1.8225
  412SOL     OW 1234   1.966   0.655   0.499 -0.3896 -0.0380  0.2319
  412SOL    HW1 1235   1.938   0.707   0.582  3.3836 -0.2555 -0.8206
  412SOL    HW2 1236   2.024   0.719   0.437  3.0745 -1.4026 -2.1450
  413SOL     OW 1237   1.013   0.487   1.106 -0.1800 -0.1042  0.2799
  413SOL    HW1 1238   0.930   0.434   1.136  2.8673 -0.9413  0.9271
  413SOL    HW2 1239   1.101   0.443   1.134  1.2984  2.3844  0.9302
  414SOL     OW 1240   0.348   1.579   0.072  0.0391  0.1545  0.3651
  414SOL    HW1 1241   0.253   1.589   0.039 -0.2066  2.6651  1.6818
  414SOL    HW2 1242   0.350   1.592   0.170  0.4949 -2.9467  0.1601
  415SOL     OW 1243   0.284   2.257   0.032 -0.2536  0.1524  0.0330
  415SOL    HW1 1244   0.362   2.231   3.103 -2.5320  0.5451 -0.2211
  415SOL    HW2 1245   0.201   2.243   3.099 -1.2872  0.5651  1.2043
  416SOL     OW 1246   1.580   0.795   0.696 -0.0543 -0.2097  0.0632
  416SOL    HW1 1247   1.641   0.763   0.617  1.1386  1.8855  0.8922
  416SOL    HW2 1248   1.630   0.835   0.775  0.8446  1.8352 -0.5309
  417SOL     OW 1249   0.292   0.832   0.534  0.3021  0.0523 -0.4190
  417SOL    HW1 1250   0.258   0.766   0.465 -0.6289 -0.9349  2.4318
  417SOL    HW2 1251   0.216   0.854   0.596 -0.8154 -0.3692  1.8770
  418SOL     OW 1252   2.646   1.162   2.774  0.5464  0.5649 -0.0109
  418SOL    HW1 1253   2.605   1.256   2.776 -1.4730 -0.1810  1.0761
  418SOL    HW2 1254   2.585   1.087   2.808 -0.2348  0.9487  0.8785
  419SOL     OW 1255   0.304   0.542   0.106 -0.6787  0.3020  0.0244
  419SOL    HW1 1256   0.380   0.532   0.175  1.2404  1.8274  3.3488
  419SOL    HW2 1257   0.224   0.488   0.127  0.0743  4.1660  0.6341
  420SOL     OW 1258   0.239   1.383   0.776 -0.1554  0.1598 -0.8372
  420SOL    HW1 1259   0.157   1.427   0.817  0.9890  0.1573 -0.0048
  420SOL    HW2 1260   0.325   1.435   0.792 -0.7874 -1.8375 -2.2481
  421SOL     OW 1261   0.521   1.983   0.318  0.1893  0.2711 -0.7876
  421SOL    HW1 1262   0.429   2.006   0.289  2.3657 -2.6033 -0.5695
  421SOL    HW2 1263   0.549   2.033   0.401  1.2763 -2.0322  1.0150
  422SOL     OW 1264   2.783   0.784   1.259 -0.0776  0.0683 -0.6774
  422SOL    HW1 1265   2.800   0.693   1.298 -0.2433  1.8016 -1.2742
  422SOL    HW2 1266   2.804   0.784   1.158  0.5421 -0.6668  0.7467
  423SOL     OW 1267   1.714   1.468   1.060  0.1959  0.0956 -0.0875
  423SOL    HW1 1268   1.727   1.492   1.158 -0.8313  1.2416  0.1197
  423SOL    HW2 1269   1.617   1.467   1.031  2.3035 -2.7241 -1.8380
  424SOL     OW 1270   2.063   1.183   0.463 -0.1931  0.1879  0.0315
  424SOL    HW1 1271   2.108   1.144   0.381  2.1247  0.8071  1.2304
  424SOL    HW2 1272   1.992   1.248   0.433 -0.2090  0.0002 -0.2026
  425SOL     OW 1273   0.138   2.963   2.184 -0.3511 -1.1364 -0.5335
  425SOL    HW1 1274   0.189   3.040   2.221  0.6389  1.2148 -0.5617
  425SOL    HW2 1275   0.058   2.931   2.245 -3.1284 -2.2769  0.1108
  426SOL     OW 1276   2.569   2.685   2.843  0.1137 -0.0670 -0.7677
  426SOL    HW1 1277   2.550   2.657   2.939 -0.6052  3.3511 -0.2554
  426SOL    HW2 1278   2.603   2.782   2.837  0.5070 -0.6484  1.7681
  427SOL     OW 1279   0.971   0.967   2.469 -0.7419  0.4196 -0.2728
  427SOL    HW1 1280   0.885   0.912   2.452 -3.5130  0.1181  0.3354
  427SOL    HW2 1281   1.045   0.901   2.503  1.0925 -1.0858  1.8958
  428SOL     OW 1282   2.209   0.743   2.502  0.4456  0.2865 -0.0307
  428SOL    HW1 1283   2.288   0.758   2.562 -0.6783 -0.4751 -1.5645
  428SOL    HW2 1284   2.128   0.794   2.540  1.0131  0.2026 -0.1020
  429SOL     OW 1285   2.535   0.354   0.613  0.0217  0.1040  0.2675
  429SOL    HW1 1286   2.485   0.275   0.576  2.7518 -1.1123 -0.3524
  429SOL    HW2 1287   2.474   0.411   0.672 -1.8481  1.3964  2.0960
  430SOL     OW 1288   2.183   1.312   2.111 -0.2718  0.0715 -0.0679
  430SOL    HW1 1289   2.143   1.261   2.189  1.9843  0.6481 -0.2365
  430SOL    HW2 1290   2.171   1.256   2.027 -0.4619  0.1991  3.3847
  431SOL     OW 1291   2.965   2.058   1.418 -0.4346 -0.2682 -0.1536
  431SOL    HW1 1292   2.963   2.148   1.467  1.1395 -3.5091  2.6198
  431SOL    HW2 1293   2.994   1.976   1.475  0.7429  0.7042 -0.1477
  432SOL     OW 1294   1.558   2.951   2.589 -0.1161 -0.1014 -0.5031
  432SOL    HW1 1295   1.555   3.030   2.650 -0.9005  0.4190 -0.1884
  432SOL    HW2 1296   1.547   2.980   2.490 -1.2705  2.8745  0.1107
  433SOL     OW 1297   1.659   2.809   1.847  0.1548 -0.3177 -0.0277
  433SOL    HW1 1298   1.650   2.745   1.771  0.7539  0.8439  1.7484
  433SOL    HW2 1299   1.685   2.905   1.820  0.0177  0.9556 -1.0758
  434SOL     OW 1300   0.277   2.333   2.281  0.0897  0.2091  0.1208
  434SOL    HW1 1301   0.260   2.429   2.317 -0.6341  2.8802 -0.8779
  434SOL    HW2 1302   0.308   2.346   2.185  0.2128  0.6863  0.7514
  435SOL     OW 1303   3.031   2.042   0.127  0.2994  0.4159 -0.5618
  435SOL    HW1 1304   3.119   2.005   0.095  0.1537 -1.2499 -0.3600
  435SOL    HW2 1305   2.976   1.969   0.178  0.5390  0.9683 -0.4817
  436SOL     OW 1306   0.949   1.044   1.812  0.5175  0.4055 -0.0106
  436SOL    HW1 1307   1.013   1.021   1.739 -1.7871 -0.9378  0.8548
  436SOL    HW2 1308   0.994   1.092   1.892 -0.5889  0.1845  0.0542
  437SOL     OW 1309   0.335   0.279   2.754 -0.0416  0.0872 -0.0966
  437SOL    HW1 1310   0.409   0.279   2.825 -0.6123  0.7442  0.8187
  437SOL    HW2 1311   0.301   0.190   2.725  2.2754  1.6979 -0.2541
  438SOL     OW 1312   0.523   1.531   1.633 -0.6755  0.4162  0.1787
  438SOL    HW1 1313   0.550   1.632   1.617 -0.8780 -0.4587  1.5101
  438SOL    HW2 1314   0.600   1.471   1.662 -0.6568  0.7479 -2.1382
  439SOL     OW 1315   1.879   1.027   2.991 -0.4340 -0.1716  0.0621
  439SOL    HW1 1316   1.829   1.048   3.079 -0.0070  3.2983 -0.2315
  439SOL    HW2 1317   1.980   1.047   3.005  2.3005 -0.2999  2.3876
  440SOL     OW 1318   0.853   1.076   0.245  0.3928  0.1333  0.6722
  440SOL    HW1 1319   0.899   1.054   0.335 -0.6342  0.7314  0.6645
  440SOL    HW2 1320   0.769   1.014   0.241  1.0618  1.6629  0.0340
  441SOL     OW 1321   0.700   2.547   1.540 -0.1510  0.0964 -0.3039
  441SOL    HW1 1322   0.668   2.514   1.448 -0.8853 -3.6512 -0.7490
  441SOL    HW2 1323   0.690   2.647   1.549  0.6280  0.9137 -1.6433
  442SOL     OW 1324   2.503   2.114   0.536  0.0718 -0.3781 -0.0495
  442SOL    HW1 1325   2.448   2.195   0.568 -0.4477  2.2147  0.4014
  442SOL    HW2 1326   2.518   2.041   0.604 -1.4480 -1.2384  1.4132
  443SOL     OW 1327   2.804   1.551   2.543 -0.5606 -0.5545  0.1966
  443SOL    HW1 1328   2.799   1.633   2.492 -2.2386 -1.6334  0.2947
  443SOL    HW2 1329   2.856   1.574   2.630 -1.2770  0.7998 -1.4460
  444SOL     OW 1330   1.252   1.038   0.240  0.1576 -0.2951 -0.2927
  444SOL    HW1 1331   1.179   1.029   0.164 -2.8203  1.4413 -3.3408
  444SOL    HW2 1332   1.218   0.984   0.323  1.2520 -1.8322  2.9608
  445SOL     OW 1333   2.328   2.490   1.808  0.4292 -0.1882 -0.0810
  445SOL    HW1 1334   2.434   2.488   1.816  5.5633  1.3858 -1.8400
  445SOL    HW2 1335   2.290   2.574   1.855 -0.1404  1.2231 -0.8185
  446SOL     OW 1336   2.957   1.800   0.522 -0.0263 -0.4548 -0.0245
  446SOL    HW1 1337   3.019   1.723   0.500 -1.8973  0.7335  3.1114
  446SOL    HW2 1338   3.011   1.884   0.549  0.1283  2.0425  0.6695
  447SOL     OW 1339   0.929   2.196   1.341  0.0762  0.6224  0.1032
  447SOL    HW1 1340   0.948   2.223   1.437 -3.0330  0.5705 -0.1452
  447SOL    HW2 1341   0.831   2.192   1.318 -1.7651  1.3847  0.0746
  448SOL     OW 1342   1.438   1.657   1.867 -0.3904  0.1223 -0.1224
  448SOL    HW1 1343   1.443   1.609   1.955  1.7140 -3.5261 -0.5344
  448SOL    HW2 1344   1.378   1.739   1.861  4.2421 -1.8770 -2.4495
  449SOL     OW 1345   0.131   1.924   2.256 -0.6585 -0.2718 -0.2768
  449SOL    HW1 1346   0.090   2.014   2.254 -2.5808  0.6384  0.9449
  449SOL    HW2 1347   0.205   1.905   2.185  1.2435  0.0242 -0.5714
  450SOL     OW 1348   2.877   2.050   2.308 -0.0664  1.2374 -0.0924
  450SOL    HW1 1349   2.908   2.143   2.297  0.6995 -1.9369  1.6557
  450SOL    HW2 1350   2.953   1.979   2.310  1.2858  0.1045 -0.5608
  451SOL     OW 1351   2.140   0.674   1.680 -0.0351  0.3115 -0.1266
  451SOL    HW1 1352   2.199   0.658   1.598 -0.1064 -1.4627  0.8472
  451SOL    HW2 1353   2.123   0.583   1.722 -1.5640  0.7022  1.4636
  452SOL     OW 1354   0.948   1.598   0.761  0.5393 -0.4008 -0.0618
  452SOL    HW1 1355   0.865   1.534   0.751  0.7653  1.3019  1.3878
  452SOL    HW2 1356   0.975   1.626   0.669  1.3565  0.2976  3.7872
  453SOL     OW 1357   1.306   2.345   0.942 -0.8657 -0.0308 -0.3086
  453SOL    HW1 1358   1.339   2.439   0.912  1.8692  2.3076  0.4294
  453SOL    HW2 1359   1.235   2.304   0.886  1.9660 -1.2865  0.3207
  454SOL     OW 1360   0.055   1.405   0.279  0.7236  0.4271 -0.3804
  454SOL    HW1 1361   3.118   1.343   0.344 -0.0696 -2.1729  1.7593
  454SOL    HW2 1362   0.101   1.350   0.211 -1.1969  3.3341  2.8070
  455SOL     OW 1363   0.991   0.995   0.471 -0.0535 -0.1862  0.2522
  455SOL    HW1 1364   1.039   0.914   0.437 -2.9788  3.4317  0.6851
  455SOL    HW2 1365   1.046   1.039   0.543 -0.1469 -0.2716  0.6311
  456SOL     OW 1366   2.175   2.430   1.011 -0.3739 -0.3788 -0.2572
  456SOL    HW1 1367   2.110   2.479   0.944 -0.8274 -0.5115  0.3379
  456SOL    HW2 1368   2.239   2.367   0.955 -1.5078 -2.1668 -0.9872
  457SOL     OW 1369   1.421   3.003   2.872 -0.4285  0.1062 -0.1972
  457SOL    HW1 1370   1.522   2.988   2.888  2.1647  0.8439  0.3866
  457SOL    HW2 1371   1.370   3.003   2.960 -0.7285 -0.2488 -0.2557
  458SOL     OW 1372   2.578   0.359   0.210  0.8604  0.1067  0.2589
  458SOL    HW1 1373   2.500   0.403   0.265  0.7124  1.3413 -3.6549
  458SOL    HW2 1374   2.602   0.277   0.265  3.2668  2.9752 -2.5279
  459SOL     OW 1375   2.321   0.322   2.160  0.1287  0.0957  0.2162
  459SOL    HW1 1376   2.264   0.403   2.191 -0.5888 -1.0742 -0.9444
  459SOL    HW2 1377   2.419   0.354   2.151  2.2424 -1.6877 -1.4011
  460SOL     OW 1378   2.714   0.486   2.879  0.2546  0.2421 -0.8476
  460SOL    HW1 1379   2.784   0.444   2.940 -1.4931 -1.0992 -1.3891
  460SOL    HW2 1380   2.749   0.512   2.785 -0.8898  0.2433 -4.2139
  461SOL     OW 1381   0.058   2.368   0.792 -0.2585  0.1536  0.3158
  461SOL    HW1 1382   0.153   2.378   0.760  0.5074  0.8199  1.3808
  461SOL    HW2 1383   3.118   2.329   0.717 -1.3452  1.6729  2.0059
  462SOL     OW 1384   2.938   0.177   1.179 -0.0557  0.1590 -0.4235
  462SOL    HW1 1385   2.853   0.120   1.191  0.2957  1.2930  1.0051
  462SOL    HW2 1386   2.925   0.275   1.205  0.1403 -1.2624 -1.0062
  463SOL     OW 1387   2.144   1.361   3.103 -0.5976  0.0276 -0.0292
  463SOL    HW1 1388   2.221   1.408   3.049  0.5840 -0.2916 -1.7223
  463SOL    HW2 1389   2.116   1.273   3.058  1.1348 -0.2534  2.2694
  464SOL     OW 1390   0.836   2.600   1.146  0.9214  0.3895  0.6462
  464SOL    HW1 1391   0.877   2.507   1.144 -0.4055 -0.1596 -1.7797
  464SOL    HW2 1392   0.909   2.667   1.176  0.5912  0.9012  0.6205
  465SOL     OW 1393   1.004   0.264   1.416  0.2238  0.0591  0.4367
  465SOL    HW1 1394   1.006   0.311   1.505  0.3746  1.9820  0.2005
  465SOL    HW2 1395   0.924   0.289   1.358 -0.5746 -0.5594 -0.6593
  466SOL     OW 1396   1.652   2.353   1.878 -0.1485  0.0902  0.9871
  466SOL    HW1 1397   1.667   2.350   1.980  1.2830 -0.2926 -0.4252
  466SOL    HW2 1398   1.554   2.358   1.855  1.1997 -1.9223  1.7224
  467SOL     OW 1399   0.659   2.287   1.291  0.2050  0.0139 -0.3370
  467SOL    HW1 1400   0.625   2.378   1.272  0.5578 -1.5737  0.0397
  467SOL    HW2 1401   0.643   2.220   1.213 -3.5483 -0.9535 -2.8019
  468SOL     OW 1402   2.706   1.663   2.041 -0.0163  0.2600 -0.4113
  468SOL    HW1 1403   2.715   1.668   2.145  2.1309 -1.5052  3.4937
  468SOL    HW2 1404   2.716   1.565   2.005 -0.2645 -1.3640 -0.8628
  469SOL     OW 1405   0.868   2.036   0.588  0.1948  0.0469  0.0966
  469SOL    HW1 1406   0.779   2.051   0.540 -1.3637  1.5417 -0.4548
  469SOL    HW2 1407   0.850   1.985   0.673 -2.4338  0.4603  2.0582
  470SOL     OW 1408   2.046   1.141   2.279 -0.2213 -0.1120  0.2457
  470SOL    HW1 1409   2.074   1.045   2.271 -0.6736  0.2115  0.8501
  470SOL    HW2 1410   2.059   1.182   2.371  0.2988 -2.1654 -1.7734
  471SOL     OW 1411   0.554   2.605   3.098  0.0942 -0.3484  0.8373
  471SOL    HW1 1412   0.491   2.630   0.052  1.8248 -0.2398  1.6059
  471SOL    HW2 1413   0.615   2.530   0.003  0.1129  2.2390 -0.7656
  472SOL     OW 1414   0.301   2.773   2.084  0.3334  0.3530  0.3841
  472SOL    HW1 1415   0.243   2.851   2.115  1.5684 -1.2609  3.1700
  472SOL    HW2 1416   0.396   2.803   2.068 -2.4055 -1.2152  0.8773
  473SOL     OW 1417   0.482   2.909   3.088  0.1120 -0.4620 -0.0553
  473SOL    HW1 1418   0.448   2.826   0.013 -1.8153 -4.3711 -0.3857
  473SOL    HW2 1419   0.560   2.936   0.022 -0.5968 -3.9345  3.6215
  474SOL     OW 1420   2.012   3.039   1.146 -0.4323 -0.5150 -0.0262
  474SOL    HW1 1421   2.002   0.006   1.093 -0.5410  2.7560 -2.3796
  474SOL    HW2 1422   2.095   2.986   1.107  1.5874 -0.2096 -4.3098
  475SOL     OW 1423   1.707   3.106   1.823  0.1531 -0.5871 -0.1224
  475SOL    HW1 1424   1.798   3.076   1.858  0.7714 -2.6722  2.9864
  475SOL    HW2 1425   1.705   0.016   1.727  0.7453 -0.1794 -3.0119
  476SOL     OW 1426   0.745   1.429   0.823  0.6200 -0.4888 -0.3404
  476SOL    HW1 1427   0.656   1.481   0.807 -1.2482 -2.6999 -0.2272
  476SOL    HW2 1428   0.736   1.383   0.915 -1.3276  0.9396 -0.4898
  477SOL     OW 1429   0.316   1.895   0.648 -0.0433 -1.0396 -0.1313
  477SOL    HW1 1430   0.414   1.867   0.637  1.0539 -1.0148 -0.9143
  477SOL    HW2 1431   0.264   1.868   0.568  2.3684 -0.9553 -0.3266
  478SOL     OW 1432   0.104   2.570   2.474  0.0274  0.1009 -0.5485
  478SOL    HW1 1433   0.097   2.651   2.539  1.5242 -0.9211  0.6728
  478SOL    HW2 1434   0.042   2.500   2.512 -0.7614  1.5933  1.5668
  479SOL     OW 1435   2.999   0.420   1.518 -0.6309 -0.0853  0.2664
  479SOL    HW1 1436   3.092   0.401   1.482 -0.7339 -1.5061 -2.4886
  479SOL    HW2 1437   2.975   0.364   1.602 -0.6134  1.4306  0.1873
  480SOL     OW 1438   2.906   2.607   3.052 -0.5812  0.1526 -0.2118
  480SOL    HW1 1439   2.999   2.584   3.086 -0.6546  1.5209  0.3098
  480SOL    HW2 1440   2.835   2.560   3.108 -1.9335 -0.2279 -0.1062
  481SOL     OW 1441   2.390   1.914   1.901  0.9406 -0.3185  0.2441
  481SOL    HW1 1442   2.318   1.936   1.970  1.9859 -1.2652  3.6036
  481SOL    HW2 1443   2.404   1.987   1.834  0.6310  2.0052 -3.1906
  482SOL     OW 1444   1.831   2.178   2.494  0.6550 -0.0808  0.1084
  482SOL    HW1 1445   1.927   2.186   2.469 -1.5299 -3.1965 -2.1384
  482SOL    HW2 1446   1.801   2.080   2.470 -1.7609 -0.7008  0.4085
  483SOL     OW 1447   0.926   1.494   2.194  0.0294  0.2660  0.6652
  483SOL    HW1 1448   0.878   1.439   2.260 -1.0569  0.0882  0.2389
  483SOL    HW2 1449   1.017   1.455   2.168 -0.9714 -3.8232  1.1511
  484SOL     OW 1450   0.119   0.459   1.425  0.1677 -0.0611 -0.3048
  484SOL    HW1 1451   0.104   0.529   1.353 -2.0841 -3.0542 -3.2272
  484SOL    HW2 1452   0.182   0.509   1.495  2.1935  1.5262  0.0466
  485SOL     OW 1453   2.426   0.956   0.291 -0.1936  0.2455 -0.2912
  485SOL    HW1 1454   2.493   0.875   0.277  3.8203 -0.6573 -0.1748
  485SOL    HW2 1455   2.452   1.005   0.375  1.1753 -0.3243  0.2621
  486SOL     OW 1456   1.450   0.173   2.226 -0.4538  0.1911  0.1879
  486SOL    HW1 1457   1.465   0.099   2.161  3.1709  0.1473  2.0040
  486SOL    HW2 1458   1.543   0.213   2.250  2.4267 -1.6743 -0.7376
  487SOL     OW 1459   0.726   1.984   1.378  0.6369  0.0557 -0.1209
  487SOL    HW1 1460   0.623   1.974   1.385 -1.9393  2.4534  0.9454
  487SOL    HW2 1461   0.770   1.966   1.472 -1.0835  0.3452  1.8960
  488SOL     OW 1462   2.338   1.486   2.959 -0.1314 -0.3516 -0.6907
  488SOL    HW1 1463   2.425   1.442   2.920 -0.5415 -0.4887  0.8706
  488SOL    HW2 1464   2.350   1.587   2.978 -0.4889  3.0468 -0.3340
  489SOL     OW 1465   2.420   2.767   0.560 -0.4466 -0.4965 -0.4107
  489SOL    HW1 1466   2.328   2.731   0.582 -0.1689  2.3685 -0.9583
  489SOL    HW2 1467   2.414   2.850   0.499  0.9534  1.4235  2.1063
  490SOL     OW 1468   1.088   2.815   3.035  0.2224  0.2518 -0.5045
  490SOL    HW1 1469   1.132   2.739   2.981 -1.2155 -0.9934 -0.5681
  490SOL    HW2 1470   1.010   2.786   3.086 -0.0939 -1.9415 -1.3658
  491SOL     OW 1471   0.792   1.418   1.171 -0.2411 -0.2985 -0.2464
  491SOL    HW1 1472   0.817   1.411   1.272 -1.5907  1.0813 -0.1621
  491SOL    HW2 1473   0.846   1.494   1.126  0.1764  1.9953 -1.3777
  492SOL     OW 1474   1.345   0.341   2.618  0.1989 -0.8716  0.7328
  492SOL    HW1 1475   1.394   0.255   2.607 -0.1590  2.7674 -1.7753
  492SOL    HW2 1476   1.372   0.387   2.706  1.2236 -0.2657  2.1586
  493SOL     OW 1477   1.854   2.179   0.096  0.3718 -0.0946 -0.2720
  493SOL    HW1 1478   1.780   2.207   0.040  2.8509 -1.9390  3.5529
  493SOL    HW2 1479   1.939   2.154   0.044 -2.9456 -0.1886 -1.4836
  494SOL     OW 1480   0.742   1.434   0.541  0.3420 -0.4398 -0.8539
  494SOL    HW1 1481   0.702   1.524   0.543  1.6050 -2.0487 -0.0476
  494SOL    HW2 1482   0.749   1.399   0.633 -0.7872  0.8926  0.1810
  495SOL     OW 1483   2.846   2.642   0.652  0.1975  0.2516  0.1607
  495SOL    HW1 1484   2.945   2.640   0.621 -1.7579 -0.8894  1.1856
  495SOL    HW2 1485   2.839   2.581   0.732  0.6805  0.0411  4.6640
  496SOL     OW 1486   2.608   2.994   1.670 -0.1450  0.3133  0.1173
  496SOL    HW1 1487   2.548   3.008   1.591 -0.0654 -2.7396  3.6871
  496SOL    HW2 1488   2.618   3.079   1.724  0.6648 -2.5337 -1.0391
  497SOL     OW 1489   2.382   1.121   2.323 -0.0401  0.1017 -0.6584
  497SOL    HW1 1490   2.397   1.163   2.233 -0.9790  3.3954  1.6530
  497SOL    HW2 1491   2.329   1.181   2.388  0.6803  3.6151  1.2846
  498SOL     OW 1492   0.363   2.237   0.992 -0.4508  0.0819  0.0277
  498SOL    HW1 1493   0.322   2.210   0.901 -0.7881  0.9919  1.3830
  498SOL    HW2 1494   0.299   2.205   1.064 -1.7678 -0.9678  2.2923
  499SOL     OW 1495   0.988   2.498   1.600  0.2581  0.3959 -0.0909
  499SOL    HW1 1496   0.893   2.529   1.573 -1.6849  2.6616  0.4555
  499SOL    HW2 1497   1.059   2.540   1.540 -0.0686  2.0280 -1.3024
  500SOL     OW 1498   1.080   2.178   0.247 -0.0772 -0.3453  0.4975
  500SOL    HW1 1499   1.011   2.111   0.273 -0.8107  1.9872 -0.4955
  500SOL    HW2 1500   1.130   2.162   0.157  1.3359  2.6089  1.7126
  501SOL     OW 1501   2.158   2.987   1.392  0.1530 -0.1128  0.3750
  501SOL    HW1 1502   2.114   2.931   1.467  0.1123 -2.2909 -1.0542
  501SOL    HW2 1503   2.112   2.975   1.303  1.1160 -1.8112  0.1258
  502SOL     OW 1504   2.787   0.195   1.649 -0.2275 -0.2803 -0.0347
  502SOL    HW1 1505   2.710   0.159   1.704 -0.9560  0.4027 -1.3670
  502SOL    HW2 1506   2.832   0.269   1.704 -2.0095  0.5206  0.0951
  503SOL     OW 1507   2.777   1.000   1.838 -0.3605 -0.1646  0.0032
  503SOL    HW1 1508   2.858   1.038   1.786  1.4142  0.9469 -0.4684
  503SOL    HW2 1509   2.804   0.982   1.937 -1.1704  2.9994  0.1176
  504SOL     OW 1510   1.479   0.671   1.735 -0.5059 -0.4935 -0.0509
  504SOL    HW1 1511   1.489   0.579   1.783  2.0929  0.4047 -2.3276
  504SOL    HW2 1512   1.395   0.717   1.773 -1.5305  1.5055  1.8780
  505SOL     OW 1513   0.874   0.031   2.150  0.0136  0.3575  0.4010
  505SOL    HW1 1514   0.801   3.082   2.151  0.8147  3.3351  1.9460
  505SOL    HW2 1515   0.896   0.064   2.247 -1.3101  0.0221  0.2626
  506SOL     OW 1516   0.409   0.274   0.793  0.0750 -0.1857 -0.1235
  506SOL    HW1 1517   0.423   0.195   0.735 -0.4144  0.3013  1.5652
  506SOL    HW2 1518   0.375   0.248   0.890 -1.9676  1.4035  2.2929
  507SOL     OW 1519   2.273   0.339   0.105 -0.1814  0.7391  0.2695
  507SOL    HW1 1520   2.310   0.360   0.198  0.4292  0.2482 -0.8749
  507SOL    HW2 1521   2.250   0.422   0.057 -0.0875 -1.2193  1.9146
  508SOL     OW 1522   1.719   0.230   2.284  0.6505  0.1958  0.6981
  508SOL    HW1 1523   1.773   0.315   2.269  0.3578 -0.3295  0.4091
  508SOL    HW2 1524   1.722   0.208   2.381 -1.6200 -1.9604  1.0521
  509SOL     OW 1525   1.332   1.378   1.609  0.0088 -0.1966 -0.1480
  509SOL    HW1 1526   1.288   1.365   1.705 -1.5411 -0.5045  1.0216
  509SOL    HW2 1527   1.257   1.393   1.538 -2.3059 -0.5874 -0.4675
  510SOL     OW 1528   2.751   1.135   0.646  0.2839 -0.0671  0.0462
  510SOL    HW1 1529   2.799   1.142   0.737 -0.0562  1.7768  1.0659
  510SOL    HW2 1530   2.670   1.202   0.635 -1.2593 -0.5611  1.1526
  511SOL     OW 1531   1.820   1.927   1.079 -0.7005  0.7884  0.4098
  511SOL    HW1 1532   1.853   2.019   1.092  0.5709  0.6779  0.0219
  511SOL    HW2 1533   1.880   1.856   1.127 -0.2578 -1.7351 -0.0550
  512SOL     OW 1534   0.028   1.585   0.510 -0.0008 -0.1748 -0.3768
  512SOL    HW1 1535   0.027   1.526   0.425  2.9644  0.1093 -1.3486
  512SOL    HW2 1536   0.100   1.651   0.498  0.2734 -0.7133  1.9128
  513SOL     OW 1537   3.104   2.265   0.304  0.1738 -0.0973  0.1170
  513SOL    HW1 1538   3.075   2.177   0.256 -0.1409  0.3800  1.2584
  513SOL    HW2 1539   3.032   2.339   0.290  0.0277  0.7927 -1.3036
  514SOL     OW 1540   2.482   2.106   2.512 -0.2756  0.4397 -0.3406
  514SOL    HW1 1541   2.506   2.194   2.474 -0.4014  1.6130  0.8521
  514SOL    HW2 1542   2.454   2.113   2.610  1.7063 -1.9490 -2.9154
  515SOL     OW 1543   2.013   1.501   0.700  0.3086 -0.0648 -0.0216
  515SOL    HW1 1544   1.936   1.451   0.746 -2.2040  1.6688  2.5691
  515SOL    HW2 1545   1.979   1.579   0.644  0.8660  1.6446  0.4064
  516SOL     OW 1546   2.010   3.101   0.543 -0.3840  0.1721  0.2129
  516SOL    HW1 1547   1.985   0.074   0.522 -0.6360 -1.2586 -2.6424
  516SOL    HW2 1548   1.988   3.038   0.466  2.8375 -0.2570  1.6521
  517SOL     OW 1549   0.821   1.881   2.670 -0.6093 -0.2477 -0.6477
  517SOL    HW1 1550   0.865   1.971   2.683  1.1637  1.5887 -0.4612
  517SOL    HW2 1551   0.732   1.891   2.619  0.2478  2.3111 -0.7614
  518SOL     OW 1552   0.567   0.638   1.843 -0.5322  0.2925 -0.5764
  518SOL    HW1 1553   0.470   0.609   1.855 -0.3700 -0.2183 -0.5684
  518SOL    HW2 1554   0.630   0.584   1.899 -0.2164 -0.8330 -0.0114
  519SOL     OW 1555   3.037   1.109   0.193  0.2228 -0.1486  0.0863
  519SOL    HW1 1556   3.097   1.156   0.123  1.3672 -0.2052  0.3604
  519SOL    HW2 1557   3.055   1.144   0.286 -0.7221  2.0833  0.3347
  520SOL     OW 1558   2.744   1.770   1.690  0.0535 -0.1118 -0.2492
  520SOL    HW1 1559   2.708   1.786   1.783 -1.2227 -0.7904 -1.9495
  520SOL    HW2 1560   2.685   1.833   1.628  1.2805  0.7191 -0.1165
  521SOL     OW 1561   0.521   2.573   2.448  0.0844  0.5265 -0.1776
  521SOL    HW1 1562   0.572   2.526   2.372  1.0655  0.2722 -0.0271
  521SOL    HW2 1563   0.447   2.639   2.412 -0.9783  0.7956  1.6384
  522SOL     OW 1564   1.807   3.104   2.234  0.5520  0.4164  0.0400
  522SOL    HW1 1565   1.849   3.074   2.146 -0.2350  1.0115  1.3839
  522SOL    HW2 1566   1.774   0.074   2.223  1.6202 -0.8412  0.8573
  523SOL     OW 1567   1.862   1.776   1.731 -0.1404  0.2226 -0.2354
  523SOL    HW1 1568   1.893   1.877   1.729 -0.5250 -0.5593  0.2016
  523SOL    HW2 1569   1.931   1.728   1.786  2.5384 -0.5726  2.4855
  524SOL     OW 1570   0.662   2.871   0.235 -0.6108 -0.4575 -0.4617
  524SOL    HW1 1571   0.581   2.928   0.249  2.9935 -1.2129 -3.0550
  524SOL    HW2 1572   0.740   2.930   0.213 -2.4631 -1.2728 -1.3181
  525SOL     OW 1573   3.081   0.330   0.291  0.0496 -0.7535  0.0111
  525SOL    HW1 1574   3.025   0.406   0.254 -0.0637  2.5040  0.9935
  525SOL    HW2 1575   0.044   0.362   0.333  3.0602  0.3065 -1.4411
  526SOL     OW 1576   0.732   2.825   0.697 -0.8026  0.1593 -0.0280
  526SOL    HW1 1577   0.780   2.779   0.776  0.6036 -1.4510  1.7771
  526SOL    HW2 1578   0.646   2.773   0.674 -0.2377  2.7706 -0.6555
  527SOL     OW 1579   2.537   2.044   0.883 -0.7883 -0.5672 -0.4372
  527SOL    HW1 1580   2.550   2.000   0.977  1.6653 -4.3978  0.7893
  527SOL    HW2 1581   2.623   2.088   0.849 -0.4978  1.1584  1.3906
  528SOL     OW 1582   3.027   0.358   2.422 -0.3566  0.1558  0.0225
  528SOL    HW1 1583   3.119   0.398   2.394 -0.8820  2.0696 -2.2908
  528SOL    HW2 1584   3.033   0.253   2.421  0.8211  2.2579  0.8545
  529SOL     OW 1585   1.260   1.373   2.565  0.1939 -0.2901 -0.5946
  529SOL    HW1 1586   1.343   1.354   2.622  0.7644 -0.2929 -2.2979
  529SOL    HW2 1587   1.167   1.372   2.608 -2.4657  0.6700 -0.9534
  530SOL     OW 1588   1.729   1.163   2.795  0.1799  0.0924  0.2436
  530SOL    HW1 1589   1.749   1.115   2.707  0.3801  1.0487 -0.3638
  530SOL    HW2 1590   1.767   1.116   2.881 -4.4997 -2.1948 -0.4815
  531SOL     OW 1591   0.646   1.482   2.511 -0.0868 -0.0591 -0.1266
  531SOL    HW1 1592   0.565   1.528   2.477 -2.4923  0.6336 -1.8628
  531SOL    HW2 1593   0.680   1.420   2.439 -0.4342  1.0230  1.3207
  532SOL     OW 1594   1.677   1.370   0.601 -0.2642 -0.6351 -0.4049
  532SOL    HW1 1595   1.753   1.353   0.536 -0.2517  3.0338  2.3919
  532SOL    HW2 1596   1.659   1.471   0.592 -0.9996  1.4013  0.6514
  533SOL     OW 1597   0.440   0.419   2.213  0.8311 -0.0104  0.0912
  533SOL    HW1 1598   0.500   0.344   2.174  2.3742 -0.8304  0.8673
  533SOL    HW2 1599   0.482   0.477   2.285 -0.1177  0.1276 -3.1094
  534SOL     OW 1600   0.779   2.708   2.976 -0.2558 -0.2580 -0.2939
  534SOL    HW1 1601   0.689   2.663   3.003  0.0522 -2.7656 -1.3797
  534SOL    HW2 1602   0.794   2.792   3.035  0.1099  1.0990  0.8012
  535SOL     OW 1603   0.301   0.136   0.377  0.7801  0.6006 -0.2843
  535SOL    HW1 1604   0.390   0.178   0.411 -0.0450 -2.8062  0.9503
  535SOL    HW2 1605   0.222   0.168   0.434 -1.6348  0.7686  1.9065
  536SOL     OW 1606   0.302   1.497   1.767  0.3026  0.2394 -0.2448
  536SOL    HW1 1607   0.232   1.446   1.715  1.0827  3.2027  0.1775
  536SOL    HW2 1608   0.383   1.504   1.713 -2.3753  0.2261 -0.3151
  537SOL     OW 1609   0.890   2.779   1.553  0.4926  0.5234  0.5989
  537SOL    HW1 1610   0.939   2.783   1.642  0.9682 -0.0260 -0.1270
  537SOL    HW2 1611   0.930   2.844   1.488 -0.1491 -1.1951  0.1938
  538SOL     OW 1612   2.889   1.845   0.240  0.2301  0.0372  0.3862
  538SOL    HW1 1613   2.915   1.819   0.335  2.2934  4.1444  0.4171
  538SOL    HW2 1614   2.862   1.770   0.182  0.1511  1.6932  0.0656
  539SOL     OW 1615   2.770   1.051   2.496 -0.6038 -0.0676  0.2301
  539SOL    HW1 1616   2.713   0.977   2.463 -1.0259  4.4679 -1.0302
  539SOL    HW2 1617   2.714   1.108   2.554  1.5598 -1.6091  0.6944
  540SOL     OW 1618   1.566   0.825   2.207  0.6055  0.1083  0.1958
  540SOL    HW1 1619   1.580   0.886   2.125  1.5369 -0.4002 -1.9443
  540SOL    HW2 1620   1.514   0.878   2.279  0.6052 -0.0474  1.3680
  541SOL     OW 1621   0.893   0.766   1.768  0.0298 -0.2692  0.3621
  541SOL    HW1 1622   0.804   0.751   1.720 -1.9992  0.0755  0.3487
  541SOL    HW2 1623   0.922   0.862   1.777  2.0448  1.0261  4.1081
  542SOL     OW 1624   2.244   0.284   2.849  0.1334 -0.1768  0.2933
  542SOL    HW1 1625   2.331   0.302   2.895 -2.0172  1.6181 -1.1901
  542SOL    HW2 1626   2.262   0.255   2.754  0.4675  1.7331  1.9206
  543SOL     OW 1627   1.031   0.123   0.082 -0.2574 -0.5653 -0.1805
  543SOL    HW1 1628   1.036   0.213   0.121 -0.1696  0.4117 -0.5417
  543SOL    HW2 1629   1.085   0.119   0.001  0.0163 -0.5782  1.6287
  544SOL     OW 1630   2.991   1.667   2.000  0.1923 -0.1388 -0.4389
  544SOL    HW1 1631   3.035   1.575   2.015  2.6930 -1.4682 -1.0523
  544SOL    HW2 1632   2.892   1.668   2.004  1.3725 -0.8256  0.5186
  545SOL     OW 1633   2.001   1.994   1.799  0.4954 -0.6635 -1.0058
  545SOL    HW1 1634   2.010   2.066   1.729  1.7594 -3.4383 -0.6656
  545SOL    HW2 1635   2.086   1.979   1.849  1.0107 -0.4465  4.1873
  546SOL     OW 1636   0.122   3.111   2.940  0.1857 -0.3769 -0.6134
  546SOL    HW1 1637   0.107   0.021   2.843  2.4876 -0.4605 -0.6653
  546SOL    HW2 1638   0.196   0.040   2.988  0.0720 -3.3038  2.7478
  547SOL     OW 1639   1.732   1.014   0.861 -0.5114 -0.2288 -0.5162
  547SOL    HW1 1640   1.679   1.093   0.821 -2.3412  2.6761  0.7927
  547SOL    HW2 1641   1.673   0.974   0.932 -0.9913  2.2721 -0.0757
  548SOL     OW 1642   2.064   1.553   2.202 -0.0062 -0.5726 -0.4431
  548SOL    HW1 1643   2.078   1.467   2.153 -1.8381  2.0679  1.8389
  548SOL    HW2 1644   2.086   1.538   2.300  0.3655  0.1373 -2.2029
  549SOL     OW 1645   1.683   0.573   0.500 -0.2574 -0.2038 -0.2120
  549SOL    HW1 1646   1.768   0.613   0.460  1.9251 -0.5064 -0.9102
  549SOL    HW2 1647   1.705   0.509   0.572 -0.3485 -0.8691  0.9767
  550SOL     OW 1648   1.994   1.711   0.929 -0.0471  0.3070 -0.5002
  550SOL    HW1 1649   1.907   1.736   0.881 -2.4872  0.6938  0.3039
  550SOL    HW2 1650   2.002   1.610   0.946  2.0355 -3.1586 -0.9594
  551SOL     OW 1651   0.640   2.851   1.490 -0.0726  0.0461 -0.1669
  551SOL    HW1 1652   0.738   2.826   1.491 -0.7367 -1.6989 -1.0629
  551SOL    HW2 1653   0.603   2.877   1.584  0.9517  1.4790  0.0112
  552SOL     OW 1654   0.038   2.103   2.568 -0.5726  0.1728  0.3660
  552SOL    HW1 1655   3.102   2.026   2.597 -0.9157 -0.1576 -1.3847
  552SOL    HW2 1656   0.010   2.121   2.473  0.9442 -0.2383 -0.5975
  553SOL     OW 1657   0.335   0.146   1.023 -0.0129  0.4491  0.3134
  553SOL    HW1 1658   0.381   0.084   1.092 -0.6338  2.0653 -0.6564
  553SOL    HW2 1659   0.256   0.099   0.985 -0.0926  1.5553  1.1889
  554SOL     OW 1660   2.466   2.133   1.736 -0.2264  0.8781  0.3555
  554SOL    HW1 1661   2.566   2.142   1.763 -0.6686  0.9259 -1.0698
  554SOL    HW2 1662   2.442   2.221   1.689  3.2006  0.7345  1.5546
  555SOL     OW 1663   1.222   2.178   1.992  0.2367  0.2383  0.4065
  555SOL    HW1 1664   1.270   2.153   1.904 -1.7020  0.0309  2.2111
  555SOL    HW2 1665   1.122   2.166   1.990  2.5687  1.0838  1.3851
  556SOL     OW 1666   1.253   1.849   1.824  0.7524  0.2707 -0.1994
  556SOL    HW1 1667   1.294   1.942   1.821  2.4328  0.2300 -0.2257
  556SOL    HW2 1668   1.241   1.813   1.729  1.6865  1.4096 -1.1271
  557SOL     OW 1669   1.947   2.273   2.155  0.0984 -0.1095  0.7630
  557SOL    HW1 1670   2.032   2.309   2.116 -3.4986  1.6406 -0.1088
  557SOL    HW2 1671   1.958   2.256   2.255 -0.6341  1.2526  0.1115
  558SOL     OW 1672   0.588   2.921   1.745 -0.2660 -0.5793  0.2757
  558SOL    HW1 1673   0.662   2.881   1.799 -1.5226  0.8707  0.6683
  558SOL    HW2 1674   0.568   3.017   1.761 -1.6708  0.4919 -1.4381
  559SOL     OW 1675   2.250   2.889   1.063 -0.0024 -0.8575 -0.3967
  559SOL    HW1 1676   2.274   2.870   0.967 -0.7406  1.3387  2.6022
  559SOL    HW2 1677   2.205   2.805   1.106 -0.0925 -1.7292 -1.6161
  560SOL     OW 1678   1.807   2.466   0.554 -0.9851 -0.7056 -1.0392
  560SOL    HW1 1679   1.730   2.417   0.588  1.1052  1.5090  1.3261
  560SOL    HW2 1680   1.895   2.412   0.573  1.5598 -0.6939  0.4797
  561SOL     OW 1681   1.004   0.403   0.152 -0.0651  0.2983  0.7177
  561SOL    HW1 1682   1.074   0.474   0.138 -0.4029 -0.2961  2.2380
  561SOL    HW2 1683   0.944   0.432   0.229  2.0686 -1.0707  2.4771
  562SOL     OW 1684   0.664   0.549   2.410 -0.2630 -0.0170 -0.1972
  562SOL    HW1 1685   0.625   0.460   2.441  2.0082 -1.3945 -0.6395
  562SOL    HW2 1686   0.752   0.571   2.464  2.0303  2.5634 -0.9834
  563SOL     OW 1687   1.636   1.767   0.041 -0.2327  0.2476 -0.2859
  563SOL    HW1 1688   1.617   1.746   0.139  1.7232  1.1070 -3.5595
  563SOL    HW2 1689   1.615   1.863   0.011  0.5911  0.7146  2.0311
  564SOL     OW 1690   2.446   1.179   1.399 -0.2601 -0.1235  0.0242
  564SOL    HW1 1691   2.486   1.243   1.468  1.6344  0.7911  1.0374
  564SOL    HW2 1692   2.516   1.128   1.352  1.1348  0.0171  0.7543
  565SOL     OW 1693   0.842   0.368   2.770 -0.2906  0.3757 -0.0557
  565SOL    HW1 1694   0.811   0.269   2.782 -0.1782  1.1927 -0.7493
  565SOL    HW2 1695   0.849   0.413   2.860  3.9645 -1.3685  0.2687
  566SOL     OW 1696   1.833   0.071   2.822 -0.0525  0.4627  0.3167
  566SOL    HW1 1697   1.899   0.110   2.887  0.1966 -2.3296 -3.6426
  566SOL    HW2 1698   1.864   3.101   2.791 -1.0590  0.2336 -0.4275
  567SOL     OW 1699   2.251   1.909   0.592  0.8167  0.1331  0.6202
  567SOL    HW1 1700   2.344   1.891   0.572  1.2994 -1.5881  0.5110
  567SOL    HW2 1701   2.235   1.893   0.689 -1.0576  0.6581 -0.5755
  568SOL     OW 1702   1.891   1.988   0.305  0.3022 -0.2775  0.2810
  568SOL    HW1 1703   1.980   2.005   0.350  2.5951 -2.5464  2.6030
  568SOL    HW2 1704   1.878   2.046   0.224  1.0894 -1.9311 -0.0511
  569SOL     OW 1705   2.163   1.109   2.998  0.3549  0.7575  0.2663
  569SOL    HW1 1706   2.192   1.107   2.896 -0.3068  0.9138 -3.5149
  569SOL    HW2 1707   2.245   1.083   3.051  0.7582 -1.0510  0.1041
  570SOL     OW 1708   0.290   2.484   1.675  0.1471 -0.0732 -0.2415
  570SOL    HW1 1709   0.272   2.506   1.578 -1.0264 -0.4057 -0.4392
  570SOL    HW2 1710   0.376   2.434   1.688 -1.0957  0.0094 -2.8335
  571SOL     OW 1711   0.365   0.980   1.834 -0.1513  0.0925  0.4773
  571SOL    HW1 1712   0.355   1.055   1.901  1.5325 -0.3963 -1.4569
  571SOL    HW2 1713   0.458   0.941   1.845  2.2524 -2.9675 -0.8912
  572SOL     OW 1714   1.027   1.622   0.501  0.2108 -0.3499 -0.1243
  572SOL    HW1 1715   0.981   1.546   0.448 -0.7473 -1.5437 -1.1292
  572SOL    HW2 1716   0.992   1.712   0.471  1.6952 -0.7309  2.0153
  573SOL     OW 1717   1.566   2.025   3.091 -0.0586  0.2755  0.5401
  573SOL    HW1 1718   1.467   2.004   3.101 -0.8938 -0.3482 -0.1776
  573SOL    HW2 1719   1.583   2.114   3.044  1.0663  1.0450 -3.3241
  574SOL     OW 1720   1.060   0.225   0.913  0.2714 -0.0762  0.1957
  574SOL    HW1 1721   1.050   0.175   0.997 -0.0329  4.1543  0.7395
  574SOL    HW2 1722   0.980   0.201   0.854 -0.0536  1.8730 -1.5754
  575SOL     OW 1723   0.335   1.240   1.364  0.4628  0.1061  0.0789
  575SOL    HW1 1724   0.331   1.179   1.448 -0.7438  0.0099  2.0897
  575SOL    HW2 1725   0.410   1.198   1.307  1.4080 -0.6305 -0.9115
  576SOL     OW 1726   2.014   2.594   1.446  0.1820 -0.1363  0.5637
  576SOL    HW1 1727   2.104   2.570   1.404  1.5399 -0.5189 -1.4051
  576SOL    HW2 1728   1.947   2.622   1.378  1.5126  0.9411  1.9715
  577SOL     OW 1729   1.111   1.151   2.022 -0.1976 -0.3985 -0.1394
  577SOL    HW1 1730   1.203   1.108   2.026 -2.3985  0.3124 -0.0398
  577SOL    HW2 1731   1.069   1.124   2.109  3.9880  2.0886 -0.0176
  578SOL     OW 1732   2.023   0.574   2.748  0.0485 -0.5873  0.3976
  578SOL    HW1 1733   1.975   0.659   2.782 -3.1126 -1.1803 -0.0137
  578SOL    HW2 1734   1.959   0.522   2.688 -0.8715  3.8005 -1.1111
  579SOL     OW 1735   2.106   2.433   1.685  0.3125  0.9372  0.3906
  579SOL    HW1 1736   2.191   2.472   1.727  2.0247  0.2101  0.7672
  579SOL    HW2 1737   2.078   2.478   1.600 -0.7099 -0.3745  1.1851
  580SOL     OW 1738   2.235   1.262   2.473  0.0913 -0.8684  0.2931
  580SOL    HW1 1739   2.191   1.236   2.560 -0.7453 -2.0409 -0.6766
  580SOL    HW2 1740   2.283   1.353   2.480  0.0539  1.1881  0.4939
  581SOL     OW 1741   1.471   1.236   2.732 -0.6764  0.1244 -0.0008
  581SOL    HW1 1742   1.564   1.201   2.764 -1.4349  0.9862 -1.5321
  581SOL    HW2 1743   1.398   1.195   2.790 -2.0504 -1.7753 -0.2308
  582SOL     OW 1744   1.048   1.730   1.966 -0.0045  0.3668 -0.6286
  582SOL    HW1 1745   1.116   1.775   1.910 -1.2636 -0.5729  1.0529
  582SOL    HW2 1746   1.053   1.761   2.063  1.2908 -1.2818  2.8115
  583SOL     OW 1747   1.809   1.231   1.511  0.1376  0.3724  0.0168
  583SOL    HW1 1748   1.727   1.202   1.462  3.2517  2.0878  0.6866
  583SOL    HW2 1749   1.782   1.259   1.606  1.2482 -0.4300  1.8496
  584SOL     OW 1750   1.937   2.698   0.532  0.3651 -0.0119  0.1060
  584SOL    HW1 1751   2.026   2.702   0.581 -0.3183 -2.7369  1.1073
  584SOL    HW2 1752   1.884   2.614   0.545 -0.5143  0.0677 -1.6078
  585SOL     OW 1753   2.150   2.920   2.724 -0.5199 -0.2691 -0.0429
  585SOL    HW1 1754   2.053   2.944   2.702 -0.9009  1.4187  0.8017
  585SOL    HW2 1755   2.138   2.825   2.765  0.1379 -0.2658 -0.1298
  586SOL     OW 1756   2.864   2.417   1.225 -0.7101  0.1809  0.3307
  586SOL    HW1 1757   2.842   2.516   1.199 -1.3225  3.7044 -1.6792
  586SOL    HW2 1758   2.911   2.373   1.148 -1.0028 -0.4171 -0.0671
  587SOL     OW 1759   1.285   1.859   0.123  0.5521  0.2856  0.3374
  587SOL    HW1 1760   1.252   1.945   0.074  1.7982 -0.0766  0.6880
  587SOL    HW2 1761   1.306   1.781   0.061  3.4128 -5.1393 -2.7782
  588SOL     OW 1762   0.439   0.351   1.199 -0.1528 -0.6860  0.5870
  588SOL    HW1 1763   0.516   0.317   1.258  2.7134 -0.4069 -2.7195
  588SOL    HW2 1764   0.412   0.295   1.120 -0.6076  3.0874  1.5986
  589SOL     OW 1765   1.035   0.230   0.458  0.2073 -0.2401 -0.9098
  589SOL    HW1 1766   0.962   0.284   0.500 -3.3975 -3.1963 -2.5846
  589SOL    HW2 1767   1.066   0.261   0.371  0.5194  1.7444  4.8778
  590SOL     OW 1768   1.365   0.453   2.853 -0.5918 -0.3827  0.0115
  590SOL    HW1 1769   1.452   0.507   2.858 -1.0528 -0.6957  0.4532
  590SOL    HW2 1770   1.345   0.432   2.950  0.9404  2.4664 -0.4612
  591SOL     OW 1771   0.043   2.179   2.294  0.3552 -0.9198  0.2122
  591SOL    HW1 1772   3.114   2.215   2.215  0.0802  1.1476  0.5521
  591SOL    HW2 1773   0.145   2.205   2.283 -1.0897  1.4293  3.4764
  592SOL     OW 1774   2.466   1.600   2.137  0.1826 -0.0298  0.1341
  592SOL    HW1 1775   2.421   1.526   2.083 -0.0556  0.5623  0.3677
  592SOL    HW2 1776   2.563   1.613   2.108 -0.5102 -0.7969  2.6477
  593SOL     OW 1777   1.520   1.306   1.941 -0.0432  0.0261  0.1362
  593SOL    HW1 1778   1.563   1.260   1.861  1.0025  1.4684 -1.8606
  593SOL    HW2 1779   1.590   1.344   2.001  2.3300  1.3479 -1.2177
  594SOL     OW 1780   2.549   1.273   0.053 -0.7857  0.0879  0.1430
  594SOL    HW1 1781   2.552   1.344   3.100  2.5514  0.5552 -0.6103
  594SOL    HW2 1782   2.643   1.237   0.072 -0.1391 -1.2693  1.3241
  595SOL     OW 1783   0.513   0.674   0.621  0.2344  0.2116  0.0426
  595SOL    HW1 1784   0.433   0.739   0.598  0.5370 -0.7620 -3.3797
  595SOL    HW2 1785   0.589   0.712   0.670 -0.7651 -0.5595  0.3326
  596SOL     OW 1786   0.075   1.166   1.291  0.1237 -0.4254 -0.4332
  596SOL    HW1 1787   3.116   1.168   1.348  0.9936 -1.4335 -0.6744
  596SOL    HW2 1788   0.155   1.206   1.340 -0.1774 -1.4244 -1.6071
  597SOL     OW 1789   1.059   1.974   1.044  0.3050  0.3591  0.7752
  597SOL    HW1 1790   1.108   1.909   1.106  0.0070  0.6796 -2.8939
  597SOL    HW2 1791   1.130   2.016   0.987 -0.1024  0.8562 -1.5408
  598SOL     OW 1792   0.164   0.150   1.784 -0.4025 -0.0935 -0.3300
  598SOL    HW1 1793   0.114   0.128   1.867 -0.1672  1.0705 -1.0293
  598SOL    HW2 1794   0.133   0.099   1.702 -1.1893  1.6952  1.4634
  599SOL     OW 1795   0.222   1.600   2.800 -0.1338 -0.6454 -0.8543
  599SOL    HW1 1796   0.240   1.528   2.735  0.2643  2.1333  1.7832
  599SOL    HW2 1797   0.309   1.640   2.824 -2.0982 -0.6223 -0.2762
  600SOL     OW 1798   0.479   1.064   2.924  0.1200  0.5734 -0.4073
  600SOL    HW1 1799   0.427   1.131   2.874 -1.1673  1.3391  3.3458
  600SOL    HW2 1800   0.552   1.021   2.864  0.3000  1.2242  1.0133
  601SOL     OW 1801   0.798   0.884   1.218  0.0953 -0.1497  0.3920
  601SOL    HW1 1802   0.866   0.928   1.150  4.3154  1.1130 -1.5053
  601SOL    HW2 1803   0.722   0.846   1.161  0.2343 -0.0242 -1.6165
  602SOL     OW 1804   0.781   0.119   3.067 -0.0969  0.1433  0.2515
  602SOL    HW1 1805   0.880   0.116   3.091 -0.7820 -1.5544 -0.9572
  602SOL    HW2 1806   0.723   0.111   0.028  0.9332 -0.8401  0.1071
  603SOL     OW 1807   1.490   2.429   2.350  0.1550  0.2700  0.2017
  603SOL    HW1 1808   1.574   2.438   2.290  2.4735 -2.2419 -0.2713
  603SOL    HW2 1809   1.483   2.333   2.392  0.1178  0.4119 -0.3848
  604SOL     OW 1810   0.445   2.880   2.810  0.4613  0.9533  0.2004
  604SOL    HW1 1811   0.467   2.880   2.910 -2.0943  1.5085 -3.7254
  604SOL    HW2 1812   0.512   2.818   2.759 -0.3768 -1.5457  1.7643
  605SOL     OW 1813   2.599   1.316   1.578 -0.3452 -0.3371  0.3378
  605SOL    HW1 1814   2.669   1.394   1.564 -1.6773 -1.1694  0.6536
  605SOL    HW2 1815   2.511   1.356   1.614  0.0855  0.8617  0.2255
  606SOL     OW 1816   1.025   1.115   2.930  0.0615  0.5970  0.4211
  606SOL    HW1 1817   1.049   1.212   2.960 -0.2006  1.2563  1.2919
  606SOL    HW2 1818   0.969   1.113   2.845 -1.3071  1.0732  0.3578
  607SOL     OW 1819   0.878   0.405   0.636 -0.4662  0.0646 -0.0815
  607SOL    HW1 1820   0.785   0.385   0.676 -0.9453  0.0312 -1.9387
  607SOL    HW2 1821   0.942   0.448   0.707 -0.1041  0.6806  2.3705
  608SOL     OW 1822   2.778   1.535   1.550  0.0546  0.0380 -0.2080
  608SOL    HW1 1823   2.778   1.616   1.614  1.2454 -1.8685  0.4468
  608SOL    HW2 1824   2.727   1.569   1.468 -0.8168  0.8617  0.9716
  609SOL     OW 1825   2.315   0.470   0.742  0.0822 -0.0759 -0.4262
  609SOL    HW1 1826   2.287   0.412   0.822 -1.7864  0.2579 -1.4673
  609SOL    HW2 1827   2.351   0.560   0.773 -3.3218 -0.1051 -2.6430
  610SOL     OW 1828   0.254   2.510   1.400 -0.3152  0.1892 -0.4877
  610SOL    HW1 1829   0.220   2.601   1.427  2.5128 -2.5647  0.3227
  610SOL    HW2 1830   0.296   2.500   1.307  0.8956 -0.5007 -2.1513
  611SOL     OW 1831   1.609   1.670   0.282 -0.4467 -0.1912 -0.6899
  611SOL    HW1 1832   1.671   1.587   0.291  3.5113 -1.5314  1.1326
  611SOL    HW2 1833   1.643   1.734   0.354  1.1238  1.5141 -0.0473
  612SOL     OW 1834   0.591   0.061   1.854  0.5341 -0.5414  0.1364
  612SOL    HW1 1835   0.563   0.034   1.946  1.5303 -2.5092 -0.0860
  612SOL    HW2 1836   0.614   0.164   1.850 -2.4545  0.7719 -0.0266
  613SOL     OW 1837   0.484   2.346   0.472  0.9267 -0.2106  0.2946
  613SOL    HW1 1838   0.569   2.402   0.455  3.2614  0.4750 -1.3631
  613SOL    HW2 1839   0.434   2.381   0.554  0.8707 -3.0684  0.9082
  614SOL     OW 1840   2.205   0.068   2.054  0.3008  0.8338 -0.3277
  614SOL    HW1 1841   2.176   0.138   2.116 -1.5173 -4.4425 -1.7470
  614SOL    HW2 1842   2.289   0.019   2.085 -1.4015 -3.2255 -1.2304
  615SOL     OW 1843   1.319   1.620   0.546  0.0885 -0.3516  0.2583
  615SOL    HW1 1844   1.233   1.565   0.552  1.2941 -0.1327 -2.4349
  615SOL    HW2 1845   1.297   1.703   0.488  1.0021 -0.1305 -2.0538
  616SOL     OW 1846   1.591   1.617   0.550  0.4297  0.2251 -0.0813
  616SOL    HW1 1847   1.490   1.608   0.546 -1.6702  1.6192  0.7966
  616SOL    HW2 1848   1.616   1.711   0.560 -0.4904 -3.3426  1.6283
  617SOL     OW 1849   1.350   0.907   3.097  0.2562  0.1834 -0.3510
  617SOL    HW1 1850   1.383   0.809   3.085  1.8110 -3.5940  1.1292
  617SOL    HW2 1851   1.332   0.917   0.075 -1.0912  0.4211  2.4277
  618SOL     OW 1852   0.736   0.422   2.005  0.3206  0.3095 -0.7168
  618SOL    HW1 1853   0.822   0.464   2.031  0.1399 -0.6811  0.1074
  618SOL    HW2 1854   0.701   0.359   2.081  0.2032 -3.8100 -0.3213
  619SOL     OW 1855   3.016   1.400   1.482 -0.4267  0.1106  0.2495
  619SOL    HW1 1856   2.930   1.450   1.483  2.4790  0.2364 -1.8034
  619SOL    HW2 1857   3.087   1.449   1.426 -0.0851 -0.0158 -1.0157
  620SOL     OW 1858   2.716   0.111   2.496 -0.5866 -0.0265 -0.4023
  620SOL    HW1 1859   2.625   0.125   2.542 -0.5746 -0.4576 -0.0889
  620SOL    HW2 1860   2.777   0.039   2.540  1.7278 -3.8064  2.5093
  621SOL     OW 1861   2.471   2.084   2.784 -0.0690  0.9018 -0.0118
  621SOL    HW1 1862   2.537   2.026   2.832  0.6466  1.9980 -0.8962
  621SOL    HW2 1863   2.388   2.030   2.765  1.2818 -1.8599  1.8563
  622SOL     OW 1864   1.198   0.574   0.029 -0.2093  0.4301  0.2079
  622SOL    HW1 1865   1.224   0.480   0.011  0.5749 -2.3002 -2.2716
  622SOL    HW2 1866   1.281   0.634   0.023 -1.0768  0.7974  1.6858
  623SOL     OW 1867   1.012   1.493   1.804 -0.0796 -0.2933 -0.6517
  623SOL    HW1 1868   1.094   1.434   1.807 -0.7162  0.7361  0.5904
  623SOL    HW2 1869   1.013   1.572   1.870  1.6039 -0.3568 -3.2386
  624SOL     OW 1870   2.869   0.193   0.446  0.3471 -0.2531 -0.2143
  624SOL    HW1 1871   2.954   0.249   0.440 -0.3317 -0.8692 -0.5093
  624SOL    HW2 1872   2.872   0.148   0.539 -0.4019  1.5147  2.5968
  625SOL     OW 1873   0.772   2.404   0.789  0.2800  0.2260 -0.1081
  625SOL    HW1 1874   0.794   2.419   0.690 -0.2282  0.0078 -0.8892
  625SOL    HW2 1875   0.707   2.324   0.807 -2.0906  0.6882  0.5238
  626SOL     OW 1876   2.534   0.928   2.456 -0.4842 -0.3011  0.3038
  626SOL    HW1 1877   2.498   0.903   2.547 -1.9085 -2.6246  0.7922
  626SOL    HW2 1878   2.481   1.002   2.401  0.3003  1.5394 -0.3186
  627SOL     OW 1879   1.188   2.071   2.772  0.1061 -0.3107  0.0603
  627SOL    HW1 1880   1.116   2.073   2.701  1.5561  0.0734 -0.1940
  627SOL    HW2 1881   1.192   1.979   2.815  3.3132  1.2884  1.9501
  628SOL     OW 1882   2.853   2.805   2.659 -0.3222 -0.0866 -0.1921
  628SOL    HW1 1883   2.854   2.772   2.566  0.1772 -1.6328  3.0862
  628SOL    HW2 1884   2.766   2.846   2.696 -0.4661  0.1496  1.3431
  629SOL     OW 1885   1.341   2.815   2.498  0.2150 -0.5261 -0.0774
  629SOL    HW1 1886   1.313   2.799   2.402  0.4052  2.2565  2.4860
  629SOL    HW2 1887   1.442   2.831   2.515  1.6191 -0.2699  0.4112
  630SOL     OW 1888   0.874   0.179   2.383 -0.0582  0.1050  0.1193
  630SOL    HW1 1889   0.916   0.266   2.344 -0.8297  1.2168  1.6707
  630SOL    HW2 1890   0.944   0.140   2.445  1.8893 -0.2559  2.2026
  631SOL     OW 1891   1.989   1.045   0.756 -0.7182 -0.1546 -0.1075
  631SOL    HW1 1892   1.887   1.052   0.785 -0.8105 -1.2916 -0.7562
  631SOL    HW2 1893   2.008   1.090   0.663  0.8176 -0.7972 -1.5064
  632SOL     OW 1894   2.585   0.123   1.830  0.1903  0.4390  0.3433
  632SOL    HW1 1895   2.511   0.181   1.864 -1.0704 -1.0057  0.4944
  632SOL    HW2 1896   2.642   0.096   1.908 -1.0863  1.5055  0.4587
  633SOL     OW 1897   1.229   1.363   0.418  0.4328 -0.1246 -0.1307
  633SOL    HW1 1898   1.287   1.437   0.368  1.3945  1.6431 -2.7050
  633SOL    HW2 1899   1.133   1.372   0.397  1.4295 -1.1429  0.9988
  634SOL     OW 1900   2.687   2.752   2.046  0.4757  0.2404 -0.2759
  634SOL    HW1 1901   2.774   2.755   1.992 -2.8785  0.3694  2.4074
  634SOL    HW2 1902   2.699   2.712   2.139  2.6042 -3.3699 -0.1584
  635SOL     OW 1903   1.436   0.367   0.549 -0.0755 -0.2365  0.5945
  635SOL    HW1 1904   1.384   0.370   0.461 -1.1460 -2.7388  1.8738
  635SOL    HW2 1905   1.535   0.345   0.525  0.7372  0.1720  0.0200
  636SOL     OW 1906   0.659   1.349   2.978 -0.1243 -0.4326  0.2954
  636SOL    HW1 1907   0.628   1.255   2.969 -0.2359  1.5646  0.1793
  636SOL    HW2 1908   0.639   1.401   2.890  1.0294 -0.3876 -3.5437
  637SOL     OW 1909   2.849   2.147   3.068  0.5340 -0.9246  0.0482
  637SOL    HW1 1910   2.911   2.099   0.012 -0.6619 -0.5841 -0.1322
  637SOL    HW2 1911   2.876   2.121   2.976 -0.4278  0.1663  3.5935
  638SOL     OW 1912   1.161   2.616   2.678 -0.0619  0.1142  0.5225
  638SOL    HW1 1913   1.192   2.706   2.638 -0.0883 -2.4068  2.7507
  638SOL    HW2 1914   1.220   2.580   2.747 -0.3551  2.2768 -0.3521
  639SOL     OW 1915   1.506   1.942   0.817  0.0277 -0.2983 -0.1896
  639SOL    HW1 1916   1.520   2.027   0.877  2.5384  0.2837 -0.3377
  639SOL    HW2 1917   1.426   1.963   0.758 -1.7511  1.2600  1.4304
  640SOL     OW 1918   2.359   2.896   0.310 -0.0123 -0.6564  0.3198
  640SOL    HW1 1919   2.455   2.919   0.292 -0.3944 -1.7589  1.3041
  640SOL    HW2 1920   2.300   2.977   0.320 -1.6349 -2.4014  2.1499
  641SOL     OW 1921   2.879   0.361   3.073 -0.5513 -0.1299  0.0385
  641SOL    HW1 1922   2.855   0.416   0.035 -1.8625  1.8735 -0.2907
  641SOL    HW2 1923   2.845   0.268   3.080  1.6590  3.5590 -1.5190
  642SOL     OW 1924   0.348   0.614   1.079  0.2455 -0.7364  0.0402
  642SOL    HW1 1925   0.270   0.648   1.139 -0.6139  0.4343  1.5648
  642SOL    HW2 1926   0.388   0.527   1.120  1.6148  0.1686  0.9024
  643SOL     OW 1927   0.758   1.298   2.339  0.2205 -0.7583 -0.4013
  643SOL    HW1 1928   0.839   1.242   2.318  0.5072 -2.4341 -1.7977
  643SOL    HW2 1929   0.675   1.244   2.326 -1.4770 -0.1772 -2.5480
  644SOL     OW 1930   2.025   2.272   0.613  0.0485  0.1766  0.3775
  644SOL    HW1 1931   2.034   2.251   0.510  1.5366  1.6717 -1.4571
  644SOL    HW2 1932   1.959   2.214   0.655  1.7850  3.4110 -0.2046
  645SOL     OW 1933   1.601   2.316   0.681 -0.3996 -0.0567 -0.1760
  645SOL    HW1 1934   1.568   2.228   0.649 -0.6885  0.9661 -1.2930
  645SOL    HW2 1935   1.623   2.313   0.782 -2.0957  0.7329 -1.4107
  646SOL     OW 1936   0.330   1.980   2.887  0.4499  0.5815 -0.0346
  646SOL    HW1 1937   0.236   2.021   2.880  1.2292  0.5742 -1.7362
  646SOL    HW2 1938   0.363   1.962   2.792 -0.4833  0.2534 -0.7654
  647SOL     OW 1939   1.176   0.042   1.477  0.0295 -0.2012 -0.1984
  647SOL    HW1 1940   1.122   0.125   1.447  0.3018  1.6339  0.4236
  647SOL    HW2 1941   1.159   0.021   1.575  0.9563  1.7529  0.9653
  648SOL     OW 1942   1.322   0.290   0.899  0.0955 -0.0577  0.3997
  648SOL    HW1 1943   1.222   0.278   0.892  0.4057 -0.5963 -0.0484
  648SOL    HW2 1944   1.341   0.392   0.884 -0.4942  3.0008 -3.3687
  649SOL     OW 1945   1.303   1.876   0.392  0.6559  0.1663 -0.8757
  649SOL    HW1 1946   1.281   1.847   0.301 -1.7759  1.5214  2.1481
  649SOL    HW2 1947   1.380   1.944   0.392 -1.2447  1.6430  1.4343
  650SOL     OW 1948   2.281   1.690   1.709 -0.6139 -0.3194  0.0206
  650SOL    HW1 1949   2.347   1.732   1.767 -1.0686  0.2344 -2.5606
  650SOL    HW2 1950   2.192   1.668   1.750 -0.1644 -1.2005 -1.0397
  651SOL     OW 1951   1.578   2.598   3.037 -0.3403 -0.5820  0.3588
  651SOL    HW1 1952   1.525   2.680   3.059  0.1018 -2.4233 -1.2583
  651SOL    HW2 1953   1.575   2.580   2.938 -0.4893  1.4995  0.1585
  652SOL     OW 1954   2.560   1.640   0.129 -0.3135 -0.1122 -0.0175
  652SOL    HW1 1955   2.473   1.614   0.166  0.8275 -1.2368 -0.4155
  652SOL    HW2 1956   2.636   1.582   0.167  0.1964 -1.2055  1.9581
  653SOL     OW 1957   3.023   0.170   0.906 -0.3255  0.3450  0.4411
  653SOL    HW1 1958   3.036   0.263   0.868 -0.3955  1.0292  0.9423
  653SOL    HW2 1959   3.007   0.182   1.007 -0.3585  1.0085 -1.4872
  654SOL     OW 1960   2.998   3.101   1.802  0.6852  0.2679 -0.4335
  654SOL    HW1 1961   2.986   3.072   1.703  1.4254 -2.4630 -1.9910
  654SOL    HW2 1962   3.041   3.022   1.852  1.0098  1.6458 -2.2750
  655SOL     OW 1963   0.301   2.400   0.678 -0.4713 -0.0037  0.5685
  655SOL    HW1 1964   0.345   2.474   0.731  2.2081 -0.1061 -3.4855
  655SOL    HW2 1965   0.252   2.439   0.594  1.0370 -1.7451 -0.4460
  656SOL     OW 1966   3.064   0.083   2.418  0.0115 -0.2198  0.0607
  656SOL    HW1 1967   3.049   0.020   2.341  0.9826 -1.6529  0.0406
  656SOL    HW2 1968   3.012   0.047   2.499  0.0523  0.6294 -2.2851
  657SOL     OW 1969   0.091   1.368   2.931  0.2405  0.5718  0.0623
  657SOL    HW1 1970   0.036   1.332   2.854 -1.4660  2.0239  0.1690
  657SOL    HW2 1971   0.100   1.464   2.916  0.2766 -1.3640  0.3785
  658SOL     OW 1972   2.578   1.933   1.121  0.0120 -0.5356 -0.4806
  658SOL    HW1 1973   2.653   1.989   1.170  1.0151 -0.6648 -2.8447
  658SOL    HW2 1974   2.490   1.943   1.164 -2.2807 -0.3329 -0.2078
  659SOL     OW 1975   1.520   2.883   0.063  0.4661  0.1044  0.0767
  659SOL    HW1 1976   1.578   2.918   0.140 -2.3946  1.2902 -0.6778
  659SOL    HW2 1977   1.577   2.885   3.101  0.7845  0.0331 -2.5990
  660SOL     OW 1978   1.548   1.168   0.114 -0.1966  0.0014  0.1721
  660SOL    HW1 1979   1.524   1.082   0.079 -1.8116 -1.4425  1.1177
  660SOL    HW2 1980   1.469   1.232   0.099 -0.0038  0.7236 -0.5503
  661SOL     OW 1981   0.160   2.117   1.179  0.6506 -0.1874 -0.0744
  661SOL    HW1 1982   0.079   2.087   1.126  1.4131  3.1361  1.5013
  661SOL    HW2 1983   0.138   2.194   1.247  1.4753 -0.4526  1.2899
  662SOL     OW 1984   0.248   0.858   0.096 -0.0833 -0.0005 -0.2347
  662SOL    HW1 1985   0.215   0.774   0.045 -1.4428  0.8239 -2.7064
  662SOL    HW2 1986   0.261   0.833   0.195  1.2151 -2.3550  1.9851
  663SOL     OW 1987   2.170   1.577   1.152 -0.3429  0.1139 -0.0762
  663SOL    HW1 1988   2.098   1.527   1.094 -3.0609 -1.9029 -1.0580
  663SOL    HW2 1989   2.200   1.502   1.217  1.8635 -1.0016 -0.4200
  664SOL     OW 1990   1.163   1.217   1.018  0.1235  0.0267 -0.3127
  664SOL    HW1 1991   1.194   1.287   1.088  0.3411  0.4417 -0.2260
  664SOL    HW2 1992   1.139   1.267   0.938  0.1294 -2.3065  3.3423
  665SOL     OW 1993   2.056   2.679   2.374 -0.0228 -0.1438  0.5430
  665SOL    HW1 1994   2.020   2.773   2.399 -0.9099  0.7900  1.2476
  665SOL    HW2 1995   1.984   2.623   2.329 -0.1033 -2.5249  0.4315
  666SOL     OW 1996   2.823   2.855   3.038  0.1853  0.2846 -0.1432
  666SOL    HW1 1997   2.868   2.765   3.028 -1.6554 -1.2032  0.5029
  666SOL    HW2 1998   2.895   2.928   3.056  0.9880  2.0779 -1.4027
  667SOL     OW 1999   2.561   1.209   2.088  0.1238  0.4419 -0.3679
  667SOL    HW1 2000   2.543   1.110   2.068 -0.5318 -2.4291  0.7943
  667SOL    HW2 2001   2.516   1.264   2.019 -0.7306 -1.9411  0.8656
  668SOL     OW 2002   0.378   0.796   2.392 -0.0954  0.4706  0.0302
  668SOL    HW1 2003   0.366   0.773   2.490  0.3777  1.1511 -1.4422
  668SOL    HW2 2004   0.287   0.802   2.354  0.4479  0.6810  0.4102
  669SOL     OW 2005   2.077   2.193   2.394 -0.1958  0.0650 -0.0820
  669SOL    HW1 2006   2.140   2.111   2.388  0.0953  2.7750 -1.4706
  669SOL    HW2 2007   2.132   2.273   2.420  2.6380  2.0214  0.7127
  670SOL     OW 2008   2.389   1.387   1.959  0.0781 -0.0308  0.5910
  670SOL    HW1 2009   2.373   1.403   1.860  2.9251 -0.7812 -2.7343
  670SOL    HW2 2010   2.307   1.343   2.006  2.0635 -0.0114  0.3745
  671SOL     OW 2011   2.787   1.499   0.333 -0.3294  0.3042 -0.4636
  671SOL    HW1 2012   2.775   1.398   0.351 -0.6702 -0.0841 -0.9622
  671SOL    HW2 2013   2.751   1.558   0.408  0.4649 -2.6101 -0.9805
  672SOL     OW 2014   2.489   0.644   2.355 -0.2653  0.4266 -0.2820
  672SOL    HW1 2015   2.425   0.686   2.286  1.2185  0.5430 -1.1054
  672SOL    HW2 2016   2.520   0.723   2.411  0.8878 -0.1916 -2.9923
  673SOL     OW 2017   2.734   0.022   2.068  0.1083 -0.2277  0.4352
  673SOL    HW1 2018   2.777   3.077   2.012 -1.0976 -0.5005  1.2274
  673SOL    HW2 2019   2.692   3.109   2.151  1.1524  1.7519 -1.3942
  674SOL     OW 2020   1.657   1.882   1.498  0.2929  0.5102  0.7684
  674SOL    HW1 2021   1.747   1.835   1.482  0.3497  1.4237 -0.2337
  674SOL    HW2 2022   1.638   1.954   1.428 -2.2332  1.7041 -1.7560
  675SOL     OW 2023   0.734   0.748   0.732  0.0421  0.2989  0.0898
  675SOL    HW1 2024   0.791   0.699   0.801 -0.3222  0.5139 -1.2920
  675SOL    HW2 2025   0.776   0.838   0.708 -1.7929 -1.6386  0.4438
  676SOL     OW 2026   1.552   0.887   1.022 -0.3943  0.5251 -0.0932
  676SOL    HW1 2027   1.460   0.932   1.029 -0.8941  1.9704  3.1001
  676SOL    HW2 2028   1.540   0.789   0.988  0.1606 -1.4711 -0.5090
  677SOL     OW 2029   2.483   1.404   2.377  0.2007  0.1311 -0.7113
  677SOL    HW1 2030   2.508   1.309   2.357  1.2176 -0.6730 -2.5021
  677SOL    HW2 2031   2.487   1.450   2.289  0.9344  1.3288 -0.3163
  678SOL     OW 2032   2.765   1.691   1.024  0.0369 -0.0343 -0.0435
  678SOL    HW1 2033   2.831   1.645   1.082  1.0387  0.6358  0.2617
  678SOL    HW2 2034   2.695   1.736   1.083  1.5874  0.5121 -2.4755
  679SOL     OW 2035   2.152   2.883   3.104 -0.0194  0.5333  0.3683
  679SOL    HW1 2036   2.213   2.961   3.075 -0.8510 -0.1521  0.9390
  679SOL    HW2 2037   2.148   2.826   3.023  0.8364  2.1571  1.4937
  680SOL     OW 2038   0.255   2.088   1.877  0.3764 -0.0192  0.3437
  680SOL    HW1 2039   0.186   2.017   1.902 -0.5117  1.3051 -0.3649
  680SOL    HW2 2040   0.335   2.047   1.831 -0.2537 -0.3551 -0.5392
  681SOL     OW 2041   0.648   1.103   1.326  0.4396 -0.1371  0.5491
  681SOL    HW1 2042   0.745   1.074   1.323 -0.5960 -0.0835 -0.2299
  681SOL    HW2 2043   0.639   1.157   1.413  1.4864 -1.3512 -3.4118
  682SOL     OW 2044   1.300   2.615   0.822  0.1160 -0.5167  0.0387
  682SOL    HW1 2045   1.374   2.572   0.764  0.7628  1.2280  1.2377
  682SOL    HW2 2046   1.211   2.593   0.778  0.0348 -1.2859 -2.2421
  683SOL     OW 2047   2.552   1.326   0.683  0.4458  0.7328  0.6364
  683SOL    HW1 2048   2.500   1.369   0.607  2.7125 -0.8762  1.7783
  683SOL    HW2 2049   2.609   1.400   0.726 -0.3503 -0.9151  0.1000
  684SOL     OW 2050   0.495   2.022   1.770 -0.0525 -0.0639 -0.5702
  684SOL    HW1 2051   0.554   2.017   1.854 -0.9719 -3.7283  0.5630
  684SOL    HW2 2052   0.533   2.076   1.695  0.4041 -0.2794  1.2719
  685SOL     OW 2053   1.833   1.592   3.033  0.0395  0.2091 -0.2899
  685SOL    HW1 2054   1.759   1.652   3.071 -0.9935  2.0047  1.3072
  685SOL    HW2 2055   1.912   1.650   3.019 -2.5561  1.6821  0.4924
  686SOL     OW 2056   0.190   0.897   0.973  0.3383  0.6594  0.0381
  686SOL    HW1 2057   0.230   0.992   0.967 -1.4420  2.0684  4.0916
  686SOL    HW2 2058   0.256   0.821   0.941  0.4785 -0.6702  1.0515
  687SOL     OW 2059   0.882   2.347   2.964  0.2731  0.0093 -0.4593
  687SOL    HW1 2060   0.897   2.444   2.969 -1.0113  0.4517  0.5769
  687SOL    HW2 2061   0.784   2.326   2.932 -4.0631 -0.8994 -3.3264
  688SOL     OW 2062   2.650   1.912   1.973  0.6687 -0.1663  0.4085
  688SOL    HW1 2063   2.680   1.822   2.005  0.0835 -1.0325 -0.0642
  688SOL    HW2 2064   2.553   1.920   1.949  2.2106  1.4527  3.5099
  689SOL     OW 2065   2.378   0.799   2.154 -0.1814  0.2235 -0.4033
  689SOL    HW1 2066   2.427   0.883   2.128  1.4252 -1.4304  0.9656
  689SOL    HW2 2067   2.346   0.747   2.071 -1.2874 -0.4962 -0.8092
  690SOL     OW 2068   2.235   0.995   1.418 -0.3593  0.2857  0.5475
  690SOL    HW1 2069   2.154   1.017   1.473 -0.7133  1.1151 -0.7056
  690SOL    HW2 2070   2.294   1.076   1.410  0.7257 -2.4092  0.1869
  691SOL     OW 2071   0.778   1.733   1.925  0.3496  0.0130  0.4382
  691SOL    HW1 2072   0.737   1.826   1.930  0.4704 -0.0072  0.4361
  691SOL    HW2 2073   0.878   1.738   1.928  0.7743  0.6166 -1.1541
  692SOL     OW 2074   2.223   0.174   1.392  0.0863  0.0812 -0.4040
  692SOL    HW1 2075   2.261   0.214   1.478 -0.1211 -2.3690 -2.4283
  692SOL    HW2 2076   2.236   0.072   1.390  0.2251 -0.6993 -0.7952
  693SOL     OW 2077   0.676   1.079   1.896  0.1529  0.3732 -0.4989
  693SOL    HW1 2078   0.772   1.089   1.855  0.7535  0.9593  1.0200
  693SOL    HW2 2079   0.657   0.983   1.932 -0.9519 -0.9301  0.7043
  694SOL     OW 2080   1.656   2.541   1.375 -0.5657 -0.4900 -0.0382
  694SOL    HW1 2081   1.728   2.579   1.310  1.2121 -1.8837 -0.7653
  694SOL    HW2 2082   1.560   2.555   1.343  2.3146 -0.1062  3.4091
  695SOL     OW 2083   1.377   1.058   2.032  0.5198  0.0294 -0.0350
  695SOL    HW1 2084   1.428   1.027   2.116 -0.9066  0.0385 -2.2538
  695SOL    HW2 2085   1.433   1.132   1.989 -0.7243 -1.6711  1.2513
  696SOL     OW 2086   1.580   2.939   0.585 -0.3029  0.7332 -0.1271
  696SOL    HW1 2087   1.533   2.849   0.566 -1.0428 -1.7361  0.4610
  696SOL    HW2 2088   1.680   2.924   0.599  0.9795  0.5046 -1.7990
  697SOL     OW 2089   1.225   0.179   0.641  0.0324  0.2455 -0.0037
  697SOL    HW1 2090   1.280   0.259   0.677  2.0733 -0.5669  2.3261
  697SOL    HW2 2091   1.150   0.208   0.577  0.2755  0.0445 -1.9784
  698SOL     OW 2092   1.791   1.039   2.569 -0.0503 -0.5064  0.0805
  698SOL    HW1 2093   1.767   0.955   2.524 -2.5297  0.7539  2.5686
  698SOL    HW2 2094   1.773   1.118   2.502  0.6851 -0.7335 -3.3652
  699SOL     OW 2095   1.227   1.448   1.158  0.0455 -0.2392 -0.0385
  699SOL    HW1 2096   1.193   1.546   1.157  0.0317  0.5413  2.2252
  699SOL    HW2 2097   1.308   1.436   1.219 -0.6665 -2.1601  0.2164
  700SOL     OW 2098   1.459   0.034   0.492  0.5139  0.3668 -0.4720
  700SOL    HW1 2099   1.393   0.074   0.557  0.5148 -0.0554  0.5439
  700SOL    HW2 2100   1.514   3.088   0.541 -1.6765  0.5021 -1.6753
  701SOL     OW 2101   0.632   0.309   1.800  0.4228 -0.3905 -0.5148
  701SOL    HW1 2102   0.673   0.353   1.720 -1.1280 -1.4888 -0.3421
  701SOL    HW2 2103   0.663   0.355   1.885  0.4853 -1.7725 -1.7230
  702SOL     OW 2104   1.218   2.779   0.358  0.2699 -0.2174  0.0429
  702SOL    HW1 2105   1.206   2.879   0.337  0.1081  1.3134 -0.0666
  702SOL    HW2 2106   1.139   2.750   0.414 -2.1534  0.6103  0.5439
  703SOL     OW 2107   2.579   2.807   2.422  0.6595 -0.2667 -0.5359
  703SOL    HW1 2108   2.498   2.833   2.484 -1.5772  0.2840  5.0352
  703SOL    HW2 2109   2.565   2.717   2.377  1.2806  3.0829  0.0098
  704SOL     OW 2110   0.604   2.106   0.543 -0.2335 -0.4949 -0.3316
  704SOL    HW1 2111   0.549   2.180   0.501  0.5064  0.0186  2.6953
  704SOL    HW2 2112   0.604   2.122   0.645  0.7195  0.2831  3.0655
  705SOL     OW 2113   2.958   0.544   2.085  0.2938  0.0471  0.0203
  705SOL    HW1 2114   2.965   0.449   2.114 -0.4203  1.3001 -0.9640
  705SOL    HW2 2115   3.051   0.577   2.054 -1.3946 -1.6457 -0.3381
  706SOL     OW 2116   1.629   2.974   0.313  0.4672 -0.4011 -0.1214
  706SOL    HW1 2117   1.719   2.938   0.337 -3.1155  0.6687 -3.2827
  706SOL    HW2 2118   1.583   3.009   0.395 -0.6541 -0.8120 -0.5906
  707SOL     OW 2119   1.443   1.895   2.089 -0.0549 -0.3178  0.0518
  707SOL    HW1 2120   1.417   1.956   2.012 -0.4097  0.7281  0.7489
  707SOL    HW2 2121   1.395   1.931   2.170  0.7141  0.4431  3.0297
  708SOL     OW 2122   3.020   2.302   1.552  0.5951  0.0513  0.1058
  708SOL    HW1 2123   2.967   2.384   1.558 -0.1400  0.0666  0.1594
  708SOL    HW2 2124   3.077   2.300   1.635 -0.7906  0.9619  0.7407
  709SOL     OW 2125   2.067   0.425   1.801 -0.4514 -0.4365  0.1318
  709SOL    HW1 2126   2.133   0.348   1.819  1.6777 -3.3904  1.1862
  709SOL    HW2 2127   1.984   0.400   1.746 -0.4140 -0.8512  1.9951
  710SOL     OW 2128   2.838   3.059   1.535  0.1049 -0.0165  0.4176
  710SOL    HW1 2129   2.833   0.035   1.538  2.1354 -2.4917  1.4739
  710SOL    HW2 2130   2.766   3.013   1.587 -1.1063  1.4512 -3.6428
  711SOL     OW 2131   0.187   2.406   0.226 -0.0794 -0.1634  0.2290
  711SOL    HW1 2132   0.218   2.373   0.137 -1.9012 -0.3279  1.4319
  711SOL    HW2 2133   0.114   2.346   0.267  0.5360  0.7322  2.8973
  712SOL     OW 2134   0.699   2.139   2.352 -0.0355 -0.3482  0.1604
  712SOL    HW1 2135   0.623   2.104   2.292  1.3399 -0.6696  2.0944
  712SOL    HW2 2136   0.790   2.153   2.305  1.8374 -1.4209 -1.0941
  713SOL     OW 2137   2.103   0.663   0.105 -0.3165  0.5458  0.2115
  713SOL    HW1 2138   2.009   0.634   0.106  1.0214  0.6494  1.4229
  713SOL    HW2 2139   2.124   0.725   0.181  0.1813 -3.1668  0.3729
  714SOL     OW 2140   1.028   1.894   0.388 -0.3482 -0.7126 -0.0082
  714SOL    HW1 2141   0.984   1.965   0.448  0.7234  0.1601  0.1026
  714SOL    HW2 2142   1.128   1.908   0.382  0.2023 -0.8205 -1.4228
  715SOL     OW 2143   1.966   0.231   0.506  0.6494 -0.2465 -0.5686
  715SOL    HW1 2144   1.899   0.292   0.557 -0.4049 -0.3735 -0.2711
  715SOL    HW2 2145   2.044   0.290   0.472 -0.1190 -1.1727 -1.9753
  716SOL     OW 2146   0.686   0.667   1.603  0.0154  0.2765 -0.0915
  716SOL    HW1 2147   0.638   0.657   1.696 -2.1024  0.5533 -1.0159
  716SOL    HW2 2148   0.628   0.699   1.527 -1.9470  2.3844  0.7637
  717SOL     OW 2149   3.121   0.695   3.118 -0.1003 -0.3274  0.1529
  717SOL    HW1 2150   3.070   0.728   3.039 -0.7636 -0.1226 -1.7364
  717SOL    HW2 2151   3.118   0.598   0.012 -0.0444 -1.4470  1.1114
  718SOL     OW 2152   1.193   0.841   0.409 -0.3802 -0.1014 -0.0978
  718SOL    HW1 2153   1.263   0.853   0.484 -1.2273  3.3657  2.6956
  718SOL    HW2 2154   1.183   0.746   0.375 -0.6159  2.0464 -0.0326
  719SOL     OW 2155   2.878   1.927   2.886  0.1489 -0.1877 -0.5020
  719SOL    HW1 2156   2.974   1.893   2.890 -1.4296 -0.7280  0.8627
  719SOL    HW2 2157   2.849   1.949   2.793 -1.6691 -0.2038 -0.2103
  720SOL     OW 2158   1.624   0.914   1.285  0.0159 -0.4124  0.2879
  720SOL    HW1 2159   1.598   0.913   1.185 -0.5488  0.1537 -1.3475
  720SOL    HW2 2160   1.566   0.839   1.327  0.2181 -0.6164  0.7495
  721SOL     OW 2161   2.862   0.751   0.353 -0.2427 -0.0212 -0.9220
  721SOL    HW1 2162   2.936   0.796   0.299 -1.8357 -1.2578 -1.2605
  721SOL    HW2 2163   2.879   0.760   0.452 -2.4155 -2.5689 -0.6122
  722SOL     OW 2164   0.993   1.376   2.634  0.4612 -0.7907 -0.3476
  722SOL    HW1 2165   0.943   1.467   2.631  0.1837  1.4291  1.4262
  722SOL    HW2 2166   0.944   1.298   2.667  1.3513  0.5611  1.1723
  723SOL     OW 2167   0.519   0.984   0.506  0.0667  0.6387  0.4559
  723SOL    HW1 2168   0.509   1.082   0.477  0.4924 -1.8645 -0.0814
  723SOL    HW2 2169   0.431   0.946   0.528 -0.1278  1.1939 -0.0182
  724SOL     OW 2170   0.931   2.463   1.960  0.5446 -0.1517  0.2765
  724SOL    HW1 2171   0.871   2.491   1.882 -2.7335 -1.0424 -1.3689
  724SOL    HW2 2172   1.019   2.509   1.967  0.2782  0.9624  1.2008
  725SOL     OW 2173   2.606   1.045   1.618 -0.8350 -0.4407  0.1753
  725SOL    HW1 2174   2.608   1.146   1.592  3.2027  1.6486 -1.2431
  725SOL    HW2 2175   2.674   1.021   1.690 -1.8039 -0.5806 -0.3036
  726SOL     OW 2176   1.912   2.940   0.350  0.4588  0.2659  0.0833
  726SOL    HW1 2177   1.962   2.961   0.261  0.5380  0.4550  0.6311
  726SOL    HW2 2178   1.926   2.847   0.385  0.7348 -1.0022  1.4832
  727SOL     OW 2179   1.358   0.912   2.612 -0.1837  0.1598  0.2345
  727SOL    HW1 2180   1.347   0.966   2.703  0.2652  0.8321  0.5562
  727SOL    HW2 2181   1.268   0.865   2.602 -2.4352 -1.5966 -0.0983
  728SOL     OW 2182   1.411   2.614   1.232  0.2207  0.4299 -0.2317
  728SOL    HW1 2183   1.306   2.595   1.243 -1.1138 -1.5556  1.8718
  728SOL    HW2 2184   1.433   2.714   1.225 -0.6762  0.3045  2.9372
  729SOL     OW 2185   1.501   0.680   1.462 -0.2041  0.2496  0.3236
  729SOL    HW1 2186   1.433   0.639   1.398  1.4639  0.2034 -0.9058
  729SOL    HW2 2187   1.477   0.680   1.561 -0.6694  2.2608  0.7924
  730SOL     OW 2188   0.668   2.008   1.986  0.0199 -0.5265 -0.7095
  730SOL    HW1 2189   0.738   2.078   1.988 -2.0721 -0.8157  0.3683
  730SOL    HW2 2190   0.596   2.020   2.054  0.5007 -3.4291 -1.2720
  731SOL     OW 2191   0.511   0.284   0.470 -0.1192  0.0923 -0.3859
  731SOL    HW1 2192   0.492   0.331   0.557  0.3609  1.6785 -1.5359
  731SOL    HW2 2193   0.594   0.215   0.477  1.8309 -3.0268  0.4965
  732SOL     OW 2194   0.496   0.523   3.035 -0.2664 -0.3959  0.0506
  732SOL    HW1 2195   0.586   0.550   3.079  2.3624  2.3131  1.9395
  732SOL    HW2 2196   0.416   0.528   3.099 -0.3015  1.9272  1.8923
  733SOL     OW 2197   1.021   2.403   1.186 -0.3155  0.3061 -0.6027
  733SOL    HW1 2198   0.994   2.323   1.244 -0.4969  1.5902 -0.0133
  733SOL    HW2 2199   1.104   2.447   1.219 -2.7964  0.5722 -3.7403
  734SOL     OW 2200   3.031   2.391   2.592 -0.3835 -0.1577  0.3882
  734SOL    HW1 2201   3.064   2.306   2.637 -0.9043 -1.2026  0.7472
  734SOL    HW2 2202   2.970   2.436   2.657  1.1871  1.6039 -1.9504
  735SOL     OW 2203   0.922   2.977   0.984  0.2032 -0.2613 -0.2626
  735SOL    HW1 2204   0.966   3.062   1.022  0.6201  1.8360  2.3883
  735SOL    HW2 2205   0.990   2.945   0.909  0.6930  0.0524 -1.2078
  736SOL     OW 2206   1.468   0.645   3.112  0.5230 -0.3469  0.0127
  736SOL    HW1 2207   1.534   0.604   3.043  1.0190 -0.0476 -3.1486
  736SOL    HW2 2208   1.507   0.643   0.079  0.4524 -0.1923  0.9257
  737SOL     OW 2209   0.086   0.152   0.585  0.1680  0.1360  0.4655
  737SOL    HW1 2210   0.127   0.130   0.679  0.9326  0.5530  1.6510
  737SOL    HW2 2211   0.030   0.236   0.593 -1.1399 -1.1360 -0.2280
  738SOL     OW 2212   2.523   2.868   1.240  0.4734  0.2397 -0.3508
  738SOL    HW1 2213   2.427   2.870   1.199 -0.8533 -0.9483  0.7867
  738SOL    HW2 2214   2.533   2.929   1.324  0.6063 -1.0887  0.6801
  739SOL     OW 2215   1.692   2.534   0.320  0.5889 -0.7404 -0.9370
  739SOL    HW1 2216   1.610   2.594   0.320 -0.1815 -1.2023 -0.9928
  739SOL    HW2 2217   1.734   2.515   0.419  1.1104 -1.6578 -0.5677
  740SOL     OW 2218   1.765   2.912   1.174  0.0929 -0.7543 -0.1649
  740SOL    HW1 2219   1.847   2.970   1.190  0.4413 -2.3105  1.1751
  740SOL    HW2 2220   1.746   2.905   1.075 -0.5532 -0.0286 -1.0595
  741SOL     OW 2221   1.992   0.439   0.868  0.3443 -0.5671 -0.6346
  741SOL    HW1 2222   2.070   0.387   0.910 -0.2268  0.7992  1.9886
  741SOL    HW2 2223   1.985   0.536   0.907 -1.4157  2.2018  0.3114
  742SOL     OW 2224   1.285   2.068   2.248 -0.0719 -0.0038 -0.3895
  742SOL    HW1 2225   1.357   2.102   2.309 -0.3284 -0.7776  1.7628
  742SOL    HW2 2226   1.278   2.123   2.168  0.4702 -0.7979  5.4090
  743SOL     OW 2227   2.466   0.480   1.913  0.7369  0.3541  0.0431
  743SOL    HW1 2228   2.519   0.541   1.850  0.0027 -2.0660  0.3598
  743SOL    HW2 2229   2.511   0.468   2.004 -0.5202 -0.2337 -1.2742
  744SOL     OW 2230   2.283   0.556   1.260  0.0882  0.2081 -0.2367
  744SOL    HW1 2231   2.295   0.622   1.337  1.2765 -0.9353  0.2481
  744SOL    HW2 2232   2.264   0.599   1.170  0.9069 -0.4816 -0.2517
  745SOL     OW 2233   1.892   1.408   1.774 -0.2194  0.3684  0.1482
  745SOL    HW1 2234   1.895   1.354   1.861  0.6581  0.5889 -0.3508
  745SOL    HW2 2235   1.810   1.472   1.785 -0.8239  1.3427  0.6215
  746SOL     OW 2236   1.130   1.381   0.806  0.0494  0.3175  0.0359
  746SOL    HW1 2237   1.225   1.414   0.822  1.8545  0.3756  2.6816
  746SOL    HW2 2238   1.078   1.453   0.758  1.2945 -0.6354 -0.9024
  747SOL     OW 2239   1.468   1.307   1.249  0.3679 -0.1438 -0.4835
  747SOL    HW1 2240   1.440   1.302   1.150 -2.4213 -3.8101 -0.1280
  747SOL    HW2 2241   1.541   1.372   1.269 -0.6851 -0.7297 -0.1590
  748SOL     OW 2242   0.067   3.002   0.505 -0.0881  0.1564  0.1036
  748SOL    HW1 2243   3.104   2.993   0.449  0.1828  2.9793  0.1601
  748SOL    HW2 2244   0.075   3.097   0.542  1.7206  3.4593 -0.4874
  749SOL     OW 2245   0.071   0.164   2.136 -0.2482 -0.1649  0.0415
  749SOL    HW1 2246   0.043   0.138   2.229  0.7898  0.1836  1.1122
  749SOL    HW2 2247   0.158   0.214   2.146 -2.8303 -1.7188  1.7838
  750SOL     OW 2248   1.960   0.216   1.447 -0.4590  0.1970 -0.0515
  750SOL    HW1 2249   1.916   0.237   1.356 -0.9563  1.8660 -0.0657
  750SOL    HW2 2250   2.063   0.200   1.439  2.7717 -0.7963 -1.2890
  751SOL     OW 2251   3.057   0.398   0.615 -0.7993  0.1056 -0.1435
  751SOL    HW1 2252   3.015   0.424   0.701  0.9767  1.2775 -0.6146
  751SOL    HW2 2253   0.001   0.468   0.588 -2.2405 -1.3514  0.0911
  752SOL     OW 2254   0.194   2.633   0.996 -0.1302 -0.6433  0.2946
  752SOL    HW1 2255   0.199   2.730   1.035 -0.8860  1.2140 -0.1879
  752SOL    HW2 2256   0.106   2.616   0.958  3.3733  1.2744  2.7315
  753SOL     OW 2257   1.265   0.209   1.865 -0.6249  1.2609  0.4230
  753SOL    HW1 2258   1.248   0.304   1.898 -1.8373  0.8121 -1.4153
  753SOL    HW2 2259   1.362   0.194   1.843 -4.3459  0.0828  0.5928
  754SOL     OW 2260   1.426   2.526   1.656  0.7666  0.3370  0.1049
  754SOL    HW1 2261   1.515   2.571   1.657 -0.3300 -0.5879 -0.5241
  754SOL    HW2 2262   1.395   2.503   1.750 -0.1755 -0.9013  3.4723
  755SOL     OW 2263   2.753   1.228   0.399  0.2731  0.1530  0.2934
  755SOL    HW1 2264   2.783   1.179   0.484 -0.9187  4.4873  0.4592
  755SOL    HW2 2265   2.657   1.224   0.383 -0.6562  0.5732  1.1606
  756SOL     OW 2266   1.764   1.598   2.561 -0.7121 -0.0643 -0.4012
  756SOL    HW1 2267   1.865   1.606   2.554  2.4964  2.4640  0.5353
  756SOL    HW2 2268   1.749   1.536   2.642 -2.5629  1.2920  0.4587
  757SOL     OW 2269   1.830   2.908   0.665  0.1638 -0.5477  0.7727
  757SOL    HW1 2270   1.901   2.978   0.665  1.4818 -1.1033 -2.3585
  757SOL    HW2 2271   1.870   2.830   0.613  0.9282  0.2890  1.1114
  758SOL     OW 2272   0.654   2.940   0.964  0.1355  0.5582  0.9335
  758SOL    HW1 2273   0.651   2.839   0.941 -1.5109 -1.1439 -1.2062
  758SOL    HW2 2274   0.752   2.971   0.974  2.8431 -2.0734  2.3307
  759SOL     OW 2275   0.020   0.649   0.949 -0.3590 -0.2887 -0.1441
  759SOL    HW1 2276   0.056   0.601   0.864 -0.8102 -2.1713 -2.3580
  759SOL    HW2 2277   0.042   0.744   0.937  2.7527 -1.1673 -1.8156
  760SOL     OW 2278   2.270   1.342   1.287  0.2987  0.3903  0.2117
  760SOL    HW1 2279   2.338   1.268   1.314 -0.2131 -1.5436 -1.4377
  760SOL    HW2 2280   2.176   1.326   1.324  1.9894  0.1166  0.5271
  761SOL     OW 2281   0.995   1.010   1.063 -0.6489  0.1657 -0.2317
  761SOL    HW1 2282   1.046   1.097   1.051 -1.8074 -0.8686  1.0663
  761SOL    HW2 2283   0.997   0.952   0.980  0.3628  0.0741 -2.4170
  762SOL     OW 2284   2.280   2.232   1.369  0.1148  0.5567 -0.2789
  762SOL    HW1 2285   2.298   2.141   1.320 -1.2435 -0.3787 -2.1464
  762SOL    HW2 2286   2.337   2.242   1.456  0.2714  1.6472  2.4040
  763SOL     OW 2287   1.204   1.443   2.160  0.9350 -0.0815 -0.5199
  763SOL    HW1 2288   1.276   1.511   2.183 -2.3981  1.4402 -3.0479
  763SOL    HW2 2289   1.223   1.420   2.064  0.8488 -0.7635  1.2498
  764SOL     OW 2290   3.025   1.804   2.337 -0.4971 -0.3668  0.0133
  764SOL    HW1 2291   3.105   1.845   2.290  0.9757  1.3610 -1.9304
  764SOL    HW2 2292   3.044   1.705   2.353  0.8044 -1.9885 -2.0946
  765SOL     OW 2293   1.133   2.632   1.396  1.0526 -0.0885  0.4448
  765SOL    HW1 2294   1.209   2.657   1.459 -0.9311  1.7949  0.4703
  765SOL    HW2 2295   1.083   2.712   1.349 -1.3002  0.6087  1.0094
  766SOL     OW 2296   0.794   2.337   2.562  0.0645  0.4615  0.5198
  766SOL    HW1 2297   0.725   2.329   2.637 -0.2552 -0.0306  0.6090
  766SOL    HW2 2298   0.780   2.261   2.494  1.5158 -0.6116  1.9648
  767SOL     OW 2299   1.616   0.575   2.866 -0.1610 -0.6514 -0.5433
  767SOL    HW1 2300   1.686   0.499   2.851  0.7558 -0.9394  0.4185
  767SOL    HW2 2301   1.608   0.654   2.801  0.8929  0.3913  1.1553
  768SOL     OW 2302   1.175   2.571   2.969 -0.2259  0.0662  0.0904
  768SOL    HW1 2303   1.269   2.576   2.930  1.1650 -0.2763  1.3914
  768SOL    HW2 2304   1.144   2.474   2.982 -1.5530 -1.2657 -0.9467
  769SOL     OW 2305   3.035   2.796   1.189  0.6125  0.1016 -0.1772
  769SOL    HW1 2306   2.977   2.868   1.236 -2.4806 -0.7803  0.5128
  769SOL    HW2 2307   0.001   2.837   1.153 -0.4340  0.5286  0.5395
  770SOL     OW 2308   0.803   0.106   2.801 -0.3078  0.0765 -0.2338
  770SOL    HW1 2309   0.881   0.043   2.809 -1.1224 -0.9696  0.4206
  770SOL    HW2 2310   0.760   0.111   2.890  1.0855 -1.5708 -1.8637
  771SOL     OW 2311   0.672   2.980   2.419 -0.1549 -0.1611 -0.4883
  771SOL    HW1 2312   0.636   3.052   2.482 -0.7590 -0.5561  0.6935
  771SOL    HW2 2313   0.768   2.959   2.453  0.4076 -2.3190 -0.2085
  772SOL     OW 2314   2.408   3.055   2.129 -0.1012  0.4542 -0.0077
  772SOL    HW1 2315   2.495   3.068   2.178 -1.6011  0.4382  1.3047
  772SOL    HW2 2316   2.393   2.956   2.101 -0.5549 -1.8642 -1.3138
  773SOL     OW 2317   0.712   2.582   1.807  0.0340 -0.3894 -0.1189
  773SOL    HW1 2318   0.705   2.545   1.712  1.0790  2.6422 -0.1957
  773SOL    HW2 2319   0.633   2.541   1.862  3.3933 -1.1461 -0.8865
  774SOL     OW 2320   1.280   0.398   2.186  0.2484 -0.4387  0.2975
  774SOL    HW1 2321   1.330   0.307   2.199  0.8352  1.7349  0.0104
  774SOL    HW2 2322   1.236   0.405   2.097  1.1104 -1.8931  2.7212
  775SOL     OW 2323   2.128   2.690   2.861 -0.0536 -0.3586  0.0591
  775SOL    HW1 2324   2.059   2.632   2.905 -1.0758 -4.0107  0.4507
  775SOL    HW2 2325   2.212   2.631   2.854  1.2349  0.2103  0.0979
  776SOL     OW 2326   1.944   0.649   2.160 -0.1038 -0.0186 -0.2955
  776SOL    HW1 2327   2.001   0.728   2.180 -2.6380  0.5250  0.8713
  776SOL    HW2 2328   1.918   0.645   2.061  1.1317 -0.4732 -2.3901
  777SOL     OW 2329   2.918   1.137   2.275 -0.1581 -0.0671 -0.8264
  777SOL    HW1 2330   2.860   1.092   2.350  2.5599 -1.5182  2.5223
  777SOL    HW2 2331   2.901   1.239   2.276 -1.1112  1.3115  0.1198
  778SOL     OW 2332   2.170   0.546   2.279  0.6706 -0.0012  0.6941
  778SOL    HW1 2333   2.214   0.620   2.332  1.2745  2.7497  0.8173
  778SOL    HW2 2334   2.092   0.578   2.226  3.1254 -1.3879  1.0001
  779SOL     OW 2335   3.061   0.068   0.197  0.2527  0.3481 -0.6303
  779SOL    HW1 2336   3.030   0.134   0.269 -1.8441  1.5032 -1.0012
  779SOL    HW2 2337   0.030   0.098   0.168  0.8183  3.1251 -0.0747
  780SOL     OW 2338   2.475   0.169   2.596 -0.4093 -0.4898  0.2250
  780SOL    HW1 2339   2.487   0.272   2.590  0.4880  3.8175  0.0933
  780SOL    HW2 2340   2.411   0.132   2.523  0.4556 -1.2989  3.7607
  781SOL     OW 2341   0.098   3.104   1.560  0.3394  0.1451  0.4294
  781SOL    HW1 2342   0.047   3.020   1.526 -0.6123 -1.8838 -0.1708
  781SOL    HW2 2343   0.116   0.041   1.484  1.2336 -2.8822  1.8641
  782SOL     OW 2344   1.790   2.602   0.074  0.2070 -0.0887 -0.0581
  782SOL    HW1 2345   1.712   2.598   0.006  0.5983  0.8246 -1.1653
  782SOL    HW2 2346   1.749   2.579   0.166  0.4918 -3.2052  1.5265
  783SOL     OW 2347   0.767   1.389   1.781 -0.0769  0.5293  0.4116
  783SOL    HW1 2348   0.735   1.369   1.875  1.4320  2.3258 -3.1140
  783SOL    HW2 2349   0.854   1.435   1.795 -0.0001 -0.8442 -1.5195
  784SOL     OW 2350   1.775   0.532   2.338 -0.2506  0.8200 -0.0717
  784SOL    HW1 2351   1.676   0.516   2.310 -1.6360  1.0370  0.4609
  784SOL    HW2 2352   1.826   0.569   2.258  0.0408 -0.4895 -2.3698
  785SOL     OW 2353   2.974   0.460   0.863  0.2757  0.5545  0.1112
  785SOL    HW1 2354   3.021   0.529   0.928  0.6714  1.3422  2.6980
  785SOL    HW2 2355   2.879   0.433   0.897 -0.8558  0.4050 -3.2647
  786SOL     OW 2356   1.881   0.114   0.983  0.3391  0.1851  0.1168
  786SOL    HW1 2357   1.891   0.180   1.059  0.3796 -1.8445  1.5411
  786SOL    HW2 2358   1.788   0.086   0.966 -1.7571 -0.0946 -1.4707
  787SOL     OW 2359   1.326   2.968   1.061  0.4632 -0.3550 -0.0390
  787SOL    HW1 2360   1.292   3.044   1.118  1.4538  0.2010  0.4132
  787SOL    HW2 2361   1.396   2.909   1.111 -0.4066 -0.9762  0.2003
  788SOL     OW 2362   0.019   0.853   0.608  0.2156  0.3701  0.6351
  788SOL    HW1 2363   0.007   0.948   0.586 -2.0939  2.1374  0.5365
  788SOL    HW2 2364   3.058   0.803   0.593  0.4686  0.2368 -1.6452
  789SOL     OW 2365   0.444   1.131   2.053  0.0155  0.0306  0.7520
  789SOL    HW1 2366   0.528   1.101   1.999  3.4929  0.8738  1.3385
  789SOL    HW2 2367   0.439   1.236   2.057  2.0338 -0.7217 -0.2632
  790SOL     OW 2368   0.436   0.738   2.811  0.5295 -0.5164  0.2762
  790SOL    HW1 2369   0.455   0.650   2.854  0.4736  1.3641 -3.7197
  790SOL    HW2 2370   0.517   0.785   2.782 -0.2817  1.2661  0.6109
  791SOL     OW 2371   2.362   0.457   0.353  0.1590  0.2664 -0.2874
  791SOL    HW1 2372   2.280   0.420   0.402  0.4141 -0.6849  1.4576
  791SOL    HW2 2373   2.379   0.539   0.413  0.5712 -0.1250  0.0528
  792SOL     OW 2374   1.190   0.347   1.251 -0.1185 -0.3485 -0.4526
  792SOL    HW1 2375   1.237   0.431   1.286 -1.2425 -2.9538  2.2163
  792SOL    HW2 2376   1.129   0.315   1.323  0.7035 -3.2944 -0.4730
  793SOL     OW 2377   0.164   2.880   1.162 -0.0054  0.5325  0.3531
  793SOL    HW1 2378   0.239   2.853   1.228 -0.0057 -2.0124  1.6865
  793SOL    HW2 2379   0.144   2.982   1.161 -0.6789  2.6762  0.9101
  794SOL     OW 2380   0.082   0.643   2.046  0.1144  0.6453 -0.3030
  794SOL    HW1 2381   0.091   0.694   2.134  2.1397  0.2768  0.1695
  794SOL    HW2 2382   0.175   0.608   2.015 -0.5619  0.6018 -0.9649
  795SOL     OW 2383   0.423   2.394   2.645  0.4042  1.0266  0.0717
  795SOL    HW1 2384   0.442   2.444   2.561 -0.8215 -2.1495  2.9207
  795SOL    HW2 2385   0.403   2.455   2.723  1.9612 -0.5976 -1.8794
  796SOL     OW 2386   2.104   0.331   2.451 -0.2686 -0.1740 -0.1823
  796SOL    HW1 2387   2.123   0.410   2.388 -0.1650  1.0923 -1.4782
  796SOL    HW2 2388   2.013   0.339   2.492  0.7594 -2.0319 -0.0828
  797SOL     OW 2389   2.729   2.261   2.787  0.3477  0.6577  0.2740
  797SOL    HW1 2390   2.634   2.224   2.805 -3.9230  2.5706  1.0263
  797SOL    HW2 2391   2.731   2.359   2.817  0.1847  0.3906 -0.5910
  798SOL     OW 2392   0.294   0.595   1.608 -0.3482  0.1706  0.7340
  798SOL    HW1 2393   0.319   0.527   1.681  0.0786  1.0041 -0.1043
  798SOL    HW2 2394   0.254   0.676   1.652 -0.3543 -1.7541 -3.1540
  799SOL     OW 2395   0.891   0.137   1.861 -0.5009 -0.5124 -0.1819
  799SOL    HW1 2396   0.815   0.087   1.828  2.1484 -1.6997  2.7358
  799SOL    HW2 2397   0.894   0.113   1.961 -0.5432  0.5224  0.2751
  800SOL     OW 2398   3.015   2.695   0.255  0.0483  0.4404  0.2983
  800SOL    HW1 2399   3.072   2.678   0.168 -0.9265 -0.6388 -1.0549
  800SOL    HW2 2400   2.984   2.792   0.259  0.8846  3.6262  1.6969
  801SOL     OW 2401   1.753   1.798   0.832 -0.1847 -0.5896 -0.7434
  801SOL    HW1 2402   1.683   1.840   0.776  1.2892  0.6742 -1.5499
  801SOL    HW2 2403   1.753   1.847   0.917 -0.5445  0.9013 -1.3020
  802SOL     OW 2404   0.677   0.665   0.376  0.8003  0.0319  0.2922
  802SOL    HW1 2405   0.652   0.679   0.474 -0.2216 -1.1849 -2.2395
  802SOL    HW2 2406   0.653   0.748   0.329 -2.7576  2.2382  0.9715
  803SOL     OW 2407   1.412   1.028   2.351 -0.4465 -0.5882  0.4935
  803SOL    HW1 2408   1.403   0.989   2.449 -2.4825 -1.2223  0.1659
  803SOL    HW2 2409   1.346   1.103   2.340 -1.7061 -1.0570 -2.5909
  804SOL     OW 2410   2.099   2.115   0.926  0.0287 -0.6744  0.0476
  804SOL    HW1 2411   2.129   2.172   1.002 -0.1430 -1.7782 -0.2537
  804SOL    HW2 2412   2.124   2.019   0.947  0.0379  2.7229 -3.0283
  805SOL     OW 2413   0.379   1.912   2.627  0.2582  0.0985  0.1419
  805SOL    HW1 2414   0.358   2.012   2.604  0.7364  2.2477 -1.5625
  805SOL    HW2 2415   0.294   1.860   2.593  1.4388 -0.1000  2.3773
  806SOL     OW 2416   0.647   2.600   0.407 -0.9586 -0.0958  0.0831
  806SOL    HW1 2417   0.692   2.676   0.350  2.2369  1.5118  0.2157
  806SOL    HW2 2418   0.602   2.640   0.492 -1.0360 -1.1350 -0.3699
  807SOL     OW 2419   2.487   0.945   2.904 -0.3943 -0.1808 -0.5287
  807SOL    HW1 2420   2.532   0.864   2.952  0.7343  0.3509 -2.2857
  807SOL    HW2 2421   2.449   1.009   2.973  2.5928 -0.5366 -1.4449
  808SOL     OW 2422   1.675   2.175   0.930 -0.3682 -0.2086  0.1578
  808SOL    HW1 2423   1.763   2.165   0.877  0.7399  1.2529 -0.1566
  808SOL    HW2 2424   1.692   2.171   1.032  0.6219 -1.1839  2.2681
  809SOL     OW 2425   0.325   0.478   0.621 -0.0207 -0.6358 -0.2826
  809SOL    HW1 2426   0.396   0.554   0.615 -1.3285  2.7010  1.6395
  809SOL    HW2 2427   0.341   0.422   0.705 -1.0334 -2.5880 -1.4089
  810SOL     OW 2428   1.361   1.523   0.228  0.4267 -0.0466 -0.1005
  810SOL    HW1 2429   1.370   1.592   0.156 -2.9544 -0.3211  0.2649
  810SOL    HW2 2430   1.426   1.534   0.309  1.7469  0.9720 -1.3941
  811SOL     OW 2431   1.387   3.014   1.482  0.3699  0.0204  0.3962
  811SOL    HW1 2432   1.458   3.072   1.524 -0.7000 -1.0196  0.1508
  811SOL    HW2 2433   1.306   3.071   1.462  1.0544 -0.2453  0.6075
  812SOL     OW 2434   1.616   3.123   0.930  0.9334 -0.3958 -0.0895
  812SOL    HW1 2435   1.637   3.024   0.916 -0.3713  1.3416  0.2049
  812SOL    HW2 2436   1.530   0.014   0.983 -1.2836  1.8264  0.5480
  813SOL     OW 2437   1.498   2.847   2.076  0.2557 -0.6375  0.2884
  813SOL    HW1 2438   1.448   2.780   2.131  0.7177  1.0698 -0.7906
  813SOL    HW2 2439   1.541   2.808   1.993  0.1898 -1.2259 -3.0206
  814SOL     OW 2440   1.131   2.628   1.972  0.0505 -0.6378 -0.2160
  814SOL    HW1 2441   1.089   2.712   1.928 -2.1743 -0.3685 -3.6786
  814SOL    HW2 2442   1.221   2.645   2.015 -1.6112 -1.5906 -3.2351
  815SOL     OW 2443   0.535   0.260   2.995  0.1630  0.3512  0.0897
  815SOL    HW1 2444   0.627   0.229   3.019 -0.3502 -0.1819  2.1311
  815SOL    HW2 2445   0.533   0.359   3.005  1.8091 -1.2107  1.2559
  816SOL     OW 2446   2.379   1.060   0.039 -0.0690  0.1471 -0.0660
  816SOL    HW1 2447   2.446   1.139   0.029  2.9643 -1.1128  1.2760
  816SOL    HW2 2448   2.401   1.003   0.125  1.6520 -0.2224  1.5747
  817SOL     OW 2449   2.857   2.382   2.363  0.1807 -0.0518  0.5034
  817SOL    HW1 2450   2.918   2.372   2.446  0.3319  0.0228 -2.1107
  817SOL    HW2 2451   2.883   2.461   2.303  0.1786  0.0904  0.5944
  818SOL     OW 2452   0.934   1.400   0.362 -0.1241  0.3677  0.2834
  818SOL    HW1 2453   0.853   1.406   0.423 -1.5435  1.3799  0.8253
  818SOL    HW2 2454   0.907   1.385   0.267 -0.0677  0.1565 -0.5466
  819SOL     OW 2455   1.760   1.465   2.798  0.0352  0.5485 -0.0257
  819SOL    HW1 2456   1.746   1.367   2.796 -3.6356 -1.6076 -2.7041
  819SOL    HW2 2457   1.791   1.492   2.892 -0.1736  0.9327 -3.0591
  820SOL     OW 2458   0.558   1.239   0.444  0.0423  0.5736 -0.1501
  820SOL    HW1 2459   0.633   1.301   0.475  2.6411  1.4166  0.6007
  820SOL    HW2 2460   0.543   1.228   0.343 -0.3615  0.5987  0.3512
  821SOL     OW 2461   0.463   3.060   1.165 -0.2533 -0.1352  0.2732
  821SOL    HW1 2462   0.498   3.006   1.088  0.1175  0.8722 -0.0716
  821SOL    HW2 2463   0.432   2.997   1.243 -1.4041  0.5647  0.4680
  822SOL     OW 2464   2.011   1.948   2.880  0.2233  0.4645 -0.1063
  822SOL    HW1 2465   2.031   2.018   2.952 -1.0067 -0.6311 -1.2212
  822SOL    HW2 2466   1.916   1.960   2.841  0.3087  1.0618  0.3649
  823SOL     OW 2467   0.713   0.868   2.500 -0.2586 -0.8845  0.4685
  823SOL    HW1 2468   0.739   0.778   2.545 -2.2698  1.3542  0.4944
  823SOL    HW2 2469   0.673   0.852   2.405 -1.0742 -1.5002 -0.0378
  824SOL     OW 2470   2.636   2.659   1.623 -0.1824  0.6463 -0.2225
  824SOL    HW1 2471   2.607   2.612   1.710  0.9492 -1.5176  1.5580
  824SOL    HW2 2472   2.622   2.760   1.634 -0.0976  1.7680  0.8308
  825SOL     OW 2473   0.211   1.779   2.456  0.4104 -0.0099  0.2635
  825SOL    HW1 2474   0.175   1.850   2.382 -2.2619  1.5777 -2.2444
  825SOL    HW2 2475   0.153   1.696   2.464 -0.0822 -1.2663  3.0313
  826SOL     OW 2476   1.567   0.211   0.059  0.2853 -0.0322  0.3746
  826SOL    HW1 2477   1.605   0.306   0.052 -0.9830  1.5600  2.0822
  826SOL    HW2 2478   1.644   0.142   0.056  2.1813 -1.8630 -0.6442
  827SOL     OW 2479   0.034   1.876   1.938  0.0254 -0.0844  0.1646
  827SOL    HW1 2480   3.085   1.807   1.956 -1.3363  0.1867 -0.8544
  827SOL    HW2 2481   0.114   1.829   1.893 -0.3182  0.5671 -2.7710
  828SOL     OW 2482   0.205   0.199   1.362 -0.0436  0.3251  0.3022
  828SOL    HW1 2483   0.155   0.283   1.387 -2.2307  1.0023 -5.0186
  828SOL    HW2 2484   0.295   0.218   1.317 -1.1814 -0.2434 -1.8291
  829SOL     OW 2485   1.073   1.794   2.514  0.2124 -0.2627  0.1647
  829SOL    HW1 2486   1.072   1.860   2.592 -1.9421 -2.6133  0.0071
  829SOL    HW2 2487   1.002   1.725   2.527  2.7223  0.9726 -1.3128
  830SOL     OW 2488   0.890   0.811   1.448  0.4439  0.2842  1.2296
  830SOL    HW1 2489   0.853   0.836   1.358 -2.4263  0.4685  1.3155
  830SOL    HW2 2490   0.812   0.770   1.501  1.2686 -0.9439  1.5884
  831SOL     OW 2491   2.603   1.445   2.930  0.2062 -0.8255 -0.3972
  831SOL    HW1 2492   2.608   1.451   2.832  3.3089  0.9291 -0.7392
  831SOL    HW2 2493   2.700   1.444   2.963  1.2319  0.6040  4.8841
  832SOL     OW 2494   1.160   2.263   2.940 -0.1633 -0.0262  0.1148
  832SOL    HW1 2495   1.062   2.294   2.936 -0.7344  0.5727 -0.1619
  832SOL    HW2 2496   1.185   2.207   2.854  2.3696 -0.4083 -4.6615
  833SOL     OW 2497   0.346   0.358   1.773 -0.1682  0.2092  0.0525
  833SOL    HW1 2498   0.443   0.337   1.793 -1.1776  0.5902 -3.2656
  833SOL    HW2 2499   0.292   0.276   1.760  1.3823  1.9582 -1.6019
  834SOL     OW 2500   0.025   0.922   1.182 -0.0962  0.1592  0.1429
  834SOL    HW1 2501   0.040   1.017   1.222  0.2848  2.7792 -1.0561
  834SOL    HW2 2502   0.100   0.895   1.116  1.5505  2.0325  1.5782
  835SOL     OW 2503   2.740   0.517   0.568 -0.5140  0.0778  0.1630
  835SOL    HW1 2504   2.830   0.480   0.537  2.9094  1.8992 -0.9786
  835SOL    HW2 2505   2.660   0.451   0.568  1.4925  0.0045 -0.9849
  836SOL     OW 2506   0.724   2.404   0.091 -0.0244  0.3549  0.1664
  836SOL    HW1 2507   0.775   2.412   0.178 -1.6240 -0.6298  1.4162
  836SOL    HW2 2508   0.761   2.323   0.045  2.6737  3.0601  0.3084
  837SOL     OW 2509   1.521   2.103   0.490  0.0186  0.5520 -0.4306
  837SOL    HW1 2510   1.563   2.162   0.423  0.7711  0.1835  0.3485
  837SOL    HW2 2511   1.425   2.132   0.511  1.1712 -0.8502 -1.7363
  838SOL     OW 2512   2.140   0.878   2.262 -0.0175  0.2494 -0.7099
  838SOL    HW1 2513   2.236   0.885   2.222  1.5589 -1.4641  2.5091
  838SOL    HW2 2514   2.153   0.826   2.352 -2.3220 -2.9208  0.5213
  839SOL     OW 2515   1.301   1.032   2.868 -0.2618  0.5612 -0.2401
  839SOL    HW1 2516   1.202   1.049   2.890 -2.2743  2.4703 -2.0872
  839SOL    HW2 2517   1.338   0.984   2.950 -0.7340 -0.5685  1.1481
  840SOL     OW 2518   0.888   1.306   0.102 -0.0175 -0.2203 -0.2596
  840SOL    HW1 2519   0.888   1.219   0.153 -1.2166 -2.6470  1.1070
  840SOL    HW2 2520   0.792   1.321   0.068 -0.8866  0.2464 -1.6695
  841SOL     OW 2521   1.283   2.165   0.032 -0.4008  0.1031  0.2597
  841SOL    HW1 2522   1.335   2.243   0.074  1.0055  0.5633 -1.0950
  841SOL    HW2 2523   1.235   2.190   3.066 -2.0844 -1.2736  0.2632
  842SOL     OW 2524   0.218   0.426   0.362  0.0931 -0.4155 -0.0223
  842SOL    HW1 2525   0.275   0.459   0.441  1.4971 -1.1578  0.3698
  842SOL    HW2 2526   0.274   0.359   0.309 -0.1150 -2.2310  0.3867
  843SOL     OW 2527   0.615   0.777   1.039  0.1684  0.0242  0.0403
  843SOL    HW1 2528   0.622   0.863   0.984  0.7124 -0.6855 -1.5459
  843SOL    HW2 2529   0.523   0.737   1.040 -0.2017 -0.7341  1.7228
  844SOL     OW 2530   2.304   2.641   2.512 -0.8889  0.2695 -0.2461
  844SOL    HW1 2531   2.318   2.738   2.548 -0.2079  3.8119  2.0529
  844SOL    HW2 2532   2.210   2.637   2.472 -2.3549  1.4511 -0.7315
  845SOL     OW 2533   2.912   2.776   1.891 -0.1476 -0.3135 -0.4434
  845SOL    HW1 2534   2.987   2.841   1.925  1.3495 -1.2368 -1.6297
  845SOL    HW2 2535   2.900   2.774   1.790  1.2048 -0.9448 -0.3183
  846SOL     OW 2536   2.022   0.934   2.635 -0.5291 -0.3016 -0.8196
  846SOL    HW1 2537   1.988   0.872   2.707 -1.7711  0.5934  0.1138
  846SOL    HW2 2538   1.942   0.995   2.600 -2.0162 -2.0860  0.3988
  847SOL     OW 2539   2.905   0.360   1.817  0.1249 -0.2290  0.0799
  847SOL    HW1 2540   2.853   0.446   1.832  0.2460 -0.7896 -1.9288
  847SOL    HW2 2541   2.940   0.330   1.905  1.8562  0.8259 -0.8028
  848SOL     OW 2542   2.589   2.808   0.052  0.2800  0.1494  0.1134
  848SOL    HW1 2543   2.670   2.832   3.121  0.2980 -0.8915  2.7900
  848SOL    HW2 2544   2.554   2.714   0.025 -0.0705  1.2653 -1.1275
  849SOL     OW 2545   0.637   3.113   0.658 -0.4048 -0.3371  0.3768
  849SOL    HW1 2546   0.670   3.018   0.662 -0.6007  0.0701  0.3049
  849SOL    HW2 2547   0.537   3.117   0.679 -0.3785  0.8426  1.1773
  850SOL     OW 2548   0.846   2.441   0.523 -0.3125 -0.0397  0.5886
  850SOL    HW1 2549   0.771   2.499   0.492 -2.4884  1.5926  3.2472
  850SOL    HW2 2550   0.899   2.413   0.443 -1.2066  2.3828 -0.4921
  851SOL     OW 2551   1.829   0.405   2.882 -0.0915  0.2456  0.3833
  851SOL    HW1 2552   1.917   0.441   2.842  2.3216  0.0260 -1.5072
  851SOL    HW2 2553   1.839   0.303   2.891  0.1225  1.2955  1.9797
  852SOL     OW 2554   1.574   2.520   2.602 -0.4016  0.1753  0.1544
  852SOL    HW1 2555   1.550   2.506   2.505  0.5372 -0.3009  2.6426
  852SOL    HW2 2556   1.666   2.475   2.626 -0.0830 -0.0226 -0.6261
  853SOL     OW 2557   0.045   2.569   0.057  0.5005 -0.4127  0.2270
  853SOL    HW1 2558   0.092   2.556   3.091  0.2168  0.7702 -0.0103
  853SOL    HW2 2559   0.099   2.527   0.128 -1.0759  1.0725 -3.0310
  854SOL     OW 2560   1.139   0.497   2.537  0.3248  0.5541  0.3878
  854SOL    HW1 2561   1.223   0.440   2.548 -0.5065 -1.1798  2.6665
  854SOL    HW2 2562   1.106   0.524   2.630  0.3823  0.8788 -3.8096
  855SOL     OW 2563   0.299   2.895   0.509 -0.1328 -0.4324  0.0661
  855SOL    HW1 2564   0.199   2.917   0.523  1.1138 -0.2448 -0.4743
  855SOL    HW2 2565   0.320   2.882   0.410 -0.7354 -2.3047 -3.7845
  856SOL     OW 2566   0.362   2.952   2.549 -0.4416 -0.0452 -0.1880
  856SOL    HW1 2567   0.354   2.866   2.493 -0.4348  2.5411 -0.6662
  856SOL    HW2 2568   0.407   2.934   2.640  0.2921  0.1413 -1.5621
  857SOL     OW 2569   1.130   3.121   1.751  0.1099 -0.0417 -0.7203
  857SOL    HW1 2570   1.034   0.021   1.774 -0.6475  0.5973 -0.9886
  857SOL    HW2 2571   1.185   0.074   1.782 -3.6828 -1.8533  0.1243
  858SOL     OW 2572   0.222   1.866   1.568  0.3413  0.3892  0.1502
  858SOL    HW1 2573   0.286   1.946   1.561 -1.8775 -1.3726 -0.8145
  858SOL    HW2 2574   0.217   1.827   1.472 -0.3725  1.0609 -0.1146
  859SOL     OW 2575   1.979   2.774   1.910 -0.1097  0.1332  0.2501
  859SOL    HW1 2576   2.080   2.768   1.911 -1.7808  5.0461  0.4818
  859SOL    HW2 2577   1.932   2.687   1.883 -0.4163  0.2164 -1.3543
  860SOL     OW 2578   1.790   0.364   0.677  0.0721 -0.2705  0.2370
  860SOL    HW1 2579   1.733   0.291   0.717 -0.0943 -1.9281  0.7991
  860SOL    HW2 2580   1.868   0.388   0.742  0.4791  1.0007  0.0624
  861SOL     OW 2581   2.888   0.745   0.618  0.3450 -0.3155 -0.0011
  861SOL    HW1 2582   2.824   0.669   0.600 -0.8194  1.0947  1.1100
  861SOL    HW2 2583   2.905   0.770   0.716 -4.2682 -0.1119 -2.3291
  862SOL     OW 2584   1.841   0.619   1.892  0.1919 -0.0214  0.0563
  862SOL    HW1 2585   1.873   0.531   1.854 -2.3379  0.4076 -1.3905
  862SOL    HW2 2586   1.892   0.692   1.845  0.4924 -1.4569 -2.0074
  863SOL     OW 2587   0.876   0.691   0.961  0.4726 -0.3636 -0.5452
  863SOL    HW1 2588   0.791   0.696   1.019 -0.4195  3.2914  0.0313
  863SOL    HW2 2589   0.933   0.611   0.992  1.4129 -0.4258 -2.7006
  864SOL     OW 2590   3.095   2.886   2.376 -0.5010 -0.2072  0.2678
  864SOL    HW1 2591   3.002   2.847   2.360 -1.4539  0.2083  2.7152
  864SOL    HW2 2592   0.011   2.846   2.459 -1.6948 -0.2391 -1.2172
  865SOL     OW 2593   1.130   0.783   2.561  1.0554 -0.6438  0.4200
  865SOL    HW1 2594   1.120   0.686   2.533 -1.8936 -0.9966 -0.1260
  865SOL    HW2 2595   1.093   0.790   2.655  1.1373 -0.6757 -0.7992
  866SOL     OW 2596   2.668   2.703   0.462 -0.3173 -0.1188  0.2207
  866SOL    HW1 2597   2.588   2.718   0.521  0.3794  2.5712  0.7312
  866SOL    HW2 2598   2.749   2.694   0.520 -0.4211  1.5456  0.2920
  867SOL     OW 2599   2.995   2.972   0.325  0.2149  0.1922 -0.1144
  867SOL    HW1 2600   2.903   2.941   0.299  1.5036  1.6809  0.5205
  867SOL    HW2 2601   3.009   3.071   0.301  0.8169  1.7477  1.2259
  868SOL     OW 2602   1.788   1.059   0.128 -0.3532 -0.2215  0.3576
  868SOL    HW1 2603   1.697   1.094   0.108 -0.4223 -0.4119  0.0867
  868SOL    HW2 2604   1.839   1.118   0.191 -3.0080  0.8391  1.4124
  869SOL     OW 2605   3.029   2.255   0.595  0.0377  0.0050 -0.2740
  869SOL    HW1 2606   2.933   2.247   0.569 -1.5628 -1.5671  0.8243
  869SOL    HW2 2607   3.081   2.284   0.507 -0.0971  0.2758 -0.6942
  870SOL     OW 2608   2.175   2.049   0.369  0.1140 -0.5783 -0.4188
  870SOL    HW1 2609   2.208   2.016   0.460  1.6843  0.5117  0.4840
  870SOL    HW2 2610   2.180   1.980   0.289  0.9058 -0.9588 -0.4700
  871SOL     OW 2611   0.668   1.219   1.072  0.3098  0.0698 -0.4785
  871SOL    HW1 2612   0.654   1.149   1.136 -0.7463  2.7519 -0.1426
  871SOL    HW2 2613   0.725   1.293   1.114  1.7507  1.4250 -1.2224
  872SOL     OW 2614   0.998   2.070   2.336 -0.0676  0.5430  0.2339
  872SOL    HW1 2615   1.095   2.102   2.317  0.2738  2.1576 -0.5360
  872SOL    HW2 2616   0.976   1.986   2.285  0.1062  2.2718  0.2038
  873SOL     OW 2617   0.555   2.459   1.984  0.2479  0.4776  0.1832
  873SOL    HW1 2618   0.614   2.467   2.066  0.4139 -0.7606  0.8069
  873SOL    HW2 2619   0.459   2.432   2.004 -2.8614 -0.4208  0.9768
  874SOL     OW 2620   0.985   0.084   1.138  0.6294  0.4086 -0.0296
  874SOL    HW1 2621   1.003   0.129   1.227 -2.6729  1.7563 -1.6740
  874SOL    HW2 2622   0.884   0.064   1.133  1.7856 -3.7450 -2.2541
  875SOL     OW 2623   2.879   0.434   1.264 -0.4360  0.0773  0.4512
  875SOL    HW1 2624   2.946   0.508   1.242  0.3828 -0.4107  2.7479
  875SOL    HW2 2625   2.869   0.430   1.365  0.3006  1.1940  2.0963
  876SOL     OW 2626   0.634   0.908   0.260 -0.5893  0.1317  0.0229
  876SOL    HW1 2627   0.575   0.941   0.338 -0.2440 -1.4645 -1.9071
  876SOL    HW2 2628   0.573   0.909   0.180  0.3978  0.8076  1.0909
  877SOL     OW 2629   0.744   0.417   1.554 -0.4262  0.3365  0.7361
  877SOL    HW1 2630   0.835   0.377   1.579  1.1588 -3.2987  0.1566
  877SOL    HW2 2631   0.732   0.517   1.570 -0.1492  0.7829  0.4086
  878SOL     OW 2632   2.173   2.755   0.204 -0.3188  0.4654 -0.0760
  878SOL    HW1 2633   2.170   2.800   0.113  0.9566 -1.2966 -0.2675
  878SOL    HW2 2634   2.251   2.789   0.260 -0.2652 -0.3716  0.2015
  879SOL     OW 2635   2.598   1.604   1.368  0.0803 -0.3296 -0.2847
  879SOL    HW1 2636   2.582   1.533   1.298  0.5894 -0.6139 -2.9489
  879SOL    HW2 2637   2.522   1.669   1.374  1.0519  0.9267 -1.9548
  880SOL     OW 2638   1.391   2.453   0.601 -1.3463 -0.6096 -0.9421
  880SOL    HW1 2639   1.472   2.399   0.635 -0.6697 -0.1486 -0.0967
  880SOL    HW2 2640   1.333   2.389   0.544 -0.3244 -2.9629 -2.1388
  881SOL     OW 2641   0.943   2.416   0.278 -0.3968 -0.3362 -0.3568
  881SOL    HW1 2642   0.963   2.488   0.207  0.2627  2.5549 -2.1136
  881SOL    HW2 2643   1.007   2.339   0.258  2.0716 -0.3037  1.3817
  882SOL     OW 2644   1.834   0.732   1.289  0.3891 -0.2265 -0.0926
  882SOL    HW1 2645   1.809   0.672   1.370 -0.7561 -0.4013  2.1729
  882SOL    HW2 2646   1.772   0.816   1.288 -0.3371  0.2015  1.1739
  883SOL     OW 2647   1.674   0.891   1.761 -0.4249 -0.2282 -0.5331
  883SOL    HW1 2648   1.759   0.902   1.710  1.0258  1.1721 -2.7588
  883SOL    HW2 2649   1.635   0.801   1.746  1.9205  1.8122 -0.9292
  884SOL     OW 2650   2.847   0.503   0.184  0.2393  0.3426  0.3162
  884SOL    HW1 2651   2.863   0.583   0.244 -1.8151  0.0190  0.0615
  884SOL    HW2 2652   2.756   0.456   0.200 -1.6246 -0.2398 -1.2967
  885SOL     OW 2653   1.344   1.648   3.059  0.6085 -0.0015 -0.2263
  885SOL    HW1 2654   1.251   1.619   3.019  0.2817 -3.1314 -0.4839
  885SOL    HW2 2655   1.422   1.611   3.000  0.8394 -1.7145 -0.2499
  886SOL     OW 2656   1.503   1.570   2.831  0.0292 -0.1479  0.1883
  886SOL    HW1 2657   1.444   1.570   2.748  0.5995 -1.0063  0.7456
  886SOL    HW2 2658   1.602   1.552   2.810  0.5833  2.1221 -2.4404
  887SOL     OW 2659   1.717   0.057   1.534  0.6880  0.0853 -0.0927
  887SOL    HW1 2660   1.684   0.087   1.441  0.7683  0.5937  1.8040
  887SOL    HW2 2661   1.816   0.066   1.537 -1.1351  0.8952 -0.8755
  888SOL     OW 2662   2.640   0.614   1.745  0.8202 -0.1000 -0.0119
  888SOL    HW1 2663   2.731   0.633   1.785 -1.4004 -0.3961 -0.0892
  888SOL    HW2 2664   2.624   0.674   1.669  0.1697  0.7983  3.5411
  889SOL     OW 2665   3.101   2.859   0.808 -0.0187  0.2013  0.4676
  889SOL    HW1 2666   3.114   2.758   0.823 -1.2789 -0.0601 -0.2154
  889SOL    HW2 2667   3.005   2.887   0.824 -0.5258  1.6256 -1.1567
  890SOL     OW 2668   2.265   2.495   0.070 -0.0433  0.1682  0.4216
  890SOL    HW1 2669   2.261   2.591   0.110 -2.6479  1.8679 -2.3574
  890SOL    HW2 2670   2.172   2.472   0.034 -1.0967  1.4379  0.8985
  891SOL     OW 2671   0.606   1.181   2.630 -0.0340  0.0992  0.1213
  891SOL    HW1 2672   0.610   1.189   2.530 -0.5116  1.7842  2.2129
  891SOL    HW2 2673   0.522   1.225   2.662  2.0830  1.7589 -0.8334
  892SOL     OW 2674   0.069   0.013   1.199  0.1507 -0.0417  0.5093
  892SOL    HW1 2675   0.122   0.079   1.257 -0.4693 -0.7055  1.3132
  892SOL    HW2 2676   3.105   0.051   1.170 -0.2892 -1.1335 -0.8091
  893SOL     OW 2677   1.635   0.169   1.301  0.7222 -0.8244  0.6943
  893SOL    HW1 2678   1.563   0.184   1.233  2.3675  0.2031 -0.8563
  893SOL    HW2 2679   1.720   0.220   1.274 -0.3093  0.3022 -1.7149
  894SOL     OW 2680   2.386   0.756   0.746 -0.0383 -0.8885 -0.0191
  894SOL    HW1 2681   2.308   0.821   0.766 -0.0287  1.4768  0.3113
  894SOL    HW2 2682   2.472   0.803   0.766 -0.0789 -1.2710  0.8626
  895SOL     OW 2683   2.072   1.495   2.490  0.1256  0.5955 -0.0808
  895SOL    HW1 2684   2.050   1.401   2.528 -0.3541 -3.1438 -1.0634
  895SOL    HW2 2685   2.156   1.546   2.525  1.3176  2.7262 -0.2370
  896SOL     OW 2686   1.549   0.260   1.810 -0.1734  0.0376 -0.3171
  896SOL    HW1 2687   1.566   0.347   1.858 -0.6345  0.6874  0.5114
  896SOL    HW2 2688   1.570   0.181   1.872 -2.7356  2.3588 -1.8704
  897SOL     OW 2689   0.709   1.492   2.025 -0.2506  0.2627  0.5851
  897SOL    HW1 2690   0.776   1.480   2.102 -2.7292 -0.1263  1.5840
  897SOL    HW2 2691   0.727   1.578   1.972  0.4146 -0.5117 -0.6165
  898SOL     OW 2692   2.538   2.577   2.284  0.3437 -0.2648  0.2549
  898SOL    HW1 2693   2.440   2.584   2.262  1.1409  1.1103 -0.0249
  898SOL    HW2 2694   2.558   2.502   2.345 -0.4909  0.5018 -1.0415
  899SOL     OW 2695   1.270   1.088   1.433  0.1457 -0.4570  0.5382
  899SOL    HW1 2696   1.224   1.173   1.401 -0.5969 -0.1204 -0.3420
  899SOL    HW2 2697   1.372   1.105   1.428 -0.4496  1.3481 -0.6563
  900SOL     OW 2698   1.449   2.123   2.741  0.4430 -0.2521  0.5375
  900SOL    HW1 2699   1.354   2.085   2.749 -1.6594 -0.8502 -3.2443
  900SOL    HW2 2700   1.512   2.050   2.770 -3.3289  1.4888  0.5909
  901SOL     OW 2701   0.621   1.913   2.492  0.0091  0.0807 -0.5458
  901SOL    HW1 2702   0.545   1.931   2.556  1.8955  1.8412  0.8455
  901SOL    HW2 2703   0.652   1.999   2.447  1.3798 -1.2729  0.4980
  902SOL     OW 2704   2.060   1.680   0.242  0.4259  0.8448 -0.7889
  902SOL    HW1 2705   2.044   1.589   0.198  0.6591 -1.4252  0.8748
  902SOL    HW2 2706   2.046   1.670   0.343  0.0905  0.2530  0.2016
  903SOL     OW 2707   2.162   1.056   0.250 -0.6938 -0.1824  0.6393
  903SOL    HW1 2708   2.262   1.028   0.243  0.4036 -0.2602 -0.8950
  903SOL    HW2 2709   2.120   1.036   0.160  0.8070  0.0619  1.5189
  904SOL     OW 2710   0.644   0.890   2.763 -0.1151  0.5489 -0.3735
  904SOL    HW1 2711   0.639   0.927   2.669  1.3636 -0.8223 -1.3530
  904SOL    HW2 2712   0.729   0.836   2.772  0.2601 -0.2132 -1.2953
  905SOL     OW 2713   2.614   0.509   1.014  0.8258  0.0535  0.3959
  905SOL    HW1 2714   2.619   0.433   0.949  2.2816  5.8971 -0.9034
  905SOL    HW2 2715   2.617   0.480   1.111  0.1327 -2.3251  0.1118
  906SOL     OW 2716   2.759   2.184   0.794 -0.2184 -0.0071  0.4003
  906SOL    HW1 2717   2.749   2.217   0.702 -1.9030 -1.1926  3.0079
  906SOL    HW2 2718   2.841   2.223   0.844 -0.1258  1.5896  1.4093
  907SOL     OW 2719   1.397   0.532   0.771  0.0244 -0.2138  0.3180
  907SOL    HW1 2720   1.418   0.478   0.684  1.6052  1.9298 -0.9030
  907SOL    HW2 2721   1.339   0.610   0.748  3.7587 -1.3399  1.8482
  908SOL     OW 2722   2.094   2.787   1.610 -0.0233  0.1964  0.3178
  908SOL    HW1 2723   2.044   2.729   1.543  2.7873 -1.3099  1.8456
  908SOL    HW2 2724   2.037   2.824   1.684 -1.1667 -1.7367 -0.3618
  909SOL     OW 2725   2.607   0.785   1.515 -0.2024 -0.5041  0.4209
  909SOL    HW1 2726   2.703   0.766   1.487 -1.0989  0.0144  0.2027
  909SOL    HW2 2727   2.601   0.883   1.548  1.3283  3.5407  0.4556
  910SOL     OW 2728   1.252   2.807   2.241 -0.2806 -0.4162  0.4506
  910SOL    HW1 2729   1.164   2.763   2.276 -1.4375 -1.8521 -0.4682
  910SOL    HW2 2730   1.246   2.909   2.254 -2.1073  2.9438 -1.1739
  911SOL     OW 2731   2.282   0.675   1.937  0.1788  0.5760  0.0124
  911SOL    HW1 2732   2.342   0.595   1.914  0.5912 -1.0096 -1.8187
  911SOL    HW2 2733   2.211   0.689   1.868  1.4463 -0.4001  0.5041
  912SOL     OW 2734   2.571   1.935   1.560 -0.6184  0.6622  0.3572
  912SOL    HW1 2735   2.623   1.974   1.482  2.6730 -0.3280 -1.6045
  912SOL    HW2 2736   2.503   2.000   1.592 -0.0578 -0.9550 -0.5211
  913SOL     OW 2737   2.691   2.058   1.347 -0.0096 -0.1471 -0.4487
  913SOL    HW1 2738   2.664   2.151   1.323 -1.4552 -1.2953 -0.1449
  913SOL    HW2 2739   2.791   2.056   1.362  0.1975 -0.7287 -1.7628
  914SOL     OW 2740   2.106   1.783   1.311  0.3549  0.0707  0.2335
  914SOL    HW1 2741   2.177   1.787   1.384  0.5787 -1.3937  0.1261
  914SOL    HW2 2742   2.129   1.714   1.237 -2.5435 -1.2738 -1.4778
  915SOL     OW 2743   1.122   1.339   1.399  0.3672 -0.2361  0.1948
  915SOL    HW1 2744   1.019   1.351   1.418 -2.1255  0.1744  2.6515
  915SOL    HW2 2745   1.152   1.398   1.324 -0.5746  0.6079  1.8840
  916SOL     OW 2746   2.263   2.509   1.369 -0.4300  0.6011 -0.2833
  916SOL    HW1 2747   2.276   2.410   1.374  0.4025  1.6037 -1.5366
  916SOL    HW2 2748   2.353   2.551   1.355 -1.8878 -1.7776 -0.7637
  917SOL     OW 2749   2.628   1.952   2.966  0.3594  0.9848  0.8901
  917SOL    HW1 2750   2.581   1.944   3.058 -0.1662 -2.9851 -0.9843
  917SOL    HW2 2751   2.724   1.971   2.980 -2.1459 -2.8923 -1.3844
  918SOL     OW 2752   1.829   2.413   2.624  0.2348 -0.0300  0.1686
  918SOL    HW1 2753   1.805   2.341   2.555 -0.8485  1.7153  0.5125
  918SOL    HW2 2754   1.927   2.420   2.617 -1.6114  0.1745  1.1097
  919SOL     OW 2755   1.388   2.089   1.784  0.0844 -0.5065 -0.7787
  919SOL    HW1 2756   1.481   2.049   1.770  0.0231 -0.4604 -0.6696
  919SOL    HW2 2757   1.358   2.149   1.705  1.3646  0.2154  0.2929
  920SOL     OW 2758   2.964   0.130   2.828 -0.1847  0.1057 -0.3281
  920SOL    HW1 2759   3.032   0.205   2.829 -1.8899 -0.4930 -0.6004
  920SOL    HW2 2760   2.897   0.126   2.902 -0.2924  0.0653 -3.6246
  921SOL     OW 2761   2.745   0.289   2.275  0.2423  0.0663  0.0284
  921SOL    HW1 2762   2.745   0.255   2.374  0.9149 -0.1512  1.6975
  921SOL    HW2 2763   2.840   0.288   2.246 -0.3439  0.6298  0.7437
  922SOL     OW 2764   2.083   2.294   0.311  0.1968 -0.1712  0.0877
  922SOL    HW1 2765   2.015   2.302   0.235 -1.0539  1.9503 -0.9896
  922SOL    HW2 2766   2.119   2.202   0.326 -0.3801 -0.5373 -1.8086
  923SOL     OW 2767   0.251   2.048   0.281 -0.3696 -0.3746 -0.0860
  923SOL    HW1 2768   0.209   1.990   0.207  1.1406 -1.8214  0.9107
  923SOL    HW2 2769   0.259   2.145   0.247  0.3198 -1.4528 -0.9365
  924SOL     OW 2770   0.902   0.465   3.018  0.1287  0.0840  0.0229
  924SOL    HW1 2771   0.941   0.422   3.102  2.1093 -0.3971 -1.3831
  924SOL    HW2 2772   0.846   0.547   3.052 -1.8318  0.3332 -1.4121
  925SOL     OW 2773   2.385   1.133   0.906  0.6010  0.3491  0.3400
  925SOL    HW1 2774   2.316   1.210   0.905 -0.1376 -0.0234 -0.6281
  925SOL    HW2 2775   2.471   1.172   0.868 -0.8779 -1.6401  1.8723
  926SOL     OW 2776   2.893   1.152   0.871  0.2341 -0.4560 -0.3583
  926SOL    HW1 2777   2.942   1.064   0.892  0.7766  1.2532 -0.8833
  926SOL    HW2 2778   2.826   1.186   0.941  2.7623 -1.8118  0.4843
  927SOL     OW 2779   0.105   1.260   0.048  0.0363  0.2185 -0.1248
  927SOL    HW1 2780   0.189   1.199   0.036  0.0561 -1.1028  2.2181
  927SOL    HW2 2781   0.081   1.312   3.090 -0.7047 -1.9770 -0.8638
  928SOL     OW 2782   0.137   0.488   2.405 -0.1028 -0.1997  0.4966
  928SOL    HW1 2783   0.126   0.571   2.347  2.9084 -0.5545 -0.0026
  928SOL    HW2 2784   0.136   0.512   2.501  0.4814 -2.1112 -1.1602
  929SOL     OW 2785   2.835   2.958   1.282  0.0698 -0.1726  0.3761
  929SOL    HW1 2786   2.826   2.984   1.380 -1.2755 -1.6146 -0.6694
  929SOL    HW2 2787   2.775   3.013   1.221  1.3127  0.6689  1.0480
  930SOL     OW 2788   1.877   1.739   1.447  0.1298  0.3048 -0.3301
  930SOL    HW1 2789   1.970   1.756   1.401 -0.2230 -1.5202 -0.4136
  930SOL    HW2 2790   1.896   1.733   1.548  0.9118 -0.9611 -0.9939
  931SOL     OW 2791   1.362   1.552   0.824 -0.3714  0.3079  0.1701
  931SOL    HW1 2792   1.395   1.628   0.886  0.9348 -0.1037  0.9139
  931SOL    HW2 2793   1.375   1.580   0.728  1.2692 -1.7330  1.6667
  932SOL     OW 2794   2.716   1.245   1.077  0.2645 -0.9241  0.2245
  932SOL    HW1 2795   2.693   1.154   1.116 -1.3036  0.1960 -0.2155
  932SOL    HW2 2796   2.639   1.310   1.097 -0.9061 -0.0869 -1.3016
  933SOL     OW 2797   2.336   1.790   1.459  0.2106 -0.4998  0.6595
  933SOL    HW1 2798   2.300   1.762   1.550 -0.7823 -1.2049 -1.7110
  933SOL    HW2 2799   2.411   1.856   1.484 -1.6633  0.0802  0.2944
  934SOL     OW 2800   1.506   2.886   1.241 -0.2592  0.0869  0.1726
  934SOL    HW1 2801   1.469   2.921   1.328  0.8874  0.7056 -1.0485
  934SOL    HW2 2802   1.605   2.902   1.232 -1.0153  1.3390 -1.2512
  935SOL     OW 2803   0.485   1.557   0.765 -0.4221 -0.4190 -0.4448
  935SOL    HW1 2804   0.469   1.641   0.821  1.0877  0.3596  3.5117
  935SOL    HW2 2805   0.483   1.579   0.668 -0.2127 -1.5235  0.2494
  936SOL     OW 2806   3.050   1.249   0.433 -0.1237 -0.3417 -0.0892
  936SOL    HW1 2807   2.948   1.235   0.427 -1.4774  1.9952  1.5832
  936SOL    HW2 2808   3.085   1.229   0.527 -0.6910  2.8157 -1.1124
  937SOL     OW 2809   1.704   2.856   0.906 -0.8312 -0.2970 -0.4611
  937SOL    HW1 2810   1.642   2.774   0.912 -0.4436 -0.6549 -1.4879
  937SOL    HW2 2811   1.740   2.869   0.814 -0.6967  0.1404  2.7347
  938SOL     OW 2812   2.579   2.436   1.029  0.3818 -0.2710 -0.3294
  938SOL    HW1 2813   2.578   2.535   1.021  0.2151 -2.1965 -1.9210
  938SOL    HW2 2814   2.505   2.389   0.971 -1.9264  0.9348 -2.2805
  939SOL     OW 2815   0.535   2.132   3.031  0.2882 -0.0871 -0.3305
  939SOL    HW1 2816   0.592   2.093   3.103  1.4416  0.5939 -1.2840
  939SOL    HW2 2817   0.481   2.053   2.992 -2.8177 -2.8385 -0.9197
  940SOL     OW 2818   3.024   3.045   3.091  0.2851 -0.7021 -0.4972
  940SOL    HW1 2819   3.036   3.093   0.058 -0.9120 -2.0793 -2.7055
  940SOL    HW2 2820   3.097   3.076   3.026  1.6368  2.2995 -0.3824
  941SOL     OW 2821   1.233   0.129   2.953 -0.5581 -0.3623 -0.5359
  941SOL    HW1 2822   1.316   0.075   2.932 -1.8231  1.2597 -0.2245
  941SOL    HW2 2823   1.174   0.140   2.868 -1.8181  1.6637 -3.1724
  942SOL     OW 2824   1.169   1.654   1.605  0.5782  0.3225 -0.0321
  942SOL    HW1 2825   1.257   1.601   1.617  2.0656  3.1611  1.1856
  942SOL    HW2 2826   1.092   1.592   1.624  2.2770  1.1056 -2.5366
  943SOL     OW 2827   2.119   1.296   1.643 -0.0787  0.8403  0.4193
  943SOL    HW1 2828   2.101   1.197   1.616 -1.0210  0.9764  2.6184
  943SOL    HW2 2829   2.034   1.356   1.631 -0.9935  0.8494 -0.4489
  944SOL     OW 2830   1.921   0.807   1.610 -0.2161  0.4475  0.2153
  944SOL    HW1 2831   1.872   0.727   1.568  0.8091  2.7400  2.0497
  944SOL    HW2 2832   2.017   0.782   1.645  2.9366 -3.0807  1.3359
  945SOL     OW 2833   0.101   0.002   0.832  0.4192 -0.3021  0.2139
  945SOL    HW1 2834   0.068   3.038   0.794 -0.6499  0.2780 -0.2273
  945SOL    HW2 2835   0.019   0.059   0.862 -0.9879  1.4353 -0.7586
  946SOL     OW 2836   0.525   0.887   1.467 -0.2742  0.1056 -0.9278
  946SOL    HW1 2837   0.487   0.796   1.448  0.9105  2.6500 -0.9051
  946SOL    HW2 2838   0.577   0.924   1.389  2.2056 -0.1045  2.3219
  947SOL     OW 2839   0.505   2.705   0.618 -0.4552  0.3515  0.2783
  947SOL    HW1 2840   0.451   2.774   0.565 -1.6574  3.5284  0.9606
  947SOL    HW2 2841   0.445   2.642   0.670  1.6824  0.8919  0.7175
  948SOL     OW 2842   2.755   1.401   2.012  0.3042 -0.3250  0.1127
  948SOL    HW1 2843   2.691   1.332   2.047  2.2110 -1.2208 -0.3037
  948SOL    HW2 2844   2.816   1.363   1.938 -3.7121  0.6194  3.7143
  949SOL     OW 2845   0.536   1.156   2.354  0.3327 -0.0568  0.3814
  949SOL    HW1 2846   0.520   1.100   2.270 -0.1903 -2.8672 -3.0875
  949SOL    HW2 2847   0.444   1.188   2.383  0.4883 -0.1798 -0.1862
  950SOL     OW 2848   1.058   0.502   0.807  0.4646 -0.6225  0.1864
  950SOL    HW1 2849   1.065   0.472   0.901  0.3090  3.7042  1.5035
  950SOL    HW2 2850   1.121   0.580   0.791 -1.3069 -2.1864  1.0304
  951SOL     OW 2851   0.888   2.164   1.980  0.1952  0.4722  0.1317
  951SOL    HW1 2852   0.864   2.226   1.902  1.2310 -1.6881 -0.1244
  951SOL    HW2 2853   0.904   2.214   2.067  1.1159 -0.8637  0.0366
  952SOL     OW 2854   0.496   1.788   3.090 -0.0684 -0.2022 -0.1310
  952SOL    HW1 2855   0.592   1.793   0.000 -0.0823 -0.5339  1.4845
  952SOL    HW2 2856   0.442   1.706   3.123  0.0660  0.7497 -2.2564
  953SOL     OW 2857   1.976   2.970   2.434 -0.1008  0.5113 -0.3133
  953SOL    HW1 2858   2.067   3.009   2.412 -1.4319  0.1210  0.1121
  953SOL    HW2 2859   1.913   3.022   2.373 -0.2421  0.4373 -1.1952
  954SOL     OW 2860   1.450   1.341   0.967  0.3635  0.3761  0.5560
  954SOL    HW1 2861   1.474   1.275   0.890  0.8904 -1.1207  0.0534
  954SOL    HW2 2862   1.396   1.423   0.938 -0.4689  0.6489  3.8284
  955SOL     OW 2863   0.482   2.080   2.171 -0.6149  0.8591 -0.5683
  955SOL    HW1 2864   0.433   2.004   2.124 -0.4831 -1.1463 -1.1162
  955SOL    HW2 2865   0.431   2.164   2.168  1.9934 -1.2441  0.2548
  956SOL     OW 2866   1.763   0.569   1.489  0.3263  0.3274  0.3450
  956SOL    HW1 2867   1.661   0.573   1.469 -1.5914 -1.4141 -0.3923
  956SOL    HW2 2868   1.777   0.499   1.559 -0.9157 -1.2071  1.8094
  957SOL     OW 2869   2.199   1.933   2.683  0.1875  0.4863 -0.2688
  957SOL    HW1 2870   2.160   1.931   2.590 -0.0730  0.2149 -0.1235
  957SOL    HW2 2871   2.121   1.935   2.752 -1.1909  2.2430  3.1167
  958SOL     OW 2872   1.021   2.323   0.921 -0.2423  0.6008 -0.2442
  958SOL    HW1 2873   0.931   2.366   0.912  1.3647 -2.7229 -0.5444
  958SOL    HW2 2874   1.056   2.324   1.018  0.1116 -0.9347  1.5593
  959SOL     OW 2875   1.792   2.068   2.750 -0.1090  0.4710 -0.0769
  959SOL    HW1 2876   1.710   2.004   2.758  0.2702 -0.7925  0.7862
  959SOL    HW2 2877   1.788   2.121   2.665 -1.1693 -0.6083 -1.4274
  960SOL     OW 2878   0.051   0.315   2.849 -0.0633 -0.9537 -0.0281
  960SOL    HW1 2879   0.152   0.291   2.833  3.6128 -1.5346  0.2702
  960SOL    HW2 2880   0.040   0.350   2.944  0.3224  1.0576 -0.5492
  961SOL     OW 2881   1.006   1.147   2.294  0.2400  0.2472 -0.2968
  961SOL    HW1 2882   1.103   1.178   2.316  1.2442  0.5871  0.3624
  961SOL    HW2 2883   0.983   1.074   2.362  1.9726 -3.1351  0.7979
  962SOL     OW 2884   1.116   1.368   3.065 -0.2658  0.2711  0.1455
  962SOL    HW1 2885   1.202   1.322   3.095 -0.3243  1.8037  1.6385
  962SOL    HW2 2886   1.045   1.368   0.017 -1.1849  0.1137 -0.9026
  963SOL     OW 2887   2.385   1.759   2.963 -0.4589  0.1155  0.1955
  963SOL    HW1 2888   2.436   1.750   2.875  2.1018  0.6283  0.1236
  963SOL    HW2 2889   2.441   1.810   3.031  0.7817  1.4203 -0.9194
  964SOL     OW 2890   1.532   2.640   0.968 -0.3739 -0.0881 -0.1272
  964SOL    HW1 2891   1.443   2.670   0.926  0.8557  1.2388 -0.1743
  964SOL    HW2 2892   1.511   2.593   1.054 -1.3990 -0.9707 -0.5371
  965SOL     OW 2893   0.742   2.085   1.098 -0.5159  0.3096  0.0223
  965SOL    HW1 2894   0.725   2.029   1.183  1.2321  0.5933  0.9058
  965SOL    HW2 2895   0.841   2.088   1.084  0.6462 -1.4758  1.5268
  966SOL     OW 2896   0.063   1.640   0.018  0.8704  0.2911 -0.1787
  966SOL    HW1 2897   0.048   1.671   3.046 -2.6334  0.9582  0.3474
  966SOL    HW2 2898   3.120   1.565   0.051 -0.0062 -0.4303 -0.2307
  967SOL     OW 2899   1.543   3.119   2.026 -0.3327 -0.3554 -0.4098
  967SOL    HW1 2900   1.525   3.020   2.038 -1.5381  2.0731 -2.0693
  967SOL    HW2 2901   1.624   0.012   1.969 -1.4773 -0.0856  1.5536
  968SOL     OW 2902   1.896   0.785   0.728  0.4940  0.0517 -0.1799
  968SOL    HW1 2903   1.875   0.742   0.820 -0.6714  1.1494  1.2384
  968SOL    HW2 2904   1.885   0.887   0.725  1.2478  1.3896 -0.4764
  969SOL     OW 2905   3.094   1.430   1.981  0.4160 -0.1642 -0.3810
  969SOL    HW1 2906   3.031   1.412   1.904 -0.5975 -1.4053  0.7531
  969SOL    HW2 2907   0.064   1.437   1.944 -1.4145  0.1648 -1.0855
  970SOL     OW 2908   2.493   1.406   1.114  0.1963  0.7294 -0.0117
  970SOL    HW1 2909   2.409   1.376   1.163 -2.7454 -2.8510 -1.2867
  970SOL    HW2 2910   2.472   1.470   1.040 -0.3369 -0.7022  1.0539
  971SOL     OW 2911   0.599   0.229   1.416 -0.0584  0.1622  0.0456
  971SOL    HW1 2912   0.643   0.293   1.486 -0.0461  0.5583  1.6410
  971SOL    HW2 2913   0.536   0.174   1.475  0.4947 -0.6327  0.6490
  972SOL     OW 2914   0.835   0.631   2.630 -0.3147  0.0339  0.6651
  972SOL    HW1 2915   0.891   0.679   2.698 -4.3168  1.9490 -0.5341
  972SOL    HW2 2916   0.808   0.546   2.670 -1.1805  1.2959 -3.5501
  973SOL     OW 2917   0.149   1.330   1.093  0.1075  0.4689  0.2074
  973SOL    HW1 2918   0.120   1.264   1.163  2.5866 -1.9848  1.6992
  973SOL    HW2 2919   0.246   1.356   1.094 -0.3504 -1.3722  3.4533
  974SOL     OW 2920   2.200   1.153   1.879 -0.4581 -0.0196 -0.1668
  974SOL    HW1 2921   2.152   1.202   1.807  0.6954 -0.8312  2.8498
  974SOL    HW2 2922   2.248   1.076   1.838  0.4476 -0.0140  0.5428
  975SOL     OW 2923   2.627   0.134   0.357 -0.1227 -0.2161  0.0909
  975SOL    HW1 2924   2.648   0.068   0.281  3.4240  1.7117 -2.3298
  975SOL    HW2 2925   2.714   0.152   0.412  1.6842 -0.0037  1.5814
  976SOL     OW 2926   2.918   1.334   1.785  0.0019  0.1615  0.1190
  976SOL    HW1 2927   2.935   1.380   1.696 -3.1238  1.3718 -0.9312
  976SOL    HW2 2928   2.944   1.236   1.777 -1.5826  0.4143 -1.0652
  977SOL     OW 2929   0.810   2.936   3.100  0.0326 -0.6016 -0.2288
  977SOL    HW1 2930   0.845   3.021   3.055 -1.2110  1.3511 -1.5278
  977SOL    HW2 2931   0.823   2.936   0.078 -0.4580 -0.4486  2.1588
  978SOL     OW 2932   0.404   1.620   0.334  0.0080  0.1521  0.3559
  978SOL    HW1 2933   0.377   1.531   0.372  0.6021 -0.1809 -2.4861
  978SOL    HW2 2934   0.502   1.644   0.340  0.0515 -3.9927 -1.3362
  979SOL     OW 2935   1.442   1.691   1.383  0.6162 -0.2686  0.6816
  979SOL    HW1 2936   1.504   1.768   1.392  0.2685  0.4153  0.7207
  979SOL    HW2 2937   1.473   1.605   1.423 -0.5632  3.6931 -4.2235
  980SOL     OW 2938   0.435   1.404   2.001  0.3642  0.0241  0.3540
  980SOL    HW1 2939   0.529   1.437   2.000 -0.6681 -0.1607 -1.1408
  980SOL    HW2 2940   0.381   1.435   1.917 -0.0027  0.6077  0.7625
  981SOL     OW 2941   2.962   1.490   0.135 -0.3751  0.5242  0.0952
  981SOL    HW1 2942   2.890   1.496   0.204  1.6091 -2.5767 -0.0317
  981SOL    HW2 2943   3.038   1.434   0.172  1.2842 -1.4200  1.2774
  982SOL     OW 2944   2.496   2.487   2.654  0.1335 -0.2353 -0.1443
  982SOL    HW1 2945   2.444   2.547   2.590  2.4381  1.9795 -1.2220
  982SOL    HW2 2946   2.530   2.548   2.727  0.5520  2.4181  0.7199
  983SOL     OW 2947   1.448   0.413   1.585  0.3744 -0.6920 -0.7838
  983SOL    HW1 2948   1.491   0.387   1.495 -4.3588  0.7956  2.8094
  983SOL    HW2 2949   1.450   0.340   1.650  0.3987  0.3938 -0.4921
  984SOL     OW 2950   1.049   0.039   2.530 -0.2328 -0.1841  0.0735
  984SOL    HW1 2951   1.135   0.001   2.498 -0.4219 -0.4219 -0.9109
  984SOL    HW2 2952   1.048   0.075   2.624  0.9262 -3.0717  0.2393
  985SOL     OW 2953   1.667   2.189   1.662 -0.5561 -0.3528 -0.1560
  985SOL    HW1 2954   1.674   2.249   1.748 -0.2610  0.5605  1.6589
  985SOL    HW2 2955   1.643   2.103   1.701  2.0810  3.1476 -0.9277
  986SOL     OW 2956   2.236   3.012   2.341  0.3947  0.8222 -0.0741
  986SOL    HW1 2957   2.277   2.983   2.254 -1.6275 -1.8219  1.1185
  986SOL    HW2 2958   2.240   3.112   2.352 -1.2277 -1.5797  0.8904
  987SOL     OW 2959   2.557   0.456   2.163 -0.0790 -1.0051 -0.2404
  987SOL    HW1 2960   2.626   0.384   2.185 -0.6413  1.5247 -2.6899
  987SOL    HW2 2961   2.535   0.515   2.245  1.3162 -1.3774  0.9870
  988SOL     OW 2962   2.497   0.445   2.565  0.2522  0.2603 -0.6262
  988SOL    HW1 2963   2.461   0.501   2.648  0.1701 -1.9028 -0.5856
  988SOL    HW2 2964   2.495   0.499   2.478  2.7829  0.4351  1.4293
  989SOL     OW 2965   2.258   2.384   2.443  0.0285 -0.0680 -0.1873
  989SOL    HW1 2966   2.322   2.341   2.377 -1.2476 -0.4143 -1.7347
  989SOL    HW2 2967   2.281   2.484   2.466  0.4251  3.2931  1.0891
  990SOL     OW 2968   0.317   1.253   2.805  0.1128  0.2512  0.1739
  990SOL    HW1 2969   0.275   1.266   2.892  1.3827 -0.0726 -3.9816
  990SOL    HW2 2970   0.320   1.344   2.752 -2.1007  1.3869  0.0219
  991SOL     OW 2971   0.889   1.076   2.692  0.2996 -0.0384 -0.1888
  991SOL    HW1 2972   0.929   1.047   2.605 -1.5844  0.8915 -1.5612
  991SOL    HW2 2973   0.800   1.115   2.684  2.3707 -1.2254  0.1188
  992SOL     OW 2974   3.071   2.289   2.056  0.2544 -0.3441  0.7743
  992SOL    HW1 2975   3.076   2.379   2.019  1.1686 -0.8558 -1.4566
  992SOL    HW2 2976   3.037   2.221   1.986 -1.6481  0.1885  0.6169
  993SOL     OW 2977   0.708   0.113   1.032 -0.1623  0.6895  0.1786
  993SOL    HW1 2978   0.623   0.054   1.028 -2.2345  1.3474 -1.3146
  993SOL    HW2 2979   0.741   0.137   0.939 -3.2043  0.6784  1.1781
  994SOL     OW 2980   0.218   1.864   1.283 -0.0055 -0.4467 -0.1263
  994SOL    HW1 2981   0.205   1.791   1.213 -0.4481 -3.2713  0.5962
  994SOL    HW2 2982   0.190   1.960   1.256  2.5421 -2.1921  0.4418
  995SOL     OW 2983   2.322   1.590   2.530  0.0896  0.3002 -0.0337
  995SOL    HW1 2984   2.367   1.539   2.453  1.3655  2.5841 -0.0449
  995SOL    HW2 2985   2.339   1.689   2.519  0.0241  0.8189  0.3811
  996SOL     OW 2986   1.988   1.275   2.630  0.2177 -0.1384  0.1150
  996SOL    HW1 2987   2.015   1.340   2.707 -0.1349 -0.0002 -1.8605
  996SOL    HW2 2988   1.900   1.234   2.658  2.6256 -1.3283 -1.0903
  997SOL     OW 2989   1.674   1.009   2.016 -0.2606  0.0627  0.1845
  997SOL    HW1 2990   1.676   0.958   1.928 -0.9624  1.0287  1.0614
  997SOL    HW2 2991   1.749   1.078   2.010 -2.9994 -2.6549  0.2587
  998SOL     OW 2992   2.411   2.305   0.861 -0.0219  0.0659  0.4221
  998SOL    HW1 2993   2.386   2.320   0.766  1.4307 -0.1890 -0.7442
  998SOL    HW2 2994   2.440   2.209   0.879 -2.9892 -0.9437  0.2503
  999SOL     OW 2995   2.381   2.344   0.273  0.2326 -0.3511 -0.4635
  999SOL    HW1 2996   2.302   2.314   0.327  0.1137  1.6949  1.9315
  999SOL    HW2 2997   2.345   2.418   0.206 -0.8699  0.8887  0.1863
 1000SOL     OW 2998   0.917   2.898   2.542  0.4024 -0.5050  0.1862
 1000SOL    HW1 2999   0.971   2.983   2.573  1.2021  3.2370  1.5346
 1000SOL    HW2 3000   0.886   2.839   2.614 -0.9127  1.6507 -2.4575
   3.12376   3.12376   3.12376
