1000 SPC/Fw water molecules t= 279.00000 step= 279000
 3000
    1SOL     OW    1   2.716   2.784   0.819 -0.2118 -0.0335 -0.0419
    1SOL    HW1    2   2.813   2.796   0.852  1.5721 -0.0889 -1.7412
    1SOL    HW2    3   2.669   2.874   0.815 -0.7821  1.3750 -2.0716
    2SOL     OW    4   2.191   1.821   1.022  0.2950 -0.2057 -0.1603
    2SOL    HW1    5   2.243   1.757   0.966  1.0910  2.8661 -1.1528
    2SOL    HW2    6   2.194   1.802   1.122  2.1195 -2.6189  1.2371
    3SOL     OW    7   1.109   2.686   2.990  0.0883  0.0837 -0.0138
    3SOL    HW1    8   1.025   2.706   2.939 -0.5432 -0.3969  2.7478
    3SOL    HW2    9   1.150   2.597   2.956  0.7734 -0.2438  1.2804
    4SOL     OW   10   2.035   2.075   1.287 -0.3564  0.5889 -0.5490
    4SOL    HW1   11   2.057   1.976   1.278 -0.2664  0.2858 -0.6785
    4SOL    HW2   12   2.110   2.136   1.330 -0.5685  1.7172  0.4362
    5SOL     OW   13   1.494   1.050   1.424  0.2493  0.2366 -0.0680
    5SOL    HW1   14   1.406   1.075   1.383  0.4513 -2.4326  1.8207
    5SOL    HW2   15   1.565   1.124   1.416  1.5552  3.8405  2.9615
    6SOL     OW   16   2.448   3.062   0.150 -0.7431 -0.1218 -0.2451
    6SOL    HW1   17   2.396   2.983   0.186  0.4007 -0.6484  1.3482
    6SOL    HW2   18   2.478   3.115   0.232 -1.7866 -1.5510  0.4935
    7SOL     OW   19   2.911   1.156   1.261 -0.0054 -0.0877 -0.4813
    7SOL    HW1   20   2.977   1.170   1.340 -0.8074  0.2806  3.9305
    7SOL    HW2   21   2.818   1.202   1.269  0.0342  0.2512 -1.1563
    8SOL     OW   22   1.297   2.666   1.047 -0.0058 -0.3462  0.3749
    8SOL    HW1   23   1.330   2.761   1.031  2.4192  2.1223  3.0604
    8SOL    HW2   24   1.370   2.592   1.061  5.5047 -2.9353  1.3441
    9SOL     OW   25   1.662   0.054   1.877 -0.3168 -0.1559 -0.2047
    9SOL    HW1   26   1.651   0.155   1.864  1.7211 -0.6025 -0.0415
    9SOL    HW2   27   1.578   3.140   1.868 -0.8206 -0.1111  0.8947
   10SOL     OW   28   0.923   2.369   0.932 -0.1338  0.3671  0.1386
   10SOL    HW1   29   0.857   2.436   0.890 -3.9741  1.5824 -1.5627
   10SOL    HW2   30   0.941   2.402   1.023 -0.0448  0.1071 -0.8646
   11SOL     OW   31   1.559   1.531   0.810 -0.6664  0.5314 -0.2122
   11SOL    HW1   32   1.624   1.507   0.732 -0.5839 -1.6064 -3.2186
   11SOL    HW2   33   1.547   1.450   0.877  0.9344  0.2032 -1.2153
   12SOL     OW   34   3.002   2.678   1.975  0.0647  0.0465 -0.0918
   12SOL    HW1   35   3.056   2.724   2.048  0.2649 -0.7036 -0.2862
   12SOL    HW2   36   3.046   2.592   1.962 -0.6243  2.3708  1.5562
   13SOL     OW   37   2.177   0.063   0.363 -0.4866 -0.5415  0.1286
   13SOL    HW1   38   2.132   0.155   0.375  0.1218 -1.4354  0.4568
   13SOL    HW2   39   2.125   3.138   0.424 -1.2733 -1.7761  0.4346
   14SOL     OW   40   1.573   2.559   0.723 -0.1610 -0.1441 -0.0522
   14SOL    HW1   41   1.517   2.496   0.784  0.7187  1.2602 -1.8839
   14SOL    HW2   42   1.523   2.643   0.699  0.2718 -1.1493  2.1643
   15SOL     OW   43   3.094   1.959   1.389 -0.5151 -0.3323 -0.4595
   15SOL    HW1   44   3.120   2.046   1.433 -2.2679 -0.7618 -2.7244
   15SOL    HW2   45   0.031   1.897   1.402  0.6189 -1.3571 -1.6157
   16SOL     OW   46   2.088   2.296   0.369  0.0962 -1.0077 -0.0981
   16SOL    HW1   47   2.034   2.367   0.421 -1.9453 -2.6568 -0.3083
   16SOL    HW2   48   2.134   2.231   0.432  0.6956 -2.9799  0.3086
   17SOL     OW   49   0.742   3.136   1.461 -0.1764  0.5249  0.1892
   17SOL    HW1   50   0.766   3.123   1.562  0.3482 -0.1589  2.9598
   17SOL    HW2   51   0.753   0.092   1.430 -0.9423 -0.8209 -1.6304
   18SOL     OW   52   1.255   0.952   0.091  0.1967 -0.0980  0.5105
   18SOL    HW1   53   1.231   0.909   0.001 -0.8897 -1.9560 -2.1565
   18SOL    HW2   54   1.356   0.977   0.089  2.4456 -1.4786 -1.2393
   19SOL     OW   55   1.763   2.042   0.144  0.6348  0.1639  0.3538
   19SOL    HW1   56   1.818   1.966   0.187 -0.1523 -1.1914  2.5484
   19SOL    HW2   57   1.787   2.058   0.051 -0.6724  2.8717  2.9546
   20SOL     OW   58   2.484   1.875   1.959 -0.2773  0.5120 -0.4153
   20SOL    HW1   59   2.437   1.951   1.912  0.1236  0.6401  1.8365
   20SOL    HW2   60   2.521   1.801   1.894 -1.2218  0.8433  1.3245
   21SOL     OW   61   0.698   1.298   0.478  0.2473 -0.4643  0.1480
   21SOL    HW1   62   0.632   1.253   0.542  1.8291  2.7561 -1.0528
   21SOL    HW2   63   0.649   1.372   0.423  0.1032  1.4974  2.3049
   22SOL     OW   64   2.183   2.950   1.536 -0.2122 -0.5966  0.0152
   22SOL    HW1   65   2.088   2.985   1.544 -1.1502  2.7840  0.1232
   22SOL    HW2   66   2.243   3.000   1.597  0.3382  0.8419  1.1749
   23SOL     OW   67   3.106   0.798   2.090 -0.5840 -0.1500  0.5043
   23SOL    HW1   68   3.034   0.844   2.030 -0.9791  2.2163 -1.7135
   23SOL    HW2   69   3.113   0.842   2.184 -0.5178  2.6310 -1.6832
   24SOL     OW   70   2.292   2.491   0.375  0.3415 -0.1958 -0.5841
   24SOL    HW1   71   2.342   2.503   0.286 -2.1619  1.7379 -1.0930
   24SOL    HW2   72   2.233   2.409   0.371 -0.5833  1.9157  1.1794
   25SOL     OW   73   1.521   3.139   2.478 -0.1023  0.1753 -0.2596
   25SOL    HW1   74   1.516   0.081   2.535 -1.0934  0.7614  0.1464
   25SOL    HW2   75   1.581   0.007   2.400 -1.3953  0.2909  1.0432
   26SOL     OW   76   1.581   2.385   0.193 -0.8678 -0.5735  0.0488
   26SOL    HW1   77   1.684   2.376   0.194  1.0229 -0.3325 -0.6990
   26SOL    HW2   78   1.556   2.433   0.107  0.1102  1.2454  1.2167
   27SOL     OW   79   2.730   1.980   0.083  0.1654  0.0853  0.2103
   27SOL    HW1   80   2.706   1.944   3.133  0.1816 -1.0176  0.7180
   27SOL    HW2   81   2.670   2.058   0.096 -0.3432 -3.7427 -1.6343
   28SOL     OW   82   0.160   1.184   1.885  0.7336  0.2688  0.2233
   28SOL    HW1   83   0.058   1.209   1.873 -1.9927 -2.2444 -1.5648
   28SOL    HW2   84   0.183   1.103   1.825  0.2809 -2.6874 -0.4232
   29SOL     OW   85   2.465   2.287   1.646 -0.0796  0.8426 -0.3342
   29SOL    HW1   86   2.401   2.366   1.628 -0.9737  1.0545  0.1232
   29SOL    HW2   87   2.537   2.315   1.714  0.3732  2.3660  0.9664
   30SOL     OW   88   1.684   0.594   0.451 -0.5143  0.2510  0.0544
   30SOL    HW1   89   1.650   0.498   0.423 -0.0923 -2.6504  2.2197
   30SOL    HW2   90   1.614   0.666   0.435  0.2780 -1.7655  0.7594
   31SOL     OW   91   2.355   2.611   1.814  0.1613  0.2249 -0.1159
   31SOL    HW1   92   2.355   2.532   1.879 -2.1552  1.6486 -0.2927
   31SOL    HW2   93   2.337   2.699   1.863  2.3102 -3.5709  1.1595
   32SOL     OW   94   0.862   1.845   1.310 -0.0968 -0.1629 -0.5856
   32SOL    HW1   95   0.852   1.862   1.209  0.7946  0.9648 -0.4093
   32SOL    HW2   96   0.867   1.929   1.360 -0.3316 -0.6967 -1.4871
   33SOL     OW   97   0.474   3.105   2.527 -0.7459 -0.9480  1.2815
   33SOL    HW1   98   0.417   0.026   2.470 -1.2443  1.2072  0.6450
   33SOL    HW2   99   0.428   3.081   2.610  0.9757  0.4630 -3.2060
   34SOL     OW  100   1.389   2.935   0.509 -0.0235  0.6914  0.3267
   34SOL    HW1  101   1.460   3.004   0.523 -0.7486 -1.1914 -0.0161
   34SOL    HW2  102   1.392   2.874   0.591  0.4925  2.0451 -1.9242
   35SOL     OW  103   2.257   2.886   1.284  0.2652 -0.3289 -0.0493
   35SOL    HW1  104   2.359   2.877   1.276 -0.1679  1.6690 -1.3305
   35SOL    HW2  105   2.227   2.911   1.377  0.4571 -1.9187 -2.4705
   36SOL     OW  106   1.992   2.368   2.379 -0.2302 -0.3948 -0.5742
   36SOL    HW1  107   2.006   2.265   2.381 -2.4922  0.3500  3.6304
   36SOL    HW2  108   1.896   2.393   2.390 -2.3184 -2.0881  3.9301
   37SOL     OW  109   0.949   0.156   1.949  0.1554  0.5511 -0.4057
   37SOL    HW1  110   1.009   0.107   1.887 -1.3787  0.7844  1.2106
   37SOL    HW2  111   0.946   0.256   1.924  0.5041 -1.0878 -0.2580
   38SOL     OW  112   0.207   2.707   2.818  0.0786 -0.0446 -0.5010
   38SOL    HW1  113   0.169   2.781   2.880 -1.3232  1.8329 -0.4259
   38SOL    HW2  114   0.283   2.736   2.760 -0.5620 -2.2891 -0.8176
   39SOL     OW  115   2.372   0.814   1.713  0.2851  0.4161  0.0969
   39SOL    HW1  116   2.445   0.883   1.686  0.7966 -1.4920 -2.0041
   39SOL    HW2  117   2.319   0.844   1.797 -2.8686 -0.9987 -0.3490
   40SOL     OW  118   1.096   3.026   0.138 -0.1993  0.0968  0.2933
   40SOL    HW1  119   1.000   3.033   0.168  0.3206 -1.1739 -0.6847
   40SOL    HW2  120   1.118   3.113   0.092 -1.6116  0.7676  1.9535
   41SOL     OW  121   2.173   1.077   1.198 -0.2915 -0.3944 -0.4043
   41SOL    HW1  122   2.214   1.095   1.292  2.6967  2.6767 -0.2463
   41SOL    HW2  123   2.233   1.120   1.133 -2.0181 -2.5911  2.8632
   42SOL     OW  124   0.443   0.422   0.969  0.1029  0.3235 -0.2181
   42SOL    HW1  125   0.417   0.513   0.999 -0.7692  0.5038 -0.8787
   42SOL    HW2  126   0.481   0.362   1.042  2.5344 -1.0929 -1.8840
   43SOL     OW  127   2.368   1.634   2.798  0.1516 -0.0632 -0.0474
   43SOL    HW1  128   2.331   1.591   2.884 -1.5929 -3.9913  1.3984
   43SOL    HW2  129   2.298   1.621   2.721 -1.5918 -1.4694 -1.8896
   44SOL     OW  130   2.865   3.049   1.654  0.0645  0.6054  0.2591
   44SOL    HW1  131   2.854   2.949   1.671  0.4076 -2.2601  0.8186
   44SOL    HW2  132   2.866   3.094   1.745 -0.8921 -3.5021 -0.2167
   45SOL     OW  133   0.529   2.779   1.564  0.7235 -0.9297 -0.7819
   45SOL    HW1  134   0.441   2.834   1.550 -0.6648  1.1407 -2.1030
   45SOL    HW2  135   0.598   2.798   1.490 -0.3563 -1.1653  0.4100
   46SOL     OW  136   1.791   3.105   2.320  0.2197 -0.3907 -0.3471
   46SOL    HW1  137   1.886   3.139   2.310 -0.6049  3.7384 -3.0982
   46SOL    HW2  138   1.779   3.026   2.382 -2.6307 -1.3810 -0.8148
   47SOL     OW  139   1.718   1.751   0.879 -0.4430 -0.6205  0.0978
   47SOL    HW1  140   1.666   1.789   0.961 -2.5232  1.1315  2.1240
   47SOL    HW2  141   1.697   1.652   0.864  0.1005 -0.7584 -0.8016
   48SOL     OW  142   0.992   2.248   0.528 -0.1122  0.0925  0.4738
   48SOL    HW1  143   1.018   2.348   0.512  2.6931  2.4724  0.3500
   48SOL    HW2  144   0.930   2.205   0.454  1.2135  0.0762  1.9248
   49SOL     OW  145   2.487   0.369   2.538  0.1281 -0.0063  0.1289
   49SOL    HW1  146   2.446   0.421   2.615  0.9709 -0.5942 -0.1908
   49SOL    HW2  147   2.445   0.275   2.530  0.0535  0.0606  0.5794
   50SOL     OW  148   2.066   0.300   0.350  0.0972  0.1547  0.2089
   50SOL    HW1  149   2.011   0.381   0.384 -0.5832  1.1501  0.7520
   50SOL    HW2  150   2.034   0.271   0.261  1.3936  0.0622  4.1506
   51SOL     OW  151   1.965   0.785   0.890 -0.0769  0.0552  0.0060
   51SOL    HW1  152   2.029   0.744   0.817 -1.5723  0.9857 -1.3795
   51SOL    HW2  153   1.888   0.720   0.897  2.5260  2.3433  0.8399
   52SOL     OW  154   1.317   1.364   1.668  0.2063 -0.3656  0.3902
   52SOL    HW1  155   1.327   1.310   1.750 -0.2480 -0.2908 -1.3399
   52SOL    HW2  156   1.284   1.299   1.594  0.5317 -1.0854 -0.7095
   53SOL     OW  157   0.780   1.670   2.331  0.2271 -0.3099 -0.0912
   53SOL    HW1  158   0.814   1.615   2.254 -0.1369  1.7420  0.9826
   53SOL    HW2  159   0.820   1.762   2.321  4.0515  0.6852 -0.4474
   54SOL     OW  160   2.565   0.208   1.570 -0.5670 -0.0486  0.0304
   54SOL    HW1  161   2.597   0.265   1.648  1.8830  2.9784 -0.1735
   54SOL    HW2  162   2.493   0.253   1.514 -1.5520  0.3566  0.4915
   55SOL     OW  163   2.621   2.012   0.932 -0.4628  0.6157 -0.2507
   55SOL    HW1  164   2.625   2.034   0.832 -0.7146 -1.3042 -0.4038
   55SOL    HW2  165   2.627   1.910   0.930 -1.5060 -0.5686 -2.1923
   56SOL     OW  166   1.088   3.129   1.766  0.1878  0.4501  0.1262
   56SOL    HW1  167   1.111   3.044   1.817 -1.4998  3.4454 -2.2045
   56SOL    HW2  168   1.147   0.001   1.684 -0.3896 -0.7989 -2.7324
   57SOL     OW  169   1.355   1.490   0.163 -0.7072  0.1339  0.4862
   57SOL    HW1  170   1.392   1.468   0.253 -2.3634 -3.5123  1.3685
   57SOL    HW2  171   1.419   1.544   0.108  1.2591 -0.8859 -1.3866
   58SOL     OW  172   0.225   1.043   2.119  0.3022  0.0804  0.5103
   58SOL    HW1  173   0.173   1.092   2.047  0.5073 -1.2891  2.4116
   58SOL    HW2  174   0.316   1.088   2.130 -2.1444 -2.7337 -2.1463
   59SOL     OW  175   1.147   0.226   2.547  0.2563  0.6419  0.4986
   59SOL    HW1  176   1.100   0.286   2.613 -0.6695 -0.6663  1.4195
   59SOL    HW2  177   1.169   0.129   2.582  1.2059 -0.9102 -1.5554
   60SOL     OW  178   3.002   2.214   0.234 -0.1092  0.0863  0.4164
   60SOL    HW1  179   2.912   2.165   0.245 -0.3518  0.6698  1.7243
   60SOL    HW2  180   3.000   2.311   0.270 -0.0432  0.9082 -0.2778
   61SOL     OW  181   1.008   2.442   0.247  0.3222  0.7953 -0.3391
   61SOL    HW1  182   1.085   2.499   0.285 -2.7674  0.5144 -2.2163
   61SOL    HW2  183   1.018   2.427   0.145  1.1816 -0.3371 -1.4746
   62SOL     OW  184   2.054   2.156   2.629  0.0839 -0.1367  0.3937
   62SOL    HW1  185   2.098   2.071   2.662  0.6560 -1.3839  1.2742
   62SOL    HW2  186   2.020   2.146   2.532  0.8125  1.1266  1.2291
   63SOL     OW  187   2.225   2.116   0.540  0.5631 -0.1826 -0.7419
   63SOL    HW1  188   2.213   2.075   0.635  0.7390 -1.1556  0.4573
   63SOL    HW2  189   2.219   2.043   0.476 -0.7324 -0.5323  1.8436
   64SOL     OW  190   1.875   1.244   2.954 -0.3013  0.0610  0.8208
   64SOL    HW1  191   1.784   1.257   3.001  1.9958  1.1117  0.3791
   64SOL    HW2  192   1.900   1.143   2.954 -0.9233 -3.1844  2.7172
   65SOL     OW  193   1.371   2.054   2.989 -0.3538 -0.0520 -0.1586
   65SOL    HW1  194   1.433   2.034   3.070  0.0427 -0.2822 -0.4391
   65SOL    HW2  195   1.355   1.966   2.937 -0.9115 -0.7489 -1.8890
   66SOL     OW  196   0.150   1.435   2.431  0.3924 -0.4582 -0.3105
   66SOL    HW1  197   0.113   1.526   2.458  0.2115 -1.1700  0.6362
   66SOL    HW2  198   0.147   1.425   2.332 -1.1146 -0.8420  2.2599
   67SOL     OW  199   2.661   2.777   2.966 -0.8868  0.1619  0.2816
   67SOL    HW1  200   2.571   2.730   2.945 -1.8580 -0.6312 -1.1916
   67SOL    HW2  201   2.701   2.820   2.882 -0.8047  0.7373 -2.0042
   68SOL     OW  202   0.856   2.554   1.302 -0.5466 -0.2705 -0.2701
   68SOL    HW1  203   0.768   2.535   1.251 -1.8535 -1.4720  0.5177
   68SOL    HW2  204   0.935   2.519   1.248  2.5303 -2.2970 -0.3979
   69SOL     OW  205   0.973   2.549   0.534  0.0705  0.1279  0.0559
   69SOL    HW1  206   0.909   2.579   0.458 -0.3602  1.0009  0.6196
   69SOL    HW2  207   0.917   2.546   0.624 -2.3220 -3.0375  1.2810
   70SOL     OW  208   2.532   0.719   2.742 -0.3102 -0.2765  0.2010
   70SOL    HW1  209   2.547   0.618   2.748  1.2501  2.9302  0.6996
   70SOL    HW2  210   2.626   0.762   2.732 -0.7266 -1.5131  1.2127
   71SOL     OW  211   0.751   1.243   2.442 -0.0528  0.6674  0.4124
   71SOL    HW1  212   0.792   1.304   2.512  3.7599 -2.7673  0.7929
   71SOL    HW2  213   0.656   1.211   2.475 -3.5700 -0.3188 -2.2515
   72SOL     OW  214   0.055   2.053   0.344 -0.3880  0.3470  0.0558
   72SOL    HW1  215   0.102   2.103   0.421 -0.4105  1.5934  0.9585
   72SOL    HW2  216   0.002   2.123   0.293  1.4524 -0.5306 -0.0638
   73SOL     OW  217   0.974   1.458   0.491 -0.0008  0.0330  0.1111
   73SOL    HW1  218   0.907   1.537   0.470  1.1686  1.9196  0.3253
   73SOL    HW2  219   0.928   1.380   0.529  0.4356  0.9575  1.1824
   74SOL     OW  220   2.280   2.705   0.012 -0.2847  0.7755 -0.1750
   74SOL    HW1  221   2.278   2.778   0.083  0.9522  0.0558 -0.4514
   74SOL    HW2  222   2.189   2.692   3.108 -1.4711  1.6698  1.0237
   75SOL     OW  223   2.179   1.787   1.296  0.7217 -0.2720 -0.1259
   75SOL    HW1  224   2.260   1.847   1.286  0.0506 -2.4251  2.3682
   75SOL    HW2  225   2.182   1.730   1.378  2.7641  0.8206  0.0001
   76SOL     OW  226   2.031   2.522   1.478 -0.3390  0.1100 -0.2776
   76SOL    HW1  227   1.950   2.560   1.532 -0.5763  2.2430  1.1289
   76SOL    HW2  228   2.026   2.418   1.482  2.0443  0.7347  0.1134
   77SOL     OW  229   2.428   0.190   1.935  0.5575 -0.4947 -0.1378
   77SOL    HW1  230   2.403   0.241   2.019 -0.2293  0.8340 -0.6528
   77SOL    HW2  231   2.486   0.110   1.954  4.8407  0.6160  1.4134
   78SOL     OW  232   1.519   0.714   3.016 -0.2948 -0.3083 -0.0773
   78SOL    HW1  233   1.596   0.662   3.061  0.1805  0.8435  1.2755
   78SOL    HW2  234   1.528   0.702   2.913  1.6335 -1.3879 -0.4695
   79SOL     OW  235   2.767   1.773   2.121 -0.5594 -0.0270 -0.2297
   79SOL    HW1  236   2.731   1.776   2.031  3.7935 -1.9144  5.1103
   79SOL    HW2  237   2.738   1.686   2.164  0.3069  2.1694  0.7020
   80SOL     OW  238   1.968   1.477   1.653 -0.1911  0.5408  0.1605
   80SOL    HW1  239   1.983   1.393   1.598 -2.0589  0.1821 -0.6202
   80SOL    HW2  240   1.872   1.500   1.644  2.3823 -0.5070  2.4409
   81SOL     OW  241   1.548   0.682   1.658 -0.1207  0.0168 -0.3183
   81SOL    HW1  242   1.555   0.639   1.752 -1.3710 -0.5002 -1.7422
   81SOL    HW2  243   1.512   0.778   1.663  3.2535 -0.8533 -2.7358
   82SOL     OW  244   1.321   2.527   1.365  0.5412 -0.0137 -0.9927
   82SOL    HW1  245   1.362   2.508   1.278 -3.5782  0.5794  0.8634
   82SOL    HW2  246   1.310   2.625   1.384  0.1178 -2.1705 -0.6918
   83SOL     OW  247   0.119   0.338   0.425 -0.1971 -0.0848 -0.1614
   83SOL    HW1  248   0.056   0.262   0.415 -0.2710  3.7132  2.2130
   83SOL    HW2  249   0.080   0.416   0.485  1.0689 -0.1151  1.3594
   84SOL     OW  250   0.313   1.223   3.073 -0.1591  0.1931 -0.0165
   84SOL    HW1  251   0.268   1.267   2.996  1.3084 -1.6323 -2.3417
   84SOL    HW2  252   0.318   1.283   0.014  1.4486 -1.1551 -0.6291
   85SOL     OW  253   2.797   1.895   1.824  0.0087 -0.4890  0.1045
   85SOL    HW1  254   2.816   1.803   1.856  1.3100  0.7755  1.5324
   85SOL    HW2  255   2.752   1.950   1.895  0.3232 -2.4360  0.2557
   86SOL     OW  256   2.790   2.303   1.691 -0.1591 -0.0252 -0.4151
   86SOL    HW1  257   2.765   2.205   1.683 -0.4417  0.4801 -0.3420
   86SOL    HW2  258   2.823   2.325   1.788  1.0634  1.7503  3.7002
   87SOL     OW  259   0.771   0.341   2.663 -0.4895 -0.1344  0.4570
   87SOL    HW1  260   0.750   0.285   2.579 -1.6730 -1.1290 -3.5099
   87SOL    HW2  261   0.710   0.310   2.741 -1.9037  0.1157  1.3091
   88SOL     OW  262   0.442   2.317   1.305 -0.2114 -0.2506  0.1341
   88SOL    HW1  263   0.507   2.254   1.253  1.8226 -0.6437  0.5766
   88SOL    HW2  264   0.375   2.256   1.359 -1.5210 -3.4923  0.9751
   89SOL     OW  265   1.062   0.815   1.580  0.0051  0.1175 -0.0798
   89SOL    HW1  266   1.108   0.758   1.510  2.2550  0.0518 -1.2743
   89SOL    HW2  267   0.984   0.756   1.620  0.3000 -2.0371  2.2132
   90SOL     OW  268   2.834   1.596   1.599  0.2975  0.3626  0.0216
   90SOL    HW1  269   2.854   1.667   1.528  0.2425  1.8680 -0.5902
   90SOL    HW2  270   2.855   1.634   1.692 -2.2444 -2.3926  2.4162
   91SOL     OW  271   1.386   1.281   0.716 -0.2423  0.5275 -0.0433
   91SOL    HW1  272   1.361   1.292   0.812  4.0555 -0.3506 -1.0748
   91SOL    HW2  273   1.308   1.241   0.661  0.9968 -1.8504 -0.3407
   92SOL     OW  274   2.476   0.506   0.895 -0.2705  0.2959  0.0521
   92SOL    HW1  275   2.410   0.550   0.962 -0.8800  1.1878 -1.3268
   92SOL    HW2  276   2.422   0.490   0.808 -1.5948 -1.5972 -0.4559
   93SOL     OW  277   1.912   0.728   2.942 -0.0527  0.2148 -0.4213
   93SOL    HW1  278   1.849   0.672   2.998  1.0938  1.1022 -2.9840
   93SOL    HW2  279   1.880   0.739   2.845 -0.2156 -0.6995 -0.2681
   94SOL     OW  280   2.478   1.711   2.452  0.0813  0.0690  0.1611
   94SOL    HW1  281   2.451   1.735   2.354  0.1723  0.5959 -3.3142
   94SOL    HW2  282   2.400   1.734   2.516 -0.1300  1.6976  0.8455
   95SOL     OW  283   1.999   0.503   1.077 -0.5323 -0.2144  0.6326
   95SOL    HW1  284   2.073   0.571   1.073 -1.1207  0.5031  0.2827
   95SOL    HW2  285   1.910   0.546   1.039 -3.1291  0.1088 -0.0828
   96SOL     OW  286   2.702   0.158   2.191 -0.2742  0.1380 -0.6049
   96SOL    HW1  287   2.667   0.105   2.111  0.7893  0.4935  0.1065
   96SOL    HW2  288   2.701   0.259   2.175 -1.7563  0.0249  1.1611
   97SOL     OW  289   2.340   0.287   1.415 -0.3060 -0.3476  0.0984
   97SOL    HW1  290   2.310   0.381   1.388 -0.1397  0.5809 -0.0457
   97SOL    HW2  291   2.263   0.243   1.466 -1.9826 -4.1413  0.0911
   98SOL     OW  292   1.589   2.456   1.626 -0.6228 -0.3076 -1.0164
   98SOL    HW1  293   1.510   2.474   1.687  0.1434 -0.7204  0.3726
   98SOL    HW2  294   1.557   2.397   1.551  1.4626  0.6869  0.2651
   99SOL     OW  295   2.440   2.047   1.532  1.0436  1.0603 -0.0450
   99SOL    HW1  296   2.449   2.146   1.571  0.9841  1.8943  2.8915
   99SOL    HW2  297   2.340   2.022   1.545 -2.9437 -1.0112  1.9250
  100SOL     OW  298   0.612   0.899   2.776  0.7738  0.0641  0.0837
  100SOL    HW1  299   0.581   0.861   2.867 -1.8616  0.0187  1.6895
  100SOL    HW2  300   0.560   0.989   2.761 -0.2129  2.0649  0.1474
  101SOL     OW  301   2.041   0.392   2.923  0.1154  0.2953 -0.4784
  101SOL    HW1  302   2.045   0.305   2.981  0.0619 -0.3955 -0.2207
  101SOL    HW2  303   2.062   0.469   2.980 -1.7955 -1.3697 -0.1685
  102SOL     OW  304   0.167   0.713   1.737  0.1134  0.2534  0.3178
  102SOL    HW1  305   0.153   0.744   1.833  0.9325 -2.6537 -1.6066
  102SOL    HW2  306   0.212   0.621   1.739 -3.9803 -2.2984 -1.7879
  103SOL     OW  307   2.786   0.852   2.783 -0.2999 -0.3745  0.0135
  103SOL    HW1  308   2.786   0.924   2.712  2.6853 -0.6843 -2.7156
  103SOL    HW2  309   2.871   0.799   2.771  0.6304  2.3016 -0.5814
  104SOL     OW  310   0.602   0.618   2.573  0.2055 -0.2935  0.3656
  104SOL    HW1  311   0.651   0.698   2.527  2.3722 -0.0728 -0.5325
  104SOL    HW2  312   0.587   0.544   2.504 -0.4049 -0.2578  1.6321
  105SOL     OW  313   2.544   1.649   1.812  0.2189  0.1347 -0.1443
  105SOL    HW1  314   2.441   1.636   1.809 -0.6723 -1.1359 -1.4464
  105SOL    HW2  315   2.589   1.577   1.867  0.5480  0.4657  1.3846
  106SOL     OW  316   1.962   0.542   0.433  0.2896  0.5925 -0.2525
  106SOL    HW1  317   1.990   0.570   0.341  0.4620  0.3048  0.3686
  106SOL    HW2  318   1.866   0.574   0.460 -1.2128 -1.8280 -0.3161
  107SOL     OW  319   0.278   1.604   0.813  0.5745 -0.4179 -0.4266
  107SOL    HW1  320   0.185   1.576   0.844  1.7155 -2.1995  0.1389
  107SOL    HW2  321   0.282   1.709   0.798 -0.2306  1.9332  0.6827
  108SOL     OW  322   2.824   2.557   1.617 -0.3896  0.1062 -0.3913
  108SOL    HW1  323   2.834   2.462   1.645 -0.1624  2.1161 -1.6324
  108SOL    HW2  324   2.799   2.562   1.519 -3.1297  0.8468  0.4215
  109SOL     OW  325   2.044   0.081   0.840  0.5683  0.2128  0.1328
  109SOL    HW1  326   2.129   0.116   0.802 -2.9219 -1.8020  1.8691
  109SOL    HW2  327   2.056   3.127   0.876  0.0786 -0.3072 -0.4003
  110SOL     OW  328   0.377   2.067   2.667  0.3386 -0.5220 -0.3374
  110SOL    HW1  329   0.391   2.103   2.573 -0.5033 -0.2467  0.7562
  110SOL    HW2  330   0.423   1.976   2.675  1.0096  2.0395 -1.7616
  111SOL     OW  331   1.581   2.771   1.792  0.1290  0.0085  0.3358
  111SOL    HW1  332   1.620   2.679   1.786  0.9540 -0.5568 -2.1542
  111SOL    HW2  333   1.576   2.811   1.696  0.4720  1.7785  1.2785
  112SOL     OW  334   1.992   2.633   3.072  0.2633  0.4899 -0.1118
  112SOL    HW1  335   1.932   2.662   2.997  0.9897  1.8490  1.9515
  112SOL    HW2  336   1.935   2.635   0.017 -2.6880 -0.0839  0.6203
  113SOL     OW  337   1.600   2.244   1.426  0.1395  0.0056 -0.2224
  113SOL    HW1  338   1.644   2.154   1.446 -0.1733  0.4241 -1.1388
  113SOL    HW2  339   1.651   2.313   1.371 -0.0462 -1.9442  0.8053
  114SOL     OW  340   2.893   0.937   0.750 -0.3260  0.7810  0.4669
  114SOL    HW1  341   2.846   0.929   0.839 -0.9612 -0.3321  1.9056
  114SOL    HW2  342   2.884   0.846   0.701 -0.4141 -0.7462  0.8977
  115SOL     OW  343   0.525   1.085   3.110 -0.0078 -0.1146 -0.1221
  115SOL    HW1  344   0.442   1.141   3.079 -0.4632  0.2209  1.0005
  115SOL    HW2  345   0.529   0.990   3.073 -0.3101  1.7798 -0.1047
  116SOL     OW  346   2.682   1.515   2.251  0.4376  0.1819 -0.0436
  116SOL    HW1  347   2.776   1.476   2.242 -1.1672 -0.5387  0.4923
  116SOL    HW2  348   2.633   1.465   2.327  0.2372 -0.0943  1.1358
  117SOL     OW  349   0.026   2.561   0.602  0.3565 -0.2743 -0.1007
  117SOL    HW1  350   0.063   2.493   0.668  0.9742  0.5792  1.8587
  117SOL    HW2  351   3.077   2.538   0.557  0.5672  0.5736  1.8063
  118SOL     OW  352   0.947   1.895   2.257 -0.2545  0.2939  0.0550
  118SOL    HW1  353   0.940   1.976   2.319  0.0148  2.4025  3.6672
  118SOL    HW2  354   0.922   1.914   2.159  0.3261 -1.0725 -1.2051
  119SOL     OW  355   0.173   2.238   3.107  0.2507  0.2204  0.4693
  119SOL    HW1  356   0.086   2.187   3.106  0.9785  5.4321  1.4355
  119SOL    HW2  357   0.220   2.237   3.021  1.1243  0.1404 -0.1298
  120SOL     OW  358   1.088   0.601   2.928  0.5287 -0.0970  0.0548
  120SOL    HW1  359   1.158   0.674   2.948  0.9363 -0.5972 -0.5932
  120SOL    HW2  360   1.108   0.550   2.846 -0.7783  1.7630  0.5257
  121SOL     OW  361   1.376   2.939   0.930 -0.6374 -0.4494 -0.3291
  121SOL    HW1  362   1.305   3.009   0.902 -0.6935 -0.7984  1.4737
  121SOL    HW2  363   1.430   2.970   1.010 -1.1178 -1.2336 -0.6926
  122SOL     OW  364   2.623   2.538   1.822 -0.4240  0.2337 -0.5780
  122SOL    HW1  365   2.537   2.589   1.803  1.2788  3.2561  1.6334
  122SOL    HW2  366   2.678   2.533   1.736 -1.4393  1.4620  0.3856
  123SOL     OW  367   0.540   2.637   0.750  0.3460  0.1291 -0.4789
  123SOL    HW1  368   0.508   2.632   0.655  0.0343  1.1254  4.4306
  123SOL    HW2  369   0.501   2.563   0.808  2.0283 -0.2229  0.6593
  124SOL     OW  370   2.223   1.018   2.972 -0.0585 -0.6035 -0.3041
  124SOL    HW1  371   2.267   1.093   2.914 -0.6119  0.3393  0.1126
  124SOL    HW2  372   2.283   0.936   2.979 -0.4675  0.1904  0.4189
  125SOL     OW  373   0.590   0.891   0.375  0.2097  0.0097  0.0889
  125SOL    HW1  374   0.567   0.879   0.471 -0.2341 -0.2653 -0.5494
  125SOL    HW2  375   0.679   0.932   0.359 -3.0113  0.1121 -3.1393
  126SOL     OW  376   3.130   1.314   0.522 -0.0455  0.0779  0.0950
  126SOL    HW1  377   0.023   1.296   0.431 -1.8256 -1.7668  2.4254
  126SOL    HW2  378   0.061   1.308   0.592  0.0993 -0.2636 -1.6124
  127SOL     OW  379   0.450   1.712   2.134 -0.0727  0.3362  0.7169
  127SOL    HW1  380   0.470   1.709   2.233 -1.5042 -1.1861  0.3077
  127SOL    HW2  381   0.431   1.805   2.095 -2.4937 -0.1148  2.6875
  128SOL     OW  382   0.782   1.105   3.100 -0.3850  0.1700 -0.1224
  128SOL    HW1  383   0.819   1.156   3.021 -1.0198  0.2447 -1.6561
  128SOL    HW2  384   0.679   1.112   3.108  2.2980  0.3956 -0.4430
  129SOL     OW  385   2.646   1.306   0.852  0.6831  0.2305  0.0953
  129SOL    HW1  386   2.630   1.249   0.939 -0.6949 -0.7941  1.3199
  129SOL    HW2  387   2.737   1.281   0.812 -0.4502 -0.6344  1.1374
  130SOL     OW  388   2.549   0.986   1.582 -0.1667  0.3380 -0.2074
  130SOL    HW1  389   2.621   0.916   1.607  0.6218 -0.4985 -1.5992
  130SOL    HW2  390   2.585   1.080   1.568  0.5524  1.5580 -1.5598
  131SOL     OW  391   2.744   3.120   2.695  0.6353 -0.6070 -0.0095
  131SOL    HW1  392   2.649   0.008   2.717  1.6481  1.4912 -0.8642
  131SOL    HW2  393   2.754   3.020   2.694  0.3115  2.8442 -0.2616
  132SOL     OW  394   0.107   1.577   1.220  0.1765  0.1944  0.0212
  132SOL    HW1  395   0.200   1.588   1.176 -1.0116  3.3981 -4.1103
  132SOL    HW2  396   0.031   1.590   1.155 -1.1874  1.0136  1.5743
  133SOL     OW  397   0.924   0.458   1.314  0.3401  0.2089 -0.0963
  133SOL    HW1  398   0.974   0.541   1.345  1.2481 -1.4501 -0.3443
  133SOL    HW2  399   0.825   0.483   1.309 -1.7815 -0.0308 -0.9552
  134SOL     OW  400   0.193   1.834   0.224  0.3577  0.1150  0.1609
  134SOL    HW1  401   0.157   1.822   0.129 -0.2503 -1.1571 -0.8056
  134SOL    HW2  402   0.138   1.900   0.282 -0.5892 -1.4389  0.1948
  135SOL     OW  403   1.942   0.927   1.399 -0.3536 -0.4974  0.0217
  135SOL    HW1  404   1.844   0.905   1.403  2.9415  1.1635  1.2280
  135SOL    HW2  405   1.982   0.880   1.317 -1.3441  0.9465 -0.3040
  136SOL     OW  406   0.244   0.898   0.426  0.1985  0.1621 -0.4413
  136SOL    HW1  407   0.342   0.896   0.408  0.0491  1.4963  1.9122
  136SOL    HW2  408   0.192   0.949   0.352 -0.8363 -0.6760  1.5292
  137SOL     OW  409   2.925   1.207   0.776  0.0899  0.2979 -0.1015
  137SOL    HW1  410   2.919   1.101   0.776 -0.1082  0.3794 -0.0401
  137SOL    HW2  411   3.015   1.227   0.815 -1.1275  0.6050  0.9094
  138SOL     OW  412   1.618   1.119   1.059  0.3719  0.1075 -0.3281
  138SOL    HW1  413   1.579   1.038   1.101  1.9568 -0.9938 -3.2563
  138SOL    HW2  414   1.718   1.134   1.080  0.6409  0.4192 -0.6711
  139SOL     OW  415   1.732   2.903   3.041  0.2997  0.0370 -0.1179
  139SOL    HW1  416   1.819   2.908   3.094 -0.1702  2.0887 -0.6296
  139SOL    HW2  417   1.662   2.851   3.095 -0.6987 -0.5183 -1.6262
  140SOL     OW  418   1.407   1.642   1.765  0.3738 -0.1969  0.3775
  140SOL    HW1  419   1.504   1.611   1.771  2.0026 -0.2109 -0.9025
  140SOL    HW2  420   1.349   1.557   1.773 -1.9223 -0.9532  2.2962
  141SOL     OW  421   1.680   1.998   0.435 -0.1717 -0.1128  0.0682
  141SOL    HW1  422   1.728   2.026   0.351 -2.1758 -1.3242 -1.1655
  141SOL    HW2  423   1.583   1.972   0.416 -2.7137  3.0833  3.0877
  142SOL     OW  424   0.839   0.540   3.076  0.1107  0.0264 -0.5657
  142SOL    HW1  425   0.841   0.628   3.127  1.3106 -0.9456  1.4026
  142SOL    HW2  426   0.883   0.547   2.984 -0.8906  0.1715  1.2620
  143SOL     OW  427   0.348   2.290   0.197  0.4084  0.4012 -0.3055
  143SOL    HW1  428   0.275   2.238   0.143 -2.8624 -3.4151  1.8028
  143SOL    HW2  429   0.295   2.347   0.263 -0.6253 -2.1073  0.6920
  144SOL     OW  430   1.482   3.006   1.153 -0.2516 -0.2949 -0.2421
  144SOL    HW1  431   1.462   3.080   1.221  0.0825 -0.8136 -3.2635
  144SOL    HW2  432   1.513   2.926   1.205  1.3836  3.0379 -0.5706
  145SOL     OW  433   2.161   1.164   0.306  0.0589 -0.2495  0.2389
  145SOL    HW1  434   2.211   1.131   0.226  0.7145 -0.9338  1.1602
  145SOL    HW2  435   2.089   1.095   0.336 -0.4691 -0.9261 -2.5117
  146SOL     OW  436   3.108   2.272   0.959  0.3685 -0.5207  0.4823
  146SOL    HW1  437   3.086   2.174   0.948  2.0516 -1.1252 -0.8591
  146SOL    HW2  438   3.032   2.335   0.936  1.6987  0.1103  0.2048
  147SOL     OW  439   2.450   3.086   1.633 -0.1710  0.0186  0.0297
  147SOL    HW1  440   2.502   2.999   1.634 -0.2042  1.1878  0.9258
  147SOL    HW2  441   2.514   0.022   1.602  1.7077 -0.9055  1.2116
  148SOL     OW  442   1.429   3.033   1.844 -0.3048  0.3254  0.4553
  148SOL    HW1  443   1.479   2.946   1.813 -0.6506 -1.6886 -1.9709
  148SOL    HW2  444   1.334   3.012   1.877 -1.7203 -2.4646 -0.7584
  149SOL     OW  445   1.887   0.789   2.257 -0.4334  0.0797  0.1291
  149SOL    HW1  446   1.925   0.738   2.341  0.6771 -2.4232 -0.0343
  149SOL    HW2  447   1.942   0.757   2.176  1.7411 -1.1473  1.5425
  150SOL     OW  448   0.204   0.052   0.263  0.0109  0.5309 -0.0495
  150SOL    HW1  449   0.253   0.020   0.347  2.0599  1.0456 -1.1102
  150SOL    HW2  450   0.230   0.146   0.247 -0.5047  0.8238 -0.9626
  151SOL     OW  451   0.173   2.237   0.538  0.3428 -0.0420 -0.1310
  151SOL    HW1  452   0.152   2.294   0.622 -0.5413 -1.7725  1.4576
  151SOL    HW2  453   0.189   2.289   0.450  0.2661  0.6945 -1.6452
  152SOL     OW  454   2.917   3.091   0.767  0.5135 -0.4608 -0.2141
  152SOL    HW1  455   3.017   3.079   0.779 -3.3706  0.1124 -0.4314
  152SOL    HW2  456   2.880   3.079   0.862 -0.6025 -1.2738  1.4495
  153SOL     OW  457   2.391   3.057   0.995 -0.3021 -0.1721  0.9303
  153SOL    HW1  458   2.330   3.000   0.934  0.0914 -0.5278 -0.1037
  153SOL    HW2  459   2.468   3.100   0.942 -0.0092  0.8567  0.6927
  154SOL     OW  460   0.878   0.450   1.869  0.2993  0.8822 -0.6028
  154SOL    HW1  461   0.905   0.492   1.956 -0.9071 -0.9485 -1.2385
  154SOL    HW2  462   0.903   0.506   1.788  0.4586 -4.0548 -0.1182
  155SOL     OW  463   3.134   1.129   1.072 -0.2081 -0.2055  0.0175
  155SOL    HW1  464   0.012   1.199   1.000 -2.4425  0.6054  3.2155
  155SOL    HW2  465   3.049   1.158   1.119 -1.7093 -0.2738  0.4270
  156SOL     OW  466   3.067   2.127   3.081 -0.4430 -0.1409 -0.5213
  156SOL    HW1  467   3.013   2.176   0.011  2.4007 -1.3308 -3.5578
  156SOL    HW2  468   3.012   2.098   3.003  1.3777 -1.2649  0.7009
  157SOL     OW  469   0.883   0.751   0.115 -0.2205  0.4419  0.0026
  157SOL    HW1  470   0.920   0.665   0.160  0.2758  2.1068 -2.3084
  157SOL    HW2  471   0.913   0.835   0.166  0.6931 -0.7935 -1.7524
  158SOL     OW  472   2.441   0.106   2.583 -0.5551 -0.2504  0.3905
  158SOL    HW1  473   2.481   0.064   2.666  1.0655  0.5307  0.4504
  158SOL    HW2  474   2.343   0.082   2.579  0.1718  0.2262  2.2426
  159SOL     OW  475   0.860   0.376   0.389  0.4271  0.2971  0.0386
  159SOL    HW1  476   0.916   0.294   0.414 -1.2366 -0.3620  1.9094
  159SOL    HW2  477   0.927   0.450   0.362  0.7086 -0.4941  1.5810
  160SOL     OW  478   1.288   1.864   2.802  0.0733  0.0950 -0.1504
  160SOL    HW1  479   1.301   1.893   2.702  0.6711  0.9845  0.2605
  160SOL    HW2  480   1.190   1.854   2.806  0.9317  1.0413 -0.5533
  161SOL     OW  481   2.916   1.533   2.523  0.0414 -0.0661  0.2883
  161SOL    HW1  482   2.829   1.585   2.533 -0.4771 -1.0233  0.1638
  161SOL    HW2  483   2.956   1.503   2.609  0.1976  1.9018 -0.8608
  162SOL     OW  484   0.538   2.478   1.511  0.0205  0.3265 -0.0081
  162SOL    HW1  485   0.487   2.420   1.441  0.6724  0.0503  1.4111
  162SOL    HW2  486   0.575   2.558   1.461 -0.1225  0.4204 -0.4099
  163SOL     OW  487   2.540   0.483   2.297  0.1107 -0.2080  0.4304
  163SOL    HW1  488   2.600   0.566   2.310  3.0495  4.6192  0.5728
  163SOL    HW2  489   2.523   0.434   2.385 -1.9143 -2.1771  1.4127
  164SOL     OW  490   2.544   1.278   0.591  0.6655  0.1355  0.1676
  164SOL    HW1  491   2.441   1.281   0.579  0.3845  0.7289 -1.8211
  164SOL    HW2  492   2.576   1.241   0.679  1.3125 -0.4193 -1.0831
  165SOL     OW  493   0.306   0.358   1.457 -1.0124 -0.4628  0.2947
  165SOL    HW1  494   0.225   0.292   1.469  1.3556  0.5625 -0.2185
  165SOL    HW2  495   0.296   0.423   1.377 -1.5129  1.8947 -2.0946
  166SOL     OW  496   2.066   1.047   0.868  0.0889 -0.2268 -0.6337
  166SOL    HW1  497   1.977   1.013   0.910 -3.8650 -1.2646  0.8281
  166SOL    HW2  498   2.126   0.968   0.838 -1.2881 -0.5066  1.8812
  167SOL     OW  499   0.181   0.636   0.354  0.1709  0.1097  0.1240
  167SOL    HW1  500   0.085   0.624   0.324 -1.9443 -2.0519  0.7892
  167SOL    HW2  501   0.183   0.693   0.439 -1.0797  0.5301  0.5219
  168SOL     OW  502   1.775   2.839   2.040  0.4114 -0.4398  0.2576
  168SOL    HW1  503   1.685   2.803   2.010 -4.5490 -1.0357  1.1069
  168SOL    HW2  504   1.814   2.920   1.991  1.2062  0.5445  0.7695
  169SOL     OW  505   0.909   1.233   0.907 -0.9273 -0.4386 -0.0728
  169SOL    HW1  506   0.892   1.148   0.858 -2.0007 -2.0356 -0.3273
  169SOL    HW2  507   0.877   1.226   1.006 -1.7031  0.9845  0.9250
  170SOL     OW  508   3.136   0.499   1.328 -0.5598 -0.2978  0.0513
  170SOL    HW1  509   0.090   0.530   1.310 -1.1961  2.1301 -2.0347
  170SOL    HW2  510   3.096   0.439   1.257  0.3723 -0.6294 -1.8767
  171SOL     OW  511   1.300   2.541   2.447 -0.0729  0.3375  0.5138
  171SOL    HW1  512   1.309   2.445   2.413  0.2998  0.3908  2.4680
  171SOL    HW2  513   1.260   2.611   2.377 -1.3894  0.4241 -0.2394
  172SOL     OW  514   0.292   2.785   1.259  0.6399  0.6419  0.7212
  172SOL    HW1  515   0.386   2.774   1.222 -0.2556 -1.2882  0.1070
  172SOL    HW2  516   0.228   2.851   1.203 -1.4537  3.2013  2.1289
  173SOL     OW  517   1.467   0.697   2.742  0.2525  0.1315 -0.0722
  173SOL    HW1  518   1.370   0.684   2.710 -2.4419 -1.7034  1.0133
  173SOL    HW2  519   1.530   0.631   2.692  1.9551 -1.4904  0.3585
  174SOL     OW  520   1.802   0.054   2.811 -0.2489 -0.2207  0.2003
  174SOL    HW1  521   1.780   0.152   2.789 -0.6786  1.1228  0.7250
  174SOL    HW2  522   1.721   3.136   2.805  4.8494  0.5122  1.2810
  175SOL     OW  523   1.877   2.316   0.174  0.1144  0.3892  0.4622
  175SOL    HW1  524   1.902   2.305   0.073 -1.4215  2.8685 -1.1835
  175SOL    HW2  525   1.955   2.288   0.230  0.3775  1.5810  0.3397
  176SOL     OW  526   2.054   0.158   3.070 -0.0976 -0.4224 -0.6188
  176SOL    HW1  527   2.155   0.130   3.074 -0.9940 -0.0925 -0.4698
  176SOL    HW2  528   2.005   0.091   3.012  0.9253 -1.3893 -0.3610
  177SOL     OW  529   1.022   1.826   0.571  0.6286  0.0781 -0.0580
  177SOL    HW1  530   0.962   1.765   0.520  0.1436  1.0949  1.3722
  177SOL    HW2  531   1.108   1.846   0.525  2.4634 -1.7880  1.1209
  178SOL     OW  532   2.672   2.331   2.957 -0.0616 -0.1682 -0.2669
  178SOL    HW1  533   2.602   2.358   2.890 -0.1482 -1.9394  1.4322
  178SOL    HW2  534   2.741   2.403   2.953 -3.5057 -1.6238 -1.4901
  179SOL     OW  535   0.494   2.926   2.904 -0.2094 -0.1710  0.0721
  179SOL    HW1  536   0.562   2.860   2.863  0.9979  1.2036 -1.0790
  179SOL    HW2  537   0.433   2.963   2.836 -0.1562 -0.0997  1.1778
  180SOL     OW  538   1.511   1.358   1.007 -1.0594  0.5048  0.1522
  180SOL    HW1  539   1.408   1.354   1.009 -1.2258  1.1880 -0.2631
  180SOL    HW2  540   1.555   1.264   1.005  2.5459  0.1599 -2.5533
  181SOL     OW  541   2.253   0.985   2.242 -0.3156 -0.0284 -0.4390
  181SOL    HW1  542   2.175   1.056   2.243 -0.1472 -0.8765  2.1599
  181SOL    HW2  543   2.292   0.973   2.151 -0.6528  1.5149  0.7509
  182SOL     OW  544   3.084   2.698   2.395  0.2565 -0.0381  0.1349
  182SOL    HW1  545   3.045   2.787   2.363 -3.5300 -0.7687 -0.4456
  182SOL    HW2  546   0.033   2.685   2.352 -3.3079  0.5087  2.7747
  183SOL     OW  547   1.368   0.809   2.274 -0.4681  0.3643  0.1468
  183SOL    HW1  548   1.469   0.838   2.281  1.5141  0.5307  1.0491
  183SOL    HW2  549   1.353   0.740   2.198 -0.5817 -1.8882 -1.7938
  184SOL     OW  550   0.456   1.137   1.725  0.2940 -0.1901 -0.0929
  184SOL    HW1  551   0.450   1.218   1.657 -0.4209  0.2417 -0.0897
  184SOL    HW2  552   0.368   1.084   1.725 -2.2502 -0.0955  0.8196
  185SOL     OW  553   2.021   0.680   0.194  0.3215  0.1320 -0.0018
  185SOL    HW1  554   1.925   0.714   0.175 -0.4480  2.1327  0.5619
  185SOL    HW2  555   2.075   0.748   0.249 -1.4942  0.6577 -0.9068
  186SOL     OW  556   0.579   2.445   0.176 -0.0917  0.0834  0.0673
  186SOL    HW1  557   0.501   2.383   0.173  1.0848 -0.7667 -1.9707
  186SOL    HW2  558   0.546   2.542   0.172  0.9365  0.9158  0.9905
  187SOL     OW  559   2.537   1.201   0.167  0.2170  0.1782  0.3282
  187SOL    HW1  560   2.460   1.155   0.120  0.6555  0.8679  0.4255
  187SOL    HW2  561   2.567   1.157   0.254 -1.6197 -1.4396  1.2165
  188SOL     OW  562   0.007   1.536   0.844 -0.2156 -1.2346 -0.1028
  188SOL    HW1  563   3.115   1.563   0.755  1.5954  0.0761  1.8585
  188SOL    HW2  564   3.106   1.589   0.926 -2.1208  0.6174  0.5127
  189SOL     OW  565   2.696   0.130   0.338 -0.2371 -0.4126 -0.6309
  189SOL    HW1  566   2.756   0.168   0.267 -0.3881 -0.5786  2.0202
  189SOL    HW2  567   2.725   0.034   0.344  1.0214  2.8120  1.6533
  190SOL     OW  568   1.413   1.483   2.188  0.1317  0.0289 -0.5112
  190SOL    HW1  569   1.318   1.517   2.171 -2.8607 -0.3618  2.0090
  190SOL    HW2  570   1.415   1.387   2.154 -0.2677 -2.4631  0.1235
  191SOL     OW  571   3.116   0.389   1.747  0.0455 -0.1514 -0.3373
  191SOL    HW1  572   3.050   0.374   1.674  3.0813  1.2590  1.6418
  191SOL    HW2  573   3.069   0.363   1.831 -2.3143  1.5342  0.8293
  192SOL     OW  574   1.923   1.449   1.122 -0.1117  0.2096  0.3424
  192SOL    HW1  575   1.997   1.438   1.194  0.8173  0.3528 -1.9129
  192SOL    HW2  576   1.926   1.547   1.090  0.4866  1.8538  0.0272
  193SOL     OW  577   1.138   0.707   0.904  0.1206 -0.2277 -0.2026
  193SOL    HW1  578   1.053   0.661   0.881  0.3822 -0.7330 -0.0633
  193SOL    HW2  579   1.122   0.786   0.972 -1.5810  1.1370  1.9836
  194SOL     OW  580   1.137   2.471   1.539  0.0793  0.2518 -0.6640
  194SOL    HW1  581   1.196   2.486   1.461  1.4829  2.4059 -1.3693
  194SOL    HW2  582   1.119   2.561   1.584  0.2447 -1.9121  0.6170
  195SOL     OW  583   2.372   0.469   2.766  0.2388  0.3140 -0.2156
  195SOL    HW1  584   2.270   0.482   2.765  0.5708  0.0759 -0.2768
  195SOL    HW2  585   2.401   0.451   2.859  1.2187 -1.1891 -0.5904
  196SOL     OW  586   1.101   2.712   1.656 -0.3883 -0.3148 -0.0036
  196SOL    HW1  587   1.112   2.703   1.756 -0.3673 -0.6262 -0.9633
  196SOL    HW2  588   1.001   2.702   1.631  1.5103 -1.8279  0.2734
  197SOL     OW  589   0.811   2.764   0.924 -0.8024  0.1143  0.2097
  197SOL    HW1  590   0.710   2.783   0.927 -1.1905  1.2636 -1.3182
  197SOL    HW2  591   0.856   2.834   0.865 -1.5197 -1.7647 -1.3516
  198SOL     OW  592   0.966   0.940   0.603  0.3315  0.3470 -0.5941
  198SOL    HW1  593   0.928   0.947   0.701 -1.5432  0.5960  0.2830
  198SOL    HW2  594   0.886   0.963   0.541 -1.3887  0.6534 -1.7463
  199SOL     OW  595   0.127   3.020   1.930  0.2542 -0.2902 -0.0041
  199SOL    HW1  596   0.121   3.011   1.830 -1.8469 -1.1542 -1.4631
  199SOL    HW2  597   0.162   2.937   1.965 -0.2614  2.3320 -0.2822
  200SOL     OW  598   2.137   1.897   2.289  0.1310  0.7772  0.7437
  200SOL    HW1  599   2.139   1.802   2.244  1.5528  0.2019 -3.0342
  200SOL    HW2  600   2.192   1.962   2.235  2.5584 -1.5375  0.6281
  201SOL     OW  601   0.025   2.256   1.470  0.2886  0.3174 -0.1154
  201SOL    HW1  602   3.094   2.271   1.397 -0.6753 -0.4726 -0.7606
  201SOL    HW2  603   0.022   2.326   1.547  0.2066  0.6902 -0.9514
  202SOL     OW  604   2.566   3.077   0.570 -0.4111 -0.6151 -0.1400
  202SOL    HW1  605   2.540   0.028   0.525  1.8900  0.5533 -0.9887
  202SOL    HW2  606   2.609   3.015   0.502 -0.3454 -0.6014 -1.8902
  203SOL     OW  607   1.293   2.268   1.953 -0.1183  0.4850 -0.4876
  203SOL    HW1  608   1.274   2.210   1.868  0.9180 -0.7936 -0.1748
  203SOL    HW2  609   1.371   2.229   2.003 -1.9337 -1.1935  1.3038
  204SOL     OW  610   1.276   2.112   1.719  0.4032  0.6636 -0.0656
  204SOL    HW1  611   1.278   2.153   1.626 -0.2156  1.1068 -0.3331
  204SOL    HW2  612   1.308   2.012   1.723 -1.4651 -2.6289  0.3736
  205SOL     OW  613   1.359   1.845   1.954 -0.3668 -0.3018 -0.3152
  205SOL    HW1  614   1.368   1.782   1.877 -2.8129 -0.6346  1.0845
  205SOL    HW2  615   1.289   1.828   2.021  1.6696  0.9787  1.5414
  206SOL     OW  616   0.353   0.798   2.684  0.3060  0.0289 -0.0780
  206SOL    HW1  617   0.454   0.800   2.699 -0.2084  3.2019 -1.1956
  206SOL    HW2  618   0.330   0.788   2.585 -0.3744  1.7878 -1.3157
  207SOL     OW  619   0.800   3.140   1.730  0.1291 -0.2711  0.0039
  207SOL    HW1  620   0.773   0.096   1.749 -0.7260 -1.5153 -2.2084
  207SOL    HW2  621   0.904   3.126   1.746 -0.0342  0.8431 -1.1630
  208SOL     OW  622   0.703   2.442   1.892  0.6951  0.5168  0.0715
  208SOL    HW1  623   0.702   2.541   1.874 -1.0929 -1.9623 -0.1702
  208SOL    HW2  624   0.709   2.381   1.810 -1.0371  0.5950  1.6331
  209SOL     OW  625   1.307   0.546   3.102 -0.1747 -0.1786  0.1680
  209SOL    HW1  626   1.383   0.607   3.064 -2.1319 -2.1326  0.7645
  209SOL    HW2  627   1.279   0.475   3.038 -0.0347 -0.0883  0.1057
  210SOL     OW  628   3.030   0.452   0.803  0.0553 -0.0196 -0.4165
  210SOL    HW1  629   2.944   0.480   0.848 -0.2396 -0.0494 -0.8230
  210SOL    HW2  630   3.017   0.406   0.717 -3.1386  0.2985  0.9493
  211SOL     OW  631   0.618   0.728   1.282  0.0146  0.3312  0.2422
  211SOL    HW1  632   0.646   0.632   1.283  1.0056  1.8969 -2.6450
  211SOL    HW2  633   0.535   0.744   1.343 -0.9533  2.6602  3.1226
  212SOL     OW  634   1.281   1.701   1.237  0.1507 -0.2286 -0.1921
  212SOL    HW1  635   1.184   1.675   1.235  3.0059  0.4289 -0.6638
  212SOL    HW2  636   1.322   1.674   1.328  0.3957  2.0571  0.0466
  213SOL     OW  637   1.975   0.114   1.664 -0.3055 -0.0190  0.1453
  213SOL    HW1  638   2.062   0.092   1.713  0.1070  0.0853  1.2730
  213SOL    HW2  639   1.895   0.085   1.721 -1.0911  1.9429  0.4029
  214SOL     OW  640   1.069   2.550   2.646 -0.0348  0.8104  0.3344
  214SOL    HW1  641   1.119   2.509   2.729 -0.7835 -0.5707 -0.9650
  214SOL    HW2  642   1.135   2.570   2.567  0.5254  1.8570 -1.8783
  215SOL     OW  643   2.756   1.635   1.176 -0.5018 -0.9918  0.3025
  215SOL    HW1  644   2.776   1.710   1.245  1.8204  0.0322  0.7386
  215SOL    HW2  645   2.723   1.692   1.097 -0.2177  1.0131  1.9058
  216SOL     OW  646   0.403   0.843   2.044 -0.0070 -0.3996  0.0208
  216SOL    HW1  647   0.346   0.758   2.039 -0.3380  1.7017  0.8027
  216SOL    HW2  648   0.350   0.913   2.092 -0.2778  0.8821  0.4284
  217SOL     OW  649   2.918   0.184   0.195  0.1604  0.3427  0.0687
  217SOL    HW1  650   2.914   0.284   0.168  1.2677  0.6194  0.3587
  217SOL    HW2  651   2.989   0.162   0.269  1.8675 -2.4918 -0.1572
  218SOL     OW  652   1.667   1.995   1.473  0.2212 -0.1814 -0.2463
  218SOL    HW1  653   1.589   1.944   1.516 -1.7166  0.4824 -2.7179
  218SOL    HW2  654   1.703   1.944   1.392  1.6178  0.6164 -1.1505
  219SOL     OW  655   1.630   0.383   0.074 -0.1574 -0.8038  0.2394
  219SOL    HW1  656   1.566   0.312   0.042  2.0049  1.1305  2.7788
  219SOL    HW2  657   1.640   0.387   0.173  0.0999 -2.8353 -2.1677
  220SOL     OW  658   1.645   1.987   1.074  0.2028  0.0714 -0.3695
  220SOL    HW1  659   1.674   2.082   1.055  0.2556 -0.2070  0.6738
  220SOL    HW2  660   1.543   1.982   1.075  1.2805 -2.0501 -0.1623
  221SOL     OW  661   3.064   0.637   0.206  0.4144  0.1617  0.2312
  221SOL    HW1  662   3.129   0.680   0.141 -0.4800  0.6891  0.2050
  221SOL    HW2  663   2.997   0.577   0.158  1.0330  0.5339  1.3657
  222SOL     OW  664   0.849   2.690   1.565  0.3561 -0.0259  0.0838
  222SOL    HW1  665   0.815   2.775   1.513 -0.6157 -0.9193 -1.1793
  222SOL    HW2  666   0.866   2.608   1.505  2.8160 -0.1226 -1.0659
  223SOL     OW  667   1.274   0.302   2.946  0.4756  0.3292 -0.3851
  223SOL    HW1  668   1.364   0.281   2.909 -0.1537  1.7256  0.5625
  223SOL    HW2  669   1.200   0.302   2.882  1.3476  0.2556  0.0145
  224SOL     OW  670   2.699   0.358   1.302 -0.1658 -0.2658 -0.2033
  224SOL    HW1  671   2.697   0.430   1.380  1.8501  1.9407  0.8504
  224SOL    HW2  672   2.605   0.321   1.285  1.2895  1.7268  0.4512
  225SOL     OW  673   0.753   1.289   1.757 -0.2137  0.0207 -0.0330
  225SOL    HW1  674   0.798   1.294   1.666 -0.2730 -2.9715  1.7864
  225SOL    HW2  675   0.663   1.243   1.751  0.0456  1.3134 -0.8051
  226SOL     OW  676   1.033   0.022   0.650 -0.5094 -0.1697 -0.8550
  226SOL    HW1  677   0.934   3.136   0.670 -2.3822 -3.3418 -1.6902
  226SOL    HW2  678   1.040   0.094   0.579  1.6926  2.6352  1.6073
  227SOL     OW  679   0.940   1.860   1.720 -0.2222 -0.0856  0.3579
  227SOL    HW1  680   0.987   1.849   1.632  3.3308  2.0479  0.7721
  227SOL    HW2  681   0.964   1.950   1.763  1.0428 -0.7236 -1.0617
  228SOL     OW  682   0.427   3.124   1.907  0.4814 -0.6047  0.1174
  228SOL    HW1  683   0.347   3.080   1.959 -2.2264 -2.2848 -0.3851
  228SOL    HW2  684   0.398   0.013   1.809  0.0983 -0.8598 -0.3083
  229SOL     OW  685   2.594   0.728   0.496 -0.1075 -0.1454 -0.1846
  229SOL    HW1  686   2.679   0.716   0.547 -3.0324  0.8806  0.1487
  229SOL    HW2  687   2.600   0.797   0.418  1.0061  0.8772  0.7395
  230SOL     OW  688   0.068   1.619   1.961 -0.5059 -0.0964  0.0602
  230SOL    HW1  689   0.063   1.693   1.892 -1.1766  0.5937 -0.8721
  230SOL    HW2  690   0.148   1.563   1.938 -1.8782 -0.8706 -1.8531
  231SOL     OW  691   1.146   2.976   1.255  0.0525  0.0119  0.0100
  231SOL    HW1  692   1.075   2.924   1.203 -1.0050 -0.3525  1.4673
  231SOL    HW2  693   1.213   2.919   1.292 -3.1372  5.8031 -1.4864
  232SOL     OW  694   2.460   2.519   0.119 -0.2505  0.3676 -0.7212
  232SOL    HW1  695   2.410   2.590   0.065  0.0991 -0.3417 -0.2912
  232SOL    HW2  696   2.471   2.432   0.067 -1.5683  2.0190  2.3797
  233SOL     OW  697   1.250   2.810   0.038  0.3023 -0.0264 -0.4867
  233SOL    HW1  698   1.189   2.892   0.064 -1.4812  3.6280  1.6524
  233SOL    HW2  699   1.205   2.761   3.098 -1.1270  1.8003 -1.8082
  234SOL     OW  700   0.888   0.928   2.134  0.1044 -0.2367  0.2630
  234SOL    HW1  701   0.910   0.970   2.224  0.6582 -1.6266 -1.3192
  234SOL    HW2  702   0.943   0.973   2.063 -1.1848  0.2353 -0.0531
  235SOL     OW  703   0.148   2.410   0.324  0.5377 -0.3914 -0.3750
  235SOL    HW1  704   0.197   2.496   0.352  0.5091  2.9374  0.4711
  235SOL    HW2  705   0.048   2.421   0.306  2.1604  0.8241 -0.1328
  236SOL     OW  706   2.005   2.597   2.657  0.0516  0.1428  0.1402
  236SOL    HW1  707   2.092   2.564   2.701  3.0790 -2.4723  0.9742
  236SOL    HW2  708   1.981   2.539   2.573  0.6869 -1.4907 -2.5618
  237SOL     OW  709   2.293   1.125   1.446 -0.0310 -0.2233 -0.3127
  237SOL    HW1  710   2.266   1.028   1.455 -0.9102  0.2340  0.2930
  237SOL    HW2  711   2.351   1.153   1.525 -0.7150 -0.5579  1.8507
  238SOL     OW  712   1.627   0.104   2.139 -0.1752 -0.0530  0.2353
  238SOL    HW1  713   1.691   0.061   2.210 -0.1469  0.7835 -2.6055
  238SOL    HW2  714   1.656   0.077   2.047  0.7116  0.7433 -2.6838
  239SOL     OW  715   0.875   1.953   2.008 -0.1297 -0.4519 -0.0524
  239SOL    HW1  716   0.768   1.948   1.992 -0.3927 -0.4034  2.5303
  239SOL    HW2  717   0.925   2.000   1.927  1.8441  0.8396 -0.8679
  240SOL     OW  718   2.944   2.881   0.599  0.0135 -0.1811  0.2693
  240SOL    HW1  719   3.030   2.908   0.551  4.9166  0.1925  1.2887
  240SOL    HW2  720   2.919   2.958   0.666  0.3084  0.9521 -0.1106
  241SOL     OW  721   1.424   1.938   0.364 -0.0103  0.6605 -0.1234
  241SOL    HW1  722   1.337   1.974   0.405 -1.8516  1.6262  0.4297
  241SOL    HW2  723   1.444   1.948   0.257 -3.5327 -0.8126 -1.8178
  242SOL     OW  724   2.311   1.041   0.099 -0.1484 -0.0286 -0.1916
  242SOL    HW1  725   2.341   0.945   0.108 -0.4185 -1.0238  0.3716
  242SOL    HW2  726   2.258   1.051   0.012  2.9345  0.4184  0.4977
  243SOL     OW  727   0.540   0.556   2.202 -0.1840  0.4982  0.0875
  243SOL    HW1  728   0.497   0.520   2.115 -2.8884  0.5140 -3.8521
  243SOL    HW2  729   0.554   0.656   2.191 -1.0003  0.1962 -1.7431
  244SOL     OW  730   1.611   2.538   2.837  0.3131  0.1996 -0.2774
  244SOL    HW1  731   1.561   2.581   2.755 -1.5484  1.8930 -1.5614
  244SOL    HW2  732   1.689   2.601   2.864  1.0967 -1.8352 -1.6982
  245SOL     OW  733   1.556   3.007   2.862  0.0882 -0.3369  0.0899
  245SOL    HW1  734   1.472   3.045   2.906  0.5307  0.3682 -2.1209
  245SOL    HW2  735   1.608   2.947   2.923 -0.0843  0.0937 -0.0795
  246SOL     OW  736   1.306   1.088   2.575  0.3335 -0.1740  0.2112
  246SOL    HW1  737   1.397   1.125   2.549  0.9342  1.1990  0.7638
  246SOL    HW2  738   1.252   1.171   2.605 -2.8441  1.9683 -0.9336
  247SOL     OW  739   2.854   0.626   2.175  0.4861 -0.0237  0.1549
  247SOL    HW1  740   2.834   0.532   2.137 -1.5493  0.0349 -0.6714
  247SOL    HW2  741   2.932   0.659   2.125 -3.9886 -0.3930  1.0698
  248SOL     OW  742   0.273   1.428   1.905 -0.4084  0.6584  0.5723
  248SOL    HW1  743   0.235   1.333   1.911 -1.3931  1.2107 -1.9190
  248SOL    HW2  744   0.365   1.436   1.949  1.5776  0.1067 -0.6206
  249SOL     OW  745   2.615   0.463   0.171  0.4963 -0.0218  0.2492
  249SOL    HW1  746   2.591   0.470   0.269 -2.3525 -0.0453  0.9186
  249SOL    HW2  747   2.548   0.402   0.126 -0.3142  1.2274 -1.5949
  250SOL     OW  748   2.959   0.196   0.649  0.4499 -0.2687  0.2744
  250SOL    HW1  749   2.882   0.255   0.618  0.9429  2.6274 -1.0004
  250SOL    HW2  750   2.927   0.108   0.692 -0.4498  0.9041  0.5792
  251SOL     OW  751   0.699   1.316   2.186 -0.1118  0.0673 -0.6756
  251SOL    HW1  752   0.718   1.294   2.286 -0.0601 -2.1260  1.8880
  251SOL    HW2  753   0.771   1.270   2.134 -1.9836 -0.3976  1.8698
  252SOL     OW  754   1.809   1.763   1.791  0.0374  0.2979  0.2409
  252SOL    HW1  755   1.753   1.690   1.748 -0.0612 -1.5523  2.5853
  252SOL    HW2  756   1.824   1.846   1.730  0.5006  1.7294 -2.1458
  253SOL     OW  757   1.818   2.173   1.850 -0.0592 -0.1888 -0.1810
  253SOL    HW1  758   1.902   2.147   1.907  2.0239 -0.4010 -0.2476
  253SOL    HW2  759   1.759   2.239   1.899 -1.0644  0.9129  1.1187
  254SOL     OW  760   0.834   2.171   2.329 -0.3236  0.0785 -0.1145
  254SOL    HW1  761   0.733   2.181   2.311 -2.4250 -1.1645  1.9337
  254SOL    HW2  762   0.878   2.231   2.259 -0.7830  0.4626 -0.4887
  255SOL     OW  763   1.327   0.591   0.624 -0.1253 -0.0490  0.0180
  255SOL    HW1  764   1.228   0.617   0.627  0.2997  1.7137  0.0885
  255SOL    HW2  765   1.378   0.650   0.693 -0.1017  0.1238 -1.4617
  256SOL     OW  766   1.869   2.233   1.125 -0.6279 -0.3002  0.1235
  256SOL    HW1  767   1.917   2.174   1.192  0.3153  0.8867  1.5131
  256SOL    HW2  768   1.867   2.193   1.034 -0.3600 -1.8293 -1.0856
  257SOL     OW  769   0.287   2.265   2.829 -0.4529  0.1507 -0.2591
  257SOL    HW1  770   0.332   2.199   2.767  1.9057 -0.7528 -1.4225
  257SOL    HW2  771   0.193   2.284   2.790 -0.8789 -0.6903  0.2878
  258SOL     OW  772   0.497   1.205   2.518  0.6415  0.1526  0.3925
  258SOL    HW1  773   0.503   1.185   2.615 -0.8186  1.2456 -1.3249
  258SOL    HW2  774   0.465   1.301   2.498  0.7392  1.6760 -2.7532
  259SOL     OW  775   1.267   0.837   2.517 -0.2908 -0.1184  0.2391
  259SOL    HW1  776   1.286   0.934   2.543 -0.6135 -3.5828 -2.2694
  259SOL    HW2  777   1.298   0.822   2.419 -1.9804  1.4082 -1.3103
  260SOL     OW  778   2.017   0.543   0.705  0.1645 -0.3846 -0.6252
  260SOL    HW1  779   1.930   0.512   0.748  0.6502  0.8054  3.5799
  260SOL    HW2  780   2.011   0.542   0.605 -2.2047 -0.8183  3.8965
  261SOL     OW  781   0.695   0.311   3.121 -0.0494 -0.3127 -0.5436
  261SOL    HW1  782   0.677   0.286   0.076  1.6185 -1.2993  1.3477
  261SOL    HW2  783   0.738   0.405   3.118 -2.4784  1.7979  1.6113
  262SOL     OW  784   2.020   2.884   2.568  0.3924  0.6204 -0.0612
  262SOL    HW1  785   2.012   2.785   2.586  0.8136 -1.1512  1.1970
  262SOL    HW2  786   2.072   2.904   2.483  0.9621 -0.0960  0.7396
  263SOL     OW  787   0.896   1.891   2.884  0.1209  0.0728 -0.0695
  263SOL    HW1  788   0.932   1.813   2.826  1.0929  2.0080  3.1920
  263SOL    HW2  789   0.801   1.914   2.855 -3.6572 -0.4947  0.1342
  264SOL     OW  790   0.378   1.809   1.819  0.0286 -0.4125 -0.2199
  264SOL    HW1  791   0.455   1.745   1.848  1.2673 -2.5241  0.2368
  264SOL    HW2  792   0.330   1.837   1.906  1.8506  0.6762  2.2138
  265SOL     OW  793   0.814   1.061   0.391  0.2420 -0.1587  0.2026
  265SOL    HW1  794   0.781   1.153   0.414  2.2393 -2.3734  0.5055
  265SOL    HW2  795   0.882   1.061   0.312  0.0213  1.6231 -0.3210
  266SOL     OW  796   1.710   1.686   0.154 -0.2815 -0.1167  0.3569
  266SOL    HW1  797   1.806   1.721   0.126  3.9263  3.2983 -2.9701
  266SOL    HW2  798   1.701   1.691   0.257  1.9637  1.0940  0.6367
  267SOL     OW  799   2.647   0.206   2.958 -0.1724 -0.1468 -0.3136
  267SOL    HW1  800   2.698   0.155   3.029 -0.9296 -1.2164 -0.5361
  267SOL    HW2  801   2.707   0.215   2.879  1.0215 -0.7855  1.6939
  268SOL     OW  802   0.515   0.524   2.822  0.3680  0.9002 -0.0839
  268SOL    HW1  803   0.538   0.575   2.735 -0.3584 -0.5849  0.4728
  268SOL    HW2  804   0.565   0.434   2.839 -0.7615  0.4822  2.8100
  269SOL     OW  805   1.529   0.630   2.446 -0.2014 -0.2455 -0.0671
  269SOL    HW1  806   1.457   0.566   2.422  1.8531  4.3526 -0.1278
  269SOL    HW2  807   1.518   0.719   2.397 -0.9048 -1.5465 -0.6102
  270SOL     OW  808   0.983   0.882   2.541 -0.3322  0.2122 -0.4534
  270SOL    HW1  809   1.086   0.875   2.556  2.2164 -1.5714 -0.9313
  270SOL    HW2  810   0.934   0.842   2.623 -0.3205  1.0209 -0.0703
  271SOL     OW  811   2.802   0.955   0.033 -0.0900 -0.5396 -0.2405
  271SOL    HW1  812   2.744   0.980   3.093  0.1626 -1.6614  0.2314
  271SOL    HW2  813   2.869   0.889   0.008 -1.9158  1.8744  0.0653
  272SOL     OW  814   2.477   1.867   2.781 -0.5233 -0.6873 -0.4571
  272SOL    HW1  815   2.512   1.856   2.689  1.8348 -0.1185  1.4675
  272SOL    HW2  816   2.425   1.783   2.801  1.3878  1.2472  0.9304
  273SOL     OW  817   3.058   0.399   2.805  0.4420 -0.0805 -0.3598
  273SOL    HW1  818   2.977   0.343   2.827  0.5148  0.7603  1.5521
  273SOL    HW2  819   0.004   0.345   2.796  3.3113 -1.2067 -0.7994
  274SOL     OW  820   3.088   0.015   1.528  0.2310 -0.0131 -0.3390
  274SOL    HW1  821   3.003   3.120   1.565  0.9371 -3.2927 -0.0958
  274SOL    HW2  822   3.080   0.040   1.430  1.4368 -1.5337 -0.9373
  275SOL     OW  823   2.051   1.260   0.670  0.1034  0.3889  0.0701
  275SOL    HW1  824   2.043   1.198   0.751  0.9506  0.5038 -0.1264
  275SOL    HW2  825   1.972   1.258   0.604  1.0037  0.6065  1.2915
  276SOL     OW  826   0.196   1.305   2.765  0.8826 -0.4837  0.5982
  276SOL    HW1  827   0.220   1.207   2.764 -1.1910  0.9620 -0.4619
  276SOL    HW2  828   0.220   1.351   2.682  1.5894 -3.4078  2.9246
  277SOL     OW  829   1.887   2.483   1.890 -0.5721  0.1667 -0.1396
  277SOL    HW1  830   1.807   2.446   1.943  0.2671 -1.7237 -0.4099
  277SOL    HW2  831   1.945   2.542   1.951  1.3590 -3.5906 -2.4957
  278SOL     OW  832   2.047   0.218   1.422  0.0719  0.4954 -0.1834
  278SOL    HW1  833   2.011   0.186   1.507 -0.0523  0.3110 -3.0399
  278SOL    HW2  834   2.030   0.150   1.349 -0.8371  2.4912  1.3871
  279SOL     OW  835   1.387   1.195   3.022 -0.5399  0.0569 -0.3295
  279SOL    HW1  836   1.365   1.141   2.939  0.0692 -0.5995 -0.6248
  279SOL    HW2  837   1.423   1.129   3.094 -1.4664  0.2592  0.9911
  280SOL     OW  838   0.577   1.727   1.139  0.2176  0.5758  0.1548
  280SOL    HW1  839   0.589   1.810   1.085 -1.4342 -2.9063 -0.6430
  280SOL    HW2  840   0.604   1.730   1.235 -0.9538  1.9665 -3.9202
  281SOL     OW  841   0.304   0.260   2.568  0.3593  0.0459 -0.4298
  281SOL    HW1  842   0.362   0.336   2.548 -2.3235 -2.2188  0.5920
  281SOL    HW2  843   0.283   0.199   2.491 -3.0207 -0.0234 -0.5145
  282SOL     OW  844   0.044   0.973   1.454  0.2968  0.7933  0.4162
  282SOL    HW1  845   0.025   1.075   1.445  0.7008  0.1038 -1.6286
  282SOL    HW2  846   0.071   0.948   1.356 -2.6911  2.6159 -2.1392
  283SOL     OW  847   1.502   2.222   2.417 -0.3941  0.6273 -0.4955
  283SOL    HW1  848   1.559   2.152   2.468  2.0376 -2.3651  1.7026
  283SOL    HW2  849   1.404   2.211   2.416  0.0054  1.8755 -0.0987
  284SOL     OW  850   1.792   1.050   0.069 -0.4961 -0.3950  0.1953
  284SOL    HW1  851   1.786   1.152   0.084  0.1832  1.3042 -0.5861
  284SOL    HW2  852   1.862   1.035   3.140  1.8819  0.6332  0.9576
  285SOL     OW  853   2.998   3.094   2.948 -0.2582 -0.2408  0.5645
  285SOL    HW1  854   2.919   0.014   2.926  1.3859  2.4701  0.1156
  285SOL    HW2  855   3.039   3.131   3.033 -0.4837 -1.3349  0.7885
  286SOL     OW  856   2.060   2.678   1.263  0.1619 -0.1840 -0.4203
  286SOL    HW1  857   2.051   2.631   1.353 -0.0358  1.6902 -0.2020
  286SOL    HW2  858   2.123   2.757   1.277 -0.1946 -0.7185  2.3337
  287SOL     OW  859   0.831   0.911   1.273  0.0221  0.1751 -0.2918
  287SOL    HW1  860   0.749   0.861   1.302  0.7622 -0.9406  1.6202
  287SOL    HW2  861   0.864   0.954   1.363 -1.3751 -1.7820 -0.8270
  288SOL     OW  862   1.526   2.754   3.123 -0.1515 -0.2818  0.1930
  288SOL    HW1  863   1.522   2.653   3.111 -0.9126  1.0987 -2.0709
  288SOL    HW2  864   1.447   2.793   0.032 -1.5478 -1.6192  1.2123
  289SOL     OW  865   0.064   1.868   3.128  1.0171  0.2114  0.1439
  289SOL    HW1  866   0.141   1.902   3.069  0.0318 -0.4569 -1.7959
  289SOL    HW2  867   3.132   1.940   3.118 -0.5860  3.9142 -0.2512
  290SOL     OW  868   1.126   2.674   0.761  0.3596  0.2135  0.1810
  290SOL    HW1  869   1.109   2.608   0.686  0.5010 -0.8006 -0.2298
  290SOL    HW2  870   1.157   2.625   0.846  1.0536 -0.8059 -1.2727
  291SOL     OW  871   2.274   2.041   0.128 -0.0193  0.0497  0.1392
  291SOL    HW1  872   2.261   2.131   0.083  0.0118  1.2178  0.9116
  291SOL    HW2  873   2.336   1.980   0.076 -0.3620 -0.0090 -1.1294
  292SOL     OW  874   0.883   1.227   2.001  0.3335  0.0655  0.2405
  292SOL    HW1  875   0.979   1.187   1.994  1.0560 -0.1389 -0.1974
  292SOL    HW2  876   0.852   1.259   1.911  0.8153  0.2974 -0.7480
  293SOL     OW  877   2.149   2.657   0.951 -0.0468  0.0367  0.4485
  293SOL    HW1  878   2.234   2.649   1.005 -1.5279  1.7692 -1.2725
  293SOL    HW2  879   2.070   2.608   0.993 -1.1986 -1.8504  1.0304
  294SOL     OW  880   0.015   0.714   2.459 -0.1861 -0.1756  0.3441
  294SOL    HW1  881   3.131   0.807   2.429 -0.9778 -3.0758 -3.1785
  294SOL    HW2  882   0.113   0.678   2.454 -1.5482  0.5407 -0.2582
  295SOL     OW  883   0.864   2.028   0.364 -0.0861 -0.4829 -0.4721
  295SOL    HW1  884   0.802   1.954   0.352  1.3253  3.3510  0.0809
  295SOL    HW2  885   0.960   1.995   0.341  1.7382  1.5282 -0.1391
  296SOL     OW  886   2.108   1.917   2.769  0.4430  0.5756  0.5248
  296SOL    HW1  887   2.140   1.886   2.677 -2.5772  2.8032 -2.4265
  296SOL    HW2  888   2.016   1.886   2.795  2.0083  1.9286 -1.6723
  297SOL     OW  889   2.854   0.570   2.975 -0.6212  0.3512  0.5529
  297SOL    HW1  890   2.913   0.509   2.920 -0.9009 -0.5870  2.8693
  297SOL    HW2  891   2.760   0.550   2.955  1.2416  2.2828  1.5101
  298SOL     OW  892   0.884   2.302   2.911  0.1463 -0.1938  0.1213
  298SOL    HW1  893   0.866   2.205   2.926 -0.2720 -0.0187  0.3387
  298SOL    HW2  894   0.827   2.355   2.979 -2.5410 -0.6085  0.7627
  299SOL     OW  895   1.453   2.933   2.631 -0.2205  0.1374 -0.1129
  299SOL    HW1  896   1.461   3.001   2.555 -0.0876 -2.0600  4.0911
  299SOL    HW2  897   1.496   2.969   2.717 -0.5566 -1.2327  1.6232
  300SOL     OW  898   2.764   0.330   0.506 -0.5775 -0.2314 -0.3106
  300SOL    HW1  899   2.678   0.388   0.499  3.1834 -3.3754 -3.6529
  300SOL    HW2  900   2.743   0.246   0.457  0.1310 -0.2709  3.5712
  301SOL     OW  901   1.166   1.026   1.692  0.0508 -0.6676  0.2905
  301SOL    HW1  902   1.115   0.944   1.663  0.8179  2.2330 -1.1965
  301SOL    HW2  903   1.145   1.107   1.634 -1.2678 -2.7921  1.4443
  302SOL     OW  904   0.100   2.513   3.130 -0.3576  0.3874 -0.3848
  302SOL    HW1  905   0.129   2.419   0.006  1.4076  2.5336  0.2916
  302SOL    HW2  906   0.184   2.570   3.108  0.9589  1.6880 -0.0562
  303SOL     OW  907   3.132   0.023   2.555 -0.4055 -0.3381 -0.2199
  303SOL    HW1  908   0.035   0.116   2.571  0.9567  1.8189  0.4635
  303SOL    HW2  909   3.043   0.042   2.510 -0.3991  1.5830 -1.4791
  304SOL     OW  910   2.963   0.308   1.532 -0.2875 -0.0233 -0.1419
  304SOL    HW1  911   2.984   0.240   1.458  2.6307 -0.1655 -0.9177
  304SOL    HW2  912   2.861   0.327   1.532 -1.6879 -0.1905 -0.4536
  305SOL     OW  913   0.344   2.969   2.165 -0.0262  0.3743  0.6770
  305SOL    HW1  914   0.414   3.039   2.175  0.3913 -1.3861 -3.2255
  305SOL    HW2  915   0.272   2.984   2.234  1.8774 -1.1025 -2.1841
  306SOL     OW  916   2.800   0.874   1.599  0.1411 -0.1920  0.1706
  306SOL    HW1  917   2.800   0.847   1.501 -0.7945  1.1834 -0.3722
  306SOL    HW2  918   2.893   0.863   1.636 -1.4197  2.7743 -0.7489
  307SOL     OW  919   1.400   0.658   1.287 -0.6413  0.1124  0.5524
  307SOL    HW1  920   1.415   0.608   1.372 -2.2990  0.3349  1.5704
  307SOL    HW2  921   1.337   0.605   1.231  2.3497  2.5586  2.4138
  308SOL     OW  922   2.817   2.088   1.118  0.3094 -0.1680 -0.2143
  308SOL    HW1  923   2.803   2.110   1.217 -0.7622  0.0544  0.7258
  308SOL    HW2  924   2.733   2.052   1.075 -0.3872 -0.1719  0.2068
  309SOL     OW  925   2.359   1.480   1.431  0.4281  0.2120  0.0771
  309SOL    HW1  926   2.402   1.515   1.346 -0.8765 -0.4609 -0.2210
  309SOL    HW2  927   2.433   1.488   1.497 -1.0126 -1.8608 -2.0167
  310SOL     OW  928   2.743   1.795   0.263 -0.2107 -0.3958  0.6112
  310SOL    HW1  929   2.738   1.702   0.221  0.7937  2.6333  2.9235
  310SOL    HW2  930   2.757   1.866   0.190 -2.7798 -1.8994  1.5204
  311SOL     OW  931   2.277   2.030   2.937 -0.7603 -0.0005  0.4952
  311SOL    HW1  932   2.202   1.989   2.881 -0.3904  1.7382  0.7055
  311SOL    HW2  933   2.371   2.000   2.910 -1.8528  1.6488  0.5725
  312SOL     OW  934   2.486   1.627   1.222  0.0422  0.5873 -0.0400
  312SOL    HW1  935   2.462   1.716   1.256  0.2118 -2.2154  1.4773
  312SOL    HW2  936   2.587   1.624   1.200  0.0983 -1.7585  0.4241
  313SOL     OW  937   2.503   2.282   1.298  0.3106  0.0762  0.4346
  313SOL    HW1  938   2.582   2.227   1.325 -0.2506 -2.0564 -2.1054
  313SOL    HW2  939   2.513   2.384   1.323  0.2575  2.2055  2.2428
  314SOL     OW  940   0.986   2.138   0.778  0.5646 -0.0345 -0.2922
  314SOL    HW1  941   0.956   2.207   0.850 -0.8350  0.9926  0.7844
  314SOL    HW2  942   0.974   2.177   0.685 -0.5557  0.5142  2.2708
  315SOL     OW  943   0.674   2.777   2.772  0.1924  0.4410  0.2611
  315SOL    HW1  944   0.752   2.799   2.712  2.9087  0.3095  0.1848
  315SOL    HW2  945   0.652   2.676   2.772 -1.1176 -0.1538 -2.7846
  316SOL     OW  946   0.086   0.836   0.660  0.3092  0.4571  0.6101
  316SOL    HW1  947   0.156   0.878   0.604  1.3953  0.5279  4.1688
  316SOL    HW2  948   0.005   0.807   0.604  0.8738 -1.6305 -3.2417
  317SOL     OW  949   1.648   0.562   0.723 -0.4395  0.1216 -0.2816
  317SOL    HW1  950   1.582   0.640   0.747  1.6672  0.4949  2.1130
  317SOL    HW2  951   1.672   0.563   0.622 -0.9154 -1.4946 -3.0762
  318SOL     OW  952   0.178   2.688   0.418 -0.0903  0.4962 -0.7916
  318SOL    HW1  953   0.116   2.725   0.343 -2.4374  0.9383 -1.5304
  318SOL    HW2  954   0.130   2.650   0.504  0.4301  1.0081  2.0156
  319SOL     OW  955   0.623   1.817   3.096  0.2797 -0.0551  0.2514
  319SOL    HW1  956   0.717   1.802   3.129  1.6265 -3.2175 -0.6040
  319SOL    HW2  957   0.630   1.897   3.029  0.0719 -0.1426 -0.8433
  320SOL     OW  958   0.785   2.598   2.342  0.0409  0.6459 -0.0384
  320SOL    HW1  959   0.755   2.691   2.364  2.1586  0.0515  0.2122
  320SOL    HW2  960   0.819   2.538   2.416  1.0656  0.0625  0.2739
  321SOL     OW  961   1.256   3.029   2.970  0.1046 -0.4779  0.0551
  321SOL    HW1  962   1.269   2.944   3.027  0.2701 -0.2063  2.2842
  321SOL    HW2  963   1.157   3.041   2.960  1.1095  1.4879  1.3802
  322SOL     OW  964   2.613   1.466   2.008 -0.4083 -0.2267  0.0019
  322SOL    HW1  965   2.614   1.477   2.107  0.6500 -2.5482 -0.7268
  322SOL    HW2  966   2.581   1.374   1.987  2.7308 -0.5166  0.7244
  323SOL     OW  967   2.513   0.452   0.443 -0.4348  0.3777  0.6778
  323SOL    HW1  968   2.420   0.450   0.401  1.6724 -0.2233  0.2182
  323SOL    HW2  969   2.529   0.546   0.475  0.2447  0.5012  0.3181
  324SOL     OW  970   0.283   3.033   2.765 -0.3555  0.1051  0.3957
  324SOL    HW1  971   0.252   3.059   2.862 -0.8828  2.0837  0.6481
  324SOL    HW2  972   0.213   2.989   2.704  2.2910 -2.8922 -0.4519
  325SOL     OW  973   1.563   0.358   2.198  0.2185 -0.0439  0.3374
  325SOL    HW1  974   1.584   0.259   2.180 -2.5383  1.9966 -0.9791
  325SOL    HW2  975   1.475   0.362   2.251  0.3562  0.3209  1.9289
  326SOL     OW  976   2.468   2.557   1.360  0.3583  0.8773  0.5735
  326SOL    HW1  977   2.416   2.547   1.452 -1.3482  0.4073  0.2882
  326SOL    HW2  978   2.410   2.558   1.277 -1.0257 -1.7482  0.4905
  327SOL     OW  979   1.521   0.217   2.881  0.5786  0.3651  0.5956
  327SOL    HW1  980   1.520   0.159   2.965 -1.5231  0.4892  0.2340
  327SOL    HW2  981   1.600   0.275   2.881 -2.4487 -1.3170 -0.1227
  328SOL     OW  982   2.603   1.308   2.704  0.5516  0.5781 -0.3106
  328SOL    HW1  983   2.590   1.322   2.606  2.4865 -1.7809  1.8601
  328SOL    HW2  984   2.644   1.390   2.742 -0.6488  2.3195 -2.4205
  329SOL     OW  985   1.827   2.595   1.643  0.2390  0.7689 -0.0822
  329SOL    HW1  986   1.861   2.552   1.730  0.8032  2.4177 -1.5544
  329SOL    HW2  987   1.729   2.564   1.631  2.1847  1.6320  1.6702
  330SOL     OW  988   2.568   1.506   1.600  0.4177  0.4288 -0.3496
  330SOL    HW1  989   2.560   1.554   1.689  2.7814  0.3058 -1.9210
  330SOL    HW2  990   2.648   1.548   1.555  3.2988  2.2496 -0.0689
  331SOL     OW  991   0.172   1.804   1.410  0.0300  0.2099 -0.5213
  331SOL    HW1  992   0.146   1.723   1.361  1.2293  2.1971 -0.6776
  331SOL    HW2  993   0.263   1.836   1.380 -2.8383  0.1711 -0.4189
  332SOL     OW  994   0.550   0.253   1.155 -0.5446 -0.0474  0.1546
  332SOL    HW1  995   0.621   0.191   1.110  1.7188 -1.1018  0.0655
  332SOL    HW2  996   0.512   0.201   1.234  1.9393  0.5029 -0.5685
  333SOL     OW  997   2.020   2.658   2.031 -0.6985 -0.1124 -0.3448
  333SOL    HW1  998   2.106   2.699   2.061 -1.2266  1.8483  0.6737
  333SOL    HW2  999   1.947   2.727   2.013 -0.7583 -0.8254 -2.5350
  334SOL     OW 1000   1.260   1.135   1.297 -0.4026  0.3875  0.3888
  334SOL    HW1 1001   1.303   1.229   1.295  1.1307 -0.1426  0.7264
  334SOL    HW2 1002   1.251   1.103   1.202  1.5928  1.2142 -0.3969
  335SOL     OW 1003   0.974   2.957   2.832 -0.5522 -0.0819 -0.2711
  335SOL    HW1 1004   0.894   3.022   2.853 -1.7329  0.9281 -0.0934
  335SOL    HW2 1005   0.960   2.902   2.748  0.4851  0.5915 -2.6610
  336SOL     OW 1006   2.751   2.583   2.068  0.3016  0.0477  0.1229
  336SOL    HW1 1007   2.842   2.607   2.033  1.7266 -0.9442  1.2571
  336SOL    HW2 1008   2.695   2.546   1.995 -0.8875  1.2102 -0.6892
  337SOL     OW 1009   2.384   1.569   0.643 -0.5007 -0.4270  0.0451
  337SOL    HW1 1010   2.425   1.487   0.607  1.9997  3.4378  0.9232
  337SOL    HW2 1011   2.405   1.645   0.578 -1.5366  1.7264 -1.7966
  338SOL     OW 1012   1.066   1.791   1.482 -0.5918 -0.1344  0.4828
  338SOL    HW1 1013   1.139   1.859   1.458  0.0780 -1.3055  2.0726
  338SOL    HW2 1014   0.998   1.785   1.406  0.3069  0.9049 -1.4176
  339SOL     OW 1015   0.071   0.972   2.324  0.0808  0.2025  0.0426
  339SOL    HW1 1016   0.114   1.002   2.233  0.4768  0.0727 -2.3336
  339SOL    HW2 1017   0.044   1.048   2.385  1.9217 -1.7301 -2.8157
  340SOL     OW 1018   1.653   2.857   1.310  0.4507  0.0222 -0.2640
  340SOL    HW1 1019   1.716   2.935   1.333 -2.6167 -1.7715  1.1907
  340SOL    HW2 1020   1.702   2.797   1.247  2.9286  0.1021  0.7829
  341SOL     OW 1021   1.907   1.487   0.805 -0.1726 -0.2025  0.2358
  341SOL    HW1 1022   1.956   1.410   0.759  1.8439  1.5036 -0.4826
  341SOL    HW2 1023   1.896   1.482   0.905  2.0669  0.7684 -1.0030
  342SOL     OW 1024   0.423   1.352   0.913  0.4322  0.2683 -0.2180
  342SOL    HW1 1025   0.403   1.293   0.831 -1.1362  0.2472 -0.2961
  342SOL    HW2 1026   0.419   1.450   0.888 -0.9672 -2.0489 -0.0948
  343SOL     OW 1027   2.283   0.541   1.378  0.2420  0.0904  0.2457
  343SOL    HW1 1028   2.192   0.562   1.420  0.1092  1.5470  1.9179
  343SOL    HW2 1029   2.313   0.621   1.320  0.6469  2.0588  0.3403
  344SOL     OW 1030   2.120   2.665   0.680 -0.0801 -0.2955 -0.1532
  344SOL    HW1 1031   2.212   2.667   0.639 -0.3482  1.0677 -1.1988
  344SOL    HW2 1032   2.127   2.654   0.783 -1.8349 -4.0500  1.2322
  345SOL     OW 1033   3.124   2.521   2.846 -0.1584 -0.2091 -0.6630
  345SOL    HW1 1034   0.066   2.560   2.802 -0.6809  0.2984 -0.1983
  345SOL    HW2 1035   0.009   2.494   2.941  0.0364  0.7843 -1.0700
  346SOL     OW 1036   3.042   0.810   0.457  0.6750  0.0783 -0.3320
  346SOL    HW1 1037   2.986   0.890   0.434  1.0152 -0.6060 -0.8303
  346SOL    HW2 1038   3.077   0.759   0.377  2.7087  2.0182  4.2509
  347SOL     OW 1039   1.798   2.663   1.162 -0.0028 -0.2342 -0.0213
  347SOL    HW1 1040   1.900   2.674   1.184 -1.6503  1.4661 -2.7041
  347SOL    HW2 1041   1.789   2.662   1.054  0.9510  0.3113 -5.5139
  348SOL     OW 1042   1.466   1.480   2.538  0.2031 -0.4651 -0.6855
  348SOL    HW1 1043   1.448   1.385   2.513  0.8076  4.3498  1.4977
  348SOL    HW2 1044   1.418   1.544   2.475 -0.9823  3.3249  0.6976
  349SOL     OW 1045   2.564   1.371   2.452 -0.2455  0.2164  0.1666
  349SOL    HW1 1046   2.512   1.455   2.471  4.3793 -2.2955  1.7996
  349SOL    HW2 1047   2.525   1.302   2.386 -0.7087 -0.6154  0.8203
  350SOL     OW 1048   0.321   2.000   1.046  0.2255  0.2902 -0.4590
  350SOL    HW1 1049   0.344   1.966   1.139 -0.5346  1.3224  1.2457
  350SOL    HW2 1050   0.276   2.088   1.051  0.3173 -1.1926 -0.7279
  351SOL     OW 1051   0.961   0.496   2.141 -1.1018  0.3219 -0.3095
  351SOL    HW1 1052   1.047   0.452   2.111  2.2954 -0.1387 -1.9404
  351SOL    HW2 1053   0.931   0.470   2.235 -0.4070  0.5691  1.7437
  352SOL     OW 1054   0.742   2.713   1.822  0.5771  0.3997 -0.0859
  352SOL    HW1 1055   0.700   2.808   1.810 -0.5223  0.1811 -0.5228
  352SOL    HW2 1056   0.804   2.697   1.744 -0.7732  0.5211  1.6681
  353SOL     OW 1057   0.920   1.560   2.530 -0.0040  0.1112 -0.3717
  353SOL    HW1 1058   0.980   1.499   2.482 -2.0321  0.5428  0.9091
  353SOL    HW2 1059   0.864   1.615   2.472  2.8635  1.0396  1.8584
  354SOL     OW 1060   1.851   1.246   0.500  0.9421  0.6214  0.5730
  354SOL    HW1 1061   1.762   1.243   0.446 -1.9090  0.5069 -0.4054
  354SOL    HW2 1062   1.902   1.162   0.479  0.7055  0.5531  0.1238
  355SOL     OW 1063   2.325   0.201   0.755  0.5809 -0.2269  0.1154
  355SOL    HW1 1064   2.402   0.202   0.824 -0.1923 -0.8102  1.5382
  355SOL    HW2 1065   2.364   0.196   0.662 -0.4082  0.5498  1.9512
  356SOL     OW 1066   3.031   1.204   2.712  0.0369 -0.2234  0.0863
  356SOL    HW1 1067   3.049   1.142   2.791  0.9524 -2.4403  0.3770
  356SOL    HW2 1068   3.001   1.296   2.735  1.9389 -0.9095 -1.4447
  357SOL     OW 1069   0.060   2.928   1.640 -0.0275  0.6938  0.1600
  357SOL    HW1 1070   0.014   3.011   1.606 -0.0322 -0.6437 -1.7797
  357SOL    HW2 1071   3.129   2.856   1.665  0.7461  2.4023  0.6616
  358SOL     OW 1072   2.953   1.471   2.797  0.0260 -0.0903 -0.0592
  358SOL    HW1 1073   3.007   1.546   2.840  1.3524  1.1142 -2.6420
  358SOL    HW2 1074   2.908   1.421   2.871 -0.4409 -0.4353  1.9435
  359SOL     OW 1075   2.455   2.678   2.399  0.1612  0.1493  0.4511
  359SOL    HW1 1076   2.460   2.701   2.502 -1.9872  0.9672  2.9139
  359SOL    HW2 1077   2.547   2.643   2.366  0.7222 -0.2152 -2.9641
  360SOL     OW 1078   1.232   1.312   0.949  0.3399 -0.2953  0.4185
  360SOL    HW1 1079   1.185   1.226   0.974 -1.2035  1.3274 -0.0531
  360SOL    HW2 1080   1.162   1.389   0.933 -0.0603 -2.0310  0.7949
  361SOL     OW 1081   2.233   2.260   0.930  0.0190 -0.2709  0.7277
  361SOL    HW1 1082   2.284   2.192   0.990  0.5521 -0.0699 -0.9116
  361SOL    HW2 1083   2.197   2.335   0.988  0.5916  0.6979 -4.2192
  362SOL     OW 1084   1.674   1.400   1.220  0.6174  0.4471 -0.3900
  362SOL    HW1 1085   1.763   1.392   1.172 -2.4688  0.6619  1.5753
  362SOL    HW2 1086   1.606   1.394   1.146  1.2735 -2.6003 -2.8912
  363SOL     OW 1087   2.760   1.960   0.459  0.0330 -0.8116  0.3249
  363SOL    HW1 1088   2.712   2.037   0.409 -0.9785  1.0744 -1.2685
  363SOL    HW2 1089   2.748   1.883   0.393 -1.4595  0.2845 -0.2523
  364SOL     OW 1090   2.236   0.047   1.773  0.5748 -0.2237 -0.1277
  364SOL    HW1 1091   2.311   0.010   1.712 -1.4101 -2.3791 -0.1581
  364SOL    HW2 1092   2.272   0.103   1.846 -1.4685 -3.4637  0.2532
  365SOL     OW 1093   3.137   2.555   1.392  0.4215  0.0508  0.3780
  365SOL    HW1 1094   0.067   2.535   1.322 -0.8895  2.8913 -1.2514
  365SOL    HW2 1095   0.024   2.522   1.483 -1.2664 -1.9080 -0.7943
  366SOL     OW 1096   2.964   1.429   0.166  0.2775 -0.2577 -0.2920
  366SOL    HW1 1097   3.061   1.394   0.175 -0.3504  1.0715 -0.1763
  366SOL    HW2 1098   2.919   1.420   0.257  1.1306 -0.0433  0.3959
  367SOL     OW 1099   2.382   2.732   2.905 -0.1988 -0.0516  0.4085
  367SOL    HW1 1100   2.341   2.642   2.871  1.5750  1.9634  1.5158
  367SOL    HW2 1101   2.353   2.747   3.000 -1.0710 -1.0881 -1.0625
  368SOL     OW 1102   3.008   1.618   1.095 -0.4864  0.7342 -0.7263
  368SOL    HW1 1103   3.011   1.717   1.096  0.2707  0.1171 -1.3718
  368SOL    HW2 1104   2.911   1.593   1.119  2.6469  0.7211 -0.9399
  369SOL     OW 1105   0.732   0.456   0.614  0.1004 -0.7185  0.0634
  369SOL    HW1 1106   0.675   0.529   0.570  1.7610 -0.7531  3.0177
  369SOL    HW2 1107   0.784   0.410   0.542  0.0856 -1.1124 -1.4348
  370SOL     OW 1108   0.630   0.280   0.803  0.1733 -0.2046  0.3337
  370SOL    HW1 1109   0.558   0.336   0.852  0.4978 -0.1873  0.9914
  370SOL    HW2 1110   0.669   0.339   0.727  0.1209 -1.4907 -1.4252
  371SOL     OW 1111   2.330   1.642   0.210 -0.0521  0.0264 -0.0449
  371SOL    HW1 1112   2.271   1.613   0.283  3.7483  0.6595 -0.3498
  371SOL    HW2 1113   2.405   1.580   0.186 -0.1125  0.9089 -0.6393
  372SOL     OW 1114   0.253   1.043   2.794 -0.2495  0.0178 -0.0220
  372SOL    HW1 1115   0.165   1.023   2.844 -2.1947 -1.0054 -0.5289
  372SOL    HW2 1116   0.291   0.960   2.745  0.2939 -1.1614  2.4406
  373SOL     OW 1117   2.985   1.025   0.244 -0.0471 -0.2674  0.4178
  373SOL    HW1 1118   2.935   1.070   0.319  1.4433 -0.2479  0.8705
  373SOL    HW2 1119   2.926   1.006   0.164 -0.9722  0.0919 -1.4321
  374SOL     OW 1120   0.797   2.469   3.133  0.0443 -0.3528  0.5923
  374SOL    HW1 1121   0.711   2.456   0.042  2.6807 -0.6750  0.9058
  374SOL    HW2 1122   0.843   2.557   0.012  0.7690  1.0084 -0.5888
  375SOL     OW 1123   1.356   0.102   0.207 -0.1078 -0.0561 -0.6042
  375SOL    HW1 1124   1.286   0.176   0.222  0.6921 -0.3859 -1.3326
  375SOL    HW2 1125   1.360   0.042   0.287  0.9143 -0.7510  0.6698
  376SOL     OW 1126   0.186   2.728   1.950  0.1962  0.3401  0.4474
  376SOL    HW1 1127   0.267   2.719   1.883 -1.1124  0.3884 -0.1408
  376SOL    HW2 1128   0.143   2.636   1.954 -0.0519  3.6530  1.4724
  377SOL     OW 1129   2.858   2.096   2.931 -0.1710 -0.1321 -0.0690
  377SOL    HW1 1130   2.803   2.177   2.927 -0.1248 -2.4602 -1.5484
  377SOL    HW2 1131   2.801   2.016   2.942  3.0889  1.3264  0.2403
  378SOL     OW 1132   1.679   0.899   0.434  0.3396 -0.2077 -0.2014
  378SOL    HW1 1133   1.584   0.935   0.437  0.4749 -3.4150 -1.0704
  378SOL    HW2 1134   1.712   0.895   0.529  0.7387  2.8268  1.5712
  379SOL     OW 1135   1.229   1.601   0.527  0.0377  0.5690  0.7051
  379SOL    HW1 1136   1.147   1.541   0.534 -1.9150 -0.7816 -1.7423
  379SOL    HW2 1137   1.241   1.657   0.612  0.0187  1.7001  0.3750
  380SOL     OW 1138   2.110   2.322   1.821 -0.6223  0.1810 -0.1727
  380SOL    HW1 1139   2.112   2.306   1.718  1.5694  0.8929 -1.3216
  380SOL    HW2 1140   2.030   2.374   1.857 -0.3010  1.5265 -0.8364
  381SOL     OW 1141   2.915   1.147   2.328 -0.4939 -0.6281  0.1144
  381SOL    HW1 1142   3.002   1.176   2.377  0.1796 -0.0553  0.4510
  381SOL    HW2 1143   2.922   1.156   2.225 -0.3620 -1.2629 -1.0451
  382SOL     OW 1144   2.982   2.557   0.069 -0.5703  0.2675 -0.3690
  382SOL    HW1 1145   2.929   2.535   3.130  1.7543  0.1224  0.5708
  382SOL    HW2 1146   3.082   2.570   0.047 -0.8153 -0.4531  1.3913
  383SOL     OW 1147   1.676   1.184   2.254 -0.0424  0.1956  0.3611
  383SOL    HW1 1148   1.724   1.258   2.204  0.5888  0.7897 -1.4036
  383SOL    HW2 1149   1.576   1.190   2.229  0.5103  1.0445  2.2364
  384SOL     OW 1150   0.853   2.132   2.607  0.1772 -0.5316 -0.2037
  384SOL    HW1 1151   0.841   2.147   2.510  0.2671  1.3437 -0.8379
  384SOL    HW2 1152   0.952   2.110   2.625  0.2013 -1.1659  0.5297
  385SOL     OW 1153   2.468   2.263   0.563  0.1673 -0.1309 -0.0218
  385SOL    HW1 1154   2.513   2.319   0.493 -2.1854 -2.4686 -0.1012
  385SOL    HW2 1155   2.393   2.200   0.528  2.4800 -2.5704 -0.9798
  386SOL     OW 1156   1.555   1.250   0.334 -0.5729 -0.3747  0.0778
  386SOL    HW1 1157   1.501   1.325   0.382 -1.3668 -0.1669  2.7202
  386SOL    HW2 1158   1.519   1.154   0.345 -2.4390 -0.4234 -0.7538
  387SOL     OW 1159   2.938   0.582   1.554 -0.3048 -0.2598  0.6017
  387SOL    HW1 1160   2.995   0.654   1.592 -1.4305  0.7300  0.6830
  387SOL    HW2 1161   2.992   0.502   1.530  2.8764  1.4517  4.7082
  388SOL     OW 1162   3.012   0.720   1.239  0.2418 -0.3731 -0.4563
  388SOL    HW1 1163   3.080   0.785   1.197  0.0281 -3.2113 -0.4545
  388SOL    HW2 1164   3.059   0.664   1.311  3.4796  1.7619  1.9798
  389SOL     OW 1165   1.746   1.254   2.707  0.0686  0.1469  0.3461
  389SOL    HW1 1166   1.778   1.259   2.804 -0.5156 -0.8183 -0.5303
  389SOL    HW2 1167   1.806   1.307   2.644 -2.3140 -0.9081  1.7554
  390SOL     OW 1168   1.586   2.299   0.527 -0.1444 -0.6045  0.0620
  390SOL    HW1 1169   1.661   2.368   0.524  1.4017  0.4102 -1.2116
  390SOL    HW2 1170   1.604   2.219   0.476 -1.1176  1.6554  0.8929
  391SOL     OW 1171   1.233   2.254   1.182  0.0543 -0.0020  0.3906
  391SOL    HW1 1172   1.239   2.153   1.159 -0.9296  1.0459  0.6943
  391SOL    HW2 1173   1.325   2.299   1.180  0.2384 -0.5404  0.6352
  392SOL     OW 1174   2.599   2.852   1.609 -0.0222  0.5795  0.4782
  392SOL    HW1 1175   2.604   2.771   1.553  0.2677  1.1394 -1.6139
  392SOL    HW2 1176   2.674   2.837   1.678  0.0099 -0.7619  1.6113
  393SOL     OW 1177   1.755   2.468   2.381  0.0542 -0.0823  0.2118
  393SOL    HW1 1178   1.778   2.564   2.367  2.3349  1.3540  1.2317
  393SOL    HW2 1179   1.666   2.454   2.430  2.0822 -1.6521  1.6277
  394SOL     OW 1180   0.389   2.803   2.511 -0.4833 -0.2639 -0.4970
  394SOL    HW1 1181   0.299   2.840   2.540 -3.2316 -2.4108  1.6461
  394SOL    HW2 1182   0.455   2.877   2.489  0.5544  0.4545 -0.7098
  395SOL     OW 1183   0.243   1.247   1.130 -0.7145 -0.4294 -0.4072
  395SOL    HW1 1184   0.282   1.301   1.058  0.0896 -3.2699  3.4129
  395SOL    HW2 1185   0.154   1.209   1.107  2.9127  2.6166 -0.2480
  396SOL     OW 1186   2.116   0.979   2.656 -0.0119  0.1929  0.3590
  396SOL    HW1 1187   2.169   0.891   2.646 -0.6914 -0.6982 -0.0142
  396SOL    HW2 1188   2.017   0.969   2.654  1.7658 -3.3317  0.6983
  397SOL     OW 1189   3.012   0.651   2.692 -0.1659 -0.5057  0.3564
  397SOL    HW1 1190   3.031   0.556   2.724  1.9789 -0.6239 -2.5942
  397SOL    HW2 1191   3.076   0.675   2.613  0.0373  0.8311 -4.4793
  398SOL     OW 1192   1.663   3.065   0.153  0.0505  0.0763  0.5584
  398SOL    HW1 1193   1.759   3.079   0.169 -0.6782 -1.4710  0.7929
  398SOL    HW2 1194   1.625   2.988   0.205  3.6191  0.1036  1.2845
  399SOL     OW 1195   2.323   2.394   2.002  0.8836 -0.4064 -0.0888
  399SOL    HW1 1196   2.314   2.368   2.097 -0.8165  0.7937 -0.6358
  399SOL    HW2 1197   2.239   2.365   1.946 -0.5281  0.6529  1.2583
  400SOL     OW 1198   3.053   2.074   2.301 -0.0657 -0.2447 -0.1434
  400SOL    HW1 1199   3.079   2.006   2.229  1.6514 -2.1732 -1.4265
  400SOL    HW2 1200   2.977   2.131   2.258 -0.8229 -1.2726 -1.3850
  401SOL     OW 1201   0.533   0.879   0.641 -0.2081 -0.4210  0.0684
  401SOL    HW1 1202   0.559   0.782   0.617  0.2147  0.2156  0.1389
  401SOL    HW2 1203   0.444   0.886   0.686 -0.4194 -0.6594  1.3874
  402SOL     OW 1204   0.718   2.891   2.129 -0.2868 -0.1859  0.1010
  402SOL    HW1 1205   0.821   2.884   2.135  1.0367 -0.3109 -1.5351
  402SOL    HW2 1206   0.691   2.931   2.036 -0.9110 -0.9499  0.7871
  403SOL     OW 1207   3.004   1.485   2.028  0.4967 -0.0444 -0.6800
  403SOL    HW1 1208   3.091   1.536   2.020 -0.5649 -0.1173  1.8418
  403SOL    HW2 1209   2.980   1.472   2.128 -0.3781 -3.2612  1.1254
  404SOL     OW 1210   2.930   1.861   2.497 -0.4582 -0.1176 -0.3183
  404SOL    HW1 1211   2.983   1.897   2.418 -0.0542  0.6894 -0.2418
  404SOL    HW2 1212   2.905   1.936   2.566 -0.3661  2.4016 -0.8805
  405SOL     OW 1213   2.159   0.067   2.609 -0.4660 -0.3607  0.2057
  405SOL    HW1 1214   2.118   0.020   2.685  0.1493 -0.5027 -0.1509
  405SOL    HW2 1215   2.106   0.055   2.520 -1.2356 -3.3230 -4.5598
  406SOL     OW 1216   1.463   2.146   0.720  0.0962 -0.1415  0.7946
  406SOL    HW1 1217   1.494   2.212   0.644  0.6033  0.1191  1.3282
  406SOL    HW2 1218   1.535   2.080   0.741 -0.0287 -0.1350 -0.5465
  407SOL     OW 1219   1.746   1.309   0.144  0.1009 -0.3764 -0.1254
  407SOL    HW1 1220   1.697   1.316   0.056 -1.1600 -2.8394  1.9209
  407SOL    HW2 1221   1.680   1.299   0.224  1.2053 -0.2265  0.7952
  408SOL     OW 1222   0.213   0.988   1.680  0.2263 -0.1090  0.4968
  408SOL    HW1 1223   0.137   0.985   1.612 -3.5986 -3.3558 -0.7626
  408SOL    HW2 1224   0.224   0.894   1.714 -0.6311 -0.4804  1.9973
  409SOL     OW 1225   2.923   1.363   3.048  0.1661  0.2972 -0.2588
  409SOL    HW1 1226   2.851   1.291   3.051 -2.5985 -1.4000 -1.7597
  409SOL    HW2 1227   2.943   1.393   0.003  2.9557 -2.2159 -0.3617
  410SOL     OW 1228   2.725   1.767   0.939  0.1454  0.1643 -0.1993
  410SOL    HW1 1229   2.795   1.796   0.871  1.3445 -0.4736  1.6530
  410SOL    HW2 1230   2.683   1.688   0.894  3.0690  2.0756  0.2885
  411SOL     OW 1231   2.973   0.519   0.478 -0.7838 -0.0216  0.6219
  411SOL    HW1 1232   2.970   0.573   0.391 -1.5176  0.0083  2.1934
  411SOL    HW2 1233   2.900   0.453   0.475  2.3324  0.6872 -0.7495
  412SOL     OW 1234   1.805   0.165   0.403  0.1959 -0.0104 -0.6229
  412SOL    HW1 1235   1.857   0.094   0.458  1.1039 -1.7826 -1.3124
  412SOL    HW2 1236   1.834   0.147   0.307  2.1494  0.5106 -0.2501
  413SOL     OW 1237   1.335   0.318   1.686 -0.7894 -0.1690 -0.1053
  413SOL    HW1 1238   1.430   0.317   1.719  3.5032 -2.1939 -2.5269
  413SOL    HW2 1239   1.285   0.233   1.691  1.4945 -0.4260 -1.5909
  414SOL     OW 1240   0.491   1.130   0.237  0.0248  0.4579 -0.1897
  414SOL    HW1 1241   0.511   1.125   0.132  0.7001  0.1099 -0.4981
  414SOL    HW2 1242   0.524   1.047   0.285 -1.2682 -1.0682  2.5222
  415SOL     OW 1243   2.886   1.398   0.446  0.2236 -0.0321  0.4014
  415SOL    HW1 1244   2.978   1.370   0.476  1.3175 -1.4092 -0.3819
  415SOL    HW2 1245   2.844   1.465   0.508 -0.2887  0.7536 -0.2889
  416SOL     OW 1246   2.414   0.775   0.188 -0.0911 -0.6571 -0.3829
  416SOL    HW1 1247   2.391   0.680   0.148 -1.2614 -1.6652 -0.0318
  416SOL    HW2 1248   2.515   0.798   0.200  3.7491  1.9646  0.2706
  417SOL     OW 1249   2.838   2.803   0.204  0.1679 -0.5992  0.0278
  417SOL    HW1 1250   2.785   2.862   0.138 -1.9580 -1.5211 -0.5243
  417SOL    HW2 1251   2.843   2.709   0.169 -1.4159  0.4425  1.5535
  418SOL     OW 1252   2.875   0.441   0.125  0.6489  0.0490 -0.5967
  418SOL    HW1 1253   2.779   0.438   0.162 -0.9655  0.0155  0.5782
  418SOL    HW2 1254   2.877   0.426   0.029 -1.1233  2.2540 -1.2504
  419SOL     OW 1255   0.915   0.954   0.875 -0.5238  0.6109 -0.1319
  419SOL    HW1 1256   0.955   0.945   0.966 -1.3558 -1.5862 -1.2787
  419SOL    HW2 1257   0.819   0.927   0.883  2.8159  0.1364 -2.5587
  420SOL     OW 1258   0.316   0.964   0.864 -0.0918 -0.2512 -0.4199
  420SOL    HW1 1259   0.223   0.921   0.878 -1.6145 -1.0602  1.0253
  420SOL    HW2 1260   0.387   0.942   0.938 -0.8147  0.7870  2.1893
  421SOL     OW 1261   0.372   2.068   0.593 -0.3702  0.5703  0.0564
  421SOL    HW1 1262   0.288   2.120   0.571 -0.7495  1.4731 -0.9689
  421SOL    HW2 1263   0.441   2.134   0.627 -0.6500 -2.6859  1.4288
  422SOL     OW 1264   2.973   0.360   1.977  0.4075 -0.8512 -0.0319
  422SOL    HW1 1265   3.028   0.305   2.046 -0.0179 -0.4898  1.3504
  422SOL    HW2 1266   2.872   0.368   2.004 -0.4652  0.8645  2.0805
  423SOL     OW 1267   1.971   1.800   0.181  0.2293 -0.0431  0.5981
  423SOL    HW1 1268   2.001   1.731   0.244  0.4445 -0.0309 -0.1237
  423SOL    HW2 1269   2.044   1.820   0.118 -1.7191  0.0376  1.6392
  424SOL     OW 1270   1.717   1.814   2.794  0.0832  0.0897  0.1507
  424SOL    HW1 1271   1.714   1.725   2.749 -0.5223  2.6278  1.1849
  424SOL    HW2 1272   1.805   1.810   2.843  0.8309  0.5984  0.6077
  425SOL     OW 1273   0.191   0.159   2.025 -0.0588 -0.2318 -0.1291
  425SOL    HW1 1274   0.179   0.093   1.949  1.7390 -0.5706 -1.1906
  425SOL    HW2 1275   0.254   0.233   1.992 -1.9706 -0.3594 -1.2685
  426SOL     OW 1276   2.033   2.786   0.327  0.5443  0.1162 -0.5135
  426SOL    HW1 1277   1.959   2.736   0.269 -1.8430 -4.3526 -3.5639
  426SOL    HW2 1278   1.987   2.806   0.418 -0.7417  0.2029  1.0948
  427SOL     OW 1279   0.399   1.469   2.516 -0.1955  0.1315  0.4984
  427SOL    HW1 1280   0.443   1.559   2.493  1.3265  0.6354  1.0514
  427SOL    HW2 1281   0.305   1.463   2.477 -4.3128  0.1918 -1.1079
  428SOL     OW 1282   2.176   1.510   2.650  0.2613  0.0002  0.5594
  428SOL    HW1 1283   2.202   1.412   2.636 -2.2983  1.1347 -1.2110
  428SOL    HW2 1284   2.090   1.518   2.712  2.0385 -0.0966  1.9148
  429SOL     OW 1285   2.309   2.968   0.622 -0.4011 -0.1770  0.5552
  429SOL    HW1 1286   2.309   2.896   0.559  1.5689  0.9599  1.6599
  429SOL    HW2 1287   2.395   3.019   0.604 -0.6544 -2.1242  0.9467
  430SOL     OW 1288   1.826   1.938   2.207  0.3673  0.1720 -0.1824
  430SOL    HW1 1289   1.758   1.920   2.135  0.6347  0.8946  1.0440
  430SOL    HW2 1290   1.804   1.883   2.289 -1.1423  0.8363 -0.9229
  431SOL     OW 1291   3.068   1.991   1.784 -0.0026  0.6527 -0.3864
  431SOL    HW1 1292   2.987   1.929   1.805 -0.3160 -0.2968 -1.7490
  431SOL    HW2 1293   3.136   1.948   1.720  1.5606 -1.6753  1.8487
  432SOL     OW 1294   1.134   2.447   2.165 -0.1781  0.3847  0.2810
  432SOL    HW1 1295   1.032   2.439   2.164 -2.7536 -2.9709 -0.1142
  432SOL    HW2 1296   1.171   2.387   2.094  0.9997 -0.3936 -2.5194
  433SOL     OW 1297   0.983   2.906   0.760 -0.5581 -0.0060  1.0821
  433SOL    HW1 1298   1.034   2.818   0.753  1.0855  1.9451  0.9287
  433SOL    HW2 1299   1.045   2.987   0.739  0.8382  0.9517  1.0762
  434SOL     OW 1300   0.392   2.103   2.392 -0.3666  0.0792 -0.2400
  434SOL    HW1 1301   0.339   2.026   2.354  1.8478 -0.8583  0.4624
  434SOL    HW2 1302   0.476   2.116   2.338 -1.7773  2.0286 -0.2859
  435SOL     OW 1303   0.337   1.579   0.563 -0.1050 -0.1214  0.6190
  435SOL    HW1 1304   0.264   1.599   0.498  1.8134 -0.0615  1.7108
  435SOL    HW2 1305   0.304   1.557   0.656 -0.4157 -0.6682 -1.3499
  436SOL     OW 1306   0.608   1.958   1.964  0.7147 -0.5436  0.1358
  436SOL    HW1 1307   0.513   1.982   1.987  0.6401 -0.1176  1.8830
  436SOL    HW2 1308   0.614   1.942   1.863  1.1405 -0.5244  0.7698
  437SOL     OW 1309   1.057   0.561   0.362 -0.4022  0.4813  0.1223
  437SOL    HW1 1310   1.050   0.617   0.448  0.8342 -0.5041 -0.3159
  437SOL    HW2 1311   1.121   0.611   0.295  1.1207  0.4672  0.8636
  438SOL     OW 1312   0.577   1.948   0.985 -0.1413 -0.4234  0.6489
  438SOL    HW1 1313   0.481   1.975   0.990  3.6729  1.5863  0.6252
  438SOL    HW2 1314   0.623   1.987   0.901  1.9441 -0.8263 -0.7230
  439SOL     OW 1315   1.072   2.603   1.897 -0.1864 -0.5846  0.1203
  439SOL    HW1 1316   1.052   2.504   1.889 -0.4481  3.0253  1.5792
  439SOL    HW2 1317   1.011   2.633   1.974  0.2222 -1.9710  0.8674
  440SOL     OW 1318   1.709   0.160   1.469  0.0442 -0.3952  0.0287
  440SOL    HW1 1319   1.709   0.216   1.554 -1.6977  1.8937  2.8523
  440SOL    HW2 1320   1.716   0.223   1.389  0.0086  0.4039 -0.6034
  441SOL     OW 1321   0.485   0.060   1.385  0.6358  0.3673 -0.1138
  441SOL    HW1 1322   0.470   0.143   1.438  0.0714 -2.8913 -0.5824
  441SOL    HW2 1323   0.561   0.001   1.426  0.1730 -2.0208 -0.8320
  442SOL     OW 1324   2.263   1.894   0.378  0.2310 -0.5845 -0.0020
  442SOL    HW1 1325   2.207   1.815   0.375  0.6993  1.6837  1.2368
  442SOL    HW2 1326   2.283   1.929   0.288 -0.0675 -1.8172  2.7338
  443SOL     OW 1327   2.750   0.311   2.542 -0.8294 -0.2090 -0.2916
  443SOL    HW1 1328   2.648   0.309   2.542 -0.5250 -0.4017 -2.2192
  443SOL    HW2 1329   2.787   0.401   2.507 -0.6270 -1.5719  0.9722
  444SOL     OW 1330   2.094   1.409   2.130  0.2634  0.1071  0.2277
  444SOL    HW1 1331   2.082   1.320   2.184  0.8638 -1.4734  0.3304
  444SOL    HW2 1332   2.122   1.386   2.035 -0.1233 -0.7137  1.0128
  445SOL     OW 1333   2.716   1.981   1.590  0.5969  0.2202  0.3589
  445SOL    HW1 1334   2.748   1.946   1.679  0.2280 -0.5689  0.7922
  445SOL    HW2 1335   2.612   1.993   1.593  1.2230 -1.0947 -1.4275
  446SOL     OW 1336   2.864   1.108   0.496 -0.2696  0.1905  0.3818
  446SOL    HW1 1337   2.882   1.209   0.498 -1.3013  1.5077 -1.0619
  446SOL    HW2 1338   2.895   1.067   0.585 -1.9930  1.1374 -0.4875
  447SOL     OW 1339   0.921   1.674   0.775 -0.0381 -0.5604 -0.0404
  447SOL    HW1 1340   0.966   1.749   0.727 -1.3671 -1.2451  0.0691
  447SOL    HW2 1341   0.825   1.658   0.746  0.3037 -2.8235 -0.2345
  448SOL     OW 1342   1.426   1.213   2.132 -0.1933 -0.1816  0.0159
  448SOL    HW1 1343   1.433   1.215   2.031  0.9221  0.5087  1.3042
  448SOL    HW2 1344   1.339   1.165   2.163 -0.2143  0.1431  0.2283
  449SOL     OW 1345   0.446   1.711   0.184  1.0501 -0.0170 -0.3919
  449SOL    HW1 1346   0.351   1.751   0.179 -1.4093  3.5360  0.0524
  449SOL    HW2 1347   0.488   1.728   0.094 -0.5143 -0.2253 -0.2589
  450SOL     OW 1348   2.571   2.297   1.938 -0.3002 -0.4502 -0.7342
  450SOL    HW1 1349   2.607   2.387   1.906 -1.6708 -0.7327 -1.0334
  450SOL    HW2 1350   2.474   2.321   1.972 -3.0760  3.9248 -1.5427
  451SOL     OW 1351   2.059   0.287   2.225  0.3201 -0.2480  0.9507
  451SOL    HW1 1352   2.028   0.351   2.300 -2.3134 -0.4960 -0.8749
  451SOL    HW2 1353   2.053   0.326   2.131  1.2440  0.2293  0.4137
  452SOL     OW 1354   1.071   0.089   1.288 -0.1830  0.1311 -0.1878
  452SOL    HW1 1355   1.073   3.129   1.280  1.0147 -0.2784  0.9726
  452SOL    HW2 1356   0.987   0.117   1.338 -1.2829  1.9749 -0.9914
  453SOL     OW 1357   1.038   1.598   1.159 -0.0434  0.1465 -0.2253
  453SOL    HW1 1358   1.040   1.542   1.071 -0.2062 -0.4348 -2.4142
  453SOL    HW2 1359   0.964   1.667   1.156  0.4652  0.1926 -0.0812
  454SOL     OW 1360   0.266   1.196   0.709 -0.4637  0.3567  0.5661
  454SOL    HW1 1361   0.285   1.111   0.758 -0.6302 -0.8214 -0.4598
  454SOL    HW2 1362   0.333   1.216   0.631  0.3741  3.0155 -1.4331
  455SOL     OW 1363   3.134   2.851   0.277 -0.7127 -0.3691  0.1547
  455SOL    HW1 1364   3.038   2.827   0.273  2.9004  0.9294  1.2357
  455SOL    HW2 1365   0.018   2.926   0.211 -0.5675 -0.4316  0.0532
  456SOL     OW 1366   2.153   2.005   0.799  0.1501  0.0285  0.1374
  456SOL    HW1 1367   2.177   2.092   0.841 -1.7019 -1.5915  0.8327
  456SOL    HW2 1368   2.134   1.938   0.877 -0.9863 -0.6782 -1.2183
  457SOL     OW 1369   1.516   0.105   3.132  0.1676  0.5967  0.8352
  457SOL    HW1 1370   1.587   0.042   0.026  1.1659  1.2918  1.0090
  457SOL    HW2 1371   1.437   0.108   0.053  0.2141 -0.5099 -1.4477
  458SOL     OW 1372   2.737   2.970   0.395  0.0921  0.1214  0.6145
  458SOL    HW1 1373   2.789   2.935   0.473  0.0135  3.3458 -3.1122
  458SOL    HW2 1374   2.767   2.912   0.315  0.2577  1.5904 -1.5310
  459SOL     OW 1375   1.997   0.362   2.497 -0.2237 -0.1692  1.0954
  459SOL    HW1 1376   1.906   0.326   2.476  4.9044  1.4040  1.5825
  459SOL    HW2 1377   2.058   0.282   2.523 -0.3638 -0.3869  0.4114
  460SOL     OW 1378   2.779   0.079   3.140  0.2447  0.0052  0.0543
  460SOL    HW1 1379   2.860   0.108   0.059 -0.7276  1.0081  0.6757
  460SOL    HW2 1380   2.761   3.119   0.003 -1.3577  0.6441 -0.2337
  461SOL     OW 1381   0.740   1.421   1.304 -0.1499  0.2262 -0.3804
  461SOL    HW1 1382   0.639   1.425   1.316 -1.1121 -1.2952 -0.0657
  461SOL    HW2 1383   0.773   1.499   1.244 -2.7947  1.2764 -1.0064
  462SOL     OW 1384   2.894   2.777   1.729 -0.3547  0.5825  0.2905
  462SOL    HW1 1385   2.938   2.755   1.821  0.9688 -0.2654 -1.2922
  462SOL    HW2 1386   2.876   2.689   1.673  1.9488  0.0076 -1.2489
  463SOL     OW 1387   2.707   1.228   3.096 -0.1235  0.0223 -0.3763
  463SOL    HW1 1388   2.647   1.225   0.036 -2.1224 -1.9502  0.9182
  463SOL    HW2 1389   2.675   1.155   3.035  0.2442  0.5756 -1.8666
  464SOL     OW 1390   0.219   2.520   1.239  0.2400 -0.7790  0.0274
  464SOL    HW1 1391   0.309   2.483   1.263 -1.3386 -1.1844  2.4268
  464SOL    HW2 1392   0.223   2.623   1.236 -0.1718 -0.0808  1.1217
  465SOL     OW 1393   0.397   1.283   0.485  0.5959  1.0770 -0.0013
  465SOL    HW1 1394   0.427   1.216   0.414 -1.6839  0.2481  1.1492
  465SOL    HW2 1395   0.379   1.382   0.453 -3.6873 -1.0875 -1.4646
  466SOL     OW 1396   1.197   0.355   2.071 -0.5293 -0.5547 -0.2026
  466SOL    HW1 1397   1.220   0.296   2.152  1.6473  0.2953 -0.0379
  466SOL    HW2 1398   1.217   0.301   1.987  0.5473 -0.3145  0.1211
  467SOL     OW 1399   0.782   0.470   2.351 -0.1004 -0.7015  0.0079
  467SOL    HW1 1400   0.728   0.504   2.272 -2.6409 -1.2330 -2.1685
  467SOL    HW2 1401   0.833   0.542   2.404  0.4960  1.3292  1.3071
  468SOL     OW 1402   3.138   1.181   2.462  0.2614  0.4345  0.2986
  468SOL    HW1 1403   3.101   1.156   2.555  0.5211 -1.6189  1.3587
  468SOL    HW2 1404   0.050   1.270   2.469  0.1507  0.0614  2.3073
  469SOL     OW 1405   0.274   1.878   0.815 -0.0816  0.1039  0.4955
  469SOL    HW1 1406   0.281   1.944   0.740  0.8141 -1.9605  2.2682
  469SOL    HW2 1407   0.302   1.926   0.899  1.0486  2.8455 -0.0090
  470SOL     OW 1408   2.719   1.696   2.576 -0.2509 -0.4152  0.4311
  470SOL    HW1 1409   2.786   1.771   2.556  0.5348  2.3264  2.7269
  470SOL    HW2 1410   2.640   1.705   2.514  0.2079 -1.1320 -0.2533
  471SOL     OW 1411   1.620   0.878   2.311  0.5063 -0.0031  0.2507
  471SOL    HW1 1412   1.699   0.815   2.302  0.1799 -0.0739  1.7543
  471SOL    HW2 1413   1.651   0.975   2.308 -1.7663  0.3035  1.7446
  472SOL     OW 1414   0.926   2.801   1.177  0.1018 -0.4971 -0.4500
  472SOL    HW1 1415   0.949   2.710   1.213 -2.2968  1.9316  1.2043
  472SOL    HW2 1416   0.887   2.796   1.079 -1.1289 -0.2781 -1.9699
  473SOL     OW 1417   0.710   0.221   2.402  0.3916  0.1893 -0.4182
  473SOL    HW1 1418   0.726   0.318   2.371 -1.2369  1.1136  1.8151
  473SOL    HW2 1419   0.721   0.152   2.327 -0.6598  0.4332 -0.6019
  474SOL     OW 1420   1.832   3.047   1.387  0.2856 -0.3067  0.0690
  474SOL    HW1 1421   1.769   3.121   1.421  0.1784  1.8842 -1.0814
  474SOL    HW2 1422   1.898   3.086   1.323  2.7363  0.4862  1.8424
  475SOL     OW 1423   1.873   0.243   1.019 -0.0996 -0.2493  0.1850
  475SOL    HW1 1424   1.920   0.173   0.962 -1.2698  0.8466 -0.9412
  475SOL    HW2 1425   1.935   0.320   1.038  0.0593  0.9219 -0.8212
  476SOL     OW 1426   0.475   0.916   1.079  0.6498 -0.0811  0.4501
  476SOL    HW1 1427   0.507   1.016   1.071  0.5561  1.7423 -1.5259
  476SOL    HW2 1428   0.528   0.866   1.151  1.8593 -2.1534  2.8455
  477SOL     OW 1429   1.383   2.763   0.302  0.1773  0.5060 -0.2101
  477SOL    HW1 1430   1.330   2.781   0.214  2.3639  0.1465 -0.0790
  477SOL    HW2 1431   1.379   2.840   0.372  2.0858 -1.8477  2.1758
  478SOL     OW 1432   0.261   2.339   2.366 -0.0275  0.2064  0.2457
  478SOL    HW1 1433   0.308   2.418   2.411  0.2894 -0.3958 -1.4739
  478SOL    HW2 1434   0.318   2.256   2.381  0.0977 -0.1114 -0.9683
  479SOL     OW 1435   2.699   0.008   1.382  0.2522  0.7549  0.4412
  479SOL    HW1 1436   2.718   0.082   1.320  0.9450  2.2367 -0.8537
  479SOL    HW2 1437   2.665   0.036   1.473 -0.4639  0.9146 -0.8395
  480SOL     OW 1438   0.602   2.439   0.531  0.5388 -0.2251 -0.5272
  480SOL    HW1 1439   0.654   2.404   0.448 -0.5769 -1.3292 -1.0703
  480SOL    HW2 1440   0.531   2.510   0.497 -0.7812 -1.8863  0.3742
  481SOL     OW 1441   2.234   2.272   1.351  0.2735  0.9813 -0.0770
  481SOL    HW1 1442   2.335   2.286   1.335  1.2923 -0.6944 -0.0356
  481SOL    HW2 1443   2.186   2.322   1.282 -0.0072 -0.2311  3.5870
  482SOL     OW 1444   1.123   2.418   2.882 -0.0465  0.1923  0.1734
  482SOL    HW1 1445   1.174   2.375   2.957 -1.9114 -0.4139 -0.1081
  482SOL    HW2 1446   1.035   2.368   2.872 -0.5012 -0.5791 -1.9494
  483SOL     OW 1447   0.916   2.278   2.073 -0.4001 -0.4262 -0.5212
  483SOL    HW1 1448   0.844   2.341   2.035  0.8172  0.8930  1.5138
  483SOL    HW2 1449   0.934   2.203   2.009  0.6629 -0.9005 -0.4050
  484SOL     OW 1450   1.124   0.639   1.366 -0.2999 -0.1609  0.4855
  484SOL    HW1 1451   1.173   0.559   1.407 -0.0839  1.6199 -0.6912
  484SOL    HW2 1452   1.154   0.668   1.272 -0.0746  1.9221 -0.0514
  485SOL     OW 1453   1.676   0.526   2.670 -0.3158  0.3508 -0.0788
  485SOL    HW1 1454   1.751   0.591   2.691  2.0261 -1.7499 -1.3225
  485SOL    HW2 1455   1.632   0.534   2.582 -0.6145 -0.3727  0.6302
  486SOL     OW 1456   2.409   2.646   1.093 -0.3800  0.6119 -0.4150
  486SOL    HW1 1457   2.426   2.630   0.994  2.6244  0.6103 -0.5870
  486SOL    HW2 1458   2.464   2.722   1.129 -0.2132 -3.7297  1.3301
  487SOL     OW 1459   0.810   2.085   1.387 -0.3165 -0.5483 -0.7710
  487SOL    HW1 1460   0.903   2.130   1.408 -0.2322  0.6162  0.2951
  487SOL    HW2 1461   0.747   2.086   1.469 -3.6390 -0.9565 -0.5169
  488SOL     OW 1462   2.441   1.853   0.020 -0.0230  0.0850 -0.1009
  488SOL    HW1 1463   2.533   1.849   3.117  2.1263  2.2386 -0.4984
  488SOL    HW2 1464   2.427   1.790   0.102 -1.2869  0.1515  2.4710
  489SOL     OW 1465   2.050   2.951   1.104 -0.3151 -0.3244  0.0819
  489SOL    HW1 1466   2.075   2.948   1.005 -2.9884 -0.7340  0.8776
  489SOL    HW2 1467   2.129   2.921   1.160  1.0486 -2.3583 -1.1575
  490SOL     OW 1468   0.895   1.576   0.099 -0.1681  0.5012 -0.3063
  490SOL    HW1 1469   0.904   1.671   0.056  2.0018  1.7033  0.3989
  490SOL    HW2 1470   0.955   1.566   0.179 -0.9895  0.4718  0.0817
  491SOL     OW 1471   0.281   2.150   1.463 -0.6191  0.1659 -0.1463
  491SOL    HW1 1472   0.185   2.172   1.448  0.6686 -3.0025  3.0316
  491SOL    HW2 1473   0.301   2.134   1.561  2.8215  0.0583 -0.9266
  492SOL     OW 1474   0.846   1.631   1.845  0.0732  0.0999 -0.0303
  492SOL    HW1 1475   0.904   1.559   1.803 -0.3389 -1.4648  0.2329
  492SOL    HW2 1476   0.888   1.722   1.823 -0.9622  0.1049  0.0271
  493SOL     OW 1477   2.814   2.249   0.881  0.0903 -0.4251  0.4812
  493SOL    HW1 1478   2.772   2.209   0.798  2.6222  0.0095 -1.8926
  493SOL    HW2 1479   2.837   2.171   0.939 -0.2150  2.0730 -3.0048
  494SOL     OW 1480   2.668   2.108   0.677  0.5973  0.0112 -0.1283
  494SOL    HW1 1481   2.592   2.163   0.636 -0.7353 -0.4945 -1.0072
  494SOL    HW2 1482   2.716   2.045   0.608  1.1794 -2.1638  2.9471
  495SOL     OW 1483   2.667   2.958   0.034  0.5280 -0.0783  0.0296
  495SOL    HW1 1484   2.658   2.891   3.100 -0.6319  0.0050  2.5018
  495SOL    HW2 1485   2.581   2.995   0.071 -0.2669 -1.9407  3.3587
  496SOL     OW 1486   2.518   2.893   1.161  0.5055  0.3534 -0.3838
  496SOL    HW1 1487   2.471   2.960   1.101 -1.0604  1.6165 -1.3146
  496SOL    HW2 1488   2.604   2.930   1.199  0.6295 -1.1747 -0.4855
  497SOL     OW 1489   2.358   1.263   2.870 -0.2571  0.4660 -0.4664
  497SOL    HW1 1490   2.453   1.251   2.842 -3.6981 -1.5348  0.0151
  497SOL    HW2 1491   2.343   1.344   2.929 -0.7335 -1.0998 -0.3436
  498SOL     OW 1492   3.018   1.885   1.129 -0.1897 -0.0674 -0.0386
  498SOL    HW1 1493   3.085   1.911   1.199  1.9687 -1.4197 -1.2928
  498SOL    HW2 1494   2.936   1.943   1.124  1.0798 -2.9451  0.2273
  499SOL     OW 1495   0.864   2.398   2.570 -0.1967  0.2177  0.1390
  499SOL    HW1 1496   0.879   2.296   2.591  0.8608 -2.7759  2.1232
  499SOL    HW2 1497   0.951   2.448   2.595 -1.5220  1.3320 -2.6084
  500SOL     OW 1498   1.775   0.807   0.172 -0.0105 -0.3881 -0.8736
  500SOL    HW1 1499   1.788   0.905   0.149  0.8244  0.6700  1.3686
  500SOL    HW2 1500   1.707   0.801   0.245 -0.0724 -0.9106 -2.7392
  501SOL     OW 1501   1.611   0.329   1.796 -0.1604 -0.0908 -0.4230
  501SOL    HW1 1502   1.605   0.407   1.862  0.4859 -0.6811  0.8203
  501SOL    HW2 1503   1.705   0.332   1.755  0.4792  1.9819 -0.6561
  502SOL     OW 1504   2.470   0.572   1.644 -0.2440 -0.5929  0.4228
  502SOL    HW1 1505   2.436   0.664   1.668 -0.5675  0.3050 -0.3479
  502SOL    HW2 1506   2.426   0.534   1.563 -0.2224 -1.4084  3.9310
  503SOL     OW 1507   2.392   1.780   2.213 -0.4019 -0.2117 -0.1560
  503SOL    HW1 1508   2.308   1.724   2.196  1.2729  0.1151  0.6315
  503SOL    HW2 1509   2.423   1.819   2.122  1.2670  0.5054 -2.0500
  504SOL     OW 1510   1.420   1.184   1.864  0.2440  0.0430  0.2557
  504SOL    HW1 1511   1.488   1.257   1.840 -1.4990 -1.2617  2.8488
  504SOL    HW2 1512   1.416   1.114   1.794  0.7118  0.7622  2.8416
  505SOL     OW 1513   0.597   0.704   1.632  0.1672 -0.3508 -0.3416
  505SOL    HW1 1514   0.547   0.733   1.552 -0.9208 -0.2393  1.9382
  505SOL    HW2 1515   0.593   0.781   1.701  1.3876 -0.0647  2.0962
  506SOL     OW 1516   0.308   0.438   2.984  0.2187 -0.8260 -0.7422
  506SOL    HW1 1517   0.232   0.506   2.969 -2.3442  0.5809  1.0918
  506SOL    HW2 1518   0.387   0.461   2.930 -1.0797 -0.1905  0.8529
  507SOL     OW 1519   0.601   0.047   0.256 -0.3416  0.1028 -0.3189
  507SOL    HW1 1520   0.572   0.026   0.161 -0.3711 -1.2238  0.0681
  507SOL    HW2 1521   0.604   0.148   0.265 -2.0127  0.3530 -0.9326
  508SOL     OW 1522   0.873   0.667   1.713  0.0038  0.0696 -0.5666
  508SOL    HW1 1523   0.770   0.659   1.693 -1.5144  1.5612  0.0976
  508SOL    HW2 1524   0.885   0.708   1.804  0.1411 -0.5593 -0.1105
  509SOL     OW 1525   1.446   2.440   1.136  0.0615 -0.7675 -0.5318
  509SOL    HW1 1526   1.545   2.444   1.170  2.8512 -0.4568 -1.9566
  509SOL    HW2 1527   1.439   2.434   1.033 -0.6894  1.9612  0.5193
  510SOL     OW 1528   2.887   1.325   1.611 -0.4396 -0.5454  0.0894
  510SOL    HW1 1529   2.860   1.423   1.601  3.2993  0.2403 -0.8598
  510SOL    HW2 1530   2.801   1.269   1.605  0.0433  0.0234 -1.2576
  511SOL     OW 1531   1.248   1.977   1.403 -0.3585  0.2342 -0.0533
  511SOL    HW1 1532   1.258   2.071   1.438 -0.5299  0.6441 -0.5248
  511SOL    HW2 1533   1.286   1.971   1.310  1.0795  0.1034 -2.7295
  512SOL     OW 1534   3.057   1.657   0.619  0.2968  0.7363 -0.0868
  512SOL    HW1 1535   2.954   1.631   0.626  0.1752 -0.5357  1.1917
  512SOL    HW2 1536   3.067   1.758   0.609  0.3829 -0.7518 -0.8088
  513SOL     OW 1537   0.007   1.674   2.940 -0.1926  0.5271 -0.1161
  513SOL    HW1 1538   0.038   1.730   3.023  0.3723 -1.0958  0.8094
  513SOL    HW2 1539   0.032   1.572   2.947  2.4320 -1.9522 -0.2075
  514SOL     OW 1540   2.297   2.313   2.619 -0.0561 -0.2537 -0.5335
  514SOL    HW1 1541   2.203   2.282   2.644 -2.1569 -0.5679  3.2902
  514SOL    HW2 1542   2.296   2.358   2.527  2.3307 -0.5193 -0.1708
  515SOL     OW 1543   2.324   0.699   0.561 -0.3810  0.5303 -0.8142
  515SOL    HW1 1544   2.312   0.604   0.597  4.8695 -1.5113 -0.3518
  515SOL    HW2 1545   2.423   0.712   0.530  2.4723  0.7866  0.4148
  516SOL     OW 1546   2.583   2.206   0.066  0.3672  0.0927 -0.0620
  516SOL    HW1 1547   2.480   2.201   0.064  1.3853  0.6362  1.6193
  516SOL    HW2 1548   2.627   2.250   3.126 -0.8147 -2.5098  0.9437
  517SOL     OW 1549   0.563   1.432   2.763 -0.3867 -0.7438  0.3439
  517SOL    HW1 1550   0.500   1.478   2.697  0.7336 -1.6577 -0.3893
  517SOL    HW2 1551   0.563   1.479   2.857 -0.6968  0.7679 -1.6470
  518SOL     OW 1552   2.911   0.134   2.378  0.3981 -0.1747  0.4617
  518SOL    HW1 1553   2.867   0.194   2.444  2.2581  0.0972 -0.0200
  518SOL    HW2 1554   2.848   0.116   2.294  0.1418  2.0382 -1.3145
  519SOL     OW 1555   1.622   1.311   3.040  0.5118  0.1229  0.6925
  519SOL    HW1 1556   1.536   1.258   3.008 -0.5978  1.7133 -3.2321
  519SOL    HW2 1557   1.599   1.407   3.062  0.0437 -0.4925 -0.4553
  520SOL     OW 1558   2.736   2.863   2.389 -0.0722 -0.0902  0.5537
  520SOL    HW1 1559   2.662   2.927   2.371  1.5467 -0.2831  0.7006
  520SOL    HW2 1560   2.723   2.766   2.362  0.0843  3.2961 -0.9846
  521SOL     OW 1561   0.538   1.697   2.460 -0.8969  0.1199 -0.0805
  521SOL    HW1 1562   0.632   1.683   2.416  1.2855 -1.6943 -0.1097
  521SOL    HW2 1563   0.546   1.763   2.536 -1.6504 -0.2953 -1.2661
  522SOL     OW 1564   1.182   2.945   1.974  0.1966 -0.2495 -0.2734
  522SOL    HW1 1565   1.116   2.948   2.051 -0.1830  1.2789 -3.6021
  522SOL    HW2 1566   1.246   2.867   1.980 -3.3054  0.6419 -0.6024
  523SOL     OW 1567   2.406   2.116   1.103 -0.2411  0.0382  0.1764
  523SOL    HW1 1568   2.458   2.066   1.029 -0.5139  2.4414  0.6380
  523SOL    HW2 1569   2.461   2.190   1.145  0.6300 -0.4131 -0.1715
  524SOL     OW 1570   1.236   2.041   0.824 -0.2808  0.4957  0.1543
  524SOL    HW1 1571   1.307   2.088   0.770 -1.1770 -1.5332 -0.9588
  524SOL    HW2 1572   1.146   2.076   0.805  0.7625  0.5469 -1.0986
  525SOL     OW 1573   2.754   0.550   0.871  0.1583  0.1836 -0.1780
  525SOL    HW1 1574   2.793   0.550   0.964  0.0351 -0.3274 -1.7745
  525SOL    HW2 1575   2.655   0.531   0.880  0.3288 -0.7853 -1.0101
  526SOL     OW 1576   1.711   2.959   0.733  0.1247  0.4418 -0.8493
  526SOL    HW1 1577   1.645   3.007   0.669  0.7363 -0.7446 -0.5389
  526SOL    HW2 1578   1.725   3.016   0.814 -2.9196 -1.9282 -0.0128
  527SOL     OW 1579   1.936   1.706   1.034  0.3152  0.1599 -0.2819
  527SOL    HW1 1580   1.882   1.743   0.956  0.2839  0.3101 -0.0987
  527SOL    HW2 1581   2.030   1.749   1.024  0.3034  0.9164  1.8396
  528SOL     OW 1582   2.758   2.857   2.675  0.0852  0.4950 -1.0383
  528SOL    HW1 1583   2.783   2.855   2.575  3.3115  0.3076  1.3505
  528SOL    HW2 1584   2.843   2.836   2.732 -0.7166  1.3960 -1.1142
  529SOL     OW 1585   1.160   1.288   2.696  0.2553  0.5996 -0.4593
  529SOL    HW1 1586   1.191   1.383   2.725 -0.2915  2.1086 -0.3695
  529SOL    HW2 1587   1.101   1.249   2.772 -1.2735 -0.5692  1.2593
  530SOL     OW 1588   2.094   1.194   2.315 -0.0376 -0.3556 -0.4302
  530SOL    HW1 1589   2.146   1.214   2.406  1.3541  0.8885  1.6793
  530SOL    HW2 1590   2.012   1.133   2.337 -1.1352 -1.9854  0.4152
  531SOL     OW 1591   0.145   1.019   3.111 -0.0257  0.3795  0.5464
  531SOL    HW1 1592   0.235   1.055   3.083  1.9043 -0.5761  1.4363
  531SOL    HW2 1593   0.129   1.030   0.070 -0.5687 -1.5396 -1.6499
  532SOL     OW 1594   1.432   1.431   0.463 -0.4647 -0.4788  0.5254
  532SOL    HW1 1595   1.437   1.375   0.550  0.2776  0.6302 -0.5378
  532SOL    HW2 1596   1.363   1.504   0.476 -1.1296  0.1446 -0.9536
  533SOL     OW 1597   0.287   0.616   2.415 -0.3301  0.3697  0.2964
  533SOL    HW1 1598   0.326   0.696   2.375 -1.0845 -3.5199  1.8665
  533SOL    HW2 1599   0.356   0.547   2.439 -4.0028  0.6097 -1.7773
  534SOL     OW 1600   1.216   0.556   2.546 -0.2943  0.1300 -0.1750
  534SOL    HW1 1601   1.122   0.531   2.576  1.3990 -0.7433  2.2551
  534SOL    HW2 1602   1.228   0.654   2.532  1.2196 -2.1109  0.8663
  535SOL     OW 1603   0.436   0.591   0.267 -0.1877  0.1423  0.2905
  535SOL    HW1 1604   0.481   0.655   0.202 -0.8665  0.4491 -0.9594
  535SOL    HW2 1605   0.338   0.614   0.282  0.2009 -2.0744 -0.4450
  536SOL     OW 1606   0.543   0.818   3.025 -0.5439  0.0913 -0.3747
  536SOL    HW1 1607   0.572   0.805   3.123 -1.7668 -0.0773  0.1145
  536SOL    HW2 1608   0.509   0.734   2.982  0.9895 -0.6785 -3.3449
  537SOL     OW 1609   1.453   0.073   1.344 -0.2005  0.0675  0.0566
  537SOL    HW1 1610   1.402   0.156   1.307 -0.0563  0.3557 -2.4391
  537SOL    HW2 1611   1.537   0.095   1.391 -1.2361  0.1602 -0.7011
  538SOL     OW 1612   0.421   2.834   0.035 -0.2186 -0.3920 -0.4272
  538SOL    HW1 1613   0.475   2.886   3.112 -1.1516  0.2552  1.0468
  538SOL    HW2 1614   0.406   2.740   3.138  1.3330 -0.6957  0.0667
  539SOL     OW 1615   3.039   1.282   1.844  0.1450 -0.3116  0.5113
  539SOL    HW1 1616   3.008   1.291   1.745 -1.6440  1.2108 -1.9511
  539SOL    HW2 1617   3.023   1.367   1.893 -1.7819 -4.7528  1.7023
  540SOL     OW 1618   2.206   1.664   1.550 -0.1069 -0.4288  0.1706
  540SOL    HW1 1619   2.264   1.596   1.501  1.6252 -0.6109 -2.1656
  540SOL    HW2 1620   2.212   1.658   1.654  2.3064 -1.1800  0.3161
  541SOL     OW 1621   0.590   2.090   1.580  0.5668 -0.5430  0.0407
  541SOL    HW1 1622   0.493   2.120   1.591  0.8088  0.2706  0.5140
  541SOL    HW2 1623   0.602   1.997   1.625  0.0410 -1.8541 -0.1212
  542SOL     OW 1624   2.277   0.915   1.923 -0.3159 -0.3032 -0.1558
  542SOL    HW1 1625   2.177   0.939   1.935  2.0163 -3.1637  0.4221
  542SOL    HW2 1626   2.297   0.840   1.984 -1.6221 -0.6257 -1.8754
  543SOL     OW 1627   1.070   0.696   0.601 -0.6600  0.2707 -0.2181
  543SOL    HW1 1628   1.033   0.782   0.561  1.6164 -2.1217 -1.6934
  543SOL    HW2 1629   1.010   0.665   0.673  3.7308  0.5052 -0.2952
  544SOL     OW 1630   2.131   1.936   1.652 -0.4264  0.2508 -0.2643
  544SOL    HW1 1631   2.034   1.970   1.629 -0.2829 -2.7485  0.7132
  544SOL    HW2 1632   2.137   1.834   1.647 -1.5927  0.0581  0.7286
  545SOL     OW 1633   1.677   1.636   1.397 -0.7325 -0.5135 -0.1060
  545SOL    HW1 1634   1.682   1.541   1.351 -1.6416 -3.1994 -0.7199
  545SOL    HW2 1635   1.728   1.704   1.341 -1.7929  1.3803 -0.4653
  546SOL     OW 1636   0.209   0.030   2.993 -0.1993 -0.4396  0.5965
  546SOL    HW1 1637   0.177   0.111   2.941 -1.0582 -0.0722  2.4546
  546SOL    HW2 1638   0.276   0.061   3.067  1.7858 -0.6516  1.2805
  547SOL     OW 1639   2.366   0.552   0.012 -0.3884 -0.3423  0.2517
  547SOL    HW1 1640   2.266   0.548   3.134  0.7615  1.6146  2.3582
  547SOL    HW2 1641   2.405   0.459   3.133  0.3489 -1.5209 -0.8470
  548SOL     OW 1642   2.404   2.269   2.263  0.1018  0.1636 -0.1211
  548SOL    HW1 1643   2.353   2.334   2.325 -0.6622 -1.7358 -0.4890
  548SOL    HW2 1644   2.504   2.276   2.272  1.2684 -2.1337  0.5277
  549SOL     OW 1645   2.149   2.931   0.850  0.5870  0.1468  0.1319
  549SOL    HW1 1646   2.180   2.965   0.761 -0.9781  1.1359  0.0238
  549SOL    HW2 1647   2.152   2.832   0.860 -0.3280  1.0166  0.1504
  550SOL     OW 1648   2.076   1.389   0.000 -0.1218  0.2887 -0.0598
  550SOL    HW1 1649   2.019   1.343   3.070  0.4414 -2.0927 -0.0266
  550SOL    HW2 1650   2.030   1.384   0.087  2.0877  0.5108 -2.0960
  551SOL     OW 1651   1.225   0.052   1.540 -0.8470 -0.4598  0.3089
  551SOL    HW1 1652   1.304   0.065   1.477  0.5317  0.0172  0.3940
  551SOL    HW2 1653   1.142   0.028   1.488 -1.8337  1.5761  2.0481
  552SOL     OW 1654   2.870   2.560   2.935  0.5674  0.0763 -0.0452
  552SOL    HW1 1655   2.964   2.544   2.892  0.5690  0.3820 -0.5295
  552SOL    HW2 1656   2.854   2.656   2.961 -0.3110  1.2317 -2.9807
  553SOL     OW 1657   0.715   0.081   0.621  0.6893 -0.4717 -0.1589
  553SOL    HW1 1658   0.686   0.152   0.685  0.1165  1.2690  2.3893
  553SOL    HW2 1659   0.680   0.099   0.528  1.0009  0.8041  0.8355
  554SOL     OW 1660   2.089   2.250   1.580 -0.9033  0.1348 -0.7788
  554SOL    HW1 1661   2.035   2.168   1.565  1.6395 -1.8162 -2.1655
  554SOL    HW2 1662   2.149   2.265   1.499 -0.8161 -3.4495 -0.8790
  555SOL     OW 1663   1.384   2.493   1.826  0.1852 -0.0932 -0.3929
  555SOL    HW1 1664   1.314   2.564   1.835 -1.1073 -0.0573 -2.7323
  555SOL    HW2 1665   1.356   2.409   1.876 -1.7082 -0.7077 -1.8999
  556SOL     OW 1666   1.884   1.627   0.560 -0.1394  0.3710  0.0629
  556SOL    HW1 1667   1.892   1.570   0.648  1.4667 -1.2764 -0.1396
  556SOL    HW2 1668   1.819   1.583   0.494  1.8249  1.5080  0.1215
  557SOL     OW 1669   1.656   2.406   1.991 -0.4068  0.0848 -0.2087
  557SOL    HW1 1670   1.607   2.476   1.939 -0.8139  1.8444 -2.8452
  557SOL    HW2 1671   1.594   2.340   2.041  2.1186  0.0539  0.3388
  558SOL     OW 1672   0.212   0.454   2.200 -0.5619  0.1820 -0.0425
  558SOL    HW1 1673   0.309   0.418   2.188 -0.4835  1.4894 -1.2198
  558SOL    HW2 1674   0.216   0.525   2.275  0.4372  0.1869 -0.9419
  559SOL     OW 1675   2.322   2.826   2.015  0.0339 -0.5566  0.0325
  559SOL    HW1 1676   2.365   2.891   1.950  1.5688 -1.9961 -1.4215
  559SOL    HW2 1677   2.357   2.849   2.109 -1.3219  0.7515 -0.8141
  560SOL     OW 1678   0.519   0.011   3.109  0.5459  0.0087 -0.8400
  560SOL    HW1 1679   0.450   3.100   3.051 -1.1282 -1.8792 -0.3506
  560SOL    HW2 1680   0.485   0.113   3.119 -1.2113  3.0179 -0.8327
  561SOL     OW 1681   1.445   0.999   0.412  0.2104  0.2631 -0.1438
  561SOL    HW1 1682   1.417   0.901   0.409 -0.5151 -0.1969 -0.5855
  561SOL    HW2 1683   1.374   1.053   0.462 -0.7167  1.6051 -1.6215
  562SOL     OW 1684   0.955   1.088   2.363 -0.4561 -0.3514 -0.0324
  562SOL    HW1 1685   0.876   1.144   2.381  2.2465 -0.7536 -0.5958
  562SOL    HW2 1686   0.973   1.025   2.439  1.3522  4.5323 -3.1177
  563SOL     OW 1687   1.626   2.256   2.856 -0.4581  0.3836  0.1480
  563SOL    HW1 1688   1.568   2.223   2.935  0.0924 -2.5057 -0.2198
  563SOL    HW2 1689   1.627   2.357   2.843  1.9271 -0.5028 -2.0382
  564SOL     OW 1690   3.037   1.930   0.525  0.2625  0.4794  0.0045
  564SOL    HW1 1691   3.094   1.976   0.457 -1.3321  0.3154 -0.2531
  564SOL    HW2 1692   2.937   1.940   0.499 -0.5193  1.7358 -1.1491
  565SOL     OW 1693   1.166   3.077   2.650 -0.1091 -0.2522  0.2206
  565SOL    HW1 1694   1.258   3.042   2.651 -0.1865 -0.6940  1.1376
  565SOL    HW2 1695   1.108   3.039   2.724 -0.6813 -1.2752 -1.7236
  566SOL     OW 1696   1.742   2.930   2.537 -0.0298 -0.1552 -0.8047
  566SOL    HW1 1697   1.836   2.924   2.575  2.1619 -1.4774  0.5835
  566SOL    HW2 1698   1.666   2.931   2.606  1.8039  3.8185 -0.5516
  567SOL     OW 1699   2.564   1.155   1.088 -0.2938  0.0704 -0.1301
  567SOL    HW1 1700   2.561   1.087   1.169  1.0739 -1.9051  0.2169
  567SOL    HW2 1701   2.470   1.169   1.052 -1.2318 -1.1558  1.8265
  568SOL     OW 1702   1.986   1.499   2.858 -0.0294  0.0623 -0.1760
  568SOL    HW1 1703   1.955   1.408   2.897  1.6284  0.1459 -0.0798
  568SOL    HW2 1704   2.059   1.537   2.921  1.1075  1.3291 -0.5777
  569SOL     OW 1705   2.257   1.866   2.543  0.2386 -0.4486 -0.8234
  569SOL    HW1 1706   2.302   1.959   2.562 -1.1635  1.1106 -0.6790
  569SOL    HW2 1707   2.244   1.856   2.444  0.9368  2.6997  0.5369
  570SOL     OW 1708   0.028   2.440   1.939 -0.3001 -0.0637  0.6829
  570SOL    HW1 1709   0.107   2.421   2.002  0.9531  0.7263  0.3863
  570SOL    HW2 1710   3.096   2.368   1.943 -0.7920  0.4723  1.4695
  571SOL     OW 1711   0.518   0.066   2.145 -0.3444  0.2499 -0.3220
  571SOL    HW1 1712   0.620   0.068   2.151  0.6964 -0.4959  1.8358
  571SOL    HW2 1713   0.488   0.054   2.051  2.1870  1.2336  2.8057
  572SOL     OW 1714   0.896   1.834   1.030 -0.0180 -0.0605  0.3715
  572SOL    HW1 1715   0.945   1.768   0.962  0.9688 -2.1547 -1.0804
  572SOL    HW2 1716   0.821   1.877   0.977 -4.7327 -0.9787  0.0073
  573SOL     OW 1717   1.179   0.337   0.170  0.3881 -0.1422  0.0191
  573SOL    HW1 1718   1.132   0.390   0.248 -0.6002  0.2785 -0.3261
  573SOL    HW2 1719   1.216   0.398   0.098  2.8013  0.8591  0.5579
  574SOL     OW 1720   0.570   2.981   0.435 -0.9135 -0.1929 -0.6958
  574SOL    HW1 1721   0.570   3.059   0.374  0.0133 -0.7137  0.9695
  574SOL    HW2 1722   0.663   2.974   0.473 -0.7358 -0.0862  0.2025
  575SOL     OW 1723   0.081   1.501   1.469 -0.2297  0.1576  0.3479
  575SOL    HW1 1724   0.151   1.533   1.533 -0.5204 -1.1780 -2.3539
  575SOL    HW2 1725   0.085   1.540   1.373  0.7282 -0.2941 -0.2592
  576SOL     OW 1726   2.593   0.391   1.827  0.1125  0.3124  0.4229
  576SOL    HW1 1727   2.573   0.486   1.785 -0.5596  4.8289  0.0385
  576SOL    HW2 1728   2.511   0.326   1.830  0.4634 -1.1984 -1.0405
  577SOL     OW 1729   2.826   1.635   1.878 -0.1134 -0.4470 -0.4573
  577SOL    HW1 1730   2.756   1.570   1.909  1.2644  1.6999  0.1615
  577SOL    HW2 1731   2.914   1.597   1.909 -1.3199  0.4647 -1.0812
  578SOL     OW 1732   1.347   0.127   1.986 -0.5022  0.0107 -0.4760
  578SOL    HW1 1733   1.434   0.149   2.038  0.8301  0.8019 -0.0452
  578SOL    HW2 1734   1.357   0.039   1.941 -2.1023  3.8298  2.9623
  579SOL     OW 1735   2.286   2.062   2.128  0.4342  0.4573 -0.2955
  579SOL    HW1 1736   2.276   2.079   2.029 -0.9478 -2.7059 -1.5111
  579SOL    HW2 1737   2.333   2.144   2.172  0.5020  1.8735 -0.7636
  580SOL     OW 1738   1.810   1.365   2.098 -0.0735  0.5039 -0.1685
  580SOL    HW1 1739   1.909   1.384   2.108  0.4236 -0.8101  1.2186
  580SOL    HW2 1740   1.763   1.446   2.063 -0.4095 -0.1226  1.3889
  581SOL     OW 1741   1.541   1.209   2.520  0.2999  0.2985 -0.0547
  581SOL    HW1 1742   1.598   1.231   2.441 -0.8344 -1.7674  2.7528
  581SOL    HW2 1743   1.597   1.215   2.606 -0.1077  1.3653  0.2645
  582SOL     OW 1744   2.980   2.223   1.947 -0.1736 -0.2478  0.7245
  582SOL    HW1 1745   2.988   2.135   1.893  1.7385 -0.0470 -2.8895
  582SOL    HW2 1746   2.944   2.205   2.043 -2.6580 -1.4351  0.8205
  583SOL     OW 1747   1.747   0.868   0.727  0.1642 -0.3208  0.1273
  583SOL    HW1 1748   1.839   0.886   0.761 -2.4295 -0.6199 -2.8602
  583SOL    HW2 1749   1.684   0.952   0.746 -1.3367 -0.7350  0.0381
  584SOL     OW 1750   1.201   2.587   0.411  0.5783  0.4746  0.0148
  584SOL    HW1 1751   1.111   2.620   0.443 -1.2967 -2.0132  0.6732
  584SOL    HW2 1752   1.262   2.665   0.387 -0.6117  1.1977  0.3756
  585SOL     OW 1753   0.158   2.861   3.043  0.0767 -0.0451 -0.0373
  585SOL    HW1 1754   0.083   2.903   3.101 -0.8326 -0.5779  3.0270
  585SOL    HW2 1755   0.247   2.866   3.089  1.5389 -1.1862  1.5845
  586SOL     OW 1756   2.262   0.868   0.756  0.5439  0.3695  0.3145
  586SOL    HW1 1757   2.247   0.802   0.679 -1.9339 -0.3934  0.0675
  586SOL    HW2 1758   2.315   0.952   0.731  0.5373  2.6254  1.8615
  587SOL     OW 1759   0.370   1.371   0.158 -0.0876 -0.5103 -0.0646
  587SOL    HW1 1760   0.428   1.302   0.203  0.5073  0.1845 -0.4811
  587SOL    HW2 1761   0.430   1.445   0.126  1.9579 -1.5275 -0.1480
  588SOL     OW 1762   0.335   0.235   0.597  0.0929  0.4070 -0.3557
  588SOL    HW1 1763   0.250   0.257   0.550  0.3957 -1.6585 -1.7592
  588SOL    HW2 1764   0.364   0.325   0.627 -1.7078  0.4610 -0.4600
  589SOL     OW 1765   1.434   0.162   0.744  0.6084  0.2498 -0.1465
  589SOL    HW1 1766   1.358   0.114   0.797 -3.7930  0.8302  0.6503
  589SOL    HW2 1767   1.491   0.222   0.800 -1.1600 -0.5784 -1.2834
  590SOL     OW 1768   2.626   2.468   0.432  0.2991 -0.7280  0.6871
  590SOL    HW1 1769   2.683   2.532   0.489  0.7780 -2.0639  0.5087
  590SOL    HW2 1770   2.555   2.524   0.383 -1.3929  1.4410 -0.8484
  591SOL     OW 1771   0.233   2.306   2.107  0.4766 -0.1633 -0.4018
  591SOL    HW1 1772   0.213   2.318   2.205  0.1770 -0.0182 -0.3207
  591SOL    HW2 1773   0.325   2.345   2.089 -1.2364 -0.4135 -1.4641
  592SOL     OW 1774   0.215   1.908   2.327 -0.2668 -0.0759  0.3518
  592SOL    HW1 1775   0.229   1.808   2.351 -0.3044  0.9141  1.2330
  592SOL    HW2 1776   0.160   1.956   2.398 -0.2373 -3.0695 -2.2529
  593SOL     OW 1777   1.459   1.868   1.570  0.0030  0.2833  0.6159
  593SOL    HW1 1778   1.385   1.871   1.500 -1.0053 -0.0199 -0.5798
  593SOL    HW2 1779   1.423   1.810   1.646 -0.8924 -1.7200 -0.4790
  594SOL     OW 1780   0.531   1.147   2.768 -0.5287 -0.7593  0.1858
  594SOL    HW1 1781   0.436   1.124   2.805 -0.5390  0.9598  1.8314
  594SOL    HW2 1782   0.558   1.242   2.796  0.6222  0.1224 -0.6940
  595SOL     OW 1783   1.481   0.774   0.793  0.8011  0.1318 -0.0964
  595SOL    HW1 1784   1.569   0.824   0.797  2.6062 -0.1661 -2.3691
  595SOL    HW2 1785   1.401   0.836   0.806  2.1138  0.6170  0.8866
  596SOL     OW 1786   0.555   1.148   0.999  0.2902 -0.0692 -0.1473
  596SOL    HW1 1787   0.653   1.169   1.022  0.9701 -1.3090  1.5959
  596SOL    HW2 1788   0.498   1.233   1.010 -0.0051 -2.4960 -1.4028
  597SOL     OW 1789   0.500   2.437   2.073 -0.0243 -0.2275 -0.0561
  597SOL    HW1 1790   0.482   2.530   2.096  0.9491 -2.0341  0.7398
  597SOL    HW2 1791   0.573   2.428   1.997  2.2066  0.6830 -5.1235
  598SOL     OW 1792   2.252   2.448   2.404 -0.4462 -0.2386  0.6708
  598SOL    HW1 1793   2.151   2.438   2.383  0.8273  0.8146 -1.4697
  598SOL    HW2 1794   2.291   2.542   2.381  0.7230 -1.0099 -0.0765
  599SOL     OW 1795   1.114   1.240   0.335 -0.0007  0.9805  0.0836
  599SOL    HW1 1796   1.065   1.319   0.375  1.3698 -1.5330 -3.4420
  599SOL    HW2 1797   1.124   1.244   0.234  1.7408 -0.8578 -0.2461
  600SOL     OW 1798   1.590   0.344   0.368 -0.2254  0.5207  1.1005
  600SOL    HW1 1799   1.502   0.297   0.384  0.6728  0.0104  0.6331
  600SOL    HW2 1800   1.670   0.293   0.402  1.5293  0.9051  1.3024
  601SOL     OW 1801   0.555   0.437   1.572 -0.0824 -0.1567  0.0103
  601SOL    HW1 1802   0.459   0.434   1.537 -0.7840  1.5112  2.0175
  601SOL    HW2 1803   0.577   0.529   1.609  2.1613 -0.7014 -0.5469
  602SOL     OW 1804   0.559   2.233   0.706  0.0031 -0.5895 -0.7014
  602SOL    HW1 1805   0.630   2.163   0.704  0.1533  3.1947 -0.8882
  602SOL    HW2 1806   0.590   2.315   0.657 -3.0434  0.5613 -0.5140
  603SOL     OW 1807   0.906   2.771   2.627 -0.6014 -0.0552  0.4891
  603SOL    HW1 1808   0.965   2.693   2.647  1.1099  1.9824 -1.6456
  603SOL    HW2 1809   0.864   2.772   2.532 -0.3113  3.5535 -0.9920
  604SOL     OW 1810   0.767   2.324   0.313  0.4883 -0.0045 -0.2654
  604SOL    HW1 1811   0.862   2.345   0.283 -3.0732 -1.5868 -0.5290
  604SOL    HW2 1812   0.701   2.366   0.247 -0.3938  2.6741  1.7840
  605SOL     OW 1813   1.628   1.349   1.847  0.5168 -0.2114  0.0538
  605SOL    HW1 1814   1.647   1.435   1.901  0.0479  0.0258 -0.4733
  605SOL    HW2 1815   1.707   1.290   1.829  0.6079 -2.6614 -0.6749
  606SOL     OW 1816   0.980   0.973   2.950  0.5017 -0.0147  0.4237
  606SOL    HW1 1817   0.889   0.956   2.995 -0.8143 -0.2323 -0.7687
  606SOL    HW2 1818   0.991   1.068   2.915  3.2115  0.5176 -0.9461
  607SOL     OW 1819   1.063   0.885   1.096 -0.1888  0.5308 -0.0186
  607SOL    HW1 1820   0.986   0.893   1.164  1.5024 -1.0749 -0.5510
  607SOL    HW2 1821   1.139   0.952   1.115  1.4759  3.4362  4.2036
  608SOL     OW 1822   2.842   2.194   2.176 -0.3803 -0.0961 -0.2801
  608SOL    HW1 1823   2.772   2.140   2.121 -0.8616 -2.2768  0.3809
  608SOL    HW2 1824   2.789   2.252   2.240  2.8118  0.6279 -2.1496
  609SOL     OW 1825   2.293   0.104   0.040 -0.2107 -0.0064  0.2182
  609SOL    HW1 1826   2.214   0.102   0.105 -0.3719  2.3285  2.2739
  609SOL    HW2 1827   2.365   0.036   0.067 -0.5178  1.3851 -0.3323
  610SOL     OW 1828   0.360   2.456   1.710  0.0503 -0.2910 -0.5530
  610SOL    HW1 1829   0.351   2.548   1.750  3.4762 -2.2523  1.4035
  610SOL    HW2 1830   0.437   2.453   1.641  3.2581  0.8620  1.0834
  611SOL     OW 1831   1.437   1.740   0.998 -0.7174  0.2826 -0.8328
  611SOL    HW1 1832   1.381   1.719   1.084 -2.4941  1.6547  0.9081
  611SOL    HW2 1833   1.473   1.658   0.951  0.2105 -1.1933 -1.1001
  612SOL     OW 1834   0.478   0.410   2.420  0.4212 -0.6016 -0.1981
  612SOL    HW1 1835   0.506   0.462   2.337  0.5119  1.4307 -0.3268
  612SOL    HW2 1836   0.530   0.325   2.432  0.3109  2.1932 -0.7960
  613SOL     OW 1837   2.620   1.104   0.393  0.2759  0.7666  0.3148
  613SOL    HW1 1838   2.580   1.169   0.464  1.0084  2.0736 -1.1753
  613SOL    HW2 1839   2.715   1.082   0.419 -5.5209  0.7948 -2.1314
  614SOL     OW 1840   1.866   0.360   1.706  0.0683  0.2879 -0.1524
  614SOL    HW1 1841   1.912   0.282   1.661 -0.4890 -0.0404 -1.8113
  614SOL    HW2 1842   1.914   0.384   1.791 -0.3662 -2.3865 -1.6411
  615SOL     OW 1843   0.871   1.323   1.499  0.8441 -0.2862  0.6498
  615SOL    HW1 1844   0.922   1.409   1.518 -0.7631 -1.8491  0.8838
  615SOL    HW2 1845   0.813   1.348   1.419  1.1543 -1.3842 -2.3596
  616SOL     OW 1846   1.507   2.075   0.074  0.2662  0.0580  0.0931
  616SOL    HW1 1847   1.471   2.167   0.105 -0.3440  1.7211  1.3700
  616SOL    HW2 1848   1.600   2.045   0.105 -0.1862  1.0586 -0.2675
  617SOL     OW 1849   2.295   2.853   0.279 -0.3868  0.5042 -0.2421
  617SOL    HW1 1850   2.196   2.825   0.288 -2.4456  1.2133  2.2781
  617SOL    HW2 1851   2.349   2.821   0.361  0.0296  1.5913  1.5558
  618SOL     OW 1852   0.746   0.771   2.409 -0.3966  0.0586 -0.2197
  618SOL    HW1 1853   0.837   0.807   2.435 -2.3442  1.6828  1.8162
  618SOL    HW2 1854   0.723   0.801   2.313  1.1258 -1.3379  0.8978
  619SOL     OW 1855   2.605   1.560   0.830  0.4764 -0.1804  0.1898
  619SOL    HW1 1856   2.607   1.456   0.844  2.0939 -0.1470 -1.9053
  619SOL    HW2 1857   2.525   1.589   0.773 -3.9006 -1.7231 -2.4979
  620SOL     OW 1858   2.290   3.025   2.928  0.0342 -0.4072 -0.3550
  620SOL    HW1 1859   2.339   2.937   2.924  2.7728  1.4885 -1.0266
  620SOL    HW2 1860   2.194   3.024   2.894  1.9655  0.4789  0.3164
  621SOL     OW 1861   2.305   1.463   3.033 -0.1541  0.9258  0.6410
  621SOL    HW1 1862   2.220   1.428   3.077 -1.2646 -0.9310 -1.2654
  621SOL    HW2 1863   2.375   1.478   3.100 -2.3076  1.0215 -1.2186
  622SOL     OW 1864   1.558   2.591   2.162  0.7800 -0.3956  0.4733
  622SOL    HW1 1865   1.609   2.645   2.235  1.2957  2.5262 -1.1160
  622SOL    HW2 1866   1.606   2.511   2.128 -1.5470 -0.5667  0.5825
  623SOL     OW 1867   0.813   1.669   0.433 -0.1717  0.1116 -0.0446
  623SOL    HW1 1868   0.785   1.713   0.343 -2.2953 -2.8956  0.9542
  623SOL    HW2 1869   0.729   1.664   0.495 -0.0252 -0.5082 -0.0604
  624SOL     OW 1870   0.338   0.217   3.127  0.1322 -0.1629  0.2225
  624SOL    HW1 1871   0.344   0.261   0.078 -0.4926 -1.2663 -0.8668
  624SOL    HW2 1872   0.303   0.286   3.061  3.5336 -1.5277  1.4169
  625SOL     OW 1873   0.656   1.680   0.659  0.2563  0.1324  0.4450
  625SOL    HW1 1874   0.621   1.773   0.631  0.7316  0.2133 -0.1376
  625SOL    HW2 1875   0.576   1.627   0.697 -2.0130 -1.0202 -2.4328
  626SOL     OW 1876   2.961   2.841   2.835  0.5386 -0.2841 -0.3594
  626SOL    HW1 1877   3.056   2.804   2.823  1.6673  0.9308  1.0198
  626SOL    HW2 1878   2.956   2.931   2.883  4.1540 -0.1613  1.6384
  627SOL     OW 1879   1.264   1.519   2.798 -0.1650  0.4564  0.2354
  627SOL    HW1 1880   1.358   1.535   2.751  2.2432  0.1383 -0.1639
  627SOL    HW2 1881   1.283   1.514   2.899  0.6986 -1.2680  3.3840
  628SOL     OW 1882   0.166   0.270   2.814 -0.1719 -0.1175 -0.0603
  628SOL    HW1 1883   0.222   0.340   2.869  1.5395 -0.1811  1.9040
  628SOL    HW2 1884   0.207   0.254   2.722  0.3806  0.2599 -1.9203
  629SOL     OW 1885   0.497   2.735   2.095  0.0395  0.4209 -0.2055
  629SOL    HW1 1886   0.587   2.780   2.105  0.6099  0.0595 -0.0449
  629SOL    HW2 1887   0.418   2.802   2.109 -0.1785 -0.9940 -0.8736
  630SOL     OW 1888   1.835   1.177   1.757  0.0318 -0.2238 -0.4075
  630SOL    HW1 1889   1.886   1.178   1.672 -1.2887 -1.0002 -1.3494
  630SOL    HW2 1890   1.763   1.103   1.774  0.2727 -0.2921  2.6155
  631SOL     OW 1891   2.189   0.812   0.356 -0.1946  0.3902 -0.4150
  631SOL    HW1 1892   2.260   0.839   0.286  0.7159  1.3851  0.5839
  631SOL    HW2 1893   2.235   0.796   0.445 -0.7630  0.0126 -1.2529
  632SOL     OW 1894   2.347   0.349   2.146 -0.3511  0.4256 -0.2541
  632SOL    HW1 1895   2.392   0.418   2.203 -0.4809 -1.5896 -1.6508
  632SOL    HW2 1896   2.260   0.317   2.187 -0.3602  0.7745  0.4601
  633SOL     OW 1897   0.828   2.709   0.323 -0.2458  0.3024 -0.3455
  633SOL    HW1 1898   0.875   2.712   0.232  0.7235  0.9359  2.3282
  633SOL    HW2 1899   0.725   2.690   0.315 -2.6360  0.2477  1.5793
  634SOL     OW 1900   1.479   2.650   2.648 -0.5686 -0.2566 -0.8249
  634SOL    HW1 1901   1.421   2.591   2.584  0.7989 -1.5600 -5.5204
  634SOL    HW2 1902   1.457   2.749   2.630 -1.9028 -0.1106  1.9479
  635SOL     OW 1903   2.446   0.303   3.098 -0.1830 -0.2833  0.2542
  635SOL    HW1 1904   2.528   0.269   3.046 -0.4145 -3.0938 -0.4566
  635SOL    HW2 1905   2.381   0.226   3.118 -2.9711  0.1391  0.9030
  636SOL     OW 1906   0.569   1.159   0.691 -0.1221 -0.4579  0.0721
  636SOL    HW1 1907   0.569   1.064   0.645  0.3455 -0.0940 -2.1863
  636SOL    HW2 1908   0.574   1.146   0.794 -2.1219 -0.5267  2.9328
  637SOL     OW 1909   3.137   2.000   0.911  0.5367 -0.3064 -0.4518
  637SOL    HW1 1910   3.109   1.946   0.997 -0.1073 -0.8949  1.1648
  637SOL    HW2 1911   0.097   1.994   0.901 -2.9177 -0.4587 -2.4269
  638SOL     OW 1912   0.754   0.012   2.826 -0.0723 -0.2848 -0.1219
  638SOL    HW1 1913   0.711   3.080   2.880  1.4364 -0.5961  1.6107
  638SOL    HW2 1914   0.808   0.075   2.883 -0.4951  1.7021 -1.8485
  639SOL     OW 1915   1.628   1.664   0.429  0.2681  0.0977  0.2439
  639SOL    HW1 1916   1.538   1.629   0.453 -0.0352  1.2710 -1.4090
  639SOL    HW2 1917   1.648   1.743   0.491 -1.2275 -1.0112  2.8715
  640SOL     OW 1918   1.729   2.683   0.899  0.3689  0.0547 -0.6322
  640SOL    HW1 1919   1.663   2.639   0.824 -3.5804 -1.9237 -4.6581
  640SOL    HW2 1920   1.738   2.778   0.868 -1.2143 -3.7468 -1.4818
  641SOL     OW 1921   0.004   3.004   0.493  0.1811 -0.3105  0.7547
  641SOL    HW1 1922   0.021   2.965   0.400 -1.2255 -0.3571 -1.2865
  641SOL    HW2 1923   0.089   3.012   0.547  3.1806  0.5254  0.4616
  642SOL     OW 1924   0.776   0.266   1.691  0.1713  0.1500 -0.1293
  642SOL    HW1 1925   0.698   0.297   1.633 -1.9210  1.5416 -0.5785
  642SOL    HW2 1926   0.790   0.328   1.774 -0.5461  1.6166 -0.9569
  643SOL     OW 1927   0.602   2.223   2.205 -0.6225  0.0872  0.3591
  643SOL    HW1 1928   0.557   2.314   2.182  0.6002  0.8066  1.7652
  643SOL    HW2 1929   0.640   2.174   2.126  1.1743  1.0999  0.1019
  644SOL     OW 1930   0.843   2.899   0.507 -0.2111 -0.6498 -0.2043
  644SOL    HW1 1931   0.871   2.879   0.604  1.4520 -2.2206  0.2657
  644SOL    HW2 1932   0.848   2.815   0.451 -2.6985  0.3725 -2.3713
  645SOL     OW 1933   1.082   1.906   0.221 -0.0471  0.1358  0.8132
  645SOL    HW1 1934   1.156   1.967   0.203 -1.3830  0.7698 -1.1682
  645SOL    HW2 1935   1.104   1.805   0.219 -0.4909 -2.1988  1.9540
  646SOL     OW 1936   0.533   1.576   2.996 -0.0109  0.4205  0.3957
  646SOL    HW1 1937   0.603   1.514   3.044 -0.1445 -2.2442  1.4744
  646SOL    HW2 1938   0.559   1.675   3.015  0.6607  0.7387  1.4950
  647SOL     OW 1939   1.030   0.129   1.030 -0.2656  0.0700 -0.0380
  647SOL    HW1 1940   0.998   0.227   1.020 -2.1566  0.2547 -0.4336
  647SOL    HW2 1941   1.062   0.108   1.126  0.3904 -0.9969 -2.2394
  648SOL     OW 1942   2.875   0.079   1.895  0.2033 -0.3611 -0.4951
  648SOL    HW1 1943   2.895   0.180   1.877 -1.1390  2.0298  0.9426
  648SOL    HW2 1944   2.935   0.037   1.968  1.1382  4.5913 -0.2909
  649SOL     OW 1945   0.663   2.040   2.843  0.0283 -0.4199 -0.6294
  649SOL    HW1 1946   0.664   2.086   2.751 -0.5553 -1.2191  1.6928
  649SOL    HW2 1947   0.621   2.089   2.921 -1.1379  0.2933 -0.1708
  650SOL     OW 1948   0.137   1.864   1.674  0.0558  0.2966  0.3258
  650SOL    HW1 1949   0.136   1.837   1.579  0.4807  0.2570  0.5284
  650SOL    HW2 1950   0.236   1.869   1.704  0.0980 -0.3707 -1.3320
  651SOL     OW 1951   0.914   0.172   3.002 -0.1681 -0.0140  0.3984
  651SOL    HW1 1952   0.989   0.153   3.069 -2.5025 -2.0709 -3.0203
  651SOL    HW2 1953   0.845   0.233   3.041  0.5845 -0.7485  0.2145
  652SOL     OW 1954   2.690   2.201   0.330  0.0846 -0.0563  0.7480
  652SOL    HW1 1955   2.625   2.217   0.252  1.8685  0.5668 -0.5336
  652SOL    HW2 1956   2.700   2.287   0.381  3.3396 -2.1904 -1.1291
  653SOL     OW 1957   3.085   0.224   0.984 -0.8302 -0.2395  0.3294
  653SOL    HW1 1958   3.123   0.144   0.935  0.1864  1.0915  1.7724
  653SOL    HW2 1959   3.072   0.305   0.919 -2.0029 -0.1792 -2.0514
  654SOL     OW 1960   1.778   0.218   2.450 -0.3841 -0.5408  0.0089
  654SOL    HW1 1961   1.693   0.258   2.491 -1.3818 -1.0896 -0.1710
  654SOL    HW2 1962   1.765   0.118   2.453  0.5800  1.3603  1.6039
  655SOL     OW 1963   0.645   2.402   1.083  0.3196  0.1801 -0.2096
  655SOL    HW1 1964   0.650   2.301   1.110  3.1582 -0.9709  0.0242
  655SOL    HW2 1965   0.563   2.430   1.033 -0.7945 -0.2431  1.3762
  656SOL     OW 1966   0.255   0.450   1.736 -0.3883  0.0462 -0.2587
  656SOL    HW1 1967   0.150   0.441   1.753 -3.2505  1.6665  0.0772
  656SOL    HW2 1968   0.285   0.394   1.653  0.5370 -0.8680 -0.4650
  657SOL     OW 1969   2.382   0.745   2.111  0.1982 -0.1076  0.6528
  657SOL    HW1 1970   2.474   0.749   2.158  1.7905 -2.1848 -1.2432
  657SOL    HW2 1971   2.315   0.717   2.180  2.5769  0.5515  2.2338
  658SOL     OW 1972   2.312   1.454   1.101  0.4497  0.0665  0.5233
  658SOL    HW1 1973   2.377   1.497   1.158  2.2017  0.0686 -2.3491
  658SOL    HW2 1974   2.289   1.511   1.023  0.4133 -2.5745 -2.3248
  659SOL     OW 1975   2.505   0.016   2.830 -0.1591  0.4221 -0.8861
  659SOL    HW1 1976   2.425   3.116   2.879  1.2802 -0.1744 -0.3956
  659SOL    HW2 1977   2.546   0.093   2.885  1.1096 -1.6463 -0.5104
  660SOL     OW 1978   1.265   1.422   3.062  0.0240  0.0359  0.2951
  660SOL    HW1 1979   1.274   1.437   0.022  1.1915  0.2351 -1.7428
  660SOL    HW2 1980   1.307   1.332   3.033  1.5630 -2.3106  1.2435
  661SOL     OW 1981   2.833   2.523   0.802 -0.3083  0.5085  0.3019
  661SOL    HW1 1982   2.810   2.435   0.840  1.1179 -0.0589 -0.2622
  661SOL    HW2 1983   2.768   2.600   0.831  0.0556  2.5367 -0.9135
  662SOL     OW 1984   0.624   0.751   0.144 -0.5666  0.0155 -0.8576
  662SOL    HW1 1985   0.724   0.744   0.119  1.9551  0.2263 -1.3718
  662SOL    HW2 1986   0.617   0.805   0.231  1.6438 -2.5403  0.8097
  663SOL     OW 1987   1.313   2.282   0.199  0.0601  0.2537 -0.0134
  663SOL    HW1 1988   1.383   2.352   0.219  2.2698 -0.0758  0.0721
  663SOL    HW2 1989   1.272   2.247   0.285 -0.8033 -0.4511 -1.5052
  664SOL     OW 1990   0.706   2.329   1.645  0.4875  0.7011  0.0470
  664SOL    HW1 1991   0.634   2.396   1.610 -0.3369  0.9170  0.7100
  664SOL    HW2 1992   0.680   2.233   1.623  2.3701 -1.1897  1.0047
  665SOL     OW 1993   2.264   2.065   1.850 -0.4615 -0.1242  0.1752
  665SOL    HW1 1994   2.224   2.156   1.840 -1.6413 -1.1766 -0.3538
  665SOL    HW2 1995   2.224   2.001   1.778 -1.9702  1.7581  0.0492
  666SOL     OW 1996   0.558   2.766   0.269  0.5488 -0.0394  0.1947
  666SOL    HW1 1997   0.575   2.849   0.326 -1.1221 -0.2254 -0.4694
  666SOL    HW2 1998   0.500   2.792   0.191 -1.5774 -2.3610  0.4898
  667SOL     OW 1999   2.253   1.624   1.848 -0.2444 -0.0449  0.3384
  667SOL    HW1 2000   2.194   1.542   1.841 -1.7928 -2.0377 -1.1471
  667SOL    HW2 2001   2.202   1.701   1.894 -2.5983 -0.4686  1.6281
  668SOL     OW 2002   0.343   0.890   2.360  0.2077 -0.3386 -0.2158
  668SOL    HW1 2003   0.392   0.968   2.318 -1.7027 -1.3711 -0.6509
  668SOL    HW2 2004   0.247   0.913   2.345 -0.0468  3.4409  0.9560
  669SOL     OW 2005   1.981   2.101   2.368  0.4737  0.4519  0.3082
  669SOL    HW1 2006   1.907   2.084   2.304 -0.6715  0.8585 -2.1269
  669SOL    HW2 2007   2.046   2.021   2.357 -0.6454 -1.0461 -0.4357
  670SOL     OW 2008   2.330   2.256   3.080  0.1840  0.3586  0.2525
  670SOL    HW1 2009   2.319   2.169   3.022  0.5940 -2.7002  2.3815
  670SOL    HW2 2010   2.242   2.308   3.085 -1.1706  0.5892 -0.1689
  671SOL     OW 2011   0.830   1.179   1.161 -0.3514  0.2785 -0.0798
  671SOL    HW1 2012   0.822   1.260   1.220 -0.6673  1.4506 -0.3837
  671SOL    HW2 2013   0.854   1.095   1.212  1.2220  0.5055  2.1454
  672SOL     OW 2014   2.687   0.997   2.374  0.2245  0.2869 -0.2095
  672SOL    HW1 2015   2.769   1.045   2.340  0.6870  1.1117  1.6511
  672SOL    HW2 2016   2.694   0.998   2.478  2.1798  1.7726  2.8982
  673SOL     OW 2017   2.642   2.197   2.368 -1.3714 -0.2350 -0.6330
  673SOL    HW1 2018   2.638   2.103   2.329 -0.2932  1.7529  0.9649
  673SOL    HW2 2019   2.713   2.203   2.444  1.2038  1.9139 -1.4325
  674SOL     OW 2020   0.996   2.915   2.195  0.1021 -0.9203 -0.1307
  674SOL    HW1 2021   0.997   2.993   2.262  0.0782 -3.5032 -3.8724
  674SOL    HW2 2022   1.043   2.828   2.227 -0.9497 -0.6704  2.0369
  675SOL     OW 2023   0.908   1.034   1.496  0.2179  0.8410  0.2726
  675SOL    HW1 2024   0.968   0.966   1.541 -2.2862  0.4727  0.0928
  675SOL    HW2 2025   0.918   1.123   1.536 -0.3860 -1.9566 -1.7677
  676SOL     OW 2026   1.964   0.970   0.428 -0.3326  0.7553 -0.0696
  676SOL    HW1 2027   1.869   0.944   0.400  0.2397 -0.1145 -0.0821
  676SOL    HW2 2028   2.030   0.893   0.414  1.4853 -2.7154 -1.9198
  677SOL     OW 2029   2.863   1.708   2.936  0.2505  0.0697  0.4512
  677SOL    HW1 2030   2.837   1.640   2.865 -0.6723 -2.2437  0.8106
  677SOL    HW2 2031   2.966   1.702   2.945  0.2651  1.4532  1.2206
  678SOL     OW 2032   2.957   2.343   1.328  0.9718  0.8375  0.0543
  678SOL    HW1 2033   2.928   2.343   1.233  0.5648 -1.3004 -1.0857
  678SOL    HW2 2034   3.001   2.427   1.360  2.6786 -2.9958 -0.0925
  679SOL     OW 2035   1.990   2.438   0.582  0.1229  0.0483 -0.5474
  679SOL    HW1 2036   1.983   2.365   0.650  0.9031  2.8211 -2.1537
  679SOL    HW2 2037   2.040   2.513   0.624  1.1490  0.4248 -1.6160
  680SOL     OW 2038   0.451   2.555   2.448 -0.1182  0.0670 -0.3541
  680SOL    HW1 2039   0.423   2.648   2.484 -2.1536  0.4893 -0.4479
  680SOL    HW2 2040   0.493   2.566   2.358 -3.3845 -2.8471  0.1368
  681SOL     OW 2041   3.110   1.238   1.457 -0.1087 -0.0043  0.4896
  681SOL    HW1 2042   0.024   1.319   1.434 -0.9742  0.7364  2.0311
  681SOL    HW2 2043   3.026   1.267   1.508 -0.8227 -0.8068 -2.3852
  682SOL     OW 2044   0.406   1.937   1.314  0.1565 -0.2821 -0.1033
  682SOL    HW1 2045   0.402   2.019   1.378  0.5571 -0.5323  0.9130
  682SOL    HW2 2046   0.497   1.895   1.333  2.1147  1.3749  1.2461
  683SOL     OW 2047   2.613   1.255   1.522 -0.0135  0.4786  0.0700
  683SOL    HW1 2048   2.632   1.270   1.424  1.2213 -0.8486  1.2844
  683SOL    HW2 2049   2.589   1.346   1.558  1.1141  1.1202  0.2040
  684SOL     OW 2050   2.785   1.584   0.047  0.3519 -0.2108  0.3447
  684SOL    HW1 2051   2.851   1.525   0.098 -1.8613 -0.3600 -0.0840
  684SOL    HW2 2052   2.824   1.627   3.102  3.1764  3.8295 -0.6385
  685SOL     OW 2053   0.952   1.008   0.167 -0.5262  0.2219  0.3034
  685SOL    HW1 2054   0.898   1.054   0.094  0.3220  1.3254  0.2965
  685SOL    HW2 2055   1.054   1.014   0.154 -2.2336 -0.5234 -0.1787
  686SOL     OW 2056   0.140   0.292   1.166  0.3767 -0.4231 -0.2239
  686SOL    HW1 2057   0.204   0.211   1.173 -1.9872 -1.6587 -0.9860
  686SOL    HW2 2058   0.079   0.289   1.082 -0.0878  1.1600  1.8976
  687SOL     OW 2059   1.047   1.334   2.413 -0.1412 -0.1576  0.3233
  687SOL    HW1 2060   1.010   1.251   2.374 -1.2870 -0.0611 -0.2305
  687SOL    HW2 2061   1.096   1.319   2.505  2.1750  1.5094  3.3900
  688SOL     OW 2062   0.617   1.769   1.414 -0.3565  0.4648  0.1031
  688SOL    HW1 2063   0.700   1.816   1.379  1.4379  0.5120 -1.2145
  688SOL    HW2 2064   0.609   1.790   1.512 -0.9216  0.0354  1.3682
  689SOL     OW 2065   1.473   0.911   1.186  0.0746 -0.2105 -0.6563
  689SOL    HW1 2066   1.498   0.954   1.273 -0.3353 -0.6793 -0.7331
  689SOL    HW2 2067   1.449   0.813   1.203 -0.8028 -0.2056 -2.6374
  690SOL     OW 2068   2.816   0.893   1.286  0.2920  0.3244  0.1630
  690SOL    HW1 2069   2.849   0.988   1.279 -5.0217 -2.7597  0.6543
  690SOL    HW2 2070   2.891   0.831   1.284 -0.6614  0.5969  1.5866
  691SOL     OW 2071   0.169   2.141   1.914 -0.3282 -0.1522 -0.4117
  691SOL    HW1 2072   0.164   2.194   2.000 -1.9682 -0.4109 -0.3550
  691SOL    HW2 2073   0.078   2.109   1.888 -0.6299 -0.5069  1.3772
  692SOL     OW 2074   1.763   3.046   1.004  0.4462 -0.5162  0.1075
  692SOL    HW1 2075   1.820   2.983   1.055 -0.4152  0.9476  0.3519
  692SOL    HW2 2076   1.673   3.062   1.043  1.6462  1.6917 -0.5772
  693SOL     OW 2077   0.032   1.673   2.512 -0.7920  0.2887 -0.2249
  693SOL    HW1 2078   0.046   1.765   2.558  0.4832  0.3146 -0.0285
  693SOL    HW2 2079   3.077   1.660   2.494  2.6902 -0.1746  1.9944
  694SOL     OW 2080   2.269   0.659   1.017  0.3164  0.2835 -1.2082
  694SOL    HW1 2081   2.310   0.695   1.103 -0.9574 -0.9584 -0.9476
  694SOL    HW2 2082   2.252   0.733   0.948  0.0040 -1.4092 -4.1017
  695SOL     OW 2083   1.136   1.235   1.516 -0.0535  0.3328  0.0669
  695SOL    HW1 2084   1.050   1.288   1.501 -1.7164  3.1671 -0.0525
  695SOL    HW2 2085   1.171   1.198   1.426 -0.3553  0.7785 -2.8551
  696SOL     OW 2086   1.580   3.128   0.561  0.1139  0.3262  0.1067
  696SOL    HW1 2087   1.545   0.053   0.627 -2.0273  0.5109 -1.8110
  696SOL    HW2 2088   1.607   0.035   0.475  0.7400  0.6997 -0.6808
  697SOL     OW 2089   0.717   0.103   0.997  0.2621  0.2738 -0.3221
  697SOL    HW1 2090   0.680   0.144   0.913  1.0988 -0.2480  0.8869
  697SOL    HW2 2091   0.821   0.092   0.989 -0.4048  3.8273  0.4141
  698SOL     OW 2092   1.701   1.582   2.636  0.2591  0.3223 -0.1806
  698SOL    HW1 2093   1.611   1.545   2.604  1.6493 -2.5844 -1.0667
  698SOL    HW2 2094   1.777   1.519   2.597  1.5889 -0.5824 -1.9440
  699SOL     OW 2095   1.274   1.024   1.038 -0.3249  0.3975 -0.1484
  699SOL    HW1 2096   1.267   1.012   0.938  0.9509  0.4032  1.3098
  699SOL    HW2 2097   1.352   0.968   1.076  2.0710 -1.0090 -0.1622
  700SOL     OW 2098   1.194   3.096   0.389  0.1331 -0.4184 -0.2252
  700SOL    HW1 2099   1.150   3.044   0.311  2.1964 -2.3177  1.2441
  700SOL    HW2 2100   1.263   3.036   0.438 -0.6480 -2.0366 -1.7636
  701SOL     OW 2101   2.511   2.699   2.677 -0.4933  0.3176  0.2029
  701SOL    HW1 2102   2.460   2.738   2.753  0.9233 -1.5067 -1.0570
  701SOL    HW2 2103   2.608   2.732   2.675  0.2464  1.5787  3.0969
  702SOL     OW 2104   1.055   0.193   0.445  0.5408 -0.0188  0.4015
  702SOL    HW1 2105   1.115   0.114   0.420  0.4546  2.3334 -2.7725
  702SOL    HW2 2106   1.122   0.267   0.475  1.6574 -0.2891  2.0772
  703SOL     OW 2107   2.705   0.398   2.080 -0.0043  0.6307 -0.4872
  703SOL    HW1 2108   2.638   0.416   2.151  2.5919  1.1659 -1.2769
  703SOL    HW2 2109   2.666   0.411   1.984  0.9049 -2.0832  0.8656
  704SOL     OW 2110   2.939   1.875   0.787  0.2467  0.1775 -0.1995
  704SOL    HW1 2111   2.957   1.896   0.694 -1.2855 -2.5445  2.8063
  704SOL    HW2 2112   2.999   1.936   0.847  1.0729  0.3051  0.0389
  705SOL     OW 2113   2.972   2.928   2.253 -0.0303 -0.3649  0.3583
  705SOL    HW1 2114   2.984   2.991   2.174  1.3413  2.9202  2.5267
  705SOL    HW2 2115   2.878   2.926   2.289 -1.3672 -1.5656 -3.6475
  706SOL     OW 2116   2.422   2.384   0.791 -0.6281 -0.7035  0.5429
  706SOL    HW1 2117   2.426   2.330   0.705 -2.8779 -0.4383  1.8800
  706SOL    HW2 2118   2.361   2.333   0.856  0.0721  1.0281 -1.5504
  707SOL     OW 2119   0.957   2.352   1.702  0.5779 -0.0174  0.0894
  707SOL    HW1 2120   0.862   2.351   1.665  1.4935  0.6198  0.4297
  707SOL    HW2 2121   1.015   2.417   1.649  0.7792 -1.5671 -0.2305
  708SOL     OW 2122   0.169   2.711   2.264  0.5038  0.1393  0.6147
  708SOL    HW1 2123   0.203   2.756   2.181  2.2436  1.5722 -0.0668
  708SOL    HW2 2124   0.240   2.708   2.333 -0.1727  0.2809  1.3617
  709SOL     OW 2125   2.064   2.938   2.027 -0.2060 -0.3117  0.1421
  709SOL    HW1 2126   2.155   2.897   1.999  1.2731 -1.1494  0.2194
  709SOL    HW2 2127   2.001   2.952   1.945 -1.3724 -0.1217 -1.8222
  710SOL     OW 2128   1.850   0.717   2.677  0.1934 -0.2212  0.5930
  710SOL    HW1 2129   1.912   0.682   2.607  0.7258  1.4562  0.9974
  710SOL    HW2 2130   1.835   0.816   2.664  2.0234  0.6840 -2.2508
  711SOL     OW 2131   0.888   1.850   0.028 -0.2343 -0.4575 -0.3372
  711SOL    HW1 2132   0.962   1.881   0.087 -1.6322  0.3182 -3.5786
  711SOL    HW2 2133   0.910   1.867   3.074 -1.1780  2.3532  0.7962
  712SOL     OW 2134   0.624   2.469   2.674  0.0810  0.3453  0.1679
  712SOL    HW1 2135   0.715   2.452   2.631 -1.3662  1.0936  0.4105
  712SOL    HW2 2136   0.555   2.491   2.602  0.1882  0.2591  1.6209
  713SOL     OW 2137   1.555   1.572   3.112 -0.5232 -0.1617  0.3970
  713SOL    HW1 2138   1.547   1.636   3.039  2.3880 -2.0368  3.1458
  713SOL    HW2 2139   1.611   1.616   0.045  1.0943 -0.3857 -4.3737
  714SOL     OW 2140   1.089   1.546   1.634  0.4250  0.0995 -0.4274
  714SOL    HW1 2141   1.081   1.639   1.595 -1.9881  2.1754 -4.1460
  714SOL    HW2 2142   1.183   1.512   1.640 -0.2103  0.9717 -1.2673
  715SOL     OW 2143   1.759   0.336   2.847  0.3072 -0.2839  0.2402
  715SOL    HW1 2144   1.734   0.412   2.785 -0.0031 -1.2129  3.1306
  715SOL    HW2 2145   1.853   0.340   2.882 -0.6528  2.2198 -2.2603
  716SOL     OW 2146   2.923   2.499   2.468  0.3341 -0.1927  0.3716
  716SOL    HW1 2147   2.990   2.438   2.420  2.1218 -1.4320 -1.5939
  716SOL    HW2 2148   2.975   2.588   2.478  1.2523  0.1568  1.6065
  717SOL     OW 2149   2.861   0.517   1.128  0.3257  0.1726  1.2597
  717SOL    HW1 2150   2.916   0.601   1.156 -1.4359 -0.1727  0.4610
  717SOL    HW2 2151   2.834   0.462   1.207 -0.7689 -0.0368 -0.3248
  718SOL     OW 2152   0.815   1.381   2.699  0.7479 -0.4370  0.3964
  718SOL    HW1 2153   0.712   1.395   2.708  1.1039  1.7103  3.1798
  718SOL    HW2 2154   0.860   1.458   2.640  0.8941 -0.9703 -0.3740
  719SOL     OW 2155   1.953   0.986   3.006  0.5736  0.1192  0.3201
  719SOL    HW1 2156   1.938   0.888   3.027 -0.3387  0.9404 -0.7521
  719SOL    HW2 2157   2.053   1.001   2.990  0.5144 -0.2186 -3.1033
  720SOL     OW 2158   0.901   0.569   0.824 -0.1822 -0.0124 -0.0211
  720SOL    HW1 2159   0.932   0.506   0.897  0.9920 -1.2494 -1.0380
  720SOL    HW2 2160   0.822   0.530   0.770 -0.0131 -1.5454 -0.6546
  721SOL     OW 2161   2.602   0.006   0.840  0.0124 -0.1445 -0.1599
  721SOL    HW1 2162   2.603   0.104   0.875  0.0482  1.3786  2.0379
  721SOL    HW2 2163   2.608   0.009   0.737  1.6396 -0.5911  0.2371
  722SOL     OW 2164   2.268   0.708   2.618  0.5837  0.2567 -0.4480
  722SOL    HW1 2165   2.197   0.657   2.675 -1.6657  1.1527  2.3531
  722SOL    HW2 2166   2.355   0.708   2.669 -2.3260 -0.5089  1.3650
  723SOL     OW 2167   2.392   0.160   0.498 -0.0235 -0.2003  0.4761
  723SOL    HW1 2168   2.325   0.111   0.437  2.9402 -2.1393 -3.0333
  723SOL    HW2 2169   2.437   0.238   0.450 -3.4543  0.9239  1.4010
  724SOL     OW 2170   0.874   1.524   2.097  0.3303 -0.3185  0.3767
  724SOL    HW1 2171   0.815   1.443   2.108  0.8398  1.1114  4.0599
  724SOL    HW2 2172   0.853   1.568   2.005 -1.2437  0.5307 -1.2540
  725SOL     OW 2173   1.774   0.337   1.267 -0.1021  0.0466 -0.6081
  725SOL    HW1 2174   1.841   0.405   1.300  3.0421  1.2868 -0.9837
  725SOL    HW2 2175   1.825   0.287   1.193  2.5980  0.9619  1.4914
  726SOL     OW 2176   1.833   2.624   0.148 -0.3787 -0.6431 -0.4852
  726SOL    HW1 2177   1.752   2.657   0.203 -0.4752  3.6420 -2.4905
  726SOL    HW2 2178   1.850   2.520   0.150  1.0222 -0.3614 -0.3531
  727SOL     OW 2179   1.698   1.559   1.646  0.4650 -0.0983  0.4017
  727SOL    HW1 2180   1.665   1.460   1.650 -1.8472 -3.1288 -1.0233
  727SOL    HW2 2181   1.694   1.586   1.549  1.1958 -1.5254  1.8312
  728SOL     OW 2182   2.297   2.483   1.583  0.0695  0.4199 -0.4024
  728SOL    HW1 2183   2.203   2.498   1.546  0.3051 -0.9968  1.4237
  728SOL    HW2 2184   2.314   2.529   1.674  0.9074 -1.3285 -0.4790
  729SOL     OW 2185   2.245   1.623   0.867  0.1399  0.5229 -0.0980
  729SOL    HW1 2186   2.169   1.669   0.815 -1.8505  1.9701  1.7021
  729SOL    HW2 2187   2.322   1.604   0.803 -1.2977 -0.3838  0.7930
  730SOL     OW 2188   0.862   0.787   2.762 -0.4377 -0.2411 -0.0419
  730SOL    HW1 2189   0.763   0.816   2.774 -1.2917 -0.9447  0.1302
  730SOL    HW2 2190   0.924   0.821   2.836 -0.2356  1.1546 -0.6115
  731SOL     OW 2191   0.272   0.034   0.785 -0.0373  0.1634  0.3501
  731SOL    HW1 2192   0.314   0.104   0.720  1.1519  0.1643 -1.1861
  731SOL    HW2 2193   0.328   0.025   0.872 -2.5736 -0.5187 -1.3572
  732SOL     OW 2194   1.390   0.736   0.416  0.2919  0.2713 -0.3130
  732SOL    HW1 2195   1.332   0.707   0.340 -1.2810 -0.5375  2.1384
  732SOL    HW2 2196   1.374   0.680   0.500 -0.2356 -2.2730 -1.7956
  733SOL     OW 2197   0.627   2.144   1.183  0.4698  0.0065 -0.0864
  733SOL    HW1 2198   0.715   2.130   1.241 -1.6256 -0.7384  2.3205
  733SOL    HW2 2199   0.621   2.083   1.098  3.2744 -1.1142 -0.4336
  734SOL     OW 2200   0.444   2.644   0.485  0.0292  0.2098 -0.1045
  734SOL    HW1 2201   0.480   2.663   0.392 -0.3326  1.6397  0.6934
  734SOL    HW2 2202   0.345   2.672   0.483 -0.6926 -2.6476 -3.0570
  735SOL     OW 2203   1.287   0.242   1.257  0.4272  0.7357  0.0156
  735SOL    HW1 2204   1.215   0.167   1.259 -0.7617 -3.6921  3.0788
  735SOL    HW2 2205   1.325   0.269   1.163  2.0182 -2.2864 -3.0006
  736SOL     OW 2206   2.107   2.400   3.009  0.0140  0.1353  0.1409
  736SOL    HW1 2207   2.075   2.493   3.037  2.2000  0.9550 -2.1177
  736SOL    HW2 2208   2.037   2.363   2.947 -0.2182  0.1584  0.1734
  737SOL     OW 2209   0.056   0.913   0.947  0.1513  0.6538  0.0946
  737SOL    HW1 2210   0.029   1.006   0.982  0.0543 -0.1823  2.3303
  737SOL    HW2 2211   0.018   0.890   0.860  0.8131  0.7654 -0.4505
  738SOL     OW 2212   2.674   2.864   2.016 -0.5128 -0.1213 -0.2243
  738SOL    HW1 2213   2.724   2.787   1.968  2.8772  3.7705 -1.3477
  738SOL    HW2 2214   2.666   2.846   2.116  3.1280 -0.2277  2.4852
  739SOL     OW 2215   1.266   2.293   3.066 -0.2488 -0.1931 -0.6656
  739SOL    HW1 2216   1.280   2.195   3.029  0.0244 -1.1968 -0.7683
  739SOL    HW2 2217   1.283   2.289   0.027  0.0574 -1.8527  1.5938
  740SOL     OW 2218   1.450   0.370   1.071 -0.0000 -0.1062 -0.0513
  740SOL    HW1 2219   1.501   0.421   1.144 -0.2807 -1.8062  0.1937
  740SOL    HW2 2220   1.511   0.326   0.999  0.6987  0.8456 -2.1373
  741SOL     OW 2221   2.815   0.675   0.637 -0.3512  0.2589 -0.0451
  741SOL    HW1 2222   2.876   0.620   0.573  3.0520 -0.9217 -2.4240
  741SOL    HW2 2223   2.799   0.622   0.718  1.2108  0.9405 -2.2177
  742SOL     OW 2224   0.964   1.224   2.876 -0.3115  0.4545 -0.6907
  742SOL    HW1 2225   0.980   1.286   2.957  0.2212  1.3814  2.2338
  742SOL    HW2 2226   0.904   1.266   2.805 -0.6828 -0.7001 -0.3594
  743SOL     OW 2227   0.962   0.725   1.985 -0.2566  0.0551  0.2491
  743SOL    HW1 2228   0.953   0.653   2.056 -1.4492  0.9310  2.5712
  743SOL    HW2 2229   0.943   0.815   2.028  0.9815 -0.2176  1.1306
  744SOL     OW 2230   1.982   0.486   1.349  0.0331  0.4080 -0.0219
  744SOL    HW1 2231   2.004   0.508   1.253  1.5373 -2.3366  0.2147
  744SOL    HW2 2232   2.022   0.400   1.372 -0.9732  1.9207  4.3331
  745SOL     OW 2233   1.661   1.256   1.436  0.0978 -0.1899  0.1941
  745SOL    HW1 2234   1.662   1.307   1.342  0.5680 -1.2674 -1.9908
  745SOL    HW2 2235   1.756   1.252   1.473 -1.8864  0.5885  1.1096
  746SOL     OW 2236   2.310   1.185   0.966  0.2450  0.2192 -0.2236
  746SOL    HW1 2237   2.297   1.280   0.984 -0.0723 -2.8272  1.4031
  746SOL    HW2 2238   2.230   1.142   0.921 -0.0864 -2.5621 -0.3805
  747SOL     OW 2239   2.689   1.306   1.257 -0.1253  0.2552 -0.4008
  747SOL    HW1 2240   2.632   1.261   1.180  0.6769  0.9249 -1.8433
  747SOL    HW2 2241   2.720   1.398   1.231 -2.3310  1.5357 -1.2537
  748SOL     OW 2242   0.757   1.991   0.775  0.6471  0.2513  0.1218
  748SOL    HW1 2243   0.844   2.039   0.767  1.4538 -2.7176 -0.2839
  748SOL    HW2 2244   0.727   1.949   0.689  1.5112  3.0448 -1.3959
  749SOL     OW 2245   2.422   2.896   2.246 -0.5428 -0.3152 -0.3417
  749SOL    HW1 2246   2.445   2.809   2.295  0.4130  0.0117 -0.4418
  749SOL    HW2 2247   2.476   2.977   2.289  1.7261  0.4816 -1.6327
  750SOL     OW 2248   2.277   0.474   0.728  1.0029 -0.6416 -0.0785
  750SOL    HW1 2249   2.289   0.376   0.749 -1.0276  0.7527  2.2228
  750SOL    HW2 2250   2.183   0.506   0.761  0.1298  1.3524 -1.6548
  751SOL     OW 2251   2.347   2.728   0.512  0.1473 -0.5330  0.1672
  751SOL    HW1 2252   2.411   2.694   0.585 -0.2551  1.5150  2.5873
  751SOL    HW2 2253   2.316   2.647   0.456 -1.1886 -0.2306  0.9029
  752SOL     OW 2254   0.061   3.049   0.893  0.5591 -0.4314 -0.6988
  752SOL    HW1 2255   0.058   2.966   0.838  2.0087 -1.7416  1.2245
  752SOL    HW2 2256   0.137   3.103   0.863 -2.8509  0.6282 -1.2477
  753SOL     OW 2257   1.870   1.052   2.357  0.2443 -0.3960  0.2808
  753SOL    HW1 2258   1.792   1.106   2.315  1.6322  3.7742 -0.8748
  753SOL    HW2 2259   1.867   0.956   2.319  0.4913 -1.5768  0.3653
  754SOL     OW 2260   1.852   1.992   1.665  0.0730 -0.7447 -0.1191
  754SOL    HW1 2261   1.830   2.077   1.724 -3.0739  3.0846  2.9525
  754SOL    HW2 2262   1.782   1.991   1.583 -3.8459 -1.5357 -4.7077
  755SOL     OW 2263   2.744   0.892   0.961 -0.0932 -0.0393 -0.9265
  755SOL    HW1 2264   2.767   0.846   1.047  0.4729  0.0669 -1.9160
  755SOL    HW2 2265   2.651   0.933   0.960 -1.3562  1.7064  1.0966
  756SOL     OW 2266   1.008   1.399   3.069  0.5224 -0.4792  0.1839
  756SOL    HW1 2267   1.109   1.421   3.057 -0.6040  2.3436 -1.1090
  756SOL    HW2 2268   0.962   1.471   3.129 -1.8174  0.5592  0.8975
  757SOL     OW 2269   1.389   2.765   0.731  0.1010  0.0595 -0.1592
  757SOL    HW1 2270   1.391   2.834   0.804 -2.3917 -0.2011 -0.7852
  757SOL    HW2 2271   1.297   2.722   0.722 -0.2882 -0.0011  1.1363
  758SOL     OW 2272   1.272   2.784   1.469 -0.2070 -0.3549  0.3652
  758SOL    HW1 2273   1.363   2.810   1.512 -1.3373  3.6148  0.9169
  758SOL    HW2 2274   1.205   2.759   1.540  2.8812  0.1094 -0.9674
  759SOL     OW 2275   0.143   0.598   0.798  0.0417  0.0448  0.7680
  759SOL    HW1 2276   0.063   0.539   0.799  0.8102  1.1875 -0.4753
  759SOL    HW2 2277   0.122   0.685   0.742 -2.2705  0.4435 -1.8030
  760SOL     OW 2278   2.538   0.979   1.305 -0.0248 -0.4972 -0.3629
  760SOL    HW1 2279   2.638   0.968   1.321  1.0026 -2.7454 -0.1413
  760SOL    HW2 2280   2.487   0.975   1.397 -0.2208  0.3271 -1.3288
  761SOL     OW 2281   1.965   3.140   0.543  0.0602 -0.1358 -0.0062
  761SOL    HW1 2282   1.964   3.041   0.574  1.4837  4.3173 -1.7279
  761SOL    HW2 2283   1.996   0.055   0.620 -2.0384  2.4461  1.7549
  762SOL     OW 2284   2.186   1.741   3.112 -0.1299  0.2403 -0.4179
  762SOL    HW1 2285   2.203   1.657   0.029 -0.8496  0.9172 -0.4431
  762SOL    HW2 2286   2.273   1.798   3.103 -1.0563 -2.4722  1.3119
  763SOL     OW 2287   0.655   1.853   1.684  0.0596 -0.3549  0.4558
  763SOL    HW1 2288   0.757   1.849   1.691  2.6697 -1.4733  0.8768
  763SOL    HW2 2289   0.617   1.759   1.701 -0.1548  0.3458  0.2231
  764SOL     OW 2290   2.933   2.048   2.674  0.5389  0.1160 -0.2532
  764SOL    HW1 2291   2.928   2.054   2.777  2.0316  2.4495  4.6977
  764SOL    HW2 2292   2.898   2.136   2.644  0.4282 -2.7174  1.5778
  765SOL     OW 2293   0.560   2.807   1.197  0.0540  0.4929 -0.0438
  765SOL    HW1 2294   0.643   2.836   1.248  1.0420  0.1700  1.0388
  765SOL    HW2 2295   0.552   2.840   1.100  1.6751 -1.2048 -0.4191
  766SOL     OW 2296   3.126   2.322   2.396 -0.2803 -0.1259 -0.0330
  766SOL    HW1 2297   0.080   2.349   2.385 -1.9333  2.0048 -0.8899
  766SOL    HW2 2298   3.108   2.223   2.378  0.5836  0.0934 -2.1214
  767SOL     OW 2299   2.228   0.743   2.360 -0.5881 -0.5097 -0.6208
  767SOL    HW1 2300   2.226   0.840   2.329  0.7373 -0.0956 -0.3227
  767SOL    HW2 2301   2.253   0.737   2.459  0.1731  2.0217 -3.7222
  768SOL     OW 2302   1.548   0.251   2.602  0.1310 -0.8078  0.3171
  768SOL    HW1 2303   1.479   0.307   2.554 -2.2629 -0.3418  2.1509
  768SOL    HW2 2304   1.533   0.247   2.702  0.3759 -2.0361 -1.3362
  769SOL     OW 2305   2.988   2.709   0.952 -0.1599  0.2565 -0.2684
  769SOL    HW1 2306   2.949   2.625   0.914 -1.3423  1.8237 -0.5607
  769SOL    HW2 2307   3.008   2.705   1.053 -1.0249 -0.2976 -1.6825
  770SOL     OW 2308   0.636   0.272   2.870 -0.2088 -0.1136 -0.1477
  770SOL    HW1 2309   0.628   0.294   2.968 -0.6921  0.0437 -0.5229
  770SOL    HW2 2310   0.640   0.171   2.854  0.3295  1.4660  1.5014
  771SOL     OW 2311   1.379   1.753   2.347  0.4774  0.0518  0.5179
  771SOL    HW1 2312   1.479   1.734   2.322  0.7977 -1.5116  1.1697
  771SOL    HW2 2313   1.319   1.749   2.263  1.6507 -0.8647  1.9781
  772SOL     OW 2314   1.719   2.732   2.325 -0.1319 -0.3266 -0.2519
  772SOL    HW1 2315   1.698   2.781   2.410 -0.2745 -0.6857  1.2082
  772SOL    HW2 2316   1.762   2.784   2.252  0.7891 -2.8415  2.2582
  773SOL     OW 2317   1.694   0.836   1.449 -0.1325  0.3227 -0.0110
  773SOL    HW1 2318   1.626   0.905   1.436  1.4954  1.1824 -0.3635
  773SOL    HW2 2319   1.679   0.756   1.512 -0.6337  1.0697  0.7640
  774SOL     OW 2320   1.010   0.435   1.052  0.2747 -0.1841  0.4646
  774SOL    HW1 2321   1.105   0.467   1.064 -2.2458 -0.2017  2.4621
  774SOL    HW2 2322   0.967   0.434   1.148  1.6656  0.4179  0.4932
  775SOL     OW 2323   2.021   3.041   2.813  0.1844  0.1599  0.3081
  775SOL    HW1 2324   1.939   3.101   2.824 -0.3208 -0.2758 -0.2161
  775SOL    HW2 2325   2.019   2.998   2.723 -0.3941 -1.1994  1.2695
  776SOL     OW 2326   2.210   0.879   1.469 -0.3917 -0.1688 -0.1320
  776SOL    HW1 2327   2.108   0.886   1.461 -1.8298  0.0816 -0.7153
  776SOL    HW2 2328   2.234   0.842   1.560  2.9924  2.5649  1.2622
  777SOL     OW 2329   2.926   1.423   2.283  0.0170  0.4232  1.1149
  777SOL    HW1 2330   2.924   1.476   2.366  1.1093  1.3401 -1.9057
  777SOL    HW2 2331   2.908   1.324   2.304 -0.3353 -1.0637 -0.6872
  778SOL     OW 2332   2.773   1.097   2.646 -0.4260  0.3374  0.4781
  778SOL    HW1 2333   2.871   1.120   2.666  1.2195 -0.9401  0.6128
  778SOL    HW2 2334   2.708   1.166   2.673 -0.2390  0.0962  0.6116
  779SOL     OW 2335   2.966   0.796   3.065  0.1052  0.2985 -0.0985
  779SOL    HW1 2336   3.048   0.767   3.121  0.0187  0.6337 -0.3782
  779SOL    HW2 2337   2.926   0.711   3.023 -2.5063 -1.1674  1.3731
  780SOL     OW 2338   2.428   2.091   2.552  0.3757 -0.6136  0.4111
  780SOL    HW1 2339   2.505   2.132   2.498  1.2222  1.7079 -0.4476
  780SOL    HW2 2340   2.374   2.166   2.593  2.2759 -1.2329  0.1812
  781SOL     OW 2341   2.857   1.160   2.048 -0.2810  0.0994 -0.2643
  781SOL    HW1 2342   2.921   1.235   2.011  1.7583  0.6194 -5.2497
  781SOL    HW2 2343   2.863   1.078   1.988  1.4049  2.7018 -2.0861
  782SOL     OW 2344   1.156   2.084   2.614  0.1967 -0.3498 -0.5553
  782SOL    HW1 2345   1.230   2.022   2.573 -1.2896  1.6263 -0.8122
  782SOL    HW2 2346   1.195   2.167   2.658 -0.9185  1.5328  1.7993
  783SOL     OW 2347   1.065   2.479   1.155 -0.2036  0.0069 -0.2879
  783SOL    HW1 2348   1.101   2.385   1.165  0.2734 -1.1081 -0.7844
  783SOL    HW2 2349   1.133   2.543   1.116  2.7228 -0.6025  1.3598
  784SOL     OW 2350   1.972   0.631   2.453  0.1281 -0.1575 -0.2568
  784SOL    HW1 2351   1.963   0.532   2.472 -1.6830 -0.4445  1.2959
  784SOL    HW2 2352   2.069   0.655   2.428 -1.6428 -2.3569 -1.5176
  785SOL     OW 2353   0.137   0.189   1.587 -0.2319  0.2346 -0.2566
  785SOL    HW1 2354   0.100   0.253   1.654 -0.3477 -0.8730  1.6891
  785SOL    HW2 2355   0.063   0.137   1.545  0.0118  1.1068 -1.4980
  786SOL     OW 2356   1.223   2.108   0.459  0.3818 -0.2981 -0.5487
  786SOL    HW1 2357   1.126   2.141   0.467  0.0808  0.7801  1.1446
  786SOL    HW2 2358   1.284   2.157   0.528  2.3221 -0.3788 -1.7266
  787SOL     OW 2359   1.215   0.029   0.865  0.8889 -0.0074 -0.4243
  787SOL    HW1 2360   1.160   0.034   0.780 -0.0315  1.6859 -0.8746
  787SOL    HW2 2361   1.158   0.068   0.936 -0.3395 -0.9127 -2.6121
  788SOL     OW 2362   0.053   1.280   0.877  1.1756 -0.6915 -0.6142
  788SOL    HW1 2363   0.040   1.383   0.876 -1.6663  1.4059 -0.6791
  788SOL    HW2 2364   0.135   1.253   0.827 -1.5686  1.5673  1.1674
  789SOL     OW 2365   2.486   1.156   2.280  0.4119 -0.5119 -0.1119
  789SOL    HW1 2366   2.393   1.131   2.316 -1.5500 -0.0937  2.1456
  789SOL    HW2 2367   2.554   1.094   2.323 -3.2924  2.8101 -0.5259
  790SOL     OW 2368   1.044   0.287   2.792 -0.5246  0.1925 -0.4045
  790SOL    HW1 2369   0.958   0.312   2.747  2.0248 -0.5615  1.2859
  790SOL    HW2 2370   1.027   0.223   2.874  1.1296 -3.4192  3.6082
  791SOL     OW 2371   0.063   3.081   0.061 -0.2470  0.1319  0.3711
  791SOL    HW1 2372   0.106   3.117   3.114  0.3867  1.2958 -0.5487
  791SOL    HW2 2373   0.114   3.113   0.143 -0.3513 -2.4008 -0.2921
  792SOL     OW 2374   1.665   0.981   1.812  0.4518  0.2206  0.2493
  792SOL    HW1 2375   1.630   0.984   1.905 -0.6683 -0.4356  1.1447
  792SOL    HW2 2376   1.591   0.953   1.746  4.2188  0.8764 -1.2410
  793SOL     OW 2377   2.823   0.181   1.130  0.0008 -0.5245  0.1457
  793SOL    HW1 2378   2.886   0.238   1.071 -0.3724  0.2127 -0.5286
  793SOL    HW2 2379   2.748   0.240   1.168  1.2803  2.9712 -1.1309
  794SOL     OW 2380   0.328   0.111   2.322 -0.4912  0.0251  0.3846
  794SOL    HW1 2381   0.409   0.078   2.268  0.1799 -0.8184  0.6638
  794SOL    HW2 2382   0.282   0.178   2.261  0.1194  0.4687 -2.1728
  795SOL     OW 2383   0.539   1.543   0.378 -0.3204 -0.3910  0.2573
  795SOL    HW1 2384   0.502   1.571   0.469 -0.7699 -0.2624 -1.0578
  795SOL    HW2 2385   0.523   1.617   0.310  2.3196  0.0483  1.8064
  796SOL     OW 2386   3.099   1.073   2.950 -0.0278 -0.1496  0.0204
  796SOL    HW1 2387   3.012   1.043   2.998  1.9722 -0.9816 -0.8345
  796SOL    HW2 2388   0.037   1.055   3.016 -1.1347 -1.6136 -1.1522
  797SOL     OW 2389   2.051   0.049   2.362  0.0568 -0.9352 -0.5983
  797SOL    HW1 2390   2.101   3.109   2.329  1.2605  1.4928  0.6645
  797SOL    HW2 2391   2.060   0.132   2.298  2.9342  0.0897 -2.8273
  798SOL     OW 2392   0.125   2.942   1.139  0.0129 -0.3850 -0.3113
  798SOL    HW1 2393   0.094   2.968   1.047  0.4027  1.5679  0.1300
  798SOL    HW2 2394   0.055   2.882   1.180 -1.6115 -2.1473 -0.7508
  799SOL     OW 2395   2.922   0.925   1.898  0.2577  0.1023 -0.0105
  799SOL    HW1 2396   2.964   0.929   1.804  0.0531 -0.3956  0.4772
  799SOL    HW2 2397   2.820   0.906   1.893 -1.0257  0.9280  2.3778
  800SOL     OW 2398   0.121   1.371   0.286 -0.7452 -0.1757  0.5341
  800SOL    HW1 2399   0.092   1.462   0.326 -1.1073  3.6966 -1.6665
  800SOL    HW2 2400   0.218   1.378   0.242  1.7352 -0.0350 -1.2341
  801SOL     OW 2401   2.107   1.600   0.370 -0.2763 -0.3414 -0.0469
  801SOL    HW1 2402   2.057   1.520   0.328  0.9674  0.3886  0.1015
  801SOL    HW2 2403   2.077   1.619   0.465 -0.7330  1.4007 -0.1945
  802SOL     OW 2404   1.399   1.001   2.817  0.0548 -0.0109  0.2877
  802SOL    HW1 2405   1.354   1.041   2.732 -1.7389 -0.9791 -0.0892
  802SOL    HW2 2406   1.447   0.913   2.797 -1.2969 -0.9809 -1.9270
  803SOL     OW 2407   1.017   2.102   1.797 -0.3281  0.2416 -0.0709
  803SOL    HW1 2408   0.979   2.184   1.750  0.2823 -0.5318 -0.6327
  803SOL    HW2 2409   1.118   2.103   1.800 -1.6313  0.4175  2.4214
  804SOL     OW 2410   1.446   2.392   0.885  0.1188 -0.3718 -0.5862
  804SOL    HW1 2411   1.478   2.304   0.854  0.6910 -2.1310  1.4839
  804SOL    HW2 2412   1.347   2.409   0.861  1.0969 -0.0638 -0.3781
  805SOL     OW 2413   2.828   2.274   2.593 -0.0389 -0.0950 -0.0549
  805SOL    HW1 2414   2.878   2.340   2.534  1.5088  1.4883 -0.9793
  805SOL    HW2 2415   2.782   2.306   2.679  0.4115  1.0252  2.5406
  806SOL     OW 2416   3.057   0.099   0.408 -0.0888 -0.4843  0.3969
  806SOL    HW1 2417   3.026   0.147   0.490  0.4088 -1.1078 -5.2269
  806SOL    HW2 2418   3.075   0.002   0.436  0.5678 -1.7173  1.1475
  807SOL     OW 2419   2.398   0.818   2.988  0.1475  0.4561  0.3170
  807SOL    HW1 2420   2.403   0.778   2.893  0.0185 -0.4635 -2.7707
  807SOL    HW2 2421   2.395   0.735   3.050  1.1890 -1.8080 -0.3082
  808SOL     OW 2422   1.190   2.414   0.816  0.9137 -0.0562  0.0901
  808SOL    HW1 2423   1.227   2.373   0.732  2.5957  1.0870  1.2224
  808SOL    HW2 2424   1.098   2.392   0.839  3.5959 -0.4206  1.8023
  809SOL     OW 2425   2.848   0.226   2.774  0.1441 -0.0591  0.0737
  809SOL    HW1 2426   2.863   0.128   2.744 -1.6401  0.4401  0.2735
  809SOL    HW2 2427   2.806   0.280   2.695  1.2506  1.0086  0.1777
  810SOL     OW 2428   1.601   1.080   0.777  0.0172  0.2332 -0.3070
  810SOL    HW1 2429   1.546   1.144   0.722 -1.2302 -1.0979 -0.2173
  810SOL    HW2 2430   1.616   1.120   0.870  0.7701  1.1628 -0.3013
  811SOL     OW 2431   1.884   2.880   1.640 -0.1033 -0.3453 -0.1322
  811SOL    HW1 2432   1.848   2.922   1.554 -1.6060  1.1564 -4.7285
  811SOL    HW2 2433   1.859   2.780   1.643  0.4709 -1.5458  0.3350
  812SOL     OW 2434   1.663   2.729   0.346  0.6177 -0.2333  0.0617
  812SOL    HW1 2435   1.706   2.671   0.420  1.9151 -1.0133 -0.7203
  812SOL    HW2 2436   1.566   2.729   0.333  2.6612  0.1461 -1.6295
  813SOL     OW 2437   1.288   0.637   2.046 -0.4822  0.5513 -0.2312
  813SOL    HW1 2438   1.223   0.700   2.007  1.6247 -0.3789  1.8127
  813SOL    HW2 2439   1.247   0.543   2.062  0.5829 -1.2559  0.8701
  814SOL     OW 2440   0.286   0.049   1.209  0.4241 -0.2675  0.3351
  814SOL    HW1 2441   0.215   3.118   1.186  0.6583  1.8179  1.1094
  814SOL    HW2 2442   0.352   0.028   1.284 -1.4960  0.4190  0.4469
  815SOL     OW 2443   0.290   3.048   0.511 -0.3779  0.0811 -0.0190
  815SOL    HW1 2444   0.376   2.994   0.493  0.8781 -1.1762  2.0154
  815SOL    HW2 2445   0.294   3.085   0.604  1.2684  1.0206  0.7216
  816SOL     OW 2446   2.634   1.573   2.796 -0.5320 -0.6754 -0.1199
  816SOL    HW1 2447   2.531   1.572   2.796  2.6138 -0.4229  0.0120
  816SOL    HW2 2448   2.665   1.622   2.710 -1.2857  1.9396 -0.7278
  817SOL     OW 2449   1.131   0.126   0.008  0.2228 -0.6554  0.3238
  817SOL    HW1 2450   1.162   0.201   0.068  0.9889 -0.6171 -1.6171
  817SOL    HW2 2451   1.187   0.103   3.066 -1.6649 -1.0827  0.6477
  818SOL     OW 2452   1.729   0.599   3.115 -0.2283 -0.6056  0.1098
  818SOL    HW1 2453   1.741   0.660   0.061  0.5002  0.2524  1.3407
  818SOL    HW2 2454   1.716   0.500   0.003  1.1180  0.6689 -1.9620
  819SOL     OW 2455   1.823   2.710   2.859 -0.5223  0.0294  0.2867
  819SOL    HW1 2456   1.886   2.684   2.784  1.5139  2.6464  0.6732
  819SOL    HW2 2457   1.832   2.807   2.877  1.4666 -1.8382 -0.5488
  820SOL     OW 2458   1.533   0.983   0.002 -0.3626 -0.5149  0.7098
  820SOL    HW1 2459   1.533   0.899   3.087 -2.3984 -0.3332 -1.1750
  820SOL    HW2 2460   1.625   0.999   0.042  1.4511 -3.1799  1.0737
  821SOL     OW 2461   0.417   0.793   1.444 -0.1690  0.2717 -0.5829
  821SOL    HW1 2462   0.413   0.895   1.419  2.8196  0.3933 -0.5639
  821SOL    HW2 2463   0.325   0.756   1.471 -0.6593  2.4152  0.5262
  822SOL     OW 2464   1.177   2.707   2.213  0.6200 -0.5224 -0.2288
  822SOL    HW1 2465   1.222   2.753   2.133  0.3839 -0.3198  0.7988
  822SOL    HW2 2466   1.163   2.604   2.197 -2.0297 -0.4393  0.8180
  823SOL     OW 2467   0.514   1.473   2.016  0.5222  0.3000  0.6631
  823SOL    HW1 2468   0.487   1.557   2.065  0.6390  3.6871 -4.1677
  823SOL    HW2 2469   0.600   1.439   2.061  1.4028  0.6404 -1.7189
  824SOL     OW 2470   1.862   3.024   1.870  0.4904 -0.4545 -0.2947
  824SOL    HW1 2471   1.857   2.971   1.782  1.5055 -0.5761  1.2411
  824SOL    HW2 2472   1.799   3.106   1.873 -1.1884 -0.5376 -2.3767
  825SOL     OW 2473   0.706   1.407   3.115  0.3153 -0.1555 -0.4202
  825SOL    HW1 2474   0.770   1.471   0.021  1.7912 -0.7584  1.3038
  825SOL    HW2 2475   0.733   1.313   0.005 -2.1118 -2.8783 -0.0041
  826SOL     OW 2476   2.091   0.522   2.709  0.1923  0.5580 -0.2153
  826SOL    HW1 2477   2.041   0.479   2.789 -1.8617 -3.7497  1.8564
  826SOL    HW2 2478   2.056   0.475   2.624 -0.0830  1.4519 -0.4660
  827SOL     OW 2479   0.512   2.386   2.922 -0.1291 -0.2139  0.0738
  827SOL    HW1 2480   0.569   2.412   2.844 -3.6692  1.6003  1.5858
  827SOL    HW2 2481   0.433   2.333   2.884  1.0664  0.6392  1.3345
  828SOL     OW 2482   3.070   0.164   1.306 -0.1180  0.9307 -0.0874
  828SOL    HW1 2483   0.010   0.216   1.276 -1.7226 -0.5507  1.2274
  828SOL    HW2 2484   3.011   0.146   1.229  0.4815 -0.1621  2.5635
  829SOL     OW 2485   1.329   1.381   1.262 -0.1647  0.1825 -0.9876
  829SOL    HW1 2486   1.347   1.452   1.333 -0.6653 -0.6165  1.9480
  829SOL    HW2 2487   1.283   1.419   1.184  0.5161 -1.1660 -0.3129
  830SOL     OW 2488   0.409   1.304   1.499  0.0379 -0.5692 -0.0254
  830SOL    HW1 2489   0.332   1.366   1.525 -1.3314  0.9403 -0.9442
  830SOL    HW2 2490   0.456   1.355   1.424  1.2158  1.7360 -0.1371
  831SOL     OW 2491   0.651   1.872   0.281  0.0790  0.2901  0.0328
  831SOL    HW1 2492   0.564   1.828   0.253 -0.3792 -1.4539  0.2390
  831SOL    HW2 2493   0.650   1.965   0.235 -4.3565  1.2180  0.8978
  832SOL     OW 2494   0.760   3.076   2.564  0.4243 -0.1365  0.8124
  832SOL    HW1 2495   0.770   3.114   2.656  0.0943 -1.0539  0.6193
  832SOL    HW2 2496   0.664   3.091   2.531 -0.1388  0.2418 -1.2134
  833SOL     OW 2497   0.202   0.656   2.016  0.0180  0.7004 -0.1698
  833SOL    HW1 2498   0.206   0.565   2.063 -3.3221 -0.5383 -2.3648
  833SOL    HW2 2499   0.123   0.709   2.052 -0.5118 -1.2168  1.9410
  834SOL     OW 2500   0.330   0.679   1.030 -0.1922 -0.4341 -0.0875
  834SOL    HW1 2501   0.392   0.754   1.059  0.3445  2.9554  0.6824
  834SOL    HW2 2502   0.241   0.707   0.991 -1.0737  0.0062 -0.3540
  835SOL     OW 2503   2.825   2.941   1.237 -0.0211  0.9811 -0.7178
  835SOL    HW1 2504   2.832   2.981   1.145 -0.9073 -1.1837  1.5687
  835SOL    HW2 2505   2.797   3.011   1.304 -3.0509 -0.1992  0.5732
  836SOL     OW 2506   0.528   2.119   3.053 -0.2797 -0.3685  0.4912
  836SOL    HW1 2507   0.554   2.106   0.008 -1.4773  1.9028 -0.8706
  836SOL    HW2 2508   0.514   2.219   3.040 -1.5436 -1.7299  0.7073
  837SOL     OW 2509   2.013   2.083   3.041  0.0181 -0.3263 -0.2075
  837SOL    HW1 2510   1.977   2.135   2.957 -0.4000  3.0438  1.1833
  837SOL    HW2 2511   2.111   2.070   3.043 -1.0249  2.5971  2.0592
  838SOL     OW 2512   2.587   1.181   2.027  0.3132 -0.3158  0.3376
  838SOL    HW1 2513   2.548   1.157   2.119 -1.3120 -0.5143 -1.0259
  838SOL    HW2 2514   2.690   1.176   2.034 -0.2384 -0.3079 -0.9817
  839SOL     OW 2515   1.220   1.101   0.551  0.3889  0.4939 -0.1993
  839SOL    HW1 2516   1.137   1.039   0.562  2.2180 -1.2747  1.8218
  839SOL    HW2 2517   1.191   1.173   0.485  0.5528 -1.2883  1.1965
  840SOL     OW 2518   1.765   0.561   0.973 -0.1972 -0.5711  0.4352
  840SOL    HW1 2519   1.703   0.569   0.891 -0.4348 -2.2880 -1.3494
  840SOL    HW2 2520   1.713   0.581   1.061  0.8361  0.5132 -0.4751
  841SOL     OW 2521   0.530   2.845   0.945 -0.0043  0.0709 -0.1649
  841SOL    HW1 2522   0.493   2.936   0.952  1.4336 -0.3251 -3.3105
  841SOL    HW2 2523   0.527   2.811   0.849 -1.8174  2.6019 -2.1080
  842SOL     OW 2524   0.542   0.634   0.527  0.1153 -0.0303 -0.2022
  842SOL    HW1 2525   0.479   0.594   0.599  0.5688 -1.6187  2.8645
  842SOL    HW2 2526   0.495   0.631   0.439  0.1472 -1.0082  0.8518
  843SOL     OW 2527   0.536   0.893   1.821 -0.0715 -0.2877  0.0683
  843SOL    HW1 2528   0.522   0.983   1.775 -0.8283  1.8010 -2.1774
  843SOL    HW2 2529   0.476   0.887   1.901  0.9535 -2.4588  2.8001
  844SOL     OW 2530   1.496   2.487   3.063 -0.4198  0.3113 -0.4453
  844SOL    HW1 2531   1.532   2.505   2.968  0.4552  1.3341  2.1211
  844SOL    HW2 2532   1.409   2.436   3.064  1.0421 -0.7149 -0.8933
  845SOL     OW 2533   2.685   2.597   2.331 -0.2890 -0.0456  0.4256
  845SOL    HW1 2534   2.766   2.565   2.387  2.5134 -1.7682 -2.0518
  845SOL    HW2 2535   2.699   2.576   2.230  0.0681  0.2226  0.3459
  846SOL     OW 2536   1.611   2.027   2.640 -0.0199  0.3818 -0.3552
  846SOL    HW1 2537   1.627   2.110   2.697 -0.9465 -0.3044 -0.1169
  846SOL    HW2 2538   1.655   1.946   2.688  1.1331 -0.8793 -0.5146
  847SOL     OW 2539   2.168   2.954   2.298 -0.1813 -0.1517  0.0686
  847SOL    HW1 2540   2.268   2.938   2.290 -0.3294  0.0689  2.1439
  847SOL    HW2 2541   2.116   2.922   2.217 -0.7645 -1.9980  1.4571
  848SOL     OW 2542   0.616   0.342   0.246  0.6219  0.3408  0.4184
  848SOL    HW1 2543   0.565   0.428   0.220 -1.0184 -1.1317  2.0566
  848SOL    HW2 2544   0.694   0.359   0.308  2.3206  0.6470 -0.0773
  849SOL     OW 2545   0.771   2.887   1.376 -0.7643  0.2128 -0.3515
  849SOL    HW1 2546   0.828   2.866   1.293 -0.3290 -0.3575  1.3102
  849SOL    HW2 2547   0.775   2.987   1.403  0.1188 -0.4360 -0.0193
  850SOL     OW 2548   0.129   1.623   0.421 -0.3619 -0.1611 -0.1690
  850SOL    HW1 2549   0.148   1.689   0.344 -0.2463 -2.0267 -2.0172
  850SOL    HW2 2550   0.052   1.649   0.479  0.3681 -1.3515 -3.0229
  851SOL     OW 2551   0.073   0.741   0.008  0.5257  0.1183 -0.2732
  851SOL    HW1 2552   0.103   0.837   0.011 -0.7531 -1.0187  0.7786
  851SOL    HW2 2553   0.113   0.693   3.066 -0.1346 -1.3766  0.1605
  852SOL     OW 2554   1.641   1.867   2.018  0.0013 -0.1186 -0.1251
  852SOL    HW1 2555   1.708   1.840   1.947 -0.7260 -2.2245  1.2316
  852SOL    HW2 2556   1.547   1.875   1.982  3.6046 -1.2704  0.8596
  853SOL     OW 2557   0.588   1.920   0.560  0.3796  0.6951 -0.6177
  853SOL    HW1 2558   0.609   1.911   0.462 -2.9239  1.3119 -0.3709
  853SOL    HW2 2559   0.492   1.966   0.565  0.1212 -0.0273  1.1239
  854SOL     OW 2560   1.976   1.238   1.502 -0.6687 -0.0217 -0.8143
  854SOL    HW1 2561   1.978   1.138   1.479 -0.2639 -2.9412 -2.4633
  854SOL    HW2 2562   2.044   1.283   1.445 -1.6342  1.4411  1.2245
  855SOL     OW 2563   0.604   2.138   0.191  0.5741  0.3108  0.3696
  855SOL    HW1 2564   0.509   2.171   0.215  0.6129  0.6680 -1.2116
  855SOL    HW2 2565   0.680   2.182   0.238 -3.2789 -1.5832 -1.2101
  856SOL     OW 2566   3.041   3.118   2.080  0.3579  0.0847 -0.0969
  856SOL    HW1 2567   3.058   0.059   2.136 -0.9802  1.4479 -0.1257
  856SOL    HW2 2568   3.123   3.075   2.044  0.1070 -0.6752 -1.0063
  857SOL     OW 2569   0.413   0.448   1.970  0.2927  0.9704 -0.1567
  857SOL    HW1 2570   0.335   0.434   1.904 -3.2906  0.2718 -1.4313
  857SOL    HW2 2571   0.497   0.435   1.916 -1.1602  2.1234  0.8665
  858SOL     OW 2572   2.606   1.952   2.277  0.0030 -0.7946  0.5729
  858SOL    HW1 2573   2.513   1.913   2.267 -0.0524  0.0632 -0.8323
  858SOL    HW2 2574   2.675   1.897   2.227 -1.4937  0.2998  0.2961
  859SOL     OW 2575   1.935   2.882   0.594  0.0701 -0.0833  0.2832
  859SOL    HW1 2576   1.847   2.893   0.645 -0.8444 -0.4267 -2.1269
  859SOL    HW2 2577   1.986   2.809   0.635 -3.4337 -0.9026 -1.6995
  860SOL     OW 2578   1.905   0.197   0.144  0.5091 -0.6378 -0.7429
  860SOL    HW1 2579   1.975   0.185   0.070 -0.6516  1.3148 -1.3574
  860SOL    HW2 2580   1.815   0.225   0.108 -1.5080  0.8802  0.8114
  861SOL     OW 2581   0.369   0.500   0.697  0.2322 -0.6433 -0.1939
  861SOL    HW1 2582   0.274   0.538   0.715 -2.7896 -0.6165  1.0903
  861SOL    HW2 2583   0.401   0.478   0.789 -3.7526  1.1003 -1.0837
  862SOL     OW 2584   1.928   0.599   1.604  0.3590 -0.8716 -0.5287
  862SOL    HW1 2585   1.887   0.511   1.633  0.2210  0.3484 -2.7234
  862SOL    HW2 2586   1.955   0.593   1.508 -0.7122  0.5031  3.7193
  863SOL     OW 2587   0.343   1.633   1.079 -0.1981  0.0972 -0.5251
  863SOL    HW1 2588   0.324   1.625   0.978 -0.8951 -1.3807 -1.1248
  863SOL    HW2 2589   0.437   1.667   1.101 -0.7915  0.5603  1.2391
  864SOL     OW 2590   2.632   3.139   1.987  0.0723 -0.3123 -0.0837
  864SOL    HW1 2591   2.705   0.040   1.928  2.0561  1.7065  1.7201
  864SOL    HW2 2592   2.638   3.037   2.006 -0.9155 -0.4750  3.1826
  865SOL     OW 2593   1.558   0.476   1.490  0.4773 -0.0986 -0.3903
  865SOL    HW1 2594   1.573   0.550   1.560  2.6095 -0.3552  2.8153
  865SOL    HW2 2595   1.469   0.432   1.514 -2.8474 -0.6910  2.0331
  866SOL     OW 2596   2.511   2.633   0.699  0.0697 -0.3658  0.4955
  866SOL    HW1 2597   2.576   2.681   0.759  2.3438  0.6746  2.3755
  866SOL    HW2 2598   2.484   2.539   0.734 -0.3122 -1.6898  0.8395
  867SOL     OW 2599   2.896   2.599   0.546  0.0611  0.3054  0.4896
  867SOL    HW1 2600   2.868   2.547   0.630 -1.1883  0.2551  0.3632
  867SOL    HW2 2601   2.924   2.694   0.573  0.6630  2.7732 -1.2550
  868SOL     OW 2602   1.361   1.922   2.557 -0.0499 -0.1090 -0.3234
  868SOL    HW1 2603   1.372   1.867   2.471  2.0399 -2.2550  3.4066
  868SOL    HW2 2604   1.453   1.947   2.595 -0.5147 -1.5748  1.6058
  869SOL     OW 2605   2.288   1.265   0.551  0.5070  0.0053  0.0925
  869SOL    HW1 2606   2.263   1.237   0.458  0.4197  0.8491  2.3615
  869SOL    HW2 2607   2.206   1.267   0.615  1.1285  2.2058  1.1254
  870SOL     OW 2608   2.483   1.765   0.473  0.2053  0.3466  0.1140
  870SOL    HW1 2609   2.399   1.821   0.469  0.4729 -1.4710  1.8274
  870SOL    HW2 2610   2.544   1.773   0.393 -0.8040  1.9620  1.1682
  871SOL     OW 2611   3.065   0.827   1.641 -0.1900  0.7741 -0.1086
  871SOL    HW1 2612   3.106   0.869   1.558  2.0002 -0.7990  1.1651
  871SOL    HW2 2613   3.127   0.760   1.681 -1.2897  0.4576 -0.5788
  872SOL     OW 2614   0.523   1.831   2.711  0.3008 -0.2286 -0.4614
  872SOL    HW1 2615   0.564   1.884   2.791 -1.1042  0.5055  1.5052
  872SOL    HW2 2616   0.452   1.769   2.750 -1.1538  0.5610  2.5694
  873SOL     OW 2617   0.411   2.710   1.805  0.3551  0.1342 -0.8508
  873SOL    HW1 2618   0.464   2.735   1.889  2.4811 -0.4574 -0.6708
  873SOL    HW2 2619   0.479   2.719   1.726 -1.4854  1.7394  0.2364
  874SOL     OW 2620   1.231   1.054   2.214 -0.5387 -0.0390 -0.0769
  874SOL    HW1 2621   1.167   1.060   2.292  0.6965  1.1293  0.5316
  874SOL    HW2 2622   1.289   0.967   2.223 -2.4430 -1.1382  1.9092
  875SOL     OW 2623   3.046   2.777   1.219  0.2857  0.6282 -0.1119
  875SOL    HW1 2624   3.075   2.720   1.300 -0.6654 -1.1111  1.8585
  875SOL    HW2 2625   2.972   2.843   1.243 -3.2533 -0.0552  3.4111
  876SOL     OW 2626   1.034   1.476   0.921 -0.1598  0.8085 -0.4815
  876SOL    HW1 2627   0.985   1.390   0.898  0.7941  3.2075  3.2475
  876SOL    HW2 2628   0.988   1.558   0.877 -2.6642  1.8479 -2.1782
  877SOL     OW 2629   0.661   0.460   1.309 -0.0296  0.7556 -0.0889
  877SOL    HW1 2630   0.627   0.463   1.401 -1.4283  0.0157  0.7163
  877SOL    HW2 2631   0.604   0.395   1.259 -0.3448  0.9270  0.5716
  878SOL     OW 2632   2.661   1.886   2.962  0.0298 -0.4461  0.0798
  878SOL    HW1 2633   2.727   1.810   2.943 -0.8138  2.6609  0.8203
  878SOL    HW2 2634   2.585   1.893   2.892 -2.0843 -2.0239  1.5892
  879SOL     OW 2635   2.435   1.909   1.291 -0.4924 -0.2193  0.0344
  879SOL    HW1 2636   2.430   1.956   1.383 -0.6516  0.6482 -2.0779
  879SOL    HW2 2637   2.444   1.974   1.214  0.5992  2.2199  0.8532
  880SOL     OW 2638   1.036   2.212   1.448 -0.0747 -0.3925 -0.3686
  880SOL    HW1 2639   1.061   2.293   1.505 -2.8705 -0.0782 -0.7590
  880SOL    HW2 2640   1.073   2.223   1.351 -1.0613  2.1248 -2.0083
  881SOL     OW 2641   1.284   1.996   1.111  0.3736 -0.4239  0.2546
  881SOL    HW1 2642   1.252   2.023   1.022  0.7214 -1.3476  2.6584
  881SOL    HW2 2643   1.283   1.896   1.119 -1.7933  2.1269 -0.4484
  882SOL     OW 2644   2.004   1.687   2.502 -0.1852 -0.6257  0.3387
  882SOL    HW1 2645   2.066   1.649   2.571 -1.9257 -1.9325  0.4018
  882SOL    HW2 2646   2.049   1.765   2.448  1.0027  0.6935  1.0130
  883SOL     OW 2647   1.257   0.556   1.090 -0.3022 -0.0868  0.3572
  883SOL    HW1 2648   1.236   0.608   1.006  0.2943  2.4299 -0.0344
  883SOL    HW2 2649   1.341   0.499   1.078  0.8497 -2.4490 -2.1178
  884SOL     OW 2650   0.060   2.782   0.787 -0.2188 -0.4735 -0.0882
  884SOL    HW1 2651   0.071   2.726   0.702 -1.5691 -1.5981  3.1956
  884SOL    HW2 2652   3.124   2.748   0.843  0.1775  1.1998 -1.3569
  885SOL     OW 2653   1.097   1.081   1.964  0.0530 -0.0118  0.5124
  885SOL    HW1 2654   1.123   1.073   1.866 -0.5404  0.2641 -1.2904
  885SOL    HW2 2655   1.178   1.069   2.022 -2.7519 -1.6826  1.6951
  886SOL     OW 2656   1.221   0.848   2.963  0.5462  0.1602  0.5411
  886SOL    HW1 2657   1.127   0.890   2.954  0.7065  1.0956 -0.5440
  886SOL    HW2 2658   1.293   0.873   2.898  3.5045  0.7041 -0.3282
  887SOL     OW 2659   1.625   0.312   0.859  0.1444 -0.3074  0.1998
  887SOL    HW1 2660   1.641   0.391   0.796 -2.1177  1.6346 -2.6797
  887SOL    HW2 2661   1.710   0.299   0.917  0.0775 -2.2735 -0.3605
  888SOL     OW 2662   2.377   1.204   1.856  0.5052 -0.1660 -0.1365
  888SOL    HW1 2663   2.328   1.119   1.877 -0.0167  1.8053  1.5278
  888SOL    HW2 2664   2.452   1.211   1.925 -2.7342 -3.2000 -0.0697
  889SOL     OW 2665   0.208   2.261   1.098 -0.0962 -0.0927 -0.1983
  889SOL    HW1 2666   0.222   2.334   1.165  0.6645 -1.9745 -1.4448
  889SOL    HW2 2667   0.118   2.269   1.054  2.4232  0.8632  0.0503
  890SOL     OW 2668   1.300   2.374   0.542  0.2519  0.3079 -0.8279
  890SOL    HW1 2669   1.400   2.363   0.539 -0.8142 -2.5208 -0.9916
  890SOL    HW2 2670   1.264   2.453   0.484  0.1364 -0.8824 -0.0913
  891SOL     OW 2671   2.847   0.558   2.472  0.3461  0.5894 -0.2172
  891SOL    HW1 2672   2.872   0.600   2.383 -0.3344  2.1796 -0.5601
  891SOL    HW2 2673   2.907   0.597   2.544  3.0238  2.0607  0.6456
  892SOL     OW 2674   0.083   2.481   1.646 -0.6793 -0.1363  0.3873
  892SOL    HW1 2675   0.180   2.444   1.639 -0.7657  1.5456  1.6545
  892SOL    HW2 2676   0.071   2.523   1.737 -2.3277  1.2746 -0.1117
  893SOL     OW 2677   1.251   0.432   1.463  0.2374  0.2684 -0.1911
  893SOL    HW1 2678   1.278   0.363   1.390 -1.0028 -0.7238  0.6121
  893SOL    HW2 2679   1.287   0.407   1.556 -2.3977  0.7003 -1.3365
  894SOL     OW 2680   2.802   3.087   1.004 -0.0758 -0.1561  0.4935
  894SOL    HW1 2681   2.820   0.032   1.064  1.4625  4.5543  0.4309
  894SOL    HW2 2682   2.716   3.093   0.951  0.9030 -1.4656  0.6274
  895SOL     OW 2683   1.757   1.767   2.424  0.0541 -0.7694  0.1293
  895SOL    HW1 2684   1.854   1.756   2.446 -2.3009  0.7953 -2.3956
  895SOL    HW2 2685   1.700   1.723   2.491 -1.0239  0.8645 -0.7993
  896SOL     OW 2686   1.702   0.626   1.239  0.1317  0.0979  0.5151
  896SOL    HW1 2687   1.670   0.537   1.281 -1.3802  0.4314 -0.5732
  896SOL    HW2 2688   1.686   0.707   1.299  0.2662  1.1019  1.3982
  897SOL     OW 2689   0.583   1.606   1.778 -0.3315 -0.2926 -0.2571
  897SOL    HW1 2690   0.686   1.605   1.800 -1.9718  2.1356  1.8753
  897SOL    HW2 2691   0.534   1.521   1.809 -2.7130 -1.3474 -1.2948
  898SOL     OW 2692   1.992   2.095   2.063  0.6970 -0.0666  0.1675
  898SOL    HW1 2693   1.937   2.026   2.110 -1.1699  2.0360  1.5463
  898SOL    HW2 2694   2.082   2.111   2.107  1.3230 -1.9390 -0.6618
  899SOL     OW 2695   1.700   1.989   0.706 -0.7151  0.1851  0.3070
  899SOL    HW1 2696   1.718   1.891   0.727  3.5911  0.2360  1.1005
  899SOL    HW2 2697   1.714   1.995   0.608  0.1848 -0.6490 -1.0262
  900SOL     OW 2698   0.799   0.065   2.174  0.2655  0.4084 -0.2834
  900SOL    HW1 2699   0.870   0.034   2.240  0.2647  0.7624  0.2004
  900SOL    HW2 2700   0.840   0.085   2.086 -3.5554 -1.5049 -0.7760
  901SOL     OW 2701   1.111   1.517   2.220  0.3377  0.2504  1.0780
  901SOL    HW1 2702   1.025   1.508   2.162 -3.5930  2.9370  3.5778
  901SOL    HW2 2703   1.107   1.444   2.296  1.4235 -0.9864  0.5755
  902SOL     OW 2704   2.108   0.611   3.087 -0.6775  0.0291 -0.2173
  902SOL    HW1 2705   2.047   0.669   3.032  1.1728 -0.4615 -0.7011
  902SOL    HW2 2706   2.089   0.628   0.049 -0.1882  0.9502  1.2090
  903SOL     OW 2707   1.848   0.986   2.629 -0.0406 -0.2030 -0.1438
  903SOL    HW1 2708   1.814   1.055   2.694 -2.3674 -3.2587 -0.7612
  903SOL    HW2 2709   1.842   1.025   2.536  0.1017  0.7217  0.4648
  904SOL     OW 2710   2.035   1.014   1.900 -0.0109  0.2041 -0.3432
  904SOL    HW1 2711   1.987   0.945   1.845  2.4099  3.6567 -1.7884
  904SOL    HW2 2712   1.986   1.104   1.894  1.6210 -0.0157  3.7902
  905SOL     OW 2713   2.510   0.242   0.958  0.0079 -0.6988 -0.6112
  905SOL    HW1 2714   2.496   0.342   0.953 -1.3203  0.4933 -0.0676
  905SOL    HW2 2715   2.491   0.208   1.052  0.3268  1.8385  1.5297
  906SOL     OW 2716   2.779   1.589   0.605  0.5737  0.0911 -0.3543
  906SOL    HW1 2717   2.733   1.530   0.677 -1.7472 -1.6851  0.8559
  906SOL    HW2 2718   2.716   1.664   0.579 -1.1125  0.7455 -3.7592
  907SOL     OW 2719   1.290   0.317   0.563  0.1645  0.2618  0.1476
  907SOL    HW1 2720   1.304   0.410   0.595  0.4467 -0.2496  0.2422
  907SOL    HW2 2721   1.341   0.248   0.614  0.3684 -0.4720 -1.0996
  908SOL     OW 2722   1.379   2.749   2.022  0.7998 -0.9089 -0.2791
  908SOL    HW1 2723   1.429   2.685   2.088  1.4470 -3.4220 -0.7656
  908SOL    HW2 2724   1.423   2.751   1.930 -2.6180 -0.5957 -0.4182
  909SOL     OW 2725   2.644   0.920   1.901 -0.0521  0.2383 -0.5484
  909SOL    HW1 2726   2.605   0.829   1.928 -0.6744  1.1514  0.1863
  909SOL    HW2 2727   2.598   1.003   1.940 -1.7278  1.4962  1.6373
  910SOL     OW 2728   1.222   0.182   2.278  0.3334 -0.4285 -0.3523
  910SOL    HW1 2729   1.257   0.087   2.246  1.7157  1.6042  1.3748
  910SOL    HW2 2730   1.178   0.179   2.373 -1.5740  1.3345  1.7844
  911SOL     OW 2731   2.232   1.232   2.618  0.3464  0.1314 -0.0598
  911SOL    HW1 2732   2.285   1.247   2.702 -2.1526  1.3539  1.1850
  911SOL    HW2 2733   2.194   1.134   2.620 -2.3368 -0.6575  1.2716
  912SOL     OW 2734   2.749   2.167   1.366  0.3946  0.1595  0.1112
  912SOL    HW1 2735   2.736   2.113   1.448 -1.4753 -2.1816  1.1597
  912SOL    HW2 2736   2.828   2.227   1.379  0.2028  0.0764 -0.7120
  913SOL     OW 2737   2.689   2.074   1.987  0.2989 -0.0714 -0.5219
  913SOL    HW1 2738   2.654   2.164   1.953 -0.0038  0.1706  1.2223
  913SOL    HW2 2739   2.607   2.032   2.026  0.4200  0.9003  0.8928
  914SOL     OW 2740   2.095   1.773   0.705 -0.2036 -0.1518 -0.1121
  914SOL    HW1 2741   2.118   1.871   0.718  2.6575 -2.0515 -1.7920
  914SOL    HW2 2742   2.009   1.755   0.651 -1.7740 -1.9221  0.4874
  915SOL     OW 2743   0.856   2.625   2.090 -0.1548  0.3736  0.5359
  915SOL    HW1 2744   0.783   2.672   2.044  1.9142 -1.2362  0.4897
  915SOL    HW2 2745   0.839   2.621   2.186  0.4536  0.9246 -1.3828
  916SOL     OW 2746   0.401   2.372   0.909 -0.1462 -0.2168  0.3520
  916SOL    HW1 2747   0.452   2.304   0.858  0.9310 -1.6909  1.7411
  916SOL    HW2 2748   0.331   2.328   0.969  0.2162  3.5407 -0.9309
  917SOL     OW 2749   2.652   0.985   2.965  1.1184  0.6446 -0.2719
  917SOL    HW1 2750   2.559   0.936   2.953 -0.6377 -0.2326  2.5540
  917SOL    HW2 2751   2.716   0.923   2.908 -2.3146  0.8095  0.7216
  918SOL     OW 2752   1.502   2.235   2.127  0.3814  0.3169 -0.5361
  918SOL    HW1 2753   1.532   2.139   2.120  0.2873 -3.4570  1.0912
  918SOL    HW2 2754   1.496   2.256   2.224  2.6493  2.4288 -0.7489
  919SOL     OW 2755   1.880   2.107   0.861  0.6229  0.0510 -0.0656
  919SOL    HW1 2756   1.810   2.076   0.796  0.6056 -1.4757 -1.6924
  919SOL    HW2 2757   1.966   2.076   0.817  1.6152 -2.3162  0.8503
  920SOL     OW 2758   1.362   0.403   2.377 -0.0522 -0.0463  0.3675
  920SOL    HW1 2759   1.331   0.313   2.342 -0.9500 -1.8321 -0.5310
  920SOL    HW2 2760   1.295   0.441   2.443 -2.1533 -1.1284 -0.3645
  921SOL     OW 2761   0.182   0.660   2.883  0.2274 -0.0592 -0.2775
  921SOL    HW1 2762   0.254   0.721   2.840  0.5315  1.8784  0.0746
  921SOL    HW2 2763   0.104   0.637   2.823  0.3250  1.2249 -0.9197
  922SOL     OW 2764   2.846   1.811   1.417 -0.0740  0.5417 -0.0665
  922SOL    HW1 2765   2.941   1.834   1.405 -3.7938 -2.2912 -0.7421
  922SOL    HW2 2766   2.799   1.880   1.477  0.2297  0.9872 -0.4748
  923SOL     OW 2767   0.095   1.968   2.596 -0.5787  0.1157  0.0193
  923SOL    HW1 2768   0.004   2.000   2.632 -2.1680 -0.6592 -1.3278
  923SOL    HW2 2769   0.170   2.018   2.637 -2.8009 -0.5736  0.3017
  924SOL     OW 2770   1.809   0.509   2.153  0.2036  0.2897 -0.2036
  924SOL    HW1 2771   1.730   0.452   2.191 -2.4711  0.3772  1.7907
  924SOL    HW2 2772   1.856   0.563   2.229  0.2257  1.9617  0.4158
  925SOL     OW 2773   0.115   1.066   0.238 -0.2820  0.3050  0.4002
  925SOL    HW1 2774   0.015   1.038   0.244 -1.4938 -2.3263  1.1981
  925SOL    HW2 2775   0.126   1.170   0.250 -0.0961  1.5020 -0.1797
  926SOL     OW 2776   2.464   0.156   1.196 -0.3476  0.4850 -0.2274
  926SOL    HW1 2777   2.423   0.063   1.177  0.4719 -2.2214  1.6927
  926SOL    HW2 2778   2.413   0.202   1.278  1.2588  1.7852 -1.2935
  927SOL     OW 2779   1.252   0.923   0.779 -0.1398  0.4797  0.0110
  927SOL    HW1 2780   1.258   0.975   0.694  2.1072 -0.5920  1.8712
  927SOL    HW2 2781   1.198   0.839   0.768  3.1996  1.4266 -0.4310
  928SOL     OW 2782   3.088   0.223   2.188 -0.0624  0.0497 -0.6493
  928SOL    HW1 2783   3.039   0.196   2.272 -2.3858 -1.4764 -1.2500
  928SOL    HW2 2784   0.036   0.269   2.202  0.0920  0.5429  0.4604
  929SOL     OW 2785   2.335   0.779   1.252 -0.2969 -0.3959  0.0581
  929SOL    HW1 2786   2.272   0.829   1.311 -0.2128 -1.8183 -1.5382
  929SOL    HW2 2787   2.433   0.813   1.256  2.8977 -0.4354 -2.8010
  930SOL     OW 2788   2.088   2.409   1.150 -0.6185  0.3304 -0.1552
  930SOL    HW1 2789   1.994   2.373   1.132 -0.1327  2.2661  0.5626
  930SOL    HW2 2790   2.090   2.494   1.208 -0.2862  1.3058 -0.3842
  931SOL     OW 2791   2.042   0.856   1.164  0.2825 -0.4860 -0.1753
  931SOL    HW1 2792   2.027   0.830   1.063 -0.8788  2.9742  1.7336
  931SOL    HW2 2793   2.098   0.939   1.172  1.0731 -1.5872 -0.0289
  932SOL     OW 2794   0.114   0.851   1.213  0.0140  0.7229  0.4844
  932SOL    HW1 2795   0.088   0.868   1.114  0.6187 -0.5490 -2.9942
  932SOL    HW2 2796   0.211   0.839   1.221 -2.1650 -1.4497 -1.6282
  933SOL     OW 2797   2.130   1.671   2.159  0.1373  0.2192 -0.2266
  933SOL    HW1 2798   2.128   1.567   2.169 -1.0606  3.8212  0.6320
  933SOL    HW2 2799   2.091   1.704   2.071  1.2085 -1.5468  1.0366
  934SOL     OW 2800   1.529   2.888   1.554  0.2098 -0.2974  0.6076
  934SOL    HW1 2801   1.556   2.863   1.459 -1.0696 -0.2050  0.3279
  934SOL    HW2 2802   1.491   2.984   1.553  0.9719  0.0418  1.2840
  935SOL     OW 2803   0.328   1.058   1.334 -0.4853 -0.2123  0.3775
  935SOL    HW1 2804   0.282   1.106   1.259 -0.8700  0.1168  0.0971
  935SOL    HW2 2805   0.366   1.126   1.403 -1.3227  2.1681 -0.2663
  936SOL     OW 2806   2.684   0.520   1.504  0.4227  0.0387 -0.0792
  936SOL    HW1 2807   2.599   0.547   1.554 -1.4995 -1.3746  2.5292
  936SOL    HW2 2808   2.773   0.562   1.537  1.6262  2.2653  0.6716
  937SOL     OW 2809   0.864   0.242   1.445 -0.4432  0.3351  0.6927
  937SOL    HW1 2810   0.897   0.321   1.384 -0.9067  0.9550 -3.0518
  937SOL    HW2 2811   0.848   0.270   1.541 -0.1534 -1.3631 -0.3155
  938SOL     OW 2812   0.145   2.372   0.771 -0.0249 -0.2991  0.0011
  938SOL    HW1 2813   0.072   2.354   0.843 -3.5951 -0.0177  0.3864
  938SOL    HW2 2814   0.239   2.399   0.810  0.2869 -0.4432  2.3699
  939SOL     OW 2815   0.057   2.273   2.712 -0.0217  0.1177 -0.0895
  939SOL    HW1 2816   0.040   2.239   2.617 -2.8752  0.9653  1.3192
  939SOL    HW2 2817   3.140   2.353   2.727 -2.9096 -2.5103  0.2712
  940SOL     OW 2818   1.918   2.255   2.842  0.5304  0.0752  0.1831
  940SOL    HW1 2819   1.816   2.260   2.848  0.5338 -1.0114  0.0548
  940SOL    HW2 2820   1.950   2.229   2.747  1.1784  1.0693 -0.1968
  941SOL     OW 2821   1.743   2.535   0.530 -0.3267 -0.8289  0.2409
  941SOL    HW1 2822   1.683   2.544   0.613 -1.2224 -0.6478 -0.4503
  941SOL    HW2 2823   1.835   2.506   0.548 -1.3441 -0.6405 -0.1663
  942SOL     OW 2824   1.777   1.825   1.238 -0.0077  0.1637 -0.2082
  942SOL    HW1 2825   1.849   1.774   1.186  0.1542  1.2586  1.1842
  942SOL    HW2 2826   1.727   1.893   1.177 -2.3890  0.8118 -1.6500
  943SOL     OW 2827   2.014   0.726   2.013 -0.6793  0.2374  0.7127
  943SOL    HW1 2828   1.961   0.759   1.933  1.3909 -0.2434 -0.9155
  943SOL    HW2 2829   2.100   0.676   1.990  0.6953  0.4943  1.8531
  944SOL     OW 2830   1.888   0.804   1.781  0.0170  0.1153 -0.1037
  944SOL    HW1 2831   1.808   0.865   1.781  0.0740 -2.1770 -0.3005
  944SOL    HW2 2832   1.898   0.742   1.700  3.1614 -0.7950  1.1420
  945SOL     OW 2833   2.717   2.677   1.359 -0.0640  0.0596  0.3472
  945SOL    HW1 2834   2.629   2.634   1.337  0.1689  3.0695  0.7563
  945SOL    HW2 2835   2.756   2.741   1.288 -2.6232  0.7535 -1.0156
  946SOL     OW 2836   0.446   1.449   1.252 -0.1888 -0.0126 -0.0877
  946SOL    HW1 2837   0.396   1.373   1.217 -0.5665 -0.4098  1.2201
  946SOL    HW2 2838   0.421   1.530   1.200 -0.5437 -1.5848 -0.8088
  947SOL     OW 2839   0.816   2.566   0.735 -0.0841  0.0418 -0.3671
  947SOL    HW1 2840   0.837   2.639   0.805 -0.7962  0.5415 -1.1518
  947SOL    HW2 2841   0.718   2.570   0.710  0.8107 -0.6552 -2.3532
  948SOL     OW 2842   0.278   1.569   1.651 -0.0358  0.1119  0.1367
  948SOL    HW1 2843   0.265   1.499   1.724 -0.8419 -1.5153 -2.1522
  948SOL    HW2 2844   0.362   1.628   1.677  0.7149 -0.3220 -1.6030
  949SOL     OW 2845   0.654   0.784   2.156 -0.0479  0.4802  0.1539
  949SOL    HW1 2846   0.738   0.838   2.138  1.6421  0.3721  2.1428
  949SOL    HW2 2847   0.573   0.817   2.104 -2.9989  0.0983 -0.9264
  950SOL     OW 2848   0.272   0.533   1.240 -0.1528 -0.1098  0.4614
  950SOL    HW1 2849   0.297   0.590   1.162  0.3215 -2.6438 -0.0436
  950SOL    HW2 2850   0.215   0.457   1.204 -0.4634 -1.3493 -0.2716
  951SOL     OW 2851   1.181   1.778   2.152  0.0922 -0.0199 -0.7832
  951SOL    HW1 2852   1.140   1.682   2.168  0.5347  0.6321 -0.2907
  951SOL    HW2 2853   1.107   1.852   2.154 -1.8763  0.9296  0.9667
  952SOL     OW 2854   1.133   1.624   0.245  0.1401 -0.6779  0.8905
  952SOL    HW1 2855   1.160   1.614   0.342 -0.1478  2.7366  2.1103
  952SOL    HW2 2856   1.200   1.570   0.196 -0.8636 -0.6637 -0.0158
  953SOL     OW 2857   0.982   3.093   2.417 -0.5555 -0.2593 -0.1437
  953SOL    HW1 2858   0.898   3.100   2.478 -1.2483 -0.2367 -0.6927
  953SOL    HW2 2859   1.064   3.089   2.477  0.6615  1.6936 -0.3898
  954SOL     OW 2860   1.992   1.381   0.254 -0.1426 -0.2402  0.5252
  954SOL    HW1 2861   1.893   1.378   0.243  1.4786  1.3951  1.1891
  954SOL    HW2 2862   2.029   1.310   0.317  0.3496 -1.1960  0.7352
  955SOL     OW 2863   0.377   2.604   3.027 -0.3408  0.4749  0.1639
  955SOL    HW1 2864   0.434   2.530   2.999  0.4208 -1.0726 -1.6135
  955SOL    HW2 2865   0.314   2.634   2.951 -1.1639 -0.3123  1.0332
  956SOL     OW 2866   1.433   0.927   1.678  0.0804 -0.4506 -0.0436
  956SOL    HW1 2867   1.337   0.923   1.696  2.3911  1.6253 -1.6324
  956SOL    HW2 2868   1.462   0.975   1.593 -0.4333  0.1646  0.7463
  957SOL     OW 2869   2.055   1.837   1.953 -0.2146  0.3453  0.2889
  957SOL    HW1 2870   2.058   1.934   1.986 -0.4593  1.9378  0.5650
  957SOL    HW2 2871   1.970   1.813   1.906  0.5494 -1.6958 -0.8363
  958SOL     OW 2872   1.320   2.234   1.463 -0.0511 -0.0243  0.5996
  958SOL    HW1 2873   1.288   2.322   1.510 -0.9245  0.5492  2.9489
  958SOL    HW2 2874   1.417   2.251   1.432  0.3009  2.5807  1.3721
  959SOL     OW 2875   1.400   1.584   1.446 -0.0024  0.0887 -0.0685
  959SOL    HW1 2876   1.498   1.599   1.425 -0.5185 -0.2538 -0.0711
  959SOL    HW2 2877   1.383   1.538   1.536 -0.1260  0.2778 -1.5353
  960SOL     OW 2878   0.052   1.425   2.972 -0.2202 -0.3365  1.0290
  960SOL    HW1 2879   3.123   1.368   3.021  0.2523 -3.5872 -1.3537
  960SOL    HW2 2880   0.084   1.374   2.889  0.3684  0.5110 -1.6683
  961SOL     OW 2881   0.478   1.106   2.256  0.1919  0.3124  0.4005
  961SOL    HW1 2882   0.482   1.121   2.356 -0.2485 -0.1808 -2.0978
  961SOL    HW2 2883   0.542   1.165   2.199  1.3786  0.2086 -3.5472
  962SOL     OW 2884   1.282   1.760   0.747 -0.1634  0.2503  0.3747
  962SOL    HW1 2885   1.245   1.851   0.762 -0.7359  3.2707  0.0929
  962SOL    HW2 2886   1.342   1.728   0.821  2.0073  0.1589 -0.8193
  963SOL     OW 2887   1.208   2.239   2.364  0.2883  0.0565  0.2829
  963SOL    HW1 2888   1.183   2.287   2.280  0.0840 -1.6319  2.0784
  963SOL    HW2 2889   1.136   2.181   2.398  0.1115 -0.1474  4.3093
  964SOL     OW 2890   0.854   3.049   0.251  0.2222 -0.0369  0.3820
  964SOL    HW1 2891   0.859   3.002   0.341  0.6612  1.7995 -0.6867
  964SOL    HW2 2892   0.763   3.091   0.237  3.3608 -0.9373 -0.0045
  965SOL     OW 2893   0.436   3.111   1.008  0.2444 -0.2691  0.7474
  965SOL    HW1 2894   0.531   0.000   1.013  0.0509 -0.9810  1.3737
  965SOL    HW2 2895   0.377   0.002   1.090 -0.7029 -0.0297 -0.4069
  966SOL     OW 2896   0.339   1.680   2.818 -0.1938 -0.3982  0.3552
  966SOL    HW1 2897   0.382   1.629   2.887 -1.8993  2.5576 -1.2881
  966SOL    HW2 2898   0.242   1.699   2.831  0.2750  3.4402 -0.0391
  967SOL     OW 2899   0.726   2.847   2.410 -0.3487 -0.2214 -0.0612
  967SOL    HW1 2900   0.733   2.928   2.476 -0.0748  4.6905  4.2751
  967SOL    HW2 2901   0.728   2.882   2.315 -1.0693  0.2256  1.8205
  968SOL     OW 2902   2.277   0.460   0.316 -0.1645  0.2888  0.0320
  968SOL    HW1 2903   2.220   0.376   0.336 -1.3276 -2.4993 -1.2393
  968SOL    HW2 2904   2.225   0.544   0.302  2.1106 -1.1292  0.0690
  969SOL     OW 2905   3.060   1.860   2.136  0.3177  0.3803  0.6707
  969SOL    HW1 2906   3.132   1.791   2.149  2.2700  0.9006  0.6189
  969SOL    HW2 2907   2.962   1.826   2.138  0.9194 -1.7855 -1.1881
  970SOL     OW 2908   2.108   1.403   1.301  0.5060 -0.4183  0.1403
  970SOL    HW1 2909   2.174   1.391   1.225 -1.4058  0.0590 -1.8253
  970SOL    HW2 2910   2.158   1.455   1.368 -2.3732 -3.2266 -1.9292
  971SOL     OW 2911   1.978   0.054   1.212  0.0638  0.1861  0.0015
  971SOL    HW1 2912   1.950   0.118   1.138  0.2514 -0.9536  0.6497
  971SOL    HW2 2913   2.008   3.104   1.174 -0.0682 -0.1040  1.0056
  972SOL     OW 2914   0.363   0.034   1.650  0.1435  0.2204  0.1758
  972SOL    HW1 2915   0.289   0.103   1.641  0.9821 -0.2730  0.3184
  972SOL    HW2 2916   0.338   3.089   1.601  0.8357  0.9245  1.0737
  973SOL     OW 2917   2.648   0.869   0.257  0.1578 -0.2654 -0.5366
  973SOL    HW1 2918   2.715   0.887   0.183 -2.6002 -4.5652 -1.6438
  973SOL    HW2 2919   2.624   0.960   0.305  0.0557  1.5323  0.3599
  974SOL     OW 2920   1.906   1.419   2.512 -0.5733 -0.3275  0.0085
  974SOL    HW1 2921   1.950   1.514   2.508 -0.4168  3.0510  2.5488
  974SOL    HW2 2922   1.928   1.370   2.427  1.4044 -2.2023 -0.3025
  975SOL     OW 2923   0.299   2.934   1.508 -0.2071 -0.0299 -0.2231
  975SOL    HW1 2924   0.290   2.901   1.413  1.7145  0.6940  1.9945
  975SOL    HW2 2925   0.236   2.897   1.578  1.4048  3.2522  3.7603
  976SOL     OW 2926   0.329   1.972   2.064 -0.3525 -0.5554 -0.1698
  976SOL    HW1 2927   0.291   2.043   2.002  0.8543 -0.2198  1.9033
  976SOL    HW2 2928   0.275   1.973   2.152  1.0808  0.5905 -1.3049
  977SOL     OW 2929   0.950   2.720   0.086 -0.6061  0.4199  0.3259
  977SOL    HW1 2930   1.051   2.708   0.066 -0.3071  3.0007  0.3732
  977SOL    HW2 2931   0.917   2.808   0.052 -1.8275  1.3666  0.5714
  978SOL     OW 2932   0.291   1.948   2.987 -0.0932 -0.1410  0.0658
  978SOL    HW1 2933   0.359   2.017   3.025  0.8825  1.3847  1.7235
  978SOL    HW2 2934   0.301   1.942   2.886  0.6909  0.7244  0.9401
  979SOL     OW 2935   1.717   2.418   1.226  0.2356 -0.0151 -0.5575
  979SOL    HW1 2936   1.747   2.512   1.205 -1.2770 -0.4461 -0.8343
  979SOL    HW2 2937   1.776   2.341   1.198  0.5198 -0.9487 -0.1854
  980SOL     OW 2938   1.032   1.692   2.739 -0.1905  0.5058 -0.3613
  980SOL    HW1 2939   1.125   1.652   2.755  1.8817 -2.2165  0.1175
  980SOL    HW2 2940   0.994   1.657   2.651 -1.5479  0.7198 -0.7106
  981SOL     OW 2941   2.584   3.100   2.365 -1.1976  0.4798 -0.4388
  981SOL    HW1 2942   2.647   0.023   2.310  1.5236  1.9246 -5.1285
  981SOL    HW2 2943   2.534   0.010   2.437 -2.0250 -0.0392  1.6300
  982SOL     OW 2944   0.132   2.936   2.557  0.3482 -0.2564  0.2506
  982SOL    HW1 2945   0.081   3.021   2.545  1.0177 -1.6637 -0.8588
  982SOL    HW2 2946   0.079   2.860   2.518  1.0023  2.0400  0.6743
  983SOL     OW 2947   2.117   1.353   1.875 -0.0580 -0.4750  0.1813
  983SOL    HW1 2948   2.205   1.309   1.845 -1.8620  2.0598 -0.3141
  983SOL    HW2 2949   2.059   1.373   1.796 -0.4967  0.2569 -1.0198
  984SOL     OW 2950   1.562   0.581   1.911 -0.6063 -0.4531 -0.0217
  984SOL    HW1 2951   1.463   0.596   1.935  1.3080 -0.0147 -3.5380
  984SOL    HW2 2952   1.620   0.569   1.995  0.9172 -1.2451 -1.7778
  985SOL     OW 2953   1.619   1.567   2.011 -0.3739  0.5512 -0.4963
  985SOL    HW1 2954   1.554   1.530   2.083 -0.9610 -0.7863  1.2354
  985SOL    HW2 2955   1.599   1.661   1.990  2.2000 -2.2703  0.5898
  986SOL     OW 2956   1.968   0.414   1.940  0.4340  0.3946  0.2051
  986SOL    HW1 2957   2.054   0.468   1.936  1.7135  0.4518 -0.9381
  986SOL    HW2 2958   1.904   0.463   2.002 -0.4885  1.2493 -0.2868
  987SOL     OW 2959   2.224   0.555   1.940 -0.0991 -0.1249 -0.8056
  987SOL    HW1 2960   2.288   0.504   2.001  0.7523 -0.6773  0.3629
  987SOL    HW2 2961   2.268   0.619   1.874 -0.0191  2.6922  0.3506
  988SOL     OW 2962   2.634   0.772   2.231 -0.1570  0.3714 -0.6252
  988SOL    HW1 2963   2.722   0.719   2.208  1.1468  1.3526  0.7355
  988SOL    HW2 2964   2.654   0.846   2.299 -0.1466  1.5124  0.9780
  989SOL     OW 2965   2.227   2.527   2.805 -0.1433 -0.3421  0.5617
  989SOL    HW1 2966   2.278   2.447   2.764  1.5955  0.4756 -0.9354
  989SOL    HW2 2967   2.178   2.502   2.892 -3.0586  0.7154  0.3441
  990SOL     OW 2968   0.955   0.553   2.645 -0.2230 -0.5741 -0.3231
  990SOL    HW1 2969   0.882   0.477   2.648 -0.4921 -0.5990 -0.5046
  990SOL    HW2 2970   0.914   0.643   2.673 -0.4222  2.1486  0.2611
  991SOL     OW 2971   1.237   0.663   0.193 -0.0250  0.3984  0.1347
  991SOL    HW1 2972   1.231   0.762   0.163  2.5189  2.4996  3.5659
  991SOL    HW2 2973   1.270   0.611   0.114  1.2143  0.4824  0.9554
  992SOL     OW 2974   2.527   2.412   2.740  0.2752  0.2675  0.0100
  992SOL    HW1 2975   2.526   2.509   2.710 -0.5485  0.9262  1.2412
  992SOL    HW2 2976   2.452   2.355   2.697 -1.2171  0.6551 -2.8702
  993SOL     OW 2977   0.291   0.349   0.219 -0.3208 -0.5797  0.0151
  993SOL    HW1 2978   0.359   0.422   0.230  1.1237 -0.9053  3.4475
  993SOL    HW2 2979   0.220   0.354   0.294  0.7662  1.0287 -0.9365
  994SOL     OW 2980   0.327   2.183   1.716  0.2335 -0.1544  0.3944
  994SOL    HW1 2981   0.285   2.146   1.799 -0.7643 -0.5560  1.9471
  994SOL    HW2 2982   0.349   2.281   1.728  1.0321 -0.0498 -0.1970
  995SOL     OW 2983   1.939   1.758   2.936 -0.3446  0.4037 -0.3406
  995SOL    HW1 2984   2.005   1.770   3.013  0.8171  0.8413 -1.4363
  995SOL    HW2 2985   1.939   1.663   2.901  0.6733 -3.0181 -1.5208
  996SOL     OW 2986   1.490   1.714   2.898 -0.1440  0.0826 -0.0525
  996SOL    HW1 2987   1.575   1.758   2.862 -0.1092  1.8813 -0.2726
  996SOL    HW2 2988   1.411   1.754   2.846 -2.6178  0.0280 -0.7886
  997SOL     OW 2989   1.887   1.156   1.110 -0.4200  0.1028  0.1835
  997SOL    HW1 2990   1.957   1.100   1.157  1.0172 -1.0835 -1.4514
  997SOL    HW2 2991   1.920   1.253   1.109  1.4605  0.1529 -0.3383
  998SOL     OW 2992   2.517   1.486   0.099  0.8619 -0.3703 -0.0961
  998SOL    HW1 2993   2.509   1.400   0.155  1.6184 -2.1505  0.2824
  998SOL    HW2 2994   2.614   1.507   0.085  0.2864 -0.8986  3.0044
  999SOL     OW 2995   3.008   2.471   0.315 -0.1191  0.3775  0.8764
  999SOL    HW1 2996   2.945   2.505   0.385  2.3916  2.1957  1.7970
  999SOL    HW2 2997   2.993   2.507   0.218  1.3711  2.9025  0.7070
 1000SOL     OW 2998   0.651   2.979   1.875 -0.0928 -0.3316  0.4604
 1000SOL    HW1 2999   0.559   3.020   1.870  0.7624 -0.9048  1.1670
 1000SOL    HW2 3000   0.715   3.029   1.814  2.0008  2.3737 -1.4245
   3.14089   3.14089   3.14089
