1000 SPC/Fw water molecules t= 241.00000 step= 241000
 3000
    1SOL     OW    1   2.797   2.810   1.090  0.4884 -0.7635 -0.4845
    1SOL    HW1    2   2.873   2.795   1.024  1.2489  1.4450 -0.1461
    1SOL    HW2    3   2.705   2.796   1.052 -0.5929  1.2385  1.7420
    2SOL     OW    4   1.767   1.804   1.429  0.3167  0.6169 -0.4819
    2SOL    HW1    5   1.677   1.781   1.474 -1.2007  0.5663  2.4725
    2SOL    HW2    6   1.841   1.736   1.443  0.2753 -2.2729 -1.4674
    3SOL     OW    7   1.543   2.583   2.931 -0.2152  0.3323 -0.0522
    3SOL    HW1    8   1.526   2.665   2.996 -1.4341 -1.1141 -0.3812
    3SOL    HW2    9   1.643   2.574   2.912 -1.9446  0.5959 -0.3070
    4SOL     OW   10   1.893   2.002   2.044  0.4813 -0.2073  0.0427
    4SOL    HW1   11   1.907   1.933   2.112 -2.9118  1.4691 -3.0388
    4SOL    HW2   12   1.821   1.971   1.979 -2.2255  1.1602  0.1360
    5SOL     OW   13   1.361   1.283   1.450  0.2905  0.9380 -0.1715
    5SOL    HW1   14   1.345   1.331   1.359  1.5036  2.1573 -1.2539
    5SOL    HW2   15   1.297   1.207   1.459  1.8579 -1.0248 -1.4622
    6SOL     OW   16   2.268   0.023   3.004 -0.1903  0.1678 -0.2188
    6SOL    HW1   17   2.329   0.093   2.954 -0.5300  0.6904  1.3247
    6SOL    HW2   18   2.269   3.027   2.963  1.2554 -2.3386 -0.5693
    7SOL     OW   19   2.766   1.578   1.524 -0.0367  0.1993  0.5867
    7SOL    HW1   20   2.778   1.532   1.616 -1.2531 -0.4797  2.9020
    7SOL    HW2   21   2.835   1.550   1.452 -0.0007 -1.8759 -0.7170
    8SOL     OW   22   1.081   0.549   1.020  0.1413 -0.7290  0.1290
    8SOL    HW1   23   1.067   0.596   0.929 -3.0538  2.0606 -4.0780
    8SOL    HW2   24   1.147   0.473   1.020 -0.7307  2.4707  1.5617
    9SOL     OW   25   1.756   0.406   2.569  0.6608 -0.3762 -0.2489
    9SOL    HW1   26   1.719   0.497   2.542  0.0029  0.9677 -0.6585
    9SOL    HW2   27   1.790   0.353   2.486  0.3730  1.2427  0.0285
   10SOL     OW   28   0.553   2.212   0.206  0.1738  0.7682 -1.0424
   10SOL    HW1   29   0.525   2.124   0.159  0.4006  2.7057 -2.9005
   10SOL    HW2   30   0.516   2.213   0.302 -0.0821 -0.9447  0.8216
   11SOL     OW   31   0.936   0.991   0.434 -0.3357  0.1104  0.5420
   11SOL    HW1   32   0.865   0.930   0.397  1.4851 -0.3247  1.9226
   11SOL    HW2   33   0.970   1.063   0.373 -2.4540 -2.8351  1.6496
   12SOL     OW   34   0.087   0.101   1.542 -0.7054  0.2821 -0.2047
   12SOL    HW1   35   0.023   0.134   1.613 -2.8392 -1.9424  0.2060
   12SOL    HW2   36   0.183   0.135   1.556 -2.1486 -0.2798  1.3009
   13SOL     OW   37   1.418   0.187   0.245  0.5308 -0.2360  0.4292
   13SOL    HW1   38   1.320   0.191   0.272  0.3792  2.0705  3.4026
   13SOL    HW2   39   1.473   0.204   0.330 -1.6764  1.0336 -3.5213
   14SOL     OW   40   1.090   2.487   1.255 -0.0224  0.3295  0.2147
   14SOL    HW1   41   1.093   2.489   1.357 -1.9103  0.8768  0.0699
   14SOL    HW2   42   1.181   2.460   1.223 -0.7570  1.0697 -0.9326
   15SOL     OW   43   2.512   1.187   1.556 -0.1519  0.0337  0.8245
   15SOL    HW1   44   2.575   1.220   1.480 -0.2696 -0.5435 -0.9434
   15SOL    HW2   45   2.522   1.252   1.637 -1.4981 -0.5701  2.8931
   16SOL     OW   46   1.911   2.841   0.077  0.1531 -0.4417  0.0721
   16SOL    HW1   47   1.893   2.868   3.082  1.8250 -2.4471  0.5244
   16SOL    HW2   48   1.864   2.752   0.093 -0.4419 -2.1377  0.8432
   17SOL     OW   49   0.826   0.090   1.512  0.2468 -0.3233 -0.0793
   17SOL    HW1   50   0.819   3.090   1.497  0.0233 -0.2642 -0.1777
   17SOL    HW2   51   0.735   0.136   1.518  0.1807 -0.1977  0.0422
   18SOL     OW   52   1.290   0.673   2.987  0.4074 -0.1563 -0.3634
   18SOL    HW1   53   1.304   0.583   3.033 -0.0250  2.8318 -0.8552
   18SOL    HW2   54   1.378   0.724   2.999 -2.2968  0.0191  3.1040
   19SOL     OW   55   1.995   2.030   2.951  0.3690 -0.3170 -0.0930
   19SOL    HW1   56   2.009   1.988   3.039 -2.6700  0.6832 -1.8879
   19SOL    HW2   57   1.891   2.048   2.949  1.0625 -2.8470  0.0788
   20SOL     OW   58   2.056   1.779   1.676 -0.1310  0.2248 -0.1463
   20SOL    HW1   59   2.070   1.694   1.729 -0.6124 -1.6760 -2.1785
   20SOL    HW2   60   2.065   1.757   1.577  0.0595  1.1167  1.3617
   21SOL     OW   61   0.766   1.505   2.826 -0.0447  0.4470 -0.0120
   21SOL    HW1   62   0.862   1.493   2.785 -1.1862  1.1411  2.3337
   21SOL    HW2   63   0.772   1.479   2.922 -1.2968  1.7918  0.3470
   22SOL     OW   64   1.775   2.828   1.307 -0.3470 -0.1877 -0.0378
   22SOL    HW1   65   1.763   2.877   1.220  3.2599 -1.8084  0.0145
   22SOL    HW2   66   1.710   2.750   1.310  2.8979  3.3655  1.2364
   23SOL     OW   67   3.077   0.489   1.679 -0.2117 -0.3591 -0.1698
   23SOL    HW1   68   0.078   0.498   1.665 -0.9825 -1.0224 -0.7049
   23SOL    HW2   69   3.037   0.535   1.600  4.8858 -0.7341 -2.1052
   24SOL     OW   70   2.159   2.589   1.020 -0.2129 -0.0250  0.4162
   24SOL    HW1   71   2.239   2.579   1.084 -0.0074  0.0413  0.8068
   24SOL    HW2   72   2.151   2.508   0.969  1.9521  4.1159  3.0075
   25SOL     OW   73   1.497   2.876   2.774  0.3311 -0.0505 -0.0458
   25SOL    HW1   74   1.545   2.800   2.731 -1.5091 -0.0519  1.8317
   25SOL    HW2   75   1.393   2.874   2.759 -1.0422  1.4253  1.7495
   26SOL     OW   76   1.915   2.892   2.904 -0.1513 -0.2177  0.4645
   26SOL    HW1   77   1.973   2.970   2.871 -0.8902  1.9600  0.2023
   26SOL    HW2   78   1.819   2.926   2.918  0.9549  1.9632  0.0109
   27SOL     OW   79   0.151   1.941   2.630  0.7863 -0.5387 -0.1301
   27SOL    HW1   80   0.090   2.016   2.610  0.4961 -2.0734 -4.1688
   27SOL    HW2   81   0.096   1.859   2.617  0.4995  3.0524 -0.1446
   28SOL     OW   82   2.869   1.045   1.405 -0.0809  0.0332 -0.4995
   28SOL    HW1   83   2.771   1.013   1.396  0.6022 -1.7960 -1.4611
   28SOL    HW2   84   2.878   1.123   1.470 -2.8725  3.2708  0.1475
   29SOL     OW   85   2.315   2.513   1.491  0.1449  0.4486 -0.0227
   29SOL    HW1   86   2.285   2.490   1.584  0.0485  0.8140 -2.4221
   29SOL    HW2   87   2.368   2.599   1.493  1.6314  2.0716 -4.4949
   30SOL     OW   88   1.341   0.448   0.034 -0.2037  0.5380 -0.0799
   30SOL    HW1   89   1.330   0.480   0.134 -1.6322  1.2413  0.8863
   30SOL    HW2   90   1.435   0.413   0.028 -0.1619 -1.7096 -1.6812
   31SOL     OW   91   2.437   2.742   1.530 -0.4911  0.3147 -0.3246
   31SOL    HW1   92   2.435   2.789   1.620 -0.4166 -1.1734 -3.6210
   31SOL    HW2   93   2.508   2.782   1.467  0.7085  2.2925 -1.6301
   32SOL     OW   94   0.802   1.667   1.348  0.1956  0.0030  0.0630
   32SOL    HW1   95   0.808   1.765   1.309  0.4972  0.4913  1.2994
   32SOL    HW2   96   0.845   1.599   1.290 -3.3342 -0.2540  2.7813
   33SOL     OW   97   0.511   2.831   2.331 -0.1085 -0.2898 -0.1018
   33SOL    HW1   98   0.547   2.735   2.345  1.9599  1.7704 -1.5371
   33SOL    HW2   99   0.593   2.885   2.329  0.6020 -1.1280  2.4393
   34SOL     OW  100   1.429   3.052   0.558 -0.3181 -0.1496  0.3213
   34SOL    HW1  101   1.352   0.013   0.593  0.1075 -1.4302  0.1248
   34SOL    HW2  102   1.505   3.049   0.625  0.2896 -0.4965 -4.2211
   35SOL     OW  103   1.983   0.046   0.824  0.2265 -0.2065  0.1435
   35SOL    HW1  104   1.917   3.095   0.772 -1.4844  1.4995 -0.9454
   35SOL    HW2  105   1.959   0.057   0.923  1.6070  1.0359  0.4528
   36SOL     OW  106   1.914   2.499   2.337 -0.4003  0.1169  0.0734
   36SOL    HW1  107   1.831   2.475   2.389 -0.6057 -0.6776  0.0038
   36SOL    HW2  108   1.969   2.421   2.314 -2.2154 -0.5201 -0.8508
   37SOL     OW  109   0.800   2.976   2.502  0.0031  0.4467  0.0205
   37SOL    HW1  110   0.777   2.995   2.406  0.8034  1.0879  2.5231
   37SOL    HW2  111   0.722   2.924   2.547  0.2004  1.5598  1.0310
   38SOL     OW  112   0.179   2.694   2.486  0.4606 -0.1467 -0.1781
   38SOL    HW1  113   0.260   2.632   2.487  0.9041  1.8783 -1.9288
   38SOL    HW2  114   0.198   2.766   2.419  1.7337  0.1760  0.1632
   39SOL     OW  115   2.494   1.244   1.999 -0.1540  0.4577 -0.3654
   39SOL    HW1  116   2.529   1.273   1.909  1.9625  0.1116  2.0831
   39SOL    HW2  117   2.469   1.324   2.052  1.4730  1.0361 -2.4556
   40SOL     OW  118   0.478   2.808   0.045  0.4212 -0.4441  0.0435
   40SOL    HW1  119   0.560   2.784   0.097 -1.0589 -0.9673  0.3104
   40SOL    HW2  120   0.487   2.756   3.063 -0.4312  1.5834  3.0871
   41SOL     OW  121   1.978   0.840   1.211 -0.0166 -0.4947  0.2134
   41SOL    HW1  122   2.021   0.759   1.173 -0.9546  0.3739  0.5845
   41SOL    HW2  123   1.990   0.919   1.152 -0.2820  0.0581  0.7381
   42SOL     OW  124   0.370   0.332   1.140 -0.1688  0.5690  0.6316
   42SOL    HW1  125   0.429   0.383   1.071  2.1629  1.2531 -2.5819
   42SOL    HW2  126   0.279   0.373   1.158 -0.1970  3.6729  3.0181
   43SOL     OW  127   2.639   1.372   2.879  0.0100  0.2581 -0.6595
   43SOL    HW1  128   2.672   1.276   2.899  1.0293 -0.6001 -2.1072
   43SOL    HW2  129   2.689   1.399   2.790  1.0630  3.1063 -0.5365
   44SOL     OW  130   3.009   2.969   0.721 -0.0142 -0.0153  0.5004
   44SOL    HW1  131   3.019   3.066   0.691  1.4751  1.2517 -3.3186
   44SOL    HW2  132   3.091   2.939   0.773  1.6997 -2.4846  1.2678
   45SOL     OW  133   3.101   2.785   1.352 -0.8972 -0.2061 -0.3180
   45SOL    HW1  134   0.024   2.814   1.446  1.3412  0.2169  2.2682
   45SOL    HW2  135   3.045   2.859   1.304  0.7118  0.9157  0.0033
   46SOL     OW  136   2.279   2.457   2.481 -0.3937  0.1162 -0.2934
   46SOL    HW1  137   2.274   2.358   2.446  0.2250 -0.0395 -0.0111
   46SOL    HW2  138   2.192   2.486   2.522 -0.7146  1.6748  0.0921
   47SOL     OW  139   2.121   1.991   1.196 -0.2961  0.6113 -0.1020
   47SOL    HW1  140   2.083   2.073   1.149  1.0240 -1.0238  3.0567
   47SOL    HW2  141   2.092   1.907   1.147  2.0548 -1.4719 -0.8921
   48SOL     OW  142   0.570   1.560   0.116 -0.7145  0.2380  0.3567
   48SOL    HW1  143   0.627   1.534   0.039 -3.2865 -1.7472 -0.8571
   48SOL    HW2  144   0.590   1.492   0.189  1.7966  0.0765 -2.2104
   49SOL     OW  145   0.065   0.226   2.633 -0.1806 -0.5361 -0.0145
   49SOL    HW1  146   0.002   0.229   2.547 -3.2203  0.6972 -1.1115
   49SOL    HW2  147   0.165   0.229   2.609 -1.1518  1.4495  0.6920
   50SOL     OW  148   2.253   0.732   0.275 -0.0680  0.8078  0.3086
   50SOL    HW1  149   2.152   0.749   0.279 -0.3402 -1.0907  0.5916
   50SOL    HW2  150   2.282   0.674   0.195  0.5145 -0.1183  1.8042
   51SOL     OW  151   2.303   0.867   1.010  0.0416  0.2784  0.2734
   51SOL    HW1  152   2.377   0.852   1.077  1.7932  0.9933 -0.8402
   51SOL    HW2  153   2.348   0.917   0.936 -1.3525  0.3545  1.3633
   52SOL     OW  154   1.194   1.124   2.694 -0.6729  0.3018 -0.0342
   52SOL    HW1  155   1.222   1.144   2.599 -0.3011 -1.1236  2.4259
   52SOL    HW2  156   1.254   1.053   2.731  1.6109  0.3045  0.5677
   53SOL     OW  157   0.613   1.671   1.873  0.5696 -0.1525 -0.5804
   53SOL    HW1  158   0.549   1.618   1.817  0.0637  0.2143 -1.3518
   53SOL    HW2  159   0.707   1.678   1.832  0.3614  2.1641 -0.9466
   54SOL     OW  160   2.017   0.390   1.052  0.4795  0.2977  0.4358
   54SOL    HW1  161   2.066   0.343   0.978 -1.4233  0.2985  1.3236
   54SOL    HW2  162   2.060   0.478   1.068 -0.9818 -1.2722 -4.5408
   55SOL     OW  163   2.458   2.305   1.090 -0.0792 -0.2579 -0.1347
   55SOL    HW1  164   2.401   2.227   1.115 -2.5685  0.1840 -0.1473
   55SOL    HW2  165   2.557   2.287   1.072  3.3872  0.4080 -2.3398
   56SOL     OW  166   1.030   0.037   1.784  0.1969  0.1351  0.4678
   56SOL    HW1  167   1.108   0.041   1.850  2.5771 -0.4041 -0.2779
   56SOL    HW2  168   1.060   0.087   1.698  0.9326  1.3591  1.2266
   57SOL     OW  169   1.705   1.432   0.131 -0.0808 -0.6069 -0.3896
   57SOL    HW1  170   1.695   1.358   0.203  0.2318 -0.7875 -0.3715
   57SOL    HW2  171   1.788   1.492   0.150 -0.4110  1.4006  1.5847
   58SOL     OW  172   0.045   0.834   2.404 -0.3245  0.0107  0.2286
   58SOL    HW1  173   0.110   0.905   2.439 -0.3148 -0.5629  2.0183
   58SOL    HW2  174   0.071   0.744   2.445 -2.9602 -0.4594  0.6339
   59SOL     OW  175   0.850   2.554   2.721  0.3530  0.1308 -0.7509
   59SOL    HW1  176   0.883   2.644   2.755 -1.7393 -0.3556 -0.0520
   59SOL    HW2  177   0.924   2.496   2.697 -2.3737  0.3433 -1.1598
   60SOL     OW  178   2.545   2.353   0.731 -0.2370  0.0565  0.0151
   60SOL    HW1  179   2.538   2.452   0.745  0.1274  1.7038  1.8078
   60SOL    HW2  180   2.591   2.321   0.649  0.2900  0.6898  0.7306
   61SOL     OW  181   1.102   2.079   0.897  0.2165  0.2340 -0.0232
   61SOL    HW1  182   1.063   2.162   0.848 -0.0026 -1.6436  1.6852
   61SOL    HW2  183   1.112   1.998   0.835  0.6633  0.7347  0.4494
   62SOL     OW  184   2.196   1.981   2.583  0.1661 -0.1375 -0.0197
   62SOL    HW1  185   2.215   2.043   2.663  0.1271  0.3078 -0.3237
   62SOL    HW2  186   2.256   1.900   2.587  1.2210  2.3918 -0.8867
   63SOL     OW  187   2.270   2.781   2.967 -0.3259  0.0261  0.2796
   63SOL    HW1  188   2.206   2.707   2.958 -0.0031  0.1778 -2.5254
   63SOL    HW2  189   2.282   2.818   2.872 -0.6080  0.6589 -0.5788
   64SOL     OW  190   1.197   0.793   2.617 -0.2199  0.5466  0.5467
   64SOL    HW1  191   1.124   0.827   2.550 -0.2848  0.0709 -2.7400
   64SOL    HW2  192   1.288   0.786   2.573 -0.7804  0.1480 -1.7730
   65SOL     OW  193   1.336   2.534   0.079  0.1889 -0.2405  0.5248
   65SOL    HW1  194   1.270   2.606   0.048 -0.3087 -0.7369  2.4138
   65SOL    HW2  195   1.401   2.575   0.143 -0.9487 -0.6325  0.4675
   66SOL     OW  196   0.257   1.385   1.688  0.0922 -0.2351  0.0264
   66SOL    HW1  197   0.225   1.298   1.724 -1.6240 -1.4020  1.9201
   66SOL    HW2  198   0.175   1.446   1.669  1.8533 -0.5657 -0.4335
   67SOL     OW  199   2.826   2.741   2.872  0.4322  0.5346  0.2775
   67SOL    HW1  200   2.745   2.700   2.825  1.1202 -1.4978 -1.8861
   67SOL    HW2  201   2.875   2.808   2.808 -0.1862  0.5632 -0.3814
   68SOL     OW  202   0.809   2.486   1.595 -0.1023 -0.0775  0.0593
   68SOL    HW1  203   0.772   2.394   1.580 -0.3602 -0.5732  3.5740
   68SOL    HW2  204   0.833   2.524   1.503 -1.5529  0.9215 -1.2646
   69SOL     OW  205   0.507   2.322   0.492  0.1823  0.5154  0.3681
   69SOL    HW1  206   0.596   2.367   0.472 -2.3089  0.9958  0.2600
   69SOL    HW2  207   0.515   2.259   0.573  0.6355 -0.9400  0.3681
   70SOL     OW  208   2.528   1.005   2.656 -0.2203  0.0208 -0.2111
   70SOL    HW1  209   2.625   0.997   2.633 -0.6926 -0.5883  1.8456
   70SOL    HW2  210   2.499   0.915   2.697  0.2748  0.9151  0.3005
   71SOL     OW  211   0.638   1.096   2.449  0.2748  0.5426  0.5447
   71SOL    HW1  212   0.620   1.056   2.357  2.3550 -3.7544 -1.3640
   71SOL    HW2  213   0.583   1.178   2.469  1.4700 -1.4131  0.7848
   72SOL     OW  214   0.332   2.113   0.375 -0.0129 -0.0095 -0.3575
   72SOL    HW1  215   0.352   2.200   0.422  0.4397 -0.4678 -1.4481
   72SOL    HW2  216   0.271   2.135   0.296 -0.3134  1.5918 -2.5981
   73SOL     OW  217   1.052   1.391   0.207  0.0656  0.3988  0.2617
   73SOL    HW1  218   0.981   1.442   0.258  0.3287  0.8380  0.2759
   73SOL    HW2  219   1.123   1.365   0.272  0.0920  2.3409 -2.6582
   74SOL     OW  220   2.589   2.994   0.111 -0.1516  0.4906 -0.2795
   74SOL    HW1  221   2.555   2.916   0.052 -2.7727 -1.8271  0.1810
   74SOL    HW2  222   2.516   3.048   0.153  1.5522  0.5742  2.5374
   75SOL     OW  223   2.258   1.581   2.036  0.3374 -0.2971  0.5101
   75SOL    HW1  224   2.190   1.577   1.961  2.5164 -1.5055  0.1570
   75SOL    HW2  225   2.323   1.658   2.027  0.1967 -0.0321  1.1174
   76SOL     OW  226   2.027   2.624   1.701 -0.7556  0.6087 -0.3427
   76SOL    HW1  227   1.924   2.613   1.714  2.1898 -0.8852 -0.8094
   76SOL    HW2  228   2.060   2.652   1.610  2.5501 -1.2512 -0.3547
   77SOL     OW  229   2.320   0.554   1.238 -0.1689  0.6769 -0.3980
   77SOL    HW1  230   2.363   0.463   1.208 -1.6978 -1.7843 -0.1108
   77SOL    HW2  231   2.359   0.583   1.326  0.3544 -1.6785 -0.6420
   78SOL     OW  232   1.970   1.006   2.922 -0.1766  0.4482 -0.2330
   78SOL    HW1  233   1.992   0.961   3.008 -2.2196  2.6229 -1.0866
   78SOL    HW2  234   1.872   1.016   2.908  0.8816 -0.5605 -0.7882
   79SOL     OW  235   0.384   1.400   2.162 -0.9160  0.0648 -0.3546
   79SOL    HW1  236   0.328   1.477   2.132 -0.6247 -0.6722 -0.9281
   79SOL    HW2  237   0.344   1.314   2.123  0.1048  0.4321 -2.0127
   80SOL     OW  238   1.749   0.917   1.356 -0.2970 -0.2356  0.4378
   80SOL    HW1  239   1.832   0.876   1.309  1.0292 -0.1228  0.2816
   80SOL    HW2  240   1.687   0.844   1.398 -1.8096 -2.0303  1.7898
   81SOL     OW  241   1.238   0.440   1.374 -0.2786  0.3766  0.4480
   81SOL    HW1  242   1.195   0.353   1.341 -2.3711  0.4429  2.7184
   81SOL    HW2  243   1.183   0.513   1.332 -0.7239  0.4267 -1.0256
   82SOL     OW  244   1.473   2.348   1.784 -0.5784  0.3418  0.2778
   82SOL    HW1  245   1.448   2.333   1.685 -1.8500  1.0506 -2.0942
   82SOL    HW2  246   1.546   2.284   1.814 -0.7019  0.9328 -1.2976
   83SOL     OW  247   0.723   3.079   0.937  0.4084 -0.9052 -0.0541
   83SOL    HW1  248   0.786   3.073   1.018  3.2734  1.7842 -1.1833
   83SOL    HW2  249   0.666   0.061   0.941  2.1134  2.0917 -1.4948
   84SOL     OW  250   0.163   0.910   2.873 -0.0557  0.3152  0.1533
   84SOL    HW1  251   0.244   0.873   2.827 -2.8464 -0.8698  1.2441
   84SOL    HW2  252   0.177   1.007   2.901 -1.1026 -0.5333 -0.4706
   85SOL     OW  253   2.738   2.380   1.596  0.1894 -0.4225  0.3304
   85SOL    HW1  254   2.771   2.462   1.541 -0.0985  1.5974 -0.1965
   85SOL    HW2  255   2.663   2.409   1.659  2.7009 -1.0184  0.1237
   86SOL     OW  256   2.861   2.601   1.492  0.2759  0.8891 -0.0200
   86SOL    HW1  257   2.887   2.685   1.540  0.4338 -1.1038 -0.2188
   86SOL    HW2  258   2.946   2.559   1.452 -2.0121  1.5882  1.7929
   87SOL     OW  259   0.209   2.886   0.043 -0.4138 -0.1510 -0.3275
   87SOL    HW1  260   0.301   2.846   0.035  0.5360  0.5109 -1.4479
   87SOL    HW2  261   0.140   2.832   3.092  0.1896 -0.1278  1.3933
   88SOL     OW  262   0.278   2.077   1.095 -0.1644  0.1822 -0.1960
   88SOL    HW1  263   0.237   2.162   1.053 -2.4903 -0.4668 -0.2748
   88SOL    HW2  264   0.215   2.000   1.082 -4.1156  1.6946  1.5113
   89SOL     OW  265   1.079   0.763   1.822 -0.2001 -0.3018 -0.0988
   89SOL    HW1  266   1.012   0.747   1.747  1.5554  2.4874 -1.7795
   89SOL    HW2  267   1.139   0.684   1.845  1.1391  1.3283  0.5280
   90SOL     OW  268   2.829   1.663   2.029  0.2762  0.2358 -0.0893
   90SOL    HW1  269   2.823   1.624   2.121 -2.7641 -0.1621 -5.2634
   90SOL    HW2  270   2.774   1.752   2.026 -1.6583 -2.6048 -3.2090
   91SOL     OW  271   1.557   1.816   0.853 -0.2223 -0.3598  0.0257
   91SOL    HW1  272   1.486   1.779   0.920 -0.2080 -0.6040 -0.9084
   91SOL    HW2  273   1.519   1.902   0.814 -0.3809 -1.4385 -0.8328
   92SOL     OW  274   2.123   0.658   1.092 -0.0495  0.2999  0.1156
   92SOL    HW1  275   2.175   0.736   1.051  1.4649 -0.9928 -2.2434
   92SOL    HW2  276   2.189   0.600   1.144 -2.0468  1.3421  0.9325
   93SOL     OW  277   2.447   1.649   3.032 -0.3177 -0.3392  0.3538
   93SOL    HW1  278   2.441   1.649   2.930 -1.0241  1.3274 -3.0711
   93SOL    HW2  279   2.426   1.554   3.064  0.9784 -2.0063 -0.8894
   94SOL     OW  280   2.263   2.200   2.406 -0.1221  0.0695  0.1451
   94SOL    HW1  281   2.255   2.111   2.457  0.2727  1.1222  1.7497
   94SOL    HW2  282   2.302   2.184   2.314 -4.5283  0.3976  2.0306
   95SOL     OW  283   1.748   0.505   1.100  0.4575 -0.0379  0.1440
   95SOL    HW1  284   1.772   0.599   1.062  0.0204  2.6759  0.1578
   95SOL    HW2  285   1.838   0.456   1.116 -2.0094  0.2372 -1.5112
   96SOL     OW  286   2.694   2.987   1.651  0.5057 -0.0815 -0.1489
   96SOL    HW1  287   2.676   3.008   1.550  1.6862  2.2872 -1.2567
   96SOL    HW2  288   2.616   3.033   1.699 -0.6736 -1.5696 -0.2129
   97SOL     OW  289   2.063   3.007   1.255  0.3672 -0.3418 -0.1406
   97SOL    HW1  290   2.007   2.965   1.180  1.5828  3.3901  1.2045
   97SOL    HW2  291   2.005   3.062   1.315  0.6141 -2.2878 -0.7149
   98SOL     OW  292   1.426   2.365   1.513  0.3342  0.7465 -0.2667
   98SOL    HW1  293   1.512   2.420   1.504  0.9191  1.0283 -1.3521
   98SOL    HW2  294   1.434   2.273   1.466  2.5294 -2.0089  0.9222
   99SOL     OW  295   2.557   2.743   2.012 -0.4497 -0.3631 -0.3426
   99SOL    HW1  296   2.545   2.817   2.082  1.5409 -2.6352  1.2626
   99SOL    HW2  297   2.655   2.741   1.981  1.3080  0.0495 -1.7341
  100SOL     OW  298   0.372   0.937   2.673  0.3844  0.3614  0.2318
  100SOL    HW1  299   0.410   0.980   2.758  0.0037 -0.0268 -0.8857
  100SOL    HW2  300   0.411   0.841   2.652 -0.5956 -1.8136 -0.5700
  101SOL     OW  301   2.048   0.796   0.030  0.1618 -0.4785 -0.4577
  101SOL    HW1  302   1.989   0.804   0.115 -1.1964  0.3197 -0.2104
  101SOL    HW2  303   2.023   0.715   3.084 -1.6757  2.0164  2.0206
  102SOL     OW  304   0.263   0.465   1.640 -0.0405  0.4642 -0.3459
  102SOL    HW1  305   0.300   0.503   1.731  0.7388  1.1460  3.0074
  102SOL    HW2  306   0.290   0.369   1.628 -1.3916  0.4830  0.0560
  103SOL     OW  307   2.986   1.028   2.292 -0.0172 -0.1240  0.7595
  103SOL    HW1  308   3.043   0.949   2.329  1.1036  0.7842 -0.5006
  103SOL    HW2  309   2.890   1.006   2.310  0.3797  1.2073 -0.4019
  104SOL     OW  310   0.336   0.275   2.600  0.1509  0.3961 -0.1116
  104SOL    HW1  311   0.429   0.241   2.583 -1.3876 -0.0199  0.4511
  104SOL    HW2  312   0.315   0.353   2.543  2.7354 -2.1187  1.9634
  105SOL     OW  313   2.022   2.014   1.461  0.1118  0.6278 -0.3541
  105SOL    HW1  314   1.957   1.933   1.469 -1.9402 -3.4857 -1.2422
  105SOL    HW2  315   2.069   2.018   1.372  0.2576 -0.0769  3.6391
  106SOL     OW  316   1.836   0.228   0.542 -0.4736 -0.6553  0.4417
  106SOL    HW1  317   1.875   0.141   0.503 -1.6064 -1.6967  1.5465
  106SOL    HW2  318   1.898   0.305   0.544 -0.1738 -3.0324 -0.7914
  107SOL     OW  319   0.066   1.850   1.721 -0.1333  0.5207 -0.5623
  107SOL    HW1  320   0.130   1.929   1.735 -1.0872 -3.0994  3.5700
  107SOL    HW2  321   0.020   1.842   1.636  0.1407  0.0656  3.0397
  108SOL     OW  322   2.809   2.744   1.950 -0.3427 -1.0074 -0.0477
  108SOL    HW1  323   2.847   2.757   1.855 -1.0779  0.8870 -1.2235
  108SOL    HW2  324   2.872   2.710   2.023 -1.4095 -0.2478  2.3580
  109SOL     OW  325   1.565   0.215   0.496  0.5216  0.1071 -0.1367
  109SOL    HW1  326   1.663   0.233   0.523  0.2178  2.1937  0.3662
  109SOL    HW2  327   1.554   0.119   0.527 -1.1320  1.4909  1.9946
  110SOL     OW  328   0.430   2.153   2.256  0.0953 -0.5064 -0.3609
  110SOL    HW1  329   0.359   2.199   2.310 -0.9079 -1.4321  0.0775
  110SOL    HW2  330   0.437   2.053   2.270  0.2330 -1.4254 -1.3909
  111SOL     OW  331   1.548   2.275   2.271  0.4611 -0.2571 -0.6126
  111SOL    HW1  332   1.615   2.216   2.226 -1.1695  0.1072  0.6269
  111SOL    HW2  333   1.462   2.223   2.304 -2.3973 -0.3061 -1.0026
  112SOL     OW  334   1.697   2.643   2.632  0.4435 -0.0414  0.0206
  112SOL    HW1  335   1.706   2.647   2.732 -1.6140 -1.9669 -0.0489
  112SOL    HW2  336   1.733   2.551   2.603 -0.6421  0.6201 -0.4721
  113SOL     OW  337   1.703   2.526   1.527 -0.1931 -0.3321 -0.0905
  113SOL    HW1  338   1.763   2.439   1.545  3.0266 -2.5933  3.0153
  113SOL    HW2  339   1.732   2.598   1.596 -0.7434  1.0761  1.4994
  114SOL     OW  340   2.769   0.643   0.774  0.2784  0.2745 -0.5927
  114SOL    HW1  341   2.816   0.730   0.762 -0.2577 -2.4514 -0.8996
  114SOL    HW2  342   2.748   0.603   0.682  0.8662  1.5625 -0.3264
  115SOL     OW  343   0.462   0.994   2.941 -0.2292 -0.5654  0.2993
  115SOL    HW1  344   0.484   1.092   2.974  0.0087  2.1423 -0.8100
  115SOL    HW2  345   0.530   0.924   2.969  0.8821  1.9780 -0.8756
  116SOL     OW  346   3.043   1.315   2.254 -0.5204  0.4590 -0.0498
  116SOL    HW1  347   3.059   1.265   2.167 -0.7445  0.3937 -0.5337
  116SOL    HW2  348   3.006   1.247   2.318  2.1448 -2.9257  2.8566
  117SOL     OW  349   2.570   2.983   0.618 -0.0514  0.1561  0.1995
  117SOL    HW1  350   2.641   2.968   0.686  0.4569 -0.7311 -1.5676
  117SOL    HW2  351   2.596   2.949   0.528  1.0313  0.4824  0.2114
  118SOL     OW  352   1.202   1.889   1.650  0.0749 -0.1558 -0.1031
  118SOL    HW1  353   1.183   1.822   1.575 -0.0822 -2.2120 -3.0604
  118SOL    HW2  354   1.296   1.934   1.647  1.4474 -0.3171  0.7537
  119SOL     OW  355   0.814   2.194   2.757 -0.3436 -0.7861  0.1432
  119SOL    HW1  356   0.886   2.229   2.819 -0.8733  3.1335  1.5732
  119SOL    HW2  357   0.727   2.239   2.784 -0.4719 -1.7911  0.9467
  120SOL     OW  358   0.621   0.766   2.980  0.2569 -0.1032 -0.0896
  120SOL    HW1  359   0.568   0.709   2.918  1.4899 -1.0462 -0.6928
  120SOL    HW2  360   0.707   0.793   2.928 -0.5516 -0.9289  0.2723
  121SOL     OW  361   1.725   2.501   1.107 -0.7661 -0.7408  0.4434
  121SOL    HW1  362   1.762   2.585   1.054 -2.9356  1.9272 -1.5982
  121SOL    HW2  363   1.681   2.429   1.047 -1.0239  1.8418 -1.1623
  122SOL     OW  364   2.299   2.372   1.738 -0.3885 -0.1906  0.0627
  122SOL    HW1  365   2.262   2.405   1.828 -0.8510  2.2479  2.8190
  122SOL    HW2  366   2.253   2.288   1.697 -0.6773 -2.9972  0.5078
  123SOL     OW  367   0.234   2.773   0.495  0.2421 -0.2092  0.3152
  123SOL    HW1  368   0.327   2.731   0.486 -1.6650  1.3287  0.9201
  123SOL    HW2  369   0.215   2.829   0.411 -2.7827 -0.9807  0.8418
  124SOL     OW  370   2.146   1.242   2.738  0.6782  0.4465 -0.1918
  124SOL    HW1  371   2.226   1.294   2.771  0.3974  1.0158  0.8914
  124SOL    HW2  372   2.165   1.141   2.741 -0.1061 -0.2065  0.7896
  125SOL     OW  373   0.525   0.966   0.573 -0.6164 -0.3345  0.4344
  125SOL    HW1  374   0.595   0.971   0.649  1.9448 -0.3657  1.1369
  125SOL    HW2  375   0.503   1.062   0.547  0.2965  0.1487  1.9534
  126SOL     OW  376   2.844   1.801   0.812  0.6221 -0.5800 -0.1597
  126SOL    HW1  377   2.877   1.875   0.751 -1.1212  0.8590  0.7718
  126SOL    HW2  378   2.805   1.837   0.903 -0.9430 -2.7319  0.7884
  127SOL     OW  379   0.014   2.214   1.828  0.2348 -0.1916 -0.3375
  127SOL    HW1  380   0.092   2.180   1.780  1.9690 -0.5312  1.7912
  127SOL    HW2  381   0.001   2.163   1.910 -1.4761 -1.1018  0.0328
  128SOL     OW  382   0.901   0.839   0.126  0.0582 -0.0537  0.3691
  128SOL    HW1  383   0.914   0.780   0.207 -1.6511  1.4360 -0.3884
  128SOL    HW2  384   0.802   0.841   0.095  1.4583  2.6084 -1.3427
  129SOL     OW  385   2.431   1.160   0.926 -0.4136  0.1237 -0.3088
  129SOL    HW1  386   2.501   1.231   0.920 -1.9249  0.8759 -1.9127
  129SOL    HW2  387   2.398   1.122   0.835 -0.3880 -0.1630 -0.4334
  130SOL     OW  388   2.313   1.071   1.412 -0.1732  0.7317  0.0953
  130SOL    HW1  389   2.376   1.125   1.475  1.9421  0.8745  3.3431
  130SOL    HW2  390   2.321   1.097   1.313  0.6710  1.2575 -0.8884
  131SOL     OW  391   2.832   3.032   0.004  0.3622 -0.1094  0.2122
  131SOL    HW1  392   2.851   2.942   3.064 -0.7587 -0.5071  1.1321
  131SOL    HW2  393   2.748   3.041   0.056 -0.7173 -1.1065  2.0157
  132SOL     OW  394   2.894   2.182   1.684  0.4088 -0.8684 -0.3605
  132SOL    HW1  395   2.830   2.255   1.653 -0.9190 -2.5735 -0.8522
  132SOL    HW2  396   2.972   2.220   1.738  3.1792  0.0934  1.3561
  133SOL     OW  397   1.086   0.659   1.269 -0.1849  0.7116  0.2505
  133SOL    HW1  398   1.080   0.634   1.168 -1.7044 -0.1576 -0.5298
  133SOL    HW2  399   0.996   0.657   1.308  0.6789  0.1484 -0.2323
  134SOL     OW  400   0.068   1.169   0.378  0.7517 -0.2198  0.6451
  134SOL    HW1  401   3.093   1.200   0.323  1.7380  0.6198 -0.6834
  134SOL    HW2  402   0.143   1.128   0.324 -0.8696 -0.5167  0.5856
  135SOL     OW  403   2.149   1.035   1.623  0.0169  0.6865 -0.0476
  135SOL    HW1  404   2.185   1.071   1.709  0.9971  1.9004 -0.2429
  135SOL    HW2  405   2.220   1.044   1.549  3.3397 -0.7328  0.2969
  136SOL     OW  406   3.023   0.897   0.517 -0.3610 -0.0410 -0.8523
  136SOL    HW1  407   2.930   0.906   0.562 -0.4746  0.0423 -0.7826
  136SOL    HW2  408   3.099   0.898   0.585 -0.7448 -1.0518 -0.4925
  137SOL     OW  409   2.570   1.294   1.280  0.3782 -0.0447  0.3426
  137SOL    HW1  410   2.655   1.273   1.229 -0.2619 -3.1254  0.5424
  137SOL    HW2  411   2.500   1.236   1.240 -0.1393  2.5522  0.3982
  138SOL     OW  412   1.982   0.817   1.676 -0.7236 -0.4286 -0.4145
  138SOL    HW1  413   2.028   0.908   1.664 -1.4756  1.6842 -1.4925
  138SOL    HW2  414   2.017   0.748   1.607 -0.0776 -0.0732 -1.4424
  139SOL     OW  415   2.002   0.139   3.074 -0.1666  0.6829  0.2283
  139SOL    HW1  416   2.092   0.092   3.078 -0.6981  0.3010 -0.7937
  139SOL    HW2  417   1.937   0.097   0.040 -1.1230  1.0636  1.6119
  140SOL     OW  418   1.472   1.986   1.935  0.0030 -0.2544 -0.3185
  140SOL    HW1  419   1.376   1.984   1.961  0.7469  0.1307 -0.4876
  140SOL    HW2  420   1.518   1.907   1.981  0.7688 -0.4345 -0.5748
  141SOL     OW  421   1.746   2.082   0.739  0.5402  0.0446  0.3117
  141SOL    HW1  422   1.837   2.058   0.701 -1.5381 -0.3931  2.2697
  141SOL    HW2  423   1.749   2.176   0.774 -0.1152 -0.1387  0.5147
  142SOL     OW  424   0.349   0.822   0.221  0.1761 -0.2313  0.2520
  142SOL    HW1  425   0.426   0.758   0.243 -0.7996  0.6133 -1.3745
  142SOL    HW2  426   0.299   0.795   0.135 -0.7390 -0.1125  0.9007
  143SOL     OW  427   0.318   2.216   2.788 -0.4797 -0.4525 -0.5044
  143SOL    HW1  428   0.220   2.237   2.785 -1.0642 -0.3240 -1.0525
  143SOL    HW2  429   0.334   2.113   2.785 -0.2197  1.3517 -0.9649
  144SOL     OW  430   1.356   0.129   1.455 -0.2820  0.1199 -0.5924
  144SOL    HW1  431   1.275   0.173   1.502 -3.8197  2.5667  2.2070
  144SOL    HW2  432   1.327   0.096   1.362  0.2572  2.1583 -2.0676
  145SOL     OW  433   2.394   1.493   0.437 -0.2429  0.1346 -0.5304
  145SOL    HW1  434   2.395   1.556   0.358  1.5371 -4.3086  1.0929
  145SOL    HW2  435   2.490   1.479   0.462 -1.9326  1.4374  0.4293
  146SOL     OW  436   2.441   2.375   0.223  0.1982 -0.5483 -0.0220
  146SOL    HW1  437   2.495   2.403   0.143  0.4121 -2.6830  2.2877
  146SOL    HW2  438   2.357   2.331   0.195  0.8080 -0.0056  0.5246
  147SOL     OW  439   2.017   2.677   1.263  0.5429  0.0437 -0.3790
  147SOL    HW1  440   2.047   2.647   1.171  1.0481  0.1658 -1.6094
  147SOL    HW2  441   1.930   2.728   1.260  0.0031 -0.2285 -2.5461
  148SOL     OW  442   1.562   2.748   2.279 -0.0597 -0.2188 -0.0893
  148SOL    HW1  443   1.636   2.776   2.339  0.3497  0.2854 -0.2110
  148SOL    HW2  444   1.574   2.794   2.187 -0.6434 -0.3778 -0.0811
  149SOL     OW  445   1.334   0.515   2.364  0.5461  0.7629 -0.1901
  149SOL    HW1  446   1.405   0.484   2.296  0.5035 -0.5720 -0.9238
  149SOL    HW2  447   1.366   0.599   2.415 -0.3769 -2.9690 -1.7234
  150SOL     OW  448   0.655   2.616   0.235 -0.2013 -0.0433  0.7595
  150SOL    HW1  449   0.750   2.597   0.200 -2.2432 -0.0130  1.6346
  150SOL    HW2  450   0.636   2.550   0.309 -0.6503 -1.5782  0.7680
  151SOL     OW  451   0.157   1.469   0.115 -0.4209  0.2826  0.6408
  151SOL    HW1  452   0.064   1.467   0.150 -0.9293 -2.3493 -1.2850
  151SOL    HW2  453   0.196   1.561   0.119  0.5418  0.6979 -0.3576
  152SOL     OW  454   2.986   0.139   0.695 -0.0814 -0.1365  0.1440
  152SOL    HW1  455   3.070   0.186   0.726 -0.4303  1.3976 -0.5360
  152SOL    HW2  456   2.924   0.204   0.646 -0.4377  1.1933 -0.1495
  153SOL     OW  457   2.236   3.057   0.838  0.4304 -0.2077  0.3307
  153SOL    HW1  458   2.135   3.083   0.839 -2.7182  2.0011 -1.0750
  153SOL    HW2  459   2.266   3.032   0.743 -0.1533 -1.9675  1.4079
  154SOL     OW  460   1.024   0.435   1.679  0.3355 -0.7965 -0.5355
  154SOL    HW1  461   1.018   0.389   1.768  1.3221  1.5516  0.1193
  154SOL    HW2  462   1.119   0.469   1.658  0.0706  1.2824  3.3916
  155SOL     OW  463   2.615   1.339   0.962 -0.3921 -0.5021  0.1183
  155SOL    HW1  464   2.658   1.322   1.055 -1.1123  0.4188  1.1384
  155SOL    HW2  465   2.654   1.427   0.922 -2.0219  0.3844  0.0775
  156SOL     OW  466   2.453   2.004   0.141  0.1624 -0.0225 -0.4390
  156SOL    HW1  467   2.364   1.980   0.102 -0.8965  0.2233  0.9653
  156SOL    HW2  468   2.534   1.944   0.114  3.0981 -0.8963  2.4296
  157SOL     OW  469   0.940   2.992   0.574  0.3628 -0.0343 -0.5490
  157SOL    HW1  470   0.989   2.900   0.556  0.6314 -1.1526 -1.6661
  157SOL    HW2  471   0.841   2.979   0.578  1.0760 -3.0805  4.0271
  158SOL     OW  472   2.389   0.390   2.678  0.1803  0.8515 -0.6825
  158SOL    HW1  473   2.469   0.442   2.647 -5.1053 -0.4369  1.0792
  158SOL    HW2  474   2.337   0.362   2.598 -0.3270 -0.5907 -0.5445
  159SOL     OW  475   0.464   2.991   0.285 -0.0075 -0.1235 -0.0188
  159SOL    HW1  476   0.446   2.926   0.209  0.5302 -0.3121 -0.6691
  159SOL    HW2  477   0.385   3.061   0.296  1.7130 -0.5323 -0.0636
  160SOL     OW  478   1.246   2.120   0.104  0.0140 -0.5005 -0.3182
  160SOL    HW1  479   1.298   2.200   0.056 -2.3156  0.6922  0.8605
  160SOL    HW2  480   1.149   2.109   0.065 -0.0461 -2.1143 -0.4483
  161SOL     OW  481   2.722   1.821   2.360  0.2675  0.2204 -0.5340
  161SOL    HW1  482   2.762   1.905   2.321  0.2010 -1.7466 -0.9510
  161SOL    HW2  483   2.623   1.818   2.350  0.2026  0.4121 -1.3702
  162SOL     OW  484   0.236   2.807   1.213  0.3002  0.1781  0.1803
  162SOL    HW1  485   0.316   2.797   1.277 -2.1595 -2.9686 -0.5983
  162SOL    HW2  486   0.143   2.794   1.254 -0.9100 -0.3560  1.6076
  163SOL     OW  487   2.177   0.443   2.827 -0.0856  0.2065  0.2947
  163SOL    HW1  488   2.119   0.359   2.836 -1.5411 -0.3209  0.6005
  163SOL    HW2  489   2.253   0.427   2.759  2.1548 -1.4006 -0.2493
  164SOL     OW  490   2.884   1.540   0.728  0.1736 -0.2591 -0.2346
  164SOL    HW1  491   2.941   1.548   0.644  1.7877  0.2762  0.9776
  164SOL    HW2  492   2.883   1.632   0.774  1.0211 -2.1205  2.4942
  165SOL     OW  493   2.876   0.112   1.896 -0.1205 -0.3356 -0.4734
  165SOL    HW1  494   2.824   0.040   1.949 -0.0807 -1.4700 -1.1811
  165SOL    HW2  495   2.819   0.191   1.867  1.3212  1.1331  1.5407
  166SOL     OW  496   2.174   0.656   0.518 -0.2587  0.2344  0.0157
  166SOL    HW1  497   2.118   0.741   0.546  2.0467 -0.1593  1.7090
  166SOL    HW2  498   2.214   0.669   0.426 -0.0154 -1.3056  0.2241
  167SOL     OW  499   0.439   0.345   0.447  0.2192 -0.2846  0.4550
  167SOL    HW1  500   0.371   0.415   0.415  0.4599 -0.3816 -0.0402
  167SOL    HW2  501   0.441   0.342   0.549 -0.9357 -0.0744  0.4313
  168SOL     OW  502   1.926   2.764   2.225 -0.2877 -0.3056  0.6352
  168SOL    HW1  503   1.949   2.666   2.234  0.6100  0.3903  2.4499
  168SOL    HW2  504   1.872   2.789   2.307  2.3330 -0.7285 -2.7157
  169SOL     OW  505   0.979   1.106   0.676  0.0641  0.0985  0.4132
  169SOL    HW1  506   0.954   1.048   0.595 -0.8291  0.3103  1.0365
  169SOL    HW2  507   0.909   1.182   0.696 -1.5971  0.9570 -1.4649
  170SOL     OW  508   2.860   0.645   1.492 -0.1143  0.0473 -0.2136
  170SOL    HW1  509   2.828   0.616   1.396  0.1371 -1.8702 -0.9173
  170SOL    HW2  510   2.808   0.594   1.563 -2.3026  0.3202  1.2809
  171SOL     OW  511   1.028   2.859   1.741  0.2452 -0.6486  0.2464
  171SOL    HW1  512   1.087   2.837   1.665  0.3328  2.4430 -0.8130
  171SOL    HW2  513   1.003   2.955   1.739  1.8955 -0.4357  0.7870
  172SOL     OW  514   0.367   2.418   1.590 -0.4280 -0.3762 -0.2459
  172SOL    HW1  515   0.274   2.377   1.573 -0.2866 -0.5260 -0.0512
  172SOL    HW2  516   0.447   2.354   1.594  2.1955 -1.6267 -1.0504
  173SOL     OW  517   1.116   0.529   2.834  0.3744 -0.2418 -0.4776
  173SOL    HW1  518   1.124   0.507   2.736  3.0601  0.9912 -1.0570
  173SOL    HW2  519   1.198   0.582   2.865  2.6010 -2.1217  0.3424
  174SOL     OW  520   1.869   3.057   2.530  0.2259 -0.1548 -0.2579
  174SOL    HW1  521   1.792   0.018   2.562 -3.4037  0.1050 -1.3590
  174SOL    HW2  522   1.957   3.078   2.576 -2.0440 -0.2068  3.6206
  175SOL     OW  523   1.761   2.637   0.122  0.1910  0.0238 -0.0301
  175SOL    HW1  524   1.756   2.581   0.207 -4.8689  1.5970 -0.6875
  175SOL    HW2  525   1.679   2.693   0.105 -0.1457 -0.7494 -1.5451
  176SOL     OW  526   1.692   0.366   2.829  0.4160  0.3106  0.1151
  176SOL    HW1  527   1.709   0.442   2.891 -1.1487 -0.7759  3.0622
  176SOL    HW2  528   1.723   0.387   2.735  1.4456 -1.2031 -2.6741
  177SOL     OW  529   0.838   1.528   0.388  0.1032  0.2491  0.3244
  177SOL    HW1  530   0.834   1.535   0.491  0.7901 -0.7962  1.2602
  177SOL    HW2  531   0.792   1.614   0.351  1.1032  2.7428 -1.0562
  178SOL     OW  532   2.951   2.173   2.406 -0.1064  0.1926  0.4829
  178SOL    HW1  533   3.026   2.192   2.342 -0.8056 -1.5244  1.2268
  178SOL    HW2  534   2.993   2.140   2.491  0.5684  2.9735 -3.6210
  179SOL     OW  535   0.400   2.540   2.498 -0.1538 -0.2036  0.1102
  179SOL    HW1  536   0.429   2.525   2.591 -0.8067 -0.8793  3.0665
  179SOL    HW2  537   0.483   2.547   2.439 -0.8220  0.6922  3.1120
  180SOL     OW  538   1.944   1.784   1.096  0.2167 -0.3507 -0.0136
  180SOL    HW1  539   1.956   1.698   1.149  2.1214  2.8135  2.7267
  180SOL    HW2  540   1.846   1.808   1.099  2.1755  0.8086 -0.1975
  181SOL     OW  541   1.750   0.978   2.282 -0.1816 -0.2268  0.3024
  181SOL    HW1  542   1.783   1.034   2.206 -0.8386  1.7599  0.2280
  181SOL    HW2  543   1.800   1.009   2.369 -1.4599  0.4745  2.7776
  182SOL     OW  544   2.872   2.788   2.483  0.0265  0.2107  0.5635
  182SOL    HW1  545   2.845   2.724   2.408  2.6463 -1.7373 -1.9666
  182SOL    HW2  546   2.873   2.883   2.453 -1.2371 -1.1941  0.4420
  183SOL     OW  547   1.413   0.761   2.459  0.0803  0.1868  0.8297
  183SOL    HW1  548   1.419   0.856   2.415 -1.6721  2.0330  2.6610
  183SOL    HW2  549   1.502   0.723   2.488  0.1919 -0.2740 -1.0030
  184SOL     OW  550   0.882   0.821   1.618  0.4824 -0.5049  0.2267
  184SOL    HW1  551   0.808   0.821   1.682  4.1337 -0.9619 -0.6117
  184SOL    HW2  552   0.914   0.915   1.601 -1.0387 -0.9235  2.7804
  185SOL     OW  553   2.051   1.058   0.722 -0.3048  0.7052  0.3524
  185SOL    HW1  554   2.093   1.099   0.809 -1.2783 -0.1797  1.4294
  185SOL    HW2  555   2.038   1.126   0.642  0.1138 -0.1937 -2.1751
  186SOL     OW  556   0.324   1.940   2.813 -0.1866 -0.5687 -0.0517
  186SOL    HW1  557   0.375   1.850   2.818 -0.7093  1.0816  0.6791
  186SOL    HW2  558   0.258   1.939   2.734  2.7536  0.1548  1.8700
  187SOL     OW  559   2.585   1.423   0.195 -0.3422  0.2797 -0.1650
  187SOL    HW1  560   2.613   1.517   0.222 -1.1214 -0.5067  0.5058
  187SOL    HW2  561   2.598   1.354   0.275  0.6446 -0.9619  3.2478
  188SOL     OW  562   0.146   1.801   0.585  0.6544 -0.4609  0.1272
  188SOL    HW1  563   0.200   1.799   0.496  3.0888 -1.0962 -0.2176
  188SOL    HW2  564   0.164   1.893   0.625 -0.7996 -0.0027  1.2462
  189SOL     OW  565   2.450   0.552   0.099  0.6907  0.5441 -0.0677
  189SOL    HW1  566   2.399   0.486   0.149  2.0113  0.9285 -2.3298
  189SOL    HW2  567   2.548   0.550   0.119  0.5072  3.4341  1.1559
  190SOL     OW  568   1.373   1.423   2.074 -0.0296  0.0278  0.0029
  190SOL    HW1  569   1.359   1.524   2.087  0.9214  2.1588 -0.0278
  190SOL    HW2  570   1.296   1.387   2.018  1.3299  1.5371  0.4480
  191SOL     OW  571   2.489   0.004   1.798  0.9147  0.2027 -0.4232
  191SOL    HW1  572   2.482   0.103   1.768 -1.2721  1.9248 -1.1123
  191SOL    HW2  573   2.425   3.094   1.880  0.5604  0.1196  2.3340
  192SOL     OW  574   2.026   1.248   1.498  0.0449 -0.2889 -0.2463
  192SOL    HW1  575   1.937   1.279   1.460  0.6230 -0.1147 -2.3429
  192SOL    HW2  576   2.036   1.153   1.527  1.7004  4.8246  1.0123
  193SOL     OW  577   0.889   0.780   0.907 -0.4339  0.2535 -0.0460
  193SOL    HW1  578   0.968   0.823   0.860  2.6691  0.4479 -1.3030
  193SOL    HW2  579   0.884   0.818   0.998  1.2419 -1.2118 -1.3281
  194SOL     OW  580   1.233   3.070   1.205 -0.0512 -0.6739  0.1184
  194SOL    HW1  581   1.218   3.057   1.108  2.3085  1.2696  1.5638
  194SOL    HW2  582   1.172   3.013   1.257 -1.7105  2.5551  0.3615
  195SOL     OW  583   2.300   0.340   0.265 -0.3558  0.1856  0.0095
  195SOL    HW1  584   2.327   0.241   0.244 -2.8257 -0.1541  0.1985
  195SOL    HW2  585   2.332   0.363   0.358  1.9301  0.2263 -1.6433
  196SOL     OW  586   0.781   2.162   1.445  0.3199  0.1177 -0.3861
  196SOL    HW1  587   0.814   2.217   1.368  1.5070  2.9951  1.3984
  196SOL    HW2  588   0.852   2.133   1.507 -0.7739 -1.1891 -1.8261
  197SOL     OW  589   0.451   2.634   0.493 -0.3132 -0.4684  0.1420
  197SOL    HW1  590   0.512   2.628   0.578  1.4218 -0.1278 -1.0993
  197SOL    HW2  591   0.423   2.543   0.456 -2.2315  4.3009 -1.2987
  198SOL     OW  592   0.691   1.038   0.774 -0.5289  0.0491  0.6526
  198SOL    HW1  593   0.689   1.054   0.876  1.8921 -1.4684  0.1452
  198SOL    HW2  594   0.775   0.981   0.758  1.1275  1.3901 -0.6678
  199SOL     OW  595   0.057   2.936   1.602 -0.5399  0.1936  0.4458
  199SOL    HW1  596   0.065   3.037   1.575 -2.2959  1.8712  0.6914
  199SOL    HW2  597   0.150   2.899   1.627 -0.0672  1.9544  2.3197
  200SOL     OW  598   2.403   1.641   2.772 -0.4248 -0.1837  0.0544
  200SOL    HW1  599   2.398   1.537   2.782  0.8783  0.3487  1.1287
  200SOL    HW2  600   2.355   1.669   2.682 -1.5085 -2.4036 -2.9828
  201SOL     OW  601   2.978   2.301   1.213 -0.2010 -0.1199  0.0317
  201SOL    HW1  602   3.002   2.378   1.277 -0.1793  0.6349 -0.0184
  201SOL    HW2  603   2.982   2.211   1.258  0.1275 -0.2491  0.4752
  202SOL     OW  604   2.773   0.136   0.362 -0.5844  0.2016 -0.2340
  202SOL    HW1  605   2.851   0.071   0.362 -1.0627  0.4222  0.9108
  202SOL    HW2  606   2.777   0.188   0.275 -1.1791  1.6082  2.3390
  203SOL     OW  607   1.330   2.125   2.301 -0.2529 -0.2298 -0.0822
  203SOL    HW1  608   1.307   2.103   2.205 -2.3077  2.4361  0.1902
  203SOL    HW2  609   1.251   2.093   2.357  0.0886 -0.1105 -2.1904
  204SOL     OW  610   0.969   1.565   1.580  0.5138  0.2743 -0.0849
  204SOL    HW1  611   0.907   1.559   1.502  1.8760 -0.4477 -0.4388
  204SOL    HW2  612   0.928   1.558   1.674  1.0612 -1.0236 -1.1108
  205SOL     OW  613   0.958   2.074   1.641 -0.5178  0.4449  0.2588
  205SOL    HW1  614   1.045   2.023   1.662 -1.1637 -1.2440  0.9136
  205SOL    HW2  615   0.877   2.020   1.662 -1.4472  2.6425 -1.7675
  206SOL     OW  616   0.158   0.658   2.587 -0.0460 -0.4726 -0.2795
  206SOL    HW1  617   0.256   0.673   2.609  0.1872 -3.1069 -2.8984
  206SOL    HW2  618   0.110   0.603   2.654  0.6049  1.4713 -1.5872
  207SOL     OW  619   1.592   2.826   2.032  0.3135  0.5576 -0.1910
  207SOL    HW1  620   1.537   2.893   1.971 -0.7658  2.5701 -2.0703
  207SOL    HW2  621   1.589   2.731   1.993  2.2294  0.8919  0.3016
  208SOL     OW  622   0.825   2.446   1.938 -0.3955  0.1251  0.8600
  208SOL    HW1  623   0.868   2.438   2.028 -2.6507  3.2633  0.0945
  208SOL    HW2  624   0.815   2.545   1.914 -0.0560  1.6288 -0.7668
  209SOL     OW  625   1.990   1.367   2.929  0.3686 -0.2527  0.0542
  209SOL    HW1  626   2.017   1.299   2.858 -0.5302 -0.9876 -0.0163
  209SOL    HW2  627   1.889   1.353   2.943 -0.4372 -5.2899 -2.1095
  210SOL     OW  628   2.943   0.457   1.159  0.1466 -0.0783 -0.0747
  210SOL    HW1  629   2.944   0.407   1.072  3.0690  2.0125 -1.7061
  210SOL    HW2  630   2.848   0.484   1.190  0.9530  1.6348  0.6042
  211SOL     OW  631   0.869   0.905   1.165  0.2881 -0.0219 -0.2597
  211SOL    HW1  632   0.797   0.970   1.127 -1.8256  1.7443 -3.2320
  211SOL    HW2  633   0.834   0.846   1.245  1.5495 -2.8103  1.8075
  212SOL     OW  634   0.974   2.054   1.143 -0.7622  0.2712  0.4968
  212SOL    HW1  635   0.903   1.984   1.137 -2.4100  1.7558 -0.8675
  212SOL    HW2  636   1.020   2.071   1.053  0.1307 -2.9008 -0.0459
  213SOL     OW  637   1.852   0.134   1.773  0.0006  0.3218  0.0347
  213SOL    HW1  638   1.752   0.129   1.787 -0.5845 -0.3964 -1.1571
  213SOL    HW2  639   1.900   0.056   1.813  2.2092 -0.4317  0.7514
  214SOL     OW  640   1.508   2.200   2.678 -0.5964  0.5883 -0.2936
  214SOL    HW1  641   1.577   2.163   2.612  0.2654 -0.0847  1.3100
  214SOL    HW2  642   1.555   2.250   2.755  0.3123 -1.2039 -1.5469
  215SOL     OW  643   2.963   1.828   1.233 -0.2277 -0.3161  0.0488
  215SOL    HW1  644   2.888   1.893   1.256 -0.1212  0.5265  0.0497
  215SOL    HW2  645   2.919   1.739   1.201 -1.2939 -0.4982  1.6250
  216SOL     OW  646   0.562   0.192   2.293 -0.4669  0.0421 -0.2840
  216SOL    HW1  647   0.660   0.174   2.276 -0.4405 -0.3118 -1.2166
  216SOL    HW2  648   0.522   0.122   2.357 -3.2940  0.5023 -0.5473
  217SOL     OW  649   2.795   0.343   2.966 -0.1463  0.4011 -0.3259
  217SOL    HW1  650   2.837   0.397   3.041  2.4124  0.5884  1.1175
  217SOL    HW2  651   2.852   0.265   2.933 -1.3455  0.2995 -1.4423
  218SOL     OW  652   1.847   1.714   2.479 -0.3376  0.6101 -0.1205
  218SOL    HW1  653   1.805   1.657   2.551  1.4527  1.5291  1.0696
  218SOL    HW2  654   1.883   1.794   2.527 -0.1676 -1.3062  2.0121
  219SOL     OW  655   1.809   0.963   0.093  0.0370 -0.7818 -0.2642
  219SOL    HW1  656   1.874   1.020   0.143  1.4006  0.5859  1.0393
  219SOL    HW2  657   1.755   1.019   0.021  1.2656 -0.5277  1.5806
  220SOL     OW  658   1.426   1.953   1.185 -0.0572 -0.1477  0.3790
  220SOL    HW1  659   1.342   1.920   1.227  0.3097  1.2691 -0.2128
  220SOL    HW2  660   1.406   2.033   1.121  1.5357  0.9601 -1.3822
  221SOL     OW  661   0.151   0.763   0.038  0.1426  0.1051 -0.1222
  221SOL    HW1  662   0.068   0.768   0.096  1.8186  1.0925  0.4526
  221SOL    HW2  663   0.136   0.807   3.055  2.7996 -1.6548  3.9676
  222SOL     OW  664   1.143   2.786   1.488 -0.3893 -0.7059  0.2796
  222SOL    HW1  665   1.152   2.684   1.479  2.1176 -0.6218  0.8186
  222SOL    HW2  666   1.233   2.837   1.474 -0.5115  1.0501 -3.4199
  223SOL     OW  667   1.309   0.069   2.915 -0.0156 -0.1813 -0.3160
  223SOL    HW1  668   1.237   0.142   2.896 -0.1317  0.4659  0.6338
  223SOL    HW2  669   1.393   0.113   2.948  2.6817 -0.3339 -2.5935
  224SOL     OW  670   2.827   0.949   1.097  0.0154 -0.4444 -0.1801
  224SOL    HW1  671   2.864   0.854   1.092 -1.0411  0.6026 -0.2444
  224SOL    HW2  672   2.726   0.949   1.101  1.7177 -0.1007  0.5544
  225SOL     OW  673   0.827   1.334   1.455  0.1469 -0.6332  0.7357
  225SOL    HW1  674   0.855   1.391   1.375 -0.7025  1.9590 -0.2841
  225SOL    HW2  675   0.746   1.279   1.425  2.8418  1.9861  0.0153
  226SOL     OW  676   1.573   2.798   3.101  0.5813 -0.2100 -0.0631
  226SOL    HW1  677   1.498   2.853   0.042  0.3855  1.2312  0.9566
  226SOL    HW2  678   1.617   2.862   3.039 -3.5732 -2.0492 -0.0983
  227SOL     OW  679   0.512   1.618   0.983  0.4521 -0.7781 -0.1656
  227SOL    HW1  680   0.463   1.538   1.026 -2.3764 -2.6644  1.1600
  227SOL    HW2  681   0.487   1.701   1.031 -2.8709 -2.9972 -1.7326
  228SOL     OW  682   0.439   2.760   1.376  0.0246 -0.3297  0.0712
  228SOL    HW1  683   0.474   2.733   1.466 -0.4852  0.9162 -1.5737
  228SOL    HW2  684   0.487   2.844   1.346 -0.0628 -0.4904 -1.4303
  229SOL     OW  685   2.397   1.385   0.014  0.4306 -0.3397  0.2690
  229SOL    HW1  686   2.477   1.386   0.083  0.2771  2.1505 -1.6148
  229SOL    HW2  687   2.412   1.318   3.039  1.7524 -2.9357 -0.9722
  230SOL     OW  688   1.026   1.123   1.839 -0.3375  0.5042  0.1018
  230SOL    HW1  689   1.008   1.099   1.742  0.0241 -1.1920 -0.3356
  230SOL    HW2  690   1.022   1.045   1.903  0.9181 -1.7494 -0.8177
  231SOL     OW  691   1.487   1.957   1.660 -0.4496 -0.0430  0.1472
  231SOL    HW1  692   1.581   1.998   1.639  1.5229  1.1482 -0.0835
  231SOL    HW2  693   1.476   1.967   1.761  1.8051  0.9009 -2.1736
  232SOL     OW  694   1.941   2.336   0.670 -0.0412 -0.2366  0.4504
  232SOL    HW1  695   1.872   2.412   0.679  0.7740 -2.2247 -1.5967
  232SOL    HW2  696   1.951   2.313   0.571  0.2225 -0.3470 -3.7799
  233SOL     OW  697   1.222   2.453   2.922  0.4177  0.4395 -0.0778
  233SOL    HW1  698   1.309   2.459   2.876 -0.7841  0.8714 -0.1896
  233SOL    HW2  699   1.202   2.539   2.974  1.4330  0.2862 -0.3830
  234SOL     OW  700   1.192   0.134   2.609 -1.1243  0.7252  0.5309
  234SOL    HW1  701   1.141   0.053   2.652  1.9824 -3.1276 -1.9704
  234SOL    HW2  702   1.287   0.106   2.595  2.6731  0.9899 -0.4242
  235SOL     OW  703   2.985   2.388   0.189  0.2072 -0.6013  0.3646
  235SOL    HW1  704   3.012   2.441   0.271 -3.1725  2.5049  0.1759
  235SOL    HW2  705   2.957   2.293   0.208 -0.0241 -1.3074 -2.0179
  236SOL     OW  706   1.968   2.208   2.394  0.0064  0.1778 -0.0971
  236SOL    HW1  707   1.917   2.181   2.479 -0.0169  0.9361 -0.5628
  236SOL    HW2  708   2.070   2.198   2.397  0.0541 -0.9819  1.3677
  237SOL     OW  709   1.728   1.158   1.214  0.3974  0.7885 -0.0138
  237SOL    HW1  710   1.728   1.076   1.276  0.6987  0.3472  1.3160
  237SOL    HW2  711   1.786   1.140   1.132 -1.0986 -2.5633  1.3818
  238SOL     OW  712   2.122   0.218   2.246  0.6565  0.6883  0.1914
  238SOL    HW1  713   2.127   0.233   2.147 -1.1436  0.3632 -1.0482
  238SOL    HW2  714   2.047   0.152   2.269  2.9661 -0.2916  2.9885
  239SOL     OW  715   0.644   1.735   1.547 -0.9273 -0.3163 -0.1091
  239SOL    HW1  716   0.576   1.661   1.567 -1.0692 -0.9050  1.8148
  239SOL    HW2  717   0.718   1.709   1.476  1.8642 -1.3573 -0.0878
  240SOL     OW  718   0.012   2.155   0.580 -0.5557 -0.0187  0.5611
  240SOL    HW1  719   3.091   2.238   0.634 -1.5597 -3.2488 -0.4255
  240SOL    HW2  720   0.096   2.110   0.616 -1.3069  1.9786 -0.6479
  241SOL     OW  721   1.517   1.999   0.644 -0.0963  0.2426  0.2382
  241SOL    HW1  722   1.610   2.025   0.671 -3.6581 -2.1319 -1.9759
  241SOL    HW2  723   1.515   1.899   0.611 -2.4709 -1.4936 -2.3556
  242SOL     OW  724   1.505   1.287   0.348 -0.3467  0.3412 -0.1100
  242SOL    HW1  725   1.577   1.308   0.415 -1.8031  1.0190 -0.5695
  242SOL    HW2  726   1.537   1.235   0.267 -1.9818  0.5734 -0.5435
  243SOL     OW  727   0.827   0.135   2.216  0.0377  0.3566  0.4797
  243SOL    HW1  728   0.928   0.128   2.233  0.8443  0.7620 -2.5139
  243SOL    HW2  729   0.806   0.147   2.115  0.0509  2.5847 -0.1514
  244SOL     OW  730   1.666   3.001   2.940  0.3142 -0.1720  0.0496
  244SOL    HW1  731   1.654   3.093   2.990 -3.3741  1.8562  2.5276
  244SOL    HW2  732   1.584   2.984   2.876 -3.0559  1.2226 -1.2275
  245SOL     OW  733   1.343   2.942   3.073 -0.4779 -0.0669 -0.4722
  245SOL    HW1  734   1.334   2.993   0.062  1.4732  1.0292  2.5187
  245SOL    HW2  735   1.338   3.014   2.997  0.0587  1.5192 -0.0557
  246SOL     OW  736   0.906   0.375   2.630 -0.2108  0.2071  0.7135
  246SOL    HW1  737   0.993   0.398   2.584  0.8635  4.3622 -2.3607
  246SOL    HW2  738   0.925   0.328   2.719  1.8818 -0.3082  3.2701
  247SOL     OW  739   0.322   0.599   1.866  0.1788  0.2209 -0.1628
  247SOL    HW1  740   0.377   0.586   1.947 -1.7262  0.5465  0.5334
  247SOL    HW2  741   0.225   0.604   1.889  1.6219 -1.1991 -2.9150
  248SOL     OW  742   0.697   0.747   2.055  0.0323  0.2318  0.0884
  248SOL    HW1  743   0.728   0.648   2.061  0.9585  1.3613 -2.1246
  248SOL    HW2  744   0.782   0.805   2.041 -2.0119 -1.0716  1.3593
  249SOL     OW  745   2.089   0.363   0.090  0.0614  0.4133 -0.2884
  249SOL    HW1  746   2.049   0.278   0.048 -0.0757  1.3868  2.1605
  249SOL    HW2  747   2.164   0.348   0.163  0.2153 -0.6690  3.2240
  250SOL     OW  748   0.557   0.191   0.942 -0.3902  0.3515 -0.0381
  250SOL    HW1  749   0.558   0.295   0.941  1.6016  3.7108 -0.6267
  250SOL    HW2  750   0.505   0.151   1.022  0.2403  0.0907  1.8224
  251SOL     OW  751   1.164   0.409   2.542 -0.1016  0.3957  0.0503
  251SOL    HW1  752   1.220   0.461   2.475 -1.1813  1.2132  0.6953
  251SOL    HW2  753   1.170   0.310   2.542 -1.2926  1.5165 -0.6271
  252SOL     OW  754   1.584   1.752   2.045 -0.0552 -0.4472 -0.0685
  252SOL    HW1  755   1.631   1.713   1.964  3.1696  1.3063 -1.3501
  252SOL    HW2  756   1.495   1.710   2.064  3.4927 -1.3554  1.7251
  253SOL     OW  757   1.812   2.461   2.020 -0.1351 -0.0898 -0.1914
  253SOL    HW1  758   1.847   2.555   2.019 -0.2168 -2.8117  1.1824
  253SOL    HW2  759   1.740   2.442   2.088  0.3136  1.7733  0.8790
  254SOL     OW  760   0.777   1.998   1.985 -0.3659 -0.1676  0.8857
  254SOL    HW1  761   0.795   2.051   2.070  0.2665  0.7439 -0.5425
  254SOL    HW2  762   0.861   1.942   1.950  0.7730 -1.2773 -2.3330
  255SOL     OW  763   1.287   0.638   0.499  0.3436  0.3922  0.0649
  255SOL    HW1  764   1.310   0.673   0.588  1.3604 -1.9572 -2.1665
  255SOL    HW2  765   1.234   0.708   0.451  2.0542 -1.3805  1.4584
  256SOL     OW  766   1.825   1.902   1.795  0.5243  0.0189 -0.4697
  256SOL    HW1  767   1.895   1.856   1.744 -1.2141  0.4711 -1.1476
  256SOL    HW2  768   1.789   1.966   1.727  1.0756 -1.7862 -0.4685
  257SOL     OW  769   0.267   2.263   2.486 -0.0933  0.1978 -0.0282
  257SOL    HW1  770   0.306   2.356   2.477  1.7398  1.8169  1.1347
  257SOL    HW2  771   0.283   2.224   2.577  1.1120  1.5824  0.2372
  258SOL     OW  772   0.879   0.416   2.305  0.0970 -0.6338  0.2346
  258SOL    HW1  773   0.891   0.315   2.301  2.6391  2.7119 -0.8982
  258SOL    HW2  774   0.840   0.448   2.391  1.1747 -2.5212  0.1160
  259SOL     OW  775   1.031   1.033   2.343  0.4243  1.0022  0.7682
  259SOL    HW1  776   0.967   0.958   2.369  0.4062  0.5403 -2.1235
  259SOL    HW2  777   1.087   0.997   2.267 -0.6761 -3.6438  0.8497
  260SOL     OW  778   1.571   0.810   0.630  0.3577 -0.4054  0.1201
  260SOL    HW1  779   1.490   0.823   0.696  0.0668 -0.4522  1.5580
  260SOL    HW2  780   1.618   0.720   0.643 -0.7181  1.0407  1.5616
  261SOL     OW  781   0.447   3.064   2.954 -0.1035 -0.5031 -0.0358
  261SOL    HW1  782   0.510   3.014   3.022 -0.3266 -3.5428  2.1662
  261SOL    HW2  783   0.403   2.999   2.892 -1.7896  2.3596 -0.9991
  262SOL     OW  784   2.579   3.092   2.747 -0.3471 -0.1507  0.4343
  262SOL    HW1  785   2.676   0.019   2.721  1.7216  1.5599  1.8884
  262SOL    HW2  786   2.532   0.067   2.793  0.3991 -1.3615 -0.9194
  263SOL     OW  787   0.159   2.208   0.177  0.0892 -0.5617  0.3749
  263SOL    HW1  788   0.079   2.203   0.241  0.2740 -1.7941 -0.5210
  263SOL    HW2  789   0.143   2.138   0.109 -0.3199 -0.1693  1.0879
  264SOL     OW  790   0.594   1.194   1.411 -0.0040 -0.1767 -0.0553
  264SOL    HW1  791   0.513   1.256   1.427 -4.2398 -0.4733 -0.9264
  264SOL    HW2  792   0.569   1.126   1.337 -0.2204  1.4664 -0.5635
  265SOL     OW  793   0.512   1.204   0.446  0.0596 -0.1370 -0.1930
  265SOL    HW1  794   0.444   1.168   0.375 -1.5623 -0.5311  0.3648
  265SOL    HW2  795   0.593   1.260   0.407 -1.5758 -0.4122 -2.3922
  266SOL     OW  796   1.881   1.223   0.422 -0.2316 -0.1678 -0.3895
  266SOL    HW1  797   1.975   1.224   0.473  1.1434 -0.4287  1.1307
  266SOL    HW2  798   1.903   1.218   0.318  1.2567 -2.5664 -2.3248
  267SOL     OW  799   2.954   0.447   0.193  0.0567 -0.1239 -0.6479
  267SOL    HW1  800   2.970   0.356   0.229  0.4248  0.8485  0.7885
  267SOL    HW2  801   2.972   0.457   0.091 -1.2360  0.3849 -1.9856
  268SOL     OW  802   0.316   2.899   2.799 -0.2110 -0.1607 -0.5663
  268SOL    HW1  803   0.278   2.805   2.821  1.1414 -0.4043  2.4920
  268SOL    HW2  804   0.245   2.950   2.746  0.7082  0.5105 -0.0000
  269SOL     OW  805   2.096   0.043   2.684 -0.1498  0.6862  0.4011
  269SOL    HW1  806   2.043   0.105   2.745  0.4313  3.5175 -0.5522
  269SOL    HW2  807   2.161   0.099   2.628 -0.6648 -0.8275 -0.9253
  270SOL     OW  808   0.821   1.042   2.631  0.5842 -0.1853 -0.0473
  270SOL    HW1  809   0.729   1.061   2.585 -2.1850 -1.5796 -1.1681
  270SOL    HW2  810   0.884   1.121   2.633 -2.2471  1.5234 -2.7263
  271SOL     OW  811   2.748   0.976   0.203  0.5089  0.1458 -0.2699
  271SOL    HW1  812   2.703   0.905   0.141  0.9478 -1.5120  0.1428
  271SOL    HW2  813   2.822   1.020   0.148 -0.9310 -0.4180  0.9721
  272SOL     OW  814   2.816   1.731   2.607  0.1840 -0.1449  0.2822
  272SOL    HW1  815   2.762   1.756   2.521  0.3060  1.9497 -0.2208
  272SOL    HW2  816   2.831   1.823   2.658  2.8634 -0.2637  1.4130
  273SOL     OW  817   2.361   0.596   2.953 -0.2770 -0.2274  0.3517
  273SOL    HW1  818   2.291   0.541   2.909  0.7647  0.6529  2.0446
  273SOL    HW2  819   2.386   0.563   3.047 -1.0017 -0.5636  0.2035
  274SOL     OW  820   0.108   2.851   0.869  0.1943  0.2702 -0.8946
  274SOL    HW1  821   0.186   2.823   0.814 -2.8177 -0.4080 -1.6150
  274SOL    HW2  822   0.136   2.911   0.951  4.1894 -0.9225  0.1223
  275SOL     OW  823   1.972   1.539   0.775  0.4200  0.2780  1.0398
  275SOL    HW1  824   2.023   1.531   0.687  0.5191  3.4706 -1.1278
  275SOL    HW2  825   2.003   1.627   0.820  0.0997  0.2018  2.1288
  276SOL     OW  826   0.137   1.393   2.693  0.0266 -0.3868 -0.3452
  276SOL    HW1  827   0.235   1.412   2.669 -3.6024  0.5148  0.2060
  276SOL    HW2  828   0.093   1.351   2.612  3.1574  1.8215  0.7200
  277SOL     OW  829   1.755   2.679   1.741  0.2789 -0.1154 -0.5022
  277SOL    HW1  830   1.666   2.657   1.792  0.0186 -0.5079 -0.7063
  277SOL    HW2  831   1.758   2.775   1.710 -0.7383 -0.6136 -1.3803
  278SOL     OW  832   1.734   0.403   1.911 -0.4373  0.0318  0.0993
  278SOL    HW1  833   1.763   0.311   1.877  0.7823  0.5454 -0.7612
  278SOL    HW2  834   1.724   0.469   1.833  0.1224 -1.3551 -1.9492
  279SOL     OW  835   2.011   1.652   0.377  0.3710  0.0226 -0.3304
  279SOL    HW1  836   2.015   1.634   0.274 -0.0612  1.9643 -3.6570
  279SOL    HW2  837   1.928   1.713   0.399 -0.8882  0.6687 -0.8331
  280SOL     OW  838   0.484   1.606   0.709 -0.3737 -0.0628  0.9749
  280SOL    HW1  839   0.450   1.519   0.668 -0.3730 -1.7798 -2.5444
  280SOL    HW2  840   0.487   1.601   0.809  1.1791 -0.6810 -1.8807
  281SOL     OW  841   0.116   3.056   2.680 -0.1852 -0.2673 -0.4889
  281SOL    HW1  842   0.116   0.043   2.722  0.1275 -0.6072 -0.2734
  281SOL    HW2  843   0.119   3.068   2.580  1.3111  0.1194  0.6018
  282SOL     OW  844   0.234   0.984   1.117  0.1863  0.3667 -0.0332
  282SOL    HW1  845   0.138   0.979   1.086  0.2249  0.8599 -0.5747
  282SOL    HW2  846   0.232   0.976   1.220 -0.7097 -1.3557 -0.9663
  283SOL     OW  847   1.808   2.015   0.166  0.4946  0.3759 -0.5156
  283SOL    HW1  848   1.897   2.067   0.146  3.0035  1.0683  1.7814
  283SOL    HW2  849   1.724   2.072   0.146 -0.1170 -1.6525 -1.1245
  284SOL     OW  850   1.666   1.323   0.573 -0.0423  0.2117 -0.0230
  284SOL    HW1  851   1.687   1.413   0.611 -0.9402 -1.1689  0.4564
  284SOL    HW2  852   1.744   1.275   0.535 -1.8159 -0.1697 -1.3259
  285SOL     OW  853   2.855   0.040   2.755 -0.8816 -0.0533  0.4241
  285SOL    HW1  854   2.909   0.086   2.830  0.4905 -0.6784 -0.3843
  285SOL    HW2  855   2.896   3.049   2.733  0.1574 -2.4544  2.9862
  286SOL     OW  856   1.483   2.987   1.587  0.2391 -0.1193  0.6936
  286SOL    HW1  857   1.458   2.911   1.523 -0.7668 -1.5243 -1.0391
  286SOL    HW2  858   1.437   3.072   1.553  0.2623  0.3646  1.3726
  287SOL     OW  859   0.714   1.100   1.043  0.0427  0.0560  0.7135
  287SOL    HW1  860   0.763   1.183   1.023  1.8200  0.4106  1.7575
  287SOL    HW2  861   0.625   1.113   1.081  3.3367 -1.3177  0.4469
  288SOL     OW  862   1.614   0.160   2.957 -0.5532  0.2275  0.1686
  288SOL    HW1  863   1.644   0.239   2.896  2.4144  0.9708 -0.7152
  288SOL    HW2  864   1.629   0.190   3.056 -1.5130 -1.7862 -2.0554
  289SOL     OW  865   0.067   1.627   2.805 -0.5465 -0.3036  0.3532
  289SOL    HW1  866   0.050   1.670   2.712 -0.0585 -0.3787  1.4690
  289SOL    HW2  867   0.089   1.526   2.793 -1.7129 -1.1858  0.4739
  290SOL     OW  868   1.451   2.256   0.751  0.3878 -0.9642  0.3507
  290SOL    HW1  869   1.384   2.320   0.707 -0.4511 -0.4790 -0.5157
  290SOL    HW2  870   1.459   2.165   0.704 -0.7783 -1.8697  0.7173
  291SOL     OW  871   2.236   2.077   2.843 -0.0982 -0.0959 -0.0198
  291SOL    HW1  872   2.147   2.084   2.893 -1.8975 -0.3663 -2.5179
  291SOL    HW2  873   2.306   2.004   2.873  4.5174  0.0035  0.0908
  292SOL     OW  874   0.923   0.886   2.016  0.1694  0.6219  0.2768
  292SOL    HW1  875   0.990   0.871   2.091  1.6444 -0.1401  1.5123
  292SOL    HW2  876   0.970   0.851   1.933  0.7259  1.4343  2.4452
  293SOL     OW  877   2.053   2.847   0.933  0.2612 -0.3537  0.6323
  293SOL    HW1  878   2.101   2.925   0.890 -0.7859 -0.1837  1.4546
  293SOL    HW2  879   2.116   2.770   0.950 -2.3337 -1.8801 -2.3716
  294SOL     OW  880   0.239   0.460   2.429  0.0569 -0.9639  0.5043
  294SOL    HW1  881   0.191   0.526   2.494 -0.0392  0.7595 -0.3378
  294SOL    HW2  882   0.335   0.492   2.404 -0.1034 -0.3016  0.3571
  295SOL     OW  883   1.595   1.752   0.542 -0.3967  1.0943 -0.3099
  295SOL    HW1  884   1.624   1.696   0.620  2.1016  0.0969 -0.6682
  295SOL    HW2  885   1.535   1.708   0.474  0.7457 -0.7592 -0.4178
  296SOL     OW  886   2.164   1.941   0.106 -0.4426  0.7302 -0.9259
  296SOL    HW1  887   2.152   1.858   0.051  2.8391  2.4448  3.2198
  296SOL    HW2  888   2.191   1.920   0.207  0.3318 -1.4311  4.4079
  297SOL     OW  889   2.018   0.545   3.024  0.5469 -0.3965  0.0163
  297SOL    HW1  890   2.062   0.527   2.934  0.7776  0.8517  1.6357
  297SOL    HW2  891   2.059   0.488   3.094  1.3272  4.4679 -0.7377
  298SOL     OW  892   1.095   2.403   2.667  0.3701  0.0239 -0.1837
  298SOL    HW1  893   1.133   2.419   2.761  1.5687 -0.5726  2.3252
  298SOL    HW2  894   1.164   2.356   2.604  0.1476 -0.4789 -1.7433
  299SOL     OW  895   1.314   2.868   2.433  0.0713 -0.6939  0.0742
  299SOL    HW1  896   1.385   2.816   2.378  2.2236  1.5306 -0.5414
  299SOL    HW2  897   1.225   2.868   2.384  0.3193  0.4965  0.5473
  300SOL     OW  898   2.432   0.192   2.859 -0.3104 -0.2546 -0.0810
  300SOL    HW1  899   2.507   0.210   2.923 -3.4870 -2.1319 -0.4030
  300SOL    HW2  900   2.414   0.267   2.794  0.9332 -0.5861 -2.7999
  301SOL     OW  901   1.393   1.630   1.307  0.4786  0.3937 -0.3147
  301SOL    HW1  902   1.397   1.534   1.270  1.9825  0.5286 -0.7721
  301SOL    HW2  903   1.439   1.699   1.242  2.3097 -0.1861 -1.2748
  302SOL     OW  904   2.552   2.249   0.432 -0.0416  0.2073  0.1550
  302SOL    HW1  905   2.638   2.304   0.447  0.6605 -1.1273  0.2271
  302SOL    HW2  906   2.493   2.301   0.366  0.9990 -0.9958  0.7803
  303SOL     OW  907   2.776   2.645   2.282 -0.3416  0.2285 -0.0470
  303SOL    HW1  908   2.849   2.681   2.227  0.8463 -4.1918  2.3856
  303SOL    HW2  909   2.708   2.590   2.228  1.4428  0.6852  0.8158
  304SOL     OW  910   0.064   0.604   1.904  0.1753  0.3707 -0.6492
  304SOL    HW1  911   0.006   0.575   1.821  0.4191 -0.0833  0.9624
  304SOL    HW2  912   0.012   0.653   1.977 -1.0094 -0.4517  0.6428
  305SOL     OW  913   0.487   1.907   1.947  0.3351  0.0032  0.4043
  305SOL    HW1  914   0.527   1.819   1.911  0.4431 -2.4188  2.6637
  305SOL    HW2  915   0.559   1.970   1.989  0.8761  0.8729  1.7446
  306SOL     OW  916   2.816   0.873   1.937 -0.2687 -0.1959 -0.1701
  306SOL    HW1  917   2.754   0.923   2.000 -0.4627  0.8140 -3.6532
  306SOL    HW2  918   2.769   0.846   1.851  0.7515 -0.5463 -1.1634
  307SOL     OW  919   1.898   1.201   1.805 -0.1433  0.1156 -0.5068
  307SOL    HW1  920   1.850   1.141   1.737 -0.0374 -1.7322 -0.6974
  307SOL    HW2  921   1.996   1.213   1.788  0.3997  1.0179  1.0251
  308SOL     OW  922   2.619   1.614   0.913  0.2409  0.3378  0.6950
  308SOL    HW1  923   2.525   1.630   0.936  1.6043 -0.2979 -1.0179
  308SOL    HW2  924   2.659   1.697   0.869  1.1993 -0.8868 -0.8915
  309SOL     OW  925   2.290   1.707   1.336 -0.1035 -0.0465  0.0537
  309SOL    HW1  926   2.308   1.792   1.388  0.4195  4.8088 -0.3434
  309SOL    HW2  927   2.374   1.645   1.349  1.9543 -1.7216  1.1411
  310SOL     OW  928   2.748   1.425   2.618  0.3359 -0.0970  0.3318
  310SOL    HW1  929   2.694   1.419   2.535 -0.8530  0.5792  0.7723
  310SOL    HW2  930   2.773   1.525   2.629 -1.1833  0.2196 -1.5220
  311SOL     OW  931   3.063   1.925   0.031  0.6880 -0.1063  0.4097
  311SOL    HW1  932   2.997   2.002   0.035  0.5099 -3.0514 -3.1039
  311SOL    HW2  933   3.031   1.856   3.070  0.9401  1.1671  1.6518
  312SOL     OW  934   2.309   1.687   1.073  0.5269  0.3101  0.0551
  312SOL    HW1  935   2.276   1.596   1.042  0.1065 -0.2593 -0.2349
  312SOL    HW2  936   2.296   1.691   1.174 -1.0727  1.1474 -0.6278
  313SOL     OW  937   2.529   2.737   1.044  0.1040 -0.6769  0.0859
  313SOL    HW1  938   2.489   2.832   1.038  2.7936 -1.8181 -0.5086
  313SOL    HW2  939   2.483   2.678   1.111 -0.9386  0.6832 -1.3539
  314SOL     OW  940   1.182   1.748   0.505 -0.5316  0.5419 -0.4263
  314SOL    HW1  941   1.185   1.671   0.573 -0.5508 -1.9413 -2.2608
  314SOL    HW2  942   1.089   1.757   0.473  0.3416  0.1037 -0.0759
  315SOL     OW  943   0.998   2.546   2.422  0.3422 -0.4415 -0.3138
  315SOL    HW1  944   1.007   2.494   2.509 -0.7055 -2.0500 -0.1386
  315SOL    HW2  945   1.049   2.633   2.423  0.3183 -1.2182 -1.8476
  316SOL     OW  946   0.114   0.716   0.697 -0.1707 -0.3416  0.2609
  316SOL    HW1  947   0.203   0.747   0.658 -0.7364 -1.0056  0.3173
  316SOL    HW2  948   0.072   0.638   0.650  0.4220  0.9395  3.5128
  317SOL     OW  949   0.873   0.381   0.590  0.1352  0.0862  0.6906
  317SOL    HW1  950   0.821   0.409   0.506 -0.2163 -1.1002 -1.5563
  317SOL    HW2  951   0.843   0.286   0.609  1.3375 -1.5184  0.5296
  318SOL     OW  952   2.810   2.456   0.427 -0.6299  0.0415 -0.0506
  318SOL    HW1  953   2.881   2.417   0.491 -2.2390 -0.9045 -0.7637
  318SOL    HW2  954   2.811   2.557   0.432  0.6457  0.3081 -0.2727
  319SOL     OW  955   0.513   1.342   2.394  0.7119  0.3937  0.0381
  319SOL    HW1  956   0.453   1.362   2.312 -2.4023  1.7013  3.0427
  319SOL    HW2  957   0.609   1.371   2.366  3.3744  3.4071 -1.6058
  320SOL     OW  958   0.823   2.703   1.897 -0.3723 -0.7995  0.4008
  320SOL    HW1  959   0.901   2.757   1.860 -0.3386 -0.4265 -0.6091
  320SOL    HW2  960   0.737   2.757   1.896 -0.9083 -0.4446  2.9613
  321SOL     OW  961   1.137   2.413   0.245  0.5472  0.1905 -0.1047
  321SOL    HW1  962   1.177   2.323   0.273 -2.4672  2.7631 -1.1317
  321SOL    HW2  963   1.207   2.452   0.179  1.6088 -1.2551 -0.9921
  322SOL     OW  964   2.634   1.002   2.102  0.0240 -0.9685  0.1892
  322SOL    HW1  965   2.591   1.090   2.064 -0.7174  0.9099  0.4011
  322SOL    HW2  966   2.664   1.021   2.200  0.6418  1.0682  1.3126
  323SOL     OW  967   2.484   0.868   0.348  0.3445 -0.3969  0.5202
  323SOL    HW1  968   2.390   0.823   0.339 -0.7783 -0.2213 -0.1458
  323SOL    HW2  969   2.507   0.925   0.268 -0.1503  0.1552  1.3978
  324SOL     OW  970   0.483   2.616   2.961  0.0339 -0.0147  0.4922
  324SOL    HW1  971   0.383   2.621   2.931 -0.1004 -1.4960  0.5293
  324SOL    HW2  972   0.492   2.560   3.043 -1.1221  1.9765 -0.2221
  325SOL     OW  973   1.784   0.316   2.295 -0.4822 -0.1495 -0.1775
  325SOL    HW1  974   1.854   0.372   2.242  0.3497 -0.4397 -1.0669
  325SOL    HW2  975   1.804   0.218   2.296  1.8181  1.2988  1.4917
  326SOL     OW  976   2.141   2.760   1.486  0.4776 -0.1307  0.1582
  326SOL    HW1  977   2.240   2.740   1.499  0.1068 -1.2965  0.8342
  326SOL    HW2  978   2.104   2.712   1.404  1.0490  0.3277  1.5857
  327SOL     OW  979   1.762   0.615   2.959  0.0253 -0.1503 -0.6330
  327SOL    HW1  980   1.707   0.662   3.035  0.2233 -0.6366  0.4513
  327SOL    HW2  981   1.858   0.595   2.992 -1.1607  0.4496  2.2248
  328SOL     OW  982   2.721   1.086   2.344  0.5515 -0.4311  0.4482
  328SOL    HW1  983   2.709   1.187   2.342  1.0249 -3.5125  0.6094
  328SOL    HW2  984   2.709   1.038   2.435 -1.0086 -0.8177  0.8791
  329SOL     OW  985   1.611   0.127   1.903 -0.5326 -0.2689 -0.6036
  329SOL    HW1  986   1.535   0.191   1.891 -0.1242  0.5753 -1.7723
  329SOL    HW2  987   1.617   0.086   1.996 -1.0270  1.0762 -0.3846
  330SOL     OW  988   2.708   1.836   1.528 -0.4684 -0.6504  0.1268
  330SOL    HW1  989   2.722   1.864   1.436 -0.4080 -1.2911  2.4189
  330SOL    HW2  990   2.732   1.737   1.531  0.9401  0.4183 -1.5199
  331SOL     OW  991   0.486   1.540   1.664  0.1306 -0.2918  0.1155
  331SOL    HW1  992   0.405   1.489   1.690  2.0602  2.9554 -0.6554
  331SOL    HW2  993   0.573   1.481   1.672  2.4387 -0.4294 -0.1407
  332SOL     OW  994   0.541   0.204   1.394 -0.3217 -0.4314  0.3587
  332SOL    HW1  995   0.505   0.195   1.299 -1.6630 -1.3166 -2.4428
  332SOL    HW2  996   0.614   0.275   1.394  1.8688  1.0445 -2.1285
  333SOL     OW  997   2.198   2.722   1.873  0.3116 -0.1217 -0.0270
  333SOL    HW1  998   2.272   2.775   1.822 -0.0997 -0.5374  1.7288
  333SOL    HW2  999   2.121   2.693   1.811 -0.1293 -0.6185 -0.4168
  334SOL     OW 1000   0.787   1.565   1.002 -1.0541 -0.0161  0.0493
  334SOL    HW1 1001   0.691   1.583   0.990  4.1216  1.8184  1.4258
  334SOL    HW2 1002   0.851   1.622   0.945  0.8094  0.0496 -0.0785
  335SOL     OW 1003   0.597   2.295   2.874  0.3026  0.8700 -0.5387
  335SOL    HW1 1004   0.598   2.376   2.816 -0.9244 -1.0498 -2.1513
  335SOL    HW2 1005   0.501   2.248   2.873 -2.7560  3.9300  2.2423
  336SOL     OW 1006   0.047   3.087   1.894  0.0202  0.3514  0.1884
  336SOL    HW1 1007   0.070   3.064   1.801  0.2549  0.2958  0.5575
  336SOL    HW2 1008   3.083   0.061   1.886 -1.4050  1.4358 -0.8662
  337SOL     OW 1009   2.626   2.188   0.113 -0.3272  0.2516  0.4929
  337SOL    HW1 1010   2.597   2.270   0.162 -0.6714 -0.0793  2.5273
  337SOL    HW2 1011   2.551   2.115   0.114  1.0258 -0.7309 -1.3829
  338SOL     OW 1012   0.888   2.297   1.227 -0.1814  0.5576 -0.2717
  338SOL    HW1 1013   0.970   2.358   1.250  1.2049  2.0227  3.0043
  338SOL    HW2 1014   0.916   2.209   1.184 -2.3085  1.6570  0.1602
  339SOL     OW 1015   0.174   0.413   2.074  0.2612  0.2434 -0.1292
  339SOL    HW1 1016   0.111   0.470   2.018  1.0154 -0.7058  0.2243
  339SOL    HW2 1017   0.150   0.313   2.077  1.7593 -1.2857 -1.4264
  340SOL     OW 1018   1.493   2.585   0.713 -0.3681  0.0645  0.1355
  340SOL    HW1 1019   1.464   2.651   0.642  0.4189 -1.8295 -4.0913
  340SOL    HW2 1020   1.432   2.586   0.795  1.6350 -0.7803 -0.7999
  341SOL     OW 1021   1.539   1.297   1.027  0.8286 -0.2854  0.0818
  341SOL    HW1 1022   1.511   1.269   0.936 -0.8752 -0.4799  0.2011
  341SOL    HW2 1023   1.630   1.265   1.046 -3.5038 -2.1889 -2.0067
  342SOL     OW 1024   0.148   1.254   0.812  0.7531  0.0439  0.6265
  342SOL    HW1 1025   0.113   1.324   0.747 -0.0903 -1.0821 -1.3436
  342SOL    HW2 1026   0.198   1.182   0.761 -3.1089  0.9710  2.3183
  343SOL     OW 1027   1.595   0.297   1.452  0.3803  0.1705  0.2647
  343SOL    HW1 1028   1.563   0.388   1.421  4.6939  0.4194 -1.3945
  343SOL    HW2 1029   1.523   0.228   1.475 -1.5749  1.2668 -0.3602
  344SOL     OW 1030   1.911   2.421   1.251  0.8837  0.0856  0.5686
  344SOL    HW1 1031   1.946   2.516   1.262 -1.0862 -0.2204 -1.8253
  344SOL    HW2 1032   1.829   2.426   1.189 -3.1545 -1.3912  1.1249
  345SOL     OW 1033   2.830   2.427   2.860  0.1082  0.0073  0.0150
  345SOL    HW1 1034   2.841   2.514   2.815 -1.1406 -2.0970  2.0345
  345SOL    HW2 1035   2.909   2.422   2.928 -2.3158 -0.1354  2.3143
  346SOL     OW 1036   0.100   1.439   1.015 -0.2915  0.0391  0.0861
  346SOL    HW1 1037   0.118   1.526   0.965 -3.2614 -2.9530  2.3766
  346SOL    HW2 1038   0.116   1.361   0.953  0.9064  2.1886  2.1059
  347SOL     OW 1039   1.770   2.572   0.747  0.1442  0.0635 -0.0731
  347SOL    HW1 1040   1.670   2.548   0.752 -0.4104 -0.4144  1.3873
  347SOL    HW2 1041   1.798   2.609   0.835  0.1904 -0.3249 -0.6685
  348SOL     OW 1042   1.273   1.400   2.443  0.1789 -0.4936  0.4304
  348SOL    HW1 1043   1.259   1.302   2.439 -0.8305  3.6462 -0.9688
  348SOL    HW2 1044   1.197   1.453   2.394 -3.1486  3.2925 -3.8006
  349SOL     OW 1045   2.270   1.312   2.317  0.1729 -0.2280  0.0369
  349SOL    HW1 1046   2.192   1.308   2.256  0.8012  0.9713  0.9362
  349SOL    HW2 1047   2.285   1.233   2.377 -2.0628  0.7128  4.5997
  350SOL     OW 1048   0.164   2.278   1.437 -0.6597  0.1309 -0.6154
  350SOL    HW1 1049   0.089   2.215   1.439  4.0419 -0.5461 -0.2705
  350SOL    HW2 1050   0.250   2.228   1.430 -1.5465 -1.3302  0.7225
  351SOL     OW 1051   0.609   0.271   2.642  0.7820 -0.3145 -0.0599
  351SOL    HW1 1052   0.647   0.295   2.735 -1.8900  1.3832  0.1297
  351SOL    HW2 1053   0.668   0.317   2.570 -0.1561  2.1761  0.3241
  352SOL     OW 1054   0.926   2.897   1.378 -0.3279  0.3770 -0.5134
  352SOL    HW1 1055   1.006   2.833   1.412  1.1061 -3.7567 -1.4268
  352SOL    HW2 1056   0.850   2.882   1.444 -1.0442 -0.7266  2.9641
  353SOL     OW 1057   0.947   0.838   2.526 -0.0744  0.0882 -0.7771
  353SOL    HW1 1058   0.890   0.755   2.538  1.0578 -0.5518  0.1380
  353SOL    HW2 1059   0.909   0.906   2.588  1.8660 -2.0821 -0.6830
  354SOL     OW 1060   1.554   1.145   0.133  0.4804 -0.4284 -0.0072
  354SOL    HW1 1061   1.581   1.060   0.178  0.8081  2.4905 -1.0498
  354SOL    HW2 1062   1.481   1.129   0.063 -1.4711  2.1789 -1.4414
  355SOL     OW 1063   2.408   0.383   0.506  0.2457 -0.3269  0.3238
  355SOL    HW1 1064   2.409   0.424   0.601 -0.5315 -0.6517  1.0819
  355SOL    HW2 1065   2.477   0.313   0.496 -2.5851 -0.4801  0.2863
  356SOL     OW 1066   2.819   0.953   2.614 -0.1230 -0.3977  0.1023
  356SOL    HW1 1067   2.859   1.046   2.593 -0.5740  3.5051  1.8580
  356SOL    HW2 1068   2.884   0.891   2.659 -2.3864 -0.6582  0.1692
  357SOL     OW 1069   0.671   2.922   1.981 -0.1098 -0.1353  0.3764
  357SOL    HW1 1070   0.695   3.013   1.947 -0.8257 -3.1856 -0.2627
  357SOL    HW2 1071   0.585   2.882   1.941 -0.8114  0.1286 -0.0752
  358SOL     OW 1072   2.930   1.207   2.606  0.4569 -0.0912 -0.5671
  358SOL    HW1 1073   2.875   1.294   2.600  1.1344  0.1921  0.2065
  358SOL    HW2 1074   3.016   1.210   2.553 -1.3968  0.1264 -0.0699
  359SOL     OW 1075   2.614   2.642   2.736 -0.2342 -0.5875  0.0175
  359SOL    HW1 1076   2.543   2.715   2.731 -1.0432  0.5539  0.1522
  359SOL    HW2 1077   2.590   2.562   2.674  1.5196  1.0142 -0.2161
  360SOL     OW 1078   1.846   1.131   0.983  0.2014 -0.0474  0.0805
  360SOL    HW1 1079   1.795   1.080   0.908 -0.3997 -1.0846 -1.3056
  360SOL    HW2 1080   1.944   1.094   0.984  0.1385 -1.6316 -0.6933
  361SOL     OW 1081   1.799   2.740   0.958 -0.0754 -0.0145 -0.2252
  361SOL    HW1 1082   1.711   2.794   0.958  0.3355  2.1819  1.5691
  361SOL    HW2 1083   1.882   2.794   0.951 -1.8813  3.0682 -0.1542
  362SOL     OW 1084   1.454   1.252   0.753  0.2629 -0.0440 -0.2044
  362SOL    HW1 1085   1.364   1.277   0.712  0.8623 -0.3202  2.3668
  362SOL    HW2 1086   1.524   1.269   0.679 -2.4842  0.2669  0.0468
  363SOL     OW 1087   3.046   2.123   2.639 -0.3724  0.6991 -0.6300
  363SOL    HW1 1088   2.966   2.059   2.662 -2.4505 -1.2464  3.6142
  363SOL    HW2 1089   3.071   2.182   2.719 -1.1128 -0.7465  2.1320
  364SOL     OW 1090   1.575   0.728   1.454 -0.2432 -0.5521 -0.6516
  364SOL    HW1 1091   1.550   0.720   1.551  1.6998 -0.0099 -0.7673
  364SOL    HW2 1092   1.540   0.645   1.407  1.7830 -2.7672 -0.1633
  365SOL     OW 1093   2.963   2.976   1.225 -0.1625  0.1798  0.9878
  365SOL    HW1 1094   2.935   3.072   1.220  1.6963 -0.3988 -3.0492
  365SOL    HW2 1095   2.885   2.924   1.185  0.6927 -1.0955 -1.3393
  366SOL     OW 1096   2.920   1.290   0.270  0.1713  0.5641 -0.5285
  366SOL    HW1 1097   2.934   1.393   0.265 -1.0146 -1.1854  2.1181
  366SOL    HW2 1098   2.827   1.257   0.290 -1.4080 -2.5842 -0.2696
  367SOL     OW 1099   2.843   1.951   2.741  0.4389 -0.2208 -0.2663
  367SOL    HW1 1100   2.746   1.982   2.744 -0.0377  0.7926 -1.1394
  367SOL    HW2 1101   2.879   1.940   2.835 -0.3328  2.6553  0.2219
  368SOL     OW 1102   2.723   1.931   1.279  0.2192 -0.0011  0.0628
  368SOL    HW1 1103   2.711   2.027   1.313  0.3127 -0.6467  2.0335
  368SOL    HW2 1104   2.680   1.919   1.187  0.5768 -2.1845  0.8605
  369SOL     OW 1105   0.724   0.423   0.380 -0.2296  0.1136  0.2788
  369SOL    HW1 1106   0.713   0.361   0.299  2.0711 -0.9084  0.0805
  369SOL    HW2 1107   0.626   0.434   0.409 -1.3980 -1.4080  0.4148
  370SOL     OW 1108   0.800   0.750   1.374 -0.1225 -0.3780 -0.3137
  370SOL    HW1 1109   0.803   0.652   1.351  1.2971  1.1087  0.3934
  370SOL    HW2 1110   0.834   0.765   1.468 -0.0040  1.0230 -2.7103
  371SOL     OW 1111   2.430   1.717   0.218 -0.3157 -0.8361  0.4979
  371SOL    HW1 1112   2.416   1.717   0.116 -1.4798 -0.8622  1.7223
  371SOL    HW2 1113   2.358   1.770   0.272  2.7783 -0.4829  0.2671
  372SOL     OW 1114   0.236   1.051   2.470  0.2522  0.1425 -0.1805
  372SOL    HW1 1115   0.295   1.012   2.540 -1.2706  0.9655  0.5309
  372SOL    HW2 1116   0.274   1.012   2.384 -1.7109 -0.6950  0.8276
  373SOL     OW 1117   2.668   1.216   0.615  0.2243  0.1466  0.0266
  373SOL    HW1 1118   2.640   1.312   0.612 -1.4541 -2.8340  0.3850
  373SOL    HW2 1119   2.715   1.187   0.702  0.3541 -2.0061 -0.8131
  374SOL     OW 1120   0.463   2.482   0.095 -0.2482 -0.0887 -0.2012
  374SOL    HW1 1121   0.459   2.388   0.134 -0.1548  1.0638 -0.2761
  374SOL    HW2 1122   0.522   2.544   0.155 -1.1081  0.6758  0.8569
  375SOL     OW 1123   0.910   0.466   0.098 -0.0966 -0.1204 -0.4347
  375SOL    HW1 1124   0.911   0.537   0.026 -1.2417 -1.0658  3.9100
  375SOL    HW2 1125   0.817   0.428   0.095 -0.1527 -0.8684 -0.3305
  376SOL     OW 1126   0.050   2.949   2.131  0.3164 -0.4425 -0.1531
  376SOL    HW1 1127   0.052   2.992   2.043  0.8494 -5.7775  3.6639
  376SOL    HW2 1128   3.080   2.988   2.191  1.5655 -1.2449 -2.6191
  377SOL     OW 1129   0.485   1.870   2.292 -0.2333  0.4491 -0.3220
  377SOL    HW1 1130   0.438   1.836   2.379  0.4265  2.5664 -1.1683
  377SOL    HW2 1131   0.504   1.783   2.240 -2.3606  1.4455  1.4645
  378SOL     OW 1132   1.538   0.937   0.339 -0.2155  0.0195  0.7446
  378SOL    HW1 1133   1.444   0.928   0.297 -1.8637 -0.8303  0.9738
  378SOL    HW2 1134   1.542   0.907   0.436  1.4422 -1.6435 -2.5704
  379SOL     OW 1135   1.449   1.277   3.015 -0.3375 -0.7331 -0.0496
  379SOL    HW1 1136   1.473   1.311   0.005  0.4330 -0.5829 -0.6474
  379SOL    HW2 1137   1.456   1.351   2.943 -0.8285 -1.1490  0.7817
  380SOL     OW 1138   2.485   2.030   2.227  0.0903 -0.1864 -0.3761
  380SOL    HW1 1139   2.540   2.082   2.300 -1.6900  1.7227 -1.7912
  380SOL    HW2 1140   2.479   2.088   2.144 -0.0434  1.2485  1.8688
  381SOL     OW 1141   0.413   0.748   1.637 -0.1946  0.5339  0.5012
  381SOL    HW1 1142   0.402   0.851   1.634  0.1624 -0.1491 -3.8744
  381SOL    HW2 1143   0.361   0.708   1.709 -0.7632 -0.4143 -0.9216
  382SOL     OW 1144   2.576   2.328   2.784 -0.4361  0.2263 -0.0768
  382SOL    HW1 1145   2.560   2.374   2.692 -0.7283  0.6250  0.9227
  382SOL    HW2 1146   2.666   2.361   2.815 -1.2776 -0.3022  0.3436
  383SOL     OW 1147   2.022   1.579   2.172 -0.1300 -0.1118  0.1336
  383SOL    HW1 1148   2.113   1.576   2.131 -3.6243  0.1998  0.9876
  383SOL    HW2 1149   1.955   1.517   2.129 -0.1917  0.7831  0.4376
  384SOL     OW 1150   0.673   2.299   2.359  0.3791 -0.3415 -0.0793
  384SOL    HW1 1151   0.716   2.262   2.278  1.1525  0.7211  3.4450
  384SOL    HW2 1152   0.588   2.252   2.395 -0.5963 -0.3407  1.0095
  385SOL     OW 1153   2.684   2.255   0.949 -0.2157 -0.3207 -0.0656
  385SOL    HW1 1154   2.751   2.335   0.963  1.7965  1.2635 -1.3127
  385SOL    HW2 1155   2.618   2.279   0.876  2.5876  1.0634  1.4599
  386SOL     OW 1156   1.655   0.724   0.076  0.3572  0.2047 -0.2141
  386SOL    HW1 1157   1.657   0.648   0.147  1.2401 -1.2650  1.1178
  386SOL    HW2 1158   1.713   0.803   0.105 -1.3277 -0.9648  0.5599
  387SOL     OW 1159   0.392   1.039   1.637 -0.2072  0.2680 -0.3066
  387SOL    HW1 1160   0.348   1.056   1.547 -1.5910 -4.1204 -2.0104
  387SOL    HW2 1161   0.493   1.059   1.641 -0.1840  1.5514  1.0554
  388SOL     OW 1162   3.022   0.863   1.542 -0.2842  0.1923  0.0188
  388SOL    HW1 1163   2.987   0.769   1.516 -1.3585 -1.4026 -0.2927
  388SOL    HW2 1164   2.956   0.933   1.504  0.1862  0.8638 -2.2748
  389SOL     OW 1165   1.821   1.048   2.542 -0.3751  0.5283 -0.5767
  389SOL    HW1 1166   1.732   1.071   2.587 -2.5675  0.1173 -3.5314
  389SOL    HW2 1167   1.872   0.971   2.581 -0.2700  0.8382 -2.8154
  390SOL     OW 1168   2.135   2.129   0.558 -0.4120  0.1135 -0.5117
  390SOL    HW1 1169   2.196   2.176   0.628  3.1069  0.1879 -0.0911
  390SOL    HW2 1170   2.084   2.044   0.595  0.2402  1.2834  2.6851
  391SOL     OW 1171   1.309   2.655   0.906  0.0436 -0.1511 -0.2646
  391SOL    HW1 1172   1.228   2.636   0.848  0.5188  1.0771  0.8865
  391SOL    HW2 1173   1.315   2.606   0.996 -1.2595  1.4551 -0.5468
  392SOL     OW 1174   2.594   2.982   1.372 -0.1543  0.2946  0.9498
  392SOL    HW1 1175   2.622   2.889   1.359  2.1495 -1.1609  2.8998
  392SOL    HW2 1176   2.497   2.986   1.360  0.7865  0.0557  1.9334
  393SOL     OW 1177   1.920   2.241   2.740 -0.1445  0.1672  0.3959
  393SOL    HW1 1178   1.965   2.326   2.764 -1.6808  0.8322 -1.2907
  393SOL    HW2 1179   1.951   2.159   2.799 -0.3181  0.4592  2.0995
  394SOL     OW 1180   0.588   2.584   2.712  0.0920 -0.2449 -0.4661
  394SOL    HW1 1181   0.557   2.578   2.804  2.6847 -0.7239  0.5594
  394SOL    HW2 1182   0.690   2.576   2.703 -0.9075 -0.0738 -2.2717
  395SOL     OW 1183   0.477   1.120   1.168 -0.6013  0.0080 -0.0849
  395SOL    HW1 1184   0.407   1.056   1.129  0.5872 -0.9180 -0.3995
  395SOL    HW2 1185   0.452   1.219   1.153  0.8613  1.1211 -1.1069
  396SOL     OW 1186   1.992   1.264   2.526  0.3975 -0.0945 -0.6907
  396SOL    HW1 1187   2.057   1.259   2.605  1.8067  0.0557  1.2337
  396SOL    HW2 1188   1.926   1.188   2.519  1.3337 -0.5393  1.1938
  397SOL     OW 1189   2.874   0.523   2.610 -0.0918 -0.4390  1.1883
  397SOL    HW1 1190   2.869   0.423   2.590 -0.9256 -1.4854 -1.3481
  397SOL    HW2 1191   2.948   0.539   2.677 -5.8491  0.2324 -2.8471
  398SOL     OW 1192   1.532   0.511   0.458 -0.4590 -0.1059  0.2225
  398SOL    HW1 1193   1.497   0.420   0.478  0.8539  3.4200  0.4321
  398SOL    HW2 1194   1.455   0.577   0.476 -0.6374 -1.2302 -2.0358
  399SOL     OW 1195   2.016   2.951   1.619 -0.4407  0.1365 -0.3451
  399SOL    HW1 1196   1.922   2.938   1.594  3.1927 -0.3574  1.2244
  399SOL    HW2 1197   2.072   2.870   1.588 -1.3156 -0.0298  1.0694
  400SOL     OW 1198   0.034   2.494   1.811  0.0870  0.1243  0.0583
  400SOL    HW1 1199   0.057   2.394   1.797 -0.3841 -0.5507 -0.7521
  400SOL    HW2 1200   0.071   2.555   1.739 -0.7737  0.0849  2.3476
  401SOL     OW 1201   0.635   0.161   0.157  0.1303 -0.0657 -0.1926
  401SOL    HW1 1202   0.553   0.108   0.182  0.0260 -0.6562 -0.4706
  401SOL    HW2 1203   0.713   0.107   0.122 -1.2681 -2.6519 -0.0862
  402SOL     OW 1204   0.578   2.612   1.617 -0.0651 -0.0661  0.5504
  402SOL    HW1 1205   0.663   2.561   1.630 -0.6774  2.0856  0.4719
  402SOL    HW2 1206   0.500   2.542   1.614 -1.3944  0.7184 -0.5291
  403SOL     OW 1207   0.179   1.131   1.787 -0.0997 -0.3333 -0.0715
  403SOL    HW1 1208   0.083   1.100   1.771  1.1289  1.5770 -0.0802
  403SOL    HW2 1209   0.246   1.078   1.735  1.2852 -2.2441  1.0880
  404SOL     OW 1210   2.870   2.437   1.891  0.1787 -0.7671 -0.2721
  404SOL    HW1 1211   2.969   2.456   1.885 -3.8037 -2.4662  2.0849
  404SOL    HW2 1212   2.821   2.435   1.802 -0.2368  0.1041  0.5140
  405SOL     OW 1213   2.613   0.218   2.378 -0.1778 -0.3047  0.2111
  405SOL    HW1 1214   2.552   0.142   2.411 -0.4088  1.0473  2.0075
  405SOL    HW2 1215   2.691   0.189   2.314 -0.1339  1.3902 -1.5418
  406SOL     OW 1216   1.787   2.505   0.390 -0.0732 -0.2537 -0.5307
  406SOL    HW1 1217   1.857   2.442   0.423  0.0656 -0.4656  1.2161
  406SOL    HW2 1218   1.690   2.472   0.428 -4.1730 -3.9743  1.6769
  407SOL     OW 1219   2.141   1.512   0.549 -0.6433 -0.5394  0.2970
  407SOL    HW1 1220   2.239   1.518   0.528 -1.3608 -1.6624  0.6561
  407SOL    HW2 1221   2.080   1.563   0.480 -2.6225  0.4254 -2.8199
  408SOL     OW 1222   0.423   0.485   2.089  0.0327 -0.1043  0.4385
  408SOL    HW1 1223   0.327   0.444   2.084 -2.7520 -1.8391  0.4970
  408SOL    HW2 1224   0.438   0.494   2.191 -0.3163  2.5616  0.4973
  409SOL     OW 1225   2.974   1.576   0.262  0.1221  0.1184  0.2605
  409SOL    HW1 1226   2.882   1.605   0.240 -1.4687 -0.7637 -0.8943
  409SOL    HW2 1227   3.040   1.653   0.257 -4.7818 -0.5213  0.7805
  410SOL     OW 1228   2.038   1.671   1.413  0.2082  0.2995  0.6039
  410SOL    HW1 1229   2.137   1.665   1.389 -1.6065  0.8478 -0.8334
  410SOL    HW2 1230   1.980   1.622   1.343 -2.4753 -0.5069  2.4838
  411SOL     OW 1231   0.003   0.510   0.571  0.1208  0.5624 -0.5694
  411SOL    HW1 1232   0.009   0.554   0.479  0.9797 -1.8590  1.8701
  411SOL    HW2 1233   3.024   0.449   0.563  0.4754  1.2257 -1.8646
  412SOL     OW 1234   1.567   0.305   0.087  0.5344 -0.0225  0.4424
  412SOL    HW1 1235   1.607   0.391   0.129  1.2010 -2.0922  2.2240
  412SOL    HW2 1236   1.506   0.255   0.154 -0.2417  1.2291 -0.3011
  413SOL     OW 1237   1.294   0.448   1.628 -0.1677 -0.1957  0.5856
  413SOL    HW1 1238   1.351   0.529   1.653  1.4866 -1.0901 -1.7028
  413SOL    HW2 1239   1.272   0.443   1.527  0.4092  1.0536  0.5189
  414SOL     OW 1240   0.313   1.099   0.280 -0.2801  0.0525  0.0217
  414SOL    HW1 1241   0.330   1.004   0.250 -0.0636  0.4562  2.2176
  414SOL    HW2 1242   0.294   1.157   0.194  0.1382  3.0673 -1.6735
  415SOL     OW 1243   0.084   1.367   0.558  0.1911  0.2375  0.2776
  415SOL    HW1 1244   0.041   1.460   0.541  1.1057 -2.4715 -0.2858
  415SOL    HW2 1245   0.061   1.299   0.488 -0.7168  1.2171 -3.8175
  416SOL     OW 1246   1.975   0.763   0.282 -0.1411 -0.0161  0.0040
  416SOL    HW1 1247   1.913   0.835   0.320 -1.3745 -1.5321 -3.4007
  416SOL    HW2 1248   1.935   0.672   0.303 -1.9709 -0.3734 -0.2293
  417SOL     OW 1249   3.022   0.180   0.233  0.0610 -0.0283  0.6290
  417SOL    HW1 1250   3.020   0.089   0.282  0.5097  1.7543  0.5855
  417SOL    HW2 1251   0.017   0.207   0.211  2.6605 -1.5646 -0.9199
  418SOL     OW 1252   2.604   0.815   0.023  0.7751 -0.0403  0.4253
  418SOL    HW1 1253   2.654   0.730   0.001 -2.3919  2.4305  0.7888
  418SOL    HW2 1254   2.509   0.812   3.088 -1.8935 -1.4224  0.5734
  419SOL     OW 1255   0.629   0.427   0.067  0.1985 -0.1374 -0.9227
  419SOL    HW1 1256   0.641   0.421   3.069  0.2724 -1.3576 -1.1893
  419SOL    HW2 1257   0.594   0.338   0.103 -0.4450  1.4463 -0.0529
  420SOL     OW 1258   0.494   1.244   0.791 -0.7227 -0.2227  0.5338
  420SOL    HW1 1259   0.564   1.172   0.767  0.0720  0.1675 -0.6431
  420SOL    HW2 1260   0.445   1.273   0.709  1.2268 -0.4720  0.1800
  421SOL     OW 1261   0.465   2.001   0.059  0.3183  0.5086 -0.4472
  421SOL    HW1 1262   0.456   1.918   0.114 -0.9600  0.9493  0.3887
  421SOL    HW2 1263   0.376   2.027   0.013 -1.4605  0.3479  2.0645
  422SOL     OW 1264   2.570   0.328   1.522 -0.1211  0.0816 -0.1590
  422SOL    HW1 1265   2.495   0.278   1.567  1.3955  2.5606 -4.5524
  422SOL    HW2 1266   2.605   0.282   1.440  1.3820 -1.6124  2.3088
  423SOL     OW 1267   1.960   1.929   0.625  0.1383 -0.4913  0.5087
  423SOL    HW1 1268   1.959   1.866   0.705 -0.5858  1.2256  0.4142
  423SOL    HW2 1269   1.918   1.890   0.540  2.0304  1.8271 -2.9593
  424SOL     OW 1270   1.730   1.350   2.981  0.5167  0.0127  0.3478
  424SOL    HW1 1271   1.714   1.390   3.073  2.7217  1.4399 -0.8658
  424SOL    HW2 1272   1.666   1.385   2.912  0.5214 -1.4992  0.9186
  425SOL     OW 1273   0.321   3.010   2.420  0.2787 -0.2025  0.2631
  425SOL    HW1 1274   0.368   3.066   2.489 -0.9355 -1.6038  1.7247
  425SOL    HW2 1275   0.385   2.947   2.372 -0.3871  2.4327  2.3467
  426SOL     OW 1276   2.430   2.870   2.750  0.2793  0.6193 -0.1751
  426SOL    HW1 1277   2.492   2.950   2.749 -1.5106 -0.9548  1.8249
  426SOL    HW2 1278   2.347   2.885   2.692 -2.7264 -3.2885 -0.4712
  427SOL     OW 1279   0.594   1.106   2.000  0.2873  0.1312 -0.4703
  427SOL    HW1 1280   0.671   1.054   2.041  0.6933  1.8561 -0.7033
  427SOL    HW2 1281   0.613   1.209   1.996  0.4604  2.3259 -0.9591
  428SOL     OW 1282   2.449   1.458   2.178  0.3256 -0.8181 -0.6277
  428SOL    HW1 1283   2.387   1.409   2.248 -2.7788 -4.3713 -0.3897
  428SOL    HW2 1284   2.389   1.516   2.115 -0.2990  3.4691  0.7972
  429SOL     OW 1285   2.581   0.146   0.571  0.3493 -0.9752 -0.2660
  429SOL    HW1 1286   2.643   0.136   0.490  1.8773 -0.4265 -0.6154
  429SOL    HW2 1287   2.549   0.055   0.604  0.8183  2.1382  0.1900
  430SOL     OW 1288   1.731   1.355   2.448 -0.7248  0.0900 -0.4539
  430SOL    HW1 1289   1.835   1.345   2.462  3.5263  0.1286  2.4421
  430SOL    HW2 1290   1.708   1.370   2.345  0.3475  1.0266 -0.3988
  431SOL     OW 1291   2.739   1.976   1.774  0.2735  0.5813 -0.4793
  431SOL    HW1 1292   2.723   1.912   1.697 -1.2659 -0.0468  0.7180
  431SOL    HW2 1293   2.803   2.057   1.750  1.0438  4.2754 -2.5506
  432SOL     OW 1294   0.822   2.719   2.206  0.0021 -0.0458 -0.2462
  432SOL    HW1 1295   0.867   2.672   2.127  2.2730  1.8548 -0.9624
  432SOL    HW2 1296   0.807   2.822   2.187  1.4224  0.3499  2.4807
  433SOL     OW 1297   1.549   2.890   0.948 -0.2702  1.0207  0.3199
  433SOL    HW1 1298   1.538   2.948   0.868  0.9367 -1.6523  2.8638
  433SOL    HW2 1299   1.489   2.807   0.943  0.2485 -0.3787  1.7100
  434SOL     OW 1300   0.475   2.343   2.013 -0.1348 -0.4070  0.3625
  434SOL    HW1 1301   0.534   2.315   1.932  0.5229 -1.4504 -1.3762
  434SOL    HW2 1302   0.458   2.261   2.071 -0.5636 -0.6883 -1.0364
  435SOL     OW 1303   0.377   1.401   0.590  0.7107 -0.2070  0.0837
  435SOL    HW1 1304   0.423   1.339   0.524  0.3808  2.2551 -0.4686
  435SOL    HW2 1305   0.276   1.402   0.568 -0.7871  0.1381 -2.4014
  436SOL     OW 1306   0.059   1.540   1.622 -0.0013 -0.1191 -0.2939
  436SOL    HW1 1307   0.014   1.584   1.707 -1.9736 -0.9563  2.2499
  436SOL    HW2 1308   0.010   1.543   1.539  0.6480 -2.3562  0.8237
  437SOL     OW 1309   1.262   0.495   0.273 -0.1112  0.3441 -0.4887
  437SOL    HW1 1310   1.166   0.470   0.300  0.8002  0.5442  2.0951
  437SOL    HW2 1311   1.312   0.531   0.355  1.2894 -1.7856 -0.0256
  438SOL     OW 1312   0.469   1.872   1.100  0.4933 -0.1608 -0.4380
  438SOL    HW1 1313   0.408   1.952   1.069 -0.4965 -0.3737  1.0072
  438SOL    HW2 1314   0.473   1.859   1.203 -2.0137  0.4846 -0.9297
  439SOL     OW 1315   1.638   1.703   2.799 -0.0541  0.3971  0.3041
  439SOL    HW1 1316   1.574   1.759   2.856  0.4293 -0.6639 -1.9622
  439SOL    HW2 1317   1.735   1.745   2.798  2.0103  1.4740 -2.1886
  440SOL     OW 1318   1.508   0.513   1.317  0.4758 -0.0513 -0.0809
  440SOL    HW1 1319   1.415   0.485   1.341 -0.8149  2.3563  0.1116
  440SOL    HW2 1320   1.529   0.476   1.225 -0.3564 -1.1631  0.1254
  441SOL     OW 1321   0.726   2.870   1.569  0.2836  0.0783  0.6903
  441SOL    HW1 1322   0.672   2.784   1.594 -0.3724 -2.5129 -0.6877
  441SOL    HW2 1323   0.671   2.950   1.590  1.7843 -0.9555  0.9133
  442SOL     OW 1324   2.292   2.214   0.764  0.7289  0.0687 -0.1559
  442SOL    HW1 1325   2.386   2.258   0.765  0.9937  1.3483  1.4414
  442SOL    HW2 1326   2.220   2.280   0.805  1.0635 -1.5036 -2.1141
  443SOL     OW 1327   2.876   0.633   2.328  0.0618  0.4932 -0.0351
  443SOL    HW1 1328   2.780   0.629   2.296 -0.0759 -0.7150  2.3028
  443SOL    HW2 1329   2.874   0.602   2.429  2.9635 -1.3910  1.3113
  444SOL     OW 1330   1.476   0.982   2.276  0.1815  0.8200  0.1386
  444SOL    HW1 1331   1.574   0.967   2.299  1.6537 -1.4765  0.6608
  444SOL    HW2 1332   1.473   1.009   2.175  0.7083  1.8659 -1.2980
  445SOL     OW 1333   2.683   2.173   1.390  0.7639 -0.1985 -0.3219
  445SOL    HW1 1334   2.721   2.253   1.441  1.4433 -2.1123 -1.5948
  445SOL    HW2 1335   2.586   2.160   1.426 -3.5005 -0.6871  2.6846
  446SOL     OW 1336   0.204   1.031   0.635 -0.1728 -0.1427 -0.0681
  446SOL    HW1 1337   0.146   1.079   0.568 -0.0514 -1.6295 -0.3594
  446SOL    HW2 1338   0.273   0.969   0.591 -1.5849  0.8830  1.0352
  447SOL     OW 1339   0.568   2.160   0.704  0.7429  0.1431 -0.0351
  447SOL    HW1 1340   0.577   2.189   0.802  1.7488  0.2498  1.0246
  447SOL    HW2 1341   0.568   2.059   0.696  0.4408 -1.6198 -1.0106
  448SOL     OW 1342   1.595   1.364   1.550 -0.2313 -0.3668 -0.1047
  448SOL    HW1 1343   1.551   1.410   1.631  0.1743 -1.0975  2.6770
  448SOL    HW2 1344   1.525   1.325   1.492  2.0929  1.9824  2.7851
  449SOL     OW 1345   0.473   1.686   2.874 -0.4243 -0.1444  0.2270
  449SOL    HW1 1346   0.484   1.588   2.859  0.9216  1.0983  2.0922
  449SOL    HW2 1347   0.561   1.733   2.905  1.2058 -0.0629  0.2551
  450SOL     OW 1348   2.463   2.205   2.007 -0.0037  0.1833 -0.5697
  450SOL    HW1 1349   2.392   2.256   2.054  1.8222 -0.2613  0.3125
  450SOL    HW2 1350   2.540   2.268   1.995  0.4001  3.6212  1.4874
  451SOL     OW 1351   2.361   0.524   1.781  0.3551  0.4075  0.3768
  451SOL    HW1 1352   2.305   0.449   1.737 -1.2693 -2.5596 -1.7302
  451SOL    HW2 1353   2.352   0.615   1.732 -2.0618 -0.4478 -0.1444
  452SOL     OW 1354   0.819   2.582   1.321  0.4349 -0.0251 -0.2452
  452SOL    HW1 1355   0.769   2.642   1.257 -0.1430 -1.2706 -2.1833
  452SOL    HW2 1356   0.908   2.547   1.287 -1.4915  0.8953  0.9390
  453SOL     OW 1357   0.832   1.291   0.908  0.5345 -0.0209  0.6706
  453SOL    HW1 1358   0.794   1.270   0.813 -0.9938 -2.8219 -5.0808
  453SOL    HW2 1359   0.806   1.386   0.936  0.7657  0.1560 -0.8901
  454SOL     OW 1360   2.801   1.156   0.828 -0.1598 -0.4901 -0.0563
  454SOL    HW1 1361   2.819   1.076   0.894 -0.6207 -0.9791  0.7632
  454SOL    HW2 1362   2.813   1.244   0.881  2.0122  1.2377  1.3083
  455SOL     OW 1363   0.307   0.121   0.389  0.0575  0.2481 -0.2961
  455SOL    HW1 1364   0.243   0.176   0.330 -0.4884  2.5296 -0.8434
  455SOL    HW2 1365   0.371   0.197   0.422  0.6459  2.0859  0.4882
  456SOL     OW 1366   2.175   2.512   0.553  0.1725 -0.1224 -0.1473
  456SOL    HW1 1367   2.230   2.558   0.624 -2.3467 -0.0568 -5.1127
  456SOL    HW2 1368   2.135   2.423   0.593  0.7372  0.3750 -1.9530
  457SOL     OW 1369   1.169   2.818   0.201  0.0339  0.5941  0.6218
  457SOL    HW1 1370   1.167   2.917   0.172  0.8509  4.5731 -0.8861
  457SOL    HW2 1371   1.163   2.765   0.114 -0.7229  0.3052 -1.9887
  458SOL     OW 1372   2.946   2.855   0.200  0.3756 -0.4498 -0.3533
  458SOL    HW1 1373   2.919   2.772   0.158  0.2579  2.1034  0.6864
  458SOL    HW2 1374   2.910   2.938   0.146  3.3920  3.2528 -0.2160
  459SOL     OW 1375   2.531   0.509   2.006 -0.1446  0.0864 -0.5126
  459SOL    HW1 1376   2.502   0.461   2.092 -2.5322 -3.0771  0.5776
  459SOL    HW2 1377   2.455   0.495   1.934 -1.2709 -0.8998  1.3135
  460SOL     OW 1378   0.018   0.632   0.319  0.1326 -0.2975  0.1074
  460SOL    HW1 1379   3.101   0.723   0.277  1.1526 -2.2107 -0.3913
  460SOL    HW2 1380   3.053   0.564   0.284  0.7932  0.2624 -0.0954
  461SOL     OW 1381   0.022   1.859   1.457  0.1582  0.2053  0.6690
  461SOL    HW1 1382   3.077   1.814   1.378  1.5473  0.2908 -1.4281
  461SOL    HW2 1383   0.119   1.839   1.452 -1.3786  3.8326 -1.1765
  462SOL     OW 1384   2.760   2.975   0.795 -0.2486 -0.1948 -0.2104
  462SOL    HW1 1385   2.855   2.995   0.763 -0.6852  0.2704 -1.6327
  462SOL    HW2 1386   2.733   3.035   0.874  1.2596  1.3564 -1.3957
  463SOL     OW 1387   2.979   1.097   0.078 -0.2061 -0.1427 -0.4309
  463SOL    HW1 1388   2.994   1.112   3.084  0.8223 -2.4096  4.8587
  463SOL    HW2 1389   2.958   1.186   0.124  1.2190 -0.6511 -0.2813
  464SOL     OW 1390   0.549   2.476   1.269 -0.0686  0.0437 -0.0339
  464SOL    HW1 1391   0.510   2.534   1.340  0.7490 -1.1403 -2.1163
  464SOL    HW2 1392   0.649   2.490   1.263 -2.6706 -1.1813  0.5223
  465SOL     OW 1393   0.814   0.500   1.163  0.1300  0.3530  0.1054
  465SOL    HW1 1394   0.896   0.508   1.108 -0.2297  0.5148  1.2388
  465SOL    HW2 1395   0.731   0.502   1.106  3.9730 -0.4656  0.4964
  466SOL     OW 1396   1.407   2.516   2.251  0.1267  0.0674  0.3505
  466SOL    HW1 1397   1.455   2.427   2.270  0.4901 -1.3786  1.4640
  466SOL    HW2 1398   1.469   2.591   2.270  0.9075  0.1879  1.0224
  467SOL     OW 1399   1.053   0.327   1.919 -0.2422  0.3083  0.1530
  467SOL    HW1 1400   1.049   0.390   1.995 -2.5063  0.4698 -1.5175
  467SOL    HW2 1401   1.067   0.230   1.956  1.5594 -3.5604 -0.0125
  468SOL     OW 1402   0.312   0.982   2.230 -0.5917  0.4189  0.1562
  468SOL    HW1 1403   0.275   1.053   2.173 -2.1135 -2.0564 -1.7482
  468SOL    HW2 1404   0.282   0.889   2.203 -1.3228 -2.1363  0.8744
  469SOL     OW 1405   0.846   2.187   0.609  0.1837  0.0325  0.4958
  469SOL    HW1 1406   0.906   2.251   0.668  1.0473  2.2422  2.4592
  469SOL    HW2 1407   0.746   2.202   0.637 -0.9327  1.9645 -2.0731
  470SOL     OW 1408   2.433   1.770   2.014  0.3405 -0.4161 -0.0021
  470SOL    HW1 1409   2.534   1.788   2.020 -0.7212 -1.1780  1.3164
  470SOL    HW2 1410   2.400   1.782   1.920 -1.1143  2.0254  3.6117
  471SOL     OW 1411   1.011   0.291   2.893 -0.3191 -0.2378 -0.5803
  471SOL    HW1 1412   1.024   0.264   2.989  1.1874 -1.5659 -1.6563
  471SOL    HW2 1413   1.050   0.382   2.878 -1.4313 -2.2507 -0.2000
  472SOL     OW 1414   0.504   2.725   1.871  0.3424  0.2500 -0.1971
  472SOL    HW1 1415   0.504   2.657   1.947  2.1329 -2.6813  1.0187
  472SOL    HW2 1416   0.553   2.690   1.790 -2.8921  0.4780 -2.1949
  473SOL     OW 1417   0.956   3.070   2.693  0.1565 -0.0038  0.0168
  473SOL    HW1 1418   0.930   0.052   2.736 -2.0438  2.3976 -0.6747
  473SOL    HW2 1419   0.895   3.051   2.612  0.3863 -0.4234 -0.2030
  474SOL     OW 1420   1.647   0.200   0.931 -0.6673 -0.3268  0.1532
  474SOL    HW1 1421   1.695   0.213   1.019 -1.5690  3.1395  0.0764
  474SOL    HW2 1422   1.630   0.292   0.888 -2.5848 -0.0415 -0.3076
  475SOL     OW 1423   1.800   0.578   1.381  0.4650 -0.1145 -0.7108
  475SOL    HW1 1424   1.722   0.636   1.410  0.4392 -1.8067 -0.3853
  475SOL    HW2 1425   1.776   0.547   1.285 -0.9720  0.5336 -0.9300
  476SOL     OW 1426   0.306   0.879   0.853  0.1115 -0.1064 -0.1019
  476SOL    HW1 1427   0.268   0.920   0.942 -1.7079  2.2274  2.9951
  476SOL    HW2 1428   0.265   0.935   0.778  0.6636  1.9544  1.9045
  477SOL     OW 1429   1.009   2.321   0.790  0.1542 -0.0545  0.1096
  477SOL    HW1 1430   1.026   2.386   0.713  1.5716 -1.9120 -2.5494
  477SOL    HW2 1431   1.014   2.371   0.879 -1.3794  0.6823  0.4905
  478SOL     OW 1432   3.009   2.719   2.132 -0.0953 -0.0708 -0.5074
  478SOL    HW1 1433   3.071   2.799   2.131 -0.6841  0.7069  0.2008
  478SOL    HW2 1434   3.062   2.631   2.134 -1.7488 -2.4856 -1.6412
  479SOL     OW 1435   2.671   0.591   1.018 -0.3100 -0.2984 -0.3220
  479SOL    HW1 1436   2.733   0.628   0.946 -0.7753 -0.1578 -2.0347
  479SOL    HW2 1437   2.599   0.524   0.976 -1.1138 -1.1409  1.3635
  480SOL     OW 1438   0.064   2.579   0.358  0.0298 -0.5168  0.1235
  480SOL    HW1 1439   0.095   2.534   0.272  0.1190 -0.0564 -1.0564
  480SOL    HW2 1440   0.134   2.635   0.402  2.2773 -0.1601 -0.7201
  481SOL     OW 1441   2.161   2.155   1.631  0.1797 -0.7213  0.1200
  481SOL    HW1 1442   2.144   2.096   1.717  0.7368 -1.7490  2.5152
  481SOL    HW2 1443   2.099   2.112   1.557  0.5325 -2.9486 -1.2017
  482SOL     OW 1444   1.372   2.552   2.706 -0.2229 -0.6215 -0.1899
  482SOL    HW1 1445   1.464   2.548   2.757  0.7229  1.1974  1.9671
  482SOL    HW2 1446   1.354   2.486   2.635 -1.0220  3.2449 -0.6027
  483SOL     OW 1447   0.748   1.923   1.695  0.0873 -0.2637 -0.5415
  483SOL    HW1 1448   0.717   1.909   1.790  0.0711 -5.5417 -0.6556
  483SOL    HW2 1449   0.694   1.866   1.630 -0.9969 -0.9886  0.2903
  484SOL     OW 1450   0.756   0.382   1.389 -0.1731 -0.2991 -0.0929
  484SOL    HW1 1451   0.757   0.447   1.470 -1.1932  1.8811 -1.4081
  484SOL    HW2 1452   0.803   0.425   1.311 -0.6126  0.3380  0.9949
  485SOL     OW 1453   2.451   1.071   0.040  0.5336 -0.0507 -0.3383
  485SOL    HW1 1454   2.541   1.022   0.050  1.8970  0.2948  1.8268
  485SOL    HW2 1455   2.383   1.010   3.100 -3.3680  0.2865 -1.0647
  486SOL     OW 1456   1.852   0.312   1.578 -0.1446  0.0135  0.1683
  486SOL    HW1 1457   1.862   0.237   1.643 -0.8120 -1.3420 -4.0280
  486SOL    HW2 1458   1.760   0.315   1.537 -0.8390  2.8606 -0.3035
  487SOL     OW 1459   0.356   2.100   1.467 -0.0782  0.3377 -0.1648
  487SOL    HW1 1460   0.438   2.144   1.504  1.5247 -1.9157 -1.2144
  487SOL    HW2 1461   0.382   2.014   1.417 -1.1131 -1.7336  0.0033
  488SOL     OW 1462   2.338   2.360   2.878  0.2245 -0.1494 -0.2832
  488SOL    HW1 1463   2.305   2.264   2.881  1.3324  1.1744  0.0420
  488SOL    HW2 1464   2.439   2.354   2.852  1.1632  1.0258  0.8454
  489SOL     OW 1465   1.875   2.995   0.648 -0.3490 -0.1271  0.4627
  489SOL    HW1 1466   1.843   2.907   0.618 -1.3707  2.0740  1.8044
  489SOL    HW2 1467   1.913   3.039   0.561  1.5383 -0.1540  1.4753
  490SOL     OW 1468   1.006   2.245   2.954 -0.1964 -0.1064 -0.0965
  490SOL    HW1 1469   0.984   2.214   3.047 -0.9202 -0.3599  1.0691
  490SOL    HW2 1470   1.097   2.294   2.948 -0.7894  1.7382  0.8161
  491SOL     OW 1471   0.458   1.856   1.369  0.3165  0.2206 -0.1144
  491SOL    HW1 1472   0.397   1.826   1.447  0.7686 -1.4416  0.1850
  491SOL    HW2 1473   0.553   1.830   1.392 -0.0091 -0.6726 -0.7673
  492SOL     OW 1474   1.206   1.308   1.897  0.3622  0.1302  0.5172
  492SOL    HW1 1475   1.130   1.241   1.872 -0.8440 -0.9516  1.4818
  492SOL    HW2 1476   1.283   1.297   1.830 -0.6887 -1.5593 -1.0927
  493SOL     OW 1477   2.642   1.994   0.908 -0.1360  0.0355 -0.5851
  493SOL    HW1 1478   2.578   1.945   0.972 -0.3133 -1.0747  2.2059
  493SOL    HW2 1479   2.667   2.090   0.934  2.3954 -0.4176 -1.2150
  494SOL     OW 1480   0.060   1.925   1.055 -0.2218 -0.1694  0.3399
  494SOL    HW1 1481   3.081   1.968   1.013 -2.3308 -1.0275  0.3130
  494SOL    HW2 1482   0.034   1.879   1.138 -1.1851  1.8664 -2.6454
  495SOL     OW 1483   2.286   2.629   0.775 -0.3279 -0.1212  0.3610
  495SOL    HW1 1484   2.385   2.628   0.800 -0.4747 -3.7821  1.1502
  495SOL    HW2 1485   2.222   2.646   0.855 -0.4571  1.3062  0.0288
  496SOL     OW 1486   2.410   0.295   1.246  0.3747 -0.4343  0.9118
  496SOL    HW1 1487   2.498   0.252   1.261 -0.9927  2.3569 -2.6215
  496SOL    HW2 1488   2.351   0.274   1.324 -0.5614 -0.2055 -1.0073
  497SOL     OW 1489   2.204   0.963   2.784  0.1885  0.5251 -0.0141
  497SOL    HW1 1490   2.280   0.969   2.854  0.4215  0.2920 -1.7339
  497SOL    HW2 1491   2.110   0.963   2.830 -1.3380  0.7276  1.8861
  498SOL     OW 1492   3.057   2.112   1.468  0.6584  0.2408 -0.3938
  498SOL    HW1 1493   3.094   2.018   1.455 -2.1345  2.2050  1.6515
  498SOL    HW2 1494   2.995   2.123   1.546  0.7008  0.1988  2.8128
  499SOL     OW 1495   0.862   2.181   2.197  0.1984  0.2751 -0.3543
  499SOL    HW1 1496   0.907   2.272   2.183  0.6590 -0.5644  0.1878
  499SOL    HW2 1497   0.910   2.130   2.270  1.5995  2.2021  3.4858
  500SOL     OW 1498   1.087   1.868   0.724 -0.1903 -0.2131 -0.2604
  500SOL    HW1 1499   0.985   1.879   0.709 -4.4417 -1.8314 -1.8435
  500SOL    HW2 1500   1.141   1.868   0.639  0.5653 -1.3933  0.0167
  501SOL     OW 1501   1.756   2.896   1.573  0.4586  0.1401 -0.3601
  501SOL    HW1 1502   1.760   2.857   1.478  3.2041 -0.7296 -0.9530
  501SOL    HW2 1503   1.676   2.960   1.589  1.7126 -2.2677 -1.0839
  502SOL     OW 1504   2.709   0.508   1.673 -0.1949 -0.0790 -0.7433
  502SOL    HW1 1505   2.767   0.465   1.742 -1.5631 -3.6099  1.1363
  502SOL    HW2 1506   2.666   0.434   1.620 -0.6174 -0.2032  0.3173
  503SOL     OW 1507   2.635   1.378   2.343 -0.0270 -0.2658  0.6160
  503SOL    HW1 1508   2.722   1.426   2.325 -0.7244  2.0649  0.4635
  503SOL    HW2 1509   2.572   1.400   2.265  1.4686  0.7175 -0.6639
  504SOL     OW 1510   1.773   1.019   1.624  0.1425  0.5190  0.0687
  504SOL    HW1 1511   1.817   0.928   1.652  1.3913  0.4125  2.3519
  504SOL    HW2 1512   1.745   1.021   1.531  1.4687 -1.5243  2.8075
  505SOL     OW 1513   0.518   3.068   1.627 -0.2667 -0.4790 -0.8719
  505SOL    HW1 1514   0.509   0.013   1.717 -1.7881 -2.4150 -0.9600
  505SOL    HW2 1515   0.499   0.031   1.547  0.4754 -0.9575 -1.8160
  506SOL     OW 1516   0.156   0.250   0.167  0.6878  0.0615 -0.1652
  506SOL    HW1 1517   0.156   0.344   0.133 -0.7365  0.8098  3.7104
  506SOL    HW2 1518   0.161   0.182   0.093 -1.3568  1.6961 -1.4660
  507SOL     OW 1519   2.840   2.651   0.008  0.3763 -0.1585  0.2699
  507SOL    HW1 1520   2.820   2.690   3.018 -1.3161 -2.1954 -2.6846
  507SOL    HW2 1521   2.882   2.560   3.102  1.5242  1.0775  2.7632
  508SOL     OW 1522   1.250   0.560   1.936 -0.2101 -0.5871  0.3686
  508SOL    HW1 1523   1.320   0.488   1.912  2.3441 -0.6970 -1.2285
  508SOL    HW2 1524   1.194   0.543   2.022 -2.9480  0.7165 -1.3094
  509SOL     OW 1525   1.692   1.876   1.177  0.2601  0.5247  0.7433
  509SOL    HW1 1526   1.725   1.852   1.268 -0.2464  0.0425 -0.4250
  509SOL    HW2 1527   1.590   1.895   1.181 -3.6144 -2.1322  1.5312
  510SOL     OW 1528   2.633   0.924   1.446 -0.4843  0.2761  0.0939
  510SOL    HW1 1529   2.674   0.852   1.502  0.2502 -0.0372 -0.2440
  510SOL    HW2 1530   2.578   0.982   1.508  3.5892  1.1682 -0.1254
  511SOL     OW 1531   1.182   1.969   1.295  0.1831  0.3180  0.0112
  511SOL    HW1 1532   1.096   2.018   1.262 -0.1118  0.1745 -1.2911
  511SOL    HW2 1533   1.141   1.895   1.349 -0.8967 -0.6397 -3.0843
  512SOL     OW 1534   3.026   1.618   0.526  0.2332  0.3412  0.0212
  512SOL    HW1 1535   3.001   1.597   0.427 -0.1528  1.7363 -2.3232
  512SOL    HW2 1536   3.085   1.703   0.523 -1.2202 -1.2617 -2.8307
  513SOL     OW 1537   0.245   1.234   0.051  0.2631 -0.4642 -0.4689
  513SOL    HW1 1538   0.215   1.330   0.070 -1.1385  1.5016  2.3681
  513SOL    HW2 1539   0.185   1.198   3.081 -0.4398  1.5851  1.3271
  514SOL     OW 1540   2.203   1.999   2.136 -0.0129 -0.2100  0.3876
  514SOL    HW1 1541   2.295   1.962   2.154 -3.6519  3.7049 -0.5552
  514SOL    HW2 1542   2.138   1.955   2.206 -2.1465 -0.2555  0.3318
  515SOL     OW 1543   2.395   1.127   0.662 -0.3411 -0.2218 -0.5748
  515SOL    HW1 1544   2.330   1.122   0.587 -0.4394  0.4655 -1.0873
  515SOL    HW2 1545   2.485   1.167   0.632  1.5386 -0.1865 -0.4346
  516SOL     OW 1546   2.488   2.749   0.020 -0.6053 -0.0507  0.2390
  516SOL    HW1 1547   2.410   2.766   3.060  3.4124 -1.3503  1.3847
  516SOL    HW2 1548   2.509   2.645   0.022  0.6081 -1.2842  3.2155
  517SOL     OW 1549   1.011   1.528   2.708  0.0455 -0.5561 -0.0576
  517SOL    HW1 1550   1.116   1.515   2.716  3.4892 -0.7187  0.9091
  517SOL    HW2 1551   0.989   1.614   2.652 -0.6925 -0.9491 -0.8802
  518SOL     OW 1552   0.158   0.152   2.089 -0.0648  0.8665 -0.1124
  518SOL    HW1 1553   0.256   0.136   2.105  0.2584  1.7932 -0.8805
  518SOL    HW2 1554   0.127   0.076   2.025  1.6536 -1.4310 -0.8072
  519SOL     OW 1555   1.025   1.121   0.224  0.3285 -0.6877  0.1178
  519SOL    HW1 1556   0.977   1.056   0.165  1.6916  1.5332 -0.0882
  519SOL    HW2 1557   1.032   1.214   0.185 -0.3208 -1.1207  0.9601
  520SOL     OW 1558   2.664   2.491   2.080 -0.1198 -0.2397 -0.3466
  520SOL    HW1 1559   2.607   2.564   2.043  1.2451 -1.1589 -0.6311
  520SOL    HW2 1560   2.748   2.482   2.016  1.2884  1.0982 -0.9343
  521SOL     OW 1561   0.254   1.899   2.078 -0.4865 -0.0771  0.5046
  521SOL    HW1 1562   0.309   1.895   2.162  2.8877 -1.4442 -0.9144
  521SOL    HW2 1563   0.321   1.908   2.003  3.4358 -0.7322  0.6446
  522SOL     OW 1564   1.386   2.971   1.843 -0.8187 -0.1447 -0.8532
  522SOL    HW1 1565   1.326   2.888   1.845 -0.1147 -0.8809 -0.4214
  522SOL    HW2 1566   1.445   2.982   1.761  0.4584  1.3757  0.0925
  523SOL     OW 1567   1.896   2.309   1.516 -0.0821 -0.1224 -0.2186
  523SOL    HW1 1568   1.902   2.349   1.425 -1.6285  0.5969  2.6806
  523SOL    HW2 1569   1.984   2.313   1.564  2.4709 -0.5371 -2.0939
  524SOL     OW 1570   0.748   2.477   0.496 -0.0955 -0.2975  0.8243
  524SOL    HW1 1571   0.721   2.525   0.579 -0.0330  1.5650  2.0466
  524SOL    HW2 1572   0.850   2.458   0.500  0.3372 -2.7705  2.2560
  525SOL     OW 1573   2.857   0.373   0.494  0.2948  0.1511  0.2506
  525SOL    HW1 1574   2.789   0.445   0.520 -1.2418 -1.3909  0.5493
  525SOL    HW2 1575   2.818   0.295   0.442  3.0760  3.6367 -1.4785
  526SOL     OW 1576   0.801   0.136   0.691 -0.2711 -0.0230  0.5625
  526SOL    HW1 1577   0.757   0.121   0.782 -2.1162  1.8178  2.2365
  526SOL    HW2 1578   0.878   0.076   0.681 -0.0414 -0.4451 -1.0778
  527SOL     OW 1579   1.933   1.395   0.994 -0.5177  0.5142 -0.2959
  527SOL    HW1 1580   1.883   1.307   0.985  0.3560  1.1310 -2.8001
  527SOL    HW2 1581   1.941   1.438   0.897  1.3609  3.4910 -1.8121
  528SOL     OW 1582   2.767   2.385   2.393 -0.4244  0.0091  0.0422
  528SOL    HW1 1583   2.785   2.466   2.330  3.5053 -3.1824 -0.9014
  528SOL    HW2 1584   2.842   2.316   2.394 -0.0078 -0.6833 -0.6884
  529SOL     OW 1585   1.030   1.511   2.303  0.1628  0.3288  0.2315
  529SOL    HW1 1586   0.954   1.522   2.370 -1.6403 -0.2519  2.2045
  529SOL    HW2 1587   0.988   1.494   2.211  0.3769 -1.1986 -1.0090
  530SOL     OW 1588   1.499   0.885   3.029 -0.2117 -0.4208 -0.2514
  530SOL    HW1 1589   1.567   0.958   3.022 -0.9229 -0.8140 -0.7265
  530SOL    HW2 1590   1.536   0.806   3.088  0.1290  0.1148 -1.5426
  531SOL     OW 1591   0.314   0.823   0.498 -0.3814  0.2559 -0.5014
  531SOL    HW1 1592   0.412   0.855   0.506  1.6999 -3.3457  0.5672
  531SOL    HW2 1593   0.296   0.829   0.400  1.1526  0.0596  1.9575
  532SOL     OW 1594   1.642   1.025   0.794  0.0643  0.1203  0.2100
  532SOL    HW1 1595   1.666   0.953   0.728 -0.0900  0.6155 -1.6877
  532SOL    HW2 1596   1.557   1.081   0.770  0.9321 -0.2296 -1.3828
  533SOL     OW 1597   0.507   0.441   2.352 -0.1220 -0.3422 -0.5543
  533SOL    HW1 1598   0.508   0.345   2.329  2.1784  1.4184  0.2669
  533SOL    HW2 1599   0.598   0.456   2.399  1.7599  1.7883 -0.4487
  534SOL     OW 1600   0.761   0.098   2.890  0.2190 -0.3263 -0.2702
  534SOL    HW1 1601   0.824   0.090   2.969 -0.7453  1.4512 -1.8866
  534SOL    HW2 1602   0.675   0.046   2.912 -0.5795 -3.6429 -0.1090
  535SOL     OW 1603   0.255   0.440   2.906  0.4457  0.5245 -0.6286
  535SOL    HW1 1604   0.241   0.463   3.005 -2.6803  1.1964 -1.4913
  535SOL    HW2 1605   0.290   0.346   2.894  0.6291  2.9099  1.8809
  536SOL     OW 1606   0.560   0.864   2.259  0.0888 -0.3965 -0.1173
  536SOL    HW1 1607   0.473   0.901   2.221 -0.7267 -0.0334 -0.3937
  536SOL    HW2 1608   0.619   0.831   2.185 -0.5790  1.5172  2.3922
  537SOL     OW 1609   1.158   0.224   1.225  0.3870 -0.2063 -0.0444
  537SOL    HW1 1610   1.179   0.123   1.219 -1.3884  0.2301 -0.1008
  537SOL    HW2 1611   1.199   0.278   1.146  0.4150  1.6594 -0.5062
  538SOL     OW 1612   0.886   1.893   0.057  0.1494 -0.0544 -0.5378
  538SOL    HW1 1613   0.929   1.987   0.071  2.6197  2.0808  0.1765
  538SOL    HW2 1614   0.957   1.842   0.002  2.6519 -0.4094 -0.7550
  539SOL     OW 1615   2.552   1.384   1.754 -0.9083 -0.2324  0.5644
  539SOL    HW1 1616   2.644   1.433   1.769  3.1095  2.5618  1.9996
  539SOL    HW2 1617   2.484   1.455   1.721 -0.5927 -1.5030 -1.3278
  540SOL     OW 1618   1.644   1.681   1.782 -0.0260 -0.9323 -0.1941
  540SOL    HW1 1619   1.576   1.678   1.709  2.3568  0.8135  3.9966
  540SOL    HW2 1620   1.706   1.764   1.776 -2.3065  0.6884  0.7792
  541SOL     OW 1621   0.682   1.358   1.689  0.5026  0.1913 -0.4869
  541SOL    HW1 1622   0.667   1.258   1.697 -0.5879  0.9820 -0.2071
  541SOL    HW2 1623   0.750   1.376   1.618 -2.5123 -0.0062 -0.7210
  542SOL     OW 1624   1.827   0.708   2.310  0.2694  0.1828 -0.6142
  542SOL    HW1 1625   1.808   0.801   2.275 -1.7080  0.3334 -1.5849
  542SOL    HW2 1626   1.855   0.642   2.235  1.6886  2.1359 -1.4415
  543SOL     OW 1627   1.127   0.804   0.381 -0.3825  0.2862 -0.6909
  543SOL    HW1 1628   1.073   0.883   0.411 -1.2797  1.0412 -1.3564
  543SOL    HW2 1629   1.068   0.725   0.350  0.1160 -1.8018  0.9382
  544SOL     OW 1630   2.434   1.784   2.312 -0.1272  0.0715 -0.4796
  544SOL    HW1 1631   2.419   1.728   2.224  1.0168  0.4570 -1.0383
  544SOL    HW2 1632   2.440   1.886   2.291  2.2573  4.1715 -0.9273
  545SOL     OW 1633   1.742   2.078   1.624 -0.1679  0.2563  0.2660
  545SOL    HW1 1634   1.808   2.097   1.553 -3.7042 -1.9239  2.0238
  545SOL    HW2 1635   1.748   2.149   1.693  2.5983 -0.6340 -1.0540
  546SOL     OW 1636   0.344   0.190   2.860 -0.2619 -0.3111 -0.8980
  546SOL    HW1 1637   0.341   0.214   2.762 -0.7975 -0.6266  3.2621
  546SOL    HW2 1638   0.403   0.112   2.885  1.4636 -0.5932  0.1673
  547SOL     OW 1639   2.300   0.834   3.052  0.2182  0.5168  0.0555
  547SOL    HW1 1640   2.207   0.834   3.100  0.5207 -1.0211 -0.0272
  547SOL    HW2 1641   2.313   0.744   3.006 -1.2205 -0.9019  1.5456
  548SOL     OW 1642   1.929   1.831   2.249  0.2441 -0.0483 -0.2904
  548SOL    HW1 1643   1.982   1.750   2.211  0.4426 -2.5942 -0.6492
  548SOL    HW2 1644   1.902   1.815   2.345  0.4585  0.8939 -0.4049
  549SOL     OW 1645   2.098   0.301   0.800 -0.4894  0.5201  0.4042
  549SOL    HW1 1646   2.041   0.213   0.796  1.0876 -2.3771  0.4711
  549SOL    HW2 1647   2.194   0.282   0.828 -0.0146 -0.4656  0.3055
  550SOL     OW 1648   2.363   1.759   0.683  0.4506 -0.5935  0.0026
  550SOL    HW1 1649   2.426   1.799   0.616 -2.9958 -2.1386  1.9627
  550SOL    HW2 1650   2.325   1.835   0.739  1.5224  0.2013  1.9789
  551SOL     OW 1651   1.402   0.295   1.829  0.4653  0.1907 -0.0337
  551SOL    HW1 1652   1.316   0.258   1.866 -1.4006 -0.8507 -0.5110
  551SOL    HW2 1653   1.382   0.336   1.740 -1.4367 -2.2568  2.9532
  552SOL     OW 1654   0.082   2.300   2.252 -0.3867 -0.0359  0.4440
  552SOL    HW1 1655   0.093   2.385   2.197  0.2405  0.2590 -0.4442
  552SOL    HW2 1656   0.144   2.300   2.333  0.4856  0.5447  1.5175
  553SOL     OW 1657   0.771   2.853   0.311  0.5487  0.2978  0.2884
  553SOL    HW1 1658   0.718   2.933   0.352  0.5691  0.8634 -0.6135
  553SOL    HW2 1659   0.726   2.764   0.300  0.7656  0.9092 -1.7749
  554SOL     OW 1660   2.058   2.434   1.930  0.4433 -0.5156 -0.4513
  554SOL    HW1 1661   2.047   2.463   1.832 -1.0052  0.3284 -0.9426
  554SOL    HW2 1662   1.968   2.431   1.984 -0.7061  0.3636  2.9038
  555SOL     OW 1663   1.197   2.028   1.992  0.4718  0.1275  1.0107
  555SOL    HW1 1664   1.159   2.114   1.945 -4.0731  1.7062 -0.2450
  555SOL    HW2 1665   1.127   1.954   1.999  0.1326 -1.4343 -1.2827
  556SOL     OW 1666   1.432   1.600   0.984 -0.1482 -0.2398  0.1463
  556SOL    HW1 1667   1.475   1.510   0.965  0.7512 -1.3859 -0.0669
  556SOL    HW2 1668   1.331   1.601   1.003 -0.6158  1.3181 -0.1329
  557SOL     OW 1669   1.782   2.250   1.873 -0.3812  0.2931  0.3098
  557SOL    HW1 1670   1.846   2.179   1.908 -1.4034  1.0520  0.2281
  557SOL    HW2 1671   1.781   2.335   1.932 -1.4705  0.5161 -0.4092
  558SOL     OW 1672   0.466   0.121   1.828  0.1237 -0.7244  0.2049
  558SOL    HW1 1673   0.449   0.087   1.923 -0.0614 -0.4157 -0.2663
  558SOL    HW2 1674   0.532   0.200   1.827 -2.9610  1.0644  0.2945
  559SOL     OW 1675   2.335   3.013   1.272 -0.2469 -0.4049 -0.0854
  559SOL    HW1 1676   2.360   3.015   1.171 -0.7456  1.5895 -2.3718
  559SOL    HW2 1677   2.238   2.991   1.280  2.4330 -0.7445 -1.5292
  560SOL     OW 1678   0.978   2.176   0.366  0.2115  0.1675  0.6798
  560SOL    HW1 1679   1.079   2.186   0.373  0.0093 -0.6549 -2.3335
  560SOL    HW2 1680   0.927   2.188   0.453 -0.4672 -2.2085 -1.0037
  561SOL     OW 1681   0.937   0.645   0.314 -0.1205  0.2598  0.1037
  561SOL    HW1 1682   0.852   0.657   0.366 -1.9846  0.4693 -1.1611
  561SOL    HW2 1683   0.921   0.581   0.240 -0.0266  0.9817  0.4174
  562SOL     OW 1684   0.720   0.513   2.501 -0.0487 -0.2330 -0.0282
  562SOL    HW1 1685   0.793   0.477   2.561  0.4725 -0.3621 -1.5970
  562SOL    HW2 1686   0.684   0.605   2.531 -1.5534 -0.2386 -1.3336
  563SOL     OW 1687   1.666   2.308   2.873 -0.0131 -0.1760  0.1573
  563SOL    HW1 1688   1.743   2.302   2.805  0.6991  2.5178  0.3640
  563SOL    HW2 1689   1.702   2.354   2.957 -1.5768  0.6586  1.5068
  564SOL     OW 1690   2.776   0.906   0.678 -0.0739 -0.0446  0.1328
  564SOL    HW1 1691   2.676   0.882   0.683  3.3349 -0.8925 -1.0863
  564SOL    HW2 1692   2.803   0.998   0.714  0.3697  0.4241  3.0094
  565SOL     OW 1693   1.698   0.081   2.682 -0.0767 -0.4070 -0.2609
  565SOL    HW1 1694   1.664   0.173   2.657  0.1611  0.9527 -0.8363
  565SOL    HW2 1695   1.690   0.055   2.780 -2.5312  1.0983 -4.0464
  566SOL     OW 1696   1.889   0.050   2.276 -0.2357 -0.4753 -0.1415
  566SOL    HW1 1697   1.889   0.000   2.368 -0.1475 -0.3284  4.0457
  566SOL    HW2 1698   1.864   3.092   2.204  0.7863 -0.1189  1.0245
  567SOL     OW 1699   2.604   1.491   0.621 -0.1503  0.6618  0.1684
  567SOL    HW1 1700   2.515   1.509   0.662  0.3758 -0.6711 -1.1608
  567SOL    HW2 1701   2.684   1.529   0.678 -0.0354  0.8569  1.7852
  568SOL     OW 1702   1.823   1.843   0.406  0.4363 -0.1256 -0.4957
  568SOL    HW1 1703   1.817   1.893   0.313 -1.0644  2.7813 -3.4738
  568SOL    HW2 1704   1.734   1.836   0.449  1.1278  0.2702 -0.7884
  569SOL     OW 1705   2.142   1.784   2.966  0.0515 -0.2575 -0.2541
  569SOL    HW1 1706   2.154   1.788   2.867  0.1736 -1.3007  0.3425
  569SOL    HW2 1707   2.140   1.688   2.996 -1.6401  0.3314 -1.6844
  570SOL     OW 1708   2.897   2.800   1.687  0.4967  0.0262  0.0720
  570SOL    HW1 1709   2.835   2.880   1.693  2.5340 -1.0156  2.7325
  570SOL    HW2 1710   2.992   2.835   1.688  1.1679 -2.8143 -1.8120
  571SOL     OW 1711   0.115   0.253   2.335 -0.3679  0.1421  0.2844
  571SOL    HW1 1712   0.131   0.225   2.237 -0.4604 -2.1402  0.9084
  571SOL    HW2 1713   0.167   0.337   2.356 -1.3470 -2.9603  1.0213
  572SOL     OW 1714   0.747   1.596   0.625 -0.5188  0.1893  0.0937
  572SOL    HW1 1715   0.646   1.591   0.625  1.1016 -0.9044  1.7230
  572SOL    HW2 1716   0.781   1.668   0.690 -1.2347  3.7040  0.6555
  573SOL     OW 1717   0.867   0.029   0.036  0.2504 -0.7406 -0.1543
  573SOL    HW1 1718   0.839   3.035   0.029 -0.9339  2.2840  0.9701
  573SOL    HW2 1719   0.966   0.034   0.054 -0.7562  0.9099  0.4597
  574SOL     OW 1720   0.930   0.263   0.951 -0.7299 -0.2782  0.5875
  574SOL    HW1 1721   0.877   0.339   0.917 -0.1686 -1.4406  0.9706
  574SOL    HW2 1722   0.933   0.260   1.051  1.3598  2.4111 -1.7459
  575SOL     OW 1723   2.922   1.272   1.559 -0.0552  0.5620 -0.4135
  575SOL    HW1 1724   2.949   1.294   1.655 -2.0809  2.5915 -1.2539
  575SOL    HW2 1725   2.926   1.356   1.504 -0.1540  0.9853 -0.8078
  576SOL     OW 1726   2.123   0.379   1.563 -0.0870  0.2112  0.3785
  576SOL    HW1 1727   2.039   0.323   1.557  0.5694  0.6837  2.2935
  576SOL    HW2 1728   2.115   0.479   1.539  1.3306  0.9821  1.6800
  577SOL     OW 1729   3.034   1.147   2.030 -0.6885  0.3582  0.3026
  577SOL    HW1 1730   3.000   1.113   2.118 -1.3703 -0.5382  0.0174
  577SOL    HW2 1731   3.042   1.071   1.965 -0.7748  0.3521 -0.5480
  578SOL     OW 1732   1.758   2.826   2.443 -0.5799  0.3742 -0.7095
  578SOL    HW1 1733   1.806   2.911   2.483 -0.7544 -2.9525 -2.0901
  578SOL    HW2 1734   1.735   2.758   2.517 -0.2732  2.4260 -0.6002
  579SOL     OW 1735   2.104   2.035   1.866  0.6454  0.4804 -0.0379
  579SOL    HW1 1736   2.153   2.017   1.957 -0.6067  0.3243 -0.3678
  579SOL    HW2 1737   2.005   2.012   1.885 -1.9526  0.2510 -1.5930
  580SOL     OW 1738   1.837   1.362   2.079 -0.0873  0.5827  0.0378
  580SOL    HW1 1739   1.763   1.395   2.142  3.5471 -0.3703  1.8275
  580SOL    HW2 1740   1.810   1.368   1.982  1.7417  0.5100 -1.1148
  581SOL     OW 1741   1.368   0.923   2.802 -0.1793  0.4157 -0.7308
  581SOL    HW1 1742   1.313   0.843   2.774  0.2171 -0.3393  0.2690
  581SOL    HW2 1743   1.412   0.909   2.896  0.4511  1.8075  0.3709
  582SOL     OW 1744   0.587   2.265   1.584 -0.5787 -0.0546 -0.0441
  582SOL    HW1 1745   0.618   2.237   1.679  1.7569  1.6682  2.7185
  582SOL    HW2 1746   0.656   2.231   1.515 -1.7663  1.9913  3.8654
  583SOL     OW 1747   1.329   1.389   1.206  0.4187  0.3306  0.2098
  583SOL    HW1 1748   1.237   1.370   1.163 -0.6655  0.6220  0.2629
  583SOL    HW2 1749   1.400   1.360   1.138 -1.5096  0.2402  0.1209
  584SOL     OW 1750   1.263   2.394   0.628 -0.3644  0.4341  0.5026
  584SOL    HW1 1751   1.226   2.366   0.537 -0.2305 -1.1207  0.0674
  584SOL    HW2 1752   1.221   2.478   0.660  0.5814 -1.8943  0.4584
  585SOL     OW 1753   2.594   2.507   0.005  0.3664 -0.3090 -0.7302
  585SOL    HW1 1754   2.678   2.567   0.014 -0.7228 -0.9243  0.7001
  585SOL    HW2 1755   2.609   2.440   3.030  0.3980 -1.1296 -0.3722
  586SOL     OW 1756   2.815   1.841   0.423  0.2719  0.0387  0.4545
  586SOL    HW1 1757   2.888   1.802   0.483 -1.4303  0.2819  0.7975
  586SOL    HW2 1758   2.726   1.857   0.477 -2.1077  0.3010  0.9371
  587SOL     OW 1759   1.058   1.489   3.042  0.7148 -0.4689 -0.7031
  587SOL    HW1 1760   1.106   1.462   2.957 -0.0582 -1.2069  0.9891
  587SOL    HW2 1761   1.073   1.431   0.023 -1.5394  0.7944 -0.8429
  588SOL     OW 1762   0.409   0.365   0.712  0.2581 -0.2033 -0.4056
  588SOL    HW1 1763   0.391   0.269   0.733 -2.4184  0.3855 -0.8382
  588SOL    HW2 1764   0.352   0.424   0.765  1.0449 -1.4375 -0.6589
  589SOL     OW 1765   1.153   0.393   0.535 -0.3424 -0.2514 -0.0592
  589SOL    HW1 1766   1.055   0.392   0.560  3.1250 -0.0732 -0.0773
  589SOL    HW2 1767   1.195   0.485   0.545 -0.0239  1.5486 -0.2827
  590SOL     OW 1768   2.180   2.538   0.251 -0.2190  0.1436  0.5832
  590SOL    HW1 1769   2.162   2.526   0.353  1.5688  1.7355  0.3986
  590SOL    HW2 1770   2.190   2.635   0.228  1.5014 -1.5352 -2.8266
  591SOL     OW 1771   0.362   2.911   2.083 -0.1421  0.2409 -0.1811
  591SOL    HW1 1772   0.265   2.931   2.060  2.7543 -0.7294  0.5898
  591SOL    HW2 1773   0.380   2.818   2.124 -2.7446 -1.6862 -0.4969
  592SOL     OW 1774   0.009   1.579   2.318  0.1853 -0.1921  0.1220
  592SOL    HW1 1775   0.003   1.478   2.305 -2.0572 -0.8480 -0.7565
  592SOL    HW2 1776   0.067   1.629   2.251  0.2448  0.4712  1.8651
  593SOL     OW 1777   1.924   1.539   1.225  0.9824  0.2547 -0.6638
  593SOL    HW1 1778   1.874   1.478   1.288  0.8913  0.9995 -3.2195
  593SOL    HW2 1779   1.930   1.489   1.132  0.0563 -1.0445 -1.7809
  594SOL     OW 1780   0.492   1.245   3.029 -0.4143  0.5028  0.1589
  594SOL    HW1 1781   0.501   1.310   2.949 -0.4581  1.2425 -3.8160
  594SOL    HW2 1782   0.404   1.253   3.082  0.3732  0.8042  0.9797
  595SOL     OW 1783   1.077   1.314   1.064 -0.4608 -0.0533  0.2484
  595SOL    HW1 1784   1.101   1.230   1.110  0.3246  1.9224 -2.8640
  595SOL    HW2 1785   1.026   1.292   0.978  3.3601  0.0790 -0.1493
  596SOL     OW 1786   2.797   1.236   1.152 -0.0519  0.0043 -0.4433
  596SOL    HW1 1787   2.830   1.144   1.188 -0.8100  0.4394 -1.9424
  596SOL    HW2 1788   2.870   1.285   1.102  0.1170 -0.2024 -1.4010
  597SOL     OW 1789   1.020   2.328   1.709 -0.2831 -0.0548 -0.1996
  597SOL    HW1 1790   0.954   2.386   1.758  2.5409  0.7304  1.1130
  597SOL    HW2 1791   0.983   2.235   1.686 -1.8265  2.1272  0.5569
  598SOL     OW 1792   2.314   2.551   2.064  0.2460  0.2673 -0.5426
  598SOL    HW1 1793   2.241   2.479   2.071  0.5993 -0.5234  2.5531
  598SOL    HW2 1794   2.286   2.624   2.002  2.0429  1.9236  1.8970
  599SOL     OW 1795   0.919   1.154   2.987 -0.1819  0.2831 -0.0546
  599SOL    HW1 1796   0.908   1.201   2.894 -1.6543 -0.0787 -3.7294
  599SOL    HW2 1797   1.020   1.138   2.996 -1.9748 -0.5049  1.9672
  600SOL     OW 1798   1.122   0.896   3.065  0.0499  0.5787  0.5087
  600SOL    HW1 1799   1.051   0.857   0.025  0.6659 -0.4648  2.6860
  600SOL    HW2 1800   1.182   0.814   3.039  0.5956  2.7561 -0.5706
  601SOL     OW 1801   0.774   0.519   1.610 -0.2897  0.2910  0.0186
  601SOL    HW1 1802   0.870   0.488   1.636  1.4346 -0.5581 -0.5193
  601SOL    HW2 1803   0.744   0.598   1.667 -0.4413  0.2054 -1.8817
  602SOL     OW 1804   0.221   2.310   0.789 -0.0325  0.2784  0.3450
  602SOL    HW1 1805   0.161   2.304   0.876 -0.4614  2.1601 -1.0558
  602SOL    HW2 1806   0.181   2.384   0.729  0.1962  1.5065  2.2669
  603SOL     OW 1807   0.980   2.439   2.173  0.7698  0.5059 -0.0389
  603SOL    HW1 1808   0.980   2.479   2.271 -0.4974  1.8128  3.5580
  603SOL    HW2 1809   1.057   2.469   2.111 -0.1549 -2.4794 -2.5064
  604SOL     OW 1810   0.204   1.999   3.056  0.2979  0.3857 -0.2809
  604SOL    HW1 1811   0.220   1.980   2.955  1.6998 -0.3438 -1.5643
  604SOL    HW2 1812   0.109   1.968   3.091 -1.6873  0.9390 -0.9540
  605SOL     OW 1813   2.054   1.542   1.854 -1.0667  0.0085 -0.3458
  605SOL    HW1 1814   1.958   1.511   1.846 -2.3548  3.2823  2.9511
  605SOL    HW2 1815   2.124   1.481   1.812 -1.0605  0.1562 -0.4562
  606SOL     OW 1816   0.956   1.256   2.740 -0.6722  0.4332  0.2436
  606SOL    HW1 1817   0.982   1.346   2.699 -0.6761  1.3347  1.0990
  606SOL    HW2 1818   1.041   1.203   2.725  1.5661  1.0668  0.0482
  607SOL     OW 1819   1.093   1.040   1.124  0.1526 -0.1817  0.4110
  607SOL    HW1 1820   1.163   0.988   1.177 -1.2494 -0.5208  0.1950
  607SOL    HW2 1821   0.998   0.998   1.140 -1.0744  0.1400  0.2445
  608SOL     OW 1822   2.699   1.890   2.022  0.2031 -0.2928  0.4029
  608SOL    HW1 1823   2.707   1.930   1.927  0.8121  3.1003  2.3824
  608SOL    HW2 1824   2.732   1.954   2.090  0.0568  1.6504 -1.0816
  609SOL     OW 1825   2.355   0.052   0.172 -0.6581  0.0248 -0.1042
  609SOL    HW1 1826   2.298   0.045   0.082 -2.4263  0.9408 -1.3584
  609SOL    HW2 1827   2.312   0.003   0.247  0.9328 -0.9964  0.3199
  610SOL     OW 1828   3.088   2.502   1.400  0.5100  0.3342  0.0657
  610SOL    HW1 1829   0.006   2.597   1.382 -1.1110 -2.4248 -0.7803
  610SOL    HW2 1830   0.056   2.456   1.455 -3.1498 -1.6977 -0.2972
  611SOL     OW 1831   1.520   2.196   0.408  0.0668 -0.2737  0.5232
  611SOL    HW1 1832   1.548   2.177   0.311 -1.4555 -0.0294  1.6980
  611SOL    HW2 1833   1.542   2.124   0.472  0.3560  2.3307 -1.4397
  612SOL     OW 1834   0.791   0.073   1.912  0.1730  0.2050  0.3536
  612SOL    HW1 1835   0.871   0.055   1.854 -1.9615 -0.4616  0.4907
  612SOL    HW2 1836   0.754   0.162   1.883  2.9403  0.0967  0.9740
  613SOL     OW 1837   2.902   2.039   0.676 -0.2622  0.2301 -0.5048
  613SOL    HW1 1838   2.811   2.066   0.642  1.6359  2.7433 -1.2529
  613SOL    HW2 1839   2.977   2.086   0.619 -0.0689  0.4159 -2.9182
  614SOL     OW 1840   2.115   0.273   1.985 -0.0780 -0.4013 -0.1632
  614SOL    HW1 1841   2.163   0.354   1.953  2.3993 -1.0335  1.5230
  614SOL    HW2 1842   2.038   0.250   1.926 -0.2725  0.3368  0.0051
  615SOL     OW 1843   1.166   1.548   0.954  0.0739  0.1278 -0.1224
  615SOL    HW1 1844   1.094   1.620   0.967  1.2009 -1.0139  0.4450
  615SOL    HW2 1845   1.136   1.462   0.996 -0.0890  0.4966  1.0026
  616SOL     OW 1846   1.808   1.803   3.099  0.1361 -0.1702 -0.1879
  616SOL    HW1 1847   1.829   1.869   0.070 -1.3034  0.2328  0.4132
  616SOL    HW2 1848   1.713   1.817   3.064  1.4971 -3.0606  1.0883
  617SOL     OW 1849   1.948   0.030   0.400  0.1975  0.8713  0.4928
  617SOL    HW1 1850   2.047   0.007   0.384  3.0056 -0.6822  0.3529
  617SOL    HW2 1851   1.892   0.016   0.314  0.9007  0.2839 -1.6441
  618SOL     OW 1852   0.648   0.781   2.485  0.2092 -0.4480 -0.1961
  618SOL    HW1 1853   0.597   0.795   2.401  0.9654  2.0691  0.6760
  618SOL    HW2 1854   0.698   0.870   2.499 -2.8709 -1.6520 -0.5325
  619SOL     OW 1855   2.823   1.582   1.161  0.1853 -0.1215 -0.5304
  619SOL    HW1 1856   2.856   1.542   1.077 -1.0306 -1.9717  0.4114
  619SOL    HW2 1857   2.735   1.635   1.144  0.6223  0.0973  0.7132
  620SOL     OW 1858   2.186   2.896   2.620  0.3663  0.6167 -0.2701
  620SOL    HW1 1859   2.160   2.992   2.631 -0.1549  0.7541  0.5521
  620SOL    HW2 1860   2.200   2.869   2.522  0.6402  0.9630  1.4339
  621SOL     OW 1861   2.615   1.856   3.070 -0.1555  0.5141 -0.1427
  621SOL    HW1 1862   2.712   1.851   3.037  0.7059  0.7524 -0.3643
  621SOL    HW2 1863   2.573   1.761   3.072  0.7063  0.3456 -0.4817
  622SOL     OW 1864   1.791   3.024   2.070  0.5525  0.8057 -0.0453
  622SOL    HW1 1865   1.728   2.944   2.085 -0.3846  1.4878  0.0317
  622SOL    HW2 1866   1.851   3.012   1.988 -0.2031  0.9433 -0.6184
  623SOL     OW 1867   0.687   2.205   0.936 -0.1374 -0.3397  0.2908
  623SOL    HW1 1868   0.736   2.292   0.950  1.2047 -0.9440  0.4043
  623SOL    HW2 1869   0.613   2.198   1.006 -1.3104 -2.7517  1.3870
  624SOL     OW 1870   0.141   0.075   3.031  0.0859  0.1882  0.1633
  624SOL    HW1 1871   0.167   3.079   3.044 -2.0451 -2.9803  0.6917
  624SOL    HW2 1872   0.209   0.134   2.979  2.5359  2.3543  1.4713
  625SOL     OW 1873   0.793   1.806   0.806  0.7775 -0.0034 -0.0335
  625SOL    HW1 1874   0.751   1.845   0.893 -0.7315  0.8835  1.7344
  625SOL    HW2 1875   0.765   1.864   0.727 -1.1122  0.2248 -2.4075
  626SOL     OW 1876   2.975   0.142   2.969 -0.5465  0.2920 -0.7944
  626SOL    HW1 1877   3.072   0.113   2.993  5.5728 -1.5483 -0.1948
  626SOL    HW2 1878   2.903   0.088   3.020 -0.2809  0.7655 -1.0151
  627SOL     OW 1879   1.268   1.618   2.710  0.5966  0.0386  0.3014
  627SOL    HW1 1880   1.297   1.537   2.758 -1.2305  1.0724  0.3379
  627SOL    HW2 1881   1.314   1.615   2.621  3.0516 -3.1709  0.8714
  628SOL     OW 1882   0.227   2.621   2.848  0.1840 -0.4098 -0.4556
  628SOL    HW1 1883   0.198   2.558   2.771  0.2978 -1.8130  0.2851
  628SOL    HW2 1884   0.141   2.638   2.903 -4.6435 -1.6610  2.2964
  629SOL     OW 1885   0.632   2.896   2.682  0.0178  0.2691  0.0955
  629SOL    HW1 1886   0.537   2.904   2.710  1.1985  1.0681 -2.3945
  629SOL    HW2 1887   0.682   2.817   2.713 -0.4026  0.8351 -2.9897
  630SOL     OW 1888   1.549   1.144   2.032  0.2819  0.0881  0.3061
  630SOL    HW1 1889   1.516   1.142   1.936 -0.0443  0.3574  0.6854
  630SOL    HW2 1890   1.520   1.229   2.074  2.2820  0.8012  1.7489
  631SOL     OW 1891   2.281   1.218   0.273  0.3342  0.3641  0.4209
  631SOL    HW1 1892   2.339   1.296   0.250  0.1756 -0.5511  1.4564
  631SOL    HW2 1893   2.343   1.138   0.255 -0.2500 -2.0255 -1.3254
  632SOL     OW 1894   2.789   0.408   1.941  0.2479 -0.4580  0.2580
  632SOL    HW1 1895   2.831   0.413   2.034 -0.2950 -1.4917 -3.8538
  632SOL    HW2 1896   2.693   0.439   1.949 -1.3454  0.8766  0.3702
  633SOL     OW 1897   0.807   1.483   3.098  0.1797  0.4501  0.1989
  633SOL    HW1 1898   0.903   1.500   3.065  1.4186  0.5231 -0.9356
  633SOL    HW2 1899   0.787   1.397   0.049 -0.8045 -0.2004  3.8462
  634SOL     OW 1900   2.041   2.613   2.593  0.5215 -0.6637 -0.5335
  634SOL    HW1 1901   2.098   2.696   2.602 -1.7564 -0.0190 -1.2132
  634SOL    HW2 1902   1.992   2.617   2.504 -2.1522 -0.2040 -2.1155
  635SOL     OW 1903   1.932   0.487   0.276  0.0141  0.2195 -0.6325
  635SOL    HW1 1904   1.990   0.484   0.360 -0.8547 -1.1549 -0.0774
  635SOL    HW2 1905   1.977   0.443   0.193 -0.4437 -0.6609 -3.5712
  636SOL     OW 1906   0.794   1.307   0.636  0.2065 -0.3813 -0.5550
  636SOL    HW1 1907   0.697   1.302   0.607 -2.3693 -1.3261  0.1230
  636SOL    HW2 1908   0.826   1.405   0.632  1.0029  0.2349 -1.5401
  637SOL     OW 1909   3.037   2.160   0.314  0.5361  0.0780 -0.2505
  637SOL    HW1 1910   2.945   2.124   0.305  0.9140  1.5289 -2.1869
  637SOL    HW2 1911   3.073   2.144   0.409 -1.1284  4.2443  1.1248
  638SOL     OW 1912   1.259   2.807   2.681  0.0938 -0.2291 -0.3500
  638SOL    HW1 1913   1.269   2.840   2.586  0.0520 -1.3791  3.6502
  638SOL    HW2 1914   1.303   2.716   2.688 -0.5806  0.8548 -1.7473
  639SOL     OW 1915   1.424   1.894   0.174 -0.2089 -0.2198 -0.3919
  639SOL    HW1 1916   1.340   1.949   0.181  3.0209 -0.7912 -1.0759
  639SOL    HW2 1917   1.420   1.805   0.222 -1.0503  2.0428 -0.1443
  640SOL     OW 1918   1.639   3.087   0.728  0.3756 -0.5136 -0.7177
  640SOL    HW1 1919   1.639   0.064   0.794 -0.7670  2.4373 -0.5474
  640SOL    HW2 1920   1.731   3.052   0.711 -2.6366  0.0753  0.9834
  641SOL     OW 1921   2.992   3.035   0.395  0.0564  0.3122 -0.0286
  641SOL    HW1 1922   3.001   3.029   0.491  0.5484  0.1492 -6.2185
  641SOL    HW2 1923   2.955   2.948   0.366 -0.0837  0.7750  2.3918
  642SOL     OW 1924   1.080   0.180   1.566  0.0009 -0.1866  0.4133
  642SOL    HW1 1925   0.984   0.149   1.544  1.0283  2.7328  1.7725
  642SOL    HW2 1926   1.072   0.279   1.569 -1.1962  0.8829  1.6210
  643SOL     OW 1927   0.643   1.361   2.044 -0.1676 -0.0359 -0.3154
  643SOL    HW1 1928   0.556   1.378   2.101  0.0650  0.3518  2.6089
  643SOL    HW2 1929   0.710   1.439   2.067  2.4707  0.3303  2.3959
  644SOL     OW 1930   0.887   2.516   0.149 -0.6528 -0.3162 -0.1761
  644SOL    HW1 1931   0.835   2.430   0.119 -1.2679 -0.2939  0.1791
  644SOL    HW2 1932   0.980   2.489   0.185  1.2608  0.2120  0.3537
  645SOL     OW 1933   1.571   2.140   0.148 -0.4786  0.3202  0.4871
  645SOL    HW1 1934   1.530   2.206   0.084 -3.0783 -0.7527 -0.3392
  645SOL    HW2 1935   1.520   2.053   0.159 -0.8628 -2.6484 -2.1841
  646SOL     OW 1936   0.208   1.707   3.016 -0.2603  0.8212 -0.3921
  646SOL    HW1 1937   0.147   1.684   2.941  0.8040  1.2502 -0.9320
  646SOL    HW2 1938   0.305   1.712   2.981  0.8029  0.8958 -1.8518
  647SOL     OW 1939   0.828   3.045   1.164  0.0960  0.3652 -0.1129
  647SOL    HW1 1940   0.879   2.991   1.238  1.3862 -0.2960  2.3920
  647SOL    HW2 1941   0.845   0.043   1.175 -0.2305 -0.4266 -3.7500
  648SOL     OW 1942   1.767   0.598   1.669  0.1364 -0.5327 -0.1597
  648SOL    HW1 1943   1.786   0.525   1.600 -1.6100 -1.5746  0.2288
  648SOL    HW2 1944   1.848   0.655   1.694 -0.7981 -0.8766  0.5554
  649SOL     OW 1945   1.287   1.827   2.857  0.6847  0.4654 -0.1891
  649SOL    HW1 1946   1.283   1.753   2.786 -2.9387  1.7843 -1.3723
  649SOL    HW2 1947   1.197   1.836   2.898 -1.0019 -0.5091 -1.4609
  650SOL     OW 1948   2.820   1.554   2.293 -1.2249  0.3298 -0.7494
  650SOL    HW1 1949   2.789   1.651   2.303  1.8210 -1.4843  0.2750
  650SOL    HW2 1950   2.924   1.545   2.281  1.2992 -1.3044 -0.1946
  651SOL     OW 1951   1.139   2.711   3.059  0.4264  0.5276  0.0392
  651SOL    HW1 1952   1.047   2.731   3.023  1.9966  2.3067  0.6020
  651SOL    HW2 1953   1.203   2.776   3.023 -1.0511 -2.0857 -0.3509
  652SOL     OW 1954   2.869   2.118   3.070 -0.8391  0.0601  0.1958
  652SOL    HW1 1955   2.804   2.119   0.047 -1.0282 -1.2907  1.5831
  652SOL    HW2 1956   2.892   2.212   3.032  1.6281  1.7542 -1.2712
  653SOL     OW 1957   0.156   3.028   1.097 -0.1119 -0.1691  0.0709
  653SOL    HW1 1958   0.193   2.950   1.150  0.5136  0.1477 -2.0803
  653SOL    HW2 1959   0.081   3.076   1.143 -0.4210 -0.3284 -2.4253
  654SOL     OW 1960   2.252   0.159   2.488  0.4492  0.4401  0.2881
  654SOL    HW1 1961   2.223   0.184   2.396  1.7131 -0.5294 -0.0847
  654SOL    HW2 1962   2.335   0.102   2.484 -1.0745  0.5560  1.6039
  655SOL     OW 1963   0.407   2.715   0.988 -0.1445  0.4845 -0.5705
  655SOL    HW1 1964   0.396   2.791   0.922  0.0294  0.1218  1.6219
  655SOL    HW2 1965   0.363   2.743   1.075 -0.4376  0.4583 -0.0073
  656SOL     OW 1966   2.899   3.055   2.429 -0.0395  0.0602  0.3988
  656SOL    HW1 1967   2.872   0.033   2.374 -4.2528 -2.8734 -0.1595
  656SOL    HW2 1968   3.002   3.053   2.433  1.4526 -0.4872  0.4536
  657SOL     OW 1969   2.582   0.565   2.578  0.0239  0.2531 -0.3704
  657SOL    HW1 1970   2.586   0.595   2.480  1.0246 -0.8034 -0.5474
  657SOL    HW2 1971   2.678   0.531   2.599 -0.9327 -1.8003  3.7325
  658SOL     OW 1972   2.266   1.957   0.874 -0.3243  0.2033 -0.0213
  658SOL    HW1 1973   2.316   1.927   0.957 -1.6801  0.3615  0.8864
  658SOL    HW2 1974   2.279   2.057   0.850 -3.3050  1.4962  0.6290
  659SOL     OW 1975   2.164   2.805   0.148 -0.6466  0.5016 -0.2032
  659SOL    HW1 1976   2.064   2.830   0.139 -0.4789  1.1790  2.2874
  659SOL    HW2 1977   2.223   2.821   0.065  1.8168  0.3927 -2.4701
  660SOL     OW 1978   1.578   1.072   2.709  0.1540 -0.1420 -0.1432
  660SOL    HW1 1979   1.538   1.158   2.679 -0.6131 -0.3839  2.0236
  660SOL    HW2 1980   1.498   1.012   2.729 -0.3708  0.5911 -1.8645
  661SOL     OW 1981   2.362   2.536   1.206  0.4254  0.4942  0.4356
  661SOL    HW1 1982   2.392   2.444   1.181  0.8242  2.2754 -0.4997
  661SOL    HW2 1983   2.327   2.539   1.303 -0.4953 -0.1952  1.5740
  662SOL     OW 1984   0.718   0.811   0.386 -0.1324 -0.3533 -0.2933
  662SOL    HW1 1985   0.675   0.756   0.312  1.5344 -2.4522  0.1225
  662SOL    HW2 1986   0.658   0.885   0.426  0.1044  0.4261 -0.4648
  663SOL     OW 1987   1.977   2.297   0.395  0.4281 -0.2797  0.1702
  663SOL    HW1 1988   2.041   2.223   0.434  0.4329 -3.2343  1.1255
  663SOL    HW2 1989   1.965   2.298   0.292 -2.2554 -0.7665 -1.3170
  664SOL     OW 1990   0.740   1.941   1.300 -0.5104  0.6416  0.5837
  664SOL    HW1 1991   0.718   1.970   1.203 -2.5335  1.7651  0.4154
  664SOL    HW2 1992   0.738   2.020   1.369 -3.1817  0.8169  1.2799
  665SOL     OW 1993   1.759   2.127   2.237 -0.7827 -0.0411 -0.5692
  665SOL    HW1 1994   1.831   2.162   2.295 -3.7283 -1.6306  1.5296
  665SOL    HW2 1995   1.805   2.084   2.159  0.6306  3.7005 -0.0191
  666SOL     OW 1996   0.179   2.473   0.113  0.4430 -0.1345  0.1590
  666SOL    HW1 1997   0.274   2.495   0.096 -0.5162 -2.8378  0.0764
  666SOL    HW2 1998   0.166   2.374   0.137  0.7866 -0.9108  0.0640
  667SOL     OW 1999   2.386   1.600   1.646  0.0667  0.5381 -0.3803
  667SOL    HW1 2000   2.358   1.688   1.688  2.6276 -2.2019  1.3400
  667SOL    HW2 2001   2.419   1.612   1.548 -0.7316  0.7337  0.1016
  668SOL     OW 2002   0.421   0.692   2.595 -0.1240 -0.1745  0.4879
  668SOL    HW1 2003   0.504   0.728   2.548  2.6306 -0.8811  1.0671
  668SOL    HW2 2004   0.449   0.646   2.686 -0.6432 -1.2630  1.3852
  669SOL     OW 2005   1.822   2.415   3.062 -0.0521  0.1710 -0.0875
  669SOL    HW1 2006   1.788   2.483   0.025 -1.9660  0.3344  3.7262
  669SOL    HW2 2007   1.911   2.383   3.096 -3.5888  1.1828  0.1111
  670SOL     OW 2008   2.435   1.899   2.844 -0.1016 -0.2049  0.4238
  670SOL    HW1 2009   2.415   1.803   2.811 -0.3422  0.6162  0.6333
  670SOL    HW2 2010   2.504   1.891   2.924 -0.3857  0.0187  0.3350
  671SOL     OW 2011   0.104   1.361   1.274  0.1531 -0.4609 -0.2919
  671SOL    HW1 2012   0.104   1.413   1.185 -0.7473  0.7623 -1.4736
  671SOL    HW2 2013   0.075   1.264   1.279  0.9966  0.0143 -1.5170
  672SOL     OW 2014   2.413   0.865   2.298 -0.9261 -0.1100  0.6018
  672SOL    HW1 2015   2.443   0.952   2.259 -3.0372 -0.6898  0.3206
  672SOL    HW2 2016   2.347   0.880   2.375 -1.6940  2.9260 -0.1981
  673SOL     OW 2017   2.388   2.629   2.328 -0.0695  0.1399 -0.2815
  673SOL    HW1 2018   2.352   2.554   2.383  0.5838 -1.7727 -0.8247
  673SOL    HW2 2019   2.387   2.601   2.230 -0.6676 -2.3848  1.7536
  674SOL     OW 2020   1.207   2.509   2.045 -0.0525  0.5009 -0.2987
  674SOL    HW1 2021   1.211   2.423   1.989 -0.9547 -0.0023 -0.6533
  674SOL    HW2 2022   1.282   2.510   2.114  1.4804 -1.7222 -0.0984
  675SOL     OW 2023   0.391   0.685   1.038 -0.0012  0.2454  0.0048
  675SOL    HW1 2024   0.376   0.757   0.965  0.7862  0.9725 -2.7970
  675SOL    HW2 2025   0.430   0.732   1.123  2.1489  2.6755 -3.5316
  676SOL     OW 2026   1.943   0.823   0.613  0.2544 -0.0964  0.4386
  676SOL    HW1 2027   1.889   0.863   0.537 -1.0481 -1.1283 -1.1845
  676SOL    HW2 2028   2.006   0.888   0.659 -0.1456 -0.0124  1.6519
  677SOL     OW 2029   3.099   1.720   2.551 -0.7835  0.1784 -0.1317
  677SOL    HW1 2030   0.011   1.667   2.467 -1.3472 -0.4919  1.1739
  677SOL    HW2 2031   3.002   1.747   2.552  1.9493 -0.5070  3.1531
  678SOL     OW 2032   2.470   1.902   1.080  0.4008 -0.4695  0.4066
  678SOL    HW1 2033   2.414   1.817   1.086  1.6193  0.5603  0.0650
  678SOL    HW2 2034   2.446   1.975   1.152 -0.2799  0.6818  0.2626
  679SOL     OW 2035   1.796   2.753   0.527  0.0826 -0.6675 -0.3785
  679SOL    HW1 2036   1.826   2.681   0.464  0.9188  2.1215  0.3923
  679SOL    HW2 2037   1.780   2.711   0.620  1.7902  2.5598  1.7450
  680SOL     OW 2038   0.391   2.577   2.137  0.0583 -0.0972 -0.3198
  680SOL    HW1 2039   0.463   2.586   2.209  0.7839  1.9548 -4.9252
  680SOL    HW2 2040   0.400   2.489   2.089 -2.9123  0.0321  0.5423
  681SOL     OW 2041   2.785   1.491   1.796  0.6013 -0.8936 -0.0585
  681SOL    HW1 2042   2.863   1.428   1.808 -0.0721  1.6903  0.3335
  681SOL    HW2 2043   2.780   1.559   1.874  0.1352  1.0922  3.1596
  682SOL     OW 2044   0.717   1.943   1.019  0.4498 -0.2341  0.1412
  682SOL    HW1 2045   0.710   2.038   0.990  0.8308  1.5459 -3.0955
  682SOL    HW2 2046   0.627   1.907   1.046 -1.7185  2.2617 -0.9713
  683SOL     OW 2047   2.109   1.250   1.225  0.2508  0.1785 -0.4576
  683SOL    HW1 2048   2.115   1.343   1.183 -2.3700  3.6033 -1.0397
  683SOL    HW2 2049   2.103   1.255   1.329  0.3912 -0.4033  3.4535
  684SOL     OW 2050   2.951   1.728   2.966 -0.0096 -0.5197 -0.1271
  684SOL    HW1 2051   3.012   1.715   2.889 -4.9720 -2.8166  0.3844
  684SOL    HW2 2052   2.913   1.642   2.999  1.3262  3.0790 -1.8740
  685SOL     OW 2053   1.695   1.075   2.952 -0.3355  0.2889 -0.1116
  685SOL    HW1 2054   1.663   1.052   2.853  0.2802  1.2265  0.6402
  685SOL    HW2 2055   1.690   1.169   2.975  1.4138 -2.5109 -0.5302
  686SOL     OW 2056   0.255   0.586   1.390  0.0201  0.1237  0.6987
  686SOL    HW1 2057   0.325   0.645   1.346  1.1736 -0.1016 -0.6246
  686SOL    HW2 2058   0.281   0.554   1.482  0.7724  0.8370 -1.8551
  687SOL     OW 2059   1.290   2.058   2.670  0.7478  0.0058 -0.1578
  687SOL    HW1 2060   1.288   1.986   2.742  0.9334  0.6537 -1.0946
  687SOL    HW2 2061   1.374   2.110   2.681 -2.0158 -2.7741  0.8467
  688SOL     OW 2062   0.304   1.772   1.592  0.3178  0.3840  0.1010
  688SOL    HW1 2063   0.228   1.779   1.657 -0.3054  2.4489 -0.0137
  688SOL    HW2 2064   0.371   1.702   1.621  0.3758 -0.2518 -1.9025
  689SOL     OW 2065   1.511   1.119   1.759  1.0420 -0.1739 -0.5147
  689SOL    HW1 2066   1.509   1.218   1.737 -2.3510  0.0511  1.7748
  689SOL    HW2 2067   1.595   1.084   1.714 -4.0569 -2.0614  2.2239
  690SOL     OW 2068   2.526   0.800   1.149 -0.0928  0.5806  0.3725
  690SOL    HW1 2069   2.558   0.817   1.244  0.4810  2.4281  0.2377
  690SOL    HW2 2070   2.567   0.714   1.110 -0.2442 -0.7375  0.3811
  691SOL     OW 2071   0.694   2.234   1.832 -0.2166 -0.6899  0.3297
  691SOL    HW1 2072   0.712   2.148   1.881  1.2403  0.8796  0.2252
  691SOL    HW2 2073   0.757   2.306   1.869  0.0081 -0.7378 -2.9142
  692SOL     OW 2074   1.898   0.148   1.139  0.1492 -0.0842 -0.2183
  692SOL    HW1 2075   1.958   0.229   1.109  5.4526 -0.4361 -0.7113
  692SOL    HW2 2076   1.898   0.133   1.240  2.1576 -1.7196 -1.4929
  693SOL     OW 2077   0.308   1.166   2.045  0.5508  0.2565 -0.1504
  693SOL    HW1 2078   0.399   1.130   2.017 -0.7135 -0.0341  0.2665
  693SOL    HW2 2079   0.241   1.161   1.964 -2.0529 -0.9089 -1.4764
  694SOL     OW 2080   1.922   0.056   1.427  0.1038 -0.4605  0.0723
  694SOL    HW1 2081   1.904   0.152   1.475  1.4697  3.3616  0.5058
  694SOL    HW2 2082   1.881   3.081   1.476 -0.9995  1.6486  0.6156
  695SOL     OW 2083   1.238   1.457   1.620 -0.4993 -0.4334  0.1589
  695SOL    HW1 2084   1.146   1.466   1.577 -0.3575  1.4180  0.2774
  695SOL    HW2 2085   1.303   1.424   1.551 -1.0648  1.6472  0.3998
  696SOL     OW 2086   1.517   2.616   0.271 -0.1503  0.6550 -0.5802
  696SOL    HW1 2087   1.542   2.704   0.301 -0.6316 -1.3026 -0.4583
  696SOL    HW2 2088   1.513   2.551   0.352  0.3624 -0.3857  0.3009
  697SOL     OW 2089   0.816   0.497   0.848 -0.5993 -0.0687  0.3267
  697SOL    HW1 2090   0.841   0.462   0.753 -1.2233  0.2752 -1.5832
  697SOL    HW2 2091   0.824   0.602   0.860  0.8912 -0.1719  0.8053
  698SOL     OW 2092   1.399   1.654   2.452  0.0616  0.1162  0.2182
  698SOL    HW1 2093   1.369   1.565   2.414 -0.1215 -1.3178 -1.6833
  698SOL    HW2 2094   1.494   1.675   2.412  2.5347  1.7984  2.2617
  699SOL     OW 2095   1.489   1.008   1.151  0.1582 -0.2430  0.0096
  699SOL    HW1 2096   1.437   1.052   1.077  1.1257 -0.2090 -3.2928
  699SOL    HW2 2097   1.558   1.071   1.188 -1.1060  2.5893  0.4613
  700SOL     OW 2098   1.161   2.633   0.690  0.2159  0.3865  0.2124
  700SOL    HW1 2099   1.232   2.691   0.640  0.4606  2.8546 -0.3129
  700SOL    HW2 2100   1.074   2.685   0.703 -0.0070  0.3116  1.8143
  701SOL     OW 2101   2.492   3.087   2.500 -0.1303  0.3160  0.1589
  701SOL    HW1 2102   2.516   0.004   2.595 -0.0484 -0.7940 -0.3918
  701SOL    HW2 2103   2.513   2.989   2.468  0.5643 -2.7808 -0.8689
  702SOL     OW 2104   1.120   0.279   0.098  0.2023 -0.6274  0.0881
  702SOL    HW1 2105   1.208   0.327   0.076 -1.6001  1.7358  1.1687
  702SOL    HW2 2106   1.047   0.350   0.109 -2.2052  4.3649 -0.2263
  703SOL     OW 2107   2.538   2.840   2.417 -0.1382 -0.0798  0.4017
  703SOL    HW1 2108   2.488   2.755   2.386  1.7482  0.7033  0.2675
  703SOL    HW2 2109   2.637   2.811   2.435  1.1823 -0.7073 -0.7107
  704SOL     OW 2110   0.109   2.285   1.043  0.0567  0.7314  0.4264
  704SOL    HW1 2111   0.046   2.233   1.102  0.7941  1.2024 -0.6177
  704SOL    HW2 2112   0.134   2.378   1.079  0.3623  1.2643 -1.9731
  705SOL     OW 2113   2.843   0.145   2.224  0.2899  0.0819 -0.5633
  705SOL    HW1 2114   2.906   0.217   2.197 -1.6436  0.8383  0.2839
  705SOL    HW2 2115   2.850   0.062   2.163 -2.0056  1.0938 -0.7565
  706SOL     OW 2116   1.855   0.014   0.134  0.5774  0.1275  0.4902
  706SOL    HW1 2117   1.873   3.017   0.133  0.2613 -0.2513  2.9527
  706SOL    HW2 2118   1.755   0.032   0.137  2.1099  1.4781  0.6485
  707SOL     OW 2119   1.002   1.811   1.977 -0.5015 -0.4924  0.1560
  707SOL    HW1 2120   0.973   1.778   2.068 -4.0600 -2.3384  0.8105
  707SOL    HW2 2121   1.069   1.750   1.932  1.8318 -0.9123  0.6862
  708SOL     OW 2122   0.187   2.624   1.638 -0.1580  0.1241  0.1485
  708SOL    HW1 2123   0.274   2.578   1.605 -0.7433  0.8186 -1.2068
  708SOL    HW2 2124   0.196   2.725   1.637 -0.0273  0.5880  2.9396
  709SOL     OW 2125   1.975   3.022   1.867 -0.3205 -0.4244  0.6003
  709SOL    HW1 2126   2.028   2.965   1.938  0.3481 -2.3027  0.1485
  709SOL    HW2 2127   2.004   2.996   1.772 -0.2870  4.4132  0.9310
  710SOL     OW 2128   2.254   0.653   2.200  0.0603  0.7520 -0.4562
  710SOL    HW1 2129   2.224   0.651   2.103  0.2034 -3.9193  0.6510
  710SOL    HW2 2130   2.323   0.722   2.230  4.4604  3.2738  2.3474
  711SOL     OW 2131   0.951   2.164   0.102 -0.1803  0.1917  0.0213
  711SOL    HW1 2132   0.974   2.167   0.202 -1.0087 -1.5041  0.8793
  711SOL    HW2 2133   0.854   2.194   0.097  0.7991  0.0181 -3.4879
  712SOL     OW 2134   0.632   2.573   2.319  0.0681  0.0655  0.1609
  712SOL    HW1 2135   0.667   2.477   2.335  0.1167 -0.3345  0.1372
  712SOL    HW2 2136   0.706   2.636   2.285 -1.5638 -0.4638 -0.2549
  713SOL     OW 2137   1.959   1.221   0.154 -0.0134 -0.9325 -0.2566
  713SOL    HW1 2138   1.931   1.273   0.074  1.0006  1.2679  0.9486
  713SOL    HW2 2139   2.061   1.236   0.164  2.3256 -2.7291  0.7765
  714SOL     OW 2140   0.392   1.353   1.045 -0.0659 -0.3672 -0.2396
  714SOL    HW1 2141   0.433   1.328   0.957  0.5203  0.4206  2.8196
  714SOL    HW2 2142   0.295   1.318   1.044 -4.6448  0.2657  0.1260
  715SOL     OW 2143   1.978   0.258   2.843 -0.0800 -0.2951 -0.5740
  715SOL    HW1 2144   1.889   0.295   2.814 -2.4182 -0.1465  0.4432
  715SOL    HW2 2145   1.985   0.214   2.934 -1.2955 -1.7615  1.2570
  716SOL     OW 2146   2.769   3.028   2.056  0.7133 -0.3844  0.7261
  716SOL    HW1 2147   2.675   3.014   2.097  0.6500  2.7061  0.4743
  716SOL    HW2 2148   2.792   2.953   1.994 -2.0854  0.1890  0.6521
  717SOL     OW 2149   3.048   0.857   0.864 -1.0177 -0.0537 -0.3164
  717SOL    HW1 2150   0.008   0.808   0.797 -2.2255 -0.1606 -2.5254
  717SOL    HW2 2151   3.022   0.797   0.946  2.2785 -1.1392 -0.2070
  718SOL     OW 2152   0.828   1.173   2.215  0.2356  0.2420  0.5756
  718SOL    HW1 2153   0.760   1.185   2.286  0.5062  2.3901 -1.4745
  718SOL    HW2 2154   0.919   1.144   2.253  1.7955  1.6579  2.3345
  719SOL     OW 2155   2.767   1.506   3.087  0.6696 -0.0530 -0.0996
  719SOL    HW1 2156   2.715   1.504   0.070  1.0030 -1.9291 -1.0529
  719SOL    HW2 2157   2.710   1.474   3.004 -1.7648 -0.1353 -1.7161
  720SOL     OW 2158   1.111   0.971   0.864  0.0223 -0.3278  0.1446
  720SOL    HW1 2159   1.118   1.008   0.959  0.1248  0.7099 -1.1452
  720SOL    HW2 2160   1.072   1.031   0.792  1.3396 -0.6122 -2.7220
  721SOL     OW 2161   2.730   0.596   0.196 -0.2350  0.0240 -0.5106
  721SOL    HW1 2162   2.817   0.534   0.199  3.5498 -1.4792 -0.1214
  721SOL    HW2 2163   2.748   0.684   0.246  2.1822 -2.1368 -0.5480
  722SOL     OW 2164   1.861   0.716   2.723 -0.4105 -0.3820  0.3998
  722SOL    HW1 2165   1.832   0.707   2.819  0.1094 -0.1760 -0.4335
  722SOL    HW2 2166   1.950   0.681   2.687 -0.0158  0.2941 -0.4784
  723SOL     OW 2167   2.774   0.784   0.396 -0.2497 -0.3353 -0.1465
  723SOL    HW1 2168   2.840   0.799   0.474  1.9078  1.4496  3.0810
  723SOL    HW2 2169   2.774   0.868   0.336  0.9428 -0.9295 -2.5670
  724SOL     OW 2170   0.873   1.505   1.829 -0.0415  0.1511 -0.1455
  724SOL    HW1 2171   0.779   1.467   1.838 -2.9985  2.8385  1.9609
  724SOL    HW2 2172   0.939   1.471   1.898  1.7911 -1.5993  1.6715
  725SOL     OW 2173   2.136   0.700   1.963 -0.0287 -0.4995  0.3395
  725SOL    HW1 2174   2.192   0.736   1.887  2.2978 -0.2361  0.3785
  725SOL    HW2 2175   2.054   0.751   1.986  2.4788 -0.3979 -0.4950
  726SOL     OW 2176   1.598   2.886   0.399 -0.0624 -0.1414  0.7569
  726SOL    HW1 2177   1.667   2.829   0.455 -0.0862 -4.0092  1.9932
  726SOL    HW2 2178   1.538   2.940   0.459  3.1294  0.6045  0.0084
  727SOL     OW 2179   1.606   1.439   2.217 -0.4123 -0.4403 -0.0786
  727SOL    HW1 2180   1.514   1.421   2.181  1.0667 -1.2545 -0.7798
  727SOL    HW2 2181   1.620   1.528   2.269  0.9927 -0.5399  4.9510
  728SOL     OW 2182   1.597   2.624   1.310 -0.3686 -0.0626 -0.3526
  728SOL    HW1 2183   1.638   2.582   1.397  1.1257 -0.5544 -0.6743
  728SOL    HW2 2184   1.628   2.567   1.233  0.2654  0.6404  0.4150
  729SOL     OW 2185   2.098   1.036   1.044 -0.0143  0.4709 -0.0268
  729SOL    HW1 2186   2.089   1.099   1.126 -0.2714 -0.9168  2.1567
  729SOL    HW2 2187   2.187   0.989   1.040 -1.6333 -0.1079 -0.2517
  730SOL     OW 2188   0.396   1.496   2.587 -0.2604  0.5019 -0.1576
  730SOL    HW1 2189   0.477   1.557   2.598  1.1118 -0.0060  1.7251
  730SOL    HW2 2190   0.415   1.434   2.511  1.0719  0.7374  0.9319
  731SOL     OW 2191   0.335   0.113   0.789 -0.3420 -0.2055  0.3602
  731SOL    HW1 2192   0.313   0.037   0.728  0.0134 -1.2620  1.3089
  731SOL    HW2 2193   0.402   0.088   0.863  0.3255  0.4335 -0.4341
  732SOL     OW 2194   1.295   0.926   0.210  0.0681  0.0233  0.4600
  732SOL    HW1 2195   1.227   0.938   0.135 -1.7958  3.6489  0.4609
  732SOL    HW2 2196   1.252   0.881   0.292  1.3946 -0.0762  1.0455
  733SOL     OW 2197   0.459   1.862   0.634 -0.2022 -0.1045  0.4195
  733SOL    HW1 2198   0.464   1.769   0.678 -0.6218  4.5071 -0.7114
  733SOL    HW2 2199   0.413   1.852   0.543 -0.0574 -0.5238 -2.5151
  734SOL     OW 2200   3.050   2.433   3.044 -0.1084  0.2319  0.5551
  734SOL    HW1 2201   0.042   2.477   3.050  3.3815  0.4629  4.7476
  734SOL    HW2 2202   3.020   2.407   0.035  1.6918  0.8314 -4.2165
  735SOL     OW 2203   1.259   0.904   1.282  0.0593  0.2465  0.2217
  735SOL    HW1 2204   1.222   0.808   1.269  1.5248 -1.4047 -0.5395
  735SOL    HW2 2205   1.346   0.907   1.229 -0.5744  1.0597  0.8736
  736SOL     OW 2206   2.216   2.374   0.030  0.7108  0.3753 -0.0625
  736SOL    HW1 2207   2.220   2.443   0.109 -0.0567  2.2383  1.8654
  736SOL    HW2 2208   2.265   2.412   3.050  2.0793 -0.2477  0.5622
  737SOL     OW 2209   2.690   0.254   0.785  0.0445 -0.0000  0.1447
  737SOL    HW1 2210   2.657   0.225   0.692 -1.0180  0.4837 -0.8532
  737SOL    HW2 2211   2.628   0.329   0.807 -3.0284  0.1380 -0.1815
  738SOL     OW 2212   2.320   0.205   0.971  0.5846 -0.2819 -0.6027
  738SOL    HW1 2213   2.342   0.203   1.072 -0.9907  0.7457 -1.0849
  738SOL    HW2 2214   2.303   0.111   0.934 -0.9526 -1.7909  0.6424
  739SOL     OW 2215   1.557   2.450   0.474 -0.0041 -0.3681  0.0226
  739SOL    HW1 2216   1.534   2.354   0.457 -2.1760  1.9114 -0.2752
  739SOL    HW2 2217   1.543   2.468   0.572 -2.9913 -0.8093 -0.1737
  740SOL     OW 2218   1.492   0.518   1.017  0.2280  0.7253 -0.9822
  740SOL    HW1 2219   1.469   0.614   0.992 -2.9183  0.9981 -1.4539
  740SOL    HW2 2220   1.594   0.510   1.032 -0.4482  2.2587 -0.8800
  741SOL     OW 2221   2.508   0.877   0.616 -0.8496 -0.0875  0.1044
  741SOL    HW1 2222   2.485   0.971   0.641  1.3922 -1.4146  1.5059
  741SOL    HW2 2223   2.513   0.879   0.515  0.0180  1.4833  0.5987
  742SOL     OW 2224   0.918   1.769   2.235 -0.2166  0.5283  0.3403
  742SOL    HW1 2225   0.987   1.729   2.305  2.4140 -1.1823 -0.7377
  742SOL    HW2 2226   0.857   1.839   2.275  1.5368  0.5983 -1.7575
  743SOL     OW 2227   1.613   0.754   2.019 -0.4052 -0.4790  0.3234
  743SOL    HW1 2228   1.626   0.679   2.092 -1.6278  0.2978 -1.3607
  743SOL    HW2 2229   1.701   0.782   1.975  2.5629 -0.4312 -2.3615
  744SOL     OW 2230   2.313   0.809   1.384 -0.0563 -0.0067 -0.0302
  744SOL    HW1 2231   2.364   0.757   1.311 -0.0966  0.4579  1.7500
  744SOL    HW2 2232   2.317   0.913   1.371 -0.0628  0.4330 -1.0144
  745SOL     OW 2233   1.793   1.343   1.378  0.5118  0.2471 -0.8796
  745SOL    HW1 2234   1.722   1.364   1.449 -0.7128 -0.8723 -2.4011
  745SOL    HW2 2235   1.755   1.279   1.306  0.0361 -3.6250 -0.0014
  746SOL     OW 2236   2.058   1.787   0.856 -0.0540  0.1248 -0.3252
  746SOL    HW1 2237   2.021   1.792   0.950 -0.2123 -0.7721 -1.4606
  746SOL    HW2 2238   2.144   1.834   0.849  0.2099  0.1083  0.2830
  747SOL     OW 2239   2.198   1.442   1.026 -0.0685 -0.4943 -0.0706
  747SOL    HW1 2240   2.268   1.430   0.954 -3.0672  2.9887  1.5107
  747SOL    HW2 2241   2.101   1.413   1.003 -2.4828 -1.7982 -3.2293
  748SOL     OW 2242   0.242   2.034   0.673 -0.1183  0.0482  0.6840
  748SOL    HW1 2243   0.251   2.124   0.718 -0.6250  3.3127 -1.5826
  748SOL    HW2 2244   0.330   1.986   0.666 -0.5339 -0.2444  0.0941
  749SOL     OW 2245   2.523   2.980   2.161 -0.0267  0.5074 -0.2950
  749SOL    HW1 2246   2.508   2.962   2.260 -1.8621 -0.8485 -1.2185
  749SOL    HW2 2247   2.444   3.022   2.117 -0.3069  3.0263  1.0121
  750SOL     OW 2248   2.378   0.616   0.704 -0.3001 -0.4728 -0.1249
  750SOL    HW1 2249   2.303   0.648   0.643  1.7630 -2.2734 -2.2259
  750SOL    HW2 2250   2.459   0.685   0.696  1.1161  3.0759 -4.6204
  751SOL     OW 2251   2.583   2.862   0.370  0.3005  0.3293 -0.6820
  751SOL    HW1 2252   2.516   2.786   0.382  0.1905 -1.0474 -1.0149
  751SOL    HW2 2253   2.583   2.895   0.276 -2.2778 -0.2975  1.6168
  752SOL     OW 2254   0.379   2.907   0.795  0.4781  0.0671  0.0195
  752SOL    HW1 2255   0.480   2.907   0.778 -2.4083 -3.1514 -0.1598
  752SOL    HW2 2256   0.333   2.951   0.718  0.7100  0.1851 -1.0690
  753SOL     OW 2257   1.917   0.509   2.119 -0.0809  0.1651 -0.0941
  753SOL    HW1 2258   1.855   0.475   2.039 -0.6277 -0.8476  0.6331
  753SOL    HW2 2259   2.005   0.547   2.086 -0.4248 -2.2411 -0.7983
  754SOL     OW 2260   1.211   2.288   1.879  0.6024  0.5964 -0.0641
  754SOL    HW1 2261   1.153   2.306   1.795 -2.3000 -2.9647 -0.8248
  754SOL    HW2 2262   1.312   2.281   1.848  0.6257  2.0491 -0.9253
  755SOL     OW 2263   2.659   0.547   0.519  0.0606  0.4320  0.6913
  755SOL    HW1 2264   2.681   0.631   0.467  1.7479 -3.0131  1.9474
  755SOL    HW2 2265   2.562   0.515   0.513 -1.2904 -0.3024  2.0105
  756SOL     OW 2266   1.031   1.762   2.971 -0.0647  0.2402 -0.3424
  756SOL    HW1 2267   1.066   1.672   3.005  0.2716  1.1637 -0.7457
  756SOL    HW2 2268   0.980   1.749   2.884 -1.3173 -0.9367 -0.2190
  757SOL     OW 2269   1.163   0.111   0.877 -0.1687  0.0805 -0.2793
  757SOL    HW1 2270   1.145   0.010   0.900  1.8549 -1.9514  2.1378
  757SOL    HW2 2271   1.075   0.157   0.887  1.9896 -1.7988 -1.5275
  758SOL     OW 2272   0.887   0.191   1.220 -0.1622  0.5600  0.1027
  758SOL    HW1 2273   0.985   0.212   1.246 -0.3415  0.8613  1.0163
  758SOL    HW2 2274   0.825   0.210   1.295  1.9887 -3.3040 -1.6715
  759SOL     OW 2275   0.225   0.520   0.842  0.1126 -0.3364  0.2175
  759SOL    HW1 2276   0.146   0.583   0.818  2.7963  1.0903 -0.3708
  759SOL    HW2 2277   0.282   0.565   0.915 -0.6959 -0.3052  3.5957
  760SOL     OW 2278   2.365   1.164   1.176 -0.4584  0.1409  0.1852
  760SOL    HW1 2279   2.410   1.156   1.081 -0.2448 -3.1582  0.6495
  760SOL    HW2 2280   2.275   1.205   1.167  2.9128 -4.3873  1.6190
  761SOL     OW 2281   1.722   0.557   0.684  0.3568  1.1661  0.7774
  761SOL    HW1 2282   1.653   0.502   0.629 -3.1805 -1.4478 -0.2558
  761SOL    HW2 2283   1.819   0.551   0.647 -0.2468  1.5941 -2.6418
  762SOL     OW 2284   2.093   2.338   0.874  0.2970  0.5283  0.4836
  762SOL    HW1 2285   2.029   2.347   0.792 -1.6775  2.0946 -1.2434
  762SOL    HW2 2286   2.043   2.284   0.945 -0.6754 -2.0312  3.0551
  763SOL     OW 2287   1.452   1.417   1.773  0.2426 -0.4039 -0.3229
  763SOL    HW1 2288   1.480   1.488   1.843 -0.4872  2.3917 -0.3865
  763SOL    HW2 2289   1.361   1.441   1.731 -2.5682 -1.0325  1.7712
  764SOL     OW 2290   2.631   2.104   2.438 -0.8236 -0.3265 -0.1245
  764SOL    HW1 2291   2.680   2.189   2.417  1.3444  1.5532 -2.8688
  764SOL    HW2 2292   2.628   2.086   2.540  1.3030 -1.6029  2.2678
  765SOL     OW 2293   0.694   2.532   0.981  0.7534 -0.2010  0.2583
  765SOL    HW1 2294   0.605   2.496   0.950 -2.3337  3.3515 -0.9964
  765SOL    HW2 2295   0.683   2.620   1.021 -1.0598 -4.1897  0.9288
  766SOL     OW 2296   0.339   1.762   2.496  0.0047 -0.3986  0.4378
  766SOL    HW1 2297   0.278   1.829   2.543  0.9497 -0.0853  0.6129
  766SOL    HW2 2298   0.353   1.681   2.552  0.0526  1.7806 -0.3001
  767SOL     OW 2299   2.215   0.866   2.517 -0.5701 -0.1684  0.7403
  767SOL    HW1 2300   2.218   0.885   2.619  0.5946  3.0952  3.3336
  767SOL    HW2 2301   2.153   0.787   2.497 -0.6535  1.6662  1.8712
  768SOL     OW 2302   1.000   2.792   2.741  0.2020 -0.0045  0.2036
  768SOL    HW1 2303   1.101   2.785   2.734 -2.2534 -1.5050  2.2986
  768SOL    HW2 2304   0.977   2.884   2.718  3.5532 -3.2015 -0.4610
  769SOL     OW 2305   3.015   2.677   0.909 -0.8553  0.5541  0.1794
  769SOL    HW1 2306   2.949   2.688   0.830 -0.9492 -1.9483 -0.7381
  769SOL    HW2 2307   3.102   2.728   0.899 -2.6271 -0.6857  0.6149
  770SOL     OW 2308   0.762   2.880   0.008  0.0107  0.4113 -0.1813
  770SOL    HW1 2309   0.799   2.802   3.056  1.1137  0.3272  3.1040
  770SOL    HW2 2310   0.803   2.873   0.102  0.7378 -2.0829 -1.1954
  771SOL     OW 2311   1.123   2.036   2.462  0.0939  0.3123  0.5666
  771SOL    HW1 2312   1.182   2.051   2.541 -0.6342  1.6231 -3.5760
  771SOL    HW2 2313   1.040   2.091   2.475  2.1304 -0.9942  0.8651
  772SOL     OW 2314   2.287   3.087   1.988  0.1335 -0.5361 -0.8984
  772SOL    HW1 2315   2.250   0.080   1.989 -0.9860  0.4053  2.2367
  772SOL    HW2 2316   2.214   3.018   1.999 -0.7706 -1.3468  0.2496
  773SOL     OW 2317   1.261   0.093   1.960 -0.2986 -0.2044 -0.2328
  773SOL    HW1 2318   1.289   0.107   2.059 -0.0944  2.9161 -1.2202
  773SOL    HW2 2319   1.320   0.021   1.919 -0.0494  0.0287 -2.4586
  774SOL     OW 2320   1.315   0.958   1.728 -0.9553  0.1433 -0.4017
  774SOL    HW1 2321   1.397   1.019   1.748  0.8579  1.5635  2.7245
  774SOL    HW2 2322   1.273   0.930   1.817 -0.4265  1.5941 -0.7728
  775SOL     OW 2323   2.216   3.018   0.361  0.5588 -0.2393  0.5627
  775SOL    HW1 2324   2.231   2.992   0.458 -2.3947  0.8952  4.0636
  775SOL    HW2 2325   2.203   2.937   0.300 -0.2147  1.5748 -1.5719
  776SOL     OW 2326   2.251   1.207   1.853  0.1607  0.0432 -0.0039
  776SOL    HW1 2327   2.326   1.229   1.917  0.6022 -0.6079  1.2874
  776SOL    HW2 2328   2.244   1.279   1.783 -3.3071 -1.2260  0.5208
  777SOL     OW 2329   0.056   1.236   2.480  0.4075 -0.0072 -0.5711
  777SOL    HW1 2330   0.132   1.169   2.483 -0.8925  0.0587 -2.8510
  777SOL    HW2 2331   0.049   1.272   2.384 -0.4083  1.1205 -0.5418
  778SOL     OW 2332   2.346   1.103   2.479  0.7589 -1.0750  0.8201
  778SOL    HW1 2333   2.268   1.039   2.484  0.6983  1.2187 -0.8374
  778SOL    HW2 2334   2.426   1.072   2.535 -1.7681  1.7732  2.7546
  779SOL     OW 2335   0.030   0.467   2.770  0.2752 -0.0797 -0.3110
  779SOL    HW1 2336   0.120   0.472   2.816 -1.3136  2.3368  0.3935
  779SOL    HW2 2337   0.020   0.378   2.723 -1.5931  0.8670  0.3519
  780SOL     OW 2338   2.215   2.843   2.361  0.0213  0.0271 -0.0586
  780SOL    HW1 2339   2.186   2.875   2.269 -0.1511  2.0384 -1.7356
  780SOL    HW2 2340   2.292   2.781   2.349 -0.2644  0.0074 -0.5979
  781SOL     OW 2341   3.026   0.964   1.793  0.2801  0.1070  0.4418
  781SOL    HW1 2342   2.949   0.912   1.842 -1.7390  1.5339 -1.4031
  781SOL    HW2 2343   3.034   0.931   1.696  0.0060  1.2073  1.6673
  782SOL     OW 2344   2.046   2.168   0.133  0.4206 -0.6478 -0.8263
  782SOL    HW1 2345   2.100   2.081   0.129  1.0962  3.0226 -0.1326
  782SOL    HW2 2346   2.101   2.240   0.086 -0.2988 -0.4924  1.1243
  783SOL     OW 2347   0.491   2.253   1.125 -0.4255 -0.3378 -0.1289
  783SOL    HW1 2348   0.396   2.212   1.129 -3.6896 -0.0885  2.6519
  783SOL    HW2 2349   0.502   2.344   1.179  2.1794  0.4862  2.9491
  784SOL     OW 2350   2.618   0.604   2.333 -0.1133  0.0885 -0.4313
  784SOL    HW1 2351   2.567   0.530   2.284  2.2215  1.5950 -0.2226
  784SOL    HW2 2352   2.575   0.698   2.322  0.5102  0.5124 -2.1151
  785SOL     OW 2353   0.013   0.150   1.279 -0.0829  0.4496 -0.6986
  785SOL    HW1 2354   0.060   0.238   1.265  0.9631 -1.9264  0.0290
  785SOL    HW2 2355   0.044   0.113   1.371 -0.8325  2.8380  0.8599
  786SOL     OW 2356   1.317   2.795   0.530 -0.2165  0.2918  0.1803
  786SOL    HW1 2357   1.256   2.795   0.450  0.1337 -0.8193  1.3384
  786SOL    HW2 2358   1.362   2.888   0.527 -1.9039 -1.2277  0.3296
  787SOL     OW 2359   1.230   0.145   0.604  0.2905 -0.2349 -0.1159
  787SOL    HW1 2360   1.215   0.242   0.584  0.0742 -0.0675  0.8994
  787SOL    HW2 2361   1.195   0.122   0.701 -0.5855 -1.6008 -0.7361
  788SOL     OW 2362   2.922   1.428   0.961 -0.2308  0.0608  0.2101
  788SOL    HW1 2363   2.907   1.464   0.867  0.8967 -1.3171  0.3054
  788SOL    HW2 2364   3.019   1.426   0.981 -4.3770  1.3502 -2.9333
  789SOL     OW 2365   3.013   0.730   2.102  0.6066 -0.0423  0.4799
  789SOL    HW1 2366   2.938   0.779   2.058  0.2934  0.4521  1.6240
  789SOL    HW2 2367   2.983   0.684   2.185 -0.2534  1.7532 -1.6085
  790SOL     OW 2368   0.890   0.595   2.954  0.0099  0.3752  0.0181
  790SOL    HW1 2369   0.979   0.561   2.921  2.2151  0.1351 -1.2561
  790SOL    HW2 2370   0.875   0.692   2.937 -2.4951 -0.5350 -1.9620
  791SOL     OW 2371   0.019   2.755   2.992 -0.1439  0.4486 -0.3443
  791SOL    HW1 2372   3.067   2.794   2.916 -2.0614  1.4647  1.7042
  791SOL    HW2 2373   3.050   2.724   3.058  0.7816  2.4736 -0.1417
  792SOL     OW 2374   1.343   0.834   1.986 -0.2584  0.4483  0.6222
  792SOL    HW1 2375   1.313   0.734   1.968 -2.2226 -1.8044 -1.5267
  792SOL    HW2 2376   1.446   0.840   2.005 -0.4052 -1.4325 -1.8065
  793SOL     OW 2377   2.700   0.577   1.282 -0.1046  0.1324  0.0548
  793SOL    HW1 2378   2.623   0.573   1.348 -0.9601 -1.4200  1.1070
  793SOL    HW2 2379   2.673   0.580   1.182 -0.3052  0.7592 -0.3486
  794SOL     OW 2380   2.943   0.410   2.187 -0.6530  0.3751 -0.0618
  794SOL    HW1 2381   2.913   0.483   2.257 -0.1616  2.1402  2.9984
  794SOL    HW2 2382   3.027   0.366   2.228 -0.5982  0.8677 -1.1203
  795SOL     OW 2383   0.676   1.854   2.988  0.1007 -0.1059  0.3411
  795SOL    HW1 2384   0.610   1.915   3.033  0.9035  1.2635 -2.8021
  795SOL    HW2 2385   0.769   1.846   3.031  1.0106 -0.5229 -1.6572
  796SOL     OW 2386   2.672   0.606   2.957 -0.9615 -0.0721 -0.1986
  796SOL    HW1 2387   2.706   0.508   2.957 -1.0351  0.3663 -0.2890
  796SOL    HW2 2388   2.591   0.619   2.899  0.8399 -0.9980  2.9533
  797SOL     OW 2389   2.611   2.056   2.729  0.1470 -0.1088  0.6730
  797SOL    HW1 2390   2.527   2.002   2.756 -3.6332 -0.3381 -1.8372
  797SOL    HW2 2391   2.599   2.154   2.744 -1.9192 -2.8655 -1.6900
  798SOL     OW 2392   2.887   0.175   1.159 -0.0674 -0.4668 -0.8940
  798SOL    HW1 2393   2.974   0.173   1.215 -0.7688  1.4163 -2.3819
  798SOL    HW2 2394   2.900   0.204   1.066 -1.2572  0.2531 -0.7170
  799SOL     OW 2395   0.329   0.195   1.598  0.0392  0.1292 -0.3490
  799SOL    HW1 2396   0.400   0.230   1.532  2.9321  0.8622  0.0513
  799SOL    HW2 2397   0.372   0.162   1.685  0.4364  1.4549  0.7678
  800SOL     OW 2398   0.346   1.734   0.159  0.0598  0.3438  0.5623
  800SOL    HW1 2399   0.296   1.742   0.071  3.5503  1.7835 -0.0680
  800SOL    HW2 2400   0.414   1.661   0.145  1.6711  0.9045 -1.2818
  801SOL     OW 2401   1.694   1.591   0.724 -0.3834  0.1017  0.5350
  801SOL    HW1 2402   1.651   1.669   0.771 -0.3940  0.4150 -1.8865
  801SOL    HW2 2403   1.789   1.583   0.764 -1.4807  0.6193 -1.7032
  802SOL     OW 2404   1.199   1.157   3.014  0.0480  0.7800 -0.0850
  802SOL    HW1 2405   1.175   1.062   3.035  2.4218  0.3177 -0.7290
  802SOL    HW2 2406   1.300   1.163   3.015 -4.0224  1.9073  1.2390
  803SOL     OW 2407   1.176   1.674   1.834 -0.4817 -0.2415 -0.5377
  803SOL    HW1 2408   1.164   1.758   1.774 -0.5047  0.0720 -0.0657
  803SOL    HW2 2409   1.179   1.590   1.779  1.3809 -1.0572  2.9413
  804SOL     OW 2410   1.629   2.302   0.954 -0.0826 -0.1468  0.3702
  804SOL    HW1 2411   1.654   2.212   0.986  0.5321  0.4285 -2.3524
  804SOL    HW2 2412   1.577   2.301   0.865  1.3286  2.4422  3.6076
  805SOL     OW 2413   0.105   2.524   2.083  0.9768  0.1356  0.1133
  805SOL    HW1 2414   0.061   2.518   1.988  2.4880 -1.9709 -1.4529
  805SOL    HW2 2415   0.202   2.549   2.084 -2.4588 -0.0438 -2.2685
  806SOL     OW 2416   0.613   3.060   0.511 -0.0418 -0.3846  0.1341
  806SOL    HW1 2417   0.614   0.055   0.531  2.0609 -1.7358 -0.1830
  806SOL    HW2 2418   0.554   3.043   0.430 -0.2895  0.8747 -2.1617
  807SOL     OW 2419   2.664   1.081   2.901  0.0905 -0.1471 -0.2584
  807SOL    HW1 2420   2.666   1.000   2.962  2.0354 -0.1000  2.4968
  807SOL    HW2 2421   2.584   1.077   2.833 -2.4087  2.3128 -0.5709
  808SOL     OW 2422   1.354   2.155   1.004  0.0224 -0.7771  0.2428
  808SOL    HW1 2423   1.417   2.181   0.926 -0.8747  0.2500 -2.3010
  808SOL    HW2 2424   1.266   2.122   0.968  0.1518 -0.5626  3.0086
  809SOL     OW 2425   0.262   3.047   0.594  0.2966  0.0493 -0.6290
  809SOL    HW1 2426   0.253   2.954   0.553  0.3345  0.7257  1.0360
  809SOL    HW2 2427   0.280   0.018   0.526  0.4542  0.5539  2.5496
  810SOL     OW 2428   1.223   1.527   0.670  0.1104 -0.0839  0.4242
  810SOL    HW1 2429   1.224   1.541   0.767  0.6423 -2.4740 -2.3244
  810SOL    HW2 2430   1.228   1.428   0.663  1.2900  3.1147  2.3615
  811SOL     OW 2431   1.393   2.807   1.328 -0.3316  0.5710 -0.1295
  811SOL    HW1 2432   1.465   2.732   1.334 -0.2068  1.7243  0.6692
  811SOL    HW2 2433   1.389   2.852   1.237  0.7690 -1.4976 -1.4557
  812SOL     OW 2434   1.159   3.067   0.404 -0.7814 -0.0650  0.1584
  812SOL    HW1 2435   1.082   3.030   0.457  0.4479 -1.8004 -0.8918
  812SOL    HW2 2436   1.200   0.034   0.463 -0.3376 -2.2668 -3.5950
  813SOL     OW 2437   1.077   0.182   2.321  0.1360  0.4392  0.2825
  813SOL    HW1 2438   1.174   0.202   2.290  1.4985 -0.8386  0.2371
  813SOL    HW2 2439   1.077   0.143   2.413  1.3787  1.1794 -1.8275
  814SOL     OW 2440   0.691   2.744   1.155 -0.0359  0.4130  0.3279
  814SOL    HW1 2441   0.708   2.830   1.104 -1.0414  2.5625 -0.0829
  814SOL    HW2 2442   0.593   2.751   1.180 -0.1805 -3.7421 -0.1491
  815SOL     OW 2443   0.116   2.535   0.642 -0.1688  0.1790  0.2180
  815SOL    HW1 2444   0.161   2.622   0.648 -0.3731  1.0168 -1.9571
  815SOL    HW2 2445   0.110   2.511   0.540  0.4003  1.2956 -1.7071
  816SOL     OW 2446   2.393   1.352   2.814 -0.1351  0.0420  0.2249
  816SOL    HW1 2447   2.485   1.367   2.852 -0.4473  2.5529 -1.0738
  816SOL    HW2 2448   2.401   1.355   2.711  1.3345  1.7989 -0.0056
  817SOL     OW 2449   1.817   2.620   2.880 -0.8263  0.6805 -0.1336
  817SOL    HW1 2450   1.828   2.569   2.972  0.4868 -1.8109  1.8247
  817SOL    HW2 2451   1.880   2.700   2.870  0.0199 -0.1273  1.2092
  818SOL     OW 2452   1.241   1.274   0.332 -0.1388  0.0994  0.0516
  818SOL    HW1 2453   1.206   1.186   0.291  1.0745 -1.9389 -1.8479
  818SOL    HW2 2454   1.344   1.274   0.340  0.4172 -2.6639 -0.0333
  819SOL     OW 2455   1.506   1.900   3.024  0.9656  0.1917 -0.5008
  819SOL    HW1 2456   1.475   1.895   0.017  0.7834  1.0605 -0.0741
  819SOL    HW2 2457   1.427   1.883   2.963  1.9130  2.4793  0.9948
  820SOL     OW 2458   0.611   0.709   0.134 -0.5533 -0.2750  0.1369
  820SOL    HW1 2459   0.597   0.748   0.042 -0.2959 -0.4421  3.2008
  820SOL    HW2 2460   0.597   0.610   0.137  0.8939  2.1734 -2.0820
  821SOL     OW 2461   0.394   0.066   1.123 -0.1592 -0.3828  0.3334
  821SOL    HW1 2462   0.312   0.006   1.116  1.5113 -0.1065  2.2557
  821SOL    HW2 2463   0.365   0.164   1.116  1.9485  0.7294  0.1526
  822SOL     OW 2464   1.769   2.392   2.556 -0.3671 -0.0822  0.2536
  822SOL    HW1 2465   1.690   2.340   2.522  0.3611 -1.9244 -0.5489
  822SOL    HW2 2466   1.828   2.338   2.616 -0.5650  0.9768  2.4718
  823SOL     OW 2467   1.123   0.464   2.185 -0.0438  0.3046  0.6428
  823SOL    HW1 2468   1.190   0.504   2.251 -0.1448 -0.1925 -0.9350
  823SOL    HW2 2469   1.039   0.437   2.234  2.5457 -0.5255 -0.8795
  824SOL     OW 2470   2.340   0.195   1.629  0.3864  0.0610 -0.4970
  824SOL    HW1 2471   2.252   0.244   1.599 -2.9681  0.6550  0.6554
  824SOL    HW2 2472   2.323   0.097   1.607  1.6192  1.0165  2.6002
  825SOL     OW 2473   0.742   1.233   0.064  0.3821 -0.0818  0.1619
  825SOL    HW1 2474   0.816   1.203   0.004 -1.5410  2.9130 -1.1341
  825SOL    HW2 2475   0.647   1.213   0.027 -1.0593 -1.8145  1.5617
  826SOL     OW 2476   2.058   0.666   2.479 -0.0304 -0.0195  0.0126
  826SOL    HW1 2477   2.122   0.585   2.484  1.1761  0.9332  0.3352
  826SOL    HW2 2478   1.996   0.665   2.397  0.1192  1.7391  1.2788
  827SOL     OW 2479   0.904   2.179   2.504 -0.3547  0.0973  0.3407
  827SOL    HW1 2480   0.860   2.254   2.443 -0.7418  2.3291 -1.7881
  827SOL    HW2 2481   0.877   2.187   2.601  1.7562 -0.2844 -1.2453
  828SOL     OW 2482   2.645   0.156   1.308  0.2168 -0.3650 -0.5067
  828SOL    HW1 2483   2.729   0.171   1.252  1.5850 -1.4015 -0.8573
  828SOL    HW2 2484   2.635   0.054   1.325  2.0154  1.3814 -0.2856
  829SOL     OW 2485   1.152   1.738   1.442  0.5652 -0.0919  0.6737
  829SOL    HW1 2486   1.213   1.678   1.392 -3.7124  1.6213  3.2010
  829SOL    HW2 2487   1.072   1.694   1.487  1.2132  0.6768  0.5569
  830SOL     OW 2488   0.665   1.077   1.692 -0.1387  0.4436  0.1485
  830SOL    HW1 2489   0.743   1.090   1.628  1.0909  1.5503  1.1913
  830SOL    HW2 2490   0.689   1.035   1.775  0.0933  1.7137 -1.2530
  831SOL     OW 2491   0.054   1.771   0.240 -0.2436  0.8870 -0.9605
  831SOL    HW1 2492   0.013   1.836   0.172  1.4381  1.6563 -0.9672
  831SOL    HW2 2493   0.154   1.784   0.262  0.1640 -2.7451  1.5977
  832SOL     OW 2494   1.026   2.752   0.413  0.4618 -0.2551  0.7643
  832SOL    HW1 2495   0.935   2.791   0.387  2.1696 -3.1745  0.7208
  832SOL    HW2 2496   1.088   2.759   0.338 -1.4482 -1.0245  1.7136
  833SOL     OW 2497   3.048   0.205   1.721  0.5994 -0.0904 -0.0900
  833SOL    HW1 2498   2.972   0.186   1.784  0.5099  1.0077 -1.8637
  833SOL    HW2 2499   3.066   0.302   1.693 -2.4001 -1.5319 -1.6774
  834SOL     OW 2500   3.086   1.084   0.998 -0.3313 -0.6841 -0.1482
  834SOL    HW1 2501   0.012   1.153   0.927 -0.6580  3.0983 -3.2285
  834SOL    HW2 2502   3.051   0.997   0.960 -4.0332  0.7547  0.2539
  835SOL     OW 2503   2.449   2.991   1.015 -0.1819 -1.2253 -0.7198
  835SOL    HW1 2504   2.374   3.006   0.949 -1.9976  0.4454 -0.2408
  835SOL    HW2 2505   2.522   3.061   1.011 -3.8142 -0.8771 -0.3343
  836SOL     OW 2506   0.946   1.777   2.574  0.1676 -0.2598 -0.6237
  836SOL    HW1 2507   1.020   1.840   2.556 -1.8684 -0.9127  1.2108
  836SOL    HW2 2508   0.872   1.812   2.638 -1.6220 -3.1362  1.2991
  837SOL     OW 2509   1.723   2.068   2.967 -0.0066  0.1803 -0.5703
  837SOL    HW1 2510   1.638   2.028   3.011 -0.9028 -1.2738  0.0325
  837SOL    HW2 2511   1.716   2.165   2.938  1.2553 -2.2738  0.9659
  838SOL     OW 2512   0.192   0.744   2.137 -0.5545  0.2936 -0.2113
  838SOL    HW1 2513   0.235   0.651   2.138 -0.8012  4.3805 -0.0446
  838SOL    HW2 2514   0.092   0.737   2.131  1.3474  0.3202  0.6823
  839SOL     OW 2515   0.870   0.866   2.882  0.2814  0.3761  0.0651
  839SOL    HW1 2516   0.842   0.947   2.825 -0.4483  3.3611 -1.4326
  839SOL    HW2 2517   0.960   0.879   2.913 -2.7938  0.2288 -1.4723
  840SOL     OW 2518   1.679   0.521   0.231 -0.1245 -0.4417 -0.6945
  840SOL    HW1 2519   1.779   0.499   0.260 -0.0452 -0.7374  1.3484
  840SOL    HW2 2520   1.623   0.514   0.317 -0.9306 -0.6662  1.9538
  841SOL     OW 2521   0.636   2.646   0.691  0.0547  0.0145  0.3070
  841SOL    HW1 2522   0.576   2.589   0.756 -1.1661 -2.4431  0.8508
  841SOL    HW2 2523   0.627   2.749   0.695 -0.6231 -1.2213  0.7217
  842SOL     OW 2524   0.269   0.558   0.354  1.0314 -0.0774 -0.4360
  842SOL    HW1 2525   0.167   0.574   0.337 -1.7243  0.6607  1.1797
  842SOL    HW2 2526   0.304   0.623   0.425  1.1753  0.7960 -0.5833
  843SOL     OW 2527   0.388   0.820   1.335 -0.4913 -0.0632  0.3797
  843SOL    HW1 2528   0.411   0.792   1.430 -5.6455  0.8232  0.2439
  843SOL    HW2 2529   0.346   0.911   1.340  1.3993  1.7053  0.7632
  844SOL     OW 2530   2.067   2.454   2.818 -0.7983  0.2799 -0.3354
  844SOL    HW1 2531   2.065   2.515   2.735 -2.4340 -1.5273  0.9400
  844SOL    HW2 2532   2.162   2.440   2.847  0.3084 -0.4778 -1.6515
  845SOL     OW 2533   2.271   3.056   1.527 -0.0033 -0.1841 -1.3843
  845SOL    HW1 2534   2.180   3.013   1.553 -0.3849 -0.3383 -1.1035
  845SOL    HW2 2535   2.291   3.045   1.429 -0.6315  0.0589  0.6421
  846SOL     OW 2536   2.289   1.711   2.528 -0.0095 -0.6017 -0.4965
  846SOL    HW1 2537   2.210   1.652   2.503  1.3282 -0.2665 -1.1189
  846SOL    HW2 2538   2.348   1.733   2.449 -0.5925  0.6164 -0.8661
  847SOL     OW 2539   2.106   2.889   2.062 -0.2038  0.0220  0.4518
  847SOL    HW1 2540   2.048   2.841   2.129  0.4506 -0.5686  0.3205
  847SOL    HW2 2541   2.155   2.822   2.001 -0.1245  2.3387 -0.4651
  848SOL     OW 2542   0.166   2.955   0.298  0.2786  0.4411 -0.4859
  848SOL    HW1 2543   0.187   2.939   0.197 -1.5377 -2.5741 -3.6329
  848SOL    HW2 2544   0.069   2.982   0.307 -1.2006  0.3650  1.9038
  849SOL     OW 2545   0.550   2.987   1.272 -0.1369  0.4354  0.0847
  849SOL    HW1 2546   0.650   3.002   1.257 -0.9807  1.3985  2.8210
  849SOL    HW2 2547   0.499   3.064   1.228 -2.0553  0.1924  1.8725
  850SOL     OW 2548   0.130   1.694   0.870 -0.0952  0.2353 -1.0733
  850SOL    HW1 2549   0.105   1.775   0.927  0.2082 -0.4410  0.8671
  850SOL    HW2 2550   0.170   1.709   0.780 -2.8064  0.0219  2.1253
  851SOL     OW 2551   2.878   0.801   2.940 -0.2667 -0.8535  0.3029
  851SOL    HW1 2552   2.935   0.805   2.858 -0.8972 -2.0818  0.2168
  851SOL    HW2 2553   2.795   0.742   2.920 -0.2050 -1.7743 -0.9406
  852SOL     OW 2554   1.927   1.965   2.603 -0.6825  0.0881  0.0978
  852SOL    HW1 2555   1.907   1.894   2.677 -0.1180  0.6023  3.6379
  852SOL    HW2 2556   2.027   1.988   2.607  2.9120 -0.2592 -0.1535
  853SOL     OW 2557   0.727   1.776   0.249 -0.5625 -0.5846 -0.3860
  853SOL    HW1 2558   0.648   1.741   0.198 -3.8383  1.7592  1.8081
  853SOL    HW2 2559   0.799   1.821   0.191 -0.6629  0.0683 -0.2803
  854SOL     OW 2560   1.808   1.042   2.026  0.0944 -0.5777  0.3623
  854SOL    HW1 2561   1.710   1.074   2.014 -0.6467 -0.1104 -1.3168
  854SOL    HW2 2562   1.867   1.126   2.035  0.3112  0.7910  1.4083
  855SOL     OW 2563   0.722   2.328   0.031 -0.1858 -0.5135  0.6824
  855SOL    HW1 2564   0.644   2.309   0.092 -0.7678 -0.3885  0.4834
  855SOL    HW2 2565   0.684   2.328   3.041 -2.7006  1.2637 -0.8199
  856SOL     OW 2566   0.414   0.072   2.104  0.1984 -0.4252 -0.2645
  856SOL    HW1 2567   0.418   3.074   2.104  0.0582 -1.7799 -1.1839
  856SOL    HW2 2568   0.457   0.113   2.190 -0.5833  1.4236  2.9096
  857SOL     OW 2569   0.671   0.336   1.812  0.5700  0.0035  0.4113
  857SOL    HW1 2570   0.679   0.396   1.896 -0.4872 -1.0994 -1.8304
  857SOL    HW2 2571   0.702   0.383   1.722  0.0543 -0.8374 -2.4282
  858SOL     OW 2572   0.049   2.062   2.129 -0.3173  0.0659  0.1663
  858SOL    HW1 2573   0.082   2.151   2.161 -1.3793 -0.6173 -2.9491
  858SOL    HW2 2574   0.121   2.001   2.102 -2.2582  1.4775 -0.4560
  859SOL     OW 2575   1.978   2.206   1.116  0.3096  0.4460 -0.2556
  859SOL    HW1 2576   1.960   2.282   1.178  0.4110 -3.0196 -0.1088
  859SOL    HW2 2577   1.892   2.149   1.096 -2.9716 -2.6638  1.1758
  860SOL     OW 2578   1.990   0.456   0.607 -0.5385  0.2939 -0.2103
  860SOL    HW1 2579   2.017   0.410   0.696  1.7233  0.2269 -0.7828
  860SOL    HW2 2580   2.070   0.514   0.585  1.4955 -0.3149  2.1499
  861SOL     OW 2581   0.120   0.407   1.224  0.5232 -0.2965 -0.1655
  861SOL    HW1 2582   0.157   0.473   1.293 -1.7185  0.7367 -1.2675
  861SOL    HW2 2583   0.022   0.428   1.200  1.1838  0.0805 -1.1930
  862SOL     OW 2584   2.332   0.753   1.636  0.7993  0.2034  0.2974
  862SOL    HW1 2585   2.321   0.830   1.697  2.7023  0.0025  0.1789
  862SOL    HW2 2586   2.318   0.776   1.536  1.3316 -1.8848 -2.3783
  863SOL     OW 2587   0.341   1.321   1.434  0.3304  0.5342 -0.1036
  863SOL    HW1 2588   0.314   1.335   1.534 -2.2677 -1.4502  0.3048
  863SOL    HW2 2589   0.277   1.380   1.383 -1.5470  0.4733  0.1207
  864SOL     OW 2590   2.424   2.831   1.781 -0.3992 -0.3899  0.5640
  864SOL    HW1 2591   2.461   2.788   1.867  0.3399 -1.2877 -2.2146
  864SOL    HW2 2592   2.462   2.927   1.773  0.9279  0.1094  0.9273
  865SOL     OW 2593   1.517   0.348   2.196  0.1029  0.0217 -0.0905
  865SOL    HW1 2594   1.542   0.340   2.097  1.7564 -1.1347 -3.1127
  865SOL    HW2 2595   1.593   0.334   2.263 -0.8747  0.5748  1.7352
  866SOL     OW 2596   2.311   2.872   0.617  0.2760  0.0709  0.4230
  866SOL    HW1 2597   2.315   2.778   0.645  0.2968  2.2257  1.7677
  866SOL    HW2 2598   2.407   2.906   0.590  2.3133 -4.1801  0.3317
  867SOL     OW 2599   2.560   2.635   0.803  0.3502  0.5543  0.3023
  867SOL    HW1 2600   2.642   2.663   0.756 -0.3224 -3.4119 -0.8288
  867SOL    HW2 2601   2.559   2.669   0.902 -0.5151 -2.0345  2.9682
  868SOL     OW 2602   1.530   1.459   2.830  0.1321  0.2101  0.0457
  868SOL    HW1 2603   1.521   1.408   2.742  0.4773 -0.7169  0.0480
  868SOL    HW2 2604   1.572   1.547   2.809  3.5107 -0.1276  0.0422
  869SOL     OW 2605   2.629   1.953   0.610 -0.2245 -0.3489 -0.8430
  869SOL    HW1 2606   2.628   1.966   0.715 -0.8515  0.4338  1.2211
  869SOL    HW2 2607   2.536   1.977   0.575 -0.6767 -2.4991  0.0667
  870SOL     OW 2608   2.814   2.062   0.271  0.5570 -0.2837 -0.2950
  870SOL    HW1 2609   2.818   1.972   0.317  1.2319  2.0841  0.3874
  870SOL    HW2 2610   2.720   2.095   0.260  1.3695 -1.1968  0.0223
  871SOL     OW 2611   0.260   1.067   1.404 -0.1888  0.3971  0.3141
  871SOL    HW1 2612   0.304   1.160   1.387 -0.8339 -1.1002  0.8340
  871SOL    HW2 2613   0.163   1.083   1.426 -0.6600  1.5308  0.3581
  872SOL     OW 2614   0.726   1.523   2.387  0.8999 -0.0744  0.2108
  872SOL    HW1 2615   0.689   1.587   2.314  0.1207  1.3647  1.5850
  872SOL    HW2 2616   0.705   1.562   2.481 -1.8243 -0.5126 -0.0044
  873SOL     OW 2617   0.304   2.862   1.700  0.5376 -0.3909 -0.3200
  873SOL    HW1 2618   0.333   2.809   1.780 -0.5445  1.1816 -0.7068
  873SOL    HW2 2619   0.367   2.937   1.688 -0.8525 -1.9093  0.7604
  874SOL     OW 2620   1.164   0.890   2.169  0.2502  0.6148  0.1849
  874SOL    HW1 2621   1.234   0.893   2.092  0.3554  1.9065  1.3119
  874SOL    HW2 2622   1.197   0.838   2.254 -1.1913  1.2254  0.9206
  875SOL     OW 2623   2.646   0.066   0.977 -0.4518  0.1989 -0.2915
  875SOL    HW1 2624   2.715   0.047   1.052  2.7563  0.2803 -1.5265
  875SOL    HW2 2625   2.660   0.145   0.913 -2.9304  0.6043  0.9068
  876SOL     OW 2626   0.687   1.334   0.310 -0.3758  0.1197 -0.4610
  876SOL    HW1 2627   0.712   1.283   0.220 -2.3378 -0.5758 -0.5447
  876SOL    HW2 2628   0.756   1.408   0.339  1.4039  1.2652  0.4748
  877SOL     OW 2629   1.196   1.058   1.487 -0.2542 -0.1795  0.2053
  877SOL    HW1 2630   1.242   1.026   1.572  2.1360  0.9788  0.8287
  877SOL    HW2 2631   1.223   0.995   1.417 -1.4113  2.7815  1.9219
  878SOL     OW 2632   2.393   2.035   0.514  1.1429  0.4057 -0.4676
  878SOL    HW1 2633   2.307   2.080   0.539  0.9191  0.2576  0.7352
  878SOL    HW2 2634   2.461   2.104   0.479  1.5877 -1.8275  0.4148
  879SOL     OW 2635   2.480   2.061   1.736 -0.3695  0.0004 -0.1958
  879SOL    HW1 2636   2.577   2.032   1.747  1.3578 -0.0319 -0.1975
  879SOL    HW2 2637   2.446   2.127   1.804 -1.0013  1.2642 -0.4387
  880SOL     OW 2638   0.980   2.519   1.006  0.5417 -0.2274  0.4797
  880SOL    HW1 2639   1.017   2.514   1.105 -2.0425 -1.6168 -0.1533
  880SOL    HW2 2640   0.878   2.518   1.009 -0.3542 -1.4950 -1.6654
  881SOL     OW 2641   0.829   1.912   0.547  0.8674  0.4344 -0.5768
  881SOL    HW1 2642   0.775   1.892   0.467  2.0091  1.5967  0.4056
  881SOL    HW2 2643   0.840   2.012   0.555 -0.0860 -0.5673  2.2395
  882SOL     OW 2644   2.132   1.255   0.521 -0.1654  0.6787  0.6289
  882SOL    HW1 2645   2.127   1.355   0.534  2.3466  1.6896  2.6242
  882SOL    HW2 2646   2.180   1.242   0.432 -2.1423  2.0398 -0.9005
  883SOL     OW 2647   1.506   0.780   0.970 -0.0974 -0.4017 -0.6603
  883SOL    HW1 2648   1.489   0.873   1.016  0.1351  1.5177  2.8142
  883SOL    HW2 2649   1.604   0.754   0.968 -1.4776  2.3061  0.7343
  884SOL     OW 2650   2.818   2.738   0.437  0.2262  0.3601 -0.3142
  884SOL    HW1 2651   2.871   2.750   0.352  2.4013  0.1832  3.9875
  884SOL    HW2 2652   2.732   2.793   0.429  0.8483 -1.7527 -0.1271
  885SOL     OW 2653   0.925   1.388   2.090 -0.0990  0.1859 -0.1702
  885SOL    HW1 2654   0.846   1.328   2.118 -1.1222 -0.2387  0.2297
  885SOL    HW2 2655   1.006   1.327   2.077 -0.8305 -1.5381 -0.6597
  886SOL     OW 2656   1.221   1.827   2.288  0.0976  0.1744  0.3636
  886SOL    HW1 2657   1.191   1.924   2.307  0.9554 -1.2925 -2.5676
  886SOL    HW2 2658   1.275   1.789   2.365  1.8526  0.1690 -0.8569
  887SOL     OW 2659   1.324   0.774   0.755 -0.1555 -0.2445  0.1787
  887SOL    HW1 2660   1.383   0.763   0.840  0.6768  1.1239  1.6752
  887SOL    HW2 2661   1.246   0.836   0.784 -2.3317  0.1938  0.3975
  888SOL     OW 2662   2.519   0.767   1.940 -0.6479 -0.5424 -0.1263
  888SOL    HW1 2663   2.522   0.671   1.946  1.3252  1.1760  3.2156
  888SOL    HW2 2664   2.532   0.815   2.029  0.4943  1.3581 -0.8093
  889SOL     OW 2665   2.949   2.057   0.943 -0.2893  0.5784  0.8119
  889SOL    HW1 2666   2.948   2.053   0.838 -0.3700 -1.7780 -0.0752
  889SOL    HW2 2667   2.859   2.083   0.979  0.0353 -0.1100 -0.5255
  890SOL     OW 2668   1.245   2.193   0.349 -0.3602 -0.3303 -0.0413
  890SOL    HW1 2669   1.339   2.211   0.375 -0.1162 -0.1873 -0.3020
  890SOL    HW2 2670   1.245   2.155   0.253 -1.7369 -0.4374 -0.6052
  891SOL     OW 2671   2.986   0.544   3.043  0.0663 -0.0847 -0.3293
  891SOL    HW1 2672   3.028   0.539   2.952  1.6584  1.2350  3.6764
  891SOL    HW2 2673   2.943   0.637   3.053 -2.8107 -0.3256  2.0493
  892SOL     OW 2674   2.886   2.443   0.988 -0.0245  0.0304  0.4826
  892SOL    HW1 2675   2.911   2.541   0.971  0.6922  1.0078 -0.4225
  892SOL    HW2 2676   2.937   2.410   1.066 -1.0525 -0.5306 -0.1866
  893SOL     OW 2677   1.284   0.324   1.020  0.0636 -0.4841  0.6346
  893SOL    HW1 2678   1.260   0.246   0.952  0.4342 -2.1953 -3.3556
  893SOL    HW2 2679   1.383   0.354   1.002 -0.6150 -0.5519 -0.2742
  894SOL     OW 2680   2.945   0.314   0.919  0.1998 -0.1304 -0.0492
  894SOL    HW1 2681   3.030   0.329   0.859  0.6267 -0.3456 -2.5378
  894SOL    HW2 2682   2.859   0.326   0.865 -0.3579 -0.5467 -0.9963
  895SOL     OW 2683   2.060   1.575   2.719  0.6320 -0.1651 -0.3562
  895SOL    HW1 2684   2.102   1.586   2.625 -0.0548  2.5176 -2.1353
  895SOL    HW2 2685   2.042   1.484   2.755  1.0700 -1.0057 -0.5094
  896SOL     OW 2686   2.044   0.636   1.462 -0.2152  1.0195  0.2180
  896SOL    HW1 2687   2.094   0.640   1.373  1.1605  2.0667 -1.8731
  896SOL    HW2 2688   1.948   0.606   1.445  0.7111  0.4309  0.6857
  897SOL     OW 2689   2.991   1.508   1.373  0.0547  0.1386 -0.8493
  897SOL    HW1 2690   2.949   1.530   1.282 -1.6855  1.0118 -1.4623
  897SOL    HW2 2691   3.067   1.446   1.354 -0.5370  0.2782  1.3825
  898SOL     OW 2692   2.207   2.287   2.102  0.7047  0.5852 -0.0077
  898SOL    HW1 2693   2.150   2.335   2.033 -0.4632 -0.6815 -1.5102
  898SOL    HW2 2694   2.166   2.195   2.134 -1.6691 -2.5890  1.4599
  899SOL     OW 2695   1.006   1.768   1.004 -0.3869 -0.1161 -0.6342
  899SOL    HW1 2696   0.952   1.825   0.939 -0.7580  2.2663 -2.2940
  899SOL    HW2 2697   1.086   1.818   1.044  1.5759  0.1104 -3.1871
  900SOL     OW 2698   1.314   2.361   2.492  0.3776  0.3949  0.2796
  900SOL    HW1 2699   1.342   2.264   2.488 -0.5290  0.0045 -3.6494
  900SOL    HW2 2700   1.330   2.416   2.408  3.9516 -2.7090 -0.3929
  901SOL     OW 2701   0.675   1.660   2.139 -0.1980  0.0963  0.7181
  901SOL    HW1 2702   0.653   1.663   2.038 -3.8597 -0.9927 -1.1515
  901SOL    HW2 2703   0.761   1.704   2.162  1.3055  1.3227 -1.7333
  902SOL     OW 2704   2.166   1.522   3.049  0.3848  0.0289  0.7728
  902SOL    HW1 2705   2.104   1.461   2.998 -0.6617  0.7199 -0.8220
  902SOL    HW2 2706   2.246   1.464   3.073  1.3048  0.8874  0.8359
  903SOL     OW 2707   1.965   1.638   0.105  0.2474 -0.6196  0.5182
  903SOL    HW1 2708   2.030   1.597   0.040 -1.1759  1.0069 -3.3653
  903SOL    HW2 2709   1.916   1.713   0.057  1.8396  0.9274  1.2449
  904SOL     OW 2710   1.255   1.139   2.435 -0.3612 -0.5851 -0.2772
  904SOL    HW1 2711   1.327   1.090   2.385 -0.9535  2.7867 -0.6068
  904SOL    HW2 2712   1.166   1.093   2.414 -0.3555 -0.6679  2.3947
  905SOL     OW 2713   2.491   0.435   0.892  0.6629 -0.3432 -0.4310
  905SOL    HW1 2714   2.444   0.353   0.933 -1.4981 -2.1935 -0.6726
  905SOL    HW2 2715   2.431   0.495   0.834 -0.7600  0.6728 -3.3257
  906SOL     OW 2716   0.305   1.857   0.382 -0.5092 -0.5913 -0.5224
  906SOL    HW1 2717   0.322   1.957   0.380  1.5628  0.0527  0.7214
  906SOL    HW2 2718   0.331   1.808   0.294  1.5257  0.2909 -1.4273
  907SOL     OW 2719   1.581   3.065   0.182  0.5110 -0.9018  0.1786
  907SOL    HW1 2720   1.587   2.998   0.254 -2.6240  3.0900  0.1395
  907SOL    HW2 2721   1.528   0.047   0.208  0.8523  3.4472  0.4437
  908SOL     OW 2722   1.500   2.612   1.831 -0.5760 -0.0171 -0.3481
  908SOL    HW1 2723   1.487   2.510   1.820  0.3478 -1.9323  0.9584
  908SOL    HW2 2724   1.414   2.667   1.819 -0.6883  0.0492 -3.0976
  909SOL     OW 2725   2.677   0.775   1.718 -0.2794 -0.6137  0.5179
  909SOL    HW1 2726   2.691   0.678   1.692  2.3685  1.2345  2.2412
  909SOL    HW2 2727   2.604   0.781   1.793  1.1802 -0.3500 -0.8771
  910SOL     OW 2728   1.436   0.001   2.477  0.1626 -0.3874 -0.0751
  910SOL    HW1 2729   1.515   0.002   2.537 -0.3204 -1.1253 -2.5703
  910SOL    HW2 2730   1.407   3.006   2.460 -0.3669 -0.2128  1.8719
  911SOL     OW 2731   2.428   1.379   2.551  0.0862 -0.0219 -0.2009
  911SOL    HW1 2732   2.352   1.353   2.484 -1.2412  0.1165 -1.4590
  911SOL    HW2 2733   2.517   1.374   2.507 -0.3439 -0.4233  0.0147
  912SOL     OW 2734   2.414   2.240   1.475 -0.2635 -0.0177  0.7924
  912SOL    HW1 2735   2.412   2.342   1.487  0.7697  0.1581 -1.5576
  912SOL    HW2 2736   2.366   2.182   1.540  2.0182  2.8595 -2.9759
  913SOL     OW 2737   2.551   2.504   1.749 -0.8352 -0.1003 -0.4927
  913SOL    HW1 2738   2.558   2.587   1.808 -1.8733  2.9979  1.9917
  913SOL    HW2 2739   2.458   2.465   1.760  1.1465  0.9691  2.0806
  914SOL     OW 2740   2.364   2.071   1.254  0.0143 -0.4591 -0.0697
  914SOL    HW1 2741   2.387   2.136   1.331  0.8913  0.0352  0.0167
  914SOL    HW2 2742   2.268   2.038   1.243  1.4834  1.6029  0.5853
  915SOL     OW 2743   1.167   2.512   1.534  0.5258 -0.5076  0.3468
  915SOL    HW1 2744   1.102   2.459   1.584 -1.9139  0.0318 -0.0543
  915SOL    HW2 2745   1.258   2.466   1.519  0.3719  2.4267 -1.9116
  916SOL     OW 2746   0.109   2.557   1.094  0.9852 -0.0265 -0.1136
  916SOL    HW1 2747   0.034   2.585   1.029 -0.3691  0.4930 -2.9523
  916SOL    HW2 2748   0.091   2.565   1.195  1.9308 -0.3856  1.1339
  917SOL     OW 2749   2.972   1.139   2.891  0.0582 -0.5226 -0.2576
  917SOL    HW1 2750   2.882   1.087   2.900 -0.5631 -2.1689  1.3817
  917SOL    HW2 2751   2.979   1.193   2.802 -0.1676  0.8349 -2.9862
  918SOL     OW 2752   1.891   1.770   2.801  0.7447  0.4352  0.6570
  918SOL    HW1 2753   1.896   1.797   2.895 -0.9002  0.5022  0.9955
  918SOL    HW2 2754   1.954   1.692   2.790  0.8485  0.6440  3.9881
  919SOL     OW 2755   1.434   2.108   1.420 -0.1171 -0.5086 -0.0302
  919SOL    HW1 2756   1.463   2.061   1.332  1.9272  3.1001  1.2846
  919SOL    HW2 2757   1.437   2.048   1.502 -0.8546 -0.8857 -1.0246
  920SOL     OW 2758   0.725   0.405   2.925  0.0298  0.4087  0.2912
  920SOL    HW1 2759   0.781   0.321   2.915  0.0900  0.6141 -1.0417
  920SOL    HW2 2760   0.782   0.488   2.930  0.5293  0.5052 -2.5688
  921SOL     OW 2761   2.991   2.894   2.699 -0.2665 -0.5718  0.2189
  921SOL    HW1 2762   2.967   2.849   2.609 -0.0733  0.7492 -0.5201
  921SOL    HW2 2763   3.091   2.924   2.704  3.4597 -3.1502 -1.0564
  922SOL     OW 2764   2.451   1.902   1.504  0.0485 -0.1015 -0.1300
  922SOL    HW1 2765   2.552   1.876   1.508  3.2636 -2.6607  0.8475
  922SOL    HW2 2766   2.438   1.970   1.578  0.4680  2.1853 -0.7534
  923SOL     OW 2767   0.759   1.907   2.721 -0.1486 -0.0386 -0.0492
  923SOL    HW1 2768   0.697   1.885   2.797  1.1906  1.0114  0.3594
  923SOL    HW2 2769   0.809   1.992   2.750 -0.4932  1.5806 -1.4381
  924SOL     OW 2770   1.670   0.695   2.536  0.4741 -0.4472  0.8723
  924SOL    HW1 2771   1.719   0.714   2.624  3.1424 -0.6234 -0.3945
  924SOL    HW2 2772   1.723   0.705   2.447  1.0109 -0.4007 -3.1181
  925SOL     OW 2773   3.078   0.897   0.235 -0.4599 -0.2012  0.5538
  925SOL    HW1 2774   3.034   0.964   0.169 -0.5300 -2.5338 -0.5051
  925SOL    HW2 2775   3.057   0.913   0.332  1.9002 -2.3688 -1.2056
  926SOL     OW 2776   0.075   0.288   0.788  0.0774 -0.2751  0.0019
  926SOL    HW1 2777   0.148   0.217   0.800 -0.1536 -2.0597  0.1989
  926SOL    HW2 2778   0.126   0.375   0.752  1.6303  2.5365 -0.0363
  927SOL     OW 2779   1.211   1.265   0.637 -1.0482 -0.0592  0.2241
  927SOL    HW1 2780   1.230   1.292   0.543 -0.6957 -1.3438  0.7811
  927SOL    HW2 2781   1.128   1.206   0.637  0.4896  0.0293  2.3166
  928SOL     OW 2782   0.066   0.003   2.407 -0.0396  0.2423  0.2030
  928SOL    HW1 2783   0.149   3.050   2.403 -1.5444 -0.4984  0.5921
  928SOL    HW2 2784   0.083   0.099   2.379 -1.7769  0.7568  1.7753
  929SOL     OW 2785   2.501   0.585   1.484 -0.4272  0.7399  0.2518
  929SOL    HW1 2786   2.488   0.639   1.572  0.9613  2.6169 -1.0576
  929SOL    HW2 2787   2.513   0.488   1.506  0.0800 -1.6510 -0.6743
  930SOL     OW 2788   1.757   2.061   1.018 -0.1182 -0.0979 -0.1439
  930SOL    HW1 2789   1.758   2.040   0.918 -0.9609 -2.4058 -0.4087
  930SOL    HW2 2790   1.718   1.983   1.069  0.4985  2.1491  0.0670
  931SOL     OW 2791   1.762   0.715   0.901  0.0021  0.3856 -0.0813
  931SOL    HW1 2792   1.744   0.648   0.827  1.7055  3.2810  0.3263
  931SOL    HW2 2793   1.834   0.780   0.869 -1.2989  0.2292  1.2187
  932SOL     OW 2794   0.083   0.797   1.320  0.2747 -0.6269 -0.0177
  932SOL    HW1 2795   0.027   0.808   1.408  2.2786 -0.9847  3.0643
  932SOL    HW2 2796   0.160   0.725   1.329 -0.0077  0.6644  1.9275
  933SOL     OW 2797   2.315   1.843   1.781 -0.6223  0.4965 -0.3101
  933SOL    HW1 2798   2.372   1.925   1.781 -0.7361  1.9754  1.1681
  933SOL    HW2 2799   2.216   1.869   1.779 -1.4881  0.6715  1.3029
  934SOL     OW 2800   1.785   2.994   1.108  0.0164  0.3526  0.4286
  934SOL    HW1 2801   1.838   3.081   1.124  0.2573 -3.1284  2.1993
  934SOL    HW2 2802   1.717   3.004   1.033  0.0332 -1.9925 -0.4783
  935SOL     OW 2803   0.001   1.106   1.268  0.0889  0.0923 -0.4962
  935SOL    HW1 2804   3.015   1.089   1.320  0.2948 -0.6496 -1.5998
  935SOL    HW2 2805   3.090   1.104   1.169  1.4230  0.9578 -0.9036
  936SOL     OW 2806   3.004   0.731   1.095  0.7825  0.3089  0.0977
  936SOL    HW1 2807   3.052   0.777   1.174 -0.2101  0.8250  1.8060
  936SOL    HW2 2808   3.010   0.631   1.107  0.7965  0.4518  0.8821
  937SOL     OW 2809   1.143   2.955   0.935  0.5727 -0.0671 -0.0769
  937SOL    HW1 2810   1.045   2.922   0.934  0.5983 -0.9214 -0.2124
  937SOL    HW2 2811   1.201   2.885   0.901 -0.4232  1.6061  1.1606
  938SOL     OW 2812   2.998   2.351   0.728 -0.1405  0.3792  0.2081
  938SOL    HW1 2813   2.944   2.367   0.812 -2.3739 -0.7558 -1.2629
  938SOL    HW2 2814   3.061   2.426   0.707 -1.3129  0.4972  0.8100
  939SOL     OW 2815   0.646   1.636   2.620  0.3776  0.5527  0.0717
  939SOL    HW1 2816   0.664   1.733   2.624  0.0617 -2.9199 -0.1273
  939SOL    HW2 2817   0.696   1.592   2.698  0.5808 -0.4708  3.6014
  940SOL     OW 2818   2.886   2.579   2.641 -0.3804 -0.1194  0.3526
  940SOL    HW1 2819   2.828   2.505   2.606 -1.7904 -0.3098 -1.3509
  940SOL    HW2 2820   2.858   2.666   2.592  1.5140  0.6342 -1.6845
  941SOL     OW 2821   1.125   3.096   0.137 -0.2580  0.0328  0.1986
  941SOL    HW1 2822   1.145   0.094   0.127  0.6872  1.5944  2.3698
  941SOL    HW2 2823   1.130   3.073   0.236  1.0472 -0.4398 -1.0867
  942SOL     OW 2824   1.512   1.714   1.550 -0.1804  0.3439 -0.0707
  942SOL    HW1 2825   1.452   1.681   1.475  1.0369 -0.9991 -0.0290
  942SOL    HW2 2826   1.484   1.803   1.590 -2.0060 -2.6684 -0.7127
  943SOL     OW 2827   2.221   1.390   1.662 -0.6864 -0.4017  0.1834
  943SOL    HW1 2828   2.173   1.356   1.585  1.2780 -0.6771  2.8601
  943SOL    HW2 2829   2.287   1.465   1.638 -1.6257 -2.3919  0.6829
  944SOL     OW 2830   1.887   0.817   1.931 -0.5376 -0.0937 -0.1600
  944SOL    HW1 2831   1.917   0.821   1.835 -3.1482 -0.9871  0.3906
  944SOL    HW2 2832   1.852   0.906   1.961 -0.5830 -1.6813 -4.2664
  945SOL     OW 2833   2.667   2.732   1.336  0.2900  0.4007  0.0337
  945SOL    HW1 2834   2.690   2.751   1.238  0.3975  2.2832 -2.3272
  945SOL    HW2 2835   2.739   2.673   1.380  0.8854 -1.2727 -4.4699
  946SOL     OW 2836   0.946   1.103   1.560 -0.4055 -0.6324 -0.1202
  946SOL    HW1 2837   0.921   1.199   1.548 -1.3838 -0.1213  1.0939
  946SOL    HW2 2838   1.044   1.091   1.533 -4.1454 -1.6404 -2.2416
  947SOL     OW 2839   0.459   2.487   0.846 -0.2958  0.0795 -0.1439
  947SOL    HW1 2840   0.421   2.572   0.889 -0.0315 -1.3515  2.6462
  947SOL    HW2 2841   0.382   2.420   0.856  0.4008 -0.3110  3.0394
  948SOL     OW 2842   3.031   1.360   1.800  0.0989 -0.6568 -0.5666
  948SOL    HW1 2843   3.061   1.277   1.853  1.5035  2.1453  0.1579
  948SOL    HW2 2844   3.049   1.446   1.853 -0.2002 -1.1809 -1.9865
  949SOL     OW 2845   0.713   0.459   2.061  0.0075 -0.0942  0.0615
  949SOL    HW1 2846   0.763   0.437   2.149  0.4877 -1.6667 -1.5831
  949SOL    HW2 2847   0.618   0.497   2.076  1.5064  1.1862  1.5355
  950SOL     OW 2848   0.571   0.488   0.992 -0.1427 -0.5219  0.2326
  950SOL    HW1 2849   0.517   0.575   0.996  1.3321  0.6908 -0.8933
  950SOL    HW2 2850   0.640   0.504   0.916  0.8096  1.0525 -4.7630
  951SOL     OW 2851   1.321   1.688   2.091 -0.3567 -0.3051  0.1333
  951SOL    HW1 2852   1.275   1.732   2.171  1.0435  0.1180 -3.6966
  951SOL    HW2 2853   1.261   1.695   2.006 -0.9001 -0.1137  1.4842
  952SOL     OW 2854   1.230   1.374   2.834  0.2473 -0.1975 -0.3179
  952SOL    HW1 2855   1.248   1.347   2.930 -1.0720  2.3020  0.1255
  952SOL    HW2 2856   1.200   1.288   2.785  1.4421 -1.3417 -1.7714
  953SOL     OW 2857   1.027   2.835   2.389  0.1702 -0.6109 -0.1678
  953SOL    HW1 2858   0.953   2.775   2.353  2.0852 -1.1177  1.6585
  953SOL    HW2 2859   0.985   2.911   2.437 -1.2204  2.0752 -3.0362
  954SOL     OW 2860   2.307   1.482   0.766  0.3161  0.1278  0.1418
  954SOL    HW1 2861   2.330   1.581   0.759  0.8812 -3.1428 -0.0049
  954SOL    HW2 2862   2.227   1.460   0.702  3.5548  1.0830 -0.4918
  955SOL     OW 2863   0.067   2.310   2.810  0.2207  0.2471  0.1873
  955SOL    HW1 2864   0.070   2.386   2.745 -2.0961 -0.2406  1.5732
  955SOL    HW2 2865   0.041   2.340   2.903 -1.7430  0.0166  0.6923
  956SOL     OW 2866   0.899   1.461   1.213 -0.0698 -0.4783  0.2976
  956SOL    HW1 2867   0.975   1.402   1.187 -1.8954  1.4764  0.4534
  956SOL    HW2 2868   0.844   1.493   1.133 -0.3531 -0.0368  0.8887
  957SOL     OW 2869   2.096   1.554   2.452  0.2404 -0.5001 -0.1086
  957SOL    HW1 2870   2.006   1.586   2.425  1.5106  0.3212 -2.2511
  957SOL    HW2 2871   2.108   1.454   2.429 -1.8477 -0.9182  2.1624
  958SOL     OW 2872   1.402   2.539   1.132  0.1904 -0.2052  0.1666
  958SOL    HW1 2873   1.445   2.582   1.209 -1.0826 -1.0902  0.2272
  958SOL    HW2 2874   1.389   2.440   1.149 -2.7497 -0.1877  0.2630
  959SOL     OW 2875   1.635   1.694   2.306 -0.2426 -0.3215  0.6234
  959SOL    HW1 2876   1.723   1.721   2.344 -0.5753  2.5099  0.2014
  959SOL    HW2 2877   1.616   1.740   2.216  0.4003 -1.2011 -2.0111
  960SOL     OW 2878   3.071   0.822   2.731 -0.3552  0.0569 -0.1373
  960SOL    HW1 2879   0.037   0.872   2.788  1.0090 -0.6554 -2.1974
  960SOL    HW2 2880   0.019   0.806   2.651  0.2443  3.3618  3.3345
  961SOL     OW 2881   0.652   0.792   1.753  0.1156  0.3566  0.4122
  961SOL    HW1 2882   0.635   0.796   1.855  1.5178  0.6016  2.5756
  961SOL    HW2 2883   0.565   0.776   1.703  3.2471 -1.2549  0.9208
  962SOL     OW 2884   1.400   1.674   0.357 -0.0754  0.0123 -0.4307
  962SOL    HW1 2885   1.316   1.705   0.407  0.0346  3.5453  1.0089
  962SOL    HW2 2886   1.404   1.574   0.348  0.7029  1.5179 -0.4888
  963SOL     OW 2887   1.427   2.296   3.097  0.5166  0.1162 -0.3131
  963SOL    HW1 2888   1.464   2.287   2.998  0.7598 -1.5859 -1.6935
  963SOL    HW2 2889   1.407   2.394   0.013 -0.1656  1.3596 -1.0067
  964SOL     OW 2890   1.011   2.482   0.476  0.1549  0.2071 -0.5152
  964SOL    HW1 2891   1.059   2.443   0.394  1.3703  1.0445 -1.9924
  964SOL    HW2 2892   1.027   2.584   0.479  0.7327  0.3478 -0.3751
  965SOL     OW 2893   0.916   2.765   0.880 -0.3223  0.3197  0.3771
  965SOL    HW1 2894   0.925   2.674   0.926  0.3162 -2.7187 -0.4469
  965SOL    HW2 2895   0.821   2.771   0.842  1.9020 -0.7046 -0.1090
  966SOL     OW 2896   0.120   1.183   2.911 -0.4474 -0.4477 -0.4238
  966SOL    HW1 2897   0.144   1.251   2.841 -2.7334 -2.2040  0.0468
  966SOL    HW2 2898   0.027   1.153   2.905  2.5422 -0.3933  0.3343
  967SOL     OW 2899   1.257   2.720   1.869  0.0423  0.3133 -0.8909
  967SOL    HW1 2900   1.172   2.755   1.831  0.9497 -0.6737  0.0805
  967SOL    HW2 2901   1.238   2.659   1.948 -0.7584  2.0153 -2.5669
  968SOL     OW 2902   1.803   0.940   0.399 -0.3970 -0.0546 -0.2282
  968SOL    HW1 2903   1.705   0.935   0.372 -1.0775  1.1419  2.3607
  968SOL    HW2 2904   1.827   1.039   0.412  0.1766 -0.5247  0.1319
  969SOL     OW 2905   0.130   1.649   2.084  0.8333  0.0978 -0.1819
  969SOL    HW1 2906   0.069   1.624   2.007 -2.5617  0.9175  0.2453
  969SOL    HW2 2907   0.162   1.743   2.085  0.2746 -1.3559  2.9127
  970SOL     OW 2908   2.491   1.526   1.400 -0.1380 -0.2969 -0.7052
  970SOL    HW1 2909   2.498   1.425   1.370 -0.6316 -0.7474  0.6651
  970SOL    HW2 2910   2.583   1.546   1.448  0.2065  0.8165  0.1882
  971SOL     OW 2911   1.425   0.696   1.724  0.4643 -0.3017  0.2031
  971SOL    HW1 2912   1.490   0.681   1.804 -0.0508  1.2225 -0.7753
  971SOL    HW2 2913   1.386   0.789   1.728  0.4229  0.3535  1.9148
  972SOL     OW 2914   0.527   0.034   2.552 -0.5290  0.1674 -0.0397
  972SOL    HW1 2915   0.584   3.056   2.585  0.8958 -0.5414 -0.6974
  972SOL    HW2 2916   0.551   0.119   2.607  0.7718  1.0827 -1.0567
  973SOL     OW 2917   2.639   1.197   0.330  0.8927 -0.2767  0.7619
  973SOL    HW1 2918   2.667   1.115   0.275 -0.1338  2.3951 -1.4436
  973SOL    HW2 2919   2.650   1.189   0.432 -1.1540 -2.0484 -1.3494
  974SOL     OW 2920   2.068   1.255   2.128 -0.1416 -0.3225 -0.1941
  974SOL    HW1 2921   2.102   1.238   2.033  3.0679  1.8090  0.0810
  974SOL    HW2 2922   1.974   1.299   2.124 -0.0896  1.6245 -0.8529
  975SOL     OW 2923   2.818   2.730   0.715 -0.0745 -0.3815  0.3282
  975SOL    HW1 2924   2.833   2.742   0.617  1.1468 -2.0103  3.2628
  975SOL    HW2 2925   2.810   2.821   0.762  0.1439 -2.1886  0.7950
  976SOL     OW 2926   3.064   1.643   1.865 -0.3584  0.5780  0.1215
  976SOL    HW1 2927   3.091   1.728   1.822 -0.7312  0.2306 -0.3260
  976SOL    HW2 2928   2.978   1.663   1.921  1.2806 -0.0738  1.7562
  977SOL     OW 2929   0.863   2.664   3.013 -0.8180 -0.2796 -0.2200
  977SOL    HW1 2930   0.864   2.603   2.935  1.5091  1.0335  2.3632
  977SOL    HW2 2931   0.867   2.608   3.098 -0.2404 -0.6225  1.5930
  978SOL     OW 2932   0.756   1.931   2.360  0.1466 -0.3572 -0.4275
  978SOL    HW1 2933   0.660   1.891   2.353 -2.0502  0.0707  1.2689
  978SOL    HW2 2934   0.754   2.019   2.410  0.7323 -3.6030 -0.5295
  979SOL     OW 2935   1.318   2.297   1.215  0.0994  0.2017 -0.0660
  979SOL    HW1 2936   1.328   2.246   1.302 -2.2947  0.7378 -1.7544
  979SOL    HW2 2937   1.332   2.242   1.129  0.1275  1.2878  1.1715
  980SOL     OW 2938   0.504   1.406   2.825  0.1891  0.0659 -0.0875
  980SOL    HW1 2939   0.455   1.419   2.737  0.4993 -1.0524  0.1301
  980SOL    HW2 2940   0.602   1.419   2.813  0.6864 -0.3129  0.9715
  981SOL     OW 2941   2.858   0.266   2.582  0.3441 -0.9044 -0.4120
  981SOL    HW1 2942   2.760   0.250   2.550  0.4739 -3.1475  3.1007
  981SOL    HW2 2943   2.885   0.180   2.633 -1.0720 -0.2358  3.4393
  982SOL     OW 2944   0.046   2.531   2.657 -1.1342  0.4022  0.1978
  982SOL    HW1 2945   0.093   2.600   2.597 -0.7595  1.3564 -0.5494
  982SOL    HW2 2946   3.046   2.548   2.642  0.8303 -2.1305  1.0588
  983SOL     OW 2947   2.277   0.917   1.847  0.0278  0.1238  0.1273
  983SOL    HW1 2948   2.250   1.009   1.877  1.8224  2.5817 -0.8557
  983SOL    HW2 2949   2.370   0.895   1.885  2.1483 -1.1995  0.6142
  984SOL     OW 2950   1.355   0.144   2.233  0.8283  0.3903  0.2332
  984SOL    HW1 2951   1.392   0.234   2.200  0.4008 -0.0111 -1.2524
  984SOL    HW2 2952   1.410   0.105   2.307 -0.2924  1.2711 -0.6570
  985SOL     OW 2953   1.685   2.113   2.516  0.2914 -0.5347  0.3350
  985SOL    HW1 2954   1.658   2.088   2.418 -1.2190 -2.8425 -1.1057
  985SOL    HW2 2955   1.769   2.067   2.541  0.0868 -0.6807  0.1369
  986SOL     OW 2956   2.214   0.444   2.385  0.1716  0.1809 -0.2293
  986SOL    HW1 2957   2.211   0.532   2.335  2.3278 -1.6230  1.6799
  986SOL    HW2 2958   2.160   0.373   2.336 -1.1240  1.9921  0.1572
  987SOL     OW 2959   2.452   0.391   2.234 -0.3788  0.7316 -0.0820
  987SOL    HW1 2960   2.362   0.401   2.288  0.2947 -3.4932  1.3969
  987SOL    HW2 2961   2.515   0.327   2.290  2.7526 -2.0954 -1.1906
  988SOL     OW 2962   2.472   0.751   2.733  0.2706 -0.0864 -0.4921
  988SOL    HW1 2963   2.433   0.698   2.817 -2.6929 -1.4135  0.9334
  988SOL    HW2 2964   2.520   0.684   2.672  1.3331  2.3903  0.9385
  989SOL     OW 2965   2.537   2.439   2.550  0.4836  0.4798 -0.1136
  989SOL    HW1 2966   2.444   2.447   2.510 -1.4634  2.2414 -0.9393
  989SOL    HW2 2967   2.608   2.414   2.483 -1.0266 -0.5748 -0.9809
  990SOL     OW 2968   0.246   0.507   0.077 -0.1764 -0.7637 -0.2311
  990SOL    HW1 2969   0.271   0.511   0.177 -2.5210 -1.1708  1.2165
  990SOL    HW2 2970   0.198   0.592   0.041  0.4032 -0.7358 -0.2615
  991SOL     OW 2971   0.507   0.556   2.829  0.1495 -0.1107  0.3101
  991SOL    HW1 2972   0.421   0.506   2.839 -0.6974  2.2940  1.1300
  991SOL    HW2 2973   0.582   0.494   2.865  0.8106  1.2764  1.7983
  992SOL     OW 2974   2.858   2.026   2.186  0.3448  0.0698  0.7067
  992SOL    HW1 2975   2.878   2.096   2.259  0.2250 -0.0410  0.7930
  992SOL    HW2 2976   2.942   1.996   2.135 -1.6742 -0.8845 -1.9406
  993SOL     OW 2977   0.639   2.917   0.747 -0.3402 -0.4167 -0.1154
  993SOL    HW1 2978   0.652   2.965   0.656  2.1734  0.3198 -0.5361
  993SOL    HW2 2979   0.660   2.978   0.822  0.6207  0.6950 -0.7153
  994SOL     OW 2980   0.255   2.060   1.739 -0.2364 -0.4227 -0.3695
  994SOL    HW1 2981   0.330   2.012   1.790 -2.4993 -1.5061 -1.9561
  994SOL    HW2 2982   0.296   2.087   1.650 -3.1636  0.4372 -0.5310
  995SOL     OW 2983   2.243   1.846   0.350 -0.0832 -0.1068 -0.2528
  995SOL    HW1 2984   2.251   1.927   0.411 -1.8724 -2.1617  0.6159
  995SOL    HW2 2985   2.183   1.776   0.397 -3.3361 -1.4726  4.4562
  996SOL     OW 2986   1.492   1.323   2.600 -0.4356  0.1842  0.0521
  996SOL    HW1 2987   1.420   1.338   2.526  1.4932  1.0414 -3.0633
  996SOL    HW2 2988   1.581   1.359   2.565 -1.2526  3.4348 -2.2548
  997SOL     OW 2989   1.799   1.463   1.810 -0.0543  0.4931 -0.0951
  997SOL    HW1 2990   1.736   1.532   1.764  0.2367 -0.4160 -0.8265
  997SOL    HW2 2991   1.782   1.373   1.761 -0.2740 -1.1640 -1.5650
  998SOL     OW 2992   2.699   1.664   0.256  0.2536 -0.0485 -0.6994
  998SOL    HW1 2993   2.767   1.721   0.304 -2.6458  0.5532 -0.6738
  998SOL    HW2 2994   2.612   1.714   0.237  0.2270 -0.6717  0.3313
  999SOL     OW 2995   2.432   2.641   0.388 -0.4268 -0.2580  0.6220
  999SOL    HW1 2996   2.357   2.614   0.452  1.7626  2.3472  2.6340
  999SOL    HW2 2997   2.456   2.567   0.327 -2.8728 -1.1958 -0.0493
 1000SOL     OW 2998   0.722   2.980   2.229 -0.2168  0.4190  0.1520
 1000SOL    HW1 2999   0.763   3.074   2.225 -1.0706  1.4968  0.9337
 1000SOL    HW2 3000   0.691   2.954   2.137  2.2039  2.0982 -0.2961
   3.10214   3.10214   3.10214
