1000 SPC/Fw water molecules t= 234.00000 step= 234000
 3000
    1SOL     OW    1   3.090   2.728   1.044 -0.5050 -0.0357  0.0008
    1SOL    HW1    2   3.093   2.830   1.054 -0.0658  2.0267 -0.1844
    1SOL    HW2    3   3.035   2.682   1.120  1.1105 -0.0940  0.2715
    2SOL     OW    4   1.951   1.743   1.651  0.4449 -0.1025 -0.5700
    2SOL    HW1    5   1.986   1.655   1.609  1.4308 -0.2622 -1.0608
    2SOL    HW2    6   1.863   1.772   1.609  1.2642 -0.4095 -1.7520
    3SOL     OW    7   1.765   2.457   2.627 -0.3554  0.4996 -0.0902
    3SOL    HW1    8   1.704   2.516   2.683  0.4875 -0.2132  0.7474
    3SOL    HW2    9   1.847   2.509   2.595  0.3213  1.1483  0.8557
    4SOL     OW   10   2.121   2.002   2.257 -0.5955 -0.2012  0.0550
    4SOL    HW1   11   2.123   2.045   2.348 -0.4841 -2.1328 -1.4183
    4SOL    HW2   12   2.204   1.950   2.233  0.9253  1.4918  0.6276
    5SOL     OW   13   1.309   1.117   1.537  0.6987  0.3835 -0.5261
    5SOL    HW1   14   1.301   1.152   1.441  0.2059 -0.0890 -1.0452
    5SOL    HW2   15   1.234   1.048   1.552 -3.0394  0.1180  1.1304
    6SOL     OW   16   2.438   3.041   0.093  0.1692 -0.0518  0.3472
    6SOL    HW1   17   2.408   3.042   3.095  1.0865 -0.1384 -2.6737
    6SOL    HW2   18   2.445   2.945   0.133  1.1843 -0.6070 -1.9393
    7SOL     OW   19   2.969   1.526   1.459 -0.5894 -0.3798 -0.7089
    7SOL    HW1   20   2.950   1.459   1.534  0.1989 -1.3923 -2.1130
    7SOL    HW2   21   3.051   1.487   1.412  2.4762 -2.0041 -1.2262
    8SOL     OW   22   1.087   0.420   0.859  0.0698  0.0587 -0.1478
    8SOL    HW1   23   1.169   0.425   0.919  1.4908  1.8626  0.4404
    8SOL    HW2   24   1.010   0.362   0.905 -1.9452 -1.8639  2.3349
    9SOL     OW   25   1.338   0.575   2.509 -0.2198 -0.1901 -0.1823
    9SOL    HW1   26   1.358   0.649   2.577  1.0296  3.0244  0.5550
    9SOL    HW2   27   1.412   0.573   2.441 -0.1933  0.7973  1.2164
   10SOL     OW   28   0.506   2.287   0.213 -0.0242  1.0278  0.3084
   10SOL    HW1   29   0.465   2.192   0.207 -0.6758 -1.4501  1.0904
   10SOL    HW2   30   0.501   2.319   0.308  0.0297  0.4158 -0.9643
   11SOL     OW   31   0.992   0.956   0.234 -0.3591 -0.4114  0.4571
   11SOL    HW1   32   0.919   0.964   0.305  0.8676  2.0784 -0.3164
   11SOL    HW2   33   0.987   1.028   0.166  1.0580  0.0442  0.0158
   12SOL     OW   34   0.077   0.312   1.553  0.5184  0.2284 -0.0385
   12SOL    HW1   35   3.094   0.302   1.615  0.7994 -0.8805 -1.7022
   12SOL    HW2   36   0.167   0.313   1.603 -1.4485  0.0448  1.9500
   13SOL     OW   37   1.290   0.046   0.079 -0.5572  0.1360  0.4653
   13SOL    HW1   38   1.193   0.081   0.076 -0.7129 -0.3834  0.6705
   13SOL    HW2   39   1.320   0.038   0.177  1.4492  0.6744  0.6368
   14SOL     OW   40   1.273   2.472   1.293  0.3961 -0.0380  0.1582
   14SOL    HW1   41   1.256   2.473   1.396  1.3641  0.1191  0.7164
   14SOL    HW2   42   1.258   2.379   1.250  0.7928 -0.7026 -0.7714
   15SOL     OW   43   2.547   1.015   1.448  0.1831 -0.5383 -0.1050
   15SOL    HW1   44   2.615   1.091   1.461 -0.4926 -1.2347  1.6294
   15SOL    HW2   45   2.555   0.948   1.525  0.5732 -1.2182  3.0120
   16SOL     OW   46   1.940   2.683   2.961  0.6970  0.7607  0.0615
   16SOL    HW1   47   1.935   2.734   2.877 -0.8755 -1.6596  3.0774
   16SOL    HW2   48   1.850   2.685   3.011 -0.9767  1.2266 -0.4394
   17SOL     OW   49   0.783   3.046   1.455  0.2758  0.0889  0.0230
   17SOL    HW1   50   0.836   3.000   1.384 -1.8130  0.0014  0.7548
   17SOL    HW2   51   0.804   3.005   1.549 -1.7180 -1.7735  2.3757
   18SOL     OW   52   1.613   0.558   2.949  0.1232 -0.0241  0.1036
   18SOL    HW1   53   1.576   0.468   2.929 -2.3677  4.1226  1.3341
   18SOL    HW2   54   1.643   0.560   3.045  0.8617 -0.2947 -0.9568
   19SOL     OW   55   2.091   1.923   2.962  0.1984  0.0033 -0.6195
   19SOL    HW1   56   2.064   1.823   2.965  4.2274  1.1521  0.0738
   19SOL    HW2   57   2.108   1.963   3.053 -0.0769  0.5285  1.6778
   20SOL     OW   58   2.027   1.501   1.537 -0.1481  0.1143  0.2147
   20SOL    HW1   59   2.099   1.449   1.584  0.0817 -0.0838  1.0679
   20SOL    HW2   60   1.937   1.451   1.540 -0.7072 -1.0404 -1.0622
   21SOL     OW   61   0.725   1.402   2.830  0.2871 -0.6893 -0.4543
   21SOL    HW1   62   0.775   1.386   2.745 -1.6567 -1.6889 -0.3000
   21SOL    HW2   63   0.712   1.310   2.870  0.2700 -1.4973  0.9782
   22SOL     OW   64   1.894   2.780   1.467 -0.3182 -0.2762  0.7092
   22SOL    HW1   65   1.835   2.864   1.456 -0.2493  0.1080 -0.4924
   22SOL    HW2   66   1.965   2.784   1.396  0.8639  1.1830 -1.2310
   23SOL     OW   67   3.032   0.601   1.636  0.2203 -0.0659  0.3872
   23SOL    HW1   68   0.029   0.620   1.600 -2.2947 -2.5392  0.7680
   23SOL    HW2   69   2.969   0.659   1.586  2.9034 -0.7353 -1.1240
   24SOL     OW   70   2.268   2.406   1.092  0.4131 -0.3381 -0.4131
   24SOL    HW1   71   2.306   2.389   1.185  0.7645 -0.0014  1.8520
   24SOL    HW2   72   2.177   2.357   1.084  1.8865  2.8832  0.6045
   25SOL     OW   73   1.560   2.760   2.530 -0.4768 -0.8294  0.2921
   25SOL    HW1   74   1.625   2.722   2.464  1.5777  1.8852  1.1205
   25SOL    HW2   75   1.462   2.738   2.511 -0.0162  1.4273  1.7140
   26SOL     OW   76   1.885   2.844   2.755 -0.1535 -0.3928  0.7929
   26SOL    HW1   77   1.929   2.892   2.678 -1.4260 -2.7247  0.8664
   26SOL    HW2   78   1.783   2.870   2.746 -2.9482 -0.9311  0.2834
   27SOL     OW   79   0.267   1.613   2.981  0.4569  0.3581  0.0288
   27SOL    HW1   80   0.210   1.584   3.067 -0.9792  3.0780  1.6523
   27SOL    HW2   81   0.231   1.565   2.900  2.1711  0.8533  2.9575
   28SOL     OW   82   2.764   1.176   1.484 -0.1535  0.2633  0.3014
   28SOL    HW1   83   2.785   1.179   1.387 -0.3023 -0.4257  1.9596
   28SOL    HW2   84   2.808   1.247   1.535  0.3068 -0.2796 -1.2520
   29SOL     OW   85   2.620   2.609   1.723  0.0619  0.1670 -0.0442
   29SOL    HW1   86   2.630   2.570   1.815  1.3117 -3.3073  1.1139
   29SOL    HW2   87   2.600   2.711   1.723 -1.2001 -1.9033 -2.4167
   30SOL     OW   88   1.484   0.319   2.976 -0.2888 -0.0923  0.3056
   30SOL    HW1   89   1.384   0.343   2.970 -0.9379 -1.2734  1.2480
   30SOL    HW2   90   1.513   0.286   3.071  1.5201 -0.4371  2.8326
   31SOL     OW   91   2.645   2.879   1.733 -0.2194  0.4503 -0.1897
   31SOL    HW1   92   2.712   2.872   1.807 -1.3537  0.6400 -1.2345
   31SOL    HW2   93   2.676   2.935   1.650  1.3591  0.3462 -2.1008
   32SOL     OW   94   1.031   1.499   1.440  0.3266  0.5208  0.0333
   32SOL    HW1   95   0.941   1.528   1.480  1.3527  0.5883  0.0472
   32SOL    HW2   96   1.021   1.448   1.351 -3.0054  0.1438  0.7220
   33SOL     OW   97   0.349   2.538   2.221  0.1131 -0.3292  0.1922
   33SOL    HW1   98   0.336   2.490   2.135 -0.8064 -0.7050  1.8060
   33SOL    HW2   99   0.267   2.592   2.247  0.8138 -0.0134  0.8096
   34SOL     OW  100   1.570   0.069   0.637 -0.1743 -0.3399 -0.2885
   34SOL    HW1  101   1.510   0.086   0.720 -1.6339 -0.9912 -1.1374
   34SOL    HW2  102   1.666   0.081   0.662 -1.0930 -1.5305 -2.4004
   35SOL     OW  103   2.120   3.038   0.885  0.0397  0.3820  0.0649
   35SOL    HW1  104   2.116   3.026   0.784 -1.9589 -0.6864 -2.8059
   35SOL    HW2  105   2.051   0.015   0.901  1.5693  2.8981 -0.2555
   36SOL     OW  106   1.735   2.718   2.101  0.4636 -0.2856 -0.0353
   36SOL    HW1  107   1.781   2.730   2.010  1.2720 -2.1011  0.5919
   36SOL    HW2  108   1.703   2.620   2.110  1.9752 -0.5000  0.1916
   37SOL     OW  109   0.878   2.839   2.582 -0.2404 -1.2398 -0.2231
   37SOL    HW1  110   0.888   2.761   2.514 -0.4180 -0.0002  0.3018
   37SOL    HW2  111   0.957   2.834   2.646 -1.7115 -0.0909 -0.4720
   38SOL     OW  112   0.011   2.650   2.544 -0.0175  0.0073  0.5343
   38SOL    HW1  113   0.070   2.570   2.565  1.6585  2.1278 -0.7653
   38SOL    HW2  114   0.078   2.723   2.522  1.0300 -0.3807 -2.6162
   39SOL     OW  115   2.749   1.265   2.031 -0.1251  0.3241  0.0433
   39SOL    HW1  116   2.705   1.297   1.945 -1.0234  0.0142 -3.2959
   39SOL    HW2  117   2.674   1.250   2.098 -1.5510 -2.2586  0.9329
   40SOL     OW  118   0.127   2.982   3.013  0.4643  0.1316  0.0199
   40SOL    HW1  119   0.041   2.990   2.957 -0.0902 -0.2970  0.6298
   40SOL    HW2  120   0.162   2.885   3.002  2.3886 -3.6788 -3.6635
   41SOL     OW  121   1.838   0.584   0.831  0.3156 -0.9088  0.5033
   41SOL    HW1  122   1.910   0.595   0.760  0.7389  1.5823 -2.5614
   41SOL    HW2  123   1.765   0.658   0.826  0.9067  2.3109 -2.3720
   42SOL     OW  124   0.482   0.359   1.262 -0.7518  0.5116 -0.1181
   42SOL    HW1  125   0.580   0.384   1.238  0.0767  1.9340  3.7747
   42SOL    HW2  126   0.419   0.373   1.179 -2.1019 -1.0824 -0.3773
   43SOL     OW  127   2.606   1.347   2.860 -0.9294  0.2730  0.4534
   43SOL    HW1  128   2.570   1.251   2.841  3.8653  0.9799 -1.0837
   43SOL    HW2  129   2.674   1.356   2.787  0.7421  0.5742  1.1556
   44SOL     OW  130   3.096   2.733   0.777  0.2606 -0.7486  0.5363
   44SOL    HW1  131   0.069   2.803   0.764 -0.9674 -0.3670  2.0281
   44SOL    HW2  132   3.073   2.719   0.873  0.5035 -0.1496 -2.9420
   45SOL     OW  133   0.240   2.872   1.492  0.3856  0.3580  0.0798
   45SOL    HW1  134   0.234   2.806   1.417 -3.5132  0.9972 -2.4000
   45SOL    HW2  135   0.219   2.965   1.456  2.2984 -0.7077 -2.7247
   46SOL     OW  136   2.428   2.454   2.355  0.1304 -0.2496 -0.1886
   46SOL    HW1  137   2.488   2.381   2.392 -2.3011  0.3834 -2.4717
   46SOL    HW2  138   2.471   2.547   2.356  1.1939 -0.7053  1.8621
   47SOL     OW  139   2.163   2.034   1.141 -0.0413 -0.0673 -0.0035
   47SOL    HW1  140   2.099   2.114   1.129  1.9960  0.1930  0.2935
   47SOL    HW2  141   2.126   1.952   1.193 -0.3461  0.7054  0.7353
   48SOL     OW  142   0.541   1.501   0.188 -0.1692 -0.1954  0.5019
   48SOL    HW1  143   0.622   1.514   0.126 -1.0447  1.0862  1.4775
   48SOL    HW2  144   0.558   1.483   0.285 -0.4431  1.6263 -5.6879
   49SOL     OW  145   2.798   0.345   2.610 -0.1889 -0.1176 -0.0477
   49SOL    HW1  146   2.744   0.303   2.538  1.6367  1.0317  1.3775
   49SOL    HW2  147   2.876   0.400   2.587 -1.0430 -0.3432  1.3557
   50SOL     OW  148   2.383   0.582   0.203 -0.0897  0.0529 -0.2875
   50SOL    HW1  149   2.319   0.568   0.128  0.9503  1.4538 -0.5836
   50SOL    HW2  150   2.475   0.578   0.158  0.8655  0.5477  1.2086
   51SOL     OW  151   2.100   0.784   1.023  0.3688 -0.5495 -0.1141
   51SOL    HW1  152   2.146   0.868   0.992  0.7313 -0.8035  0.6005
   51SOL    HW2  153   2.051   0.784   1.117  0.5806 -0.5836  1.7763
   52SOL     OW  154   1.135   1.256   2.896  0.0915 -0.4947  0.2995
   52SOL    HW1  155   1.189   1.329   2.854  2.1558  0.7991  1.8015
   52SOL    HW2  156   1.201   1.185   2.932  2.7797  0.3984 -0.3137
   53SOL     OW  157   0.763   1.616   1.931 -0.0129 -0.5747  0.1789
   53SOL    HW1  158   0.680   1.558   1.951  0.2367 -1.7764 -0.1698
   53SOL    HW2  159   0.830   1.568   1.870 -0.1138 -0.9232 -1.4089
   54SOL     OW  160   2.118   0.388   1.167  0.3851 -0.0052 -0.0053
   54SOL    HW1  161   2.134   0.390   1.267  0.8018 -3.1229  0.3859
   54SOL    HW2  162   2.194   0.436   1.124 -3.9754  0.3906  0.3722
   55SOL     OW  163   2.645   2.034   1.163 -0.2743  0.0053  0.3938
   55SOL    HW1  164   2.661   1.939   1.184  0.6181 -0.2298 -2.7880
   55SOL    HW2  165   2.561   2.073   1.202  3.1425 -0.7118 -0.5953
   56SOL     OW  166   0.917   2.987   1.722 -0.1467  0.2789 -0.0040
   56SOL    HW1  167   0.968   2.962   1.811  3.0083 -1.6166  3.0586
   56SOL    HW2  168   0.981   3.047   1.672  2.1250  0.0410 -0.6044
   57SOL     OW  169   1.711   1.500   3.083 -0.3618  0.2465 -0.1096
   57SOL    HW1  170   1.694   1.572   3.011  3.7923 -1.1065  1.7760
   57SOL    HW2  171   1.737   1.534   0.079  1.2971 -1.1830  0.5163
   58SOL     OW  172   3.017   0.523   2.505  0.1442 -0.0111 -0.4869
   58SOL    HW1  173   0.000   0.543   2.446 -2.0958 -1.9176 -1.3555
   58SOL    HW2  174   3.034   0.551   2.601  0.0101  0.9040  1.0059
   59SOL     OW  175   1.036   2.494   2.566  0.3505  0.4806 -0.4374
   59SOL    HW1  176   1.088   2.553   2.630  0.0825  0.8156  0.2002
   59SOL    HW2  177   0.943   2.471   2.599  2.0156  1.3725 -1.0310
   60SOL     OW  178   2.447   2.380   0.644  0.5960  0.6424 -0.2322
   60SOL    HW1  179   2.484   2.299   0.592  1.3540  1.0019  0.5833
   60SOL    HW2  180   2.357   2.412   0.605 -1.3671  2.3904 -0.1317
   61SOL     OW  181   1.193   2.186   0.770 -0.5082  0.5269  0.1981
   61SOL    HW1  182   1.170   2.281   0.797  2.3833 -2.4592 -1.3765
   61SOL    HW2  183   1.191   2.175   0.668  0.9465  0.7885  1.6444
   62SOL     OW  184   2.632   2.051   2.578 -0.1662  0.0593 -0.7036
   62SOL    HW1  185   2.589   2.101   2.657 -2.8991 -0.8796 -1.4949
   62SOL    HW2  186   2.608   1.947   2.575  0.7365 -3.3384 -2.3177
   63SOL     OW  187   2.115   2.857   0.020 -0.1700 -0.2372  0.2848
   63SOL    HW1  188   2.079   2.775   3.066 -3.9227 -1.7062  1.2906
   63SOL    HW2  189   2.141   2.937   3.057  1.1192 -1.2455 -1.8635
   64SOL     OW  190   1.244   0.855   2.898  0.1697 -0.0433  0.4754
   64SOL    HW1  191   1.244   0.785   2.968  2.2836  0.2219 -0.9245
   64SOL    HW2  192   1.302   0.824   2.819 -0.4891 -0.8698 -0.0481
   65SOL     OW  193   1.471   2.599   0.228  0.7476 -0.0118  0.0392
   65SOL    HW1  194   1.430   2.669   0.165  1.2910  0.1111  0.0915
   65SOL    HW2  195   1.569   2.574   0.214  0.6160 -2.9049  2.7188
   66SOL     OW  196   0.425   1.335   1.813  0.1546  0.3593 -0.0174
   66SOL    HW1  197   0.422   1.251   1.753 -0.4219 -1.9016 -4.2569
   66SOL    HW2  198   0.328   1.365   1.836 -1.5386 -2.5272  2.1954
   67SOL     OW  199   2.591   2.883   2.848  0.3655 -0.1524 -0.1597
   67SOL    HW1  200   2.488   2.867   2.832 -3.1103  0.9711  1.3328
   67SOL    HW2  201   2.621   2.947   2.779 -1.1749 -2.7248  0.6153
   68SOL     OW  202   0.849   2.379   1.255  0.8743 -0.4849 -0.2963
   68SOL    HW1  203   0.889   2.304   1.315  0.9296 -0.0384  2.5981
   68SOL    HW2  204   0.852   2.466   1.310  2.3345 -0.2361  0.4065
   69SOL     OW  205   0.528   2.395   0.461  0.9070  0.5294 -0.0407
   69SOL    HW1  206   0.625   2.385   0.492 -0.6168 -2.7180  2.3517
   69SOL    HW2  207   0.465   2.383   0.541  2.0994  3.2891  0.4120
   70SOL     OW  208   2.684   0.956   2.519 -1.3146 -0.2028 -0.4499
   70SOL    HW1  209   2.775   0.920   2.551  1.4209  1.3689 -0.4772
   70SOL    HW2  210   2.618   0.880   2.503  0.0419 -0.3152 -1.3169
   71SOL     OW  211   0.387   1.107   2.587 -0.2558 -0.0634 -0.1643
   71SOL    HW1  212   0.351   1.076   2.500  1.3374  0.6957  1.1126
   71SOL    HW2  213   0.465   1.175   2.571 -0.5483 -0.4915  1.8416
   72SOL     OW  214   0.167   2.179   0.400 -0.0850  0.3732  0.2064
   72SOL    HW1  215   0.256   2.149   0.358  1.7534  0.1996 -2.1438
   72SOL    HW2  216   0.155   2.278   0.378 -1.0626 -2.7209  1.6698
   73SOL     OW  217   0.982   1.271   0.358 -0.2125  0.1204 -0.1198
   73SOL    HW1  218   0.924   1.359   0.353  0.0280  0.6626 -0.4015
   73SOL    HW2  219   1.079   1.300   0.365  2.3916  2.7676  0.3335
   74SOL     OW  220   2.784   0.082   0.397 -0.8848  0.2536  0.4223
   74SOL    HW1  221   2.691   0.119   0.412  0.4645  1.2847  3.4763
   74SOL    HW2  222   2.849   0.130   0.331 -0.6718  0.0994 -1.0707
   75SOL     OW  223   2.234   1.540   2.016  0.5669  0.3648 -0.0196
   75SOL    HW1  224   2.224   1.453   1.966  0.7347  0.4432 -0.0360
   75SOL    HW2  225   2.186   1.617   1.967  2.3476  1.9378 -0.1122
   76SOL     OW  226   2.004   2.610   1.653  0.1040  0.3197  0.2504
   76SOL    HW1  227   1.952   2.672   1.594  0.3597  2.1417  4.5622
   76SOL    HW2  228   2.093   2.576   1.614  1.2111  0.5352 -3.4494
   77SOL     OW  229   2.564   0.571   1.378 -0.0954  0.1424  0.5921
   77SOL    HW1  230   2.599   0.479   1.403  0.0229  2.3377  1.3001
   77SOL    HW2  231   2.543   0.618   1.467 -1.4848  1.2664  0.9245
   78SOL     OW  232   2.009   0.927   2.811 -0.9742  0.4152 -0.3002
   78SOL    HW1  233   1.993   0.890   2.905  0.9879  1.5396  0.5322
   78SOL    HW2  234   1.946   0.887   2.743  1.7317 -0.9369  1.8941
   79SOL     OW  235   0.362   1.521   2.179  0.0289 -0.4961  0.2477
   79SOL    HW1  236   0.305   1.578   2.118 -0.8191 -0.6433  2.3380
   79SOL    HW2  237   0.448   1.492   2.127  4.6739 -0.6296 -1.9374
   80SOL     OW  238   1.505   0.972   1.190  0.5369 -0.0627  1.0707
   80SOL    HW1  239   1.476   1.053   1.131  2.5385  0.2042  0.6053
   80SOL    HW2  240   1.462   0.882   1.159  0.9586 -4.0732 -0.6089
   81SOL     OW  241   1.016   0.376   1.288  0.0063 -0.2774 -0.4281
   81SOL    HW1  242   0.927   0.327   1.314 -1.2721  1.6148 -0.2861
   81SOL    HW2  243   0.998   0.462   1.238  0.0263  0.8017  0.6604
   82SOL     OW  244   1.479   2.349   1.965  0.3613 -0.3110  0.1190
   82SOL    HW1  245   1.408   2.279   1.970  0.0654  0.3346  0.5097
   82SOL    HW2  246   1.545   2.334   1.888 -1.3763  0.7818 -1.4559
   83SOL     OW  247   0.571   0.086   1.005 -0.4302 -0.4684  0.1010
   83SOL    HW1  248   0.661   0.071   1.052  1.9824  0.0756  0.3772
   83SOL    HW2  249   0.585   0.155   0.929  1.4151 -1.5219 -1.0629
   84SOL     OW  250   0.050   0.864   3.061  0.4500  0.2001 -0.3289
   84SOL    HW1  251   0.139   0.894   3.025 -2.2937 -1.2333  3.9236
   84SOL    HW2  252   3.074   0.923   3.019  0.4506  0.2238 -3.3034
   85SOL     OW  253   2.863   2.500   1.643  0.0152 -0.0939  0.1487
   85SOL    HW1  254   2.951   2.554   1.646  1.9683  2.1266 -2.2204
   85SOL    HW2  255   2.786   2.559   1.678  0.9366  0.6377  0.3496
   86SOL     OW  256   0.046   2.731   1.639 -0.4567 -0.0706 -0.2448
   86SOL    HW1  257   3.085   2.812   1.671 -2.6278 -1.3484  2.5060
   86SOL    HW2  258   0.129   2.767   1.585  0.2805 -0.4998 -2.5636
   87SOL     OW  259   3.020   3.002   0.129 -0.5931  0.1564  0.1742
   87SOL    HW1  260   3.084   2.979   0.052  1.3392 -0.1575 -0.0273
   87SOL    HW2  261   2.927   2.970   0.100 -1.9839  1.8033  0.7989
   88SOL     OW  262   0.411   2.034   1.299  0.1023 -0.3898 -0.2468
   88SOL    HW1  263   0.506   2.054   1.310 -2.8583 -2.1066 -0.5459
   88SOL    HW2  264   0.373   2.096   1.224 -2.4099  1.2110 -0.8753
   89SOL     OW  265   1.189   0.781   1.842 -0.3147 -0.7168  0.3468
   89SOL    HW1  266   1.151   0.684   1.832  2.9651 -1.2516  0.8448
   89SOL    HW2  267   1.292   0.768   1.848  2.2291  0.0489  1.1374
   90SOL     OW  268   2.798   1.501   1.844 -0.7153 -0.2489  0.2046
   90SOL    HW1  269   2.820   1.491   1.941  0.7908 -1.9949 -0.5034
   90SOL    HW2  270   2.830   1.599   1.817  0.0664  1.5364 -0.8065
   91SOL     OW  271   1.546   1.787   0.691 -0.0103  0.6330 -0.2700
   91SOL    HW1  272   1.596   1.818   0.774  2.0112  0.8186 -0.5189
   91SOL    HW2  273   1.460   1.733   0.713  0.9554 -2.5528  0.4017
   92SOL     OW  274   2.391   0.469   1.203  0.7409  0.2753  1.0294
   92SOL    HW1  275   2.387   0.520   1.113  1.5288  1.5211  0.0355
   92SOL    HW2  276   2.459   0.519   1.258 -2.2274  0.7383 -1.3658
   93SOL     OW  277   2.569   1.444   0.055  0.4338  0.4576  0.4394
   93SOL    HW1  278   2.582   1.397   3.061  0.2915 -3.0434 -0.5184
   93SOL    HW2  279   2.525   1.532   0.044  1.3207 -2.9286  2.3307
   94SOL     OW  280   2.637   2.314   2.462  0.2208 -0.0008 -0.3555
   94SOL    HW1  281   2.656   2.225   2.504  3.1027 -0.5817  2.7003
   94SOL    HW2  282   2.713   2.350   2.398  0.1821 -0.6500  0.1950
   95SOL     OW  283   1.833   0.481   1.079 -0.0679 -0.6862  0.4286
   95SOL    HW1  284   1.832   0.540   0.994 -0.0111  1.2125 -1.4266
   95SOL    HW2  285   1.915   0.424   1.084  2.2104 -1.1246  0.5165
   96SOL     OW  286   2.796   0.035   1.738  0.1779 -0.6121  0.0425
   96SOL    HW1  287   2.744   0.037   1.824  2.0245 -0.2807 -0.0855
   96SOL    HW2  288   2.724   0.026   1.664 -1.7530 -1.3124 -1.6772
   97SOL     OW  289   2.062   2.898   1.231  0.3830 -0.0683 -0.1506
   97SOL    HW1  290   2.057   2.876   1.129 -0.7878  0.7452 -0.2876
   97SOL    HW2  291   2.074   3.001   1.252 -0.7646  2.0009 -0.7604
   98SOL     OW  292   1.471   2.451   1.557 -0.0821  0.0857 -0.5202
   98SOL    HW1  293   1.536   2.511   1.511 -1.7656 -2.6835 -0.1465
   98SOL    HW2  294   1.460   2.367   1.509  2.8445  1.6109 -0.9448
   99SOL     OW  295   2.833   2.838   1.942 -0.2429 -0.4599  0.0078
   99SOL    HW1  296   2.919   2.784   1.933 -0.6958  2.1496  1.0180
   99SOL    HW2  297   2.810   2.848   2.043 -0.2662 -0.3725  2.5339
  100SOL     OW  298   0.217   0.749   2.759  0.3088  0.1702  0.3597
  100SOL    HW1  299   0.226   0.802   2.845  1.3240 -1.0351 -0.1743
  100SOL    HW2  300   0.300   0.690   2.753 -0.4055  1.3562  3.6940
  101SOL     OW  301   1.811   0.817   0.134  0.2773  0.2170  0.0391
  101SOL    HW1  302   1.772   0.778   0.217  0.3883 -0.7884 -3.0763
  101SOL    HW2  303   1.854   0.906   0.151  0.9769 -0.2285  0.5888
  102SOL     OW  304   0.204   0.681   1.584 -0.2846 -0.3630  0.2178
  102SOL    HW1  305   0.216   0.719   1.674  4.0803 -2.8054 -1.3723
  102SOL    HW2  306   0.282   0.615   1.570 -1.9843 -1.6975  0.3370
  103SOL     OW  307   3.091   0.953   2.126  0.5033 -0.6746 -0.5747
  103SOL    HW1  308   0.055   0.875   2.109  3.0837  0.8450 -1.4092
  103SOL    HW2  309   3.036   0.950   2.210 -0.6192  2.1653 -0.7437
  104SOL     OW  310   0.203   0.237   2.753 -0.2105  0.4713 -0.3346
  104SOL    HW1  311   0.298   0.262   2.775 -0.0109  0.0037  1.2291
  104SOL    HW2  312   0.178   0.249   2.653 -0.7403 -0.1482 -0.6935
  105SOL     OW  313   2.149   1.922   1.610 -0.0644  0.2420  0.0169
  105SOL    HW1  314   2.069   1.855   1.629  1.0627 -2.9694  0.2511
  105SOL    HW2  315   2.223   1.928   1.678 -0.4042  0.2112  0.5852
  106SOL     OW  316   1.815   0.363   0.446  0.0735  0.0856 -0.2995
  106SOL    HW1  317   1.914   0.363   0.426  1.1238  0.0999  2.3251
  106SOL    HW2  318   1.806   0.382   0.545 -0.3957 -0.2489  0.1284
  107SOL     OW  319   0.235   1.861   1.705 -0.3886 -0.1988  0.4417
  107SOL    HW1  320   0.221   1.960   1.735 -0.1293  3.4654  1.9941
  107SOL    HW2  321   0.214   1.859   1.606 -1.3096  1.0202 -0.7670
  108SOL     OW  322   2.809   2.849   2.201 -0.3181  0.5431  0.7500
  108SOL    HW1  323   2.849   2.755   2.231 -1.4055 -2.3370 -1.2885
  108SOL    HW2  324   2.868   2.924   2.232  1.5066  0.5939  0.6423
  109SOL     OW  325   1.629   0.172   0.342 -0.2699  0.6647 -0.4970
  109SOL    HW1  326   1.713   0.230   0.363 -1.1516  0.3528 -1.5294
  109SOL    HW2  327   1.581   0.145   0.430 -0.0706 -0.1755  2.0908
  110SOL     OW  328   0.385   2.070   2.287 -0.5670  0.2025  0.4474
  110SOL    HW1  329   0.400   2.165   2.248 -0.1353  0.7665  0.2287
  110SOL    HW2  330   0.461   2.048   2.351  1.3609  0.3046 -1.1234
  111SOL     OW  331   1.681   2.451   2.095  0.1871 -0.0345 -0.2023
  111SOL    HW1  332   1.760   2.456   2.028 -0.6186  1.4979 -0.3487
  111SOL    HW2  333   1.614   2.383   2.064  0.8172  2.8194  1.6693
  112SOL     OW  334   1.770   2.693   2.394  0.0088  0.1179 -0.0207
  112SOL    HW1  335   1.861   2.679   2.432 -4.2134  3.2851 -0.8137
  112SOL    HW2  336   1.770   2.697   2.293 -1.3004 -2.0415 -0.6681
  113SOL     OW  337   1.888   2.450   1.871 -0.0201 -0.3480 -0.3869
  113SOL    HW1  338   1.946   2.513   1.817  3.7822 -0.5822 -0.0456
  113SOL    HW2  339   1.933   2.421   1.963 -2.1155 -2.1077  3.0380
  114SOL     OW  340   2.977   0.783   0.823  0.2120  0.4161 -0.1227
  114SOL    HW1  341   2.939   0.795   0.724 -2.7100 -1.0179 -2.5391
  114SOL    HW2  342   2.953   0.684   0.853 -2.5028 -0.5696  0.8130
  115SOL     OW  343   0.318   0.869   2.987 -0.4927 -0.1962  0.3770
  115SOL    HW1  344   0.316   0.971   2.962 -0.6891  1.2135 -2.9143
  115SOL    HW2  345   0.401   0.842   3.036 -0.6654  0.9213 -0.1388
  116SOL     OW  346   0.106   1.214   2.256  0.3103 -0.3389  0.0119
  116SOL    HW1  347   0.119   1.195   2.156  0.1967 -0.5278 -1.7238
  116SOL    HW2  348   0.187   1.180   2.300 -1.7945  1.9641 -4.2028
  117SOL     OW  349   2.559   3.005   0.742 -0.1971 -0.2723  0.3086
  117SOL    HW1  350   2.636   3.070   0.758  1.7301 -1.6744 -0.7137
  117SOL    HW2  351   2.544   3.006   0.642 -2.1956 -1.4545  0.0028
  118SOL     OW  352   1.253   1.832   1.634 -0.3527  0.2213  0.3179
  118SOL    HW1  353   1.276   1.747   1.585  0.2918 -0.3923 -1.4299
  118SOL    HW2  354   1.327   1.860   1.696  1.7932 -2.8181 -0.6937
  119SOL     OW  355   0.833   2.395   2.713  0.5934  1.0653  0.2800
  119SOL    HW1  356   0.886   2.344   2.783  1.4606 -1.0034  0.8763
  119SOL    HW2  357   0.735   2.405   2.745 -0.2304 -0.6984 -1.1851
  120SOL     OW  358   0.617   0.726   3.017  0.2244  0.0560 -0.2025
  120SOL    HW1  359   0.591   0.632   2.995  1.1102  1.9790  2.8202
  120SOL    HW2  360   0.630   0.771   2.928  3.4938 -0.8050  0.1297
  121SOL     OW  361   1.900   2.508   1.210  0.2470 -0.4510 -0.5661
  121SOL    HW1  362   1.908   2.589   1.151  3.1067  1.9843  0.6291
  121SOL    HW2  363   1.804   2.478   1.225 -0.0817  2.0525 -0.8193
  122SOL     OW  364   2.485   2.160   1.862 -0.2234  0.1348 -0.2228
  122SOL    HW1  365   2.562   2.183   1.928  1.6154  2.7017  0.8688
  122SOL    HW2  366   2.519   2.166   1.769 -0.6297 -1.8640  2.6186
  123SOL     OW  367   0.200   2.811   0.475  0.0437  0.5405  0.6201
  123SOL    HW1  368   0.265   2.770   0.412 -3.0338 -0.0461 -0.3749
  123SOL    HW2  369   0.105   2.797   0.434 -1.4172  1.0751 -0.4977
  124SOL     OW  370   2.329   0.970   2.563  0.0589 -0.0900 -0.2428
  124SOL    HW1  371   2.225   0.954   2.555 -3.2323 -1.5971 -3.4676
  124SOL    HW2  372   2.346   1.053   2.622  3.1673 -0.1955  0.2735
  125SOL     OW  373   0.396   1.129   0.682 -0.2961 -0.8512  0.4578
  125SOL    HW1  374   0.487   1.174   0.673 -0.1685 -1.4498 -1.7491
  125SOL    HW2  375   0.329   1.205   0.679 -1.9263  1.2920 -0.4976
  126SOL     OW  376   2.691   1.764   0.832  0.4545 -0.0789  0.4812
  126SOL    HW1  377   2.781   1.730   0.817 -1.9698  1.6540 -1.9920
  126SOL    HW2  378   2.694   1.864   0.855  0.0264 -3.3014  2.2113
  127SOL     OW  379   0.104   2.387   1.791 -0.3050  0.2949  0.1369
  127SOL    HW1  380   0.162   2.428   1.718 -1.8970  0.0261 -0.3253
  127SOL    HW2  381   0.071   2.300   1.753  1.0624 -2.0765 -1.8210
  128SOL     OW  382   0.904   0.714   0.052 -0.0613  0.2380 -0.0011
  128SOL    HW1  383   0.829   0.653   0.011  0.9057 -2.7872  3.7189
  128SOL    HW2  384   0.873   0.769   0.133  2.7790  1.7469 -0.4454
  129SOL     OW  385   2.503   1.146   0.828  0.3430  0.0147  0.3801
  129SOL    HW1  386   2.485   1.087   0.748  3.8304 -1.8463 -1.5928
  129SOL    HW2  387   2.532   1.097   0.911 -1.4970  1.1870  0.0183
  130SOL     OW  388   2.364   1.240   1.415 -0.5639 -0.0011 -0.0262
  130SOL    HW1  389   2.440   1.174   1.438  3.3640  1.1407  0.1996
  130SOL    HW2  390   2.406   1.308   1.350  0.2232 -1.2208 -2.6584
  131SOL     OW  391   2.553   0.175   0.145 -0.0565  0.3958 -0.0317
  131SOL    HW1  392   2.534   0.201   0.242  3.1596 -0.0076 -1.2013
  131SOL    HW2  393   2.520   0.079   0.125  2.2283  2.3876 -0.8238
  132SOL     OW  394   2.970   2.214   1.773 -0.3238  0.2196 -0.6198
  132SOL    HW1  395   2.881   2.259   1.758 -1.1237 -0.3584  1.4822
  132SOL    HW2  396   2.960   2.162   1.859 -1.0139  0.8320 -1.1587
  133SOL     OW  397   0.808   0.764   1.354  0.5905  0.4256 -0.4882
  133SOL    HW1  398   0.847   0.698   1.286  4.4108  0.0439  1.0296
  133SOL    HW2  399   0.799   0.852   1.300 -1.1557  0.6903 -2.5354
  134SOL     OW  400   0.199   1.383   0.243  0.3069  0.1667  0.2862
  134SOL    HW1  401   0.140   1.400   0.162 -0.5189 -0.4436 -0.1989
  134SOL    HW2  402   0.196   1.284   0.271 -0.7513 -0.5164  1.7075
  135SOL     OW  403   2.137   1.064   1.394 -0.2963 -0.6675  0.6071
  135SOL    HW1  404   2.220   1.132   1.398 -0.3592  1.0229  1.4277
  135SOL    HW2  405   2.053   1.109   1.434  3.7727 -1.4331  0.1574
  136SOL     OW  406   2.677   0.810   0.407 -0.1429  0.0813 -0.7067
  136SOL    HW1  407   2.577   0.816   0.386  2.0541  2.6876 -0.3280
  136SOL    HW2  408   2.703   0.874   0.481 -1.0997 -1.1929 -0.1585
  137SOL     OW  409   2.455   1.393   1.212  0.2691 -0.4524 -0.0947
  137SOL    HW1  410   2.535   1.431   1.157 -1.2454  2.2234 -0.3056
  137SOL    HW2  411   2.379   1.363   1.151 -3.8696  3.0540  1.5759
  138SOL     OW  412   1.744   0.777   1.499 -0.0346  0.0348  0.0730
  138SOL    HW1  413   1.788   0.808   1.585 -0.9327 -0.0097  2.0309
  138SOL    HW2  414   1.799   0.703   1.447  0.8295 -0.8119 -0.4671
  139SOL     OW  415   1.996   0.021   0.077 -0.0790  0.3055 -0.1956
  139SOL    HW1  416   1.918   0.062   0.025  0.8670 -0.4915 -1.8468
  139SOL    HW2  417   1.990   3.016   0.083 -1.5621 -1.8123  0.4579
  140SOL     OW  418   1.460   1.809   1.863 -0.4287  0.3630 -0.5398
  140SOL    HW1  419   1.529   1.848   1.923 -2.4478 -3.5455  0.1191
  140SOL    HW2  420   1.402   1.733   1.905 -1.5445  2.0976  2.3229
  141SOL     OW  421   1.935   1.951   0.860  0.2630  0.8685 -0.4587
  141SOL    HW1  422   1.968   1.857   0.865 -0.9100  2.2243 -4.1856
  141SOL    HW2  423   2.017   2.013   0.859 -0.5120 -1.5516 -0.3766
  142SOL     OW  424   0.016   0.921   0.243 -0.1348 -0.5671  0.0060
  142SOL    HW1  425   0.014   0.899   0.140  1.9324 -1.5823 -1.0237
  142SOL    HW2  426   0.041   0.837   0.301 -1.5463 -1.3330  2.5463
  143SOL     OW  427   0.418   2.046   2.743  0.4244 -0.0711 -0.3622
  143SOL    HW1  428   0.323   2.087   2.727 -0.6264  0.7943  0.2236
  143SOL    HW2  429   0.413   1.960   2.795 -1.0844  1.7214 -2.5754
  144SOL     OW  430   1.101   0.063   1.540  0.1276  0.2017 -0.2773
  144SOL    HW1  431   1.115   0.094   1.443 -1.7263  1.2362  0.9874
  144SOL    HW2  432   1.043   0.125   1.593  0.8734 -1.4230 -0.1715
  145SOL     OW  433   2.386   1.064   0.177  0.1180 -0.1512 -1.0551
  145SOL    HW1  434   2.445   1.043   0.096  1.7390 -0.2262  1.3486
  145SOL    HW2  435   2.394   1.164   0.206 -0.9740  1.2877 -0.0462
  146SOL     OW  436   2.401   2.422   0.298 -0.1465 -0.9201  0.1986
  146SOL    HW1  437   2.419   2.489   0.221  0.6846  0.0211 -0.4931
  146SOL    HW2  438   2.304   2.429   0.329  1.5183 -0.8171 -4.9414
  147SOL     OW  439   2.312   2.334   1.341 -0.3265 -0.2011  0.3014
  147SOL    HW1  440   2.348   2.236   1.322  2.1452  0.1698 -0.6310
  147SOL    HW2  441   2.382   2.390   1.387  0.1248 -1.7033  1.1653
  148SOL     OW  442   1.513   3.000   2.391 -0.0136 -0.2173  0.8015
  148SOL    HW1  443   1.526   2.974   2.294  0.1523 -0.5031 -1.0239
  148SOL    HW2  444   1.509   2.916   2.450 -0.8048  1.2579 -0.3813
  149SOL     OW  445   1.032   0.595   2.500  0.1354  0.0052 -0.1863
  149SOL    HW1  446   1.127   0.610   2.478  0.0828  0.8245  0.9330
  149SOL    HW2  447   1.005   0.661   2.568  1.1802 -0.8646  0.8343
  150SOL     OW  448   0.671   2.787   0.184  0.0436  0.1678  0.4529
  150SOL    HW1  449   0.721   2.707   0.142  0.1791 -2.9703  1.7232
  150SOL    HW2  450   0.648   2.771   0.282  0.7797 -0.6799 -2.3167
  151SOL     OW  451   0.136   1.776   0.205 -0.2049  0.7234  0.0893
  151SOL    HW1  452   0.089   1.688   0.172 -0.7656 -2.4228 -0.3559
  151SOL    HW2  453   0.106   1.797   0.300  1.9589  1.1988  3.0308
  152SOL     OW  454   0.025   0.441   0.678  0.0938  0.1537 -0.4209
  152SOL    HW1  455   0.012   0.444   0.780  0.3142 -0.0812  1.0350
  152SOL    HW2  456   3.070   0.361   0.639 -1.1513 -0.5569 -2.5711
  153SOL     OW  457   2.387   0.025   0.940 -0.3347 -0.2143 -0.1355
  153SOL    HW1  458   2.293   3.079   0.959 -2.4478 -3.0690 -1.5634
  153SOL    HW2  459   2.443   3.066   0.875  1.2028  1.6333 -2.1121
  154SOL     OW  460   1.082   0.542   1.807 -0.4315 -0.0119  0.2727
  154SOL    HW1  461   0.997   0.513   1.853 -0.4228  0.0985 -1.0275
  154SOL    HW2  462   1.083   0.506   1.709  0.9869 -3.3280 -2.5302
  155SOL     OW  463   2.897   1.423   0.796 -0.3394 -0.8094 -0.0228
  155SOL    HW1  464   2.795   1.408   0.776 -3.1559  2.1065  2.1181
  155SOL    HW2  465   2.916   1.528   0.791 -0.1030  0.1295 -0.1735
  156SOL     OW  466   2.391   1.980   0.085 -0.0192  0.5797  0.1464
  156SOL    HW1  467   2.391   1.889   0.038  0.6490 -0.5959 -1.3510
  156SOL    HW2  468   2.451   1.964   0.164  0.2561 -4.6229  0.3719
  157SOL     OW  469   1.039   3.002   0.746  0.5890  0.0541 -0.2497
  157SOL    HW1  470   0.955   2.956   0.782  1.3024  0.8991  0.7556
  157SOL    HW2  471   1.121   2.953   0.778 -5.4353 -0.3530 -0.4697
  158SOL     OW  472   2.222   0.278   2.575  0.1912  0.1334  0.2417
  158SOL    HW1  473   2.309   0.261   2.623 -1.8514 -0.7161 -2.1856
  158SOL    HW2  474   2.238   0.329   2.484  1.2999 -0.0959 -1.4740
  159SOL     OW  475   0.276   0.128   0.337  0.2600  0.1781  0.1264
  159SOL    HW1  476   0.221   0.146   0.253 -3.5867  0.4604  0.6556
  159SOL    HW2  477   0.285   0.206   0.403 -0.6943  1.9749  5.0076
  160SOL     OW  478   1.187   2.225   0.064  0.4249  0.1711 -0.0687
  160SOL    HW1  479   1.238   2.148   0.018 -1.1520  2.2534 -0.3779
  160SOL    HW2  480   1.239   2.272   0.140 -0.3868  0.2099  0.2686
  161SOL     OW  481   2.774   1.648   2.353  0.2845 -0.2782 -0.4784
  161SOL    HW1  482   2.820   1.736   2.319 -2.3852 -2.6969  0.6567
  161SOL    HW2  483   2.675   1.662   2.366  2.1952 -1.1081  2.2726
  162SOL     OW  484   3.001   2.847   1.323  0.8766  0.1508 -0.3335
  162SOL    HW1  485   3.067   2.843   1.249  1.3366  1.3309 -1.1045
  162SOL    HW2  486   3.016   2.936   1.373  1.0618  0.0210  0.7740
  163SOL     OW  487   1.921   0.280   2.615 -0.2588 -0.2035  0.1045
  163SOL    HW1  488   1.898   0.204   2.680  1.6662  0.8872 -1.8049
  163SOL    HW2  489   2.027   0.287   2.613  2.7316 -0.8893  1.1750
  164SOL     OW  490   2.956   1.687   0.764  0.0747 -0.5894 -0.1949
  164SOL    HW1  491   2.951   1.757   0.694  2.2660  2.1336 -1.6435
  164SOL    HW2  492   3.048   1.700   0.809 -0.2226 -0.8230  0.4381
  165SOL     OW  493   2.906   0.200   2.010  0.1727  0.7101 -0.3063
  165SOL    HW1  494   2.819   0.145   2.007 -2.2145 -2.1348  1.8795
  165SOL    HW2  495   2.902   0.289   1.968 -1.5995 -2.0916  2.5672
  166SOL     OW  496   2.062   0.717   0.746  0.7637  0.1180 -0.0066
  166SOL    HW1  497   2.130   0.649   0.717  1.9774  0.8765 -1.0161
  166SOL    HW2  498   2.068   0.739   0.849 -0.1023  2.1402  0.7018
  167SOL     OW  499   0.487   0.563   0.657  0.0184 -0.2817 -0.3002
  167SOL    HW1  500   0.422   0.637   0.628 -1.2304  0.0153 -0.1396
  167SOL    HW2  501   0.432   0.504   0.723 -0.2604  0.4805 -0.3374
  168SOL     OW  502   1.989   2.938   2.170  0.8096 -0.4141 -0.3888
  168SOL    HW1  503   1.995   2.835   2.168 -0.0586  0.3094 -2.2366
  168SOL    HW2  504   1.904   2.957   2.226 -1.6395  0.5344  1.0938
  169SOL     OW  505   0.980   1.162   0.790  0.4628  0.6909 -0.5275
  169SOL    HW1  506   0.941   1.140   0.698 -1.7225 -3.2119 -3.6014
  169SOL    HW2  507   0.995   1.078   0.845 -1.6609 -1.7226  3.2529
  170SOL     OW  508   2.842   0.728   1.479  0.3658 -0.1940  0.5512
  170SOL    HW1  509   2.833   0.699   1.380 -0.9034  2.7058 -3.4469
  170SOL    HW2  510   2.753   0.744   1.530 -0.5172  1.2226  2.3021
  171SOL     OW  511   0.880   2.606   1.727 -0.2389  0.2552  0.0825
  171SOL    HW1  512   0.938   2.532   1.691 -0.8104  0.0889  1.0011
  171SOL    HW2  513   0.929   2.684   1.764 -1.7851  0.7061 -2.6198
  172SOL     OW  514   0.243   2.671   1.306  0.3296 -0.2501  0.2171
  172SOL    HW1  515   0.179   2.592   1.314 -1.5872 -1.9886  0.2736
  172SOL    HW2  516   0.198   2.748   1.263  0.8049  0.8548  2.8128
  173SOL     OW  517   1.225   0.376   2.961  0.4836 -0.2479  0.5338
  173SOL    HW1  518   1.128   0.354   2.937 -1.8397 -0.7865 -1.2754
  173SOL    HW2  519   1.222   0.461   3.014 -0.3870 -3.1202 -0.8230
  174SOL     OW  520   1.330   0.232   2.441  0.3911 -0.3319  0.0284
  174SOL    HW1  521   1.285   0.265   2.529 -2.3771  0.6812  1.2440
  174SOL    HW2  522   1.321   0.134   2.414 -2.5337 -0.0395 -2.6348
  175SOL     OW  523   1.722   2.633   0.036 -0.0785 -0.0294  0.1409
  175SOL    HW1  524   1.742   2.618   0.136  1.6266  0.0929 -0.3159
  175SOL    HW2  525   1.734   2.544   3.088  1.1889  1.5958 -1.2848
  176SOL     OW  526   1.510   0.264   2.719  0.0988 -0.6084 -0.0026
  176SOL    HW1  527   1.485   0.287   2.815 -0.9886 -0.2035  1.5816
  176SOL    HW2  528   1.443   0.304   2.655  0.4558 -2.5131  2.1318
  177SOL     OW  529   0.874   1.512   0.305 -0.4081  0.2428 -0.0940
  177SOL    HW1  530   0.861   1.582   0.378  1.6737  0.9050  0.2617
  177SOL    HW2  531   0.825   1.542   0.219  0.6198 -2.7444 -1.7486
  178SOL     OW  532   3.041   2.042   2.424  0.4095  0.4920 -0.0129
  178SOL    HW1  533   2.961   2.065   2.483  0.2209  1.2645 -0.3875
  178SOL    HW2  534   0.016   1.989   2.479  3.3225 -1.0157 -0.5319
  179SOL     OW  535   0.529   2.508   2.615  0.2252  0.0138 -0.2654
  179SOL    HW1  536   0.558   2.513   2.712  1.2020 -0.6338  1.3951
  179SOL    HW2  537   0.531   2.601   2.572  0.2576  0.8479  1.6483
  180SOL     OW  538   1.971   1.869   1.255  0.1491 -0.4350 -0.2794
  180SOL    HW1  539   1.989   1.774   1.284 -1.9779 -0.4165 -1.8203
  180SOL    HW2  540   1.869   1.878   1.261 -1.4693 -2.0701  0.4124
  181SOL     OW  541   1.753   0.983   2.192  0.0227 -0.1640  0.1848
  181SOL    HW1  542   1.729   1.038   2.108  1.1593  0.4999 -1.2260
  181SOL    HW2  543   1.755   1.043   2.277  2.9294  0.8199 -1.4048
  182SOL     OW  544   2.621   2.851   2.413  0.0474 -0.9123 -0.0674
  182SOL    HW1  545   2.683   2.879   2.341 -0.0429 -0.0390  3.7564
  182SOL    HW2  546   2.536   2.814   2.379 -1.3409 -1.3024  1.5828
  183SOL     OW  547   1.422   0.830   2.700  0.1121 -0.3557  0.3218
  183SOL    HW1  548   1.432   0.890   2.617 -0.0789 -0.4298 -1.9712
  183SOL    HW2  549   1.496   0.756   2.710  0.7430  0.0196 -1.1507
  184SOL     OW  550   0.854   0.867   1.601  0.4037 -0.2596 -0.2117
  184SOL    HW1  551   0.948   0.910   1.595 -0.2314 -0.7653  0.0590
  184SOL    HW2  552   0.824   0.835   1.509  1.9846 -0.2422 -0.5128
  185SOL     OW  553   2.176   1.004   0.925  0.2789  0.1592  0.1818
  185SOL    HW1  554   2.166   1.082   0.994 -1.0698 -2.5174  1.4727
  185SOL    HW2  555   2.145   1.036   0.828  1.3658  2.5148 -2.7965
  186SOL     OW  556   0.414   1.819   2.883  0.3125 -0.2608 -0.0356
  186SOL    HW1  557   0.508   1.782   2.873  0.4519  1.3173 -0.6483
  186SOL    HW2  558   0.352   1.752   2.926  2.6853 -0.1103  1.0399
  187SOL     OW  559   2.462   1.317   0.267 -0.3238 -0.1596 -0.3951
  187SOL    HW1  560   2.423   1.384   0.332  1.6085  1.0276 -0.0007
  187SOL    HW2  561   2.503   1.360   0.183  0.0002  0.9971  0.0901
  188SOL     OW  562   0.084   1.770   0.483 -0.5684  0.4040 -0.0906
  188SOL    HW1  563   3.088   1.804   0.495  0.0876  3.3020 -1.5880
  188SOL    HW2  564   0.133   1.785   0.567  2.0016  0.2288 -0.9793
  189SOL     OW  565   2.355   0.476   0.459  0.2603  0.9404 -0.0025
  189SOL    HW1  566   2.391   0.537   0.385  0.5138 -1.1720 -1.2088
  189SOL    HW2  567   2.396   0.385   0.452 -0.3461  2.6282 -1.8400
  190SOL     OW  568   1.285   1.342   2.034 -0.2564  0.0570 -0.0777
  190SOL    HW1  569   1.305   1.426   1.974  1.1820  0.4141 -1.6354
  190SOL    HW2  570   1.271   1.262   1.978  2.0624 -0.2007  0.6460
  191SOL     OW  571   2.337   0.181   1.776  0.2758  0.2655 -0.2341
  191SOL    HW1  572   2.291   0.174   1.685 -1.8671  2.0864 -4.1712
  191SOL    HW2  573   2.279   0.166   1.857  1.8504  1.4833 -2.0663
  192SOL     OW  574   1.893   1.130   1.501 -0.0364  0.1228 -0.3722
  192SOL    HW1  575   1.856   1.222   1.471  2.5327 -1.7647  0.0832
  192SOL    HW2  576   1.836   1.063   1.455 -0.7684  0.8491  2.8311
  193SOL     OW  577   0.921   0.634   0.763  0.4340 -0.4802  0.5739
  193SOL    HW1  578   0.901   0.625   0.664 -2.5352 -3.0047 -1.9905
  193SOL    HW2  579   0.995   0.571   0.790 -2.4574 -0.4117  1.5600
  194SOL     OW  580   1.170   2.826   1.018 -0.5885  0.1631 -0.2649
  194SOL    HW1  581   1.201   2.860   0.923  2.2108  1.2180 -0.6043
  194SOL    HW2  582   1.219   2.884   1.091  0.7439  1.4021  0.0023
  195SOL     OW  583   2.245   0.518   0.705  0.1510 -0.0226  0.6037
  195SOL    HW1  584   2.278   0.530   0.607 -1.9526  2.0382 -0.6971
  195SOL    HW2  585   2.245   0.422   0.734 -0.4154  0.8659 -1.3161
  196SOL     OW  586   1.060   1.891   1.452 -0.2769  0.3533 -0.6661
  196SOL    HW1  587   1.097   1.984   1.438  2.0140  1.9030 -0.4352
  196SOL    HW2  588   1.115   1.848   1.526  0.2266 -0.7644  1.2953
  197SOL     OW  589   0.348   2.641   0.302 -0.7436 -0.2106  0.1177
  197SOL    HW1  590   0.439   2.668   0.343 -1.0605  1.7487  0.9751
  197SOL    HW2  591   0.357   2.645   0.198  1.4485  1.8051  0.5411
  198SOL     OW  592   0.927   0.879   0.853 -0.5814 -0.0060  0.0557
  198SOL    HW1  593   0.825   0.890   0.860  0.0990  0.6960 -2.8072
  198SOL    HW2  594   0.944   0.783   0.822  1.3341 -1.7522 -1.0526
  199SOL     OW  595   0.186   0.068   1.824 -0.1410  0.5839  0.0150
  199SOL    HW1  596   0.204   0.167   1.811  0.2950  1.4931  2.1684
  199SOL    HW2  597   0.253   0.014   1.768 -0.3204 -0.5828 -0.0447
  200SOL     OW  598   2.346   1.931   2.497 -0.1300  0.3151  0.6607
  200SOL    HW1  599   2.285   2.008   2.484  0.6402  2.5999 -0.9882
  200SOL    HW2  600   2.365   1.891   2.404  0.6926 -1.4820 -1.1709
  201SOL     OW  601   2.666   2.566   1.276 -0.3022 -0.0491  0.2322
  201SOL    HW1  602   2.585   2.629   1.280 -2.5563 -0.0332 -0.9516
  201SOL    HW2  603   2.756   2.614   1.283  2.0838 -0.2075 -0.5630
  202SOL     OW  604   2.564   0.255   0.420  0.4721  0.2600 -0.1668
  202SOL    HW1  605   2.598   0.347   0.388  3.4838  1.8395  0.2043
  202SOL    HW2  606   2.562   0.251   0.524  0.3727 -1.0921  0.4701
  203SOL     OW  607   1.272   1.682   2.224  0.2748  0.7591 -0.0407
  203SOL    HW1  608   1.352   1.641   2.272  1.5178  0.9530  1.3656
  203SOL    HW2  609   1.265   1.781   2.244 -2.3636  0.0909  0.1437
  204SOL     OW  610   0.941   1.499   1.753  0.6280  0.5343 -0.0191
  204SOL    HW1  611   0.877   1.531   1.679 -2.7079 -1.0706 -3.0897
  204SOL    HW2  612   0.956   1.400   1.735  1.3206  0.8549 -1.9598
  205SOL     OW  613   1.132   2.100   1.782 -0.2561  1.2712 -0.6418
  205SOL    HW1  614   1.185   2.063   1.702  0.4987  1.3981 -2.8689
  205SOL    HW2  615   1.193   2.106   1.864  1.9605 -2.7253 -1.6077
  206SOL     OW  616   0.033   0.372   2.916 -0.2029  0.4272  0.2225
  206SOL    HW1  617   0.101   0.323   2.858 -1.6268 -0.6735 -0.2849
  206SOL    HW2  618   3.067   0.303   2.958 -0.6499  1.2033  1.5235
  207SOL     OW  619   1.555   2.922   2.122 -0.1329 -0.7774  0.6587
  207SOL    HW1  620   1.541   2.943   2.020  0.2081 -0.9281 -3.3955
  207SOL    HW2  621   1.624   2.847   2.127 -0.0155  0.0352 -0.3253
  208SOL     OW  622   0.655   2.238   1.765 -0.3233 -0.2195  0.5728
  208SOL    HW1  623   0.740   2.212   1.816 -0.4534  1.1451  0.3488
  208SOL    HW2  624   0.647   2.342   1.770  1.0481  2.1729  0.4707
  209SOL     OW  625   1.961   1.239   2.754 -0.4928 -0.2157 -0.2753
  209SOL    HW1  626   1.908   1.158   2.735  3.7119  0.5658  3.0298
  209SOL    HW2  627   1.963   1.253   2.858 -0.5334  0.4836  2.6687
  210SOL     OW  628   2.914   0.431   1.253 -0.2604  0.1659 -0.0188
  210SOL    HW1  629   2.881   0.418   1.160  2.8650 -2.7453 -0.5923
  210SOL    HW2  630   2.884   0.524   1.283  0.1635 -0.8458  0.6291
  211SOL     OW  631   0.859   0.941   1.123 -1.2267 -0.2552  0.0981
  211SOL    HW1  632   0.895   0.894   1.042 -1.7520 -0.8084  0.2810
  211SOL    HW2  633   0.775   0.991   1.096  0.1465  0.1521 -0.5144
  212SOL     OW  634   1.114   1.835   0.656 -0.3810 -0.3133  0.6865
  212SOL    HW1  635   1.045   1.791   0.716  0.5151  2.7482  0.9544
  212SOL    HW2  636   1.201   1.849   0.708  0.2570 -0.2886 -0.2017
  213SOL     OW  637   1.489   0.236   1.727  0.5029  0.1331 -0.4430
  213SOL    HW1  638   1.413   0.285   1.772  0.8799 -0.3354  1.9340
  213SOL    HW2  639   1.574   0.230   1.786 -0.0734  0.2779 -0.1148
  214SOL     OW  640   1.653   1.907   2.527 -0.0341  0.1927  0.7551
  214SOL    HW1  641   1.558   1.900   2.490  1.3399  0.1102  2.5119
  214SOL    HW2  642   1.644   1.929   2.627 -0.4946  2.0912  0.4519
  215SOL     OW  643   0.171   1.763   1.147 -0.2082 -0.3640 -0.1509
  215SOL    HW1  644   0.072   1.775   1.114 -3.9176  0.1200 -0.1696
  215SOL    HW2  645   0.207   1.665   1.153  2.1684 -3.7539  1.9126
  216SOL     OW  646   0.743   0.068   2.163 -0.3967  0.3916 -0.0542
  216SOL    HW1  647   0.804   0.095   2.089  2.7883  0.4455  3.2802
  216SOL    HW2  648   0.766   0.114   2.250  0.5153 -1.5918 -1.4508
  217SOL     OW  649   2.368   0.314   3.088 -0.0338  0.1270  0.1032
  217SOL    HW1  650   2.375   0.320   2.984  0.4883  0.7928 -1.2359
  217SOL    HW2  651   2.453   0.278   0.038 -0.5383 -0.7234  1.8742
  218SOL     OW  652   1.933   1.861   2.159 -0.3659 -0.5991  0.4273
  218SOL    HW1  653   1.843   1.840   2.199  0.7048 -2.5899  0.2015
  218SOL    HW2  654   1.991   1.932   2.208  0.9325  0.9649  1.0818
  219SOL     OW  655   1.588   1.256   0.300 -0.2366  0.1483  0.0997
  219SOL    HW1  656   1.691   1.252   0.295  2.3780 -1.3481 -0.2774
  219SOL    HW2  657   1.558   1.213   0.214  1.9254  0.2817 -0.0123
  220SOL     OW  658   1.474   1.921   1.129  0.2726  0.3394 -0.0638
  220SOL    HW1  659   1.402   1.866   1.177  2.6694  1.2614  2.0803
  220SOL    HW2  660   1.429   1.996   1.080  0.7708 -0.9207  1.4196
  221SOL     OW  661   0.064   0.559   0.017 -0.6879 -0.7079  0.0165
  221SOL    HW1  662   0.046   0.655   3.086  1.2133 -2.4746  0.4873
  221SOL    HW2  663   0.055   0.492   3.037  0.3751  0.8110  2.3346
  222SOL     OW  664   1.312   2.782   1.714 -0.3619 -0.0624 -0.4128
  222SOL    HW1  665   1.276   2.694   1.675 -2.3706 -0.1374 -0.0329
  222SOL    HW2  666   1.318   2.855   1.641 -0.2511  4.1354  0.5223
  223SOL     OW  667   1.132   0.050   2.734 -0.2022 -0.6706 -0.2063
  223SOL    HW1  668   1.123   0.115   2.811 -2.9232 -0.4324  1.4484
  223SOL    HW2  669   1.226   0.042   2.701 -1.7693 -1.8095  0.1059
  224SOL     OW  670   2.616   1.049   1.081 -0.4592  0.3468 -0.3076
  224SOL    HW1  671   2.697   0.985   1.061  0.8693  2.0395  0.8238
  224SOL    HW2  672   2.545   0.987   1.118 -0.9707 -2.1047  1.0253
  225SOL     OW  673   0.853   1.234   1.375 -0.3819  0.6660  0.6048
  225SOL    HW1  674   0.842   1.315   1.315 -1.1402 -2.2823  3.3141
  225SOL    HW2  675   0.935   1.182   1.343 -2.3180 -0.7537 -0.0620
  226SOL     OW  676   1.616   2.638   2.775 -0.1040  1.1972  0.3127
  226SOL    HW1  677   1.562   2.680   2.847  1.2820  0.7250  0.5799
  226SOL    HW2  678   1.604   2.683   2.685  1.4470  1.9157  1.1977
  227SOL     OW  679   0.590   1.851   0.997 -0.3934 -0.9573  0.6857
  227SOL    HW1  680   0.553   1.764   1.041 -1.4750 -1.4108 -2.6027
  227SOL    HW2  681   0.525   1.929   1.002 -0.6950 -0.2101  2.5259
  228SOL     OW  682   0.447   2.625   1.090  0.5313 -0.3915  0.1454
  228SOL    HW1  683   0.502   2.713   1.081  1.3665  0.8759 -1.0072
  228SOL    HW2  684   0.376   2.623   1.158 -0.2312  0.3466  0.7737
  229SOL     OW  685   2.288   1.235   3.039  0.6407 -0.2146 -0.2711
  229SOL    HW1  686   2.319   1.304   2.970  0.9231 -0.6302  0.0589
  229SOL    HW2  687   2.273   1.143   3.002  0.3254 -1.7877  0.3852
  230SOL     OW  688   0.986   1.100   2.016 -0.2840 -1.1663  0.3881
  230SOL    HW1  689   0.917   1.080   1.943  0.0589  0.6751 -0.8605
  230SOL    HW2  690   1.036   1.018   2.040  1.6690  1.3989  0.9537
  231SOL     OW  691   1.537   1.993   1.662  0.2998 -0.4872 -0.5291
  231SOL    HW1  692   1.620   2.057   1.656  1.9496 -1.2353 -2.0788
  231SOL    HW2  693   1.519   1.954   1.753  3.6914  0.9111 -1.5347
  232SOL     OW  694   1.903   2.324   0.800  0.1200  0.5934  0.5512
  232SOL    HW1  695   1.871   2.415   0.771 -1.9279  0.8805  0.6177
  232SOL    HW2  696   1.843   2.255   0.760 -1.0154 -0.1112  0.1656
  233SOL     OW  697   1.447   2.316   2.874 -0.1599 -0.1345 -0.1248
  233SOL    HW1  698   1.456   2.256   2.798 -2.4289  1.7292  3.4623
  233SOL    HW2  699   1.366   2.288   2.929 -1.2386 -0.1801  1.7444
  234SOL     OW  700   0.788   0.003   2.648 -0.0850 -0.4330  0.0186
  234SOL    HW1  701   0.821   3.005   2.622  0.3841  0.0021  0.3446
  234SOL    HW2  702   0.696   0.029   2.614 -1.0081  2.2261  0.4542
  235SOL     OW  703   2.892   2.437   0.182  0.1647 -0.1041 -0.0085
  235SOL    HW1  704   2.862   2.403   0.274 -0.8003 -2.2332 -0.0484
  235SOL    HW2  705   2.944   2.366   0.133 -1.7841  0.6831 -1.5516
  236SOL     OW  706   2.159   2.485   2.271  0.2922 -0.7431  0.1463
  236SOL    HW1  707   2.253   2.448   2.255 -1.2114 -0.1649 -1.4356
  236SOL    HW2  708   2.154   2.561   2.332  0.1158  0.2504  0.6289
  237SOL     OW  709   1.799   1.249   1.172  0.4579  0.5103 -0.1225
  237SOL    HW1  710   1.859   1.175   1.132  2.4161  0.1347 -3.3665
  237SOL    HW2  711   1.708   1.246   1.125  1.6974 -1.6761 -1.0131
  238SOL     OW  712   2.016   0.287   2.208 -0.7447  0.3754 -0.0930
  238SOL    HW1  713   1.991   0.387   2.209  0.9509  2.4891  0.6295
  238SOL    HW2  714   1.959   0.230   2.269  0.9738 -0.4256  1.6608
  239SOL     OW  715   0.518   1.532   1.617  0.2060 -0.8550 -0.1791
  239SOL    HW1  716   0.516   1.628   1.647 -0.8224 -0.1656 -3.2364
  239SOL    HW2  717   0.480   1.472   1.691 -0.3403  2.2512  1.1795
  240SOL     OW  718   3.043   2.130   0.568 -0.3644 -0.4557  0.5674
  240SOL    HW1  719   2.986   2.211   0.592  0.3747  1.0888 -1.0098
  240SOL    HW2  720   0.035   2.150   0.518  2.5336  1.9734  0.1888
  241SOL     OW  721   1.772   2.102   0.705 -0.0751  0.0869 -0.2114
  241SOL    HW1  722   1.836   2.051   0.769  0.0987  0.5514 -0.4106
  241SOL    HW2  723   1.790   2.073   0.607  2.2089 -0.2524  0.3361
  242SOL     OW  724   1.339   1.412   3.067  0.1594 -0.1685  0.1878
  242SOL    HW1  725   1.361   1.312   3.068  0.0158  0.1352  0.1005
  242SOL    HW2  726   1.393   1.457   2.991  2.3173  3.4966 -0.2220
  243SOL     OW  727   0.694   2.842   2.130 -0.5587  0.8965  0.5887
  243SOL    HW1  728   0.742   2.928   2.151 -0.6955 -3.7146 -0.4030
  243SOL    HW2  729   0.615   2.858   2.070  1.2904 -2.4361  0.9868
  244SOL     OW  730   1.651   2.957   2.691 -0.4910  0.6217 -0.0385
  244SOL    HW1  731   1.565   2.998   2.716 -0.1640 -0.7076  5.4074
  244SOL    HW2  732   1.634   2.878   2.628  1.4836  0.4138 -1.1277
  245SOL     OW  733   1.421   3.061   2.962  0.0312 -0.2381 -0.0502
  245SOL    HW1  734   1.497   3.009   3.001  1.2682  2.4452  2.0090
  245SOL    HW2  735   1.359   0.002   3.036 -3.1239 -0.6372  2.2178
  246SOL     OW  736   0.977   0.361   2.844 -0.0352  0.2063 -0.1946
  246SOL    HW1  737   0.953   0.413   2.760 -0.9702 -0.6301  1.0718
  246SOL    HW2  738   0.934   0.268   2.848 -0.5319  0.2346  1.7606
  247SOL     OW  739   0.181   0.721   2.068 -0.7130 -0.0272  0.2117
  247SOL    HW1  740   0.232   0.730   2.157 -1.8436  0.6784  0.6108
  247SOL    HW2  741   0.163   0.624   2.048  2.2484 -0.1081 -0.3384
  248SOL     OW  742   0.859   0.850   2.213  0.2848 -0.0740 -0.3575
  248SOL    HW1  743   0.824   0.765   2.260  0.1133 -1.6956  0.9900
  248SOL    HW2  744   0.963   0.855   2.211 -1.9223  2.2032 -0.4676
  249SOL     OW  745   2.086   0.421   0.369  0.4809  0.5005  0.1229
  249SOL    HW1  746   2.124   0.358   0.295  2.0847 -0.8456 -2.9342
  249SOL    HW2  747   2.161   0.441   0.431 -2.8545 -0.9887 -1.1500
  250SOL     OW  748   0.653   0.301   0.814  0.5686 -0.1114  0.2123
  250SOL    HW1  749   0.682   0.298   0.717 -1.1285  2.1050 -0.6322
  250SOL    HW2  750   0.563   0.348   0.815 -0.8627  1.5022 -0.8729
  251SOL     OW  751   0.896   0.371   2.571 -0.7311 -0.5589 -0.4757
  251SOL    HW1  752   0.961   0.441   2.532  0.0443  1.9685  3.9687
  251SOL    HW2  753   0.902   0.292   2.513  0.4343  1.4141 -2.6467
  252SOL     OW  754   1.631   1.901   2.026  0.0607  0.5447 -0.1322
  252SOL    HW1  755   1.714   1.945   1.984  2.1261 -0.7974 -1.8501
  252SOL    HW2  756   1.645   1.836   2.103 -0.3168 -0.0686 -0.1158
  253SOL     OW  757   1.907   2.764   1.900 -0.5572 -0.6699 -0.1129
  253SOL    HW1  758   1.980   2.743   1.968  0.9939 -2.1925 -0.0886
  253SOL    HW2  759   1.945   2.758   1.808  1.9281 -3.5686 -1.8756
  254SOL     OW  760   0.891   2.180   1.901  0.3383 -0.1939 -0.0458
  254SOL    HW1  761   0.984   2.171   1.866  1.0818  0.5314 -0.3151
  254SOL    HW2  762   0.889   2.225   1.990 -0.6608 -0.8842 -0.0504
  255SOL     OW  763   1.223   0.731   0.615  0.9688 -0.4153  0.5453
  255SOL    HW1  764   1.168   0.808   0.648  0.2579  1.1643 -2.2067
  255SOL    HW2  765   1.188   0.690   0.524  1.3325  0.6302 -0.8110
  256SOL     OW  766   1.862   1.955   1.868 -0.3935  0.8421  0.4463
  256SOL    HW1  767   1.870   1.859   1.834 -3.0174  1.6679 -1.6909
  256SOL    HW2  768   1.823   2.020   1.801  1.5301 -0.4118 -0.8087
  257SOL     OW  769   0.527   2.211   2.552 -0.6405  0.1394 -0.4306
  257SOL    HW1  770   0.507   2.309   2.570  4.1647  0.4794 -1.8197
  257SOL    HW2  771   0.494   2.149   2.627  0.2891  1.3153 -2.7936
  258SOL     OW  772   0.739   0.399   2.252  0.1274 -0.0450  0.0500
  258SOL    HW1  773   0.831   0.362   2.231 -0.3068  0.4950  2.5489
  258SOL    HW2  774   0.674   0.330   2.288  0.3061  0.5759  0.7513
  259SOL     OW  775   0.785   0.633   2.363  0.2154  1.0790  0.5163
  259SOL    HW1  776   0.870   0.632   2.422  1.0556 -0.5990  1.4215
  259SOL    HW2  777   0.768   0.537   2.329 -0.6629 -0.8988 -2.0836
  260SOL     OW  778   1.398   0.548   0.722  0.3507 -0.3722  0.2820
  260SOL    HW1  779   1.335   0.610   0.670 -0.4867 -0.8773 -0.6109
  260SOL    HW2  780   1.365   0.545   0.820 -2.2389  1.1513 -0.4142
  261SOL     OW  781   0.447   2.868   2.911 -0.5376  0.7400  0.0871
  261SOL    HW1  782   0.531   2.931   2.925  2.8283  4.1304  0.2590
  261SOL    HW2  783   0.435   2.813   2.998 -0.3733  0.1748  2.3508
  262SOL     OW  784   2.157   3.066   2.849  0.1670  0.3073 -0.3021
  262SOL    HW1  785   2.244   0.011   2.831  0.1055 -0.4415  1.2499
  262SOL    HW2  786   2.084   0.037   2.863  2.9742 -0.0345  0.8452
  263SOL     OW  787   0.197   2.278   3.011  0.1605  0.1622  0.6638
  263SOL    HW1  788   0.100   2.286   3.042 -0.1411  0.5007  1.1638
  263SOL    HW2  789   0.233   2.178   3.004  2.1376  0.0986  1.8445
  264SOL     OW  790   0.642   1.088   1.093 -0.8939 -0.2123  0.0669
  264SOL    HW1  791   0.542   1.103   1.089  0.2304 -1.1945  1.0372
  264SOL    HW2  792   0.692   1.166   1.050 -2.1695  1.1781  0.2627
  265SOL     OW  793   0.470   1.202   0.317 -0.5113  0.1815  0.8244
  265SOL    HW1  794   0.392   1.239   0.258 -1.2507  1.8298 -0.0958
  265SOL    HW2  795   0.533   1.143   0.263  0.1984 -1.5852 -0.0294
  266SOL     OW  796   1.695   1.558   0.594  0.3449 -0.0492  0.7899
  266SOL    HW1  797   1.673   1.611   0.683  1.2366  1.6205  0.6525
  266SOL    HW2  798   1.749   1.617   0.530  0.1514  0.5893  0.1217
  267SOL     OW  799   2.591   0.557   0.056 -0.5144  0.9388  0.2164
  267SOL    HW1  800   2.648   0.489   0.006 -0.9322 -1.1854 -0.6851
  267SOL    HW2  801   2.615   0.651   0.018  1.1665  0.9781  0.9504
  268SOL     OW  802   2.997   2.998   2.891 -0.7089 -0.0297  0.4327
  268SOL    HW1  803   2.973   2.896   2.882  1.3597 -0.8426 -0.4070
  268SOL    HW2  804   2.968   3.044   2.806  1.0552 -1.2260  1.4022
  269SOL     OW  805   1.842   0.194   2.371  0.0018 -0.0335  0.8558
  269SOL    HW1  806   1.883   0.233   2.458 -1.0137 -0.3671 -0.4118
  269SOL    HW2  807   1.746   0.229   2.350 -2.3438  1.4178 -0.5780
  270SOL     OW  808   0.818   0.968   2.574 -0.0154 -0.3245  0.3230
  270SOL    HW1  809   0.844   1.013   2.483 -2.2310  2.0163 -0.4631
  270SOL    HW2  810   0.742   1.021   2.619 -2.0835  1.3346  0.8096
  271SOL     OW  811   2.398   0.836   0.313  0.0039  0.4260  0.5429
  271SOL    HW1  812   2.400   0.918   0.254  0.6278  1.5964 -3.8816
  271SOL    HW2  813   2.384   0.749   0.262  0.9341  2.7976  1.2139
  272SOL     OW  814   2.917   1.674   2.576 -0.1398 -0.4919  0.0162
  272SOL    HW1  815   2.851   1.652   2.505  0.8204  4.0033  2.0923
  272SOL    HW2  816   2.904   1.768   2.614 -0.3375  0.7762 -1.3893
  273SOL     OW  817   2.248   0.566   3.051 -0.2720  0.2772 -0.2100
  273SOL    HW1  818   2.304   0.483   3.072 -0.5503 -0.5097  1.4493
  273SOL    HW2  819   2.237   0.580   2.947 -0.2342  0.2985 -1.7183
  274SOL     OW  820   0.115   2.499   1.023 -0.3591  0.4157 -0.2415
  274SOL    HW1  821   0.141   2.467   0.930 -0.2951  3.4750 -2.5369
  274SOL    HW2  822   0.087   2.594   1.013 -0.6599  0.7847 -1.0406
  275SOL     OW  823   2.135   1.542   0.530  0.8521 -0.1273  0.6222
  275SOL    HW1  824   2.231   1.511   0.522 -1.1626 -0.4962 -0.2878
  275SOL    HW2  825   2.119   1.583   0.623  0.7084 -2.3976  1.8519
  276SOL     OW  826   0.170   1.254   2.670  0.2915  0.1037  0.4010
  276SOL    HW1  827   0.262   1.207   2.655  2.0304 -3.0402 -2.1990
  276SOL    HW2  828   0.100   1.208   2.610 -0.1428  0.9477  1.8865
  277SOL     OW  829   1.664   2.613   1.514 -0.0441 -0.3333 -0.6316
  277SOL    HW1  830   1.660   2.622   1.618 -0.4726 -0.8578  0.1903
  277SOL    HW2  831   1.749   2.661   1.480  0.2477 -0.3349 -0.2720
  278SOL     OW  832   1.463   0.558   1.889  0.2201 -0.6123 -0.3810
  278SOL    HW1  833   1.387   0.494   1.865  1.9704  0.6907 -0.8639
  278SOL    HW2  834   1.472   0.630   1.824  0.8158 -0.8018 -4.5477
  279SOL     OW  835   1.843   1.730   0.457 -0.1385 -0.1582  0.3314
  279SOL    HW1  836   1.940   1.723   0.476 -1.7014  2.8044  0.4491
  279SOL    HW2  837   1.799   1.808   0.515 -0.7179  1.0641  0.1588
  280SOL     OW  838   0.467   1.839   0.743  0.5642  0.4413  0.1954
  280SOL    HW1  839   0.489   1.796   0.653 -3.4659  0.4891  0.7932
  280SOL    HW2  840   0.536   1.800   0.810 -2.1513 -0.2749 -1.4149
  281SOL     OW  841   2.902   0.055   2.644 -0.3563  0.5550  0.2859
  281SOL    HW1  842   2.889   0.152   2.636  1.7941 -2.3007 -0.3745
  281SOL    HW2  843   2.986   0.032   2.585 -0.8456 -0.8566  0.3192
  282SOL     OW  844   0.426   0.879   0.778 -0.2265  0.0721 -0.0186
  282SOL    HW1  845   0.389   0.808   0.714 -0.8108 -1.8105  2.8596
  282SOL    HW2  846   0.396   0.972   0.755  0.0677  1.3526 -0.7354
  283SOL     OW  847   1.899   1.998   0.196  0.1110  0.4649 -0.0887
  283SOL    HW1  848   1.998   2.005   0.178 -1.4035 -0.7313 -0.9823
  283SOL    HW2  849   1.845   2.078   0.173 -1.6297 -0.0899 -0.9644
  284SOL     OW  850   1.518   1.492   0.388 -0.6635  0.1221 -0.4052
  284SOL    HW1  851   1.577   1.509   0.472  1.8211 -0.0987  1.4444
  284SOL    HW2  852   1.548   1.407   0.340  0.7631  1.9585 -0.1416
  285SOL     OW  853   2.434   0.087   2.768  0.3287  0.1182 -0.2873
  285SOL    HW1  854   2.459   0.184   2.792  0.8690  2.2120 -0.7378
  285SOL    HW2  855   2.498   0.042   2.704 -0.1488  1.1058  1.0456
  286SOL     OW  856   1.311   2.994   1.531  0.1043  0.0206 -0.6095
  286SOL    HW1  857   1.318   2.970   1.433 -0.0042 -0.6917 -1.2539
  286SOL    HW2  858   1.237   3.059   1.549 -1.4461 -1.5861 -1.7165
  287SOL     OW  859   0.791   1.282   0.981 -0.0857 -0.5482  0.0563
  287SOL    HW1  860   0.846   1.230   0.914  3.2275 -1.7539 -0.0143
  287SOL    HW2  861   0.758   1.369   0.938 -3.0412 -2.9165 -0.6196
  288SOL     OW  862   1.394   0.007   2.702  0.2913  0.2726 -0.0996
  288SOL    HW1  863   1.463   0.081   2.697  1.9855  1.6727  1.0277
  288SOL    HW2  864   1.389   3.074   2.803  0.7986  0.5854  1.1922
  289SOL     OW  865   0.160   1.514   2.745  0.0847  0.2376  0.0960
  289SOL    HW1  866   0.150   1.530   2.641  0.4748 -0.4878  0.8998
  289SOL    HW2  867   0.170   1.416   2.760  2.2225 -0.8627 -0.5789
  290SOL     OW  868   1.601   2.229   0.874  0.0778 -0.3418  0.0545
  290SOL    HW1  869   1.551   2.296   0.819  1.2470 -1.6247 -1.4688
  290SOL    HW2  870   1.667   2.181   0.813  0.8774 -2.8193 -1.3650
  291SOL     OW  871   2.319   1.989   2.750  0.2088 -0.3655  0.3478
  291SOL    HW1  872   2.217   1.973   2.759 -0.7000  1.8914  1.2373
  291SOL    HW2  873   2.358   1.932   2.671  4.9975 -0.3019  0.3485
  292SOL     OW  874   1.127   0.831   2.121 -0.3578  0.7168 -0.3124
  292SOL    HW1  875   1.215   0.857   2.169  1.4737  2.9841  0.4635
  292SOL    HW2  876   1.137   0.826   2.018  0.1465 -0.0646  1.5877
  293SOL     OW  877   2.049   2.799   0.982  0.1553 -0.4730  0.4799
  293SOL    HW1  878   2.060   2.894   0.949  1.4440 -2.6582 -0.4980
  293SOL    HW2  879   2.129   2.741   0.940 -1.7219 -0.2986 -0.7959
  294SOL     OW  880   0.296   0.472   2.521  1.2278  0.1631  0.0115
  294SOL    HW1  881   0.357   0.489   2.602  1.3493  1.4644  1.4676
  294SOL    HW2  882   0.343   0.464   2.430 -0.9255 -1.6660 -1.5255
  295SOL     OW  883   1.487   1.930   0.478  1.1186  0.0103 -0.6963
  295SOL    HW1  884   1.514   1.892   0.569  0.8893 -0.4625  0.8721
  295SOL    HW2  885   1.436   1.870   0.418  1.3900 -0.4471  0.5260
  296SOL     OW  886   2.457   1.700   3.084 -0.1798  0.1581 -0.1139
  296SOL    HW1  887   2.492   1.757   3.008  0.5590 -0.0769 -0.3275
  296SOL    HW2  888   2.383   1.642   3.048 -0.0091  1.8493  0.7418
  297SOL     OW  889   2.154   0.226   0.167 -0.0043  0.2276 -0.0456
  297SOL    HW1  890   2.080   0.166   0.127 -1.1374 -0.8543 -3.0990
  297SOL    HW2  891   2.224   0.243   0.097 -0.8731 -2.6209  2.7872
  298SOL     OW  892   1.399   2.472   2.349 -0.2767  0.3874  0.0024
  298SOL    HW1  893   1.327   2.417   2.390  2.9311  0.1728 -0.1013
  298SOL    HW2  894   1.492   2.429   2.357 -1.2034 -3.8239  1.2197
  299SOL     OW  895   1.249   3.041   2.334  0.7757 -0.0067 -0.1384
  299SOL    HW1  896   1.348   3.025   2.328 -0.3752  1.0405  1.6924
  299SOL    HW2  897   1.198   2.953   2.345 -0.4210  2.0768  1.2253
  300SOL     OW  898   1.806   0.074   2.999  0.0342  0.3434  0.0691
  300SOL    HW1  899   1.724   0.023   3.032 -0.5715  2.5712 -1.7371
  300SOL    HW2  900   1.799   0.090   2.897 -0.7822  0.7427 -2.6241
  301SOL     OW  901   1.443   1.424   1.332 -0.3769 -0.2657 -0.4784
  301SOL    HW1  902   1.387   1.337   1.329 -1.3111  0.3716  1.2249
  301SOL    HW2  903   1.448   1.465   1.238 -0.4334 -0.5619 -1.9036
  302SOL     OW  904   2.573   2.245   0.423 -0.2041 -0.3674 -0.0542
  302SOL    HW1  905   2.655   2.309   0.416  2.0279 -0.3223 -0.7970
  302SOL    HW2  906   2.502   2.290   0.367 -0.6021  0.3479 -1.0061
  303SOL     OW  907   2.851   2.484   2.298 -0.4503 -0.1152  0.2726
  303SOL    HW1  908   2.922   2.561   2.303 -0.1306  0.2681 -1.3267
  303SOL    HW2  909   2.844   2.443   2.205 -0.6110 -0.4990 -1.5645
  304SOL     OW  910   2.972   0.464   1.876 -0.6855 -0.1889 -0.2711
  304SOL    HW1  911   2.997   0.504   1.787 -0.0518 -2.0107  3.5008
  304SOL    HW2  912   2.909   0.524   1.930 -0.2403  0.4076 -0.4890
  305SOL     OW  913   0.752   1.911   1.822  0.2291 -0.2764  0.3782
  305SOL    HW1  914   0.778   1.813   1.840  1.1948 -1.0492 -3.1756
  305SOL    HW2  915   0.814   1.978   1.861  0.6907 -3.8420  0.3764
  306SOL     OW  916   2.743   0.961   1.738  0.2079  0.8365 -0.1162
  306SOL    HW1  917   2.841   0.973   1.706 -0.3272 -0.7695  1.9900
  306SOL    HW2  918   2.731   0.975   1.840 -0.1887  1.6244 -1.3636
  307SOL     OW  919   1.646   1.275   1.784 -0.4920 -0.3638  0.8118
  307SOL    HW1  920   1.588   1.361   1.768 -1.1567  1.5951  0.8598
  307SOL    HW2  921   1.630   1.214   1.702 -3.4558 -0.9628 -0.4391
  308SOL     OW  922   2.638   1.379   0.773 -0.1491  0.4038  0.2724
  308SOL    HW1  923   2.599   1.288   0.783 -1.7308  1.3132  0.5553
  308SOL    HW2  924   2.567   1.434   0.725 -1.0973  2.0799  0.6346
  309SOL     OW  925   2.311   1.640   1.236 -0.0004  0.0993  0.2119
  309SOL    HW1  926   2.336   1.707   1.307  0.8295  0.0812  0.1351
  309SOL    HW2  927   2.355   1.550   1.256  0.6198  0.9977 -1.5303
  310SOL     OW  928   2.806   1.384   2.656  0.0880 -0.7411 -0.2676
  310SOL    HW1  929   2.766   1.330   2.580 -2.0304  1.4104  0.0994
  310SOL    HW2  930   2.837   1.475   2.626  2.2295  1.5564 -2.2823
  311SOL     OW  931   3.081   1.969   2.968  0.5663 -0.0744 -0.2630
  311SOL    HW1  932   2.994   1.936   3.012  1.3671 -1.1193  0.1944
  311SOL    HW2  933   3.096   1.908   2.889  0.2820  0.3561 -0.3749
  312SOL     OW  934   2.269   1.628   0.956  0.1963  0.3033 -0.4457
  312SOL    HW1  935   2.290   1.524   0.948 -0.4642  0.1264 -0.5737
  312SOL    HW2  936   2.295   1.656   1.053 -1.2461 -1.4008  0.2622
  313SOL     OW  937   2.519   2.772   1.182 -0.7219 -0.0499 -0.4717
  313SOL    HW1  938   2.510   2.779   1.082  2.7735  0.3352  0.9135
  313SOL    HW2  939   2.440   2.816   1.231 -0.3074  1.1686 -1.3974
  314SOL     OW  940   1.112   1.780   0.374  0.0712  0.5124 -0.2489
  314SOL    HW1  941   1.208   1.744   0.351  1.7130 -1.2296 -0.7453
  314SOL    HW2  942   1.111   1.806   0.473 -0.5959  1.8449  1.2709
  315SOL     OW  943   0.894   2.673   2.381  0.1064 -0.1974 -0.0055
  315SOL    HW1  944   0.815   2.663   2.321 -0.1778 -0.1806  2.4047
  315SOL    HW2  945   0.928   2.585   2.416 -2.0261  0.3231  2.0126
  316SOL     OW  946   3.033   1.038   0.490  0.0264 -0.0572 -0.4895
  316SOL    HW1  947   3.055   1.002   0.398  2.9432  1.5937 -1.6408
  316SOL    HW2  948   2.947   1.003   0.529  0.1729  0.4286 -0.4720
  317SOL     OW  949   0.976   0.288   0.458  0.0234  0.0447  0.2203
  317SOL    HW1  950   0.887   0.294   0.510 -2.1522 -1.1827  0.7025
  317SOL    HW2  951   0.999   0.200   0.412 -0.0610 -0.8101  0.8992
  318SOL     OW  952   2.765   2.421   0.426  0.1626 -1.2217 -0.0876
  318SOL    HW1  953   2.824   2.429   0.511  2.2106 -1.6881  0.5440
  318SOL    HW2  954   2.703   2.502   0.408 -0.9664 -0.4246  0.3994
  319SOL     OW  955   0.576   1.295   2.542  0.1852 -0.1372 -0.2001
  319SOL    HW1  956   0.530   1.369   2.598 -1.1410 -0.4900 -1.3902
  319SOL    HW2  957   0.670   1.283   2.570 -2.4687  0.5859 -2.7210
  320SOL     OW  958   0.637   2.513   1.815 -0.2735  0.2097 -0.0599
  320SOL    HW1  959   0.729   2.561   1.788  3.4851  0.1175  0.7100
  320SOL    HW2  960   0.556   2.571   1.800  0.0635 -1.2939 -2.6122
  321SOL     OW  961   1.326   2.361   0.252  0.0507 -0.2360 -0.6691
  321SOL    HW1  962   1.289   2.359   0.348 -3.2909  1.7109  2.3547
  321SOL    HW2  963   1.383   2.447   0.233  2.0154  1.1320 -3.3964
  322SOL     OW  964   2.764   0.987   2.010  0.1345 -0.5231 -0.1004
  322SOL    HW1  965   2.743   1.088   1.993  0.9602 -0.1038 -0.1464
  322SOL    HW2  966   2.827   0.979   2.088 -3.6617 -0.1260 -3.1001
  323SOL     OW  967   2.376   0.907   0.575 -0.2931 -0.2632  0.1004
  323SOL    HW1  968   2.372   0.875   0.479 -0.7122  1.1879  3.1650
  323SOL    HW2  969   2.313   0.981   0.593  1.9411  2.1560  1.0273
  324SOL     OW  970   0.399   2.677   0.021  0.1735 -0.3630 -0.7462
  324SOL    HW1  971   0.308   2.679   3.070 -0.2469  0.7211 -1.2070
  324SOL    HW2  972   0.458   2.591   3.088 -0.3018 -0.3929 -0.4176
  325SOL     OW  973   1.544   0.559   2.344 -0.1810  0.0665  0.4817
  325SOL    HW1  974   1.565   0.614   2.263 -3.1442 -0.5854  0.5945
  325SOL    HW2  975   1.574   0.462   2.335 -1.2852 -0.7969  1.2175
  326SOL     OW  976   2.283   2.611   1.542 -0.0531  0.0697 -0.0963
  326SOL    HW1  977   2.357   2.543   1.560  0.9127 -0.8735 -0.9474
  326SOL    HW2  978   2.290   2.670   1.456  1.9056 -0.5482  0.8943
  327SOL     OW  979   1.958   0.602   2.803 -0.5562 -0.2004  0.3720
  327SOL    HW1  980   1.998   0.619   2.898 -1.6113  0.8267  2.0208
  327SOL    HW2  981   1.886   0.528   2.799 -1.5023  1.1889  0.8856
  328SOL     OW  982   2.869   0.970   2.284  0.2943  0.7669  0.8609
  328SOL    HW1  983   2.893   1.071   2.294  2.2691 -0.6087  0.1523
  328SOL    HW2  984   2.863   0.920   2.373 -0.9140 -1.6400 -0.0946
  329SOL     OW  985   1.359   0.205   2.059  0.5876  0.3074 -0.6966
  329SOL    HW1  986   1.292   0.129   2.053 -0.1658 -0.7322 -0.5771
  329SOL    HW2  987   1.453   0.164   2.076  1.0398 -0.3416  0.8853
  330SOL     OW  988   3.034   1.800   1.505  0.2729  0.3973 -0.2697
  330SOL    HW1  989   0.027   1.819   1.465 -1.3256 -0.4525 -1.1795
  330SOL    HW2  990   2.995   1.702   1.486 -0.0240 -4.1962 -0.2154
  331SOL     OW  991   0.577   1.442   2.031  0.8867 -0.5229 -0.3933
  331SOL    HW1  992   0.509   1.397   1.969  1.0888  1.0808 -1.6394
  331SOL    HW2  993   0.624   1.382   2.094 -1.3153  1.3038  0.7035
  332SOL     OW  994   0.185   0.008   1.350 -0.4773 -0.0178 -0.7020
  332SOL    HW1  995   0.282   3.096   1.322 -1.2235 -1.4491  0.4693
  332SOL    HW2  996   0.167   0.110   1.349 -0.4040  1.1390 -2.4093
  333SOL     OW  997   2.157   2.883   1.722  0.3008  0.5743 -0.5724
  333SOL    HW1  998   2.248   2.924   1.705  2.0654  1.2755 -0.1319
  333SOL    HW2  999   2.142   2.783   1.697 -0.4469  0.4280  1.3823
  334SOL     OW 1000   0.865   1.875   1.055  0.6036  0.0751  0.2155
  334SOL    HW1 1001   0.768   1.874   1.024 -3.2893 -0.4211 -0.6864
  334SOL    HW2 1002   0.918   1.948   1.007 -0.7524  0.9637  0.0753
  335SOL     OW 1003   0.598   2.181   2.900 -0.6528  0.2334 -0.5751
  335SOL    HW1 1004   0.584   2.279   2.872 -0.1076  4.5143 -0.4729
  335SOL    HW2 1005   0.541   2.122   2.839 -1.4264  1.9685 -2.1472
  336SOL     OW 1006   0.048   0.080   2.056 -0.0927  0.5994  0.2531
  336SOL    HW1 1007   0.082   0.045   1.965  2.2036 -1.4241  1.4874
  336SOL    HW2 1008   3.053   0.123   2.044  0.5722  0.4680  1.2679
  337SOL     OW 1009   2.569   2.177   3.069 -0.0753  0.5250  0.0692
  337SOL    HW1 1010   2.527   2.261   0.011  1.4086 -0.9252 -0.1520
  337SOL    HW2 1011   2.525   2.095   0.015 -2.9228  2.3895  4.9912
  338SOL     OW 1012   1.165   2.135   1.403  0.2837 -0.9108 -0.5304
  338SOL    HW1 1013   1.253   2.170   1.444 -1.3781 -0.2578  1.6313
  338SOL    HW2 1014   1.164   2.146   1.303  2.3864  1.7950  0.4922
  339SOL     OW 1015   0.080   0.457   2.099  0.1221 -0.1419 -0.1695
  339SOL    HW1 1016   0.009   0.444   2.026 -1.2850 -0.6407  1.5280
  339SOL    HW2 1017   0.087   0.374   2.161  2.2271 -2.6242  0.2589
  340SOL     OW 1018   1.537   2.656   0.697  0.7987 -0.3756  0.4725
  340SOL    HW1 1019   1.537   2.705   0.605 -2.7459  1.2842 -1.8529
  340SOL    HW2 1020   1.485   2.566   0.701  1.5333  2.7623  1.6789
  341SOL     OW 1021   1.623   1.335   0.989  0.2945 -0.1451  1.3464
  341SOL    HW1 1022   1.644   1.339   0.889 -0.5399  1.6976  0.0555
  341SOL    HW2 1023   1.618   1.432   1.022  1.2760 -2.6188 -0.4304
  342SOL     OW 1024   0.249   1.365   0.677 -0.0915 -0.1288 -0.3569
  342SOL    HW1 1025   0.283   1.453   0.644  0.3683 -2.1250  1.2750
  342SOL    HW2 1026   0.161   1.339   0.630 -2.4122  1.0836  2.4777
  343SOL     OW 1027   1.461   0.088   1.159 -0.1251  0.0177  0.0295
  343SOL    HW1 1028   1.454   0.161   1.086 -2.7489 -1.4134 -2.3679
  343SOL    HW2 1029   1.387   0.101   1.229 -1.4710  1.0511  1.4414
  344SOL     OW 1030   2.051   2.382   1.413  0.3833 -0.9733  0.0762
  344SOL    HW1 1031   2.145   2.354   1.375  0.7865 -0.4358  0.4049
  344SOL    HW2 1032   2.001   2.436   1.343  2.9756 -3.0519  2.4196
  345SOL     OW 1033   2.878   2.398   2.901  0.0728  0.5025 -0.2711
  345SOL    HW1 1034   2.801   2.460   2.873 -1.4161  0.3541  0.6684
  345SOL    HW2 1035   2.963   2.427   2.853 -0.9111  0.9041  0.8711
  346SOL     OW 1036   0.126   1.607   0.857  0.5485 -0.0659 -0.4673
  346SOL    HW1 1037   0.157   1.684   0.796  1.1158 -0.3934 -2.0628
  346SOL    HW2 1038   0.110   1.530   0.793 -1.4534 -0.3674  0.1723
  347SOL     OW 1039   1.786   2.553   0.720 -0.3035  0.4282 -0.0624
  347SOL    HW1 1040   1.685   2.580   0.709 -3.2359 -2.6836 -2.4271
  347SOL    HW2 1041   1.811   2.568   0.821  2.9003  1.2191  0.7869
  348SOL     OW 1042   1.286   1.420   2.654  0.1432 -0.4750 -0.2416
  348SOL    HW1 1043   1.317   1.323   2.647  1.1452 -0.3242  0.0507
  348SOL    HW2 1044   1.204   1.437   2.593 -0.0469  0.3343  0.5476
  349SOL     OW 1045   2.533   1.202   2.176  0.3289  1.5558 -0.1260
  349SOL    HW1 1046   2.501   1.131   2.109  0.0113  1.9595 -1.5778
  349SOL    HW2 1047   2.484   1.208   2.263  1.9388  1.5655  0.2566
  350SOL     OW 1048   0.094   2.441   1.295  0.0209 -0.1922 -0.1446
  350SOL    HW1 1049   0.101   2.354   1.351  1.0115 -0.5866  1.9690
  350SOL    HW2 1050   0.116   2.425   1.198  1.5638 -1.0238 -3.2386
  351SOL     OW 1051   0.519   0.239   2.765  0.1408  0.4610  0.0180
  351SOL    HW1 1052   0.565   0.218   2.855 -0.3862  2.1061 -1.7949
  351SOL    HW2 1053   0.550   0.337   2.736  0.3637 -0.8875 -0.4086
  352SOL     OW 1054   0.774   2.595   1.453 -0.1391 -0.2264  0.4815
  352SOL    HW1 1055   0.805   2.622   1.545 -1.6576 -0.2791 -3.1290
  352SOL    HW2 1056   0.678   2.608   1.447  2.4112 -3.4204 -2.5612
  353SOL     OW 1057   0.957   0.774   2.680  0.5279 -0.0995 -0.3960
  353SOL    HW1 1058   0.893   0.839   2.634  2.1605  0.9268  1.5954
  353SOL    HW2 1059   0.971   0.794   2.777 -1.5248 -0.6317 -1.0017
  354SOL     OW 1060   1.424   1.141   0.486 -0.2575 -0.0821  0.3298
  354SOL    HW1 1061   1.415   1.039   0.472 -0.7812  0.3649  0.4027
  354SOL    HW2 1062   1.498   1.176   0.424  1.7957 -2.1877 -3.7292
  355SOL     OW 1063   2.518   0.280   0.719  0.1514 -0.2213  0.5153
  355SOL    HW1 1064   2.493   0.264   0.816  0.1863 -0.3072 -0.3324
  355SOL    HW2 1065   2.594   0.347   0.707  0.2079 -0.4087 -0.7735
  356SOL     OW 1066   2.934   0.818   2.521 -0.5617 -0.3676 -0.2586
  356SOL    HW1 1067   3.030   0.851   2.527  0.6398 -0.4516 -0.4996
  356SOL    HW2 1068   2.927   0.716   2.517  0.3686 -2.9811 -1.2958
  357SOL     OW 1069   0.530   2.870   1.927  0.1149  0.2638  0.6602
  357SOL    HW1 1070   0.587   2.929   1.862  2.1493  3.2653  0.6513
  357SOL    HW2 1071   0.481   2.796   1.876  0.1504 -2.2905  1.6666
  358SOL     OW 1072   2.975   1.151   2.704 -0.6618 -0.5604 -0.5515
  358SOL    HW1 1073   2.911   1.231   2.710  0.9534 -0.4268 -1.1232
  358SOL    HW2 1074   3.007   1.143   2.606 -3.0548  1.5359 -0.7641
  359SOL     OW 1075   2.365   2.627   2.879  0.1178 -0.0470  0.0703
  359SOL    HW1 1076   2.349   2.722   2.847  1.6928  0.8347  1.2365
  359SOL    HW2 1077   2.400   2.563   2.810  1.8214  0.4813  0.8516
  360SOL     OW 1078   1.817   0.982   0.969 -0.5227  0.4028  0.2210
  360SOL    HW1 1079   1.837   1.072   0.924 -1.4181  0.1763  0.9930
  360SOL    HW2 1080   1.856   0.979   1.064 -1.2972 -2.1413  2.2566
  361SOL     OW 1081   1.830   2.624   0.965 -0.3401 -0.0944 -0.0280
  361SOL    HW1 1082   1.748   2.660   1.009  1.5994 -0.3208 -1.3408
  361SOL    HW2 1083   1.911   2.689   0.957  1.5021  2.2840 -2.0564
  362SOL     OW 1084   1.308   1.134   0.759 -0.1604 -0.1354 -0.2989
  362SOL    HW1 1085   1.364   1.124   0.674  0.0368  0.9843 -1.2195
  362SOL    HW2 1086   1.247   1.218   0.759 -0.9336  0.4719 -0.7031
  363SOL     OW 1087   0.166   1.917   2.549 -0.0067  0.0114 -0.4836
  363SOL    HW1 1088   0.184   1.987   2.622 -0.5419  0.2828 -0.4117
  363SOL    HW2 1089   0.238   1.850   2.536 -0.3124 -1.3383  0.0277
  364SOL     OW 1090   1.403   0.689   1.425  0.2192 -0.7033  0.4937
  364SOL    HW1 1091   1.394   0.595   1.460 -1.2813 -0.8809  1.4650
  364SOL    HW2 1092   1.467   0.688   1.344 -2.8608  0.5557  0.6074
  365SOL     OW 1093   2.991   3.049   1.470 -0.3104  0.4069 -0.5768
  365SOL    HW1 1094   2.958   0.046   1.454  1.1981  0.6843  0.6714
  365SOL    HW2 1095   3.030   3.036   1.563  0.6698  1.0744  0.8641
  366SOL     OW 1096   2.912   1.447   0.159 -0.4282 -0.2752  0.1612
  366SOL    HW1 1097   2.850   1.523   0.190 -0.1044  2.2141 -1.4653
  366SOL    HW2 1098   2.946   1.393   0.241  2.1471 -0.1874  0.8126
  367SOL     OW 1099   2.884   1.986   2.715  0.0291 -0.2271 -0.1825
  367SOL    HW1 1100   2.795   2.016   2.670 -0.6514  0.6890 -1.4056
  367SOL    HW2 1101   2.902   2.032   2.804 -0.1326 -1.3941  0.3763
  368SOL     OW 1102   3.020   1.830   1.026 -0.8393  0.0875  0.8950
  368SOL    HW1 1103   2.926   1.815   1.063  0.7812  0.3540 -1.1727
  368SOL    HW2 1104   3.033   1.931   1.027 -3.4899 -3.4692  1.4816
  369SOL     OW 1105   0.724   0.435   0.537 -0.6352 -0.1893 -0.0278
  369SOL    HW1 1106   0.692   0.381   0.458  1.3136  1.1250 -0.5619
  369SOL    HW2 1107   0.643   0.482   0.579  0.9563 -1.7628 -1.1134
  370SOL     OW 1108   0.639   0.654   1.528  0.1165  0.4860 -0.0964
  370SOL    HW1 1109   0.696   0.685   1.446  1.3013  3.4971 -3.2525
  370SOL    HW2 1110   0.700   0.640   1.613  1.5800 -0.7582  0.6758
  371SOL     OW 1111   2.254   1.890   0.416 -0.1471 -0.7112  0.2871
  371SOL    HW1 1112   2.176   1.868   0.482 -2.0923  0.6431  0.9485
  371SOL    HW2 1113   2.256   1.990   0.391  0.5188 -0.2733  0.9469
  372SOL     OW 1114   0.120   0.854   2.526 -0.0883  0.0001 -0.3886
  372SOL    HW1 1115   0.160   0.826   2.618  1.4279 -2.7942  3.8125
  372SOL    HW2 1116   0.174   0.811   2.453 -1.9737  0.1995 -2.0887
  373SOL     OW 1117   2.724   1.339   0.408  0.1064  0.3006  0.3642
  373SOL    HW1 1118   2.798   1.397   0.445 -0.7225  2.5456 -0.4734
  373SOL    HW2 1119   2.639   1.385   0.369 -2.3140  0.4155 -2.3127
  374SOL     OW 1120   0.444   2.393   3.045 -0.3446 -0.2632  0.0031
  374SOL    HW1 1121   0.350   2.356   3.027  1.8364 -0.7184  0.9771
  374SOL    HW2 1122   0.482   2.358   0.037  1.2121 -1.5709  2.3529
  375SOL     OW 1123   0.583   0.326   0.341 -0.4748  0.0834 -0.8932
  375SOL    HW1 1124   0.554   0.387   0.267  0.6458 -0.1869  3.4468
  375SOL    HW2 1125   0.548   0.229   0.338 -0.1793  1.9583  0.3077
  376SOL     OW 1126   0.224   2.978   2.200  0.1429 -0.6816  0.0710
  376SOL    HW1 1127   0.155   3.044   2.160  0.7196 -0.5386 -0.7074
  376SOL    HW2 1128   0.318   2.985   2.162 -2.0431 -0.9572  0.1513
  377SOL     OW 1129   0.550   1.772   2.196 -0.1519  0.0809  0.4517
  377SOL    HW1 1130   0.542   1.808   2.290 -3.2448  1.4379  1.1665
  377SOL    HW2 1131   0.625   1.707   2.176  1.7359  1.8361  1.7224
  378SOL     OW 1132   1.407   0.850   0.449  0.2731 -0.0056 -0.0220
  378SOL    HW1 1133   1.373   0.836   0.354 -1.0143 -1.2984  1.2101
  378SOL    HW2 1134   1.348   0.792   0.516 -1.3907  1.0999  2.3808
  379SOL     OW 1135   1.163   1.514   0.142  0.8732  0.0586 -0.4038
  379SOL    HW1 1136   1.141   1.471   0.233  1.2659 -0.7375  2.0997
  379SOL    HW2 1137   1.232   1.457   0.096  0.3906  0.4995  1.6675
  380SOL     OW 1138   2.934   2.075   1.987  0.2017 -0.6857  0.1884
  380SOL    HW1 1139   2.867   1.999   2.011  0.5679 -2.0341  0.5247
  380SOL    HW2 1140   3.021   2.067   2.048  0.5584  0.4368  4.1309
  381SOL     OW 1141   0.495   0.752   1.861  0.0270  0.3374 -0.1955
  381SOL    HW1 1142   0.539   0.816   1.798  0.0099  1.5599  0.0483
  381SOL    HW2 1143   0.401   0.740   1.839  3.4432 -3.2777  0.7309
  382SOL     OW 1144   2.828   2.136   2.954 -0.3796  0.1854  0.4511
  382SOL    HW1 1145   2.864   2.228   2.925 -0.3029  0.6974 -0.3239
  382SOL    HW2 1146   2.745   2.150   3.012 -1.9044 -0.3320 -0.3920
  383SOL     OW 1147   2.358   1.829   2.241  0.8221 -0.2176  0.1616
  383SOL    HW1 1148   2.433   1.792   2.178  0.6509 -0.8483 -1.2190
  383SOL    HW2 1149   2.272   1.770   2.245 -2.1422 -0.2347  1.5954
  384SOL     OW 1150   0.647   2.280   2.317  0.5907 -0.0583  0.1405
  384SOL    HW1 1151   0.628   2.378   2.301  0.1112  1.1744 -2.2887
  384SOL    HW2 1152   0.603   2.245   2.400 -1.1829 -0.7999  0.7514
  385SOL     OW 1153   2.764   2.021   0.925  0.9348  0.0601 -0.3509
  385SOL    HW1 1154   2.813   2.109   0.921 -2.0309  1.1423 -0.2629
  385SOL    HW2 1155   2.710   2.017   1.012 -2.1028 -0.1938 -0.8856
  386SOL     OW 1156   1.668   0.844   2.989 -0.2548 -0.0099  0.5596
  386SOL    HW1 1157   1.646   0.768   2.926 -1.2281  0.8912  0.6235
  386SOL    HW2 1158   1.743   0.822   3.056 -0.9292 -0.6406  0.6696
  387SOL     OW 1159   0.523   0.900   1.571  0.1127 -0.4571 -0.0621
  387SOL    HW1 1160   0.550   0.804   1.543 -0.6313 -3.3965  0.2206
  387SOL    HW2 1161   0.577   0.957   1.506 -1.3183 -1.4987  0.1307
  388SOL     OW 1162   2.959   0.969   1.524 -0.3113 -0.1853  0.0765
  388SOL    HW1 1163   2.932   0.879   1.483 -1.4250 -0.4189 -0.5190
  388SOL    HW2 1164   2.884   1.041   1.519 -1.9886 -2.8971 -0.9108
  389SOL     OW 1165   1.787   1.088   2.456 -0.3166  0.2071  0.2532
  389SOL    HW1 1166   1.739   1.147   2.524  0.2668 -0.6760  0.4644
  389SOL    HW2 1167   1.877   1.134   2.435  3.0800  0.5428  1.1417
  390SOL     OW 1168   2.094   2.134   0.605 -0.3622 -0.4508 -0.0389
  390SOL    HW1 1169   2.154   2.129   0.689 -1.1093  0.4552  0.9334
  390SOL    HW2 1170   2.142   2.132   0.516 -0.5507 -1.4948  1.3167
  391SOL     OW 1171   1.501   2.801   0.917 -0.3257 -0.4549 -0.1368
  391SOL    HW1 1172   1.501   2.736   0.839  1.5931 -1.9245 -0.7015
  391SOL    HW2 1173   1.509   2.752   1.008  0.3039  2.6353  0.4625
  392SOL     OW 1174   2.599   3.057   1.532  0.2035  0.9303  0.3431
  392SOL    HW1 1175   2.637   3.020   1.442  2.8714  1.7756  1.0980
  392SOL    HW2 1176   2.529   0.032   1.516  3.3650 -0.3398 -0.0775
  393SOL     OW 1177   1.862   2.069   2.919  0.4457  0.5272 -0.1865
  393SOL    HW1 1178   1.878   2.160   2.880 -1.3715 -0.8506 -2.6856
  393SOL    HW2 1179   1.951   2.026   2.937 -0.7418  0.5725 -0.3114
  394SOL     OW 1180   0.621   2.480   2.883 -0.8127  0.2710  0.3887
  394SOL    HW1 1181   0.561   2.456   2.960  2.6845  0.4311 -0.6527
  394SOL    HW2 1182   0.696   2.540   2.916 -0.1489 -1.1768 -0.3358
  395SOL     OW 1183   0.726   1.517   0.899 -0.1776 -0.4788  0.4395
  395SOL    HW1 1184   0.676   1.525   0.809  0.5827 -1.7597 -0.6728
  395SOL    HW2 1185   0.672   1.564   0.972  0.3701  1.7651 -0.3868
  396SOL     OW 1186   1.985   1.231   2.303  0.6551 -0.0527 -0.3189
  396SOL    HW1 1187   1.968   1.203   2.207  2.0118  0.3270 -0.7056
  396SOL    HW2 1188   2.069   1.291   2.323  4.2642  2.7863  1.7297
  397SOL     OW 1189   2.863   0.737   2.831 -0.0217 -0.3403 -0.2674
  397SOL    HW1 1190   2.791   0.713   2.758 -2.4076 -0.1784 -1.3408
  397SOL    HW2 1191   2.953   0.698   2.807  1.0367  2.4291 -1.0702
  398SOL     OW 1192   1.326   0.372   0.356  0.5867  0.0489  0.1781
  398SOL    HW1 1193   1.365   0.328   0.271 -0.7317 -0.0804  1.0964
  398SOL    HW2 1194   1.332   0.309   0.435 -1.2684 -0.6308 -0.1561
  399SOL     OW 1195   1.845   3.028   1.758 -0.1769  0.2825  0.4347
  399SOL    HW1 1196   1.818   3.004   1.662  1.0951  0.8820 -1.1715
  399SOL    HW2 1197   1.863   2.947   1.814  2.1591 -0.0612 -1.3705
  400SOL     OW 1198   0.091   2.342   2.178 -0.0469  0.1611  0.0796
  400SOL    HW1 1199   0.046   2.253   2.172 -0.6436 -0.9474 -0.2560
  400SOL    HW2 1200   0.166   2.350   2.114  0.3602 -0.4265 -0.4795
  401SOL     OW 1201   0.530   0.064   0.284  0.4260  0.2547  0.3931
  401SOL    HW1 1202   0.428   0.070   0.262 -0.9145 -2.6245 -3.6290
  401SOL    HW2 1203   0.586   0.044   0.201 -0.0608  3.6046 -0.1292
  402SOL     OW 1204   0.313   2.492   1.590  0.5910  0.1524 -0.5455
  402SOL    HW1 1205   0.388   2.424   1.568  2.5576 -3.7749 -0.2858
  402SOL    HW2 1206   0.279   2.542   1.511  1.9893 -0.8947  0.8268
  403SOL     OW 1207   0.384   1.116   1.658  0.4990 -0.1055  0.1282
  403SOL    HW1 1208   0.288   1.086   1.644  0.8852  1.6693  2.1173
  403SOL    HW2 1209   0.453   1.050   1.630  1.1389  1.0642 -1.6659
  404SOL     OW 1210   2.979   2.461   1.998 -0.9781  0.0917 -0.2320
  404SOL    HW1 1211   3.063   2.448   2.054  0.4140 -2.9614  0.6599
  404SOL    HW2 1212   2.990   2.399   1.917  2.4542 -3.8342  1.2168
  405SOL     OW 1213   2.681   0.224   2.394  0.7287  0.3367  0.2966
  405SOL    HW1 1214   2.761   0.186   2.353 -5.2316 -0.7641 -2.1723
  405SOL    HW2 1215   2.605   0.240   2.327  1.9807  0.5227  0.1849
  406SOL     OW 1216   2.017   2.344   0.212 -0.1243  0.1275 -0.0013
  406SOL    HW1 1217   2.082   2.390   0.279  1.7790  1.8267  1.2028
  406SOL    HW2 1218   1.934   2.316   0.256  0.2490  0.8481  0.4297
  407SOL     OW 1219   1.981   1.474   0.332  0.1076  0.5696 -0.4134
  407SOL    HW1 1220   2.029   1.497   0.421 -3.0913  0.6876 -0.2753
  407SOL    HW2 1221   1.908   1.545   0.327  0.3583 -0.2165  1.0267
  408SOL     OW 1222   0.412   0.403   2.283 -0.0557  0.0448 -0.1665
  408SOL    HW1 1223   0.368   0.352   2.204  1.2109 -1.3328 -1.8954
  408SOL    HW2 1224   0.474   0.337   2.335  0.3832  0.4715 -0.3640
  409SOL     OW 1225   2.773   1.650   0.287  0.3122 -0.0555 -0.0833
  409SOL    HW1 1226   2.671   1.651   0.262 -2.6360 -0.6280 -2.3746
  409SOL    HW2 1227   2.815   1.742   0.287  2.5153 -0.6940 -3.1211
  410SOL     OW 1228   2.050   1.597   1.271  0.0141 -0.1983 -0.2906
  410SOL    HW1 1229   2.148   1.602   1.250 -3.5574 -3.5072  0.6448
  410SOL    HW2 1230   2.038   1.559   1.363  0.4629 -0.6118 -2.2277
  411SOL     OW 1231   0.057   0.616   0.476  0.7816  0.4175 -0.5778
  411SOL    HW1 1232   3.086   0.583   0.406 -0.2513 -2.0881 -0.9755
  411SOL    HW2 1233   0.064   0.555   0.560 -2.5821  0.3318  2.6221
  412SOL     OW 1234   1.993   0.656   3.066 -0.3265 -0.3298  0.0517
  412SOL    HW1 1235   1.974   0.716   0.047  0.7314  1.1355 -1.2579
  412SOL    HW2 1236   2.065   0.591   0.003 -1.8612 -1.2503  0.3726
  413SOL     OW 1237   1.138   0.396   1.543  0.4771 -0.1342 -0.2338
  413SOL    HW1 1238   1.238   0.390   1.541 -2.1303  0.9289 -0.8991
  413SOL    HW2 1239   1.101   0.394   1.451  1.6791 -1.3982  2.3858
  414SOL     OW 1240   0.215   1.128   0.203 -0.4324 -0.3884  0.0650
  414SOL    HW1 1241   0.256   1.126   0.108 -0.3471  1.2868 -0.1311
  414SOL    HW2 1242   0.143   1.051   0.210  0.2141  0.1164 -1.9262
  415SOL     OW 1243   0.274   1.576   0.482  0.7984 -0.1542 -0.1011
  415SOL    HW1 1244   0.206   1.655   0.478 -0.5436  1.6925 -4.1127
  415SOL    HW2 1245   0.258   1.517   0.398 -0.4614 -0.2744  0.9217
  416SOL     OW 1246   1.717   0.645   0.356 -0.1465 -0.2787  0.2124
  416SOL    HW1 1247   1.639   0.604   0.400 -0.0878  2.5872 -4.3164
  416SOL    HW2 1248   1.808   0.637   0.402 -1.4019 -0.0340 -1.8783
  417SOL     OW 1249   3.043   3.076   0.767  0.0943 -0.0264  0.1958
  417SOL    HW1 1250   2.983   3.013   0.713  0.4554 -0.8675 -0.1065
  417SOL    HW2 1251   0.022   0.017   0.716 -1.3654  0.7764  1.7550
  418SOL     OW 1252   2.273   1.013   2.835 -0.2078  0.2419 -0.3211
  418SOL    HW1 1253   2.323   0.936   2.880  0.6189  1.2659  1.7900
  418SOL    HW2 1254   2.176   0.980   2.818  0.7974 -1.2030  0.3284
  419SOL     OW 1255   0.451   0.616   0.295 -0.3356 -0.0817  0.4559
  419SOL    HW1 1256   0.369   0.571   0.252 -1.4319 -3.2642 -0.6521
  419SOL    HW2 1257   0.426   0.665   0.380 -0.8365 -1.5928  0.0703
  420SOL     OW 1258   0.599   1.495   0.666 -0.1736  0.0139 -0.5140
  420SOL    HW1 1259   0.612   1.408   0.606  0.4096  0.4327  0.7574
  420SOL    HW2 1260   0.576   1.577   0.611 -1.3567 -1.7073 -1.2133
  421SOL     OW 1261   0.361   2.026   0.212 -0.0499 -0.6627  0.3567
  421SOL    HW1 1262   0.387   1.932   0.234 -0.3059  1.9100  1.6155
  421SOL    HW2 1263   0.336   2.037   0.116  2.8134 -0.7263  1.0885
  422SOL     OW 1264   2.557   0.314   1.730  0.6562  0.4704 -0.3144
  422SOL    HW1 1265   2.469   0.265   1.769 -2.6827 -1.4066  0.8097
  422SOL    HW2 1266   2.562   0.308   1.628  1.2789  2.3952 -0.0720
  423SOL     OW 1267   2.057   1.870   0.589  0.4236  0.4706 -0.4554
  423SOL    HW1 1268   2.052   1.804   0.668  0.8763  0.9372 -2.1516
  423SOL    HW2 1269   2.060   1.968   0.619  0.5186 -0.9494  0.6175
  424SOL     OW 1270   1.935   1.339   3.025  0.0915 -0.2956 -0.1614
  424SOL    HW1 1271   2.011   1.393   3.066  1.5849  0.7471 -1.8796
  424SOL    HW2 1272   1.845   1.388   3.040  0.4434  1.0044 -0.7154
  425SOL     OW 1273   0.182   2.875   2.471 -0.6259  0.1019  0.2691
  425SOL    HW1 1274   0.251   2.852   2.542  1.1758 -2.3611  0.2913
  425SOL    HW2 1275   0.223   2.918   2.387 -0.2638  0.0676 -1.0732
  426SOL     OW 1276   2.330   2.866   2.763 -0.3553  0.2311  0.0537
  426SOL    HW1 1277   2.270   2.945   2.781  2.2591  1.2089  0.8651
  426SOL    HW2 1278   2.320   2.825   2.667  0.3610 -0.6501  1.0299
  427SOL     OW 1279   0.662   1.034   2.120 -0.1037 -0.5024 -0.2799
  427SOL    HW1 1280   0.719   0.961   2.151 -1.4518  2.5841 -2.9966
  427SOL    HW2 1281   0.676   1.114   2.183  1.7123  0.2255  1.0481
  428SOL     OW 1282   2.495   1.456   2.171  0.1692 -0.0211 -0.1387
  428SOL    HW1 1283   2.520   1.356   2.166  0.5549  0.1473 -1.2680
  428SOL    HW2 1284   2.416   1.473   2.107 -1.7906  0.6498  2.8269
  429SOL     OW 1285   2.274   0.144   0.604 -0.3675 -0.3310  0.2205
  429SOL    HW1 1286   2.278   0.131   0.501  0.6334 -3.5974 -4.2761
  429SOL    HW2 1287   2.376   0.160   0.627  1.9016  0.8752  0.2757
  430SOL     OW 1288   1.725   1.492   2.156 -0.4948 -0.1597  0.1629
  430SOL    HW1 1289   1.779   1.472   2.075  0.6931  0.7966 -0.5521
  430SOL    HW2 1290   1.649   1.423   2.170 -0.5733  2.8946  0.3072
  431SOL     OW 1291   2.916   1.972   1.648  0.2315  0.1982 -0.6460
  431SOL    HW1 1292   2.971   1.914   1.580  0.7254  0.7557 -1.4440
  431SOL    HW2 1293   2.964   2.052   1.691 -1.2997 -2.2276  1.5341
  432SOL     OW 1294   0.853   2.631   2.047 -0.0608 -0.7196 -0.4234
  432SOL    HW1 1295   0.819   2.589   1.959 -0.5983 -0.9543 -3.3341
  432SOL    HW2 1296   0.807   2.720   2.069  1.2881 -1.1547 -1.7870
  433SOL     OW 1297   1.732   2.989   0.942  0.2690  0.5207  0.3505
  433SOL    HW1 1298   1.743   3.039   0.854 -1.3321  0.1603  1.2664
  433SOL    HW2 1299   1.654   2.920   0.941 -0.9487  0.1889 -0.6834
  434SOL     OW 1300   0.496   2.216   1.974  0.2485  0.2717  0.0884
  434SOL    HW1 1301   0.534   2.265   1.895 -4.6092 -0.7926  0.2298
  434SOL    HW2 1302   0.513   2.116   1.968 -1.8666  1.8726 -2.4122
  435SOL     OW 1303   0.528   1.699   0.512  0.7684 -0.1562  0.0032
  435SOL    HW1 1304   0.550   1.771   0.439  0.0609  0.8654  0.9291
  435SOL    HW2 1305   0.446   1.648   0.476 -1.7995 -1.0681 -0.3684
  436SOL     OW 1306   0.147   1.436   1.655  0.2049  0.0863  0.1820
  436SOL    HW1 1307   0.102   1.523   1.692 -0.3064  1.1156  2.9301
  436SOL    HW2 1308   0.131   1.428   1.555 -1.9804  1.3993  1.5442
  437SOL     OW 1309   1.173   0.619   3.084  0.1465 -0.1576 -1.4475
  437SOL    HW1 1310   1.256   0.641   0.044 -0.3975  0.9770  0.6306
  437SOL    HW2 1311   1.091   0.670   0.023  1.6943  1.9374  0.7625
  438SOL     OW 1312   0.480   1.777   1.342 -0.0017  0.3934 -0.0310
  438SOL    HW1 1313   0.453   1.868   1.315  0.8919 -0.3999 -0.7539
  438SOL    HW2 1314   0.491   1.754   1.443  2.3630  1.1099 -0.6611
  439SOL     OW 1315   1.945   1.701   2.806 -0.5412 -0.5876  0.1285
  439SOL    HW1 1316   1.953   1.662   2.900  0.0847 -0.3445 -1.2316
  439SOL    HW2 1317   2.029   1.675   2.746  3.4894 -0.3628  0.8310
  440SOL     OW 1318   1.645   0.410   0.773 -0.0482 -0.2823 -0.2451
  440SOL    HW1 1319   1.558   0.451   0.734 -1.2679  0.1113 -1.3894
  440SOL    HW2 1320   1.716   0.481   0.796  2.5790 -0.2085  1.6553
  441SOL     OW 1321   0.507   2.678   1.391 -0.9904  0.6775 -0.5138
  441SOL    HW1 1322   0.408   2.665   1.376  1.4610  0.8798 -2.3334
  441SOL    HW2 1323   0.534   2.776   1.395  1.3631  1.6007  0.1409
  442SOL     OW 1324   2.485   2.306   0.918  0.4771  0.8590  0.9963
  442SOL    HW1 1325   2.452   2.324   0.822  1.1849 -1.1431 -1.6655
  442SOL    HW2 1326   2.398   2.300   0.977 -2.6304  1.4439 -0.7573
  443SOL     OW 1327   2.831   0.513   2.304  0.0629  0.2345 -0.0612
  443SOL    HW1 1328   2.737   0.542   2.336 -0.3430 -2.1251  1.6182
  443SOL    HW2 1329   2.901   0.553   2.370 -1.0023 -0.1757 -0.6983
  444SOL     OW 1330   1.500   0.957   2.458  0.3961  0.6701 -0.3292
  444SOL    HW1 1331   1.585   1.013   2.451  1.9810 -0.3154  2.6350
  444SOL    HW2 1332   1.464   0.936   2.368 -2.0055  2.3018  1.4969
  445SOL     OW 1333   2.862   2.165   1.267 -0.0622 -0.3920 -0.2354
  445SOL    HW1 1334   2.844   2.239   1.331  1.3986  0.6823 -3.1508
  445SOL    HW2 1335   2.774   2.115   1.250 -1.6647  0.1210 -3.1894
  446SOL     OW 1336   0.021   1.293   0.530 -0.0904  0.0257 -0.1049
  446SOL    HW1 1337   3.082   1.198   0.515  1.9352  2.7624  1.5748
  446SOL    HW2 1338   3.070   1.355   0.470 -1.2470  1.9542  0.0416
  447SOL     OW 1339   0.820   2.254   0.780 -0.1614  0.2448  0.0432
  447SOL    HW1 1340   0.821   2.316   0.859  4.6030  0.0437 -2.2752
  447SOL    HW2 1341   0.730   2.209   0.770 -0.5544 -0.7849 -1.4294
  448SOL     OW 1342   1.589   1.532   1.526 -0.0027  0.0895 -0.1099
  448SOL    HW1 1343   1.523   1.521   1.604 -0.4407 -1.2630 -0.1608
  448SOL    HW2 1344   1.544   1.497   1.444 -0.9280  0.6920  1.1419
  449SOL     OW 1345   0.627   1.637   2.861 -0.0538  0.1918  0.0920
  449SOL    HW1 1346   0.669   1.542   2.845 -0.3986 -0.2863 -4.3825
  449SOL    HW2 1347   0.663   1.686   2.943  0.0083 -0.2972  0.8153
  450SOL     OW 1348   2.705   2.212   2.009 -0.3478  0.0193 -0.8975
  450SOL    HW1 1349   2.672   2.160   2.091 -1.6448 -1.7805  1.3734
  450SOL    HW2 1350   2.802   2.180   1.989  0.8638 -3.4760 -0.3747
  451SOL     OW 1351   2.085   0.619   1.820  0.1597 -0.6192  0.0363
  451SOL    HW1 1352   2.144   0.601   1.740 -1.3948  1.7204  1.2429
  451SOL    HW2 1353   2.091   0.719   1.839 -0.8009  2.2652 -1.8959
  452SOL     OW 1354   0.841   2.813   1.269 -0.6404  0.5416 -0.1339
  452SOL    HW1 1355   0.826   2.747   1.347  1.0426 -2.6784  3.3233
  452SOL    HW2 1356   0.855   2.760   1.180  2.4862 -0.7439 -5.2805
  453SOL     OW 1357   0.908   1.720   0.814 -0.4950  0.1841 -0.3941
  453SOL    HW1 1358   0.861   1.633   0.831 -0.2023  0.8782 -1.6397
  453SOL    HW2 1359   0.857   1.803   0.834  1.0522 -2.2608 -1.0759
  454SOL     OW 1360   2.895   1.156   0.752  0.1626  0.0173  0.3512
  454SOL    HW1 1361   2.976   1.109   0.789 -1.5786  0.3350  1.3354
  454SOL    HW2 1362   2.910   1.252   0.739 -1.4566 -2.8660 -0.7562
  455SOL     OW 1363   0.285   0.339   0.510 -0.2791 -0.1923  0.3621
  455SOL    HW1 1364   0.235   0.385   0.581 -1.9072  0.9954  1.6425
  455SOL    HW2 1365   0.379   0.381   0.498  2.4572 -0.2166  1.0241
  456SOL     OW 1366   2.147   2.435   0.447  0.0721  0.3088 -0.3055
  456SOL    HW1 1367   2.164   2.509   0.516 -1.0389 -1.1875  0.9636
  456SOL    HW2 1368   2.067   2.381   0.484 -0.3779  0.1587  1.6797
  457SOL     OW 1369   1.402   2.768   0.035 -0.2438 -0.0628 -0.6916
  457SOL    HW1 1370   1.487   2.825   0.017  2.2266 -0.7403  0.9288
  457SOL    HW2 1371   1.384   2.709   3.051 -0.8298 -0.2960  1.2469
  458SOL     OW 1372   2.718   2.905   0.255  0.6519  0.1653  0.1393
  458SOL    HW1 1373   2.723   2.876   0.159 -1.6980  2.3944 -0.0569
  458SOL    HW2 1374   2.756   2.996   0.273 -2.2319  0.4234  1.1292
  459SOL     OW 1375   2.240   0.510   2.040  0.0787  0.3330  0.2497
  459SOL    HW1 1376   2.242   0.410   2.029 -1.3364  4.4603  1.4657
  459SOL    HW2 1377   2.169   0.548   1.972 -1.8842  0.1331 -3.7586
  460SOL     OW 1378   3.007   0.527   0.265 -0.2977 -0.1150 -0.5489
  460SOL    HW1 1379   3.058   0.507   0.178 -1.2341  0.7047 -2.7188
  460SOL    HW2 1380   2.944   0.608   0.252  1.0684  2.0057 -0.0398
  461SOL     OW 1381   0.182   1.909   1.409  0.2068 -0.3337  0.0708
  461SOL    HW1 1382   0.165   1.855   1.330 -1.4878  3.4693  3.9314
  461SOL    HW2 1383   0.264   1.966   1.391 -0.8017 -3.7587  0.8602
  462SOL     OW 1384   3.046   3.066   1.036 -0.3233  0.2560  0.0370
  462SOL    HW1 1385   3.052   3.087   0.934  1.9560  4.0705 -2.4996
  462SOL    HW2 1386   2.966   0.007   1.084  0.9210 -1.4251  1.1322
  463SOL     OW 1387   2.811   0.957   0.053  0.3852  1.1724  0.0741
  463SOL    HW1 1388   2.787   1.026   0.122  0.2172  0.6251 -0.0281
  463SOL    HW2 1389   2.879   0.992   3.083 -1.3027 -1.2383  0.7561
  464SOL     OW 1390   0.537   2.878   1.083 -0.0536 -0.0230  0.6314
  464SOL    HW1 1391   0.611   2.899   1.021  2.5093  1.2710 -1.2124
  464SOL    HW2 1392   0.562   2.904   1.178  2.4494  2.1031  1.4857
  465SOL     OW 1393   0.888   0.600   1.165  0.1784 -0.3924 -0.0867
  465SOL    HW1 1394   0.972   0.637   1.124  0.2086  0.6869  0.8762
  465SOL    HW2 1395   0.817   0.580   1.096 -1.2397  0.8385 -1.5171
  466SOL     OW 1396   1.642   2.356   2.389  0.1809  0.6966 -0.3415
  466SOL    HW1 1397   1.711   2.340   2.320 -2.4976  0.2421  1.9572
  466SOL    HW2 1398   1.677   2.410   2.467  0.6572 -1.6339 -1.3633
  467SOL     OW 1399   0.883   0.215   1.923 -0.7354 -0.7362  0.2012
  467SOL    HW1 1400   0.877   0.316   1.952 -0.1131 -0.2205  1.1497
  467SOL    HW2 1401   0.929   0.218   1.832  3.4415 -2.0551  2.5235
  468SOL     OW 1402   0.390   1.126   2.266 -0.3143  0.1478  0.1114
  468SOL    HW1 1403   0.397   1.089   2.173  0.8327  1.8498  1.1726
  468SOL    HW2 1404   0.469   1.184   2.281 -0.5594 -0.2254 -3.3981
  469SOL     OW 1405   0.782   2.421   0.573 -0.1213  0.0765  0.0369
  469SOL    HW1 1406   0.817   2.504   0.617 -2.2537 -1.5611  0.6986
  469SOL    HW2 1407   0.799   2.344   0.636  1.1397 -0.0233 -0.5989
  470SOL     OW 1408   2.550   1.716   2.044  0.2614 -0.4013 -0.3391
  470SOL    HW1 1409   2.526   1.721   1.946 -1.0258  0.3552  1.1844
  470SOL    HW2 1410   2.581   1.622   2.065  1.8118 -0.1172  0.3014
  471SOL     OW 1411   1.060   2.880   2.822  0.0573 -0.3850  0.0574
  471SOL    HW1 1412   1.089   2.893   2.918 -0.9605 -0.8160  0.3454
  471SOL    HW2 1413   1.078   2.966   2.768 -1.8720 -0.1048 -1.8557
  472SOL     OW 1414   0.390   2.649   1.793  0.2441 -0.1056 -0.1536
  472SOL    HW1 1415   0.296   2.670   1.828 -1.7607 -0.4280  1.5823
  472SOL    HW2 1416   0.385   2.580   1.717  0.7988 -0.1538  1.4345
  473SOL     OW 1417   0.852   0.136   2.876 -0.9446 -0.0679  0.0971
  473SOL    HW1 1418   0.831   0.088   2.793  1.7044  1.1847  0.2950
  473SOL    HW2 1419   0.769   0.161   2.926 -1.2617 -0.2757 -0.1513
  474SOL     OW 1420   2.017   0.168   1.047 -0.0677 -0.4306  0.1060
  474SOL    HW1 1421   2.012   0.089   1.114  0.4420  1.9290  2.9095
  474SOL    HW2 1422   2.058   0.255   1.084 -3.1174  3.7719 -0.6066
  475SOL     OW 1423   1.483   0.409   1.227  0.0201 -0.1225 -0.1853
  475SOL    HW1 1424   1.525   0.346   1.157  1.2930 -0.4072  0.8365
  475SOL    HW2 1425   1.522   0.504   1.234 -1.7375 -2.7729  0.9754
  476SOL     OW 1426   0.667   0.927   0.883 -0.2267 -0.0608 -0.2005
  476SOL    HW1 1427   0.588   0.914   0.818  0.0818  1.6519  2.4467
  476SOL    HW2 1428   0.639   0.980   0.970 -0.3021  1.7671 -2.0533
  477SOL     OW 1429   1.128   2.442   0.825 -0.1883 -0.2049  0.1297
  477SOL    HW1 1430   1.052   2.482   0.778  3.4966 -2.3502 -1.9075
  477SOL    HW2 1431   1.140   2.485   0.916  0.0756 -1.6013  2.4450
  478SOL     OW 1432   3.019   2.698   2.297  0.2141 -0.0751  0.1027
  478SOL    HW1 1433   3.046   2.674   2.391  1.3062  3.4370 -0.3928
  478SOL    HW2 1434   0.007   2.722   2.243  0.3290  4.1158 -0.4782
  479SOL     OW 1435   2.643   0.511   1.034 -0.0419 -0.1634 -0.5913
  479SOL    HW1 1436   2.550   0.516   0.993  2.3386  0.1289  1.7797
  479SOL    HW2 1437   2.700   0.584   0.999 -1.9660 -1.7096 -3.8912
  480SOL     OW 1438   3.061   2.658   0.146  0.2328  0.5292 -0.2726
  480SOL    HW1 1439   2.992   2.583   0.162  1.8289 -1.4361  0.3468
  480SOL    HW2 1440   3.057   2.725   0.224  0.0443 -0.6893  0.6268
  481SOL     OW 1441   2.326   1.937   1.853  0.0726 -0.0902  0.6264
  481SOL    HW1 1442   2.237   1.959   1.899 -0.8854  2.0935 -0.6540
  481SOL    HW2 1443   2.389   2.017   1.873  0.7458  1.0368  1.2017
  482SOL     OW 1444   1.528   2.202   2.603  0.1480 -0.1973 -0.0030
  482SOL    HW1 1445   1.613   2.249   2.571  0.6761  0.8112 -0.8223
  482SOL    HW2 1446   1.478   2.176   2.517 -1.2984  1.4602 -0.8167
  483SOL     OW 1447   0.786   1.553   1.545  0.3801  0.3603 -0.5589
  483SOL    HW1 1448   0.794   1.638   1.487 -4.5979 -0.0824 -0.5679
  483SOL    HW2 1449   0.695   1.555   1.592  0.3147 -0.0593  0.2569
  484SOL     OW 1450   0.417   0.492   1.495 -0.4844 -0.0789  0.5587
  484SOL    HW1 1451   0.494   0.566   1.502  0.1299  2.4230 -0.6168
  484SOL    HW2 1452   0.440   0.439   1.407 -1.0283 -2.1893 -3.7105
  485SOL     OW 1453   2.261   1.248   2.651 -0.0085  0.1453 -0.4664
  485SOL    HW1 1454   2.174   1.298   2.650 -1.7780 -0.3805  0.3778
  485SOL    HW2 1455   2.263   1.184   2.727 -0.8061 -0.8513  0.3508
  486SOL     OW 1456   1.553   3.089   1.616 -0.6240  0.0859 -0.2432
  486SOL    HW1 1457   1.530   0.085   1.651 -1.5852 -2.0992 -2.2348
  486SOL    HW2 1458   1.460   3.052   1.588  2.3662 -1.7088  1.6814
  487SOL     OW 1459   0.456   2.250   1.563  0.4973  0.2420  0.0826
  487SOL    HW1 1460   0.527   2.247   1.634 -2.2933 -0.7665  1.5178
  487SOL    HW2 1461   0.498   2.263   1.471  0.9618 -2.7123  0.1950
  488SOL     OW 1462   2.505   2.188   2.803  0.3590  0.3282 -0.2581
  488SOL    HW1 1463   2.452   2.100   2.788 -0.8540 -2.0457 -4.1312
  488SOL    HW2 1464   2.531   2.205   2.900  0.6516 -1.2936  0.4387
  489SOL     OW 1465   2.084   3.036   0.624 -0.1530 -0.3481 -0.2635
  489SOL    HW1 1466   2.096   2.965   0.549  3.3620 -1.3315 -2.8186
  489SOL    HW2 1467   2.155   0.011   0.618  2.1736  0.4890 -1.7320
  490SOL     OW 1468   1.022   2.232   2.933 -0.3411 -0.1594  0.2697
  490SOL    HW1 1469   1.098   2.230   2.863  1.0513 -0.3624  3.2100
  490SOL    HW2 1470   1.065   2.259   3.022 -0.7693  1.2495  0.5213
  491SOL     OW 1471   0.421   1.512   1.351 -0.0033  0.1197 -0.4287
  491SOL    HW1 1472   0.404   1.601   1.306 -0.1673  1.4021 -0.1588
  491SOL    HW2 1473   0.466   1.509   1.444  0.2370  1.4920  1.7811
  492SOL     OW 1474   1.213   1.163   1.834 -0.3954  0.2795 -0.4658
  492SOL    HW1 1475   1.119   1.136   1.854  1.5927 -2.4312  0.5121
  492SOL    HW2 1476   1.215   1.231   1.765 -0.9552 -0.8017 -1.4382
  493SOL     OW 1477   2.460   1.640   0.744 -0.6551  0.4963  0.5102
  493SOL    HW1 1478   2.393   1.664   0.813 -0.8607  0.9087 -1.5928
  493SOL    HW2 1479   2.543   1.696   0.765 -3.6594 -0.2529  1.5176
  494SOL     OW 1480   0.258   1.974   1.005  0.1321  0.0534  0.6631
  494SOL    HW1 1481   0.173   2.005   0.960 -2.6211 -0.0713  2.5755
  494SOL    HW2 1482   0.240   1.891   1.057  0.0770 -1.1475 -2.4555
  495SOL     OW 1483   2.253   2.610   0.888 -0.7177  0.4087  0.4230
  495SOL    HW1 1484   2.344   2.657   0.894  1.7781  0.4303 -1.0283
  495SOL    HW2 1485   2.243   2.539   0.960 -0.3827  0.9966 -1.9185
  496SOL     OW 1486   2.383   0.112   1.422 -0.6336  0.1481 -0.8207
  496SOL    HW1 1487   2.392   0.151   1.324  0.2521  1.6883  0.1403
  496SOL    HW2 1488   2.303   0.145   1.469  2.6060 -4.6585  2.7070
  497SOL     OW 1489   2.395   0.703   2.595  0.3093 -0.3376 -0.4120
  497SOL    HW1 1490   2.374   0.658   2.504 -3.7838 -0.9057 -1.5467
  497SOL    HW2 1491   2.387   0.805   2.585  0.0103 -0.7440 -1.1510
  498SOL     OW 1492   0.056   2.196   1.392 -0.2006  0.0637 -0.3348
  498SOL    HW1 1493   0.099   2.107   1.418  1.7317  2.0937  3.2805
  498SOL    HW2 1494   3.053   2.188   1.394  1.7369 -1.4131  0.1685
  499SOL     OW 1495   0.871   2.262   2.154  0.2123  0.2803 -0.4222
  499SOL    HW1 1496   0.786   2.262   2.212 -0.2318 -1.0138  0.3013
  499SOL    HW2 1497   0.931   2.339   2.182  0.8934  3.1764 -0.5426
  500SOL     OW 1498   1.209   2.204   0.474 -0.0392 -0.0545  0.5012
  500SOL    HW1 1499   1.130   2.267   0.459  2.9128 -0.7460  0.1478
  500SOL    HW2 1500   1.206   2.119   0.417 -3.3128  0.4740 -0.2576
  501SOL     OW 1501   1.748   3.003   1.459 -0.6047 -0.6103  0.0344
  501SOL    HW1 1502   1.738   3.021   1.356  0.6788  1.3008 -1.2555
  501SOL    HW2 1503   1.669   3.042   1.513 -1.4051 -1.2520  0.8883
  502SOL     OW 1504   2.493   0.582   1.724 -0.0921  0.9878  0.4940
  502SOL    HW1 1505   2.461   0.624   1.811 -0.8781  0.7464 -1.5438
  502SOL    HW2 1506   2.550   0.497   1.741 -0.4348  1.9204  0.4049
  503SOL     OW 1507   2.923   1.239   2.261  0.3940 -0.4877  0.2937
  503SOL    HW1 1508   3.025   1.259   2.265  0.9939  1.5542  0.4410
  503SOL    HW2 1509   2.890   1.266   2.169 -1.3003 -1.2284 -0.7802
  504SOL     OW 1510   1.703   0.989   1.352 -0.2477 -0.6895 -0.1106
  504SOL    HW1 1511   1.704   0.898   1.400 -0.0568  0.1465  0.0496
  504SOL    HW2 1512   1.629   0.992   1.281  2.3001 -3.1916  2.8438
  505SOL     OW 1513   0.556   2.938   1.334 -0.0436  0.1931  0.5525
  505SOL    HW1 1514   0.638   2.983   1.368 -3.1395  0.7367 -0.2956
  505SOL    HW2 1515   0.484   3.014   1.317 -1.6436  0.4112 -0.3628
  506SOL     OW 1516   2.951   0.240   0.267  0.2245  0.7469 -0.3578
  506SOL    HW1 1517   2.915   0.331   0.250 -3.9659  0.2793 -0.5355
  506SOL    HW2 1518   3.047   0.231   0.242 -1.9885  1.5739  1.4310
  507SOL     OW 1519   2.720   2.543   0.007 -0.4058  0.2067  0.2798
  507SOL    HW1 1520   2.760   2.502   3.021  0.9433  0.0666  0.7673
  507SOL    HW2 1521   2.766   2.504   0.088 -1.1644 -1.2198  0.8090
  508SOL     OW 1522   1.286   0.345   1.841 -0.0609  0.7172 -0.1306
  508SOL    HW1 1523   1.199   0.403   1.836  1.3931 -3.0425 -2.2968
  508SOL    HW2 1524   1.302   0.294   1.928 -1.4461 -0.0583  3.6110
  509SOL     OW 1525   1.710   1.838   1.275  0.5269  0.3230  0.2816
  509SOL    HW1 1526   1.701   1.790   1.362 -0.1043  2.2462 -0.5706
  509SOL    HW2 1527   1.619   1.876   1.253 -2.0913 -1.0871 -0.2537
  510SOL     OW 1528   2.521   0.806   1.213  0.1340 -0.2524 -0.3781
  510SOL    HW1 1529   2.558   0.724   1.257 -0.5245  0.0757 -1.8584
  510SOL    HW2 1530   2.490   0.871   1.282  1.4054 -2.2429  0.6199
  511SOL     OW 1531   1.241   1.815   1.267 -0.0603  0.2804  0.0480
  511SOL    HW1 1532   1.166   1.875   1.302  2.5243  0.7848  1.1451
  511SOL    HW2 1533   1.253   1.739   1.334  0.3259  1.0326 -1.8208
  512SOL     OW 1534   2.920   1.520   0.466  0.4011  0.2368  0.2845
  512SOL    HW1 1535   2.949   1.556   0.560 -0.2000  0.7290 -1.0885
  512SOL    HW2 1536   2.886   1.593   0.410 -0.3489 -0.0011  1.3823
  513SOL     OW 1537   0.055   1.496   0.030  0.3687  0.5028 -0.6798
  513SOL    HW1 1538   0.054   1.428   3.052 -1.5084 -0.0672  0.6594
  513SOL    HW2 1539   3.065   1.493   0.077 -1.2837 -0.0113 -3.4058
  514SOL     OW 1540   2.548   2.079   2.218  0.2803 -0.0842 -0.2097
  514SOL    HW1 1541   2.562   1.989   2.267 -0.7482 -0.4015 -2.3822
  514SOL    HW2 1542   2.483   2.134   2.275 -0.7930 -0.3494 -0.5060
  515SOL     OW 1543   2.119   1.126   0.664  0.2145  0.1274 -0.2193
  515SOL    HW1 1544   2.060   1.060   0.609 -0.6102 -0.9836 -1.7121
  515SOL    HW2 1545   2.198   1.160   0.613 -4.3348  1.6937  1.0638
  516SOL     OW 1546   2.327   2.811   0.188 -0.5968 -0.1141  0.4920
  516SOL    HW1 1547   2.251   2.815   0.120  1.0835 -2.0866 -1.7295
  516SOL    HW2 1548   2.391   2.732   0.165  0.8934 -0.4457 -2.0575
  517SOL     OW 1549   0.838   1.321   2.578 -0.4004  0.3899  0.1227
  517SOL    HW1 1550   0.931   1.288   2.598 -1.1817  0.4249 -0.5387
  517SOL    HW2 1551   0.843   1.391   2.508 -0.4221 -1.5461 -2.9197
  518SOL     OW 1552   0.288   0.206   2.128  0.5008  0.0734  0.0967
  518SOL    HW1 1553   0.353   0.132   2.153  1.4434  1.3583 -1.0933
  518SOL    HW2 1554   0.198   0.179   2.091 -1.1256 -1.9084 -0.5859
  519SOL     OW 1555   0.866   1.176   0.127 -0.6404  0.1428 -0.0503
  519SOL    HW1 1556   0.905   1.249   0.063  1.0417  1.1603 -1.0109
  519SOL    HW2 1557   0.905   1.196   0.222  0.0553  0.4431  4.4018
  520SOL     OW 1558   2.697   2.494   1.975 -0.6229  0.1376 -0.3762
  520SOL    HW1 1559   2.701   2.391   1.990  0.6922 -1.0863 -3.0090
  520SOL    HW2 1560   2.781   2.541   2.007 -0.9993  0.9606  0.7252
  521SOL     OW 1561   0.533   1.944   1.966 -0.2446 -0.2871 -0.0642
  521SOL    HW1 1562   0.555   1.898   2.053  0.0808  0.1934 -0.4779
  521SOL    HW2 1563   0.607   1.935   1.899 -2.9071  1.5792  2.2014
  522SOL     OW 1564   1.489   2.913   1.846  0.2025 -0.2515  0.7416
  522SOL    HW1 1565   1.420   2.856   1.795  3.7217  2.1999 -1.2379
  522SOL    HW2 1566   1.529   2.990   1.794  0.3210  3.0277 -5.1152
  523SOL     OW 1567   1.999   2.177   1.611  0.1357  0.4235  0.1891
  523SOL    HW1 1568   2.053   2.099   1.583  1.8295  0.8170  0.3564
  523SOL    HW2 1569   2.004   2.262   1.553 -1.7090  1.7084 -0.5518
  524SOL     OW 1570   0.584   2.663   0.414  0.0544  0.1203 -0.3148
  524SOL    HW1 1571   0.580   2.707   0.506 -2.8904 -0.1608  0.9345
  524SOL    HW2 1572   0.560   2.563   0.425 -0.2861 -0.1781  0.2918
  525SOL     OW 1573   2.945   0.230   0.606  0.7316  0.3409 -0.0939
  525SOL    HW1 1574   2.898   0.189   0.523  1.4867  2.9181 -0.4739
  525SOL    HW2 1575   2.951   0.162   0.682 -0.6967 -1.1480 -0.7770
  526SOL     OW 1576   0.976   0.011   0.513  0.2574  0.3902  0.4747
  526SOL    HW1 1577   0.877   0.031   0.490 -2.4199 -0.7296  0.0834
  526SOL    HW2 1578   0.990   3.072   0.604  0.7541  2.1776 -0.6111
  527SOL     OW 1579   1.803   1.611   0.890  0.3588  0.1233  0.0882
  527SOL    HW1 1580   1.846   1.560   0.966 -2.6257 -1.5193 -0.1097
  527SOL    HW2 1581   1.761   1.699   0.924  1.3949  0.7710 -0.7643
  528SOL     OW 1582   2.732   2.633   2.548 -0.0822 -0.4828  0.6362
  528SOL    HW1 1583   2.783   2.580   2.485 -2.5904  1.1640  1.3408
  528SOL    HW2 1584   2.707   2.723   2.508  0.5502  1.5979  0.8962
  529SOL     OW 1585   1.090   1.463   2.492  0.1093 -0.3588 -0.3032
  529SOL    HW1 1586   1.004   1.520   2.483 -1.9432  0.5895 -0.1223
  529SOL    HW2 1587   1.115   1.423   2.402 -2.5846 -1.2943 -1.4153
  530SOL     OW 1588   1.610   1.098   2.916  0.1430  0.0515  0.0960
  530SOL    HW1 1589   1.643   1.005   2.928  0.8644  1.7958 -0.9732
  530SOL    HW2 1590   1.641   1.120   2.820 -0.8470  0.8768 -2.6716
  531SOL     OW 1591   0.270   1.009   0.468 -0.5792 -0.2361 -0.1471
  531SOL    HW1 1592   0.324   1.063   0.539 -1.4723 -1.6660 -2.2737
  531SOL    HW2 1593   0.269   1.068   0.384  0.6802 -0.8594  2.2904
  532SOL     OW 1594   1.715   1.310   0.719  0.3496 -0.5315 -0.6838
  532SOL    HW1 1595   1.729   1.218   0.672 -0.5895 -3.4964  1.1840
  532SOL    HW2 1596   1.698   1.384   0.648  1.6672  1.0580  2.6546
  533SOL     OW 1597   0.595   0.243   2.422  0.3221  0.5058  0.4472
  533SOL    HW1 1598   0.580   0.142   2.446  0.9390  0.1113 -0.7620
  533SOL    HW2 1599   0.603   0.300   2.505  1.1269  0.4945  2.7293
  534SOL     OW 1600   0.730   2.947   2.896  0.5570 -0.1934 -0.4057
  534SOL    HW1 1601   0.760   2.849   2.911  2.6369  0.8727  0.1513
  534SOL    HW2 1602   0.797   2.998   2.839 -0.3686  0.7746 -1.4995
  535SOL     OW 1603   0.414   0.302   0.072 -0.0766  0.1681 -0.3956
  535SOL    HW1 1604   0.355   0.365   0.133  1.3394 -1.4423  2.5136
  535SOL    HW2 1605   0.355   0.244   0.012 -1.9697 -1.0536 -0.1716
  536SOL     OW 1606   0.342   0.852   2.332  0.4003  0.1877  0.2423
  536SOL    HW1 1607   0.388   0.935   2.296 -0.9777 -0.9214 -3.0996
  536SOL    HW2 1608   0.401   0.770   2.310  1.8295  0.3171  0.7132
  537SOL     OW 1609   1.203   0.141   1.251 -0.0135  0.1359 -0.6121
  537SOL    HW1 1610   1.167   0.104   1.165  3.3086  3.1975  0.5397
  537SOL    HW2 1611   1.174   0.237   1.260 -0.3834  0.6915 -0.7494
  538SOL     OW 1612   0.895   1.890   0.234 -0.1389  0.1767  0.0425
  538SOL    HW1 1613   0.905   1.993   0.234 -0.2178 -0.6944 -1.2179
  538SOL    HW2 1614   0.973   1.848   0.290  1.1786 -1.1068 -1.0217
  539SOL     OW 1615   2.620   1.256   1.762 -0.1297 -0.6251  0.0437
  539SOL    HW1 1616   2.682   1.201   1.705  0.2122  1.7099 -1.7063
  539SOL    HW2 1617   2.629   1.355   1.731 -1.0547 -0.8371  0.1816
  540SOL     OW 1618   2.010   1.716   1.952 -0.1641  0.6476  0.2143
  540SOL    HW1 1619   2.038   1.788   1.884 -1.3300  1.0977 -2.0727
  540SOL    HW2 1620   1.985   1.768   2.037  1.3296 -0.0890  1.2427
  541SOL     OW 1621   0.645   1.059   1.386  0.3085  0.5177 -0.5988
  541SOL    HW1 1622   0.720   1.117   1.415  0.8348 -3.0585 -2.8319
  541SOL    HW2 1623   0.641   1.066   1.283 -0.4668  0.0381 -0.5629
  542SOL     OW 1624   1.610   0.751   2.136 -0.5387 -0.6031 -0.2222
  542SOL    HW1 1625   1.689   0.816   2.148  2.9223  0.6900 -0.1780
  542SOL    HW2 1626   1.639   0.674   2.075 -1.7169 -0.9878  1.0642
  543SOL     OW 1627   1.165   0.586   0.381  0.4156  0.2649 -0.3614
  543SOL    HW1 1628   1.198   0.648   0.307  0.3224 -1.0337 -0.4296
  543SOL    HW2 1629   1.225   0.500   0.376  0.3111  0.6865  0.3634
  544SOL     OW 1630   2.786   1.852   2.069  0.2676 -0.0727 -0.4560
  544SOL    HW1 1631   2.694   1.802   2.045  0.8674 -0.2609 -1.4168
  544SOL    HW2 1632   2.784   1.871   2.169 -0.9108  0.2491  1.1186
  545SOL     OW 1633   1.755   2.138   1.694 -0.1793  0.0233  0.3441
  545SOL    HW1 1634   1.850   2.153   1.659 -0.1306  1.1661 -0.5772
  545SOL    HW2 1635   1.712   2.226   1.729  2.8154  2.6602 -0.0209
  546SOL     OW 1636   0.268   0.138   3.037  0.5457  0.1420  0.0943
  546SOL    HW1 1637   0.274   0.156   2.940 -0.1634  0.0886 -0.2433
  546SOL    HW2 1638   0.263   0.037   3.056 -0.4343 -0.3803  1.3948
  547SOL     OW 1639   2.126   0.988   0.249 -0.3281  0.1648  0.0306
  547SOL    HW1 1640   2.065   0.999   0.169  2.8736  0.6747 -0.2268
  547SOL    HW2 1641   2.222   1.000   0.223 -1.4335  0.2970  1.1894
  548SOL     OW 1642   2.628   1.786   2.588 -1.0250  0.1461  0.3544
  548SOL    HW1 1643   2.602   1.726   2.512 -0.4292 -0.6356  0.7450
  548SOL    HW2 1644   2.640   1.724   2.669  0.3764 -0.8581 -1.4468
  549SOL     OW 1645   2.171   0.279   0.816 -0.3903  0.0729 -0.6461
  549SOL    HW1 1646   2.118   0.241   0.894 -1.8993  0.4710 -4.2761
  549SOL    HW2 1647   2.221   0.206   0.762 -0.0607 -0.1452  1.3344
  550SOL     OW 1648   2.344   1.904   0.684  0.4816 -0.3876  0.0997
  550SOL    HW1 1649   2.443   1.930   0.685 -0.1829  2.4412  1.6127
  550SOL    HW2 1650   2.313   1.850   0.604 -1.1512  1.8065  3.3380
  551SOL     OW 1651   0.959   0.249   1.674 -0.3929  0.0656 -0.6698
  551SOL    HW1 1652   0.876   0.282   1.625 -2.1468 -0.8415 -1.9115
  551SOL    HW2 1653   1.037   0.303   1.637 -1.3832  1.7413  1.9488
  552SOL     OW 1654   0.224   2.481   2.588 -0.7371  0.1880  0.1676
  552SOL    HW1 1655   0.211   2.423   2.506 -2.0935 -0.2143  0.6313
  552SOL    HW2 1656   0.315   2.479   2.617 -1.8560  1.6764  0.1591
  553SOL     OW 1657   0.696   0.027   0.504 -0.0994 -0.4832 -0.3361
  553SOL    HW1 1658   0.631   0.053   0.424 -0.2716  0.5847 -0.7655
  553SOL    HW2 1659   0.647   3.081   0.580  3.0496  1.1575  0.4225
  554SOL     OW 1660   2.224   2.318   1.867  0.3717  0.0636  0.0491
  554SOL    HW1 1661   2.314   2.277   1.884 -1.1756 -1.7622  0.2778
  554SOL    HW2 1662   2.177   2.250   1.813  2.3220 -1.9316 -0.4098
  555SOL     OW 1663   1.320   2.096   1.995 -0.4093  0.0346 -0.2431
  555SOL    HW1 1664   1.387   2.114   2.065 -2.0014 -0.8020 -0.3373
  555SOL    HW2 1665   1.265   2.023   2.034 -2.0454  0.1843  0.3785
  556SOL     OW 1666   1.535   1.573   1.073  0.2162  0.5347 -0.1869
  556SOL    HW1 1667   1.566   1.661   1.109 -0.4681 -1.7082  2.6970
  556SOL    HW2 1668   1.445   1.572   1.028  1.4939 -1.4729  2.4130
  557SOL     OW 1669   2.036   2.337   2.072  0.3675 -0.6817 -0.1767
  557SOL    HW1 1670   2.103   2.310   2.001 -2.6901 -0.6231  2.8702
  557SOL    HW2 1671   2.084   2.376   2.153  0.2956  1.1040 -1.1498
  558SOL     OW 1672   0.436   0.340   1.945 -0.2434  0.0968 -0.3271
  558SOL    HW1 1673   0.365   0.314   2.012  2.5886  0.6990  0.0982
  558SOL    HW2 1674   0.505   0.411   1.973 -1.2960  0.6161  0.1616
  559SOL     OW 1675   2.305   2.859   1.372  0.8992  0.1470 -0.3180
  559SOL    HW1 1676   2.308   2.926   1.449  1.3215 -1.3952  2.1288
  559SOL    HW2 1677   2.228   2.874   1.308 -2.8124 -1.1148  0.9466
  560SOL     OW 1678   1.002   2.364   0.415  0.2707 -0.1103  0.0641
  560SOL    HW1 1679   0.926   2.376   0.482 -2.0935 -0.9019  1.1786
  560SOL    HW2 1680   1.001   2.452   0.358 -0.2381 -2.2431  1.2531
  561SOL     OW 1681   0.983   0.371   0.152  0.0437 -0.0636 -0.1622
  561SOL    HW1 1682   1.041   0.427   0.089  1.5375  2.1522 -1.1035
  561SOL    HW2 1683   1.003   0.375   0.254  2.6449 -0.4744  3.5280
  562SOL     OW 1684   0.650   0.435   2.646 -0.8217  0.2471  1.0255
  562SOL    HW1 1685   0.753   0.419   2.641  0.1176 -1.3203 -2.4364
  562SOL    HW2 1686   0.620   0.531   2.621  0.9195 -0.5329 -0.9292
  563SOL     OW 1687   1.601   1.977   2.781  0.4323  0.3181  0.1114
  563SOL    HW1 1688   1.686   1.989   2.830 -0.2031 -0.3649 -3.2273
  563SOL    HW2 1689   1.579   2.063   2.736  1.4119 -0.3498 -0.9403
  564SOL     OW 1690   2.801   0.947   0.620  0.2133 -0.0407 -0.0593
  564SOL    HW1 1691   2.730   0.896   0.670 -0.5937  0.6007 -1.2874
  564SOL    HW2 1692   2.826   1.027   0.676  1.6641 -0.1233  1.4248
  565SOL     OW 1693   1.250   0.373   2.658 -0.2855  0.0527  0.5520
  565SOL    HW1 1694   1.238   0.384   2.758  0.0837  0.1162  0.0481
  565SOL    HW2 1695   1.302   0.453   2.618 -0.4348  2.2112  1.6295
  566SOL     OW 1696   1.587   0.269   2.320  0.3291 -0.1391  0.2272
  566SOL    HW1 1697   1.508   0.241   2.381 -0.9103 -1.7262 -0.8881
  566SOL    HW2 1698   1.585   0.212   2.233  0.5409 -2.3378  0.9321
  567SOL     OW 1699   2.419   1.529   0.492 -0.6316 -0.2606  0.0707
  567SOL    HW1 1700   2.443   1.551   0.588  2.3258 -1.9260 -0.4054
  567SOL    HW2 1701   2.424   1.610   0.424 -3.4841  4.1283 -4.0170
  568SOL     OW 1702   1.758   1.997   0.471  0.0403 -0.4497  0.4135
  568SOL    HW1 1703   1.790   1.997   0.375 -0.8879  0.0380 -1.5313
  568SOL    HW2 1704   1.655   1.982   0.471 -0.5461 -3.8421  0.6359
  569SOL     OW 1705   2.154   1.671   2.631 -0.4882 -0.2384  0.6725
  569SOL    HW1 1706   2.237   1.709   2.579  0.0623  0.6798 -0.9781
  569SOL    HW2 1707   2.073   1.666   2.575  0.5253  0.6622  1.4540
  570SOL     OW 1708   3.075   2.998   1.720 -0.1626 -0.5414  0.0692
  570SOL    HW1 1709   3.004   3.036   1.785 -0.8328 -0.9492  1.2664
  570SOL    HW2 1710   0.070   3.028   1.753 -0.2816 -1.1979 -3.8892
  571SOL     OW 1711   0.127   0.277   2.473  0.3022  0.6028  0.0560
  571SOL    HW1 1712   0.043   0.304   2.422 -0.7146 -1.0507  0.6252
  571SOL    HW2 1713   0.191   0.355   2.486 -0.5581  0.3926 -0.3295
  572SOL     OW 1714   0.865   1.649   0.528  0.2047  0.0098 -0.3042
  572SOL    HW1 1715   0.817   1.586   0.591 -1.4749  1.8719  2.1902
  572SOL    HW2 1716   0.840   1.746   0.532  2.4444 -1.9080  0.6622
  573SOL     OW 1717   0.868   2.701   2.947  0.1170  0.0820 -0.0935
  573SOL    HW1 1718   0.939   2.754   2.899 -1.1818 -2.2763  1.8307
  573SOL    HW2 1719   0.880   2.698   3.052  0.5537  1.2965  3.5463
  574SOL     OW 1720   0.883   0.250   0.924  0.5143  0.0463 -0.0164
  574SOL    HW1 1721   0.853   0.231   1.023 -0.5919 -0.5736  1.4043
  574SOL    HW2 1722   0.798   0.275   0.871 -0.0780 -0.7319  0.5538
  575SOL     OW 1723   0.092   1.011   1.670 -0.3625  0.0261  0.0159
  575SOL    HW1 1724   0.010   0.994   1.611  0.7180  0.9297 -1.8844
  575SOL    HW2 1725   0.075   1.100   1.720  1.1364  0.4269 -2.5126
  576SOL     OW 1726   1.826   0.450   1.555  0.5559 -0.4441 -0.1846
  576SOL    HW1 1727   1.814   0.350   1.539  0.4101  3.0024 -0.8956
  576SOL    HW2 1728   1.826   0.493   1.464 -0.6933 -1.8712 -0.3161
  577SOL     OW 1729   0.178   1.131   1.995  0.1412 -0.0559 -0.1853
  577SOL    HW1 1730   0.100   1.068   2.015  0.3657  0.5673 -0.5551
  577SOL    HW2 1731   0.276   1.094   2.006  1.3758 -0.0354  0.8846
  578SOL     OW 1732   1.783   3.034   2.399 -0.1476  0.1567  0.2613
  578SOL    HW1 1733   1.817   0.033   2.401  1.1614  0.6680 -0.2836
  578SOL    HW2 1734   1.679   3.030   2.403 -2.5408  0.2042 -0.8287
  579SOL     OW 1735   2.117   2.035   1.987  0.3042  0.1441  0.1825
  579SOL    HW1 1736   2.120   2.044   2.088  2.6477  0.6164 -2.0812
  579SOL    HW2 1737   2.026   2.041   1.941 -2.7203 -0.0656  0.2342
  580SOL     OW 1738   2.142   1.652   2.236 -0.3696  0.0586 -0.5200
  580SOL    HW1 1739   2.062   1.707   2.215  0.4661 -0.0170 -0.0574
  580SOL    HW2 1740   2.177   1.598   2.154 -1.1317  0.8427  1.4540
  581SOL     OW 1741   1.344   1.103   2.967  0.1320 -0.2866  0.2908
  581SOL    HW1 1742   1.311   1.011   2.942 -0.1572  0.5940 -0.9914
  581SOL    HW2 1743   1.447   1.113   2.954  0.9001  0.4003  0.6458
  582SOL     OW 1744   0.928   2.216   1.452  0.0393  0.2752  0.1181
  582SOL    HW1 1745   0.859   2.145   1.476  1.9348 -1.8085 -1.8340
  582SOL    HW2 1746   1.024   2.175   1.435  1.6239  1.2634 -0.1112
  583SOL     OW 1747   1.275   1.212   1.298  0.2822 -0.2454 -0.5730
  583SOL    HW1 1748   1.182   1.173   1.282  0.2603 -0.7466 -0.8613
  583SOL    HW2 1749   1.329   1.193   1.213 -0.9018 -0.5100 -0.6986
  584SOL     OW 1750   1.396   2.440   0.718  0.3308  0.7992  0.0558
  584SOL    HW1 1751   1.414   2.401   0.626  0.8611  1.1657  0.6417
  584SOL    HW2 1752   1.299   2.439   0.741  0.5376  1.1410  1.0282
  585SOL     OW 1753   2.465   2.609   0.072  0.0251 -0.3857  0.2604
  585SOL    HW1 1754   2.566   2.583   0.054  2.0362  1.1486  2.3920
  585SOL    HW2 1755   2.412   2.599   3.082 -1.2230 -0.0387 -0.2923
  586SOL     OW 1756   2.668   1.806   0.521 -0.1958 -0.1133  0.3930
  586SOL    HW1 1757   2.587   1.818   0.460  0.5831 -0.4799 -0.6341
  586SOL    HW2 1758   2.656   1.861   0.607 -0.1678  0.0345 -0.2392
  587SOL     OW 1759   1.243   1.749   0.050  0.1520 -0.2591 -0.1087
  587SOL    HW1 1760   1.302   1.714   3.072  0.1077  0.1216  1.6709
  587SOL    HW2 1761   1.183   1.669   0.087  0.4150 -2.2078 -0.3938
  588SOL     OW 1762   0.382   0.405   0.851 -0.1196  0.3995  0.0195
  588SOL    HW1 1763   0.341   0.310   0.833 -0.0219 -1.6269 -3.4402
  588SOL    HW2 1764   0.351   0.447   0.940 -1.0084  1.6710  0.2680
  589SOL     OW 1765   1.195   0.285   0.629  0.0015 -0.3993 -0.6418
  589SOL    HW1 1766   1.126   0.287   0.551 -0.2159  4.2634 -0.5075
  589SOL    HW2 1767   1.173   0.342   0.711 -0.2174 -1.3134 -0.6647
  590SOL     OW 1768   2.122   2.285   3.075 -0.0274 -0.3564  0.1004
  590SOL    HW1 1769   2.053   2.313   0.049 -1.5209  2.0685 -0.9049
  590SOL    HW2 1770   2.139   2.357   3.008  2.5633 -2.5263  1.3552
  591SOL     OW 1771   0.150   2.720   2.164 -0.3643 -0.1744 -0.2342
  591SOL    HW1 1772   0.189   2.813   2.163  0.7693  0.7709 -0.1139
  591SOL    HW2 1773   0.158   2.690   2.066 -2.7372 -0.3298 -0.2996
  592SOL     OW 1774   0.036   1.471   2.233  0.1354  0.0426  0.1080
  592SOL    HW1 1775   0.090   1.390   2.265 -0.6464  0.4653 -0.7297
  592SOL    HW2 1776   0.096   1.534   2.176 -1.0663  3.0985 -0.3516
  593SOL     OW 1777   1.908   1.468   1.078  0.4915 -0.3131  0.2593
  593SOL    HW1 1778   1.955   1.521   1.150  1.0434 -0.9571 -0.8062
  593SOL    HW2 1779   1.855   1.385   1.106  0.0895  0.2863  0.0676
  594SOL     OW 1780   0.261   1.134   2.998 -0.0083 -0.2103  0.2918
  594SOL    HW1 1781   0.328   1.209   3.014 -2.3810  0.4903  1.7859
  594SOL    HW2 1782   0.177   1.172   2.960 -2.2935 -0.2967  1.8891
  595SOL     OW 1783   1.175   1.357   0.778 -0.1576 -0.7502  0.1518
  595SOL    HW1 1784   1.093   1.301   0.803 -0.6961 -0.8788 -0.1067
  595SOL    HW2 1785   1.152   1.431   0.711  0.8443 -0.6788 -0.1285
  596SOL     OW 1786   2.814   1.190   1.212  0.4549  0.0860  0.4476
  596SOL    HW1 1787   2.728   1.148   1.170  2.4753 -1.3422  1.6928
  596SOL    HW2 1788   2.856   1.263   1.152 -0.7068 -0.3977  0.0458
  597SOL     OW 1789   1.028   2.368   1.658 -0.1127  0.2497  0.2882
  597SOL    HW1 1790   0.986   2.316   1.581  0.7268 -0.2057 -1.8938
  597SOL    HW2 1791   1.046   2.299   1.731 -1.1762 -1.9815 -0.3577
  598SOL     OW 1792   2.293   2.600   1.866 -0.1058  0.6006 -0.2210
  598SOL    HW1 1793   2.278   2.502   1.842 -2.1782 -1.4337  0.4915
  598SOL    HW2 1794   2.308   2.655   1.783 -0.2475  0.7580  0.3284
  599SOL     OW 1795   0.624   1.043   0.139  0.0900 -0.0727 -0.3741
  599SOL    HW1 1796   0.723   1.072   0.138 -0.5010  0.4302  0.3471
  599SOL    HW2 1797   0.630   0.943   0.161  1.0387 -0.6664  1.5005
  600SOL     OW 1798   0.964   0.893   2.937 -0.2030  0.0665 -0.8901
  600SOL    HW1 1799   0.924   0.856   3.021  0.7766 -3.6724 -0.3114
  600SOL    HW2 1800   1.072   0.892   2.941  3.0986  0.3938  3.2052
  601SOL     OW 1801   0.806   0.613   1.717 -0.2377  0.0303  0.2916
  601SOL    HW1 1802   0.860   0.699   1.708 -3.5466 -1.0670  3.3094
  601SOL    HW2 1803   0.816   0.576   1.809  0.6731 -1.0005 -3.3783
  602SOL     OW 1804   0.319   2.392   0.679  0.4717 -0.4953 -0.3191
  602SOL    HW1 1805   0.306   2.299   0.715 -2.1527  1.5498  0.1168
  602SOL    HW2 1806   0.240   2.414   0.618 -0.3734  0.6343  2.4706
  603SOL     OW 1807   1.048   2.485   2.170  0.7138  0.4102  0.3636
  603SOL    HW1 1808   0.973   2.542   2.134  1.1953  0.0758 -0.8320
  603SOL    HW2 1809   1.136   2.513   2.132 -0.5251  0.5999 -1.0302
  604SOL     OW 1810   0.252   2.002   3.071  0.0054  0.3594 -0.0860
  604SOL    HW1 1811   0.308   1.929   3.036 -2.5920  3.0792  0.9404
  604SOL    HW2 1812   0.153   1.989   3.039 -0.5245  0.9567 -1.2532
  605SOL     OW 1813   2.229   1.307   1.888  0.4843  0.5040 -0.5912
  605SOL    HW1 1814   2.135   1.280   1.927 -4.1907 -1.0434  0.6627
  605SOL    HW2 1815   2.226   1.312   1.781  1.8933  0.6773 -2.1589
  606SOL     OW 1816   0.743   1.055   2.838 -0.0189  0.1017  0.1967
  606SOL    HW1 1817   0.696   1.114   2.907 -0.7896 -0.0445  0.5826
  606SOL    HW2 1818   0.819   1.000   2.866  1.9518 -1.0766 -1.6221
  607SOL     OW 1819   1.041   1.085   1.280 -0.0523  0.4331  0.7072
  607SOL    HW1 1820   1.097   1.012   1.326  0.8331 -0.3742 -0.5201
  607SOL    HW2 1821   0.976   1.042   1.215 -1.3741 -2.3125 -1.2510
  608SOL     OW 1822   2.878   1.755   1.827 -0.0164 -0.0921  0.5707
  608SOL    HW1 1823   2.876   1.797   1.920  0.4397 -1.0026 -3.5058
  608SOL    HW2 1824   2.877   1.825   1.750  0.5563  1.0258 -0.9688
  609SOL     OW 1825   2.281   0.056   0.348  0.4961 -0.4255  0.0191
  609SOL    HW1 1826   2.235   0.108   0.274 -0.4266 -1.5548  1.9172
  609SOL    HW2 1827   2.224   3.070   0.368  4.0587 -2.1614 -0.3749
  610SOL     OW 1828   2.956   2.591   1.262  0.3886 -0.1846  0.3958
  610SOL    HW1 1829   2.961   2.681   1.304 -0.6050 -2.2440 -1.0637
  610SOL    HW2 1830   3.029   2.531   1.297  0.6878  3.9326  1.8219
  611SOL     OW 1831   1.636   2.358   0.360  0.1505  0.1365 -0.0161
  611SOL    HW1 1832   1.662   2.290   0.290 -0.1071  0.7905 -0.5510
  611SOL    HW2 1833   1.549   2.340   0.413 -1.5001 -2.0835  2.2568
  612SOL     OW 1834   0.668   3.039   1.756  0.5467 -0.3137  0.8055
  612SOL    HW1 1835   0.767   3.019   1.742 -0.4091  0.2227 -0.9026
  612SOL    HW2 1836   0.663   0.041   1.775  3.0383 -1.0325  0.2596
  613SOL     OW 1837   2.926   1.874   0.552  0.2202 -0.6821  0.4371
  613SOL    HW1 1838   2.937   1.973   0.560 -0.0872  0.7615  2.6273
  613SOL    HW2 1839   2.835   1.854   0.510 -3.6216 -0.0701 -2.4691
  614SOL     OW 1840   1.908   0.412   1.818 -0.1134  0.7151 -0.1356
  614SOL    HW1 1841   1.978   0.485   1.851  0.3867  3.1076  1.4197
  614SOL    HW2 1842   1.883   0.433   1.723  2.1739  1.8169 -0.7632
  615SOL     OW 1843   1.285   1.545   0.975  0.2337 -0.0068  0.0300
  615SOL    HW1 1844   1.197   1.584   1.014  0.2610  1.3945  2.2997
  615SOL    HW2 1845   1.270   1.461   0.924  0.3812  1.3016 -4.0074
  616SOL     OW 1846   1.825   1.686   0.188 -0.0147 -0.2179  0.4634
  616SOL    HW1 1847   1.815   1.703   0.287 -4.9330  2.7322 -1.2555
  616SOL    HW2 1848   1.768   1.754   0.139 -2.8623 -0.1991 -1.5810
  617SOL     OW 1849   1.707   0.486   0.110  0.3805 -0.3015 -0.7051
  617SOL    HW1 1850   1.803   0.461   0.079 -1.2660 -1.5446 -0.3643
  617SOL    HW2 1851   1.690   0.466   0.205  0.6403  1.3723 -2.9634
  618SOL     OW 1852   0.631   0.693   2.589 -0.0443 -0.1911  0.2037
  618SOL    HW1 1853   0.710   0.689   2.525  1.4016 -0.2010 -3.0200
  618SOL    HW2 1854   0.594   0.789   2.600 -1.9134  2.6738  1.2159
  619SOL     OW 1855   2.667   1.477   1.055  0.2830  0.3810 -0.1601
  619SOL    HW1 1856   2.744   1.411   1.078  0.3570  0.2602 -0.7966
  619SOL    HW2 1857   2.637   1.471   0.958 -0.3306 -0.0698  1.1991
  620SOL     OW 1858   2.010   2.919   2.512  0.7139 -0.8269  0.0426
  620SOL    HW1 1859   1.918   2.951   2.476 -0.6891  1.8256  1.4419
  620SOL    HW2 1860   2.084   2.983   2.493 -1.1097 -1.7492  1.4698
  621SOL     OW 1861   2.868   1.588   2.911 -0.3557  0.3699  0.2530
  621SOL    HW1 1862   2.950   1.648   2.894 -0.7531  0.7758 -2.3215
  621SOL    HW2 1863   2.884   1.504   2.971 -1.0413 -1.3415  2.1665
  622SOL     OW 1864   1.610   0.108   2.092  0.3476 -0.2422 -0.3801
  622SOL    HW1 1865   1.604   0.008   2.096  0.3711 -1.4698 -2.7279
  622SOL    HW2 1866   1.663   0.137   2.009 -1.4424  0.0045  2.0281
  623SOL     OW 1867   0.773   2.398   1.004  0.1986  0.0314 -0.3709
  623SOL    HW1 1868   0.811   2.383   1.097  0.7895 -0.5830 -0.1558
  623SOL    HW2 1869   0.671   2.382   1.002 -0.2488 -1.8887 -4.0393
  624SOL     OW 1870   0.084   0.177   0.113  0.5966  0.0253  0.7728
  624SOL    HW1 1871   0.040   0.087   0.121 -1.3090  2.0033 -1.2743
  624SOL    HW2 1872   0.138   0.177   0.026  0.7940  1.3697 -1.3398
  625SOL     OW 1873   0.863   1.919   0.573 -0.3028  0.1441 -0.0461
  625SOL    HW1 1874   0.952   1.947   0.605 -0.4135 -2.9925 -0.2366
  625SOL    HW2 1875   0.805   1.998   0.544  1.6877  1.5022 -0.9768
  626SOL     OW 1876   2.725   0.291   3.064 -0.1534  0.0375  0.4313
  626SOL    HW1 1877   2.796   0.217   3.040  1.9574 -2.2604  0.9243
  626SOL    HW2 1878   2.649   0.264   0.025 -0.9587 -0.6318 -0.1090
  627SOL     OW 1879   1.302   1.936   2.821 -0.0225  0.4794 -0.4088
  627SOL    HW1 1880   1.401   1.916   2.832 -0.4220 -0.4329 -1.4305
  627SOL    HW2 1881   1.267   1.872   2.753  1.9192  1.4997  0.9224
  628SOL     OW 1882   0.081   2.706   2.991 -0.3120  0.0829  0.5034
  628SOL    HW1 1883   0.012   2.714   2.914 -0.7705 -1.4590 -0.1734
  628SOL    HW2 1884   0.042   2.681   3.082 -1.5733 -0.1581  0.6346
  629SOL     OW 1885   0.383   2.873   2.648  0.0469 -0.1682  0.1705
  629SOL    HW1 1886   0.382   2.859   2.751  0.4749 -0.3789  1.8526
  629SOL    HW2 1887   0.454   2.814   2.608  0.2548  0.8360 -0.0726
  630SOL     OW 1888   1.404   0.993   1.910 -0.2017  0.2062  0.1533
  630SOL    HW1 1889   1.416   0.921   1.844  3.4318  2.3911  0.1487
  630SOL    HW2 1890   1.324   1.040   1.884 -0.1054 -3.6637 -3.0001
  631SOL     OW 1891   1.903   1.094   0.078 -0.6009  0.7242 -0.1162
  631SOL    HW1 1892   1.866   1.124   0.169  0.0181 -3.3680 -0.6687
  631SOL    HW2 1893   1.895   1.166   0.010  2.1836 -0.0706  3.2975
  632SOL     OW 1894   2.628   0.373   1.988  0.5079 -0.1963  0.0485
  632SOL    HW1 1895   2.687   0.454   2.009 -1.0695  0.8127  2.5097
  632SOL    HW2 1896   2.628   0.344   1.892 -1.7293  0.3014 -1.4066
  633SOL     OW 1897   0.777   1.556   0.056 -0.6265 -0.6057  0.0368
  633SOL    HW1 1898   0.803   1.654   0.028 -0.1705  1.4133  1.8402
  633SOL    HW2 1899   0.836   1.481   0.010 -0.5033 -1.8820 -1.1847
  634SOL     OW 1900   2.242   2.769   2.534 -0.5845  0.7072 -0.0654
  634SOL    HW1 1901   2.275   2.777   2.434  0.9485  1.6459 -0.7700
  634SOL    HW2 1902   2.150   2.801   2.549  3.7082 -0.8529  0.3616
  635SOL     OW 1903   1.938   0.684   0.509 -0.0087  0.1732 -0.0470
  635SOL    HW1 1904   1.946   0.705   0.608 -4.7896  3.6972  1.7407
  635SOL    HW2 1905   1.996   0.609   0.480 -2.0247  1.3313 -0.3248
  636SOL     OW 1906   0.600   1.252   0.556 -0.1993 -0.2975  0.1261
  636SOL    HW1 1907   0.686   1.195   0.547 -3.0796  1.7484  1.4373
  636SOL    HW2 1908   0.541   1.220   0.477 -0.9199  0.7697 -1.5074
  637SOL     OW 1909   3.042   2.207   0.049 -0.7689  0.2627  0.9122
  637SOL    HW1 1910   2.963   2.189   3.082  2.0585 -1.9005 -0.6495
  637SOL    HW2 1911   3.048   2.130   0.111 -2.3588  0.7976  0.5340
  638SOL     OW 1912   1.294   2.714   2.468  0.0068 -0.0165 -0.3124
  638SOL    HW1 1913   1.252   2.754   2.384 -1.8250 -0.1155 -0.9675
  638SOL    HW2 1914   1.322   2.620   2.445  0.1439 -0.3363  3.4950
  639SOL     OW 1915   1.189   2.020   0.267  0.0528 -0.4861 -0.4082
  639SOL    HW1 1916   1.148   2.064   0.189  2.5541 -1.9753  2.7012
  639SOL    HW2 1917   1.163   1.924   0.281 -1.0714  1.0267 -1.0146
  640SOL     OW 1918   1.841   0.041   0.684 -0.5646 -0.7128  0.1185
  640SOL    HW1 1919   1.859   0.146   0.680  1.8787  1.3671  0.9435
  640SOL    HW2 1920   1.920   3.080   0.652 -1.2803 -1.0532 -1.7501
  641SOL     OW 1921   2.892   2.955   0.563  0.6798  0.3090  0.3887
  641SOL    HW1 1922   2.854   2.877   0.618  1.7354 -3.6039  3.4701
  641SOL    HW2 1923   2.814   2.998   0.507 -3.6000 -0.4519  0.8878
  642SOL     OW 1924   0.703   0.359   1.618 -0.5190  0.2551  0.0464
  642SOL    HW1 1925   0.744   0.441   1.654 -0.9235 -0.6216  2.1958
  642SOL    HW2 1926   0.640   0.310   1.688  0.6400 -0.3351  2.6753
  643SOL     OW 1927   0.640   1.265   2.269 -0.1787 -0.4467  0.3415
  643SOL    HW1 1928   0.617   1.290   2.365  2.2712  0.0170 -0.2185
  643SOL    HW2 1929   0.743   1.264   2.253  1.9948  0.0178 -1.2902
  644SOL     OW 1930   1.055   2.586   0.271  0.1980  0.0345  0.1851
  644SOL    HW1 1931   1.046   2.678   0.319  0.0158 -1.2574 -0.6134
  644SOL    HW2 1932   1.152   2.583   0.236  1.8863  2.7270 -2.3305
  645SOL     OW 1933   1.728   2.201   0.125  0.3044 -0.2166  0.3297
  645SOL    HW1 1934   1.732   2.264   0.050 -0.9996  0.1024  2.1806
  645SOL    HW2 1935   1.634   2.158   0.137  0.2671 -0.7075  1.2589
  646SOL     OW 1936   0.429   1.385   3.076  0.2989  0.0688  0.2611
  646SOL    HW1 1937   0.388   1.472   3.039 -1.4128  2.1807 -0.8726
  646SOL    HW2 1938   0.468   1.403   0.071  0.6414 -0.2464 -0.2657
  647SOL     OW 1939   0.794   0.150   1.151  0.2884  0.1985 -0.4261
  647SOL    HW1 1940   0.854   0.071   1.175 -0.2709 -1.4663  1.9060
  647SOL    HW2 1941   0.757   0.185   1.236  2.1348 -1.5772 -0.8296
  648SOL     OW 1942   1.593   0.653   1.221  0.1502  0.1961 -0.0955
  648SOL    HW1 1943   1.569   0.681   1.128  0.0912 -0.5534  1.0082
  648SOL    HW2 1944   1.677   0.700   1.253 -0.8190 -2.0939 -1.4382
  649SOL     OW 1945   1.329   2.003   3.072  0.0843 -0.1383 -0.2720
  649SOL    HW1 1946   1.306   1.994   2.973 -0.8392 -0.3286 -2.3688
  649SOL    HW2 1947   1.298   1.923   0.028  1.2493  1.2012 -1.0512
  650SOL     OW 1948   2.893   1.508   2.095  0.5104  0.2546 -0.1300
  650SOL    HW1 1949   2.830   1.554   2.164 -0.0984  0.9815  1.8661
  650SOL    HW2 1950   2.979   1.484   2.141  3.6665 -1.1443 -1.9905
  651SOL     OW 1951   1.373   2.581   2.924 -0.4426  0.1613 -0.2929
  651SOL    HW1 1952   1.419   2.495   2.900  0.4105  0.9412  1.9410
  651SOL    HW2 1953   1.281   2.586   2.880  0.5561 -0.4247  1.5784
  652SOL     OW 1954   2.795   1.824   3.037  0.2019  0.2736  0.5206
  652SOL    HW1 1955   2.819   1.741   2.986 -0.1541 -1.3136 -3.9868
  652SOL    HW2 1956   2.710   1.868   2.994 -0.1685  0.6987  0.9514
  653SOL     OW 1957   0.139   0.176   1.058 -0.5551  0.0860  0.1177
  653SOL    HW1 1958   0.099   0.081   1.077  0.4829 -3.3124  1.5308
  653SOL    HW2 1959   0.155   0.221   1.151 -0.8432  1.7387  0.4153
  654SOL     OW 1960   2.274   0.335   2.310  0.0315 -0.8377  0.7671
  654SOL    HW1 1961   2.358   0.304   2.252  3.2539  2.8232 -1.7966
  654SOL    HW2 1962   2.183   0.312   2.265 -1.6357  0.6530  0.1464
  655SOL     OW 1963   0.282   2.981   0.956 -0.1327 -0.1524 -0.4010
  655SOL    HW1 1964   0.266   2.915   0.878  0.9136 -0.7163 -1.0251
  655SOL    HW2 1965   0.371   3.018   0.964 -3.2826  0.1784 -1.7715
  656SOL     OW 1966   2.983   3.050   2.246 -0.2560 -0.4415 -0.6626
  656SOL    HW1 1967   3.039   3.095   2.170  1.5206  1.4637  0.7266
  656SOL    HW2 1968   3.027   3.072   2.337 -1.2961 -2.4154 -3.0536
  657SOL     OW 1969   2.673   0.672   2.660 -0.3502 -0.4671 -0.5075
  657SOL    HW1 1970   2.648   0.645   2.568  0.6420  0.3417  2.0211
  657SOL    HW2 1971   2.682   0.599   2.730  0.3466 -1.8636  1.1536
  658SOL     OW 1972   2.215   2.079   0.870  0.0186 -0.2327 -0.3062
  658SOL    HW1 1973   2.282   2.023   0.827 -0.4715 -1.8622 -1.0694
  658SOL    HW2 1974   2.224   2.086   0.970 -0.4946 -0.9817  1.1152
  659SOL     OW 1975   1.963   2.802   0.231 -0.4854 -0.4515  0.3054
  659SOL    HW1 1976   1.909   2.718   0.257 -0.0125  1.9735  0.8894
  659SOL    HW2 1977   1.988   2.808   0.134 -0.4732  1.8877  1.2472
  660SOL     OW 1978   1.639   1.238   2.656  0.0051 -0.0474 -0.4657
  660SOL    HW1 1979   1.538   1.226   2.664  0.4314  4.1274 -0.8792
  660SOL    HW2 1980   1.665   1.340   2.639  1.2158  1.1047 -2.9641
  661SOL     OW 1981   2.471   2.430   1.557 -0.5556 -0.5283  0.3434
  661SOL    HW1 1982   2.500   2.351   1.611  1.1686 -0.1510 -0.1057
  661SOL    HW2 1983   2.524   2.511   1.595  0.1172  1.5232  1.1021
  662SOL     OW 1984   0.809   0.859   0.418 -0.0869 -0.5244 -0.2190
  662SOL    HW1 1985   0.743   0.819   0.350  0.0407  1.5039 -0.3077
  662SOL    HW2 1986   0.857   0.786   0.475  0.8536 -0.5739  2.1412
  663SOL     OW 1987   1.897   2.319   0.482 -0.4790  0.2080 -0.0254
  663SOL    HW1 1988   1.916   2.256   0.556 -1.2025 -0.4354 -0.8482
  663SOL    HW2 1989   1.802   2.342   0.477  0.0732 -0.4673 -2.0741
  664SOL     OW 1990   0.826   1.756   1.368  0.6230 -0.9633  0.3565
  664SOL    HW1 1991   0.815   1.746   1.270  2.2745 -2.6936  2.7287
  664SOL    HW2 1992   0.910   1.811   1.394 -0.5379 -0.1926 -1.6779
  665SOL     OW 1993   1.816   2.159   2.167 -0.2443 -0.5691 -0.1544
  665SOL    HW1 1994   1.880   2.087   2.189  1.3991  0.6377 -1.2567
  665SOL    HW2 1995   1.873   2.242   2.137  2.5649  1.5334 -0.8462
  666SOL     OW 1996   0.151   2.460   0.318  0.2599 -0.0636 -0.8160
  666SOL    HW1 1997   0.222   2.532   0.313 -1.0642 -2.4424 -0.7687
  666SOL    HW2 1998   0.082   2.474   0.249  0.3857 -1.1283  0.8683
  667SOL     OW 1999   2.500   1.520   1.631  0.4676 -0.0157  0.3257
  667SOL    HW1 2000   2.475   1.594   1.696  1.0927  0.6234 -0.7195
  667SOL    HW2 2001   2.555   1.557   1.554  1.3603 -0.9151 -1.0907
  668SOL     OW 2002   0.434   0.596   2.743  0.3278 -0.3660  0.6457
  668SOL    HW1 2003   0.506   0.653   2.703 -1.1924 -1.0834  3.2289
  668SOL    HW2 2004   0.462   0.562   2.835 -1.1838  3.8374 -2.3460
  669SOL     OW 2005   1.906   2.313   2.814 -0.3355  0.2843  0.4696
  669SOL    HW1 2006   1.854   2.358   2.741  0.2268  0.5337 -0.3369
  669SOL    HW2 2007   2.003   2.348   2.821  1.4526  0.9014 -0.9680
  670SOL     OW 2008   2.620   1.626   2.802 -0.0618  0.2791 -0.0941
  670SOL    HW1 2009   2.580   1.534   2.807 -0.7023 -0.1906 -0.3126
  670SOL    HW2 2010   2.717   1.629   2.834  0.3853 -1.5529 -0.7094
  671SOL     OW 2011   0.277   1.502   1.047 -0.6139 -0.3802  0.0575
  671SOL    HW1 2012   0.200   1.528   0.983 -2.9992 -2.0240 -2.5695
  671SOL    HW2 2013   0.296   1.402   1.041 -0.1027  2.3579 -1.8838
  672SOL     OW 2014   2.575   0.829   2.164  0.6069  0.4606  0.1849
  672SOL    HW1 2015   2.656   0.873   2.130 -0.7075 -1.2743  0.7095
  672SOL    HW2 2016   2.509   0.898   2.207 -0.4622  1.0476  0.4112
  673SOL     OW 2017   2.473   2.646   2.064 -0.2023  0.6295 -0.0836
  673SOL    HW1 2018   2.560   2.592   2.051 -2.1251 -1.6467  0.9891
  673SOL    HW2 2019   2.421   2.659   1.980  0.0589 -0.0182  2.8756
  674SOL     OW 2020   1.326   2.532   2.088  0.1846  0.0423 -0.2581
  674SOL    HW1 2021   1.375   2.465   2.029 -0.3025 -1.0042 -0.3009
  674SOL    HW2 2022   1.343   2.518   2.186  0.1977 -0.3168 -0.6731
  675SOL     OW 2023   0.408   0.721   1.005  0.4797  0.3736 -0.2995
  675SOL    HW1 2024   0.414   0.780   1.085  1.0576  0.5112 -1.7893
  675SOL    HW2 2025   0.426   0.773   0.918  1.2522  2.0392 -0.6901
  676SOL     OW 2026   1.764   1.039   0.612 -0.0366 -0.0278 -0.1106
  676SOL    HW1 2027   1.693   0.964   0.611  0.0526 -1.4829 -1.4059
  676SOL    HW2 2028   1.856   1.005   0.580 -0.0341  2.8058 -1.4094
  677SOL     OW 2029   0.062   1.600   2.502 -0.0452  0.2143  0.4153
  677SOL    HW1 2030   0.040   1.543   2.417  0.1707  1.0390 -3.8593
  677SOL    HW2 2031   3.072   1.647   2.535  1.3901  2.3699  1.1908
  678SOL     OW 2032   2.627   1.744   1.132 -0.1109 -0.1342 -0.4357
  678SOL    HW1 2033   2.644   1.652   1.101 -0.8193 -0.9075 -1.6286
  678SOL    HW2 2034   2.551   1.784   1.084  0.7428 -0.4324  1.6791
  679SOL     OW 2035   1.916   2.706   0.554  0.1794  0.6458  0.2563
  679SOL    HW1 2036   2.015   2.690   0.537 -0.1341  1.3642 -0.3137
  679SOL    HW2 2037   1.884   2.637   0.623 -1.3662 -3.9256  0.0942
  680SOL     OW 2038   0.291   2.393   2.004 -0.7117 -0.2218 -0.3640
  680SOL    HW1 2039   0.386   2.354   1.987  5.2209  1.3968 -0.4314
  680SOL    HW2 2040   0.244   2.411   1.920  0.0473 -2.6684  0.4616
  681SOL     OW 2041   2.918   1.337   1.653  0.3493 -0.2290  0.6766
  681SOL    HW1 2042   3.005   1.288   1.684  1.8321 -1.0097  3.1881
  681SOL    HW2 2043   2.877   1.400   1.725 -3.6388  0.3190  0.0352
  682SOL     OW 2044   0.996   2.083   0.922  0.3562 -0.3114 -0.2781
  682SOL    HW1 2045   0.928   2.141   0.874  0.7547 -0.8928 -1.2459
  682SOL    HW2 2046   1.087   2.081   0.870 -0.6595 -0.8049 -0.5344
  683SOL     OW 2047   2.129   1.234   1.090 -0.3618  0.8639  0.6450
  683SOL    HW1 2048   2.044   1.244   1.030 -0.5095 -1.4143 -1.0947
  683SOL    HW2 2049   2.104   1.220   1.189 -2.8692  0.8819 -0.3115
  684SOL     OW 2050   0.009   1.752   2.813 -0.2325 -0.1469 -0.2307
  684SOL    HW1 2051   0.087   1.686   2.816  3.3693  1.2460 -0.2777
  684SOL    HW2 2052   3.082   1.770   2.716 -1.6679  1.3599 -0.4863
  685SOL     OW 2053   1.566   1.247   0.038 -0.0450 -0.0604  0.3386
  685SOL    HW1 2054   1.597   1.195   3.053  0.8044  0.6777  0.3557
  685SOL    HW2 2055   1.582   1.346   0.027  0.1289 -0.7318 -2.3027
  686SOL     OW 2056   0.146   0.805   1.354 -0.3998 -0.0352  0.1933
  686SOL    HW1 2057   0.230   0.837   1.312  0.0622 -1.5025 -0.5751
  686SOL    HW2 2058   0.166   0.782   1.453 -2.0736  1.6481 -1.3725
  687SOL     OW 2059   1.227   2.201   2.738  0.2132 -0.0053  0.0601
  687SOL    HW1 2060   1.241   2.099   2.729 -0.0997  3.1232 -0.2905
  687SOL    HW2 2061   1.252   2.247   2.653  2.2257  1.4809 -0.5191
  688SOL     OW 2062   0.512   1.830   1.622  0.1186 -0.4106  0.0495
  688SOL    HW1 2063   0.423   1.825   1.679 -1.4534  0.3057 -0.3610
  688SOL    HW2 2064   0.593   1.881   1.670  3.3964  4.1237 -0.2691
  689SOL     OW 2065   1.580   1.119   1.589 -0.1841  0.3648  0.1466
  689SOL    HW1 2066   1.484   1.101   1.570  1.1199 -1.8942  0.4096
  689SOL    HW2 2067   1.634   1.052   1.537 -3.3185 -1.3336  0.7123
  690SOL     OW 2068   2.440   0.833   0.956  0.1437  0.0450  0.0585
  690SOL    HW1 2069   2.472   0.852   1.050  0.1050  1.3077  0.9851
  690SOL    HW2 2070   2.359   0.890   0.933 -0.0535 -1.4204  0.9079
  691SOL     OW 2071   0.751   2.015   1.519  0.4913  0.8687  0.1309
  691SOL    HW1 2072   0.735   1.916   1.489  0.1068 -1.1297  0.7689
  691SOL    HW2 2073   0.740   2.030   1.620 -0.4736 -1.8783 -0.3305
  692SOL     OW 2074   2.085   0.081   1.317  0.1209  0.5830 -0.2057
  692SOL    HW1 2075   2.146   0.158   1.286  1.4306 -2.4361 -0.8752
  692SOL    HW2 2076   2.030   0.116   1.395 -0.6469  1.1588  1.0611
  693SOL     OW 2077   0.419   0.986   2.015 -0.2006 -0.1409 -0.2570
  693SOL    HW1 2078   0.511   1.008   2.061  1.7014 -0.5725  0.1695
  693SOL    HW2 2079   0.426   0.900   1.963 -0.6787  2.5960  5.7592
  694SOL     OW 2080   1.866   0.155   1.500 -0.4283 -0.6131 -0.7508
  694SOL    HW1 2081   1.913   0.153   1.590  0.0266 -1.6128  2.2482
  694SOL    HW2 2082   1.832   0.065   1.469  1.4419  1.6579  1.0171
  695SOL     OW 2083   1.225   1.372   1.626 -0.0867 -0.3435  0.0516
  695SOL    HW1 2084   1.146   1.402   1.566 -0.2141  2.4624 -0.8244
  695SOL    HW2 2085   1.269   1.296   1.576 -1.8552  0.5766  2.3868
  696SOL     OW 2086   1.624   2.907   3.096  0.2135 -0.4108  0.3071
  696SOL    HW1 2087   1.656   2.944   0.086  0.8890  2.3460 -1.1665
  696SOL    HW2 2088   1.664   2.815   3.090  1.1098 -0.8757  1.4555
  697SOL     OW 2089   0.918   0.612   0.491 -0.5158  0.6896  0.6404
  697SOL    HW1 2090   0.872   0.525   0.511  1.1424  1.1081 -0.3663
  697SOL    HW2 2091   1.013   0.597   0.446  3.2630 -0.7159 -1.9000
  698SOL     OW 2092   1.461   1.571   2.455  0.0242 -0.2116  0.3000
  698SOL    HW1 2093   1.542   1.560   2.518 -3.3359 -1.0577  1.6664
  698SOL    HW2 2094   1.388   1.506   2.474 -0.0177  0.3452 -1.8569
  699SOL     OW 2095   1.389   1.175   1.050 -0.1875 -0.0800 -0.3995
  699SOL    HW1 2096   1.461   1.246   1.051  0.0556 -0.5503  0.8251
  699SOL    HW2 2097   1.361   1.159   0.952  1.3428 -1.4302 -0.7830
  700SOL     OW 2098   1.394   2.989   0.521  0.1540  0.5189  0.2828
  700SOL    HW1 2099   1.423   2.893   0.496 -1.5144 -0.5530  0.0834
  700SOL    HW2 2100   1.478   3.042   0.557  1.0069  5.1099  3.6421
  701SOL     OW 2101   2.210   3.083   2.488 -0.4752 -0.1411  0.2146
  701SOL    HW1 2102   2.293   3.061   2.544 -0.2276  1.3363  0.5467
  701SOL    HW2 2103   2.188   0.089   2.502  0.4575  1.5589 -1.5243
  702SOL     OW 2104   1.021   0.110   0.035  0.2177  0.1472  0.0177
  702SOL    HW1 2105   0.980   0.174   0.101 -1.3360  1.7595  1.3458
  702SOL    HW2 2106   0.962   0.111   3.047 -1.5499 -0.1760  0.8516
  703SOL     OW 2107   2.369   2.750   2.300 -0.7053 -0.1091 -0.2735
  703SOL    HW1 2108   2.411   2.690   2.228 -0.1524  0.4819 -0.5902
  703SOL    HW2 2109   2.318   2.825   2.260 -0.3166 -0.4227 -1.5420
  704SOL     OW 2110   0.509   2.371   1.047 -0.1626 -0.0572 -0.6336
  704SOL    HW1 2111   0.437   2.309   1.004  0.0661 -1.2246  0.8604
  704SOL    HW2 2112   0.474   2.466   1.063  0.1200 -1.7505 -0.9459
  705SOL     OW 2113   2.497   0.255   2.177 -0.1954  0.0286  0.8328
  705SOL    HW1 2114   2.555   0.306   2.107  0.1911 -2.1358  1.1226
  705SOL    HW2 2115   2.478   0.160   2.146 -2.6477 -1.3853  3.9079
  706SOL     OW 2116   1.687   3.001   0.237 -0.1279 -0.1944 -0.4521
  706SOL    HW1 2117   1.727   2.960   0.320  1.2948  1.4561  1.8434
  706SOL    HW2 2118   1.659   0.002   0.254  2.0990 -1.6968 -1.5230
  707SOL     OW 2119   1.119   1.917   2.066 -0.4109 -0.1117  0.1000
  707SOL    HW1 2120   1.050   1.937   2.142  0.2337 -0.9388  1.9678
  707SOL    HW2 2121   1.100   1.836   2.009 -0.9511 -0.1653  1.2542
  708SOL     OW 2122   0.123   2.655   1.884  0.3532  0.2516  0.2122
  708SOL    HW1 2123   0.109   2.555   1.901 -1.8342 -0.8440 -1.6029
  708SOL    HW2 2124   0.082   2.673   1.794  0.6972  1.8081  3.3066
  709SOL     OW 2125   1.750   0.183   1.853  0.5181  0.2661 -0.1808
  709SOL    HW1 2126   1.820   0.260   1.832  2.4062  1.6543 -0.3854
  709SOL    HW2 2127   1.779   0.092   1.826 -0.2774 -2.8848  0.8481
  710SOL     OW 2128   2.110   0.856   2.184  0.1358  0.3081  0.4138
  710SOL    HW1 2129   2.076   0.877   2.091  1.9008 -0.4843 -0.7226
  710SOL    HW2 2130   2.033   0.813   2.236  0.4801  0.1696 -0.1930
  711SOL     OW 2131   0.898   2.153   0.237  0.3621 -0.1838 -0.1432
  711SOL    HW1 2132   0.953   2.223   0.282 -1.6759 -0.5051  4.0303
  711SOL    HW2 2133   0.876   2.190   0.145  0.9633  0.4794 -0.7092
  712SOL     OW 2134   0.606   2.619   2.274  0.2570  0.4738  0.0501
  712SOL    HW1 2135   0.517   2.593   2.234 -1.5914  1.4853 -1.7933
  712SOL    HW2 2136   0.643   2.682   2.206 -2.0346 -2.6567 -1.0683
  713SOL     OW 2137   1.857   1.200   0.345  0.0307  0.1748 -0.1649
  713SOL    HW1 2138   1.915   1.282   0.353  0.5729 -0.7374 -1.4160
  713SOL    HW2 2139   1.848   1.151   0.432  1.0792  3.5934 -0.3214
  714SOL     OW 2140   0.543   1.606   1.090 -0.4721  0.4350 -0.0616
  714SOL    HW1 2141   0.443   1.578   1.088 -0.3738 -0.9886 -3.5635
  714SOL    HW2 2142   0.584   1.615   1.184 -0.9879 -2.8643  4.1204
  715SOL     OW 2143   1.780   0.095   2.732  0.4303 -0.0245 -0.0919
  715SOL    HW1 2144   1.694   0.148   2.729  0.3054 -0.9226 -1.9428
  715SOL    HW2 2145   1.764   0.000   2.705  2.0566  2.5894 -1.1648
  716SOL     OW 2146   2.697   0.022   1.985 -0.0587 -0.2392 -0.1203
  716SOL    HW1 2147   2.600   0.013   2.021  1.2210  1.1799  4.1984
  716SOL    HW2 2148   2.751   3.031   1.979  0.9974  0.3263  0.5511
  717SOL     OW 2149   0.032   1.023   0.765 -0.5064  0.6385 -0.0820
  717SOL    HW1 2150   0.018   1.026   0.664 -2.4599 -1.5297  2.4339
  717SOL    HW2 2151   3.087   0.931   0.802 -1.4428 -1.6153 -0.9953
  718SOL     OW 2152   1.053   1.141   2.652 -0.2408 -0.4678  0.4835
  718SOL    HW1 2153   0.975   1.074   2.652  1.4923 -2.5295  1.2718
  718SOL    HW2 2154   1.065   1.183   2.744  2.5756  0.1338  0.4860
  719SOL     OW 2155   2.865   1.342   3.009 -0.1225  0.2354  0.3860
  719SOL    HW1 2156   2.866   1.333   0.017 -2.7721 -0.3719  3.1067
  719SOL    HW2 2157   2.770   1.333   2.967 -4.6847  0.1164  1.4195
  720SOL     OW 2158   1.176   0.911   0.894  0.6070  0.0837 -0.0062
  720SOL    HW1 2159   1.216   0.997   0.845  1.9000  0.2233 -2.0161
  720SOL    HW2 2160   1.076   0.901   0.873  0.2630  0.9981  0.2074
  721SOL     OW 2161   2.674   0.508   0.353 -0.2667  0.0796  0.4822
  721SOL    HW1 2162   2.649   0.548   0.266 -1.7855 -1.3177  0.1086
  721SOL    HW2 2163   2.736   0.574   0.402  0.9645  0.1801  1.3180
  722SOL     OW 2164   1.896   0.766   2.604 -0.3407 -0.4747 -0.2496
  722SOL    HW1 2165   1.937   0.691   2.654  0.4203  1.9213  0.7244
  722SOL    HW2 2166   1.789   0.771   2.614 -1.5293 -0.6105 -0.3064
  723SOL     OW 2167   2.900   0.688   0.577 -0.1548  0.2191  0.3280
  723SOL    HW1 2168   2.868   0.770   0.527 -2.3682  0.5008  0.5145
  723SOL    HW2 2169   2.998   0.664   0.564  2.7029  0.7810 -1.9722
  724SOL     OW 2170   0.909   1.249   2.233 -0.0880 -0.4009  0.6503
  724SOL    HW1 2171   0.933   1.183   2.158 -3.0651  2.3018  0.8927
  724SOL    HW2 2172   0.971   1.330   2.228  0.3373 -0.3568 -0.2575
  725SOL     OW 2173   2.058   0.901   1.901  0.3626  0.1982  0.1918
  725SOL    HW1 2174   2.146   0.913   1.851 -1.9355  1.6082 -0.9434
  725SOL    HW2 2175   1.984   0.963   1.870  0.9317 -0.6437 -0.7045
  726SOL     OW 2176   1.757   2.923   0.513  0.4504 -0.0606  0.3060
  726SOL    HW1 2177   1.822   2.855   0.542 -0.9748 -0.2691 -1.8661
  726SOL    HW2 2178   1.778   3.017   0.548  2.2116  2.4758  0.3090
  727SOL     OW 2179   1.529   1.283   2.179  0.1793  0.3016  0.1290
  727SOL    HW1 2180   1.558   1.210   2.116  0.3858  1.6933 -1.5758
  727SOL    HW2 2181   1.436   1.318   2.164  2.1674 -0.6500  1.1474
  728SOL     OW 2182   1.422   2.722   1.339 -0.3369 -0.1547 -0.3133
  728SOL    HW1 2183   1.361   2.637   1.344 -2.0687  0.2913  0.9152
  728SOL    HW2 2184   1.473   2.732   1.427  0.0858 -0.7757  2.4202
  729SOL     OW 2185   1.941   0.992   1.230 -0.2843  0.5527  0.0809
  729SOL    HW1 2186   2.009   0.997   1.306 -1.8823 -2.0839 -0.7847
  729SOL    HW2 2187   1.846   0.990   1.259  2.5360  0.2910  0.4929
  730SOL     OW 2188   0.333   1.657   2.452 -0.5507 -0.7538  0.4361
  730SOL    HW1 2189   0.237   1.633   2.474 -1.4360  2.5854 -0.8356
  730SOL    HW2 2190   0.357   1.623   2.357  0.8009  1.0448 -0.7087
  731SOL     OW 2191   0.290   0.161   0.804  0.3552  0.0215  0.5963
  731SOL    HW1 2192   0.247   0.123   0.718 -0.4138 -1.6583 -2.3919
  731SOL    HW2 2193   0.245   0.126   0.888  2.4272 -1.8664 -0.7065
  732SOL     OW 2194   1.233   0.856   0.255 -0.1865  0.0812 -0.0859
  732SOL    HW1 2195   1.312   0.896   0.202 -2.7302  0.5718  0.2016
  732SOL    HW2 2196   1.143   0.898   0.245  1.6551 -0.5364  0.0702
  733SOL     OW 2197   0.575   2.094   0.709  0.6663 -0.3018 -0.0345
  733SOL    HW1 2198   0.552   1.999   0.731 -0.6251 -1.8877  0.9590
  733SOL    HW2 2199   0.604   2.106   0.613  0.0837 -1.9055  0.9248
  734SOL     OW 2200   0.040   2.417   2.811 -0.1710 -0.5108 -0.3734
  734SOL    HW1 2201   0.077   2.481   2.744 -2.1003 -0.4117  0.6835
  734SOL    HW2 2202   0.108   2.403   2.883 -1.1039  0.2784 -2.2886
  735SOL     OW 2203   1.194   0.833   1.327 -0.5622 -0.7299  0.0015
  735SOL    HW1 2204   1.176   0.786   1.236  1.4077 -3.0768  0.0783
  735SOL    HW2 2205   1.273   0.781   1.371 -1.0806 -1.1498 -0.5807
  736SOL     OW 2206   2.127   2.479   2.904  0.2636  0.0371  0.4863
  736SOL    HW1 2207   2.050   2.545   2.933  1.1720  1.5783  1.3202
  736SOL    HW2 2208   2.213   2.530   2.886  1.3629 -0.4082  0.5275
  737SOL     OW 2209   2.762   0.047   0.836 -0.1428  0.2200  0.2260
  737SOL    HW1 2210   2.818   3.097   0.904  0.2877  2.3407 -0.2413
  737SOL    HW2 2211   2.729   0.137   0.874 -2.0466  0.4634 -1.2573
  738SOL     OW 2212   2.427   0.203   1.162 -0.6103  0.3398 -0.2441
  738SOL    HW1 2213   2.417   0.302   1.143 -0.1956  1.0118  0.8084
  738SOL    HW2 2214   2.425   0.152   1.077  1.7300 -2.5673  0.3380
  739SOL     OW 2215   1.783   2.594   0.321 -0.6011 -0.4361  0.4992
  739SOL    HW1 2216   1.768   2.499   0.343  0.4858  2.8175 -1.9488
  739SOL    HW2 2217   1.819   2.633   0.407 -0.4491  0.9686 -0.6060
  740SOL     OW 2218   1.481   0.275   0.963 -0.3478 -0.3514  0.2253
  740SOL    HW1 2219   1.419   0.223   0.905  1.7136 -1.7545 -2.0256
  740SOL    HW2 2220   1.559   0.302   0.903  0.4475  0.7275  1.5317
  741SOL     OW 2221   2.594   0.841   0.727  0.1147  0.4446  0.5011
  741SOL    HW1 2222   2.536   0.808   0.807  0.8629  0.7580  0.2230
  741SOL    HW2 2223   2.526   0.874   0.659 -0.3279 -0.5070 -4.2908
  742SOL     OW 2224   0.917   1.982   2.255  0.2230 -0.0641  0.2225
  742SOL    HW1 2225   0.947   2.014   2.345 -1.1348  1.1348 -0.8872
  742SOL    HW2 2226   0.868   2.059   2.205 -0.3589 -0.0158  0.5033
  743SOL     OW 2227   1.806   0.792   1.754 -0.5095  0.2210 -0.2674
  743SOL    HW1 2228   1.849   0.879   1.784  2.7408  2.6078 -0.5175
  743SOL    HW2 2229   1.860   0.711   1.781 -0.1203 -2.1292 -1.0150
  744SOL     OW 2230   2.153   0.611   1.359 -0.0523 -0.3529  0.5027
  744SOL    HW1 2231   2.232   0.616   1.298 -2.2632  1.2780 -1.8342
  744SOL    HW2 2232   2.156   0.693   1.419  1.8393  2.2305  0.3729
  745SOL     OW 2233   1.796   1.390   1.441 -0.0296  0.0124 -0.0450
  745SOL    HW1 2234   1.708   1.429   1.472  0.8980 -0.4502 -3.3434
  745SOL    HW2 2235   1.801   1.372   1.341  1.8742  1.0731 -2.5664
  746SOL     OW 2236   2.058   1.689   0.776  0.7328 -0.0028 -0.5260
  746SOL    HW1 2237   1.969   1.657   0.814 -0.7772  0.4931 -0.5953
  746SOL    HW2 2238   2.142   1.671   0.828 -0.7115  2.7513 -1.8108
  747SOL     OW 2239   1.923   1.224   0.890  0.0895 -0.1212 -0.5432
  747SOL    HW1 2240   1.991   1.210   0.818 -0.0136  0.1648 -0.4712
  747SOL    HW2 2241   1.860   1.295   0.852  1.4909 -0.4218 -0.9505
  748SOL     OW 2242   0.378   2.196   0.893 -0.1714 -0.1928 -0.7940
  748SOL    HW1 2243   0.334   2.122   0.950 -4.2926 -1.5012  1.7117
  748SOL    HW2 2244   0.456   2.164   0.836  1.7349 -1.0048 -1.0377
  749SOL     OW 2245   2.443   3.074   2.041  0.4967  0.0068  0.0009
  749SOL    HW1 2246   2.371   3.047   2.115 -0.7722  0.5308  2.8956
  749SOL    HW2 2247   2.407   3.062   1.943 -1.5935  0.0998  0.7956
  750SOL     OW 2248   2.381   0.563   0.947 -0.0017  0.9889  0.1302
  750SOL    HW1 2249   2.316   0.528   0.869  0.9332 -1.6990 -1.2996
  750SOL    HW2 2250   2.380   0.664   0.946 -3.2753 -1.5562 -0.2368
  751SOL     OW 2251   2.510   3.013   0.462  0.5796  0.1252  0.4510
  751SOL    HW1 2252   2.567   2.977   0.386  0.5121 -0.9592  1.0989
  751SOL    HW2 2253   2.432   3.081   0.436 -0.2878  3.1304  2.3179
  752SOL     OW 2254   0.261   2.813   0.753 -0.4310 -0.1851  0.1153
  752SOL    HW1 2255   0.311   2.730   0.787  1.9376  0.8970  4.8709
  752SOL    HW2 2256   0.252   2.820   0.647 -0.7503 -1.8148  1.4089
  753SOL     OW 2257   1.719   0.520   2.007  0.4030 -0.6932 -0.2600
  753SOL    HW1 2258   1.625   0.532   1.963 -1.5917  0.3908  0.4777
  753SOL    HW2 2259   1.784   0.470   1.946 -0.8985 -0.4704 -0.7876
  754SOL     OW 2260   1.656   2.373   1.766 -0.6020 -0.2277 -0.4448
  754SOL    HW1 2261   1.750   2.407   1.794 -0.6234  1.6278 -0.3356
  754SOL    HW2 2262   1.609   2.439   1.703 -1.0091  0.6022  1.2803
  755SOL     OW 2263   2.756   0.434   0.705  0.0130 -0.3216  0.5352
  755SOL    HW1 2264   2.765   0.515   0.648 -3.9642 -1.1019 -1.2462
  755SOL    HW2 2265   2.822   0.364   0.674  1.3233 -1.5996  2.7998
  756SOL     OW 2266   1.414   1.664   2.888 -0.6578 -0.2886  0.0955
  756SOL    HW1 2267   1.377   1.685   2.796  1.6211 -0.2310 -0.3806
  756SOL    HW2 2268   1.515   1.684   2.887 -0.8586 -2.5711 -3.6305
  757SOL     OW 2269   1.130   0.084   0.966 -0.0707 -0.5209 -1.4400
  757SOL    HW1 2270   1.107   0.014   0.900  1.5868 -1.0999  0.5294
  757SOL    HW2 2271   1.073   0.169   0.959  1.5495  0.2255 -0.1040
  758SOL     OW 2272   0.756   0.211   1.395  0.4051  0.1667  0.6556
  758SOL    HW1 2273   0.726   0.272   1.469 -0.4497 -3.9368 -3.2565
  758SOL    HW2 2274   0.757   0.113   1.417 -0.6375 -1.1628 -0.8670
  759SOL     OW 2275   0.286   0.500   1.094 -0.6380  0.7132  0.0116
  759SOL    HW1 2276   0.340   0.582   1.070 -1.4259 -0.4056  1.4654
  759SOL    HW2 2277   0.198   0.527   1.141 -3.5127 -0.3670  2.7909
  760SOL     OW 2278   2.346   1.358   0.951  0.1841  0.2058 -0.3526
  760SOL    HW1 2279   2.405   1.283   0.918  2.1997 -0.6762 -0.5729
  760SOL    HW2 2280   2.250   1.327   0.957  1.2108 -1.0526  0.4552
  761SOL     OW 2281   1.523   0.530   0.480 -0.1337  0.5972  0.4021
  761SOL    HW1 2282   1.460   0.473   0.424 -1.6263  3.3989  1.3460
  761SOL    HW2 2283   1.477   0.549   0.570 -4.3583 -0.2170 -1.3381
  762SOL     OW 2284   2.003   2.294   1.059  0.2603 -0.1512 -0.8498
  762SOL    HW1 2285   1.976   2.293   0.960 -0.2899 -2.4650 -1.0865
  762SOL    HW2 2286   1.958   2.373   1.106  2.1265 -0.3134 -1.3440
  763SOL     OW 2287   1.442   1.453   1.756 -0.1086  0.0992  1.0062
  763SOL    HW1 2288   1.423   1.518   1.826 -0.9591 -1.6714  1.6716
  763SOL    HW2 2289   1.352   1.435   1.706  1.2446 -2.9403 -1.3916
  764SOL     OW 2290   2.805   1.943   2.337  0.1054 -0.2429 -0.2155
  764SOL    HW1 2291   2.902   1.971   2.356 -0.9530 -0.0680  0.6829
  764SOL    HW2 2292   2.752   2.014   2.377  0.2413 -0.9567  0.0637
  765SOL     OW 2293   0.877   2.664   1.039  0.1831  0.1870  0.0095
  765SOL    HW1 2294   0.831   2.577   1.003 -1.5494 -2.6736  1.7070
  765SOL    HW2 2295   0.979   2.651   1.051 -0.3191  0.8738  2.8322
  766SOL     OW 2296   0.556   1.854   2.477 -0.4635  0.5642  0.6880
  766SOL    HW1 2297   0.468   1.811   2.492  2.4634 -0.6139  0.2754
  766SOL    HW2 2298   0.623   1.810   2.543 -1.7201  0.5332 -2.6320
  767SOL     OW 2299   1.909   0.779   2.338 -0.2326 -0.1933  0.3282
  767SOL    HW1 2300   1.843   0.858   2.331  0.4061 -0.7157  0.6331
  767SOL    HW2 2301   1.918   0.750   2.436 -2.1570 -0.8169 -1.5582
  768SOL     OW 2302   1.185   2.652   2.723  0.4978  0.4114  0.0368
  768SOL    HW1 2303   1.243   2.684   2.645 -0.5397  0.6436  0.9474
  768SOL    HW2 2304   1.136   2.728   2.766  0.0993 -1.6841  0.6070
  769SOL     OW 2305   2.962   2.413   0.927 -0.3918  0.4332 -0.0548
  769SOL    HW1 2306   2.875   2.449   0.955 -0.7579 -4.2155 -2.6688
  769SOL    HW2 2307   3.035   2.432   0.995 -0.0570 -0.7725  2.6999
  770SOL     OW 2308   0.651   3.016   0.045  0.2556 -0.6921 -0.3666
  770SOL    HW1 2309   0.655   2.927   0.099  2.8318  0.6128 -2.5914
  770SOL    HW2 2310   0.686   2.998   3.049 -3.4896  0.7641  0.3140
  771SOL     OW 2311   1.154   2.354   2.388 -0.1491  0.2042  0.3801
  771SOL    HW1 2312   1.117   2.384   2.298 -1.5081  2.9574 -3.8934
  771SOL    HW2 2313   1.098   2.398   2.463  2.0256  0.8892  1.0019
  772SOL     OW 2314   2.165   0.161   1.987 -0.0966  0.1034 -0.2325
  772SOL    HW1 2315   2.102   0.198   2.055  1.1677  2.2129  3.8547
  772SOL    HW2 2316   2.145   0.062   1.970 -2.4455  0.6764 -1.9787
  773SOL     OW 2317   1.038   2.953   1.955  0.3664 -0.1139 -0.1968
  773SOL    HW1 2318   1.105   2.878   1.969  0.4356 -1.3256 -0.4271
  773SOL    HW2 2319   1.061   3.038   2.006 -0.4637  1.9796  0.0574
  774SOL     OW 2320   1.403   0.900   2.167  0.6826  0.9354 -0.5499
  774SOL    HW1 2321   1.417   0.958   2.091  0.7821 -1.8827  2.8045
  774SOL    HW2 2322   1.469   0.823   2.159 -0.7600  0.5609 -3.2738
  775SOL     OW 2323   2.157   2.927   0.388  0.7781  0.5206 -0.2474
  775SOL    HW1 2324   2.240   2.887   0.348 -1.6394 -0.6530  0.2502
  775SOL    HW2 2325   2.074   2.909   0.330  0.3359  1.7346  1.2624
  776SOL     OW 2326   2.434   1.129   1.896 -0.4844 -0.3611 -0.2399
  776SOL    HW1 2327   2.511   1.180   1.858 -3.5732  0.4653  1.5874
  776SOL    HW2 2328   2.359   1.193   1.904  0.4575 -2.6465 -1.0056
  777SOL     OW 2329   0.029   1.096   2.485  0.3743  0.4266 -0.1288
  777SOL    HW1 2330   0.053   0.997   2.498  2.7611  1.3516 -0.3360
  777SOL    HW2 2331   0.024   1.131   2.390  0.9406  1.0946  0.1733
  778SOL     OW 2332   2.362   0.990   2.274  0.0671  0.4084  0.5513
  778SOL    HW1 2333   2.276   0.965   2.225  0.5651 -0.6418 -0.2101
  778SOL    HW2 2334   2.347   1.008   2.377 -0.3078  1.1865 -1.7312
  779SOL     OW 2335   2.974   0.154   3.032  0.4922 -0.5720 -0.2495
  779SOL    HW1 2336   3.012   0.146   0.026 -2.0894  0.5775  1.3293
  779SOL    HW2 2337   2.994   0.078   2.972  1.7379  0.7876  2.0367
  780SOL     OW 2338   2.248   3.007   2.230  0.8632 -0.1226  0.4278
  780SOL    HW1 2339   2.253   3.046   2.320  0.0542 -2.0198 -4.8234
  780SOL    HW2 2340   2.150   2.997   2.207 -1.3057 -2.0173  3.3095
  781SOL     OW 2341   0.218   0.828   1.811  0.0670 -0.0072  0.2763
  781SOL    HW1 2342   0.171   0.916   1.786 -0.1387  2.2314 -0.2660
  781SOL    HW2 2343   0.183   0.801   1.905 -1.5299  0.2006  1.5064
  782SOL     OW 2344   2.149   2.055   0.098  0.2522  0.0785  0.7034
  782SOL    HW1 2345   2.241   2.008   0.091  0.3443 -2.3173  0.8490
  782SOL    HW2 2346   2.153   2.144   0.049  0.5594 -1.4005  1.1086
  783SOL     OW 2347   0.576   2.272   1.314  0.2770 -0.4288 -0.0462
  783SOL    HW1 2348   0.564   2.317   1.219 -1.5097  0.6648 -1.8464
  783SOL    HW2 2349   0.674   2.254   1.338  0.8043  1.2880 -0.3726
  784SOL     OW 2350   2.592   0.667   2.364  0.1199 -0.0208  0.2739
  784SOL    HW1 2351   2.500   0.629   2.366  1.5242  0.2074  0.4505
  784SOL    HW2 2352   2.593   0.731   2.286 -2.6374  0.9971 -1.0238
  785SOL     OW 2353   0.190   0.282   1.311 -0.5951 -0.3036 -0.0309
  785SOL    HW1 2354   0.262   0.352   1.294 -1.9139  2.3779  0.3080
  785SOL    HW2 2355   0.143   0.304   1.400  1.0952  0.0423  0.9081
  786SOL     OW 2356   1.521   2.766   0.451 -0.0416  0.3112 -0.0135
  786SOL    HW1 2357   1.501   2.707   0.373  1.9977 -1.3349  1.9427
  786SOL    HW2 2358   1.620   2.796   0.450 -2.7676 -1.3796 -1.5894
  787SOL     OW 2359   1.330   0.136   0.796  0.0438 -0.5796  0.0337
  787SOL    HW1 2360   1.291   0.166   0.710 -1.9871  1.2606 -0.6075
  787SOL    HW2 2361   1.256   0.115   0.863  1.8440 -2.2265 -1.9020
  788SOL     OW 2362   2.940   1.362   1.043 -0.1919 -0.4400 -0.3486
  788SOL    HW1 2363   2.933   1.381   0.945 -1.7400  1.0007  3.2209
  788SOL    HW2 2364   3.026   1.308   1.062  2.0111 -0.1549  0.2837
  789SOL     OW 2365   2.827   0.606   2.058  1.0463  0.3910  0.1896
  789SOL    HW1 2366   2.842   0.706   2.072 -1.3756  2.0260 -4.1717
  789SOL    HW2 2367   2.830   0.563   2.152  0.5090  1.2405 -4.5332
  790SOL     OW 2368   0.788   0.455   3.018  0.0290 -0.3114  0.1218
  790SOL    HW1 2369   0.837   0.440   2.935 -1.3761  2.3130  3.3183
  790SOL    HW2 2370   0.839   0.426   0.005 -1.2374 -0.4736  3.4378
  791SOL     OW 2371   2.736   2.815   3.089  0.1764 -0.3041 -0.1162
  791SOL    HW1 2372   2.686   2.850   3.006 -0.1332  0.2185  0.4994
  791SOL    HW2 2373   2.747   2.715   3.077 -1.6856 -1.6364  1.6036
  792SOL     OW 2374   1.481   0.780   1.718 -0.2991 -0.0001  0.1864
  792SOL    HW1 2375   1.454   0.745   1.627 -1.4637 -2.0839  1.0885
  792SOL    HW2 2376   1.582   0.797   1.718 -0.5531 -1.5293  1.6528
  793SOL     OW 2377   2.822   0.669   1.217  0.7575  0.1729  0.2606
  793SOL    HW1 2378   2.728   0.649   1.184 -0.5045  3.1458  0.4880
  793SOL    HW2 2379   2.858   0.748   1.162 -1.0185 -3.4722  0.9590
  794SOL     OW 2380   3.000   0.283   2.301  0.0961  0.4067 -0.3082
  794SOL    HW1 2381   2.923   0.350   2.293 -1.2620 -2.2906  2.7259
  794SOL    HW2 2382   2.994   0.209   2.233 -2.2443  0.3145  2.0813
  795SOL     OW 2383   0.826   1.807   3.077 -0.2721 -0.7404 -0.0051
  795SOL    HW1 2384   0.832   1.885   3.009 -2.3265 -0.9910  4.1712
  795SOL    HW2 2385   0.853   1.840   0.073  2.6944  0.2773 -1.2328
  796SOL     OW 2386   2.237   0.570   2.774  0.3575  0.4958 -0.4081
  796SOL    HW1 2387   2.293   0.634   2.718  0.3208  0.3465 -1.2779
  796SOL    HW2 2388   2.140   0.577   2.747  0.6307 -1.6338  1.5710
  797SOL     OW 2389   2.537   1.867   2.892  0.0632  0.3485 -0.2412
  797SOL    HW1 2390   2.566   1.794   2.825  0.7928  1.4115 -4.1128
  797SOL    HW2 2391   2.448   1.909   2.864 -4.9521  1.3433  1.4313
  798SOL     OW 2392   2.888   0.232   1.443  0.0989 -0.3551  0.8219
  798SOL    HW1 2393   2.929   0.260   1.531 -0.6059  0.5230 -0.1283
  798SOL    HW2 2394   2.902   0.304   1.369 -0.0094  2.9200  1.1835
  799SOL     OW 2395   0.301   0.338   1.695 -0.6175 -0.0654 -0.0853
  799SOL    HW1 2396   0.340   0.377   1.607  1.0842  0.8108 -1.4821
  799SOL    HW2 2397   0.371   0.347   1.773  1.3693 -2.3453  1.2632
  800SOL     OW 2398   0.417   1.753   0.199 -0.0195 -0.1705  0.0068
  800SOL    HW1 2399   0.316   1.749   0.196 -0.5513 -0.1079 -0.6866
  800SOL    HW2 2400   0.461   1.663   0.196 -1.8908  2.5503 -0.2243
  801SOL     OW 2401   1.647   1.829   0.942  0.4144  0.0268 -0.6582
  801SOL    HW1 2402   1.564   1.857   0.997 -1.9574 -1.3726 -0.3359
  801SOL    HW2 2403   1.729   1.885   0.959 -0.9006 -0.2204  1.7805
  802SOL     OW 2404   1.465   0.906   0.061  1.1863  0.6133 -0.8259
  802SOL    HW1 2405   1.416   0.983   0.019  0.9197 -1.1656  2.9061
  802SOL    HW2 2406   1.559   0.907   0.024 -2.9189  0.7369 -1.5410
  803SOL     OW 2407   1.095   1.715   1.832  0.9931  0.2391 -0.3219
  803SOL    HW1 2408   1.114   1.782   1.757  0.0539  0.2891 -0.9430
  803SOL    HW2 2409   1.047   1.629   1.806 -2.4623  2.2167  2.3796
  804SOL     OW 2410   1.656   2.379   1.167  0.5197  0.0332 -0.4965
  804SOL    HW1 2411   1.611   2.323   1.234  1.7635  0.1068 -0.3218
  804SOL    HW2 2412   1.675   2.338   1.080 -1.0127  3.3264  2.7703
  805SOL     OW 2413   0.200   2.232   2.418  0.3697 -0.1373 -0.0132
  805SOL    HW1 2414   0.160   2.284   2.337  0.1454  0.7300 -2.0229
  805SOL    HW2 2415   0.263   2.161   2.389 -3.0858  0.6255 -2.4047
  806SOL     OW 2416   0.928   2.917   0.238  0.2719 -0.0413  0.0411
  806SOL    HW1 2417   0.908   3.007   0.284 -2.1132  3.9525  1.7727
  806SOL    HW2 2418   0.841   2.867   0.203 -2.5417 -3.6049 -1.3304
  807SOL     OW 2419   2.552   1.103   2.764  0.3881 -0.0401  0.4020
  807SOL    HW1 2420   2.502   1.020   2.791  1.9217 -1.8006 -0.0621
  807SOL    HW2 2421   2.628   1.076   2.703 -2.8350 -1.1734 -0.3186
  808SOL     OW 2422   1.377   2.121   0.976  0.1415 -0.1093  0.1843
  808SOL    HW1 2423   1.465   2.159   0.941 -1.1112  0.1850 -0.1718
  808SOL    HW2 2424   1.308   2.119   0.903 -0.7900  0.1341 -0.0099
  809SOL     OW 2425   0.233   3.070   0.564  0.1393 -0.0793  0.1174
  809SOL    HW1 2426   0.211   2.971   0.540  0.1329  0.1985 -1.0957
  809SOL    HW2 2427   0.243   0.029   0.481  0.1883  1.6353 -0.2593
  810SOL     OW 2428   1.331   1.655   0.755 -0.7615  0.6388 -0.1327
  810SOL    HW1 2429   1.313   1.629   0.853  1.6593 -0.9891 -1.4628
  810SOL    HW2 2430   1.251   1.630   0.702  0.9835  2.5205 -0.0563
  811SOL     OW 2431   1.332   2.949   1.213 -0.3392 -0.7401 -0.4773
  811SOL    HW1 2432   1.365   2.862   1.257  1.3588 -0.3111  1.3334
  811SOL    HW2 2433   1.411   2.999   1.174  0.2164  1.1794  1.0079
  812SOL     OW 2434   1.228   0.046   0.389 -0.3978 -0.2376  0.2999
  812SOL    HW1 2435   1.300   3.082   0.435 -1.3797 -0.0102  3.2998
  812SOL    HW2 2436   1.140   0.046   0.446 -2.0236  0.9711 -1.6397
  813SOL     OW 2437   1.140   0.050   2.124  0.0311  0.0919 -0.5126
  813SOL    HW1 2438   1.086   0.132   2.139  1.3253 -2.1897 -1.1157
  813SOL    HW2 2439   1.179   0.013   2.210 -0.8181 -0.8595 -0.3271
  814SOL     OW 2440   0.960   3.039   1.211 -0.3079  0.5478  0.3566
  814SOL    HW1 2441   0.923   2.946   1.222  0.3909  2.4274 -1.6173
  814SOL    HW2 2442   1.063   3.035   1.212  2.0575 -0.7650 -2.5055
  815SOL     OW 2443   0.077   2.494   0.578  0.0518  0.5170  0.0075
  815SOL    HW1 2444   0.090   2.491   0.478 -0.4106 -0.7502 -3.4186
  815SOL    HW2 2445   0.080   2.590   0.612 -2.5827 -0.0487  0.8660
  816SOL     OW 2446   2.432   1.345   2.486 -0.0232 -0.0493  0.1938
  816SOL    HW1 2447   2.383   1.301   2.563 -1.1044 -0.6333 -0.2633
  816SOL    HW2 2448   2.519   1.292   2.476 -0.1563 -0.3481 -3.2500
  817SOL     OW 2449   2.004   2.575   2.589  0.0860 -0.4963  0.3320
  817SOL    HW1 2450   2.081   2.508   2.562  1.2706 -0.7607 -1.4235
  817SOL    HW2 2451   2.035   2.654   2.649  2.0125  0.3625  0.4137
  818SOL     OW 2452   1.262   1.356   0.356  0.0730  0.7551  0.0879
  818SOL    HW1 2453   1.274   1.259   0.374 -1.2628 -1.1606 -0.9852
  818SOL    HW2 2454   1.342   1.411   0.386 -0.0024 -2.2809  1.8595
  819SOL     OW 2455   1.523   2.036   0.148 -0.4240 -0.2164 -0.3727
  819SOL    HW1 2456   1.466   2.027   0.235 -3.2760  2.5148  1.7266
  819SOL    HW2 2457   1.460   2.028   0.070  1.8643  0.0547  2.2370
  820SOL     OW 2458   0.644   0.781   0.198  0.0489  0.6568 -0.0308
  820SOL    HW1 2459   0.663   0.763   0.101  1.0469  0.5307 -2.4931
  820SOL    HW2 2460   0.573   0.719   0.232  1.4320 -0.0931  1.2404
  821SOL     OW 2461   0.438   0.077   1.256  0.3103 -0.0738 -0.0680
  821SOL    HW1 2462   0.456   0.174   1.291  2.6609  1.0133  3.6994
  821SOL    HW2 2463   0.488   0.063   1.167 -0.0262 -0.3304  3.4979
  822SOL     OW 2464   2.140   2.123   2.498  0.3576 -0.2820  0.6431
  822SOL    HW1 2465   2.118   2.211   2.540 -1.4570 -0.6879 -0.0482
  822SOL    HW2 2466   2.088   2.053   2.552  1.9889  0.8112 -1.3467
  823SOL     OW 2467   0.856   0.497   1.954 -0.8187  0.2298 -0.3782
  823SOL    HW1 2468   0.913   0.522   2.038  1.3958 -1.6465  0.7385
  823SOL    HW2 2469   0.755   0.513   1.987 -0.7423 -0.1871 -0.5987
  824SOL     OW 2470   2.186   0.263   1.543 -0.1832  0.0677  0.3958
  824SOL    HW1 2471   2.211   0.353   1.576 -0.6581 -2.4332 -0.2162
  824SOL    HW2 2472   2.107   0.224   1.586 -0.4686  1.1995  0.4955
  825SOL     OW 2473   0.611   1.199   3.024  0.5855  0.0619 -0.3138
  825SOL    HW1 2474   0.637   1.144   0.004  2.7276  2.3318 -1.5622
  825SOL    HW2 2475   0.542   1.274   3.046  0.9530  2.0881 -1.8029
  826SOL     OW 2476   1.751   0.500   2.539  0.3250 -0.7391 -0.3070
  826SOL    HW1 2477   1.713   0.518   2.445 -2.7695  1.9249 -1.7442
  826SOL    HW2 2478   1.800   0.412   2.555  0.4901  1.1370  0.5499
  827SOL     OW 2479   0.864   2.156   2.500 -0.1732  0.2354 -0.3824
  827SOL    HW1 2480   0.797   2.209   2.452 -1.3577 -0.0186  2.4102
  827SOL    HW2 2481   0.872   2.193   2.595 -1.4354  0.6483  0.4697
  828SOL     OW 2482   2.608   0.312   1.450 -0.3056 -0.2046 -0.4009
  828SOL    HW1 2483   2.712   0.294   1.445  3.9315 -1.2350 -0.8395
  828SOL    HW2 2484   2.555   0.248   1.389 -2.2739 -0.5968 -1.9651
  829SOL     OW 2485   1.272   1.631   1.454 -0.4327 -0.0896 -0.0564
  829SOL    HW1 2486   1.339   1.567   1.406  1.1365 -1.3329 -1.3512
  829SOL    HW2 2487   1.175   1.582   1.458 -2.7602 -4.2797  0.9503
  830SOL     OW 2488   0.820   1.030   1.811 -0.4244  0.0626 -0.4697
  830SOL    HW1 2489   0.826   0.968   1.733  0.5367 -1.3027 -2.0173
  830SOL    HW2 2490   0.725   1.039   1.838  1.9685 -0.0023 -2.5587
  831SOL     OW 2491   2.834   1.906   0.224  0.1514  0.0517  0.1021
  831SOL    HW1 2492   2.815   1.867   0.134  3.0323 -0.8543  1.4719
  831SOL    HW2 2493   2.918   1.962   0.237 -0.3714  0.3108  0.2999
  832SOL     OW 2494   1.036   2.799   0.454  0.2348 -0.2280 -0.0689
  832SOL    HW1 2495   0.974   2.846   0.382 -2.5228  1.9644 -2.3763
  832SOL    HW2 2496   1.082   2.876   0.502  0.6229 -1.7510 -2.5356
  833SOL     OW 2497   2.959   0.268   1.698 -0.1749  0.5367  0.0159
  833SOL    HW1 2498   2.896   0.188   1.706  2.5323  2.0753 -3.5795
  833SOL    HW2 2499   2.961   0.331   1.776 -0.0430 -2.9019  0.1161
  834SOL     OW 2500   0.206   1.185   0.897  0.5777 -0.3474 -0.3834
  834SOL    HW1 2501   0.234   1.251   0.826 -0.9746 -0.9215 -2.3535
  834SOL    HW2 2502   0.137   1.126   0.846  1.5919  0.2163 -0.9548
  835SOL     OW 2503   2.482   2.772   0.881  0.2926  0.0743 -0.3781
  835SOL    HW1 2504   2.497   2.850   0.816  1.8784 -0.5535 -1.1789
  835SOL    HW2 2505   2.545   2.695   0.852  0.3586 -0.2609  0.4829
  836SOL     OW 2506   1.198   1.774   2.581 -0.0030 -0.3241 -0.4409
  836SOL    HW1 2507   1.119   1.839   2.591 -2.9376  0.9803 -0.5682
  836SOL    HW2 2508   1.172   1.685   2.534  0.1254  1.9113  1.4532
  837SOL     OW 2509   1.709   1.884   0.027 -0.2643 -0.7838  0.6023
  837SOL    HW1 2510   1.641   1.954   0.055  0.1116  1.2357 -0.1320
  837SOL    HW2 2511   1.800   1.917   0.062  0.0683 -0.8776 -1.0704
  838SOL     OW 2512   0.144   0.615   2.333  0.3415  0.2210  0.1620
  838SOL    HW1 2513   0.187   0.571   2.410 -3.2096  0.5857 -0.8636
  838SOL    HW2 2514   0.155   0.564   2.243 -1.9516 -0.7713  0.2865
  839SOL     OW 2515   0.546   0.917   2.707  0.1770 -0.0351  0.0686
  839SOL    HW1 2516   0.472   0.980   2.691 -0.5473 -1.9014  0.6154
  839SOL    HW2 2517   0.619   0.964   2.763  0.5921  2.3934  0.1383
  840SOL     OW 2518   1.429   0.612   0.126 -0.1008 -0.3649 -0.3903
  840SOL    HW1 2519   1.498   0.539   0.128 -3.4177  1.2095 -1.6133
  840SOL    HW2 2520   1.461   0.702   0.115 -1.2015 -3.7029  0.1178
  841SOL     OW 2521   0.585   2.775   0.673  0.5331 -0.3950  0.7486
  841SOL    HW1 2522   0.532   2.696   0.708  0.5007  1.2030 -2.3518
  841SOL    HW2 2523   0.534   2.860   0.687  2.3650 -0.6695  0.4901
  842SOL     OW 2524   0.290   0.748   0.524 -0.6554  0.5031  0.2242
  842SOL    HW1 2525   0.197   0.709   0.509 -0.2960  1.1201  0.4549
  842SOL    HW2 2526   0.290   0.845   0.491  0.5643  0.7140 -2.8370
  843SOL     OW 2527   0.431   0.878   1.223 -0.2318 -0.0160  0.1685
  843SOL    HW1 2528   0.464   0.892   1.318 -1.3784 -3.3242  0.8583
  843SOL    HW2 2529   0.403   0.968   1.186  3.2850 -2.2022 -2.2598
  844SOL     OW 2530   2.213   2.417   2.546  0.2790 -0.3778 -0.1660
  844SOL    HW1 2531   2.264   2.395   2.630 -1.4077 -0.9796  2.1450
  844SOL    HW2 2532   2.277   2.434   2.472 -0.0764 -1.3967 -0.4336
  845SOL     OW 2533   2.030   0.129   1.727 -0.2090 -0.3633 -0.2413
  845SOL    HW1 2534   2.076   0.191   1.796 -0.3802  1.2523  0.0929
  845SOL    HW2 2535   1.998   0.040   1.762  3.2200 -1.1314  3.1160
  846SOL     OW 2536   2.504   1.602   2.414 -0.4306 -0.3129  0.0869
  846SOL    HW1 2537   2.512   1.568   2.318  0.5737  1.1535 -1.9378
  846SOL    HW2 2538   2.480   1.528   2.478  2.2337  2.7838 -1.7312
  847SOL     OW 2539   2.109   3.016   1.947  0.2641  0.0107 -0.0887
  847SOL    HW1 2540   2.058   2.970   2.025 -1.1179 -1.6458 -0.3134
  847SOL    HW2 2541   2.128   2.952   1.866  1.7190  1.8557  0.1073
  848SOL     OW 2542   3.044   2.835   0.353  0.0493 -0.0735 -0.5852
  848SOL    HW1 2543   3.059   2.895   0.270  0.2611 -0.2499 -3.3616
  848SOL    HW2 2544   2.996   2.893   0.423  1.0961  0.3788 -0.0169
  849SOL     OW 2545   0.143   2.900   1.193 -0.4175  0.4090  0.4578
  849SOL    HW1 2546   0.140   2.998   1.229 -0.2395  3.8374 -0.7662
  849SOL    HW2 2547   0.186   2.911   1.098  2.3329  2.1134  0.2098
  850SOL     OW 2548   0.198   1.817   0.721 -0.5048 -0.1448  0.6298
  850SOL    HW1 2549   0.160   1.895   0.777 -2.6108 -3.5130 -1.4457
  850SOL    HW2 2550   0.303   1.816   0.731  2.7426  1.6390  1.1374
  851SOL     OW 2551   2.455   0.811   2.872  0.1990  0.0099  0.0478
  851SOL    HW1 2552   2.456   0.762   2.780  0.3788  2.2455 -3.2334
  851SOL    HW2 2553   2.538   0.799   2.931 -1.7118 -0.2397  0.7114
  852SOL     OW 2554   2.037   1.930   2.669  0.2640  0.5140  0.0577
  852SOL    HW1 2555   1.975   1.884   2.600 -0.9489  2.2043  0.8390
  852SOL    HW2 2556   2.026   1.882   2.757 -0.8848 -3.1216  0.1922
  853SOL     OW 2557   0.644   1.879   0.312 -0.4005 -0.7340  0.0507
  853SOL    HW1 2558   0.592   1.858   0.228  3.2882 -2.9701  1.3496
  853SOL    HW2 2559   0.742   1.863   0.292  2.8348 -0.4027 -1.7422
  854SOL     OW 2560   1.635   1.107   1.976 -0.6258 -0.1034 -0.1489
  854SOL    HW1 2561   1.562   1.041   1.962  5.7437  2.2232 -0.9807
  854SOL    HW2 2562   1.624   1.179   1.904 -1.4178  0.7895 -0.6166
  855SOL     OW 2563   0.746   2.298   0.047  0.1842  0.0965  0.5871
  855SOL    HW1 2564   0.671   2.310   0.122 -0.6394 -2.3503  3.4163
  855SOL    HW2 2565   0.705   2.244   3.066  1.2809 -1.8206 -2.6927
  856SOL     OW 2566   0.488   3.080   2.106  0.1489  0.0583  0.6196
  856SOL    HW1 2567   0.487   3.030   2.014 -1.3847 -0.4040 -1.6119
  856SOL    HW2 2568   0.582   3.096   2.139  1.3071 -0.9130  1.9357
  857SOL     OW 2569   0.625   0.193   1.837 -0.3399  0.3385 -0.1959
  857SOL    HW1 2570   0.713   0.208   1.896  0.7348  1.9616  2.3750
  857SOL    HW2 2571   0.542   0.232   1.880  3.4499 -1.2726 -1.4253
  858SOL     OW 2572   0.270   1.939   2.078  0.1057  0.3143  0.0628
  858SOL    HW1 2573   0.306   1.987   2.163 -1.6796 -0.9961  2.8316
  858SOL    HW2 2574   0.351   1.915   2.023 -1.4954  0.3873  0.3644
  859SOL     OW 2575   1.862   2.120   1.258  0.1332  0.0801  0.4295
  859SOL    HW1 2576   1.899   2.175   1.182  2.4224  1.6134 -1.4121
  859SOL    HW2 2577   1.937   2.056   1.282 -0.7965  1.4415  0.4617
  860SOL     OW 2578   1.904   0.282   0.733  0.1990 -0.4694 -0.0136
  860SOL    HW1 2579   1.991   0.292   0.785  2.2931  0.7773  0.4309
  860SOL    HW2 2580   1.827   0.337   0.770 -1.0635  1.0727 -0.9979
  861SOL     OW 2581   0.055   0.584   1.212  0.3132  0.4049  0.0507
  861SOL    HW1 2582   0.083   0.651   1.283 -0.5664 -0.5069  0.9837
  861SOL    HW2 2583   3.073   0.525   1.243  0.3616 -0.4622  1.1083
  862SOL     OW 2584   2.176   0.827   1.533 -0.1411 -0.4968  0.4109
  862SOL    HW1 2585   2.210   0.843   1.629  1.7749 -0.1642  3.8585
  862SOL    HW2 2586   2.163   0.919   1.489  0.0016  0.3708  1.3540
  863SOL     OW 2587   0.361   1.246   1.355  0.3206 -0.1208 -0.1860
  863SOL    HW1 2588   0.403   1.209   1.436  0.2496  3.1992 -0.4255
  863SOL    HW2 2589   0.390   1.344   1.353 -2.0958 -1.9658  1.9034
  864SOL     OW 2590   2.400   3.011   1.763  0.2320  0.3354  0.1604
  864SOL    HW1 2591   2.492   2.968   1.745  0.6439  0.1079 -0.1759
  864SOL    HW2 2592   2.402   0.015   1.765 -1.4473  0.2804  1.1854
  865SOL     OW 2593   1.217   0.399   2.257 -0.1703  0.2542 -0.6838
  865SOL    HW1 2594   1.258   0.351   2.173  1.0660  0.3647 -1.9896
  865SOL    HW2 2595   1.273   0.380   2.340  0.1537 -2.3098  0.0526
  866SOL     OW 2596   2.182   2.629   0.628 -0.6669  0.2319 -0.5544
  866SOL    HW1 2597   2.197   2.615   0.729  2.0941  0.2914 -2.8623
  866SOL    HW2 2598   2.269   2.670   0.589 -0.2787  0.0598 -1.8829
  867SOL     OW 2599   2.640   2.565   0.764 -0.4706 -0.0961 -0.3408
  867SOL    HW1 2600   2.565   2.521   0.712  1.6615  1.5782 -0.3174
  867SOL    HW2 2601   2.667   2.495   0.834 -0.0517  0.1895  0.9765
  868SOL     OW 2602   1.681   1.708   2.910  0.3846  0.5851 -0.0843
  868SOL    HW1 2603   1.779   1.714   2.873 -0.1567 -0.6902  1.6981
  868SOL    HW2 2604   1.668   1.788   2.972  0.3296 -1.5237  0.3200
  869SOL     OW 2605   2.611   2.021   0.682 -0.1980  0.3647 -0.2379
  869SOL    HW1 2606   2.679   2.050   0.749  0.6098  0.4978  1.2055
  869SOL    HW2 2607   2.595   2.092   0.612 -1.6084  0.5562  1.5397
  870SOL     OW 2608   2.563   1.994   0.299 -0.1675  0.2977  0.5254
  870SOL    HW1 2609   2.652   1.951   0.290 -3.0527  1.5775 -1.3322
  870SOL    HW2 2610   2.563   2.083   0.346  2.3037  0.2130  0.7266
  871SOL     OW 2611   0.383   1.141   1.112  0.2073  0.4206  0.0833
  871SOL    HW1 2612   0.365   1.192   1.201  1.2616  2.5548  0.6395
  871SOL    HW2 2613   0.306   1.150   1.048  5.1441  1.1016 -1.1975
  872SOL     OW 2614   0.844   1.555   2.433 -0.0442 -0.2234  0.4857
  872SOL    HW1 2615   0.843   1.601   2.343 -2.0393 -1.5475 -2.5814
  872SOL    HW2 2616   0.787   1.609   2.494 -1.2294  0.9410 -1.9948
  873SOL     OW 2617   0.389   3.052   1.682 -0.3648  0.1541  0.1531
  873SOL    HW1 2618   0.358   2.998   1.604  1.1703 -1.5157 -0.2604
  873SOL    HW2 2619   0.489   3.053   1.705 -0.8482 -0.1802  0.4303
  874SOL     OW 2620   1.038   0.575   2.140 -0.4588 -0.0966  0.6542
  874SOL    HW1 2621   1.113   0.525   2.190  1.8143 -1.2763  0.4688
  874SOL    HW2 2622   1.076   0.668   2.123  0.9415  0.0259  0.2633
  875SOL     OW 2623   2.848   0.069   1.190  0.1809  0.0793  0.3743
  875SOL    HW1 2624   2.897   0.118   1.262 -0.4718 -0.0757 -0.8976
  875SOL    HW2 2625   2.776   0.005   1.229 -0.4444 -2.0080 -1.4272
  876SOL     OW 2626   0.840   1.108   0.533  0.3208 -0.1238 -0.0312
  876SOL    HW1 2627   0.823   1.019   0.495  0.2231  2.9348  2.2994
  876SOL    HW2 2628   0.909   1.159   0.477  0.4427 -0.4427  1.0680
  877SOL     OW 2629   1.114   0.918   1.605  0.5440 -0.4180 -0.2824
  877SOL    HW1 2630   1.118   0.872   1.516  0.7461 -0.0351  1.4913
  877SOL    HW2 2631   1.148   0.863   1.683 -0.5251 -0.1594 -4.6750
  878SOL     OW 2632   2.234   2.155   0.366  0.3688  0.1605 -0.4486
  878SOL    HW1 2633   2.212   2.131   0.270 -0.6730 -0.0950  1.3265
  878SOL    HW2 2634   2.249   2.252   0.379 -1.3713 -0.5008  1.4506
  879SOL     OW 2635   2.678   1.860   1.588 -0.1497 -0.1943 -0.7657
  879SOL    HW1 2636   2.691   1.765   1.548  0.2512  0.7638 -0.0052
  879SOL    HW2 2637   2.770   1.913   1.591  2.0281 -1.2610 -0.3851
  880SOL     OW 2638   1.128   2.572   1.074  0.1461  0.1278 -0.2506
  880SOL    HW1 2639   1.155   2.666   1.048  1.8790 -0.9627  3.5153
  880SOL    HW2 2640   1.181   2.543   1.157 -0.2356  0.2316 -1.2659
  881SOL     OW 2641   0.708   2.117   0.448 -0.1053  0.2298 -0.3636
  881SOL    HW1 2642   0.664   2.035   0.409 -3.2236  1.0621 -0.1914
  881SOL    HW2 2643   0.759   2.164   0.373 -1.8691 -0.0960 -0.2337
  882SOL     OW 2644   1.993   0.956   0.475  0.2487 -0.2041 -0.0381
  882SOL    HW1 2645   2.037   0.983   0.384 -1.3916  0.9161 -0.3439
  882SOL    HW2 2646   1.974   0.854   0.481 -0.2419 -0.3045  0.9708
  883SOL     OW 2647   1.431   0.756   1.001  0.2694  0.5771  0.3301
  883SOL    HW1 2648   1.360   0.813   0.966 -0.9839 -1.4182  0.5252
  883SOL    HW2 2649   1.512   0.765   0.940 -1.1874  2.4761  1.2677
  884SOL     OW 2650   2.689   2.684   0.420  0.1232 -0.0440  0.2004
  884SOL    HW1 2651   2.683   2.769   0.362  1.5851 -0.1399 -0.0098
  884SOL    HW2 2652   2.754   2.699   0.495  2.2760  1.0087 -2.6828
  885SOL     OW 2653   1.109   1.446   2.225  0.1878 -0.1562 -0.5689
  885SOL    HW1 2654   1.173   1.396   2.166 -1.7930  0.0288  0.6637
  885SOL    HW2 2655   1.131   1.543   2.237 -0.8786 -0.5209  0.5351
  886SOL     OW 2656   1.401   1.885   2.458 -0.5771 -0.2183  0.0596
  886SOL    HW1 2657   1.337   1.837   2.518  3.1445 -2.2498 -0.8669
  886SOL    HW2 2658   1.380   1.981   2.437 -3.8339  1.7001 -2.0184
  887SOL     OW 2659   1.132   0.709   1.081 -0.4646 -0.1274  0.1145
  887SOL    HW1 2660   1.181   0.634   1.030 -1.7720  1.2168 -1.1805
  887SOL    HW2 2661   1.134   0.797   1.025 -0.0535  0.8600  1.8387
  888SOL     OW 2662   2.410   0.693   1.952  0.1556  0.3369  0.1225
  888SOL    HW1 2663   2.345   0.618   1.982 -0.5433  1.5312  1.2863
  888SOL    HW2 2664   2.457   0.728   2.034 -3.0067 -1.2595  1.1089
  889SOL     OW 2665   0.038   2.041   0.821 -0.6848 -0.2402 -0.3764
  889SOL    HW1 2666   0.015   2.077   0.731  0.0044 -2.7548  2.6997
  889SOL    HW2 2667   3.074   2.086   0.891  0.2223  1.2959 -0.1273
  890SOL     OW 2668   1.469   2.241   0.530 -0.9395 -0.0330 -0.0867
  890SOL    HW1 2669   1.546   2.169   0.547  0.7735 -2.8042 -1.6515
  890SOL    HW2 2670   1.375   2.203   0.516  1.2298  2.6304 -0.9316
  891SOL     OW 2671   2.664   0.768   3.022  0.2343 -0.5205  0.1897
  891SOL    HW1 2672   2.713   0.843   3.079  0.8818 -2.7004 -1.0134
  891SOL    HW2 2673   2.724   0.737   2.944 -0.2315  2.7221  2.1908
  892SOL     OW 2674   3.002   2.170   1.021 -0.0495  0.0577 -1.0383
  892SOL    HW1 2675   2.989   2.265   0.985  0.2049 -0.5926  2.5978
  892SOL    HW2 2676   2.958   2.162   1.111  0.0134 -0.9536  0.3718
  893SOL     OW 2677   1.319   0.510   1.000 -0.0855 -0.0530 -0.7627
  893SOL    HW1 2678   1.363   0.439   1.062  3.7258  1.1721 -1.6251
  893SOL    HW2 2679   1.363   0.598   1.013  1.4189 -0.2363  1.0381
  894SOL     OW 2680   2.906   0.546   0.924  0.4329 -0.3714 -0.1693
  894SOL    HW1 2681   2.999   0.519   0.953 -1.8665 -1.9542  2.0174
  894SOL    HW2 2682   2.848   0.468   0.901 -0.3813  1.8732  0.1899
  895SOL     OW 2683   1.867   1.520   2.416  0.0692  0.0033 -0.8229
  895SOL    HW1 2684   1.822   1.526   2.324  1.9772  0.0507 -3.6760
  895SOL    HW2 2685   1.952   1.467   2.409 -0.3000  0.6946  1.6139
  896SOL     OW 2686   1.885   0.593   1.335 -0.8689  0.6948 -0.1927
  896SOL    HW1 2687   1.984   0.587   1.365  2.8600 -0.6206  1.1367
  896SOL    HW2 2688   1.870   0.536   1.253  2.2710  1.1439 -0.6802
  897SOL     OW 2689   0.104   1.417   1.353  0.1183  0.4516 -0.2892
  897SOL    HW1 2690   0.174   1.344   1.371 -1.8794  1.9885  0.1430
  897SOL    HW2 2691   0.083   1.425   1.256  2.4625  0.9038  0.6234
  898SOL     OW 2692   2.122   2.681   2.070 -0.8670 -0.1520  0.1983
  898SOL    HW1 2693   2.187   2.647   2.000  0.9256 -0.7887 -0.6660
  898SOL    HW2 2694   2.117   2.600   2.136 -0.0519  1.0871 -1.0658
  899SOL     OW 2695   1.075   1.660   1.089  0.6270  0.0046 -0.1923
  899SOL    HW1 2696   1.117   1.708   1.168 -0.2108  1.4944 -0.4161
  899SOL    HW2 2697   1.009   1.727   1.048 -1.3740  1.5802 -0.2230
  900SOL     OW 2698   1.343   2.179   2.394  0.6237  0.8309  0.4966
  900SOL    HW1 2699   1.416   2.200   2.323 -1.4038 -0.9083 -0.8912
  900SOL    HW2 2700   1.263   2.233   2.380  2.1255 -1.7489 -0.5073
  901SOL     OW 2701   0.819   1.683   2.194  0.1102 -0.2946 -0.4388
  901SOL    HW1 2702   0.814   1.669   2.094  0.5676 -2.0946  2.8237
  901SOL    HW2 2703   0.860   1.775   2.214  2.5324  2.0444  0.6965
  902SOL     OW 2704   2.139   1.430   0.093 -0.0890 -0.2582 -0.5102
  902SOL    HW1 2705   2.202   1.351   0.087 -1.0278  0.4190  3.1766
  902SOL    HW2 2706   2.079   1.429   0.179  0.6866 -1.3463  2.1023
  903SOL     OW 2707   2.007   1.659   3.086 -0.0664 -0.5128  0.1238
  903SOL    HW1 2708   2.082   1.607   0.035  1.0720 -1.4574 -0.8143
  903SOL    HW2 2709   1.928   1.664   0.054  0.7309 -3.9719  2.2823
  904SOL     OW 2710   1.342   1.154   2.625  0.1486  0.8517  0.3754
  904SOL    HW1 2711   1.364   1.090   2.543 -2.6700 -3.3234 -1.6277
  904SOL    HW2 2712   1.241   1.140   2.647 -0.4527 -2.2753  0.1416
  905SOL     OW 2713   2.784   0.271   1.008 -0.4335 -0.2601  0.0361
  905SOL    HW1 2714   2.824   0.202   1.070  0.5391  0.7755 -1.3243
  905SOL    HW2 2715   2.725   0.343   1.051 -1.9870  3.3066 -1.3783
  906SOL     OW 2716   3.087   2.005   0.226  0.1568 -0.3035  0.6447
  906SOL    HW1 2717   0.033   2.036   0.312 -0.9011  4.1379  0.4546
  906SOL    HW2 2718   0.056   1.943   0.170  0.6874 -0.1508 -3.0597
  907SOL     OW 2719   1.459   0.241   0.151  0.2204  0.2020  0.5498
  907SOL    HW1 2720   1.403   0.162   0.114 -0.4956 -1.8471 -0.1882
  907SOL    HW2 2721   1.537   0.203   0.205  1.3974 -1.2933 -0.5531
  908SOL     OW 2722   1.617   2.668   1.786  0.3465  0.5165  0.4311
  908SOL    HW1 2723   1.582   2.616   1.866  0.5528  1.6159  0.2902
  908SOL    HW2 2724   1.600   2.768   1.797 -0.5656  0.3881 -1.4025
  909SOL     OW 2725   2.583   0.793   1.582 -0.2072 -0.1434  0.3294
  909SOL    HW1 2726   2.560   0.711   1.637  1.0978  0.9898  0.5891
  909SOL    HW2 2727   2.649   0.853   1.629 -0.0913 -0.4509 -0.8221
  910SOL     OW 2728   0.957   0.134   2.472 -0.3993 -0.0231 -0.0168
  910SOL    HW1 2729   1.042   0.075   2.475  0.5053 -2.3552  1.1160
  910SOL    HW2 2730   0.885   0.082   2.522  1.4061 -0.3753 -2.2354
  911SOL     OW 2731   2.713   1.218   2.453 -0.3296 -0.0766 -0.1886
  911SOL    HW1 2732   2.679   1.125   2.463  1.2471  1.1883  0.9844
  911SOL    HW2 2733   2.790   1.229   2.385  1.6908  1.7602 -0.7438
  912SOL     OW 2734   2.660   2.201   1.633 -0.4493  0.3233 -0.3553
  912SOL    HW1 2735   2.699   2.257   1.556  0.5170 -0.5824  3.7989
  912SOL    HW2 2736   2.695   2.108   1.619 -0.5173  0.2643 -0.9735
  913SOL     OW 2737   2.754   2.355   1.432  0.1588  0.0106 -0.2768
  913SOL    HW1 2738   2.808   2.406   1.507  1.0072 -0.8044  0.1911
  913SOL    HW2 2739   2.716   2.427   1.366 -1.8733  1.0293 -0.8871
  914SOL     OW 2740   2.394   2.068   1.287  0.0101  0.6826 -0.3962
  914SOL    HW1 2741   2.413   1.992   1.349 -1.9987  0.0746 -0.9698
  914SOL    HW2 2742   2.312   2.050   1.226 -1.7954  0.6991 -0.9949
  915SOL     OW 2743   1.231   2.552   1.584  0.1291 -0.4523 -0.2044
  915SOL    HW1 2744   1.143   2.499   1.592 -1.1508 -1.0431  1.0554
  915SOL    HW2 2745   1.313   2.495   1.602 -1.6471  0.6173 -1.0608
  916SOL     OW 2746   2.695   2.463   1.014 -0.2620 -0.0733 -0.0346
  916SOL    HW1 2747   2.684   2.498   1.108  0.6934 -2.2793 -1.1293
  916SOL    HW2 2748   2.627   2.390   0.988  2.4561  1.8214  1.6395
  917SOL     OW 2749   2.956   0.978   2.900 -0.5659  0.6939  0.3904
  917SOL    HW1 2750   2.929   0.883   2.868 -2.9460  0.4720 -2.3891
  917SOL    HW2 2751   2.963   1.042   2.822 -2.4696 -0.0016  2.8093
  918SOL     OW 2752   1.898   1.807   2.472 -0.0242 -0.5010 -0.0646
  918SOL    HW1 2753   1.878   1.721   2.424 -1.2724  0.7641 -0.7461
  918SOL    HW2 2754   1.812   1.851   2.498  2.0517  1.7348 -1.0185
  919SOL     OW 2755   1.443   2.183   1.475  0.3113 -0.2973  0.7146
  919SOL    HW1 2756   1.448   2.131   1.566 -1.1562 -0.1094  2.3634
  919SOL    HW2 2757   1.513   2.153   1.403  2.2779  0.3514  0.6787
  920SOL     OW 2758   0.618   0.165   3.043  0.1506  0.2540 -0.1293
  920SOL    HW1 2759   0.638   0.070   3.085  0.2396 -0.5455  0.4317
  920SOL    HW2 2760   0.541   0.214   3.089 -0.2852 -1.9694  0.2158
  921SOL     OW 2761   2.651   3.052   2.614 -0.0272 -0.3812  0.3995
  921SOL    HW1 2762   2.619   3.011   2.530 -0.6574  0.5888 -0.4924
  921SOL    HW2 2763   2.738   0.008   2.609 -1.9245 -1.3481  0.1296
  922SOL     OW 2764   2.388   1.842   1.465  0.0401  0.1017  0.1205
  922SOL    HW1 2765   2.464   1.853   1.532  1.8283  3.2688 -0.2619
  922SOL    HW2 2766   2.298   1.867   1.506  1.7989 -0.7638  4.0818
  923SOL     OW 2767   0.837   2.025   2.910 -0.0842 -0.2473  0.0597
  923SOL    HW1 2768   0.754   2.083   2.914 -0.2850  0.8975 -0.1583
  923SOL    HW2 2769   0.922   2.082   2.915  0.3962  1.2352 -0.9555
  924SOL     OW 2770   1.623   0.659   2.708  0.2766 -0.0163  0.5136
  924SOL    HW1 2771   1.625   0.614   2.804  2.1913 -1.8357  0.5117
  924SOL    HW2 2772   1.652   0.590   2.640 -0.0712 -0.4457  0.3475
  925SOL     OW 2773   2.854   0.747   0.220 -0.3059  0.4282 -0.3773
  925SOL    HW1 2774   2.843   0.807   0.136 -1.7673  2.7509 -0.5324
  925SOL    HW2 2775   2.786   0.769   0.293 -0.8748 -0.1932 -2.4388
  926SOL     OW 2776   0.016   0.411   0.980 -0.3078 -0.1686  0.0608
  926SOL    HW1 2777   0.064   0.320   0.987  0.2414 -3.1690 -2.3111
  926SOL    HW2 2778   0.044   0.466   1.059 -0.5910 -0.5068  0.0318
  927SOL     OW 2779   1.114   1.527   0.578 -0.3525  0.0493 -0.3688
  927SOL    HW1 2780   1.166   1.500   0.495 -2.7075  1.4036  0.4109
  927SOL    HW2 2781   1.033   1.586   0.551 -0.3507  1.3909 -1.1143
  928SOL     OW 2782   0.039   0.008   2.488 -0.6321  0.5730  0.4397
  928SOL    HW1 2783   0.104   3.026   2.488  1.4964 -1.3013  1.2012
  928SOL    HW2 2784   0.080   0.097   2.504  0.4367  0.2792 -0.6603
  929SOL     OW 2785   2.257   0.516   1.592  0.5577  0.1463  0.1202
  929SOL    HW1 2786   2.238   0.542   1.495  3.7616 -2.1036  3.2379
  929SOL    HW2 2787   2.344   0.548   1.634 -1.9069 -2.0536  0.8901
  930SOL     OW 2788   1.601   2.116   1.270  0.3277 -0.8854 -0.0716
  930SOL    HW1 2789   1.705   2.123   1.269  1.8020  1.4150  1.8512
  930SOL    HW2 2790   1.573   2.042   1.209  1.1691  1.4602  2.0681
  931SOL     OW 2791   1.663   0.792   0.855  0.1889 -0.2370 -0.0663
  931SOL    HW1 2792   1.632   0.813   0.760  0.9394 -2.0314 -0.2497
  931SOL    HW2 2793   1.723   0.871   0.890  3.0139  1.5160 -2.1716
  932SOL     OW 2794   3.056   0.993   1.218 -0.4115 -0.4414 -0.2062
  932SOL    HW1 2795   2.982   1.052   1.259 -0.9414 -1.3604  1.6659
  932SOL    HW2 2796   0.013   0.947   1.289 -2.8091  2.4585  0.1506
  933SOL     OW 2797   2.485   1.752   1.775  0.3417  0.6509 -0.6868
  933SOL    HW1 2798   2.566   1.788   1.730  0.5346 -2.2394 -0.8973
  933SOL    HW2 2799   2.433   1.824   1.823  0.9461  0.7345  1.3616
  934SOL     OW 2800   1.707   0.006   1.214  0.2595 -0.1798  0.2190
  934SOL    HW1 2801   1.615   0.053   1.211  1.6213 -0.7761 -1.5563
  934SOL    HW2 2802   1.735   3.078   1.120 -0.4508  1.8084  0.5035
  935SOL     OW 2803   0.071   1.237   1.126 -0.0111 -0.1175  0.2372
  935SOL    HW1 2804   0.027   1.146   1.156 -1.1032 -2.6856  4.4781
  935SOL    HW2 2805   0.131   1.229   1.037  1.2575  0.9706 -0.5817
  936SOL     OW 2806   2.839   0.881   1.036 -0.0509  0.5293 -0.0378
  936SOL    HW1 2807   2.916   0.935   1.077 -0.8839 -0.1898  0.9927
  936SOL    HW2 2808   2.870   0.844   0.948 -0.6935 -0.3697  4.7763
  937SOL     OW 2809   1.291   2.913   0.774 -0.0498 -1.1508 -0.5596
  937SOL    HW1 2810   1.335   2.975   0.704 -0.5915 -0.1286  0.3907
  937SOL    HW2 2811   1.359   2.874   0.833  0.2287  0.0222  1.4157
  938SOL     OW 2812   2.929   2.385   0.655 -0.1777 -0.1953 -0.4673
  938SOL    HW1 2813   2.917   2.396   0.761  1.9865  1.3912  0.3247
  938SOL    HW2 2814   3.018   2.428   0.627 -1.1117  2.0524  0.5151
  939SOL     OW 2815   0.779   1.722   2.627 -0.5093 -0.3364 -0.0780
  939SOL    HW1 2816   0.843   1.800   2.646  1.4128 -1.9240 -0.4138
  939SOL    HW2 2817   0.732   1.704   2.713 -1.5042 -1.6026 -3.1230
  940SOL     OW 2818   2.717   2.630   2.835  0.2879  0.2760  0.0422
  940SOL    HW1 2819   2.701   2.597   2.742 -1.1689 -1.5885 -2.9844
  940SOL    HW2 2820   2.656   2.703   2.864  1.4042 -5.2315 -4.3225
  941SOL     OW 2821   1.100   2.937   3.068 -0.3619  0.2478 -0.3739
  941SOL    HW1 2822   1.051   3.017   0.009 -1.8637 -0.6446 -0.8789
  941SOL    HW2 2823   1.157   2.893   0.041 -1.0065  1.3264  2.4523
  942SOL     OW 2824   1.706   1.779   1.541 -0.3497  0.3632 -0.1631
  942SOL    HW1 2825   1.662   1.687   1.541 -1.8054  1.9848 -2.9694
  942SOL    HW2 2826   1.647   1.854   1.567 -0.2153 -4.1397 -0.8536
  943SOL     OW 2827   2.267   1.379   1.626  0.0702 -0.0626  0.2847
  943SOL    HW1 2828   2.291   1.318   1.548 -2.0247  3.8221  1.2006
  943SOL    HW2 2829   2.358   1.418   1.659  2.1479 -0.1699 -0.3434
  944SOL     OW 2830   1.869   1.070   1.807 -0.4196 -0.3220  0.2195
  944SOL    HW1 2831   1.846   1.099   1.712 -1.6132 -1.9200 -0.4397
  944SOL    HW2 2832   1.796   1.110   1.865  2.4808  0.5366  2.3737
  945SOL     OW 2833   2.693   2.952   1.300  0.2832  0.1988  0.2049
  945SOL    HW1 2834   2.618   2.894   1.262 -0.7783 -2.0082 -1.2285
  945SOL    HW2 2835   2.784   2.905   1.304 -1.8765 -0.8396  1.1822
  946SOL     OW 2836   0.923   1.251   1.664 -0.4373 -0.2383 -0.2764
  946SOL    HW1 2837   0.884   1.253   1.568  1.5280  2.1910  1.0255
  946SOL    HW2 2838   0.898   1.163   1.708 -0.5592 -0.9172 -0.1641
  947SOL     OW 2839   0.434   2.600   0.801  0.3265 -0.4356 -0.3009
  947SOL    HW1 2840   0.437   2.603   0.901  1.0685 -2.5330 -0.0133
  947SOL    HW2 2841   0.404   2.506   0.761 -1.0514 -1.1968  0.0454
  948SOL     OW 2842   0.021   1.231   1.783  0.1986 -0.1458  0.3127
  948SOL    HW1 2843   0.030   1.220   1.884 -0.9948 -0.1731 -0.1618
  948SOL    HW2 2844   0.089   1.305   1.756  0.7945  0.2109 -0.9541
  949SOL     OW 2845   0.525   0.642   2.271 -0.0567  0.2730  0.1502
  949SOL    HW1 2846   0.624   0.652   2.293  1.3304  0.6344  0.3414
  949SOL    HW2 2847   0.486   0.548   2.281 -0.1455 -2.9957 -3.5645
  950SOL     OW 2848   0.682   0.597   0.971  0.3758  0.0162  0.1241
  950SOL    HW1 2849   0.588   0.622   0.952  1.6304 -0.6758 -1.3500
  950SOL    HW2 2850   0.736   0.597   0.885 -0.0080 -0.7456  2.3311
  951SOL     OW 2851   1.302   1.602   1.975 -0.3726 -0.4523  0.1590
  951SOL    HW1 2852   1.296   1.652   2.067  0.5491  0.5446  4.7360
  951SOL    HW2 2853   1.228   1.636   1.917 -1.1163 -3.8992  0.6204
  952SOL     OW 2854   0.991   1.377   3.088 -0.2003  0.1470 -0.0610
  952SOL    HW1 2855   1.060   1.442   0.035  0.9973  1.0461 -1.3312
  952SOL    HW2 2856   1.032   1.329   3.010 -1.5120  0.6224  1.4156
  953SOL     OW 2857   1.127   2.800   2.264 -0.3633 -0.3245  0.4970
  953SOL    HW1 2858   1.040   2.774   2.298  1.2859 -0.1713  1.2300
  953SOL    HW2 2859   1.120   2.818   2.160 -1.5018  0.1520 -2.7036
  954SOL     OW 2860   2.330   1.235   0.502  0.1570 -0.1547  0.5865
  954SOL    HW1 2861   2.394   1.218   0.424  2.9327  0.5143 -1.9301
  954SOL    HW2 2862   2.336   1.333   0.528  0.3902  1.5574  1.7346
  955SOL     OW 2863   0.180   2.165   2.692 -0.4772 -0.0989 -0.5682
  955SOL    HW1 2864   0.184   2.191   2.592 -0.5455 -1.3742 -1.5840
  955SOL    HW2 2865   0.090   2.190   2.721 -0.8022  0.8570 -1.1357
  956SOL     OW 2866   0.929   1.441   1.178 -0.3074 -0.3104  0.1768
  956SOL    HW1 2867   0.971   1.523   1.140  0.3291  0.8346 -0.9822
  956SOL    HW2 2868   0.882   1.386   1.108  3.0073  0.9124  0.3184
  957SOL     OW 2869   2.166   1.426   2.414  0.3724 -0.5372  0.2020
  957SOL    HW1 2870   2.156   1.518   2.372  2.5677 -0.4939 -1.3586
  957SOL    HW2 2871   2.262   1.402   2.436  0.6175 -1.0073  0.7083
  958SOL     OW 2872   1.584   2.652   1.121  0.1840  0.1540 -0.1477
  958SOL    HW1 2873   1.590   2.550   1.138 -1.0709 -1.8461 -1.7588
  958SOL    HW2 2874   1.561   2.690   1.210 -1.0911 -1.6909 -0.7412
  959SOL     OW 2875   1.693   1.747   2.233  0.0459 -0.4047  0.0165
  959SOL    HW1 2876   1.692   1.645   2.210  1.2499  0.8857  0.9038
  959SOL    HW2 2877   1.666   1.766   2.330  2.8527 -4.0341 -0.1291
  960SOL     OW 2878   3.074   0.582   2.748 -0.1358  0.1190 -0.4736
  960SOL    HW1 2879   0.059   0.643   2.746  0.6601 -0.0239  0.2977
  960SOL    HW2 2880   3.085   0.512   2.820 -2.0154  1.2153 -2.7760
  961SOL     OW 2881   0.602   0.547   1.996 -0.4081  0.0818  0.4168
  961SOL    HW1 2882   0.607   0.590   2.088  0.1004  2.9641  0.4454
  961SOL    HW2 2883   0.561   0.614   1.926 -2.2686 -0.5969 -1.0252
  962SOL     OW 2884   1.373   1.750   0.297  0.1537  0.2656  0.2773
  962SOL    HW1 2885   1.347   1.739   0.196  1.3733 -2.2195 -1.1146
  962SOL    HW2 2886   1.423   1.666   0.328 -3.1079  4.1442 -0.2883
  963SOL     OW 2887   1.716   2.374   3.013  0.0763 -0.5208  0.2807
  963SOL    HW1 2888   1.791   2.353   2.944  2.3304 -0.6483  0.0478
  963SOL    HW2 2889   1.626   2.353   2.971  2.2729 -1.4290  4.3775
  964SOL     OW 2890   0.935   2.633   0.667  0.2221  0.4798 -0.1607
  964SOL    HW1 2891   0.969   2.671   0.577 -3.5760 -0.5385  1.2774
  964SOL    HW2 2892   0.881   2.704   0.714 -1.4348  0.0112 -0.2592
  965SOL     OW 2893   0.816   2.829   0.828  0.2155  0.0882  0.2584
  965SOL    HW1 2894   0.727   2.804   0.782 -2.1981 -3.5166 -1.5957
  965SOL    HW2 2895   0.829   2.784   0.917 -1.6992  2.8494 -1.6267
  966SOL     OW 2896   0.020   1.266   2.941  0.0482  0.2862  0.3338
  966SOL    HW1 2897   0.025   1.232   2.846  0.8436 -0.3101  2.4363
  966SOL    HW2 2898   3.023   1.299   2.958 -1.6339 -0.9515 -1.2277
  967SOL     OW 2899   1.211   2.747   1.963 -0.1637  0.0985  0.6765
  967SOL    HW1 2900   1.265   2.677   2.010 -1.5414  1.2323 -2.0431
  967SOL    HW2 2901   1.237   2.747   1.863  0.4647  0.6850 -1.7399
  968SOL     OW 2902   1.650   0.806   0.576  0.0771 -0.5723  0.0186
  968SOL    HW1 2903   1.706   0.780   0.498  0.3171  0.0643  1.9919
  968SOL    HW2 2904   1.556   0.823   0.539 -0.5724  3.2704  1.5532
  969SOL     OW 2905   0.179   1.677   2.065  0.2097  0.9044 -0.6833
  969SOL    HW1 2906   0.142   1.682   1.975  1.6247 -1.8569  3.7164
  969SOL    HW2 2907   0.212   1.766   2.098 -2.9631  4.0810 -0.4957
  970SOL     OW 2908   2.691   1.638   1.410  0.1024 -0.0961 -0.4831
  970SOL    HW1 2909   2.686   1.695   1.327 -0.6893  1.9701 -0.2930
  970SOL    HW2 2910   2.778   1.579   1.409  0.3288 -0.1491 -0.4369
  971SOL     OW 2911   1.405   0.390   1.519  0.1103 -0.2688  0.2710
  971SOL    HW1 2912   1.439   0.365   1.425 -0.3209  1.3260 -0.7492
  971SOL    HW2 2913   1.454   0.336   1.593  1.7997  0.3692 -1.7202
  972SOL     OW 2914   0.531   0.012   2.578 -0.1631  0.8818 -0.2940
  972SOL    HW1 2915   0.481   3.021   2.581  0.5437 -1.0516  2.3404
  972SOL    HW2 2916   0.520   0.072   2.660 -0.6335 -0.3438 -0.5670
  973SOL     OW 2917   2.739   1.119   0.278  0.1418 -0.1650 -0.4116
  973SOL    HW1 2918   2.720   1.049   0.349 -1.2193 -2.8558 -3.0314
  973SOL    HW2 2919   2.714   1.212   0.320 -0.7597  1.4779 -4.9149
  974SOL     OW 2920   1.991   1.276   2.021  0.1697 -0.0368 -0.4788
  974SOL    HW1 2921   1.948   1.187   1.993 -0.2364  0.2928  0.9944
  974SOL    HW2 2922   1.936   1.355   1.981  1.2932  0.3669 -2.2863
  975SOL     OW 2923   2.828   2.722   0.673 -0.5521 -0.5839  0.1261
  975SOL    HW1 2924   2.923   2.729   0.711 -2.1669  0.5976  1.9439
  975SOL    HW2 2925   2.764   2.656   0.718 -1.2717 -1.0337 -0.9358
  976SOL     OW 2926   0.087   1.674   1.791  0.0586 -0.4848 -0.2633
  976SOL    HW1 2927   0.155   1.734   1.745  1.0292  4.2283 -0.6559
  976SOL    HW2 2928   3.096   1.717   1.814 -0.6883 -0.2404 -0.3220
  977SOL     OW 2929   0.828   2.598   0.121  0.3870 -0.0056 -0.6245
  977SOL    HW1 2930   0.818   2.507   0.080 -0.5197  0.3717 -0.4517
  977SOL    HW2 2931   0.916   2.596   0.173  0.0835 -0.9167 -1.7783
  978SOL     OW 2932   0.939   1.929   2.647  0.2418  0.1590 -0.4358
  978SOL    HW1 2933   0.908   1.967   2.738 -0.4213 -1.7244  2.1997
  978SOL    HW2 2934   0.906   1.984   2.569  0.4389 -0.7842 -0.4374
  979SOL     OW 2935   1.178   2.211   1.136 -0.1083 -0.6588  0.5736
  979SOL    HW1 2936   1.264   2.188   1.085 -2.3630 -3.2287  1.6071
  979SOL    HW2 2937   1.094   2.209   1.080  0.4493 -2.8200 -0.1873
  980SOL     OW 2938   0.457   1.513   2.651 -0.4608 -0.7593  0.3574
  980SOL    HW1 2939   0.408   1.551   2.575  0.5881 -1.8319 -0.1786
  980SOL    HW2 2940   0.528   1.582   2.683  1.7859 -0.6409 -1.8475
  981SOL     OW 2941   2.694   0.472   2.840  0.1436 -0.1649 -0.2034
  981SOL    HW1 2942   2.731   0.422   2.762  1.1440  1.0036  1.3113
  981SOL    HW2 2943   2.709   0.419   2.924  2.0383  1.8147 -1.3372
  982SOL     OW 2944   2.984   2.723   2.804  0.4449 -0.3871 -0.1034
  982SOL    HW1 2945   3.011   2.712   2.706  0.5696  2.8867  1.5321
  982SOL    HW2 2946   2.892   2.684   2.815  2.8035 -0.0850 -1.2707
  983SOL     OW 2947   2.296   0.910   1.797 -0.6063 -0.6528  0.2708
  983SOL    HW1 2948   2.335   1.000   1.825 -0.2041 -1.0189 -0.0342
  983SOL    HW2 2949   2.336   0.836   1.849  1.9695  1.4871  0.8231
  984SOL     OW 2950   0.998   0.251   2.227 -0.0923  0.4099 -0.0446
  984SOL    HW1 2951   1.081   0.306   2.227 -0.6719 -0.9351 -1.9807
  984SOL    HW2 2952   0.994   0.203   2.317  3.4968  1.3581 -1.6967
  985SOL     OW 2953   1.523   2.131   2.175 -0.1072  0.2622 -0.1313
  985SOL    HW1 2954   1.560   2.045   2.140 -1.8727 -0.1138 -1.9581
  985SOL    HW2 2955   1.603   2.192   2.186 -0.5022  0.0686  0.3127
  986SOL     OW 2956   1.870   0.522   2.239  0.0585 -0.3817 -0.3398
  986SOL    HW1 2957   1.896   0.608   2.291  1.7407  2.1454  0.5216
  986SOL    HW2 2958   1.805   0.532   2.165 -1.6785  0.3056  1.9176
  987SOL     OW 2959   2.322   0.605   2.341 -0.3377  0.7479 -0.4445
  987SOL    HW1 2960   2.266   0.668   2.282 -2.0789  2.9114  0.6547
  987SOL    HW2 2961   2.303   0.503   2.327  0.9931  0.2739  0.1174
  988SOL     OW 2962   2.429   0.364   2.780  0.3006 -0.2134 -0.2641
  988SOL    HW1 2963   2.515   0.414   2.797  0.7132 -2.8480 -0.8503
  988SOL    HW2 2964   2.348   0.425   2.780  0.9828 -0.7424 -0.3358
  989SOL     OW 2965   2.454   2.422   2.706  0.3010  0.0651 -0.3401
  989SOL    HW1 2966   2.464   2.320   2.734 -1.3502 -1.4434 -0.0775
  989SOL    HW2 2967   2.524   2.443   2.634 -0.0658 -0.3599 -3.4560
  990SOL     OW 2968   0.238   0.477   0.191 -0.5743  0.1141  0.2376
  990SOL    HW1 2969   0.186   0.471   0.279  0.1993 -2.6100 -0.9418
  990SOL    HW2 2970   0.180   0.517   0.118  3.0095 -1.3612  1.4830
  991SOL     OW 2971   0.530   0.472   2.983 -0.3629 -0.1725 -0.0463
  991SOL    HW1 2972   0.482   0.428   3.061 -0.5837 -2.7330 -0.5381
  991SOL    HW2 2973   0.630   0.460   2.990 -3.0713 -0.6361  3.1128
  992SOL     OW 2974   0.037   2.059   2.170 -0.0693  0.9738  0.2796
  992SOL    HW1 2975   0.030   2.044   2.271 -0.7675  0.9941 -1.2213
  992SOL    HW2 2976   0.116   1.999   2.135  3.3367 -3.0138 -1.7351
  993SOL     OW 2977   0.473   3.039   0.690 -0.7189 -0.0669  0.1386
  993SOL    HW1 2978   0.383   3.056   0.648 -0.3396  1.3576  0.6767
  993SOL    HW2 2979   0.495   0.006   0.760 -1.6550 -2.2689 -1.9876
  994SOL     OW 2980   0.265   2.134   1.734  0.8449 -0.3438  0.1988
  994SOL    HW1 2981   0.306   2.136   1.828  0.1221 -0.2839  1.3484
  994SOL    HW2 2982   0.319   2.190   1.667 -0.3075  2.0362  1.3030
  995SOL     OW 2983   2.272   1.521   2.979 -0.3164  0.5110  0.5109
  995SOL    HW1 2984   2.207   1.483   3.051 -0.2017 -0.8829  1.7692
  995SOL    HW2 2985   2.226   1.539   2.893  1.1019 -2.7368  0.2122
  996SOL     OW 2986   1.683   1.550   2.630 -0.5703  0.0819 -0.7627
  996SOL    HW1 2987   1.702   1.640   2.675 -2.3206  0.4420 -2.3421
  996SOL    HW2 2988   1.764   1.530   2.573 -0.0374  0.2180  0.6257
  997SOL     OW 2989   1.862   1.473   1.917  0.2258 -0.1912 -0.0028
  997SOL    HW1 2990   1.923   1.560   1.924  0.9656  0.9264 -0.1292
  997SOL    HW2 2991   1.812   1.480   1.827  1.0782 -2.7398  0.4290
  998SOL     OW 2992   2.455   1.731   0.281 -0.2813 -0.5663  0.2014
  998SOL    HW1 2993   2.378   1.784   0.324  0.8177  0.6134  0.3519
  998SOL    HW2 2994   2.446   1.741   0.178 -2.4519  0.0186 -0.7616
  999SOL     OW 2995   2.426   2.733   0.550  0.0846 -0.2016 -0.5981
  999SOL    HW1 2996   2.424   2.805   0.483  0.9907  0.9484  2.1638
  999SOL    HW2 2997   2.517   2.717   0.580 -3.5459 -1.5393 -0.2128
 1000SOL     OW 2998   0.582   2.758   2.519 -0.4123  0.0064  1.0745
 1000SOL    HW1 2999   0.586   2.728   2.421  1.6819  1.1148 -0.6532
 1000SOL    HW2 3000   0.675   2.783   2.552  1.0439 -0.9727 -1.4752
   3.09712   3.09712   3.09712
