1000 SPC/Fw water molecules t= 162.00000 step= 162000
 3000
    1SOL     OW    1   2.768   2.675   0.685  0.3058  0.0611  0.1311
    1SOL    HW1    2   2.870   2.691   0.672  1.8700 -1.2091  2.2183
    1SOL    HW2    3   2.747   2.598   0.750  2.3536 -1.2542  1.2013
    2SOL     OW    4   1.371   1.892   2.278 -0.0149  0.1347 -0.1418
    2SOL    HW1    5   1.297   1.934   2.224  0.1740 -0.7060  0.9110
    2SOL    HW2    6   1.453   1.900   2.215 -0.7272  0.4953 -1.7380
    3SOL     OW    7   1.771   2.376   2.053  0.1862 -0.5748 -0.0930
    3SOL    HW1    8   1.834   2.398   1.976  1.2264 -0.4415  0.2874
    3SOL    HW2    9   1.823   2.369   2.137 -2.5054 -0.2511 -2.8147
    4SOL     OW   10   1.916   2.362   2.277 -0.1052 -0.1889 -0.0170
    4SOL    HW1   11   2.015   2.392   2.289  0.0123  1.6023  3.2060
    4SOL    HW2   12   1.864   2.372   2.368 -1.2541  0.2046  3.9068
    5SOL     OW   13   0.769   0.713   1.653 -0.1241 -0.0872 -0.2847
    5SOL    HW1   14   0.773   0.801   1.706 -0.1038 -1.2110  0.3434
    5SOL    HW2   15   0.834   0.647   1.689 -1.3913  0.7075 -1.3914
    6SOL     OW   16   2.400   0.979   2.835 -0.0033  0.3215 -0.2163
    6SOL    HW1   17   2.449   0.999   2.746  0.1669  0.9749 -4.2468
    6SOL    HW2   18   2.313   0.936   2.809  2.3322 -0.3173 -2.0117
    7SOL     OW   19   1.001   0.498   1.328  0.7243  0.1535  0.5598
    7SOL    HW1   20   1.102   0.501   1.318  0.6603 -1.6940 -1.2850
    7SOL    HW2   21   0.956   0.590   1.343  0.7360  0.7462  1.3765
    8SOL     OW   22   0.954   2.428   1.385 -0.8086 -0.2771  0.4442
    8SOL    HW1   23   0.983   2.342   1.439 -0.6827 -1.0611 -1.5714
    8SOL    HW2   24   0.942   2.507   1.446 -3.4924 -1.4567 -0.4703
    9SOL     OW   25   0.600   1.103   0.280  0.5179 -0.4779 -0.2883
    9SOL    HW1   26   0.531   1.133   0.212  0.5334 -1.4428  1.0379
    9SOL    HW2   27   0.682   1.066   0.235  0.0111  1.2885  1.7760
   10SOL     OW   28   0.447   2.918   2.886  0.9176 -0.1368  0.4008
   10SOL    HW1   29   0.353   2.876   2.907  0.7685 -2.7420  0.3201
   10SOL    HW2   30   0.522   2.852   2.891 -0.1104 -0.8508 -0.4433
   11SOL     OW   31   0.114   1.348   2.879  0.0795 -0.0999  0.1035
   11SOL    HW1   32   0.087   1.423   2.819 -0.4313 -0.7211 -0.4580
   11SOL    HW2   33   0.175   1.383   2.948  0.5182 -0.7258  0.0238
   12SOL     OW   34   0.589   0.033   1.362  0.4157 -0.2085  0.2307
   12SOL    HW1   35   0.571   0.042   1.260  0.8342 -0.8810  0.8681
   12SOL    HW2   36   0.506   0.030   1.417 -0.9576 -0.5124 -1.3539
   13SOL     OW   37   0.618   2.831   0.524 -0.2854  0.3421  0.7278
   13SOL    HW1   38   0.668   2.740   0.535  0.1504 -1.4105  1.0555
   13SOL    HW2   39   0.662   2.896   0.458  2.1950 -0.8225 -2.4311
   14SOL     OW   40   1.465   1.818   0.881  0.1846 -0.2957  0.1531
   14SOL    HW1   41   1.455   1.921   0.893  0.9236 -1.1888 -0.7267
   14SOL    HW2   42   1.450   1.775   0.974 -1.0649  4.3599  1.3713
   15SOL     OW   43   2.628   0.863   2.325  0.3262  0.4700 -0.3693
   15SOL    HW1   44   2.584   0.797   2.386 -0.4133  1.8392 -0.9124
   15SOL    HW2   45   2.555   0.909   2.270 -0.2435 -1.1118 -3.0965
   16SOL     OW   46   1.348   3.046   2.929 -0.7406  0.8167 -0.1421
   16SOL    HW1   47   1.359   2.949   2.891  0.3737 -0.7459 -0.4691
   16SOL    HW2   48   1.317   0.013   2.853  0.6488  2.3139 -0.4130
   17SOL     OW   49   0.674   2.355   1.775  0.1907 -0.3060 -0.5077
   17SOL    HW1   50   0.692   2.375   1.874 -0.0476  0.9254  0.9121
   17SOL    HW2   51   0.655   2.446   1.728  0.8652  3.2377  0.3272
   18SOL     OW   52   1.295   0.730   0.120  0.2543 -0.6251  0.7622
   18SOL    HW1   53   1.362   0.711   0.045  1.3845  0.5025  2.8003
   18SOL    HW2   54   1.297   0.658   0.194 -0.9126  0.2641 -1.8131
   19SOL     OW   55   2.081   1.925   2.912 -0.5149 -0.3963 -0.1347
   19SOL    HW1   56   2.045   2.021   2.924 -0.8767  0.1823  0.5401
   19SOL    HW2   57   2.167   1.926   2.855  3.0588 -0.5424  1.1238
   20SOL     OW   58   2.143   1.773   1.989  0.4646 -0.5559 -0.0938
   20SOL    HW1   59   2.212   1.760   2.062 -1.6593  1.5254 -0.5666
   20SOL    HW2   60   2.052   1.734   2.022  1.0037 -0.0435  1.0287
   21SOL     OW   61   0.278   1.693   2.857  0.3568  0.2720  1.0223
   21SOL    HW1   62   0.291   1.694   2.956  0.6975  0.5701 -0.4434
   21SOL    HW2   63   0.362   1.666   2.809 -2.5669  1.7488 -0.5221
   22SOL     OW   64   2.429   3.015   1.389 -0.5335 -0.0507  0.1826
   22SOL    HW1   65   2.526   2.977   1.373  1.7156 -5.7836 -0.2865
   22SOL    HW2   66   2.367   2.996   1.310  1.4141  1.1837  2.6162
   23SOL     OW   67   3.062   1.055   1.733 -0.2843 -0.0733  0.3531
   23SOL    HW1   68   3.021   0.961   1.711 -1.6748  0.8880 -3.4664
   23SOL    HW2   69   0.058   1.058   1.695 -2.9701  2.8002 -0.7959
   24SOL     OW   70   2.705   1.857   1.308 -0.1931  0.6163 -0.0285
   24SOL    HW1   71   2.803   1.847   1.279  2.0138  1.0245 -0.5859
   24SOL    HW2   72   2.679   1.803   1.389 -0.0168 -1.4120  2.0181
   25SOL     OW   73   1.959   3.080   2.598 -0.2898  0.1887  0.0077
   25SOL    HW1   74   2.002   3.028   2.523  1.4226  1.9942  0.7174
   25SOL    HW2   75   1.886   3.026   2.642 -0.7867 -1.9398 -0.6117
   26SOL     OW   76   1.447   3.010   0.440  0.0445  0.0097  0.0806
   26SOL    HW1   77   1.504   3.092   0.426  0.0729  3.2889  1.7872
   26SOL    HW2   78   1.447   2.991   0.541  3.5454  0.0162 -0.7832
   27SOL     OW   79   0.822   2.030   3.054  0.1063  0.8656 -0.5279
   27SOL    HW1   80   0.825   2.039   0.059 -2.1570 -0.5816 -0.9423
   27SOL    HW2   81   0.727   2.018   3.023 -0.9009  1.1740 -1.8323
   28SOL     OW   82   2.824   1.481   1.159  0.5203  1.1451  0.1471
   28SOL    HW1   83   2.772   1.545   1.104 -0.0739  0.4047 -1.3146
   28SOL    HW2   84   2.863   1.403   1.104  0.4796  1.6259  0.1836
   29SOL     OW   85   2.599   2.125   2.253 -0.8687 -0.1162 -0.1085
   29SOL    HW1   86   2.517   2.189   2.228  0.1351  1.8804 -2.5758
   29SOL    HW2   87   2.682   2.161   2.202  0.6005  0.4395  1.4355
   30SOL     OW   88   1.056   2.892   0.825 -0.7304 -0.2154  0.1421
   30SOL    HW1   89   1.148   2.910   0.796 -2.6109 -0.9875  2.0262
   30SOL    HW2   90   1.014   2.968   0.880 -2.1634 -1.0531 -0.5068
   31SOL     OW   91   3.008   2.161   1.715 -0.4030 -0.3548 -0.5328
   31SOL    HW1   92   3.004   2.245   1.661  0.4495 -1.9546 -1.8570
   31SOL    HW2   93   0.006   2.133   1.725 -1.2285 -0.1227  0.0613
   32SOL     OW   94   1.349   0.958   1.888 -0.6672  0.0099 -0.0515
   32SOL    HW1   95   1.404   0.952   1.798  1.3483  0.1373 -1.3387
   32SOL    HW2   96   1.388   0.896   1.963  0.6119 -3.2607  2.8141
   33SOL     OW   97   0.574   2.893   2.545  0.2640 -0.0786  0.3730
   33SOL    HW1   98   0.594   2.924   2.447  0.3834 -1.4731 -0.4397
   33SOL    HW2   99   0.620   2.949   2.617  2.1410 -1.2662 -0.1386
   34SOL     OW  100   1.769   2.922   1.373  0.2728  0.6461  0.4959
   34SOL    HW1  101   1.714   2.909   1.457  2.4584 -0.0475 -3.0432
   34SOL    HW2  102   1.850   2.861   1.372  0.7918 -0.3100  0.9259
   35SOL     OW  103   2.117   0.564   1.217 -0.8320  0.2441  0.6913
   35SOL    HW1  104   2.196   0.547   1.150  1.5816  0.5316  0.8239
   35SOL    HW2  105   2.148   0.642   1.278  0.4893  0.5921  0.7007
   36SOL     OW  106   2.081   2.658   2.250 -0.0659 -0.2834 -0.0201
   36SOL    HW1  107   2.114   2.588   2.317  1.2981  0.8575  0.7865
   36SOL    HW2  108   2.124   2.649   2.157  1.2248 -0.8044  3.7302
   37SOL     OW  109   1.017   2.337   2.215 -0.2190  0.0125 -0.0457
   37SOL    HW1  110   1.092   2.319   2.283  0.1855  1.2741 -0.3565
   37SOL    HW2  111   0.926   2.307   2.249  2.1368 -1.5347  2.2611
   38SOL     OW  112   2.332   0.313   0.106 -0.3054 -0.5495 -0.0375
   38SOL    HW1  113   2.383   0.236   0.145  1.0074 -0.7890  0.6980
   38SOL    HW2  114   2.294   0.288   0.013 -3.4681  1.2096  1.0306
   39SOL     OW  115   1.944   1.686   2.416 -0.0769  0.3919 -0.0075
   39SOL    HW1  116   1.926   1.784   2.429  1.5430 -1.8264 -0.8734
   39SOL    HW2  117   1.855   1.634   2.431 -0.7702  0.9827  0.2415
   40SOL     OW  118   0.236   3.041   2.672  0.1854  0.1681 -0.4417
   40SOL    HW1  119   0.302   3.040   2.749  0.3217 -2.4421  1.5136
   40SOL    HW2  120   0.248   2.949   2.628  2.1112 -1.2256 -1.0904
   41SOL     OW  121   1.664   0.576   1.426 -0.4280 -0.3928  0.3636
   41SOL    HW1  122   1.620   0.490   1.461 -0.9638 -1.4137  1.6054
   41SOL    HW2  123   1.770   0.575   1.443  0.8962  0.4916  0.6821
   42SOL     OW  124   0.545   0.189   1.702 -0.5816 -0.0353 -0.9555
   42SOL    HW1  125   0.543   0.254   1.624  1.0853  1.4489 -0.2943
   42SOL    HW2  126   0.642   0.162   1.718 -4.1714  1.4106  0.8180
   43SOL     OW  127   1.619   0.152   2.032 -0.2369  0.0412  0.0650
   43SOL    HW1  128   1.577   0.165   2.127  0.7692  0.2304  0.0219
   43SOL    HW2  129   1.720   0.142   2.037  2.5910  0.2142 -2.9829
   44SOL     OW  130   0.193   2.643   2.714  0.4009  0.5807 -0.1791
   44SOL    HW1  131   0.261   2.698   2.664 -3.1571 -0.1122  0.6284
   44SOL    HW2  132   0.099   2.672   2.684 -0.6064  3.4157 -0.2022
   45SOL     OW  133   0.178   2.398   1.543 -0.0302 -0.1364  0.1628
   45SOL    HW1  134   0.149   2.443   1.629  1.1838 -0.8351 -2.6498
   45SOL    HW2  135   0.252   2.330   1.560 -0.7402  0.4193 -1.2327
   46SOL     OW  136   2.136   2.011   2.336  0.1110 -0.2533 -0.3533
   46SOL    HW1  137   2.099   2.045   2.427 -0.6887 -0.0833  2.0758
   46SOL    HW2  138   2.138   1.910   2.330  0.7034  0.4817  2.7798
   47SOL     OW  139   1.807   1.925   1.623  0.3940 -0.0726  0.0951
   47SOL    HW1  140   1.842   1.988   1.693  0.5025  0.9874 -2.0398
   47SOL    HW2  141   1.816   1.829   1.654 -0.5070  0.4899 -0.1826
   48SOL     OW  142   0.512   1.748   0.236  0.6068 -0.2426  0.1429
   48SOL    HW1  143   0.588   1.784   0.179  2.1369 -2.8165  1.5135
   48SOL    HW2  144   0.544   1.703   0.324  1.3176 -1.7215  0.0947
   49SOL     OW  145   2.675   0.484   2.319 -0.1234  0.7700  0.2646
   49SOL    HW1  146   2.652   0.542   2.396 -0.0981 -5.8253 -0.4130
   49SOL    HW2  147   2.660   0.533   2.234  1.9547 -1.1539  0.8915
   50SOL     OW  148   2.035   0.643   0.939 -0.1623 -0.6673  0.4193
   50SOL    HW1  149   2.009   0.712   1.007 -1.6836 -1.2267  1.5083
   50SOL    HW2  150   1.968   0.642   0.864  0.3772  1.9762 -2.1138
   51SOL     OW  151   1.254   0.704   1.029  1.0098  0.2162  0.2017
   51SOL    HW1  152   1.173   0.758   1.058 -0.0148 -0.7764  1.9499
   51SOL    HW2  153   1.307   0.741   0.952 -0.1952 -0.5502 -0.0672
   52SOL     OW  154   1.316   1.216   0.058  0.3621 -0.1196  0.4764
   52SOL    HW1  155   1.295   1.130   0.108 -2.4256  1.6651 -0.7883
   52SOL    HW2  156   1.236   1.277   0.055  4.3480 -3.1445 -1.2636
   53SOL     OW  157   1.210   1.934   2.837  0.3794 -0.1341 -0.1940
   53SOL    HW1  158   1.130   1.884   2.880  1.5649 -0.0956  1.0785
   53SOL    HW2  159   1.188   1.965   2.746 -2.8580 -0.7445  1.6935
   54SOL     OW  160   1.942   0.536   1.444  0.0253  0.8016  0.6253
   54SOL    HW1  161   1.955   0.509   1.347  0.3029 -0.6219 -0.3141
   54SOL    HW2  162   2.024   0.511   1.503  0.5512 -2.0275  0.2911
   55SOL     OW  163   2.065   2.849   0.696 -0.4249 -0.3139  0.6776
   55SOL    HW1  164   2.075   2.879   0.595  0.4971 -0.4354 -0.1293
   55SOL    HW2  165   1.980   2.798   0.711  0.5256  0.9918  1.8231
   56SOL     OW  166   0.833   2.820   1.207  0.1479  0.2927 -0.6777
   56SOL    HW1  167   0.931   2.806   1.199 -2.0875  1.4622 -0.2794
   56SOL    HW2  168   0.801   2.817   1.305  0.6334  0.5138  4.1320
   57SOL     OW  169   1.839   1.337   0.481  0.0164 -0.5228  0.4844
   57SOL    HW1  170   1.761   1.320   0.419 -1.9829  1.2944  0.7141
   57SOL    HW2  171   1.930   1.308   0.444  0.9776 -0.7830  0.5285
   58SOL     OW  172   0.380   1.201   2.193 -0.0807  0.6442  0.3399
   58SOL    HW1  173   0.386   1.229   2.292  0.9468  1.6164 -0.7091
   58SOL    HW2  174   0.288   1.166   2.170  0.8988  0.1317  0.4211
   59SOL     OW  175   0.595   2.631   2.598  0.4011  0.0942  0.4598
   59SOL    HW1  176   0.692   2.601   2.600 -0.2165 -0.2179  2.9479
   59SOL    HW2  177   0.591   2.728   2.575  1.7634 -0.2809 -0.7095
   60SOL     OW  178   2.603   2.628   1.101  0.5136 -0.0833 -0.7992
   60SOL    HW1  179   2.517   2.630   1.158 -2.6084  1.7423  0.4275
   60SOL    HW2  180   2.630   2.714   1.062  2.3290 -0.3363  1.4946
   61SOL     OW  181   1.230   2.113   0.652 -0.0809 -0.2625  0.3486
   61SOL    HW1  182   1.198   2.069   0.737 -0.7285  2.0935 -1.5586
   61SOL    HW2  183   1.334   2.104   0.643 -0.8406 -0.2849  1.3442
   62SOL     OW  184   2.178   2.700   2.748 -0.1961  0.1213 -0.1106
   62SOL    HW1  185   2.195   2.611   2.791  1.3730  0.6063 -0.5359
   62SOL    HW2  186   2.219   2.775   2.804 -1.8715 -1.0920 -0.4858
   63SOL     OW  187   1.999   0.370   3.084 -0.1536  0.2230 -0.1154
   63SOL    HW1  188   2.001   0.360   0.085 -0.1039  3.0575  1.6140
   63SOL    HW2  189   2.091   0.373   3.039 -1.0837  0.4009  1.1370
   64SOL     OW  190   0.957   1.064   2.854  0.8358  0.0660 -0.3994
   64SOL    HW1  191   1.012   1.110   2.777 -0.0568  3.5309 -0.8501
   64SOL    HW2  192   0.857   1.106   2.858 -2.2431  1.5109 -0.6684
   65SOL     OW  193   1.423   2.399   0.680 -0.3681  0.3492  0.4658
   65SOL    HW1  194   1.400   2.421   0.581  2.6332 -0.6167  0.2640
   65SOL    HW2  195   1.447   2.297   0.680 -1.2347  0.9718 -2.7029
   66SOL     OW  196   0.656   1.261   1.825  0.3569  0.0801  1.1433
   66SOL    HW1  197   0.701   1.304   1.899 -1.0249 -1.0475 -2.1545
   66SOL    HW2  198   0.563   1.230   1.849  0.1864  0.9648 -2.5572
   67SOL     OW  199   2.476   3.090   2.305  0.4672 -0.3614  0.2660
   67SOL    HW1  200   2.379   3.079   2.269 -1.1078 -0.9015 -0.9046
   67SOL    HW2  201   2.492   0.086   2.336  0.3630  1.5838  0.5221
   68SOL     OW  202   0.921   1.147   1.155 -0.9434  0.3787  0.1869
   68SOL    HW1  203   0.937   1.082   1.228 -0.2390  0.2345  0.3759
   68SOL    HW2  204   0.830   1.123   1.111 -1.8294  0.0598  0.5321
   69SOL     OW  205   1.945   2.596   0.449  0.1065  0.3443  0.4600
   69SOL    HW1  206   1.888   2.674   0.417 -0.0012  2.3477 -0.1650
   69SOL    HW2  207   1.908   2.564   0.539  0.2620 -2.2213 -0.6508
   70SOL     OW  208   2.842   1.032   2.351  0.0775 -0.6098 -0.0391
   70SOL    HW1  209   2.933   0.992   2.362  0.0375  2.6163  2.4842
   70SOL    HW2  210   2.761   0.969   2.346  3.3285 -0.0710 -2.1323
   71SOL     OW  211   3.046   1.636   0.008 -0.0142 -0.2793  0.4201
   71SOL    HW1  212   2.976   1.569   3.065 -0.0631  1.3452 -0.6697
   71SOL    HW2  213   0.000   1.600   0.085 -0.0174  1.7531 -0.0497
   72SOL     OW  214   2.851   2.271   0.550 -0.1906  0.1930  0.0663
   72SOL    HW1  215   2.754   2.274   0.578 -1.8525 -1.4309 -0.2827
   72SOL    HW2  216   2.874   2.184   0.499  0.5142  3.6710 -0.2902
   73SOL     OW  217   0.958   1.508   0.442 -0.1754  0.0561  0.0404
   73SOL    HW1  218   0.886   1.458   0.495 -2.0443 -0.1927  2.5375
   73SOL    HW2  219   0.966   1.598   0.490  0.4828  3.7571 -0.0263
   74SOL     OW  220   0.231   1.829   2.072 -0.4722 -0.3385  0.0442
   74SOL    HW1  221   0.174   1.895   2.122 -1.3196  2.4458  0.5992
   74SOL    HW2  222   0.266   1.756   2.133 -0.6243  0.8106 -0.3137
   75SOL     OW  223   1.623   1.484   1.607  0.0443  0.6381 -0.1226
   75SOL    HW1  224   1.604   1.467   1.507 -2.3599 -0.8940  2.1151
   75SOL    HW2  225   1.639   1.583   1.626 -1.1662 -0.4226  0.4510
   76SOL     OW  226   1.992   2.732   1.406 -0.2279  0.0392  0.0915
   76SOL    HW1  227   2.031   2.638   1.382  1.6640 -0.2629  1.5201
   76SOL    HW2  228   2.064   2.787   1.456  0.2048  1.5663 -1.4368
   77SOL     OW  229   2.719   1.002   1.351 -0.1838  0.1221  0.2529
   77SOL    HW1  230   2.814   0.979   1.382  0.6603  2.2294  0.1057
   77SOL    HW2  231   2.713   0.995   1.245  1.6773 -2.3320 -0.2769
   78SOL     OW  232   1.396   1.071   0.423  0.1313 -0.6459 -0.1336
   78SOL    HW1  233   1.390   1.162   0.471 -0.3572  0.4840  0.3939
   78SOL    HW2  234   1.472   1.011   0.461  2.0222 -1.8337 -0.0164
   79SOL     OW  235   2.963   1.307   1.669 -0.1550 -1.0268  0.2955
   79SOL    HW1  236   2.899   1.286   1.594 -0.0508  0.8051 -1.4082
   79SOL    HW2  237   3.013   1.228   1.701  1.4805  4.6379 -1.7289
   80SOL     OW  238   1.250   0.684   1.624  0.0086 -0.3080 -0.0540
   80SOL    HW1  239   1.200   0.671   1.711  0.6608 -1.2753  0.3845
   80SOL    HW2  240   1.268   0.597   1.567  0.9098 -0.4830 -2.0232
   81SOL     OW  241   0.928   0.019   0.901  0.6079 -0.3721 -0.4124
   81SOL    HW1  242   0.906   0.094   0.835  0.1689  1.0950  0.7109
   81SOL    HW2  243   0.845   3.069   0.939 -0.9192 -2.0167  0.7238
   82SOL     OW  244   1.362   3.095   1.580  0.2067  0.2911  0.2347
   82SOL    HW1  245   1.294   3.077   1.651  1.0034 -2.4923 -1.1191
   82SOL    HW2  246   1.322   0.056   1.506 -0.8650  1.4889  1.8801
   83SOL     OW  247   1.147   2.030   0.891 -0.1166 -0.2751  0.1213
   83SOL    HW1  248   1.133   2.116   0.940  1.4682 -1.3080 -0.3979
   83SOL    HW2  249   1.151   1.958   0.967 -1.0385 -2.3766  1.6990
   84SOL     OW  250   0.455   1.524   2.711  0.0740 -0.6488  0.2998
   84SOL    HW1  251   0.385   1.516   2.635  1.9278  1.0704 -1.0282
   84SOL    HW2  252   0.530   1.579   2.682 -3.0095 -0.8932  1.5407
   85SOL     OW  253   0.025   2.345   1.302  0.0865 -0.3579  0.1368
   85SOL    HW1  254   3.062   2.265   1.301  0.5965 -1.3820  0.8929
   85SOL    HW2  255   0.078   2.342   1.388 -5.0600 -0.3990 -0.5906
   86SOL     OW  256   2.232   2.296   1.387  0.0361  0.2086 -0.0630
   86SOL    HW1  257   2.159   2.353   1.349 -0.8745 -2.4186 -0.6010
   86SOL    HW2  258   2.253   2.330   1.481 -0.2444  2.3594  1.8153
   87SOL     OW  259   2.988   2.061   0.404  0.2498  0.1175  0.5580
   87SOL    HW1  260   2.953   1.969   0.376  0.7734 -0.6690 -0.0191
   87SOL    HW2  261   3.087   2.074   0.398  0.3245  1.7618  0.3691
   88SOL     OW  262   0.903   1.319   1.423  0.0256 -0.0207 -0.0447
   88SOL    HW1  263   0.811   1.316   1.382  1.8681 -2.0383  1.8251
   88SOL    HW2  264   0.977   1.281   1.366  0.4165  0.9308 -3.3534
   89SOL     OW  265   1.169   2.981   1.798  0.3346 -0.0371  0.1926
   89SOL    HW1  266   1.207   2.905   1.859 -1.8083 -0.8461  3.4410
   89SOL    HW2  267   1.095   2.943   1.735 -4.6125 -1.2979 -2.6661
   90SOL     OW  268   2.959   1.782   1.227  0.1005  0.0871 -0.4589
   90SOL    HW1  269   2.989   1.779   1.326 -3.0283  1.3654  0.4532
   90SOL    HW2  270   2.934   1.688   1.198 -2.6180  1.3880 -1.4021
   91SOL     OW  271   1.411   1.731   1.126  0.0023 -0.4427  0.2089
   91SOL    HW1  272   1.343   1.737   1.202 -0.5783 -0.7415  1.8284
   91SOL    HW2  273   1.503   1.739   1.173  1.4186  0.1414  0.5262
   92SOL     OW  274   2.320   2.335   1.650 -0.0571 -0.0477 -0.3078
   92SOL    HW1  275   2.274   2.313   1.739  0.9353  0.0573  2.4709
   92SOL    HW2  276   2.423   2.324   1.667  1.5434  0.5882  4.5237
   93SOL     OW  277   2.820   1.527   2.749  0.2558 -0.1864 -0.4132
   93SOL    HW1  278   2.753   1.476   2.694 -0.1117 -1.3649 -0.6051
   93SOL    HW2  279   2.846   1.476   2.834  2.4438  2.0818 -1.4858
   94SOL     OW  280   2.905   2.886   2.225 -0.6595 -0.8064 -0.2951
   94SOL    HW1  281   2.882   2.973   2.279  1.2091 -0.0792 -0.9446
   94SOL    HW2  282   2.935   2.919   2.137 -1.5876  0.1689  1.9231
   95SOL     OW  283   1.639   0.274   1.760  0.2362  0.0879  0.3041
   95SOL    HW1  284   1.614   0.199   1.824 -0.9402  1.4222 -0.0410
   95SOL    HW2  285   1.659   0.354   1.817 -0.0453 -3.7361  0.0959
   96SOL     OW  286   2.926   0.293   1.565  0.0431  0.4838 -0.3485
   96SOL    HW1  287   2.870   0.345   1.498  1.3504 -1.0333  0.5336
   96SOL    HW2  288   3.012   0.260   1.523  3.8967 -2.4821 -0.7382
   97SOL     OW  289   2.116   0.275   1.409 -1.0052 -0.5045  1.3412
   97SOL    HW1  290   2.023   0.292   1.373 -1.6459 -1.9905 -0.1734
   97SOL    HW2  291   2.134   0.343   1.482  1.3909  1.2412  0.0716
   98SOL     OW  292   1.524   2.670   1.587  0.7010  0.2705  0.5582
   98SOL    HW1  293   1.621   2.638   1.575 -0.1101  1.4154  0.4006
   98SOL    HW2  294   1.474   2.596   1.640  0.8715  2.1807  2.0695
   99SOL     OW  295   2.981   0.151   1.822  0.4238  0.0294  0.5218
   99SOL    HW1  296   2.955   0.201   1.740  3.3002 -0.3346  1.9288
   99SOL    HW2  297   3.047   0.077   1.795  0.8802 -2.6259 -1.7153
  100SOL     OW  298   2.849   1.263   2.175  0.3471  0.0062 -0.4471
  100SOL    HW1  299   2.851   1.362   2.208 -1.4981  0.1118 -2.5986
  100SOL    HW2  300   2.835   1.198   2.253 -0.9925  0.2970  0.0511
  101SOL     OW  301   1.583   0.708   0.730  0.1859 -0.2093  0.2275
  101SOL    HW1  302   1.553   0.627   0.780  1.9883 -1.0720 -1.8130
  101SOL    HW2  303   1.512   0.780   0.756  1.4331 -2.9433  1.1466
  102SOL     OW  304   0.295   0.663   1.436  0.7782 -0.3597 -0.1493
  102SOL    HW1  305   0.230   0.648   1.516 -0.4117  0.8191  1.5184
  102SOL    HW2  306   0.389   0.658   1.469 -5.3198 -0.1891 -2.4566
  103SOL     OW  307   2.337   0.599   2.923  0.1984 -0.8913  0.3120
  103SOL    HW1  308   2.281   0.673   2.964  0.9922 -0.8938 -0.4514
  103SOL    HW2  309   2.430   0.588   2.964 -1.3343  1.9071 -0.3358
  104SOL     OW  310   0.261   0.086   2.077  0.2188 -0.2299  0.6641
  104SOL    HW1  311   0.320   0.074   1.993  0.8978 -0.7663  0.6270
  104SOL    HW2  312   0.235   0.184   2.101  0.0755  0.8073  0.2594
  105SOL     OW  313   1.884   0.822   1.761 -0.2668 -0.7052 -0.0565
  105SOL    HW1  314   1.799   0.783   1.718  1.2386  1.0728 -0.4947
  105SOL    HW2  315   1.957   0.852   1.693  1.0625 -0.8834 -0.8841
  106SOL     OW  316   1.652   0.127   0.946  0.0705  0.6590 -0.4916
  106SOL    HW1  317   1.584   0.052   0.952  2.5585 -2.7084  1.6116
  106SOL    HW2  318   1.676   0.156   1.039 -1.7060 -0.4755  0.6858
  107SOL     OW  319   0.283   1.306   0.765 -0.6249  0.7378  0.1546
  107SOL    HW1  320   0.289   1.284   0.665  1.3509 -1.9088  1.2845
  107SOL    HW2  321   0.198   1.356   0.801 -0.2318  3.6468  1.4272
  108SOL     OW  322   0.001   0.254   2.299 -0.0324  0.5037 -0.2360
  108SOL    HW1  323   3.058   0.200   2.223 -1.2007 -0.4380  1.0733
  108SOL    HW2  324   0.047   0.191   2.361 -1.1244  1.2899 -0.7054
  109SOL     OW  325   2.397   0.443   0.672 -0.0849 -0.4230  0.6713
  109SOL    HW1  326   2.406   0.461   0.572  2.3515  2.9982  2.7669
  109SOL    HW2  327   2.469   0.381   0.710  1.3328 -1.8951  1.1913
  110SOL     OW  328   0.264   2.417   2.903  0.6791  0.2924 -0.1061
  110SOL    HW1  329   0.195   2.491   2.908 -0.4745  0.7330  0.9371
  110SOL    HW2  330   0.351   2.443   2.865 -1.0277  0.4866  0.3150
  111SOL     OW  331   1.764   2.964   2.058 -0.6197 -0.0448  0.3950
  111SOL    HW1  332   1.811   3.045   2.019 -1.1031 -1.0287  1.1907
  111SOL    HW2  333   1.771   2.887   1.992 -0.8355  1.7998 -2.1313
  112SOL     OW  334   2.104   2.565   3.092  0.2741  0.6672 -0.3377
  112SOL    HW1  335   2.044   2.646   0.015 -3.2920  0.9303  0.1407
  112SOL    HW2  336   2.199   2.588   3.077 -0.0624 -1.6939 -1.5860
  113SOL     OW  337   2.595   2.031   1.686 -0.6653  0.4917  0.3093
  113SOL    HW1  338   2.679   2.015   1.635 -0.5641  0.9908  2.4239
  113SOL    HW2  339   2.590   2.131   1.708 -0.7736  2.3041  1.3030
  114SOL     OW  340   2.694   0.906   1.073  0.0892 -0.0979  0.5836
  114SOL    HW1  341   2.625   0.915   0.995 -2.2218  1.3490 -0.4585
  114SOL    HW2  342   2.741   0.817   1.076 -0.6930 -1.1868 -1.7271
  115SOL     OW  343   2.958   1.886   0.121 -0.0114  0.3153  0.0120
  115SOL    HW1  344   2.973   1.983   0.115  1.1249  0.9646  1.8024
  115SOL    HW2  345   3.014   1.824   0.064  0.1341 -1.0260  1.0083
  116SOL     OW  346   0.077   1.489   2.033 -0.4403 -0.0629 -0.1511
  116SOL    HW1  347   0.019   1.408   2.018  0.5574 -0.9886 -0.1499
  116SOL    HW2  348   0.134   1.510   1.955 -4.6566  1.7897 -0.0085
  117SOL     OW  349   2.750   2.995   0.820  0.4238 -0.0590  0.6520
  117SOL    HW1  350   2.667   2.937   0.820  0.6420  0.8213 -0.6284
  117SOL    HW2  351   2.761   3.044   0.728  1.1208 -0.6863  0.4468
  118SOL     OW  352   0.483   2.031   1.626  0.4374  0.3109 -0.4051
  118SOL    HW1  353   0.486   2.031   1.730 -1.1652 -0.1533 -0.9415
  118SOL    HW2  354   0.451   2.122   1.596 -0.5111 -0.1025 -0.0655
  119SOL     OW  355   1.720   2.095   0.495  0.0068  0.1647 -0.1712
  119SOL    HW1  356   1.722   1.993   0.497  1.7460  2.3772  1.7639
  119SOL    HW2  357   1.806   2.136   0.468  2.2515  1.3406  0.4270
  120SOL     OW  358   2.964   2.030   2.399  0.3956  0.1612  0.6713
  120SOL    HW1  359   3.054   2.022   2.447  0.7931 -0.6553  1.3438
  120SOL    HW2  360   2.914   2.119   2.412 -1.9963  1.4826  0.3230
  121SOL     OW  361   2.262   2.016   1.374 -0.1869  0.6099  0.6680
  121SOL    HW1  362   2.184   1.959   1.408 -0.3064  1.2010 -1.8203
  121SOL    HW2  363   2.242   2.115   1.363 -1.0323  1.1592 -2.1876
  122SOL     OW  364   2.088   1.483   2.261  0.2534  0.2606  0.0142
  122SOL    HW1  365   2.187   1.515   2.257  2.8077  1.1338  0.8728
  122SOL    HW2  366   2.034   1.553   2.311  0.3008 -2.8200 -1.7628
  123SOL     OW  367   0.143   2.928   0.664 -0.5479 -0.5525  0.1686
  123SOL    HW1  368   0.073   2.961   0.594 -1.4722  1.9241  0.5155
  123SOL    HW2  369   0.096   2.897   0.748 -0.9387 -3.4447 -0.7601
  124SOL     OW  370   1.792   0.770   2.553 -0.0830  0.1876 -0.5303
  124SOL    HW1  371   1.857   0.832   2.507 -3.2078 -0.5159 -0.1508
  124SOL    HW2  372   1.718   0.828   2.591  0.8768 -3.2751 -3.0507
  125SOL     OW  373   0.542   1.337   2.877  0.1957 -0.0805 -0.7580
  125SOL    HW1  374   0.519   1.405   2.805 -0.6587 -0.0767 -0.4759
  125SOL    HW2  375   0.536   1.374   2.972  0.4780  2.5252  0.5064
  126SOL     OW  376   2.672   1.836   0.199  0.3485  0.3425  0.1776
  126SOL    HW1  377   2.650   1.927   0.244 -0.1547 -0.7219 -1.0827
  126SOL    HW2  378   2.774   1.825   0.198  3.2543 -1.5428 -0.1994
  127SOL     OW  379   0.574   1.611   1.219 -0.2709 -0.0709  0.4049
  127SOL    HW1  380   0.576   1.716   1.225 -0.2104  1.2065 -1.4537
  127SOL    HW2  381   0.497   1.578   1.161 -0.8597 -0.6114 -1.4104
  128SOL     OW  382   0.831   0.687   0.109 -0.2399 -0.3628  0.0308
  128SOL    HW1  383   0.847   0.686   0.011  1.5349  1.6496  2.0498
  128SOL    HW2  384   0.909   0.730   0.156  0.6169  1.3792  0.4676
  129SOL     OW  385   2.222   1.419   0.828 -0.7777  0.2467 -1.1406
  129SOL    HW1  386   2.161   1.381   0.761  1.0152 -0.3681  2.1212
  129SOL    HW2  387   2.189   1.399   0.922 -2.6564  2.3079  0.9485
  130SOL     OW  388   2.301   1.770   0.986 -0.3036 -0.1869 -0.4210
  130SOL    HW1  389   2.313   1.872   0.995 -1.1155  1.0363  0.5340
  130SOL    HW2  390   2.213   1.737   1.031  0.7788 -0.3548  1.1681
  131SOL     OW  391   2.831   1.108   2.833 -0.3249 -0.6138 -0.6219
  131SOL    HW1  392   2.791   1.110   2.935 -1.3324  1.2683  3.6623
  131SOL    HW2  393   2.933   1.098   2.836  1.7971  0.8985 -1.2622
  132SOL     OW  394   2.604   1.575   1.785 -0.1566 -0.3381 -0.1268
  132SOL    HW1  395   2.600   1.658   1.851  3.0530  2.4651  1.4924
  132SOL    HW2  396   2.690   1.520   1.795  1.6536 -0.5258 -0.2761
  133SOL     OW  397   2.913   0.761   0.173 -0.4822 -0.5737  0.1572
  133SOL    HW1  398   2.979   0.687   0.203  0.0068  1.2796  0.6755
  133SOL    HW2  399   2.961   0.840   0.131  2.9223  0.8398 -1.8432
  134SOL     OW  400   0.420   1.200   0.074 -0.5524 -0.0949 -0.7663
  134SOL    HW1  401   0.394   1.295   0.052 -4.0592 -3.3698  0.6087
  134SOL    HW2  402   0.352   1.143   0.021  3.0960 -2.5699  2.7760
  135SOL     OW  403   2.203   1.771   0.688  0.2032  0.4706  0.0055
  135SOL    HW1  404   2.212   1.784   0.793  0.2769  1.9960  2.4833
  135SOL    HW2  405   2.153   1.687   0.663 -0.0017  1.9904  0.9591
  136SOL     OW  406   1.966   1.387   1.190 -0.1941  0.2404  0.7613
  136SOL    HW1  407   1.982   1.319   1.266  1.6375  0.4679 -2.8530
  136SOL    HW2  408   2.056   1.407   1.142 -0.8550  2.8936 -1.1287
  137SOL     OW  409   2.492   1.508   0.786  0.0926  0.2747 -0.2721
  137SOL    HW1  410   2.405   1.492   0.841 -0.9210 -1.3170 -1.7419
  137SOL    HW2  411   2.472   1.597   0.734 -0.9158  1.9602 -1.3158
  138SOL     OW  412   1.171   0.259   1.671  0.0527 -0.2062 -0.5606
  138SOL    HW1  413   1.214   0.335   1.614 -1.2002 -0.4631 -1.6010
  138SOL    HW2  414   1.141   0.189   1.604 -0.5123 -0.4711  1.7358
  139SOL     OW  415   2.171   3.030   0.108  0.1593 -0.5246  0.2740
  139SOL    HW1  416   2.168   3.083   0.019 -0.0862 -2.0321 -1.6212
  139SOL    HW2  417   2.084   3.046   0.165 -2.8392  0.3269 -0.2300
  140SOL     OW  418   1.485   2.147   2.632 -0.4543  0.2887 -0.1356
  140SOL    HW1  419   1.383   2.138   2.611  1.5444  0.2035 -0.4222
  140SOL    HW2  420   1.548   2.124   2.552  0.5692  0.8455 -1.7838
  141SOL     OW  421   0.999   1.115   1.621 -0.3552  0.1479 -0.0717
  141SOL    HW1  422   1.074   1.152   1.681  1.6108  0.3148  0.1136
  141SOL    HW2  423   0.948   1.183   1.564 -0.2883  0.4833  1.4419
  142SOL     OW  424   2.585   0.148   3.094  0.0646  0.2513  0.3276
  142SOL    HW1  425   2.527   0.074   0.035  1.8132  2.5764  0.6688
  142SOL    HW2  426   2.683   0.131   0.029 -0.5886  0.9976  0.4325
  143SOL     OW  427   0.799   2.450   3.063 -0.4600 -0.1046  0.0546
  143SOL    HW1  428   0.776   2.464   0.064 -0.3876 -0.2682  1.4661
  143SOL    HW2  429   0.875   2.511   3.035  2.4252 -0.7955  1.2630
  144SOL     OW  430   1.192   2.665   2.443 -0.6081  0.1256 -0.1121
  144SOL    HW1  431   1.131   2.610   2.504 -1.6112  2.8427 -0.4232
  144SOL    HW2  432   1.287   2.623   2.452 -1.0211 -0.3724 -0.7579
  145SOL     OW  433   2.402   1.448   0.095  0.5727 -1.0238 -0.2770
  145SOL    HW1  434   2.495   1.422   0.068 -0.7044  3.1260  2.2076
  145SOL    HW2  435   2.409   1.547   0.126 -2.2599  1.6194  0.6350
  146SOL     OW  436   2.630   2.919   0.012 -0.4411  0.1087  0.6538
  146SOL    HW1  437   2.600   2.888   0.106 -0.1471  0.7682 -2.9768
  146SOL    HW2  438   2.692   2.998   0.024  1.0616 -1.5486 -0.4809
  147SOL     OW  439   2.498   2.374   1.301 -0.4176  0.0931 -0.3282
  147SOL    HW1  440   2.463   2.463   1.279 -0.3413 -0.5492  0.0873
  147SOL    HW2  441   2.432   2.321   1.347  4.5070  1.8726 -2.1391
  148SOL     OW  442   1.750   0.095   0.068 -0.5517 -0.4019 -0.0476
  148SOL    HW1  443   1.740   0.160   0.145 -1.7575  0.9026  2.3650
  148SOL    HW2  444   1.759   0.142   3.076 -1.7030  1.5636  0.0181
  149SOL     OW  445   1.110   1.450   2.828  0.0134  0.0079  0.4327
  149SOL    HW1  446   1.108   1.364   2.771  0.5341 -1.2998 -0.8767
  149SOL    HW2  447   1.121   1.530   2.771 -0.4702  0.7221  1.0161
  150SOL     OW  448   0.822   2.661   0.541 -0.0743  0.3253 -0.2890
  150SOL    HW1  449   0.876   2.717   0.477 -1.2935  1.9568 -1.5199
  150SOL    HW2  450   0.857   2.564   0.547  3.2715 -2.0940  0.7583
  151SOL     OW  451   0.570   1.928   2.964 -0.0706  0.2070  0.0004
  151SOL    HW1  452   0.493   1.945   2.899 -1.5473 -1.7057 -0.0267
  151SOL    HW2  453   0.587   1.828   2.979 -0.9178 -1.8702  1.1690
  152SOL     OW  454   2.906   1.122   0.507  0.0296  0.0586 -0.3982
  152SOL    HW1  455   2.936   1.065   0.589  1.0308 -2.0134  3.7555
  152SOL    HW2  456   2.805   1.141   0.509 -0.8850  1.9928 -0.2672
  153SOL     OW  457   2.526   2.479   0.083 -0.0766 -0.2363  0.1791
  153SOL    HW1  458   2.506   2.486   0.181  3.4133  1.7840 -0.4137
  153SOL    HW2  459   2.620   2.450   0.066 -2.2043  0.0644  1.2952
  154SOL     OW  460   0.724   2.978   1.012 -0.5941 -0.1478 -0.4621
  154SOL    HW1  461   0.782   2.917   1.069 -1.6073  0.7862  0.1120
  154SOL    HW2  462   0.655   3.017   1.071 -0.3082 -2.3983  0.9326
  155SOL     OW  463   0.481   1.869   1.220 -0.5091 -0.3601 -0.6322
  155SOL    HW1  464   0.442   1.921   1.142  1.0863 -2.0038  0.2556
  155SOL    HW2  465   0.435   1.887   1.311  0.4786  0.3776  0.3996
  156SOL     OW  466   2.425   2.358   2.938 -0.3583  0.0553 -0.0330
  156SOL    HW1  467   2.453   2.260   2.946 -0.5069 -1.1030  2.2190
  156SOL    HW2  468   2.450   2.409   3.021 -0.8868  0.2249 -0.8383
  157SOL     OW  469   0.905   2.308   1.141 -0.7757 -0.3245 -0.0540
  157SOL    HW1  470   0.802   2.303   1.130 -0.2261 -0.2633 -1.6578
  157SOL    HW2  471   0.920   2.350   1.238  1.4882  0.5936 -0.8898
  158SOL     OW  472   1.755   0.738   2.844 -0.2142  0.3354 -0.1950
  158SOL    HW1  473   1.722   0.645   2.807 -0.5388 -3.9033  2.8062
  158SOL    HW2  474   1.678   0.800   2.823 -0.2370 -1.1944  1.6001
  159SOL     OW  475   0.940   0.524   2.484 -0.3564  0.3843 -0.2521
  159SOL    HW1  476   0.946   0.541   2.385 -0.1970  1.9212  0.1838
  159SOL    HW2  477   1.033   0.490   2.504  0.4571 -0.7615 -2.0071
  160SOL     OW  478   1.190   1.840   0.536  0.1760  0.0455 -0.3657
  160SOL    HW1  479   1.216   1.931   0.566 -0.9686 -1.3740  0.8031
  160SOL    HW2  480   1.196   1.844   0.433  0.6824 -0.2927  1.1720
  161SOL     OW  481   3.071   2.111   0.040 -0.0442 -0.6498 -0.1915
  161SOL    HW1  482   0.057   2.064   0.076  2.6755 -0.2134 -2.3302
  161SOL    HW2  483   3.068   2.205   0.084  0.3729 -0.0976 -2.2655
  162SOL     OW  484   0.713   2.648   1.032 -0.0303 -0.1359 -0.0577
  162SOL    HW1  485   0.768   2.673   0.952 -1.7319  2.7827 -0.4408
  162SOL    HW2  486   0.728   2.711   1.112 -2.5712  0.4658  2.3711
  163SOL     OW  487   2.586   0.913   3.065  0.3568 -0.2557 -0.2726
  163SOL    HW1  488   2.522   0.949   2.995 -1.4668 -1.0690 -2.3860
  163SOL    HW2  489   2.642   0.832   3.034  1.6414  0.3415 -2.6872
  164SOL     OW  490   0.193   2.809   2.947 -0.3841  0.3524  0.4355
  164SOL    HW1  491   0.217   2.753   3.030 -3.8020 -2.1787 -3.0557
  164SOL    HW2  492   0.173   2.748   2.866 -0.0056  0.5972 -1.5891
  165SOL     OW  493   2.151   0.457   1.613 -0.4510 -0.2577 -0.2087
  165SOL    HW1  494   2.100   0.416   1.687  2.7887 -0.4506 -3.9307
  165SOL    HW2  495   2.216   0.525   1.648  1.4063  0.7584  0.5219
  166SOL     OW  496   2.025   0.237   0.967 -0.2132  0.4889  0.5779
  166SOL    HW1  497   2.072   0.315   0.917  0.4601  3.3743 -1.0348
  166SOL    HW2  498   2.028   0.147   0.911  2.4916 -1.9078 -0.6726
  167SOL     OW  499   0.426   0.554   1.797  0.1396  0.3529  0.1968
  167SOL    HW1  500   0.431   0.461   1.842  0.1891 -2.7254 -0.3577
  167SOL    HW2  501   0.440   0.629   1.872 -0.3675 -0.2531  3.6578
  168SOL     OW  502   2.878   0.134   2.077 -0.4409 -0.2902 -0.0278
  168SOL    HW1  503   2.775   0.131   2.065 -1.4308 -0.2735  0.1940
  168SOL    HW2  504   2.919   0.118   1.983 -0.8955  1.5226 -2.8609
  169SOL     OW  505   0.089   1.429   0.447  0.3875  0.1720 -0.0806
  169SOL    HW1  506   0.166   1.360   0.459 -0.5468 -2.7903 -1.1227
  169SOL    HW2  507   0.025   1.427   0.521 -1.0712 -1.9343 -0.5204
  170SOL     OW  508   0.240   0.930   1.694 -0.1475 -0.5264 -0.1382
  170SOL    HW1  509   0.330   0.960   1.651  2.3780  0.3752 -2.4869
  170SOL    HW2  510   0.214   0.838   1.662  1.8330  3.5265 -1.2628
  171SOL     OW  511   1.182   1.852   1.922 -0.4117  0.3229 -0.0415
  171SOL    HW1  512   1.155   1.921   1.990 -3.3710  2.7765 -1.1094
  171SOL    HW2  513   1.117   1.861   1.845 -0.1592 -0.9055  2.2201
  172SOL     OW  514   0.477   2.296   1.560 -0.2710  0.4139  0.7988
  172SOL    HW1  515   0.522   2.336   1.641 -0.8269 -0.3386 -0.8724
  172SOL    HW2  516   0.512   2.338   1.474  2.1546  1.0878 -1.6782
  173SOL     OW  517   1.202   3.059   0.333  0.5136 -0.4632  0.6465
  173SOL    HW1  518   1.119   3.007   0.357 -1.2044  1.7972 -1.2908
  173SOL    HW2  519   1.287   3.022   0.371 -1.0773  0.1933  1.5324
  174SOL     OW  520   0.763   2.763   0.221  0.0145 -0.2587  0.1377
  174SOL    HW1  521   0.720   2.847   0.182  0.7991 -0.9207 -0.0571
  174SOL    HW2  522   0.866   2.755   0.206  0.3865 -0.5012  1.8454
  175SOL     OW  523   1.153   0.938   2.997 -0.1414  0.2662 -0.3114
  175SOL    HW1  524   1.137   0.934   3.098 -0.6285 -1.5775  0.9544
  175SOL    HW2  525   1.082   0.996   2.955  0.9046 -0.8665  0.5176
  176SOL     OW  526   1.523   0.515   0.161 -0.2033  0.0109 -0.3046
  176SOL    HW1  527   1.493   0.503   0.068  0.4017 -1.5765  2.2849
  176SOL    HW2  528   1.440   0.513   0.218  2.1731  0.2756  1.0914
  177SOL     OW  529   1.393   1.133   0.761 -0.1960 -0.1471 -0.5280
  177SOL    HW1  530   1.329   1.173   0.696  1.0893 -1.7354 -0.4736
  177SOL    HW2  531   1.488   1.170   0.745  1.0813  1.1354 -0.1193
  178SOL     OW  532   2.737   1.763   2.620 -0.4067 -0.4805  0.0646
  178SOL    HW1  533   2.780   1.681   2.662  0.0865  0.6546  1.4590
  178SOL    HW2  534   2.754   1.771   2.518  0.7263 -1.9203 -2.8484
  179SOL     OW  535   0.647   3.067   2.768 -1.1042  0.1581  0.4113
  179SOL    HW1  536   0.565   3.015   2.801  1.8615  0.4805  0.3971
  179SOL    HW2  537   0.735   3.036   2.811  2.5474  1.4136 -0.3749
  180SOL     OW  538   1.745   1.520   1.213  0.6411 -0.1914 -0.2718
  180SOL    HW1  539   1.839   1.477   1.222  0.4178  0.2169 -1.6372
  180SOL    HW2  540   1.704   1.509   1.118 -0.1507 -1.5607 -2.0806
  181SOL     OW  541   1.107   1.364   2.281 -0.1765  0.6496 -0.0695
  181SOL    HW1  542   1.130   1.281   2.217  1.0911 -3.0457 -2.2936
  181SOL    HW2  543   1.173   1.374   2.360  1.7671  1.9360  1.1908
  182SOL     OW  544   2.856   0.718   2.764  0.0920 -0.5241 -0.1739
  182SOL    HW1  545   2.858   0.809   2.718  1.1052 -0.1590  0.0331
  182SOL    HW2  546   2.846   0.729   2.870  0.6747 -0.5773  2.1512
  183SOL     OW  547   1.661   0.068   2.539 -0.6209 -0.1869 -0.3895
  183SOL    HW1  548   1.688   0.005   2.612 -0.6878  2.0643 -2.8003
  183SOL    HW2  549   1.659   0.017   2.455 -0.7579 -0.3715  0.6900
  184SOL     OW  550   0.590   0.398   1.503  0.9531 -0.2835 -0.1099
  184SOL    HW1  551   0.575   0.502   1.521  0.8844  2.2646 -0.4332
  184SOL    HW2  552   0.692   0.380   1.505  1.1900 -1.4986  0.1280
  185SOL     OW  553   2.537   1.238   0.839  0.8265 -0.5481  0.4927
  185SOL    HW1  554   2.552   1.338   0.820 -1.8777 -1.9371 -1.4008
  185SOL    HW2  555   2.622   1.198   0.882  3.0153 -1.7425  2.8059
  186SOL     OW  556   0.153   2.172   2.910  0.1785 -0.5084  0.5347
  186SOL    HW1  557   0.196   2.265   2.914 -4.3318  3.7978  0.1340
  186SOL    HW2  558   0.076   2.153   2.974 -1.5298 -2.0408  4.0717
  187SOL     OW  559   2.657   1.385   0.077 -0.3537 -0.3063 -0.1676
  187SOL    HW1  560   2.746   1.410   0.119 -1.3089 -1.5707 -2.7531
  187SOL    HW2  561   2.663   1.291   0.043  1.3707 -0.5676 -0.9759
  188SOL     OW  562   0.552   2.150   0.542 -0.6619 -0.5837  0.4447
  188SOL    HW1  563   0.654   2.149   0.533 -1.1239  0.0651  0.3528
  188SOL    HW2  564   0.511   2.090   0.471  1.1732  1.6189  1.0984
  189SOL     OW  565   2.466   0.969   0.197 -0.7349 -0.1892 -0.0635
  189SOL    HW1  566   2.522   0.938   0.117  0.0121 -0.6369 -2.6006
  189SOL    HW2  567   2.488   1.065   0.223  0.1428 -2.3268  0.3821
  190SOL     OW  568   1.270   1.643   2.101 -0.0076 -0.3956 -0.1595
  190SOL    HW1  569   1.182   1.598   2.103  2.2691  1.7614  0.5734
  190SOL    HW2  570   1.248   1.726   2.041 -2.7674  1.5561 -3.5978
  191SOL     OW  571   2.780   0.433   1.351 -0.8329 -1.0869  0.3487
  191SOL    HW1  572   2.702   0.381   1.316  1.1055  0.0638 -0.7053
  191SOL    HW2  573   2.759   0.498   1.431  0.3154  0.0252  1.1477
  192SOL     OW  574   2.214   0.209   1.991  0.5299 -0.2559  0.5195
  192SOL    HW1  575   2.227   0.110   1.971 -2.2574 -1.2222 -0.8308
  192SOL    HW2  576   2.297   0.237   2.047  1.5141  0.6011 -1.0142
  193SOL     OW  577   0.446   0.638   0.471  0.3936  0.2894 -0.1925
  193SOL    HW1  578   0.377   0.617   0.537  2.2419 -0.8403 -0.0260
  193SOL    HW2  579   0.497   0.719   0.497 -0.2824  1.0592  0.3847
  194SOL     OW  580   1.435   2.450   1.728  0.4137 -0.3050  0.3926
  194SOL    HW1  581   1.509   2.481   1.793  1.5613  0.2567  0.7402
  194SOL    HW2  582   1.457   2.357   1.693 -0.9579 -1.8037 -0.4665
  195SOL     OW  583   2.445   0.726   0.713  0.3680 -0.1271 -0.0512
  195SOL    HW1  584   2.415   0.633   0.690  0.5673  2.0819  3.3975
  195SOL    HW2  585   2.387   0.790   0.667  2.2811 -0.6383  2.8817
  196SOL     OW  586   1.879   2.107   2.069  0.2169 -0.5417 -0.0851
  196SOL    HW1  587   1.869   2.025   2.126  2.6690 -1.7457 -1.9143
  196SOL    HW2  588   1.809   2.177   2.084  2.4951 -2.9113  1.0663
  197SOL     OW  589   0.388   0.207   3.097 -0.0943 -0.1566 -0.4266
  197SOL    HW1  590   0.416   0.108   0.002 -0.9630 -0.0627 -0.9031
  197SOL    HW2  591   0.289   0.209   3.077  1.6498 -2.0813  1.6232
  198SOL     OW  592   1.028   1.215   0.886 -0.4521  0.2619  0.3788
  198SOL    HW1  593   1.070   1.300   0.852 -0.0032 -1.1069  1.5722
  198SOL    HW2  594   1.003   1.221   0.986  1.4146 -0.2324 -1.1228
  199SOL     OW  595   2.531   0.838   1.733  0.4535  0.6298  0.4557
  199SOL    HW1  596   2.592   0.777   1.789  0.6263 -1.4854 -0.6488
  199SOL    HW2  597   2.561   0.936   1.733  2.3410 -0.5477  1.0660
  200SOL     OW  598   2.806   2.597   2.178  0.0104  0.2564 -0.4855
  200SOL    HW1  599   2.832   2.691   2.159  0.4145 -2.0245 -1.6171
  200SOL    HW2  600   2.767   2.594   2.271  0.8312  2.7933 -1.3453
  201SOL     OW  601   2.826   0.139   1.190  0.3027  0.2251 -0.1993
  201SOL    HW1  602   2.744   0.192   1.220  0.9485 -0.3266 -1.7634
  201SOL    HW2  603   2.828   0.132   1.090  0.6468 -0.3289  1.3248
  202SOL     OW  604   2.005   0.504   0.604 -0.6319 -0.1694  0.3740
  202SOL    HW1  605   1.964   0.588   0.643  0.7878  1.1699  0.8183
  202SOL    HW2  606   2.066   0.453   0.668 -0.1147  0.1110  1.2940
  203SOL     OW  607   1.796   1.876   2.197 -0.5003  0.1234 -0.0789
  203SOL    HW1  608   1.709   1.882   2.143 -1.7874 -2.2130 -0.9415
  203SOL    HW2  609   1.773   1.872   2.295  0.4485 -1.1525 -1.6113
  204SOL     OW  610   0.864   1.651   2.213  0.1812 -0.4216  0.1101
  204SOL    HW1  611   0.923   1.602   2.144  1.9977 -2.5366 -0.1452
  204SOL    HW2  612   0.916   1.663   2.301  0.7847 -0.5310  1.5336
  205SOL     OW  613   0.943   1.770   1.477 -0.0594 -0.1147 -0.4658
  205SOL    HW1  614   0.955   1.700   1.402  2.3243  2.6880 -1.4963
  205SOL    HW2  615   0.851   1.819   1.481 -1.0545 -1.1303  0.8681
  206SOL     OW  616   2.937   0.411   3.090  0.0376 -0.3275  0.0466
  206SOL    HW1  617   2.968   0.501   3.059 -0.5111 -5.7865 -0.4723
  206SOL    HW2  618   2.839   0.407   3.094 -0.3041  0.5115 -1.1410
  207SOL     OW  619   1.581   2.533   1.933  0.4999  0.3640 -0.8247
  207SOL    HW1  620   1.637   2.614   1.911 -0.3490  1.6417  1.6719
  207SOL    HW2  621   1.637   2.477   1.998  2.1010  0.0244  1.7146
  208SOL     OW  622   0.591   2.383   1.334  0.3676  0.2251 -0.2484
  208SOL    HW1  623   0.679   2.412   1.364 -0.6866  0.2481 -2.0449
  208SOL    HW2  624   0.553   2.443   1.264  2.1898  1.7007 -0.0398
  209SOL     OW  625   1.436   1.222   2.226  0.1844  0.3472 -0.0146
  209SOL    HW1  626   1.404   1.221   2.129 -1.8522 -1.1269 -1.9648
  209SOL    HW2  627   1.369   1.273   2.282 -1.8329 -0.3785 -1.9910
  210SOL     OW  628   1.911   0.839   1.358  0.5758 -0.1597 -0.1666
  210SOL    HW1  629   1.930   0.878   1.264  2.2386  2.5059 -1.6183
  210SOL    HW2  630   1.932   0.737   1.358  0.0068 -1.5553  1.5923
  211SOL     OW  631   0.736   3.054   0.405 -0.1813 -0.1789  0.3205
  211SOL    HW1  632   0.748   3.046   0.302  3.3931  2.3879 -6.6516
  211SOL    HW2  633   0.715   0.047   0.436 -0.6290 -2.2055  0.5019
  212SOL     OW  634   1.767   1.539   0.151  0.2501 -0.4781 -0.3608
  212SOL    HW1  635   1.757   1.605   0.075 -0.7198 -0.0126  2.7087
  212SOL    HW2  636   1.842   1.476   0.124 -3.7356  0.9285  0.3076
  213SOL     OW  637   1.426   0.333   2.613 -0.3813 -0.3023 -0.3706
  213SOL    HW1  638   1.458   0.367   2.521  1.8783 -1.0061  0.4556
  213SOL    HW2  639   1.508   0.330   2.678  0.5931 -0.1618  2.1470
  214SOL     OW  640   1.520   1.530   2.087  0.2461  0.2721 -0.1823
  214SOL    HW1  641   1.590   1.558   2.155  0.7024  1.2043  0.8967
  214SOL    HW2  642   1.428   1.574   2.100 -1.2669 -1.2680 -1.4068
  215SOL     OW  643   0.776   1.804   0.200 -0.3173 -0.0142  0.2715
  215SOL    HW1  644   0.778   1.897   0.169 -0.8658 -1.5892  1.7070
  215SOL    HW2  645   0.762   1.791   0.299  0.2781  0.8710  1.7480
  216SOL     OW  646   0.444   2.893   2.202 -0.0550 -0.0248 -0.1147
  216SOL    HW1  647   0.519   2.959   2.222 -0.2741  0.9403  0.2696
  216SOL    HW2  648   0.356   2.941   2.221  1.6788  2.5939  0.1377
  217SOL     OW  649   2.319   1.088   0.856 -1.0314  0.6203 -0.0128
  217SOL    HW1  650   2.394   1.156   0.843 -0.1871  1.9808 -2.5272
  217SOL    HW2  651   2.290   1.057   0.766  1.2673  2.5593  1.5585
  218SOL     OW  652   1.871   1.686   1.714  0.1819 -0.2356 -0.2009
  218SOL    HW1  653   1.885   1.691   1.815 -2.0032  2.7180 -0.0772
  218SOL    HW2  654   1.944   1.638   1.663 -1.3939 -0.6097  2.5152
  219SOL     OW  655   1.787   1.260   2.960 -0.2219  0.8322  0.2226
  219SOL    HW1  656   1.800   1.285   2.864  1.8160  0.1077  0.5799
  219SOL    HW2  657   1.689   1.270   2.989 -2.5224  0.1262 -0.3537
  220SOL     OW  658   1.439   1.493   0.988 -0.1519  0.1147 -0.5705
  220SOL    HW1  659   1.426   1.580   1.039 -1.3634 -0.0073  2.8227
  220SOL    HW2  660   1.508   1.505   0.919 -0.4891 -0.5600  5.9476
  221SOL     OW  661   0.898   0.641   2.929 -0.1553 -0.2169 -0.4019
  221SOL    HW1  662   0.884   0.715   2.862 -0.3672 -3.0273  0.3982
  221SOL    HW2  663   0.810   0.597   2.954 -0.4787  0.9140 -0.3094
  222SOL     OW  664   0.741   1.407   0.862 -0.1662 -0.6509 -0.2099
  222SOL    HW1  665   0.763   1.385   0.762  1.4102 -0.0453 -2.9983
  222SOL    HW2  666   0.642   1.422   0.882  1.0082  2.8129 -0.7180
  223SOL     OW  667   0.896   2.844   2.787 -0.1837  0.2515  0.1260
  223SOL    HW1  668   0.951   2.912   2.731 -1.3763  1.3987 -1.4473
  223SOL    HW2  669   0.865   2.890   2.868 -0.6664  1.2163 -2.3647
  224SOL     OW  670   2.385   0.196   1.414 -0.1465  0.3321  0.0039
  224SOL    HW1  671   2.287   0.220   1.424 -0.4382 -1.5987  2.1157
  224SOL    HW2  672   2.393   0.094   1.404 -1.9373 -0.6602  1.0623
  225SOL     OW  673   0.882   0.376   1.522  0.1122  0.6023  0.0259
  225SOL    HW1  674   0.904   0.413   1.426 -1.0566  3.6406  0.5193
  225SOL    HW2  675   0.925   0.439   1.588 -3.0891 -0.3591  0.7399
  226SOL     OW  676   1.464   1.528   2.950  0.7361 -0.0373  0.2534
  226SOL    HW1  677   1.448   1.557   2.856 -0.5906  0.2439  3.2116
  226SOL    HW2  678   1.373   1.519   3.003 -0.6182 -0.2968 -1.6441
  227SOL     OW  679   1.251   1.766   1.373 -0.4858  0.3791 -0.3430
  227SOL    HW1  680   1.259   1.661   1.379  2.3023 -0.0412  1.0900
  227SOL    HW2  681   1.213   1.803   1.464 -0.5556 -1.7786  2.0920
  228SOL     OW  682   0.455   1.706   0.547 -0.2774 -0.1007 -0.0913
  228SOL    HW1  683   0.351   1.703   0.554 -3.4148 -0.1605 -1.0297
  228SOL    HW2  684   0.485   1.739   0.638 -0.8583  0.6578  0.5227
  229SOL     OW  685   1.185   0.293   3.090  0.0569 -0.6043 -0.2931
  229SOL    HW1  686   1.159   0.381   3.046  1.4254  0.5403  1.3977
  229SOL    HW2  687   1.285   0.279   3.080  0.2900  1.4683 -0.2605
  230SOL     OW  688   1.133   0.775   2.242  0.2401 -0.0172  0.4424
  230SOL    HW1  689   1.069   0.692   2.223 -0.8664  0.5348  0.8958
  230SOL    HW2  690   1.225   0.735   2.265  1.6163 -0.5573 -0.3150
  231SOL     OW  691   0.920   1.809   2.443 -0.2665  0.2275 -0.1569
  231SOL    HW1  692   0.934   1.856   2.533 -0.9130 -2.3799 -0.5503
  231SOL    HW2  693   0.885   1.877   2.375  0.3861  3.4344 -1.3929
  232SOL     OW  694   2.379   2.031   0.950 -0.5549  0.1037  0.0676
  232SOL    HW1  695   2.422   2.106   0.895  0.3415  0.8066  2.1032
  232SOL    HW2  696   2.437   2.011   1.039  0.8376 -1.6647  5.2903
  233SOL     OW  697   2.289   2.792   0.197  0.1755 -0.4962 -0.1950
  233SOL    HW1  698   2.233   2.875   0.174  0.1988  0.4518  0.8954
  233SOL    HW2  699   2.326   2.748   0.114 -0.7076  0.3324  1.8485
  234SOL     OW  700   0.756   0.215   2.856  0.3526 -0.3963 -0.7458
  234SOL    HW1  701   0.675   0.283   2.862 -0.3160  2.3533 -1.7002
  234SOL    HW2  702   0.732   0.129   2.806  0.6813  1.8726  0.1587
  235SOL     OW  703   2.475   3.031   2.736  0.0302  0.0427 -0.3914
  235SOL    HW1  704   2.501   0.025   2.766  0.5203 -0.9903 -0.0472
  235SOL    HW2  705   2.520   3.007   2.644  1.1600  1.0941 -0.4903
  236SOL     OW  706   2.187   2.467   2.404  0.1071  0.4458  0.4587
  236SOL    HW1  707   2.286   2.480   2.432 -0.2673 -1.0026  0.7417
  236SOL    HW2  708   2.128   2.466   2.487 -2.1228 -0.2100  2.5502
  237SOL     OW  709   1.014   1.492   2.060  0.2702  0.1643 -0.1002
  237SOL    HW1  710   1.054   1.464   1.968  2.1138  0.5725 -3.4487
  237SOL    HW2  711   1.030   1.432   2.132  0.6738  3.5521 -2.0932
  238SOL     OW  712   1.933   0.224   2.492  0.6223 -0.8306  0.1056
  238SOL    HW1  713   1.918   0.129   2.523 -0.9635  1.6214 -0.8124
  238SOL    HW2  714   1.987   0.279   2.561 -0.9146  0.0539 -1.7504
  239SOL     OW  715   0.158   1.758   1.701 -0.4173  0.1866  0.1552
  239SOL    HW1  716   0.247   1.715   1.687  0.1598 -0.3910 -1.4850
  239SOL    HW2  717   0.081   1.692   1.684 -3.2212  0.5649 -0.6690
  240SOL     OW  718   3.019   2.684   0.604 -0.2141  0.7596  0.6664
  240SOL    HW1  719   3.073   2.596   0.607 -2.1264 -2.7209 -0.6761
  240SOL    HW2  720   2.999   2.720   0.510  0.7254  0.4158  0.5658
  241SOL     OW  721   2.038   1.541   0.577 -0.2074 -0.6223  0.2297
  241SOL    HW1  722   2.063   1.571   0.481  2.4516  0.1150  1.3534
  241SOL    HW2  723   1.990   1.450   0.575 -1.1210  0.2697  0.3044
  242SOL     OW  724   1.435   1.740   2.717  0.1954 -0.5081 -0.7378
  242SOL    HW1  725   1.396   1.717   2.625  0.9126 -0.3551 -2.1200
  242SOL    HW2  726   1.403   1.834   2.756  0.5552  1.3797  2.4975
  243SOL     OW  727   0.736   2.545   2.354  0.1162  0.0565  0.5135
  243SOL    HW1  728   0.665   2.596   2.300  0.2100  0.7544  1.2102
  243SOL    HW2  729   0.776   2.609   2.419  1.4986 -3.0840 -3.7857
  244SOL     OW  730   2.181   0.017   2.762  0.3635 -0.2420  0.6141
  244SOL    HW1  731   2.119   0.002   2.681 -2.5007 -2.1734 -0.1024
  244SOL    HW2  732   2.209   3.026   2.796 -2.4432 -1.6672 -1.8774
  245SOL     OW  733   1.473   2.949   0.713 -0.1691 -0.0172 -0.0988
  245SOL    HW1  734   1.468   3.004   0.800  0.5086 -1.0884 -1.9170
  245SOL    HW2  735   1.423   2.853   0.720 -1.6672 -2.3791 -1.1805
  246SOL     OW  736   1.556   2.582   0.343  0.0979  0.6856  0.2305
  246SOL    HW1  737   1.592   2.591   0.435 -1.4334 -0.4353 -0.2530
  246SOL    HW2  738   1.623   2.571   0.266 -1.4685  1.5636 -0.7476
  247SOL     OW  739   0.953   0.560   2.206  0.0249  0.5528  0.4923
  247SOL    HW1  740   0.875   0.620   2.170 -1.0214  3.1464  0.3430
  247SOL    HW2  741   0.968   0.482   2.141 -0.1480 -2.1992  1.4148
  248SOL     OW  742   0.526   1.522   2.059  0.1005  0.3606  0.3431
  248SOL    HW1  743   0.605   1.464   2.093  1.1136 -1.5003 -1.1175
  248SOL    HW2  744   0.560   1.580   1.980  0.0249 -0.2330 -0.4038
  249SOL     OW  745   2.237   0.621   0.153 -0.4049 -0.0291 -0.6068
  249SOL    HW1  746   2.233   0.524   0.123  1.9716  2.6178 -0.8568
  249SOL    HW2  747   2.194   0.636   0.243 -0.4576 -1.2584  0.3578
  250SOL     OW  748   0.649   0.142   0.790 -0.0082 -0.7276 -0.2725
  250SOL    HW1  749   0.619   0.045   0.802 -0.5758 -1.6493 -1.3558
  250SOL    HW2  750   0.644   0.166   0.690 -1.4818  1.6601 -2.7240
  251SOL     OW  751   1.711   0.314   2.703  0.1961 -0.8140  0.1403
  251SOL    HW1  752   1.748   0.402   2.661  1.7364 -1.7060  0.1461
  251SOL    HW2  753   1.715   0.248   2.631  0.0211  1.4760  3.0589
  252SOL     OW  754   1.890   1.695   2.002  0.4992 -0.1827  0.2718
  252SOL    HW1  755   1.868   1.596   2.026 -1.1924 -4.3633 -0.4624
  252SOL    HW2  756   1.847   1.762   2.068  1.3122 -0.8282 -0.9928
  253SOL     OW  757   2.585   2.299   1.726  0.1339 -0.1179 -0.7094
  253SOL    HW1  758   2.612   2.370   1.800  1.0517  0.8103  1.1115
  253SOL    HW2  759   2.639   2.323   1.640  0.1824 -2.3845 -0.2892
  254SOL     OW  760   0.206   1.371   1.194  0.6289  0.0595  0.7017
  254SOL    HW1  761   0.156   1.290   1.160 -2.7488  1.1094  0.4617
  254SOL    HW2  762   0.163   1.404   1.281  0.6224  2.2291 -0.1807
  255SOL     OW  763   0.833   0.752   1.402 -0.3168 -0.0691  0.5158
  255SOL    HW1  764   0.762   0.743   1.331  0.1059 -1.7075 -0.7652
  255SOL    HW2  765   0.808   0.734   1.500 -1.0004 -1.1177 -1.5581
  256SOL     OW  766   1.971   2.427   1.884 -0.2577 -0.2277  0.2123
  256SOL    HW1  767   1.999   2.524   1.882  1.1803  0.9517 -0.5542
  256SOL    HW2  768   2.045   2.364   1.859 -0.5305  0.6746  1.4373
  257SOL     OW  769   0.605   2.694   2.870 -0.3635  0.5757  0.7706
  257SOL    HW1  770   0.580   2.668   2.776  4.8654 -0.4597 -0.3995
  257SOL    HW2  771   0.671   2.635   2.914 -4.6062 -2.0810 -1.1441
  258SOL     OW  772   0.742   2.484   0.256  0.6366 -0.1525  0.7158
  258SOL    HW1  773   0.656   2.459   0.308  0.8676 -4.0582  0.2339
  258SOL    HW2  774   0.755   2.586   0.252  3.6095  1.6785  0.5851
  259SOL     OW  775   1.094   0.234   2.374  0.2848 -0.0642  0.5352
  259SOL    HW1  776   1.092   0.274   2.464 -2.0269  1.4811  0.1101
  259SOL    HW2  777   1.164   0.284   2.321  0.6168 -0.2492  0.9432
  260SOL     OW  778   1.841   0.534   1.126  0.2004  0.0042 -0.5683
  260SOL    HW1  779   1.823   0.447   1.178  1.1100  1.2249 -2.9274
  260SOL    HW2  780   1.938   0.569   1.129  3.1751 -1.2669 -0.2335
  261SOL     OW  781   0.549   0.666   2.510  0.1902  0.0515 -0.6052
  261SOL    HW1  782   0.461   0.708   2.545  0.7700  1.1270 -0.7789
  261SOL    HW2  783   0.597   0.613   2.583 -2.3109 -1.8594 -0.5416
  262SOL     OW  784   0.081   2.392   2.049  0.2641 -0.2730  0.3899
  262SOL    HW1  785   3.099   2.384   2.103  2.8909 -1.3101 -3.2825
  262SOL    HW2  786   0.145   2.310   2.065  3.6493 -2.6287  0.7725
  263SOL     OW  787   2.984   1.657   2.137 -0.2364  0.3897 -0.3264
  263SOL    HW1  788   2.969   1.702   2.047  2.8716  1.6866 -0.4073
  263SOL    HW2  789   3.073   1.611   2.132 -2.6278 -0.2998 -0.4921
  264SOL     OW  790   0.337   1.042   0.896 -0.4772 -0.0257 -0.2475
  264SOL    HW1  791   0.291   1.133   0.873 -0.1442  1.1794 -0.3396
  264SOL    HW2  792   0.279   0.981   0.956 -1.5880 -2.4435 -1.5578
  265SOL     OW  793   1.281   2.491   0.948 -0.3523 -0.4236 -0.2001
  265SOL    HW1  794   1.241   2.532   0.869  0.2805 -2.2664  0.7087
  265SOL    HW2  795   1.230   2.405   0.974  1.3139 -0.6724 -3.1400
  266SOL     OW  796   1.614   0.921   1.009  0.6459 -0.4223 -0.3045
  266SOL    HW1  797   1.632   0.855   1.086 -0.7598 -1.3501  1.9770
  266SOL    HW2  798   1.613   1.018   1.040  2.5101  1.3982  2.3753
  267SOL     OW  799   2.738   1.135   3.082  0.3207 -0.0519  0.0844
  267SOL    HW1  800   2.798   1.136   0.068 -0.8441  0.8483  0.8518
  267SOL    HW2  801   2.672   1.054   3.086  2.6941 -1.7250  2.7811
  268SOL     OW  802   1.695   0.317   0.238  0.0004  0.3888  0.3642
  268SOL    HW1  803   1.755   0.341   0.315 -0.5124  1.1620  1.0677
  268SOL    HW2  804   1.678   0.409   0.202  1.3170  0.4153  0.5811
  269SOL     OW  805   2.033   0.734   2.799  0.1108 -0.0156 -0.2034
  269SOL    HW1  806   2.049   0.734   2.900  2.0082  0.4159 -1.8229
  269SOL    HW2  807   1.932   0.728   2.777 -1.3372  2.5194  1.4604
  270SOL     OW  808   3.060   0.947   0.028  0.4529  0.3754  0.2536
  270SOL    HW1  809   3.090   0.998   3.043  0.7921  0.0402  0.1241
  270SOL    HW2  810   0.015   0.861   0.039 -1.4472  0.3835 -1.4628
  271SOL     OW  811   2.660   0.693   0.281 -0.6627  0.1804 -0.6571
  271SOL    HW1  812   2.600   0.747   0.347 -4.2143 -0.1337 -1.1908
  271SOL    HW2  813   2.743   0.751   0.259  0.9630 -1.2407 -4.0042
  272SOL     OW  814   3.057   2.595   0.148 -0.0164 -0.7376  0.0209
  272SOL    HW1  815   3.014   2.598   0.056 -2.4692  1.4891  0.4302
  272SOL    HW2  816   3.090   2.506   0.180  1.2101  1.8072 -0.1023
  273SOL     OW  817   2.538   2.924   0.288 -0.1902  0.1277  0.2019
  273SOL    HW1  818   2.599   2.897   0.363 -3.6997  0.4012 -3.5014
  273SOL    HW2  819   2.442   2.879   0.290  0.7606 -2.4235 -0.3665
  274SOL     OW  820   0.628   2.395   1.023 -0.4934 -0.2967 -0.1765
  274SOL    HW1  821   0.680   2.488   1.021  1.8926 -0.1987  1.8654
  274SOL    HW2  822   0.642   2.349   0.933 -1.9733  0.0312 -0.3617
  275SOL     OW  823   2.765   1.561   0.394  0.0691  0.6738 -0.3502
  275SOL    HW1  824   2.817   1.512   0.324 -1.4791 -0.0102  2.0311
  275SOL    HW2  825   2.669   1.576   0.357  0.5772  1.0214  0.4684
  276SOL     OW  826   3.048   1.229   1.984  0.1521 -0.1010 -0.0732
  276SOL    HW1  827   2.987   1.237   2.068 -0.2472  0.8929 -2.3440
  276SOL    HW2  828   3.052   1.131   1.952  0.7448  0.5022  1.3810
  277SOL     OW  829   2.287   2.992   1.166  0.0560 -0.2383  0.3003
  277SOL    HW1  830   2.224   2.921   1.130  1.1326  0.9834 -1.1108
  277SOL    HW2  831   2.255   3.086   1.139  1.1000  3.1080 -0.5552
  278SOL     OW  832   1.332   2.429   2.047 -0.5752  0.3383  0.5814
  278SOL    HW1  833   1.409   2.474   1.996  0.6822  2.8064  0.4505
  278SOL    HW2  834   1.269   2.495   2.090  1.7641 -3.4895 -2.0743
  279SOL     OW  835   1.629   1.814   0.488 -0.2371  0.1300 -0.1188
  279SOL    HW1  836   1.672   1.723   0.458  0.8804  0.5161 -1.3898
  279SOL    HW2  837   1.541   1.826   0.445  1.0255  0.8334  1.1205
  280SOL     OW  838   0.327   1.596   1.062  0.1274 -0.2601 -0.2639
  280SOL    HW1  839   0.271   1.678   1.031  1.5911  0.8369 -0.7865
  280SOL    HW2  840   0.269   1.517   1.095 -0.5401 -0.2934 -0.2826
  281SOL     OW  841   3.072   0.908   2.422 -0.3793 -0.6595 -0.4655
  281SOL    HW1  842   3.075   0.807   2.423 -2.7263 -1.1481  2.6414
  281SOL    HW2  843   0.020   0.952   2.503  0.6222  0.5887  1.8556
  282SOL     OW  844   0.762   1.380   0.575 -0.4271 -0.1505  0.7071
  282SOL    HW1  845   0.677   1.368   0.523  0.4729 -1.1739 -0.7573
  282SOL    HW2  846   0.807   1.290   0.586 -0.3053  1.5046  0.2169
  283SOL     OW  847   2.125   2.159   0.181  0.2599  0.0487 -0.3492
  283SOL    HW1  848   2.119   2.259   0.206  0.1223  1.3738  2.2836
  283SOL    HW2  849   2.066   2.110   0.246 -0.4524  0.3455  1.5150
  284SOL     OW  850   1.061   0.346   0.238  0.0842 -0.4633 -0.4180
  284SOL    HW1  851   1.107   0.322   0.148  3.4330  1.1113  1.1215
  284SOL    HW2  852   0.960   0.367   0.216 -3.1936 -0.3047 -0.0806
  285SOL     OW  853   2.152   1.173   2.925 -0.6937 -0.6401  0.1853
  285SOL    HW1  854   2.224   1.124   2.973 -1.4836  2.6356  1.2365
  285SOL    HW2  855   2.156   1.274   2.957 -1.7925  2.2544 -1.5984
  286SOL     OW  856   1.829   2.265   1.276 -0.0697 -0.1847  0.3985
  286SOL    HW1  857   1.741   2.294   1.225 -0.2028 -0.5034 -0.1827
  286SOL    HW2  858   1.804   2.213   1.361 -0.6034 -2.2143  0.7478
  287SOL     OW  859   1.013   0.756   0.666 -0.5260  0.2981 -0.3799
  287SOL    HW1  860   1.087   0.788   0.604 -1.3269  2.1919  1.0009
  287SOL    HW2  861   0.996   0.824   0.737  0.9053 -3.5733 -1.2321
  288SOL     OW  862   1.117   2.319   2.798  0.0086  0.4936  0.0746
  288SOL    HW1  863   1.025   2.281   2.827 -1.3403  0.8530  0.8937
  288SOL    HW2  864   1.188   2.317   2.869 -0.9800 -0.7581 -2.1258
  289SOL     OW  865   0.106   1.490   1.426  0.3118  0.4032  0.4683
  289SOL    HW1  866   0.188   1.547   1.414 -1.8651 -3.3209  1.2889
  289SOL    HW2  867   0.058   1.512   1.515 -0.5250 -1.2596 -1.7171
  290SOL     OW  868   1.447   2.080   0.921  0.7163 -0.2652  0.2763
  290SOL    HW1  869   1.345   2.077   0.936  0.1298  1.2288  0.5279
  290SOL    HW2  870   1.490   2.126   0.998 -0.8981  0.9196 -0.9395
  291SOL     OW  871   1.905   2.960   2.924 -0.0745  0.0968  0.1078
  291SOL    HW1  872   1.909   3.056   2.956  2.5948 -1.4092  2.0154
  291SOL    HW2  873   1.914   2.895   3.002 -0.7153  1.6230  0.7467
  292SOL     OW  874   0.942   0.367   1.986  0.7600  0.2372 -0.1088
  292SOL    HW1  875   0.972   0.272   1.946  1.3409 -3.2558 -0.7496
  292SOL    HW2  876   0.843   0.362   2.011  2.2450  2.2581 -2.1099
  293SOL     OW  877   2.232   2.454   0.856 -0.6458 -0.4368  0.0030
  293SOL    HW1  878   2.137   2.423   0.880 -2.5591 -0.9689 -0.3247
  293SOL    HW2  879   2.302   2.404   0.912 -0.4095 -0.6979  1.5693
  294SOL     OW  880   0.473   0.960   2.227  0.2511  0.1365 -0.5122
  294SOL    HW1  881   0.392   0.895   2.237 -2.5072 -0.2656 -1.3736
  294SOL    HW2  882   0.436   1.057   2.207  0.4539 -0.3908  2.4514
  295SOL     OW  883   1.711   1.518   0.880  0.5014 -0.4715  0.3152
  295SOL    HW1  884   1.758   1.429   0.909  1.6300 -0.0099  1.4938
  295SOL    HW2  885   1.777   1.582   0.840 -0.6391  0.0623  0.5542
  296SOL     OW  886   2.440   1.716   0.198 -0.6089  0.2075  1.0697
  296SOL    HW1  887   2.389   1.779   0.136  0.3057 -1.7816 -1.6472
  296SOL    HW2  888   2.537   1.745   0.212  1.4451 -3.4628  0.0708
  297SOL     OW  889   1.920   3.051   0.221 -0.4532  0.2145  0.2152
  297SOL    HW1  890   1.863   3.091   0.148  1.0661  1.2711  0.1070
  297SOL    HW2  891   1.950   0.015   0.293  0.0700 -0.1676  0.8471
  298SOL     OW  892   0.860   2.650   2.595  0.1666 -0.0290  0.0536
  298SOL    HW1  893   0.931   2.580   2.579 -1.0741 -1.8332 -0.9283
  298SOL    HW2  894   0.891   2.725   2.662 -1.7666  1.2793  1.2884
  299SOL     OW  895   1.224   2.219   1.967 -0.3151 -0.4475  0.2548
  299SOL    HW1  896   1.278   2.304   1.989 -0.1934  0.3740 -2.8096
  299SOL    HW2  897   1.132   2.250   1.942 -1.7723 -0.3823  0.2173
  300SOL     OW  898   2.580   0.183   2.826  0.0632 -0.2382 -0.1236
  300SOL    HW1  899   2.586   0.179   2.926 -0.5326  1.1519 -0.6665
  300SOL    HW2  900   2.494   0.238   2.799  1.3290  2.8666 -1.9486
  301SOL     OW  901   1.163   1.148   1.855 -0.2534 -0.2870 -0.0801
  301SOL    HW1  902   1.184   1.244   1.877  0.0661 -0.6606  0.4916
  301SOL    HW2  903   1.240   1.083   1.873 -2.3688  1.7078 -0.8944
  302SOL     OW  904   2.764   2.559   0.436  0.4436  0.3571  0.1623
  302SOL    HW1  905   2.753   2.592   0.533  2.7325 -0.1122  2.2185
  302SOL    HW2  906   2.834   2.626   0.397  1.3916 -0.4715 -0.6062
  303SOL     OW  907   2.652   2.456   1.939 -0.3629  0.2509  0.2470
  303SOL    HW1  908   2.551   2.435   1.963 -1.6887  1.4900 -0.9473
  303SOL    HW2  909   2.707   2.492   2.018 -1.3858 -0.3291 -0.4735
  304SOL     OW  910   3.074   0.647   1.903  0.4184  0.1279  0.0985
  304SOL    HW1  911   3.032   0.558   1.939  1.3353 -1.4526  1.3191
  304SOL    HW2  912   2.997   0.712   1.886  0.2873  0.7418 -0.2804
  305SOL     OW  913   0.637   1.625   1.515 -0.9456 -0.6007 -0.1986
  305SOL    HW1  914   0.698   1.554   1.562  1.6072 -2.7798 -1.8743
  305SOL    HW2  915   0.632   1.606   1.416 -0.7306  0.0980 -1.9082
  306SOL     OW  916   0.208   1.233   1.855  0.5573 -0.3262 -0.7820
  306SOL    HW1  917   0.252   1.323   1.871 -1.3660  2.3222 -1.3475
  306SOL    HW2  918   0.111   1.233   1.894 -1.6016 -1.9552  0.6944
  307SOL     OW  919   0.860   0.952   1.802 -0.0305  0.0341 -0.0910
  307SOL    HW1  920   0.901   1.028   1.748  1.0276 -0.0653 -0.2659
  307SOL    HW2  921   0.934   0.904   1.858  2.2419 -1.0939 -1.4805
  308SOL     OW  922   0.051   1.167   1.139 -0.1551  0.4462 -0.0121
  308SOL    HW1  923   0.041   1.083   1.080  0.0040 -1.9018 -1.0716
  308SOL    HW2  924   0.042   1.150   1.240 -0.5608  0.7494  1.3193
  309SOL     OW  925   2.436   1.088   1.279  0.2873 -0.5049  0.1790
  309SOL    HW1  926   2.473   1.183   1.252 -0.8929  2.5206  2.5994
  309SOL    HW2  927   2.511   1.029   1.315  2.0383 -2.4130  2.4926
  310SOL     OW  928   2.719   2.272   2.679 -0.1655  0.3834  0.1581
  310SOL    HW1  929   2.718   2.170   2.692  1.6093 -1.5708 -1.5811
  310SOL    HW2  930   2.624   2.310   2.672  1.7838 -1.0544  1.8436
  311SOL     OW  931   2.726   2.803   2.635 -0.1119  0.1436 -0.1710
  311SOL    HW1  932   2.799   2.855   2.685  2.0364  1.3935 -2.2184
  311SOL    HW2  933   2.663   2.860   2.576 -0.4474  0.2629  0.0824
  312SOL     OW  934   2.274   1.837   0.008 -0.0809 -0.6491  0.3923
  312SOL    HW1  935   2.314   1.925   0.045  0.3869 -0.8524 -1.1452
  312SOL    HW2  936   2.193   1.851   3.042 -2.7557  1.5083 -1.8468
  313SOL     OW  937   2.692   2.880   0.511  0.0203  0.0335 -0.0132
  313SOL    HW1  938   2.727   2.809   0.573  0.6074  0.4159  0.3707
  313SOL    HW2  939   2.735   2.968   0.535 -0.2677  0.8984  2.6946
  314SOL     OW  940   1.685   1.265   0.273  0.4286  0.1964 -0.1214
  314SOL    HW1  941   1.656   1.235   0.179  0.5991  0.6548 -2.4261
  314SOL    HW2  942   1.626   1.339   0.314  1.1502  1.4084 -1.7420
  315SOL     OW  943   1.320   2.967   2.093 -0.9267  0.0577  0.2607
  315SOL    HW1  944   1.290   3.004   2.186 -2.0981 -1.4591  3.1327
  315SOL    HW2  945   1.362   3.033   2.030  0.2194  1.2594 -0.5465
  316SOL     OW  946   2.748   0.701   3.028 -0.4722 -0.1744  0.1283
  316SOL    HW1  947   2.793   0.705   0.022  0.4111 -1.6056  1.1467
  316SOL    HW2  948   2.718   0.608   3.003  0.3874  2.4582  1.7625
  317SOL     OW  949   0.438   3.047   0.025 -0.6421  0.0526  0.4549
  317SOL    HW1  950   0.393   2.998   0.105  0.2471  0.1712  1.8198
  317SOL    HW2  951   0.449   2.994   3.035  1.3890  1.1165 -0.6417
  318SOL     OW  952   2.264   2.717   0.852 -0.2348 -0.3448  0.8564
  318SOL    HW1  953   2.249   2.616   0.839  0.9793  0.3323 -0.1413
  318SOL    HW2  954   2.191   2.768   0.796  0.6978  0.7804 -0.7812
  319SOL     OW  955   0.951   1.844   2.884 -0.6054 -0.1569 -0.4278
  319SOL    HW1  956   0.893   1.894   2.950  1.0442 -1.0753 -0.6031
  319SOL    HW2  957   0.948   1.743   2.901 -1.4862 -0.7832  0.0444
  320SOL     OW  958   0.372   2.011   1.947  0.1368 -0.3563 -0.7656
  320SOL    HW1  959   0.330   2.079   2.007  0.1049 -0.3197  1.1607
  320SOL    HW2  960   0.327   1.923   1.967 -1.7607 -1.5957  1.4544
  321SOL     OW  961   1.285   3.005   2.545 -0.1625 -0.9431  0.2005
  321SOL    HW1  962   1.327   3.091   2.580  1.5166 -0.2291 -0.7430
  321SOL    HW2  963   1.202   2.983   2.603 -1.7650  1.4249 -0.1821
  322SOL     OW  964   2.801   1.507   2.276  0.2100 -0.2582 -0.2320
  322SOL    HW1  965   2.867   1.580   2.250 -0.8460  0.4858 -0.2118
  322SOL    HW2  966   2.716   1.549   2.313  2.4569 -0.4964 -2.0170
  323SOL     OW  967   2.226   1.010   1.113  0.0169 -0.4292 -0.1172
  323SOL    HW1  968   2.234   1.055   1.022 -0.7555  1.5449  1.2317
  323SOL    HW2  969   2.312   1.011   1.169  0.9001  0.2479  1.0744
  324SOL     OW  970   2.832   0.003   2.348 -0.0656 -0.3081  0.0574
  324SOL    HW1  971   2.815   0.075   2.279  1.6667 -0.8981  0.0028
  324SOL    HW2  972   2.795   0.031   2.441  0.0195 -2.8061 -2.7429
  325SOL     OW  973   1.129   0.708   2.582  0.1480 -0.4067 -0.0090
  325SOL    HW1  974   1.140   0.605   2.572 -0.1106  0.4324 -0.2116
  325SOL    HW2  975   1.049   0.739   2.529  0.1133 -0.6334 -1.4264
  326SOL     OW  976   1.782   2.717   1.896 -0.0134  0.6175 -0.0729
  326SOL    HW1  977   1.786   2.772   1.811 -2.4333 -1.8259 -0.0814
  326SOL    HW2  978   1.871   2.664   1.908  2.1471 -1.0655  0.9395
  327SOL     OW  979   2.102   0.373   0.253 -0.4599  0.4911 -0.6875
  327SOL    HW1  980   2.109   0.458   0.308  1.2293  4.2872  3.7490
  327SOL    HW2  981   2.188   0.333   0.219 -1.7746 -0.6545 -1.0413
  328SOL     OW  982   0.241   1.531   2.534  0.5036 -0.9991 -0.2428
  328SOL    HW1  983   0.250   1.529   2.429 -2.1744  1.8677 -2.3939
  328SOL    HW2  984   0.139   1.513   2.558 -1.2233 -3.1090 -2.2977
  329SOL     OW  985   2.235   3.033   1.929 -0.4845  0.0496  0.0871
  329SOL    HW1  986   2.171   2.985   1.861  0.6587 -1.3321 -1.4866
  329SOL    HW2  987   2.333   3.027   1.898  2.2749  0.1867  0.5800
  330SOL     OW  988   0.042   1.457   0.843 -0.4055  0.3165  0.0234
  330SOL    HW1  989   0.054   1.557   0.842 -0.3646 -0.7664  3.5647
  330SOL    HW2  990   3.087   1.421   0.761 -1.2867 -1.7062 -1.7981
  331SOL     OW  991   0.284   1.806   2.587  0.4248 -0.2468  0.0749
  331SOL    HW1  992   0.254   1.710   2.574  0.4270  1.6289  3.1753
  331SOL    HW2  993   0.371   1.835   2.546 -1.4196 -1.8611 -0.9735
  332SOL     OW  994   0.109   3.000   1.494 -0.1039 -0.8797  0.3392
  332SOL    HW1  995   0.104   2.902   1.477  0.2194  1.8823  2.3310
  332SOL    HW2  996   0.020   3.043   1.463 -1.5021 -1.2071 -2.6247
  333SOL     OW  997   2.307   0.024   0.720  0.0553 -0.0025  0.3413
  333SOL    HW1  998   2.208   3.096   0.737 -1.3310 -1.5366  0.0229
  333SOL    HW2  999   2.334   0.104   0.779  2.5615  0.3022  1.3652
  334SOL     OW 1000   0.478   2.070   0.804 -0.2789 -0.4743 -0.8237
  334SOL    HW1 1001   0.537   1.996   0.843 -1.8872 -0.9477  2.0128
  334SOL    HW2 1002   0.503   2.091   0.711  2.6411  0.6104  0.4197
  335SOL     OW 1003   0.231   2.670   0.072  0.1773  0.4053 -0.2400
  335SOL    HW1 1004   0.137   2.649   0.109 -0.4767 -0.9421 -0.1380
  335SOL    HW2 1005   0.292   2.589   0.088 -2.1949 -1.3644 -4.7354
  336SOL     OW 1006   0.180   3.014   2.264  0.1684  0.0313  0.2658
  336SOL    HW1 1007   0.111   2.943   2.233 -1.3077 -2.1929 -0.4306
  336SOL    HW2 1008   0.188   3.094   2.198 -0.0650 -2.2014 -2.6463
  337SOL     OW 1009   2.458   2.325   2.647  0.1148 -0.0919  0.0389
  337SOL    HW1 1010   2.436   2.396   2.570 -2.3928  1.0921 -2.3461
  337SOL    HW2 1011   2.402   2.345   2.731 -1.0400  1.1915  1.1003
  338SOL     OW 1012   0.833   0.751   1.015  0.0712 -0.4275 -0.2852
  338SOL    HW1 1013   0.837   0.671   0.953 -1.9884  2.4122  0.6807
  338SOL    HW2 1014   0.737   0.758   1.054 -2.1828  2.6282  2.9417
  339SOL     OW 1015   0.185   0.874   1.978 -0.0093 -0.5590 -0.5100
  339SOL    HW1 1016   0.164   0.949   2.043 -1.5817 -0.9040 -2.8490
  339SOL    HW2 1017   0.176   0.903   1.881  1.7385 -1.1111  0.3794
  340SOL     OW 1018   1.760   2.803   0.395 -0.5883  0.2224  0.3036
  340SOL    HW1 1019   1.734   2.853   0.478 -1.1784 -2.0900  0.3550
  340SOL    HW2 1020   1.750   2.865   0.314 -1.8752  0.8769  0.0438
  341SOL     OW 1021   1.985   0.881   1.080 -0.1702  0.3414 -0.7654
  341SOL    HW1 1022   1.945   0.920   0.996 -0.2611  1.5016  1.3359
  341SOL    HW2 1023   2.071   0.930   1.106  0.2652  0.5943  1.2755
  342SOL     OW 1024   2.391   2.670   3.056 -0.2051 -0.2074 -0.0228
  342SOL    HW1 1025   2.446   2.692   2.971  0.9040 -0.3479 -1.2600
  342SOL    HW2 1026   2.454   2.609   0.010 -0.0422  0.6756  0.6519
  343SOL     OW 1027   1.604   2.143   1.885 -0.4204  0.1798 -0.7652
  343SOL    HW1 1028   1.687   2.162   1.831 -1.4525  3.0848  0.2975
  343SOL    HW2 1029   1.517   2.146   1.828  0.3214  2.3356 -1.1840
  344SOL     OW 1030   2.379   2.638   1.256 -0.0790  0.5208 -0.3188
  344SOL    HW1 1031   2.316   2.690   1.199  1.5415 -2.5467  1.2419
  344SOL    HW2 1032   2.340   2.607   1.349  0.2479 -1.0292  0.3722
  345SOL     OW 1033   2.785   2.362   0.027  0.4074 -0.0144  0.2646
  345SOL    HW1 1034   2.803   2.280   3.066 -1.5764 -3.2757 -3.7405
  345SOL    HW2 1035   2.790   2.331   0.122 -0.1893  0.4609 -3.3555
  346SOL     OW 1036   2.750   1.485   0.672 -0.3184 -0.1290 -0.2385
  346SOL    HW1 1037   2.727   1.492   0.573  2.4374  0.5793  2.6345
  346SOL    HW2 1038   2.665   1.502   0.727  0.8231  0.0236 -0.5509
  347SOL     OW 1039   1.930   2.104   1.804  0.2105  0.6561 -0.4322
  347SOL    HW1 1040   1.931   2.096   1.906  1.0507 -0.9155  1.7553
  347SOL    HW2 1041   2.020   2.070   1.778  0.6377  0.4861 -0.4897
  348SOL     OW 1042   0.643   1.668   2.974 -0.1871  0.5527 -0.4203
  348SOL    HW1 1043   0.618   1.671   2.874  1.4926  1.4682  1.6630
  348SOL    HW2 1044   0.738   1.634   2.994 -1.2871 -0.3855 -0.0339
  349SOL     OW 1045   2.441   1.289   1.523 -0.3684  0.4046 -0.1323
  349SOL    HW1 1046   2.432   1.382   1.479 -1.3606  3.0626  0.4086
  349SOL    HW2 1047   2.536   1.254   1.535  0.8220  2.1033 -0.2886
  350SOL     OW 1048   2.929   2.523   1.173 -0.2830 -0.3354  0.4245
  350SOL    HW1 1049   2.992   2.493   1.244 -0.1853 -0.1970  1.5461
  350SOL    HW2 1050   2.852   2.454   1.167 -1.0615  2.1140  1.7079
  351SOL     OW 1051   0.679   0.357   2.132  0.6165  0.1051  0.0600
  351SOL    HW1 1052   0.628   0.425   2.189 -0.2982  0.5768 -0.9205
  351SOL    HW2 1053   0.737   0.293   2.189 -0.3722 -1.4651 -1.0699
  352SOL     OW 1054   0.595   1.693   0.782  0.2819 -0.5617  0.1186
  352SOL    HW1 1055   0.699   1.687   0.784 -0.5766  1.4215  0.8287
  352SOL    HW2 1056   0.558   1.607   0.809  2.1132  2.6811 -2.9180
  353SOL     OW 1057   1.302   1.686   2.466 -0.1036  0.2501 -0.1494
  353SOL    HW1 1058   1.329   1.771   2.420 -0.1083 -1.1452  1.0124
  353SOL    HW2 1059   1.306   1.605   2.407  1.2701  0.2831 -1.5450
  354SOL     OW 1060   1.082   0.326   0.900  0.1709  0.1696  0.2210
  354SOL    HW1 1061   1.115   0.248   0.959  0.4727  1.4756 -0.7087
  354SOL    HW2 1062   1.164   0.385   0.867  1.7653 -1.1199 -1.6684
  355SOL     OW 1063   2.694   0.816   0.601  0.4010  0.5579  0.1909
  355SOL    HW1 1064   2.686   0.915   0.612  1.2197  1.1785  1.3018
  355SOL    HW2 1065   2.600   0.773   0.620 -1.6987 -1.7010  0.6672
  356SOL     OW 1066   2.385   1.802   2.425 -0.6490 -0.1466 -0.1746
  356SOL    HW1 1067   2.320   1.774   2.499 -0.2896 -0.0637 -1.8237
  356SOL    HW2 1068   2.422   1.897   2.446 -1.8562 -1.9995  0.2262
  357SOL     OW 1069   0.604   2.577   1.640 -0.0220  0.1981 -0.1233
  357SOL    HW1 1070   0.519   2.606   1.688  1.2642  0.6891 -1.0064
  357SOL    HW2 1071   0.626   2.634   1.559  0.8061 -3.0721 -0.5432
  358SOL     OW 1072   2.502   0.706   1.501  0.3857 -0.6276  0.5283
  358SOL    HW1 1073   2.588   0.656   1.492  0.4179  1.5789 -0.9539
  358SOL    HW2 1074   2.509   0.768   1.587  0.9070  2.2220  0.8251
  359SOL     OW 1075   2.287   2.796   2.528  0.1230 -0.1954  0.2115
  359SOL    HW1 1076   2.224   2.849   2.468  2.2006 -2.1541  1.8707
  359SOL    HW2 1077   2.244   2.759   2.613  1.1276  1.6985  0.7307
  360SOL     OW 1078   1.281   0.475   0.829  0.2927 -0.5303  0.0937
  360SOL    HW1 1079   1.261   0.551   0.894  0.8748  0.8687  0.5090
  360SOL    HW2 1080   1.382   0.468   0.802  0.9524 -0.8275 -1.7924
  361SOL     OW 1081   2.184   0.143   1.153 -0.2942 -0.5808  0.1303
  361SOL    HW1 1082   2.149   0.185   1.242  1.1779 -0.0298  1.5621
  361SOL    HW2 1083   2.130   0.170   1.067 -0.6742  0.7976  1.7671
  362SOL     OW 1084   1.254   1.284   0.561  0.2242  0.1664  0.0550
  362SOL    HW1 1085   1.177   1.288   0.626 -1.1533  0.2214 -2.5240
  362SOL    HW2 1086   1.274   1.376   0.530 -1.8688  0.3915 -0.8504
  363SOL     OW 1087   2.176   1.684   2.587 -0.4722  0.3176  0.5363
  363SOL    HW1 1088   2.161   1.622   2.666 -1.4081 -0.2367  2.4972
  363SOL    HW2 1089   2.102   1.676   2.511 -1.1782 -2.3246 -1.4587
  364SOL     OW 1090   0.831   0.176   1.320  1.0552 -0.2510  0.6575
  364SOL    HW1 1091   0.864   0.216   1.409  0.9451 -0.5788 -1.6354
  364SOL    HW2 1092   0.761   0.101   1.340 -0.0033 -3.0214  2.7893
  365SOL     OW 1093   0.322   2.893   0.228 -0.3791  0.1061  0.6609
  365SOL    HW1 1094   0.313   2.800   0.182  0.5059 -2.2846 -0.6298
  365SOL    HW2 1095   0.317   2.876   0.329 -0.2181  2.0034 -1.6896
  366SOL     OW 1096   2.737   1.794   2.976  0.4726  0.1865  0.0599
  366SOL    HW1 1097   2.736   1.783   3.078 -0.4345  0.6210 -1.5180
  366SOL    HW2 1098   2.815   1.849   2.947 -1.5146  0.3547  0.6316
  367SOL     OW 1099   2.773   2.551   2.461  0.7591  0.7991 -0.5605
  367SOL    HW1 1100   2.763   2.629   2.530 -0.5012  0.0043  3.0288
  367SOL    HW2 1101   2.829   2.475   2.501 -1.5041 -0.3748  3.2764
  368SOL     OW 1102   0.190   1.861   1.017 -0.1392 -0.4290 -0.2294
  368SOL    HW1 1103   0.115   1.909   1.064  2.7260 -4.1136  0.8591
  368SOL    HW2 1104   0.271   1.922   1.028 -1.0200  1.8042  1.4516
  369SOL     OW 1105   1.001   2.594   2.946  0.1329  0.4302 -0.3434
  369SOL    HW1 1106   0.992   2.674   2.883  2.0872 -0.4010  0.2206
  369SOL    HW2 1107   1.064   2.525   2.907 -0.2892  2.4685  3.8972
  370SOL     OW 1108   0.186   0.861   0.738  0.2737 -0.4851  0.5966
  370SOL    HW1 1109   0.189   0.759   0.740  0.9680  0.3303  2.0072
  370SOL    HW2 1110   0.265   0.905   0.781  1.3754  0.4788  1.5660
  371SOL     OW 1111   1.835   2.719   0.743 -0.1673  0.5180  0.1987
  371SOL    HW1 1112   1.794   2.802   0.705 -0.0016  0.6699  0.3076
  371SOL    HW2 1113   1.792   2.636   0.717  0.1957  0.8631  1.8622
  372SOL     OW 1114   0.154   1.001   2.657 -0.2250  0.0851 -0.1465
  372SOL    HW1 1115   0.218   1.080   2.670 -1.0233  2.6797  2.5873
  372SOL    HW2 1116   0.208   0.916   2.658 -2.1640  0.1582  0.6141
  373SOL     OW 1117   2.836   2.016   0.838  0.5515  0.4291  0.2724
  373SOL    HW1 1118   2.924   2.057   0.849 -1.0420 -3.5158  1.6397
  373SOL    HW2 1119   2.844   1.919   0.811 -0.2787  0.3642 -0.5299
  374SOL     OW 1120   0.121   2.360   0.456  0.5871 -0.3345  0.2242
  374SOL    HW1 1121   0.065   2.387   0.535 -0.0096 -0.9873 -1.6899
  374SOL    HW2 1122   0.209   2.411   0.472 -1.4757  0.3122 -1.3202
  375SOL     OW 1123   0.399   0.633   0.060  0.4902  0.0148  0.0380
  375SOL    HW1 1124   0.464   0.694   0.112  0.9563  0.8165  0.1781
  375SOL    HW2 1125   0.399   0.539   0.106 -0.6925  0.9082  0.2704
  376SOL     OW 1126   0.530   2.200   2.298  0.3603 -0.4362  0.7122
  376SOL    HW1 1127   0.507   2.273   2.221 -1.5990  1.3916 -0.0838
  376SOL    HW2 1128   0.620   2.228   2.345 -0.4681 -0.7338 -0.9177
  377SOL     OW 1129   1.198   2.320   2.391  0.4801  0.0523  0.2927
  377SOL    HW1 1130   1.280   2.381   2.381  0.4922  1.8258 -1.2086
  377SOL    HW2 1131   1.219   2.238   2.448 -0.6887  1.1853  0.8650
  378SOL     OW 1132   1.164   0.900   0.460  0.0748 -0.3538 -0.2019
  378SOL    HW1 1133   1.261   0.928   0.479  1.2361 -2.1720  0.0857
  378SOL    HW2 1134   1.089   0.967   0.463  1.2261  2.8727 -1.3362
  379SOL     OW 1135   0.720   1.716   0.455  0.2763  0.1362 -0.0144
  379SOL    HW1 1136   0.639   1.683   0.503 -1.9500 -0.4637 -0.6283
  379SOL    HW2 1137   0.801   1.726   0.517  0.7469  0.8468 -1.9751
  380SOL     OW 1138   0.336   1.903   1.448  0.1627  0.1104 -0.1515
  380SOL    HW1 1139   0.247   1.948   1.428  0.9932  0.8246  0.9047
  380SOL    HW2 1140   0.391   1.946   1.521 -0.0900 -0.4397  2.1154
  381SOL     OW 1141   0.449   1.044   1.554 -0.0938  0.2072  0.0721
  381SOL    HW1 1142   0.411   1.141   1.538 -1.5451  0.4581 -2.2971
  381SOL    HW2 1143   0.549   1.046   1.553 -1.1815  1.5788  0.1903
  382SOL     OW 1144   2.362   2.144   0.476 -0.7511 -0.2770 -0.3069
  382SOL    HW1 1145   2.366   2.241   0.507 -0.5807  0.1853 -0.1890
  382SOL    HW2 1146   2.426   2.116   0.405  0.9662 -0.6760  3.2814
  383SOL     OW 1147   2.659   1.884   2.167  0.4886  0.0045 -0.4235
  383SOL    HW1 1148   2.618   1.973   2.202 -1.2199  2.6993  0.3682
  383SOL    HW2 1149   2.707   1.828   2.239  0.5158 -0.7457  1.4840
  384SOL     OW 1150   0.231   2.176   2.125 -0.0053  0.1388 -0.1712
  384SOL    HW1 1151   0.145   2.121   2.143 -0.3780 -1.8853 -1.2898
  384SOL    HW2 1152   0.299   2.147   2.197 -0.7459 -1.1708  0.8865
  385SOL     OW 1153   2.882   2.330   0.805 -0.6231 -0.2828  0.2888
  385SOL    HW1 1154   2.856   2.304   0.712  1.8832  0.8169  2.0005
  385SOL    HW2 1155   2.923   2.252   0.859  3.1515  0.2150 -1.1504
  386SOL     OW 1156   1.853   0.716   0.714  0.1258 -0.1412  0.1714
  386SOL    HW1 1157   1.877   0.809   0.741 -0.4985 -1.2967  0.3019
  386SOL    HW2 1158   1.754   0.699   0.693 -0.9763  0.6216  0.6976
  387SOL     OW 1159   0.428   0.726   2.000  0.3478  0.4252 -0.8088
  387SOL    HW1 1160   0.343   0.780   1.983 -0.1739  0.7678  2.8416
  387SOL    HW2 1161   0.516   0.778   1.987  0.0574  1.4250  2.1541
  388SOL     OW 1162   2.237   1.110   2.450 -0.0082  0.4125  0.1432
  388SOL    HW1 1163   2.271   1.127   2.548  2.0976 -2.1142  1.9037
  388SOL    HW2 1164   2.159   1.044   2.447  0.9164 -0.5411 -0.7858
  389SOL     OW 1165   1.802   1.366   1.798 -0.4527 -0.1867  0.2658
  389SOL    HW1 1166   1.717   1.403   1.758  2.3271 -1.9503 -0.8583
  389SOL    HW2 1167   1.885   1.369   1.734  0.2286  2.4305  0.7156
  390SOL     OW 1168   1.950   2.775   0.086  0.3895  0.3444 -0.7809
  390SOL    HW1 1169   1.949   2.858   0.144 -1.2344  0.4339 -0.4277
  390SOL    HW2 1170   1.864   2.721   0.096  3.2159 -0.5087  0.4103
  391SOL     OW 1171   2.023   2.457   1.287 -0.0776 -0.0509  0.2224
  391SOL    HW1 1172   2.004   2.518   1.206 -0.3194 -0.1922  3.6491
  391SOL    HW2 1173   1.955   2.378   1.287 -0.2230 -0.5911  1.8096
  392SOL     OW 1174   0.005   2.557   0.972 -0.4473  0.4089 -0.1363
  392SOL    HW1 1175   3.036   2.554   1.041  1.8122  1.2274  0.2675
  392SOL    HW2 1176   0.040   2.465   0.938 -2.5485 -0.0045 -0.9547
  393SOL     OW 1177   2.086   1.659   0.092  0.1701  0.4723  0.0509
  393SOL    HW1 1178   2.078   1.567   0.048 -3.0210  0.0675 -2.4601
  393SOL    HW2 1179   2.163   1.711   0.054 -0.9731  0.0336  0.1974
  394SOL     OW 1180   2.931   0.169   2.959  0.1896  0.2964  0.3824
  394SOL    HW1 1181   2.928   0.270   2.971  0.1461 -2.3923 -0.4718
  394SOL    HW2 1182   2.944   0.149   2.863 -1.1784 -0.7693 -1.2116
  395SOL     OW 1183   1.268   1.060   1.043 -0.3107  0.2595 -0.2153
  395SOL    HW1 1184   1.287   1.083   0.945 -0.1164  0.1857  1.3595
  395SOL    HW2 1185   1.201   0.986   1.047  0.1620  0.8980 -2.4532
  396SOL     OW 1186   1.442   0.671   3.001 -0.0554 -0.5299 -0.3997
  396SOL    HW1 1187   1.507   0.743   2.969  2.2141  4.9407  1.0057
  396SOL    HW2 1188   1.363   0.685   2.941  0.7281  1.8384 -1.9292
  397SOL     OW 1189   3.021   0.520   2.677 -0.0127  0.1895  0.0840
  397SOL    HW1 1190   2.980   0.484   2.587 -0.0611 -0.1813  0.1772
  397SOL    HW2 1191   2.952   0.568   2.734 -0.5433 -3.4898  0.7000
  398SOL     OW 1192   0.760   0.195   0.049 -0.1124 -0.1490 -0.6172
  398SOL    HW1 1193   0.769   0.282   0.098 -3.1948 -2.3398 -1.1321
  398SOL    HW2 1194   0.787   0.202   3.050 -1.1195  0.6211 -1.3750
  399SOL     OW 1195   2.527   2.775   1.956  0.3749 -0.6083 -0.0681
  399SOL    HW1 1196   2.595   2.729   1.891  0.8155  1.1213 -1.9432
  399SOL    HW2 1197   2.571   2.824   2.035  2.5391 -1.1049  0.4773
  400SOL     OW 1198   0.606   1.704   2.243 -0.1413  0.1145 -0.7649
  400SOL    HW1 1199   0.712   1.690   2.231  1.6157 -1.2763 -2.2052
  400SOL    HW2 1200   0.557   1.652   2.169  1.6240 -1.1527 -1.7729
  401SOL     OW 1201   0.736   0.516   2.660 -0.4759 -0.0420 -0.0486
  401SOL    HW1 1202   0.762   0.554   2.749  0.7854 -1.8053 -3.2202
  401SOL    HW2 1203   0.817   0.519   2.600 -1.0913  1.9038  0.2866
  402SOL     OW 1204   0.181   2.035   1.742 -0.2723  0.1316  0.2928
  402SOL    HW1 1205   0.261   2.065   1.798  0.9068 -0.3477  0.0197
  402SOL    HW2 1206   0.190   1.934   1.725 -2.5579 -2.6745 -0.5830
  403SOL     OW 1207   0.724   1.079   1.572 -0.0967 -0.5606  0.3484
  403SOL    HW1 1208   0.816   1.033   1.560 -0.3899 -1.3983 -0.4220
  403SOL    HW2 1209   0.722   1.146   1.652 -0.4880  2.6073  0.2607
  404SOL     OW 1210   2.684   2.404   1.490  0.3714 -0.4408 -0.2534
  404SOL    HW1 1211   2.690   2.500   1.530  0.4118  0.2824  0.9205
  404SOL    HW2 1212   2.627   2.391   1.401 -2.1482  0.3304 -1.0733
  405SOL     OW 1213   0.108   0.397   1.769 -0.4940  0.5295  0.0987
  405SOL    HW1 1214   0.092   0.336   1.689  1.0412  1.2365  1.9972
  405SOL    HW2 1215   0.044   0.478   1.770  1.0688 -1.9225 -0.4229
  406SOL     OW 1216   1.817   2.240   0.151  0.1110 -0.3429 -0.0096
  406SOL    HW1 1217   1.883   2.308   0.180 -0.5096 -2.3852 -1.8077
  406SOL    HW2 1218   1.808   2.257   0.048 -2.5669  0.5486  1.3702
  407SOL     OW 1219   1.846   1.123   1.663 -0.5547  0.5384  0.4711
  407SOL    HW1 1220   1.898   1.059   1.721  1.6836  2.8706 -1.1740
  407SOL    HW2 1221   1.820   1.203   1.714  2.7226 -1.9522 -1.1759
  408SOL     OW 1222   0.637   0.314   2.476 -0.0384 -0.0506 -0.1983
  408SOL    HW1 1223   0.583   0.279   2.551  0.8956  2.9819 -1.2041
  408SOL    HW2 1224   0.647   0.417   2.487  0.3684  0.7114 -0.2192
  409SOL     OW 1225   0.015   2.442   0.687  0.3811  0.4704 -0.2527
  409SOL    HW1 1226   3.021   2.399   0.692  1.4957 -0.5780  0.5958
  409SOL    HW2 1227   0.066   2.414   0.774  1.3752  0.5620  0.8807
  410SOL     OW 1228   2.474   1.582   0.430  0.1223  0.1140 -0.1706
  410SOL    HW1 1229   2.459   1.614   0.526 -0.1427 -2.7684 -0.7894
  410SOL    HW2 1230   2.455   1.650   0.356 -2.9657 -0.0458  0.2072
  411SOL     OW 1231   2.985   0.684   0.911 -0.1491  0.2107  0.3546
  411SOL    HW1 1232   2.954   0.695   0.815  0.2573  0.5455 -1.6731
  411SOL    HW2 1233   3.066   0.622   0.919 -0.8903 -0.5575 -0.0222
  412SOL     OW 1234   1.396   0.875   0.862  0.2816  0.0326 -0.2652
  412SOL    HW1 1235   1.456   0.896   0.941  1.9426  0.2409 -1.4083
  412SOL    HW2 1236   1.385   0.956   0.805  1.3412 -2.3103  1.0509
  413SOL     OW 1237   0.820   0.385   1.117 -0.3072 -0.4673 -0.2954
  413SOL    HW1 1238   0.820   0.351   1.217 -2.6924 -3.5205  0.7317
  413SOL    HW2 1239   0.911   0.413   1.082 -3.1493  1.0268 -2.4697
  414SOL     OW 1240   0.027   1.754   2.851 -0.0698 -0.5783  0.0467
  414SOL    HW1 1241   0.011   1.724   2.947 -0.5045  2.8169  2.1532
  414SOL    HW2 1242   0.132   1.743   2.832  4.0735  0.6850  0.0860
  415SOL     OW 1243   0.534   2.330   3.027  0.1495 -0.0154  0.0042
  415SOL    HW1 1244   0.627   2.379   3.030 -1.7223 -0.0298  2.0025
  415SOL    HW2 1245   0.511   2.303   2.933  3.2692 -0.5376 -1.4914
  416SOL     OW 1246   1.609   0.871   0.462  0.0403 -0.1897  0.0525
  416SOL    HW1 1247   1.580   0.810   0.540  1.4020  3.1365 -0.4487
  416SOL    HW2 1248   1.641   0.818   0.381 -0.2066 -1.5541 -1.1470
  417SOL     OW 1249   0.314   1.054   0.340  0.0765 -0.2912  0.2483
  417SOL    HW1 1250   0.410   1.037   0.316 -1.4088  0.5558  0.3655
  417SOL    HW2 1251   0.251   0.969   0.354 -0.9318 -0.8526 -0.0903
  418SOL     OW 1252   2.617   1.395   2.639  0.2353 -0.1184  0.1617
  418SOL    HW1 1253   2.599   1.439   2.550  0.4713 -2.2095 -1.2042
  418SOL    HW2 1254   2.647   1.301   2.624 -1.6884 -0.7629 -1.0786
  419SOL     OW 1255   0.266   0.666   2.921  0.4844 -0.2616 -0.2430
  419SOL    HW1 1256   0.333   0.670   2.994  0.1125 -0.6349  1.3708
  419SOL    HW2 1257   0.243   0.571   2.895 -0.2099  0.2301  0.6875
  420SOL     OW 1258   0.482   1.473   0.867 -0.4856  0.6923  0.5152
  420SOL    HW1 1259   0.430   1.532   0.928  0.3352 -0.5811  1.0288
  420SOL    HW2 1260   0.421   1.402   0.831 -1.0453  0.0367 -1.4591
  421SOL     OW 1261   0.624   2.364   0.749 -0.5355 -0.1522  0.3564
  421SOL    HW1 1262   0.705   2.376   0.689 -1.2858  2.5349  0.1230
  421SOL    HW2 1263   0.568   2.295   0.699 -2.0272  1.4400  1.1973
  422SOL     OW 1264   2.951   0.898   1.437  0.4345  0.0330  1.1902
  422SOL    HW1 1265   3.018   0.978   1.433 -0.2082  1.4784  0.6531
  422SOL    HW2 1266   2.998   0.822   1.391  0.8760  3.0503  3.0432
  423SOL     OW 1267   1.529   1.376   1.355 -0.0085 -0.3368 -0.0073
  423SOL    HW1 1268   1.613   1.403   1.306 -0.0467 -0.6112  1.4728
  423SOL    HW2 1269   1.513   1.275   1.347 -0.0008 -0.2265  1.2387
  424SOL     OW 1270   1.900   1.060   0.237  0.0523  0.3303  0.1618
  424SOL    HW1 1271   1.827   1.133   0.227 -1.5859  1.0317  1.9579
  424SOL    HW2 1272   1.936   1.028   0.146  0.7798  2.7752  0.6586
  425SOL     OW 1273   2.958   0.421   1.957 -0.0484  0.2165 -0.2499
  425SOL    HW1 1274   2.946   0.429   2.057 -1.3113 -0.4892  2.2675
  425SOL    HW2 1275   2.955   0.323   1.934  2.3780 -0.9924  1.1288
  426SOL     OW 1276   2.535   2.903   2.487  0.4634  0.5004 -0.8804
  426SOL    HW1 1277   2.445   2.862   2.516 -2.6464 -3.7906  2.0956
  426SOL    HW2 1278   2.521   2.972   2.410  2.3966  0.8378 -1.7846
  427SOL     OW 1279   1.123   1.012   2.350 -0.0444  0.1236 -0.0805
  427SOL    HW1 1280   1.134   0.915   2.321 -0.2637 -2.8123 -0.7333
  427SOL    HW2 1281   1.102   1.066   2.264  3.3168  0.3969 -0.2339
  428SOL     OW 1282   2.176   1.213   2.212 -0.6473 -0.1759 -0.6691
  428SOL    HW1 1283   2.198   1.164   2.297 -0.6960 -1.7366 -0.7336
  428SOL    HW2 1284   2.160   1.312   2.223 -1.2952  4.4824  1.4605
  429SOL     OW 1285   2.819   0.018   0.588  0.3059 -0.2616 -0.2431
  429SOL    HW1 1286   2.813   0.118   0.577  1.8835  1.6508 -1.2931
  429SOL    HW2 1287   2.899   3.088   0.529  0.1884 -0.9727 -2.5236
  430SOL     OW 1288   1.864   1.419   2.124  0.2758  0.5928  0.2090
  430SOL    HW1 1289   1.959   1.419   2.168  1.0917 -0.8438 -1.3922
  430SOL    HW2 1290   1.862   1.378   2.033  0.4212  1.0823  2.1252
  431SOL     OW 1291   3.078   2.019   1.147 -0.3821  0.0872 -0.0101
  431SOL    HW1 1292   3.017   2.078   1.196  2.1499 -0.6992 -0.1813
  431SOL    HW2 1293   3.042   1.924   1.176  0.3705 -0.3741  0.7111
  432SOL     OW 1294   1.634   3.055   2.277  0.0999 -0.4066  0.5146
  432SOL    HW1 1295   1.597   2.966   2.303  1.5026  0.6041  0.4533
  432SOL    HW2 1296   1.687   3.047   2.187  1.7601 -1.4446 -0.2986
  433SOL     OW 1297   1.419   0.040   1.915 -0.5403 -0.0379 -0.0338
  433SOL    HW1 1298   1.414   0.027   1.815 -0.6844 -1.3022 -1.1583
  433SOL    HW2 1299   1.508   0.070   1.951  1.1456 -0.1822 -1.0286
  434SOL     OW 1300   0.540   2.653   2.226  0.2470  0.2984 -0.2811
  434SOL    HW1 1301   0.509   2.752   2.225 -1.6047 -1.9185  1.6021
  434SOL    HW2 1302   0.461   2.590   2.214 -0.7631 -1.8424  0.9045
  435SOL     OW 1303   0.422   2.032   0.321 -0.2669 -0.1441 -0.1895
  435SOL    HW1 1304   0.463   2.068   0.241  1.1404 -1.2444  0.3110
  435SOL    HW2 1305   0.423   1.931   0.332 -0.0547 -1.5590  2.3847
  436SOL     OW 1306   0.621   0.904   1.925  0.4101 -0.0735 -0.0470
  436SOL    HW1 1307   0.706   0.931   1.875  0.2935 -0.3394  0.7433
  436SOL    HW2 1308   0.546   0.976   1.922 -0.9717  0.2342  0.4696
  437SOL     OW 1309   0.634   0.019   2.263 -0.0660  0.1711 -0.2672
  437SOL    HW1 1310   0.708   0.084   2.283 -0.2339  0.3500 -0.1550
  437SOL    HW2 1311   0.549   0.066   2.298 -0.1190  0.9537  1.0747
  438SOL     OW 1312   0.696   1.919   1.487 -0.4934 -0.5856  0.5883
  438SOL    HW1 1313   0.635   1.958   1.554  1.5297 -3.3730 -0.2841
  438SOL    HW2 1314   0.676   1.819   1.472  0.4046  1.7674  1.5420
  439SOL     OW 1315   1.845   0.762   0.003 -0.0985 -0.0388  0.4247
  439SOL    HW1 1316   1.863   0.859   0.013  1.2006  1.0891 -0.3480
  439SOL    HW2 1317   1.800   0.741   3.012 -2.7160  0.0990 -2.3593
  440SOL     OW 1318   0.655   0.453   0.442 -0.4537  0.0571 -0.4574
  440SOL    HW1 1319   0.713   0.508   0.509 -1.8755  0.3777  1.7962
  440SOL    HW2 1320   0.567   0.502   0.430 -0.0120 -0.6981  0.1890
  441SOL     OW 1321   0.991   2.135   1.501 -0.9010  0.2533 -0.0785
  441SOL    HW1 1322   0.977   2.158   1.596 -2.3355  0.6355  2.2056
  441SOL    HW2 1323   0.907   2.128   1.445  0.7442 -1.4577 -0.6491
  442SOL     OW 1324   2.854   1.837   0.422  0.3194 -0.1889 -0.1586
  442SOL    HW1 1325   2.819   1.738   0.422  0.7923  2.5923  0.1608
  442SOL    HW2 1326   2.809   1.894   0.497 -2.3592  1.6001 -2.3553
  443SOL     OW 1327   2.788   2.022   2.713  0.4731 -0.0290  0.0179
  443SOL    HW1 1328   2.760   1.926   2.689  1.5661  2.4588 -0.4994
  443SOL    HW2 1329   2.888   2.017   2.690  1.4113  0.4769 -1.7208
  444SOL     OW 1330   1.294   0.992   0.177  0.2808 -0.2504  0.1394
  444SOL    HW1 1331   1.303   0.891   0.154  2.0900 -3.4582  0.8011
  444SOL    HW2 1332   1.344   1.009   0.266  1.1417 -0.8830  0.3006
  445SOL     OW 1333   2.705   2.662   1.766  0.3471  0.5643  0.1390
  445SOL    HW1 1334   2.784   2.711   1.808  0.0973 -1.6496  0.0912
  445SOL    HW2 1335   2.679   2.582   1.822 -1.3594 -0.8066 -0.3552
  446SOL     OW 1336   2.988   1.373   0.630 -0.0042 -0.1518  0.0719
  446SOL    HW1 1337   2.983   1.290   0.570  0.1944  1.0062  0.6544
  446SOL    HW2 1338   2.892   1.404   0.645  1.2563  0.4403  0.1852
  447SOL     OW 1339   1.120   1.904   1.158  0.3225  0.1625 -0.5164
  447SOL    HW1 1340   1.150   1.860   1.249  2.0337 -2.9983  1.3421
  447SOL    HW2 1341   1.025   1.916   1.155  1.6328 -0.8770  1.4089
  448SOL     OW 1342   1.556   1.796   1.581  0.5167  0.5355 -0.1254
  448SOL    HW1 1343   1.637   1.854   1.598 -0.2865 -0.6691  0.3675
  448SOL    HW2 1344   1.505   1.772   1.665 -1.3248 -0.4367  2.3902
  449SOL     OW 1345   2.927   2.295   2.504 -0.1712 -0.3598  0.0619
  449SOL    HW1 1346   2.852   2.282   2.572  1.1864 -0.0251 -0.3545
  449SOL    HW2 1347   3.019   2.292   2.548  1.0764 -0.1672 -1.1579
  450SOL     OW 1348   3.022   1.776   1.864 -0.0431  0.3107  0.3825
  450SOL    HW1 1349   2.983   1.863   1.894 -0.5351 -1.9844  1.3546
  450SOL    HW2 1350   0.016   1.790   1.828 -0.6382  0.0249  1.4009
  451SOL     OW 1351   2.235   0.761   1.397 -0.4016  0.9942  0.2587
  451SOL    HW1 1352   2.191   0.830   1.456 -0.0858 -2.3094 -4.1031
  451SOL    HW2 1353   2.322   0.727   1.443  2.4457 -1.1287  2.1465
  452SOL     OW 1354   0.708   1.135   0.952 -0.5418  0.0557  0.0056
  452SOL    HW1 1355   0.649   1.087   0.882  1.6956 -1.2505 -2.4468
  452SOL    HW2 1356   0.728   1.226   0.911 -0.2275  1.6596 -3.8981
  453SOL     OW 1357   1.508   2.146   0.666 -0.2453 -0.0007 -0.3896
  453SOL    HW1 1358   1.527   2.126   0.761  0.1133  0.0841 -2.0087
  453SOL    HW2 1359   1.589   2.134   0.607  0.3750 -0.1197  2.0152
  454SOL     OW 1360   0.302   1.743   0.023 -0.4842  0.3832 -0.2901
  454SOL    HW1 1361   0.373   1.726   0.093 -3.9081 -0.8768  1.1263
  454SOL    HW2 1362   0.259   1.837   0.038 -1.7943  0.3565  1.2300
  455SOL     OW 1363   0.900   1.065   0.206  0.0709  0.0530 -0.3554
  455SOL    HW1 1364   0.955   0.981   0.207 -2.5269 -1.9854 -0.4775
  455SOL    HW2 1365   0.947   1.126   0.269  0.7759  0.6392  0.5432
  456SOL     OW 1366   1.921   2.586   1.053 -0.1392  0.5972  0.1186
  456SOL    HW1 1367   1.884   2.641   0.974 -0.6632 -0.1239  0.7727
  456SOL    HW2 1368   1.948   2.491   1.022  1.4425 -1.4430  0.2603
  457SOL     OW 1369   1.621   2.942   0.072 -0.3246  0.2332 -0.1473
  457SOL    HW1 1370   1.673   3.028   0.069 -0.4770 -2.3949  0.6345
  457SOL    HW2 1371   1.521   2.959   0.080  0.6632 -4.4914 -1.8130
  458SOL     OW 1372   2.409   0.797   0.401 -0.1026  0.3231 -0.0169
  458SOL    HW1 1373   2.340   0.830   0.466 -0.7829 -0.4139 -0.3426
  458SOL    HW2 1374   2.420   0.857   0.315 -4.5065  3.9204 -1.0579
  459SOL     OW 1375   2.385   0.460   2.542  0.4855 -0.4464 -0.7902
  459SOL    HW1 1376   2.298   0.511   2.539  1.3229  0.6982  0.7918
  459SOL    HW2 1377   2.459   0.527   2.565  0.1744  0.5306  1.0275
  460SOL     OW 1378   2.645   0.622   2.568  0.3994  0.6144 -0.9175
  460SOL    HW1 1379   2.722   0.644   2.637  1.2140  0.0604  2.7913
  460SOL    HW2 1380   2.577   0.698   2.564 -1.6090  1.2900 -0.5732
  461SOL     OW 1381   0.152   2.337   0.902  0.5437 -0.5456 -0.0953
  461SOL    HW1 1382   0.223   2.334   0.975  0.3217  1.1940  0.3326
  461SOL    HW2 1383   0.078   2.274   0.924 -0.0219 -4.6891 -0.7402
  462SOL     OW 1384   3.036   2.629   1.645 -0.3640 -0.4080  0.3155
  462SOL    HW1 1385   2.987   2.696   1.697  3.6279 -1.1923 -0.5384
  462SOL    HW2 1386   3.074   2.672   1.563 -0.2003  2.7241  2.2942
  463SOL     OW 1387   2.264   1.904   2.733 -0.5324  0.4844 -0.1715
  463SOL    HW1 1388   2.360   1.887   2.754 -1.4883  0.8728  1.1106
  463SOL    HW2 1389   2.218   1.819   2.700  0.9300  0.8810  2.4019
  464SOL     OW 1390   0.754   2.761   1.493 -0.1626 -0.2752  0.6028
  464SOL    HW1 1391   0.841   2.723   1.531  1.6853  2.1188  1.1793
  464SOL    HW2 1392   0.741   2.859   1.507 -0.2307 -2.3847  0.4796
  465SOL     OW 1393   0.734   3.027   1.556  0.6565 -0.5540  0.1749
  465SOL    HW1 1394   0.678   3.065   1.478  2.0200 -2.5921 -1.6527
  465SOL    HW2 1395   0.730   3.088   1.633 -0.5928 -0.4678 -0.6204
  466SOL     OW 1396   1.404   2.733   2.186  0.1450  0.9424  0.2846
  466SOL    HW1 1397   1.459   2.670   2.130 -0.3823 -0.7424  2.5064
  466SOL    HW2 1398   1.375   2.809   2.125 -0.1110  1.6461 -0.4677
  467SOL     OW 1399   0.845   1.905   1.192  1.0821 -0.0073 -0.2810
  467SOL    HW1 1400   0.858   1.810   1.227 -2.0730  4.1781  0.3260
  467SOL    HW2 1401   0.810   1.974   1.257 -1.5727  0.0307  0.8182
  468SOL     OW 1402   2.848   1.788   2.347  0.6957 -0.2825  0.1866
  468SOL    HW1 1403   2.888   1.870   2.392  2.0070 -1.7612 -0.4035
  468SOL    HW2 1404   2.915   1.758   2.277  1.4192  0.3226 -0.3206
  469SOL     OW 1405   0.887   2.015   0.746  0.0385  0.1395  0.2512
  469SOL    HW1 1406   0.974   2.022   0.788 -3.7124  0.5792 -0.7617
  469SOL    HW2 1407   0.821   1.983   0.813 -0.0047  2.3809 -1.1705
  470SOL     OW 1408   2.261   1.249   1.752  0.2163  0.9159 -0.1222
  470SOL    HW1 1409   2.192   1.300   1.700  0.9854  1.2844 -0.9314
  470SOL    HW2 1410   2.325   1.207   1.686 -1.8346  1.1770  0.5076
  471SOL     OW 1411   0.406   2.469   0.113  0.5346  0.3146 -0.1504
  471SOL    HW1 1412   0.466   2.458   0.200  0.4973  0.6795  2.5072
  471SOL    HW2 1413   0.457   2.419   0.037  1.4102 -1.4224 -0.6299
  472SOL     OW 1414   2.898   2.013   1.921 -0.5754  0.0373 -0.6571
  472SOL    HW1 1415   2.819   1.954   1.898 -0.3311  1.0002 -0.3545
  472SOL    HW2 1416   2.921   2.079   1.845 -0.9745 -0.9132  0.9512
  473SOL     OW 1417   1.039   2.774   0.172  0.3779  0.1118 -0.0203
  473SOL    HW1 1418   1.095   2.693   0.163 -0.5410 -0.1427 -1.2230
  473SOL    HW2 1419   1.080   2.847   0.121 -0.8668 -0.6945  2.4514
  474SOL     OW 1420   2.652   2.459   0.899  0.2015 -0.3269 -0.0952
  474SOL    HW1 1421   2.650   2.525   0.979 -0.7963 -0.8267 -1.2020
  474SOL    HW2 1422   2.747   2.433   0.876  1.6537 -0.1066  0.6347
  475SOL     OW 1423   2.063   2.902   1.733  0.6120 -0.8481  0.3253
  475SOL    HW1 1424   2.117   2.910   1.645  5.3011 -3.0998  0.9001
  475SOL    HW2 1425   1.971   2.937   1.727  1.1167 -0.7977  1.1220
  476SOL     OW 1426   0.811   1.129   0.619  0.0328 -0.3249  0.4251
  476SOL    HW1 1427   0.841   1.097   0.712 -0.0414 -0.2417 -0.0115
  476SOL    HW2 1428   0.762   1.060   0.566 -0.3908 -0.9528  0.0617
  477SOL     OW 1429   0.379   2.043   1.057  0.0514 -0.1391  0.1064
  477SOL    HW1 1430   0.388   2.122   1.121  0.3538  0.1424  1.3668
  477SOL    HW2 1431   0.408   2.066   0.966 -1.4098  0.4433  4.1590
  478SOL     OW 1432   0.204   2.604   2.273  0.2708  0.5552  0.1106
  478SOL    HW1 1433   0.110   2.627   2.304  2.7327 -0.3376  1.0820
  478SOL    HW2 1434   0.213   2.658   2.185  0.9566 -0.6711  1.1500
  479SOL     OW 1435   0.079   0.314   1.473 -0.3452 -0.5815 -0.4604
  479SOL    HW1 1436   0.176   0.343   1.467 -0.8383 -1.0550  0.7141
  479SOL    HW2 1437   0.021   0.354   1.399 -1.6654  1.4048 -0.0518
  480SOL     OW 1438   2.887   2.594   3.000 -0.5382  0.3902 -0.1573
  480SOL    HW1 1439   2.886   2.550   2.906 -0.2728 -0.4495  0.0434
  480SOL    HW2 1440   2.830   2.536   3.057  2.5781 -0.9238 -0.3294
  481SOL     OW 1441   2.199   1.939   1.780  0.0665  0.6585  0.2563
  481SOL    HW1 1442   2.185   1.875   1.861 -1.0040  0.0072  3.2714
  481SOL    HW2 1443   2.259   1.903   1.709 -1.8788 -1.0676 -0.4643
  482SOL     OW 1444   1.541   2.460   2.759  0.8780 -0.0330 -0.0721
  482SOL    HW1 1445   1.478   2.411   2.824 -0.3310  2.5491 -1.1643
  482SOL    HW2 1446   1.584   2.398   2.690  2.8709 -0.6483  1.5013
  483SOL     OW 1447   0.534   1.867   2.473  0.4791 -0.5071  0.5751
  483SOL    HW1 1448   0.574   1.810   2.398 -0.3113 -3.2059  0.5878
  483SOL    HW2 1449   0.516   1.962   2.442  1.9321  1.0694  0.9724
  484SOL     OW 1450   3.027   0.404   1.241 -0.3544  0.1180  0.0754
  484SOL    HW1 1451   3.037   0.386   1.141  1.3996  0.6098 -0.2330
  484SOL    HW2 1452   2.930   0.393   1.272  2.7295  2.2484 -0.6072
  485SOL     OW 1453   2.173   1.146   0.582  0.0273 -0.2868 -0.1848
  485SOL    HW1 1454   2.136   1.204   0.504  0.9340 -1.3039  1.6145
  485SOL    HW2 1455   2.138   1.183   0.676 -1.1822  1.5589 -0.1084
  486SOL     OW 1456   1.523   0.221   2.282 -0.0335 -0.0706 -0.4325
  486SOL    HW1 1457   1.616   0.253   2.315  1.0568  4.4594 -1.0175
  486SOL    HW2 1458   1.499   0.127   2.310  1.4188 -3.3891 -0.0419
  487SOL     OW 1459   0.854   1.634   1.231 -0.1974 -0.0375 -0.5969
  487SOL    HW1 1460   0.764   1.623   1.198  3.6830 -1.4663 -1.8733
  487SOL    HW2 1461   0.915   1.573   1.171 -0.5653 -1.9682  1.6385
  488SOL     OW 1462   2.234   1.432   2.983  0.0377 -0.1382 -0.4396
  488SOL    HW1 1463   2.300   1.454   2.907 -1.4268  2.4698 -0.8320
  488SOL    HW2 1464   2.285   1.460   3.066  0.9130  0.4665  0.3637
  489SOL     OW 1465   2.014   0.160   0.383 -0.1975 -0.1002 -0.1161
  489SOL    HW1 1466   2.108   0.133   0.418  1.6493 -3.3698  2.0721
  489SOL    HW2 1467   2.026   0.246   0.333  2.8217 -2.5537 -1.7004
  490SOL     OW 1468   1.373   2.410   0.409 -0.3352  0.3556  0.2705
  490SOL    HW1 1469   1.375   2.316   0.368  0.8427 -0.4819 -1.8109
  490SOL    HW2 1470   1.448   2.468   0.377 -0.7685  0.9678  1.8734
  491SOL     OW 1471   0.962   0.962   0.823  0.1893 -0.1305  0.8890
  491SOL    HW1 1472   0.927   0.918   0.908 -0.4272 -0.0319 -1.2166
  491SOL    HW2 1473   1.000   1.057   0.840  2.8754  2.1876 -2.7295
  492SOL     OW 1474   1.260   0.167   2.748 -0.7179  0.2238  0.0633
  492SOL    HW1 1475   1.329   0.230   2.699  4.5917 -0.3951  0.9791
  492SOL    HW2 1476   1.174   0.214   2.775  2.1047  1.4957  1.0107
  493SOL     OW 1477   1.759   1.970   0.147  0.0808 -0.5621  0.2710
  493SOL    HW1 1478   1.817   1.915   0.211  0.3774 -0.2428 -0.0377
  493SOL    HW2 1479   1.794   2.065   0.144 -2.0649  0.4890 -0.2196
  494SOL     OW 1480   0.530   1.429   0.456  0.3554  0.4630  0.2666
  494SOL    HW1 1481   0.505   1.521   0.498 -1.9281  1.9647  1.6796
  494SOL    HW2 1482   0.585   1.436   0.372  0.0270  0.9917  0.7574
  495SOL     OW 1483   3.093   2.784   0.841 -0.0608 -0.2345  0.6029
  495SOL    HW1 1484   3.090   2.698   0.892  1.0148  1.9921 -0.4523
  495SOL    HW2 1485   3.060   2.761   0.750 -0.4680 -1.8076  2.1103
  496SOL     OW 1486   2.586   3.094   1.599 -0.2907 -0.0337 -0.0427
  496SOL    HW1 1487   2.518   3.059   1.530 -0.1201 -2.9897 -1.2928
  496SOL    HW2 1488   2.573   0.094   1.630 -1.2592  2.6683  0.8054
  497SOL     OW 1489   1.889   1.385   2.651  0.1506 -0.3489 -0.2880
  497SOL    HW1 1490   1.950   1.459   2.681 -2.9805 -1.2138  2.7339
  497SOL    HW2 1491   1.864   1.397   2.549  0.3734 -2.5230  0.5132
  498SOL     OW 1492   0.702   1.918   0.942 -0.1527  0.1453 -0.2927
  498SOL    HW1 1493   0.730   1.919   1.043  1.0676  0.7802  0.9200
  498SOL    HW2 1494   0.654   1.831   0.927 -2.1700 -0.6445 -0.5959
  499SOL     OW 1495   0.752   2.139   1.364  0.2056 -0.2617  0.0849
  499SOL    HW1 1496   0.733   2.055   1.415  0.8022  1.2047  2.6367
  499SOL    HW2 1497   0.670   2.194   1.339 -0.6859  1.5980  0.5057
  500SOL     OW 1498   0.834   2.073   0.217 -0.3044 -0.0240  0.4266
  500SOL    HW1 1499   0.813   2.071   0.317  2.0861  0.0504 -3.0937
  500SOL    HW2 1500   0.868   2.165   0.190 -0.9428 -0.3371  2.8593
  501SOL     OW 1501   2.655   2.888   1.300 -0.5691  0.0113 -0.2338
  501SOL    HW1 1502   2.597   2.902   1.221 -0.4894 -3.9617  2.4167
  501SOL    HW2 1503   2.748   2.866   1.267 -2.2225  0.1086  2.1326
  502SOL     OW 1504   0.168   0.639   1.689 -0.7619  0.7232 -0.5179
  502SOL    HW1 1505   0.210   0.548   1.723 -2.1268 -3.0010  1.0349
  502SOL    HW2 1506   0.128   0.691   1.769  0.7510 -0.0403  0.4760
  503SOL     OW 1507   2.309   0.822   1.928 -0.4898  0.1186 -0.4827
  503SOL    HW1 1508   2.378   0.833   1.857  0.2722 -1.1721  2.4894
  503SOL    HW2 1509   2.248   0.904   1.937 -1.7102  0.9254 -4.9583
  504SOL     OW 1510   1.061   0.806   1.918 -0.0328 -0.4378  0.0855
  504SOL    HW1 1511   1.074   0.726   1.980  2.0671 -1.7417 -1.1402
  504SOL    HW2 1512   1.132   0.878   1.938 -0.2240 -2.4230  1.5847
  505SOL     OW 1513   0.886   3.028   2.470 -0.1064  0.2013 -0.0396
  505SOL    HW1 1514   0.932   2.955   2.412  0.0854  2.1198  2.3539
  505SOL    HW2 1515   0.856   0.001   2.403  1.2523 -0.4289 -2.2450
  506SOL     OW 1516   0.128   0.367   0.777  0.3851  0.2008 -0.2597
  506SOL    HW1 1517   0.046   0.356   0.844 -3.9331  0.0639  3.3502
  506SOL    HW2 1518   0.208   0.313   0.804 -1.7173  2.3234 -1.1685
  507SOL     OW 1519   1.471   0.273   3.063 -0.3476 -0.6986  0.4316
  507SOL    HW1 1520   1.562   0.281   3.016  1.1216  1.3270  1.3123
  507SOL    HW2 1521   1.446   0.178   3.083 -0.7556 -0.3190 -1.3986
  508SOL     OW 1522   1.786   0.367   2.303 -0.8088  0.1270 -0.3103
  508SOL    HW1 1523   1.840   0.397   2.223 -0.5268  0.2369  0.6750
  508SOL    HW2 1524   1.836   0.308   2.363 -1.5095  0.9140 -2.1944
  509SOL     OW 1525   0.738   1.354   2.076  1.2248 -0.4750 -0.0730
  509SOL    HW1 1526   0.819   1.412   2.097 -0.9042 -3.1547 -0.8902
  509SOL    HW2 1527   0.746   1.255   2.100  1.4913  0.0940  2.3521
  510SOL     OW 1528   3.030   0.992   0.725  0.1412  0.1163  0.2128
  510SOL    HW1 1529   3.002   1.011   0.819  0.6541 -1.0247 -0.5164
  510SOL    HW2 1530   0.026   0.954   0.725  1.9834  1.5400  2.5175
  511SOL     OW 1531   1.905   2.063   1.101 -0.3837 -0.1705  0.5855
  511SOL    HW1 1532   1.890   2.146   1.161  0.3363 -1.5619  1.5690
  511SOL    HW2 1533   1.981   2.076   1.039  0.7780 -0.1105  1.6596
  512SOL     OW 1534   0.186   1.713   0.569  0.2440  0.2591  0.2252
  512SOL    HW1 1535   0.135   1.724   0.654  0.0165  0.7823  1.0408
  512SOL    HW2 1536   0.153   1.631   0.511 -2.7516 -2.4182 -1.1327
  513SOL     OW 1537   0.161   2.092   0.403  0.1027  0.0708 -0.0540
  513SOL    HW1 1538   0.259   2.064   0.388 -1.7477  0.1454 -0.4435
  513SOL    HW2 1539   0.144   2.193   0.374 -1.8541 -0.1253 -0.9144
  514SOL     OW 1540   2.463   2.056   2.488  0.0255  0.0764 -0.0593
  514SOL    HW1 1541   2.486   2.128   2.557 -0.3994 -2.8531 -0.3999
  514SOL    HW2 1542   2.520   2.072   2.409 -0.5129 -2.5151  0.6398
  515SOL     OW 1543   2.243   0.991   0.046  0.1907  0.8164  0.6709
  515SOL    HW1 1544   2.198   0.910   0.009 -0.1960  1.7874 -1.2881
  515SOL    HW2 1545   2.323   0.970   0.106 -1.0697  1.8235  0.3286
  516SOL     OW 1546   1.859   0.112   0.618 -0.3565 -0.0510  0.1673
  516SOL    HW1 1547   1.790   0.181   0.642  0.2662  1.2299  0.3834
  516SOL    HW2 1548   1.893   0.132   0.521 -0.1851 -0.2576 -4.7182
  517SOL     OW 1549   1.181   2.161   0.243 -0.3545 -0.1032  0.1741
  517SOL    HW1 1550   1.102   2.220   0.252  1.9320  0.4935  1.0986
  517SOL    HW2 1551   1.156   2.062   0.250 -0.7643 -0.2817  0.0257
  518SOL     OW 1552   0.968   0.570   1.754 -0.3265 -0.4157 -0.2082
  518SOL    HW1 1553   0.993   0.660   1.791  2.0688 -3.1726 -2.0658
  518SOL    HW2 1554   1.004   0.501   1.819 -1.6066  0.0778  1.0701
  519SOL     OW 1555   2.926   1.434   0.205 -0.1255 -0.2058  0.0783
  519SOL    HW1 1556   3.014   1.478   0.219  0.8031 -0.5190  0.9501
  519SOL    HW2 1557   2.942   1.338   0.169 -1.2097 -0.5534  0.4699
  520SOL     OW 1558   2.400   1.890   1.556  0.2514  0.6791 -0.2935
  520SOL    HW1 1559   2.360   1.947   1.484 -2.2427  0.5027 -2.0260
  520SOL    HW2 1560   2.480   1.939   1.590 -0.7775 -0.3557 -3.2989
  521SOL     OW 1561   0.988   2.819   2.340 -0.3270 -0.4198 -0.7997
  521SOL    HW1 1562   1.062   2.778   2.396 -0.4733  0.2125 -0.7946
  521SOL    HW2 1563   0.922   2.754   2.303 -0.6766 -0.8378  0.1280
  522SOL     OW 1564   2.040   0.207   2.229  0.2462 -0.5694 -0.3841
  522SOL    HW1 1565   2.009   0.203   2.326  2.0860  1.3989  0.6413
  522SOL    HW2 1566   2.092   0.296   2.214 -0.0503 -0.7366 -3.8956
  523SOL     OW 1567   1.875   1.833   1.243 -0.1821 -0.1199  0.4057
  523SOL    HW1 1568   1.884   1.923   1.196  0.4280  1.0577  0.1795
  523SOL    HW2 1569   1.777   1.800   1.258  1.3274 -1.2115  0.0812
  524SOL     OW 1570   1.178   2.509   0.207 -0.0152  0.1075  0.1724
  524SOL    HW1 1571   1.112   2.436   0.202  1.0192  0.2929  3.2936
  524SOL    HW2 1572   1.254   2.491   0.269  1.0261  4.7017  0.2196
  525SOL     OW 1573   3.067   0.459   0.238 -0.1325  0.2377 -0.4055
  525SOL    HW1 1574   3.025   0.411   0.155 -1.3155 -2.4263 -1.9668
  525SOL    HW2 1575   0.058   0.415   0.263  0.5895  0.3673 -0.7765
  526SOL     OW 1576   0.991   2.916   0.408  0.1321 -0.2113 -0.2319
  526SOL    HW1 1577   0.916   2.979   0.437  3.1820 -0.1534  1.0872
  526SOL    HW2 1578   0.981   2.878   0.309 -1.0731 -1.2148 -2.2439
  527SOL     OW 1579   2.654   1.948   0.586 -0.0711  0.3812  0.4274
  527SOL    HW1 1580   2.680   2.003   0.671  0.3358 -2.1897  2.6761
  527SOL    HW2 1581   2.642   2.010   0.506  1.0458  0.4052  2.3238
  528SOL     OW 1582   3.022   0.661   2.242 -0.5493  0.3602 -0.3088
  528SOL    HW1 1583   3.008   0.577   2.304 -0.1932 -2.4875  1.8972
  528SOL    HW2 1584   0.012   0.652   2.199  0.0044 -1.7679 -0.3808
  529SOL     OW 1585   1.067   1.662   2.604 -0.0417 -0.4716  0.3633
  529SOL    HW1 1586   1.167   1.666   2.575  1.3614  1.0457 -3.0569
  529SOL    HW2 1587   1.018   1.710   2.530  0.8746 -0.3663  1.0190
  530SOL     OW 1588   1.703   1.061   2.611 -0.0825  0.8755  0.3317
  530SOL    HW1 1589   1.708   1.099   2.517 -2.5253 -0.8476 -1.0160
  530SOL    HW2 1590   1.792   1.049   2.666 -0.4938  2.3797 -1.1548
  531SOL     OW 1591   0.479   2.172   2.630  0.2711  0.1427  0.0049
  531SOL    HW1 1592   0.422   2.164   2.545 -0.7727 -0.1415 -0.5504
  531SOL    HW2 1593   0.442   2.109   2.699  0.3047  0.5138 -0.7343
  532SOL     OW 1594   2.091   1.304   0.381 -0.0887  0.2967  0.3266
  532SOL    HW1 1595   2.066   1.254   0.293  0.7253 -2.2685 -1.6510
  532SOL    HW2 1596   2.142   1.387   0.352  2.8219 -0.3413  2.0873
  533SOL     OW 1597   0.092   3.072   1.779  0.2638  0.2865  1.0446
  533SOL    HW1 1598   0.158   0.038   1.806 -0.1009  0.7051 -2.5808
  533SOL    HW2 1599   0.096   3.045   1.679  0.6097  0.0089  2.1069
  534SOL     OW 1600   0.517   0.341   2.894  0.6606  0.2722 -0.0981
  534SOL    HW1 1601   0.448   0.371   2.823 -2.3777  0.4126 -0.7790
  534SOL    HW2 1602   0.470   0.287   2.972 -0.5688 -2.8613  1.8702
  535SOL     OW 1603   0.143   0.303   0.329  0.3485 -0.0089 -0.0834
  535SOL    HW1 1604   0.092   0.288   0.415  0.0867  1.4719  0.2758
  535SOL    HW2 1605   0.243   0.318   0.356  1.7472  0.4050  4.0022
  536SOL     OW 1606   0.426   1.327   1.484 -0.3730 -0.3320 -0.0740
  536SOL    HW1 1607   0.506   1.279   1.443  2.0911  1.1204 -0.9195
  536SOL    HW2 1608   0.401   1.411   1.436  0.1897 -1.2352  1.4540
  537SOL     OW 1609   1.146   2.536   1.795 -0.3323  0.5609 -0.4710
  537SOL    HW1 1610   1.155   2.628   1.843 -1.4346  3.3610 -0.9832
  537SOL    HW2 1611   1.232   2.504   1.752  3.1480 -1.1848 -0.5351
  538SOL     OW 1612   0.053   1.825   0.301  0.6976 -0.0622  0.2536
  538SOL    HW1 1613   0.046   1.840   0.401 -1.0583  1.9168 -0.3072
  538SOL    HW2 1614   3.062   1.849   0.259  2.6556 -0.5930  1.1581
  539SOL     OW 1615   2.737   1.161   2.581 -0.5443 -0.0130  0.4049
  539SOL    HW1 1616   2.781   1.126   2.667 -0.7074 -0.6827 -0.4186
  539SOL    HW2 1617   2.770   1.123   2.494  1.0439 -0.5699 -0.7678
  540SOL     OW 1618   1.742   0.881   1.986 -0.5874 -0.0967  0.1623
  540SOL    HW1 1619   1.795   0.862   1.900  1.3449 -0.9012 -1.2290
  540SOL    HW2 1620   1.724   0.982   1.994  1.2911 -1.1323 -1.1967
  541SOL     OW 1621   0.735   0.714   2.081 -0.4058  0.1008 -0.5126
  541SOL    HW1 1622   0.663   0.676   2.139  2.7749  3.4046  1.9929
  541SOL    HW2 1623   0.694   0.769   2.007  0.9278 -2.6618 -0.8998
  542SOL     OW 1624   2.059   0.111   3.011 -0.2653  0.6675 -0.3237
  542SOL    HW1 1625   2.038   0.210   3.013 -1.1743 -1.3104 -1.1132
  542SOL    HW2 1626   2.110   0.081   2.928  0.4852 -2.0146  1.7088
  543SOL     OW 1627   1.377   0.021   0.130  0.0356 -0.5419 -0.0863
  543SOL    HW1 1628   1.358   3.094   0.035  0.4845 -1.9274  1.3110
  543SOL    HW2 1629   1.293   3.095   0.183 -1.0696 -1.2620  0.2571
  544SOL     OW 1630   2.824   1.437   1.862 -0.4362 -0.1735  0.4829
  544SOL    HW1 1631   2.852   1.438   1.960  1.3991  1.9145  0.6330
  544SOL    HW2 1632   2.885   1.379   1.801  0.6649 -2.1141  0.1612
  545SOL     OW 1633   1.813   2.397   1.679 -0.0720  0.6325  0.4288
  545SOL    HW1 1634   1.813   2.479   1.616 -1.8813 -0.0958 -0.7519
  545SOL    HW2 1635   1.854   2.409   1.769 -1.0306 -0.7145  0.0993
  546SOL     OW 1636   0.108   0.145   2.571 -0.1047 -0.2229 -0.3651
  546SOL    HW1 1637   0.149   0.068   2.619 -1.4577 -0.9584 -0.5532
  546SOL    HW2 1638   0.179   0.203   2.527 -0.7449 -0.0491 -0.9808
  547SOL     OW 1639   1.843   0.957   0.804  0.1484  0.2739 -0.2935
  547SOL    HW1 1640   1.826   0.985   0.710  0.3394  2.5420 -1.3143
  547SOL    HW2 1641   1.759   0.965   0.863 -1.9914  1.9789  1.8311
  548SOL     OW 1642   1.791   1.936   2.473 -0.2049 -0.0588  0.2282
  548SOL    HW1 1643   1.817   1.963   2.572  0.6178 -0.1266  3.5227
  548SOL    HW2 1644   1.731   2.011   2.431 -0.9544 -0.3682  0.4401
  549SOL     OW 1645   2.132   0.618   0.413  0.1359 -0.6981  0.3293
  549SOL    HW1 1646   2.079   0.704   0.385 -3.1222 -1.1131  2.7359
  549SOL    HW2 1647   2.080   0.565   0.481 -2.7164 -0.1102 -0.1665
  550SOL     OW 1648   2.460   1.742   0.657  0.8049  0.1099 -0.8527
  550SOL    HW1 1649   2.507   1.828   0.664 -0.9138 -1.1327 -1.2508
  550SOL    HW2 1650   2.361   1.763   0.673  0.5906  0.4680 -1.0891
  551SOL     OW 1651   1.148   2.571   2.172  0.2523 -1.1283 -0.1165
  551SOL    HW1 1652   1.186   2.628   2.250  1.0321  1.0975  2.0017
  551SOL    HW2 1653   1.081   2.500   2.208 -0.0966  0.9336 -0.3237
  552SOL     OW 1654   2.904   2.455   2.752 -0.2812 -0.4067  0.1260
  552SOL    HW1 1655   2.813   2.411   2.736 -1.1590  2.1998  0.6922
  552SOL    HW2 1656   2.976   2.385   2.737 -0.3715 -0.3218 -1.4579
  553SOL     OW 1657   0.282   0.149   0.922 -0.1034 -0.2163  0.1517
  553SOL    HW1 1658   0.300   0.128   0.825 -1.5212 -0.4778 -0.4348
  553SOL    HW2 1659   0.189   0.117   0.945  3.9517  0.3608  1.9594
  554SOL     OW 1660   2.381   2.391   2.017  0.7472  0.1066 -0.3821
  554SOL    HW1 1661   2.327   2.326   1.961 -1.5933 -0.2496 -1.3862
  554SOL    HW2 1662   2.365   2.368   2.119 -0.0899 -2.6788 -1.7784
  555SOL     OW 1663   1.522   2.246   2.153  0.2011 -0.0092  0.0256
  555SOL    HW1 1664   1.437   2.293   2.123  2.4763 -0.3506 -1.3203
  555SOL    HW2 1665   1.593   2.252   2.084 -3.7092 -0.0672 -4.2251
  556SOL     OW 1666   1.272   1.471   1.361 -0.0382  0.0845 -0.0780
  556SOL    HW1 1667   1.236   1.435   1.274  0.5167  0.0836  3.2251
  556SOL    HW2 1668   1.374   1.446   1.369  3.0196  2.9840 -1.2468
  557SOL     OW 1669   1.769   2.426   2.527 -0.8902  0.5775  0.1968
  557SOL    HW1 1670   1.855   2.435   2.582 -0.8389 -1.1613 -0.0487
  557SOL    HW2 1671   1.728   2.513   2.490  0.8249 -2.2531 -2.5626
  558SOL     OW 1672   0.254   2.742   2.052  0.0312 -0.4797 -0.0634
  558SOL    HW1 1673   0.278   2.687   1.972 -0.5413  1.3158 -0.0742
  558SOL    HW2 1674   0.342   2.777   2.093  0.0924  1.1063 -0.3089
  559SOL     OW 1675   2.491   2.873   0.799  0.9806  0.1318  0.2611
  559SOL    HW1 1676   2.422   2.800   0.823 -0.0157  0.0908  2.2177
  559SOL    HW2 1677   2.479   2.911   0.709 -0.2721  1.9404  0.4338
  560SOL     OW 1678   1.775   2.470   0.663 -0.5331  0.3868  0.2476
  560SOL    HW1 1679   1.704   2.469   0.736 -0.2406  0.5960 -1.0678
  560SOL    HW2 1680   1.820   2.378   0.658  3.4103 -2.5002  0.6359
  561SOL     OW 1681   0.952   0.254   0.681 -0.1825 -0.3527 -0.1968
  561SOL    HW1 1682   1.004   0.217   0.601 -1.8512 -1.1770  0.7470
  561SOL    HW2 1683   1.010   0.293   0.760 -1.4042  0.2498  1.2620
  562SOL     OW 1684   0.692   0.891   2.376 -0.2891 -0.5507 -0.1331
  562SOL    HW1 1685   0.667   0.810   2.432 -0.3094 -2.1813 -0.4836
  562SOL    HW2 1686   0.615   0.901   2.309  1.0487  0.7410 -2.4282
  563SOL     OW 1687   1.704   1.670   2.679 -0.5962  0.2186 -0.0868
  563SOL    HW1 1688   1.620   1.723   2.697 -0.6080 -1.7310  0.9192
  563SOL    HW2 1689   1.784   1.721   2.722  0.5699  0.5585  1.5062
  564SOL     OW 1690   2.512   0.700   1.219  0.3171  0.2267  0.0556
  564SOL    HW1 1691   2.499   0.780   1.161  0.2384 -0.1736  3.2236
  564SOL    HW2 1692   2.515   0.734   1.316 -2.0692  1.1614  1.3586
  565SOL     OW 1693   1.120   0.502   2.937  0.4144  0.4031 -0.3898
  565SOL    HW1 1694   1.194   0.565   2.904  1.4288  1.1593 -0.3699
  565SOL    HW2 1695   1.035   0.561   2.951  0.2923  1.4747  0.4963
  566SOL     OW 1696   2.084   0.423   2.660  0.2637  0.4941  0.2466
  566SOL    HW1 1697   2.108   0.479   2.576 -0.6368  0.8509  0.8173
  566SOL    HW2 1698   2.134   0.451   2.741 -0.1282  0.7621  0.8862
  567SOL     OW 1699   2.176   1.573   0.332  0.1532 -0.1877 -0.1947
  567SOL    HW1 1700   2.267   1.607   0.356 -2.1845 -1.3851  0.5247
  567SOL    HW2 1701   2.142   1.601   0.241 -1.2675  1.1221  0.8824
  568SOL     OW 1702   1.656   1.699   3.032  0.1318  0.1288 -0.0760
  568SOL    HW1 1703   1.580   1.630   3.012  1.9262 -0.0138  0.7930
  568SOL    HW2 1704   1.619   1.792   3.047 -0.2311  2.4055 -0.8484
  569SOL     OW 1705   1.923   1.037   3.035 -0.2587  0.3237 -0.0201
  569SOL    HW1 1706   1.859   1.113   3.004 -0.8558 -0.8734 -0.9842
  569SOL    HW2 1707   2.009   1.040   2.983 -3.3449  0.4606  1.9523
  570SOL     OW 1708   0.506   2.389   2.086 -0.0024 -0.3893 -0.1533
  570SOL    HW1 1709   0.571   2.465   2.072  0.4155  0.5679 -0.5267
  570SOL    HW2 1710   0.477   2.350   1.999  1.8517  2.8111 -1.5919
  571SOL     OW 1711   0.455   1.123   1.928 -0.0305  0.8884 -0.3017
  571SOL    HW1 1712   0.374   1.151   1.879  2.3032  1.0264  1.4878
  571SOL    HW2 1713   0.447   1.144   2.028  1.1980 -0.3060 -0.8816
  572SOL     OW 1714   0.940   1.727   0.606 -0.3892 -0.0280  0.4001
  572SOL    HW1 1715   0.915   1.718   0.705  2.6968 -2.3239 -1.6371
  572SOL    HW2 1716   1.013   1.795   0.583  2.8556  3.0781 -1.6143
  573SOL     OW 1717   1.562   1.957   3.068 -0.0791  0.4092  0.0908
  573SOL    HW1 1718   1.472   1.956   0.010 -0.1121 -0.3586  0.3730
  573SOL    HW2 1719   1.631   1.970   0.044 -0.3040 -2.5140 -2.6532
  574SOL     OW 1720   1.023   0.136   1.153 -0.1761  0.5882 -0.9798
  574SOL    HW1 1721   0.997   0.111   1.055 -0.1789 -0.9246 -0.7110
  574SOL    HW2 1722   0.945   0.154   1.217  2.2777 -1.4211  0.8633
  575SOL     OW 1723   0.238   0.923   1.358  0.1094  0.2544 -0.3366
  575SOL    HW1 1724   0.304   0.982   1.409  0.0602 -1.1151 -0.6439
  575SOL    HW2 1725   0.252   0.823   1.376  2.0049  1.2271 -2.3136
  576SOL     OW 1726   2.508   2.877   1.079  0.3501 -0.2914 -0.2393
  576SOL    HW1 1727   2.416   2.911   1.105 -1.0817  2.0023 -0.6226
  576SOL    HW2 1728   2.511   2.859   0.976 -0.4849 -1.8493 -4.4748
  577SOL     OW 1729   1.067   1.153   2.116  0.5928 -0.2257  0.0090
  577SOL    HW1 1730   1.119   1.141   2.032 -1.0924 -0.5445  0.8120
  577SOL    HW2 1731   0.965   1.142   2.097 -1.2108 -1.0982 -0.5197
  578SOL     OW 1732   1.959   0.973   2.465  0.7560  0.1011  0.0073
  578SOL    HW1 1733   1.878   0.998   2.410  0.0846  0.9243  1.3529
  578SOL    HW2 1734   1.961   1.044   2.538  0.7127  0.7292  0.9578
  579SOL     OW 1735   2.208   2.224   1.893 -0.4915  0.2428  0.0984
  579SOL    HW1 1736   2.181   2.196   1.990  1.8089 -0.2620  0.8429
  579SOL    HW2 1737   2.231   2.141   1.839 -0.2332 -0.7901 -1.5482
  580SOL     OW 1738   1.629   1.687   2.371  0.2746  0.2953 -0.3055
  580SOL    HW1 1739   1.629   1.675   2.474  0.7385 -0.8219  2.2823
  580SOL    HW2 1740   1.560   1.757   2.338  0.5362  1.3375 -0.8423
  581SOL     OW 1741   1.329   1.382   2.460 -0.5897 -0.2791  0.4149
  581SOL    HW1 1742   1.332   1.286   2.483 -0.2393  2.5826 -0.5115
  581SOL    HW2 1743   1.382   1.439   2.527  1.8411  1.1758  0.3262
  582SOL     OW 1744   1.071   1.440   1.814  0.3678  0.3923  0.3228
  582SOL    HW1 1745   0.981   1.450   1.768  0.2320 -1.9806 -1.6529
  582SOL    HW2 1746   1.144   1.471   1.751 -0.7357  1.0820  0.8969
  583SOL     OW 1747   1.507   0.962   1.645  0.0339 -0.1467 -0.2696
  583SOL    HW1 1748   1.421   0.960   1.589  1.1333 -0.5056  1.3084
  583SOL    HW2 1749   1.552   1.058   1.639  1.3079  1.5093  0.1036
  584SOL     OW 1750   2.221   2.577   0.393  0.0579  0.1263 -0.2622
  584SOL    HW1 1751   2.123   2.584   0.430  0.0373 -0.5527 -0.1823
  584SOL    HW2 1752   2.234   2.655   0.330  1.2780  2.3820 -3.3244
  585SOL     OW 1753   1.739   2.958   2.704 -0.1502  0.0978  0.1627
  585SOL    HW1 1754   1.656   2.894   2.709 -3.0941  0.1941  2.2223
  585SOL    HW2 1755   1.778   2.981   2.795  0.7136  1.5166  0.4354
  586SOL     OW 1756   2.662   2.118   1.012 -0.2000 -0.2082 -0.4203
  586SOL    HW1 1757   2.726   2.074   0.948 -1.4506 -0.9339  0.8257
  586SOL    HW2 1758   2.630   2.066   1.091  0.3048  0.4474 -1.3275
  587SOL     OW 1759   1.315   1.834   0.028  0.0086  0.1898 -0.2560
  587SOL    HW1 1760   1.292   1.735   0.013  1.8583 -1.5636 -1.0424
  587SOL    HW2 1761   1.296   1.881   3.042  0.2320  0.4518 -0.0310
  588SOL     OW 1762   0.376   0.314   1.130 -0.0050 -0.3064 -0.1174
  588SOL    HW1 1763   0.468   0.326   1.089 -0.1586 -2.7065 -3.3034
  588SOL    HW2 1764   0.323   0.242   1.079  0.8683 -1.9661  1.2012
  589SOL     OW 1765   1.095   0.187   0.458  0.4251  0.0376 -0.1605
  589SOL    HW1 1766   1.074   0.251   0.382  3.3757 -0.0951  0.3956
  589SOL    HW2 1767   1.150   0.108   0.431  0.7677 -2.4033 -1.1333
  590SOL     OW 1768   1.245   0.729   2.819  0.1286  0.5540  0.1301
  590SOL    HW1 1769   1.203   0.738   2.727 -3.4092 -1.1748  3.1803
  590SOL    HW2 1770   1.194   0.788   2.884 -1.2393  1.4488 -1.1338
  591SOL     OW 1771   2.807   2.175   2.117 -0.6326  0.2911  0.4826
  591SOL    HW1 1772   2.885   2.243   2.131  1.0410 -0.3489 -1.6741
  591SOL    HW2 1773   2.830   2.113   2.038 -2.0496 -2.0331  3.5605
  592SOL     OW 1774   2.448   1.381   1.916  0.0090  0.3463  0.1109
  592SOL    HW1 1775   2.380   1.333   1.852 -0.1160  1.4373 -0.0576
  592SOL    HW2 1776   2.494   1.465   1.878 -2.1622  1.4242 -0.8423
  593SOL     OW 1777   1.290   0.917   1.520  0.6223  0.1046  0.4845
  593SOL    HW1 1778   1.315   0.923   1.420  0.5170  1.3083 -0.4626
  593SOL    HW2 1779   1.260   0.823   1.551 -0.2960 -1.6865  0.4919
  594SOL     OW 1780   2.412   1.528   2.789 -0.1042 -0.0850  0.1010
  594SOL    HW1 1781   2.442   1.625   2.811 -1.5068  3.5043 -0.5961
  594SOL    HW2 1782   2.485   1.465   2.758 -1.4020  1.3268  0.0919
  595SOL     OW 1783   0.022   0.235   0.553  0.3495 -0.6705 -0.4651
  595SOL    HW1 1784   0.085   0.284   0.618  1.5785  0.0570  2.1367
  595SOL    HW2 1785   3.027   0.266   0.565  0.0196 -1.7758  0.7581
  596SOL     OW 1786   2.977   1.319   1.009 -0.3295 -0.9500 -0.0816
  596SOL    HW1 1787   3.030   1.267   1.075  1.5700  1.8929  1.5936
  596SOL    HW2 1788   3.037   1.375   0.945 -0.6150 -0.3442 -2.2588
  597SOL     OW 1789   1.262   1.677   0.743  0.1178  0.7750 -0.2679
  597SOL    HW1 1790   1.312   1.733   0.814 -1.6500  0.0761 -0.0255
  597SOL    HW2 1791   1.230   1.721   0.658 -1.6691  0.6419  2.3225
  598SOL     OW 1792   0.358   2.624   1.775 -0.1071 -0.0056 -0.0913
  598SOL    HW1 1793   0.273   2.565   1.762 -1.7888  1.4973 -4.2233
  598SOL    HW2 1794   0.342   2.706   1.711 -0.2966  1.4083 -1.8637
  599SOL     OW 1795   0.008   1.522   2.704 -0.5901 -0.6875 -0.3146
  599SOL    HW1 1796   3.013   1.498   2.684  3.3905  2.8368  0.7933
  599SOL    HW2 1797   0.017   1.612   2.752  1.8696  0.8674 -0.4086
  600SOL     OW 1798   0.259   1.014   3.047 -0.5184  0.3644  0.3797
  600SOL    HW1 1799   0.204   0.950   0.006  0.9033  2.0753  0.0306
  600SOL    HW2 1800   0.215   1.024   2.961  0.0344  0.5518 -1.2213
  601SOL     OW 1801   0.631   0.742   1.249 -0.3490  0.9807 -0.1519
  601SOL    HW1 1802   0.571   0.821   1.244 -0.0259 -2.0551  2.5811
  601SOL    HW2 1803   0.578   0.655   1.274 -3.3173 -1.4382  0.7087
  602SOL     OW 1804   1.214   2.758   0.485  0.3118 -0.0845 -0.2762
  602SOL    HW1 1805   1.279   2.775   0.411  1.6020  2.1785  0.5348
  602SOL    HW2 1806   1.120   2.790   0.458 -0.1715 -3.0743 -2.3591
  603SOL     OW 1807   1.646   2.203   2.401  0.1090 -0.1432 -0.1608
  603SOL    HW1 1808   1.673   2.280   2.468  1.4957  1.5897  0.5298
  603SOL    HW2 1809   1.606   2.233   2.311  1.3376 -1.5700  0.0819
  604SOL     OW 1810   0.348   0.399   2.680  0.2407 -0.3386 -0.9074
  604SOL    HW1 1811   0.258   0.406   2.732 -0.7547 -0.3271  1.1925
  604SOL    HW2 1812   0.370   0.300   2.661  2.0507 -0.8797  1.4712
  605SOL     OW 1813   2.728   1.063   1.742 -0.1666 -0.3711  0.1866
  605SOL    HW1 1814   2.719   1.110   1.832 -0.7098  0.1304  0.2798
  605SOL    HW2 1815   2.737   1.126   1.658  1.2121  0.2396 -2.4746
  606SOL     OW 1816   0.654   1.696   2.685  0.0470  0.0074  0.0362
  606SOL    HW1 1817   0.618   1.755   2.609 -1.4792 -0.4243 -1.5913
  606SOL    HW2 1818   0.751   1.669   2.667 -1.5957  0.3881 -3.3568
  607SOL     OW 1819   0.742   0.209   0.523 -0.2253  0.1883 -0.2408
  607SOL    HW1 1820   0.721   0.309   0.494  1.2784  1.4972  0.4073
  607SOL    HW2 1821   0.831   0.202   0.573  1.1441 -0.8299  1.3903
  608SOL     OW 1822   2.703   1.679   1.520  0.0493 -0.3457  1.1550
  608SOL    HW1 1823   2.638   1.679   1.599  0.6941  2.6624 -0.7048
  608SOL    HW2 1824   2.731   1.585   1.496 -2.3851  2.0139 -1.2963
  609SOL     OW 1825   2.804   0.389   0.881  0.1016  0.6162 -0.4117
  609SOL    HW1 1826   2.764   0.296   0.888 -1.7297 -0.7076 -2.7139
  609SOL    HW2 1827   2.731   0.455   0.893 -1.5272 -1.0665 -1.4478
  610SOL     OW 1828   0.256   2.592   1.370 -0.5270 -0.1111  0.2493
  610SOL    HW1 1829   0.240   2.505   1.419 -0.0269  0.3180 -0.6167
  610SOL    HW2 1830   0.254   2.587   1.268  0.0978 -0.5908 -0.0667
  611SOL     OW 1831   1.481   1.581   0.211 -0.0074  0.3832 -0.1562
  611SOL    HW1 1832   1.563   1.544   0.162  2.9929  1.2292 -2.3099
  611SOL    HW2 1833   1.486   1.680   0.230  1.4864  1.2987 -2.8076
  612SOL     OW 1834   0.930   2.935   2.040  0.7170  0.0659 -0.8364
  612SOL    HW1 1835   0.959   2.940   2.139 -1.6686 -0.1917  1.3256
  612SOL    HW2 1836   0.838   2.974   2.034  2.2967 -2.1466 -0.5171
  613SOL     OW 1837   0.457   2.702   0.922 -0.0725  0.3864  0.5314
  613SOL    HW1 1838   0.438   2.643   0.841 -0.4040 -1.8443 -2.2117
  613SOL    HW2 1839   0.543   2.667   0.973 -2.1260 -2.0353  3.0758
  614SOL     OW 1840   2.210   3.099   2.203 -0.5009 -0.1187 -0.3407
  614SOL    HW1 1841   2.156   0.086   2.201 -1.5979 -0.3442 -0.2521
  614SOL    HW2 1842   2.225   3.063   2.109  0.7176 -0.7470 -1.3757
  615SOL     OW 1843   1.518   1.428   0.437  0.0845 -0.3830  0.3274
  615SOL    HW1 1844   1.496   1.496   0.366  1.2991  1.8968 -1.5232
  615SOL    HW2 1845   1.507   1.467   0.532 -1.0407  0.9931  1.0201
  616SOL     OW 1846   1.767   1.598   0.413  0.7921 -0.2603 -0.0106
  616SOL    HW1 1847   1.747   1.578   0.316  2.4225  0.6949  2.5748
  616SOL    HW2 1848   1.804   1.516   0.462  1.0208 -3.5087  0.5397
  617SOL     OW 1849   1.302   1.106   2.513 -0.3929 -0.4066 -0.2427
  617SOL    HW1 1850   1.229   1.055   2.466 -0.0083 -1.1875 -2.5939
  617SOL    HW2 1851   1.383   1.048   2.517 -3.7007  2.7582 -1.3904
  618SOL     OW 1852   0.655   3.044   2.009  0.0442  0.1262  0.0368
  618SOL    HW1 1853   0.565   3.026   1.965  2.5610 -1.9671 -0.6578
  618SOL    HW2 1854   0.647   3.083   2.103  2.3674 -0.1112  0.9763
  619SOL     OW 1855   2.831   1.448   1.434  0.3267  0.5284  0.1695
  619SOL    HW1 1856   2.929   1.466   1.454  0.2520 -0.0812 -1.3292
  619SOL    HW2 1857   2.815   1.458   1.333 -0.0369 -0.7142  0.3062
  620SOL     OW 1858   2.341   0.235   2.740 -0.1809  0.2822 -0.0350
  620SOL    HW1 1859   2.308   0.277   2.649  0.5524  2.7812 -1.9095
  620SOL    HW2 1860   2.285   0.150   2.753 -0.3164 -0.0863  0.1808
  621SOL     OW 1861   2.086   2.067   2.609  0.2927 -0.4578  0.2697
  621SOL    HW1 1862   2.168   2.014   2.645  1.2367  0.4767  1.9941
  621SOL    HW2 1863   1.998   2.041   2.659 -2.9656 -0.4702 -0.0845
  622SOL     OW 1864   0.925   0.897   2.503  0.4105  0.1743 -0.0976
  622SOL    HW1 1865   0.840   0.900   2.445  0.4508  2.1940 -0.2402
  622SOL    HW2 1866   1.000   0.948   2.461 -0.3553 -0.3057 -1.6888
  623SOL     OW 1867   0.792   1.096   2.097 -0.0939  0.0897 -0.2327
  623SOL    HW1 1868   0.766   1.105   2.195  1.3023  0.3256 -3.6335
  623SOL    HW2 1869   0.753   1.012   2.052 -0.7381  1.1605 -0.2155
  624SOL     OW 1870   2.787   0.451   0.358  0.2848 -0.0516  0.5042
  624SOL    HW1 1871   2.874   0.452   0.309 -0.9887 -2.0970 -1.0754
  624SOL    HW2 1872   2.735   0.539   0.344 -1.0494 -1.8431 -2.9468
  625SOL     OW 1873   0.965   2.437   0.865 -0.3099 -0.6092  0.2241
  625SOL    HW1 1874   0.925   2.530   0.876  0.1646  1.1435  0.0805
  625SOL    HW2 1875   0.973   2.374   0.945 -2.4075  0.0021 -3.3942
  626SOL     OW 1876   2.159   0.832   2.559  0.5678 -0.5437 -0.4839
  626SOL    HW1 1877   2.135   0.804   2.651 -0.2772  2.8852  2.2495
  626SOL    HW2 1878   2.077   0.869   2.509  0.9922 -0.6263  1.2695
  627SOL     OW 1879   1.364   2.778   2.872 -0.1948  0.2466  0.1127
  627SOL    HW1 1880   1.444   2.774   2.809  2.3384 -0.0800  0.7280
  627SOL    HW2 1881   1.383   2.726   2.960 -0.0754 -0.6140  0.0553
  628SOL     OW 1882   2.629   2.896   2.172 -0.0612  0.2993  0.2390
  628SOL    HW1 1883   2.711   2.877   2.229 -3.9959  0.0671  1.0024
  628SOL    HW2 1884   2.567   2.956   2.223  1.9742  0.4113 -0.9142
  629SOL     OW 1885   1.195   3.081   2.299  0.4169 -0.3858 -0.3014
  629SOL    HW1 1886   1.223   3.044   2.395  3.3358 -1.0196  1.9087
  629SOL    HW2 1887   1.148   0.073   2.319 -1.6018  0.0539  0.2617
  630SOL     OW 1888   0.817   0.193   2.332 -0.2271 -0.3117  0.0938
  630SOL    HW1 1889   0.747   0.245   2.393 -0.6800  1.7081  0.7540
  630SOL    HW2 1890   0.911   0.222   2.349 -0.9142  0.6602 -1.3799
  631SOL     OW 1891   1.976   1.282   0.733  0.4233  0.3356 -0.2602
  631SOL    HW1 1892   1.906   1.284   0.662 -4.4653 -0.0784  0.3411
  631SOL    HW2 1893   1.928   1.280   0.823  1.8194  0.5074 -2.3126
  632SOL     OW 1894   2.522   0.275   1.636 -0.1847 -0.0951 -0.2445
  632SOL    HW1 1895   2.487   0.357   1.677  1.1051 -1.4108 -1.3217
  632SOL    HW2 1896   2.457   0.252   1.563 -0.5267  1.5346 -1.7152
  633SOL     OW 1897   1.177   1.863   0.265  0.1386 -0.4595  0.1815
  633SOL    HW1 1898   1.257   1.851   0.202  0.5781  2.7519  0.1567
  633SOL    HW2 1899   1.095   1.811   0.240 -0.9770 -1.4212  2.2386
  634SOL     OW 1900   2.819   3.015   1.751  0.1270  0.3635  0.1657
  634SOL    HW1 1901   2.754   3.027   1.669 -1.0878 -0.9671 -1.0263
  634SOL    HW2 1902   2.854   0.002   1.785  3.5811 -2.2735  0.2918
  635SOL     OW 1903   1.596   0.492   0.926 -0.2199 -0.0004  0.2584
  635SOL    HW1 1904   1.671   0.519   0.995  4.8973  1.7838  4.7820
  635SOL    HW2 1905   1.636   0.434   0.856  0.2144 -0.3952 -1.5260
  636SOL     OW 1906   0.702   1.112   2.899 -0.3394 -0.2088 -0.0514
  636SOL    HW1 1907   0.659   1.028   2.943  1.7462 -0.7320  0.9438
  636SOL    HW2 1908   0.638   1.198   2.885 -2.3431  2.7661 -0.2946
  637SOL     OW 1909   2.855   2.122   2.975 -0.1880  0.8212 -0.1206
  637SOL    HW1 1910   2.868   2.091   2.880  3.0587 -1.2899  1.6253
  637SOL    HW2 1911   2.947   2.140   3.014 -1.4687  0.8396 -0.5957
  638SOL     OW 1912   1.417   2.523   2.475 -0.3980 -0.0224 -0.2549
  638SOL    HW1 1913   1.502   2.558   2.427 -0.2377  0.0754  1.8304
  638SOL    HW2 1914   1.435   2.514   2.575  0.2662 -0.5627 -3.5145
  639SOL     OW 1915   1.711   1.792   0.754  0.2156 -0.1297  1.0611
  639SOL    HW1 1916   1.617   1.799   0.802 -3.3163  0.5720 -0.7240
  639SOL    HW2 1917   1.691   1.796   0.652 -0.5686  0.0581 -0.2893
  640SOL     OW 1918   2.093   2.927   0.431 -0.1426  0.2176 -0.5590
  640SOL    HW1 1919   2.016   2.925   0.364 -1.5925 -0.7362 -0.4781
  640SOL    HW2 1920   2.151   3.014   0.430 -0.6444 -0.2536  0.3585
  641SOL     OW 1921   2.676   0.430   3.062  0.2603 -0.7804 -0.4822
  641SOL    HW1 1922   2.618   0.497   0.016 -0.4502  1.5760  0.1749
  641SOL    HW2 1923   2.630   0.338   3.075 -0.7466  0.6603  1.3093
  642SOL     OW 1924   0.390   0.574   1.194  0.4031 -0.6118 -0.1598
  642SOL    HW1 1925   0.354   0.616   1.278 -1.1049 -0.1232  1.1459
  642SOL    HW2 1926   0.367   0.477   1.191 -1.1483 -0.0194  3.3681
  643SOL     OW 1927   0.571   1.514   2.438 -0.1845  0.1170 -0.1794
  643SOL    HW1 1928   0.656   1.511   2.495 -0.8738  1.9959 -1.3261
  643SOL    HW2 1929   0.571   1.597   2.381  1.4438 -3.8292  0.7493
  644SOL     OW 1930   1.928   2.222   0.714  0.0928  0.3055  0.6307
  644SOL    HW1 1931   1.990   2.164   0.657  0.1426  3.1345 -1.3580
  644SOL    HW2 1932   1.844   2.167   0.742 -0.0998 -1.9175 -0.6942
  645SOL     OW 1933   1.979   2.362   0.958 -0.1456  0.3244 -0.3650
  645SOL    HW1 1934   1.980   2.309   0.869 -1.1455 -2.6417  0.4771
  645SOL    HW2 1935   1.920   2.311   1.027  0.3806 -0.3159  1.7465
  646SOL     OW 1936   0.855   2.254   2.880  0.1062 -0.0563  0.0107
  646SOL    HW1 1937   0.855   2.163   2.928 -0.2187 -1.0425  1.1663
  646SOL    HW2 1938   0.830   2.336   2.943 -0.8565  2.0843  1.3789
  647SOL     OW 1939   0.941   2.571   1.612 -0.6468 -0.1040 -0.0042
  647SOL    HW1 1940   1.027   2.562   1.668  1.1284 -0.6145  0.9008
  647SOL    HW2 1941   0.863   2.541   1.672 -2.6570 -0.0292 -0.4395
  648SOL     OW 1942   1.455   0.328   1.147 -0.8486  0.2977  0.2148
  648SOL    HW1 1943   1.537   0.291   1.197  0.7468 -0.1364  0.5545
  648SOL    HW2 1944   1.483   0.354   1.049  2.2240 -1.6104 -1.8358
  649SOL     OW 1945   1.378   2.204   0.054  0.1758  0.0814 -0.7696
  649SOL    HW1 1946   1.295   2.198   0.115  2.7716 -2.2483  0.0636
  649SOL    HW2 1947   1.458   2.182   0.108 -0.1695 -1.5222  3.2276
  650SOL     OW 1948   2.409   1.532   1.399 -0.4773 -0.2799 -0.2627
  650SOL    HW1 1949   2.405   1.560   1.497  0.6630 -0.4504 -1.2857
  650SOL    HW2 1950   2.338   1.594   1.354  0.3530  0.6071 -1.0903
  651SOL     OW 1951   1.676   2.687   0.096 -0.0248 -0.2684 -0.0494
  651SOL    HW1 1952   1.648   2.778   0.074 -0.3658 -0.8536  3.3766
  651SOL    HW2 1953   1.679   2.633   0.004  1.6075  0.7429 -1.3271
  652SOL     OW 1954   0.197   1.977   0.115  0.0715 -0.4708 -0.2385
  652SOL    HW1 1955   0.155   1.929   0.194 -0.3086 -0.1730 -2.4423
  652SOL    HW2 1956   0.273   2.034   0.150  2.1764  2.1147  0.3888
  653SOL     OW 1957   2.959   2.952   0.981  0.2349  0.2205 -0.1135
  653SOL    HW1 1958   3.017   2.892   0.923 -1.5355 -0.6784  1.2804
  653SOL    HW2 1959   2.874   2.975   0.928  1.2370  1.0241  1.8682
  654SOL     OW 1960   2.910   2.798   1.865 -0.0474  0.1480 -0.1830
  654SOL    HW1 1961   2.987   2.826   1.926  0.4822 -1.1699 -1.8934
  654SOL    HW2 1962   2.871   2.878   1.810 -1.9029  0.1445 -1.1106
  655SOL     OW 1963   3.063   2.149   0.921 -0.0099  0.2783  0.3822
  655SOL    HW1 1964   3.065   2.091   1.008  0.9630  0.2685  0.5149
  655SOL    HW2 1965   0.034   2.115   0.854 -2.8581 -1.7131  1.3689
  656SOL     OW 1966   3.084   2.727   2.378 -0.1560 -0.2965  0.3765
  656SOL    HW1 1967   3.018   2.788   2.327 -4.1712 -1.0942  0.1378
  656SOL    HW2 1968   3.067   2.707   2.477  1.0997 -3.0041 -0.1845
  657SOL     OW 1969   2.926   1.411   2.977  0.7150  0.0617 -0.0358
  657SOL    HW1 1970   3.005   1.351   2.952  0.6692 -0.8096  0.3134
  657SOL    HW2 1971   2.845   1.359   3.007  0.7748 -0.0866  3.2889
  658SOL     OW 1972   2.737   1.692   1.020  0.1628 -0.3746 -0.1167
  658SOL    HW1 1973   2.698   1.744   1.100 -0.3935 -1.7434  0.0636
  658SOL    HW2 1974   2.662   1.651   0.977  1.3306 -0.0193  0.4871
  659SOL     OW 1975   1.656   0.290   0.729  0.5981 -0.1078  0.0963
  659SOL    HW1 1976   1.649   0.227   0.807 -0.5513  0.7263 -0.1032
  659SOL    HW2 1977   1.573   0.274   0.663  0.4582 -3.4212 -1.6776
  660SOL     OW 1978   1.566   1.291   0.008  0.2492  0.2892  0.2174
  660SOL    HW1 1979   1.468   1.256   0.009 -1.4457 -2.0419 -0.4609
  660SOL    HW2 1980   1.570   1.392   3.086  1.5653  1.9996  0.6550
  661SOL     OW 1981   0.373   2.359   1.087  0.4066  0.1593 -0.1440
  661SOL    HW1 1982   0.465   2.384   1.052  0.9814 -0.6882  1.5247
  661SOL    HW2 1983   0.315   2.443   1.107  0.2132  1.7438  2.0261
  662SOL     OW 1984   3.037   0.633   3.015 -0.1644 -0.5180 -0.1977
  662SOL    HW1 1985   3.080   0.678   3.095 -1.7668  1.6439  0.6321
  662SOL    HW2 1986   0.007   0.610   2.944  1.1788 -0.0780 -2.0538
  663SOL     OW 1987   2.052   1.716   1.072 -0.0645 -0.6924  0.6563
  663SOL    HW1 1988   2.014   1.678   0.988  1.7814 -0.6457 -0.1882
  663SOL    HW2 1989   1.984   1.771   1.120 -1.3348 -0.9899 -1.6981
  664SOL     OW 1990   1.003   1.437   1.138 -0.2377  0.4271 -0.2043
  664SOL    HW1 1991   0.951   1.350   1.163 -0.9499  1.4055  0.5280
  664SOL    HW2 1992   1.101   1.414   1.121  2.8556 -2.0400 -0.2899
  665SOL     OW 1993   1.676   2.649   2.417  0.1931  0.2435 -0.0160
  665SOL    HW1 1994   1.606   2.722   2.437  0.9474  1.7130  0.6514
  665SOL    HW2 1995   1.741   2.689   2.349 -0.8450  1.1610  2.2277
  666SOL     OW 1996   2.928   2.938   2.750  0.2797 -0.0906  0.1661
  666SOL    HW1 1997   2.960   2.907   2.839 -0.5033  1.4432 -4.2089
  666SOL    HW2 1998   2.944   3.035   2.739 -0.9114  1.6360  0.4934
  667SOL     OW 1999   2.345   1.518   2.187 -0.2633 -0.1288 -0.1330
  667SOL    HW1 2000   2.392   1.455   2.125  1.4168 -0.8698 -0.0654
  667SOL    HW2 2001   2.369   1.613   2.162 -2.9000  0.8505 -2.9015
  668SOL     OW 2002   0.448   1.257   2.463 -0.1355  0.2317 -0.3358
  668SOL    HW1 2003   0.390   1.254   2.552 -2.7137 -0.1592  2.5900
  668SOL    HW2 2004   0.493   1.349   2.465  2.0977  2.4900  1.2236
  669SOL     OW 2005   2.035   2.347   2.620 -0.4619 -0.1545 -0.6759
  669SOL    HW1 2006   2.062   2.258   2.581  0.6854  0.9399  0.9203
  669SOL    HW2 2007   2.066   2.362   2.715 -0.8289  1.4200 -1.7565
  670SOL     OW 2008   2.244   1.069   1.967  0.3199 -0.0870  0.2108
  670SOL    HW1 2009   2.221   1.109   2.058  2.0208 -2.3853  1.6778
  670SOL    HW2 2010   2.232   1.133   1.890  0.2699  0.8345  0.4902
  671SOL     OW 2011   2.538   1.231   0.257 -0.7266 -0.3941 -0.5512
  671SOL    HW1 2012   2.580   1.314   0.210 -0.6582  1.1511 -0.5552
  671SOL    HW2 2013   2.515   1.260   0.351  2.6737  0.4332 -2.3498
  672SOL     OW 2014   2.467   1.014   2.154  0.0905  0.6078  0.3941
  672SOL    HW1 2015   2.386   0.998   2.095  2.3356  1.2416  0.8466
  672SOL    HW2 2016   2.532   1.079   2.111 -1.7229 -2.2105 -0.7024
  673SOL     OW 2017   2.770   0.613   1.555 -0.5375 -0.3885  0.5438
  673SOL    HW1 2018   2.797   0.707   1.580  2.7732  1.4536 -1.2038
  673SOL    HW2 2019   2.764   0.559   1.635 -1.4016  0.7359 -2.3221
  674SOL     OW 2020   2.040   1.875   1.459  0.0092 -0.0009  0.0542
  674SOL    HW1 2021   1.987   1.849   1.377 -2.8707 -2.1076 -1.6875
  674SOL    HW2 2022   1.978   1.912   1.534  1.5384 -0.3742 -0.8780
  675SOL     OW 2023   0.658   0.702   0.766  0.2114 -0.3470  0.2292
  675SOL    HW1 2024   0.598   0.627   0.807 -1.6348 -1.0752  1.7494
  675SOL    HW2 2025   0.729   0.658   0.711  0.7688 -0.0856  1.2720
  676SOL     OW 2026   1.620   1.200   1.061  0.1179 -0.2970  0.2211
  676SOL    HW1 2027   1.532   1.205   1.010  1.2064  0.5397 -0.0200
  676SOL    HW2 2028   1.603   1.203   1.158  0.6318 -0.2364 -1.1654
  677SOL     OW 2029   2.545   1.567   2.394 -0.4447  0.0138 -0.5742
  677SOL    HW1 2030   2.460   1.531   2.348  1.7083  0.7053 -0.8908
  677SOL    HW2 2031   2.535   1.666   2.411  2.1172 -0.8620  0.3129
  678SOL     OW 2032   2.874   1.751   0.791  0.1275 -0.4948 -0.3537
  678SOL    HW1 2033   2.849   1.682   0.722  0.4250  1.2741  0.0089
  678SOL    HW2 2034   2.818   1.737   0.875  1.6690 -0.7182  0.3941
  679SOL     OW 2035   2.515   2.491   0.350 -0.1997  0.5091 -0.3425
  679SOL    HW1 2036   2.423   2.515   0.375  2.3090  1.7722 -0.9412
  679SOL    HW2 2037   2.586   2.540   0.408  1.5432  2.2504  0.7572
  680SOL     OW 2038   2.842   2.010   1.559  0.1501 -0.0951 -0.0383
  680SOL    HW1 2039   2.892   1.922   1.544  0.0612 -1.2822  2.9817
  680SOL    HW2 2040   2.904   2.084   1.600  0.7054  1.2085  1.3937
  681SOL     OW 2041   0.634   1.217   1.345  0.1634 -0.0983  0.5914
  681SOL    HW1 2042   0.587   1.175   1.269  0.1752  0.7220 -1.8435
  681SOL    HW2 2043   0.657   1.149   1.416 -1.1365 -1.3006 -0.9615
  682SOL     OW 2044   1.578   2.460   0.878 -0.1988 -0.8775 -0.2887
  682SOL    HW1 2045   1.527   2.507   0.949  0.5064 -1.3282 -1.4998
  682SOL    HW2 2046   1.514   2.419   0.810  2.5249  2.6790  1.6082
  683SOL     OW 2047   2.471   1.326   0.515  0.2549 -0.3986  0.0976
  683SOL    HW1 2048   2.449   1.344   0.615 -1.3043  2.6950  3.7547
  683SOL    HW2 2049   2.475   1.414   0.460  0.4942 -2.9044 -4.6119
  684SOL     OW 2050   0.625   2.023   2.074  0.2331  0.0988  0.6311
  684SOL    HW1 2051   0.602   2.090   2.147  2.3235 -1.9346 -1.0859
  684SOL    HW2 2052   0.544   1.991   2.018 -1.3597 -2.9460  3.7200
  685SOL     OW 2053   1.967   1.385   0.048  0.7395 -0.2959  0.0995
  685SOL    HW1 2054   2.045   1.330   0.089  1.6012  1.6346  1.7251
  685SOL    HW2 2055   1.926   1.332   3.066 -1.4152 -1.4260 -4.6757
  686SOL     OW 2056   0.291   0.573   0.676 -0.3446  0.6332 -0.3513
  686SOL    HW1 2057   0.211   0.520   0.703  2.0776  0.3359 -0.7601
  686SOL    HW2 2058   0.357   0.576   0.760  1.4407  1.9405  2.7558
  687SOL     OW 2059   1.068   2.464   2.575  0.4533 -0.0896 -0.1497
  687SOL    HW1 2060   1.090   2.411   2.655  1.3437  0.5751  0.0934
  687SOL    HW2 2061   1.089   2.406   2.496  1.3389  0.5999 -1.9016
  688SOL     OW 2062   2.391   1.644   1.647  0.6672  0.4188  0.4930
  688SOL    HW1 2063   2.461   1.606   1.712 -1.4416  0.4059  1.1862
  688SOL    HW2 2064   2.423   1.734   1.611  2.3205 -1.8614  0.9771
  689SOL     OW 2065   2.462   0.621   2.052 -0.7449  0.2176  0.0912
  689SOL    HW1 2066   2.556   0.649   2.024  1.4532 -2.3775 -0.2991
  689SOL    HW2 2067   2.380   0.677   2.025  0.6106  0.3747 -1.4938
  690SOL     OW 2068   2.066   0.908   1.575  0.2172 -0.3193 -0.3950
  690SOL    HW1 2069   1.999   0.909   1.496  1.1285  1.4426 -0.3298
  690SOL    HW2 2070   2.127   0.997   1.574 -0.6012 -0.7950 -0.4958
  691SOL     OW 2071   1.189   1.952   1.573  0.2627  0.2012 -0.1643
  691SOL    HW1 2072   1.133   1.911   1.650  1.6927 -2.2746  3.4126
  691SOL    HW2 2073   1.134   2.014   1.510 -0.3775  0.6174 -1.5912
  692SOL     OW 2074   1.845   0.089   1.361  0.2004  0.1568 -0.0739
  692SOL    HW1 2075   1.879   0.116   1.453 -0.4668 -0.3661 -0.7154
  692SOL    HW2 2076   1.818   3.091   1.361 -0.3938  1.1537 -0.4799
  693SOL     OW 2077   0.682   1.153   2.359  0.2391 -0.1871 -0.4544
  693SOL    HW1 2078   0.668   1.056   2.356 -2.2374  1.1960 -0.3702
  693SOL    HW2 2079   0.598   1.193   2.404 -2.5606  0.6462  0.9776
  694SOL     OW 2080   1.770   2.607   1.506  0.3341 -0.2400  0.4486
  694SOL    HW1 2081   1.717   2.572   1.424  1.9487  0.0944 -0.6722
  694SOL    HW2 2082   1.855   2.656   1.474  0.7838 -0.7079  0.1852
  695SOL     OW 2083   1.420   1.312   1.965 -0.0562 -0.2711  0.0100
  695SOL    HW1 2084   1.427   1.306   1.863 -0.8818 -1.0174 -1.6432
  695SOL    HW2 2085   1.459   1.395   2.007 -0.1841 -3.1867 -0.3362
  696SOL     OW 2086   1.802   0.262   1.164  0.8530  0.3261 -0.2662
  696SOL    HW1 2087   1.857   0.280   1.082 -0.1039  0.3845 -0.5822
  696SOL    HW2 2088   1.848   0.195   1.226  1.7825 -0.0129 -1.3202
  697SOL     OW 2089   1.278   0.131   1.075  0.1770 -0.3649  0.4309
  697SOL    HW1 2090   1.189   0.136   1.128 -2.2738  1.7276  2.2645
  697SOL    HW2 2091   1.347   0.198   1.115  0.9765  1.1278 -0.9572
  698SOL     OW 2092   1.686   1.150   1.984  0.1123 -0.0393 -0.2005
  698SOL    HW1 2093   1.731   1.216   1.925 -2.0770 -0.8036  2.2315
  698SOL    HW2 2094   1.609   1.191   2.028  2.8314 -2.8971 -2.3257
  699SOL     OW 2095   1.520   1.102   1.303  0.0810  0.2868  0.4701
  699SOL    HW1 2096   1.455   1.022   1.310  0.7808 -0.2743 -1.1440
  699SOL    HW2 2097   1.604   1.079   1.358 -1.7870 -1.1866  0.9792
  700SOL     OW 2098   1.530   0.138   0.317 -0.3124  0.3390 -0.1750
  700SOL    HW1 2099   1.586   0.208   0.275 -2.4627 -3.2114 -2.0669
  700SOL    HW2 2100   1.461   0.106   0.249  0.3494 -1.9957 -0.3320
  701SOL     OW 2101   0.407   0.001   1.851 -0.5044  0.0478 -0.0797
  701SOL    HW1 2102   0.454   0.053   1.776 -0.3688  2.0378 -0.5996
  701SOL    HW2 2103   0.356   3.021   1.822  0.2108  0.6908 -0.9288
  702SOL     OW 2104   1.388   2.796   0.272 -0.0174  0.7106 -0.0227
  702SOL    HW1 2105   1.429   2.887   0.288  0.4648 -2.9278 -0.0286
  702SOL    HW2 2106   1.452   2.721   0.299 -1.7731  0.8702  0.8200
  703SOL     OW 2107   2.615   0.115   1.997 -0.0164  0.9969 -0.4297
  703SOL    HW1 2108   2.552   0.197   1.998 -1.7945  2.3683 -1.2609
  703SOL    HW2 2109   2.582   0.037   1.941 -0.1469  0.6072 -1.0734
  704SOL     OW 2110   1.149   2.260   1.044  0.0155  0.3078 -0.0050
  704SOL    HW1 2111   1.216   2.245   1.120  0.0908  1.8400 -2.2942
  704SOL    HW2 2112   1.051   2.260   1.081 -0.4876  1.1625  0.0147
  705SOL     OW 2113   0.147   1.041   2.205  0.5152 -0.0191  0.1012
  705SOL    HW1 2114   0.174   0.974   2.273  2.6323  0.7316  0.1493
  705SOL    HW2 2115   0.066   1.099   2.231 -0.4890 -0.6285  0.3714
  706SOL     OW 2116   1.466   0.261   0.550  0.6943 -0.3505 -0.4920
  706SOL    HW1 2117   1.386   0.325   0.549 -0.7743  1.0438 -0.1970
  706SOL    HW2 2118   1.479   0.220   0.455 -0.3707 -0.0262 -2.3360
  707SOL     OW 2119   1.192   2.070   2.494  0.0973  0.2383  0.3902
  707SOL    HW1 2120   1.113   2.021   2.537  4.0600  0.9191 -0.3330
  707SOL    HW2 2121   1.239   2.008   2.428 -0.8251 -0.2267  0.1091
  708SOL     OW 2122   2.916   2.170   1.304 -0.4053 -0.3054 -0.4371
  708SOL    HW1 2123   2.861   2.208   1.228  2.0317  1.0396  1.2587
  708SOL    HW2 2124   2.860   2.148   1.389 -2.3555  1.3733 -1.2480
  709SOL     OW 2125   2.001   0.307   1.837  0.1739 -0.0016  0.0531
  709SOL    HW1 2126   2.082   0.299   1.897  0.8185 -0.9095  0.3412
  709SOL    HW2 2127   1.946   0.387   1.874  1.5217 -0.1338 -3.1706
  710SOL     OW 2128   2.985   3.079   1.368  0.2165 -0.1319 -0.3650
  710SOL    HW1 2129   2.920   0.040   1.319 -1.2547  0.3377  2.3661
  710SOL    HW2 2130   2.938   3.002   1.417 -0.1395  0.2055  0.3816
  711SOL     OW 2131   0.391   2.502   0.751  0.4050 -0.4940 -0.0913
  711SOL    HW1 2132   0.479   2.456   0.758 -0.7185  3.3998  1.8641
  711SOL    HW2 2133   0.318   2.434   0.784 -0.1068 -1.8264  3.4349
  712SOL     OW 2134   0.115   2.003   2.494  0.1904  0.0475 -0.8100
  712SOL    HW1 2135   0.184   2.073   2.467  1.4062 -0.2396 -1.9522
  712SOL    HW2 2136   0.154   1.927   2.550 -1.4152  0.1668  0.6152
  713SOL     OW 2137   1.719   0.702   0.248 -0.6104 -0.6728  0.4006
  713SOL    HW1 2138   1.654   0.628   0.232  1.6525  0.1359  0.6254
  713SOL    HW2 2139   1.759   0.727   0.157 -0.6886  0.7963 -1.3285
  714SOL     OW 2140   1.488   1.853   0.248 -0.0436  0.0925  0.4078
  714SOL    HW1 2141   1.579   1.890   0.230  2.5208 -0.1576  1.2457
  714SOL    HW2 2142   1.425   1.848   0.165 -3.4109 -1.7630 -2.7252
  715SOL     OW 2143   2.251   0.069   0.459 -0.6507 -0.1462 -0.0214
  715SOL    HW1 2144   2.322   0.132   0.424 -1.3244 -0.7290 -2.0970
  715SOL    HW2 2145   2.270   0.033   0.551  1.3025  1.7133 -1.6769
  716SOL     OW 2146   0.541   0.579   2.230 -0.2167 -0.5914  0.5668
  716SOL    HW1 2147   0.535   0.620   2.321  1.2637 -0.6857 -1.2848
  716SOL    HW2 2148   0.476   0.620   2.162  1.3062 -0.0788  2.7133
  717SOL     OW 2149   0.128   0.428   2.840 -0.2033  0.2938 -0.4948
  717SOL    HW1 2150   0.111   0.352   2.903 -0.2377  0.3557  0.6011
  717SOL    HW2 2151   0.056   0.442   2.770  0.9600  1.4050 -0.2831
  718SOL     OW 2152   1.053   0.822   0.214 -0.6895  0.7554  0.6462
  718SOL    HW1 2153   1.146   0.778   0.182  2.5270 -0.4229  0.0760
  718SOL    HW2 2154   1.060   0.847   0.312  0.9351  0.6094 -1.2513
  719SOL     OW 2155   2.554   2.093   2.954 -0.1502 -0.6068 -0.6356
  719SOL    HW1 2156   2.524   2.000   2.932  0.6231  0.6684 -0.0573
  719SOL    HW2 2157   2.649   2.109   2.976 -1.6842 -2.2426  0.7968
  720SOL     OW 2158   1.369   0.895   1.253  0.6239  0.1607  0.4353
  720SOL    HW1 2159   1.328   0.963   1.190  0.6985  0.5311 -0.7964
  720SOL    HW2 2160   1.442   0.835   1.213  2.5791  0.4262 -2.1421
  721SOL     OW 2161   2.935   0.722   0.655  0.3484  0.2883  0.2948
  721SOL    HW1 2162   2.842   0.744   0.612  1.0467  0.9256  0.8626
  721SOL    HW2 2163   2.977   0.815   0.660 -0.8704 -0.2095  1.6988
  722SOL     OW 2164   0.948   1.995   2.646  0.1752  0.0884  0.3235
  722SOL    HW1 2165   0.955   1.981   2.748 -0.4995  2.3640  1.3160
  722SOL    HW2 2166   0.900   2.082   2.622 -1.2476 -0.3611 -1.3123
  723SOL     OW 2167   0.547   0.888   0.507  0.0673 -0.5785 -0.1594
  723SOL    HW1 2168   0.527   0.943   0.595 -1.3335 -0.4057  1.6720
  723SOL    HW2 2169   0.553   0.951   0.430 -0.9674 -0.8882  3.1632
  724SOL     OW 2170   0.988   1.844   1.743 -0.5121 -0.3650 -0.3842
  724SOL    HW1 2171   0.962   1.802   1.651 -1.5705 -1.0653 -2.6754
  724SOL    HW2 2172   0.905   1.854   1.798  2.7973 -1.8616 -2.1903
  725SOL     OW 2173   0.027   1.083   1.391 -0.2432 -0.0417 -0.1921
  725SOL    HW1 2174   0.104   1.014   1.367  0.2836 -1.6718  0.9651
  725SOL    HW2 2175   0.066   1.147   1.464  1.2291  2.0875 -1.2810
  726SOL     OW 2176   1.794   0.382   0.481  0.1705  0.2722 -0.0941
  726SOL    HW1 2177   1.741   0.378   0.567  0.1116 -2.7060  0.9164
  726SOL    HW2 2178   1.881   0.433   0.494 -0.2403  0.9989  2.6403
  727SOL     OW 2179   1.474   0.954   2.292 -0.4599 -0.1534  0.0774
  727SOL    HW1 2180   1.463   1.045   2.246  1.0235  2.4649 -0.5663
  727SOL    HW2 2181   1.467   0.882   2.221  0.2007 -1.2638 -1.2141
  728SOL     OW 2182   1.399   2.433   1.354  0.2506  0.2269 -0.4702
  728SOL    HW1 2183   1.408   2.364   1.427 -0.7720  2.3810 -2.0868
  728SOL    HW2 2184   1.479   2.490   1.341 -2.0356 -0.5110  0.8616
  729SOL     OW 2185   1.315   0.432   1.518  0.2010  0.0834  0.2012
  729SOL    HW1 2186   1.276   0.475   1.431 -1.3670  0.6983  0.1126
  729SOL    HW2 2187   1.414   0.410   1.504  2.3768 -0.7801  0.6169
  730SOL     OW 2188   0.758   1.966   1.852 -0.5547 -0.3486  0.2967
  730SOL    HW1 2189   0.820   2.040   1.819  0.2047 -0.5183 -0.0037
  730SOL    HW2 2190   0.715   1.986   1.942 -0.7074 -0.5692 -3.3490
  731SOL     OW 2191   0.422   0.393   0.195  0.3577  0.3749  0.1313
  731SOL    HW1 2192   0.437   0.334   0.279 -2.0467 -0.5898  1.6894
  731SOL    HW2 2193   0.419   0.329   0.111 -0.2385 -0.2158 -1.6500
  732SOL     OW 2194   0.665   0.541   2.991  0.2090  0.3745 -0.1957
  732SOL    HW1 2195   0.607   0.456   2.967 -1.6508 -1.8090 -0.9326
  732SOL    HW2 2196   0.608   0.617   3.015 -0.4095 -2.9520 -2.5258
  733SOL     OW 2197   1.390   2.011   1.369  0.3435  0.2951  0.2770
  733SOL    HW1 2198   1.324   1.933   1.359  0.6479 -3.8338 -2.2406
  733SOL    HW2 2199   1.455   1.989   1.449  1.6912  0.7139 -0.1636
  734SOL     OW 2200   3.032   2.668   2.655  0.1722 -0.4041  0.6581
  734SOL    HW1 2201   2.979   2.582   2.671  1.8450  0.2095 -0.9270
  734SOL    HW2 2202   2.971   2.743   2.689  0.6652  2.5254  2.0580
  735SOL     OW 2203   0.874   2.686   0.819  0.0375  0.2306  0.6301
  735SOL    HW1 2204   0.946   2.758   0.821 -1.0406  0.0501 -0.9577
  735SOL    HW2 2205   0.831   2.692   0.728  1.6015  0.6753  0.6584
  736SOL     OW 2206   1.530   0.849   2.780 -0.0269 -0.1716  0.3036
  736SOL    HW1 2207   1.470   0.840   2.702 -0.8900  2.4149  1.5005
  736SOL    HW2 2208   1.483   0.915   2.838  1.1122 -0.0967 -2.9212
  737SOL     OW 2209   0.021   0.641   0.474 -0.7064 -0.1844 -0.3326
  737SOL    HW1 2210   3.089   0.570   0.404  1.5970  1.0181 -0.4274
  737SOL    HW2 2211   3.055   0.660   0.546  2.9438 -0.4799 -2.9710
  738SOL     OW 2212   2.963   2.378   1.574 -0.4450  0.5765  0.4232
  738SOL    HW1 2213   2.915   2.392   1.481  1.6575  2.1624 -0.4941
  738SOL    HW2 2214   2.996   2.470   1.607  1.6921 -0.2411  2.0598
  739SOL     OW 2215   1.732   2.941   0.628 -0.1529  0.1921 -0.1234
  739SOL    HW1 2216   1.632   2.940   0.652 -0.1707 -0.7148  1.5665
  739SOL    HW2 2217   1.771   3.032   0.618  0.6234 -0.5010  0.3203
  740SOL     OW 2218   1.517   2.950   1.224 -0.5182  0.3127  0.1903
  740SOL    HW1 2219   1.610   2.945   1.266 -1.9896  2.1132  1.2356
  740SOL    HW2 2220   1.456   2.879   1.265 -2.6553  2.9447 -0.0303
  741SOL     OW 2221   2.168   0.430   0.841  0.4388 -0.6617 -0.2147
  741SOL    HW1 2222   2.131   0.518   0.879 -0.6041  0.5174  1.0513
  741SOL    HW2 2223   2.242   0.436   0.768  1.0326 -0.2942  1.5309
  742SOL     OW 2224   1.583   2.003   2.131 -0.0942 -0.1687  0.1035
  742SOL    HW1 2225   1.551   2.092   2.170  0.3699 -1.2739  1.5128
  742SOL    HW2 2226   1.615   2.024   2.034  1.4173 -0.5197 -0.6085
  743SOL     OW 2227   2.419   0.535   1.717 -0.5616 -0.4388 -0.1259
  743SOL    HW1 2228   2.423   0.572   1.812 -0.5085  0.2671 -0.2717
  743SOL    HW2 2229   2.453   0.605   1.654  0.8179 -0.6631  0.2589
  744SOL     OW 2230   2.381   0.492   1.106 -0.6609 -0.6087  0.1403
  744SOL    HW1 2231   2.438   0.551   1.167  0.0271 -1.7959 -1.8195
  744SOL    HW2 2232   2.344   0.418   1.158 -1.3569 -2.5317 -0.7064
  745SOL     OW 2233   2.115   1.633   1.602 -0.5615  0.2380 -0.8163
  745SOL    HW1 2234   2.089   1.710   1.534 -2.0409 -0.2075 -0.2199
  745SOL    HW2 2235   2.215   1.645   1.629 -0.8546  0.7388 -0.9905
  746SOL     OW 2236   0.879   1.644   0.861  0.3003  0.2179  0.2237
  746SOL    HW1 2237   0.833   1.554   0.871 -1.9298 -2.0962 -1.4776
  746SOL    HW2 2238   0.952   1.659   0.925 -0.8780  0.6716  2.4069
  747SOL     OW 2239   1.846   1.306   0.964  0.4704  0.6714 -0.3773
  747SOL    HW1 2240   1.767   1.261   1.009  1.3014 -2.1716  2.2537
  747SOL    HW2 2241   1.918   1.314   1.034  1.1290 -0.4883 -1.2408
  748SOL     OW 2242   0.107   0.029   0.249  0.1523  0.5973 -0.1537
  748SOL    HW1 2243   0.128   0.129   0.253 -1.5316 -1.1008 -2.8109
  748SOL    HW2 2244   0.193   3.074   0.220  1.0222 -1.9813 -0.5062
  749SOL     OW 2245   0.262   0.330   2.423  0.0326  0.0617  0.0773
  749SOL    HW1 2246   0.264   0.375   2.515  2.0123 -0.1076  0.2489
  749SOL    HW2 2247   0.220   0.388   2.351 -0.0611 -0.7308 -0.3265
  750SOL     OW 2248   1.819   3.006   1.702 -0.6516 -0.1893  0.3971
  750SOL    HW1 2249   1.858   0.000   1.677 -4.9722  0.2124 -0.2827
  750SOL    HW2 2250   1.723   2.988   1.666 -3.0581 -1.9665 -0.7155
  751SOL     OW 2251   2.856   0.329   0.594  0.5494  0.2500  0.6109
  751SOL    HW1 2252   2.844   0.379   0.511  4.7311  0.7275  1.4976
  751SOL    HW2 2253   2.838   0.385   0.677 -1.0012 -0.0344  0.5514
  752SOL     OW 2254   0.351   2.922   1.042 -0.0906  0.3873 -0.7118
  752SOL    HW1 2255   0.390   2.831   1.017  1.0092 -0.7260  1.9493
  752SOL    HW2 2256   0.270   2.946   0.990  1.6105  0.5535 -1.8152
  753SOL     OW 2257   1.044   0.109   1.858 -0.2495 -0.0773 -0.7339
  753SOL    HW1 2258   1.092   0.022   1.870  0.9155 -0.4517  2.5365
  753SOL    HW2 2259   1.093   0.171   1.792  0.0346  0.3155 -3.3868
  754SOL     OW 2260   1.168   2.764   1.952 -0.0576 -0.0790 -0.6009
  754SOL    HW1 2261   1.193   2.714   2.038 -0.7625 -1.2647  3.6817
  754SOL    HW2 2262   1.095   2.829   1.975  1.2798 -4.2707 -1.4068
  755SOL     OW 2263   2.628   1.102   0.596  0.3685 -0.3496 -0.2589
  755SOL    HW1 2264   2.599   1.133   0.689 -0.6044 -0.6428  1.9793
  755SOL    HW2 2265   2.570   1.141   0.524 -0.3488  1.2474 -2.1086
  756SOL     OW 2266   1.845   1.987   2.741  0.5535 -0.0453  0.5017
  756SOL    HW1 2267   1.771   2.049   2.786 -4.3464  0.6488  2.0737
  756SOL    HW2 2268   1.856   1.904   2.795  0.8349  0.2854 -1.6744
  757SOL     OW 2269   2.041   0.013   0.783 -0.4139  0.1522 -0.1463
  757SOL    HW1 2270   2.045   3.014   0.774 -0.0058  3.7601  2.2626
  757SOL    HW2 2271   1.968   0.048   0.720 -0.1420  0.6822 -0.3724
  758SOL     OW 2272   1.303   2.723   0.742 -0.3199  0.2554 -0.0056
  758SOL    HW1 2273   1.248   2.757   0.669 -1.2602 -0.3019  2.5015
  758SOL    HW2 2274   1.338   2.630   0.707  1.5322  2.2388 -2.9759
  759SOL     OW 2275   2.572   0.292   1.240 -0.5254 -0.0319 -0.0836
  759SOL    HW1 2276   2.522   0.332   1.162 -2.0232  1.2984 -1.6901
  759SOL    HW2 2277   2.507   0.240   1.303 -0.1923 -3.3914 -0.6674
  760SOL     OW 2278   2.230   1.113   1.461  0.1853 -0.0920 -0.2524
  760SOL    HW1 2279   2.275   1.073   1.381  0.1663  2.3127  2.7342
  760SOL    HW2 2280   2.290   1.186   1.493 -2.3411 -0.0111 -1.3846
  761SOL     OW 2281   0.582   0.963   0.765  0.7900  0.1246  0.0163
  761SOL    HW1 2282   0.488   0.973   0.809 -1.9988  0.5829  0.7414
  761SOL    HW2 2283   0.611   0.867   0.770  2.6272  1.5904  4.2388
  762SOL     OW 2284   2.234   1.724   1.300  0.1665  0.4752  0.1923
  762SOL    HW1 2285   2.164   1.700   1.229 -0.1181 -2.2678 -0.8363
  762SOL    HW2 2286   2.221   1.818   1.327 -1.3676 -0.8511  0.2880
  763SOL     OW 2287   1.252   1.549   1.662 -0.0219 -0.0696 -0.1824
  763SOL    HW1 2288   1.252   1.569   1.563 -0.4725  0.1556 -1.5431
  763SOL    HW2 2289   1.308   1.617   1.715  0.9954 -0.4131 -1.0618
  764SOL     OW 2290   0.000   2.013   2.157 -0.1643  0.3805 -0.2369
  764SOL    HW1 2291   3.052   1.997   2.069 -1.5759 -3.4149  1.1353
  764SOL    HW2 2292   3.031   2.025   2.233  0.4608 -2.7112 -1.7534
  765SOL     OW 2293   1.180   2.541   1.238 -0.6308  0.0484 -0.0690
  765SOL    HW1 2294   1.089   2.505   1.276 -0.4139  0.2414 -1.0615
  765SOL    HW2 2295   1.258   2.487   1.274  0.0119 -0.7608 -1.0250
  766SOL     OW 2296   0.248   2.449   2.522  0.6800 -0.7273 -0.1979
  766SOL    HW1 2297   0.250   2.522   2.589 -0.1154 -1.8565 -1.4095
  766SOL    HW2 2298   0.241   2.493   2.429  0.9177  1.2604 -2.2880
  767SOL     OW 2299   1.397   0.809   2.525  0.2423  0.0848 -0.4769
  767SOL    HW1 2300   1.313   0.751   2.526 -1.6650  1.2761 -0.5706
  767SOL    HW2 2301   1.409   0.850   2.436 -0.7332  1.2038 -0.8971
  768SOL     OW 2302   1.346   2.380   2.958  0.5681  0.3049  0.2555
  768SOL    HW1 2303   1.355   2.470   3.009  2.4624  1.8148 -0.7311
  768SOL    HW2 2304   1.364   2.304   3.019 -2.4209 -1.3199  0.2209
  769SOL     OW 2305   0.020   2.749   1.391  0.4190  0.2407  0.0309
  769SOL    HW1 2306   3.042   2.758   1.325  0.9913 -1.6101 -0.3705
  769SOL    HW2 2307   0.097   2.687   1.367 -0.7122  0.1759  1.5524
  770SOL     OW 2308   1.026   0.305   2.801  0.0324  0.0428 -0.4192
  770SOL    HW1 2309   0.930   0.277   2.825 -3.1505  1.2745 -0.1541
  770SOL    HW2 2310   1.059   0.384   2.858  0.5773 -0.9219 -0.6692
  771SOL     OW 2311   0.381   0.079   2.383  0.3521 -0.3847 -0.0100
  771SOL    HW1 2312   0.311   0.016   2.342 -1.5032  0.1330  0.7894
  771SOL    HW2 2313   0.355   0.181   2.381  0.6905 -0.9317 -1.3529
  772SOL     OW 2314   2.483   3.018   1.838  0.1507  0.3578 -0.0487
  772SOL    HW1 2315   2.527   3.037   1.745 -0.3324 -1.0388 -0.9906
  772SOL    HW2 2316   2.510   2.926   1.870  1.0062  0.4026 -0.3693
  773SOL     OW 2317   0.893   2.209   1.779  0.2292  0.2380  0.4976
  773SOL    HW1 2318   0.951   2.270   1.841  4.1775  0.3539  1.7999
  773SOL    HW2 2319   0.795   2.235   1.776 -0.9844  0.3488  0.0228
  774SOL     OW 2320   1.147   0.536   1.995  0.2134 -0.3384  0.1464
  774SOL    HW1 2321   1.234   0.488   2.018  0.6694  1.4010 -1.4440
  774SOL    HW2 2322   1.074   0.461   1.999  1.5168 -1.2130 -0.1502
  775SOL     OW 2323   2.294   2.889   2.887  0.0878 -0.1712 -0.7117
  775SOL    HW1 2324   2.317   2.841   2.974  0.1526 -1.1026 -0.6651
  775SOL    HW2 2325   2.370   2.939   2.846 -2.5624 -0.1586  0.6811
  776SOL     OW 2326   2.009   0.540   2.163 -0.1295  0.1877  0.2312
  776SOL    HW1 2327   1.921   0.579   2.157  0.8385 -0.0964  1.7570
  776SOL    HW2 2328   2.072   0.555   2.081  1.5363  0.1824 -2.6104
  777SOL     OW 2329   2.485   1.063   2.575  0.8889  0.0511  0.0693
  777SOL    HW1 2330   2.577   1.109   2.582  1.7553  1.8048  0.9952
  777SOL    HW2 2331   2.437   1.092   2.494  1.0998 -0.9067 -0.1678
  778SOL     OW 2332   1.757   0.626   2.123  0.2973  0.0772 -0.4636
  778SOL    HW1 2333   1.744   0.709   2.072 -0.1446 -1.4166  1.5442
  778SOL    HW2 2334   1.694   0.626   2.203 -0.6309  0.6266  0.0104
  779SOL     OW 2335   0.115   0.224   3.072  0.1569  0.2109  0.5394
  779SOL    HW1 2336   0.112   0.211   0.074 -0.5891 -0.1218  0.0615
  779SOL    HW2 2337   0.021   0.208   3.032 -2.9724 -2.4526 -1.6233
  780SOL     OW 2338   2.235   0.360   2.957  0.0861 -0.3451 -0.5323
  780SOL    HW1 2339   2.270   0.302   2.880  2.4444 -1.6160  2.8095
  780SOL    HW2 2340   2.290   0.447   2.962  0.2734 -0.4552 -1.7014
  781SOL     OW 2341   0.342   2.788   1.564 -0.2277  0.5035  0.1868
  781SOL    HW1 2342   0.413   2.860   1.535  3.3148 -1.6439  0.7068
  781SOL    HW2 2343   0.280   2.748   1.493 -1.5963  2.1267 -2.5129
  782SOL     OW 2344   2.016   2.414   0.196  0.6248 -0.1515  0.7594
  782SOL    HW1 2345   2.002   2.480   0.273 -0.6095  1.4596  2.0949
  782SOL    HW2 2346   2.048   2.449   0.102  0.0691  3.0708 -4.0672
  783SOL     OW 2347   0.783   1.436   1.655 -0.0599 -0.2349 -0.7695
  783SOL    HW1 2348   0.855   1.397   1.592 -0.7883  2.8991 -2.1598
  783SOL    HW2 2349   0.730   1.358   1.696  2.4736 -0.1605  0.8706
  784SOL     OW 2350   1.476   0.787   2.077  0.1643  0.3265 -0.1264
  784SOL    HW1 2351   1.578   0.802   2.071  1.5822  0.1185 -0.4990
  784SOL    HW2 2352   1.458   0.690   2.071  2.3176  3.6246  1.8361
  785SOL     OW 2353   2.676   0.153   0.930 -0.1456 -0.3664  0.3017
  785SOL    HW1 2354   2.578   0.180   0.936  1.3585 -1.0864  0.8425
  785SOL    HW2 2355   2.694   0.058   0.899 -0.2891  0.8322  1.4672
  786SOL     OW 2356   1.364   2.772   1.356 -0.4539  0.3856  0.0230
  786SOL    HW1 2357   1.419   2.734   1.434  0.0313  4.9922  1.5519
  786SOL    HW2 2358   1.347   2.701   1.286 -1.2842  0.0493  2.4162
  787SOL     OW 2359   1.570   0.109   1.313  0.0271  0.1161  0.2948
  787SOL    HW1 2360   1.559   0.022   1.263 -2.4466 -1.3295 -0.7813
  787SOL    HW2 2361   1.671   0.129   1.328 -0.0462 -1.3702  0.2594
  788SOL     OW 2362   2.910   1.141   0.193  0.3613  0.2984 -0.3226
  788SOL    HW1 2363   2.969   1.066   0.155 -0.4408  0.4748 -1.6289
  788SOL    HW2 2364   2.921   1.162   0.291 -0.3425 -1.3362 -3.5025
  789SOL     OW 2365   0.316   1.480   1.888  0.3445  0.2491  1.1659
  789SOL    HW1 2366   0.384   1.476   1.965 -0.8575  0.8938 -1.5455
  789SOL    HW2 2367   0.344   1.549   1.820  0.0789  1.0563  0.9167
  790SOL     OW 2368   0.090   0.694   2.535 -0.4002  0.1449  0.1488
  790SOL    HW1 2369   0.166   0.701   2.598  0.5502  3.6013 -0.0876
  790SOL    HW2 2370   0.024   0.621   2.563 -1.4293 -0.7801  0.4566
  791SOL     OW 2371   2.257   0.883   0.604 -0.2173  0.6636  0.7828
  791SOL    HW1 2372   2.174   0.845   0.641  1.0877  1.5412 -0.1715
  791SOL    HW2 2373   2.241   0.983   0.587 -1.7984  2.4279  0.3831
  792SOL     OW 2374   1.122   2.962   1.348  0.0836  0.1476  0.2841
  792SOL    HW1 2375   1.113   2.917   1.257 -0.9150  1.3252  2.1447
  792SOL    HW2 2376   1.197   2.913   1.395 -1.4696 -0.4065 -2.6295
  793SOL     OW 2377   0.497   0.035   1.116  0.4870  0.6362 -0.1302
  793SOL    HW1 2378   0.435   3.053   1.111  1.6170  1.1332  0.8600
  793SOL    HW2 2379   0.479   0.106   1.048  1.3028 -0.8009  1.3514
  794SOL     OW 2380   0.264   0.781   2.296 -0.0832  0.4342  0.0240
  794SOL    HW1 2381   0.210   0.759   2.377 -0.2811  0.2037 -1.1728
  794SOL    HW2 2382   0.238   0.725   2.218  2.1680  0.6715  1.6379
  795SOL     OW 2383   0.489   2.422   2.758  0.0487 -0.1143 -0.7377
  795SOL    HW1 2384   0.486   2.330   2.717 -0.7122  0.9926 -1.5114
  795SOL    HW2 2385   0.504   2.488   2.676 -0.6490  1.7498 -2.4218
  796SOL     OW 2386   2.179   0.592   2.409 -0.3261  0.3075 -0.5327
  796SOL    HW1 2387   2.195   0.690   2.425 -1.5499  0.4877 -3.6493
  796SOL    HW2 2388   2.122   0.586   2.329 -1.3503  3.1784  1.0386
  797SOL     OW 2389   2.445   2.544   2.463  0.0846  0.3462  0.7928
  797SOL    HW1 2390   2.533   2.550   2.413 -1.0320  1.8080 -1.3058
  797SOL    HW2 2391   2.403   2.628   2.508 -2.4292  0.4499 -1.5472
  798SOL     OW 2392   0.227   0.368   2.020 -0.9493 -0.2949 -0.6339
  798SOL    HW1 2393   0.325   0.355   1.985  0.1399  1.1344 -1.4908
  798SOL    HW2 2394   0.171   0.369   1.933 -0.2821  0.3859 -0.3021
  799SOL     OW 2395   0.735   2.545   2.002  0.2906  0.5148 -0.3093
  799SOL    HW1 2396   0.835   2.537   2.005 -0.9489  1.4986 -0.3704
  799SOL    HW2 2397   0.696   2.638   2.005  0.1411 -0.9006  0.7970
  800SOL     OW 2398   3.056   2.331   0.239 -0.1466  0.1034  0.1297
  800SOL    HW1 2399   2.962   2.309   0.265  0.5184 -0.3435  0.9972
  800SOL    HW2 2400   0.020   2.342   0.316 -0.6112 -0.5871 -1.9647
  801SOL     OW 2401   1.940   1.646   0.829 -0.1253  0.1548  0.8648
  801SOL    HW1 2402   1.956   1.574   0.754  0.7389 -1.3795  1.3334
  801SOL    HW2 2403   1.905   1.733   0.787 -0.8737  1.6202  0.9637
  802SOL     OW 2404   0.399   0.267   0.439 -0.6933  0.0050 -0.2344
  802SOL    HW1 2405   0.449   0.340   0.493  0.6513 -3.0109 -1.1510
  802SOL    HW2 2406   0.390   0.184   0.494 -1.4275  0.3520 -0.1156
  803SOL     OW 2407   1.435   1.314   1.700 -0.0984 -0.1314 -0.2773
  803SOL    HW1 2408   1.513   1.367   1.668  2.2726 -2.3770  0.0016
  803SOL    HW2 2409   1.343   1.355   1.687 -3.4900  2.7755 -0.3650
  804SOL     OW 2410   1.773   2.039   0.837 -0.3963 -0.2164 -0.0412
  804SOL    HW1 2411   1.800   2.029   0.933  1.7639  0.9857  1.4892
  804SOL    HW2 2412   1.751   1.946   0.794 -0.3315 -2.2957  0.1865
  805SOL     OW 2413   3.046   2.007   2.762 -0.0857 -0.4979 -0.1064
  805SOL    HW1 2414   3.060   1.912   2.808  0.4613 -1.5357 -1.0070
  805SOL    HW2 2415   0.034   2.061   2.778  1.1482 -1.3059 -1.3685
  806SOL     OW 2416   0.546   2.408   0.397  0.1699 -0.6340  0.2032
  806SOL    HW1 2417   0.537   2.311   0.432 -0.6566 -1.6098  0.2952
  806SOL    HW2 2418   0.469   2.465   0.437 -0.4808  0.0064  0.4416
  807SOL     OW 2419   2.053   1.545   2.806 -0.0059  0.1528 -0.5536
  807SOL    HW1 2420   2.102   1.508   2.890  1.0918 -0.3298 -0.5627
  807SOL    HW2 2421   1.974   1.604   2.837 -0.1389  1.5182 -0.7087
  808SOL     OW 2422   1.389   2.219   1.195  0.3650  0.5599  0.1787
  808SOL    HW1 2423   1.383   2.135   1.263 -0.6324  0.2051  1.7624
  808SOL    HW2 2424   1.404   2.306   1.244  0.6571 -2.6946 -2.4782
  809SOL     OW 2425   0.213   0.789   0.356  0.2749 -0.0036  0.2692
  809SOL    HW1 2426   0.295   0.743   0.391 -0.1139 -0.6458  3.4950
  809SOL    HW2 2427   0.132   0.759   0.408 -0.3333  1.2720  0.7621
  810SOL     OW 2428   1.260   1.572   0.038  0.5401 -0.0758  0.4369
  810SOL    HW1 2429   1.163   1.560   0.070 -0.7091 -0.9336  0.8575
  810SOL    HW2 2430   1.327   1.535   0.113  3.5279  0.0061  0.7452
  811SOL     OW 2431   1.645   2.298   1.077  0.0614 -0.5726 -0.1306
  811SOL    HW1 2432   1.640   2.363   0.999  0.3371 -0.3731  0.5097
  811SOL    HW2 2433   1.547   2.266   1.099 -1.6605 -3.6746 -0.4984
  812SOL     OW 2434   1.457   3.029   0.983  0.3821  0.1621 -0.5997
  812SOL    HW1 2435   1.491   2.993   1.074  0.1025 -0.6207 -3.6372
  812SOL    HW2 2436   1.380   3.096   0.991  4.0544 -1.6726  1.1678
  813SOL     OW 2437   0.781   0.072   1.782  0.5489  0.1581  0.2789
  813SOL    HW1 2438   0.880   0.087   1.794 -2.2934 -1.6654  0.3119
  813SOL    HW2 2439   0.736   0.034   1.868  0.2138 -1.4912  1.8207
  814SOL     OW 2440   0.996   2.374   1.940  0.3138 -0.2245 -0.3573
  814SOL    HW1 2441   1.010   2.361   2.039 -2.4384  0.2918 -1.9508
  814SOL    HW2 2442   1.052   2.451   1.904 -0.4026 -1.4799  0.6360
  815SOL     OW 2443   0.454   0.138   2.629  0.5486 -0.2263 -0.4048
  815SOL    HW1 2444   0.526   0.075   2.671 -0.4833 -2.6440  0.5314
  815SOL    HW2 2445   0.411   0.099   2.546 -1.0179  1.6452 -2.2966
  816SOL     OW 2446   2.122   0.747   3.059 -0.7395  0.8047 -0.3354
  816SOL    HW1 2447   2.170   0.697   0.032  0.2412  2.3226 -0.4372
  816SOL    HW2 2448   2.022   0.758   3.089 -0.5043  0.2160  2.7291
  817SOL     OW 2449   2.954   2.379   2.221  0.0082 -0.1448  0.3949
  817SOL    HW1 2450   2.901   2.465   2.199  0.2838  0.7927 -0.2202
  817SOL    HW2 2451   2.950   2.373   2.327  0.3001 -0.3256  0.6043
  818SOL     OW 2452   1.049   1.278   0.334 -0.0752  0.0870  0.1424
  818SOL    HW1 2453   1.006   1.368   0.339 -0.5151 -2.1303 -0.2097
  818SOL    HW2 2454   1.140   1.277   0.382  0.2733 -1.9396  1.7541
  819SOL     OW 2455   1.498   1.198   2.738 -0.7869 -0.0037 -0.2881
  819SOL    HW1 2456   1.573   1.147   2.694 -1.9577  0.3237  1.2908
  819SOL    HW2 2457   1.463   1.141   2.810  0.8748  2.3285 -1.1269
  820SOL     OW 2458   0.554   1.472   0.014 -0.0703 -0.3335 -0.9710
  820SOL    HW1 2459   0.610   1.538   3.060 -1.3083 -1.4104 -2.3485
  820SOL    HW2 2460   0.598   1.453   0.106  2.1157 -0.2424 -1.6601
  821SOL     OW 2461   0.548   2.999   0.716  0.7279  0.5435  0.1510
  821SOL    HW1 2462   0.580   2.954   0.635 -2.7537  0.6465  0.1197
  821SOL    HW2 2463   0.550   2.939   0.802  0.6340  1.3701  1.4190
  822SOL     OW 2464   2.151   2.423   2.858 -0.5693  0.1084 -0.1291
  822SOL    HW1 2465   2.233   2.372   2.883  1.5350  1.0841  0.8390
  822SOL    HW2 2466   2.095   2.456   2.942 -2.3535 -0.1186 -0.6413
  823SOL     OW 2467   1.174   0.436   2.601 -0.0335  0.1264  0.1357
  823SOL    HW1 2468   1.276   0.423   2.613  0.5377  0.0557  0.2066
  823SOL    HW2 2469   1.123   0.413   2.686  2.3403  2.7210 -0.7407
  824SOL     OW 2470   2.562   2.716   1.541 -0.0490  0.2318 -0.7142
  824SOL    HW1 2471   2.621   2.706   1.618  1.8884 -0.7628  1.1604
  824SOL    HW2 2472   2.593   2.784   1.479 -2.6971 -0.3391  3.0627
  825SOL     OW 2473   0.045   2.330   2.668  0.6734 -0.0432 -0.4646
  825SOL    HW1 2474   0.114   2.375   2.611 -0.8823 -0.7332  0.7442
  825SOL    HW2 2475   0.097   2.289   2.747 -0.1806  0.6577 -0.1981
  826SOL     OW 2476   1.740   0.282   2.973 -0.3835 -0.0126 -0.5908
  826SOL    HW1 2477   1.816   0.333   3.013 -0.4200 -1.8449  1.3998
  826SOL    HW2 2478   1.735   0.290   2.869 -0.6546 -1.5575 -1.7394
  827SOL     OW 2479   3.041   1.573   1.670  0.3499  0.1201  0.0947
  827SOL    HW1 2480   3.016   1.474   1.673  1.7050 -1.3116 -1.0186
  827SOL    HW2 2481   3.007   1.619   1.751  1.0672 -0.5025  0.1694
  828SOL     OW 2482   0.103   0.137   1.256 -0.0461 -0.5935 -0.6785
  828SOL    HW1 2483   0.120   0.206   1.325  1.5508 -1.0388  0.3111
  828SOL    HW2 2484   0.045   0.062   1.299  0.5565  0.6207 -0.5270
  829SOL     OW 2485   0.785   2.277   2.360  0.4132  0.2057 -0.2167
  829SOL    HW1 2486   0.776   2.262   2.462 -0.6448 -0.2576 -0.5968
  829SOL    HW2 2487   0.773   2.381   2.341 -0.5410  1.7552  3.6972
  830SOL     OW 2488   0.525   0.642   1.568 -0.0924 -0.4171  0.6345
  830SOL    HW1 2489   0.618   0.687   1.587 -1.5273 -0.3812 -2.3024
  830SOL    HW2 2490   0.475   0.625   1.654  1.4853  2.3490 -5.5103
  831SOL     OW 2491   2.532   1.785   2.799 -0.1317 -0.0636 -0.1417
  831SOL    HW1 2492   2.576   1.778   2.706  1.3702  1.2180  0.8279
  831SOL    HW2 2493   2.603   1.790   2.869 -1.6026  2.1316 -2.7849
  832SOL     OW 2494   1.703   2.562   2.951 -0.4551  0.1231 -0.1516
  832SOL    HW1 2495   1.619   2.552   2.889 -1.4341 -1.3877 -3.2205
  832SOL    HW2 2496   1.780   2.606   2.898 -1.6252 -2.5842 -0.1318
  833SOL     OW 2497   0.485   0.344   1.942 -0.3443  0.1856 -0.3069
  833SOL    HW1 2498   0.505   0.292   1.856 -1.5974  0.8470  1.1505
  833SOL    HW2 2499   0.552   0.324   2.017  0.0023  0.0159  2.1927
  834SOL     OW 2500   0.144   0.637   1.028 -0.3090  0.0030  0.1652
  834SOL    HW1 2501   0.208   0.556   1.028 -1.8461 -0.0204 -0.0921
  834SOL    HW2 2502   0.079   0.624   1.108 -2.4168  2.4058  1.5550
  835SOL     OW 2503   2.422   0.525   0.412 -0.3852  0.4233  0.0077
  835SOL    HW1 2504   2.401   0.627   0.402 -2.8848 -0.3602  2.2318
  835SOL    HW2 2505   2.420   0.476   0.320  0.6993 -0.9026 -1.2503
  836SOL     OW 2506   1.116   2.319   0.474 -0.1945 -1.0150  0.1872
  836SOL    HW1 2507   1.147   2.229   0.508  0.6437 -0.1423 -1.1143
  836SOL    HW2 2508   1.198   2.380   0.475 -0.1777  1.0151 -1.1082
  837SOL     OW 2509   1.936   1.792   0.288  0.6585 -0.6802  0.1650
  837SOL    HW1 2510   1.998   1.752   0.215  0.2967 -2.2739  1.0481
  837SOL    HW2 2511   1.887   1.725   0.345  0.3048 -0.1505  0.3414
  838SOL     OW 2512   1.720   1.101   2.347  0.2328 -0.2598 -0.1056
  838SOL    HW1 2513   1.752   1.158   2.272 -0.8546 -1.4711  1.3366
  838SOL    HW2 2514   1.634   1.055   2.328 -1.5492  2.0208 -0.5293
  839SOL     OW 2515   0.844   1.486   2.551  0.5335  0.5444  1.0238
  839SOL    HW1 2516   0.858   1.385   2.550 -0.5837  0.1660  1.0370
  839SOL    HW2 2517   0.925   1.530   2.595 -1.7265  1.4201  0.4119
  840SOL     OW 2518   0.835   1.239   0.016  0.0769  0.2857  0.3026
  840SOL    HW1 2519   0.872   1.153   0.058 -0.5511 -1.4246 -0.3526
  840SOL    HW2 2520   0.795   1.219   3.025  2.4924  1.3109  0.5446
  841SOL     OW 2521   1.579   2.208   0.273 -0.1146 -0.0881 -0.2979
  841SOL    HW1 2522   1.620   2.174   0.362 -0.5909 -1.8893 -0.8192
  841SOL    HW2 2523   1.653   2.250   0.212 -0.1773  0.3631  1.6748
  842SOL     OW 2524   0.123   0.752   0.094 -0.1143 -0.0974 -0.0675
  842SOL    HW1 2525   0.201   0.712   0.042  0.4329 -0.6935  0.0189
  842SOL    HW2 2526   0.164   0.764   0.191  1.0997 -3.3609  0.3345
  843SOL     OW 2527   0.608   0.355   0.944 -0.1406  0.1629  0.5820
  843SOL    HW1 2528   0.624   0.268   0.894 -1.3732  1.5898  1.1099
  843SOL    HW2 2529   0.685   0.375   1.012  1.9930 -0.8463  0.0802
  844SOL     OW 2530   1.831   2.745   2.202  0.4460  1.0220  0.2297
  844SOL    HW1 2531   1.927   2.715   2.198  0.1184 -0.1122  0.9083
  844SOL    HW2 2532   1.811   2.839   2.162  0.7006 -0.4780  0.0117
  845SOL     OW 2533   0.132   2.482   1.807  0.0125 -0.2745 -0.8700
  845SOL    HW1 2534   0.055   2.543   1.782 -2.6900  1.0553  3.1263
  845SOL    HW2 2535   0.106   2.440   1.896 -1.6909  0.6290 -1.6206
  846SOL     OW 2536   1.774   1.429   2.392 -0.2032  0.5961  0.1545
  846SOL    HW1 2537   1.685   1.384   2.419 -1.9190 -1.0801  1.1070
  846SOL    HW2 2538   1.796   1.425   2.291 -1.5760 -0.2089 -1.3153
  847SOL     OW 2539   0.147   0.618   2.117 -0.4202  0.4271 -0.0338
  847SOL    HW1 2540   0.193   0.531   2.101  0.4865 -1.2810  0.0053
  847SOL    HW2 2541   0.108   0.654   2.032  0.2792 -1.1523 -0.4666
  848SOL     OW 2542   2.591   2.753   2.898 -1.0358  0.5382  0.0744
  848SOL    HW1 2543   2.619   2.821   2.969  0.3179  0.2521  1.3539
  848SOL    HW2 2544   2.637   2.768   2.813  0.0629  1.2422  0.9074
  849SOL     OW 2545   0.342   2.803   0.493 -0.3265  0.2350  0.1428
  849SOL    HW1 2546   0.443   2.815   0.501 -1.3907 -1.6246 -1.6824
  849SOL    HW2 2547   0.288   2.854   0.562  0.2968 -3.5981 -0.2406
  850SOL     OW 2548   0.894   2.392   0.590  0.0717 -0.7867 -0.9054
  850SOL    HW1 2549   0.978   2.357   0.541 -1.8911  1.4954 -0.7696
  850SOL    HW2 2550   0.917   2.407   0.689  0.8266  1.1471  0.4574
  851SOL     OW 2551   1.831   0.522   2.611  0.2057  0.2452 -0.0097
  851SOL    HW1 2552   1.826   0.621   2.581 -1.8142 -0.1125  1.6160
  851SOL    HW2 2553   1.918   0.499   2.665 -0.2046 -1.5983  3.9522
  852SOL     OW 2554   1.563   2.756   2.692 -0.1315  0.1646 -0.1879
  852SOL    HW1 2555   1.626   2.679   2.676 -1.2773 -1.8673 -1.5045
  852SOL    HW2 2556   1.507   2.782   2.608 -3.4394  0.5912  0.9194
  853SOL     OW 2557   2.960   2.747   0.361  0.0308 -0.1329 -0.3829
  853SOL    HW1 2558   3.007   2.697   0.284 -1.8401  0.8943 -0.4323
  853SOL    HW2 2559   2.902   2.824   0.329  0.0926 -0.5088 -3.3026
  854SOL     OW 2560   1.606   0.564   2.380 -0.1075 -0.3417  0.1267
  854SOL    HW1 2561   1.662   0.491   2.340 -1.4782  1.9737 -1.3511
  854SOL    HW2 2562   1.647   0.628   2.449  0.3024  1.5156 -0.7527
  855SOL     OW 2563   0.347   2.525   0.494  0.5137 -0.4174 -0.3862
  855SOL    HW1 2564   0.363   2.526   0.595  2.6017  0.0764 -0.3005
  855SOL    HW2 2565   0.319   2.623   0.469  1.5210  1.3107 -0.5065
  856SOL     OW 2566   0.321   2.802   2.559  0.2383  0.1131 -0.1848
  856SOL    HW1 2567   0.419   2.811   2.533  2.3912 -2.7737  0.4797
  856SOL    HW2 2568   0.267   2.778   2.476 -2.3521 -1.0167 -0.7378
  857SOL     OW 2569   0.992   2.928   1.609 -0.2214 -0.3698 -0.4850
  857SOL    HW1 2570   1.032   2.948   1.516 -0.3143  1.2370  0.4979
  857SOL    HW2 2571   0.897   2.964   1.620 -1.0461  0.6403 -1.9099
  858SOL     OW 2572   2.947   1.759   1.506  0.1533 -0.2919 -0.5243
  858SOL    HW1 2573   3.011   1.721   1.577  1.3874 -3.4109  0.9637
  858SOL    HW2 2574   2.853   1.734   1.525 -0.4458  1.9038 -1.0542
  859SOL     OW 2575   2.139   2.196   2.143 -0.0409  0.1278 -0.1270
  859SOL    HW1 2576   2.136   2.134   2.228  0.0686 -0.2532  3.6764
  859SOL    HW2 2577   2.043   2.229   2.118 -0.9821  0.3615 -1.1722
  860SOL     OW 2578   1.261   0.434   0.562  0.4635  0.2428  0.0575
  860SOL    HW1 2579   1.257   0.466   0.660  0.3443  0.0610  1.9120
  860SOL    HW2 2580   1.183   0.373   0.533  1.4868 -2.1015 -1.1304
  861SOL     OW 2581   2.828   0.675   1.137  0.0787  0.4478  0.4146
  861SOL    HW1 2582   2.754   0.605   1.126  1.6046 -0.0389  0.9686
  861SOL    HW2 2583   2.904   0.659   1.065  1.2537  0.1891 -2.8903
  862SOL     OW 2584   1.344   0.614   2.331  0.3339  0.4407  0.6786
  862SOL    HW1 2585   1.441   0.616   2.361  0.3837  1.4402  0.2432
  862SOL    HW2 2586   1.321   0.528   2.275  1.1884 -0.0533  0.7949
  863SOL     OW 2587   0.448   0.566   0.900  0.1440 -0.4376  0.0097
  863SOL    HW1 2588   0.517   0.498   0.893 -1.8683  3.5265 -1.9188
  863SOL    HW2 2589   0.430   0.596   0.997  0.5906 -0.0516  3.3666
  864SOL     OW 2590   0.037   2.900   1.998  0.0659 -0.0035  0.6044
  864SOL    HW1 2591   0.121   2.838   1.995  0.5002 -1.6965 -1.9479
  864SOL    HW2 2592   0.054   2.980   1.943 -0.8997 -1.4835  0.1265
  865SOL     OW 2593   0.852   1.225   2.571 -0.0375 -0.4239 -1.3371
  865SOL    HW1 2594   0.906   1.141   2.596  1.7112  2.0105  0.2249
  865SOL    HW2 2595   0.802   1.212   2.483  0.6356  2.1336 -2.8272
  866SOL     OW 2596   2.993   2.970   0.160 -0.2836  0.7109  0.1000
  866SOL    HW1 2597   3.080   3.017   0.189  2.0651  0.2193  1.3189
  866SOL    HW2 2598   3.009   2.929   0.073 -1.8447  1.1018  0.5421
  867SOL     OW 2599   3.017   2.844   3.001  0.6166 -0.0748  0.3760
  867SOL    HW1 2600   2.972   2.751   2.999  1.4200  0.2822 -0.3002
  867SOL    HW2 2601   0.016   2.833   2.989 -3.9854  1.1439  0.6783
  868SOL     OW 2602   1.410   1.024   2.926  1.1940  0.3065  0.2083
  868SOL    HW1 2603   1.469   1.033   3.005 -2.1915  0.3176 -1.2674
  868SOL    HW2 2604   1.323   0.994   2.958  0.1605 -0.0860 -0.2970
  869SOL     OW 2605   0.122   2.119   0.706  0.2035  0.1471 -0.2194
  869SOL    HW1 2606   0.099   2.114   0.609  2.3244  0.6393  0.9772
  869SOL    HW2 2607   0.214   2.088   0.718 -2.0717 -0.2447  0.2803
  870SOL     OW 2608   2.159   2.029   0.617  0.1442  0.2489 -0.1537
  870SOL    HW1 2609   2.186   1.934   0.628 -2.0829  1.1825 -0.2532
  870SOL    HW2 2610   2.236   2.089   0.585  0.3988  0.8224 -1.3657
  871SOL     OW 2611   0.523   1.040   1.159  0.5139  0.3093 -0.6536
  871SOL    HW1 2612   0.424   1.023   1.142 -0.4957 -1.7929 -0.6989
  871SOL    HW2 2613   0.565   1.092   1.085 -2.6486  0.2996  2.0248
  872SOL     OW 2614   1.383   1.735   1.800  0.5787 -0.3169  0.0969
  872SOL    HW1 2615   1.304   1.790   1.835 -1.6100  2.2939  1.4124
  872SOL    HW2 2616   1.458   1.730   1.872 -2.8464  2.4258 -0.5442
  873SOL     OW 2617   0.860   2.003   2.257 -1.1261  0.6530 -0.2705
  873SOL    HW1 2618   0.842   2.096   2.290  2.7072 -0.8756  0.3925
  873SOL    HW2 2619   0.805   1.985   2.175  2.8801 -1.5656  2.3885
  874SOL     OW 2620   1.091   2.786   1.109 -0.6940 -0.2924 -0.4634
  874SOL    HW1 2621   1.118   2.695   1.142 -1.1679 -1.3014  0.9056
  874SOL    HW2 2622   1.135   2.810   1.024  0.7552  1.2056 -1.5325
  875SOL     OW 2623   3.052   0.343   0.987 -0.1447 -0.0859  0.5393
  875SOL    HW1 2624   3.081   0.244   0.999 -0.1256 -0.0352  1.4892
  875SOL    HW2 2625   2.963   0.356   0.946  1.1188 -1.1694 -2.6086
  876SOL     OW 2626   0.591   0.786   0.203 -0.6816  0.0126 -0.2508
  876SOL    HW1 2627   0.589   0.787   0.305  3.1597  0.5064  3.2353
  876SOL    HW2 2628   0.677   0.737   0.172  0.3736 -0.6561 -0.4771
  877SOL     OW 2629   3.054   0.687   1.277  0.3524  0.6830  0.8730
  877SOL    HW1 2630   2.966   0.713   1.230  1.5759 -0.8875  0.5490
  877SOL    HW2 2631   3.052   0.584   1.284 -0.6666 -1.5942 -1.0107
  878SOL     OW 2632   2.604   2.273   0.640 -0.7598  0.2235  0.4096
  878SOL    HW1 2633   2.522   2.318   0.609  1.4228  2.4313  0.0911
  878SOL    HW2 2634   2.629   2.308   0.733 -1.0327  0.3659  0.1484
  879SOL     OW 2635   2.543   1.299   1.174 -0.2225 -0.1773 -0.4606
  879SOL    HW1 2636   2.580   1.255   1.092  0.8490  0.1030  2.8407
  879SOL    HW2 2637   2.531   1.400   1.162 -0.1417  2.0708  0.4077
  880SOL     OW 2638   1.628   2.599   1.258  0.0304  0.0028 -0.1338
  880SOL    HW1 2639   1.722   2.576   1.226 -2.4864 -0.3354  1.6123
  880SOL    HW2 2640   1.575   2.644   1.185 -0.1194 -0.8774  2.4328
  881SOL     OW 2641   0.978   2.341   0.244 -0.3971 -0.4670  0.7029
  881SOL    HW1 2642   1.006   2.333   0.340  0.5708 -1.4474 -1.2204
  881SOL    HW2 2643   0.906   2.410   0.233  1.5964  0.6761  0.4632
  882SOL     OW 2644   1.641   0.709   1.188 -0.1087 -0.2287  0.3300
  882SOL    HW1 2645   1.714   0.648   1.154  1.6777  1.2334  3.8893
  882SOL    HW2 2646   1.606   0.672   1.278 -1.9913 -1.4228  0.0543
  883SOL     OW 2647   1.274   0.349   2.196  0.2227  0.8514  0.6065
  883SOL    HW1 2648   1.243   0.317   2.103  0.4203  2.0921  0.6232
  883SOL    HW2 2649   1.367   0.304   2.215 -0.5244 -4.6103  1.3062
  884SOL     OW 2650   2.495   0.605   0.069 -0.0627  0.3393 -0.7415
  884SOL    HW1 2651   2.410   0.641   0.110  1.5204 -0.1253 -1.1823
  884SOL    HW2 2652   2.574   0.647   0.121 -0.0644 -0.2577  0.9089
  885SOL     OW 2653   1.081   1.345   3.086  0.1163  0.2316  0.3907
  885SOL    HW1 2654   1.102   1.387   2.992  1.4862  1.0751 -3.8750
  885SOL    HW2 2655   0.989   1.308   3.092  0.9772 -0.1820  1.6739
  886SOL     OW 2656   1.513   1.462   2.635  0.5626  0.0858 -0.1849
  886SOL    HW1 2657   1.599   1.511   2.657 -1.3837  0.2638  2.2484
  886SOL    HW2 2658   1.494   1.378   2.687  0.5645 -1.8765  2.4301
  887SOL     OW 2659   1.567   0.307   1.478 -0.5385 -0.5315 -0.2625
  887SOL    HW1 2660   1.561   0.225   1.420 -1.1187 -0.3615 -0.8479
  887SOL    HW2 2661   1.591   0.276   1.572  0.2397 -1.9610 -0.2168
  888SOL     OW 2662   2.680   0.678   1.873 -0.7727  0.2699  0.7685
  888SOL    HW1 2663   2.715   0.590   1.831  0.8237 -3.5889  1.9618
  888SOL    HW2 2664   2.746   0.719   1.936  1.4771 -0.6076 -2.2168
  889SOL     OW 2665   0.245   2.594   1.097 -0.4476 -0.4822  0.4337
  889SOL    HW1 2666   0.150   2.579   1.060 -2.3872  0.9122 -1.6824
  889SOL    HW2 2667   0.291   2.655   1.030 -0.8226  1.2210 -1.2880
  890SOL     OW 2668   2.745   2.304   0.285 -0.3062 -0.2196 -0.1498
  890SOL    HW1 2669   2.680   2.379   0.265 -0.8707 -1.3223 -0.1050
  890SOL    HW2 2670   2.789   2.320   0.378  0.4864  2.5225 -0.6738
  891SOL     OW 2671   0.910   1.586   2.985  0.3378  0.7530 -0.0218
  891SOL    HW1 2672   0.954   1.517   2.924 -2.1002  0.7695 -2.2914
  891SOL    HW2 2673   0.953   1.594   3.077 -0.5113  0.4942 -0.1245
  892SOL     OW 2674   0.029   0.056   1.003 -0.0508 -0.0812 -0.8569
  892SOL    HW1 2675   0.046   0.075   1.102 -1.0168 -2.7414  0.2365
  892SOL    HW2 2676   3.074   3.069   0.998  2.8337  1.6031  1.9046
  893SOL     OW 2677   1.141   0.127   1.435  0.2482 -0.3391  0.5468
  893SOL    HW1 2678   1.109   0.036   1.394  1.2458 -0.0682 -2.1395
  893SOL    HW2 2679   1.128   0.197   1.364  0.8641 -1.0754  0.8054
  894SOL     OW 2680   2.585   0.547   0.936  0.1086 -0.2394  0.0709
  894SOL    HW1 2681   2.501   0.528   0.987 -0.6320 -0.6793 -0.8280
  894SOL    HW2 2682   2.575   0.630   0.873 -1.4571  2.4852 -1.2813
  895SOL     OW 2683   2.376   2.247   2.274  0.2330 -0.0074  0.6438
  895SOL    HW1 2684   2.294   2.254   2.217  1.4138 -0.5660  1.5172
  895SOL    HW2 2685   2.358   2.192   2.357  0.2952  0.1332 -0.6364
  896SOL     OW 2686   1.276   0.276   1.931 -0.2580 -0.0326 -0.8189
  896SOL    HW1 2687   1.227   0.279   1.839 -1.7387 -2.4543 -1.9041
  896SOL    HW2 2688   1.321   0.188   1.943  0.7044  0.5414 -2.1404
  897SOL     OW 2689   0.663   1.623   1.835 -0.7613 -0.5778  0.4069
  897SOL    HW1 2690   0.711   1.713   1.824  0.0734  2.2505 -1.2146
  897SOL    HW2 2691   0.708   1.545   1.789 -0.7402  1.3115 -2.0520
  898SOL     OW 2692   2.054   2.687   1.877 -0.0110 -0.3097  0.3295
  898SOL    HW1 2693   2.066   2.769   1.814  1.3346  1.7958  1.5314
  898SOL    HW2 2694   2.139   2.660   1.919 -2.1776 -0.1490  1.5919
  899SOL     OW 2695   1.062   0.864   1.133  0.3644 -0.3747 -0.5864
  899SOL    HW1 2696   1.066   0.897   1.230  0.5085  1.7476 -0.4823
  899SOL    HW2 2697   0.972   0.825   1.110  0.0861 -2.2378 -1.3126
  900SOL     OW 2698   1.803   2.299   2.968 -0.3788 -0.0309  0.2684
  900SOL    HW1 2699   1.746   2.232   2.917 -0.1460  2.2504  1.1700
  900SOL    HW2 2700   1.770   2.394   2.962 -1.8143  0.7119 -0.4945
  901SOL     OW 2701   0.751   2.228   2.618  0.6962 -0.5237  0.0011
  901SOL    HW1 2702   0.777   2.270   2.707 -2.3592 -1.2591  1.0423
  901SOL    HW2 2703   0.659   2.185   2.624  1.5451  0.7244  0.5191
  902SOL     OW 2704   2.193   1.266   0.130 -0.3786 -0.0243 -0.3277
  902SOL    HW1 2705   2.279   1.323   0.138  1.9178  0.8152 -0.9724
  902SOL    HW2 2706   2.220   1.165   0.119  2.7836 -0.3341  0.0942
  903SOL     OW 2707   1.964   0.801   0.325  0.3782 -0.5204 -0.0120
  903SOL    HW1 2708   1.955   0.902   0.310  0.8473 -1.0696 -0.5840
  903SOL    HW2 2709   1.879   0.750   0.301  1.5233  1.4572 -1.2806
  904SOL     OW 2710   0.538   0.907   3.054 -0.4720  0.3817 -0.4551
  904SOL    HW1 2711   0.470   0.979   3.060  0.9806  1.2699  0.9392
  904SOL    HW2 2712   0.564   0.882   0.054  2.5427  0.2553  0.6605
  905SOL     OW 2713   2.393   0.219   0.960  0.4461  0.2447 -0.3865
  905SOL    HW1 2714   2.336   0.167   1.024  0.1377  2.0866  1.2301
  905SOL    HW2 2715   2.356   0.311   0.936  0.9747 -1.3502 -0.4038
  906SOL     OW 2716   2.741   2.322   1.139  0.0364  0.0250 -0.4732
  906SOL    HW1 2717   2.703   2.254   1.074 -1.7072  0.4042  1.5998
  906SOL    HW2 2718   2.664   2.365   1.189  1.3150  0.6582 -0.2256
  907SOL     OW 2719   1.283   0.521   0.301  0.2104 -0.2767 -0.6840
  907SOL    HW1 2720   1.202   0.478   0.258  2.3729  3.0507  2.9725
  907SOL    HW2 2721   1.306   0.479   0.395  2.8102  0.3229  1.9480
  908SOL     OW 2722   2.228   2.863   1.509  0.2054  0.2061 -0.0979
  908SOL    HW1 2723   2.263   2.765   1.514 -3.0986  1.9194 -2.1028
  908SOL    HW2 2724   2.303   2.930   1.489 -1.1766  0.0982  0.0898
  909SOL     OW 2725   2.886   0.841   1.690 -0.5097 -0.5004 -0.1080
  909SOL    HW1 2726   2.907   0.852   1.592  0.3825  1.4620  0.4102
  909SOL    HW2 2727   2.837   0.925   1.721 -1.0655 -0.4043  0.1952
  910SOL     OW 2728   1.481   2.831   2.441  0.5703 -1.1076  0.3045
  910SOL    HW1 2729   1.444   2.813   2.349  1.6821  0.9209  0.8687
  910SOL    HW2 2730   1.412   2.876   2.499  1.6489 -1.3302 -1.0173
  911SOL     OW 2731   2.440   0.326   2.111  0.1068 -0.4170 -0.1639
  911SOL    HW1 2732   2.465   0.428   2.098 -0.6080  1.7287 -1.4875
  911SOL    HW2 2733   2.463   0.290   2.203 -0.2725  0.4558 -0.2691
  912SOL     OW 2734   2.731   1.213   1.514  0.4295  0.1570 -0.1151
  912SOL    HW1 2735   2.757   1.308   1.484 -0.5599 -0.5088 -0.6726
  912SOL    HW2 2736   2.726   1.142   1.441  0.8929  0.9734 -0.4794
  913SOL     OW 2737   2.504   1.999   1.223  0.0903  0.8575  0.2500
  913SOL    HW1 2738   2.579   1.939   1.260 -0.3655 -1.6786 -1.4934
  913SOL    HW2 2739   2.425   2.012   1.290 -0.2951  1.9948  0.4813
  914SOL     OW 2740   1.962   1.222   1.397  0.2843  0.4641  0.6677
  914SOL    HW1 2741   2.046   1.171   1.408  0.6758  0.8734  2.7133
  914SOL    HW2 2742   1.879   1.162   1.404 -2.3353 -0.7904 -1.1185
  915SOL     OW 2743   1.026   0.951   1.379 -0.4925 -0.2903  0.3838
  915SOL    HW1 2744   1.102   0.964   1.449 -0.9811  0.1896 -0.1699
  915SOL    HW2 2745   0.966   0.869   1.391  0.4952  1.2286 -0.9337
  916SOL     OW 2746   2.348   2.571   1.515  0.1111 -0.4430 -0.3212
  916SOL    HW1 2747   2.346   2.488   1.575 -1.5990  1.9399 -0.6692
  916SOL    HW2 2748   2.424   2.637   1.533 -0.3060 -0.3371 -1.3563
  917SOL     OW 2749   2.584   2.076   0.305 -0.5276  0.4012 -0.0627
  917SOL    HW1 2750   2.523   2.071   0.221  0.6213 -1.5398 -2.2177
  917SOL    HW2 2751   2.634   2.167   0.313  0.3715 -0.2249 -0.7487
  918SOL     OW 2752   1.890   2.705   2.794 -0.4896 -0.0341  0.6150
  918SOL    HW1 2753   1.874   2.806   2.805  1.0979 -2.0735  1.5555
  918SOL    HW2 2754   1.986   2.686   2.759  3.7262  0.5956  2.1411
  919SOL     OW 2755   1.481   2.249   1.540  0.2269  0.0095 -0.7791
  919SOL    HW1 2756   1.429   2.200   1.608  1.6171  0.4354 -1.0441
  919SOL    HW2 2757   1.574   2.212   1.530 -3.6086  0.7529  1.3021
  920SOL     OW 2758   2.708   0.177   2.592 -0.1501 -0.1721  0.1541
  920SOL    HW1 2759   2.647   0.222   2.526 -0.4452 -0.8755 -1.3293
  920SOL    HW2 2760   2.666   0.174   2.686 -0.2031  0.2311  0.5890
  921SOL     OW 2761   2.745   0.441   1.768 -0.7655 -0.3867  0.4540
  921SOL    HW1 2762   2.821   0.425   1.834 -1.4600  1.0960  1.5935
  921SOL    HW2 2763   2.725   0.353   1.718  2.3405 -0.2858  1.6668
  922SOL     OW 2764   2.016   2.028   0.377  0.3259 -0.2447 -0.3259
  922SOL    HW1 2765   2.069   2.035   0.466 -2.0931  1.6387  1.8256
  922SOL    HW2 2766   2.009   1.931   0.345  2.9050  0.6574  0.5467
  923SOL     OW 2767   0.496   2.116   0.088  0.1351 -0.4240  0.8005
  923SOL    HW1 2768   0.527   2.041   0.022 -0.8463 -0.5394 -2.0560
  923SOL    HW2 2769   0.486   2.204   0.036  1.3231 -0.7988 -0.7503
  924SOL     OW 2770   0.799   0.404   0.187 -0.3405 -0.0815 -0.1493
  924SOL    HW1 2771   0.747   0.405   0.273 -0.0965  1.4382 -1.2117
  924SOL    HW2 2772   0.789   0.493   0.137  1.4056 -1.0561 -0.0996
  925SOL     OW 2773   2.498   0.893   0.904  0.0365 -0.0824 -0.7064
  925SOL    HW1 2774   2.433   0.972   0.882 -1.0861 -1.1560  0.9796
  925SOL    HW2 2775   2.472   0.822   0.832  0.9497 -1.3473  0.3266
  926SOL     OW 2776   3.018   0.954   1.001 -0.6808  0.2272 -0.1569
  926SOL    HW1 2777   2.916   0.934   1.002 -2.0490  0.9718  1.3004
  926SOL    HW2 2778   3.076   0.869   0.990  2.4373 -0.7817 -0.0732
  927SOL     OW 2779   3.095   1.076   2.858  1.0537  0.8712  0.7110
  927SOL    HW1 2780   0.033   1.014   2.785 -0.8676  0.3379 -0.6113
  927SOL    HW2 2781   0.046   1.163   2.862 -2.0963  0.3320 -2.2152
  928SOL     OW 2782   2.944   0.436   2.411  0.2862 -0.4068  0.4121
  928SOL    HW1 2783   3.010   0.378   2.357 -0.9272 -0.2897 -2.0459
  928SOL    HW2 2784   2.851   0.432   2.369  2.3966  0.1591  0.7297
  929SOL     OW 2785   2.897   2.801   1.218  0.3531 -0.1930 -0.1816
  929SOL    HW1 2786   2.926   2.875   1.162  0.7268  0.1203 -0.4582
  929SOL    HW2 2787   2.902   2.705   1.181 -0.0821  1.0464 -0.2254
  930SOL     OW 2788   2.029   1.367   1.605 -0.6607 -0.4020  0.4092
  930SOL    HW1 2789   2.067   1.459   1.584 -2.6822  1.1375  0.8008
  930SOL    HW2 2790   1.977   1.328   1.529  3.5357  0.9036 -1.5937
  931SOL     OW 2791   1.495   1.540   0.679  0.1651 -0.2042  0.2545
  931SOL    HW1 2792   1.571   1.550   0.748  0.0817  1.2225  1.5467
  931SOL    HW2 2793   1.414   1.596   0.703  0.1697  2.6728  1.3175
  932SOL     OW 2794   2.736   1.152   0.987  0.0426 -0.2786 -0.3235
  932SOL    HW1 2795   2.728   1.066   1.037 -0.3416  1.3181 -2.7474
  932SOL    HW2 2796   2.820   1.197   0.999 -0.1900  0.7130 -1.6564
  933SOL     OW 2797   2.452   1.548   1.117  0.9081 -0.0001  0.0626
  933SOL    HW1 2798   2.389   1.619   1.079 -0.8450 -0.3356 -0.5529
  933SOL    HW2 2799   2.439   1.551   1.216  0.3060 -1.1889 -3.7530
  934SOL     OW 2800   1.600   2.947   1.588  0.0903  0.0510  0.3326
  934SOL    HW1 2801   1.579   2.845   1.591  0.0545  0.3775  0.8594
  934SOL    HW2 2802   1.508   2.999   1.582  0.1828 -0.6439 -0.3608
  935SOL     OW 2803   0.050   1.726   0.809  0.0984  0.5219  0.4859
  935SOL    HW1 2804   3.047   1.712   0.822 -0.9797 -0.0893  1.1314
  935SOL    HW2 2805   0.096   1.756   0.896 -0.2456 -0.8308  0.9785
  936SOL     OW 2806   0.311   1.275   0.490  0.5171  0.0940 -0.1852
  936SOL    HW1 2807   0.322   1.181   0.447 -0.2629 -1.2585 -2.4580
  936SOL    HW2 2808   0.391   1.333   0.461 -0.9098  0.4317 -3.5897
  937SOL     OW 2809   2.137   2.739   1.105  0.2789  0.7919 -0.0517
  937SOL    HW1 2810   2.045   2.698   1.099  0.6374 -1.7021  0.8085
  937SOL    HW2 2811   2.189   2.716   1.025 -0.0432  0.0836  1.9619
  938SOL     OW 2812   2.412   2.342   1.007 -0.2338 -0.3922  0.2039
  938SOL    HW1 2813   2.414   2.267   1.074 -0.1091 -2.0233 -0.1441
  938SOL    HW2 2814   2.501   2.367   0.968 -0.4806 -0.8345  1.3143
  939SOL     OW 2815   0.827   2.126   0.503  0.0375  0.4798  0.0773
  939SOL    HW1 2816   0.857   2.052   0.573 -1.8192 -2.7972  1.7547
  939SOL    HW2 2817   0.854   2.221   0.537  1.2344  0.2421  1.4033
  940SOL     OW 2818   2.820   0.066   0.083  0.3482  0.5703  0.5375
  940SOL    HW1 2819   2.858   0.079   3.088  2.3446 -0.1876  1.9558
  940SOL    HW2 2820   2.883   0.008   0.141 -2.1276  0.4280 -0.0690
  941SOL     OW 2821   1.084   0.010   3.033  0.0852  0.4253 -0.6234
  941SOL    HW1 2822   1.175   3.068   3.002 -0.9715 -0.9240 -0.1926
  941SOL    HW2 2823   1.101   0.105   3.058 -0.2329 -0.9961 -1.4219
  942SOL     OW 2824   1.257   1.348   1.112  0.1515 -0.3078  0.3928
  942SOL    HW1 2825   1.330   1.398   1.058  2.0490 -0.6042  0.2609
  942SOL    HW2 2826   1.262   1.246   1.109 -2.7402 -2.1030 -2.3816
  943SOL     OW 2827   1.736   1.045   1.422  0.0536 -0.1201 -0.3507
  943SOL    HW1 2828   1.755   1.071   1.519  0.5945 -0.5540 -1.4434
  943SOL    HW2 2829   1.784   0.951   1.409 -1.8553  0.4500 -0.4376
  944SOL     OW 2830   1.715   0.519   1.879 -0.4661 -0.0488  0.1769
  944SOL    HW1 2831   1.666   0.595   1.839 -1.3167 -1.4307  2.2554
  944SOL    HW2 2832   1.746   0.537   1.975  2.2098 -0.0924  2.4977
  945SOL     OW 2833   3.073   3.077   0.492  0.0481 -0.0216  0.3531
  945SOL    HW1 2834   3.091   0.073   0.531  0.4423  2.5067  0.9719
  945SOL    HW2 2835   3.096   3.079   0.394 -2.3281 -0.1751  1.9098
  946SOL     OW 2836   0.353   0.310   1.420 -0.2812  1.0537  0.0910
  946SOL    HW1 2837   0.445   0.335   1.454  1.7255  0.4607 -0.4057
  946SOL    HW2 2838   0.350   0.290   1.319  0.4833 -1.5629  2.4227
  947SOL     OW 2839   0.697   3.049   0.119  0.4392  0.5204 -0.3500
  947SOL    HW1 2840   0.598   3.035   0.096 -0.1160 -4.4833  1.4585
  947SOL    HW2 2841   0.721   0.048   0.100 -0.1783 -0.3991  0.0818
  948SOL     OW 2842   2.638   1.189   1.987  0.0781  0.2021 -0.4329
  948SOL    HW1 2843   2.573   1.256   1.952  3.5790  0.2270  1.0767
  948SOL    HW2 2844   2.705   1.229   2.052  0.5549  0.2111  1.0873
  949SOL     OW 2845   0.584   0.774   2.799 -0.3442  0.2824 -0.0064
  949SOL    HW1 2846   0.553   0.821   2.886  2.4974 -0.7529 -0.6889
  949SOL    HW2 2847   0.672   0.816   2.761  0.3256  0.8838  2.9784
  950SOL     OW 2848   0.826   0.558   0.615  1.0419  0.1957  0.1238
  950SOL    HW1 2849   0.870   0.473   0.649  0.0316  2.2761 -2.2644
  950SOL    HW2 2850   0.893   0.636   0.616  2.6107  0.0508  0.2663
  951SOL     OW 2851   1.148   2.013   2.166  0.5728  0.0652 -0.2274
  951SOL    HW1 2852   1.177   2.099   2.124 -0.6376  1.4370  1.0658
  951SOL    HW2 2853   1.054   2.027   2.208 -0.6217  2.0821  0.6004
  952SOL     OW 2854   0.985   1.631   0.147 -0.1367  0.0981  0.0834
  952SOL    HW1 2855   0.970   1.558   0.213 -1.3319 -0.1081 -1.6232
  952SOL    HW2 2856   0.904   1.692   0.144 -0.9150  1.2352  1.0812
  953SOL     OW 2857   2.107   2.909   2.351 -0.2234  0.3343 -0.1953
  953SOL    HW1 2858   2.106   2.813   2.309  0.1006 -0.8059 -3.0326
  953SOL    HW2 2859   2.130   2.982   2.284  0.5086  1.4173 -0.1713
  954SOL     OW 2860   1.633   1.221   0.675 -0.5397 -0.1825  0.3808
  954SOL    HW1 2861   1.707   1.166   0.633  0.6359 -0.4868 -1.4127
  954SOL    HW2 2862   1.603   1.297   0.614 -2.0008 -0.2408  0.2845
  955SOL     OW 2863   0.295   2.204   2.421 -0.2800  0.4775  0.6131
  955SOL    HW1 2864   0.375   2.206   2.360 -0.5078 -1.0062  0.0322
  955SOL    HW2 2865   0.269   2.299   2.446  1.2156 -1.2728  2.2279
  956SOL     OW 2866   1.863   0.176   1.631  0.2124  0.2206  0.0588
  956SOL    HW1 2867   1.936   0.227   1.686  0.5859  1.3404  2.3128
  956SOL    HW2 2868   1.772   0.205   1.670  1.2982  3.0413 -0.6679
  957SOL     OW 2869   1.635   2.142   2.850  0.1405 -0.4189 -0.2891
  957SOL    HW1 2870   1.573   2.140   2.768 -1.5617  1.7012 -0.0739
  957SOL    HW2 2871   1.588   2.094   2.932 -0.5860 -0.1846  0.4333
  958SOL     OW 2872   1.355   2.119   1.742 -0.4247  0.4845 -0.0555
  958SOL    HW1 2873   1.294   2.158   1.819 -1.3026 -2.6149  1.3503
  958SOL    HW2 2874   1.301   2.054   1.681  1.0884  0.0841 -1.5508
  959SOL     OW 2875   2.040   2.184   2.990 -0.2562 -0.4270  0.0489
  959SOL    HW1 2876   2.065   2.174   3.090  0.6240 -0.0779 -0.2772
  959SOL    HW2 2877   1.960   2.247   2.985  1.2253  1.6925 -2.4261
  960SOL     OW 2878   2.961   0.106   2.697  0.3290  0.5690  0.0156
  960SOL    HW1 2879   3.053   0.100   2.656 -2.4959  3.0294  1.4413
  960SOL    HW2 2880   2.892   0.151   2.638 -0.4651  0.6299  0.1998
  961SOL     OW 2881   0.833   0.845   2.743  0.6072  0.4971 -0.0192
  961SOL    HW1 2882   0.874   0.924   2.801  0.2425 -2.3107 -0.1033
  961SOL    HW2 2883   0.865   0.867   2.647  1.2201  1.1384  0.4898
  962SOL     OW 2884   1.167   1.203   2.715 -0.0242  0.0857  0.0608
  962SOL    HW1 2885   1.219   1.167   2.635 -1.5310 -0.2765  0.4818
  962SOL    HW2 2886   1.227   1.209   2.795 -1.0004 -0.7718 -3.1734
  963SOL     OW 2887   2.392   2.072   0.122 -0.1289 -0.1129 -0.2381
  963SOL    HW1 2888   2.445   2.105   0.039 -1.3685  1.4229 -1.3977
  963SOL    HW2 2889   2.302   2.119   0.136  3.1182 -0.5458  1.4212
  964SOL     OW 2890   1.470   2.667   1.037  0.0310  0.3957  0.0956
  964SOL    HW1 2891   1.388   2.610   1.017  0.9581  2.4821  0.1846
  964SOL    HW2 2892   1.452   2.764   1.016 -2.2124 -2.9696  0.9358
  965SOL     OW 2893   1.102   1.443   0.723 -0.8283 -0.3574 -0.3100
  965SOL    HW1 2894   1.170   1.517   0.739 -1.2562  1.9904  1.4544
  965SOL    HW2 2895   1.014   1.482   0.689  1.0115 -1.5618 -1.3123
  966SOL     OW 2896   0.267   1.412   3.098  0.2520  0.4268 -0.0535
  966SOL    HW1 2897   0.360   1.452   3.092  0.9336 -0.5314  1.3174
  966SOL    HW2 2898   0.215   1.446   0.078 -1.3040 -1.9424  0.8494
  967SOL     OW 2899   1.904   0.093   1.995  0.1751  0.2957  0.7417
  967SOL    HW1 2900   1.947   0.113   2.084 -0.3548 -0.5880 -2.1705
  967SOL    HW2 2901   1.933   0.159   1.922 -3.2622  3.3081 -0.5377
  968SOL     OW 2902   1.788   1.044   0.546 -0.1853  0.6877  0.1826
  968SOL    HW1 2903   1.849   1.059   0.468 -0.6193  1.7921  0.0930
  968SOL    HW2 2904   1.725   0.971   0.521  1.0716 -0.1588  4.1452
  969SOL     OW 2905   0.270   1.550   2.250  0.2076  0.2601 -0.4770
  969SOL    HW1 2906   0.199   1.522   2.189  2.8815  0.8745  2.6103
  969SOL    HW2 2907   0.347   1.484   2.231 -1.0878  0.0691 -0.7296
  970SOL     OW 2908   2.226   1.377   1.127  0.3542  0.2750  0.0293
  970SOL    HW1 2909   2.317   1.417   1.102  0.5047 -1.0666  1.4812
  970SOL    HW2 2910   2.235   1.303   1.199  1.4668  2.0214 -0.5291
  971SOL     OW 2911   0.346   0.042   1.490  0.1684  0.0525  0.4640
  971SOL    HW1 2912   0.347   0.146   1.478  1.7872  3.0450 -1.0157
  971SOL    HW2 2913   0.251   3.097   1.483 -0.3973 -0.0093 -4.4238
  972SOL     OW 2914   0.317   0.780   2.677  0.0211  0.9635 -0.6024
  972SOL    HW1 2915   0.297   0.717   2.754  0.7153 -1.1700 -0.8652
  972SOL    HW2 2916   0.413   0.810   2.693  1.0329  2.8754 -0.5496
  973SOL     OW 2917   0.214   0.902   1.080  0.6188  0.1026 -0.2502
  973SOL    HW1 2918   0.190   0.905   1.181 -0.6471  1.5149  0.3642
  973SOL    HW2 2919   0.200   0.810   1.044  0.8295 -1.6818  3.2010
  974SOL     OW 2920   2.087   0.656   1.899  0.3244 -0.2367 -0.1051
  974SOL    HW1 2921   2.015   0.703   1.843 -0.3691 -0.3972 -2.4223
  974SOL    HW2 2922   2.170   0.716   1.900 -1.5281  1.5235  1.2767
  975SOL     OW 2923   2.403   0.053   0.166  0.1407  0.5266 -0.4055
  975SOL    HW1 2924   2.318   0.001   0.144  0.1423  1.2456 -1.1148
  975SOL    HW2 2925   2.479   3.096   0.199  0.8450  0.1033 -0.6652
  976SOL     OW 2926   0.189   1.219   1.573  0.4113 -0.3665 -0.1464
  976SOL    HW1 2927   0.240   1.305   1.553  0.3949  2.8262  0.7089
  976SOL    HW2 2928   0.217   1.194   1.667 -0.7841  0.8545  0.9721
  977SOL     OW 2929   1.328   2.620   0.009 -0.0940 -0.6367 -0.6424
  977SOL    HW1 2930   1.379   2.688   0.074  1.1511 -0.5731  2.6232
  977SOL    HW2 2931   1.247   2.582   0.061 -0.6478  0.7068 -0.9460
  978SOL     OW 2932   0.698   1.364   0.231  0.3234  0.0046 -0.1733
  978SOL    HW1 2933   0.760   1.335   0.156  0.7921  1.1635  0.4702
  978SOL    HW2 2934   0.655   1.282   0.269 -1.5042  1.3885 -1.6336
  979SOL     OW 2935   1.620   1.739   1.305 -0.5001 -1.0591 -0.2074
  979SOL    HW1 2936   1.594   1.743   1.404 -1.3675 -0.7960  1.2848
  979SOL    HW2 2937   1.656   1.648   1.278 -1.8670 -1.5092  0.4383
  980SOL     OW 2938   0.420   1.659   1.700 -0.0552 -0.2805 -0.0529
  980SOL    HW1 2939   0.493   1.646   1.764 -1.1310  1.9162 -2.4329
  980SOL    HW2 2940   0.462   1.667   1.608  1.1106  2.6651 -0.3107
  981SOL     OW 2941   0.106   1.557   0.206  0.2306 -0.5325 -0.0307
  981SOL    HW1 2942   0.095   1.510   0.296 -2.1126  1.8782 -0.3441
  981SOL    HW2 2943   0.130   1.656   0.225  0.7175  1.8312  0.7734
  982SOL     OW 2944   2.277   2.632   2.050  0.0716 -0.0217  0.4181
  982SOL    HW1 2945   2.328   2.543   2.049 -1.1450 -1.6037 -0.0918
  982SOL    HW2 2946   2.347   2.702   2.048 -0.4301 -0.0880  0.5349
  983SOL     OW 2947   1.273   0.500   1.240  0.4191  0.3911 -0.2006
  983SOL    HW1 2948   1.296   0.594   1.207  0.1329 -3.8506  1.5061
  983SOL    HW2 2949   1.348   0.435   1.213  1.2415  1.5449  1.1938
  984SOL     OW 2950   1.048   3.035   2.695  0.2596 -0.1481  0.4135
  984SOL    HW1 2951   1.057   0.025   2.742 -0.3252  0.9391 -2.0285
  984SOL    HW2 2952   0.998   3.041   2.603 -1.2447 -0.9843  0.9902
  985SOL     OW 2953   1.741   2.179   1.544 -0.1038 -0.1470  0.2021
  985SOL    HW1 2954   1.776   2.090   1.583  0.4173  2.8169  1.3717
  985SOL    HW2 2955   1.782   2.260   1.594  1.0298  0.7604  0.5178
  986SOL     OW 2956   2.509   0.284   2.390  0.1525 -0.2510  0.3971
  986SOL    HW1 2957   2.447   0.333   2.454 -0.1217 -0.8719 -0.0173
  986SOL    HW2 2958   2.581   0.351   2.361  1.7952 -0.6788  1.6479
  987SOL     OW 2959   2.779   0.721   2.138 -0.3168  0.1406 -0.1132
  987SOL    HW1 2960   2.871   0.718   2.181  2.4663 -0.6537  0.3362
  987SOL    HW2 2961   2.720   0.776   2.194 -0.8625 -1.6237  0.1066
  988SOL     OW 2962   2.451   0.809   2.534  0.7078 -0.1190 -0.2804
  988SOL    HW1 2963   2.358   0.799   2.578 -0.9884 -0.5036 -0.6886
  988SOL    HW2 2964   2.469   0.903   2.546 -0.7760 -3.4379  0.3641
  989SOL     OW 2965   2.388   1.775   2.156 -0.4283  0.4416  0.2867
  989SOL    HW1 2966   2.365   1.800   2.254 -0.3078  0.6904  0.6093
  989SOL    HW2 2967   2.476   1.819   2.125  1.1078 -0.6513 -1.9174
  990SOL     OW 2968   0.314   1.222   2.716 -0.3313  0.6140  0.4570
  990SOL    HW1 2969   0.244   1.244   2.787  0.4112 -1.9889 -0.3806
  990SOL    HW2 2970   0.407   1.230   2.749 -2.3457 -1.3077 -1.0134
  991SOL     OW 2971   0.363   1.992   2.803  0.1582 -0.7298 -0.3278
  991SOL    HW1 2972   0.318   1.917   2.752 -2.4278  3.1993  0.4352
  991SOL    HW2 2973   0.284   2.048   2.846 -5.4425  2.1050  1.0512
  992SOL     OW 2974   2.636   1.812   1.900 -0.2759 -0.4079 -0.4113
  992SOL    HW1 2975   2.590   1.886   1.847 -0.6274 -0.8324  0.9223
  992SOL    HW2 2976   2.648   1.834   1.997 -2.6746 -1.5072  0.7833
  993SOL     OW 2977   0.331   0.077   0.660 -0.4834  0.0374  0.1085
  993SOL    HW1 2978   0.409   0.011   0.663  0.2655 -0.5050 -1.5595
  993SOL    HW2 2979   0.242   0.027   0.661 -0.0628 -1.6306 -0.2711
  994SOL     OW 2980   0.338   1.605   1.367  0.0915  0.0764 -0.4526
  994SOL    HW1 2981   0.356   1.703   1.395  0.4079  1.1412  0.8137
  994SOL    HW2 2982   0.330   1.590   1.270  0.3403  0.4948  4.1999
  995SOL     OW 2983   1.891   1.752   2.865  0.0435 -0.9984  0.3962
  995SOL    HW1 2984   1.822   1.724   2.937 -0.1808  1.3085 -0.6840
  995SOL    HW2 2985   1.969   1.818   2.892  1.9812 -0.5643  2.9331
  996SOL     OW 2986   1.996   1.150   2.691  0.5657 -0.5179 -0.1062
  996SOL    HW1 2987   2.062   1.148   2.768  0.3377  0.3573  0.1459
  996SOL    HW2 2988   1.954   1.239   2.678 -1.8414  1.5053 -0.4636
  997SOL     OW 2989   1.629   0.717   1.692 -0.1692 -0.3005 -0.3406
  997SOL    HW1 2990   1.579   0.801   1.680 -1.2751 -2.7440 -2.4804
  997SOL    HW2 2991   1.641   0.670   1.605 -0.6636 -1.9432  1.8559
  998SOL     OW 2992   2.084   2.106   0.924 -0.7192  0.3375  0.1568
  998SOL    HW1 2993   2.055   2.143   0.836  0.8544 -0.4076 -2.3649
  998SOL    HW2 2994   2.188   2.105   0.929  2.0392  1.6343  1.0660
  999SOL     OW 2995   2.316   2.404   0.591 -0.1623  0.3700 -0.0733
  999SOL    HW1 2996   2.275   2.420   0.685 -2.3535 -0.8464  1.2596
  999SOL    HW2 2997   2.288   2.476   0.525 -1.2489 -0.9020  0.0478
 1000SOL     OW 2998   0.838   3.024   2.983  0.3938  0.0869 -0.1700
 1000SOL    HW1 2999   0.937   3.044   2.998 -0.0866  0.6201  0.2003
 1000SOL    HW2 3000   0.781   3.017   3.070 -1.9199 -1.1575  1.7824
   3.09923   3.09923   3.09923
