1000 SPC/Fw water molecules t= 187.00000 step= 187000
 3000
    1SOL     OW    1   2.641   3.022   1.123  0.4030 -0.7485  0.1701
    1SOL    HW1    2   2.597   0.033   1.123  1.4105  0.7024 -0.4242
    1SOL    HW2    3   2.641   2.992   1.025  0.6070 -0.0069  2.9707
    2SOL     OW    4   1.851   1.585   1.879  0.2035 -0.3970 -0.0459
    2SOL    HW1    5   1.922   1.565   1.948 -2.9314  0.2371  0.0637
    2SOL    HW2    6   1.803   1.677   1.903 -1.3453 -0.1129 -0.0599
    3SOL     OW    7   1.779   2.487   2.163  0.0338 -0.0960  0.4286
    3SOL    HW1    8   1.796   2.585   2.193  0.5499  2.4250  2.4336
    3SOL    HW2    9   1.864   2.429   2.170  0.4876 -1.4405 -1.2246
    4SOL     OW   10   1.870   2.120   2.003  0.0836 -0.4592 -0.1001
    4SOL    HW1   11   1.895   2.191   2.071 -1.3430 -0.1881  0.8177
    4SOL    HW2   12   1.853   2.163   1.910 -1.3987  0.3014 -1.0198
    5SOL     OW   13   1.075   0.566   1.967  0.8011 -0.2399  0.0140
    5SOL    HW1   14   1.116   0.660   1.942  4.5170  1.7276  0.8207
    5SOL    HW2   15   0.973   0.567   1.939 -1.8378 -2.4622  1.6532
    6SOL     OW   16   2.740   0.662   2.985 -0.4471 -0.3148  0.0357
    6SOL    HW1   17   2.738   0.569   3.026 -0.8150  0.7216 -0.9301
    6SOL    HW2   18   2.653   0.714   2.991 -0.6780  1.1772 -1.5779
    7SOL     OW   19   1.063   0.902   1.624  0.2242  0.1201 -0.2149
    7SOL    HW1   20   1.014   0.836   1.564 -1.7511  1.0378 -0.4620
    7SOL    HW2   21   1.129   0.961   1.572  0.1369  1.4639 -1.0324
    8SOL     OW   22   1.364   0.152   0.990  0.0006  0.1249 -0.8073
    8SOL    HW1   23   1.360   0.170   0.890 -0.1286 -0.4272 -0.5940
    8SOL    HW2   24   1.323   0.233   1.040 -0.8730  0.2234 -1.5155
    9SOL     OW   25   0.942   0.940   3.031  0.1983  0.3399 -0.0336
    9SOL    HW1   26   0.960   1.035   3.008 -1.5924  0.2933  1.1293
    9SOL    HW2   27   0.858   0.927   3.084 -0.7551 -2.3792 -2.6332
   10SOL     OW   28   0.215   2.841   0.381  0.1607  0.3005 -0.4038
   10SOL    HW1   29   0.115   2.848   0.370 -1.6989 -0.0117  0.2545
   10SOL    HW2   30   0.255   2.761   0.329 -2.2061  1.0768  0.4398
   11SOL     OW   31   0.501   1.446   3.043  0.4392  0.4167  0.1218
   11SOL    HW1   32   0.520   1.423   2.945 -1.6839 -1.8677 -0.9407
   11SOL    HW2   33   0.413   1.494   3.045 -1.3273 -1.7619 -2.2190
   12SOL     OW   34   0.438   0.183   1.493  0.2799  0.2812  0.0393
   12SOL    HW1   35   0.397   0.106   1.442  0.4898  0.0043 -1.7461
   12SOL    HW2   36   0.404   0.185   1.592  0.4956 -1.2898  3.3264
   13SOL     OW   37   0.824   2.853   0.429 -0.1368  0.3881  0.1962
   13SOL    HW1   38   0.923   2.861   0.460 -0.4068  0.7039  0.7907
   13SOL    HW2   39   0.779   2.774   0.472  0.4626  4.3219 -1.0866
   14SOL     OW   40   1.283   2.204   1.279 -0.1012  0.2732  0.9839
   14SOL    HW1   41   1.198   2.258   1.292 -0.4578  1.7119 -0.3518
   14SOL    HW2   42   1.266   2.102   1.294  0.1664 -2.3573  0.3066
   15SOL     OW   43   2.833   0.584   2.122 -0.5581 -0.1852 -0.2808
   15SOL    HW1   44   2.774   0.581   2.205  0.8119  0.0407 -0.2473
   15SOL    HW2   45   2.869   0.489   2.100  1.0317  0.6531  0.3692
   16SOL     OW   46   1.147   2.854   2.722 -0.0998  0.4612  0.3167
   16SOL    HW1   47   1.175   2.815   2.631  0.6431  0.3992  1.9896
   16SOL    HW2   48   1.226   2.884   2.770 -3.3825 -0.1820  0.5867
   17SOL     OW   49   1.020   2.962   1.424 -0.0981  0.0859 -0.2384
   17SOL    HW1   50   0.936   3.015   1.398 -1.1811  2.1101 -1.7333
   17SOL    HW2   51   1.091   3.009   1.480 -0.9710 -3.0677 -1.3158
   18SOL     OW   52   1.014   0.705   0.412  0.1632 -0.0207 -0.4603
   18SOL    HW1   53   0.921   0.664   0.405  1.0061  3.1520 -0.5750
   18SOL    HW2   54   1.079   0.667   0.343 -0.5759  0.2679  0.5332
   19SOL     OW   55   2.068   1.496   2.790  0.1770  0.8137  0.7559
   19SOL    HW1   56   2.150   1.552   2.779 -1.1174 -2.7287 -0.0917
   19SOL    HW2   57   2.091   1.404   2.826 -3.1282  2.7008  2.2997
   20SOL     OW   58   1.698   1.539   1.527 -0.7371 -0.0903  0.0265
   20SOL    HW1   59   1.790   1.514   1.561  0.2145 -1.2658  1.0944
   20SOL    HW2   60   1.639   1.540   1.609  0.5217  2.0517 -2.4520
   21SOL     OW   61   0.609   1.318   2.775  0.1325 -0.6200  0.1629
   21SOL    HW1   62   0.531   1.387   2.754 -2.0177  1.3945 -1.8340
   21SOL    HW2   63   0.634   1.272   2.688  2.0137 -0.3671  3.0100
   22SOL     OW   64   2.451   0.158   1.364 -0.4749  0.4772  0.0226
   22SOL    HW1   65   2.352   0.173   1.368 -0.4527  3.2188 -1.7240
   22SOL    HW2   66   2.482   0.174   1.268  0.5700  2.1612 -1.6333
   23SOL     OW   67   3.026   0.787   1.512 -0.6346 -1.0182  0.2961
   23SOL    HW1   68   0.022   0.754   1.559 -0.4958  2.1997 -0.5961
   23SOL    HW2   69   3.061   0.824   1.423 -1.5345  0.7350  1.4773
   24SOL     OW   70   2.645   2.203   1.289  0.1914 -0.1902 -0.0743
   24SOL    HW1   71   2.661   2.270   1.213  0.4954 -3.2496 -1.2101
   24SOL    HW2   72   2.553   2.160   1.298  1.0264  0.6589 -0.3193
   25SOL     OW   73   1.883   2.916   2.652 -0.6313  0.1116  0.4846
   25SOL    HW1   74   1.916   2.952   2.559  2.1889 -0.7751  0.7944
   25SOL    HW2   75   1.808   2.845   2.653 -0.4497  3.0483  0.3540
   26SOL     OW   76   1.237   2.860   3.066 -0.1231 -0.3558 -0.5337
   26SOL    HW1   77   1.180   2.780   3.051  0.1664  0.6102 -0.5631
   26SOL    HW2   78   1.332   2.834   0.013  1.7460 -2.3040  1.6251
   27SOL     OW   79   0.665   2.183   2.782 -0.1367  0.4998 -0.0551
   27SOL    HW1   80   0.720   2.101   2.809 -2.4484  1.3645  4.3455
   27SOL    HW2   81   0.566   2.170   2.771  1.0109  0.0221 -2.9001
   28SOL     OW   82   0.018   1.575   1.347 -0.0635 -0.1291 -0.0172
   28SOL    HW1   83   3.081   1.634   1.429 -0.0963  1.6142  1.3648
   28SOL    HW2   84   0.084   1.621   1.286  0.6457 -0.4371  2.4075
   29SOL     OW   85   2.502   2.128   2.104  0.3588 -0.9157  0.3310
   29SOL    HW1   86   2.513   2.034   2.068 -0.2158  2.0187  2.9997
   29SOL    HW2   87   2.519   2.123   2.201 -2.9238  0.1114  0.0311
   30SOL     OW   88   1.297   2.813   0.735  0.5619 -0.5634 -0.7593
   30SOL    HW1   89   1.307   2.714   0.755 -1.0164  0.0046 -1.3544
   30SOL    HW2   90   1.296   2.870   0.821 -1.1833  1.6745  0.7974
   31SOL     OW   91   3.075   2.300   1.750  0.0790 -0.5902 -0.4279
   31SOL    HW1   92   0.023   2.389   1.712 -0.7177  0.2052  1.0856
   31SOL    HW2   93   0.064   2.230   1.757  0.6782 -0.8986 -1.8588
   32SOL     OW   94   1.150   0.805   1.886  0.0696  0.0614 -0.0448
   32SOL    HW1   95   1.124   0.835   1.791 -1.3224  0.4344  0.2981
   32SOL    HW2   96   1.175   0.882   1.947  0.1881 -0.3080  3.0467
   33SOL     OW   97   0.326   2.658   2.417 -0.2962 -0.0573  0.4233
   33SOL    HW1   98   0.227   2.636   2.447  3.1288  1.5362 -0.6691
   33SOL    HW2   99   0.329   2.657   2.311  2.9036  0.4341 -1.9137
   34SOL     OW  100   2.156   0.049   0.823 -0.0214  0.0195 -0.2006
   34SOL    HW1  101   2.202   0.053   0.730 -0.2276  1.0368 -1.3869
   34SOL    HW2  102   2.062   0.019   0.815  5.2110 -0.8691  1.3130
   35SOL     OW  103   2.281   0.735   1.408  0.0065 -0.4466 -0.1601
   35SOL    HW1  104   2.216   0.818   1.394 -1.4834  1.1983 -1.9181
   35SOL    HW2  105   2.368   0.760   1.449 -1.5823 -0.2284 -2.5107
   36SOL     OW  106   2.298   2.535   2.121 -0.2813  0.0440  0.2305
   36SOL    HW1  107   2.277   2.466   2.048 -0.6497  2.7522  1.8084
   36SOL    HW2  108   2.215   2.590   2.132  1.7534  0.4300 -2.0929
   37SOL     OW  109   0.806   2.421   2.189  0.0950 -0.1385 -0.1038
   37SOL    HW1  110   0.865   2.406   2.101  3.1683  2.0229 -1.1106
   37SOL    HW2  111   0.865   2.422   2.276  1.1666  1.1919  2.3526
   38SOL     OW  112   2.494   0.308   3.007 -0.1328 -0.3886 -0.0367
   38SOL    HW1  113   2.585   0.306   3.056  2.0025 -1.6237 -1.2946
   38SOL    HW2  114   2.419   0.306   3.076 -0.7332 -0.2079  1.2657
   39SOL     OW  115   2.014   1.580   1.455  0.2495  0.3176  0.1841
   39SOL    HW1  116   2.096   1.625   1.409 -0.2478 -2.7324 -1.7512
   39SOL    HW2  117   2.004   1.480   1.434  2.4950  2.5275 -1.8917
   40SOL     OW  118   0.195   0.045   2.594  0.0239  0.3795  0.5166
   40SOL    HW1  119   0.105   0.041   2.546  2.5048  0.2686  0.0417
   40SOL    HW2  120   0.245   3.041   2.584 -0.0365 -0.3043  1.8784
   41SOL     OW  121   1.628   0.478   1.185 -0.7167  0.0269 -0.2415
   41SOL    HW1  122   1.637   0.393   1.126 -0.2050  0.0055 -0.9035
   41SOL    HW2  123   1.532   0.508   1.205 -0.8544  0.2024 -0.6995
   42SOL     OW  124   0.814   3.049   1.247  0.3264  0.1237 -0.3638
   42SOL    HW1  125   0.763   0.051   1.278  1.0233  1.0053 -0.7783
   42SOL    HW2  126   0.760   2.985   1.192  0.3587  0.7020 -1.5426
   43SOL     OW  127   2.479   0.980   2.112 -0.4629 -0.5861 -0.0842
   43SOL    HW1  128   2.453   0.903   2.050  1.4770  1.9227 -2.0276
   43SOL    HW2  129   2.583   0.985   2.124  3.4879 -0.2119  0.4072
   44SOL     OW  130   3.034   2.876   0.304 -0.0659 -0.1165  0.0880
   44SOL    HW1  131   2.989   2.935   0.374 -2.5521 -0.2659 -0.6116
   44SOL    HW2  132   3.022   2.929   0.211  1.9830  1.1730 -2.2253
   45SOL     OW  133   0.147   2.459   2.024 -0.4268 -0.3080  0.2407
   45SOL    HW1  134   0.218   2.528   2.004 -0.9638  0.5356 -1.4817
   45SOL    HW2  135   0.071   2.487   1.963 -0.9819 -0.3174  2.2050
   46SOL     OW  136   2.120   2.369   1.951  0.5813 -0.2656  0.3231
   46SOL    HW1  137   2.142   2.267   1.951 -2.5531  0.0595 -0.4677
   46SOL    HW2  138   2.112   2.389   1.851 -1.1824 -2.5624  3.2273
   47SOL     OW  139   1.612   1.975   1.200  0.4212  0.3962  0.0259
   47SOL    HW1  140   1.566   2.054   1.153 -0.8726  2.7527  0.7155
   47SOL    HW2  141   1.711   1.967   1.174  0.5562  0.0703  0.1993
   48SOL     OW  142   0.575   1.715   0.586  0.1243  0.4227  0.1610
   48SOL    HW1  143   0.504   1.696   0.514  0.8560  2.8073  0.2538
   48SOL    HW2  144   0.605   1.808   0.586 -2.2698 -1.7678  0.4629
   49SOL     OW  145   2.895   0.450   2.676 -0.0686 -0.5797  0.2506
   49SOL    HW1  146   2.909   0.435   2.780  0.9421 -1.3079  0.2421
   49SOL    HW2  147   2.805   0.491   2.661 -3.4138 -1.4226 -0.5772
   50SOL     OW  148   2.104   0.916   0.722  0.0575  0.4398  0.2232
   50SOL    HW1  149   2.019   0.955   0.678 -1.2802 -0.9881  0.5488
   50SOL    HW2  150   2.188   0.973   0.711  0.5214  1.0874 -0.3519
   51SOL     OW  151   1.585   0.094   0.790 -0.1130  0.3399  0.3132
   51SOL    HW1  152   1.570   0.021   0.859  2.2975  3.1406  0.3483
   51SOL    HW2  153   1.497   0.126   0.745  0.1978 -1.0405 -1.0790
   52SOL     OW  154   1.291   1.268   0.184 -0.6145  0.3473 -0.1325
   52SOL    HW1  155   1.347   1.187   0.168  2.0873 -2.1123  2.5517
   52SOL    HW2  156   1.329   1.353   0.141  2.6702 -0.8066 -1.8850
   53SOL     OW  157   0.805   1.577   2.618 -0.1918 -0.0065 -0.2603
   53SOL    HW1  158   0.819   1.677   2.616 -1.0953  0.0045  0.4708
   53SOL    HW2  159   0.719   1.560   2.566  2.1842  0.9691  0.9410
   54SOL     OW  160   2.096   0.407   1.223 -0.2633 -0.4913 -0.5196
   54SOL    HW1  161   2.143   0.498   1.220 -1.8100  1.7541  0.4301
   54SOL    HW2  162   2.124   0.337   1.295  1.4632 -0.8912 -0.8450
   55SOL     OW  163   2.355   2.869   0.837 -0.0986 -0.0171  0.2796
   55SOL    HW1  164   2.365   2.967   0.814 -1.4890 -1.9025  2.1368
   55SOL    HW2  165   2.284   2.836   0.773 -0.6310  0.8703  1.3929
   56SOL     OW  166   0.386   2.861   1.564  0.5202  0.4078 -0.3497
   56SOL    HW1  167   0.329   2.936   1.604 -1.5071  0.8253 -0.1641
   56SOL    HW2  168   0.481   2.875   1.597  0.0108  2.2375  1.7246
   57SOL     OW  169   1.534   1.116   0.602  0.2441  0.6692  0.3570
   57SOL    HW1  170   1.440   1.081   0.584 -1.0193 -1.6628 -1.6268
   57SOL    HW2  171   1.557   1.191   0.536  0.4228  0.5177 -0.0764
   58SOL     OW  172   0.136   0.912   2.252 -0.0801 -0.1902 -0.6554
   58SOL    HW1  173   0.157   0.989   2.185  1.0809 -1.4558 -1.0377
   58SOL    HW2  174   0.055   0.856   2.232 -0.6521  0.8503  1.7570
   59SOL     OW  175   1.003   2.681   2.312 -0.6132 -0.3345  0.7835
   59SOL    HW1  176   1.000   2.591   2.357  0.5284 -1.4941  0.4391
   59SOL    HW2  177   0.959   2.755   2.365 -0.1269  2.2662  0.1245
   60SOL     OW  178   2.490   2.658   0.959  0.0229  0.0472  0.2685
   60SOL    HW1  179   2.466   2.734   0.895  1.4044 -2.4922 -2.1338
   60SOL    HW2  180   2.510   2.693   1.055 -1.9252 -0.9287 -0.1674
   61SOL     OW  181   1.009   2.232   0.477  0.3208 -0.4994 -0.1512
   61SOL    HW1  182   0.950   2.318   0.470 -0.5576  0.5773  0.0248
   61SOL    HW2  183   0.975   2.173   0.546  1.2529 -0.5553 -0.4956
   62SOL     OW  184   2.056   2.401   2.678 -0.0253 -0.5152 -0.6436
   62SOL    HW1  185   2.139   2.398   2.738  0.9951  0.5445 -0.8053
   62SOL    HW2  186   2.064   2.480   2.617 -0.7529  0.3381  1.3862
   63SOL     OW  187   2.263   0.691   2.906 -0.0940 -0.2915  0.0262
   63SOL    HW1  188   2.213   0.728   2.985 -2.2565  2.8685 -1.3365
   63SOL    HW2  189   2.199   0.670   2.832  2.6045  0.1043  2.2091
   64SOL     OW  190   0.886   0.599   0.097  0.2002 -0.2141  0.2211
   64SOL    HW1  191   0.989   0.602   0.077  1.9022  0.9378 -2.1688
   64SOL    HW2  192   0.850   0.677   0.151  0.5857 -1.0071 -2.1595
   65SOL     OW  193   1.180   2.017   0.429 -0.5943 -0.1365  0.1842
   65SOL    HW1  194   1.125   2.099   0.461 -0.4321 -1.9169  0.3508
   65SOL    HW2  195   1.143   1.988   0.340 -4.4264  0.8197  4.5667
   66SOL     OW  196   0.824   1.253   1.512  0.2468  0.7246  0.5111
   66SOL    HW1  197   0.849   1.191   1.586  0.0447  0.7882 -1.3105
   66SOL    HW2  198   0.810   1.348   1.534  1.0373  2.3308  0.3217
   67SOL     OW  199   2.254   2.821   2.548  0.0618 -0.3147  0.1920
   67SOL    HW1  200   2.209   2.833   2.639 -1.1441 -1.8396  0.4988
   67SOL    HW2  201   2.248   2.908   2.498  0.1394  0.6565  0.9454
   68SOL     OW  202   0.679   1.550   1.314  0.2765 -0.4645 -0.3499
   68SOL    HW1  203   0.646   1.560   1.415 -0.6571 -0.6138  3.3366
   68SOL    HW2  204   0.775   1.575   1.311 -1.7103 -2.3699  0.3942
   69SOL     OW  205   1.250   2.347   0.180  0.5212  0.3840 -0.4583
   69SOL    HW1  206   1.180   2.418   0.200  1.0693 -0.1608  2.1196
   69SOL    HW2  207   1.344   2.375   0.197 -3.0661  0.1913 -0.4790
   70SOL     OW  208   2.903   1.243   2.689  0.1135 -0.1406  0.2832
   70SOL    HW1  209   2.948   1.221   2.598  0.4229  0.5139  2.2021
   70SOL    HW2  210   2.818   1.179   2.692 -1.3355 -0.3055  0.4959
   71SOL     OW  211   2.805   1.503   2.675 -0.3600 -0.2685 -0.3044
   71SOL    HW1  212   2.877   1.571   2.700  0.6559  1.6366 -1.0718
   71SOL    HW2  213   2.849   1.412   2.683  0.0945  2.1558 -3.5620
   72SOL     OW  214   2.812   2.395   0.411 -0.3912 -0.2476  0.7579
   72SOL    HW1  215   2.874   2.474   0.382 -1.2678  2.9911 -1.3550
   72SOL    HW2  216   2.717   2.420   0.383  0.5995 -0.5856  0.4993
   73SOL     OW  217   0.765   1.658   0.258  0.1258 -0.2231 -0.2676
   73SOL    HW1  218   0.802   1.736   0.319 -0.3726  2.0897  1.8997
   73SOL    HW2  219   0.777   1.673   0.163 -0.7686  1.8326  1.4995
   74SOL     OW  220   2.983   1.303   2.950 -0.0326  0.2887  0.6366
   74SOL    HW1  221   2.943   1.253   3.033  1.1452 -1.3425  1.3969
   74SOL    HW2  222   2.928   1.275   2.869 -0.5314  1.4682 -4.5645
   75SOL     OW  223   1.722   1.359   1.823 -0.3273 -0.1053 -0.0687
   75SOL    HW1  224   1.713   1.322   1.918  0.1640  0.5420  0.7039
   75SOL    HW2  225   1.767   1.451   1.833  1.5578 -2.1151  0.4152
   76SOL     OW  226   1.963   2.389   1.467  0.2009  0.3068  0.0321
   76SOL    HW1  227   1.908   2.323   1.518 -0.4419 -0.7567  0.3853
   76SOL    HW2  228   1.921   2.399   1.373 -1.3535  1.4689  0.7980
   77SOL     OW  229   2.641   0.974   1.078  0.4073  0.3102  0.3723
   77SOL    HW1  230   2.664   0.879   1.114 -0.5392  0.4835  0.3575
   77SOL    HW2  231   2.552   0.976   1.021 -2.5789  0.0671  0.2590
   78SOL     OW  232   1.408   0.810   0.505 -0.3176 -0.2452 -0.2461
   78SOL    HW1  233   1.360   0.902   0.513 -1.1555  0.1298 -0.1707
   78SOL    HW2  234   1.509   0.806   0.521  1.0068 -3.2624 -0.1935
   79SOL     OW  235   0.205   1.645   1.810 -0.5251 -0.0659 -0.2690
   79SOL    HW1  236   0.230   1.546   1.824  0.8143 -1.8316 -0.8713
   79SOL    HW2  237   0.262   1.687   1.736 -2.3850 -2.3647  1.2100
   80SOL     OW  238   1.532   1.067   1.534  0.2175 -0.0812  0.1980
   80SOL    HW1  239   1.596   1.002   1.580  0.9073  0.4432  1.1394
   80SOL    HW2  240   1.572   1.092   1.445 -0.7891 -0.8924  2.7791
   81SOL     OW  241   0.735   2.985   0.783  0.4220 -0.2363 -0.0402
   81SOL    HW1  242   0.643   2.951   0.807  0.6669 -0.7413 -1.6194
   81SOL    HW2  243   0.728   3.014   0.684  0.0049 -0.9983 -0.7873
   82SOL     OW  244   1.642   2.579   1.583 -0.0790 -0.3796  0.4024
   82SOL    HW1  245   1.657   2.578   1.482  0.8898  0.8315  1.3686
   82SOL    HW2  246   1.713   2.527   1.636 -0.0090  1.0168  2.4304
   83SOL     OW  247   0.770   2.243   0.993  0.3160 -0.1549 -0.4193
   83SOL    HW1  248   0.686   2.270   1.043  0.0566 -0.4852  0.5215
   83SOL    HW2  249   0.813   2.156   1.024  0.8454  0.3697 -1.7941
   84SOL     OW  250   0.272   1.354   2.492 -0.0072 -0.4548 -0.2281
   84SOL    HW1  251   0.223   1.264   2.493 -1.7322 -0.0351 -3.7760
   84SOL    HW2  252   0.298   1.385   2.396 -1.1193  1.2078 -3.3967
   85SOL     OW  253   0.188   2.199   1.423 -0.2431  0.9444 -0.1567
   85SOL    HW1  254   0.090   2.199   1.450  0.6371 -0.3047  1.0670
   85SOL    HW2  255   0.224   2.285   1.388  0.0491 -0.3845  0.4287
   86SOL     OW  256   2.568   2.401   1.474  0.1930  0.4702 -0.3348
   86SOL    HW1  257   2.628   2.395   1.558  1.2893  0.4650 -0.0892
   86SOL    HW2  258   2.605   2.352   1.394 -0.5745 -3.7924 -1.2356
   87SOL     OW  259   2.585   2.185   3.085  0.7108 -0.9181 -0.3446
   87SOL    HW1  260   2.558   2.104   0.057 -0.2108  0.2884 -1.2356
   87SOL    HW2  261   2.668   2.164   3.030 -0.4061 -0.6376 -1.6864
   88SOL     OW  262   0.601   1.683   1.040  0.9711 -0.4701 -0.5849
   88SOL    HW1  263   0.656   1.611   1.084 -1.8348  0.6694 -1.8583
   88SOL    HW2  264   0.507   1.693   1.083 -4.0562 -2.5983  1.5768
   89SOL     OW  265   1.081   2.858   1.735  0.0114  0.3899  0.0568
   89SOL    HW1  266   1.140   2.872   1.655 -1.9635  1.3128 -0.8312
   89SOL    HW2  267   1.018   2.940   1.753 -0.9868  1.9167 -0.4759
   90SOL     OW  268   3.067   1.754   1.547 -0.6857  0.1674 -0.4053
   90SOL    HW1  269   2.983   1.735   1.598  2.5899 -0.2409 -3.0402
   90SOL    HW2  270   0.039   1.796   1.620 -2.5872 -0.3248 -0.3284
   91SOL     OW  271   1.273   1.990   0.687 -0.0508 -0.0495 -0.0421
   91SOL    HW1  272   1.200   1.941   0.738  1.9047 -1.3257  2.0909
   91SOL    HW2  273   1.252   1.998   0.587 -0.9837 -0.6537  0.8775
   92SOL     OW  274   2.447   2.825   1.482 -0.3954 -0.2773  0.4607
   92SOL    HW1  275   2.484   2.830   1.577 -2.8187  0.7105 -2.6363
   92SOL    HW2  276   2.477   2.908   1.435  2.3698 -0.3741  3.1916
   93SOL     OW  277   2.547   1.424   2.680 -0.2349 -0.1864  1.0152
   93SOL    HW1  278   2.524   1.340   2.620 -0.7572 -0.7855  0.8960
   93SOL    HW2  279   2.648   1.440   2.687  1.1921 -1.1862  1.2682
   94SOL     OW  280   2.733   2.704   2.493  0.6748 -0.0496  0.1759
   94SOL    HW1  281   2.768   2.660   2.409  2.0433 -2.2206 -0.5450
   94SOL    HW2  282   2.641   2.664   2.517 -0.2748  1.1901  0.2192
   95SOL     OW  283   1.819   0.263   1.742  0.0231 -0.3028  0.1866
   95SOL    HW1  284   1.849   0.294   1.648  1.1284 -0.6547 -0.7705
   95SOL    HW2  285   1.785   0.170   1.738 -0.2561  1.5504 -1.3076
   96SOL     OW  286   3.031   2.981   1.581  0.4384 -0.5697  0.2111
   96SOL    HW1  287   3.038   3.046   1.500  2.1952  0.8148 -1.2792
   96SOL    HW2  288   2.955   2.916   1.566 -0.8215 -1.6933 -2.1087
   97SOL     OW  289   2.235   0.352   1.625  0.2871 -0.5620 -0.6853
   97SOL    HW1  290   2.332   0.366   1.601  0.8941  0.3341  0.6650
   97SOL    HW2  291   2.228   0.320   1.723 -1.5596 -0.8448 -2.3676
   98SOL     OW  292   1.269   2.263   1.541  0.3843  0.1214 -0.2023
   98SOL    HW1  293   1.302   2.356   1.571  0.9893  3.0320  1.0326
   98SOL    HW2  294   1.298   2.238   1.447  0.3815  0.0098 -3.0252
   99SOL     OW  295   0.011   2.844   1.958  0.6400 -0.3004  0.2850
   99SOL    HW1  296   0.082   2.827   1.887  1.1730  1.9337 -0.8556
   99SOL    HW2  297   0.062   2.835   2.048  0.4583  0.1087 -1.4294
  100SOL     OW  298   0.056   1.409   2.095  0.2958  0.1784  1.2437
  100SOL    HW1  299   0.030   1.447   2.004  3.6828  0.5556 -0.3026
  100SOL    HW2  300   3.074   1.430   2.166  0.9493  1.1097 -2.2807
  101SOL     OW  301   1.950   0.845   0.413  0.0633  0.2070  0.5687
  101SOL    HW1  302   2.049   0.859   0.415 -2.7819 -1.0736  0.3461
  101SOL    HW2  303   1.893   0.933   0.407  1.8685  2.2072 -0.7217
  102SOL     OW  304   0.155   0.577   1.031 -0.3531 -0.5595 -0.6558
  102SOL    HW1  305   0.065   0.601   0.989  2.1576  0.6526  0.5897
  102SOL    HW2  306   0.208   0.663   1.051  1.3681  0.8777  2.4564
  103SOL     OW  307   2.370   0.837   2.718  0.3531 -0.1183  0.7036
  103SOL    HW1  308   2.331   0.806   2.808 -1.3305  2.2499 -1.6672
  103SOL    HW2  309   2.426   0.922   2.735 -1.0320  3.1667  0.5551
  104SOL     OW  310   0.231   0.220   2.349 -0.0705 -0.0354 -0.1763
  104SOL    HW1  311   0.288   0.286   2.299 -2.4762 -1.7569 -1.4951
  104SOL    HW2  312   0.258   0.231   2.449  2.4893 -0.6249  2.4113
  105SOL     OW  313   2.001   0.926   1.602  0.0463 -0.7010 -0.2706
  105SOL    HW1  314   1.996   0.837   1.643  2.5843  4.1262  0.1910
  105SOL    HW2  315   1.920   0.983   1.631 -2.4391 -2.2723 -0.0856
  106SOL     OW  316   1.090   2.897   0.534 -0.4207  0.2827  0.1774
  106SOL    HW1  317   1.080   2.996   0.557 -0.0868 -0.3922  0.2986
  106SOL    HW2  318   1.129   2.840   0.608  0.2424  0.0298  2.1040
  107SOL     OW  319   0.390   1.636   1.212 -0.1429 -0.2164 -0.2313
  107SOL    HW1  320   0.297   1.676   1.211  0.7288  1.4487 -1.5271
  107SOL    HW2  321   0.387   1.537   1.223  0.5913 -2.0867 -2.2925
  108SOL     OW  322   0.311   3.025   2.315  0.2630  0.2792  0.1976
  108SOL    HW1  323   0.331   2.989   2.405  0.7138  0.4954 -0.9426
  108SOL    HW2  324   0.268   0.034   2.326 -0.5291  1.0942 -1.1919
  109SOL     OW  325   2.372   0.077   0.515  0.4540  0.1803  0.0926
  109SOL    HW1  326   2.284   0.067   0.462 -1.5253  1.9141 -0.4816
  109SOL    HW2  327   2.427   0.152   0.470 -1.7222  0.7867  1.9537
  110SOL     OW  328   0.290   2.164   2.469  0.3437  0.6609 -0.3489
  110SOL    HW1  329   0.267   2.210   2.378 -1.8304 -2.1881 -3.0632
  110SOL    HW2  330   0.349   2.223   2.528 -0.0302 -0.0901  0.4470
  111SOL     OW  331   1.583   2.965   2.248 -0.1750 -0.4835  0.4510
  111SOL    HW1  332   1.576   2.913   2.158 -0.9761  2.9160 -0.7504
  111SOL    HW2  333   1.643   3.047   2.234  0.9071 -3.1757  1.1400
  112SOL     OW  334   1.861   2.236   2.848  0.9368  0.1946  0.2172
  112SOL    HW1  335   1.811   2.166   2.800  0.5498  1.3700 -0.3590
  112SOL    HW2  336   1.880   2.312   2.779  2.8025  1.7500 -1.3405
  113SOL     OW  337   2.537   2.280   1.860 -0.3726  0.1349 -0.3222
  113SOL    HW1  338   2.488   2.256   1.942  1.7684  0.3994  1.7608
  113SOL    HW2  339   2.578   2.195   1.817  0.6259 -1.7319 -0.2554
  114SOL     OW  340   2.428   0.955   0.942  0.0127 -0.2335 -0.0932
  114SOL    HW1  341   2.345   0.897   0.958  1.1351  2.5495 -1.3838
  114SOL    HW2  342   2.407   1.018   0.870  0.7963 -1.2630  0.9099
  115SOL     OW  343   3.015   1.671   2.748  0.4865 -0.3988  0.4323
  115SOL    HW1  344   3.052   1.733   2.674  0.5822  2.7087 -3.0505
  115SOL    HW2  345   0.002   1.638   2.808 -1.5186 -0.3061 -1.6368
  116SOL     OW  346   0.272   1.442   2.215 -0.4161 -0.3452 -0.3324
  116SOL    HW1  347   0.189   1.424   2.164  1.4588 -0.3954  3.4942
  116SOL    HW2  348   0.351   1.451   2.156 -2.8205 -0.8660  0.0441
  117SOL     OW  349   2.562   0.280   0.828 -0.2460 -0.1669 -0.0552
  117SOL    HW1  350   2.641   0.220   0.815 -0.9432  0.6494  1.7515
  117SOL    HW2  351   2.546   0.349   0.752  0.3768  1.5347  0.6553
  118SOL     OW  352   0.991   1.979   1.820 -0.3964  0.6357 -0.5475
  118SOL    HW1  353   1.073   1.938   1.869  0.2418 -0.1241 -1.8132
  118SOL    HW2  354   1.020   2.041   1.745  0.1957  1.3965  0.3871
  119SOL     OW  355   1.467   2.023   0.091 -0.2350  0.1034 -0.0064
  119SOL    HW1  356   1.537   2.072   0.032  0.0305 -1.8348  0.6749
  119SOL    HW2  357   1.375   2.049   0.051  0.6517  0.0220  3.0617
  120SOL     OW  358   0.439   1.733   2.364 -0.3532  0.3567 -0.2697
  120SOL    HW1  359   0.338   1.733   2.381 -1.0442 -1.6595  1.3818
  120SOL    HW2  360   0.467   1.697   2.272 -2.0349 -2.0334  0.0987
  121SOL     OW  361   2.254   2.268   1.104  0.4500 -0.0143 -0.0330
  121SOL    HW1  362   2.252   2.281   1.206  0.8143 -1.8438 -0.7015
  121SOL    HW2  363   2.209   2.343   1.047 -1.3297 -0.3801 -2.0270
  122SOL     OW  364   2.238   2.137   2.023 -0.0616 -0.6630  0.5614
  122SOL    HW1  365   2.191   2.043   2.008  0.4205  2.9236 -0.0060
  122SOL    HW2  366   2.331   2.121   2.057 -1.4831 -0.0554  1.9706
  123SOL     OW  367   2.822   0.122   0.803 -0.0745 -0.1374  0.1979
  123SOL    HW1  368   2.908   0.144   0.855 -0.8868 -2.5315 -1.0070
  123SOL    HW2  369   2.790   0.030   0.827  0.3648  0.6020  0.7598
  124SOL     OW  370   1.801   0.500   2.550  0.1750  0.5902  0.3215
  124SOL    HW1  371   1.792   0.544   2.458  1.0899  1.7826 -0.5095
  124SOL    HW2  372   1.714   0.447   2.567  2.4806 -3.0794  0.7890
  125SOL     OW  373   0.447   1.324   0.184  0.4168 -0.5856 -0.1065
  125SOL    HW1  374   0.502   1.362   0.101  2.8834 -0.4284  0.4110
  125SOL    HW2  375   0.349   1.308   0.156 -0.1389  0.6193  1.1885
  126SOL     OW  376   2.543   2.079   0.281 -0.3421  0.5341 -0.2545
  126SOL    HW1  377   2.592   2.079   0.370 -0.5021 -0.2160 -0.6452
  126SOL    HW2  378   2.444   2.113   0.291 -1.9284  1.4212 -1.2535
  127SOL     OW  379   0.148   1.742   1.196  0.0266 -0.1661 -0.1553
  127SOL    HW1  380   0.173   1.843   1.215 -1.8638  3.3094 -1.1904
  127SOL    HW2  381   0.078   1.739   1.121 -2.0050 -0.0798  0.4966
  128SOL     OW  382   0.753   0.576   2.946 -0.2919  0.2059 -0.0168
  128SOL    HW1  383   0.811   0.567   3.028 -3.0187  0.3739 -1.8413
  128SOL    HW2  384   0.678   0.648   2.954  2.7249 -1.6881 -0.5223
  129SOL     OW  385   2.314   1.679   0.996 -0.4430  0.2001 -0.5790
  129SOL    HW1  386   2.243   1.615   1.030  0.9294 -1.6250 -0.1818
  129SOL    HW2  387   2.278   1.750   0.932 -4.0167 -0.4361  3.5278
  130SOL     OW  388   2.350   1.870   1.182 -0.1376 -0.1830 -0.2109
  130SOL    HW1  389   2.341   1.826   1.094 -0.1249  0.8615  0.4425
  130SOL    HW2  390   2.303   1.812   1.252  0.3675 -0.0220  2.7418
  131SOL     OW  391   2.808   0.938   3.003 -0.5429  0.4760 -0.8219
  131SOL    HW1  392   2.801   0.847   3.043 -0.2918 -0.1119  0.2964
  131SOL    HW2  393   2.882   0.939   2.935  0.0734 -1.0505  1.9015
  132SOL     OW  394   2.643   2.020   1.773  0.2052  0.1754 -0.5057
  132SOL    HW1  395   2.727   2.073   1.807  4.3738  0.5625  1.5603
  132SOL    HW2  396   2.594   1.971   1.849 -0.4020  0.7278 -1.8264
  133SOL     OW  397   0.035   1.298   0.743 -0.3972  0.6209  0.4504
  133SOL    HW1  398   0.094   1.341   0.669  0.6757  4.1163 -1.9682
  133SOL    HW2  399   0.055   1.348   0.829 -0.4840 -0.4748 -0.4736
  134SOL     OW  400   0.246   1.002   0.031  0.3155  0.1985  0.1280
  134SOL    HW1  401   0.194   0.916   0.025  0.2874 -0.1342 -0.8303
  134SOL    HW2  402   0.277   1.031   3.024 -0.2381 -1.0622  0.7447
  135SOL     OW  403   2.023   1.277   1.119  0.1916 -0.4279  0.6493
  135SOL    HW1  404   1.957   1.283   1.203  0.5541  0.7223  0.6466
  135SOL    HW2  405   1.987   1.215   1.046 -0.4557  0.6264 -2.9497
  136SOL     OW  406   1.904   1.092   0.947 -0.2480 -0.0598 -0.1724
  136SOL    HW1  407   1.915   1.008   1.013  0.8001 -0.2520  0.3303
  136SOL    HW2  408   1.921   1.076   0.849 -0.6608  0.0070  1.2938
  137SOL     OW  409   2.550   1.847   0.762 -0.5026  0.2405  0.5495
  137SOL    HW1  410   2.592   1.890   0.842  0.5316 -0.9570 -1.7140
  137SOL    HW2  411   2.614   1.849   0.683 -0.2555  0.0209 -0.7489
  138SOL     OW  412   1.603   0.645   1.974 -0.1934  0.8619  0.0886
  138SOL    HW1  413   1.554   0.566   2.021  0.0403  0.7810 -0.1108
  138SOL    HW2  414   1.706   0.629   1.981  2.2463  1.2745  0.2336
  139SOL     OW  415   2.250   0.069   0.083  0.4851 -0.2921  0.6656
  139SOL    HW1  416   2.257   0.013   3.082 -0.0751  0.6184 -0.7902
  139SOL    HW2  417   2.216   0.156   0.054 -0.7739 -2.4843  0.6806
  140SOL     OW  418   1.495   2.218   2.430  0.2921 -0.3027 -0.3343
  140SOL    HW1  419   1.470   2.265   2.516  0.6996  2.8777  1.1733
  140SOL    HW2  420   1.559   2.145   2.453 -0.7761 -2.0505  1.2804
  141SOL     OW  421   1.729   1.527   1.247  0.0719 -0.4029 -0.3710
  141SOL    HW1  422   1.723   1.576   1.337 -1.5013 -0.0935 -0.0357
  141SOL    HW2  423   1.638   1.522   1.200 -0.3393  0.1726 -2.7911
  142SOL     OW  424   2.721   0.218   0.113 -0.0460 -0.1529  0.0475
  142SOL    HW1  425   2.811   0.185   0.148 -1.5539 -1.7553  0.4189
  142SOL    HW2  426   2.646   0.154   0.139 -0.1721 -2.7346 -0.0990
  143SOL     OW  427   0.500   2.447   2.837 -0.5230  0.5607 -0.4139
  143SOL    HW1  428   0.427   2.508   2.869 -1.2113 -0.6785 -2.4799
  143SOL    HW2  429   0.584   2.503   2.808 -1.7737  1.7254  0.9974
  144SOL     OW  430   0.760   2.673   1.850  0.2013  0.5394 -0.1721
  144SOL    HW1  431   0.766   2.581   1.800  0.7818 -1.1258 -3.4983
  144SOL    HW2  432   0.734   2.753   1.791 -0.0251  3.7926  0.5619
  145SOL     OW  433   2.308   1.303   0.270  0.0060 -0.0980 -0.1217
  145SOL    HW1  434   2.267   1.280   0.362 -0.2333 -1.1461  1.0514
  145SOL    HW2  435   2.242   1.344   0.199 -3.1836 -1.2173 -0.1314
  146SOL     OW  436   2.698   2.952   2.862 -0.0249  0.2610 -0.1508
  146SOL    HW1  437   2.626   3.020   2.851  0.9784  0.1398 -0.4144
  146SOL    HW2  438   2.712   2.929   2.961 -0.5980 -0.6146  0.9534
  147SOL     OW  439   2.836   2.766   1.112 -0.0146  0.5870 -0.1140
  147SOL    HW1  440   2.886   2.733   1.192 -0.0336 -1.4129 -0.4299
  147SOL    HW2  441   2.737   2.746   1.126 -0.0799  0.9456 -1.3433
  148SOL     OW  442   1.749   3.051   0.126  0.0152  0.0429  0.3415
  148SOL    HW1  443   1.699   3.018   0.208  0.2150  1.8815 -3.6358
  148SOL    HW2  444   1.781   2.969   0.073  1.7737  0.3508  0.0330
  149SOL     OW  445   0.961   0.709   2.839 -0.1500 -0.1651  0.1605
  149SOL    HW1  446   0.885   0.642   2.865 -2.1539  0.0026  1.7387
  149SOL    HW2  447   0.996   0.760   2.923 -0.4402 -1.0649  0.9341
  150SOL     OW  448   0.839   2.542   0.374  0.2779  0.0481  0.3433
  150SOL    HW1  449   0.758   2.560   0.314 -1.1538  2.1569 -0.0149
  150SOL    HW2  450   0.819   2.583   0.466  1.7391  1.4215  2.1806
  151SOL     OW  451   0.055   1.903   3.066  0.0865  0.0194 -0.1060
  151SOL    HW1  452   0.069   1.801   3.072 -2.2809 -1.7507 -0.2925
  151SOL    HW2  453   0.044   1.947   2.979 -1.9363 -1.1014  1.9878
  152SOL     OW  454   0.232   1.444   0.570  0.5505 -0.2734  0.4677
  152SOL    HW1  455   0.321   1.406   0.534 -1.2314 -1.8146 -3.5752
  152SOL    HW2  456   0.246   1.488   0.661 -0.3690 -2.6313 -2.6383
  153SOL     OW  457   2.432   2.621   0.091 -0.5805 -0.1090  0.5906
  153SOL    HW1  458   2.507   2.553   0.105  0.2018  1.6051  0.7550
  153SOL    HW2  459   2.339   2.582   0.100  2.5519  3.4984  1.7263
  154SOL     OW  460   0.842   0.427   1.244 -0.5100  0.1009  0.3508
  154SOL    HW1  461   0.757   0.467   1.274  2.7284  1.9284 -1.6707
  154SOL    HW2  462   0.868   0.354   1.310  0.4998  1.7823 -0.9178
  155SOL     OW  463   3.063   2.010   1.115  0.0269 -0.1907 -0.4901
  155SOL    HW1  464   3.068   1.934   1.049 -0.4472  1.0660  2.4476
  155SOL    HW2  465   3.028   1.983   1.208 -1.2194 -1.1138  0.9653
  156SOL     OW  466   2.064   2.043   3.050 -1.0255  0.4892 -0.2204
  156SOL    HW1  467   2.111   1.980   0.027  0.4025  3.6460 -0.0121
  156SOL    HW2  468   2.129   2.111   3.014  1.9783 -0.7648  0.7077
  157SOL     OW  469   0.814   2.594   0.863 -0.3090 -0.6978 -0.2226
  157SOL    HW1  470   0.828   2.499   0.829 -1.8099  2.4682  2.6401
  157SOL    HW2  471   0.778   2.588   0.958 -0.9980  0.2870 -0.1487
  158SOL     OW  472   2.403   0.457   2.817  0.4098 -0.1444  0.3786
  158SOL    HW1  473   2.440   0.404   2.897 -2.2249  2.1766 -0.2155
  158SOL    HW2  474   2.387   0.555   2.838 -1.9744 -2.4672  0.5109
  159SOL     OW  475   0.613   0.135   2.503  0.0498 -0.5870  0.3261
  159SOL    HW1  476   0.638   0.162   2.597  2.6083  1.4626 -2.1392
  159SOL    HW2  477   0.698   0.120   2.450  0.7181 -0.8576 -0.0848
  160SOL     OW  478   0.860   1.925   0.006 -0.3346  0.0394 -0.0274
  160SOL    HW1  479   0.855   1.823   0.003  2.2907  1.0363 -1.2030
  160SOL    HW2  480   0.831   1.953   2.999 -1.7905  1.5818 -0.3945
  161SOL     OW  481   3.022   2.280   2.940  0.2249 -0.0781 -0.5157
  161SOL    HW1  482   2.987   2.368   2.977 -0.0913 -1.0413  1.4561
  161SOL    HW2  483   2.947   2.212   2.928 -3.1060  0.2532  0.6864
  162SOL     OW  484   0.387   2.697   0.850  0.1948  0.1754  0.5856
  162SOL    HW1  485   0.431   2.652   0.928  1.7257  2.1576 -0.5018
  162SOL    HW2  486   0.286   2.684   0.857 -0.2137 -2.2983  0.8415
  163SOL     OW  487   2.473   0.684   0.014  0.2942  0.2323  0.0705
  163SOL    HW1  488   2.482   0.602   0.075  2.0871 -2.4114 -0.6799
  163SOL    HW2  489   2.403   0.656   3.029  2.4803  1.4198 -0.9013
  164SOL     OW  490   3.085   2.661   0.570  0.3156  0.6079 -0.3318
  164SOL    HW1  491   3.017   2.634   0.496 -0.1805 -2.1255 -2.2168
  164SOL    HW2  492   3.049   2.735   0.632 -0.9837 -2.3759  1.0421
  165SOL     OW  493   2.507   0.480   1.302  0.2443 -0.0711  0.2156
  165SOL    HW1  494   2.478   0.483   1.401  0.6784  1.0295 -0.2971
  165SOL    HW2  495   2.440   0.524   1.243  1.4064  2.3058 -0.2025
  166SOL     OW  496   2.139   0.311   0.932 -0.3292  0.2509 -0.3882
  166SOL    HW1  497   2.154   0.212   0.934  1.3235  2.9102  1.2240
  166SOL    HW2  498   2.131   0.335   1.031  0.0554 -3.2577 -0.2898
  167SOL     OW  499   0.539   0.467   1.329  0.7638  0.6962 -0.7080
  167SOL    HW1  500   0.459   0.459   1.399  0.9312  0.1941 -0.3851
  167SOL    HW2  501   0.519   0.406   1.250  0.0448  1.3141 -1.6382
  168SOL     OW  502   2.621   2.918   2.372  0.1772 -0.6629 -0.2291
  168SOL    HW1  503   2.636   2.827   2.415 -1.3370  1.0401 -1.7878
  168SOL    HW2  504   2.642   2.988   2.442 -0.0628 -1.0001 -0.0276
  169SOL     OW  505   0.006   1.675   0.759  0.1323  0.2237 -0.3350
  169SOL    HW1  506   0.005   1.711   0.668  0.6518 -4.6400  1.6802
  169SOL    HW2  507   0.091   1.630   0.785 -2.0397  2.4578 -0.9815
  170SOL     OW  508   2.761   0.711   1.388 -0.1472  0.3590  0.3240
  170SOL    HW1  509   2.804   0.619   1.380  0.2959  0.3842  1.0662
  170SOL    HW2  510   2.816   0.771   1.451 -1.7080 -1.6879  0.0620
  171SOL     OW  511   1.029   2.140   1.598 -0.7329 -0.1603  0.3011
  171SOL    HW1  512   1.115   2.192   1.588 -1.7889 -0.8355  2.9933
  171SOL    HW2  513   0.949   2.188   1.558 -0.5880 -1.0267 -0.6485
  172SOL     OW  514   0.397   2.516   1.107  0.5114 -0.3736 -0.6190
  172SOL    HW1  515   0.399   2.411   1.092 -1.0621  2.3689  1.3629
  172SOL    HW2  516   0.301   2.556   1.102 -2.2083  1.4537  1.1460
  173SOL     OW  517   1.135   3.044   0.157  0.2212  0.3128 -0.2236
  173SOL    HW1  518   1.160   2.982   0.082 -1.3317 -2.6891 -0.4584
  173SOL    HW2  519   1.195   0.039   0.159 -0.4825 -1.3395  0.2215
  174SOL     OW  520   0.925   2.648   2.686  0.0703  0.5007  0.2012
  174SOL    HW1  521   1.004   2.678   2.739  1.0637  0.6917  0.4004
  174SOL    HW2  522   0.906   2.551   2.679 -0.0542  3.7450  1.5586
  175SOL     OW  523   1.492   0.618   0.289 -0.3265  0.1663  0.2555
  175SOL    HW1  524   1.582   0.571   0.318  1.6678  1.0006  2.5336
  175SOL    HW2  525   1.465   0.699   0.350  1.3053  0.3445 -1.1338
  176SOL     OW  526   1.359   0.171   0.173  0.0943 -0.0980 -0.3778
  176SOL    HW1  527   1.459   0.184   0.171 -2.1919  0.4540  0.2022
  176SOL    HW2  528   1.326   0.143   0.266  0.4695 -0.9535 -2.2537
  177SOL     OW  529   1.386   0.970   0.954 -0.1401 -0.9104  0.4616
  177SOL    HW1  530   1.428   1.057   0.934  1.1947 -2.8610 -2.5956
  177SOL    HW2  531   1.287   0.974   0.977  2.2696 -1.0804  1.1351
  178SOL     OW  532   2.182   1.700   2.037 -0.2783  0.0255 -0.7122
  178SOL    HW1  533   2.256   1.668   1.979 -0.4047  1.4448  1.9191
  178SOL    HW2  534   2.118   1.627   2.057  3.6828  0.3526  1.7278
  179SOL     OW  535   0.666   2.657   2.714 -0.4536  0.0017  0.1774
  179SOL    HW1  536   0.764   2.680   2.728 -0.1184 -1.9680  1.9222
  179SOL    HW2  537   0.646   2.630   2.615  3.6267  1.4555  2.0872
  180SOL     OW  538   1.509   1.861   1.662  0.4526 -0.1357  0.2437
  180SOL    HW1  539   1.533   1.768   1.696 -1.6724 -1.3994  1.1156
  180SOL    HW2  540   1.570   1.892   1.585 -2.2676  2.0853 -0.9207
  181SOL     OW  541   1.478   1.187   2.432 -0.3418 -0.0187  0.4291
  181SOL    HW1  542   1.457   1.194   2.533  1.2156  0.9296 -0.4153
  181SOL    HW2  543   1.391   1.164   2.381 -0.3138  1.5629 -0.0659
  182SOL     OW  544   0.004   0.572   2.475 -0.5856  0.9082 -0.4591
  182SOL    HW1  545   3.031   0.526   2.547 -2.8489 -0.8510  3.9175
  182SOL    HW2  546   0.099   0.579   2.517 -0.9793 -0.3168 -0.9231
  183SOL     OW  547   1.157   0.222   2.670  0.9017 -0.0383  0.6470
  183SOL    HW1  548   1.231   0.288   2.640  0.2652 -0.9420 -0.8945
  183SOL    HW2  549   1.073   0.270   2.701  0.7750  0.0029  0.5762
  184SOL     OW  550   1.177   0.657   1.458  0.3766  0.6526 -0.0414
  184SOL    HW1  551   1.084   0.635   1.489  2.2630 -0.6786 -1.9215
  184SOL    HW2  552   1.181   0.729   1.386 -1.4263  0.0508  0.8574
  185SOL     OW  553   0.066   1.418   1.016  0.2462  0.1569 -0.4111
  185SOL    HW1  554   3.060   1.420   1.065 -1.2780  3.0207  0.5621
  185SOL    HW2  555   0.140   1.380   1.079  1.9418  1.0507 -0.3303
  186SOL     OW  556   0.376   1.720   2.796 -0.0074  0.1548 -0.2974
  186SOL    HW1  557   0.452   1.759   2.853 -1.7687  0.1042 -1.6637
  186SOL    HW2  558   0.354   1.785   2.721  1.0151 -0.0841 -3.6096
  187SOL     OW  559   2.537   1.166   0.304 -0.1340  0.3897 -0.8309
  187SOL    HW1  560   2.582   1.147   0.216  0.3806 -0.4726 -0.2467
  187SOL    HW2  561   2.440   1.192   0.292  2.4941 -1.6549  0.7048
  188SOL     OW  562   0.209   2.485   0.500  0.3809  0.0314  0.0349
  188SOL    HW1  563   0.187   2.409   0.435  1.5923 -1.7298 -1.7988
  188SOL    HW2  564   0.131   2.545   0.532  2.1539  0.8496 -1.8849
  189SOL     OW  565   2.530   0.923   0.152 -0.6029 -0.2225  0.2756
  189SOL    HW1  566   2.522   0.834   0.105 -3.3711  1.1978  0.4013
  189SOL    HW2  567   2.620   0.927   0.199  0.0196  2.3107  1.3687
  190SOL     OW  568   1.494   1.536   2.045  0.0228  0.3375 -0.3668
  190SOL    HW1  569   1.530   1.493   2.133  0.8316 -0.5083 -0.2231
  190SOL    HW2  570   1.480   1.640   2.061 -0.9939 -1.1909  0.2426
  191SOL     OW  571   2.488   0.416   1.570 -0.0377 -0.7607  0.6129
  191SOL    HW1  572   2.557   0.351   1.604  1.6905  1.0169 -0.9572
  191SOL    HW2  573   2.505   0.510   1.613  0.8890 -0.7682 -0.5865
  192SOL     OW  574   2.219   0.283   1.877  0.0112  0.3972 -0.1558
  192SOL    HW1  575   2.203   0.189   1.917 -2.1948  2.4747 -1.1742
  192SOL    HW2  576   2.308   0.322   1.917 -0.3710  1.5580 -1.5695
  193SOL     OW  577   0.761   0.576   0.415 -0.2162  0.1342 -0.0025
  193SOL    HW1  578   0.768   0.519   0.499  2.6870  1.1455  1.6128
  193SOL    HW2  579   0.675   0.627   0.415  1.0132 -1.1638  0.3794
  194SOL     OW  580   1.109   2.874   1.163  0.0757  0.4548 -0.6899
  194SOL    HW1  581   1.049   2.901   1.086  1.1180 -1.4602 -1.5468
  194SOL    HW2  582   1.078   2.914   1.252  2.7522  0.7312  0.2309
  195SOL     OW  583   2.181   0.841   0.977  0.1218  0.1142  0.0168
  195SOL    HW1  584   2.142   0.868   0.884 -2.8910 -2.0152 -0.4767
  195SOL    HW2  585   2.113   0.875   1.045  1.9928 -1.3568 -0.8822
  196SOL     OW  586   1.716   1.827   1.926 -0.0513 -0.2767 -0.1727
  196SOL    HW1  587   1.731   1.924   1.907 -0.6837 -1.6964 -1.6039
  196SOL    HW2  588   1.624   1.820   1.977 -0.9073  1.9971 -2.0451
  197SOL     OW  589   0.113   0.066   0.276 -0.0051 -0.3357 -0.4339
  197SOL    HW1  590   0.160   0.103   0.363  0.3285  0.6985  0.0445
  197SOL    HW2  591   0.188   0.036   0.215 -2.4150 -0.3330  0.8498
  198SOL     OW  592   1.136   1.076   0.741  0.1569 -0.4760 -0.3316
  198SOL    HW1  593   1.155   1.168   0.784  5.1247 -0.4972 -1.7319
  198SOL    HW2  594   1.105   1.006   0.804 -0.6067  2.1808 -0.8001
  199SOL     OW  595   0.146   0.931   1.876 -0.3576 -0.2535  0.8262
  199SOL    HW1  596   0.127   0.850   1.937  0.9290 -2.2280  2.2602
  199SOL    HW2  597   0.214   0.995   1.917 -0.4761  0.7371  2.0795
  200SOL     OW  598   2.602   2.132   2.640 -0.2800  0.1668  0.0785
  200SOL    HW1  599   2.525   2.123   2.706  1.1805  3.6643 -2.7865
  200SOL    HW2  600   2.668   2.203   2.675  0.4023 -0.1947 -2.1306
  201SOL     OW  601   2.492   0.155   1.084 -0.2745 -0.2064 -0.1094
  201SOL    HW1  602   2.521   0.196   0.990 -0.7198  0.0575 -1.3181
  201SOL    HW2  603   2.399   0.112   1.076 -0.8870  0.5358 -1.9132
  202SOL     OW  604   2.362   0.699   0.429 -0.2671  0.0500  0.1447
  202SOL    HW1  605   2.341   0.707   0.527  3.4968  2.3319 -3.8411
  202SOL    HW2  606   2.414   0.774   0.397 -2.3331 -3.2183 -0.2384
  203SOL     OW  607   1.728   2.003   2.216 -0.8257 -0.0444  0.4255
  203SOL    HW1  608   1.782   2.033   2.135  1.6528  0.4235  1.9624
  203SOL    HW2  609   1.628   2.027   2.216  0.1378  0.0747  0.4354
  204SOL     OW  610   0.948   1.810   2.228  0.0906 -0.5320  0.1967
  204SOL    HW1  611   0.937   1.724   2.281 -0.9429  0.7874  0.2846
  204SOL    HW2  612   1.037   1.852   2.229 -0.9484 -0.9045 -1.5200
  205SOL     OW  613   1.033   1.874   1.518 -0.0912 -0.2375 -0.0492
  205SOL    HW1  614   1.024   1.964   1.566  1.9640  1.1118 -1.7363
  205SOL    HW2  615   1.056   1.793   1.579  0.6913 -2.5343  1.5296
  206SOL     OW  616   3.079   0.538   0.116  0.3084  0.1256  0.2763
  206SOL    HW1  617   2.999   0.493   0.156  0.8936 -0.5501 -1.2101
  206SOL    HW2  618   0.051   0.465   0.067  0.6038  0.3390 -1.8294
  207SOL     OW  619   1.838   2.778   2.192  0.0028 -0.3813  0.1194
  207SOL    HW1  620   1.739   2.793   2.217  0.3315  1.8703  0.1432
  207SOL    HW2  621   1.895   2.852   2.232  2.0717  1.3244  2.0821
  208SOL     OW  622   0.407   2.250   1.582  0.1291  1.0158  0.3798
  208SOL    HW1  623   0.322   2.217   1.532 -1.1735 -0.0463 -0.7444
  208SOL    HW2  624   0.399   2.346   1.606  0.8586  0.0133 -1.2344
  209SOL     OW  625   1.481   0.859   2.729 -0.0889 -0.3686 -0.0365
  209SOL    HW1  626   1.423   0.783   2.763 -1.7661 -0.4732  2.4086
  209SOL    HW2  627   1.509   0.837   2.635 -2.5071  1.6514  0.1573
  210SOL     OW  628   1.975   0.894   1.170 -0.0110  0.0606 -0.4986
  210SOL    HW1  629   2.027   0.922   1.251 -2.7621  2.3206 -1.2854
  210SOL    HW2  630   1.915   0.814   1.192 -0.4371 -0.1064 -1.2623
  211SOL     OW  631   0.596   0.506   0.731 -0.2564  0.2434 -0.8255
  211SOL    HW1  632   0.626   0.600   0.703 -0.8745  1.0541 -0.2740
  211SOL    HW2  633   0.547   0.515   0.820 -0.4604  2.0582 -0.9855
  212SOL     OW  634   1.674   1.314   0.150  0.0802  0.2338  0.3393
  212SOL    HW1  635   1.760   1.342   0.099 -3.8836  1.9729 -1.1798
  212SOL    HW2  636   1.601   1.387   0.147 -0.6292  3.0612  2.0508
  213SOL     OW  637   1.633   0.234   2.543  0.0010  0.3227 -0.0010
  213SOL    HW1  638   1.698   0.183   2.608  1.5580 -2.3461 -0.3161
  213SOL    HW2  639   1.667   0.236   2.447  0.5980 -1.2728 -4.2601
  214SOL     OW  640   1.581   1.461   2.287 -0.3896  0.0662 -0.2520
  214SOL    HW1  641   1.619   1.528   2.351 -1.0420 -0.3658 -1.4142
  214SOL    HW2  642   1.543   1.377   2.331  0.8999  1.7373 -1.1657
  215SOL     OW  643   0.299   1.820   0.435  0.1258 -0.4855  1.0908
  215SOL    HW1  644   0.360   1.740   0.401  0.8752 -2.6017 -3.1269
  215SOL    HW2  645   0.271   1.881   0.354  1.4354  1.5389 -0.3957
  216SOL     OW  646   0.682   2.652   2.294 -0.0564 -0.3355 -0.5356
  216SOL    HW1  647   0.743   2.653   2.212 -2.3329 -0.9826  0.9374
  216SOL    HW2  648   0.668   2.746   2.333  2.1314 -0.7851  1.3183
  217SOL     OW  649   2.214   0.977   0.424  0.1036  0.0325 -0.9586
  217SOL    HW1  650   2.302   0.973   0.469 -3.2134 -1.5210 -0.9951
  217SOL    HW2  651   2.180   1.074   0.430 -1.5141  2.2117 -0.2142
  218SOL     OW  652   2.039   1.928   1.910 -0.0613 -0.7973 -0.6527
  218SOL    HW1  653   1.963   1.998   1.930  1.8407 -1.0442 -0.6041
  218SOL    HW2  654   2.047   1.868   1.995 -2.0370  0.4283 -0.3603
  219SOL     OW  655   1.849   1.475   0.038 -0.8179  0.5810 -0.0201
  219SOL    HW1  656   1.810   1.513   3.037 -2.4213 -1.4649 -0.8293
  219SOL    HW2  657   1.943   1.439   0.016  2.1719 -1.5438 -0.9275
  220SOL     OW  658   1.480   1.570   1.142 -0.5531 -0.3002 -0.3002
  220SOL    HW1  659   1.467   1.625   1.226  1.2024 -0.8974 -0.5817
  220SOL    HW2  660   1.483   1.631   1.059  0.9529 -1.2847  0.0218
  221SOL     OW  661   0.380   0.778   2.596 -0.1929 -0.3673  0.4996
  221SOL    HW1  662   0.322   0.825   2.664  0.2000  1.5962 -0.5784
  221SOL    HW2  663   0.477   0.770   2.630  1.3354  0.4988 -1.2303
  222SOL     OW  664   0.966   1.618   1.271 -0.8195 -0.4565  0.5181
  222SOL    HW1  665   0.921   1.709   1.286  1.7540  0.2202  1.7175
  222SOL    HW2  666   1.044   1.635   1.203  2.2776  0.3063 -0.7609
  223SOL     OW  667   1.328   0.023   2.623 -0.2692 -0.0034 -0.5353
  223SOL    HW1  668   1.361   3.065   2.708 -3.5756 -0.1968 -0.3482
  223SOL    HW2  669   1.272   0.105   2.641 -1.3456  0.3141  3.1607
  224SOL     OW  670   2.771   0.930   0.852  0.9145 -0.8045 -0.5375
  224SOL    HW1  671   2.860   0.889   0.867 -1.3823  0.0949  0.3559
  224SOL    HW2  672   2.712   0.943   0.936 -2.7287 -1.2975 -1.0669
  225SOL     OW  673   1.232   0.464   1.656  0.4651  0.2834 -0.1600
  225SOL    HW1  674   1.322   0.433   1.614  0.1441  2.3068 -1.0885
  225SOL    HW2  675   1.217   0.555   1.609  1.7981  0.4500 -4.2285
  226SOL     OW  676   1.510   1.907   2.727 -0.2830  0.0199  0.5129
  226SOL    HW1  677   1.509   1.844   2.647  0.9756 -0.6547 -0.3279
  226SOL    HW2  678   1.522   1.854   2.817 -0.5572  1.6834  0.2928
  227SOL     OW  679   1.281   1.929   1.346  0.0688  0.0973  0.1998
  227SOL    HW1  680   1.357   1.863   1.340 -1.9469  2.6694  1.4330
  227SOL    HW2  681   1.197   1.887   1.392 -1.0629  0.7502 -2.3291
  228SOL     OW  682   0.633   1.951   0.977  0.6775  0.0653  0.1751
  228SOL    HW1  683   0.714   1.981   1.028 -2.8188 -0.3263  0.3599
  228SOL    HW2  684   0.602   1.856   1.002  2.1361 -1.8191 -1.3692
  229SOL     OW  685   1.855   0.410   0.115 -0.1589 -0.1598 -0.2626
  229SOL    HW1  686   1.907   0.400   0.024  1.2000 -1.7060 -2.8318
  229SOL    HW2  687   1.877   0.506   0.152 -0.2755  2.0083 -0.0765
  230SOL     OW  688   0.977   0.386   2.172  0.4840 -0.0561 -0.0167
  230SOL    HW1  689   1.013   0.438   2.090  0.7365  0.4300  0.6617
  230SOL    HW2  690   1.038   0.393   2.254  0.7124 -0.5873 -0.1131
  231SOL     OW  691   1.182   1.600   2.472  0.1823  0.2322 -0.5009
  231SOL    HW1  692   1.164   1.509   2.518  2.1211 -0.8566  0.0731
  231SOL    HW2  693   1.093   1.632   2.438  0.5447 -0.8073  2.5297
  232SOL     OW  694   2.243   1.906   0.860 -0.1262  0.4388 -0.0207
  232SOL    HW1  695   2.209   1.895   0.763  0.5154 -2.3541 -2.1130
  232SOL    HW2  696   2.313   1.980   0.855  2.5631  1.9961  0.2535
  233SOL     OW  697   1.820   2.809   3.060 -0.5155  0.0355  0.1871
  233SOL    HW1  698   1.793   2.727   0.027  1.2664  1.7049 -2.0831
  233SOL    HW2  699   1.921   2.804   3.049  0.1430 -1.5590  2.2608
  234SOL     OW  700   0.949   2.901   2.918 -0.5335 -0.6198  0.5868
  234SOL    HW1  701   0.954   2.838   2.996  0.3871  1.3779 -1.6831
  234SOL    HW2  702   1.017   2.880   2.847 -0.4883  0.2378  3.4673
  235SOL     OW  703   2.504   0.082   0.193 -0.4719 -0.1878 -0.2129
  235SOL    HW1  704   2.414   0.096   0.153  0.5140 -1.9353  0.6391
  235SOL    HW2  705   2.524   3.070   0.203  0.6126 -0.1695  1.3728
  236SOL     OW  706   2.730   2.370   2.264 -0.2441  0.1538  0.4872
  236SOL    HW1  707   2.746   2.341   2.170 -2.4394  1.2230  1.6815
  236SOL    HW2  708   2.774   2.319   2.336 -2.9169  0.7828 -1.1713
  237SOL     OW  709   1.253   1.270   1.813  0.3630 -0.1186  0.0028
  237SOL    HW1  710   1.346   1.287   1.768 -0.5309  0.3851 -0.1961
  237SOL    HW2  711   1.200   1.195   1.773  0.4825  1.2376 -1.2456
  238SOL     OW  712   2.277   0.215   2.467 -0.0937  0.2216 -0.1994
  238SOL    HW1  713   2.308   0.225   2.370  0.4379 -1.5497 -0.5149
  238SOL    HW2  714   2.196   0.273   2.486  2.1860 -0.8560  1.1526
  239SOL     OW  715   0.356   1.835   2.063  0.3988 -0.5976  0.0785
  239SOL    HW1  716   0.440   1.778   2.085  1.2424 -0.5475  2.0270
  239SOL    HW2  717   0.296   1.794   1.996  0.9033  2.0341  0.6948
  240SOL     OW  718   2.795   2.735   0.845  0.1695 -0.1066  0.4799
  240SOL    HW1  719   2.826   2.719   0.939 -0.0038  1.1721 -0.1090
  240SOL    HW2  720   2.771   2.645   0.812 -1.3460 -0.2686  0.7860
  241SOL     OW  721   1.921   2.055   0.787 -0.1732 -0.6933  0.0969
  241SOL    HW1  722   1.964   2.055   0.880 -1.4144  3.3007 -0.2678
  241SOL    HW2  723   1.978   1.988   0.729  1.2241 -0.1781  1.0190
  242SOL     OW  724   1.110   1.766   2.738  0.0633 -0.3061  0.4111
  242SOL    HW1  725   1.061   1.704   2.802  0.4442 -1.5527  1.1569
  242SOL    HW2  726   1.168   1.719   2.672  0.4669 -3.4981 -1.8653
  243SOL     OW  727   0.561   2.477   2.089 -0.3667 -0.0174  0.4267
  243SOL    HW1  728   0.504   2.519   2.161  0.3222  0.7692 -0.8975
  243SOL    HW2  729   0.652   2.462   2.131 -0.1122  2.8235 -0.5155
  244SOL     OW  730   2.320   2.980   2.918  0.3487  0.0507 -0.2482
  244SOL    HW1  731   2.383   3.051   2.887  0.6244  1.1494  0.4211
  244SOL    HW2  732   2.246   2.951   2.848 -3.8841 -0.0332 -1.0330
  245SOL     OW  733   1.400   2.625   0.403  0.2368 -0.9368  0.0379
  245SOL    HW1  734   1.377   2.561   0.478  0.0503 -0.0638 -1.3462
  245SOL    HW2  735   1.317   2.680   0.380  0.1729 -2.1602  2.2042
  246SOL     OW  736   0.879   2.902   0.157  0.3107  0.1419  0.0386
  246SOL    HW1  737   0.958   2.961   0.143 -1.0080 -1.1124 -3.0048
  246SOL    HW2  738   0.855   2.898   0.257 -3.1244  0.8245  2.0556
  247SOL     OW  739   0.646   0.732   2.031  0.7148  0.0335  0.3685
  247SOL    HW1  740   0.718   0.668   1.995  1.4331 -0.2465  0.4769
  247SOL    HW2  741   0.637   0.726   2.134 -1.8875 -1.9173 -2.8649
  248SOL     OW  742   1.120   1.307   2.290 -0.3190  0.4255 -0.3926
  248SOL    HW1  743   1.187   1.345   2.224  0.0973 -1.9527  0.0227
  248SOL    HW2  744   1.142   1.353   2.380  2.1928 -0.6519  0.0144
  249SOL     OW  745   2.086   0.443   0.498  0.0019  0.1781  0.4097
  249SOL    HW1  746   2.152   0.423   0.577 -0.0441 -3.1306  1.1867
  249SOL    HW2  747   2.016   0.509   0.531  3.0562 -0.9829  0.4163
  250SOL     OW  748   0.708   0.030   0.519 -0.0349 -0.1678 -0.2695
  250SOL    HW1  749   0.764   3.036   0.478  2.1884 -0.0658 -1.5325
  250SOL    HW2  750   0.770   0.111   0.522  0.7002  0.1649  0.6294
  251SOL     OW  751   1.584   0.180   2.913 -0.1651 -0.3152  0.4291
  251SOL    HW1  752   1.604   0.112   2.839 -0.0376  0.1990 -3.3866
  251SOL    HW2  753   1.611   0.141   3.005  1.2491 -1.4020  1.3231
  252SOL     OW  754   1.712   1.280   2.099  0.5176 -0.0370  0.0134
  252SOL    HW1  755   1.693   1.361   2.158  1.7368  0.9142 -0.1840
  252SOL    HW2  756   1.811   1.259   2.106  0.4287  0.8558  0.9575
  253SOL     OW  757   2.502   2.543   1.832  0.2896 -0.1011 -0.0506
  253SOL    HW1  758   2.551   2.577   1.913 -1.6089 -2.3087 -2.0881
  253SOL    HW2  759   2.516   2.441   1.829  3.1039 -1.3162 -1.5154
  254SOL     OW  760   0.530   1.380   1.200  0.8333 -0.2702 -0.6460
  254SOL    HW1  761   0.608   1.325   1.168  1.5846  0.1543  1.6258
  254SOL    HW2  762   0.567   1.466   1.233 -1.4270 -1.1010 -1.9029
  255SOL     OW  763   1.215   0.859   1.283 -0.3171 -0.3144  0.2361
  255SOL    HW1  764   1.206   0.911   1.199  0.7886 -2.6317  2.6790
  255SOL    HW2  765   1.249   0.926   1.351 -0.8365  1.9344  2.1141
  256SOL     OW  766   1.946   2.607   1.863 -0.4348 -0.4389  0.6845
  256SOL    HW1  767   1.850   2.572   1.874  0.0291 -0.4163  1.7135
  256SOL    HW2  768   1.986   2.570   1.771  2.4267 -2.2273 -0.7631
  257SOL     OW  769   0.212   2.804   2.874  0.4261  0.2787  0.5739
  257SOL    HW1  770   0.167   2.893   2.902  0.8909 -4.3827 -1.1000
  257SOL    HW2  771   0.314   2.818   2.872  1.0972 -0.2636 -0.3348
  258SOL     OW  772   0.864   2.769   2.091  0.5526  0.6878  0.4213
  258SOL    HW1  773   0.924   2.708   2.150  0.0728 -3.1387 -1.2603
  258SOL    HW2  774   0.837   2.706   2.016  1.9433  0.9763  1.6292
  259SOL     OW  775   1.231   2.994   2.289 -0.3726  0.3691 -0.2323
  259SOL    HW1  776   1.321   3.034   2.306 -1.3372 -3.4948 -0.6241
  259SOL    HW2  777   1.202   2.997   2.193  0.2016  0.5824 -2.9578
  260SOL     OW  778   1.646   0.339   0.937  0.1186  0.2318 -0.1067
  260SOL    HW1  779   1.587   0.283   0.878  3.0746  0.1842 -3.1264
  260SOL    HW2  780   1.741   0.342   0.896  0.2471 -0.1362  1.6059
  261SOL     OW  781   0.244   0.523   2.569  0.0481 -0.1255  0.2815
  261SOL    HW1  782   0.283   0.438   2.607  0.7009 -3.1416 -0.6997
  261SOL    HW2  783   0.297   0.611   2.600  0.2518  6.0760 -1.5683
  262SOL     OW  784   2.928   2.437   1.916 -0.9628  0.1373 -0.3032
  262SOL    HW1  785   2.988   2.392   1.845  2.2477  0.3939  0.5159
  262SOL    HW2  786   2.911   2.540   1.900 -1.0866  4.7620 -0.5278
  263SOL     OW  787   2.690   1.777   2.177 -0.2875  0.2883 -0.2119
  263SOL    HW1  788   2.788   1.757   2.202 -2.5145 -0.0142  0.1804
  263SOL    HW2  789   2.649   1.836   2.243  1.3962  0.4365  0.4357
  264SOL     OW  790   0.583   1.068   0.872  0.6954  0.3076 -0.0958
  264SOL    HW1  791   0.633   1.124   0.943  1.7897  1.5307  1.3494
  264SOL    HW2  792   0.645   1.062   0.789 -1.4448 -0.4467  2.0601
  265SOL     OW  793   0.624   2.046   0.096  0.4576  0.1602 -0.2927
  265SOL    HW1  794   0.714   2.009   0.077 -0.7693  0.4053  1.7435
  265SOL    HW2  795   0.598   2.033   0.190 -0.1814 -1.1158 -3.1250
  266SOL     OW  796   1.490   0.585   0.923  0.7156 -0.3795  0.2414
  266SOL    HW1  797   1.534   0.501   0.957  0.4081 -4.1207  1.0236
  266SOL    HW2  798   1.455   0.571   0.824  0.2875 -0.2636 -1.4579
  267SOL     OW  799   2.873   1.175   0.064 -0.3870 -0.0352 -0.2800
  267SOL    HW1  800   2.934   1.175   0.148  1.9467 -0.3971 -1.7987
  267SOL    HW2  801   2.843   1.077   0.040 -2.0065 -2.7533 -1.2852
  268SOL     OW  802   1.960   0.167   0.088  0.0970  0.2528 -0.4916
  268SOL    HW1  803   1.925   0.243   0.142  0.3901  0.3077 -2.9591
  268SOL    HW2  804   1.901   0.085   0.092 -0.3330  0.3356 -0.7340
  269SOL     OW  805   1.811   0.747   2.781  0.8211 -0.4567 -0.3481
  269SOL    HW1  806   1.721   0.703   2.746 -3.3773 -2.4735 -2.2815
  269SOL    HW2  807   1.804   0.763   2.885 -0.6408  1.5505  1.4323
  270SOL     OW  808   0.573   0.754   3.004 -0.1567  0.3760 -0.1928
  270SOL    HW1  809   0.564   0.821   2.927  0.6997  2.1101 -0.9041
  270SOL    HW2  810   0.482   0.718   3.038  1.3664 -2.2208 -1.0668
  271SOL     OW  811   3.012   0.903   0.252  0.1120 -0.6757  0.5654
  271SOL    HW1  812   3.041   0.872   0.157 -3.8317  1.3466  1.5832
  271SOL    HW2  813   3.047   0.999   0.266  2.8460  1.4541  0.6111
  272SOL     OW  814   0.028   2.006   2.806 -0.0907 -0.1748  0.1892
  272SOL    HW1  815   3.018   2.004   2.763 -3.3570  0.2511 -0.5963
  272SOL    HW2  816   0.104   1.989   2.739 -3.5494  0.3511 -1.2459
  273SOL     OW  817   2.466   0.035   0.764 -0.2297  0.2386  0.0832
  273SOL    HW1  818   2.494   0.126   0.803  0.7342 -0.1739 -0.0198
  273SOL    HW2  819   2.428   0.049   0.672 -0.7299 -1.8386  0.8230
  274SOL     OW  820   0.341   2.221   0.754 -0.3717 -0.1060  0.0734
  274SOL    HW1  821   0.333   2.131   0.709  1.6218  0.3864 -0.6773
  274SOL    HW2  822   0.393   2.281   0.691 -0.8890  0.1530  0.9934
  275SOL     OW  823   2.388   1.552   0.415  0.1251 -0.3233  0.0202
  275SOL    HW1  824   2.488   1.574   0.436  2.8901 -0.0368 -0.3991
  275SOL    HW2  825   2.385   1.457   0.371  1.3505  0.7761 -0.2663
  276SOL     OW  826   0.206   1.150   2.116 -0.2530 -0.6379  0.2806
  276SOL    HW1  827   0.234   1.202   2.035  0.4983 -0.6140 -0.0919
  276SOL    HW2  828   0.143   1.214   2.167  1.3553 -2.9635 -1.1820
  277SOL     OW  829   1.982   2.661   1.305  0.0933  0.2445 -0.1186
  277SOL    HW1  830   2.072   2.640   1.268 -1.0497 -1.5784  0.1144
  277SOL    HW2  831   1.919   2.678   1.231  4.9023  1.6889 -0.8699
  278SOL     OW  832   1.122   2.984   2.030  0.3602 -0.1439 -0.1063
  278SOL    HW1  833   1.023   3.006   2.042 -0.1456 -1.1637  1.8999
  278SOL    HW2  834   1.142   2.975   1.930 -1.0299 -0.6982 -3.8889
  279SOL     OW  835   1.626   1.946   0.493 -0.2959  0.0618 -0.6687
  279SOL    HW1  836   1.556   2.002   0.438  0.5372  2.8319 -1.9072
  279SOL    HW2  837   1.688   1.906   0.425 -0.0741  1.1619  2.8966
  280SOL     OW  838   3.031   1.751   1.013 -0.0661 -0.0143 -0.0667
  280SOL    HW1  839   3.062   1.718   0.924  1.3744 -0.0026  0.1922
  280SOL    HW2  840   2.937   1.714   1.037 -1.4920  0.2102 -1.2582
  281SOL     OW  841   2.982   0.765   2.276 -0.6166  0.2745  0.1022
  281SOL    HW1  842   2.932   0.714   2.205  1.0286  0.1901  2.5921
  281SOL    HW2  843   3.018   0.698   2.342 -1.4540  2.6937 -1.5999
  282SOL     OW  844   0.711   1.029   0.619 -0.3511 -0.0167  0.7024
  282SOL    HW1  845   0.617   1.038   0.568 -0.4028  1.7059 -0.0514
  282SOL    HW2  846   0.776   1.088   0.568 -1.3497  1.5671  2.1041
  283SOL     OW  847   1.648   2.162   3.002  0.0898 -0.8156  0.5329
  283SOL    HW1  848   1.595   2.247   2.976 -2.0724 -0.2276  1.0530
  283SOL    HW2  849   1.727   2.149   2.941  1.2048 -3.4840 -2.5775
  284SOL     OW  850   1.210   0.578   0.277  0.3361 -0.1543 -0.6082
  284SOL    HW1  851   1.242   0.585   0.182 -0.9201  0.2587  0.4385
  284SOL    HW2  852   1.293   0.561   0.335 -0.7412 -0.0319 -0.9724
  285SOL     OW  853   2.116   1.146   2.650  0.8280  0.0109  0.2252
  285SOL    HW1  854   2.051   1.072   2.640  0.1246  0.6982  1.7719
  285SOL    HW2  855   2.074   1.232   2.606 -1.2479  0.7681 -0.3580
  286SOL     OW  856   1.253   2.695   1.503 -0.6425  0.0241 -0.4838
  286SOL    HW1  857   1.298   2.787   1.511 -0.4536  0.8799 -0.6698
  286SOL    HW2  858   1.320   2.620   1.534  2.8578 -2.1753  0.8157
  287SOL     OW  859   1.030   0.826   0.848  0.0782 -0.0082  0.2312
  287SOL    HW1  860   0.943   0.776   0.865  0.8809  0.0190  1.7902
  287SOL    HW2  861   1.074   0.795   0.762 -0.8469 -1.2607 -1.3320
  288SOL     OW  862   1.109   2.551   0.327 -0.0649  0.3276  0.2916
  288SOL    HW1  863   1.141   2.638   0.285  0.9186  1.0949  0.5464
  288SOL    HW2  864   1.010   2.552   0.349 -2.3845  0.9852  0.8463
  289SOL     OW  865   0.390   1.447   1.559 -0.1452 -0.3874 -0.2819
  289SOL    HW1  866   0.475   1.503   1.581  1.8258  0.0621  2.1176
  289SOL    HW2  867   0.415   1.359   1.526 -0.8658  1.0536  0.5444
  290SOL     OW  868   1.671   2.356   0.978  0.0883  0.2640  0.4836
  290SOL    HW1  869   1.592   2.306   1.015  2.5920  1.9152 -1.8987
  290SOL    HW2  870   1.643   2.436   0.928  0.0284 -3.1158  2.7398
  291SOL     OW  871   1.625   2.859   2.875 -0.5147  0.6509  0.4158
  291SOL    HW1  872   1.632   2.813   2.784  1.2968 -2.1869  0.9704
  291SOL    HW2  873   1.715   2.847   2.923  1.0954  2.1040  1.0578
  292SOL     OW  874   0.881   0.217   1.977 -0.5485  0.0105 -0.2267
  292SOL    HW1  875   0.916   0.283   2.044 -0.0453 -2.4377 -1.6270
  292SOL    HW2  876   0.909   0.121   2.000 -1.6715 -0.4629 -0.9200
  293SOL     OW  877   1.900   2.404   0.826 -0.2098  0.1132  0.8656
  293SOL    HW1  878   1.919   2.335   0.752  0.8001  0.4840 -1.2552
  293SOL    HW2  879   1.857   2.364   0.905  0.6629  0.6967  1.7577
  294SOL     OW  880   0.608   0.688   2.307 -0.0979  0.5907  0.6744
  294SOL    HW1  881   0.532   0.756   2.303  1.9589 -1.0961 -2.6753
  294SOL    HW2  882   0.582   0.603   2.353  1.0411 -0.1452  0.7576
  295SOL     OW  883   1.628   1.678   0.929  0.0948  0.0099 -0.2880
  295SOL    HW1  884   1.720   1.684   0.970 -2.0190  0.5085 -1.6655
  295SOL    HW2  885   1.587   1.772   0.897 -0.8745  5.2049 -0.9323
  296SOL     OW  886   2.571   1.889   0.051  0.3339  0.2144 -1.0417
  296SOL    HW1  887   2.667   1.918   0.076  2.0239  1.3319 -3.0687
  296SOL    HW2  888   2.517   1.841   0.126  3.3655 -0.2045  2.7409
  297SOL     OW  889   2.172   0.099   0.343 -0.2003  0.3596  0.3905
  297SOL    HW1  890   2.089   0.158   0.365 -0.9140  4.5312 -1.1260
  297SOL    HW2  891   2.207   0.118   0.249  2.0178  1.8335 -1.1032
  298SOL     OW  892   0.985   2.424   2.408 -0.1260 -0.1481 -0.1761
  298SOL    HW1  893   0.935   2.351   2.454 -1.2939  2.3025 -1.6906
  298SOL    HW2  894   1.066   2.444   2.458 -1.7510 -0.6507 -2.8495
  299SOL     OW  895   1.422   2.631   2.106  0.0240 -0.9050  0.1722
  299SOL    HW1  896   1.323   2.666   2.102 -1.0467 -1.1996 -1.8879
  299SOL    HW2  897   1.446   2.575   2.189  0.7380  0.0873  0.1247
  300SOL     OW  898   2.499   0.078   2.845  0.3193  0.4891 -0.7735
  300SOL    HW1  899   2.506   0.162   2.903 -0.5560 -0.1772 -0.2429
  300SOL    HW2  900   2.500   0.115   2.746  2.1859  1.7059  0.1580
  301SOL     OW  901   1.517   0.621   2.281  0.0264 -0.3818 -0.0203
  301SOL    HW1  902   1.490   0.714   2.262  0.6887 -2.5035 -0.5370
  301SOL    HW2  903   1.471   0.557   2.215  1.2128 -1.7182  2.6854
  302SOL     OW  904   2.550   2.479   0.443 -0.1483  0.5565 -0.2039
  302SOL    HW1  905   2.471   2.433   0.398  1.1057 -1.7810  1.6963
  302SOL    HW2  906   2.532   2.575   0.473 -2.4319  0.8789 -1.2073
  303SOL     OW  907   2.839   2.602   2.220  0.0488 -0.3108  0.4636
  303SOL    HW1  908   2.813   2.503   2.239  1.4914  3.6515  3.0873
  303SOL    HW2  909   2.934   2.604   2.182 -0.6844 -1.6276  0.9727
  304SOL     OW  910   2.684   0.700   1.927 -0.1580  0.0826 -0.2428
  304SOL    HW1  911   2.723   0.794   1.899  1.5145  0.8950  0.3732
  304SOL    HW2  912   2.741   0.654   1.997  1.6507  0.7202 -0.6563
  305SOL     OW  913   0.673   1.851   1.612 -0.4923 -0.2657  0.2675
  305SOL    HW1  914   0.670   1.910   1.528 -1.1083 -0.1254 -1.7344
  305SOL    HW2  915   0.608   1.890   1.682  1.3202 -1.4882 -0.9260
  306SOL     OW  916   2.993   0.967   1.737  0.3016  0.0567  0.3569
  306SOL    HW1  917   3.079   0.972   1.789 -1.0035  2.5041 -0.0602
  306SOL    HW2  918   2.985   0.889   1.666 -0.3440 -3.0705 -1.1551
  307SOL     OW  919   1.254   0.381   1.909  0.5585 -0.6807  0.0046
  307SOL    HW1  920   1.203   0.460   1.948  1.6902  0.7826  0.6968
  307SOL    HW2  921   1.289   0.408   1.823  1.7793 -0.7154  0.4841
  308SOL     OW  922   3.030   1.041   1.069 -0.2118 -0.0377  0.4791
  308SOL    HW1  923   3.083   1.011   1.151 -2.6936  1.0387  0.2741
  308SOL    HW2  924   2.948   1.098   1.095  0.6671  0.4998  1.6653
  309SOL     OW  925   2.290   1.348   0.753  0.1566 -0.4073  0.3686
  309SOL    HW1  926   2.302   1.355   0.854 -0.7443 -0.6185  0.0965
  309SOL    HW2  927   2.362   1.409   0.708 -0.4180 -2.2857 -2.4734
  310SOL     OW  928   2.886   2.008   2.650  0.3440  0.8141  0.7652
  310SOL    HW1  929   2.915   1.988   2.554  0.1201  2.3519 -0.9266
  310SOL    HW2  930   2.800   2.057   2.651  1.5287 -0.6485 -0.2944
  311SOL     OW  931   0.027   2.741   2.659  0.4363 -0.7609  0.2382
  311SOL    HW1  932   3.019   2.760   2.698  0.9875  0.9482  0.7784
  311SOL    HW2  933   0.092   2.793   2.715 -1.5818 -0.5238 -0.3801
  312SOL     OW  934   2.171   1.894   0.170  0.1544  0.0978 -0.1680
  312SOL    HW1  935   2.249   1.830   0.177  0.6397  1.5334  0.4619
  312SOL    HW2  936   2.083   1.843   0.177  1.1427  1.9041  0.6137
  313SOL     OW  937   2.658   2.970   0.869 -0.5932 -0.0240 -0.1961
  313SOL    HW1  938   2.684   2.873   0.842  1.8849  0.5735 -1.7525
  313SOL    HW2  939   2.595   3.024   0.803  0.4466  0.4366 -0.0586
  314SOL     OW  940   1.422   1.009   0.168  0.3595  0.2015 -0.0186
  314SOL    HW1  941   1.404   0.923   0.213  0.9973  4.9931 -0.1015
  314SOL    HW2  942   1.521   1.029   0.173 -2.5783  0.3774 -2.0673
  315SOL     OW  943   1.386   2.460   1.877 -0.2759  0.3721 -0.3180
  315SOL    HW1  944   1.394   2.524   1.957  0.8071  0.4692  4.0062
  315SOL    HW2  945   1.349   2.370   1.908 -0.5682  1.0590  1.1403
  316SOL     OW  946   0.057   0.776   0.454  0.0218  0.7511  0.2457
  316SOL    HW1  947   0.052   0.673   0.444 -2.1932  0.3265 -0.2146
  316SOL    HW2  948   0.023   0.817   0.368  2.0684 -1.5945 -1.1961
  317SOL     OW  949   0.395   3.040   0.409 -0.4939 -0.1439 -0.6486
  317SOL    HW1  950   0.347   0.019   0.476  0.2284  2.7140  3.0293
  317SOL    HW2  951   0.335   2.965   0.377 -1.2322  2.2990 -2.5768
  318SOL     OW  952   2.065   2.513   0.475 -0.3036  0.1012  0.5295
  318SOL    HW1  953   2.049   2.425   0.431  1.4751 -0.6637  1.9130
  318SOL    HW2  954   2.119   2.573   0.416 -3.0467 -1.2011  0.4190
  319SOL     OW  955   0.985   1.581   2.917 -0.3682  0.0606 -0.5052
  319SOL    HW1  956   0.917   1.605   2.981 -2.5280 -1.0721 -1.2289
  319SOL    HW2  957   0.961   1.492   2.868 -1.1786 -3.4086  1.0362
  320SOL     OW  958   0.241   2.207   2.018  0.0421 -0.3468 -0.6173
  320SOL    HW1  959   0.201   2.151   1.940 -3.8372  1.0478 -0.8509
  320SOL    HW2  960   0.200   2.302   2.011  1.0561  1.3696 -3.6419
  321SOL     OW  961   1.645   2.744   2.629  0.2278  0.1529  0.0413
  321SOL    HW1  962   1.674   2.659   2.581  1.8582  3.7152 -0.5647
  321SOL    HW2  963   1.570   2.781   2.569 -0.1708 -0.2084  0.6902
  322SOL     OW  964   2.892   1.342   2.294  0.1596  0.0108 -0.0441
  322SOL    HW1  965   2.829   1.396   2.351 -0.2921  0.1185 -0.6210
  322SOL    HW2  966   2.847   1.334   2.201 -0.0489 -1.6497 -0.9706
  323SOL     OW  967   2.170   1.259   0.493  0.2520 -0.2933 -0.4357
  323SOL    HW1  968   2.201   1.280   0.592  2.6305  3.3366 -1.0496
  323SOL    HW2  969   2.073   1.288   0.483  4.9261 -0.3417 -1.5771
  324SOL     OW  970   2.939   0.084   2.712 -0.2903  0.5254  0.5964
  324SOL    HW1  971   2.943   0.183   2.706 -0.2619 -2.0948  2.7391
  324SOL    HW2  972   2.911   0.060   2.804 -0.9438  1.7048 -2.4836
  325SOL     OW  973   1.183   0.568   2.700  0.6151  0.1901  0.2513
  325SOL    HW1  974   1.149   0.646   2.751  0.6118 -2.1083 -2.7942
  325SOL    HW2  975   1.274   0.541   2.731 -0.9840  0.0249 -1.4456
  326SOL     OW  976   2.260   2.924   1.855  0.2961 -0.2573  0.4764
  326SOL    HW1  977   2.318   3.008   1.828 -0.4405  0.1809  1.5409
  326SOL    HW2  978   2.288   2.888   1.943  0.5477  2.3934 -1.8377
  327SOL     OW  979   1.969   0.162   2.894  0.2885  0.5131  0.0468
  327SOL    HW1  980   2.051   0.203   2.854 -0.9550 -2.3606  0.6090
  327SOL    HW2  981   1.970   0.169   2.996  0.7677 -1.4971 -2.3811
  328SOL     OW  982   0.170   1.111   2.439 -0.0037 -0.0109 -0.1033
  328SOL    HW1  983   0.196   1.031   2.378  0.0199 -2.0090  1.0076
  328SOL    HW2  984   0.069   1.114   2.439  0.2835  0.3493 -2.8264
  329SOL     OW  985   1.982   3.074   2.040 -0.2047  0.4209 -0.0271
  329SOL    HW1  986   1.976   2.996   1.972 -0.6746 -1.5745 -2.6777
  329SOL    HW2  987   2.080   0.019   2.053  3.5930 -0.9816  0.8021
  330SOL     OW  988   2.944   1.460   1.187 -0.1328  0.3525 -0.0111
  330SOL    HW1  989   2.890   1.395   1.237 -0.5877  2.5338  1.0532
  330SOL    HW2  990   3.010   1.503   1.254 -0.4948 -2.6657 -0.7998
  331SOL     OW  991   0.571   1.707   2.142  0.1197  0.5362  0.2329
  331SOL    HW1  992   0.618   1.797   2.155 -0.0153  1.3811 -1.2012
  331SOL    HW2  993   0.630   1.643   2.087  0.1013  3.2044  3.0414
  332SOL     OW  994   0.198   2.682   1.458 -0.3168 -0.0413 -0.0641
  332SOL    HW1  995   0.269   2.712   1.526  0.2557 -1.9312  0.9816
  332SOL    HW2  996   0.181   2.757   1.390  1.8071  0.5845 -0.8250
  333SOL     OW  997   2.250   2.642   1.183  0.2654  0.2050  0.1668
  333SOL    HW1  998   2.321   2.617   1.255  1.2277 -0.2084  0.3014
  333SOL    HW2  999   2.253   2.575   1.103  3.5080 -0.4311 -0.6686
  334SOL     OW 1000   1.073   1.858   0.808  0.1216  0.4561 -0.0717
  334SOL    HW1 1001   1.016   1.775   0.803  2.1467 -0.7107  0.1257
  334SOL    HW2 1002   1.100   1.876   0.902  0.8034 -1.3272  0.5194
  335SOL     OW 1003   0.104   2.568   2.965  0.2250  0.0948 -0.0163
  335SOL    HW1 1004   0.132   2.665   2.944 -0.8912  1.0103  0.6739
  335SOL    HW2 1005   0.002   2.560   2.944 -1.3749 -0.0275  2.2281
  336SOL     OW 1006   0.525   2.993   2.128  0.1768 -0.4212 -0.3111
  336SOL    HW1 1007   0.479   2.989   2.217 -2.1085  0.4427  3.8846
  336SOL    HW2 1008   0.548   2.898   2.092  0.2911  0.0724 -0.6448
  337SOL     OW 1009   2.305   2.201   2.993 -0.6574 -0.0412  0.8917
  337SOL    HW1 1010   2.387   2.209   3.054 -0.7845 -0.1675 -0.8480
  337SOL    HW2 1011   2.333   2.119   2.931  2.8605 -2.5168  0.2095
  338SOL     OW 1012   1.147   1.625   1.068  0.1744  0.6267 -0.1602
  338SOL    HW1 1013   1.132   1.593   0.975 -2.7893 -0.6520 -1.2409
  338SOL    HW2 1014   1.237   1.611   1.107 -2.0176 -1.2061 -1.7216
  339SOL     OW 1015   0.338   0.823   1.654  0.2340  0.5127  0.0556
  339SOL    HW1 1016   0.311   0.892   1.723 -1.0760  1.9602  1.5877
  339SOL    HW2 1017   0.439   0.828   1.645 -0.9846  0.0624  0.3323
  340SOL     OW 1018   1.486   2.543   0.150 -0.0737  0.7200  0.5735
  340SOL    HW1 1019   1.452   2.583   0.238 -0.4736  1.3111 -2.8138
  340SOL    HW2 1020   1.469   2.611   0.076  0.5416 -0.2431 -1.8639
  341SOL     OW 1021   2.022   1.396   0.736  0.0850  0.3864 -0.0291
  341SOL    HW1 1022   2.112   1.351   0.760  0.0182  1.5914 -0.6617
  341SOL    HW2 1023   2.019   1.495   0.762  2.3395 -0.1193 -0.3321
  342SOL     OW 1024   2.672   2.851   0.454 -0.5670 -0.2987  0.4195
  342SOL    HW1 1025   2.618   2.784   0.506  0.9943  1.2401  0.7923
  342SOL    HW2 1026   2.630   2.856   0.361  0.8294 -0.0975  1.9547
  343SOL     OW 1027   1.482   2.203   1.089 -0.1752 -0.2080  1.1634
  343SOL    HW1 1028   1.419   2.168   1.016  1.3310  1.8163 -3.5219
  343SOL    HW2 1029   1.429   2.223   1.177  1.3286  0.8890 -0.0968
  344SOL     OW 1030   2.261   2.496   0.685  0.1161  0.0421  0.3137
  344SOL    HW1 1031   2.174   2.460   0.646  1.2150 -0.1595  0.5895
  344SOL    HW2 1032   2.260   2.598   0.687 -0.2872 -1.2804 -0.1391
  345SOL     OW 1033   2.588   2.412   0.137  0.3568 -0.6569  0.5571
  345SOL    HW1 1034   2.598   2.338   0.071  1.0387  2.0508  1.0226
  345SOL    HW2 1035   2.549   2.373   0.221 -1.8236  1.0938 -1.0693
  346SOL     OW 1036   2.800   1.638   0.727 -0.3637 -0.2953 -0.5132
  346SOL    HW1 1037   2.771   1.633   0.829  0.8775  0.2625  2.9886
  346SOL    HW2 1038   2.900   1.617   0.719  1.5128 -0.5647  2.2834
  347SOL     OW 1039   2.226   2.339   1.390 -0.0684  0.4057  0.5147
  347SOL    HW1 1040   2.126   2.355   1.403  0.4757 -1.0914 -1.0037
  347SOL    HW2 1041   2.276   2.433   1.411  2.4306 -0.1730 -0.0699
  348SOL     OW 1042   0.764   1.940   2.835  0.0252 -0.1865  0.4962
  348SOL    HW1 1043   0.812   1.899   2.753 -3.2697  4.0654 -0.1092
  348SOL    HW2 1044   0.675   1.892   2.851  0.0501 -0.0272  0.6486
  349SOL     OW 1045   2.251   1.385   1.610 -0.2366 -0.2256  0.1932
  349SOL    HW1 1046   2.171   1.349   1.558 -0.7040 -0.1078  0.6949
  349SOL    HW2 1047   2.236   1.481   1.649  0.5941  0.1763 -1.8008
  350SOL     OW 1048   0.119   2.646   0.834  0.3051  0.1494  0.4385
  350SOL    HW1 1049   0.049   2.674   0.767 -0.7535  0.9050 -0.9917
  350SOL    HW2 1050   0.115   2.544   0.853 -0.7674  2.3806  1.8351
  351SOL     OW 1051   0.405   0.553   1.965  0.3620 -0.0088 -0.6859
  351SOL    HW1 1052   0.460   0.638   1.983 -2.3990  0.7944  2.3638
  351SOL    HW2 1053   0.392   0.495   2.048 -1.8217 -1.7030  0.3425
  352SOL     OW 1054   0.640   2.017   1.402 -0.1693 -0.1073  0.1079
  352SOL    HW1 1055   0.655   2.110   1.375 -0.9909  1.6455  0.7852
  352SOL    HW2 1056   0.551   1.975   1.373  0.4739 -0.0662  0.4265
  353SOL     OW 1057   1.470   1.704   2.535 -0.4850  0.0748 -0.4596
  353SOL    HW1 1058   1.387   1.671   2.492  1.6783  1.5059  0.3218
  353SOL    HW2 1059   1.557   1.663   2.499  2.4949 -0.1457 -1.4070
  354SOL     OW 1060   1.231   0.643   1.080 -0.5204 -0.7106  0.6118
  354SOL    HW1 1061   1.293   0.664   1.001 -0.0869 -0.0494 -0.3690
  354SOL    HW2 1062   1.237   0.723   1.143 -1.2166 -0.8420 -2.9750
  355SOL     OW 1063   2.492   0.977   0.504 -0.1824 -0.4265 -0.2664
  355SOL    HW1 1064   2.573   0.932   0.545 -1.0863  2.0891 -0.8424
  355SOL    HW2 1065   2.521   1.027   0.425  1.2336 -0.5546  2.5249
  356SOL     OW 1066   2.505   1.844   2.374  0.1682  0.0542 -0.7441
  356SOL    HW1 1067   2.503   1.946   2.375  0.0114  0.7973  0.4559
  356SOL    HW2 1068   2.501   1.807   2.471 -2.2386  0.2902  0.1380
  357SOL     OW 1069   0.616   2.528   1.291 -0.3866  0.3801 -0.3749
  357SOL    HW1 1070   0.698   2.568   1.243  1.2791 -1.7912 -0.9499
  357SOL    HW2 1071   0.532   2.534   1.229 -1.7410 -0.2914  0.1353
  358SOL     OW 1072   2.257   0.921   1.849  0.2325  0.1787 -0.0635
  358SOL    HW1 1073   2.345   0.948   1.808 -1.2375  1.2656 -0.7863
  358SOL    HW2 1074   2.244   0.822   1.846  1.6181  2.7081 -1.5639
  359SOL     OW 1075   2.284   2.432   2.823 -0.5074 -0.0117 -0.6545
  359SOL    HW1 1076   2.282   2.338   2.868 -0.4089 -2.0190 -1.3463
  359SOL    HW2 1077   2.382   2.450   2.794  0.0699  0.7523  0.9786
  360SOL     OW 1078   1.855   0.596   1.084 -0.4043  0.5759  0.1348
  360SOL    HW1 1079   1.926   0.612   1.155 -0.9703 -0.2968  0.5455
  360SOL    HW2 1080   1.773   0.553   1.126  0.7071 -2.5435  0.4231
  361SOL     OW 1081   2.251   0.038   1.070  0.0113  0.0724 -0.1922
  361SOL    HW1 1082   2.244   3.031   1.118 -2.3574 -2.3302 -0.0618
  361SOL    HW2 1083   2.211   0.030   0.974  0.3257  2.1380  1.3381
  362SOL     OW 1084   1.262   1.051   0.527 -0.2210 -0.2147 -0.5310
  362SOL    HW1 1085   1.216   1.060   0.617 -0.0674  0.4727  0.2699
  362SOL    HW2 1086   1.252   1.138   0.481  0.0010 -3.6814  0.6541
  363SOL     OW 1087   2.521   1.684   2.630  0.3279  0.2009 -0.5907
  363SOL    HW1 1088   2.522   1.583   2.612  0.3011 -0.0517  0.1336
  363SOL    HW2 1089   2.580   1.711   2.710  2.0661  1.8157  0.8897
  364SOL     OW 1090   1.001   0.323   1.742  0.3901 -0.1862 -0.3174
  364SOL    HW1 1091   1.079   0.385   1.747 -0.5786 -1.9324 -1.1371
  364SOL    HW2 1092   0.956   0.302   1.830 -0.7306  0.5811  2.7862
  365SOL     OW 1093   0.345   0.058   0.835  0.0475 -1.1682  0.0416
  365SOL    HW1 1094   0.331   3.080   0.760  0.0721  2.0631  1.3876
  365SOL    HW2 1095   0.276   0.058   0.908  1.8812 -2.1779 -1.3238
  366SOL     OW 1096   2.810   1.539   3.027  0.0484 -0.2890  0.2895
  366SOL    HW1 1097   2.794   1.529   0.041  1.4909  1.8966  0.9723
  366SOL    HW2 1098   2.872   1.465   2.997 -1.0095  2.4648  3.1523
  367SOL     OW 1099   2.915   2.557   2.943  0.0902  0.4612  0.5854
  367SOL    HW1 1100   2.885   2.628   2.877  1.8325 -0.7762  0.3764
  367SOL    HW2 1101   2.864   2.568   3.031 -1.3565  2.9852 -1.9778
  368SOL     OW 1102   0.059   2.014   0.683  0.0929  0.2210  0.1439
  368SOL    HW1 1103   0.038   2.108   0.643 -1.8645  1.3490 -1.4980
  368SOL    HW2 1104   0.153   1.989   0.670 -2.1084  0.6676 -1.4947
  369SOL     OW 1105   0.565   0.139   0.270 -0.2212  0.2903  0.5820
  369SOL    HW1 1106   0.495   0.088   0.322  0.3588 -1.2139  2.4457
  369SOL    HW2 1107   0.653   0.146   0.325  1.4083  1.3404  1.2885
  370SOL     OW 1108   0.356   0.982   0.973 -0.6441 -0.1333 -0.1972
  370SOL    HW1 1109   0.267   1.014   0.936 -0.8793 -0.5442 -1.5358
  370SOL    HW2 1110   0.438   1.022   0.928 -0.6357 -1.4452 -0.0438
  371SOL     OW 1111   1.924   2.656   0.689 -0.1314  0.5137 -0.2455
  371SOL    HW1 1112   1.966   2.630   0.598 -0.6960 -0.1466  2.0822
  371SOL    HW2 1113   1.893   2.571   0.734 -1.8692  0.5458  2.1402
  372SOL     OW 1114   0.201   0.954   2.748 -0.0107  0.0661 -0.1059
  372SOL    HW1 1115   0.139   0.997   2.687 -1.7350  0.3250  0.0927
  372SOL    HW2 1116   0.250   1.023   2.806 -1.5578 -2.1018 -1.6497
  373SOL     OW 1117   2.613   1.671   0.494 -0.0288  0.2446 -0.0386
  373SOL    HW1 1118   2.674   1.640   0.569 -2.7898 -0.5971  3.3552
  373SOL    HW2 1119   2.616   1.776   0.492 -0.3549  0.6393 -0.2137
  374SOL     OW 1120   0.364   2.599   0.303  0.0022 -0.2620 -0.1054
  374SOL    HW1 1121   0.334   2.538   0.380  0.6809  0.4917 -0.6696
  374SOL    HW2 1122   0.347   2.559   0.207  0.1726 -0.4961  0.2893
  375SOL     OW 1123   0.370   0.398   0.420 -0.4007  0.2169 -0.7629
  375SOL    HW1 1124   0.433   0.338   0.480  0.4583 -1.3335  0.9137
  375SOL    HW2 1125   0.410   0.491   0.415  2.1144  0.8308  1.6654
  376SOL     OW 1126   0.191   2.788   1.773  0.0168 -0.3668 -0.1579
  376SOL    HW1 1127   0.198   2.864   1.710  2.6430  0.2263  0.2392
  376SOL    HW2 1128   0.269   2.726   1.767 -1.3998 -0.2698 -1.6857
  377SOL     OW 1129   0.946   2.023   2.456  0.0125  0.0462  0.1032
  377SOL    HW1 1130   1.002   2.028   2.370  1.3833 -0.0943  0.3351
  377SOL    HW2 1131   0.889   2.104   2.464  2.0752 -0.3062  0.7374
  378SOL     OW 1132   1.172   0.715   0.643  0.2121 -0.0132 -0.2688
  378SOL    HW1 1133   1.096   0.706   0.579  4.4832  0.3071  1.4236
  378SOL    HW2 1134   1.258   0.737   0.598 -2.4459  2.0909  0.6469
  379SOL     OW 1135   0.737   1.668   3.070  0.8357  0.5142  0.2695
  379SOL    HW1 1136   0.710   1.570   3.069  0.3028  1.4723  0.1516
  379SOL    HW2 1137   0.666   1.731   3.035  0.3977  1.6760  3.1148
  380SOL     OW 1138   2.905   2.083   1.809 -0.3832  1.1679 -0.1056
  380SOL    HW1 1139   2.954   2.165   1.777  0.1875 -1.7687  0.8071
  380SOL    HW2 1140   2.958   1.996   1.782  0.9578 -2.5878  1.1776
  381SOL     OW 1141   0.015   1.219   1.712 -0.3555 -0.0245  0.4776
  381SOL    HW1 1142   0.022   1.272   1.619 -0.0214  2.1144 -2.9213
  381SOL    HW2 1143   3.063   1.126   1.700 -0.1520  0.9929 -0.8276
  382SOL     OW 1144   2.631   2.194   0.514 -0.3004 -0.0144 -0.3847
  382SOL    HW1 1145   2.547   2.225   0.563 -2.4675  0.8610  1.9462
  382SOL    HW2 1146   2.693   2.270   0.487 -0.8242 -2.9803 -0.3480
  383SOL     OW 1147   2.275   1.867   2.219  0.2038 -0.2793  0.0068
  383SOL    HW1 1148   2.240   1.804   2.144  0.0299 -2.5761 -1.7675
  383SOL    HW2 1149   2.369   1.842   2.243 -0.9782  1.0647  1.0976
  384SOL     OW 1150   0.709   1.953   2.177  0.0208  0.5471  0.1824
  384SOL    HW1 1151   0.787   1.894   2.196 -2.0849  1.2317 -0.4067
  384SOL    HW2 1152   0.711   2.038   2.228 -1.0296  0.4610 -2.8190
  385SOL     OW 1153   2.979   2.212   0.973 -0.2192  0.3028  0.0432
  385SOL    HW1 1154   3.056   2.262   0.929 -1.3985 -1.3665 -1.4510
  385SOL    HW2 1155   3.009   2.119   1.011 -0.5512 -2.1467  1.7227
  386SOL     OW 1156   1.919   0.672   0.172  0.5038  0.3790  0.1084
  386SOL    HW1 1157   1.855   0.727   0.117 -0.8073 -0.5920  0.2249
  386SOL    HW2 1158   1.946   0.723   0.255 -3.8829 -3.3503  0.8510
  387SOL     OW 1159   0.579   0.849   1.553 -0.0963 -0.4389  0.3448
  387SOL    HW1 1160   0.595   0.787   1.475 -0.0229 -1.6008 -1.3307
  387SOL    HW2 1161   0.654   0.840   1.623  2.4577  1.7074 -0.4691
  388SOL     OW 1162   2.741   1.045   2.146  0.4090 -0.5242  0.0570
  388SOL    HW1 1163   2.759   1.147   2.129 -2.9566  0.2051 -1.1715
  388SOL    HW2 1164   2.773   1.010   2.237 -1.3072  0.6309 -3.0946
  389SOL     OW 1165   1.583   0.807   2.476  0.7418  0.3124  0.2588
  389SOL    HW1 1166   1.549   0.872   2.408  0.9088  0.2982  1.0946
  389SOL    HW2 1167   1.570   0.709   2.446  1.6438  2.2663 -0.5304
  390SOL     OW 1168   1.989   2.409   3.018  0.0747 -0.3712  0.0298
  390SOL    HW1 1169   1.899   2.449   3.050 -1.0742  0.9862  0.4709
  390SOL    HW2 1170   1.966   2.315   2.982 -1.7042 -3.1047 -2.2788
  391SOL     OW 1171   1.777   2.382   1.229  0.0331 -0.1316 -0.1442
  391SOL    HW1 1172   1.757   2.363   1.131  0.2063 -0.1741 -0.3013
  391SOL    HW2 1173   1.724   2.464   1.257  1.0503  2.9464 -0.9718
  392SOL     OW 1174   2.911   2.428   1.327 -0.1623 -0.7359  0.2312
  392SOL    HW1 1175   2.927   2.527   1.338  1.5193  1.0296 -0.3306
  392SOL    HW2 1176   2.875   2.410   1.232  0.2339  1.7921 -1.7483
  393SOL     OW 1177   1.915   1.685   2.699 -0.5888  0.0832  0.0224
  393SOL    HW1 1178   1.947   1.773   2.746  0.8681  1.4447  3.2686
  393SOL    HW2 1179   1.975   1.605   2.720 -1.5016  2.6763 -0.6370
  394SOL     OW 1180   0.315   3.067   0.083  0.7514 -0.1951  0.0040
  394SOL    HW1 1181   0.320   2.966   0.101  0.3859 -1.2541 -0.3567
  394SOL    HW2 1182   0.405   0.011   0.051 -3.1572 -0.3588  3.5355
  395SOL     OW 1183   1.642   1.075   1.295 -0.4736 -0.0696  0.0536
  395SOL    HW1 1184   1.650   1.111   1.200  2.0097 -0.1650 -0.7230
  395SOL    HW2 1185   1.644   0.973   1.292 -0.0738 -0.5959  0.2849
  396SOL     OW 1186   1.757   0.795   3.035  0.5509  0.2577  0.4103
  396SOL    HW1 1187   1.675   0.735   3.071 -3.8391 -0.4099  1.3287
  396SOL    HW2 1188   1.723   0.890   3.038  2.5536 -0.6734 -0.6327
  397SOL     OW 1189   3.068   0.869   2.873  0.3801 -0.7283  0.1332
  397SOL    HW1 1190   3.001   0.819   2.812 -2.3745  1.1159  2.0673
  397SOL    HW2 1191   0.073   0.894   2.831 -0.6112  2.3361 -1.4522
  398SOL     OW 1192   1.282   0.325   3.021  0.3610  0.0450 -0.4791
  398SOL    HW1 1193   1.331   0.281   0.009 -1.5906  0.4421 -2.3553
  398SOL    HW2 1194   1.234   0.254   2.968  1.3425  1.5504  1.1676
  399SOL     OW 1195   2.419   2.764   2.068  0.4782  0.0047  0.1245
  399SOL    HW1 1196   2.518   2.738   2.055  0.5132  0.0792  1.8869
  399SOL    HW2 1197   2.365   2.681   2.095  0.9214 -1.5386  0.0176
  400SOL     OW 1198   0.017   1.518   2.401  0.4632 -0.1416  0.1828
  400SOL    HW1 1199   0.105   1.470   2.414  0.6422  0.2450  0.5790
  400SOL    HW2 1200   3.022   1.461   2.395  2.5657  1.7473  1.1419
  401SOL     OW 1201   0.446   0.333   2.640  0.2481  0.3696  0.5282
  401SOL    HW1 1202   0.466   0.344   2.740  1.7178  0.4551 -0.8148
  401SOL    HW2 1203   0.473   0.237   2.616 -0.2280 -0.3898 -0.1061
  402SOL     OW 1204   0.372   2.507   1.718  0.5275  0.5443  0.3072
  402SOL    HW1 1205   0.442   2.550   1.661  0.6759  1.1092  0.3045
  402SOL    HW2 1206   0.419   2.436   1.780 -1.2510 -3.2131 -1.8587
  403SOL     OW 1207   0.968   1.349   1.298  0.3273 -0.1727  0.4422
  403SOL    HW1 1208   0.930   1.311   1.387  0.9733 -0.9570 -0.6648
  403SOL    HW2 1209   0.961   1.451   1.298 -1.7171  0.9966  1.3475
  404SOL     OW 1210   2.815   2.758   1.630  0.2244  0.4156  0.3163
  404SOL    HW1 1211   2.717   2.783   1.653 -0.9525 -0.0177 -1.5042
  404SOL    HW2 1212   2.827   2.733   1.533  0.1583 -0.2608  0.7971
  405SOL     OW 1213   2.912   0.335   2.073 -0.4957  0.3784  0.2396
  405SOL    HW1 1214   2.847   0.277   2.022 -1.6889  1.0777  1.3800
  405SOL    HW2 1215   2.967   0.289   2.143  3.7976  1.8887 -0.4159
  406SOL     OW 1216   1.469   2.397   2.617  0.7505  0.5841 -0.3788
  406SOL    HW1 1217   1.472   2.337   2.694  0.3244  2.7448 -2.6968
  406SOL    HW2 1218   1.552   2.448   2.606  2.6286 -0.7505 -1.2573
  407SOL     OW 1219   1.860   1.687   1.093  0.0900  0.1606  0.6800
  407SOL    HW1 1220   1.821   1.629   1.166  1.2251  0.8224 -3.3386
  407SOL    HW2 1221   1.865   1.784   1.122 -1.2102  0.7924  0.2087
  408SOL     OW 1222   0.576   0.175   2.187  0.1495  0.3215 -0.4261
  408SOL    HW1 1223   0.545   0.086   2.144 -2.2617 -0.8682 -1.3476
  408SOL    HW2 1224   0.662   0.162   2.241  2.2902 -0.3752 -2.2946
  409SOL     OW 1225   2.807   2.242   0.712 -0.5368 -0.1612 -0.2742
  409SOL    HW1 1226   2.847   2.170   0.776  1.1389 -2.8214  0.5761
  409SOL    HW2 1227   2.732   2.206   0.655 -1.8886  0.4022 -1.9772
  410SOL     OW 1228   2.114   1.608   0.446 -0.4197 -0.8107 -0.1794
  410SOL    HW1 1229   2.214   1.587   0.430  3.0639 -0.6855 -1.7304
  410SOL    HW2 1230   2.056   1.531   0.473  0.5531  3.0030 -0.3889
  411SOL     OW 1231   0.027   0.702   0.726  0.3944  0.5997  0.1208
  411SOL    HW1 1232   0.095   0.624   0.742  0.3366 -0.6420 -0.7469
  411SOL    HW2 1233   0.039   0.743   0.637 -0.8882 -1.4035  2.1191
  412SOL     OW 1234   1.892   0.620   0.547 -0.1634 -0.0572 -0.0812
  412SOL    HW1 1235   1.860   0.627   0.648 -0.8687 -1.0747  2.5015
  412SOL    HW2 1236   1.914   0.711   0.498 -1.0724  0.4809  0.8190
  413SOL     OW 1237   0.971   0.527   1.044  0.4729 -0.3493  0.2010
  413SOL    HW1 1238   0.926   0.475   1.119 -0.5320  1.3241 -2.0091
  413SOL    HW2 1239   1.055   0.571   1.080 -0.9455 -0.1394 -0.1598
  414SOL     OW 1240   0.343   1.735   0.066 -0.1710 -0.1804 -0.3756
  414SOL    HW1 1241   0.263   1.682   0.045  0.4152  0.0669  2.5552
  414SOL    HW2 1242   0.317   1.818   0.116  2.5730 -0.2770 -1.3969
  415SOL     OW 1243   0.129   2.207   0.053 -0.2860 -0.0391 -0.0819
  415SOL    HW1 1244   0.224   2.197   0.022 -2.9759 -2.4330  0.0345
  415SOL    HW2 1245   0.063   2.212   3.059 -1.5604 -0.7490 -0.9613
  416SOL     OW 1246   1.671   0.815   0.520 -0.7193 -0.2738 -0.1723
  416SOL    HW1 1247   1.736   0.742   0.503 -1.6091  0.2225  1.1268
  416SOL    HW2 1248   1.669   0.828   0.623 -1.8592 -1.8591  0.4870
  417SOL     OW 1249   0.264   0.971   0.594 -0.1015 -0.3427  0.3823
  417SOL    HW1 1250   0.197   0.912   0.539 -1.1377  0.7205 -0.8273
  417SOL    HW2 1251   0.215   1.010   0.679 -1.1165  0.2959  0.6910
  418SOL     OW 1252   2.672   1.118   2.656  0.0946  0.0546 -0.3068
  418SOL    HW1 1253   2.640   1.060   2.579 -2.8973 -0.6329  5.4353
  418SOL    HW2 1254   2.610   1.114   2.734  1.6886 -1.5883 -1.1373
  419SOL     OW 1255   0.357   0.387   0.136 -0.6271 -0.0827  0.1846
  419SOL    HW1 1256   0.342   0.387   0.237 -0.4719  0.7455 -2.5227
  419SOL    HW2 1257   0.451   0.345   0.119  1.0109  1.0278 -0.3399
  420SOL     OW 1258   0.242   1.561   0.833  0.2465  0.2445  0.0177
  420SOL    HW1 1259   0.192   1.511   0.906  1.7122 -0.2202 -2.5512
  420SOL    HW2 1260   0.342   1.569   0.858  1.5214  0.3082  0.9390
  421SOL     OW 1261   0.491   2.081   0.337  0.4552  1.2700  0.1669
  421SOL    HW1 1262   0.544   2.163   0.303  3.2510  1.5570  0.2443
  421SOL    HW2 1263   0.507   2.066   0.434  1.0367  2.9042  0.3786
  422SOL     OW 1264   2.652   0.707   1.141 -0.0769  0.0891 -0.1507
  422SOL    HW1 1265   2.689   0.701   1.236 -1.6539  1.7058  0.3005
  422SOL    HW2 1266   2.657   0.620   1.087 -0.3642  1.1742 -1.0309
  423SOL     OW 1267   1.958   1.649   0.800 -0.1721  0.2557  0.3202
  423SOL    HW1 1268   1.931   1.668   0.894 -2.1741 -1.1873 -0.4387
  423SOL    HW2 1269   1.873   1.670   0.745 -0.2848  0.4378 -0.7898
  424SOL     OW 1270   1.844   1.103   0.363 -1.3873  0.2982 -0.5413
  424SOL    HW1 1271   1.912   1.124   0.288  0.5095 -1.4382 -1.0965
  424SOL    HW2 1272   1.765   1.161   0.360 -0.8639 -1.8099  1.0397
  425SOL     OW 1273   0.120   2.866   2.200  0.0088  0.5676 -0.6644
  425SOL    HW1 1274   0.180   2.944   2.236 -0.0105  2.7461  2.0433
  425SOL    HW2 1275   0.031   2.856   2.250  0.8993 -2.6052 -3.3990
  426SOL     OW 1276   2.444   2.738   2.944  0.9088 -0.6184  0.5468
  426SOL    HW1 1277   2.458   2.697   3.035  5.0718 -2.9088  0.5025
  426SOL    HW2 1278   2.407   2.835   2.941  1.7097 -0.5406  0.3842
  427SOL     OW 1279   0.914   1.093   2.538 -0.2760 -0.0790 -0.1350
  427SOL    HW1 1280   0.889   1.006   2.591  0.0361 -0.4481 -2.0848
  427SOL    HW2 1281   1.017   1.093   2.530  2.8191  0.0372 -0.2009
  428SOL     OW 1282   2.184   0.831   2.513 -0.1159  0.2200 -0.3555
  428SOL    HW1 1283   2.256   0.837   2.587  1.0370 -1.1360  1.7078
  428SOL    HW2 1284   2.091   0.828   2.557  0.4646 -1.6044  2.1273
  429SOL     OW 1285   2.488   0.424   0.615  0.1922 -0.4978  0.7278
  429SOL    HW1 1286   2.494   0.368   0.527  0.1780  1.3739 -1.3518
  429SOL    HW2 1287   2.390   0.433   0.643  0.4955 -0.8098 -1.9785
  430SOL     OW 1288   1.972   1.246   2.096  0.2305  0.0849  0.4656
  430SOL    HW1 1289   2.021   1.221   2.179 -4.3320 -3.1884  0.0049
  430SOL    HW2 1290   2.021   1.206   2.015 -0.6558 -0.6993 -0.6011
  431SOL     OW 1291   3.003   1.952   1.384  0.0238 -0.2583 -0.2826
  431SOL    HW1 1292   3.005   2.038   1.442 -1.3466  0.6543  2.0608
  431SOL    HW2 1293   3.030   1.876   1.441 -0.6952  3.0528 -1.0930
  432SOL     OW 1294   1.464   2.919   2.479  0.2220 -0.0260  0.2589
  432SOL    HW1 1295   1.428   3.003   2.518  1.9014 -2.3779 -1.6942
  432SOL    HW2 1296   1.520   2.946   2.396  3.6098  0.6759  0.4656
  433SOL     OW 1297   1.662   2.789   1.756  0.3270  0.3056  0.1716
  433SOL    HW1 1298   1.656   2.712   1.687  0.3455 -0.1557 -1.3137
  433SOL    HW2 1299   1.692   2.875   1.707  1.8027 -2.5595 -0.4093
  434SOL     OW 1300   0.158   2.332   2.275  0.0191 -0.1464  0.0024
  434SOL    HW1 1301   0.169   2.401   2.352 -0.6214  1.4161 -0.4965
  434SOL    HW2 1302   0.165   2.374   2.183 -1.6564 -0.0074  1.5142
  435SOL     OW 1303   2.961   2.003   0.160  0.1706  0.6343  0.4841
  435SOL    HW1 1304   3.040   1.972   0.099 -1.1258 -1.1471 -0.7104
  435SOL    HW2 1305   2.961   1.956   0.251 -1.3164 -0.5185 -0.1526
  436SOL     OW 1306   0.945   1.096   1.744  0.2219 -0.5059  0.0183
  436SOL    HW1 1307   1.000   1.022   1.701  3.3643 -0.7907  2.1524
  436SOL    HW2 1308   0.968   1.100   1.842  0.8394  1.5520 -1.9279
  437SOL     OW 1309   0.225   0.181   2.836 -0.1198 -0.2995  0.7235
  437SOL    HW1 1310   0.323   0.171   2.868  0.8567 -0.2003 -0.0944
  437SOL    HW2 1311   0.214   0.140   2.743  2.3718 -0.4288 -1.6184
  438SOL     OW 1312   0.633   1.584   1.591  1.0993  0.3746  0.6002
  438SOL    HW1 1313   0.611   1.684   1.596  0.4768 -0.3405  1.2640
  438SOL    HW2 1314   0.732   1.561   1.618 -0.0106 -0.4586 -0.5921
  439SOL     OW 1315   1.974   1.053   2.977  0.3182 -0.4300  0.4383
  439SOL    HW1 1316   1.893   1.059   3.037 -0.3876 -0.9628  0.2548
  439SOL    HW2 1317   2.021   0.960   2.985  2.5169  1.3500  1.3576
  440SOL     OW 1318   0.739   0.826   0.123  0.1600 -0.0812  0.1762
  440SOL    HW1 1319   0.693   0.893   0.184  1.0410 -2.6861 -2.5140
  440SOL    HW2 1320   0.675   0.792   0.051  1.6161 -2.9713  2.4163
  441SOL     OW 1321   0.580   2.600   1.556  0.0560 -0.0149  0.1676
  441SOL    HW1 1322   0.588   2.574   1.459 -0.2825 -0.6880  1.9340
  441SOL    HW2 1323   0.630   2.686   1.566 -1.6531 -2.8203  0.0556
  442SOL     OW 1324   2.452   2.305   0.697  0.3758  0.0181  0.3040
  442SOL    HW1 1325   2.516   2.349   0.765  1.5237  2.8964  0.3866
  442SOL    HW2 1326   2.377   2.375   0.686 -1.1105  1.5420 -0.0634
  443SOL     OW 1327   2.782   1.559   2.414  0.2320 -0.6814 -0.2737
  443SOL    HW1 1328   2.753   1.654   2.390 -2.3831  0.1303  2.3886
  443SOL    HW2 1329   2.791   1.546   2.514 -2.8223  0.9155 -0.0757
  444SOL     OW 1330   1.147   0.880   0.112 -0.4771  0.1153  0.4606
  444SOL    HW1 1331   1.055   0.873   0.069 -0.7897  1.9183 -0.2350
  444SOL    HW2 1332   1.139   0.932   0.202 -0.8934  0.5794 -2.1446
  445SOL     OW 1333   2.286   2.681   1.710  0.6967  0.3277 -0.2699
  445SOL    HW1 1334   2.344   2.612   1.758  0.3978  1.5636 -2.3720
  445SOL    HW2 1335   2.261   2.764   1.762 -0.4625  0.9885 -0.1262
  446SOL     OW 1336   2.695   1.926   0.530  0.1842 -0.0337  0.2281
  446SOL    HW1 1337   2.787   1.905   0.490  1.3190  0.8060  0.7011
  446SOL    HW2 1338   2.673   2.026   0.520 -0.1792 -1.0910 -0.4361
  447SOL     OW 1339   0.882   2.343   1.490 -0.1897 -0.1698 -0.2746
  447SOL    HW1 1340   0.936   2.414   1.543  2.2267  0.6981 -3.6419
  447SOL    HW2 1341   0.792   2.384   1.462  0.9214  0.9633 -1.0040
  448SOL     OW 1342   1.585   1.602   1.757 -0.1882 -0.5471  0.5881
  448SOL    HW1 1343   1.680   1.657   1.762  1.6191  3.1147 -1.2929
  448SOL    HW2 1344   1.558   1.558   1.846 -1.4001 -2.1382 -0.8771
  449SOL     OW 1345   0.094   1.907   2.196 -0.4291  0.4569 -0.2770
  449SOL    HW1 1346   0.063   1.993   2.147 -1.2420 -0.7162 -2.4764
  449SOL    HW2 1347   0.186   1.879   2.168 -0.3385  1.1758  0.5290
  450SOL     OW 1348   2.805   2.006   2.314 -0.6315  0.6491  0.3028
  450SOL    HW1 1349   2.795   2.100   2.354  2.3840  0.1212 -0.2309
  450SOL    HW2 1350   2.851   2.007   2.226  0.6776  0.3527  2.2711
  451SOL     OW 1351   2.129   0.592   1.575 -0.3563  0.0757 -0.1370
  451SOL    HW1 1352   2.197   0.650   1.526 -1.6267 -0.5615 -3.9803
  451SOL    HW2 1353   2.158   0.493   1.563  5.0400 -0.1126  1.2922
  452SOL     OW 1354   0.900   1.647   0.797  0.1428  0.3885  0.3471
  452SOL    HW1 1355   0.842   1.572   0.824  0.7278  0.9297 -1.1894
  452SOL    HW2 1356   0.956   1.615   0.718 -2.1646  0.4098  0.6645
  453SOL     OW 1357   1.274   2.183   0.887 -0.0333  0.1508  0.0356
  453SOL    HW1 1358   1.262   2.124   0.804 -1.2523 -0.1179  0.8323
  453SOL    HW2 1359   1.209   2.263   0.882 -1.9254  2.8344 -0.1578
  454SOL     OW 1360   0.010   1.434   0.390 -0.1877 -0.0884 -0.0866
  454SOL    HW1 1361   3.042   1.362   0.438 -0.1784  3.5755  0.0524
  454SOL    HW2 1362   0.113   1.432   0.403  3.2197  0.1028 -0.0839
  455SOL     OW 1363   0.854   1.116   0.374 -0.2313 -0.5643 -0.0811
  455SOL    HW1 1364   0.932   1.055   0.358  0.6594 -0.1860 -0.8863
  455SOL    HW2 1365   0.788   1.118   0.291 -0.9586 -0.2804 -1.4273
  456SOL     OW 1366   2.158   2.452   0.943 -0.7500  0.1398  0.6474
  456SOL    HW1 1367   2.058   2.431   0.931 -2.2330  0.3480  1.0339
  456SOL    HW2 1368   2.196   2.487   0.855  2.1778 -0.7466  1.6553
  457SOL     OW 1369   1.365   2.972   2.860  0.1328  0.1205 -0.7515
  457SOL    HW1 1370   1.462   2.946   2.876 -0.3114  2.5929 -0.0433
  457SOL    HW2 1371   1.298   2.928   2.924 -1.2461  0.7043 -0.4785
  458SOL     OW 1372   2.507   0.466   0.204  0.1317 -0.0203 -0.0874
  458SOL    HW1 1373   2.414   0.499   0.225  2.3660 -5.6591 -1.6897
  458SOL    HW2 1374   2.564   0.493   0.276 -5.0662 -1.4853 -3.5411
  459SOL     OW 1375   2.301   0.338   2.219  0.1519  0.4400 -0.2529
  459SOL    HW1 1376   2.248   0.420   2.244  0.8682 -1.1788 -1.3472
  459SOL    HW2 1377   2.397   0.354   2.238 -0.7858 -1.0520 -1.8818
  460SOL     OW 1378   2.892   0.718   2.760 -0.2799 -0.6561 -0.3012
  460SOL    HW1 1379   2.931   0.639   2.705 -1.3972 -0.9367 -0.8769
  460SOL    HW2 1380   2.842   0.688   2.844  0.6248 -0.9557  0.9295
  461SOL     OW 1381   0.097   2.327   0.828 -0.3929 -0.0798  0.0054
  461SOL    HW1 1382   0.185   2.307   0.870 -1.4013 -0.2266 -0.4836
  461SOL    HW2 1383   0.102   2.323   0.727 -0.0714  0.6142 -3.4336
  462SOL     OW 1384   2.857   0.104   1.183  0.0298  0.6541 -0.2008
  462SOL    HW1 1385   2.797   0.035   1.136  0.0640 -1.1531  2.1477
  462SOL    HW2 1386   2.801   0.164   1.247 -1.4017 -0.1014 -1.6755
  463SOL     OW 1387   2.166   1.421   0.074 -0.2307  0.3730  1.2410
  463SOL    HW1 1388   2.223   1.504   0.072 -3.3007  2.0935  0.5474
  463SOL    HW2 1389   2.163   1.367   3.071 -1.8296 -3.4792 -1.6341
  464SOL     OW 1390   0.825   2.653   1.137  0.6108  0.3544 -0.3584
  464SOL    HW1 1391   0.903   2.586   1.147 -1.6898 -0.6099 -0.5454
  464SOL    HW2 1392   0.847   2.742   1.096 -0.3690 -0.2740 -1.7863
  465SOL     OW 1393   1.182   0.278   1.415 -0.0986  0.2733 -0.1051
  465SOL    HW1 1394   1.220   0.342   1.486  0.6041 -0.2169  0.5702
  465SOL    HW2 1395   1.080   0.283   1.426  1.6708 -0.0031 -1.4523
  466SOL     OW 1396   1.705   2.500   1.876  0.1841  0.0564 -0.3662
  466SOL    HW1 1397   1.736   2.473   1.967  0.3116  1.2742 -1.2997
  466SOL    HW2 1398   1.603   2.499   1.860  1.2521  0.5668 -0.7112
  467SOL     OW 1399   0.607   2.278   1.379  0.1798 -0.5075  0.3560
  467SOL    HW1 1400   0.539   2.275   1.465 -1.6409  0.1678  1.1106
  467SOL    HW2 1401   0.617   2.373   1.339  1.0173 -0.1311 -0.7751
  468SOL     OW 1402   2.651   1.576   2.001  0.1891  0.3961 -0.2188
  468SOL    HW1 1403   2.668   1.649   2.067 -0.3916  2.3568  0.5171
  468SOL    HW2 1404   2.717   1.499   2.020  2.3340 -1.1434  0.0070
  469SOL     OW 1405   0.933   1.997   0.620  0.2469 -0.2043  0.5078
  469SOL    HW1 1406   0.839   1.986   0.659 -1.4007  3.6217  0.7822
  469SOL    HW2 1407   0.999   1.960   0.692  1.5764 -0.2641  1.8091
  470SOL     OW 1408   2.107   1.183   2.323 -0.2216  0.1254 -0.9050
  470SOL    HW1 1409   2.131   1.084   2.306 -1.1435 -2.1742 -1.4955
  470SOL    HW2 1410   2.191   1.238   2.331  0.8708 -3.8853  1.3504
  471SOL     OW 1411   0.333   2.541   0.038 -0.1615  0.0258  0.2133
  471SOL    HW1 1412   0.255   2.527   3.061 -1.2332 -0.6745  0.6684
  471SOL    HW2 1413   0.413   2.484   0.017 -2.3641 -0.3923  1.5941
  472SOL     OW 1414   0.318   2.670   2.140 -0.6998  0.3117  0.0036
  472SOL    HW1 1415   0.243   2.743   2.149 -1.5337  2.6211 -0.7816
  472SOL    HW2 1416   0.402   2.703   2.092 -0.0705  0.5522  1.6649
  473SOL     OW 1417   0.409   2.807   0.132  0.1397  0.3017  0.3743
  473SOL    HW1 1418   0.371   2.720   0.097  0.0707 -0.5648 -1.0217
  473SOL    HW2 1419   0.464   2.796   0.215 -3.5384  1.5660 -4.4354
  474SOL     OW 1420   1.920   2.988   1.096 -0.5247 -0.1907 -0.6166
  474SOL    HW1 1421   1.886   3.028   1.012  0.4228 -0.0223 -2.9727
  474SOL    HW2 1422   2.016   2.960   1.091 -1.9199  2.1771  0.4163
  475SOL     OW 1423   1.599   0.066   1.618 -0.3044  0.4801  0.0649
  475SOL    HW1 1424   1.669   3.081   1.601  0.7755  1.0060 -1.0068
  475SOL    HW2 1425   1.591   0.134   1.543 -2.6193 -0.8519 -1.1807
  476SOL     OW 1426   0.737   1.398   0.814  0.0073  0.2377 -0.7144
  476SOL    HW1 1427   0.643   1.444   0.815  2.3749 -1.5382 -0.3169
  476SOL    HW2 1428   0.733   1.316   0.871 -1.1674 -1.7506  0.9069
  477SOL     OW 1429   0.358   1.980   0.641  0.3407 -0.2261 -0.9485
  477SOL    HW1 1430   0.313   1.918   0.573 -1.6924 -3.0792  1.3114
  477SOL    HW2 1431   0.458   1.960   0.637  0.6926  1.7719 -2.6530
  478SOL     OW 1432   0.101   2.521   2.503 -0.6453 -0.1126 -0.3037
  478SOL    HW1 1433   0.058   2.593   2.558 -4.3861 -0.4428  0.1766
  478SOL    HW2 1434   0.091   2.430   2.548  0.5185  0.6967  0.4756
  479SOL     OW 1435   2.898   0.476   1.388  0.3001  0.2563  0.4829
  479SOL    HW1 1436   2.985   0.481   1.342 -2.9893  1.4658  1.7748
  479SOL    HW2 1437   2.912   0.439   1.481  1.0642  0.2335  0.1259
  480SOL     OW 1438   2.791   2.604   0.104  0.1400  0.1539  0.3482
  480SOL    HW1 1439   2.860   2.606   0.182  0.8619 -2.9423  3.4503
  480SOL    HW2 1440   2.718   2.546   0.140  0.7006  2.7281  1.4053
  481SOL     OW 1441   2.303   1.923   1.774  0.1773  0.0934 -0.5545
  481SOL    HW1 1442   2.203   1.933   1.797  1.1915  1.5303  1.0716
  481SOL    HW2 1443   2.323   2.004   1.715  2.1554 -2.1310  1.2540
  482SOL     OW 1444   1.870   2.003   2.445  0.0721 -0.4640  0.0238
  482SOL    HW1 1445   1.971   2.006   2.429 -0.1110 -1.9314  0.3435
  482SOL    HW2 1446   1.819   1.987   2.357 -0.5372  2.8785  0.1812
  483SOL     OW 1447   0.869   1.355   2.138  0.7680 -0.4874  0.1623
  483SOL    HW1 1448   0.885   1.297   2.053 -1.2241 -0.7294  0.4037
  483SOL    HW2 1449   0.954   1.348   2.196 -0.8944  1.1055  0.8190
  484SOL     OW 1450   0.073   0.496   1.294 -0.5399 -0.4175 -0.0383
  484SOL    HW1 1451   0.097   0.503   1.196  1.7705  2.1387 -1.0047
  484SOL    HW2 1452   0.131   0.553   1.356  2.8360  0.7644 -1.2763
  485SOL     OW 1453   2.265   0.952   0.176  0.2506 -0.5822  0.1962
  485SOL    HW1 1454   2.367   0.958   0.176  0.5192 -0.7383  1.8926
  485SOL    HW2 1455   2.235   0.956   0.272 -1.2777 -0.0284  1.4462
  486SOL     OW 1456   1.543   0.182   2.027 -0.4512  0.2255 -0.0618
  486SOL    HW1 1457   1.503   0.103   1.978  1.4973  0.8210  1.1438
  486SOL    HW2 1458   1.617   0.141   2.086  1.1070 -1.0665  0.2602
  487SOL     OW 1459   0.872   1.902   1.313  0.6848  0.5157  0.1263
  487SOL    HW1 1460   0.787   1.946   1.344  4.5289 -0.9465  0.8293
  487SOL    HW2 1461   0.935   1.878   1.390 -3.0654 -2.1389  1.1401
  488SOL     OW 1462   2.315   1.615   3.036 -0.3724 -0.7903 -0.0006
  488SOL    HW1 1463   2.355   1.526   3.012  1.3966  2.0159 -2.2193
  488SOL    HW2 1464   2.297   1.665   2.950 -0.4676 -0.3145  0.4032
  489SOL     OW 1465   2.192   2.775   0.643  0.2089 -0.4301  0.0347
  489SOL    HW1 1466   2.093   2.753   0.653 -1.5427 -1.5891  0.2780
  489SOL    HW2 1467   2.219   2.814   0.550  0.3453 -1.2302 -2.9929
  490SOL     OW 1468   1.127   2.634   2.995 -0.4400 -0.0291 -0.2305
  490SOL    HW1 1469   1.177   2.566   2.930  3.2959 -1.2167 -2.1616
  490SOL    HW2 1470   1.028   2.614   2.997 -0.6620  0.0462  1.1306
  491SOL     OW 1471   0.994   1.228   1.061  0.1716  0.0618  0.3189
  491SOL    HW1 1472   0.987   1.280   1.147  1.4759  1.4106 -0.3481
  491SOL    HW2 1473   1.077   1.246   1.005 -2.0465 -0.3228 -0.9902
  492SOL     OW 1474   1.373   0.344   2.577  0.1150 -0.3051  1.2145
  492SOL    HW1 1475   1.456   0.286   2.564 -0.3393  1.4499 -0.0833
  492SOL    HW2 1476   1.386   0.409   2.654 -0.8007 -1.5023  0.8229
  493SOL     OW 1477   1.890   2.103   0.183 -0.9303 -0.4697 -0.3439
  493SOL    HW1 1478   1.822   2.180   0.188  0.6023  0.8283  2.1661
  493SOL    HW2 1479   1.931   2.095   0.092  1.1488  1.9393  0.3728
  494SOL     OW 1480   0.716   1.429   0.559 -0.0359  0.0733 -0.0373
  494SOL    HW1 1481   0.692   1.526   0.546 -1.7871 -0.4645  0.9295
  494SOL    HW2 1482   0.728   1.399   0.657  0.1040  1.7304 -1.6626
  495SOL     OW 1483   2.710   2.478   0.797  0.0479 -0.4785  0.7399
  495SOL    HW1 1484   2.766   2.394   0.768 -0.3850  0.8982 -0.2327
  495SOL    HW2 1485   2.644   2.449   0.875 -2.6261  1.1142 -1.7214
  496SOL     OW 1486   2.488   0.011   1.793  1.0110  0.0281  0.1655
  496SOL    HW1 1487   2.526   0.085   1.850  0.5833 -1.0767 -3.1759
  496SOL    HW2 1488   2.513   0.015   1.692 -3.3682 -0.0848 -0.7273
  497SOL     OW 1489   2.506   1.011   2.406 -0.8334  0.2740  0.0382
  497SOL    HW1 1490   2.542   1.012   2.312 -2.4326 -1.1403  0.2536
  497SOL    HW2 1491   2.466   1.100   2.439  1.6750  0.3593 -2.8145
  498SOL     OW 1492   0.398   2.250   1.025 -0.4101  0.4706 -0.1352
  498SOL    HW1 1493   0.413   2.219   0.927  0.3432  2.5064 -1.1920
  498SOL    HW2 1494   0.382   2.164   1.079 -0.8431 -0.4268  1.4440
  499SOL     OW 1495   1.005   2.555   1.640  0.2400 -0.2532  0.3189
  499SOL    HW1 1496   1.010   2.572   1.738  0.3005 -2.1116 -1.7837
  499SOL    HW2 1497   1.093   2.552   1.592 -0.4885  1.9501  0.3597
  500SOL     OW 1498   1.078   1.946   0.203  0.0746 -0.1429  0.0495
  500SOL    HW1 1499   1.027   2.004   0.141  2.0295 -2.9812  2.9174
  500SOL    HW2 1500   1.084   1.855   0.154 -0.8042 -0.6562  4.3687
  501SOL     OW 1501   1.992   0.012   1.375  0.0187 -0.0852 -0.0507
  501SOL    HW1 1502   1.952   0.005   1.281  1.1015  1.0070  0.8729
  501SOL    HW2 1503   2.039   3.009   1.393  0.5542  2.2230  0.6178
  502SOL     OW 1504   2.675   0.260   1.712 -0.1969  0.0403  0.8782
  502SOL    HW1 1505   2.646   0.221   1.801 -0.2846 -1.4164 -2.1115
  502SOL    HW2 1506   2.773   0.296   1.716  2.2555 -0.3809  1.7630
  503SOL     OW 1507   2.735   0.966   1.874 -0.5426  0.7037 -0.4571
  503SOL    HW1 1508   2.814   0.993   1.812 -0.0601 -3.2614  1.2579
  503SOL    HW2 1509   2.758   0.985   1.974  0.4712  0.9525  2.5723
  504SOL     OW 1510   1.448   0.822   1.821 -0.0705 -0.3137 -0.0345
  504SOL    HW1 1511   1.500   0.751   1.881  2.3860 -0.2447  2.0240
  504SOL    HW2 1512   1.351   0.811   1.841  4.5517 -0.7656 -1.7258
  505SOL     OW 1513   0.852   3.033   2.074  0.0480 -0.1218  0.1204
  505SOL    HW1 1514   0.852   2.931   2.067 -1.8462  1.5879  0.8499
  505SOL    HW2 1515   0.816   3.063   2.157 -1.7384 -2.0456 -0.3801
  506SOL     OW 1516   0.323   0.315   0.776 -0.1391 -0.0002 -0.1568
  506SOL    HW1 1517   0.398   0.317   0.707 -2.1623  1.7695 -0.1601
  506SOL    HW2 1518   0.313   0.219   0.810 -1.4827 -0.7525 -0.0840
  507SOL     OW 1519   2.234   0.366   0.030 -0.0531 -0.3446  0.0016
  507SOL    HW1 1520   2.238   0.413   0.121  1.5883 -0.6671 -2.7719
  507SOL    HW2 1521   2.154   0.392   3.066 -1.5784  0.5146  0.8825
  508SOL     OW 1522   1.836   0.350   2.244  0.6257  0.7398 -1.1515
  508SOL    HW1 1523   1.913   0.370   2.185  0.0540  2.4056  0.3778
  508SOL    HW2 1524   1.796   0.434   2.288  1.4451  0.5497 -1.2701
  509SOL     OW 1525   1.329   1.474   1.541 -0.2528 -0.1652  0.3389
  509SOL    HW1 1526   1.396   1.420   1.597  0.3788 -0.7867 -1.2315
  509SOL    HW2 1527   1.281   1.414   1.474 -0.6236 -1.4200 -2.2322
  510SOL     OW 1528   2.578   1.339   0.689  0.4434 -0.1569 -0.5883
  510SOL    HW1 1529   2.660   1.295   0.724 -3.5968  0.5460  0.4320
  510SOL    HW2 1530   2.560   1.416   0.751  3.2970  2.5983  0.1840
  511SOL     OW 1531   1.866   1.972   1.156 -0.2140 -0.1131 -0.3428
  511SOL    HW1 1532   1.940   1.972   1.225 -0.7742 -0.0665  0.3851
  511SOL    HW2 1533   1.896   2.004   1.068 -1.1947  2.0973  0.0050
  512SOL     OW 1534   0.030   1.704   0.488  0.1744 -0.5464  0.0327
  512SOL    HW1 1535   0.022   1.613   0.445  0.6420 -2.9912  1.1449
  512SOL    HW2 1536   0.122   1.748   0.459  0.2333  0.0450  1.3524
  513SOL     OW 1537   3.009   2.212   0.333  0.7566 -0.1927 -0.6467
  513SOL    HW1 1538   3.007   2.149   0.253  1.1274 -0.6138 -1.5979
  513SOL    HW2 1539   2.917   2.255   0.349  1.6879 -0.5417  1.3545
  514SOL     OW 1540   2.517   2.130   2.378  0.0079 -0.3185  0.7108
  514SOL    HW1 1541   2.458   2.215   2.383 -0.8976  0.9736  0.6849
  514SOL    HW2 1542   2.563   2.114   2.470  2.2310  1.2469 -0.1078
  515SOL     OW 1543   1.916   1.383   0.489 -0.4995 -0.1324 -0.1744
  515SOL    HW1 1544   1.916   1.374   0.590  5.1823  0.3536  1.7436
  515SOL    HW2 1545   1.828   1.411   0.456 -2.0310 -0.5600  0.5530
  516SOL     OW 1546   1.884   3.012   0.442 -0.1432  0.1407 -0.5905
  516SOL    HW1 1547   1.888   0.026   0.466 -0.1277 -0.4805  1.6810
  516SOL    HW2 1548   1.833   2.990   0.359  0.8483 -0.1840  2.4551
  517SOL     OW 1549   0.807   1.842   2.590 -0.6560  0.9866  0.6093
  517SOL    HW1 1550   0.877   1.896   2.541 -4.2255  0.8355  1.5801
  517SOL    HW2 1551   0.716   1.875   2.560  0.9180  2.5239  1.8500
  518SOL     OW 1552   0.569   0.462   1.767 -0.4936 -0.5316  0.3554
  518SOL    HW1 1553   0.497   0.513   1.816  0.2375 -1.2178 -0.9503
  518SOL    HW2 1554   0.575   0.366   1.807  0.1950 -0.0177 -1.2433
  519SOL     OW 1555   3.051   1.167   0.274  0.0642 -0.2208 -0.3418
  519SOL    HW1 1556   0.050   1.214   0.254 -0.6498  2.1605  0.1897
  519SOL    HW2 1557   3.001   1.196   0.360  0.1225 -2.0991 -0.1997
  520SOL     OW 1558   2.809   1.735   1.651  0.3673 -0.4151 -0.4792
  520SOL    HW1 1559   2.809   1.765   1.751  0.1386 -1.5517 -3.4885
  520SOL    HW2 1560   2.731   1.783   1.606 -3.9659  0.2904 -3.7335
  521SOL     OW 1561   0.568   2.499   2.472 -0.3701  0.1974 -0.3185
  521SOL    HW1 1562   0.621   2.547   2.400 -1.1044 -0.3604 -1.5711
  521SOL    HW2 1563   0.482   2.549   2.484  1.0727  0.0703  3.1884
  522SOL     OW 1564   1.769   0.078   2.216 -0.0973  0.4573  0.4235
  522SOL    HW1 1565   1.831   0.054   2.138  1.4989 -0.3824 -0.1105
  522SOL    HW2 1566   1.791   0.170   2.254  0.2023 -0.3030  1.9854
  523SOL     OW 1567   1.989   1.809   1.631 -0.4105  0.0848  0.0583
  523SOL    HW1 1568   2.021   1.825   1.726  0.5280 -0.3820 -2.1804
  523SOL    HW2 1569   1.996   1.712   1.598 -2.4318  0.4958 -0.6850
  524SOL     OW 1570   0.569   2.844   0.336  0.5625 -0.5383 -0.6214
  524SOL    HW1 1571   0.528   2.933   0.361  0.2477 -0.4460  0.2666
  524SOL    HW2 1572   0.670   2.853   0.350  0.7443 -0.5752 -0.4679
  525SOL     OW 1573   2.943   0.413   0.379 -0.2450  0.0247  0.0688
  525SOL    HW1 1574   2.882   0.495   0.377  1.7391  0.3376  0.6610
  525SOL    HW2 1575   3.036   0.430   0.418 -1.8024  0.4551  1.4507
  526SOL     OW 1576   0.730   2.671   0.593 -0.5681  0.0471  0.1935
  526SOL    HW1 1577   0.762   2.662   0.691  2.2124 -0.8793 -1.2067
  526SOL    HW2 1578   0.629   2.687   0.581  0.9677 -1.1842 -0.3498
  527SOL     OW 1579   2.655   2.006   0.979 -0.0702  0.3253  0.2019
  527SOL    HW1 1580   2.657   1.944   1.062  3.2383 -0.1811  0.7993
  527SOL    HW2 1581   2.748   2.021   0.934  3.0592  0.9801 -2.5312
  528SOL     OW 1582   2.851   0.293   2.453 -0.3009 -0.4992  0.0652
  528SOL    HW1 1583   2.879   0.343   2.534 -2.3724 -2.1396  0.0090
  528SOL    HW2 1584   2.932   0.290   2.393 -0.2092 -1.0916 -1.3678
  529SOL     OW 1585   1.134   1.348   2.577  0.4657 -0.5266 -0.5931
  529SOL    HW1 1586   1.209   1.297   2.628 -0.1379 -3.3112 -1.0281
  529SOL    HW2 1587   1.047   1.326   2.620  2.6468  2.0557  1.1765
  530SOL     OW 1588   1.830   1.170   2.770 -0.5683 -0.0940 -0.3186
  530SOL    HW1 1589   1.802   1.129   2.681  2.7636  1.1993  1.0343
  530SOL    HW2 1590   1.858   1.096   2.839  0.2647 -2.1363 -0.8176
  531SOL     OW 1591   0.592   1.527   2.448 -0.0164  0.3273  0.2245
  531SOL    HW1 1592   0.542   1.611   2.411  1.9778 -2.1671  1.7323
  531SOL    HW2 1593   0.603   1.455   2.378 -2.9540 -1.1163 -1.3516
  532SOL     OW 1594   1.610   1.296   0.401  0.6384  0.1110  0.7515
  532SOL    HW1 1595   1.626   1.293   0.302  2.5213  2.2345  0.3944
  532SOL    HW2 1596   1.626   1.394   0.427 -1.5848 -2.9009  0.0227
  533SOL     OW 1597   0.446   0.409   2.222  1.3017 -0.0093 -0.1534
  533SOL    HW1 1598   0.465   0.308   2.200 -0.7799 -0.1984 -1.0752
  533SOL    HW2 1599   0.506   0.437   2.296 -1.4057  1.0165 -2.2645
  534SOL     OW 1600   0.843   2.587   2.986  0.6378  0.0895 -0.3269
  534SOL    HW1 1601   0.816   2.502   3.038  0.6234 -4.7707  1.8823
  534SOL    HW2 1602   0.769   2.653   3.008 -1.3049 -1.8174 -0.4345
  535SOL     OW 1603   0.206   0.167   0.503  0.3098 -0.0285 -0.0800
  535SOL    HW1 1604   0.272   0.243   0.496 -0.3802 -0.2273  1.9535
  535SOL    HW2 1605   0.125   0.187   0.567  2.9924  1.1011 -0.3165
  536SOL     OW 1606   0.219   1.375   1.796  0.3727  0.0546 -0.4244
  536SOL    HW1 1607   0.142   1.304   1.801 -0.5855 -3.3530 -2.3155
  536SOL    HW2 1608   0.279   1.356   1.719  0.5402  0.4601 -0.8371
  537SOL     OW 1609   0.882   2.737   1.498 -0.5028  0.1741  0.1580
  537SOL    HW1 1610   0.946   2.815   1.479 -2.2623 -3.1953  2.2496
  537SOL    HW2 1611   0.927   2.660   1.545  1.7636  2.1413  0.0124
  538SOL     OW 1612   2.962   1.926   0.425 -0.1404  0.1067  0.3547
  538SOL    HW1 1613   3.016   1.847   0.455 -0.1069  3.3870  0.8675
  538SOL    HW2 1614   3.022   2.004   0.421 -2.5727 -1.7354 -3.1269
  539SOL     OW 1615   2.799   0.935   2.411 -0.0533  0.4319  0.2638
  539SOL    HW1 1616   2.738   0.878   2.469  0.3601 -0.0833 -0.5565
  539SOL    HW2 1617   2.859   0.865   2.361  2.0628 -2.7945 -2.0348
  540SOL     OW 1618   1.476   0.914   2.253 -0.2532 -0.1108 -0.5004
  540SOL    HW1 1619   1.506   0.975   2.176 -2.5705  0.3449 -1.1521
  540SOL    HW2 1620   1.398   0.947   2.303 -0.2781 -0.6333  1.0542
  541SOL     OW 1621   0.798   0.572   1.866  0.6388 -0.2026 -0.3810
  541SOL    HW1 1622   0.718   0.515   1.841  0.3309  2.6438  1.0527
  541SOL    HW2 1623   0.797   0.652   1.810  0.8464 -2.8642 -0.7721
  542SOL     OW 1624   2.178   0.332   2.765 -0.0166  0.8972  0.4973
  542SOL    HW1 1625   2.266   0.380   2.776 -1.5495  1.2112 -0.0820
  542SOL    HW2 1626   2.142   0.342   2.674  2.9120 -0.9337  0.1380
  543SOL     OW 1627   0.947   0.169   0.077  0.1301 -0.0066  0.6337
  543SOL    HW1 1628   0.973   0.237   0.147  2.7029  0.8648 -0.3792
  543SOL    HW2 1629   1.022   0.107   0.047 -1.2232 -2.1979  2.0112
  544SOL     OW 1630   2.860   1.766   1.907  0.4286  0.0776 -0.6911
  544SOL    HW1 1631   2.880   1.669   1.920 -1.7360 -1.0226 -1.9622
  544SOL    HW2 1632   2.803   1.797   1.988 -0.2180 -1.6148 -0.1817
  545SOL     OW 1633   2.130   2.158   1.613  0.7426  0.5276 -0.2861
  545SOL    HW1 1634   2.202   2.224   1.629  2.6884 -1.5838 -0.3903
  545SOL    HW2 1635   2.127   2.136   1.513 -0.9234 -0.2237 -0.9027
  546SOL     OW 1636   0.124   3.038   2.978  0.1104 -0.1876  0.2951
  546SOL    HW1 1637   0.142   0.031   2.914 -1.7481 -1.5052  0.4539
  546SOL    HW2 1638   0.178   3.053   3.065  1.4005  0.3918  0.0603
  547SOL     OW 1639   1.664   0.904   0.800 -0.3284 -0.3330 -0.0646
  547SOL    HW1 1640   1.639   1.003   0.783 -0.2885  1.2065  3.1567
  547SOL    HW2 1641   1.631   0.881   0.897  2.0498 -0.0493  0.0076
  548SOL     OW 1642   1.958   1.526   2.126  0.0690  0.0049 -0.5330
  548SOL    HW1 1643   1.951   1.427   2.105 -1.0198  0.1274 -1.0152
  548SOL    HW2 1644   1.959   1.533   2.232 -2.0315 -0.4803  1.4174
  549SOL     OW 1645   1.710   0.477   0.381  0.0176 -0.2204 -0.1979
  549SOL    HW1 1646   1.773   0.526   0.444 -0.2999 -1.6226  0.6427
  549SOL    HW2 1647   1.741   0.387   0.342  0.4744  0.7353  0.1374
  550SOL     OW 1648   2.071   1.852   0.649 -0.2311 -0.0822  0.0651
  550SOL    HW1 1649   2.036   1.759   0.684 -0.2257 -0.9831  0.1189
  550SOL    HW2 1650   2.106   1.848   0.554 -0.5249 -0.5538 -1.4305
  551SOL     OW 1651   0.678   2.847   1.623 -0.5495  0.1336  0.2024
  551SOL    HW1 1652   0.751   2.820   1.558 -2.7171  0.0398 -1.3872
  551SOL    HW2 1653   0.701   2.930   1.684 -1.4500  2.3397  2.1578
  552SOL     OW 1654   0.011   2.089   2.444 -0.6959  0.4340  0.2826
  552SOL    HW1 1655   3.069   2.121   2.351  1.1304  1.6521  1.3862
  552SOL    HW2 1656   0.114   2.078   2.446  1.8252  1.1469 -0.8715
  553SOL     OW 1657   0.326   0.118   1.214  0.6274 -0.0881  0.0876
  553SOL    HW1 1658   0.370   0.032   1.248  2.0063 -0.4506  3.1096
  553SOL    HW2 1659   0.253   0.111   1.141 -1.5226  0.1526  0.1424
  554SOL     OW 1660   2.436   2.137   1.616 -0.2964  0.0100 -0.6802
  554SOL    HW1 1661   2.485   2.226   1.620  1.5767  0.2139  1.6642
  554SOL    HW2 1662   2.437   2.103   1.518  0.5398 -0.8670 -2.4950
  555SOL     OW 1663   1.332   2.204   1.968  0.4290  0.4230  0.5574
  555SOL    HW1 1664   1.364   2.172   1.875 -0.9406 -0.4684 -0.6302
  555SOL    HW2 1665   1.231   2.198   1.981  1.8891 -0.7711  2.7111
  556SOL     OW 1666   1.233   1.849   1.902  0.2864 -0.6836  0.0667
  556SOL    HW1 1667   1.260   1.941   1.871 -0.9090 -2.1446 -2.3304
  556SOL    HW2 1668   1.215   1.789   1.824  2.0269 -0.3242  1.0526
  557SOL     OW 1669   1.980   2.308   2.174  0.0618  0.0551  0.1221
  557SOL    HW1 1670   2.030   2.342   2.091 -0.0245  1.3987  0.4205
  557SOL    HW2 1671   2.050   2.282   2.244  0.8969 -0.5469 -1.1257
  558SOL     OW 1672   0.521   2.742   1.985 -0.3640  0.4296 -0.2178
  558SOL    HW1 1673   0.606   2.687   1.960  2.1103  4.2891 -0.1241
  558SOL    HW2 1674   0.500   2.800   1.902 -3.4769 -1.8766 -1.4660
  559SOL     OW 1675   2.152   2.858   1.057 -0.2021 -0.3024  0.7194
  559SOL    HW1 1676   2.221   2.877   0.985  1.5775 -2.0263 -0.0671
  559SOL    HW2 1677   2.186   2.789   1.121 -2.2750  2.1922 -2.2757
  560SOL     OW 1678   1.684   2.423   0.591 -0.0510  0.2348  0.0313
  560SOL    HW1 1679   1.605   2.367   0.615 -1.2924 -3.0825 -0.7564
  560SOL    HW2 1680   1.766   2.364   0.604 -0.1423  1.2486 -1.3609
  561SOL     OW 1681   0.972   0.378   0.242  0.3973 -0.4246  0.5213
  561SOL    HW1 1682   1.046   0.435   0.271  0.3010 -1.7264  2.2567
  561SOL    HW2 1683   0.894   0.432   0.200 -1.3414  0.1068 -1.1322
  562SOL     OW 1684   0.624   0.444   2.451  0.8021 -0.0651  0.0780
  562SOL    HW1 1685   0.552   0.403   2.514  1.4323  0.0911  0.5782
  562SOL    HW2 1686   0.723   0.429   2.484  0.7339  0.4892  0.5439
  563SOL     OW 1687   1.537   1.745   2.976  0.2304  0.5583 -0.1961
  563SOL    HW1 1688   1.454   1.798   2.979  1.3096 -4.2147 -0.7998
  563SOL    HW2 1689   1.569   1.734   3.072  1.1265  0.8471  1.7807
  564SOL     OW 1690   2.411   1.148   1.229 -0.6979  0.2322  0.3340
  564SOL    HW1 1691   2.420   1.149   1.328  3.2316 -0.6488 -2.4715
  564SOL    HW2 1692   2.462   1.072   1.192 -2.5878 -0.9677  1.3159
  565SOL     OW 1693   0.767   0.186   2.729  0.6311 -0.3462  0.3064
  565SOL    HW1 1694   0.739   0.106   2.782  3.3251  1.8099 -1.3701
  565SOL    HW2 1695   0.850   0.228   2.776 -2.4638 -0.7882 -2.2704
  566SOL     OW 1696   1.802   0.081   2.701  0.2455 -0.2896  0.1727
  566SOL    HW1 1697   1.855   0.122   2.777 -0.6649  0.8394  2.5730
  566SOL    HW2 1698   1.834   3.071   2.681 -0.8511  1.1828  0.1168
  567SOL     OW 1699   2.364   1.877   0.551 -0.1934  0.4632  0.4853
  567SOL    HW1 1700   2.395   1.791   0.505  1.4738  2.8477 -1.4818
  567SOL    HW2 1701   2.417   1.887   0.639  1.5035  1.3379 -3.7497
  568SOL     OW 1702   1.759   1.855   0.233  0.1184 -0.3973  0.0579
  568SOL    HW1 1703   1.832   1.789   0.208 -2.4976 -1.3420  1.6053
  568SOL    HW2 1704   1.799   1.948   0.234  0.9985  0.3336  3.5353
  569SOL     OW 1705   2.139   1.261   2.935 -0.9006 -0.0552  0.5055
  569SOL    HW1 1706   2.056   1.204   2.941  0.8136 -0.3112 -2.2703
  569SOL    HW2 1707   2.221   1.201   2.911  0.3816 -0.6504 -0.2975
  570SOL     OW 1708   0.101   2.527   1.660  0.2988 -0.3476  0.2986
  570SOL    HW1 1709   0.116   2.587   1.578  1.7424  1.2518 -2.3155
  570SOL    HW2 1710   0.192   2.502   1.700  3.1081 -0.5292  2.0776
  571SOL     OW 1711   0.756   0.890   1.777  0.1624 -0.0396 -0.0231
  571SOL    HW1 1712   0.694   0.926   1.849  0.9436 -0.5125  0.3192
  571SOL    HW2 1713   0.828   0.959   1.756  2.1668  0.8878  3.3425
  572SOL     OW 1714   1.065   1.587   0.533  0.1643 -0.4322 -0.0551
  572SOL    HW1 1715   1.019   1.520   0.479  1.7306 -0.3090  2.9892
  572SOL    HW2 1716   1.111   1.660   0.478 -1.8530 -1.8811  0.4141
  573SOL     OW 1717   1.200   1.866   2.999  0.3958 -0.1953  0.2888
  573SOL    HW1 1718   1.183   1.968   3.014  1.3912  3.2986  1.4257
  573SOL    HW2 1719   1.175   1.841   2.903  0.9775 -0.9436 -0.9420
  574SOL     OW 1720   1.044   0.207   0.833 -0.3730  0.4183  0.0018
  574SOL    HW1 1721   1.033   0.142   0.912 -1.0460  0.5319 -0.1751
  574SOL    HW2 1722   1.003   0.298   0.849  2.3195  1.6781 -1.2946
  575SOL     OW 1723   0.463   1.101   1.517 -0.2442  0.3773  0.5161
  575SOL    HW1 1724   0.497   1.009   1.559  0.8667 -3.7020  1.3398
  575SOL    HW2 1725   0.529   1.125   1.440  2.6603 -1.6893 -3.6596
  576SOL     OW 1726   2.107   2.856   1.434 -0.0919 -0.2303  0.6246
  576SOL    HW1 1727   2.197   2.826   1.473  2.1111 -0.6860  0.9992
  576SOL    HW2 1728   2.048   2.777   1.395  0.8310 -0.0889  0.3500
  577SOL     OW 1729   1.024   1.170   2.005  0.0845 -0.0483 -0.0066
  577SOL    HW1 1730   1.121   1.167   1.987 -0.6560 -0.1408 -2.2701
  577SOL    HW2 1731   1.007   1.122   2.095 -0.2459 -0.0179 -0.1389
  578SOL     OW 1732   2.070   0.637   2.718 -0.3068 -0.2252 -0.1369
  578SOL    HW1 1733   1.972   0.672   2.717 -2.4209  0.5655  0.4037
  578SOL    HW2 1734   2.087   0.563   2.645  2.5871  0.3305 -1.1376
  579SOL     OW 1735   2.086   2.493   1.664 -0.0747  0.0656 -0.7843
  579SOL    HW1 1736   2.169   2.554   1.657 -0.2996  2.1188 -2.0112
  579SOL    HW2 1737   2.045   2.467   1.573  0.3275  1.5575 -2.6901
  580SOL     OW 1738   2.361   1.226   2.532  0.1078 -0.1542  0.1508
  580SOL    HW1 1739   2.277   1.200   2.588 -1.8254 -0.8451 -0.4738
  580SOL    HW2 1740   2.344   1.273   2.444 -1.3154 -2.6491  0.3228
  581SOL     OW 1741   1.394   1.208   2.675 -0.0249 -0.0444 -0.0642
  581SOL    HW1 1742   1.477   1.214   2.735  2.3730 -1.9589 -1.4619
  581SOL    HW2 1743   1.316   1.162   2.729 -0.7182 -1.8912  1.4244
  582SOL     OW 1744   1.039   1.681   1.993 -0.3917  0.3025  0.3334
  582SOL    HW1 1745   1.136   1.703   1.988 -1.4744  2.0698  1.7699
  582SOL    HW2 1746   0.991   1.728   2.070 -0.3363 -0.3314  5.8121
  583SOL     OW 1747   1.854   1.291   1.325  0.0518 -0.0967 -0.1921
  583SOL    HW1 1748   1.800   1.207   1.348  0.2935 -0.4722 -0.9167
  583SOL    HW2 1749   1.805   1.376   1.297  0.7856 -0.3595 -0.8908
  584SOL     OW 1750   1.636   2.680   0.552 -0.7066 -0.1256 -0.3175
  584SOL    HW1 1751   1.550   2.672   0.502 -0.0910 -2.9787  1.0629
  584SOL    HW2 1752   1.663   2.588   0.583  0.1628 -0.2150 -0.4081
  585SOL     OW 1753   2.120   2.861   2.782  0.4018 -0.0894  0.1234
  585SOL    HW1 1754   2.033   2.877   2.725 -0.6580  1.1011 -1.3454
  585SOL    HW2 1755   2.110   2.779   2.842  0.1109  2.2128 -1.4439
  586SOL     OW 1756   2.789   2.360   1.092  0.4964 -0.0664  0.6638
  586SOL    HW1 1757   2.709   2.356   1.027  2.9852 -1.6333 -1.0485
  586SOL    HW2 1758   2.861   2.294   1.061  1.9640  1.6101 -2.3265
  587SOL     OW 1759   1.175   1.686   0.109  0.3272  0.5605 -0.0779
  587SOL    HW1 1760   1.186   1.752   0.038 -1.4314 -0.6300  1.9589
  587SOL    HW2 1761   1.214   1.598   0.076 -0.6720 -0.1195 -2.2684
  588SOL     OW 1762   0.480   0.316   1.102 -0.3755 -0.1831 -0.6406
  588SOL    HW1 1763   0.545   0.277   1.036 -0.1195  1.2130  0.2881
  588SOL    HW2 1764   0.438   0.239   1.159  0.6156 -0.8899  1.5538
  589SOL     OW 1765   0.888   0.230   0.443 -0.0144  0.0574  0.2530
  589SOL    HW1 1766   0.842   0.296   0.503  1.5771 -1.2879 -0.4289
  589SOL    HW2 1767   0.919   0.270   0.353  0.5677  1.0873  2.3281
  590SOL     OW 1768   1.419   0.471   2.813  0.1499  0.5123  0.4031
  590SOL    HW1 1769   1.518   0.483   2.835 -2.0498  0.7608  0.5359
  590SOL    HW2 1770   1.381   0.409   2.888 -0.2958  0.3564  0.3581
  591SOL     OW 1771   3.070   2.149   2.155 -0.1560  0.1804  0.0023
  591SOL    HW1 1772   2.987   2.194   2.114 -2.7485 -0.6039 -1.5808
  591SOL    HW2 1773   0.066   2.212   2.157 -3.0626  0.2095  0.5195
  592SOL     OW 1774   2.381   1.552   1.925 -0.2791  0.1871  0.2369
  592SOL    HW1 1775   2.336   1.462   1.915 -2.2278  0.3058 -2.1558
  592SOL    HW2 1776   2.480   1.537   1.949  0.5667  0.6519  2.0764
  593SOL     OW 1777   1.481   1.302   1.687  0.3377  0.1121 -0.0198
  593SOL    HW1 1778   1.498   1.213   1.639 -0.2172  0.7010 -2.1669
  593SOL    HW2 1779   1.574   1.342   1.713  1.1479  1.2509 -1.6992
  594SOL     OW 1780   2.580   1.249   0.035 -0.8902 -0.3248  0.0718
  594SOL    HW1 1781   2.564   1.336   3.068  1.4413 -0.8018 -5.4030
  594SOL    HW2 1782   2.679   1.225   0.023 -3.4574 -0.3555  2.3624
  595SOL     OW 1783   0.429   0.750   0.626 -0.1458 -0.2273 -0.2687
  595SOL    HW1 1784   0.389   0.836   0.595 -1.0753 -2.0766  0.3272
  595SOL    HW2 1785   0.523   0.774   0.663 -0.2910  1.9807 -0.4304
  596SOL     OW 1786   0.181   1.140   1.400  0.0375  0.2324  0.3125
  596SOL    HW1 1787   0.155   1.226   1.452  0.4618 -0.8340  1.4208
  596SOL    HW2 1788   0.252   1.093   1.448 -2.8780 -0.0252  1.3101
  597SOL     OW 1789   1.181   1.979   1.063  0.3305  0.2345 -0.2369
  597SOL    HW1 1790   1.240   1.911   1.114  1.4337 -1.4604  1.5270
  597SOL    HW2 1791   1.231   2.067   1.036 -0.5885  2.7620  0.4330
  598SOL     OW 1792   3.002   0.114   1.726  0.0987 -0.3734 -0.1296
  598SOL    HW1 1793   3.009   0.104   1.830 -0.3732  0.2648  0.4192
  598SOL    HW2 1794   3.004   0.022   1.686  1.8883 -0.7030 -0.1643
  599SOL     OW 1795   0.370   1.463   2.753  0.1689  0.3143 -0.5028
  599SOL    HW1 1796   0.312   1.438   2.671  1.0140  0.5478  0.6161
  599SOL    HW2 1797   0.365   1.563   2.764  1.2961  0.4523 -3.4039
  600SOL     OW 1798   0.600   0.944   2.757 -0.9906  0.2378  0.4527
  600SOL    HW1 1799   0.531   0.986   2.694 -1.2701 -0.6942  2.7990
  600SOL    HW2 1800   0.675   0.902   2.708  2.5300  0.6602 -0.3273
  601SOL     OW 1801   0.845   0.859   1.282  0.0036 -0.8311 -0.1794
  601SOL    HW1 1802   0.916   0.871   1.214 -0.6451 -0.6332 -0.6220
  601SOL    HW2 1803   0.774   0.796   1.246 -0.2384  1.4315  2.0977
  602SOL     OW 1804   0.662   0.096   0.021  0.4059  0.1498  0.2645
  602SOL    HW1 1805   0.764   0.114   0.027  1.2945  3.1442 -1.5215
  602SOL    HW2 1806   0.613   0.122   0.106 -0.2301  1.9109 -2.8675
  603SOL     OW 1807   1.516   2.450   2.266  0.6483  0.4911  0.3378
  603SOL    HW1 1808   1.609   2.450   2.228 -2.2948 -0.2168 -0.7111
  603SOL    HW2 1809   1.487   2.370   2.323  0.7732  0.7064  0.8394
  604SOL     OW 1810   0.499   2.849   2.813 -0.1931  0.3817  0.3196
  604SOL    HW1 1811   0.556   2.930   2.831 -2.5902 -0.3409 -1.5653
  604SOL    HW2 1812   0.553   2.770   2.776 -2.1558  2.0396  1.0614
  605SOL     OW 1813   2.483   1.215   1.498  0.1206  0.3460 -0.2402
  605SOL    HW1 1814   2.552   1.270   1.446 -0.2336 -0.8762 -1.0219
  605SOL    HW2 1815   2.407   1.278   1.524 -0.9663  0.7696 -1.8921
  606SOL     OW 1816   0.991   1.182   2.946  0.0063 -0.3014  0.3248
  606SOL    HW1 1817   1.007   1.240   3.030  0.1262 -0.1106  0.3009
  606SOL    HW2 1818   0.926   1.227   2.881  0.6776 -0.0985 -0.7649
  607SOL     OW 1819   0.801   0.398   0.633  0.2536  0.1218 -0.0829
  607SOL    HW1 1820   0.712   0.424   0.677  1.9327 -0.4418  2.3497
  607SOL    HW2 1821   0.879   0.446   0.680  0.6649 -0.9257  0.1407
  608SOL     OW 1822   2.757   1.469   1.591  0.7082  0.0090  0.0800
  608SOL    HW1 1823   2.751   1.571   1.603 -2.6306  0.1471 -2.1560
  608SOL    HW2 1824   2.734   1.455   1.492 -0.3025  2.0164 -0.8700
  609SOL     OW 1825   2.248   0.444   0.718 -0.1707 -0.0879  0.1054
  609SOL    HW1 1826   2.214   0.400   0.799  1.1155  2.2517 -1.1161
  609SOL    HW2 1827   2.252   0.547   0.730  1.1526  0.5661 -0.7814
  610SOL     OW 1828   0.282   2.443   1.334 -0.0821 -0.6123  0.3837
  610SOL    HW1 1829   0.244   2.534   1.365 -2.8858  2.0486  0.6169
  610SOL    HW2 1830   0.326   2.453   1.245 -2.8782 -0.6776 -0.2879
  611SOL     OW 1831   1.521   1.738   0.183  0.2570  0.3532 -0.4330
  611SOL    HW1 1832   1.456   1.816   0.178 -0.6247  1.7940  1.0881
  611SOL    HW2 1833   1.611   1.771   0.216  2.6878  2.0511 -0.4309
  612SOL     OW 1834   0.413   2.967   1.870 -0.2464  0.4944 -0.0442
  612SOL    HW1 1835   0.416   2.978   1.973  1.3596  1.2150  1.0054
  612SOL    HW2 1836   0.344   3.028   1.824 -0.9252 -2.8556  0.1041
  613SOL     OW 1837   0.645   2.250   0.580  0.1578 -0.6052 -0.1350
  613SOL    HW1 1838   0.665   2.250   0.482 -2.5592 -2.2554  3.2861
  613SOL    HW2 1839   0.569   2.311   0.606 -0.1445 -0.6511  2.7933
  614SOL     OW 1840   2.232   0.106   2.085  0.3797  0.4298  0.0864
  614SOL    HW1 1841   2.223   0.198   2.127  0.8307  2.7527  0.9568
  614SOL    HW2 1842   2.312   0.052   2.122 -0.7847  2.6378  2.6152
  615SOL     OW 1843   1.382   1.552   0.480 -0.0217 -0.0697 -0.5742
  615SOL    HW1 1844   1.334   1.462   0.471  0.9561 -0.2924  0.4295
  615SOL    HW2 1845   1.322   1.630   0.439 -0.6579 -0.7680 -0.2156
  616SOL     OW 1846   1.655   1.558   0.478 -0.2945 -0.0699  0.3624
  616SOL    HW1 1847   1.564   1.588   0.443 -1.4050  1.1419  1.0304
  616SOL    HW2 1848   1.695   1.618   0.545 -0.7136  0.1725 -3.7033
  617SOL     OW 1849   1.313   0.795   2.983 -0.4042 -0.4682 -0.5912
  617SOL    HW1 1850   1.411   0.767   3.008  0.0744  2.5811 -1.3820
  617SOL    HW2 1851   1.260   0.838   3.063 -0.3506 -3.0953  2.3978
  618SOL     OW 1852   0.601   0.239   1.928  0.1328  0.3679 -0.2913
  618SOL    HW1 1853   0.702   0.248   1.917 -0.4797  2.4275 -2.7550
  618SOL    HW2 1854   0.579   0.227   2.027  1.0186  2.0612  0.9927
  619SOL     OW 1855   0.139   1.380   1.490 -0.5426  0.4617 -0.6715
  619SOL    HW1 1856   0.102   1.456   1.431  3.5978  2.4863 -0.0410
  619SOL    HW2 1857   0.226   1.406   1.539  4.3446 -0.0436  1.8704
  620SOL     OW 1858   2.695   3.081   2.579 -0.3928 -0.2953 -0.3445
  620SOL    HW1 1859   2.648   0.084   2.572  2.2289  0.1981 -0.5310
  620SOL    HW2 1860   2.760   3.075   2.661 -0.1732  1.6347  2.1217
  621SOL     OW 1861   2.379   2.005   2.840 -0.5479 -0.3473  0.1796
  621SOL    HW1 1862   2.454   1.936   2.861 -0.2038 -2.4646 -1.2413
  621SOL    HW2 1863   2.330   1.977   2.755  1.4399  0.4294  0.0823
  622SOL     OW 1864   1.167   0.575   3.071 -0.4343 -0.3594 -0.1170
  622SOL    HW1 1865   1.196   0.482   3.027 -0.4943 -1.4200 -2.8062
  622SOL    HW2 1866   1.223   0.648   3.032  1.0976 -0.5711 -2.7884
  623SOL     OW 1867   1.063   1.457   1.814 -0.0642 -0.4690 -0.0616
  623SOL    HW1 1868   1.133   1.378   1.816  1.3723 -1.5172 -1.0909
  623SOL    HW2 1869   1.050   1.484   1.911  0.4890 -2.5545  0.6713
  624SOL     OW 1870   2.787   0.193   0.538  0.3634  0.5827 -0.6526
  624SOL    HW1 1871   2.854   0.266   0.502  0.5846 -0.2956 -0.8917
  624SOL    HW2 1872   2.792   0.184   0.639 -0.8041 -0.8800 -1.3188
  625SOL     OW 1873   0.843   2.336   0.763  0.2049  0.1250  0.4753
  625SOL    HW1 1874   0.762   2.322   0.700 -1.6847 -0.6452 -1.2052
  625SOL    HW2 1875   0.822   2.285   0.850 -1.8914 -1.1150 -1.8847
  626SOL     OW 1876   2.551   0.776   2.520 -0.1549  0.1492 -0.0631
  626SOL    HW1 1877   2.510   0.765   2.613 -0.1938  1.4087 -2.4484
  626SOL    HW2 1878   2.509   0.858   2.471  1.0928  0.9102 -0.3656
  627SOL     OW 1879   1.101   2.032   2.700 -0.4296 -0.2625 -0.0361
  627SOL    HW1 1880   1.098   2.056   2.604 -1.7026 -1.0169 -2.6930
  627SOL    HW2 1881   1.107   1.932   2.716 -1.9533 -2.9744  0.4342
  628SOL     OW 1882   2.841   2.737   2.747 -0.6561  0.1237 -0.6252
  628SOL    HW1 1883   2.799   2.691   2.665  0.3918  0.7980  1.0232
  628SOL    HW2 1884   2.801   2.824   2.778 -2.6035  0.2506 -0.4685
  629SOL     OW 1885   1.246   2.771   2.454 -0.2361 -0.2626  0.3621
  629SOL    HW1 1886   1.209   2.843   2.388 -1.0076  2.0523  1.7683
  629SOL    HW2 1887   1.335   2.805   2.488 -0.6948 -2.4791 -2.7551
  630SOL     OW 1888   0.825   0.150   2.284 -0.0489  0.8102  0.3169
  630SOL    HW1 1889   0.848   0.245   2.253 -0.2674  1.3503 -1.3868
  630SOL    HW2 1890   0.900   0.125   2.349  0.7598  0.0588 -2.2978
  631SOL     OW 1891   1.896   1.057   0.641 -0.3760 -0.5615  0.0494
  631SOL    HW1 1892   1.815   1.006   0.661  0.9886  2.4560 -1.4561
  631SOL    HW2 1893   1.877   1.112   0.561 -1.1506 -1.7681  3.5685
  632SOL     OW 1894   2.675   0.148   1.958  0.0229 -0.0407 -0.1968
  632SOL    HW1 1895   2.599   0.214   1.982  0.9478  1.5253 -0.9941
  632SOL    HW2 1896   2.696   0.072   2.020  2.2947 -0.1161 -0.2603
  633SOL     OW 1897   1.233   1.318   0.440  0.0707 -0.2591 -0.2209
  633SOL    HW1 1898   1.255   1.279   0.349 -1.6519 -1.7795  0.3082
  633SOL    HW2 1899   1.134   1.331   0.456  2.4592 -2.8964 -1.0720
  634SOL     OW 1900   2.675   2.710   2.016  0.1264 -0.0443 -0.3139
  634SOL    HW1 1901   2.750   2.728   1.950  0.8979 -1.2151 -0.2533
  634SOL    HW2 1902   2.711   2.661   2.100 -1.4756 -1.7534  1.0822
  635SOL     OW 1903   1.440   0.313   0.513  0.2258  0.4246  0.1413
  635SOL    HW1 1904   1.539   0.300   0.499 -2.9160 -1.1351 -1.9331
  635SOL    HW2 1905   1.388   0.233   0.475 -5.8353 -0.1830 -0.4525
  636SOL     OW 1906   0.645   1.117   2.966 -0.0778 -0.3191  0.2584
  636SOL    HW1 1907   0.658   1.037   2.914  1.9020  1.7382  1.4111
  636SOL    HW2 1908   0.640   1.197   2.901  0.0159  0.8777 -3.6895
  637SOL     OW 1909   2.811   2.063   3.016 -0.0348 -0.2794 -0.2487
  637SOL    HW1 1910   2.848   2.048   0.023  2.5154 -0.7231 -0.6481
  637SOL    HW2 1911   2.803   1.973   2.967 -1.1989 -2.0301  1.3229
  638SOL     OW 1912   1.209   2.512   2.546 -0.2594  0.7004 -0.6900
  638SOL    HW1 1913   1.221   2.608   2.510  1.8081  1.6390 -1.2317
  638SOL    HW2 1914   1.301   2.465   2.562  2.5090 -3.4626  0.7321
  639SOL     OW 1915   1.521   1.898   0.812  0.2257 -0.1582 -0.3872
  639SOL    HW1 1916   1.559   1.993   0.799 -2.9140  0.0899 -1.4562
  639SOL    HW2 1917   1.424   1.900   0.779  0.0172 -0.0705 -3.4709
  640SOL     OW 1918   2.265   2.927   0.420  0.5244  0.7387 -0.0604
  640SOL    HW1 1919   2.332   2.974   0.476 -2.5378 -2.1156 -1.4924
  640SOL    HW2 1920   2.206   2.982   0.362  1.3590 -0.7735  0.2171
  641SOL     OW 1921   2.800   0.487   0.100 -0.4544  0.4722  0.4272
  641SOL    HW1 1922   2.765   0.542   0.176  2.8926 -3.2182 -1.4228
  641SOL    HW2 1923   2.773   0.390   0.115  1.1617  1.7219 -1.0615
  642SOL     OW 1924   0.426   0.535   0.949 -0.2391  0.1518  0.4901
  642SOL    HW1 1925   0.326   0.534   0.959  1.6943  0.3132  3.1072
  642SOL    HW2 1926   0.456   0.459   1.006  0.1076  1.8120 -0.1442
  643SOL     OW 1927   0.643   1.308   2.278 -0.0605 -0.1331  0.2780
  643SOL    HW1 1928   0.716   1.320   2.208  0.8346  0.5019  0.6602
  643SOL    HW2 1929   0.563   1.248   2.251  0.1441 -0.5195 -0.8567
  644SOL     OW 1930   1.902   2.241   0.606  0.0419 -0.4883 -0.3593
  644SOL    HW1 1931   1.944   2.231   0.511  1.5904  0.6288 -2.1968
  644SOL    HW2 1932   1.929   2.159   0.665  0.7870 -1.7353  1.9532
  645SOL     OW 1933   1.493   2.218   0.583  0.2622  0.3304  0.3104
  645SOL    HW1 1934   1.490   2.173   0.490  2.1873  0.2804 -2.9518
  645SOL    HW2 1935   1.524   2.148   0.651  0.0979 -3.8944 -1.1831
  646SOL     OW 1936   0.391   2.090   2.814 -0.6494  0.6220 -0.1781
  646SOL    HW1 1937   0.366   2.017   2.748 -0.4406 -1.2201 -0.4442
  646SOL    HW2 1938   0.357   2.176   2.783  1.1542  0.1027 -0.7842
  647SOL     OW 1939   1.196   0.038   1.557  0.1184  0.0034  0.7628
  647SOL    HW1 1940   1.211   0.074   1.653  0.4730 -0.3897 -0.6204
  647SOL    HW2 1941   1.217   0.114   1.493  1.9910 -1.2528 -0.0685
  648SOL     OW 1942   1.343   0.215   0.742  0.0319 -0.4309 -0.0328
  648SOL    HW1 1943   1.242   0.202   0.744 -0.7514 -0.5082 -1.7826
  648SOL    HW2 1944   1.371   0.252   0.650 -2.5606 -0.5027  0.5444
  649SOL     OW 1945   1.250   1.746   0.359  0.5125  0.1863  0.5053
  649SOL    HW1 1946   1.220   1.721   0.268  0.0154  0.6598 -0.6337
  649SOL    HW2 1947   1.235   1.848   0.376 -1.9713  0.9794  0.6287
  650SOL     OW 1948   2.283   1.660   1.692  0.2204  0.1147  0.6646
  650SOL    HW1 1949   2.337   1.622   1.770 -2.4055  0.2584 -1.4231
  650SOL    HW2 1950   2.263   1.757   1.705  0.1166  2.5699  2.0093
  651SOL     OW 1951   1.455   2.366   2.978  0.0566 -0.1021  0.3332
  651SOL    HW1 1952   1.459   2.401   3.072 -0.0979 -1.8588 -1.3067
  651SOL    HW2 1953   1.369   2.394   2.928  0.9986 -0.8826 -1.4275
  652SOL     OW 1954   2.416   1.730   0.186 -0.1422 -0.5315  0.0984
  652SOL    HW1 1955   2.375   1.687   0.106  0.1245  0.4823  0.7520
  652SOL    HW2 1956   2.396   1.675   0.270 -0.8859  2.4204  1.2254
  653SOL     OW 1957   3.014   0.241   0.992  0.0427  0.3376  0.0760
  653SOL    HW1 1958   2.996   0.342   1.007 -1.5048  2.3357 -0.3668
  653SOL    HW2 1959   2.975   0.184   1.067 -0.1915  1.9320  2.0897
  654SOL     OW 1960   3.004   0.007   1.980  0.0069  0.0732  0.2798
  654SOL    HW1 1961   2.944   0.012   2.062 -1.0767  0.9233  0.3035
  654SOL    HW2 1962   3.058   3.007   1.988 -2.2689  1.0459 -1.6184
  655SOL     OW 1963   0.464   2.445   0.645 -0.0298  0.2280 -0.1576
  655SOL    HW1 1964   0.476   2.529   0.696 -0.5041 -0.8639  0.7129
  655SOL    HW2 1965   0.386   2.464   0.584 -1.1178  0.8887  1.4503
  656SOL     OW 1966   3.037   0.006   2.481 -0.1655  0.4537  0.0314
  656SOL    HW1 1967   3.003   2.997   2.461 -1.3135 -0.2241 -1.1918
  656SOL    HW2 1968   2.998   0.035   2.572 -1.0470 -1.4538 -0.8833
  657SOL     OW 1969   0.153   1.388   2.980 -0.4932  0.0582  0.5451
  657SOL    HW1 1970   0.059   1.360   2.949 -0.5297 -0.0375 -0.7675
  657SOL    HW2 1971   0.217   1.371   2.903 -1.8503 -0.0371 -0.2886
  658SOL     OW 1972   2.613   1.798   1.157  0.1841 -0.1201 -0.5556
  658SOL    HW1 1973   2.664   1.853   1.229  0.0671 -1.4694  3.2199
  658SOL    HW2 1974   2.514   1.824   1.166  4.9466 -0.8668 -0.3328
  659SOL     OW 1975   1.512   2.825   0.062  0.1622 -0.4959 -0.1684
  659SOL    HW1 1976   1.547   2.849   0.154  0.3991 -1.3424 -1.7346
  659SOL    HW2 1977   1.583   2.836   3.076 -3.1605  0.7289  2.3025
  660SOL     OW 1978   1.500   1.042   2.937  0.4313 -0.1060 -0.0585
  660SOL    HW1 1979   1.507   0.976   2.858 -0.5692  1.3525  1.6502
  660SOL    HW2 1980   1.416   1.099   2.932 -1.0982  1.6845  0.0744
  661SOL     OW 1981   0.227   2.021   1.221 -0.4415 -0.0280 -0.5116
  661SOL    HW1 1982   0.148   2.053   1.168  3.2533 -2.5111  0.5381
  661SOL    HW2 1983   0.250   2.084   1.300 -0.7640  2.4523  0.9820
  662SOL     OW 1984   0.345   0.640   0.035 -0.1481 -0.4316  0.4901
  662SOL    HW1 1985   0.341   0.715   0.104 -0.0708 -0.0910 -0.3736
  662SOL    HW2 1986   0.339   0.547   0.078 -1.6546  0.3212 -1.8045
  663SOL     OW 1987   2.109   1.547   1.105  0.2916  1.0432 -0.8243
  663SOL    HW1 1988   2.032   1.609   1.085 -0.7993 -1.0548 -1.6292
  663SOL    HW2 1989   2.071   1.450   1.108 -1.9713 -1.4517 -0.5156
  664SOL     OW 1990   1.193   1.304   0.902  0.2989 -0.5389 -0.3151
  664SOL    HW1 1991   1.291   1.289   0.930  0.0111 -0.6382  0.5469
  664SOL    HW2 1992   1.178   1.395   0.854  0.0100  0.7509  0.6149
  665SOL     OW 1993   2.072   2.687   2.090  0.2663  0.2982 -0.4323
  665SOL    HW1 1994   1.987   2.731   2.126 -1.1639 -2.2075  2.5500
  665SOL    HW2 1995   2.044   2.632   2.006  1.4749 -1.9971 -3.0896
  666SOL     OW 1996   2.778   2.872   0.032  0.3378  0.1445  0.1124
  666SOL    HW1 1997   2.783   2.772   0.057 -3.0694 -1.8461 -0.5667
  666SOL    HW2 1998   2.862   2.921   0.058  0.9867 -2.0798 -0.5733
  667SOL     OW 1999   2.463   1.258   2.066 -0.1833  0.4693  0.6437
  667SOL    HW1 2000   2.459   1.155   2.075 -2.4817  0.9798  1.5518
  667SOL    HW2 2001   2.396   1.284   1.995 -1.8768 -0.1601 -1.4432
  668SOL     OW 2002   0.382   0.838   2.339  0.2487  0.0737  0.7491
  668SOL    HW1 2003   0.377   0.821   2.439  1.4520  0.0661 -2.2625
  668SOL    HW2 2004   0.287   0.829   2.297  0.0976  0.8413 -2.0314
  669SOL     OW 2005   2.143   2.031   2.396  0.0311  0.1776  0.2064
  669SOL    HW1 2006   2.204   1.967   2.343 -0.0550 -1.2240 -1.7089
  669SOL    HW2 2007   2.165   2.132   2.389  1.8240  0.1418 -0.8932
  670SOL     OW 2008   2.281   1.306   1.874  0.8569  0.2455  0.1003
  670SOL    HW1 2009   2.317   1.304   1.780 -2.0724 -1.6082  1.9647
  670SOL    HW2 2010   2.213   1.234   1.887  0.0899 -0.0512 -1.3066
  671SOL     OW 2011   2.710   1.516   0.188  0.3350 -0.0988 -0.2869
  671SOL    HW1 2012   2.613   1.517   0.150 -2.1360  1.3522  2.7658
  671SOL    HW2 2013   2.711   1.482   0.287  2.2886 -0.9753  0.7795
  672SOL     OW 2014   2.593   0.597   2.301  0.1938 -0.1740 -0.3178
  672SOL    HW1 2015   2.546   0.621   2.217  2.0827 -3.2224 -0.1699
  672SOL    HW2 2016   2.572   0.663   2.376  0.1623  0.0391  1.1493
  673SOL     OW 2017   2.748   3.014   2.146 -0.1249  0.1081  0.1614
  673SOL    HW1 2018   2.771   2.937   2.083 -0.8605 -1.6011 -1.1637
  673SOL    HW2 2019   2.709   2.977   2.235 -1.9888 -0.8084  2.7045
  674SOL     OW 2020   1.699   1.872   1.454 -0.1094 -0.1489 -0.1346
  674SOL    HW1 2021   1.800   1.899   1.451  2.6970  0.5219 -1.2558
  674SOL    HW2 2022   1.662   1.906   1.367  0.2757  1.0315  3.8400
  675SOL     OW 2023   0.706   0.755   0.678 -0.1912 -0.5266  0.7153
  675SOL    HW1 2024   0.741   0.737   0.771 -1.0236  3.4877 -2.4365
  675SOL    HW2 2025   0.731   0.850   0.651  1.0913 -1.3166  1.4484
  676SOL     OW 2026   1.581   0.800   1.056  0.4785  0.1221 -0.7287
  676SOL    HW1 2027   1.497   0.859   1.049 -2.0016  0.5770  1.0597
  676SOL    HW2 2028   1.560   0.710   1.017 -1.4959  1.3648 -1.6364
  677SOL     OW 2029   2.325   1.382   2.318 -0.3233  0.5957  0.3696
  677SOL    HW1 2030   2.371   1.369   2.224  0.6283 -1.3502 -1.3334
  677SOL    HW2 2031   2.343   1.470   2.362 -0.6320 -1.8154  1.7489
  678SOL     OW 2032   2.776   1.621   1.014  0.1314 -0.4889 -0.2611
  678SOL    HW1 2033   2.833   1.552   1.066 -0.4978  0.7064 -1.6161
  678SOL    HW2 2034   2.701   1.668   1.068  0.3368  1.5977  0.4342
  679SOL     OW 2035   2.126   2.845   0.037  0.2588 -0.3700  0.1654
  679SOL    HW1 2036   2.173   2.927   3.074  0.2763 -0.1401 -0.2860
  679SOL    HW2 2037   2.127   2.769   3.055  0.0460  1.7096  2.7084
  680SOL     OW 2038   0.157   2.088   1.786 -0.1332  0.5007  0.0657
  680SOL    HW1 2039   0.118   1.991   1.793  0.5030  0.0253  1.0254
  680SOL    HW2 2040   0.255   2.084   1.757 -0.6948  1.4115  1.5618
  681SOL     OW 2041   0.688   1.077   1.340 -0.8298  0.2871 -0.5197
  681SOL    HW1 2042   0.731   0.985   1.315  0.4196  0.5602  2.7381
  681SOL    HW2 2043   0.754   1.126   1.409  2.7386  1.6936 -0.8792
  682SOL     OW 2044   1.309   2.538   0.796 -0.5380 -0.2884  0.4452
  682SOL    HW1 2045   1.306   2.504   0.701 -0.0368 -1.0884  2.0477
  682SOL    HW2 2046   1.238   2.493   0.850  2.5366 -1.7662  0.0906
  683SOL     OW 2047   2.470   1.556   0.805 -0.1095  0.1849  0.2543
  683SOL    HW1 2048   2.425   1.601   0.886  0.1637  0.6603  0.4947
  683SOL    HW2 2049   2.527   1.629   0.764 -0.4575 -2.1350 -0.9344
  684SOL     OW 2050   0.464   2.011   1.731  0.6528 -0.1793  0.2848
  684SOL    HW1 2051   0.539   2.030   1.798 -1.4970  1.5305 -0.7623
  684SOL    HW2 2052   0.454   2.088   1.667  1.1314 -0.5017  0.2201
  685SOL     OW 2053   1.741   1.579   2.908 -0.6037  0.0798 -0.0331
  685SOL    HW1 2054   1.650   1.624   2.904 -0.5310 -3.9647  1.4277
  685SOL    HW2 2055   1.808   1.625   2.853 -1.4061 -0.5182  1.2574
  686SOL     OW 2056   0.272   0.807   1.158 -0.5379 -0.0295 -0.2451
  686SOL    HW1 2057   0.309   0.875   1.088 -1.4652 -1.3842 -1.5838
  686SOL    HW2 2058   0.345   0.778   1.228  0.2432 -0.5824  2.0079
  687SOL     OW 2059   0.856   2.387   2.791 -0.0541  0.1791 -1.0622
  687SOL    HW1 2060   0.856   2.476   2.849 -0.7597  0.7092 -1.2783
  687SOL    HW2 2061   0.764   2.340   2.786 -2.7896  1.9486 -2.4947
  688SOL     OW 2062   2.495   1.901   1.965  0.0663 -0.3467 -0.3561
  688SOL    HW1 2063   2.519   1.803   1.978 -1.1147  0.4432 -1.9966
  688SOL    HW2 2064   2.426   1.907   1.890  1.9067 -1.0253  0.4883
  689SOL     OW 2065   2.451   0.678   2.067  0.2162  0.0911 -0.3459
  689SOL    HW1 2066   2.531   0.674   2.003  1.7565 -0.7477  0.4297
  689SOL    HW2 2067   2.360   0.661   2.019 -1.6877 -0.8791 -0.7572
  690SOL     OW 2068   2.149   0.959   1.375 -0.1152  0.1436 -0.0012
  690SOL    HW1 2069   2.110   0.958   1.470  0.5759 -1.0440 -1.7626
  690SOL    HW2 2070   2.154   1.056   1.341 -0.5096  2.2565  0.3187
  691SOL     OW 2071   0.824   1.717   1.793 -0.0477 -0.1328  0.0574
  691SOL    HW1 2072   0.768   1.787   1.747  1.4616 -0.1350  2.4176
  691SOL    HW2 2073   0.903   1.761   1.837  1.2421 -0.9551  1.0617
  692SOL     OW 2074   2.174   0.222   1.409 -0.0476 -0.9357 -0.0240
  692SOL    HW1 2075   2.191   0.276   1.492 -2.7844  0.2704  1.1177
  692SOL    HW2 2076   2.128   0.132   1.426 -1.6630  0.6132  0.3691
  693SOL     OW 2077   0.556   0.979   2.018 -0.1283 -0.6362  0.3748
  693SOL    HW1 2078   0.524   1.004   2.111  0.3578  1.3903  1.4602
  693SOL    HW2 2079   0.606   0.891   2.033 -0.3735  0.5349  0.9452
  694SOL     OW 2080   1.627   2.584   1.305  0.0002  0.6668 -0.0986
  694SOL    HW1 2081   1.697   2.654   1.284 -1.3813 -1.5147 -0.0809
  694SOL    HW2 2082   1.538   2.604   1.260  1.1868 -1.5245  1.0810
  695SOL     OW 2083   1.268   1.003   2.048 -0.8625 -0.0499  0.2265
  695SOL    HW1 2084   1.247   1.018   2.146 -1.6224  0.3012 -1.9198
  695SOL    HW2 2085   1.365   1.036   2.032  1.3988  0.4609 -0.1445
  696SOL     OW 2086   1.459   2.945   0.552 -0.2692 -0.1170  0.0451
  696SOL    HW1 2087   1.387   2.884   0.586  1.2904 -0.9807 -0.6555
  696SOL    HW2 2088   1.552   2.928   0.596  2.1968 -0.3567  0.9898
  697SOL     OW 2089   1.056   0.064   0.585 -0.2018  0.1512 -0.1677
  697SOL    HW1 2090   1.050   0.110   0.677 -1.3283  0.2465  0.8963
  697SOL    HW2 2091   1.001   0.112   0.512  0.2911 -0.1723  0.5526
  698SOL     OW 2092   1.710   1.060   2.529 -0.2226 -0.1795  0.2257
  698SOL    HW1 2093   1.685   0.965   2.505 -1.8864  1.2383  2.9066
  698SOL    HW2 2094   1.660   1.133   2.479 -2.1339  0.2084  2.0038
  699SOL     OW 2095   1.413   1.261   1.159  0.4730  0.0014  0.1492
  699SOL    HW1 2096   1.434   1.360   1.146 -1.6920  0.2268  0.9718
  699SOL    HW2 2097   1.488   1.197   1.133  0.1193  0.4980 -1.8854
  700SOL     OW 2098   1.311   0.067   0.432  0.1590  0.3667  0.0340
  700SOL    HW1 2099   1.217   0.037   0.465  0.4545 -0.3038  2.1916
  700SOL    HW2 2100   1.386   0.002   0.465  3.1689 -3.5167  0.2241
  701SOL     OW 2101   0.379   0.177   1.752 -0.2315 -0.1290  0.2480
  701SOL    HW1 2102   0.304   0.248   1.746  2.1386 -0.3682 -2.4145
  701SOL    HW2 2103   0.464   0.215   1.800 -0.7910 -1.5395 -0.6519
  702SOL     OW 2104   1.192   2.820   0.299  0.1964 -0.2206  0.3593
  702SOL    HW1 2105   1.196   2.909   0.253 -0.6341  1.9640  0.3164
  702SOL    HW2 2106   1.138   2.830   0.387  0.9058  1.9848  1.7919
  703SOL     OW 2107   2.440   2.605   2.537 -0.5349 -0.1579  0.3213
  703SOL    HW1 2108   2.374   2.685   2.524 -0.7220  0.7339 -2.2017
  703SOL    HW2 2109   2.425   2.540   2.460  2.8957  0.7061 -1.3564
  704SOL     OW 2110   0.643   1.989   0.657  0.8940  0.2692  0.5161
  704SOL    HW1 2111   0.640   2.093   0.642 -1.6656  1.0448  1.0344
  704SOL    HW2 2112   0.647   1.965   0.756 -0.3387  2.3290 -0.5670
  705SOL     OW 2113   3.056   0.427   1.869 -0.5014  0.3513  0.2258
  705SOL    HW1 2114   2.996   0.410   1.948 -0.9503  1.1937 -1.7006
  705SOL    HW2 2115   0.043   0.493   1.899 -2.4444  0.1984  2.1052
  706SOL     OW 2116   1.598   2.931   0.314  0.2286  0.0974 -0.5285
  706SOL    HW1 2117   1.665   2.854   0.333  1.9116  1.1401  1.2760
  706SOL    HW2 2118   1.519   2.927   0.382 -0.3323  0.5818 -1.0973
  707SOL     OW 2119   1.449   1.817   2.073 -0.6272 -0.6482 -0.1911
  707SOL    HW1 2120   1.372   1.827   2.010  5.9458 -1.9619  0.9534
  707SOL    HW2 2121   1.439   1.872   2.158 -1.2518  1.1959  0.0125
  708SOL     OW 2122   3.003   2.230   1.485 -0.3376 -0.2393  0.2317
  708SOL    HW1 2123   2.967   2.310   1.430  0.2874  2.1179 -1.5009
  708SOL    HW2 2124   3.024   2.255   1.580  1.1160  1.2279 -1.1235
  709SOL     OW 2125   1.972   0.368   1.966 -0.1099  0.0112  0.1978
  709SOL    HW1 2126   2.068   0.352   1.944 -3.8732  0.2509 -1.0122
  709SOL    HW2 2127   1.913   0.325   1.891  0.6633 -2.4011 -0.6952
  710SOL     OW 2128   2.608   0.017   1.541  0.3960  0.2489 -0.0520
  710SOL    HW1 2129   2.665   0.089   1.584 -0.0726  1.9760  1.9068
  710SOL    HW2 2130   2.545   0.060   1.468 -2.6366  0.7801 -0.7566
  711SOL     OW 2131   0.200   2.278   0.342  0.8712 -0.3203  0.6134
  711SOL    HW1 2132   0.267   2.252   0.269 -1.1846  0.5195 -1.2585
  711SOL    HW2 2133   0.106   2.236   0.340  0.2684 -0.1666  2.6275
  712SOL     OW 2134   0.623   2.202   2.291 -0.3433 -0.1462 -0.1207
  712SOL    HW1 2135   0.546   2.159   2.239  1.1812 -1.9113 -1.7614
  712SOL    HW2 2136   0.659   2.289   2.249 -0.4615 -0.7419  1.6521
  713SOL     OW 2137   2.121   0.798   0.018 -0.4743  0.7307  0.1544
  713SOL    HW1 2138   2.187   0.856   0.073  3.7347  2.0867 -0.3314
  713SOL    HW2 2139   2.061   0.745   0.081 -0.1474  1.9147  2.2760
  714SOL     OW 2140   0.862   1.892   0.383 -0.0987  0.1353  0.2659
  714SOL    HW1 2141   0.880   1.916   0.483 -0.1537 -0.9884 -0.6479
  714SOL    HW2 2142   0.940   1.919   0.321  0.4172  0.4830 -0.1004
  715SOL     OW 2143   1.936   0.227   0.404  0.0743 -0.1444 -0.0435
  715SOL    HW1 2144   1.842   0.223   0.452 -0.5490 -0.3310 -1.3818
  715SOL    HW2 2145   1.990   0.315   0.412  2.2965  4.0148 -4.2341
  716SOL     OW 2146   0.700   0.513   1.541 -0.1120  0.0320  0.0828
  716SOL    HW1 2147   0.657   0.482   1.629  3.2201  2.5719 -0.7100
  716SOL    HW2 2148   0.641   0.488   1.462 -0.0317  1.5519 -1.3765
  717SOL     OW 2149   0.064   0.803   0.050 -0.5070  0.2463 -0.0588
  717SOL    HW1 2150   0.026   0.804   3.039 -0.0632 -0.5178 -2.6514
  717SOL    HW2 2151   0.058   0.711   0.095 -0.4277  1.3518  1.3490
  718SOL     OW 2152   1.066   0.955   0.366 -0.0834 -0.5037 -0.7475
  718SOL    HW1 2153   1.154   0.986   0.410 -2.8602  0.8089 -1.6814
  718SOL    HW2 2154   1.045   0.860   0.401  0.9913 -1.4824  0.6933
  719SOL     OW 2155   2.796   1.784   2.874 -0.4953 -0.3347 -0.5122
  719SOL    HW1 2156   2.811   1.701   2.933 -0.3553  0.6899 -0.1791
  719SOL    HW2 2157   2.876   1.792   2.808  1.4653 -1.2057 -1.9809
  720SOL     OW 2158   1.652   0.800   1.313  0.2614 -0.4927 -0.1878
  720SOL    HW1 2159   1.631   0.784   1.214  0.7781  2.1646  1.1270
  720SOL    HW2 2160   1.584   0.746   1.368 -2.4509 -2.9228  1.1999
  721SOL     OW 2161   2.757   0.858   0.308 -0.0778 -0.2930  0.5691
  721SOL    HW1 2162   2.856   0.891   0.296  3.0131  2.7527  2.4558
  721SOL    HW2 2163   2.738   0.848   0.406 -0.7065  0.6099 -2.5630
  722SOL     OW 2164   0.875   1.360   2.740  0.3790  0.2222  0.3111
  722SOL    HW1 2165   0.881   1.443   2.680  0.8135  1.2822 -1.2375
  722SOL    HW2 2166   0.778   1.338   2.768 -2.5140 -3.0936 -0.8967
  723SOL     OW 2167   0.508   1.058   0.458  0.1463  0.2614 -0.0752
  723SOL    HW1 2168   0.506   1.159   0.472  1.3915 -1.9151  0.9655
  723SOL    HW2 2169   0.415   1.020   0.468 -0.9541 -0.1490 -0.3968
  724SOL     OW 2170   0.940   2.404   1.944  0.2185 -0.0736 -0.2614
  724SOL    HW1 2171   0.870   2.391   1.873  1.9297  0.9053  0.7566
  724SOL    HW2 2172   1.015   2.467   1.916 -0.0772  0.2664 -2.2743
  725SOL     OW 2173   2.483   1.020   1.748 -0.1917  0.3457  0.3065
  725SOL    HW1 2174   2.471   1.099   1.686  1.7315 -1.5517 -1.3888
  725SOL    HW2 2175   2.571   1.029   1.803  0.4551  3.4149  2.1979
  726SOL     OW 2176   1.825   2.740   0.333  0.3708 -0.2118  0.1492
  726SOL    HW1 2177   1.921   2.765   0.329  0.6376  0.9410  1.0920
  726SOL    HW2 2178   1.798   2.693   0.421  1.1784 -3.3866  4.3618
  727SOL     OW 2179   1.186   0.970   2.553  0.0242 -0.0568  0.5764
  727SOL    HW1 2180   1.187   0.996   2.652 -1.2451  0.7559 -0.6348
  727SOL    HW2 2181   1.178   0.864   2.541  0.4221  1.6660 -0.9072
  728SOL     OW 2182   1.415   2.684   1.146  0.7323  0.5162  0.4829
  728SOL    HW1 2183   1.316   2.660   1.161  1.6724 -1.6346  2.8947
  728SOL    HW2 2184   1.434   2.763   1.208 -1.3694 -1.0908 -0.0971
  729SOL     OW 2185   1.455   0.670   1.443 -0.2133  0.5735 -0.7296
  729SOL    HW1 2186   1.472   0.576   1.482 -3.8398  2.9435  0.4565
  729SOL    HW2 2187   1.357   0.682   1.462  0.1401 -0.7341  0.9804
  730SOL     OW 2188   0.718   2.011   1.881 -0.0451  0.0440  0.3221
  730SOL    HW1 2189   0.805   1.982   1.838 -0.1339 -3.6385 -2.2061
  730SOL    HW2 2190   0.713   1.990   1.982 -1.1275 -2.2266 -0.7513
  731SOL     OW 2191   0.541   0.239   0.580  0.0857  0.0815 -0.0361
  731SOL    HW1 2192   0.597   0.293   0.648  0.3014  1.2737 -0.5273
  731SOL    HW2 2193   0.574   0.146   0.555 -1.3024 -0.7375  0.2170
  732SOL     OW 2194   0.474   0.437   2.904 -0.1590 -0.2746  0.1449
  732SOL    HW1 2195   0.570   0.469   2.896  0.9014  0.5678 -0.1018
  732SOL    HW2 2196   0.423   0.492   2.968  0.2466 -2.3161 -0.3579
  733SOL     OW 2197   0.990   2.442   1.149 -0.3881  0.0742 -0.2841
  733SOL    HW1 2198   0.971   2.371   1.214  0.1924 -0.9429  0.0706
  733SOL    HW2 2199   1.040   2.518   1.198  2.3004  0.7890  1.0213
  734SOL     OW 2200   0.037   2.292   2.690  0.5154 -0.3389 -0.2341
  734SOL    HW1 2201   0.029   2.193   2.674  0.0671  2.8268  1.5364
  734SOL    HW2 2202   0.001   2.326   2.781 -0.6610  1.2520  1.1357
  735SOL     OW 2203   0.924   2.864   0.943 -0.2307  0.5524 -0.3358
  735SOL    HW1 2204   0.858   2.931   0.900  0.5934 -0.8004 -0.0975
  735SOL    HW2 2205   0.914   2.766   0.903 -1.8526 -2.1558 -2.3280
  736SOL     OW 2206   1.552   0.626   0.011  0.6752  0.2697  0.2655
  736SOL    HW1 2207   1.577   0.539   3.051  1.5457  0.1791 -0.0145
  736SOL    HW2 2208   1.528   0.613   0.110  1.8989 -1.0778 -1.9894
  737SOL     OW 2209   3.068   0.236   0.655 -0.1703  0.0119 -0.2906
  737SOL    HW1 2210   0.003   0.217   0.751 -1.5647  0.0626 -1.9215
  737SOL    HW2 2211   3.025   0.327   0.641  1.1472  3.3874  0.0995
  738SOL     OW 2212   2.566   2.767   1.194  0.0753 -0.2063 -0.4400
  738SOL    HW1 2213   2.527   2.741   1.284  1.8960  0.4194 -1.4860
  738SOL    HW2 2214   2.585   2.864   1.187  0.1670 -0.0178  0.1909
  739SOL     OW 2215   1.762   2.331   0.301  0.5541 -0.1919  0.6046
  739SOL    HW1 2216   1.666   2.302   0.316 -3.2746  0.7987  2.1812
  739SOL    HW2 2217   1.803   2.375   0.380 -0.2770 -3.9991 -1.4505
  740SOL     OW 2218   1.767   2.762   1.162  0.1938 -0.4461 -0.4423
  740SOL    HW1 2219   1.807   2.854   1.142 -0.9455 -0.0866 -1.6025
  740SOL    HW2 2220   1.741   2.714   1.074  0.4591 -2.8584 -2.4351
  741SOL     OW 2221   1.880   0.386   0.773  0.3989 -0.1137 -0.1002
  741SOL    HW1 2222   1.970   0.388   0.823 -0.5281  1.6791 -1.4147
  741SOL    HW2 2223   1.841   0.483   0.762 -1.3085  0.1016  0.6210
  742SOL     OW 2224   1.411   2.087   2.220 -0.2365 -0.1378 -0.5212
  742SOL    HW1 2225   1.439   2.142   2.304 -2.4189  0.6374 -0.1515
  742SOL    HW2 2226   1.406   2.138   2.129 -1.4881 -0.7453 -2.4603
  743SOL     OW 2227   2.458   0.404   1.915  0.5293  0.0325  0.0107
  743SOL    HW1 2228   2.471   0.495   1.870 -0.6136  1.2725  0.5257
  743SOL    HW2 2229   2.503   0.402   2.004  1.2698  1.1526  0.1153
  744SOL     OW 2230   2.255   0.623   1.182 -0.0932 -0.0426 -0.5707
  744SOL    HW1 2231   2.270   0.681   1.262 -1.8224 -0.3795 -1.0575
  744SOL    HW2 2232   2.240   0.672   1.093  1.4250 -1.9316  0.3419
  745SOL     OW 2233   1.839   1.127   1.719 -0.9377 -0.0836 -0.2615
  745SOL    HW1 2234   1.771   1.051   1.735 -0.0096  1.5713 -2.3426
  745SOL    HW2 2235   1.796   1.215   1.743 -1.1133 -1.2713  0.0115
  746SOL     OW 2236   1.219   1.561   0.785  0.1366  0.0027 -0.8609
  746SOL    HW1 2237   1.316   1.558   0.779 -3.6219  0.0812 -0.9752
  746SOL    HW2 2238   1.186   1.579   0.692  0.8980 -1.4164 -1.2352
  747SOL     OW 2239   1.642   1.167   1.024 -0.5930  0.3476 -0.3147
  747SOL    HW1 2240   1.583   1.210   0.952 -1.2484 -1.6802  1.6121
  747SOL    HW2 2241   1.734   1.154   0.985  3.3937 -1.3358  1.1841
  748SOL     OW 2242   3.004   2.871   0.728  0.8300 -0.1433 -0.3420
  748SOL    HW1 2243   2.973   2.933   0.650 -1.8662  1.0622 -3.7960
  748SOL    HW2 2244   2.919   2.832   0.768 -0.8247 -1.6047  0.2774
  749SOL     OW 2245   3.065   0.206   2.288 -0.2772 -0.2000 -0.7383
  749SOL    HW1 2246   3.044   0.130   2.355 -0.7807 -0.2313  2.1926
  749SOL    HW2 2247   0.081   0.225   2.294  0.8244 -0.1947 -0.7026
  750SOL     OW 2248   1.872   0.260   1.335  0.1093  0.4285  0.1821
  750SOL    HW1 2249   1.895   0.324   1.261  2.5694 -0.5706 -0.0155
  750SOL    HW2 2250   1.949   0.194   1.336 -1.0587  0.2926 -1.6432
  751SOL     OW 2251   2.942   0.488   0.761  0.1644  0.6343 -0.0809
  751SOL    HW1 2252   2.912   0.480   0.859  0.5047  2.8435 -1.3309
  751SOL    HW2 2253   3.007   0.568   0.752  0.1987  2.1450  1.2740
  752SOL     OW 2254   0.182   2.675   1.122  0.1788 -0.3073  0.5012
  752SOL    HW1 2255   0.162   2.743   1.192  0.1260  0.2536 -0.3557
  752SOL    HW2 2256   0.116   2.681   1.048  1.0131 -1.2614  0.4080
  753SOL     OW 2257   1.240   0.101   1.802  0.1800 -0.5662  0.3611
  753SOL    HW1 2258   1.234   0.190   1.851 -0.0841  1.7132  1.7327
  753SOL    HW2 2259   1.316   0.044   1.832 -0.0438  0.3223 -0.2783
  754SOL     OW 2260   1.397   2.492   1.615  0.1476  0.0066 -0.0010
  754SOL    HW1 2261   1.492   2.530   1.599  2.5650 -0.5800 -0.0753
  754SOL    HW2 2262   1.381   2.480   1.718  0.4984  2.2791  0.3449
  755SOL     OW 2263   2.698   1.360   0.417  0.9634  0.3398  0.3642
  755SOL    HW1 2264   2.670   1.387   0.508 -0.7534 -1.9507 -0.9116
  755SOL    HW2 2265   2.653   1.270   0.393  0.4969  0.2728  3.1003
  756SOL     OW 2266   1.708   1.593   2.503 -0.4925 -0.3109 -0.5905
  756SOL    HW1 2267   1.790   1.599   2.442  1.9345  0.2464 -0.3256
  756SOL    HW2 2268   1.743   1.593   2.598 -1.5107  3.6977 -1.7022
  757SOL     OW 2269   1.714   2.910   0.632  0.1702 -0.3248 -1.1138
  757SOL    HW1 2270   1.784   2.961   0.579 -0.5561  1.4260 -1.3050
  757SOL    HW2 2271   1.705   2.807   0.609 -0.3222 -1.1450 -0.9945
  758SOL     OW 2272   0.621   2.875   1.142  0.2200 -0.2873  0.0527
  758SOL    HW1 2273   0.658   2.782   1.147  2.0017  0.3175 -0.2741
  758SOL    HW2 2274   0.566   2.891   1.055 -0.8590  0.7237 -2.2471
  759SOL     OW 2275   3.024   0.776   0.956 -0.6433  0.0665  0.0078
  759SOL    HW1 2276   3.053   0.776   0.860 -1.0164 -1.3207 -1.4880
  759SOL    HW2 2277   3.045   0.862   1.001 -0.9915 -0.8547 -2.0359
  760SOL     OW 2278   2.298   1.312   1.028 -0.4238 -0.0591  0.5986
  760SOL    HW1 2279   2.333   1.235   1.087  1.6291  0.4713 -0.1117
  760SOL    HW2 2280   2.198   1.320   1.037  1.7464 -1.2487  1.4805
  761SOL     OW 2281   1.134   0.964   1.062  0.2852 -0.9869 -0.3542
  761SOL    HW1 2282   1.075   1.048   1.078 -2.3210  1.4068  1.9580
  761SOL    HW2 2283   1.082   0.898   1.006  0.7194  3.0585  1.4276
  762SOL     OW 2284   2.405   2.109   1.329 -0.1722 -0.2673 -0.4218
  762SOL    HW1 2285   2.365   2.039   1.264  0.0201 -0.6103  0.7360
  762SOL    HW2 2286   2.338   2.184   1.336  1.0358 -3.3981 -2.6032
  763SOL     OW 2287   1.261   1.397   2.082  0.1772 -0.2104 -0.0202
  763SOL    HW1 2288   1.331   1.473   2.076  0.1555  0.9798  1.1686
  763SOL    HW2 2289   1.295   1.324   2.016 -0.4911  0.1944  0.8892
  764SOL     OW 2290   2.961   1.733   2.207  0.8980 -0.3675  0.1543
  764SOL    HW1 2291   3.034   1.797   2.202  0.7087  1.0632 -1.4694
  764SOL    HW2 2292   2.986   1.651   2.258 -1.4772 -0.8283  0.2141
  765SOL     OW 2293   1.145   2.647   1.269  0.0037 -0.2922  0.1506
  765SOL    HW1 2294   1.181   2.661   1.365  0.0664  0.1064  2.0491
  765SOL    HW2 2295   1.132   2.737   1.225 -1.4815 -1.8131  2.8771
  766SOL     OW 2296   0.788   2.216   2.510 -0.0183 -0.3417  0.6213
  766SOL    HW1 2297   0.734   2.211   2.597  1.5443  3.5530 -1.8546
  766SOL    HW2 2298   0.724   2.223   2.430  1.1596  2.4753  0.0365
  767SOL     OW 2299   1.672   0.434   2.894  0.1397 -0.2244  0.0469
  767SOL    HW1 2300   1.646   0.334   2.905 -0.8194 -1.1701 -2.4880
  767SOL    HW2 2301   1.775   0.432   2.896  1.1115 -1.6062  0.0818
  768SOL     OW 2302   1.221   2.441   2.843 -0.1804  0.1659 -0.3610
  768SOL    HW1 2303   1.217   2.477   2.748 -0.7614  0.1144  0.4953
  768SOL    HW2 2304   1.156   2.362   2.858  0.1568  0.0479 -1.1397
  769SOL     OW 2305   2.950   2.693   1.360 -0.1695 -0.2252  0.0046
  769SOL    HW1 2306   2.923   2.791   1.368  0.4568 -0.7047 -0.3722
  769SOL    HW2 2307   3.043   2.677   1.402  2.9637 -0.2918 -0.5997
  770SOL     OW 2308   0.706   3.020   2.868  0.3893  0.0856 -0.4175
  770SOL    HW1 2309   0.788   2.958   2.872  0.1552  3.0707  1.1644
  770SOL    HW2 2310   0.697   3.065   2.958 -1.8335 -1.6968  1.2651
  771SOL     OW 2311   0.644   2.910   2.409 -0.3185  0.3038  0.0900
  771SOL    HW1 2312   0.586   2.994   2.424 -0.4687  3.2591  0.2338
  771SOL    HW2 2313   0.739   2.930   2.444  1.7043  1.4465  0.8329
  772SOL     OW 2314   2.385   2.974   2.209  0.1048  0.1524 -0.1213
  772SOL    HW1 2315   2.472   2.975   2.268 -1.2022  1.5719 -1.1110
  772SOL    HW2 2316   2.385   2.889   2.153  3.2713  1.3371  0.8276
  773SOL     OW 2317   0.717   2.384   1.777  0.3023  0.4743  0.2469
  773SOL    HW1 2318   0.726   2.373   1.675 -0.2123 -1.9000  0.3333
  773SOL    HW2 2319   0.635   2.335   1.816 -0.9877  1.9668  0.7153
  774SOL     OW 2320   1.472   0.437   2.097  0.4081 -0.3356  0.1360
  774SOL    HW1 2321   1.531   0.354   2.084  0.4284  0.6176 -1.2007
  774SOL    HW2 2322   1.386   0.414   2.050  0.1387 -2.7366 -0.9030
  775SOL     OW 2323   2.129   2.641   2.941  0.2221 -0.3817  0.4966
  775SOL    HW1 2324   2.079   2.552   2.957 -2.9394 -0.1122 -1.6153
  775SOL    HW2 2325   2.225   2.622   2.921 -1.9323  0.9183  0.3151
  776SOL     OW 2326   2.022   0.743   2.194 -0.5316 -0.4492 -0.4174
  776SOL    HW1 2327   2.078   0.826   2.189  0.4216 -0.9133  0.6740
  776SOL    HW2 2328   1.974   0.729   2.106  1.9557  2.2068 -1.0727
  777SOL     OW 2329   2.969   1.144   2.440  0.0132 -0.0524  0.0958
  777SOL    HW1 2330   2.929   1.049   2.429 -3.4947 -2.6658 -0.0649
  777SOL    HW2 2331   2.941   1.208   2.369  1.4350  1.4566  1.6222
  778SOL     OW 2332   2.195   0.581   2.339 -0.4688  0.3988 -0.2702
  778SOL    HW1 2333   2.221   0.643   2.418  1.1524  1.3167  2.5246
  778SOL    HW2 2334   2.144   0.634   2.272  0.6617 -2.5985  3.2011
  779SOL     OW 2335   2.959   0.185   0.223  0.1786 -0.2720 -0.0389
  779SOL    HW1 2336   2.934   0.261   0.290  0.0626  0.2119  0.7518
  779SOL    HW2 2337   3.057   0.151   0.235  1.5639  0.8359 -1.0787
  780SOL     OW 2338   2.533   0.212   2.615 -0.1993 -0.1601 -0.2339
  780SOL    HW1 2339   2.589   0.295   2.611 -1.6328  1.2885  0.0494
  780SOL    HW2 2340   2.451   0.229   2.556 -1.4169  0.5347 -1.1247
  781SOL     OW 2341   0.194   3.050   1.662 -0.2982  0.5961  0.4622
  781SOL    HW1 2342   0.097   3.050   1.633  2.2403  0.1113  1.5586
  781SOL    HW2 2343   0.220   0.058   1.680  0.3837 -2.4615 -0.3981
  782SOL     OW 2344   1.780   2.543   0.063  0.3742 -0.2875  0.2216
  782SOL    HW1 2345   1.685   2.535   0.022 -2.8613 -0.5000 -1.1365
  782SOL    HW2 2346   1.777   2.524   0.161 -0.4664  0.1649 -2.9451
  783SOL     OW 2347   0.903   1.524   1.580 -0.1562 -0.2289  0.1001
  783SOL    HW1 2348   0.958   1.592   1.527  0.3922 -2.0035  1.8434
  783SOL    HW2 2349   0.961   1.495   1.660  0.9804  0.9969  1.6774
  784SOL     OW 2350   1.793   0.614   2.311 -0.2450 -0.0199  0.0833
  784SOL    HW1 2351   1.696   0.622   2.277  0.1811 -0.4376 -0.9366
  784SOL    HW2 2352   1.859   0.675   2.266 -1.9550  0.1017 -0.4627
  785SOL     OW 2353   2.896   0.489   1.037  0.7024  0.0320 -0.0573
  785SOL    HW1 2354   2.909   0.575   1.091  1.7620  1.7077 -0.2697
  785SOL    HW2 2355   2.796   0.458   1.028 -2.8617 -2.0448 -0.5239
  786SOL     OW 2356   1.879   3.076   0.814 -0.0896  0.0466  0.1755
  786SOL    HW1 2357   1.825   0.079   0.832  1.5386 -0.8230 -1.1234
  786SOL    HW2 2358   1.818   3.005   0.775 -2.4656 -3.6211  1.5336
  787SOL     OW 2359   1.306   2.946   0.975 -0.6256  0.6314  0.1181
  787SOL    HW1 2360   1.326   3.042   0.984 -3.2934 -3.0360  1.4148
  787SOL    HW2 2361   1.232   2.920   1.040  0.2987 -0.0071  1.1549
  788SOL     OW 2362   0.108   1.052   0.855 -0.1594  0.1679 -0.0178
  788SOL    HW1 2363   0.044   1.032   0.932  0.5401  0.3797 -0.6750
  788SOL    HW2 2364   0.086   1.136   0.800 -1.6717  0.1017 -2.0070
  789SOL     OW 2365   0.385   1.102   1.860 -0.5005  0.1104  0.3200
  789SOL    HW1 2366   0.445   1.043   1.921 -0.9583 -1.1786  0.7933
  789SOL    HW2 2367   0.426   1.193   1.849 -1.0884 -0.3516 -0.2121
  790SOL     OW 2368   0.616   0.636   2.671  0.1352  0.3657 -0.0292
  790SOL    HW1 2369   0.659   0.618   2.762  1.0843  0.7569  0.7724
  790SOL    HW2 2370   0.690   0.626   2.597 -0.1822 -1.9874 -2.8772
  791SOL     OW 2371   2.237   0.530   0.262  0.2124  0.2725  0.1552
  791SOL    HW1 2372   2.157   0.499   0.320 -0.5542 -0.9972 -1.2455
  791SOL    HW2 2373   2.295   0.598   0.313 -0.0809 -0.3547  1.2474
  792SOL     OW 2374   1.295   0.367   1.141 -0.5009 -0.0798 -0.2426
  792SOL    HW1 2375   1.311   0.472   1.139 -0.5061  1.9535  1.0692
  792SOL    HW2 2376   1.285   0.335   1.238  2.0387 -0.6765  2.1211
  793SOL     OW 2377   0.133   2.901   1.323 -0.4792 -0.3413 -0.2784
  793SOL    HW1 2378   0.227   2.939   1.292  0.8307  3.4150 -1.6221
  793SOL    HW2 2379   0.063   2.972   1.341 -0.5503 -0.3109 -1.6332
  794SOL     OW 2380   0.144   0.630   1.964  0.6033 -0.0391  0.0893
  794SOL    HW1 2381   0.146   0.636   2.065  0.1168 -0.1292  0.9022
  794SOL    HW2 2382   0.238   0.609   1.931 -1.4299  0.4668  1.2063
  795SOL     OW 2383   0.466   2.304   2.626  0.8502 -0.3433 -0.0270
  795SOL    HW1 2384   0.519   2.359   2.559 -1.4710  0.3480 -0.5754
  795SOL    HW2 2385   0.485   2.345   2.723  1.0816 -0.2714 -0.3280
  796SOL     OW 2386   2.063   0.403   2.518  0.1820  0.1715  0.4521
  796SOL    HW1 2387   2.084   0.456   2.433 -0.4003 -0.2733 -1.3294
  796SOL    HW2 2388   1.965   0.415   2.534  2.4612 -1.4945 -1.2785
  797SOL     OW 2389   2.784   2.372   2.700  0.3555 -0.4717  0.0766
  797SOL    HW1 2390   2.703   2.429   2.727 -2.4337  1.3174 -0.4667
  797SOL    HW2 2391   2.866   2.409   2.746 -1.6208  0.3502  0.7911
  798SOL     OW 2392   0.267   0.602   1.521 -0.3328  0.6332  0.0558
  798SOL    HW1 2393   0.255   0.522   1.588 -0.3546 -1.5203  0.8807
  798SOL    HW2 2394   0.294   0.681   1.578 -0.1622  1.3799 -0.2949
  799SOL     OW 2395   0.691   3.030   1.844 -0.4854 -0.5832  0.0399
  799SOL    HW1 2396   0.591   3.045   1.836 -0.0270 -3.1380  1.3537
  799SOL    HW2 2397   0.718   3.035   1.940 -1.3124  2.4510 -4.3814
  800SOL     OW 2398   2.964   2.600   0.312  0.0809  0.8561  0.1642
  800SOL    HW1 2399   3.020   2.540   0.253  0.2266  1.2589  1.3764
  800SOL    HW2 2400   2.999   2.698   0.296 -1.1005 -1.5882 -3.0818
  801SOL     OW 2401   1.746   1.748   0.652 -0.3615 -0.1747 -0.8430
  801SOL    HW1 2402   1.721   1.831   0.595 -1.9726 -0.5521 -1.7882
  801SOL    HW2 2403   1.700   1.766   0.740 -0.1122 -0.3345 -0.6309
  802SOL     OW 2404   0.466   0.649   0.377 -0.2465  0.5118 -0.1553
  802SOL    HW1 2405   0.431   0.690   0.466 -2.2854 -0.0874 -0.6940
  802SOL    HW2 2406   0.457   0.724   0.311 -2.3248  0.4152  1.6509
  803SOL     OW 2407   1.241   1.072   2.314  0.3480 -0.8105  0.2178
  803SOL    HW1 2408   1.217   1.030   2.406  1.5526  0.0508  2.0842
  803SOL    HW2 2409   1.173   1.146   2.292 -1.0053  0.8611  0.6443
  804SOL     OW 2410   2.075   2.074   1.004  0.1240  0.3755 -0.3738
  804SOL    HW1 2411   2.135   2.153   1.028 -1.4471  0.3165 -0.2214
  804SOL    HW2 2412   2.138   1.996   0.972 -1.3618 -2.5634 -0.3308
  805SOL     OW 2413   0.245   1.929   2.614 -0.3452 -0.4834 -0.7186
  805SOL    HW1 2414   0.272   2.009   2.560 -0.3247 -0.6338  0.3843
  805SOL    HW2 2415   0.207   1.859   2.552  1.2073  1.9594 -0.6696
  806SOL     OW 2416   0.645   2.557   0.203 -0.1268  0.2351  0.7622
  806SOL    HW1 2417   0.689   2.608   0.126  1.8518  0.7863  0.5005
  806SOL    HW2 2418   0.571   2.609   0.248 -0.9578  0.2258  0.4309
  807SOL     OW 2419   2.541   1.003   2.868 -0.1775 -0.1507 -0.5647
  807SOL    HW1 2420   2.637   0.998   2.910  0.3073 -0.4568  1.3995
  807SOL    HW2 2421   2.482   1.063   2.925  1.4984 -2.7426  1.6830
  808SOL     OW 2422   1.659   2.136   0.791 -0.1260 -0.5102 -0.0407
  808SOL    HW1 2423   1.755   2.117   0.766  0.1276  0.6842 -1.4382
  808SOL    HW2 2424   1.656   2.217   0.856 -2.5921 -0.4378  0.9421
  809SOL     OW 2425   0.240   0.544   0.694  0.3726  0.0637 -0.6994
  809SOL    HW1 2426   0.323   0.609   0.681 -0.6476  0.2685 -0.9055
  809SOL    HW2 2427   0.259   0.453   0.741 -1.3979 -0.3155 -1.5330
  810SOL     OW 2428   1.469   1.481   0.119 -0.4303 -0.7230  0.2575
  810SOL    HW1 2429   1.448   1.477   0.018 -0.5748  1.4460 -4.9264
  810SOL    HW2 2430   1.483   1.577   0.141  1.4370  0.2536  0.6906
  811SOL     OW 2431   1.406   2.900   1.512 -0.4435 -0.8022 -0.3615
  811SOL    HW1 2432   1.483   2.884   1.448  3.9905  1.4918  1.9206
  811SOL    HW2 2433   1.377   2.998   1.510 -0.0143  2.4709 -0.6871
  812SOL     OW 2434   1.581   2.952   0.967 -0.2219 -0.1124 -0.0834
  812SOL    HW1 2435   1.651   2.879   0.938  0.1495 -1.1584  0.1044
  812SOL    HW2 2436   1.487   2.914   0.968  1.5048  0.6120 -2.5275
  813SOL     OW 2437   1.564   2.822   2.006  0.1345 -0.0851 -0.1062
  813SOL    HW1 2438   1.512   2.741   2.040 -1.0673 -0.8123  2.5884
  813SOL    HW2 2439   1.613   2.798   1.918 -0.1169 -1.3520  0.2808
  814SOL     OW 2440   1.085   2.624   1.869  0.1470  0.3258  0.0847
  814SOL    HW1 2441   1.118   2.645   1.962  1.1583  1.0918  1.0637
  814SOL    HW2 2442   1.097   2.702   1.804  0.3982  0.4248 -0.5609
  815SOL     OW 2443   0.481   0.161   2.923  0.3810 -0.3400 -0.1773
  815SOL    HW1 2444   0.552   0.117   2.985  1.6583 -0.8849 -1.2066
  815SOL    HW2 2445   0.458   0.257   2.942  2.7278 -0.7111 -0.2511
  816SOL     OW 2446   2.370   1.130   3.021 -0.2213 -0.2794  0.6944
  816SOL    HW1 2447   2.446   1.179   3.067  1.3419  0.1685 -1.1556
  816SOL    HW2 2448   2.320   1.064   3.083  0.6166 -2.0082  1.4309
  817SOL     OW 2449   2.876   2.251   2.469  0.3050  0.2746  0.0053
  817SOL    HW1 2450   2.852   2.302   2.558 -1.2380 -1.1503 -0.4898
  817SOL    HW2 2451   2.955   2.194   2.489 -1.0574  1.7816  0.5354
  818SOL     OW 2452   0.947   1.354   0.458 -0.0473  0.1041  0.5138
  818SOL    HW1 2453   0.930   1.254   0.424  3.5924 -0.9053  2.6970
  818SOL    HW2 2454   0.860   1.395   0.491  3.3978 -0.6065  1.1891
  819SOL     OW 2455   1.624   1.345   2.825  0.7090  0.3000  0.4752
  819SOL    HW1 2456   1.687   1.264   2.807  1.2328 -2.2068  4.0846
  819SOL    HW2 2457   1.666   1.430   2.864  1.2508  1.6959 -0.5163
  820SOL     OW 2458   0.465   1.333   0.464  0.0547 -0.1868  0.1022
  820SOL    HW1 2459   0.554   1.371   0.500 -1.1327  4.3721  0.7541
  820SOL    HW2 2460   0.456   1.346   0.362  0.9691  0.7901  0.2482
  821SOL     OW 2461   0.398   2.957   1.309 -0.3782  0.3658 -0.8208
  821SOL    HW1 2462   0.484   2.933   1.264  0.2392  0.3660  0.5808
  821SOL    HW2 2463   0.392   2.919   1.407 -0.0801 -0.5951  0.6959
  822SOL     OW 2464   1.982   1.913   2.807  0.1734  0.0920 -0.1409
  822SOL    HW1 2465   2.006   1.966   2.892  2.9998 -1.6366 -0.3390
  822SOL    HW2 2466   1.906   1.957   2.753 -2.6001  0.1659 -0.1243
  823SOL     OW 2467   0.843   0.672   2.455  0.4609  0.6203 -0.0437
  823SOL    HW1 2468   0.863   0.580   2.484  0.3650  0.4943 -0.3166
  823SOL    HW2 2469   0.764   0.677   2.394  2.0563  1.0566  0.3248
  824SOL     OW 2470   2.559   2.802   1.724 -0.2649 -0.1379  0.0933
  824SOL    HW1 2471   2.512   2.720   1.753  2.1647 -0.1142 -0.4565
  824SOL    HW2 2472   2.543   2.885   1.782 -0.8506 -2.0683  0.1984
  825SOL     OW 2473   0.106   1.780   2.445  0.4137  0.5656 -0.1942
  825SOL    HW1 2474   0.085   1.849   2.373 -0.8448 -0.3859 -1.4092
  825SOL    HW2 2475   0.059   1.693   2.424  2.4817 -0.9511 -1.1592
  826SOL     OW 2476   1.641   0.249   0.190  0.0931  0.4584 -0.3028
  826SOL    HW1 2477   1.716   0.317   0.171 -0.7033 -0.4671  2.8842
  826SOL    HW2 2478   1.676   0.162   0.152  0.1510  2.9159  2.1587
  827SOL     OW 2479   0.040   1.860   1.844  0.2867 -0.4449  0.6396
  827SOL    HW1 2480   3.044   1.857   1.902  2.1023  0.0900  1.5077
  827SOL    HW2 2481   0.090   1.774   1.852 -1.4857  0.9534  1.6114
  828SOL     OW 2482   0.144   0.244   1.389 -0.1543  0.1980 -0.8771
  828SOL    HW1 2483   0.109   0.339   1.370 -2.2441 -0.4882  1.8725
  828SOL    HW2 2484   0.233   0.228   1.344  1.3745 -0.5980 -1.8565
  829SOL     OW 2485   0.929   1.590   2.380  0.0741  0.2264  0.0912
  829SOL    HW1 2486   0.871   1.594   2.463  0.5716  0.3262 -2.0392
  829SOL    HW2 2487   0.926   1.507   2.325  0.3226  1.6124  2.7434
  830SOL     OW 2488   0.893   0.696   1.508  0.0161 -0.3192 -0.3461
  830SOL    HW1 2489   0.874   0.732   1.413 -0.0767 -0.2940 -2.3469
  830SOL    HW2 2490   0.817   0.633   1.533  0.4757 -0.7773 -0.1272
  831SOL     OW 2491   2.557   1.456   2.953  0.3260 -0.2096  0.4069
  831SOL    HW1 2492   2.531   1.449   2.855  0.7194 -0.4875 -1.1036
  831SOL    HW2 2493   2.644   1.505   2.962 -3.5126  2.0439 -1.6435
  832SOL     OW 2494   1.048   2.231   2.868 -0.0052 -0.3379  0.4711
  832SOL    HW1 2495   0.963   2.282   2.837 -1.7884 -0.5226 -4.0033
  832SOL    HW2 2496   1.067   2.149   2.808 -0.9977  1.0309  2.0372
  833SOL     OW 2497   0.183   0.352   1.672  0.0944 -0.3897 -0.1759
  833SOL    HW1 2498   0.100   0.354   1.732 -0.3606 -2.2242 -0.6015
  833SOL    HW2 2499   0.156   0.305   1.585 -0.0255 -0.6782  1.7698
  834SOL     OW 2500   0.056   0.917   1.304 -0.3903  0.0575 -0.4860
  834SOL    HW1 2501   0.095   1.005   1.332  1.0714 -1.3655 -2.5202
  834SOL    HW2 2502   0.134   0.870   1.256  2.2516  1.2386  1.7247
  835SOL     OW 2503   2.684   0.599   0.656  0.0764 -0.0092 -0.2135
  835SOL    HW1 2504   2.754   0.535   0.696 -1.3110 -0.0027 -0.3195
  835SOL    HW2 2505   2.601   0.551   0.616 -1.8782 -3.1489 -2.4027
  836SOL     OW 2506   0.710   2.325   3.064 -0.0512 -0.8067  0.6808
  836SOL    HW1 2507   0.674   2.266   0.048  0.9089 -0.4420 -3.7327
  836SOL    HW2 2508   0.674   2.297   2.971 -1.3007  1.2963  2.0860
  837SOL     OW 2509   1.441   2.098   0.353 -0.1403 -0.1641 -0.1019
  837SOL    HW1 2510   1.463   2.064   0.258 -0.9441 -0.8680  0.1706
  837SOL    HW2 2511   1.342   2.095   0.372  3.4266  2.2465  0.9821
  838SOL     OW 2512   2.222   0.925   2.257 -0.0522  0.4055  0.4143
  838SOL    HW1 2513   2.320   0.925   2.241  1.2775  0.9227 -2.7968
  838SOL    HW2 2514   2.198   0.894   2.352 -0.7713  1.5645  2.4222
  839SOL     OW 2515   1.190   1.003   2.825 -0.0420  0.3943  0.1066
  839SOL    HW1 2516   1.120   1.055   2.880  0.7186 -1.2841 -1.6250
  839SOL    HW2 2517   1.237   0.932   2.879  1.6045  1.0796 -0.9063
  840SOL     OW 2518   0.654   1.153   0.150  0.2920  0.0830 -0.6974
  840SOL    HW1 2519   0.572   1.214   0.175 -2.4387  0.4886 -1.6522
  840SOL    HW2 2520   0.663   1.151   0.050 -1.0269  1.0559  4.0325
  841SOL     OW 2521   1.228   2.174   3.057 -0.2936 -0.0459  0.5046
  841SOL    HW1 2522   1.245   2.226   0.054  2.6429  0.6413 -1.3901
  841SOL    HW2 2523   1.153   2.200   2.995 -1.0510 -1.0121  1.6483
  842SOL     OW 2524   0.096   0.503   0.475 -0.0535 -0.0361 -0.5954
  842SOL    HW1 2525   0.151   0.536   0.555 -0.3664 -0.4722  1.0587
  842SOL    HW2 2526   0.161   0.450   0.415 -0.7681  1.1106 -1.5934
  843SOL     OW 2527   0.554   0.788   1.027 -0.1720 -1.2924 -0.3089
  843SOL    HW1 2528   0.501   0.874   1.011 -1.1989 -0.5114  0.6933
  843SOL    HW2 2529   0.498   0.708   0.996  3.0527  0.3089 -0.9587
  844SOL     OW 2530   2.079   2.610   2.459 -0.7049  0.0578  0.2505
  844SOL    HW1 2531   2.145   2.689   2.473  1.7623  2.2124 -0.5290
  844SOL    HW2 2532   2.014   2.637   2.385  0.1308 -0.1837  1.5515
  845SOL     OW 2533   2.893   2.697   1.865 -0.3128  0.0231  0.4190
  845SOL    HW1 2534   2.969   2.759   1.893  0.3185  2.3810 -0.7240
  845SOL    HW2 2535   2.868   2.718   1.768  2.0777 -2.1375  2.1238
  846SOL     OW 2536   1.951   0.915   2.624  0.3448 -0.2830 -0.2196
  846SOL    HW1 2537   1.878   0.860   2.672  0.4635 -0.7957  1.8907
  846SOL    HW2 2538   1.916   0.982   2.554  1.0704  1.8097 -1.2714
  847SOL     OW 2539   2.950   0.356   1.633  0.4705  0.2110  0.6845
  847SOL    HW1 2540   2.974   0.405   1.718  0.9468 -0.4309  2.8258
  847SOL    HW2 2541   2.968   0.254   1.643 -0.9697  0.5639 -2.2779
  848SOL     OW 2542   2.561   2.858   0.188 -0.0914  0.1292 -0.0472
  848SOL    HW1 2543   2.654   2.852   0.141 -1.0831 -0.1285 -0.8453
  848SOL    HW2 2544   2.509   2.770   0.170  0.1154  2.3827  0.9242
  849SOL     OW 2545   0.493   2.925   0.916 -0.1983  0.0442 -0.5450
  849SOL    HW1 2546   0.463   2.836   0.876  0.8426 -0.0793  0.4957
  849SOL    HW2 2547   0.429   3.002   0.897 -1.2908 -1.3805 -2.0252
  850SOL     OW 2548   0.618   2.283   0.258  0.1106 -0.5537 -0.1809
  850SOL    HW1 2549   0.606   2.382   0.236 -0.4876  0.1397  1.2870
  850SOL    HW2 2550   0.718   2.258   0.252 -0.0442 -0.2627 -0.6598
  851SOL     OW 2551   1.977   0.482   2.946  0.2372 -0.2078  0.4001
  851SOL    HW1 2552   1.994   0.570   2.896  1.4728  0.9428  0.9023
  851SOL    HW2 2553   2.020   0.403   2.897  0.4020 -1.2540  0.7387
  852SOL     OW 2554   1.700   2.545   2.451 -0.3969 -0.1269  0.0188
  852SOL    HW1 2555   1.648   2.530   2.371  0.8807  1.4690  3.4044
  852SOL    HW2 2556   1.767   2.470   2.471  0.7601  0.0821 -1.3714
  853SOL     OW 2557   0.013   2.452   0.131 -0.0095  0.0455  0.7477
  853SOL    HW1 2558   0.029   2.512   0.048  0.4614  2.9322 -0.3362
  853SOL    HW2 2559   0.061   2.364   0.118  2.2306 -0.2049 -0.1168
  854SOL     OW 2560   1.154   0.448   2.385  0.1269 -0.0157 -0.1253
  854SOL    HW1 2561   1.228   0.407   2.444 -0.6178 -1.0382 -1.5361
  854SOL    HW2 2562   1.167   0.544   2.354 -0.1623 -1.0010  1.4420
  855SOL     OW 2563   0.186   2.958   0.670  0.3462  0.4400 -0.1799
  855SOL    HW1 2564   0.093   2.910   0.681 -0.7358 -3.0772  1.1615
  855SOL    HW2 2565   0.230   2.927   0.582 -0.4998  3.1317 -0.7235
  856SOL     OW 2566   0.356   2.901   2.560  0.2253 -0.1469  0.6267
  856SOL    HW1 2567   0.380   2.829   2.485  1.9427 -0.8062 -1.7084
  856SOL    HW2 2568   0.407   2.887   2.648  3.2872 -1.1797 -0.6068
  857SOL     OW 2569   0.948   3.076   1.753  0.3438  0.5355 -0.4896
  857SOL    HW1 2570   0.858   0.014   1.800 -2.2954  0.6271 -1.6188
  857SOL    HW2 2571   1.001   0.074   1.735  1.0570  0.2924  1.9295
  858SOL     OW 2572   0.339   1.802   1.637  0.0992 -0.0292  0.2957
  858SOL    HW1 2573   0.404   1.873   1.676  1.6094  4.9291  1.6274
  858SOL    HW2 2574   0.330   1.805   1.530  1.1104 -1.6921 -1.4590
  859SOL     OW 2575   2.003   2.896   1.809  0.6535  0.1210  0.3147
  859SOL    HW1 2576   2.106   2.906   1.804 -0.0555  1.8065  2.3231
  859SOL    HW2 2577   1.978   2.802   1.826  0.8919  3.1171 -1.5143
  860SOL     OW 2578   1.719   0.224   0.600  0.0134 -0.3035  0.2526
  860SOL    HW1 2579   1.658   0.184   0.669  0.8782  1.9727 -1.0408
  860SOL    HW2 2580   1.803   0.265   0.643  1.4493  1.2610  0.3595
  861SOL     OW 2581   2.710   0.852   0.588  0.1196  0.0110 -0.8010
  861SOL    HW1 2582   2.687   0.756   0.605 -1.6876 -0.6115 -0.5597
  861SOL    HW2 2583   2.727   0.897   0.678  0.1300 -3.2729 -0.0250
  862SOL     OW 2584   1.874   0.621   1.980 -0.1499 -0.0859 -0.0207
  862SOL    HW1 2585   1.921   0.535   2.004  0.7758 -0.8675  0.6987
  862SOL    HW2 2586   1.906   0.662   1.891 -1.2226  2.2008 -2.7243
  863SOL     OW 2587   0.793   0.702   0.936  0.4794  0.2782  0.6182
  863SOL    HW1 2588   0.712   0.747   0.979 -0.3272 -0.1380 -1.2144
  863SOL    HW2 2589   0.822   0.625   0.991  3.3721  1.4792 -0.3743
  864SOL     OW 2590   2.968   2.846   2.432  0.1518  0.1157  0.4521
  864SOL    HW1 2591   2.873   2.815   2.458 -0.2009  0.5272  1.4977
  864SOL    HW2 2592   3.037   2.804   2.495 -1.0410 -0.0140  0.3739
  865SOL     OW 2593   1.118   0.738   2.456  0.0538  0.0207 -0.1301
  865SOL    HW1 2594   1.018   0.728   2.431 -2.9460 -1.4187  0.8550
  865SOL    HW2 2595   1.153   0.664   2.516  0.1247 -1.5067  0.3849
  866SOL     OW 2596   2.522   2.706   0.626 -0.1410  0.1410  0.6476
  866SOL    HW1 2597   2.482   2.746   0.711 -0.0123  1.6931  1.0730
  866SOL    HW2 2598   2.569   2.614   0.643 -1.2995 -1.4819  0.9112
  867SOL     OW 2599   2.880   3.005   0.485  0.5026  0.2035  0.2101
  867SOL    HW1 2600   2.800   2.945   0.486  0.5030  2.5389 -0.6253
  867SOL    HW2 2601   2.845   0.013   0.497 -2.3165 -2.4474 -0.5447
  868SOL     OW 2602   1.723   1.072   0.025 -0.1946 -0.1879 -0.5477
  868SOL    HW1 2603   1.644   1.084   3.044  0.1543  1.0801  1.7364
  868SOL    HW2 2604   1.726   1.152   0.087  2.4186 -0.1871  1.1592
  869SOL     OW 2605   3.073   2.241   0.602 -0.1752  0.3022  0.0594
  869SOL    HW1 2606   2.980   2.241   0.654 -4.4252 -1.9194  3.2999
  869SOL    HW2 2607   3.055   2.254   0.499 -2.8000  0.8451  1.3555
  870SOL     OW 2608   2.270   2.067   0.369 -0.1280 -0.1798  0.1003
  870SOL    HW1 2609   2.299   2.005   0.446  1.8713  0.3824 -2.1620
  870SOL    HW2 2610   2.261   2.013   0.285 -1.8194  1.6558 -0.6068
  871SOL     OW 2611   0.699   1.200   1.079  0.5367 -0.3643  0.0753
  871SOL    HW1 2612   0.695   1.139   1.161 -0.2790 -0.7363 -1.1169
  871SOL    HW2 2613   0.792   1.189   1.044 -2.5747 -0.7317  2.9692
  872SOL     OW 2614   1.148   2.022   2.261 -0.2176  0.0986  0.6119
  872SOL    HW1 2615   1.249   2.040   2.246  3.3445  0.5277  0.6723
  872SOL    HW2 2616   1.088   2.073   2.197  0.3404 -3.1892  2.3590
  873SOL     OW 2617   0.485   2.279   1.891 -0.3587  0.2638  0.6397
  873SOL    HW1 2618   0.499   2.352   1.963 -0.3352  0.1653 -1.7047
  873SOL    HW2 2619   0.432   2.197   1.924 -0.3467 -0.6026  0.9127
  874SOL     OW 2620   0.983   0.114   1.084  0.1181  0.3101 -0.3354
  874SOL    HW1 2621   1.055   0.146   1.150  0.5898 -0.1820 -2.3699
  874SOL    HW2 2622   0.936   0.034   1.122  1.4124  1.0879  0.9540
  875SOL     OW 2623   2.726   0.271   1.350 -0.1028  0.0755  0.3072
  875SOL    HW1 2624   2.635   0.310   1.344  2.4053  0.2282  0.3728
  875SOL    HW2 2625   2.787   0.350   1.372  1.5779  0.6278 -0.2237
  876SOL     OW 2626   0.427   0.891   0.206 -0.1587  0.3155  0.5750
  876SOL    HW1 2627   0.510   0.948   0.225 -1.4526  1.4060  0.6204
  876SOL    HW2 2628   0.348   0.943   0.171  6.3082 -0.3712  3.5198
  877SOL     OW 2629   0.874   0.306   1.495 -0.2581  0.8755 -0.0225
  877SOL    HW1 2630   0.936   0.279   1.572 -1.2162  1.2710 -4.3859
  877SOL    HW2 2631   0.823   0.394   1.522  0.3697  4.9626 -1.4179
  878SOL     OW 2632   2.099   2.729   0.307 -0.4022 -0.6836 -0.0990
  878SOL    HW1 2633   2.099   2.757   0.209 -1.2972  0.7950 -2.0277
  878SOL    HW2 2634   2.162   2.795   0.358  1.6804  0.8406 -1.5211
  879SOL     OW 2635   2.640   1.445   1.347  0.0277  0.5548  0.0090
  879SOL    HW1 2636   2.608   1.420   1.253  1.6075 -1.8210 -0.6884
  879SOL    HW2 2637   2.567   1.503   1.383  2.4425 -2.5474 -1.4519
  880SOL     OW 2638   1.281   2.398   0.542 -0.6583 -0.0891 -0.0366
  880SOL    HW1 2639   1.343   2.329   0.580 -0.2858 -1.1752  2.2535
  880SOL    HW2 2640   1.227   2.373   0.464  1.3178  1.9920  1.8921
  881SOL     OW 2641   0.886   2.191   0.180 -0.1789 -0.0375  0.0099
  881SOL    HW1 2642   0.943   2.209   0.261 -0.9043 -1.0512 -0.2595
  881SOL    HW2 2643   0.938   2.208   0.095 -0.5566  0.2287 -0.7694
  882SOL     OW 2644   1.951   0.661   1.355  0.2712  0.2911  0.0536
  882SOL    HW1 2645   1.999   0.595   1.422  1.5432 -0.8772  1.5983
  882SOL    HW2 2646   1.860   0.684   1.393 -2.7884 -2.3544  0.0001
  883SOL     OW 2647   1.694   0.908   1.754  0.5818 -0.0731  0.2437
  883SOL    HW1 2648   1.746   0.841   1.807 -0.3880  1.7062 -0.4051
  883SOL    HW2 2649   1.595   0.891   1.767 -0.2215 -0.0783 -1.7793
  884SOL     OW 2650   2.723   0.579   0.370 -0.3511  0.4090  0.2995
  884SOL    HW1 2651   2.706   0.668   0.327 -0.5981 -2.0161 -1.4763
  884SOL    HW2 2652   2.750   0.598   0.465  2.2095 -2.1607 -2.2471
  885SOL     OW 2653   1.250   1.491   2.985  0.0895 -0.1609 -0.4385
  885SOL    HW1 2654   1.153   1.503   2.957 -0.3838 -1.5387  0.5143
  885SOL    HW2 2655   1.312   1.479   2.897  3.6020 -2.5870 -1.7305
  886SOL     OW 2656   1.391   1.512   2.745 -0.1436 -0.0057 -0.1241
  886SOL    HW1 2657   1.421   1.584   2.683  0.1329 -1.9985  0.8608
  886SOL    HW2 2658   1.465   1.442   2.749  0.8542  1.6160 -1.5641
  887SOL     OW 2659   1.605   0.243   1.387 -0.8490 -0.0628  0.6756
  887SOL    HW1 2660   1.570   0.159   1.337  1.8141 -0.3348  1.0250
  887SOL    HW2 2661   1.689   0.281   1.343  2.9688  0.1730  0.9129
  888SOL     OW 2662   2.512   0.633   1.718 -0.2913 -0.1955  0.4091
  888SOL    HW1 2663   2.593   0.635   1.774 -0.6023  0.8758 -1.7890
  888SOL    HW2 2664   2.513   0.715   1.657  2.0692  0.7298 -1.1446
  889SOL     OW 2665   3.045   2.918   0.996 -0.0122  0.1126  0.7090
  889SOL    HW1 2666   3.037   2.888   0.901 -1.8082 -0.4437  2.2181
  889SOL    HW2 2667   2.976   2.873   1.056  1.8958 -0.6989  2.0099
  890SOL     OW 2668   2.169   2.498   0.139  0.1627 -0.0949  0.3878
  890SOL    HW1 2669   2.132   2.586   0.170 -2.0216 -2.9388  2.3032
  890SOL    HW2 2670   2.108   2.453   0.069 -1.1149 -0.9260 -0.9646
  891SOL     OW 2671   0.447   1.102   2.603  0.5602  0.1604 -0.0664
  891SOL    HW1 2672   0.362   1.140   2.563 -0.6353  0.9063  1.7141
  891SOL    HW2 2673   0.532   1.144   2.565 -0.9735  0.4813 -0.8185
  892SOL     OW 2674   3.053   0.041   1.348 -0.5524 -0.0606  0.1637
  892SOL    HW1 2675   0.037   0.115   1.346 -3.0097 -0.2972  0.2807
  892SOL    HW2 2676   2.990   0.052   1.270 -2.1438 -2.4072  1.4422
  893SOL     OW 2677   1.568   0.062   1.177  0.3836  0.3590 -0.1867
  893SOL    HW1 2678   1.602   3.080   1.113 -2.2320  0.6837 -1.1386
  893SOL    HW2 2679   1.493   0.104   1.125  2.8796  1.8616 -2.2903
  894SOL     OW 2680   2.281   0.709   0.727 -0.4818 -0.0704 -0.8849
  894SOL    HW1 2681   2.203   0.774   0.735  1.2477 -2.8175  0.7574
  894SOL    HW2 2682   2.356   0.742   0.788 -0.2246  2.0945  0.8735
  895SOL     OW 2683   1.955   1.532   2.380 -0.4940 -0.9301  0.7326
  895SOL    HW1 2684   1.960   1.438   2.421  0.8478 -0.4025  0.9662
  895SOL    HW2 2685   2.038   1.585   2.408  1.7333 -1.1572  0.5958
  896SOL     OW 2686   1.585   0.420   1.784  0.2465 -0.4104 -0.4589
  896SOL    HW1 2687   1.592   0.497   1.852  1.1075 -1.6580 -0.5883
  896SOL    HW2 2688   1.609   0.331   1.825  0.8575 -0.8516  0.4733
  897SOL     OW 2689   0.698   1.566   1.961  0.0834  0.2713  0.9182
  897SOL    HW1 2690   0.773   1.500   1.994 -1.0926  0.1331 -0.6189
  897SOL    HW2 2691   0.732   1.607   1.874  1.0804 -0.6036  0.3045
  898SOL     OW 2692   2.448   2.431   2.312  0.2819  0.3160 -0.6749
  898SOL    HW1 2693   2.401   2.480   2.241  0.3860 -1.0938  0.5157
  898SOL    HW2 2694   2.537   2.391   2.283 -0.8075 -0.1043  1.2370
  899SOL     OW 2695   1.258   1.046   1.517 -0.5714  0.5508  0.3509
  899SOL    HW1 2696   1.234   1.129   1.462 -0.8596 -1.5472  0.8959
  899SOL    HW2 2697   1.355   1.044   1.548  1.7231 -0.0465 -0.0671
  900SOL     OW 2698   1.456   2.183   2.768 -0.3919 -0.0333 -0.1986
  900SOL    HW1 2699   1.434   2.088   2.747 -1.0861  1.9985 -2.1191
  900SOL    HW2 2700   1.468   2.198   2.867  1.3983  0.5723  0.8746
  901SOL     OW 2701   0.587   1.942   2.479  0.1693  0.0265  0.0386
  901SOL    HW1 2702   0.526   1.871   2.438 -2.3809  0.9943 -1.8956
  901SOL    HW2 2703   0.591   2.027   2.420  1.0026  3.1337 -1.8537
  902SOL     OW 2704   2.008   1.675   0.197 -0.3372 -0.7582  0.1881
  902SOL    HW1 2705   1.975   1.603   0.137 -0.7370  1.0222 -3.0436
  902SOL    HW2 2706   2.025   1.645   0.290 -0.8798 -0.2588 -0.9963
  903SOL     OW 2707   2.060   1.171   0.142 -0.5550 -0.1326 -0.1768
  903SOL    HW1 2708   2.128   1.090   0.139  1.4975 -3.0005 -1.3552
  903SOL    HW2 2709   2.105   1.262   0.120 -1.2246 -0.8753  1.4731
  904SOL     OW 2710   0.855   0.862   2.642 -0.0184  0.1248 -0.4259
  904SOL    HW1 2711   0.826   0.795   2.572 -0.3181 -1.8938  0.6952
  904SOL    HW2 2712   0.908   0.810   2.711  0.8426  1.1427 -0.7663
  905SOL     OW 2713   2.637   0.438   1.071  0.3077 -0.1614 -0.0813
  905SOL    HW1 2714   2.576   0.381   1.017  2.2941  0.2410  1.1786
  905SOL    HW2 2715   2.606   0.432   1.168  0.5466  0.3355 -0.3192
  906SOL     OW 2716   2.875   1.962   0.806 -0.6492  0.7145 -0.0855
  906SOL    HW1 2717   2.868   1.868   0.768 -0.6681  1.0856 -1.3760
  906SOL    HW2 2718   2.970   1.998   0.801  1.0382  0.3187 -0.0996
  907SOL     OW 2719   1.393   0.524   0.690 -0.1167 -0.3686 -0.2110
  907SOL    HW1 2720   1.418   0.457   0.618  0.3895 -2.6355 -1.0472
  907SOL    HW2 2721   1.296   0.550   0.688 -2.3180  0.2814  0.9970
  908SOL     OW 2722   1.792   2.978   1.634 -0.3916 -0.0517 -0.0348
  908SOL    HW1 2723   1.839   3.006   1.549  1.0695  0.0391 -2.0846
  908SOL    HW2 2724   1.853   2.927   1.694 -1.8424  0.6811 -0.7428
  909SOL     OW 2725   2.518   0.793   1.488  0.4373 -0.3094 -0.1371
  909SOL    HW1 2726   2.599   0.775   1.426 -0.4062  1.0358  1.5354
  909SOL    HW2 2727   2.522   0.880   1.542  0.5997  3.0277 -1.6893
  910SOL     OW 2728   1.175   2.727   2.107  0.0931 -0.7347 -0.2574
  910SOL    HW1 2729   1.121   2.720   2.194 -2.1679  1.1821 -1.7191
  910SOL    HW2 2730   1.169   2.821   2.061  1.6570 -0.3022 -0.9657
  911SOL     OW 2731   2.272   0.632   1.858 -0.1351 -0.0466 -0.1605
  911SOL    HW1 2732   2.340   0.605   1.785  0.5120 -3.1043  0.7217
  911SOL    HW2 2733   2.183   0.583   1.842  0.0501  0.1601  0.3917
  912SOL     OW 2734   2.591   1.868   1.545 -0.2955 -0.0386 -0.6174
  912SOL    HW1 2735   2.640   1.902   1.462  1.6735 -1.7713 -2.7926
  912SOL    HW2 2736   2.595   1.932   1.625 -1.6548  1.4966  1.2430
  913SOL     OW 2737   2.742   1.961   1.329  0.5045 -0.2841  0.2050
  913SOL    HW1 2738   2.721   2.062   1.342  1.9571 -0.6615 -2.5074
  913SOL    HW2 2739   2.842   1.948   1.342  2.9625 -3.0850 -2.8269
  914SOL     OW 2740   2.233   1.690   1.322 -0.6665 -0.0697 -0.2849
  914SOL    HW1 2741   2.322   1.669   1.369 -1.8940 -0.6230  0.5636
  914SOL    HW2 2742   2.222   1.627   1.242 -0.0732  1.2433 -2.0483
  915SOL     OW 2743   1.223   1.258   1.347 -0.7796 -0.1480  0.1942
  915SOL    HW1 2744   1.135   1.290   1.304  1.9984 -0.3573 -3.4792
  915SOL    HW2 2745   1.291   1.240   1.274  2.5683 -0.2256 -2.4037
  916SOL     OW 2746   2.371   2.570   1.406  0.0677  0.3176  0.8607
  916SOL    HW1 2747   2.458   2.518   1.417  4.2529  0.9231 -0.0981
  916SOL    HW2 2748   2.381   2.661   1.451 -1.4775  0.7256 -2.0314
  917SOL     OW 2749   2.534   1.785   2.890  0.2875  0.0439 -0.1679
  917SOL    HW1 2750   2.518   1.814   2.985  1.9056 -0.7286 -1.1766
  917SOL    HW2 2751   2.634   1.773   2.866  1.0172 -1.8224  0.3070
  918SOL     OW 2752   1.855   2.314   2.522 -0.1600  0.2770  0.3139
  918SOL    HW1 2753   1.839   2.215   2.506 -0.2687 -0.8701 -0.5945
  918SOL    HW2 2754   1.935   2.329   2.585  3.4562  1.0841  0.7654
  919SOL     OW 2755   1.347   2.051   1.739  0.0132 -0.4658  0.0728
  919SOL    HW1 2756   1.406   1.968   1.714  0.2416  1.9265 -1.5764
  919SOL    HW2 2757   1.326   2.099   1.654 -0.8646 -0.9859  1.1554
  920SOL     OW 2758   2.959   0.396   2.933 -0.0198  0.1422  0.4155
  920SOL    HW1 2759   3.035   0.350   2.986  0.8373 -1.2960 -2.3826
  920SOL    HW2 2760   2.922   0.474   2.979  1.0605 -3.8532  1.7153
  921SOL     OW 2761   2.691   0.164   2.270 -0.1784 -0.3041 -0.3415
  921SOL    HW1 2762   2.709   0.074   2.220 -0.5018 -1.8556 -1.4852
  921SOL    HW2 2763   2.764   0.183   2.338 -0.1421 -1.6247  1.9528
  922SOL     OW 2764   2.036   2.223   0.373 -0.5924 -0.0784 -0.1805
  922SOL    HW1 2765   1.974   2.194   0.300  0.9937  1.3678  2.3289
  922SOL    HW2 2766   2.112   2.158   0.372  2.2579  3.3990  1.0834
  923SOL     OW 2767   0.291   1.957   0.208  0.0403 -0.1811 -0.1991
  923SOL    HW1 2768   0.234   2.015   0.146 -1.4008  0.9983 -0.7314
  923SOL    HW2 2769   0.364   2.009   0.260 -0.0243 -1.5850 -0.0786
  924SOL     OW 2770   0.949   0.321   2.857 -0.0687 -0.0354 -0.4732
  924SOL    HW1 2771   1.001   0.258   2.917  0.9265 -1.0915 -0.1139
  924SOL    HW2 2772   0.924   0.406   2.906 -2.0667  1.3421 -1.3493
  925SOL     OW 2773   2.317   1.090   0.697 -0.0085 -0.3772 -0.2675
  925SOL    HW1 2774   2.330   1.189   0.722 -1.4650 -1.6457 -2.8013
  925SOL    HW2 2775   2.384   1.060   0.628 -0.8653 -1.5966  1.4880
  926SOL     OW 2776   2.797   1.212   0.789  0.2848  0.7043 -0.4420
  926SOL    HW1 2777   2.804   1.114   0.808  1.5677  1.3838 -0.8017
  926SOL    HW2 2778   2.814   1.263   0.873 -1.5299 -2.9676  0.0646
  927SOL     OW 2779   0.193   1.242   0.120 -0.0543  0.2345 -0.1207
  927SOL    HW1 2780   0.182   1.141   0.084 -2.8048 -2.1896 -1.6452
  927SOL    HW2 2781   0.166   1.312   0.046  0.8196  0.7536 -3.4577
  928SOL     OW 2782   0.181   0.593   2.260 -0.7731 -0.3890  0.4253
  928SOL    HW1 2783   0.274   0.579   2.283 -1.3928 -1.1075  0.6107
  928SOL    HW2 2784   0.114   0.571   2.331  0.6432  1.0526 -1.9707
  929SOL     OW 2785   2.788   2.951   1.407 -0.6818 -0.0424 -0.1306
  929SOL    HW1 2786   2.796   2.997   1.318  0.9740 -0.8197  1.4417
  929SOL    HW2 2787   2.714   2.998   1.458 -0.0214  0.4141  2.7883
  930SOL     OW 2788   2.058   1.949   1.408  0.3713  0.2880  0.0596
  930SOL    HW1 2789   2.153   1.935   1.373 -1.5709 -0.8840  1.3032
  930SOL    HW2 2790   2.043   1.927   1.507 -2.3256  1.9820  1.0998
  931SOL     OW 2791   1.525   1.510   0.769  0.3092 -0.2365  0.1724
  931SOL    HW1 2792   1.555   1.579   0.837 -0.3937  1.0102  1.1007
  931SOL    HW2 2793   1.516   1.540   0.673  1.3617 -1.3581 -0.7436
  932SOL     OW 2794   2.799   1.196   1.111  0.3681 -0.0224 -0.1900
  932SOL    HW1 2795   2.737   1.116   1.127 -0.2393  1.1249 -1.2744
  932SOL    HW2 2796   2.748   1.280   1.089  3.6992 -2.8769 -0.4011
  933SOL     OW 2797   2.452   1.632   1.480  0.4364 -0.3197  0.4514
  933SOL    HW1 2798   2.391   1.615   1.562 -1.9870 -1.7350  2.5561
  933SOL    HW2 2799   2.531   1.694   1.501  0.2361  2.2870 -1.4721
  934SOL     OW 2800   1.546   2.895   1.282 -0.6117  0.7068  0.2213
  934SOL    HW1 2801   1.544   2.999   1.288  2.7116  3.9913  3.0796
  934SOL    HW2 2802   1.637   2.858   1.247  0.9219  1.3324  0.7624
  935SOL     OW 2803   0.511   1.578   0.819  0.2988 -0.1228 -0.0629
  935SOL    HW1 2804   0.549   1.613   0.911  1.8314  2.2291  1.5871
  935SOL    HW2 2805   0.545   1.629   0.739  0.7853 -0.4110 -0.2902
  936SOL     OW 2806   2.929   1.274   0.525  0.1907  0.4472 -0.3112
  936SOL    HW1 2807   2.840   1.308   0.481 -1.2935 -0.1159 -2.9932
  936SOL    HW2 2808   2.926   1.282   0.627 -2.3428  1.8354  0.7383
  937SOL     OW 2809   1.746   2.764   0.870  0.6523 -0.1054 -0.1875
  937SOL    HW1 2810   1.689   2.681   0.888 -0.6359  0.1508  0.7831
  937SOL    HW2 2811   1.825   2.738   0.808  0.6178 -0.3453 -0.3028
  938SOL     OW 2812   2.518   2.384   0.991 -0.3158 -0.4882  0.8584
  938SOL    HW1 2813   2.487   2.480   0.990 -4.1470 -1.1426  0.0919
  938SOL    HW2 2814   2.442   2.321   1.020  0.1189  0.7894  0.0374
  939SOL     OW 2815   0.379   2.169   3.068  0.0023  0.6915 -0.1829
  939SOL    HW1 2816   0.468   2.129   0.024  1.6667  0.1387  2.2017
  939SOL    HW2 2817   0.383   2.153   2.965  0.7696  1.7956 -3.2171
  940SOL     OW 2818   2.993   3.049   0.070  0.1124  0.4131 -0.4086
  940SOL    HW1 2819   2.977   0.051   0.122 -0.2313 -1.5037  1.7106
  940SOL    HW2 2820   3.054   3.060   3.076  3.3480  0.3608 -1.8070
  941SOL     OW 2821   1.097   0.099   2.920  0.0681 -0.4983 -0.2011
  941SOL    HW1 2822   1.039   0.019   2.936 -0.4583 -2.7105 -0.5445
  941SOL    HW2 2823   1.149   0.093   2.833 -1.1204 -0.8691  1.1456
  942SOL     OW 2824   1.154   1.672   1.691 -0.6842 -0.4168 -0.0898
  942SOL    HW1 2825   1.220   1.623   1.626 -1.4711 -1.9938  0.2106
  942SOL    HW2 2826   1.105   1.603   1.751 -0.2851 -0.5420 -2.4649
  943SOL     OW 2827   2.050   1.261   1.511 -0.2529  0.4316  0.1152
  943SOL    HW1 2828   1.981   1.257   1.433 -0.8758  0.5461 -1.5784
  943SOL    HW2 2829   2.013   1.218   1.595  3.0703  2.0026 -0.3118
  944SOL     OW 2830   1.922   0.695   1.724 -0.2737  0.0327 -0.5032
  944SOL    HW1 2831   1.849   0.652   1.674 -1.2093 -0.7669 -0.9198
  944SOL    HW2 2832   2.009   0.669   1.676  0.3529  0.3802 -0.5540
  945SOL     OW 2833   0.112   0.069   1.039 -0.4107  0.7143 -0.1645
  945SOL    HW1 2834   0.064   3.065   1.050  0.4468  0.0712  0.0049
  945SOL    HW2 2835   0.041   0.137   1.003  0.1017  0.5734  1.6430
  946SOL     OW 2836   0.620   0.718   1.285  0.7733 -0.2737 -0.1079
  946SOL    HW1 2837   0.575   0.627   1.299  2.3470  1.1265  0.2558
  946SOL    HW2 2838   0.606   0.745   1.185 -1.2226  0.2491 -1.1880
  947SOL     OW 2839   0.485   2.767   0.601 -0.0973 -0.1391 -0.1241
  947SOL    HW1 2840   0.440   2.836   0.539 -0.6497 -0.3047 -0.0212
  947SOL    HW2 2841   0.441   2.761   0.696 -0.2912 -0.7072 -0.5013
  948SOL     OW 2842   2.762   1.313   2.049 -0.3943  0.2199  0.4175
  948SOL    HW1 2843   2.661   1.287   2.048 -0.3133  2.2929  2.4780
  948SOL    HW2 2844   2.797   1.296   1.950  2.7211 -0.8674 -3.1062
  949SOL     OW 2845   0.470   1.081   2.247 -0.5240  0.3704  0.4160
  949SOL    HW1 2846   0.395   1.154   2.247  0.1990  1.3765  1.6959
  949SOL    HW2 2847   0.431   0.992   2.275  0.7862  1.9128 -0.0659
  950SOL     OW 2848   1.000   0.510   0.774  0.4455  0.1716  0.2828
  950SOL    HW1 2849   1.000   0.528   0.873  2.4074  2.9692 -1.3920
  950SOL    HW2 2850   1.057   0.579   0.722  0.5858  0.2233 -1.7827
  951SOL     OW 2851   1.047   2.150   2.019  0.5153  0.4290 -0.1436
  951SOL    HW1 2852   1.013   2.074   1.956 -1.3054  0.2192  0.3050
  951SOL    HW2 2853   0.983   2.228   2.014 -0.8526 -2.9889  1.9526
  952SOL     OW 2854   0.553   1.834   2.981 -0.8305 -0.1556 -0.2528
  952SOL    HW1 2855   0.572   1.929   3.009 -2.0055 -1.2956 -1.2311
  952SOL    HW2 2856   0.466   1.803   3.028 -2.8821 -0.0929  2.2860
  953SOL     OW 2857   1.948   2.996   2.407 -0.1913  0.0769 -0.1713
  953SOL    HW1 2858   2.048   3.013   2.403  3.3798  1.6864  4.0781
  953SOL    HW2 2859   1.893   3.051   2.342 -3.6772 -3.2072 -1.0724
  954SOL     OW 2860   1.466   1.248   0.827 -0.2356 -0.7084  0.1799
  954SOL    HW1 2861   1.473   1.184   0.746  2.2853 -1.7019  0.2853
  954SOL    HW2 2862   1.484   1.343   0.798  2.1651  1.5284  0.5133
  955SOL     OW 2863   0.435   2.082   2.156  0.1539 -0.3408  0.0413
  955SOL    HW1 2864   0.417   1.986   2.140  0.4626  1.9922  0.9674
  955SOL    HW2 2865   0.366   2.134   2.108  1.3050 -1.0656  0.1368
  956SOL     OW 2866   1.717   0.586   1.592 -0.1731  0.3561  0.0164
  956SOL    HW1 2867   1.646   0.640   1.544  3.8831  0.7407 -0.4811
  956SOL    HW2 2868   1.675   0.536   1.671  1.1756  2.4811 -0.6818
  957SOL     OW 2869   2.199   1.942   2.645 -0.8766  0.1380 -0.0664
  957SOL    HW1 2870   2.180   1.983   2.551 -0.7071  1.5892  2.0713
  957SOL    HW2 2871   2.114   1.939   2.706 -1.2713 -0.6287  1.2097
  958SOL     OW 2872   1.087   2.406   0.890 -0.1128 -0.6127 -0.0954
  958SOL    HW1 2873   1.011   2.404   0.824 -2.0077  1.1711 -0.8220
  958SOL    HW2 2874   1.048   2.407   0.987  0.7172 -0.2776 -1.6738
  959SOL     OW 2875   1.745   2.041   2.681  0.0803 -0.3019 -0.1275
  959SOL    HW1 2876   1.654   1.995   2.686  0.8792 -1.7159 -0.7391
  959SOL    HW2 2877   1.792   2.021   2.592  0.4632  1.8650  0.7823
  960SOL     OW 2878   0.114   0.325   3.057  0.7841 -0.6569 -0.0505
  960SOL    HW1 2879   0.134   0.258   2.984  1.8889  2.9277  0.8715
  960SOL    HW2 2880   0.173   0.308   0.052 -1.9985  0.0886  1.2362
  961SOL     OW 2881   0.944   1.062   2.248 -0.2099 -0.5375 -0.3446
  961SOL    HW1 2882   0.935   1.091   2.343 -1.7164 -0.2374 -0.7561
  961SOL    HW2 2883   0.884   0.985   2.231 -0.1096 -0.3346  0.0951
  962SOL     OW 2884   1.041   1.318   0.090 -0.1460  0.0940  0.0304
  962SOL    HW1 2885   1.137   1.307   0.128  0.8970 -0.2638  0.3234
  962SOL    HW2 2886   0.978   1.334   0.168 -0.3605 -3.4784  1.0372
  963SOL     OW 2887   2.279   1.678   2.760 -0.5197  0.3386  0.2039
  963SOL    HW1 2888   2.240   1.768   2.733  0.4431  0.0472 -0.0143
  963SOL    HW2 2889   2.367   1.669   2.708  0.6183 -1.1738 -1.5945
  964SOL     OW 2890   1.541   2.599   0.935 -0.4404 -0.2469  0.1933
  964SOL    HW1 2891   1.468   2.571   0.871  1.7272 -2.9070 -0.8691
  964SOL    HW2 2892   1.494   2.632   1.019  1.3246 -1.6354  0.0958
  965SOL     OW 2893   0.896   2.009   1.073 -0.3616  0.3338 -0.2241
  965SOL    HW1 2894   0.880   1.975   1.167 -1.6260  1.0713  0.6051
  965SOL    HW2 2895   0.991   2.000   1.040 -2.8476  1.8179  1.8719
  966SOL     OW 2896   0.084   1.632   0.010  0.1280 -0.3469  0.1627
  966SOL    HW1 2897   0.107   1.537   3.058 -0.4073 -0.8785 -3.1121
  966SOL    HW2 2898   0.004   1.626   0.074  0.1519 -1.3841  1.3918
  967SOL     OW 2899   1.464   3.053   1.853 -0.1891  0.5697  0.1270
  967SOL    HW1 2900   1.475   2.951   1.878  0.3213 -3.0275  4.1041
  967SOL    HW2 2901   1.518   3.067   1.766  1.6944 -0.6791  3.2086
  968SOL     OW 2902   1.809   0.650   0.809  0.2408  0.1732 -0.4186
  968SOL    HW1 2903   1.845   0.621   0.901 -1.9465  1.3125  0.4497
  968SOL    HW2 2904   1.748   0.729   0.824 -1.2357 -1.1272  0.3097
  969SOL     OW 2905   3.029   1.526   1.874  0.1260 -0.4496  0.1962
  969SOL    HW1 2906   0.028   1.548   1.826 -1.7991 -1.0669  0.0373
  969SOL    HW2 2907   2.967   1.453   1.830  1.7295 -1.2713  1.0428
  970SOL     OW 2908   2.559   1.400   1.073  0.2953 -0.5351  0.5646
  970SOL    HW1 2909   2.460   1.379   1.085  0.6457 -0.7423  0.6954
  970SOL    HW2 2910   2.584   1.467   0.997  0.5556  1.8088 -1.9290
  971SOL     OW 2911   0.676   0.177   1.355 -0.2163  0.2033 -0.5805
  971SOL    HW1 2912   0.760   0.205   1.407  1.5514  1.6478  0.7447
  971SOL    HW2 2913   0.588   0.186   1.402  2.8533 -1.8032 -2.2937
  972SOL     OW 2914   0.857   0.439   2.594  0.6577  0.4644  0.5054
  972SOL    HW1 2915   0.829   0.350   2.634 -1.6679  0.0916 -0.3940
  972SOL    HW2 2916   0.932   0.482   2.643 -0.8231  1.0330  1.3774
  973SOL     OW 2917   0.262   1.349   1.184  0.6701 -0.0897 -0.3369
  973SOL    HW1 2918   0.221   1.292   1.253  1.7182  1.5579 -0.7331
  973SOL    HW2 2919   0.364   1.341   1.187 -2.1763 -0.7203 -0.5532
  974SOL     OW 2920   2.080   1.124   1.876  0.4884 -0.2316  0.1040
  974SOL    HW1 2921   2.002   1.098   1.811 -2.1227  1.6758 -0.0458
  974SOL    HW2 2922   2.145   1.044   1.873 -2.1113  0.5910 -0.0537
  975SOL     OW 2923   2.539   0.261   0.417 -0.3849 -0.1332  0.2189
  975SOL    HW1 2924   2.541   0.219   0.322  0.4594  0.3669  2.5509
  975SOL    HW2 2925   2.628   0.249   0.471  0.3711  2.5927  0.5228
  976SOL     OW 2926   2.858   1.315   1.792  1.0340  0.2160 -0.0645
  976SOL    HW1 2927   2.813   1.372   1.720 -2.2042  1.9035  0.9792
  976SOL    HW2 2928   2.945   1.276   1.761 -2.3015  1.4915  1.4565
  977SOL     OW 2929   0.676   2.769   0.019  0.0142  0.1831 -0.7556
  977SOL    HW1 2930   0.591   2.825   3.084 -1.2072 -0.8538 -0.7453
  977SOL    HW2 2931   0.751   2.826   0.058  1.1554  2.1624  0.2612
  978SOL     OW 2932   0.483   1.622   0.359  0.5479 -0.2873 -0.5711
  978SOL    HW1 2933   0.432   1.592   0.279  0.6022  3.7505  2.6181
  978SOL    HW2 2934   0.571   1.666   0.330  0.2808  0.6419  0.1075
  979SOL     OW 2935   1.481   1.695   1.361 -0.0115 -0.3824 -0.4394
  979SOL    HW1 2936   1.566   1.727   1.407 -0.7022 -1.4991 -2.0308
  979SOL    HW2 2937   1.425   1.630   1.416  0.4551 -0.9027  1.2724
  980SOL     OW 2938   0.447   1.433   1.997 -0.4946 -0.2928  0.5818
  980SOL    HW1 2939   0.540   1.475   1.980  1.2263  4.1616  2.1561
  980SOL    HW2 2940   0.378   1.454   1.924 -0.9959 -1.3851 -1.9059
  981SOL     OW 2941   2.978   1.557   0.195  0.7114  0.0818  0.0292
  981SOL    HW1 2942   2.878   1.564   0.211 -0.5725  2.3442  1.0274
  981SOL    HW2 2943   3.030   1.511   0.274  1.2945  3.0619 -0.9823
  982SOL     OW 2944   2.535   2.510   2.769  0.2335  1.0092 -0.6488
  982SOL    HW1 2945   2.507   2.532   2.675  0.7232  1.1926  0.0513
  982SOL    HW2 2946   2.525   2.602   2.815 -0.1366 -0.7851  1.4099
  983SOL     OW 2947   1.457   0.403   1.530  0.0701 -0.0234 -0.2896
  983SOL    HW1 2948   1.523   0.351   1.467  0.6805  0.0338 -2.8447
  983SOL    HW2 2949   1.508   0.413   1.612  0.3024  1.7035 -0.0701
  984SOL     OW 2950   1.047   0.079   2.430  0.8746 -0.2651  0.0856
  984SOL    HW1 2951   1.111   0.010   2.392  1.5077  1.6705  2.5126
  984SOL    HW2 2952   1.092   0.135   2.506 -1.0553  0.3983  0.5289
  985SOL     OW 2953   1.858   2.138   1.690 -0.3540  0.1356  0.2269
  985SOL    HW1 2954   1.837   2.047   1.655  0.2290  0.4463  1.4225
  985SOL    HW2 2955   1.958   2.160   1.681 -3.1445 -2.3299  2.4567
  986SOL     OW 2956   2.217   3.051   2.415 -0.1883  0.0464  0.3895
  986SOL    HW1 2957   2.276   3.022   2.336  0.9095  0.1608 -0.8269
  986SOL    HW2 2958   2.236   0.067   2.431  0.7356 -0.0795 -1.3222
  987SOL     OW 2959   2.596   0.381   2.160 -0.0773  0.0180  0.1602
  987SOL    HW1 2960   2.641   0.302   2.207  0.9653 -0.1859  1.0513
  987SOL    HW2 2961   2.617   0.455   2.220  0.8483 -4.2851 -0.1952
  988SOL     OW 2962   2.617   0.490   2.646  0.6238  0.0153 -0.2287
  988SOL    HW1 2963   2.534   0.484   2.703  2.4503 -0.0897  1.9872
  988SOL    HW2 2964   2.601   0.536   2.555 -0.0902 -0.5306  1.0464
  989SOL     OW 2965   2.193   2.302   2.363  0.2213  0.1415 -0.1511
  989SOL    HW1 2966   2.280   2.340   2.330  0.3271 -0.0504  1.9713
  989SOL    HW2 2967   2.144   2.373   2.418  0.6249  1.4538 -2.0881
  990SOL     OW 2968   0.334   1.135   2.900 -0.3130 -0.3255  0.2591
  990SOL    HW1 2969   0.336   1.200   2.974 -0.6537 -2.4340 -3.5704
  990SOL    HW2 2970   0.415   1.155   2.844 -0.4992 -0.0407  2.4024
  991SOL     OW 2971   0.683   1.224   2.545 -0.4819 -0.7244  0.1767
  991SOL    HW1 2972   0.781   1.192   2.557 -0.3323  2.3214 -1.0922
  991SOL    HW2 2973   0.677   1.262   2.449 -0.9314 -0.4328 -2.5740
  992SOL     OW 2974   2.835   2.218   2.031  0.1728 -0.3531 -0.3195
  992SOL    HW1 2975   2.854   2.310   1.990 -0.7211  4.7260  0.4887
  992SOL    HW2 2976   2.861   2.150   1.958 -1.0204  2.2913  1.7355
  993SOL     OW 2977   0.712   0.160   0.964 -0.2539 -0.2458  0.4296
  993SOL    HW1 2978   0.787   0.148   1.031  0.6900 -1.5637  2.5550
  993SOL    HW2 2979   0.699   0.069   0.921  0.9104 -0.7784  0.9194
  994SOL     OW 2980   0.417   1.869   1.344  0.3949  0.2013 -0.7925
  994SOL    HW1 2981   0.426   1.778   1.298  0.7399  2.0503 -2.0935
  994SOL    HW2 2982   0.349   1.924   1.290 -1.8824  0.2002 -0.5262
  995SOL     OW 2983   2.177   1.661   2.417  0.3111 -0.3038 -0.1987
  995SOL    HW1 2984   2.202   1.690   2.513  0.6031 -0.9712  2.6191
  995SOL    HW2 2985   2.169   1.738   2.349  2.3186  0.7645 -2.7998
  996SOL     OW 2986   1.964   1.356   2.593 -0.1478  0.2129  0.3823
  996SOL    HW1 2987   1.994   1.428   2.660  0.2118  0.5313  1.4859
  996SOL    HW2 2988   1.888   1.304   2.636  0.1713  1.7983  0.9424
  997SOL     OW 2989   1.528   1.084   2.051 -0.1687  0.6172 -0.2049
  997SOL    HW1 2990   1.559   1.054   1.962 -0.3152  0.2298  2.1532
  997SOL    HW2 2991   1.581   1.170   2.075 -1.7420  1.7833  0.1136
  998SOL     OW 2992   2.425   2.099   0.861  0.3060  0.4460 -1.1080
  998SOL    HW1 2993   2.417   2.183   0.802  0.0299  0.1457 -0.8337
  998SOL    HW2 2994   2.512   2.095   0.911 -3.0601  2.6593 -1.5020
  999SOL     OW 2995   2.309   2.365   0.342 -0.4349  0.0812  0.0458
  999SOL    HW1 2996   2.264   2.280   0.373  0.9437  2.5584 -0.7152
  999SOL    HW2 2997   2.257   2.412   0.265 -0.5597 -1.1018  1.9476
 1000SOL     OW 2998   0.914   2.899   2.491 -0.3670  0.1649 -0.6146
 1000SOL    HW1 2999   0.982   2.972   2.493 -0.3932  0.7301 -0.9141
 1000SOL    HW2 3000   0.928   2.837   2.572 -2.7844  0.2377  0.5629
   3.08520   3.08520   3.08520
