1000 SPC/Fw water molecules t= 104.00000 step= 104000
 3000
    1SOL     OW    1   1.969   2.391   0.778 -0.0916 -0.5470 -0.3751
    1SOL    HW1    2   1.867   2.399   0.787 -0.6363  0.5148 -2.6833
    1SOL    HW2    3   2.015   2.456   0.845 -0.4570  1.2541  1.4238
    2SOL     OW    4   1.184   1.219   2.282 -0.3826 -0.5033  0.1778
    2SOL    HW1    5   1.089   1.229   2.319  1.1826  0.4831  0.6752
    2SOL    HW2    6   1.189   1.233   2.181 -0.9329  0.0831 -0.4254
    3SOL     OW    7   1.596   2.345   2.420  0.4768 -0.1023  0.0122
    3SOL    HW1    8   1.639   2.348   2.330  0.3850  0.7360 -0.5907
    3SOL    HW2    9   1.493   2.340   2.414  0.8769 -0.5405 -1.9674
    4SOL     OW   10   1.265   2.108   2.165 -0.0295 -0.3206 -0.0751
    4SOL    HW1   11   1.364   2.111   2.178 -1.4709  1.4717  1.2565
    4SOL    HW2   12   1.230   2.203   2.152  0.4569  0.2476 -0.0807
    5SOL     OW   13   0.520   0.823   1.580  0.5518  0.1027 -0.2476
    5SOL    HW1   14   0.612   0.840   1.611 -1.4105  2.6500 -1.9001
    5SOL    HW2   15   0.486   0.730   1.607 -1.9110 -3.4563 -2.4630
    6SOL     OW   16   2.175   0.701   2.837 -0.1485  0.3194 -0.5791
    6SOL    HW1   17   2.113   0.767   2.787  0.2169  2.0066 -2.7119
    6SOL    HW2   18   2.153   0.605   2.813  1.3309  0.2356 -0.0975
    7SOL     OW   19   0.653   0.266   1.546 -0.1890 -0.3334  0.1373
    7SOL    HW1   20   0.723   0.229   1.606 -2.1197 -0.7755 -2.2265
    7SOL    HW2   21   0.662   0.366   1.536 -2.7003 -0.8625  1.9057
    8SOL     OW   22   1.736   0.073   1.824 -0.2288  0.4547 -0.1048
    8SOL    HW1   23   1.735   0.158   1.767 -1.3936  3.8114 -1.6004
    8SOL    HW2   24   1.663   0.013   1.792  0.8689  2.7490  0.5202
    9SOL     OW   25   0.217   0.511   0.473 -0.2846 -0.2141  0.5170
    9SOL    HW1   26   0.198   0.420   0.517 -0.5121 -0.9187 -0.5068
    9SOL    HW2   27   0.271   0.568   0.539  0.9172 -0.5636 -0.7828
   10SOL     OW   28   0.752   2.429   2.477  0.1050 -0.3269  0.0770
   10SOL    HW1   29   0.768   2.376   2.559 -2.0338  0.0254 -2.0855
   10SOL    HW2   30   0.659   2.473   2.473  0.2938  1.5275 -3.1337
   11SOL     OW   31   0.838   1.629   0.027  0.3794 -0.8558  0.1239
   11SOL    HW1   32   0.896   1.557   3.079 -1.4654  0.4587 -2.1781
   11SOL    HW2   33   0.802   1.606   0.120 -1.8381  2.2922 -0.2540
   12SOL     OW   34   0.172   2.898   1.432  0.0224 -0.0316 -0.1418
   12SOL    HW1   35   0.089   2.941   1.476 -0.0117  0.7744  1.7460
   12SOL    HW2   36   0.162   2.888   1.331  2.5539 -0.8562  1.5563
   13SOL     OW   37   0.797   2.910   0.351 -0.0294 -0.0775 -0.2166
   13SOL    HW1   38   0.868   2.842   0.367  2.2290  0.2260  0.7902
   13SOL    HW2   39   0.847   2.992   0.333 -5.0774 -0.6454  2.4006
   14SOL     OW   40   1.761   1.806   0.780 -0.1843 -0.2198 -0.2426
   14SOL    HW1   41   1.751   1.905   0.760 -2.2274 -0.0289  2.1253
   14SOL    HW2   42   1.838   1.759   0.726 -1.1390  2.4007  1.1555
   15SOL     OW   43   2.934   1.584   2.481 -0.4564 -0.1724  0.0083
   15SOL    HW1   44   2.967   1.501   2.531 -0.5977 -0.5351  1.7700
   15SOL    HW2   45   2.997   1.664   2.503  0.2874  0.5294  1.2039
   16SOL     OW   46   1.376   0.195   2.715 -0.3857 -0.4922  0.1284
   16SOL    HW1   47   1.392   0.273   2.648 -1.2896  1.4683 -0.0632
   16SOL    HW2   48   1.320   0.118   2.685  0.5635  3.2956 -0.1615
   17SOL     OW   49   0.537   2.402   2.206  0.4048 -0.2343  0.1479
   17SOL    HW1   50   0.596   2.322   2.172  0.7362 -3.5653 -1.5027
   17SOL    HW2   51   0.466   2.375   2.277 -1.7194 -0.0225  1.0860
   18SOL     OW   52   1.389   1.257   0.508  0.1977  0.7900  0.5760
   18SOL    HW1   53   1.487   1.283   0.503 -0.4506  1.9243 -0.5197
   18SOL    HW2   54   1.369   1.186   0.581  0.2215  0.1843 -0.6749
   19SOL     OW   55   2.489   1.628   2.440  0.0284 -0.1564  0.2955
   19SOL    HW1   56   2.399   1.659   2.474 -2.3132  0.5256 -0.5161
   19SOL    HW2   57   2.563   1.665   2.501  0.3769 -0.1560  1.7276
   20SOL     OW   58   2.514   2.161   2.345  0.2350 -0.0663  0.2994
   20SOL    HW1   59   2.489   2.202   2.253 -0.8668  1.0261  1.1133
   20SOL    HW2   60   2.507   2.231   2.418 -0.1668 -1.7243  1.4752
   21SOL     OW   61   1.035   2.245   0.237 -0.3071 -0.2213  0.2221
   21SOL    HW1   62   1.028   2.327   0.173  2.0323  4.1149  0.3886
   21SOL    HW2   63   1.067   2.163   0.190  1.3388  1.1575  1.2179
   22SOL     OW   64   2.207   2.268   1.438 -0.5148 -0.5843 -0.3171
   22SOL    HW1   65   2.226   2.328   1.353 -0.9937 -0.6217 -1.3358
   22SOL    HW2   66   2.172   2.322   1.518 -1.2695  0.2970 -1.4529
   23SOL     OW   67   0.294   1.018   1.628  0.4707 -0.4453 -0.1492
   23SOL    HW1   68   0.324   1.117   1.649 -0.5190  2.5846  0.3418
   23SOL    HW2   69   0.373   0.968   1.585  2.7751 -0.6682 -1.1770
   24SOL     OW   70   2.223   1.849   1.975 -0.0896  0.0095 -0.1344
   24SOL    HW1   71   2.164   1.772   1.995 -0.1374 -0.2665 -1.0414
   24SOL    HW2   72   2.323   1.832   1.981  0.3449  1.6640 -0.1897
   25SOL     OW   73   1.875   0.483   2.479  0.0158  0.1946 -0.0461
   25SOL    HW1   74   1.858   0.452   2.379 -3.0974 -2.2261 -3.3422
   25SOL    HW2   75   1.789   0.466   2.532 -3.6280 -2.0720 -0.6423
   26SOL     OW   76   1.331   0.162   0.637  0.2912 -0.1092  0.4782
   26SOL    HW1   77   1.324   0.069   0.603 -0.0139  3.6172  0.4597
   26SOL    HW2   78   1.425   0.196   0.624 -0.0090 -1.4917 -0.0865
   27SOL     OW   79   0.990   1.729   0.287  0.7523  0.5277  0.1551
   27SOL    HW1   80   1.017   1.778   0.371 -0.8427 -0.2609 -0.6929
   27SOL    HW2   81   0.920   1.651   0.308 -3.6962 -2.8756  0.3625
   28SOL     OW   82   2.524   1.703   1.207  0.4322 -0.5186  0.1764
   28SOL    HW1   83   2.499   1.683   1.306  1.3606 -0.0038  2.0558
   28SOL    HW2   84   2.462   1.779   1.171 -2.6793  0.4972 -1.6046
   29SOL     OW   85   2.174   2.725   1.695  0.3100 -0.5135  0.0360
   29SOL    HW1   86   2.172   2.785   1.781  0.4719  0.1617  2.2410
   29SOL    HW2   87   2.251   2.762   1.634  0.8189 -1.2590  0.3495
   30SOL     OW   88   0.844   2.954   1.309  0.2957 -0.5186 -0.3152
   30SOL    HW1   89   0.921   2.951   1.239  0.5126  1.4285 -0.7559
   30SOL    HW2   90   0.859   3.028   1.374 -0.3960  0.8850  1.4929
   31SOL     OW   91   2.915   2.251   1.888 -0.0374  0.0669  0.0432
   31SOL    HW1   92   3.003   2.307   1.890  0.1731  2.1271 -0.3507
   31SOL    HW2   93   2.855   2.278   1.967  2.0460  0.5543 -1.0037
   32SOL     OW   94   1.618   1.250   1.919 -0.7528  0.1908 -0.2251
   32SOL    HW1   95   1.586   1.310   1.843 -0.9334  1.3869  2.3272
   32SOL    HW2   96   1.588   1.152   1.916  3.7192  0.5727 -0.1364
   33SOL     OW   97   0.229   0.056   2.759  0.0528 -0.1111 -0.5677
   33SOL    HW1   98   0.311   0.010   2.715 -0.3773 -0.2117 -0.6163
   33SOL    HW2   99   0.181   3.086   2.833  0.1986 -0.2262  3.1176
   34SOL     OW  100   2.142   0.115   1.109 -0.2197 -0.1815  0.2914
   34SOL    HW1  101   2.234   0.158   1.110  0.0645  0.9705 -0.3342
   34SOL    HW2  102   2.144   0.021   1.145 -0.7002  1.7679 -0.4889
   35SOL     OW  103   2.245   0.130   1.427 -0.3776 -0.5181 -0.5080
   35SOL    HW1  104   2.246   0.035   1.461  1.8077  0.3433 -2.3976
   35SOL    HW2  105   2.152   0.168   1.450  0.0204 -2.2592  0.9512
   36SOL     OW  106   2.473   2.866   2.584  0.3050 -0.2947  0.0483
   36SOL    HW1  107   2.399   2.800   2.609  0.4280  2.9396  3.0695
   36SOL    HW2  108   2.557   2.815   2.605  0.3445 -1.6695  1.8984
   37SOL     OW  109   1.072   2.737   0.078  0.5159  0.3254  0.5571
   37SOL    HW1  110   1.104   2.829   0.048  0.9262 -1.0021  2.7052
   37SOL    HW2  111   1.132   2.698   0.146 -0.8370 -0.8997 -0.5445
   38SOL     OW  112   2.737   1.064   2.853 -0.0187 -0.4223 -0.8197
   38SOL    HW1  113   2.828   1.037   2.881 -0.9678 -1.0989  0.0221
   38SOL    HW2  114   2.666   1.035   2.916  0.5011  0.5190 -0.9956
   39SOL     OW  115   2.261   2.130   1.994 -0.4111 -0.0615 -0.1168
   39SOL    HW1  116   2.245   2.032   2.018  1.4665  0.5795 -0.1818
   39SOL    HW2  117   2.171   2.181   2.001  0.3166  1.0463  0.9151
   40SOL     OW  118   0.803   0.236   2.833 -0.0544 -0.2024  0.2483
   40SOL    HW1  119   0.776   0.153   2.885 -1.8000 -0.1570  0.3979
   40SOL    HW2  120   0.904   0.242   2.815 -1.5741  0.7858 -0.1024
   41SOL     OW  121   1.544   1.121   1.453 -0.3085  0.1752 -0.1879
   41SOL    HW1  122   1.622   1.132   1.517  0.9611 -1.8713  0.2281
   41SOL    HW2  123   1.454   1.144   1.498  0.3559  1.0507  1.0729
   42SOL     OW  124   0.147   0.233   1.999 -0.2805  0.0990 -0.1515
   42SOL    HW1  125   0.217   0.234   1.924  0.8583  1.1274 -0.7486
   42SOL    HW2  126   0.090   0.317   1.997 -0.6260 -3.8651  0.2668
   43SOL     OW  127   1.733   1.363   2.168  0.5069  0.2449  0.1993
   43SOL    HW1  128   1.689   1.360   2.260 -3.2617  0.0537  0.6985
   43SOL    HW2  129   1.667   1.333   2.100  2.7725  1.5786  0.7070
   44SOL     OW  130   0.110   3.004   2.981  0.3949  0.2935 -0.3712
   44SOL    HW1  131   0.114   3.082   3.043  0.0117 -2.3341 -1.7381
   44SOL    HW2  132   0.091   2.922   3.035  0.9332  0.6896  1.2230
   45SOL     OW  133   0.650   1.999   1.128 -0.3526 -0.0335  0.4886
   45SOL    HW1  134   0.678   2.092   1.155 -0.9457 -0.7671  1.9906
   45SOL    HW2  135   0.582   1.964   1.197  0.8919 -1.1119  0.5126
   46SOL     OW  136   2.515   2.631   1.760 -0.1903  0.0225 -0.3462
   46SOL    HW1  137   2.581   2.708   1.763  0.9273 -0.9963  0.7006
   46SOL    HW2  138   2.559   2.540   1.733  3.0485  0.1621 -2.5318
   47SOL     OW  139   0.972   1.705   1.311 -0.3337  0.3161 -0.0249
   47SOL    HW1  140   0.969   1.806   1.314 -0.6533  0.9366 -1.2135
   47SOL    HW2  141   0.889   1.664   1.350 -0.2893 -0.3286  0.0248
   48SOL     OW  142   0.054   2.679   0.320 -0.1868 -0.2779  0.2077
   48SOL    HW1  143   3.081   2.597   0.316 -2.2092 -2.5691  1.2945
   48SOL    HW2  144   0.002   2.757   0.355 -0.6172 -0.7923 -1.0509
   49SOL     OW  145   3.018   1.516   2.003 -0.0883  0.2307 -0.3863
   49SOL    HW1  146   2.969   1.542   2.091 -0.4642  2.4567  2.2743
   49SOL    HW2  147   2.952   1.487   1.936  0.0201  3.1903  1.7784
   50SOL     OW  148   2.184   0.878   0.704  0.8117  0.1658  0.0896
   50SOL    HW1  149   2.192   0.808   0.630  0.2246 -1.6357 -0.9738
   50SOL    HW2  150   2.092   0.879   0.741 -1.2123 -2.3186 -0.1182
   51SOL     OW  151   1.190   0.920   0.966 -0.3993  0.2566  0.3834
   51SOL    HW1  152   1.247   0.906   1.054  3.8810 -0.7732 -0.7860
   51SOL    HW2  153   1.104   0.981   0.974  1.1817  0.9761 -1.9819
   52SOL     OW  154   1.531   1.391   0.263  0.1751  0.6367  0.3767
   52SOL    HW1  155   1.600   1.379   0.340  0.6298 -0.2251 -0.7472
   52SOL    HW2  156   1.437   1.372   0.296  0.5612  1.3449  0.0804
   53SOL     OW  157   1.107   2.425   2.556 -0.0893 -0.4368 -0.0505
   53SOL    HW1  158   1.039   2.370   2.605  0.5025  2.7230  1.5533
   53SOL    HW2  159   1.179   2.465   2.620  2.2007 -1.1296 -0.0816
   54SOL     OW  160   1.654   0.614   1.635 -0.0553 -0.2890  0.0026
   54SOL    HW1  161   1.739   0.569   1.615 -3.0613 -1.3741  0.2742
   54SOL    HW2  162   1.577   0.567   1.586 -1.1504  0.8636  2.4352
   55SOL     OW  163   2.600   2.688   0.352 -0.1487 -0.3365 -0.5819
   55SOL    HW1  164   2.572   2.589   0.373  1.0219 -3.3971 -0.4360
   55SOL    HW2  165   2.574   2.752   0.426  1.5318 -0.1050 -0.7869
   56SOL     OW  166   0.646   2.683   1.945  0.4038 -0.0626  0.0065
   56SOL    HW1  167   0.569   2.622   1.919  0.6236 -2.5985  1.3323
   56SOL    HW2  168   0.623   2.784   1.940 -2.0397  1.1614 -1.1502
   57SOL     OW  169   1.864   0.771   2.493  0.4276 -0.1679  0.1879
   57SOL    HW1  170   1.886   0.671   2.497  2.6190  0.8875  0.8556
   57SOL    HW2  171   1.764   0.794   2.510 -0.9711  2.3096 -1.3953
   58SOL     OW  172   2.923   1.282   1.593 -0.0780  0.0459  0.3488
   58SOL    HW1  173   3.024   1.308   1.615  2.9012  3.1523 -0.6474
   58SOL    HW2  174   2.877   1.352   1.533  0.5414  2.1759 -1.2171
   59SOL     OW  175   0.617   2.851   2.314  0.6586 -0.1304  0.2049
   59SOL    HW1  176   0.670   2.771   2.286  1.1360  1.7396 -2.0095
   59SOL    HW2  177   0.523   2.825   2.338  0.5191  0.8112  4.5654
   60SOL     OW  178   2.676   1.997   0.683 -0.1847  0.2260  0.0575
   60SOL    HW1  179   2.672   1.985   0.578  3.2900 -0.8661 -1.6274
   60SOL    HW2  180   2.773   2.019   0.708  0.8037  0.6169 -1.5948
   61SOL     OW  181   0.712   2.254   0.411 -0.9132 -0.3261 -0.3777
   61SOL    HW1  182   0.747   2.313   0.335  1.6085  0.3565  1.1200
   61SOL    HW2  183   0.778   2.281   0.490 -0.2273 -0.0006  0.7026
   62SOL     OW  184   2.058   2.555   2.785 -0.3813 -0.0571  0.0777
   62SOL    HW1  185   2.007   2.535   2.697 -1.4322  0.5468 -1.3002
   62SOL    HW2  186   2.058   2.651   2.790 -0.3899 -1.0466 -2.2377
   63SOL     OW  187   1.923   0.433   0.066  0.2444  0.4240 -0.4542
   63SOL    HW1  188   1.912   0.468   3.058 -2.5775  2.8184 -0.9951
   63SOL    HW2  189   1.837   0.388   0.099 -1.1825 -1.2724  0.8699
   64SOL     OW  190   0.670   0.879   2.502  0.1220  0.1351  0.5122
   64SOL    HW1  191   0.764   0.893   2.546 -0.9778  0.6915  0.2674
   64SOL    HW2  192   0.640   0.786   2.517  0.1129  3.9751 -0.2290
   65SOL     OW  193   1.387   3.008   0.521  0.1956 -0.8003  0.4563
   65SOL    HW1  194   1.439   2.930   0.555 -1.2510  1.9920 -1.9902
   65SOL    HW2  195   1.327   2.979   0.446 -1.1616 -2.9388 -0.3059
   66SOL     OW  196   0.334   1.305   1.710  0.0667 -0.7338  0.2304
   66SOL    HW1  197   0.350   1.322   1.813 -0.4621  2.0358  2.5718
   66SOL    HW2  198   0.425   1.301   1.664 -0.0781  1.6780  2.2447
   67SOL     OW  199   2.119   2.893   2.260  0.0324  0.4591  0.1277
   67SOL    HW1  200   2.065   2.825   2.207  0.4262  2.7172  1.0475
   67SOL    HW2  201   2.222   2.885   2.255  0.9441 -1.4691  1.9186
   68SOL     OW  202   0.877   0.741   1.548  0.6077  0.6122 -0.3200
   68SOL    HW1  203   0.970   0.768   1.517  1.5124  0.6997  0.4674
   68SOL    HW2  204   0.821   0.823   1.566  0.2410 -1.0557  0.6619
   69SOL     OW  205   2.160   2.678   0.481  0.3236  0.4216  0.4548
   69SOL    HW1  206   2.082   2.650   0.543 -0.1819 -0.4719 -1.2365
   69SOL    HW2  207   2.132   2.771   0.441 -1.5538  3.8743 -1.4665
   70SOL     OW  208   2.441   0.684   2.686  0.2814  0.2294 -0.2807
   70SOL    HW1  209   2.523   0.725   2.733  1.5368  2.4913  0.7650
   70SOL    HW2  210   2.363   0.653   2.750  0.8723 -0.2251  2.0054
   71SOL     OW  211   2.950   2.003   0.173  0.2176 -0.1624 -0.2793
   71SOL    HW1  212   2.948   1.903   0.172  0.9933 -0.9510  2.9662
   71SOL    HW2  213   2.958   2.045   0.077 -0.5881  0.8613  0.6434
   72SOL     OW  214   3.088   1.750   0.471 -0.1743 -0.2611 -0.1006
   72SOL    HW1  215   3.004   1.738   0.523  4.0801  1.8851 -1.9550
   72SOL    HW2  216   0.075   1.727   0.536 -0.9157  4.7653  1.4630
   73SOL     OW  217   0.742   1.066   0.752  0.3495 -0.0120 -0.5137
   73SOL    HW1  218   0.756   1.138   0.819  1.1360 -1.9480 -0.3478
   73SOL    HW2  219   0.762   0.977   0.795  0.3078  2.8234 -0.6694
   74SOL     OW  220   0.190   2.011   2.022 -0.3296  0.2475  0.0077
   74SOL    HW1  221   0.209   1.918   2.060  0.3673 -0.9488 -2.4132
   74SOL    HW2  222   0.280   2.063   2.024  0.7225 -0.0011  3.2011
   75SOL     OW  223   1.762   1.543   1.273  0.0140  0.0516  0.2231
   75SOL    HW1  224   1.756   1.523   1.174 -2.7048 -1.3344  0.3480
   75SOL    HW2  225   1.715   1.466   1.319  1.9877  1.4146  0.1016
   76SOL     OW  226   1.923   2.089   0.984  0.1961  0.4632 -0.6684
   76SOL    HW1  227   1.930   2.150   1.063 -1.0074 -1.6650 -0.5132
   76SOL    HW2  228   1.967   2.002   1.005  0.2884  1.8817  1.1732
   77SOL     OW  229   2.596   1.608   1.797 -0.4718  0.6446 -0.0280
   77SOL    HW1  230   2.549   1.632   1.879  1.0379 -1.3359 -2.4056
   77SOL    HW2  231   2.639   1.686   1.748  0.7576  0.6471 -0.6816
   78SOL     OW  232   1.258   1.033   0.640  0.1417 -0.3250 -0.5910
   78SOL    HW1  233   1.183   1.025   0.573  0.1249  1.5105 -1.0915
   78SOL    HW2  234   1.283   0.937   0.665 -0.7410  1.5687 -0.6214
   79SOL     OW  235   2.008   1.660   1.564  0.1635  0.7148  0.3258
   79SOL    HW1  236   2.061   1.582   1.529  0.6242  3.4074  2.4976
   79SOL    HW2  237   2.063   1.717   1.621 -1.8920 -0.6748  0.6427
   80SOL     OW  238   1.030   0.499   1.353 -0.2930 -0.1911  0.1428
   80SOL    HW1  239   1.005   0.491   1.450 -1.7596 -0.0083 -0.5699
   80SOL    HW2  240   1.085   0.416   1.328 -3.1442  3.3230 -1.6274
   81SOL     OW  241   0.478   2.333   0.568  0.5136 -0.3430  0.0875
   81SOL    HW1  242   0.477   2.272   0.650  1.9214 -3.1731  3.2175
   81SOL    HW2  243   0.539   2.302   0.498 -1.7664  1.5508  1.1621
   82SOL     OW  244   1.121   0.216   1.671 -0.1212  0.4672  0.4878
   82SOL    HW1  245   1.085   0.169   1.753  1.1089 -3.3435 -2.0306
   82SOL    HW2  246   1.216   0.248   1.681 -1.7834  0.8037  1.2652
   83SOL     OW  247   0.789   1.786   0.689 -0.6337  0.0847  0.1136
   83SOL    HW1  248   0.778   1.857   0.758  0.6729 -0.4295 -1.1334
   83SOL    HW2  249   0.723   1.795   0.613  0.2150 -0.4962 -0.1734
   84SOL     OW  250   2.760   1.307   0.103 -0.4930 -1.0419  0.1546
   84SOL    HW1  251   2.669   1.268   0.085  0.6247 -1.6976  0.4591
   84SOL    HW2  252   2.834   1.247   0.069  1.9897 -1.5051  1.1121
   85SOL     OW  253   0.140   2.565   0.956  0.5517 -0.1520 -0.2055
   85SOL    HW1  254   0.084   2.578   0.866 -4.0228 -3.2239 -2.2340
   85SOL    HW2  255   0.195   2.482   0.948  1.3105  1.8451  0.6529
   86SOL     OW  256   1.958   2.822   1.120  0.2686 -0.1445  0.1125
   86SOL    HW1  257   1.885   2.789   1.183 -2.8244  1.8693 -2.2510
   86SOL    HW2  258   1.980   2.750   1.051  0.9236 -0.9371  0.3969
   87SOL     OW  259   0.153   1.722   0.696  0.3660  0.1602 -0.1107
   87SOL    HW1  260   0.084   1.789   0.739 -1.0470  2.3775  1.1871
   87SOL    HW2  261   0.145   1.628   0.734  0.3552  0.5253  1.4915
   88SOL     OW  262   0.686   0.540   1.481  0.3018  0.0123  0.0875
   88SOL    HW1  263   0.669   0.512   1.384  0.1960  1.4601  2.3981
   88SOL    HW2  264   0.781   0.578   1.488  2.0366 -0.9816 -0.7095
   89SOL     OW  265   0.833   2.650   1.726  0.4836  0.3580 -0.6666
   89SOL    HW1  266   0.816   2.746   1.697  1.5190  1.0694  1.0359
   89SOL    HW2  267   0.755   2.618   1.786 -3.4579 -0.3220  0.0709
   90SOL     OW  268   0.080   1.995   1.123 -0.2149  0.4277  0.1363
   90SOL    HW1  269   0.132   1.942   1.194 -2.1901  0.5859  0.2796
   90SOL    HW2  270   0.027   2.066   1.164 -0.9337  0.0133  1.4133
   91SOL     OW  271   1.101   2.141   1.087  0.3376 -0.3682  0.2490
   91SOL    HW1  272   1.099   2.130   0.986 -2.7663  1.6289  1.2249
   91SOL    HW2  273   1.104   2.238   1.101  1.4529 -3.9661  0.2242
   92SOL     OW  274   2.792   2.833   1.549 -0.3881  0.3164 -0.1526
   92SOL    HW1  275   2.750   2.874   1.464 -0.9149  1.2989 -4.4041
   92SOL    HW2  276   2.870   2.891   1.575  2.2535 -0.5859 -1.8753
   93SOL     OW  277   0.032   1.437   2.913  0.3453 -0.4825  1.0274
   93SOL    HW1  278   0.062   1.350   2.869  1.0638 -2.5657  1.0816
   93SOL    HW2  279   0.032   1.425   3.014 -1.1097  0.8325  1.8506
   94SOL     OW  280   2.827   2.724   2.168 -0.1620 -0.0863 -0.0219
   94SOL    HW1  281   2.866   2.780   2.084  2.5294  0.2041 -3.1487
   94SOL    HW2  282   2.845   2.771   2.258 -0.9948  1.5362  1.3396
   95SOL     OW  283   1.517   0.626   1.900 -0.4727  0.1466  0.5187
   95SOL    HW1  284   1.423   0.632   1.859 -0.1567  2.3855 -0.1722
   95SOL    HW2  285   1.577   0.599   1.822  1.3783 -2.3237  0.8077
   96SOL     OW  286   2.574   0.113   2.048 -0.2954  0.2580  0.3240
   96SOL    HW1  287   2.556   0.188   1.981 -1.2541  0.3450  1.2989
   96SOL    HW2  288   2.582   0.149   2.146  2.1557  1.4805  0.0570
   97SOL     OW  289   2.147   2.969   1.502  0.1756  0.5229 -0.0053
   97SOL    HW1  290   2.063   2.976   1.565 -1.0401  0.1990  0.8890
   97SOL    HW2  291   2.219   2.929   1.562  2.3542 -0.5473 -1.0122
   98SOL     OW  292   2.160   2.964   1.229 -0.1671  0.5163  0.1913
   98SOL    HW1  293   2.150   2.956   1.332 -1.6788  0.5595  2.4439
   98SOL    HW2  294   2.097   2.897   1.188  1.6940 -0.6505  1.0118
   99SOL     OW  295   2.977   0.095   2.179 -0.6039  0.3145  0.2579
   99SOL    HW1  296   3.067   0.047   2.181  1.4973  0.5307 -1.0607
   99SOL    HW2  297   2.949   0.112   2.080  0.5468  3.9034 -1.4428
  100SOL     OW  298   2.256   1.398   1.781 -0.0238 -0.2172  0.1055
  100SOL    HW1  299   2.248   1.483   1.837 -0.9932 -0.3147  0.3069
  100SOL    HW2  300   2.239   1.319   1.847  1.8943  3.3320  0.1251
  101SOL     OW  301   1.577   0.251   0.419  0.1398  0.1200  0.0815
  101SOL    HW1  302   1.662   0.289   0.451  0.8611 -1.7434 -2.2166
  101SOL    HW2  303   1.518   0.317   0.376  0.2099 -2.4533  4.6445
  102SOL     OW  304   0.515   0.819   1.317 -0.1939 -0.8973  0.1923
  102SOL    HW1  305   0.461   0.743   1.280 -0.5275  1.3862  1.1257
  102SOL    HW2  306   0.532   0.807   1.417  1.4851  0.3178 -2.6941
  103SOL     OW  307   2.268   0.261   2.872 -0.0517 -0.3593  0.0459
  103SOL    HW1  308   2.368   0.272   2.857 -2.7159  0.6409 -0.5304
  103SOL    HW2  309   2.242   0.296   2.968  0.7636  3.7815  0.7115
  104SOL     OW  310   2.748   3.037   1.953  0.1795  0.1617 -0.1901
  104SOL    HW1  311   2.813   0.017   1.915  0.0824 -0.9574  2.9338
  104SOL    HW2  312   2.675   0.000   1.999  0.9840  0.8532 -0.9757
  105SOL     OW  313   1.643   0.937   2.181  1.1595  0.5073 -0.7717
  105SOL    HW1  314   1.626   0.836   2.186 -1.1994  0.2396 -0.0288
  105SOL    HW2  315   1.738   0.958   2.215 -1.3674 -0.4863 -0.7457
  106SOL     OW  316   1.715   0.399   0.754 -0.2515  0.0704 -0.1923
  106SOL    HW1  317   1.793   0.342   0.729  0.0352  1.4859 -0.7018
  106SOL    HW2  318   1.642   0.345   0.801  0.9628 -0.3176  0.4957
  107SOL     OW  319   0.774   1.281   0.920 -0.1616  0.1054  0.3516
  107SOL    HW1  320   0.680   1.323   0.929 -1.2132 -0.6789  0.7416
  107SOL    HW2  321   0.836   1.349   0.870 -0.5408 -0.1290  0.7732
  108SOL     OW  322   3.086   0.707   2.405 -0.5568 -0.1952 -0.1956
  108SOL    HW1  323   0.038   0.615   2.404  0.1971  1.4144  1.2895
  108SOL    HW2  324   2.998   0.696   2.355  1.3303  0.2381  0.5409
  109SOL     OW  325   1.771   0.062   0.105  0.4861  0.4253  0.0007
  109SOL    HW1  326   1.777   3.080   0.038 -1.6277  0.3468 -0.5654
  109SOL    HW2  327   1.857   0.071   0.160  0.2943  0.9045 -1.6415
  110SOL     OW  328   2.958   1.909   2.859  0.1819  0.1969  0.2817
  110SOL    HW1  329   2.978   1.986   2.926  0.1875 -1.5574 -1.7879
  110SOL    HW2  330   2.977   1.817   2.900 -0.9648 -0.0468  0.2173
  111SOL     OW  331   2.119   0.148   2.323 -0.3414  0.3835 -0.0514
  111SOL    HW1  332   2.122   0.045   2.296  0.4677 -1.3909 -1.3388
  111SOL    HW2  333   2.192   0.167   2.389 -2.8098  1.6545  0.2612
  112SOL     OW  334   2.438   2.956   1.172  0.6063 -0.4499  0.1433
  112SOL    HW1  335   2.463   2.880   1.115 -0.3348  0.1873 -0.5501
  112SOL    HW2  336   2.340   2.966   1.193  0.3857  0.9008  0.5694
  113SOL     OW  337   2.394   2.551   1.974  0.2507  0.7860  0.4705
  113SOL    HW1  338   2.439   2.569   1.883  0.5930 -2.2421 -1.1869
  113SOL    HW2  339   2.295   2.537   1.962  2.7813 -0.3371  1.2956
  114SOL     OW  340   2.931   0.136   0.752 -0.3433  0.3281  0.2447
  114SOL    HW1  341   2.890   0.161   0.664 -0.1378  0.5647  1.2029
  114SOL    HW2  342   2.935   0.036   0.767  1.3879 -0.8525 -0.6132
  115SOL     OW  343   2.826   1.683   3.076 -0.4924  0.4036 -0.0334
  115SOL    HW1  344   2.908   1.707   0.044  4.3005  1.1015  0.7001
  115SOL    HW2  345   2.755   1.629   0.036 -0.9658  1.1961 -0.6534
  116SOL     OW  346   0.186   1.578   1.912  0.2158  0.4071 -0.1269
  116SOL    HW1  347   0.214   1.639   1.988 -2.0587 -0.9659 -1.1231
  116SOL    HW2  348   0.096   1.535   1.935 -1.5958  0.6889 -0.9446
  117SOL     OW  349   2.577   2.855   0.931  0.2456  0.2665  0.0414
  117SOL    HW1  350   2.668   2.840   0.975 -0.7502 -2.7112  2.8439
  117SOL    HW2  351   2.557   2.775   0.867  2.1204  0.6498 -2.0169
  118SOL     OW  352   0.310   2.353   1.807 -0.9462 -0.3219  0.0107
  118SOL    HW1  353   0.263   2.279   1.764 -1.3503  1.3675  1.4155
  118SOL    HW2  354   0.388   2.392   1.749 -0.6144 -0.3934  0.9192
  119SOL     OW  355   1.395   2.108   1.146 -0.2834  0.3695  0.4153
  119SOL    HW1  356   1.304   2.128   1.107 -3.3526  0.0841 -1.3793
  119SOL    HW2  357   1.405   2.010   1.167  0.0752  0.8551  0.4998
  120SOL     OW  358   0.565   1.938   1.844  0.3008 -0.2522  0.2238
  120SOL    HW1  359   0.570   1.836   1.837  2.1933  1.1160 -1.1412
  120SOL    HW2  360   0.469   1.977   1.862  0.2845 -1.9889  0.0841
  121SOL     OW  361   2.508   1.466   0.915 -0.0379 -0.0058 -0.2099
  121SOL    HW1  362   2.580   1.466   0.987 -1.5461 -0.2852  0.9331
  121SOL    HW2  363   2.512   1.561   0.880 -0.4559 -3.2352 -0.6812
  122SOL     OW  364   2.158   1.872   2.317 -0.5740  0.6782  0.0701
  122SOL    HW1  365   2.148   1.772   2.295 -0.7129 -0.7248 -2.4045
  122SOL    HW2  366   2.069   1.916   2.317  1.3748 -1.0949  1.0796
  123SOL     OW  367   2.904   2.954   0.796  0.0385  0.4103 -0.0244
  123SOL    HW1  368   2.998   2.920   0.773  1.2657 -2.0716  1.0830
  123SOL    HW2  369   2.872   2.925   0.888  0.4711  1.3672  0.9988
  124SOL     OW  370   1.388   1.310   2.878 -0.0846  0.3285 -0.5026
  124SOL    HW1  371   1.409   1.266   2.969  2.0742 -3.6236  0.6498
  124SOL    HW2  372   1.473   1.357   2.848  1.0379 -0.0523 -0.0807
  125SOL     OW  373   0.336   1.521   2.664  0.2525 -0.2962 -0.1031
  125SOL    HW1  374   0.275   1.583   2.618  0.9949 -0.2194  2.0689
  125SOL    HW2  375   0.299   1.425   2.652  0.6486 -0.3354  0.1931
  126SOL     OW  376   2.974   2.065   0.427 -0.0916 -0.6784  0.0016
  126SOL    HW1  377   3.005   2.162   0.418  0.8796 -0.0158  0.4008
  126SOL    HW2  378   2.959   2.028   0.336 -2.4159  1.5072 -1.3132
  127SOL     OW  379   0.329   1.770   0.951 -0.9542 -0.0982  0.0886
  127SOL    HW1  380   0.254   1.704   0.955  1.5406  0.0674 -0.5624
  127SOL    HW2  381   0.300   1.870   0.931 -0.0914  2.6885  1.3151
  128SOL     OW  382   1.590   1.004   0.139  0.1434 -0.4377 -0.3230
  128SOL    HW1  383   1.673   1.018   0.198  1.8139 -0.0791  0.1023
  128SOL    HW2  384   1.532   0.924   0.172 -1.0285 -0.0419  0.4487
  129SOL     OW  385   2.202   1.675   1.240  0.0692  0.1090  0.3388
  129SOL    HW1  386   2.161   1.762   1.250  0.1229 -1.3749 -1.3598
  129SOL    HW2  387   2.262   1.657   1.324  0.5551  0.9971  1.4887
  130SOL     OW  388   2.007   1.358   0.410  0.4247 -0.2955  0.2940
  130SOL    HW1  389   2.082   1.335   0.343  0.4522 -2.0177  1.1853
  130SOL    HW2  390   1.980   1.278   0.465 -0.2471  2.0383 -1.5560
  131SOL     OW  391   2.796   1.273   2.704  0.4846 -0.0099 -0.4248
  131SOL    HW1  392   2.764   1.197   2.765  1.7267  1.0340  1.7090
  131SOL    HW2  393   2.736   1.353   2.712  0.4054  1.4164 -0.8698
  132SOL     OW  394   1.773   1.625   1.734  0.8454 -0.0041  0.8941
  132SOL    HW1  395   1.752   1.720   1.773 -1.4853  3.3841  1.8592
  132SOL    HW2  396   1.851   1.629   1.670 -3.5343 -0.3064 -3.0931
  133SOL     OW  397   0.319   0.992   2.825  0.2648  0.5675 -0.3876
  133SOL    HW1  398   0.231   0.974   2.870 -4.4477 -1.0790 -2.4457
  133SOL    HW2  399   0.398   0.996   2.890 -1.1552  0.1268 -1.9147
  134SOL     OW  400   2.751   1.171   0.515 -0.1313 -0.0988  0.2735
  134SOL    HW1  401   2.673   1.187   0.583 -1.6916 -0.3384 -0.2322
  134SOL    HW2  402   2.799   1.252   0.488 -0.1093  0.0101 -2.2116
  135SOL     OW  403   2.782   0.940   0.360  0.4048 -0.1807  0.3793
  135SOL    HW1  404   2.783   1.023   0.418  0.2012 -0.5338  3.0352
  135SOL    HW2  405   2.695   0.941   0.311  2.7221  1.8269 -0.3988
  136SOL     OW  406   1.793   1.760   1.419  0.5904  0.1162 -0.0962
  136SOL    HW1  407   1.861   1.714   1.476 -0.4236 -0.4532  1.9344
  136SOL    HW2  408   1.775   1.695   1.342 -3.4126  0.7921  2.5060
  137SOL     OW  409   2.558   2.066   0.933  0.0186 -0.8875 -0.1178
  137SOL    HW1  410   2.580   2.021   0.844 -1.9125  2.5549  0.2776
  137SOL    HW2  411   2.641   2.111   0.969 -0.5329  2.4158  1.3558
  138SOL     OW  412   2.047   3.084   1.866 -0.0232 -0.4327  0.2870
  138SOL    HW1  413   1.942   3.075   1.866 -0.0866  0.5566 -0.7062
  138SOL    HW2  414   2.082   0.084   1.827  2.5289  4.6585 -0.6325
  139SOL     OW  415   2.600   0.383   0.096 -0.5584  0.1315  0.2832
  139SOL    HW1  416   2.573   0.289   0.115  1.2332 -1.9058  0.1122
  139SOL    HW2  417   2.633   0.392   3.088  2.2322 -1.6537 -2.7051
  140SOL     OW  418   1.209   1.749   2.388  0.2508 -0.1155 -0.1535
  140SOL    HW1  419   1.286   1.685   2.378 -1.9162  3.2055 -0.5757
  140SOL    HW2  420   1.132   1.699   2.425 -0.1765 -0.0875 -0.0263
  141SOL     OW  421   0.713   0.780   1.915  0.0971  0.2274  0.7666
  141SOL    HW1  422   0.684   0.732   1.997 -1.2706  4.3204 -0.7786
  141SOL    HW2  423   0.727   0.878   1.930  0.5015 -0.7124 -1.9282
  142SOL     OW  424   2.093   2.688   3.077  0.1642 -0.0507 -0.4904
  142SOL    HW1  425   2.188   2.715   3.061  0.8429  1.0631  0.4848
  142SOL    HW2  426   2.085   2.603   0.038 -0.7473 -0.1247  2.2336
  143SOL     OW  427   1.102   2.022   0.052  0.4164 -0.3278  0.8911
  143SOL    HW1  428   1.112   2.075   3.055 -0.6885 -1.9981 -0.7072
  143SOL    HW2  429   1.007   1.990   0.074  0.6988 -3.6324  0.6857
  144SOL     OW  430   1.191   2.610   0.293  0.0800 -0.6886  0.5709
  144SOL    HW1  431   1.168   2.533   0.354  0.3360 -0.4449 -0.6067
  144SOL    HW2  432   1.283   2.598   0.248  0.7048  0.7347  2.0539
  145SOL     OW  433   2.156   1.915   2.675  0.0921  0.3604 -0.1899
  145SOL    HW1  434   2.121   1.979   2.746  0.5201  1.2357  1.1829
  145SOL    HW2  435   2.254   1.897   2.689  0.4937  0.8740  0.5523
  146SOL     OW  436   2.441   2.490   2.953 -0.1044 -0.3887  0.3686
  146SOL    HW1  437   2.413   2.590   2.970 -0.7052 -2.0215  0.9221
  146SOL    HW2  438   2.468   2.440   3.040  0.0365 -1.2708 -0.9628
  147SOL     OW  439   2.978   1.411   1.186  0.0840  0.3811 -0.3765
  147SOL    HW1  440   2.895   1.467   1.185  0.8492 -0.5332 -1.4528
  147SOL    HW2  441   2.960   1.323   1.240  1.6241 -1.8224  1.8367
  148SOL     OW  442   1.740   2.938   2.983 -0.3265 -0.3324  0.3532
  148SOL    HW1  443   1.764   2.844   2.996  1.1302  1.5773  0.4620
  148SOL    HW2  444   1.642   2.958   3.021  1.4988 -1.4527  2.3219
  149SOL     OW  445   0.512   1.699   2.810  0.0449  0.5510 -0.3009
  149SOL    HW1  446   0.611   1.682   2.822  0.1658 -0.9464  0.9325
  149SOL    HW2  447   0.474   1.644   2.733  1.0734 -2.2371 -0.6325
  150SOL     OW  448   0.224   2.413   0.499 -0.2604 -0.1086  0.0285
  150SOL    HW1  449   0.206   2.433   0.398 -0.9196 -1.6858 -0.4998
  150SOL    HW2  450   0.304   2.351   0.518 -0.3877  0.3088  0.8247
  151SOL     OW  451   0.531   1.503   0.305  0.3298  0.4899  0.5672
  151SOL    HW1  452   0.477   1.415   0.312 -3.6238 -2.0445 -1.4759
  151SOL    HW2  453   0.509   1.559   0.220 -0.0614  3.5320 -0.7906
  152SOL     OW  454   2.869   1.763   0.651  0.5762  0.3616  0.0219
  152SOL    HW1  455   2.813   1.829   0.595 -1.4882 -1.1473 -1.8063
  152SOL    HW2  456   2.869   1.796   0.749 -1.1327 -2.7093  0.5488
  153SOL     OW  457   2.079   2.465   0.312 -0.3454  0.1285  0.3752
  153SOL    HW1  458   2.118   2.537   0.372  0.0154  0.8698  0.3964
  153SOL    HW2  459   1.976   2.470   0.308  1.7484 -2.7676 -1.3269
  154SOL     OW  460   0.872   2.806   0.844  0.5807  0.9273  0.5607
  154SOL    HW1  461   0.895   2.900   0.874 -1.2361 -0.5615  1.9732
  154SOL    HW2  462   0.780   2.779   0.874 -2.6950  0.0164 -0.8118
  155SOL     OW  463   0.235   2.036   0.901  0.4631  0.2465  0.0285
  155SOL    HW1  464   0.174   2.047   0.986 -2.9117  0.0736  4.3326
  155SOL    HW2  465   0.203   2.100   0.827 -0.8380  0.0771 -2.1911
  156SOL     OW  466   2.466   2.353   0.126  0.1728  0.3545  0.1231
  156SOL    HW1  467   2.448   2.252   0.110  0.1599  3.1215  1.0601
  156SOL    HW2  468   2.563   2.368   0.160  2.5373 -1.4835 -0.6734
  157SOL     OW  469   0.709   1.581   1.483 -0.0804 -0.1150 -0.4036
  157SOL    HW1  470   0.693   1.683   1.477 -0.7944  1.1987  1.5197
  157SOL    HW2  471   0.676   1.535   1.399 -2.0935 -1.0503 -0.1584
  158SOL     OW  472   1.440   0.755   0.179  0.2087 -0.6615  0.2968
  158SOL    HW1  473   1.463   0.744   0.078 -0.2858  2.7751 -1.1245
  158SOL    HW2  474   1.455   0.673   0.232 -2.9869  2.5728  0.6350
  159SOL     OW  475   1.261   0.898   2.912 -0.0497  0.1217  0.1410
  159SOL    HW1  476   1.211   0.957   2.845 -0.4696  1.1679  0.7317
  159SOL    HW2  477   1.344   0.937   2.952 -0.7016 -3.1025  1.4294
  160SOL     OW  478   1.187   1.451   0.473  0.1814 -0.4655  0.4605
  160SOL    HW1  479   1.179   1.496   0.379 -0.8774 -1.0292 -4.1330
  160SOL    HW2  480   1.251   1.375   0.476 -1.9554  2.6304 -0.2987
  161SOL     OW  481   0.072   2.291   2.816  0.3599 -0.0728 -0.0929
  161SOL    HW1  482   0.044   2.287   2.717  0.5400  1.2135 -1.8390
  161SOL    HW2  483   0.134   2.215   2.847  1.9262 -2.6016  0.9468
  162SOL     OW  484   0.337   2.368   0.912 -0.5208 -0.0955  0.2119
  162SOL    HW1  485   0.315   2.318   0.820 -1.7793 -3.2558 -1.6116
  162SOL    HW2  486   0.354   2.303   0.989 -1.1138  1.0966  0.0009
  163SOL     OW  487   3.061   0.711   2.916  0.0660  0.0645 -0.1200
  163SOL    HW1  488   0.040   0.642   2.900 -2.0908  0.7782 -2.1035
  163SOL    HW2  489   3.003   0.674   2.990  0.1666 -1.5056 -1.1581
  164SOL     OW  490   0.452   3.024   2.681 -0.1791  0.2267  0.0072
  164SOL    HW1  491   0.463   3.018   2.782  1.2575 -0.2097  2.0472
  164SOL    HW2  492   0.545   3.024   2.634 -1.0986 -0.3318  1.4820
  165SOL     OW  493   2.140   0.236   1.844 -0.4492 -0.1179  1.1155
  165SOL    HW1  494   2.171   0.238   1.938 -0.7329  0.5899 -1.4934
  165SOL    HW2  495   2.088   0.317   1.830  1.9446 -2.7469  1.8771
  166SOL     OW  496   1.923   2.750   1.518  0.2860  0.2047 -0.7411
  166SOL    HW1  497   1.998   2.727   1.585 -0.1936 -0.2765  1.6094
  166SOL    HW2  498   1.880   2.843   1.540 -2.1697  3.7373  1.0009
  167SOL     OW  499   1.053   0.473   2.164 -0.8568  0.0380 -0.4138
  167SOL    HW1  500   1.025   0.389   2.213  0.5762  0.5850  1.4403
  167SOL    HW2  501   1.131   0.518   2.209  2.3260  0.4415 -0.7078
  168SOL     OW  502   2.404   2.993   2.024  0.5401  0.2406  0.2060
  168SOL    HW1  503   2.470   3.070   2.037 -1.9742  0.4759  0.2795
  168SOL    HW2  504   2.396   2.941   2.109 -1.3095 -0.0553 -0.7932
  169SOL     OW  505   0.023   1.360   0.076 -0.1065 -0.2433 -0.7917
  169SOL    HW1  506   0.020   1.378   0.175 -1.1009  1.0646 -4.4555
  169SOL    HW2  507   3.066   1.269   0.061  1.6438 -1.0510  1.5736
  170SOL     OW  508   0.027   1.606   1.560  0.1188  0.0298  0.7415
  170SOL    HW1  509   0.027   1.570   1.466  0.7978 -1.1979  0.3342
  170SOL    HW2  510   0.032   1.711   1.563 -0.1684 -0.1010 -0.8886
  171SOL     OW  511   0.857   2.273   2.282  0.2867  0.0116 -0.1328
  171SOL    HW1  512   0.821   2.332   2.352 -1.7837  0.4509  0.1983
  171SOL    HW2  513   0.885   2.184   2.327 -0.9601 -0.6131  1.5376
  172SOL     OW  514   0.715   2.620   2.193  0.6682  0.0626  0.1563
  172SOL    HW1  515   0.678   2.639   2.101 -1.1344  2.4112  1.0944
  172SOL    HW2  516   0.661   2.541   2.237 -3.3649 -3.6597  0.5097
  173SOL     OW  517   1.169   2.547   0.810  0.1356 -0.1311  0.1457
  173SOL    HW1  518   1.094   2.529   0.873  2.1399 -0.4490  2.1497
  173SOL    HW2  519   1.250   2.575   0.873  0.7246  0.5028  3.3272
  174SOL     OW  520   1.841   0.312   0.450 -0.0284  0.5496  0.0490
  174SOL    HW1  521   1.865   0.297   0.549 -2.5409 -0.9037 -0.5784
  174SOL    HW2  522   1.926   0.312   0.396  0.1334 -0.5996  1.0426
  175SOL     OW  523   1.195   1.564   0.189  0.4431  0.2346 -0.3345
  175SOL    HW1  524   1.270   1.622   0.221 -1.7733 -2.9553 -2.3955
  175SOL    HW2  525   1.106   1.617   0.193  2.0741 -1.1806 -2.8599
  176SOL     OW  526   1.279   1.478   0.721  0.2707  0.0720  0.7440
  176SOL    HW1  527   1.313   1.574   0.733 -2.2747 -1.6094 -0.8294
  176SOL    HW2  528   1.234   1.461   0.629  1.7779 -0.4579 -1.0838
  177SOL     OW  529   1.257   0.659   1.254  0.2130 -0.0773  0.2199
  177SOL    HW1  530   1.186   0.635   1.323  0.0641  2.8119  1.1824
  177SOL    HW2  531   1.341   0.694   1.300 -1.0789  1.8331 -1.2512
  178SOL     OW  532   2.647   1.554   0.127 -0.3664  0.2838  0.4818
  178SOL    HW1  533   2.590   1.566   0.208  1.9271 -1.9950  0.5831
  178SOL    HW2  534   2.692   1.461   0.119 -2.5365 -0.9295 -2.5033
  179SOL     OW  535   0.491   2.334   0.195  0.3163  0.4710  0.2368
  179SOL    HW1  536   0.503   2.235   0.207  1.2731  0.4863  0.9474
  179SOL    HW2  537   0.583   2.383   0.206  2.2427  1.7225 -1.8709
  180SOL     OW  538   1.588   1.420   1.718 -0.9423 -0.2834 -0.9366
  180SOL    HW1  539   1.672   1.477   1.730 -1.5715 -1.0555  2.2300
  180SOL    HW2  540   1.512   1.474   1.680 -0.8062  2.1815  1.1056
  181SOL     OW  541   0.925   1.017   2.225  0.0976  0.3922 -0.3956
  181SOL    HW1  542   0.935   1.020   2.122 -2.6832  1.6607 -0.3107
  181SOL    HW2  543   0.985   0.943   2.271  3.1617 -1.0063  1.5302
  182SOL     OW  544   2.854   1.032   2.218 -0.3775 -0.1662  0.1205
  182SOL    HW1  545   2.831   1.089   2.295  0.8308 -3.4560  1.2771
  182SOL    HW2  546   2.827   1.064   2.127  0.2871 -0.8977  0.6062
  183SOL     OW  547   1.624   0.682   2.128  0.2092  0.4429  0.4680
  183SOL    HW1  548   1.726   0.655   2.120  1.2410 -0.2599  0.6979
  183SOL    HW2  549   1.575   0.667   2.037 -0.1232 -1.1656 -1.3618
  184SOL     OW  550   0.194   0.581   1.646 -0.3130  0.0718 -0.5281
  184SOL    HW1  551   0.291   0.578   1.659 -0.5621 -0.7886 -0.3347
  184SOL    HW2  552   0.168   0.551   1.547 -2.1187  0.0331 -3.1934
  185SOL     OW  553   2.377   1.811   0.615 -0.3122 -0.0434 -0.0685
  185SOL    HW1  554   2.336   1.896   0.574  2.4815  4.0425  0.7953
  185SOL    HW2  555   2.375   1.730   0.554  1.1806  3.1773 -0.8418
  186SOL     OW  556   0.494   1.856   3.024  0.1460 -0.0766 -0.8961
  186SOL    HW1  557   0.481   1.798   2.942  1.1566  0.9851 -0.0735
  186SOL    HW2  558   0.562   1.928   2.996 -0.3844  0.5464 -1.6834
  187SOL     OW  559   2.364   1.705   2.976 -0.1653  0.0835  0.2721
  187SOL    HW1  560   2.369   1.635   2.900  3.1166 -0.3550 -1.9331
  187SOL    HW2  561   2.449   1.761   2.961  1.3601 -3.3707 -2.8028
  188SOL     OW  562   0.948   2.613   0.686  0.5938 -0.2718  0.0811
  188SOL    HW1  563   1.047   2.595   0.710  0.8299  1.4438  0.7857
  188SOL    HW2  564   0.907   2.688   0.743 -2.5261 -3.4812 -0.2044
  189SOL     OW  565   2.075   0.889   2.624  0.3402  0.2651 -0.7748
  189SOL    HW1  566   2.015   0.822   2.577 -0.6122 -0.6220  0.7558
  189SOL    HW2  567   2.022   0.973   2.653 -0.4720  0.1689  0.2414
  190SOL     OW  568   0.899   2.009   2.358 -0.4482 -0.2189  0.2498
  190SOL    HW1  569   0.823   1.956   2.401  0.0635  3.1695  0.7220
  190SOL    HW2  570   0.990   1.997   2.401  1.3256  0.4822  0.9511
  191SOL     OW  571   2.457   0.833   1.712  0.4747  0.3244  0.6247
  191SOL    HW1  572   2.542   0.777   1.697  0.6282 -1.5699  1.4601
  191SOL    HW2  573   2.457   0.906   1.639  0.5826 -1.4977  0.3455
  192SOL     OW  574   2.200   0.287   2.106  0.3210  0.3603  0.0482
  192SOL    HW1  575   2.287   0.337   2.132  0.4950  0.2962  2.0540
  192SOL    HW2  576   2.161   0.243   2.190 -0.0220  0.1914  1.1002
  193SOL     OW  577   0.450   0.341   0.608  0.0755  0.5600 -0.0244
  193SOL    HW1  578   0.360   0.301   0.594 -1.0797  1.0969  0.4243
  193SOL    HW2  579   0.445   0.390   0.700 -0.9915 -1.4081  1.7709
  194SOL     OW  580   1.092   2.295   1.388  0.0679 -0.0845  0.7787
  194SOL    HW1  581   1.085   2.339   1.479 -1.4006  0.8492  2.1886
  194SOL    HW2  582   1.151   2.213   1.382 -0.3821  3.8039  0.7729
  195SOL     OW  583   2.576   0.656   0.792  0.7198  0.2415  0.5086
  195SOL    HW1  584   2.528   0.566   0.781  0.1461  0.8363  0.7612
  195SOL    HW2  585   2.556   0.690   0.885  0.9428 -0.2630 -0.2840
  196SOL     OW  586   1.160   1.908   1.677 -0.3905  0.0348 -0.1827
  196SOL    HW1  587   1.083   1.904   1.612 -0.0086 -1.3167  2.3965
  196SOL    HW2  588   1.145   1.982   1.745 -0.8725  0.3352  0.0844
  197SOL     OW  589   0.448   0.554   2.428 -0.1620 -0.1934 -0.4375
  197SOL    HW1  590   0.406   0.594   2.510 -1.7596 -0.0661  1.1054
  197SOL    HW2  591   0.392   0.578   2.349  1.6730 -0.0219  1.5207
  198SOL     OW  592   1.661   1.235   0.864 -0.5457  0.0776 -0.0310
  198SOL    HW1  593   1.555   1.232   0.865  3.1184 -0.6550 -0.1092
  198SOL    HW2  594   1.698   1.308   0.924  0.6086  0.3180  0.1424
  199SOL     OW  595   2.415   0.397   2.235 -0.0721 -0.3040 -0.4357
  199SOL    HW1  596   2.373   0.443   2.321 -1.9747  1.5455  1.4805
  199SOL    HW2  597   2.462   0.309   2.260  0.6069 -1.5575 -2.3855
  200SOL     OW  598   2.253   2.352   2.285  0.0600  0.0041  0.1284
  200SOL    HW1  599   2.351   2.376   2.297 -0.6261  2.5549 -0.2619
  200SOL    HW2  600   2.215   2.303   2.364 -0.9025  0.5742 -1.0344
  201SOL     OW  601   1.977   0.147   1.517 -0.3393  0.2728  0.8252
  201SOL    HW1  602   1.916   0.199   1.582  0.1044  1.4410  2.6314
  201SOL    HW2  603   1.940   0.148   1.424  0.6812 -1.2171  0.2574
  202SOL     OW  604   2.174   2.929   0.364  0.1246  0.2330 -0.0894
  202SOL    HW1  605   2.269   2.973   0.349 -1.1690 -0.2367  1.8096
  202SOL    HW2  606   2.098   2.997   0.348 -4.1927 -0.5488  0.5182
  203SOL     OW  607   0.711   1.873   2.481 -0.4136  0.1154 -0.0415
  203SOL    HW1  608   0.610   1.846   2.479 -3.3305 -4.2259 -1.0055
  203SOL    HW2  609   0.743   1.908   2.569 -2.8960 -1.5236 -0.6770
  204SOL     OW  610   0.896   1.211   2.619 -0.0126  0.2090 -0.1886
  204SOL    HW1  611   0.825   1.277   2.627  0.8080 -0.7106 -0.6463
  204SOL    HW2  612   0.903   1.154   2.705 -0.0582 -2.3249  1.4677
  205SOL     OW  613   1.115   0.856   1.487 -0.0438 -0.1821 -0.0925
  205SOL    HW1  614   1.206   0.819   1.509 -3.7789 -0.3360 -1.5754
  205SOL    HW2  615   1.111   0.913   1.404  0.5343  0.2632  0.2096
  206SOL     OW  616   0.621   0.404   2.727  0.8090 -0.3284  0.1629
  206SOL    HW1  617   0.647   0.409   2.626  0.4965  1.1061  1.6557
  206SOL    HW2  618   0.687   0.335   2.768 -1.7725  0.4124 -2.7075
  207SOL     OW  619   1.681   2.477   1.867  0.0908  0.1636 -0.5907
  207SOL    HW1  620   1.713   2.542   1.937  0.3400 -1.0240  0.7378
  207SOL    HW2  621   1.671   2.528   1.779 -3.0593  0.5908 -2.5915
  208SOL     OW  622   0.985   2.593   1.042 -0.3876 -0.3860  0.3701
  208SOL    HW1  623   1.011   2.685   1.074  0.6329 -1.0534  0.1454
  208SOL    HW2  624   0.888   2.589   1.014 -0.2529 -1.7284 -1.4453
  209SOL     OW  625   1.259   1.523   2.797  0.7823 -0.1537  0.0679
  209SOL    HW1  626   1.301   1.612   2.826  0.7817  2.0242 -0.5166
  209SOL    HW2  627   1.309   1.441   2.837  2.5129 -1.2255  2.2992
  210SOL     OW  628   2.253   0.755   0.961  0.3385  0.1344 -0.1574
  210SOL    HW1  629   2.351   0.770   0.988  0.3992  0.2445 -1.2923
  210SOL    HW2  630   2.243   0.779   0.866  2.5736 -1.5412  1.7219
  211SOL     OW  631   0.965   2.712   0.419 -0.2434  0.3444  0.0662
  211SOL    HW1  632   0.935   2.672   0.510 -2.8579  0.9624  1.0678
  211SOL    HW2  633   1.044   2.660   0.385  0.2404  1.8777  0.9618
  212SOL     OW  634   2.274   2.012   0.199  0.2198 -0.1249 -0.0219
  212SOL    HW1  635   2.285   1.991   0.295 -0.5098 -1.4582 -1.1199
  212SOL    HW2  636   2.336   2.081   0.160  1.0117 -0.6307 -0.1712
  213SOL     OW  637   1.821   0.711   2.937 -0.5510 -0.8053  0.2133
  213SOL    HW1  638   1.859   0.754   3.018 -0.6446  2.2416  2.9707
  213SOL    HW2  639   1.858   0.615   2.928 -0.6884 -0.9863  1.2099
  214SOL     OW  640   1.099   2.076   1.896  0.0425  0.1240 -0.1783
  214SOL    HW1  641   1.007   2.022   1.908 -0.7480 -1.2297  2.2942
  214SOL    HW2  642   1.154   2.064   1.980 -2.6360  1.3359  1.2735
  215SOL     OW  643   0.588   1.792   0.439  0.5611  0.3845 -0.2358
  215SOL    HW1  644   0.578   1.692   0.417 -1.2603  1.4397 -1.8306
  215SOL    HW2  645   0.501   1.819   0.488 -1.6198 -0.7477  1.3966
  216SOL     OW  646   0.043   0.023   2.442 -0.2071  0.0157 -0.3527
  216SOL    HW1  647   0.065   3.017   2.468 -0.9092  2.7101  1.6005
  216SOL    HW2  648   0.094   0.049   2.357 -1.0125 -1.0129 -1.0940
  217SOL     OW  649   2.438   0.612   1.311  0.3748  0.3177 -0.0786
  217SOL    HW1  650   2.341   0.591   1.284  0.3615 -1.3745 -1.8932
  217SOL    HW2  651   2.467   0.565   1.398  2.9142  2.0723  3.8470
  218SOL     OW  652   1.412   1.782   2.051 -0.0954 -0.2891 -0.2236
  218SOL    HW1  653   1.442   1.835   1.968  3.1605  1.3554 -2.3614
  218SOL    HW2  654   1.322   1.819   2.091 -3.4850  2.6506 -0.8110
  219SOL     OW  655   2.006   1.626   0.021 -0.0061  0.5026  0.3681
  219SOL    HW1  656   2.099   1.598   0.022  0.1297 -2.8301  0.9750
  219SOL    HW2  657   1.985   1.707   3.051  0.8082  2.3866 -2.9113
  220SOL     OW  658   2.158   0.749   0.475 -0.3452  0.1622  0.1142
  220SOL    HW1  659   2.078   0.803   0.447  4.3946  2.1059  0.2859
  220SOL    HW2  660   2.158   0.657   0.427 -0.9887  1.2910  2.4143
  221SOL     OW  661   0.155   0.507   2.885  0.1292 -0.1025 -0.4772
  221SOL    HW1  662   0.253   0.484   2.911  0.6113  1.5311 -1.9243
  221SOL    HW2  663   0.101   0.433   2.839 -0.5368  0.2212  1.1428
  222SOL     OW  664   1.538   1.728   0.506  0.0830  0.4785 -0.7856
  222SOL    HW1  665   1.609   1.661   0.474 -0.2514 -1.1505 -0.1060
  222SOL    HW2  666   1.573   1.828   0.494  0.5889  0.5835 -0.3950
  223SOL     OW  667   1.001   0.047   0.303  0.5886 -0.1422 -0.2305
  223SOL    HW1  668   1.073   0.119   0.288  0.9294 -0.5956  1.2645
  223SOL    HW2  669   0.911   0.089   0.305  0.1935 -0.9243 -0.5792
  224SOL     OW  670   1.694   0.148   1.403 -0.2195  0.1979  0.3996
  224SOL    HW1  671   1.646   0.062   1.390 -1.2631  2.9622  1.2124
  224SOL    HW2  672   1.745   0.186   1.323 -1.8798  2.7594  0.0217
  225SOL     OW  673   0.725   2.252   1.161 -0.6533 -0.4884 -0.5076
  225SOL    HW1  674   0.769   2.309   1.232 -1.6481 -1.1216 -0.6792
  225SOL    HW2  675   0.748   2.286   1.072 -1.7554  0.1063 -0.1069
  226SOL     OW  676   1.060   1.482   3.037 -0.0019  0.0687  0.5239
  226SOL    HW1  677   1.119   1.494   2.955  0.5210  0.2125  1.4824
  226SOL    HW2  678   1.107   1.497   0.032 -1.5203 -1.1029  1.7323
  227SOL     OW  679   1.168   1.502   1.350  0.3444 -0.0158 -0.1259
  227SOL    HW1  680   1.128   1.435   1.283  2.5905 -0.4842 -3.9969
  227SOL    HW2  681   1.125   1.594   1.332  1.1388  0.3844  2.4129
  228SOL     OW  682   0.355   1.857   0.558  0.2639  0.3887  0.2513
  228SOL    HW1  683   0.316   1.776   0.605 -0.2427  0.9451  1.2085
  228SOL    HW2  684   0.285   1.926   0.527 -0.1461  2.8828 -1.1017
  229SOL     OW  685   1.798   0.263   2.737  0.1406 -0.3142  0.4067
  229SOL    HW1  686   1.867   0.248   2.661  2.8475 -2.6693 -0.8141
  229SOL    HW2  687   1.734   0.338   2.714  0.3786  0.3745  1.8736
  230SOL     OW  688   1.642   1.147   2.734 -0.0725 -0.3071 -0.1369
  230SOL    HW1  689   1.738   1.122   2.718 -2.0239 -1.1323  0.4184
  230SOL    HW2  690   1.628   1.249   2.729  0.6724 -1.1703 -1.2873
  231SOL     OW  691   0.912   1.699   2.475  1.1000 -0.2580 -0.0722
  231SOL    HW1  692   0.921   1.632   2.398 -2.0989 -0.2346  0.2720
  231SOL    HW2  693   0.825   1.754   2.467 -2.8963  2.5484 -0.2057
  232SOL     OW  694   2.377   2.263   0.535 -0.3886  0.2042  0.1262
  232SOL    HW1  695   2.300   2.231   0.587  1.4815 -0.1339 -1.9022
  232SOL    HW2  696   2.404   2.190   0.468 -1.7932 -1.5068 -0.7848
  233SOL     OW  697   2.600   2.392   0.422 -0.2123  0.3759  0.4582
  233SOL    HW1  698   2.647   2.357   0.338  1.2022 -0.9661  2.4769
  233SOL    HW2  699   2.508   2.352   0.447  1.2779  0.0174  0.1621
  234SOL     OW  700   0.787   0.454   3.039  0.4143  0.4657 -0.2143
  234SOL    HW1  701   0.743   0.378   2.985 -2.2856  1.6984  0.1920
  234SOL    HW2  702   0.858   0.499   2.980  1.0614  0.5019 -1.1975
  235SOL     OW  703   2.529   0.230   2.794 -0.5804 -0.4364  0.3361
  235SOL    HW1  704   2.569   0.159   2.859  0.4005 -0.1743  1.6307
  235SOL    HW2  705   2.599   0.257   2.721  4.4704  1.5820 -2.5516
  236SOL     OW  706   1.970   2.272   1.213 -0.5024  0.0126 -0.2386
  236SOL    HW1  707   1.978   2.234   1.306  1.8472 -0.0583  1.0568
  236SOL    HW2  708   2.057   2.309   1.171  3.2414 -1.5267 -1.2360
  237SOL     OW  709   0.755   1.881   2.135 -0.0566 -0.3277  0.1723
  237SOL    HW1  710   0.751   1.913   2.036  0.9111  0.5305  0.2810
  237SOL    HW2  711   0.825   1.931   2.186 -2.5652 -0.5561  0.0855
  238SOL     OW  712   1.275   3.073   2.580 -0.0605  0.0344 -0.1021
  238SOL    HW1  713   1.260   2.981   2.625 -0.8305 -1.6754 -0.0232
  238SOL    HW2  714   1.239   3.076   2.486 -1.0887  0.2750  0.9766
  239SOL     OW  715   0.409   2.174   2.013  0.2768 -0.2780  0.1261
  239SOL    HW1  716   0.508   2.190   2.037 -1.7087 -1.0403  0.0401
  239SOL    HW2  717   0.380   2.253   1.953  2.2616  0.0198  1.8857
  240SOL     OW  718   2.375   2.555   0.577  0.3435  0.7063 -0.5230
  240SOL    HW1  719   2.291   2.594   0.538  0.3797 -1.2401  1.6621
  240SOL    HW2  720   2.380   2.458   0.549  2.5015 -3.4732  1.1976
  241SOL     OW  721   2.511   0.819   1.023 -0.4986 -0.4073  0.2538
  241SOL    HW1  722   2.570   0.769   1.095  0.2025  3.2171  2.0433
  241SOL    HW2  723   2.540   0.916   1.014 -0.2632 -0.1447  0.2085
  242SOL     OW  724   2.147   2.448   2.024 -0.6182  0.6049 -0.4542
  242SOL    HW1  725   2.071   2.386   1.998 -2.1811 -0.1513  0.9525
  242SOL    HW2  726   2.205   2.406   2.097 -1.8578  0.1360  2.5022
  243SOL     OW  727   0.833   2.420   1.342  0.6075  0.5095  0.2088
  243SOL    HW1  728   0.934   2.399   1.346 -1.7170  1.2328  4.4890
  243SOL    HW2  729   0.813   2.519   1.340 -0.2555  2.0125 -0.5092
  244SOL     OW  730   1.898   0.470   2.890 -0.5449  0.0423  0.2726
  244SOL    HW1  731   1.824   0.405   2.866  0.4617 -1.0588 -1.6706
  244SOL    HW2  732   1.974   0.451   2.821 -3.1209 -0.8913 -0.4627
  245SOL     OW  733   1.461   0.406   1.230  0.2283  0.1432 -0.5866
  245SOL    HW1  734   1.388   0.478   1.224 -2.5305  0.5445 -2.5985
  245SOL    HW2  735   1.433   0.326   1.177 -0.5749  0.1842  0.1697
  246SOL     OW  736   1.838   2.693   3.017 -0.1560  0.2715 -0.2769
  246SOL    HW1  737   1.939   2.676   3.034  0.7115  2.3285 -0.1899
  246SOL    HW2  738   1.809   2.649   2.928 -0.1969 -1.4340  2.7489
  247SOL     OW  739   1.215   0.596   2.373 -0.0694  0.1062  0.6448
  247SOL    HW1  740   1.199   0.534   2.449  1.1280  0.8583 -2.4763
  247SOL    HW2  741   1.316   0.622   2.371  1.5854  1.3228  1.1002
  248SOL     OW  742   0.652   1.856   1.548  0.7026 -0.0856  0.5214
  248SOL    HW1  743   0.727   1.922   1.536 -0.0084  0.5517  0.9859
  248SOL    HW2  744   0.572   1.903   1.587 -0.1882  1.2287  0.1148
  249SOL     OW  745   2.250   0.123   0.523 -0.1305 -0.2876 -0.2670
  249SOL    HW1  746   2.211   0.195   0.463 -0.4894 -3.3839  0.9125
  249SOL    HW2  747   2.179   0.075   0.579 -1.1186 -1.6300 -0.1101
  250SOL     OW  748   2.861   0.362   2.952 -0.2151  0.1263  0.5227
  250SOL    HW1  749   2.887   0.261   2.965 -1.0504  0.4368  0.8988
  250SOL    HW2  750   2.907   0.417   3.018 -1.2995 -1.1861  0.0246
  251SOL     OW  751   1.421   0.677   2.984  0.3944 -0.3356  0.2526
  251SOL    HW1  752   1.511   0.701   2.941  0.3429 -0.4693 -0.7664
  251SOL    HW2  753   1.343   0.742   2.959  0.4954 -0.1942  2.9124
  252SOL     OW  754   1.753   1.948   1.807  0.1858  0.0394 -0.2348
  252SOL    HW1  755   1.667   1.960   1.857  0.9124  0.9099  3.3882
  252SOL    HW2  756   1.832   1.954   1.873  0.5597  0.5589  0.7189
  253SOL     OW  757   2.592   2.296   1.191 -0.2567  0.1704 -0.0388
  253SOL    HW1  758   2.595   2.363   1.119  0.3820 -3.2880  1.3044
  253SOL    HW2  759   2.610   2.342   1.278  0.1581 -0.8173  1.1173
  254SOL     OW  760   2.773   1.214   0.997  0.7043 -0.9172 -0.1058
  254SOL    HW1  761   2.778   1.268   1.082 -2.4475 -1.9932  2.4968
  254SOL    HW2  762   2.847   1.243   0.932  1.8139  2.3871 -0.7704
  255SOL     OW  763   1.291   0.288   1.041  0.3188 -0.5733 -0.2859
  255SOL    HW1  764   1.245   0.222   0.980  2.7094  1.0380  1.6883
  255SOL    HW2  765   1.253   0.381   1.035  0.3773 -0.6282  0.6927
  256SOL     OW  766   1.498   2.327   1.306 -0.0900 -0.0995  0.3287
  256SOL    HW1  767   1.442   2.409   1.342  2.5825  2.3707  0.8895
  256SOL    HW2  768   1.438   2.260   1.265  1.0012 -0.3506  1.9056
  257SOL     OW  769   0.688   3.031   2.539 -0.2291 -0.9513  0.5897
  257SOL    HW1  770   0.774   2.986   2.567  0.8448 -0.8287 -4.1552
  257SOL    HW2  771   0.652   2.972   2.466  0.0399  1.0967  1.5142
  258SOL     OW  772   0.862   2.363   0.615 -0.0751  0.0110  0.0038
  258SOL    HW1  773   0.884   2.456   0.654  0.9218  3.2563  0.7177
  258SOL    HW2  774   0.854   2.294   0.695 -0.7487  0.6277  3.3461
  259SOL     OW  775   1.610   2.983   2.708 -0.0570  0.0153 -0.2708
  259SOL    HW1  776   1.697   2.952   2.751 -2.0612  3.1261 -2.2613
  259SOL    HW2  777   1.623   3.031   2.622  1.3098 -0.8535  1.8545
  260SOL     OW  778   2.342   0.197   1.677  0.0552 -0.4121  0.5183
  260SOL    HW1  779   2.260   0.224   1.735 -1.8897 -0.2873 -1.4116
  260SOL    HW2  780   2.312   0.199   1.580  1.8425 -0.5211  1.0178
  261SOL     OW  781   0.666   0.380   2.450  0.3857 -0.3873  0.2709
  261SOL    HW1  782   0.580   0.431   2.441  0.7171 -1.5338 -1.8952
  261SOL    HW2  783   0.743   0.441   2.421  1.8827  0.1496  1.2339
  262SOL     OW  784   0.337   2.328   2.395  0.5000  0.1095  0.6324
  262SOL    HW1  785   0.345   2.326   2.499 -0.4095  1.9651  0.4138
  262SOL    HW2  786   0.260   2.387   2.374  0.9058 -1.0802  3.1737
  263SOL     OW  787   0.155   1.673   2.561  0.4204 -0.0768  0.3685
  263SOL    HW1  788   0.078   1.734   2.600  0.9206  1.0476 -0.3588
  263SOL    HW2  789   0.134   1.665   2.460 -0.7467 -0.0222 -2.2093
  264SOL     OW  790   1.368   1.224   0.824  0.2638  0.2372 -0.3450
  264SOL    HW1  791   1.332   1.139   0.778  0.1330  0.9122 -1.4073
  264SOL    HW2  792   1.333   1.315   0.792  2.5051 -0.0007  0.8369
  265SOL     OW  793   1.546   2.811   0.592  0.6317 -0.3179  0.1783
  265SOL    HW1  794   1.500   2.725   0.565  0.9733 -0.4898  0.7720
  265SOL    HW2  795   1.618   2.789   0.659  1.0824  3.2135 -1.8675
  266SOL     OW  796   1.666   0.923   1.308 -0.2268  0.0602 -0.2678
  266SOL    HW1  797   1.625   0.994   1.367  0.2159 -0.8873  2.0759
  266SOL    HW2  798   1.763   0.938   1.301  0.9356 -0.6793 -3.6271
  267SOL     OW  799   2.343   1.159   2.620  0.7728 -0.1670  0.3898
  267SOL    HW1  800   2.390   1.094   2.552 -0.1886  0.1776  0.3510
  267SOL    HW2  801   2.273   1.216   2.572 -0.9132  1.1373 -1.1161
  268SOL     OW  802   1.203   0.252   0.202  0.6565 -0.1452 -0.1003
  268SOL    HW1  803   1.278   0.279   0.266 -0.8902  1.0045  0.3502
  268SOL    HW2  804   1.238   0.276   0.107  1.0608 -0.4326 -3.0073
  269SOL     OW  805   2.953   0.816   2.626  0.2875 -0.1048  0.0819
  269SOL    HW1  806   2.987   0.798   2.529 -0.5286  0.7470 -3.8910
  269SOL    HW2  807   3.003   0.753   2.685  1.4350  1.9895 -0.3481
  270SOL     OW  808   0.288   1.265   0.092  0.6488  0.3635 -0.1741
  270SOL    HW1  809   0.191   1.291   0.119  0.4838  3.3248 -0.8902
  270SOL    HW2  810   0.316   1.308   0.006  0.3304  0.5352 -0.6807
  271SOL     OW  811   2.516   0.961   3.049 -0.7383  0.3607 -0.1300
  271SOL    HW1  812   2.451   0.986   2.973  0.5731  0.1408  2.8107
  271SOL    HW2  813   2.512   0.859   3.059 -0.6940 -0.4604  1.6727
  272SOL     OW  814   2.877   2.472   2.262 -0.5868  0.7444 -0.0308
  272SOL    HW1  815   2.845   2.567   2.232 -0.0335  3.3786  0.0103
  272SOL    HW2  816   2.934   2.477   2.346  2.0311 -0.8999 -1.9575
  273SOL     OW  817   0.030   0.106   0.089 -0.1323  0.1470 -0.6364
  273SOL    HW1  818   0.050   0.202   0.116 -2.8870  2.1252 -0.0123
  273SOL    HW2  819   0.044   0.038   0.164  0.5947 -1.9987  0.8843
  274SOL     OW  820   0.861   2.187   0.805 -0.2063 -0.4992  0.2068
  274SOL    HW1  821   0.797   2.112   0.842 -0.8536 -1.0303  4.1424
  274SOL    HW2  822   0.957   2.157   0.791 -2.2758  0.8748  0.1466
  275SOL     OW  823   2.250   0.563   0.723 -0.2813  0.2774  0.7054
  275SOL    HW1  824   2.318   0.510   0.773  0.4506  2.1076  0.5204
  275SOL    HW2  825   2.294   0.614   0.644  0.0003  0.8853 -0.6107
  276SOL     OW  826   2.493   1.345   1.344 -0.2118 -0.1439  0.1064
  276SOL    HW1  827   2.405   1.296   1.325  2.0820 -0.4115 -0.4839
  276SOL    HW2  828   2.500   1.362   1.444 -2.1505 -1.1650  2.5928
  277SOL     OW  829   2.488   0.006   0.838 -0.1442  0.4617  0.1586
  277SOL    HW1  830   2.548   3.015   0.851  0.6050  1.8176  1.0121
  277SOL    HW2  831   2.485   0.054   0.928 -0.7846  0.2559  0.5956
  278SOL     OW  832   1.591   2.737   2.203  0.4862  0.5266  0.1945
  278SOL    HW1  833   1.513   2.696   2.150  1.4818 -2.4196  3.1463
  278SOL    HW2  834   1.564   2.744   2.299 -1.0099 -0.3279  1.3115
  279SOL     OW  835   1.362   2.549   0.991  0.1390 -0.2310 -0.0941
  279SOL    HW1  836   1.423   2.472   0.963 -1.9997 -1.7577  0.0869
  279SOL    HW2  837   1.287   2.506   1.048 -2.2703 -0.4094 -1.4583
  280SOL     OW  838   0.468   1.013   0.957 -0.0892  0.1034 -0.2548
  280SOL    HW1  839   0.440   1.087   0.891 -0.3665 -1.0898 -2.4950
  280SOL    HW2  840   0.471   1.057   1.051 -1.3293  3.9121  2.0422
  281SOL     OW  841   2.442   1.283   2.841  0.0653 -0.0843  0.0686
  281SOL    HW1  842   2.438   1.240   2.750 -0.5294  0.2086  1.9072
  281SOL    HW2  843   2.418   1.384   2.832 -0.7204  1.6615 -0.3930
  282SOL     OW  844   0.436   1.243   0.323 -0.4838 -0.3290  0.0037
  282SOL    HW1  845   0.385   1.250   0.240  2.1884  2.1772  2.4544
  282SOL    HW2  846   0.511   1.176   0.311  1.7027 -0.4633 -0.0394
  283SOL     OW  847   1.725   2.603   2.789 -0.3591 -0.4760  0.1182
  283SOL    HW1  848   1.750   2.677   2.725  3.1578 -1.8931  1.8568
  283SOL    HW2  849   1.718   2.513   2.741  0.2630 -0.2213 -1.1248
  284SOL     OW  850   0.977   0.217   0.627  0.5451 -0.1108  0.0983
  284SOL    HW1  851   0.999   0.117   0.614  2.5489  0.3953  0.9605
  284SOL    HW2  852   1.046   0.276   0.580 -0.4559  0.2646 -0.2340
  285SOL     OW  853   2.162   1.299   2.502  0.1986  0.1592 -0.2501
  285SOL    HW1  854   2.160   1.376   2.435  1.4242  0.4834 -1.8643
  285SOL    HW2  855   2.125   1.328   2.593 -0.5080  0.9652 -0.3502
  286SOL     OW  856   1.719   2.591   0.943  0.3599 -0.4913  0.4942
  286SOL    HW1  857   1.736   2.569   1.038  0.1737  1.4846 -0.5222
  286SOL    HW2  858   1.717   2.510   0.883 -1.3405 -0.0422 -0.3417
  287SOL     OW  859   1.579   0.709   1.017 -0.0109 -0.0733  1.2498
  287SOL    HW1  860   1.504   0.650   1.054  1.2951 -0.8942 -0.7627
  287SOL    HW2  861   1.551   0.803   0.983  1.4957 -0.1455  0.6585
  288SOL     OW  862   0.736   2.687   2.631 -0.3707 -0.0061 -0.1794
  288SOL    HW1  863   0.691   2.729   2.709  1.0337 -2.1900 -0.6985
  288SOL    HW2  864   0.668   2.654   2.564  1.2788  2.6118  0.8416
  289SOL     OW  865   0.138   1.568   1.003 -0.0807  0.2165 -0.2633
  289SOL    HW1  866   0.150   1.553   1.101 -0.2158 -1.1137  0.8343
  289SOL    HW2  867   0.040   1.596   0.992 -1.0415  4.3611  1.2096
  290SOL     OW  868   1.255   2.282   0.717 -0.5770  0.4906  0.0257
  290SOL    HW1  869   1.194   2.358   0.743  1.2978 -1.6968 -1.8155
  290SOL    HW2  870   1.299   2.299   0.625 -1.4459 -1.4940 -2.0935
  291SOL     OW  871   1.547   0.018   0.239  0.1333 -0.3448 -0.1581
  291SOL    HW1  872   1.524   0.084   0.310 -1.7821 -0.0836 -1.4037
  291SOL    HW2  873   1.628   0.043   0.181 -2.0217 -1.0055  2.7082
  292SOL     OW  874   0.525   0.458   2.152  0.3563  0.5576 -0.8371
  292SOL    HW1  875   0.528   0.394   2.235 -1.5274 -1.9093  0.9641
  292SOL    HW2  876   0.436   0.502   2.145  0.0855 -2.2254 -2.1308
  293SOL     OW  877   2.747   1.733   0.961 -0.2021  0.1816  0.4449
  293SOL    HW1  878   2.655   1.740   0.911  0.2328 -0.7539 -0.1641
  293SOL    HW2  879   2.735   1.788   1.042 -1.4024 -1.2398 -1.5073
  294SOL     OW  880   0.799   0.109   2.120  0.6231 -0.1332 -0.1070
  294SOL    HW1  881   0.708   0.118   2.168  1.1148 -1.8526  0.4431
  294SOL    HW2  882   0.839   0.013   2.136 -2.6913 -1.8375 -0.1107
  295SOL     OW  883   1.246   1.870   0.929  0.0473  0.0211  0.0194
  295SOL    HW1  884   1.321   1.803   0.948 -0.6851  0.6495 -0.7699
  295SOL    HW2  885   1.157   1.830   0.961 -2.5717 -3.2613  1.7898
  296SOL     OW  886   2.585   1.888   0.205 -0.5627  0.2783 -0.0054
  296SOL    HW1  887   2.505   1.820   0.214  1.5914 -3.9349 -3.0694
  296SOL    HW2  888   2.638   1.854   0.122 -0.6072  1.5633 -1.6981
  297SOL     OW  889   2.562   0.128   0.148 -0.3093  0.6201 -0.2712
  297SOL    HW1  890   2.646   0.120   0.209  2.1269  1.5655  0.2585
  297SOL    HW2  891   2.571   0.066   0.069 -2.7750 -0.2408  0.2869
  298SOL     OW  892   1.085   0.303   2.910 -0.3862 -0.2883  0.2144
  298SOL    HW1  893   1.092   0.280   2.814  0.4037  4.2388 -0.4183
  298SOL    HW2  894   1.025   0.385   2.911 -1.3841 -4.7547 -0.7550
  299SOL     OW  895   0.504   2.576   2.519 -0.1785 -0.0137 -0.3759
  299SOL    HW1  896   0.465   2.626   2.441  1.7619  1.0123 -1.3231
  299SOL    HW2  897   0.435   2.552   2.591 -0.4100 -0.9613  1.3935
  300SOL     OW  898   2.784   3.062   2.331 -0.3703 -0.3341  0.1498
  300SOL    HW1  899   2.702   0.031   2.310 -1.9267  0.5370  2.7916
  300SOL    HW2  900   2.870   0.009   2.286  1.3735 -0.6351 -0.9565
  301SOL     OW  901   1.365   0.324   1.709  0.5111 -0.3937 -0.3932
  301SOL    HW1  902   1.349   0.422   1.738  0.2553 -1.1008  1.5212
  301SOL    HW2  903   1.395   0.325   1.610 -0.0984  1.6977  0.8053
  302SOL     OW  904   0.025   2.347   0.035 -0.5677 -0.8289 -0.3407
  302SOL    HW1  905   0.079   2.353   0.121  2.0165  0.0629  2.9963
  302SOL    HW2  906   0.083   2.377   3.046  1.9009  0.5608 -2.5226
  303SOL     OW  907   2.095   2.081   1.605  0.1762  0.0286  0.3735
  303SOL    HW1  908   1.997   2.112   1.598  2.0466 -0.0088 -0.1064
  303SOL    HW2  909   2.141   2.136   1.539 -1.1187 -1.4801 -2.0116
  304SOL     OW  910   2.763   0.845   1.449 -0.3666  0.2585  0.0817
  304SOL    HW1  911   2.784   0.828   1.348 -0.9344  0.5281  1.3777
  304SOL    HW2  912   2.835   0.894   1.500  0.3718 -1.4931  2.9812
  305SOL     OW  913   0.518   1.627   0.807 -0.3001 -0.1581  0.0816
  305SOL    HW1  914   0.615   1.656   0.838 -0.5100 -1.1752  1.2163
  305SOL    HW2  915   0.452   1.697   0.847  0.2020  1.1226  1.7479
  306SOL     OW  916   0.514   1.374   2.515  0.5975 -0.3399 -0.2199
  306SOL    HW1  917   0.450   1.444   2.554 -0.6040  0.8964  1.3279
  306SOL    HW2  918   0.477   1.283   2.492  1.5961 -0.6326 -2.8618
  307SOL     OW  919   1.218   0.049   1.427 -0.1550  0.7391 -0.0217
  307SOL    HW1  920   1.234   0.073   1.524  1.7775  0.7105 -0.8146
  307SOL    HW2  921   1.225   3.040   1.402 -1.2968 -0.7330 -1.6440
  308SOL     OW  922   0.148   0.863   1.142 -0.4219  0.8853 -0.4126
  308SOL    HW1  923   0.094   0.868   1.057 -0.0427 -0.2570  0.0748
  308SOL    HW2  924   0.225   0.796   1.128  1.6770 -0.9195 -2.2391
  309SOL     OW  925   2.534   1.104   0.972 -0.4371 -0.4624 -0.0418
  309SOL    HW1  926   2.469   1.130   0.897  1.0335 -1.0443 -2.2467
  309SOL    HW2  927   2.618   1.166   0.975 -0.3277  2.6788 -3.5385
  310SOL     OW  928   0.350   1.921   2.693 -0.0872  0.5128  0.1042
  310SOL    HW1  929   0.395   1.829   2.704 -0.3627 -2.1335  0.6866
  310SOL    HW2  930   0.315   1.929   2.596  2.0444 -2.0394  0.4404
  311SOL     OW  931   2.569   2.530   2.426 -0.1055  0.5558 -0.0393
  311SOL    HW1  932   2.555   2.561   2.327 -1.9902  0.2567 -3.0604
  311SOL    HW2  933   2.626   2.600   2.474  0.7993  1.4271 -1.0318
  312SOL     OW  934   2.174   1.886   3.056 -0.5695 -0.9224 -0.3582
  312SOL    HW1  935   2.248   1.822   3.018 -3.6848  1.0878 -2.0229
  312SOL    HW2  936   2.202   1.934   0.051 -1.2313 -0.2282  0.4324
  313SOL     OW  937   0.447   3.030   0.646 -0.1007  0.1922  0.3708
  313SOL    HW1  938   0.503   3.030   0.734  1.6586  0.3503 -0.2024
  313SOL    HW2  939   0.449   0.028   0.595  1.2799  2.0576  4.2549
  314SOL     OW  940   1.925   1.094   2.705  0.3311 -0.1304  0.2238
  314SOL    HW1  941   1.961   1.050   2.789  0.8572  1.4523  2.0955
  314SOL    HW2  942   1.942   1.190   2.715  0.2948  0.0342 -0.5279
  315SOL     OW  943   1.542   3.080   2.464 -0.4652 -0.2362 -0.8247
  315SOL    HW1  944   1.463   0.002   2.526 -1.8039  0.5191 -2.0377
  315SOL    HW2  945   1.574   0.075   2.424  0.0266 -0.6187 -0.7294
  316SOL     OW  946   2.945   0.999   0.637  0.0526  0.4254  0.4189
  316SOL    HW1  947   2.945   0.957   0.725  1.2986  3.5560 -2.6945
  316SOL    HW2  948   2.863   1.052   0.631  1.7912 -0.5214 -1.2679
  317SOL     OW  949   0.620   2.756   2.855 -0.0189 -0.1663 -0.5509
  317SOL    HW1  950   0.540   2.763   2.915 -1.8057  1.9918 -1.8659
  317SOL    HW2  951   0.709   2.777   2.904  1.4299 -0.7854 -0.9930
  318SOL     OW  952   2.557   2.475   0.953 -0.7899 -0.3373 -0.3295
  318SOL    HW1  953   2.577   2.524   0.867 -0.8086  0.9272  2.1990
  318SOL    HW2  954   2.467   2.497   0.987  2.3408  1.8903  0.9413
  319SOL     OW  955   1.000   2.000   2.694 -0.5607 -0.6822  0.2266
  319SOL    HW1  956   1.061   2.028   2.619 -1.2388 -0.7834  1.6105
  319SOL    HW2  957   1.013   1.903   2.717  1.5047  0.4959  0.5511
  320SOL     OW  958   0.423   1.991   1.289 -0.6883 -0.1132  0.1149
  320SOL    HW1  959   0.422   1.895   1.252  1.3549 -1.0643  2.4277
  320SOL    HW2  960   0.397   1.985   1.388  0.3436  1.2449  2.0652
  321SOL     OW  961   1.032   2.525   1.922 -0.4848 -0.1027  0.3836
  321SOL    HW1  962   0.947   2.557   1.875  0.6568  1.7623 -0.6243
  321SOL    HW2  963   1.118   2.574   1.889  2.3955 -0.4602  0.5754
  322SOL     OW  964   2.484   1.778   2.011 -0.1542 -0.0977 -0.0292
  322SOL    HW1  965   2.522   1.713   2.080 -0.3020  0.6118 -2.2660
  322SOL    HW2  966   2.554   1.847   1.991 -1.4870 -2.6067 -0.8106
  323SOL     OW  967   2.847   0.432   0.933  0.0907 -0.2191  0.7487
  323SOL    HW1  968   2.830   0.433   0.830 -1.6015  0.6178 -1.5271
  323SOL    HW2  969   2.948   0.437   0.948  2.8533 -3.0872  0.5729
  324SOL     OW  970   2.700   2.724   2.597  0.1737  0.3810 -0.0688
  324SOL    HW1  971   2.754   2.720   2.680 -2.9594  0.4015 -1.3487
  324SOL    HW2  972   2.756   2.751   2.515 -0.1493  0.4478  0.7146
  325SOL     OW  973   1.038   0.192   2.675 -0.3118  0.1421  0.2020
  325SOL    HW1  974   1.085   0.101   2.685 -1.2175  0.6490 -0.9647
  325SOL    HW2  975   0.952   0.181   2.622  1.7881  2.5401  2.9232
  326SOL     OW  976   2.127   2.410   1.651 -0.1427  0.4694 -0.2385
  326SOL    HW1  977   2.137   2.505   1.691  1.4584  1.7463 -0.3270
  326SOL    HW2  978   2.037   2.369   1.683 -1.1764  1.0387  0.6312
  327SOL     OW  979   2.021   0.033   0.256  0.1955  0.1136 -0.2128
  327SOL    HW1  980   2.053   0.126   0.232 -1.0777 -0.5472  2.0231
  327SOL    HW2  981   2.051   3.067   0.180  1.3964 -2.4784 -2.3462
  328SOL     OW  982   0.359   1.374   1.959 -0.1497 -0.0738 -0.0040
  328SOL    HW1  983   0.451   1.409   1.986  4.8344  2.2392  3.8161
  328SOL    HW2  984   0.299   1.445   1.919 -0.4502 -2.0317 -0.0485
  329SOL     OW  985   2.117   0.521   1.790 -0.4625  0.1188  0.1180
  329SOL    HW1  986   2.020   0.525   1.818  0.0365 -0.1912  0.9264
  329SOL    HW2  987   2.168   0.606   1.805  0.4056  0.7100  0.5902
  330SOL     OW  988   0.109   1.142   0.907  0.0319 -0.2188 -0.1432
  330SOL    HW1  989   0.094   1.045   0.913 -1.1159  1.4718 -0.8095
  330SOL    HW2  990   0.108   1.181   1.005  2.1066 -0.4129 -0.8319
  331SOL     OW  991   0.612   1.442   1.989 -0.2693  0.1459 -0.1447
  331SOL    HW1  992   0.697   1.474   1.939  0.3749 -2.1209  3.7750
  331SOL    HW2  993   0.636   1.417   2.088  5.3454  1.0300  1.6677
  332SOL     OW  994   0.071   2.697   1.621  0.0241 -0.0193  0.0493
  332SOL    HW1  995   0.114   2.743   1.542  0.1490 -1.5055  1.9029
  332SOL    HW2  996   0.019   2.615   1.592  0.3260  0.4243  1.1775
  333SOL     OW  997   2.488   0.118   1.091 -0.0765 -0.1221 -0.1133
  333SOL    HW1  998   2.586   0.140   1.088 -2.2238 -2.7731  0.1385
  333SOL    HW2  999   2.466   0.020   1.115 -1.8089 -0.3668 -0.0324
  334SOL     OW 1000   0.155   1.439   0.730 -0.5740 -0.1497 -0.0471
  334SOL    HW1 1001   0.230   1.436   0.662  0.6368 -0.2374  0.6570
  334SOL    HW2 1002   0.180   1.435   0.828 -3.9211  1.6882 -1.2668
  335SOL     OW 1003   0.157   2.512   2.926  0.1028  0.2714 -0.3918
  335SOL    HW1 1004   0.119   2.432   2.869 -0.6517 -0.0666  0.2828
  335SOL    HW2 1005   0.254   2.524   2.889  0.1834  0.2439 -0.5908
  336SOL     OW 1006   2.881   2.824   2.415  0.4303 -0.1652  0.2772
  336SOL    HW1 1007   2.982   2.815   2.422 -1.4662  0.6730 -1.9865
  336SOL    HW2 1008   2.842   2.922   2.405 -3.1043 -0.2389  0.8362
  337SOL     OW 1009   1.893   2.343   1.741 -0.0965 -0.5546 -0.0548
  337SOL    HW1 1010   1.841   2.284   1.680  3.1504  3.2724 -1.4831
  337SOL    HW2 1011   1.829   2.416   1.781 -1.4315  2.3702  0.0868
  338SOL     OW 1012   0.837   3.078   3.027  0.2328 -0.1744  0.0595
  338SOL    HW1 1013   0.756   0.036   3.060  0.4638  2.8838  2.5817
  338SOL    HW2 1014   0.922   0.034   3.065 -1.0739  0.4883  1.0063
  339SOL     OW 1015   0.453   1.109   2.036 -0.1654 -0.2275 -0.5897
  339SOL    HW1 1016   0.480   1.098   2.136 -0.5362  1.1522  1.8153
  339SOL    HW2 1017   0.418   1.202   2.023  1.3466  0.5720  0.8152
  340SOL     OW 1018   1.721   3.046   0.866  0.6405  0.2261  0.1639
  340SOL    HW1 1019   1.825   3.049   0.865  0.8791 -0.4346 -1.6416
  340SOL    HW2 1020   1.683   3.073   0.776 -4.6205 -1.3105 -1.1242
  341SOL     OW 1021   1.805   1.055   0.993  0.0395  0.0673  0.2105
  341SOL    HW1 1022   1.848   1.097   1.070  0.3526 -0.3385 -0.2308
  341SOL    HW2 1023   1.765   1.127   0.934  1.7041 -0.5078 -0.6704
  342SOL     OW 1024   2.360   2.767   0.180 -0.0715 -0.5836  0.3440
  342SOL    HW1 1025   2.284   2.762   0.249 -2.4943 -1.6570  1.4961
  342SOL    HW2 1026   2.453   2.730   0.215  0.8447  1.3563  3.3587
  343SOL     OW 1027   0.824   2.213   1.574  0.2900 -0.6893 -0.6595
  343SOL    HW1 1028   0.840   2.248   1.668 -1.4123 -0.1539  0.5914
  343SOL    HW2 1029   0.848   2.285   1.507  0.4339  2.0822 -1.9587
  344SOL     OW 1030   2.516   2.688   1.315  0.6145  0.0217  0.2733
  344SOL    HW1 1031   2.484   2.742   1.400  1.0058  0.4369  0.7493
  344SOL    HW2 1032   2.506   2.588   1.339  0.1619  3.0531 -0.1226
  345SOL     OW 1033   2.601   1.822   2.992 -0.5636 -0.0071  0.1543
  345SOL    HW1 1034   2.623   1.892   2.926  0.6746 -2.3446 -2.4997
  345SOL    HW2 1035   2.682   1.762   3.001 -0.6450 -1.6105 -0.2366
  346SOL     OW 1036   2.185   1.975   0.532  0.4260  0.0091  0.2166
  346SOL    HW1 1037   2.151   1.993   0.622 -0.1491  2.6858  0.0718
  346SOL    HW2 1038   2.116   2.007   0.465 -0.6449  1.5048  0.1739
  347SOL     OW 1039   1.701   1.807   1.048  0.1542  0.0819 -0.0031
  347SOL    HW1 1040   1.698   1.811   0.945  0.2310 -0.7466 -1.2494
  347SOL    HW2 1041   1.630   1.744   1.088  1.4830 -3.1724  0.2869
  348SOL     OW 1042   0.556   1.708   2.216  0.0808  0.2834  0.3434
  348SOL    HW1 1043   0.561   1.606   2.211  1.0604 -0.6220 -0.0906
  348SOL    HW2 1044   0.643   1.750   2.191  0.0339 -1.1668  0.3561
  349SOL     OW 1045   1.948   1.656   0.661  0.4609 -0.0900 -0.5859
  349SOL    HW1 1046   2.015   1.730   0.668 -1.9788 -2.6106 -0.4610
  349SOL    HW2 1047   1.969   1.579   0.725 -1.9022 -0.9157  0.0216
  350SOL     OW 1048   2.789   2.440   0.617 -0.4433 -0.5169 -0.4680
  350SOL    HW1 1049   2.785   2.394   0.706  0.2533 -0.0120 -0.1760
  350SOL    HW2 1050   2.707   2.418   0.557  2.4957  1.7855 -0.7541
  351SOL     OW 1051   0.408   2.942   1.553  0.3004  0.5002 -0.2663
  351SOL    HW1 1052   0.462   2.855   1.555 -0.8827 -1.8913 -1.0245
  351SOL    HW2 1053   0.318   2.928   1.504 -0.2009 -1.5895  1.3307
  352SOL     OW 1054   0.396   1.481   1.214 -0.1943  0.0296  0.4196
  352SOL    HW1 1055   0.372   1.422   1.294  0.1652  0.8671  0.6304
  352SOL    HW2 1056   0.446   1.429   1.143 -2.3212  1.1588 -0.9207
  353SOL     OW 1057   1.231   1.163   2.723 -0.4751 -0.4617  0.2049
  353SOL    HW1 1058   1.137   1.199   2.704 -0.7682  2.7110 -1.0722
  353SOL    HW2 1059   1.281   1.222   2.793  1.1362 -2.8868 -0.5504
  354SOL     OW 1060   1.459   0.043   1.754 -0.0719 -0.3688  0.2962
  354SOL    HW1 1061   1.432   0.141   1.752 -1.6868 -0.4891  0.6508
  354SOL    HW2 1062   1.387   3.067   1.784 -0.8037 -0.4225  1.2679
  355SOL     OW 1063   2.381   1.230   0.533  0.9876  0.4017  0.0690
  355SOL    HW1 1064   2.457   1.268   0.587  0.1257 -1.6883  0.7563
  355SOL    HW2 1065   2.393   1.231   0.431  0.8370  0.5607  1.4312
  356SOL     OW 1066   2.863   1.770   1.459 -0.1430  0.4045 -0.1252
  356SOL    HW1 1067   2.782   1.800   1.517 -1.1322  0.8531 -1.5790
  356SOL    HW2 1068   2.949   1.823   1.485 -2.5219  0.0484  1.1319
  357SOL     OW 1069   0.512   2.676   1.454  0.2121 -0.1173 -0.2082
  357SOL    HW1 1070   0.414   2.640   1.439 -0.3954 -1.3309  0.3797
  357SOL    HW2 1071   0.544   2.739   1.381 -1.4359 -1.1891  0.4480
  358SOL     OW 1072   2.802   1.398   1.824  0.3271 -0.4088 -0.8433
  358SOL    HW1 1073   2.819   1.350   1.736  2.0167  0.1423  1.3981
  358SOL    HW2 1074   2.778   1.495   1.817 -1.6589  1.6939 -1.3861
  359SOL     OW 1075   2.292   2.675   2.655 -0.7915 -0.1364  0.5609
  359SOL    HW1 1076   2.285   2.620   2.568  0.3536 -1.0652 -3.0230
  359SOL    HW2 1077   2.195   2.696   2.693 -3.0262 -2.0163 -0.9874
  360SOL     OW 1078   0.706   0.402   0.934  0.2397  0.0320 -0.1953
  360SOL    HW1 1079   0.775   0.476   0.940  0.3785 -0.2567  0.1046
  360SOL    HW2 1080   0.690   0.373   0.838  0.7930 -0.7864 -1.8324
  361SOL     OW 1081   1.938   0.255   0.695 -0.8928  0.1108 -0.1116
  361SOL    HW1 1082   1.972   0.158   0.679  0.0263  1.5198 -1.6677
  361SOL    HW2 1083   2.006   0.304   0.760  1.0292  0.7927  0.1363
  362SOL     OW 1084   1.877   1.219   1.195  0.3213 -0.5833  0.4258
  362SOL    HW1 1085   1.925   1.307   1.205  4.7783 -1.2332  2.0323
  362SOL    HW2 1086   1.916   1.158   1.265  0.2783 -0.9810 -1.3486
  363SOL     OW 1087   2.257   1.472   2.105 -0.4932 -0.3758 -0.1718
  363SOL    HW1 1088   2.353   1.509   2.131  0.1080  3.7705  0.0103
  363SOL    HW2 1089   2.266   1.377   2.070  1.1227  2.8497  0.4203
  364SOL     OW 1090   0.393   0.008   1.239 -0.2514 -0.5823 -0.0974
  364SOL    HW1 1091   0.327   0.015   1.317  1.1548 -1.3526  2.5419
  364SOL    HW2 1092   0.351   3.089   1.150 -0.9089 -0.9635 -0.5598
  365SOL     OW 1093   0.431   3.087   2.981  0.3935  0.1076 -0.1909
  365SOL    HW1 1094   0.362   0.066   2.967 -0.5019 -0.0582 -4.0723
  365SOL    HW2 1095   0.508   0.035   3.035 -0.5247 -0.4607 -0.8746
  366SOL     OW 1096   2.006   2.402   2.984  0.0823  0.1328 -0.1278
  366SOL    HW1 1097   2.032   2.462   2.904  1.3009  0.7321 -2.5271
  366SOL    HW2 1098   2.090   2.397   3.043 -0.9270  2.3710  0.7825
  367SOL     OW 1099   2.725   2.410   2.883  0.4381 -0.4897 -0.2493
  367SOL    HW1 1100   2.630   2.440   2.912  1.0666 -0.4489  1.3822
  367SOL    HW2 1101   2.784   2.434   2.963  1.1546  1.9697 -2.8221
  368SOL     OW 1102   0.106   1.237   1.150 -0.6882  0.4485  0.2982
  368SOL    HW1 1103   0.038   1.303   1.186  3.2044  0.3357  0.5262
  368SOL    HW2 1104   0.136   1.176   1.226 -1.9967  2.7086  0.0248
  369SOL     OW 1105   0.840   2.773   3.034  0.0751 -0.1055 -0.1173
  369SOL    HW1 1106   0.935   2.745   3.056  1.0280  1.1022 -0.8771
  369SOL    HW2 1107   0.835   2.874   3.049  2.0366  0.8825  2.9043
  370SOL     OW 1108   2.812   0.692   0.417  0.3850 -0.3612  0.4092
  370SOL    HW1 1109   2.906   0.663   0.450  1.1344  0.4324  0.6247
  370SOL    HW2 1110   2.809   0.797   0.409  2.6816  1.1546 -0.6637
  371SOL     OW 1111   1.694   2.385   0.754  0.3211  0.0576  0.2199
  371SOL    HW1 1112   1.605   2.355   0.797 -0.2928 -0.9046  0.7533
  371SOL    HW2 1113   1.681   2.425   0.659  1.0408  2.4514 -2.7437
  372SOL     OW 1114   3.010   0.985   2.866  0.3200  0.0556 -0.6194
  372SOL    HW1 1115   3.058   0.893   2.874  2.9761 -1.0218  0.1775
  372SOL    HW2 1116   3.005   1.015   2.769 -1.5023 -2.5218  1.6225
  373SOL     OW 1117   2.770   1.856   1.224  0.4495  0.2809 -0.3401
  373SOL    HW1 1118   2.831   1.822   1.299  0.7337 -0.0870 -0.6877
  373SOL    HW2 1119   2.679   1.805   1.221 -1.2587  1.4544 -0.6254
  374SOL     OW 1120   0.594   2.676   0.042  0.4364  0.5110 -0.5833
  374SOL    HW1 1121   0.516   2.654   3.069 -0.0932 -0.6118 -0.7516
  374SOL    HW2 1122   0.682   2.690   3.086  0.8227 -0.4357 -1.1470
  375SOL     OW 1123   0.381   0.290   0.053 -0.0914  0.2581  0.0169
  375SOL    HW1 1124   0.360   0.329   0.145  0.1945 -0.7718  1.4835
  375SOL    HW2 1125   0.374   0.359   3.070 -1.8767 -2.7812  1.6252
  376SOL     OW 1126   0.161   2.188   1.595 -0.0414  0.0551  0.8201
  376SOL    HW1 1127   0.063   2.165   1.602  0.0712  1.9211  1.0220
  376SOL    HW2 1128   0.175   2.253   1.515 -0.8445 -0.8004 -0.9828
  377SOL     OW 1129   1.730   2.349   2.634 -0.1450 -0.1131  0.6666
  377SOL    HW1 1130   1.751   2.258   2.669  1.9826  0.3915 -1.3518
  377SOL    HW2 1131   1.668   2.342   2.549 -1.0336  0.9021 -0.0794
  378SOL     OW 1132   0.707   0.479   0.200  0.1615  0.5535 -0.0544
  378SOL    HW1 1133   0.736   0.460   0.104 -0.2339  1.6785  0.5219
  378SOL    HW2 1134   0.717   0.578   0.218 -0.0020 -1.6940 -0.9426
  379SOL     OW 1135   0.522   1.141   0.614 -0.4158  0.0326 -0.2063
  379SOL    HW1 1136   0.615   1.127   0.662  1.8723  2.1581  2.0322
  379SOL    HW2 1137   0.516   1.231   0.569  0.9918 -0.2445 -0.0893
  380SOL     OW 1138   0.084   1.945   1.773 -0.0721  0.5230 -0.3255
  380SOL    HW1 1139   0.161   1.884   1.735  1.6899  1.6876  2.8500
  380SOL    HW2 1140   0.114   2.000   1.851 -1.4479  0.2337 -1.4888
  381SOL     OW 1141   0.434   0.841   1.937 -0.9337 -0.2901  0.5646
  381SOL    HW1 1142   0.439   0.943   1.946  1.9351  0.6864  0.2691
  381SOL    HW2 1143   0.506   0.804   1.874 -1.0317 -0.0453 -1.6163
  382SOL     OW 1144   2.513   2.100   0.380 -0.2821  0.4637 -0.3201
  382SOL    HW1 1145   2.595   2.103   0.440 -1.1007  0.7789  1.6303
  382SOL    HW2 1146   2.541   2.050   0.295  0.3284 -0.7026  0.9201
  383SOL     OW 1147   2.706   2.011   2.821  0.0094 -0.1280 -0.1061
  383SOL    HW1 1148   2.802   1.978   2.814 -1.7483  1.4504  0.9079
  383SOL    HW2 1149   2.696   2.102   2.782 -0.4953 -0.7856  0.0934
  384SOL     OW 1150   0.415   2.278   2.682 -0.2073 -0.2735  0.3363
  384SOL    HW1 1151   0.354   2.236   2.748  2.6185  2.3170  2.3469
  384SOL    HW2 1152   0.503   2.225   2.684  3.9696 -1.4009  1.4431
  385SOL     OW 1153   2.969   1.593   0.936 -0.0805 -0.1826  0.0742
  385SOL    HW1 1154   2.873   1.620   0.949  3.2956 -0.7771 -2.9008
  385SOL    HW2 1155   2.979   1.496   0.957  0.9972  1.2340  0.5220
  386SOL     OW 1156   2.030   1.474   1.263 -0.2932  0.1419  0.1333
  386SOL    HW1 1157   1.942   1.523   1.275 -0.2739 -1.1768 -0.7236
  386SOL    HW2 1158   2.099   1.543   1.232 -2.1613  1.9491 -0.8332
  387SOL     OW 1159   2.754   1.185   1.982  0.3310  0.1585 -0.0059
  387SOL    HW1 1160   2.753   1.097   1.930 -0.5159 -1.1120 -1.9888
  387SOL    HW2 1161   2.759   1.269   1.926 -0.0054 -1.0933  1.2011
  388SOL     OW 1162   2.705   1.328   2.197  0.3688 -0.2002 -0.0071
  388SOL    HW1 1163   2.702   1.277   2.287  2.1684 -1.5321  2.0904
  388SOL    HW2 1164   2.719   1.261   2.117 -0.2214 -0.8399 -2.9056
  389SOL     OW 1165   2.229   1.212   1.961 -0.3376  0.0327  0.5766
  389SOL    HW1 1166   2.148   1.170   2.006  0.5964 -0.5854  2.4442
  389SOL    HW2 1167   2.293   1.137   1.938  0.2880 -0.3868 -1.3077
  390SOL     OW 1168   1.923   2.569   0.597  0.1667 -0.3360  0.4932
  390SOL    HW1 1169   1.937   2.482   0.649 -0.0897  1.7817 -0.4846
  390SOL    HW2 1170   1.861   2.633   0.648 -0.7883  0.4814 -0.5172
  391SOL     OW 1171   2.375   1.909   1.078 -0.5219 -0.3486  0.1249
  391SOL    HW1 1172   2.302   1.961   1.129 -1.4857  0.4871 -2.2711
  391SOL    HW2 1173   2.437   1.973   1.033 -0.9661 -3.1402  1.6517
  392SOL     OW 1174   0.097   2.660   1.187  0.1453 -0.5561 -0.2113
  392SOL    HW1 1175   0.104   2.618   1.096  2.4367 -2.5223 -1.3750
  392SOL    HW2 1176   0.080   2.762   1.176  1.1169  1.7150 -1.7084
  393SOL     OW 1177   1.879   2.131   2.694  0.5476  0.4371 -0.0560
  393SOL    HW1 1178   1.965   2.133   2.750 -1.5201 -0.9022  2.3805
  393SOL    HW2 1179   1.853   2.035   2.675  0.6786 -1.6566 -0.6579
  394SOL     OW 1180   0.215   0.231   2.520  0.4358 -0.0976  1.0451
  394SOL    HW1 1181   0.141   0.164   2.504  1.6051 -1.2213 -0.8368
  394SOL    HW2 1182   0.268   0.195   2.603  1.3622  0.1655  1.1440
  395SOL     OW 1183   0.797   0.830   0.919  0.2766 -0.1255  0.2287
  395SOL    HW1 1184   0.841   0.743   0.903 -0.7482  1.9414  0.5036
  395SOL    HW2 1185   0.762   0.838   1.015 -0.3793 -1.3603  0.5522
  396SOL     OW 1186   1.040   0.913   0.484 -0.0229  0.6071  0.1248
  396SOL    HW1 1187   0.985   0.992   0.512  0.8952 -1.3505  0.3872
  396SOL    HW2 1188   1.079   0.930   0.395 -2.8909  0.6740 -0.4189
  397SOL     OW 1189   0.184   0.781   2.033  0.3109  0.1055  0.2126
  397SOL    HW1 1190   0.283   0.793   2.005 -0.5811 -1.0604 -0.5158
  397SOL    HW2 1191   0.128   0.832   1.965  0.8984 -0.9060 -1.2150
  398SOL     OW 1192   0.750   0.358   0.639  0.6204  0.2969 -0.0657
  398SOL    HW1 1193   0.656   0.321   0.621 -2.7901 -1.1628  0.6776
  398SOL    HW2 1194   0.823   0.289   0.651 -1.0267 -0.7286  0.9448
  399SOL     OW 1195   1.836   2.983   1.564  0.5232 -0.2423 -0.2042
  399SOL    HW1 1196   1.860   3.057   1.628  0.0459  1.9411  1.1922
  399SOL    HW2 1197   1.774   3.014   1.488  0.7911 -1.0257 -0.9970
  400SOL     OW 1198   0.959   1.692   2.035 -0.3055 -0.2414 -0.9322
  400SOL    HW1 1199   0.890   1.749   2.085  1.3745 -1.9758  1.6550
  400SOL    HW2 1200   1.053   1.736   2.037  0.1964 -0.4444 -2.4550
  401SOL     OW 1201   0.622   0.665   2.740 -0.0117  0.1497  0.3252
  401SOL    HW1 1202   0.630   0.568   2.722  3.2783 -0.1639  2.1289
  401SOL    HW2 1203   0.525   0.700   2.733 -2.0538 -0.7500  0.9851
  402SOL     OW 1204   2.882   2.099   1.272 -0.0048 -0.3611 -0.3961
  402SOL    HW1 1205   2.836   2.139   1.354 -0.5921  1.1994 -0.1770
  402SOL    HW2 1206   2.862   2.005   1.249  1.3426  2.2669 -0.6839
  403SOL     OW 1207   3.026   0.952   1.966 -0.4105  0.3331  0.3539
  403SOL    HW1 1208   2.936   0.957   1.918 -0.2801 -1.5356  0.3646
  403SOL    HW2 1209   3.044   1.039   2.016 -0.1314  0.5292 -1.8597
  404SOL     OW 1210   2.964   2.702   1.809 -0.4885  0.4474 -0.0593
  404SOL    HW1 1211   3.035   2.700   1.737 -2.0939 -0.5601 -0.5699
  404SOL    HW2 1212   2.869   2.674   1.781 -2.2137 -2.9837 -2.7349
  405SOL     OW 1213   0.568   0.421   1.870 -0.2083  0.0996  0.7196
  405SOL    HW1 1214   0.664   0.433   1.842  0.1512 -0.9797  0.2542
  405SOL    HW2 1215   0.561   0.445   1.970  1.0106  0.8542  4.6036
  406SOL     OW 1216   1.553   2.091   2.197  0.5333 -0.1618 -0.2212
  406SOL    HW1 1217   1.639   2.138   2.185 -3.0802 -1.6771  1.1147
  406SOL    HW2 1218   1.575   1.995   2.218  0.4529  4.7020  0.8460
  407SOL     OW 1219   1.384   1.251   2.465  0.4667  0.1718  0.4220
  407SOL    HW1 1220   1.303   1.236   2.408  1.5054  0.3906  1.3647
  407SOL    HW2 1221   1.365   1.223   2.562  0.1526  0.2749 -3.4847
  408SOL     OW 1222   0.983   0.242   2.283 -0.5791 -0.1550 -0.0960
  408SOL    HW1 1223   0.979   0.212   2.381 -1.9282  1.2575 -1.4990
  408SOL    HW2 1224   0.917   0.189   2.228  2.7717  2.5304  3.1388
  409SOL     OW 1225   0.477   2.029   0.150 -0.0892 -0.1871  0.0769
  409SOL    HW1 1226   0.476   1.958   0.077 -1.5777 -1.3229 -1.8289
  409SOL    HW2 1227   0.556   2.011   0.212  0.4037  1.7959  1.0515
  410SOL     OW 1228   2.871   1.382   0.367 -0.4985 -0.0866 -0.2687
  410SOL    HW1 1229   2.967   1.423   0.373  1.3352  0.5369  0.3356
  410SOL    HW2 1230   2.851   1.354   0.270 -1.0660 -0.9434 -0.1797
  411SOL     OW 1231   2.763   0.186   0.981 -0.0822  0.4501 -0.2677
  411SOL    HW1 1232   2.784   0.286   0.976  0.4879  0.1520 -0.6605
  411SOL    HW2 1233   2.793   0.144   0.892 -1.8088  0.4887  0.3830
  412SOL     OW 1234   1.354   0.974   1.169 -0.2965 -0.2116 -0.5729
  412SOL    HW1 1235   1.424   0.990   1.098  0.2532 -3.2125  0.9314
  412SOL    HW2 1236   1.396   0.946   1.259  0.8003  0.1729 -2.3319
  413SOL     OW 1237   0.815   2.687   1.405 -0.0882 -0.0571  0.0535
  413SOL    HW1 1238   0.813   2.786   1.378 -0.1144  1.0251  1.5040
  413SOL    HW2 1239   0.734   2.670   1.463 -0.5077 -0.3073  1.0216
  414SOL     OW 1240   2.688   1.525   2.717  0.1288 -0.3598  0.6078
  414SOL    HW1 1241   2.701   1.563   2.625  0.2611 -0.6960 -0.4091
  414SOL    HW2 1242   2.767   1.549   2.780  2.8087  0.5994 -1.1392
  415SOL     OW 1243   0.417   2.357   2.984  0.2545  0.0312 -0.2244
  415SOL    HW1 1244   0.343   2.295   2.948 -1.1561 -3.2711 -1.9267
  415SOL    HW2 1245   0.425   2.346   3.087 -0.2842 -1.7249  2.3887
  416SOL     OW 1246   1.875   3.021   0.467 -0.6720 -0.3332 -0.3155
  416SOL    HW1 1247   1.937   3.064   0.398  0.5896  1.1785 -0.5672
  416SOL    HW2 1248   1.819   2.947   0.422  1.6949  2.6863 -2.2758
  417SOL     OW 1249   0.383   0.729   1.015  0.1805  0.0182  0.1575
  417SOL    HW1 1250   0.412   0.826   1.000  1.6359 -0.5592 -1.4723
  417SOL    HW2 1251   0.408   0.671   0.936 -1.4834 -0.4340  0.6183
  418SOL     OW 1252   2.492   0.465   1.522  0.3421 -0.4528 -0.0661
  418SOL    HW1 1253   2.553   0.530   1.574  1.0040  0.4434  1.9057
  418SOL    HW2 1254   2.458   0.394   1.591 -1.7958 -0.9424  1.0323
  419SOL     OW 1255   3.077   0.215   0.429 -0.3708 -0.5000  0.1344
  419SOL    HW1 1256   0.006   0.267   0.345 -2.6458  1.8129  1.8313
  419SOL    HW2 1257   2.982   0.229   0.460  0.1481  1.2521 -0.6856
  420SOL     OW 1258   0.288   1.335   1.414 -0.2638 -0.4648  0.2148
  420SOL    HW1 1259   0.292   1.335   1.518 -0.5127 -1.7207  0.8532
  420SOL    HW2 1260   0.286   1.238   1.385 -1.2671  0.8874  0.1430
  421SOL     OW 1261   1.154   2.920   0.801 -0.0784 -0.2991 -0.0541
  421SOL    HW1 1262   1.090   2.846   0.800  1.7408  1.8146 -0.7564
  421SOL    HW2 1263   1.153   2.972   0.717 -0.1268 -2.4004  2.8473
  422SOL     OW 1264   0.138   0.516   1.381 -0.0381 -0.2389  0.1143
  422SOL    HW1 1265   0.048   0.548   1.339 -0.0903 -1.1525 -1.5883
  422SOL    HW2 1266   0.219   0.559   1.333  1.4570  1.6605  0.6128
  423SOL     OW 1267   1.095   1.015   1.258  0.7016 -0.8910  0.3123
  423SOL    HW1 1268   1.186   1.016   1.208 -0.8815 -1.1338  0.4990
  423SOL    HW2 1269   1.019   1.038   1.195  0.0823 -0.6226  0.2896
  424SOL     OW 1270   2.019   1.367   2.764 -0.3239 -0.2089 -0.1503
  424SOL    HW1 1271   2.063   1.365   2.860  2.5070 -0.6007  0.0673
  424SOL    HW2 1272   1.971   1.458   2.746 -2.7695 -0.8649  0.0731
  425SOL     OW 1273   3.038   0.416   2.020  0.8688  0.1678  0.4181
  425SOL    HW1 1274   3.019   0.518   2.015  0.2530 -0.3539 -0.7636
  425SOL    HW2 1275   3.028   0.386   2.116  0.7217 -1.0564 -0.5760
  426SOL     OW 1276   0.127   2.752   3.066 -0.5707 -0.0134 -0.2973
  426SOL    HW1 1277   0.123   2.658   3.028 -1.5059  0.7254  2.0034
  426SOL    HW2 1278   0.087   2.758   0.067  1.4107 -3.5501 -0.1489
  427SOL     OW 1279   0.923   0.898   2.613 -0.1596 -0.5887 -0.2979
  427SOL    HW1 1280   0.936   0.939   2.704 -1.7902 -1.2132  1.8448
  427SOL    HW2 1281   0.954   0.960   2.535 -2.1658  0.2903  2.6716
  428SOL     OW 1282   2.516   1.199   1.680  0.8357 -0.3398  0.0935
  428SOL    HW1 1283   2.541   1.143   1.593 -1.2448  0.2159 -3.5035
  428SOL    HW2 1284   2.507   1.299   1.655 -1.5024  2.3892 -0.4348
  429SOL     OW 1285   2.620   2.666   0.749 -0.1467 -0.1018 -0.1070
  429SOL    HW1 1286   2.714   2.636   0.737 -1.5914 -0.4673  1.7112
  429SOL    HW2 1287   2.574   2.696   0.664  0.6116  0.1465  1.0804
  430SOL     OW 1288   0.928   1.260   2.356  0.6354  0.0748  0.2265
  430SOL    HW1 1289   0.926   1.172   2.300 -1.3584 -1.1747 -0.2418
  430SOL    HW2 1290   0.916   1.238   2.453 -0.6524  2.2910  1.8254
  431SOL     OW 1291   2.825   1.489   1.438 -0.1045  0.0296  0.0147
  431SOL    HW1 1292   2.769   1.488   1.354  1.6503  1.5886  0.8341
  431SOL    HW2 1293   2.856   1.585   1.460 -1.4268  0.6083  2.0569
  432SOL     OW 1294   1.228   2.793   2.211 -0.5399  0.1263 -0.2017
  432SOL    HW1 1295   1.133   2.758   2.209 -0.8201  1.9543  1.2959
  432SOL    HW2 1296   1.287   2.723   2.165 -1.2049  1.8766  0.6264
  433SOL     OW 1297   1.895   0.081   2.463  0.5458 -0.3008 -0.5004
  433SOL    HW1 1298   1.965   0.128   2.404  1.1896  1.7950 -0.5253
  433SOL    HW2 1299   1.803   0.069   2.417 -0.9281 -1.6291  3.2331
  434SOL     OW 1300   0.384   2.682   2.279 -0.7892 -0.1021  0.3174
  434SOL    HW1 1301   0.300   2.625   2.302 -2.3918  1.2204 -0.9544
  434SOL    HW2 1302   0.384   2.704   2.177  0.6356 -2.2021 -0.3477
  435SOL     OW 1303   2.915   2.507   0.366 -0.1320 -0.3557  0.2812
  435SOL    HW1 1304   2.856   2.483   0.444  1.8948  1.5305  0.0043
  435SOL    HW2 1305   2.867   2.580   0.309 -0.6380  0.3671 -1.2657
  436SOL     OW 1306   0.809   0.567   1.773  0.3806 -0.0608  0.3181
  436SOL    HW1 1307   0.753   0.629   1.833 -2.0324  0.9342 -0.0244
  436SOL    HW2 1308   0.828   0.623   1.691 -2.3300  0.3126  1.0652
  437SOL     OW 1309   0.075   2.848   2.419 -0.2806 -0.2585  0.2908
  437SOL    HW1 1310   0.153   2.816   2.473 -0.8504 -1.8961 -3.1261
  437SOL    HW2 1311   0.104   2.860   2.321 -1.2143 -0.9057  1.7599
  438SOL     OW 1312   0.616   1.337   1.593 -0.6802 -0.1982 -0.0227
  438SOL    HW1 1313   0.643   1.268   1.518  1.2494 -2.0980 -2.9055
  438SOL    HW2 1314   0.669   1.422   1.590 -0.6128 -2.0244 -0.2998
  439SOL     OW 1315   2.196   1.135   2.263 -0.2409 -0.3324 -0.7623
  439SOL    HW1 1316   2.299   1.133   2.265  0.6881 -1.0152 -2.8668
  439SOL    HW2 1317   2.153   1.185   2.343 -0.5769 -1.3718  0.1360
  440SOL     OW 1318   0.212   0.910   0.325 -0.3456 -0.3101 -0.2363
  440SOL    HW1 1319   0.275   0.908   0.245 -0.2969  0.5331 -2.2692
  440SOL    HW2 1320   0.265   0.904   0.411 -0.5524 -2.1587 -2.8987
  441SOL     OW 1321   1.151   2.397   1.144 -0.0363  0.1629  0.0466
  441SOL    HW1 1322   1.154   2.373   1.249  0.5677  2.1438  1.8967
  441SOL    HW2 1323   1.087   2.479   1.129 -0.4283  0.2968 -5.0155
  442SOL     OW 1324   2.572   1.338   0.675 -0.3178  0.3252  0.7073
  442SOL    HW1 1325   2.546   1.354   0.771 -0.9394 -0.4778 -2.4146
  442SOL    HW2 1326   2.625   1.418   0.638 -0.2053 -0.2877 -1.2047
  443SOL     OW 1327   2.699   1.960   2.362  0.1803  0.0472 -0.0545
  443SOL    HW1 1328   2.647   2.046   2.372 -3.3989  1.6711 -2.3503
  443SOL    HW2 1329   2.691   1.923   2.267  0.7547  0.1598 -0.3592
  444SOL     OW 1330   1.780   1.209   3.064 -0.0627  0.1783  0.1179
  444SOL    HW1 1331   1.826   1.287   0.020 -0.0420 -0.7575  0.1676
  444SOL    HW2 1332   1.679   1.224   3.046 -3.9304 -0.3723 -1.5426
  445SOL     OW 1333   2.535   2.645   2.188 -0.0074 -0.6565  0.3054
  445SOL    HW1 1334   2.489   2.618   2.102 -0.6357 -0.3964 -1.8374
  445SOL    HW2 1335   2.622   2.702   2.176  0.0693  1.7676 -0.9394
  446SOL     OW 1336   0.172   1.078   1.379  0.0965 -0.1769 -0.3674
  446SOL    HW1 1337   0.210   1.071   1.474  0.4232  0.6350 -0.1212
  446SOL    HW2 1338   0.083   1.033   1.376  2.8801  0.7956  0.1557
  447SOL     OW 1339   0.863   1.549   0.769 -0.1759  0.0787 -0.0024
  447SOL    HW1 1340   0.943   1.533   0.830 -1.3812 -1.6478 -2.7228
  447SOL    HW2 1341   0.845   1.647   0.761 -0.8580 -1.3779 -2.2383
  448SOL     OW 1342   1.277   1.114   1.574  0.0854  0.2092  0.5191
  448SOL    HW1 1343   1.293   1.108   1.677  1.9691 -1.9009 -0.6765
  448SOL    HW2 1344   1.228   1.028   1.550  0.7519 -0.9932 -0.9599
  449SOL     OW 1345   0.051   2.106   2.199  0.2532  0.2076  0.5626
  449SOL    HW1 1346   0.037   2.207   2.187  1.9262 -0.7770 -0.5906
  449SOL    HW2 1347   0.114   2.076   2.125 -1.3569  0.8358  2.2401
  450SOL     OW 1348   2.909   1.971   1.822 -0.1527 -0.1920  0.3610
  450SOL    HW1 1349   2.897   2.067   1.859 -0.9731  0.2791  1.3552
  450SOL    HW2 1350   3.005   1.957   1.787  2.2803  0.4436 -0.3036
  451SOL     OW 1351   2.352   0.876   1.347 -0.1781  0.5923 -0.7070
  451SOL    HW1 1352   2.267   0.862   1.400  1.9385 -0.8904  1.3584
  451SOL    HW2 1353   2.393   0.792   1.315  1.4692  0.9942 -1.4368
  452SOL     OW 1354   0.527   1.398   0.978 -0.0796  0.1613  0.2895
  452SOL    HW1 1355   0.468   1.340   0.922 -1.4142  0.9177 -0.7650
  452SOL    HW2 1356   0.528   1.492   0.939  1.6829 -1.1928  0.8441
  453SOL     OW 1357   0.719   1.689   1.014  0.3740 -0.0907  0.3327
  453SOL    HW1 1358   0.641   1.739   1.062 -0.6665  1.5846  1.8183
  453SOL    HW2 1359   0.808   1.736   1.030 -1.6036  3.2263 -0.7515
  454SOL     OW 1360   0.432   1.609   0.076  0.7064 -0.3626  0.6114
  454SOL    HW1 1361   0.445   1.696   0.029  1.0972 -0.8268  1.7278
  454SOL    HW2 1362   0.427   1.529   0.006  1.9368 -0.4777  0.4695
  455SOL     OW 1363   1.919   0.891   0.814  0.4828  0.4663 -0.0447
  455SOL    HW1 1364   1.890   0.794   0.836  0.2282 -0.9422  0.6860
  455SOL    HW2 1365   1.910   0.955   0.897 -1.7091 -0.3587 -0.6228
  456SOL     OW 1366   2.093   2.533   0.962 -0.1952 -0.4948  0.5780
  456SOL    HW1 1367   2.166   2.589   0.916  1.5686  1.8808  0.9387
  456SOL    HW2 1368   2.132   2.493   1.045 -0.9111 -1.6891 -0.8796
  457SOL     OW 1369   2.063   2.816   2.755 -0.3508 -0.3813 -0.9767
  457SOL    HW1 1370   2.111   2.884   2.816  0.0205  0.4388  1.7720
  457SOL    HW2 1371   2.032   2.861   2.667 -0.0389  0.3166  0.3759
  458SOL     OW 1372   2.175   0.337   0.347  0.4997 -0.2507 -0.4423
  458SOL    HW1 1373   2.264   0.373   0.315 -1.2681 -0.9618 -1.7299
  458SOL    HW2 1374   2.120   0.422   0.373 -1.6165  1.0045 -0.1704
  459SOL     OW 1375   3.062   1.288   2.360  0.6652 -0.1348 -0.1597
  459SOL    HW1 1376   2.986   1.342   2.325  1.3228 -0.0908  0.6963
  459SOL    HW2 1377   0.053   1.298   2.306  1.3604 -1.8736 -0.5954
  460SOL     OW 1378   0.399   0.905   0.121 -1.5176  0.7043  0.6050
  460SOL    HW1 1379   0.432   0.976   0.057  2.5941 -2.6091 -0.2869
  460SOL    HW2 1380   0.439   0.815   0.086  0.7582 -1.2742 -0.0848
  461SOL     OW 1381   2.758   2.328   0.864 -0.2187  0.8288  0.2462
  461SOL    HW1 1382   2.676   2.377   0.897  1.4724  1.9751 -1.1304
  461SOL    HW2 1383   2.777   2.246   0.924 -1.6537  0.2533  1.2064
  462SOL     OW 1384   0.347   0.226   1.813  0.3209  0.5820 -0.0775
  462SOL    HW1 1385   0.381   0.322   1.828 -0.4295  0.9141 -0.3312
  462SOL    HW2 1386   0.348   0.196   1.712 -1.9256 -1.4949 -2.3146
  463SOL     OW 1387   1.994   2.240   1.973  0.1893  0.0744 -0.4304
  463SOL    HW1 1388   1.986   2.141   1.982 -1.4535  2.8404 -0.8875
  463SOL    HW2 1389   1.950   2.260   1.884 -0.3796 -2.2035 -0.7899
  464SOL     OW 1390   0.387   0.120   1.536  0.3274 -0.1455 -0.2969
  464SOL    HW1 1391   0.478   0.158   1.558 -5.0156 -1.7149 -1.2821
  464SOL    HW2 1392   0.395   0.019   1.538 -0.0208  0.2337  2.1936
  465SOL     OW 1393   0.900   0.043   1.515 -0.0346  0.3319 -0.0792
  465SOL    HW1 1394   0.995   0.070   1.499 -0.1618  0.1967  1.4437
  465SOL    HW2 1395   0.852   0.110   1.572  0.0627 -4.2107  1.2697
  466SOL     OW 1396   1.421   1.920   1.620  0.3152  0.1983 -0.2358
  466SOL    HW1 1397   1.468   1.857   1.554  2.2200  1.0400 -0.9973
  466SOL    HW2 1398   1.318   1.901   1.628 -1.6704 -1.4701 -1.5334
  467SOL     OW 1399   0.157   1.792   1.288  0.1395  1.2434 -0.6414
  467SOL    HW1 1400   0.119   1.693   1.289  1.5139  2.4228  2.1843
  467SOL    HW2 1401   0.249   1.788   1.258 -1.4531  1.2514  0.8595
  468SOL     OW 1402   2.465   1.962   2.727  0.0143  0.2007  0.1456
  468SOL    HW1 1403   2.571   1.961   2.732 -0.1398  0.4383 -1.5759
  468SOL    HW2 1404   2.431   1.976   2.634  0.7515  0.5853  1.4830
  469SOL     OW 1405   1.330   2.319   0.461 -0.2177  0.2581  0.5077
  469SOL    HW1 1406   1.374   2.317   0.368  2.0539  1.4611  0.7334
  469SOL    HW2 1407   1.230   2.327   0.459  0.7974  0.9235 -0.4017
  470SOL     OW 1408   2.256   1.599   0.973 -0.7020  0.2155  0.1418
  470SOL    HW1 1409   2.255   1.631   1.071  1.7520  1.3391 -3.4661
  470SOL    HW2 1410   2.323   1.520   0.970 -0.7567  1.3972  0.7738
  471SOL     OW 1411   0.213   2.433   0.236  0.7186 -0.8285 -0.2720
  471SOL    HW1 1412   0.192   2.531   0.222 -2.3878  0.5274  1.0167
  471SOL    HW2 1413   0.311   2.417   0.229 -4.0809 -0.0595  2.3266
  472SOL     OW 1414   2.853   1.856   2.093  0.5565  0.5364  0.6857
  472SOL    HW1 1415   2.869   1.763   2.127  0.3876 -0.1302 -2.3429
  472SOL    HW2 1416   2.917   1.877   2.018 -0.4083  2.1717 -2.7253
  473SOL     OW 1417   1.192   0.085   0.905  0.6721  0.3856  0.1180
  473SOL    HW1 1418   1.214   0.148   0.829 -1.7338  0.2033  0.4566
  473SOL    HW2 1419   1.202   3.081   0.867  1.3978  2.8006  1.3988
  474SOL     OW 1420   2.833   0.004   1.184  0.6900  0.1782  0.2934
  474SOL    HW1 1421   2.795   0.071   1.121  1.3056 -0.1604 -0.8775
  474SOL    HW2 1422   2.916   0.039   1.227 -0.1910  0.8111  0.7769
  475SOL     OW 1423   1.673   2.625   1.646  0.1672  0.4937 -0.0280
  475SOL    HW1 1424   1.737   2.655   1.576 -2.8347 -2.5962  4.2284
  475SOL    HW2 1425   1.573   2.632   1.622 -3.0369 -0.7627 -1.3981
  476SOL     OW 1426   0.424   0.456   0.864  0.0905 -0.0268  0.5201
  476SOL    HW1 1427   0.504   0.454   0.917 -0.6086  2.0195 -3.4819
  476SOL    HW2 1428   0.354   0.404   0.911  0.1410  3.0217 -0.4563
  477SOL     OW 1429   0.769   2.398   0.942  0.0333  0.0797  0.0076
  477SOL    HW1 1430   0.697   2.457   0.902  0.2398 -0.4145  3.2410
  477SOL    HW2 1431   0.781   2.314   0.881  0.6939 -3.0125  0.2586
  478SOL     OW 1432   0.365   2.554   2.757 -0.3407 -0.4442 -0.0195
  478SOL    HW1 1433   0.406   2.462   2.753 -0.9624  0.8470  0.2990
  478SOL    HW2 1434   0.413   2.607   2.828 -1.2745 -1.5798  1.3426
  479SOL     OW 1435   0.289   0.593   2.210  0.8107  0.0698 -0.3748
  479SOL    HW1 1436   0.219   0.545   2.274 -0.8973 -2.6382  0.3636
  479SOL    HW2 1437   0.240   0.639   2.136  2.6491 -0.5249 -0.6528
  480SOL     OW 1438   3.053   2.087   3.033 -0.5445 -0.2847 -0.6636
  480SOL    HW1 1439   3.065   2.188   3.056  0.8516 -0.2922 -1.1583
  480SOL    HW2 1440   0.035   2.027   3.076 -1.0066  1.6224  0.6446
  481SOL     OW 1441   1.463   2.338   2.112  0.4182  0.0064 -0.1001
  481SOL    HW1 1442   1.545   2.286   2.137  0.3658  1.3477 -1.8159
  481SOL    HW2 1443   1.450   2.341   2.013 -0.7860 -3.7134  1.6771
  482SOL     OW 1444   1.394   2.167   2.739  0.0510  0.4464 -0.1239
  482SOL    HW1 1445   1.466   2.103   2.782  1.4591 -0.4302  3.8894
  482SOL    HW2 1446   1.385   2.163   2.638 -0.4642  0.0967  1.1868
  483SOL     OW 1447   0.842   2.515   2.835  0.2804 -0.2704 -0.2674
  483SOL    HW1 1448   0.774   2.545   2.768 -0.6632 -0.7768  0.8252
  483SOL    HW2 1449   0.935   2.567   2.832  3.8976 -0.2390 -0.1023
  484SOL     OW 1450   0.115   0.086   0.832 -0.3578 -0.1603 -0.6257
  484SOL    HW1 1451   0.020   0.121   0.845 -0.3597  4.5154  0.7235
  484SOL    HW2 1452   0.115   3.085   0.785  0.2602  3.3196 -0.6920
  485SOL     OW 1453   1.752   0.863   0.614  0.9981  0.1865  0.2538
  485SOL    HW1 1454   1.816   0.886   0.693  0.6068  0.6873  0.9816
  485SOL    HW2 1455   1.694   0.782   0.641  1.9125 -3.7257 -1.2324
  486SOL     OW 1456   1.766   2.658   2.028  0.5975 -0.1015  0.4086
  486SOL    HW1 1457   1.859   2.659   2.067 -2.3766  0.9168 -0.3947
  486SOL    HW2 1458   1.703   2.690   2.096  2.3100 -0.9516  0.5409
  487SOL     OW 1459   1.746   2.110   0.764 -0.4250 -0.2252 -0.1467
  487SOL    HW1 1460   1.725   2.208   0.744  0.9249  1.7789  1.6115
  487SOL    HW2 1461   1.795   2.099   0.851 -0.9182 -3.1759 -2.1205
  488SOL     OW 1462   1.992   0.792   0.074  0.3363 -0.1519 -0.2985
  488SOL    HW1 1463   1.965   0.827   0.166 -0.9671  3.4191  2.0439
  488SOL    HW2 1464   2.089   0.760   0.062  2.4704  0.3308  0.3173
  489SOL     OW 1465   2.477   0.198   0.662  0.1180  0.6534  0.0424
  489SOL    HW1 1466   2.491   0.131   0.737 -2.1354  2.2426 -0.0164
  489SOL    HW2 1467   2.392   0.165   0.609 -0.3378 -0.5012  0.6944
  490SOL     OW 1468   1.512   2.782   2.854  0.1431  0.2116 -0.0696
  490SOL    HW1 1469   1.550   2.870   2.816 -1.0855 -0.8543  2.7345
  490SOL    HW2 1470   1.567   2.701   2.826  3.1653  2.3685 -0.5844
  491SOL     OW 1471   0.856   0.633   1.197  0.2995 -0.1735 -0.0400
  491SOL    HW1 1472   0.870   0.595   1.105 -1.9377  0.0440 -1.1805
  491SOL    HW2 1473   0.920   0.596   1.264  2.5942  0.4775 -0.8344
  492SOL     OW 1474   1.593   0.520   0.183  0.4805  0.3575  0.4102
  492SOL    HW1 1475   1.632   0.466   0.111 -1.2732  2.0931  0.0291
  492SOL    HW2 1476   1.656   0.548   0.254 -0.9266 -4.1133  0.8588
  493SOL     OW 1477   2.093   2.126   2.847  0.1821 -0.0800  0.0510
  493SOL    HW1 1478   2.033   2.155   2.923  0.1906 -3.0258 -0.6958
  493SOL    HW2 1479   2.192   2.130   2.877 -0.3701 -0.4058 -0.2543
  494SOL     OW 1480   0.377   1.230   0.833 -0.7401 -0.7371 -0.0739
  494SOL    HW1 1481   0.398   1.199   0.740 -1.4559 -0.3426  3.3238
  494SOL    HW2 1482   0.278   1.230   0.853 -0.5080 -1.5346 -0.3582
  495SOL     OW 1483   3.047   3.024   1.531 -0.4936 -0.2958 -0.5730
  495SOL    HW1 1484   3.012   0.023   1.502  1.8576 -1.4755  1.3376
  495SOL    HW2 1485   3.078   3.036   1.626 -3.0962  0.2322 -2.8767
  496SOL     OW 1486   2.707   2.816   1.802 -0.5157 -0.2463 -0.0679
  496SOL    HW1 1487   2.732   2.839   1.710 -2.2983 -0.4199  6.3244
  496SOL    HW2 1488   2.707   2.902   1.861  3.2505  0.5653  2.3681
  497SOL     OW 1489   1.371   1.511   2.537 -0.4647 -0.1868 -0.8066
  497SOL    HW1 1490   1.311   1.508   2.621 -3.1767 -0.7321  4.6731
  497SOL    HW2 1491   1.382   1.421   2.495  1.5504  0.9613  0.9100
  498SOL     OW 1492   0.487   2.061   0.734 -0.8176  0.4489 -0.3955
  498SOL    HW1 1493   0.468   1.996   0.655  1.4440 -0.7706 -1.4867
  498SOL    HW2 1494   0.415   2.065   0.808 -1.8841  0.9337 -0.8665
  499SOL     OW 1495   0.090   1.519   1.313  0.0340  0.4863  0.3739
  499SOL    HW1 1496   0.163   1.447   1.328 -0.7928 -1.8286 -3.1435
  499SOL    HW2 1497   0.012   1.474   1.271  0.5213  1.2598  3.3125
  500SOL     OW 1498   1.423   2.545   0.179  0.1280  0.3738 -0.1303
  500SOL    HW1 1499   1.416   2.443   0.168  1.1709 -0.0489 -0.3143
  500SOL    HW2 1500   1.516   2.584   0.171 -1.7962 -0.0007 -0.1000
  501SOL     OW 1501   2.235   2.367   1.173  0.2210  0.6054  0.3038
  501SOL    HW1 1502   2.275   2.458   1.162  2.7621 -2.1168 -1.1692
  501SOL    HW2 1503   2.283   2.304   1.106 -0.0104  0.4507 -1.3055
  502SOL     OW 1504   0.084   0.840   1.667 -0.0555 -0.0575  0.1650
  502SOL    HW1 1505   0.169   0.897   1.660 -0.0518 -2.0755 -3.3015
  502SOL    HW2 1506   0.115   0.741   1.671  0.3828 -2.9335  0.6048
  503SOL     OW 1507   2.408   3.003   1.724  0.0539  0.0546  0.2748
  503SOL    HW1 1508   2.384   2.986   1.819 -0.4430 -0.3799 -0.7822
  503SOL    HW2 1509   2.410   0.015   1.712  0.2587 -0.5754  0.2160
  504SOL     OW 1510   1.881   0.726   1.984  0.2031  0.4381  0.1931
  504SOL    HW1 1511   1.896   0.826   2.004  0.3879 -0.0222 -0.3971
  504SOL    HW2 1512   1.955   0.665   2.017 -0.5500 -0.4349 -2.1205
  505SOL     OW 1513   1.135   3.035   2.362  0.4851 -0.4259  0.5039
  505SOL    HW1 1514   1.069   2.997   2.433  0.2248  0.4772 -1.6261
  505SOL    HW2 1515   1.172   2.959   2.309 -0.7515 -1.2513  0.1225
  506SOL     OW 1516   0.489   0.570   1.657  0.1324 -0.6987 -0.1426
  506SOL    HW1 1517   0.564   0.569   1.585  0.8718 -1.2170  1.6328
  506SOL    HW2 1518   0.515   0.516   1.739  1.2623 -0.2409 -1.1105
  507SOL     OW 1519   1.875   0.086   2.915  0.1474  0.6370  0.7212
  507SOL    HW1 1520   1.822   0.148   2.852 -1.4351  0.6190  2.7235
  507SOL    HW2 1521   1.826   0.002   2.932 -0.5674  0.6025  0.7670
  508SOL     OW 1522   2.387   0.440   2.530 -0.3609  0.4947 -0.2309
  508SOL    HW1 1523   2.462   0.480   2.587  0.3021  1.5700  0.9322
  508SOL    HW2 1524   2.315   0.507   2.509  1.3780  0.8329 -3.3109
  509SOL     OW 1525   0.856   1.520   1.889  0.6546  0.1292  0.3453
  509SOL    HW1 1526   0.904   1.588   1.948  0.4854 -1.3234 -2.1952
  509SOL    HW2 1527   0.885   1.540   1.791  0.0511  1.2900 -0.7609
  510SOL     OW 1528   0.014   0.871   0.904 -0.6464  0.8679  0.1909
  510SOL    HW1 1529   0.036   0.796   0.841 -1.8396  1.1168  2.1261
  510SOL    HW2 1530   3.005   0.878   0.921 -0.0764  1.2593 -2.0336
  511SOL     OW 1531   1.584   1.596   0.834 -0.1305  0.0704 -0.1281
  511SOL    HW1 1532   1.512   1.628   0.768  0.1750  0.1174 -1.7525
  511SOL    HW2 1533   1.659   1.665   0.830 -3.9100 -0.2532 -0.2259
  512SOL     OW 1534   0.789   1.535   0.304 -0.1206 -0.4105  1.0515
  512SOL    HW1 1535   0.692   1.516   0.285 -1.4820 -1.2489  1.1225
  512SOL    HW2 1536   0.813   1.497   0.396 -0.2428  2.5149  1.3063
  513SOL     OW 1537   0.140   2.598   0.670 -0.1515 -0.0656 -0.1696
  513SOL    HW1 1538   0.208   2.668   0.637 -0.8075  1.2997  1.3015
  513SOL    HW2 1539   0.157   2.512   0.618  0.3080 -1.4227  1.4561
  514SOL     OW 1540   0.202   1.986   0.033 -0.0799 -0.0505  0.4286
  514SOL    HW1 1541   0.203   2.013   0.128  0.2067  1.9425 -0.6333
  514SOL    HW2 1542   0.203   1.886   0.033 -1.8394  0.8416 -0.1781
  515SOL     OW 1543   2.401   0.733   0.341  0.1712  0.1208  0.3107
  515SOL    HW1 1544   2.337   0.778   0.400 -0.2064  1.3873 -0.3798
  515SOL    HW2 1545   2.470   0.807   0.306 -0.5744  3.0331  1.1194
  516SOL     OW 1546   2.365   2.626   1.099  0.0751  0.3734  0.1503
  516SOL    HW1 1547   2.420   2.664   1.175  0.8135  0.3254 -2.3666
  516SOL    HW2 1548   2.362   2.691   1.022  2.2505 -0.8348  0.6430
  517SOL     OW 1549   1.383   1.748   2.963  0.5187 -0.2145 -0.4564
  517SOL    HW1 1550   1.442   1.703   3.030  0.1746  0.6246  1.8687
  517SOL    HW2 1551   1.287   1.769   2.996  0.9164 -0.4719 -0.1311
  518SOL     OW 1552   1.283   0.593   1.751  0.0630 -0.3703  0.1993
  518SOL    HW1 1553   1.191   0.567   1.784  1.6686 -2.1740 -0.5947
  518SOL    HW2 1554   1.272   0.657   1.678 -1.0081  0.0411  0.1583
  519SOL     OW 1555   2.929   2.038   0.731 -0.7382  0.3926 -0.1276
  519SOL    HW1 1556   3.005   1.986   0.782  3.3212 -0.1258 -1.0962
  519SOL    HW2 1557   2.949   2.047   0.629  0.1662 -0.0474 -0.9572
  520SOL     OW 1558   2.359   2.154   1.747  0.0154 -0.4416 -0.0928
  520SOL    HW1 1559   2.355   2.156   1.850  2.2364 -1.8334  2.4523
  520SOL    HW2 1560   2.270   2.164   1.707  1.1548 -0.5251  0.7659
  521SOL     OW 1561   0.964   2.954   2.551 -0.0948  0.0293 -0.0929
  521SOL    HW1 1562   0.991   2.975   2.644 -2.6587 -2.8642  0.5361
  521SOL    HW2 1563   0.975   2.853   2.535  0.7121  2.5113 -1.7388
  522SOL     OW 1564   2.592   0.193   2.313 -0.5564 -0.0868 -0.2036
  522SOL    HW1 1565   2.642   0.273   2.352  0.0739 -1.2138 -0.5071
  522SOL    HW2 1566   2.557   0.134   2.394 -2.1210 -0.9955  3.3300
  523SOL     OW 1567   1.495   2.198   1.595  0.0453 -0.4503 -0.1788
  523SOL    HW1 1568   1.553   2.201   1.512  0.1932 -1.1699  0.9565
  523SOL    HW2 1569   1.456   2.106   1.611  2.8567  1.6110 -0.3990
  524SOL     OW 1570   1.751   1.996   0.001 -0.5181 -0.4289  0.2205
  524SOL    HW1 1571   1.710   2.011   0.093  0.3171  1.2156  0.3576
  524SOL    HW2 1572   1.793   2.087   3.060  2.2267 -0.1664 -2.4781
  525SOL     OW 1573   3.078   0.647   0.444 -0.5666 -0.4877 -0.3959
  525SOL    HW1 1574   3.085   0.699   0.356  0.0771 -2.5640 -1.2916
  525SOL    HW2 1575   0.062   0.578   0.449 -1.1953  0.4204 -0.0908
  526SOL     OW 1576   1.049   2.913   1.124  0.1878  0.2659 -0.1573
  526SOL    HW1 1577   1.148   2.915   1.115 -1.2679  0.7811  0.4208
  526SOL    HW2 1578   0.998   2.977   1.058 -1.2922  0.5425 -2.2057
  527SOL     OW 1579   2.731   1.530   0.553 -0.3327  0.2128 -0.6390
  527SOL    HW1 1580   2.775   1.612   0.595 -0.4246  2.7000 -1.6384
  527SOL    HW2 1581   2.791   1.482   0.481 -1.0288 -0.0819 -0.4619
  528SOL     OW 1582   0.659   0.696   2.164 -0.7732  0.0290  0.1950
  528SOL    HW1 1583   0.641   0.792   2.192 -1.6231 -3.2557 -2.1976
  528SOL    HW2 1584   0.594   0.623   2.189 -1.0746  0.0401  1.5631
  529SOL     OW 1585   1.015   1.715   2.732 -0.4245 -0.0275 -0.5945
  529SOL    HW1 1586   1.089   1.653   2.763 -1.1604 -0.1427 -0.4238
  529SOL    HW2 1587   0.995   1.715   2.634 -0.7587  0.8834 -0.1340
  530SOL     OW 1588   1.652   1.312   2.430 -0.1521 -0.1623  0.0375
  530SOL    HW1 1589   1.558   1.270   2.435  0.1844 -0.2065  0.1748
  530SOL    HW2 1590   1.723   1.242   2.431 -0.9000  3.9631 -0.3979
  531SOL     OW 1591   0.698   2.320   2.950  0.3962  0.3838 -0.1644
  531SOL    HW1 1592   0.600   2.347   2.969 -0.4326  0.0917 -0.1410
  531SOL    HW2 1593   0.758   2.404   2.930 -2.7205  1.4054  0.4657
  532SOL     OW 1594   2.557   0.961   0.214  0.4970  0.1878 -0.6036
  532SOL    HW1 1595   2.543   0.968   0.114 -0.6155  0.3583  0.1824
  532SOL    HW2 1596   2.538   1.050   0.261  0.9077  0.1749 -1.8423
  533SOL     OW 1597   3.063   0.385   1.733 -0.0538 -0.8232  0.4666
  533SOL    HW1 1598   0.048   0.451   1.704  0.0171  2.3537  0.9270
  533SOL    HW2 1599   3.045   0.376   1.833  0.1628  0.6349  1.5207
  534SOL     OW 1600   1.420   0.157   2.977 -0.0461  0.1385 -0.2849
  534SOL    HW1 1601   1.377   0.234   3.024  0.3363 -1.1684  0.3672
  534SOL    HW2 1602   1.415   0.166   2.876  1.8674  0.8472 -0.9837
  535SOL     OW 1603   0.782   0.208   0.257  0.0056  0.7545 -0.4214
  535SOL    HW1 1604   0.717   0.163   0.329 -2.0332 -1.2787  2.3432
  535SOL    HW2 1605   0.752   0.303   0.251  2.7985 -4.3740  1.7828
  536SOL     OW 1606   0.539   1.665   1.756  0.2089 -0.4018  0.0529
  536SOL    HW1 1607   0.535   1.578   1.810  0.7244 -1.4070  1.0332
  536SOL    HW2 1608   0.630   1.683   1.719 -2.5263 -1.8594 -1.1605
  537SOL     OW 1609   0.416   2.524   1.975  0.0377 -0.3126 -0.1096
  537SOL    HW1 1610   0.361   2.470   1.908  1.9574  0.2411  0.2348
  537SOL    HW2 1611   0.447   2.467   2.057 -0.6182 -3.5570  3.8390
  538SOL     OW 1612   3.014   1.712   0.184 -0.0574  0.0553 -0.2365
  538SOL    HW1 1613   0.019   1.700   0.146  0.3025  0.0814 -1.7310
  538SOL    HW2 1614   3.020   1.741   0.280 -1.4037  0.2198 -2.0174
  539SOL     OW 1615   2.595   0.465   2.917 -0.3007  0.8673 -0.6880
  539SOL    HW1 1616   2.550   0.386   2.867  1.4848  2.0834 -1.4024
  539SOL    HW2 1617   2.693   0.441   2.921 -1.4703 -3.7221 -0.7388
  540SOL     OW 1618   1.610   0.812   2.542 -0.0890 -0.1734 -0.2519
  540SOL    HW1 1619   1.624   0.793   2.644 -1.4018  0.4017  1.9152
  540SOL    HW2 1620   1.524   0.865   2.522 -0.5760  1.9513 -0.6422
  541SOL     OW 1621   0.780   0.158   1.740 -0.3448  0.0180  0.1224
  541SOL    HW1 1622   0.737   0.090   1.807 -3.1207  0.9680 -0.9377
  541SOL    HW2 1623   0.831   0.229   1.799  1.5010 -0.6463  2.4855
  542SOL     OW 1624   1.922   2.520   2.556  0.9740 -0.1795  0.3034
  542SOL    HW1 1625   1.855   2.451   2.596 -0.3077  0.2615  2.1485
  542SOL    HW2 1626   1.871   2.607   2.553 -0.2495 -3.6844  1.4682
  543SOL     OW 1627   0.587   3.022   0.865  0.2648  0.4289 -0.3414
  543SOL    HW1 1628   0.609   2.928   0.907 -0.8536 -2.3593  0.6466
  543SOL    HW2 1629   0.598   0.002   0.941 -0.6637 -0.0473 -1.8210
  544SOL     OW 1630   2.828   1.584   2.221 -0.0904 -0.1069  0.0562
  544SOL    HW1 1631   2.794   1.493   2.187 -3.6447  0.1784 -2.1897
  544SOL    HW2 1632   2.805   1.608   2.320  0.8918  1.5206 -2.3929
  545SOL     OW 1633   2.003   1.896   1.321 -0.2444  0.2475  0.5811
  545SOL    HW1 1634   1.918   1.877   1.371  1.8774 -0.4703 -0.2638
  545SOL    HW2 1635   1.988   1.882   1.220 -1.4575 -0.7414  0.5850
  546SOL     OW 1636   0.388   0.218   2.305  0.2949  0.6530 -0.8295
  546SOL    HW1 1637   0.327   0.176   2.237 -2.9421  2.6035 -2.8644
  546SOL    HW2 1638   0.332   0.241   2.388  0.3580 -0.1544  0.6641
  547SOL     OW 1639   1.189   0.537   1.001  0.4505  0.4958 -0.2164
  547SOL    HW1 1640   1.187   0.570   1.096 -2.6200 -3.9449  2.4268
  547SOL    HW2 1641   1.238   0.598   0.937 -2.3050 -1.1282 -0.3531
  548SOL     OW 1642   1.095   2.620   2.835 -0.5063  0.0488 -0.5580
  548SOL    HW1 1643   1.161   2.587   2.906 -2.1077  0.4809  2.4079
  548SOL    HW2 1644   1.138   2.698   2.786  0.1381 -1.2195  1.0625
  549SOL     OW 1645   2.132   0.470   2.750 -0.1129 -0.3999 -0.0729
  549SOL    HW1 1646   2.171   0.378   2.778 -1.0710 -1.6769 -0.0313
  549SOL    HW2 1647   2.133   0.494   2.651 -3.2994  2.0780  1.9443
  550SOL     OW 1648   2.738   1.918   0.431 -0.3539 -0.0705  0.4220
  550SOL    HW1 1649   2.684   1.895   0.343 -1.3711 -0.2319 -0.6192
  550SOL    HW2 1650   2.833   1.960   0.409 -0.0029  0.7757 -1.7896
  551SOL     OW 1651   1.007   2.986   1.869  0.0425  0.7671 -0.2344
  551SOL    HW1 1652   0.938   2.952   1.802 -2.4861  1.7318 -0.1137
  551SOL    HW2 1653   1.011   3.090   1.877  0.4348  3.7341 -0.7385
  552SOL     OW 1654   3.018   2.233   2.566  0.4047 -0.0590 -0.5584
  552SOL    HW1 1655   3.017   2.155   2.501  1.9452  2.1521 -2.2796
  552SOL    HW2 1656   2.925   2.255   2.606 -0.9763 -1.1651 -1.1613
  553SOL     OW 1657   0.229   2.808   0.896 -0.3614 -0.3723 -0.1746
  553SOL    HW1 1658   0.297   2.777   0.825 -0.0395 -1.4098 -0.1569
  553SOL    HW2 1659   0.182   2.729   0.942  0.7991  0.1072 -0.5840
  554SOL     OW 1660   2.168   1.835   1.712 -0.0024 -0.0365  0.5265
  554SOL    HW1 1661   2.186   1.857   1.812  1.2911  1.4898  1.2820
  554SOL    HW2 1662   2.151   1.929   1.669 -0.2196 -0.8853 -1.4618
  555SOL     OW 1663   1.490   2.009   1.864  0.0905 -0.2741  0.2823
  555SOL    HW1 1664   1.464   1.984   1.770  1.9288 -1.5847  0.2770
  555SOL    HW2 1665   1.479   2.112   1.877  2.2038  3.9745  3.3771
  556SOL     OW 1666   1.401   1.653   1.036  0.1037 -0.4068  0.5738
  556SOL    HW1 1667   1.373   1.569   1.084  0.0614  0.4997  0.1326
  556SOL    HW2 1668   1.456   1.633   0.955 -1.7868  1.2014 -2.5550
  557SOL     OW 1669   1.455   2.892   1.552  0.0625 -0.2861  0.0923
  557SOL    HW1 1670   1.448   2.952   1.632  2.4043 -1.4118 -2.1262
  557SOL    HW2 1671   1.372   2.889   1.489 -1.8393 -0.7449 -2.2843
  558SOL     OW 1672   0.470   0.062   2.000  0.1318  0.6602 -0.7200
  558SOL    HW1 1673   0.482   0.041   2.097 -0.4894 -0.1667  0.8549
  558SOL    HW2 1674   0.426   0.154   1.984  0.8467  1.8138 -2.2348
  559SOL     OW 1675   2.271   2.947   0.754  0.2502 -0.0271 -0.2068
  559SOL    HW1 1676   2.337   3.011   0.788 -0.1136 -2.6329  0.8841
  559SOL    HW2 1677   2.188   2.991   0.722 -0.1959  0.1248 -3.1005
  560SOL     OW 1678   1.399   2.577   0.584 -0.5107 -0.5526  0.5375
  560SOL    HW1 1679   1.398   2.503   0.514 -1.0774  3.1389 -0.1196
  560SOL    HW2 1680   1.337   2.555   0.658  2.6418 -0.2394 -1.2644
  561SOL     OW 1681   1.089   0.538   0.294  0.1874 -0.2708  0.4424
  561SOL    HW1 1682   1.174   0.488   0.308  1.0007 -0.6748 -1.2727
  561SOL    HW2 1683   1.038   0.489   0.216 -1.8499 -2.8822  0.3447
  562SOL     OW 1684   0.367   1.140   2.309  0.0951 -0.3715 -0.1995
  562SOL    HW1 1685   0.295   1.074   2.272  2.4891 -0.9273 -0.8483
  562SOL    HW2 1686   0.407   1.104   2.398 -0.8678  0.7844  1.6862
  563SOL     OW 1687   1.393   2.151   2.460  0.3892 -0.2831 -0.6305
  563SOL    HW1 1688   1.345   2.231   2.419  2.5122  1.0838 -1.0098
  563SOL    HW2 1689   1.472   2.133   2.398 -1.4583  0.8054 -1.2739
  564SOL     OW 1690   2.826   0.942   0.933  0.4952  0.8226  0.2178
  564SOL    HW1 1691   2.823   1.038   0.962 -1.4732  1.3799 -0.3310
  564SOL    HW2 1692   2.759   0.929   0.850 -1.8515 -1.6816  0.0036
  565SOL     OW 1693   0.754   0.880   2.884  0.1523  0.3843  0.1094
  565SOL    HW1 1694   0.700   0.811   2.833 -0.8826 -1.0319  0.2687
  565SOL    HW2 1695   0.847   0.842   2.909  2.4812 -1.4605  1.2797
  566SOL     OW 1696   2.393   2.989   2.835  0.9000 -0.5935 -0.2412
  566SOL    HW1 1697   2.301   3.036   2.827 -1.5119 -1.4840 -0.1709
  566SOL    HW2 1698   2.422   2.954   2.746  2.6960 -1.6699  0.3434
  567SOL     OW 1699   1.551   0.967   0.943  0.4408 -0.0161 -0.1069
  567SOL    HW1 1700   1.519   1.018   0.857  0.3245  1.6469 -0.0685
  567SOL    HW2 1701   1.635   1.007   0.983 -1.6816 -1.4382  1.0961
  568SOL     OW 1702   1.728   1.901   2.636  0.4075 -0.4206 -0.3200
  568SOL    HW1 1703   1.674   1.838   2.581  1.3481  2.2667 -0.3314
  568SOL    HW2 1704   1.671   1.932   2.715 -0.7132  0.5310  2.2182
  569SOL     OW 1705   2.263   1.448   0.038 -0.4564 -0.0361  0.5391
  569SOL    HW1 1706   2.272   1.347   0.020 -1.8249 -0.4801 -1.3124
  569SOL    HW2 1707   2.349   1.497   3.088  2.3016 -2.4020  0.3728
  570SOL     OW 1708   0.046   2.430   1.888 -0.3921  0.2541 -0.4085
  570SOL    HW1 1709   0.011   2.524   1.866 -0.1913  1.1698  0.5859
  570SOL    HW2 1710   0.146   2.423   1.865 -0.2153 -0.6184 -0.0693
  571SOL     OW 1711   2.696   1.839   1.689 -0.3536  0.3209  0.4718
  571SOL    HW1 1712   2.616   1.894   1.662  0.4897 -0.0375  1.7484
  571SOL    HW2 1713   2.772   1.899   1.734  1.1415  1.0346  1.7364
  572SOL     OW 1714   1.597   1.990   0.212 -0.1723 -0.1752  0.1585
  572SOL    HW1 1715   1.498   1.981   0.209  0.8024 -2.0529  1.0648
  572SOL    HW2 1716   1.625   2.016   0.308 -0.4825 -1.1776 -2.1316
  573SOL     OW 1717   1.838   2.227   0.219  0.4632 -0.0450  0.6912
  573SOL    HW1 1718   1.786   2.273   0.142 -2.0574 -0.1459 -1.6397
  573SOL    HW2 1719   1.821   2.267   0.310  0.4151  0.2460  1.0705
  574SOL     OW 1720   1.153   0.275   1.276  0.6650 -0.0167 -0.4826
  574SOL    HW1 1721   1.166   0.184   1.325  0.7498  1.9761  0.6771
  574SOL    HW2 1722   1.188   0.272   1.179 -1.4593  0.7981  0.5255
  575SOL     OW 1723   0.756   0.981   1.601  0.8469  0.3658 -0.2449
  575SOL    HW1 1724   0.806   1.044   1.541  3.2227  2.2791 -1.4514
  575SOL    HW2 1725   0.776   1.009   1.698 -1.1745  3.6902 -0.5685
  576SOL     OW 1726   2.519   0.302   1.854 -0.0318  0.0096  0.0406
  576SOL    HW1 1727   2.454   0.252   1.792 -2.4106 -1.8292 -2.3506
  576SOL    HW2 1728   2.609   0.313   1.804 -1.3375  0.4928 -2.7082
  577SOL     OW 1729   1.376   0.967   2.553 -0.3133 -0.5312 -0.2603
  577SOL    HW1 1730   1.326   1.034   2.615  0.4429  1.1605  0.6391
  577SOL    HW2 1731   1.369   0.993   2.457 -0.8260  1.0800  0.1516
  578SOL     OW 1732   2.101   1.531   2.354 -0.0892 -0.0119  0.2386
  578SOL    HW1 1733   2.005   1.512   2.369 -0.1132 -1.1174 -0.3405
  578SOL    HW2 1734   2.137   1.495   2.267  1.5985 -0.1959  1.9721
  579SOL     OW 1735   1.199   2.040   1.381 -0.1243  0.1212  0.1635
  579SOL    HW1 1736   1.120   1.998   1.430 -0.5690  1.7311  0.6507
  579SOL    HW2 1737   1.225   1.995   1.292  1.4341 -0.2493 -0.1286
  580SOL     OW 1738   1.400   2.254   0.194 -0.7809 -0.6345  1.2278
  580SOL    HW1 1739   1.404   2.262   0.093  1.8662  0.8181 -5.0139
  580SOL    HW2 1740   1.372   2.162   0.228 -1.8687 -1.5267  3.3182
  581SOL     OW 1741   1.150   0.858   2.005  0.1787  0.0526  0.5214
  581SOL    HW1 1742   1.168   0.775   1.953  0.0181  4.1198 -0.8336
  581SOL    HW2 1743   1.170   0.853   2.102 -0.6125 -0.4322 -2.6377
  582SOL     OW 1744   0.891   1.143   1.431 -0.1904  0.2737  0.1322
  582SOL    HW1 1745   0.959   1.208   1.474  1.5172  2.2136 -1.2031
  582SOL    HW2 1746   0.937   1.073   1.375 -0.6258  4.8837  1.9116
  583SOL     OW 1747   0.925   1.275   1.995 -0.3006  0.3280 -0.2716
  583SOL    HW1 1748   1.023   1.253   1.996 -2.5754 -1.9435  2.5633
  583SOL    HW2 1749   0.904   1.363   1.948  2.6692  0.9656 -0.7909
  584SOL     OW 1750   2.336   2.208   0.961  0.2423  0.0493  0.1977
  584SOL    HW1 1751   2.426   2.161   0.953  1.4157 -2.1534 -2.2018
  584SOL    HW2 1752   2.278   2.183   0.881 -0.5243 -0.9115  0.1391
  585SOL     OW 1753   2.130   0.022   2.820  0.0024 -0.2605 -0.2814
  585SOL    HW1 1754   2.030   0.038   2.828 -1.5090 -0.2866 -0.9780
  585SOL    HW2 1755   2.184   0.106   2.853  1.2512  1.1063  0.3414
  586SOL     OW 1756   3.036   2.343   0.771 -0.3999  0.0235  0.0841
  586SOL    HW1 1757   3.008   2.316   0.678 -1.6693 -0.4640  1.4368
  586SOL    HW2 1758   2.955   2.341   0.827  0.6089  1.7920  1.0145
  587SOL     OW 1759   1.545   1.980   2.860 -0.3649  0.0806 -0.2163
  587SOL    HW1 1760   1.604   2.015   2.935 -0.5196 -1.1744 -1.1313
  587SOL    HW2 1761   1.489   1.900   2.895  0.6305  0.2390 -0.5136
  588SOL     OW 1762   0.242   0.300   0.995 -0.0998  0.1604 -0.6583
  588SOL    HW1 1763   0.238   0.267   1.096  1.3966  0.8783 -0.1050
  588SOL    HW2 1764   0.245   0.218   0.938 -0.1741 -1.5555 -0.9616
  589SOL     OW 1765   1.287   0.733   0.801 -0.4581 -0.5052  0.3540
  589SOL    HW1 1766   1.246   0.806   0.865 -2.1772 -1.2271  0.2288
  589SOL    HW2 1767   1.223   0.725   0.722 -4.1848  1.1972  0.3545
  590SOL     OW 1768   1.498   1.234   0.030  0.0143  0.3630  0.4919
  590SOL    HW1 1769   1.520   1.302   0.101 -0.9869 -1.3207  0.8279
  590SOL    HW2 1770   1.515   1.141   0.061 -1.6910  1.8326  2.3225
  591SOL     OW 1771   2.526   2.333   2.579  0.0342  0.1724  0.7996
  591SOL    HW1 1772   2.435   2.335   2.628 -1.6065 -0.0611  1.9795
  591SOL    HW2 1773   2.550   2.417   2.532  0.5998 -1.5232  0.8736
  592SOL     OW 1774   1.639   2.033   1.384 -0.1537  0.2491 -0.5902
  592SOL    HW1 1775   1.570   2.042   1.312 -0.8242 -1.8669  1.3770
  592SOL    HW2 1776   1.669   1.935   1.406 -0.4081 -3.2886  0.1359
  593SOL     OW 1777   0.660   0.136   1.018  0.0648 -0.2885  0.3697
  593SOL    HW1 1778   0.686   0.130   1.117 -2.7239  0.1801 -2.5465
  593SOL    HW2 1779   0.669   0.234   0.993 -1.7808 -2.3836  0.1437
  594SOL     OW 1780   2.609   0.675   2.438  0.4658  0.4280  0.0138
  594SOL    HW1 1781   2.617   0.733   2.523  3.2473  1.6464  0.5059
  594SOL    HW2 1782   2.509   0.675   2.408  0.4328  0.2180  0.2447
  595SOL     OW 1783   0.637   2.796   0.993  0.4533  0.1617 -0.0477
  595SOL    HW1 1784   0.596   2.707   0.985  2.5644  1.0877  1.7050
  595SOL    HW2 1785   0.621   2.832   1.084  2.4401 -3.2054 -1.5433
  596SOL     OW 1786   3.030   0.945   1.281 -0.2168  0.0985  0.0436
  596SOL    HW1 1787   2.957   0.884   1.242 -3.0122  4.1067  1.0098
  596SOL    HW2 1788   0.030   0.922   1.238  1.7869 -1.6618 -2.6102
  597SOL     OW 1789   1.397   1.737   0.283  1.0998 -0.5548 -0.1107
  597SOL    HW1 1790   1.462   1.716   0.206 -2.4857  0.2798 -0.9888
  597SOL    HW2 1791   1.431   1.722   0.375  0.2755  0.8740  0.3708
  598SOL     OW 1792   0.356   2.972   1.822  0.2015 -0.0317  0.0181
  598SOL    HW1 1793   0.411   2.966   1.737 -2.3124 -2.1448  0.7037
  598SOL    HW2 1794   0.396   3.042   1.888 -2.1518  1.3279 -0.8020
  599SOL     OW 1795   2.429   1.547   2.737  0.2402  0.0404  0.2993
  599SOL    HW1 1796   2.364   1.577   2.660 -0.4215  3.4532  1.0992
  599SOL    HW2 1797   2.523   1.542   2.703  0.2710 -0.8313 -0.3595
  600SOL     OW 1798   0.859   1.138   0.256  0.0442  0.4402 -0.1750
  600SOL    HW1 1799   0.763   1.103   0.254 -0.1735  0.6680 -0.4473
  600SOL    HW2 1800   0.880   1.168   0.348 -1.0065 -0.0601 -1.4770
  601SOL     OW 1801   0.554   0.801   0.749  0.5100 -0.0856  0.3657
  601SOL    HW1 1802   0.478   0.856   0.783  1.2692 -1.4286 -0.0287
  601SOL    HW2 1803   0.634   0.803   0.806 -0.0268  1.9204 -2.2303
  602SOL     OW 1804   1.636   0.034   0.623 -0.4222  0.6940 -0.0898
  602SOL    HW1 1805   1.675   0.091   0.547 -2.3680  1.1506  1.3388
  602SOL    HW2 1806   1.552   3.073   0.596 -1.0310 -4.4509 -1.0173
  603SOL     OW 1807   0.964   2.729   2.228  0.5438  0.0845 -0.1100
  603SOL    HW1 1808   0.977   2.703   2.327 -0.2463 -0.7967  0.0077
  603SOL    HW2 1809   0.883   2.682   2.181  1.9408  1.3930  0.7385
  604SOL     OW 1810   2.901   0.073   2.584 -0.0030 -0.1696 -0.9232
  604SOL    HW1 1811   2.981   0.068   2.518  1.0330  1.0972 -2.0893
  604SOL    HW2 1812   2.815   0.046   2.540  0.1069 -0.2165  0.7219
  605SOL     OW 1813   2.698   1.501   1.191 -0.4271 -0.2323  0.8641
  605SOL    HW1 1814   2.629   1.445   1.244 -1.3314 -1.9171  0.7987
  605SOL    HW2 1815   2.651   1.589   1.170  1.5503 -3.1880 -1.5934
  606SOL     OW 1816   0.712   1.404   2.699  0.1953 -0.0319 -0.1108
  606SOL    HW1 1817   0.732   1.491   2.749 -1.4122  2.3016 -2.7277
  606SOL    HW2 1818   0.632   1.413   2.631 -0.6772  2.0381  3.2243
  607SOL     OW 1819   0.618   0.049   0.417  0.1185  0.1253  0.4036
  607SOL    HW1 1820   0.635   3.053   0.372 -1.8010  1.1925  1.9844
  607SOL    HW2 1821   0.525   0.083   0.390  0.0858 -0.7322 -1.2503
  608SOL     OW 1822   1.777   1.608   2.019  0.3750  0.1291  0.2415
  608SOL    HW1 1823   1.765   1.520   2.066 -2.0826  2.0039  1.4296
  608SOL    HW2 1824   1.773   1.598   1.917 -0.6163 -0.3494 -0.3451
  609SOL     OW 1825   2.696   0.326   1.378 -0.1106 -0.2774 -0.4003
  609SOL    HW1 1826   2.644   0.237   1.385  0.1202  0.6679 -3.6558
  609SOL    HW2 1827   2.625   0.394   1.399 -1.7173 -0.2451 -1.6614
  610SOL     OW 1828   0.346   2.781   0.650 -0.1744  0.3938  0.1561
  610SOL    HW1 1829   0.419   2.712   0.621  0.3766 -1.8373 -2.0781
  610SOL    HW2 1830   0.385   2.873   0.657 -3.7523 -0.3609 -3.6425
  611SOL     OW 1831   1.542   0.995   2.930  0.0004  0.0180  0.1637
  611SOL    HW1 1832   1.567   1.067   2.862 -0.4814 -1.3730  1.9761
  611SOL    HW2 1833   1.598   0.992   3.015  0.4305 -0.4811  0.7932
  612SOL     OW 1834   0.658   2.179   2.125  0.0681  0.6614 -0.8866
  612SOL    HW1 1835   0.743   2.211   2.166 -3.9013  1.6001 -2.0211
  612SOL    HW2 1836   0.659   2.075   2.123 -0.1804 -4.2568 -2.9954
  613SOL     OW 1837   0.536   2.601   0.590  0.1977 -0.0513 -0.7341
  613SOL    HW1 1838   0.522   2.501   0.582  4.5626 -1.1539 -0.2758
  613SOL    HW2 1839   0.588   2.646   0.520 -0.6583 -2.6634  1.8708
  614SOL     OW 1840   2.400   2.794   1.567  0.0597  0.9554  0.4701
  614SOL    HW1 1841   2.431   2.713   1.622 -0.9830 -2.1279 -0.3311
  614SOL    HW2 1842   2.437   2.883   1.613 -0.5443  3.2711  1.8357
  615SOL     OW 1843   1.801   1.125   0.332 -0.0879  0.2238 -0.4248
  615SOL    HW1 1844   1.741   1.136   0.414  1.8082  0.4314  1.8503
  615SOL    HW2 1845   1.774   1.187   0.260  0.4805 -0.9644  2.9985
  616SOL     OW 1846   1.921   0.874   0.387  0.3774 -0.0725 -0.3168
  616SOL    HW1 1847   1.867   0.849   0.471  2.7385 -2.0416  0.3259
  616SOL    HW2 1848   1.892   0.967   0.354  0.6702  0.1818  0.3497
  617SOL     OW 1849   0.965   1.063   2.866  0.2055  0.0922  0.1866
  617SOL    HW1 1850   0.879   1.018   2.895 -0.7527 -0.6712  0.0680
  617SOL    HW2 1851   1.003   1.112   2.951 -0.6932  0.7435  2.4775
  618SOL     OW 1852   0.675   3.010   1.903 -0.1546 -0.5304  0.0090
  618SOL    HW1 1853   0.745   2.996   1.976 -0.2015  0.8781  1.9047
  618SOL    HW2 1854   0.595   3.056   1.943 -1.6515  0.5365 -2.3752
  619SOL     OW 1855   2.913   1.191   1.319 -0.5175 -0.2080  0.3558
  619SOL    HW1 1856   2.930   1.096   1.284 -0.1497 -0.9305 -2.1019
  619SOL    HW2 1857   2.911   1.194   1.420 -0.4025  0.8879 -0.9107
  620SOL     OW 1858   2.324   0.998   2.877  0.0375 -0.4216  0.0935
  620SOL    HW1 1859   2.307   1.086   2.821 -0.0880  2.9090 -0.5770
  620SOL    HW2 1860   2.257   0.925   2.845 -1.3506 -2.4180 -0.6411
  621SOL     OW 1861   2.499   2.433   1.407 -0.0215 -0.2370 -0.1430
  621SOL    HW1 1862   2.407   2.393   1.409 -2.2093  1.3372  0.3690
  621SOL    HW2 1863   2.550   2.411   1.496 -0.0694 -1.1005  1.7282
  622SOL     OW 1864   0.884   0.616   2.600 -0.3923 -0.3586  0.1681
  622SOL    HW1 1865   0.874   0.592   2.501 -0.2432 -0.5647  1.3759
  622SOL    HW2 1866   0.921   0.708   2.612 -0.7517  0.8189  1.0559
  623SOL     OW 1867   1.123   0.419   2.553 -0.0363  0.0089  0.1330
  623SOL    HW1 1868   1.110   0.325   2.590 -0.9063 -3.4085 -0.2320
  623SOL    HW2 1869   1.063   0.482   2.605  0.2173 -0.7531  0.7134
  624SOL     OW 1870   2.252   0.710   0.033  0.2287 -0.2808  0.0603
  624SOL    HW1 1871   2.231   0.706   3.025 -0.8804 -1.7419  0.8745
  624SOL    HW2 1872   2.352   0.709   0.056 -1.3387  2.8903 -1.3553
  625SOL     OW 1873   1.080   1.494   0.935  0.4919  0.0777  0.0254
  625SOL    HW1 1874   1.156   1.488   0.870 -2.6363  0.5358  0.7624
  625SOL    HW2 1875   1.083   1.434   1.015 -1.1161  1.1210  0.1691
  626SOL     OW 1876   1.839   1.120   2.447  0.1173  0.2466 -0.7552
  626SOL    HW1 1877   1.861   1.050   2.375  1.8128  0.3076  0.6439
  626SOL    HW2 1878   1.883   1.097   2.534 -0.9004  1.5640 -2.5813
  627SOL     OW 1879   1.027   3.043   2.811  0.1844  0.0273 -0.3022
  627SOL    HW1 1880   1.098   3.007   2.875  0.5627 -0.9251  4.3819
  627SOL    HW2 1881   0.940   3.031   2.861  1.9721  2.7200  0.8974
  628SOL     OW 1882   2.276   0.187   2.544  0.0433 -0.0160  0.4681
  628SOL    HW1 1883   2.215   0.181   2.624 -2.2671  0.4522 -1.8634
  628SOL    HW2 1884   2.315   0.283   2.539  1.1170 -0.1383  0.2922
  629SOL     OW 1885   0.961   0.555   2.853  0.0592 -0.1949  0.1430
  629SOL    HW1 1886   0.920   0.568   2.760 -2.7344 -1.6438  0.3420
  629SOL    HW2 1887   0.988   0.650   2.888  1.8060  2.2113  0.5845
  630SOL     OW 1888   1.234   0.115   2.107  0.1976 -0.2674 -0.1848
  630SOL    HW1 1889   1.188   0.127   2.198 -1.1546  0.8759  1.9417
  630SOL    HW2 1890   1.305   0.043   2.119 -1.6836  3.1318  1.8038
  631SOL     OW 1891   2.628   0.919   0.739  0.1009 -0.0396  0.5899
  631SOL    HW1 1892   2.553   0.978   0.776 -3.4300  0.6688 -0.6618
  631SOL    HW2 1893   2.598   0.826   0.717  0.4334  1.9919  1.0230
  632SOL     OW 1894   2.110   0.835   1.485  0.1776 -0.0652 -0.9571
  632SOL    HW1 1895   2.077   0.879   1.573 -0.3002  1.4810  2.9864
  632SOL    HW2 1896   2.104   0.734   1.493  0.3858  0.2011 -0.3113
  633SOL     OW 1897   0.907   1.413   0.530  0.3143  0.0886 -0.0053
  633SOL    HW1 1898   0.883   1.466   0.614  1.7005  0.1764 -1.3772
  633SOL    HW2 1899   1.001   1.434   0.506 -1.3281 -1.2555 -1.8311
  634SOL     OW 1900   1.971   3.037   0.936  0.1677  0.3115  0.0873
  634SOL    HW1 1901   2.013   0.017   0.998  0.5219 -0.2807 -2.0720
  634SOL    HW2 1902   1.956   2.951   0.992 -2.0430  2.7056  0.7236
  635SOL     OW 1903   1.772   0.588   1.177  0.2121  0.0635  0.4776
  635SOL    HW1 1904   1.710   0.645   1.119 -1.9364 -1.8330 -1.1346
  635SOL    HW2 1905   1.867   0.602   1.141  1.5129  0.6363 -1.0470
  636SOL     OW 1906   0.901   1.147   0.540 -0.7232  0.1744  0.0201
  636SOL    HW1 1907   0.914   1.248   0.544 -1.2924 -0.5125 -1.0013
  636SOL    HW2 1908   0.818   1.118   0.586 -0.4606  2.0403  0.6533
  637SOL     OW 1909   2.463   2.099   0.034  0.2197 -0.2347 -0.7935
  637SOL    HW1 1910   2.490   2.000   0.055  0.2284 -3.2043 -0.3875
  637SOL    HW2 1911   2.428   2.110   3.031 -0.8026  0.1105  0.6308
  638SOL     OW 1912   1.359   2.596   2.497  0.1961  0.2000  0.4453
  638SOL    HW1 1913   1.362   2.527   2.420  2.5847 -1.0508 -2.3433
  638SOL    HW2 1914   1.361   2.544   2.586 -3.0001 -1.0036  3.7670
  639SOL     OW 1915   0.892   1.953   1.226 -0.1882  0.1272 -0.3241
  639SOL    HW1 1916   0.794   1.968   1.204 -0.6878 -0.4986  0.8501
  639SOL    HW2 1917   0.965   1.993   1.163  1.1202  1.1571 -1.2273
  640SOL     OW 1918   2.513   2.878   0.527  0.2224  0.0698  0.4933
  640SOL    HW1 1919   2.482   2.939   0.446 -0.6139  1.9186 -4.1086
  640SOL    HW2 1920   2.429   2.855   0.583 -0.0665 -0.0803  1.9919
  641SOL     OW 1921   0.336   0.089   0.386 -0.1359 -0.4219  0.1237
  641SOL    HW1 1922   0.270   0.159   0.418 -0.4010  3.0535  2.1544
  641SOL    HW2 1923   0.292   3.090   0.361  0.0381 -0.9769  0.0742
  642SOL     OW 1924   2.849   0.785   1.163 -0.2855 -0.2264  0.1510
  642SOL    HW1 1925   2.778   0.712   1.152  0.9745  0.4200 -0.5182
  642SOL    HW2 1926   2.844   0.842   1.082  1.0455  0.0958  2.4974
  643SOL     OW 1927   0.819   2.011   1.909  0.1202  0.1566  0.1505
  643SOL    HW1 1928   0.729   1.980   1.873  2.5516  0.6537  2.0770
  643SOL    HW2 1929   0.837   2.112   1.894  0.5955  0.8466  3.3170
  644SOL     OW 1930   1.722   2.643   0.187 -0.3626  0.1543  0.0135
  644SOL    HW1 1931   1.782   2.667   0.108 -0.8387  1.4828  2.3694
  644SOL    HW2 1932   1.691   2.725   0.242  0.6375  1.4701  1.4457
  645SOL     OW 1933   2.116   2.162   0.769  0.1835 -0.2631 -0.4489
  645SOL    HW1 1934   2.071   2.253   0.743 -2.2102  0.1320  1.9998
  645SOL    HW2 1935   2.062   2.132   0.852 -3.7696  2.7819 -1.7385
  646SOL     OW 1936   1.178   2.917   0.328  0.8182 -0.2822  0.0611
  646SOL    HW1 1937   1.153   2.823   0.297  0.9944 -0.9828  0.9262
  646SOL    HW2 1938   1.116   2.978   0.284 -0.1082 -1.5954 -0.1429
  647SOL     OW 1939   0.326   2.776   2.015  0.0906  0.3373  0.5720
  647SOL    HW1 1940   0.335   2.835   1.937 -2.3003 -0.5166 -0.0164
  647SOL    HW2 1941   0.341   2.682   1.982 -1.5539  1.3268  0.1314
  648SOL     OW 1942   1.943   0.961   1.290 -0.0439  0.4694  0.4268
  648SOL    HW1 1943   2.006   0.971   1.204  3.1648  0.4754 -2.5205
  648SOL    HW2 1944   1.972   0.905   1.372 -0.6512  1.0543  1.9164
  649SOL     OW 1945   1.375   2.441   2.723 -0.2862  0.6389 -0.5201
  649SOL    HW1 1946   1.398   2.497   2.806 -0.4512 -1.7244  0.6556
  649SOL    HW2 1947   1.371   2.339   2.749 -0.9144  0.2297  1.6530
  650SOL     OW 1948   2.472   1.461   1.603  0.0647 -0.1750 -0.2880
  650SOL    HW1 1949   2.523   1.515   1.667  1.5224  1.5108  0.3835
  650SOL    HW2 1950   2.386   1.433   1.645 -2.2116  2.2173 -1.0232
  651SOL     OW 1951   1.463   2.265   3.021  0.1857 -0.4971 -0.1637
  651SOL    HW1 1952   1.564   2.285   3.038  3.5281  0.5343 -0.8416
  651SOL    HW2 1953   1.450   2.193   2.951  1.4227  1.4108  0.4548
  652SOL     OW 1954   0.969   2.459   0.076  0.0515 -0.2358 -0.0553
  652SOL    HW1 1955   1.007   2.552   0.093 -1.3273  0.1782 -0.0982
  652SOL    HW2 1956   0.944   2.451   3.068  0.1146  0.7877 -2.5353
  653SOL     OW 1957   2.492   2.092   1.350 -0.9331  0.1467 -0.0581
  653SOL    HW1 1958   2.516   2.156   1.272 -3.1700  1.0929 -0.5325
  653SOL    HW2 1959   2.406   2.042   1.325  1.0355 -1.6092 -2.2712
  654SOL     OW 1960   2.798   2.561   1.508 -0.0165  0.2935  0.5429
  654SOL    HW1 1961   2.796   2.659   1.525 -0.0673 -0.8536 -1.8603
  654SOL    HW2 1962   2.875   2.546   1.441 -0.5723  2.0522  0.7178
  655SOL     OW 1963   0.010   2.273   1.222  0.1941  0.2748 -0.0456
  655SOL    HW1 1964   3.022   2.211   1.256 -5.2785  0.4277  1.8361
  655SOL    HW2 1965   3.063   2.369   1.223  1.6522  1.8804  0.9895
  656SOL     OW 1966   3.083   2.660   2.725 -0.1313  0.5515  0.5283
  656SOL    HW1 1967   0.046   2.650   2.811 -0.5547  2.8550  2.4806
  656SOL    HW2 1968   3.078   2.761   2.712  1.3597  1.2318  2.2484
  657SOL     OW 1969   0.013   0.779   0.191 -0.5292 -0.5376 -0.0380
  657SOL    HW1 1970   3.014   0.817   0.167 -0.4540 -1.0235 -0.3738
  657SOL    HW2 1971   0.081   0.840   0.236  1.4708  0.3965 -0.4873
  658SOL     OW 1972   2.172   1.792   0.792 -0.2243  0.4920  0.5330
  658SOL    HW1 1973   2.204   1.724   0.861  0.2795 -0.7370  0.6105
  658SOL    HW2 1974   2.239   1.793   0.714 -1.8354 -0.1021 -2.2610
  659SOL     OW 1975   1.534   0.700   1.310 -0.1084 -0.2339 -0.2701
  659SOL    HW1 1976   1.594   0.782   1.302 -0.5690 -1.0685 -0.6758
  659SOL    HW2 1977   1.585   0.616   1.280 -1.3917 -0.7322 -0.3585
  660SOL     OW 1978   1.541   1.630   0.090 -0.1988 -0.1610 -0.1011
  660SOL    HW1 1979   1.636   1.660   0.120 -0.8914  0.8137  3.0698
  660SOL    HW2 1980   1.513   1.541   0.126 -1.1441 -0.0731 -1.4999
  661SOL     OW 1981   0.159   2.042   0.489  0.4114  0.3168 -0.5413
  661SOL    HW1 1982   0.208   2.093   0.416  0.9919 -2.5562 -0.7944
  661SOL    HW2 1983   0.065   2.008   0.469 -0.5280  1.1718  0.2319
  662SOL     OW 1984   2.983   0.682   2.082  0.1532  0.1084  0.7713
  662SOL    HW1 1985   2.931   0.706   2.165 -0.8231  0.3137 -0.4812
  662SOL    HW2 1986   3.033   0.765   2.048  1.9199  0.4841 -1.1388
  663SOL     OW 1987   2.004   1.473   0.853 -0.5604 -0.5280 -0.8192
  663SOL    HW1 1988   1.999   1.373   0.846  0.3984  3.5886 -0.2505
  663SOL    HW2 1989   2.096   1.503   0.880 -1.8055 -1.2603 -0.5324
  664SOL     OW 1990   0.622   0.429   1.237 -0.1281  0.0598 -0.2454
  664SOL    HW1 1991   0.702   0.456   1.183  0.2784 -1.9735  0.9160
  664SOL    HW2 1992   0.609   0.328   1.229  0.6765 -3.0667 -1.6374
  665SOL     OW 1993   1.204   2.961   3.051 -0.1279  0.0327  0.6310
  665SOL    HW1 1994   1.309   2.965   3.061  4.2248  2.1731  0.3088
  665SOL    HW2 1995   1.158   3.052   3.052  0.5523 -1.0519 -1.4122
  666SOL     OW 1996   0.112   0.459   2.363  0.1024 -0.1321 -0.2365
  666SOL    HW1 1997   0.163   0.405   2.438 -0.1653 -2.1221  2.3081
  666SOL    HW2 1998   0.030   0.410   2.336  1.4509 -0.0861 -2.0050
  667SOL     OW 1999   2.038   1.653   2.048  0.1213 -0.5896  0.1840
  667SOL    HW1 2000   2.101   1.577   2.055 -2.6580 -1.5962  0.1536
  667SOL    HW2 2001   1.938   1.632   2.052  0.1312 -2.6743 -2.3121
  668SOL     OW 2002   0.161   1.700   2.874  0.1896 -0.7266  0.1788
  668SOL    HW1 2003   0.177   1.764   2.798 -1.0152 -0.2221 -0.5402
  668SOL    HW2 2004   0.147   1.605   2.840 -0.0213 -2.1863 -2.4851
  669SOL     OW 2005   2.182   2.532   2.465  0.5267 -0.3650  0.1989
  669SOL    HW1 2006   2.195   2.470   2.385  0.8881 -0.6517 -0.8957
  669SOL    HW2 2007   2.086   2.525   2.501  1.8172  1.4285 -0.3052
  670SOL     OW 2008   2.519   1.034   2.417  0.0412 -0.0416 -0.7693
  670SOL    HW1 2009   2.495   1.075   2.328 -0.2921  0.1773  0.5627
  670SOL    HW2 2010   2.474   0.943   2.433 -0.4690 -0.7806  1.8381
  671SOL     OW 2011   2.464   1.243   0.270  0.4090  0.5285 -0.1445
  671SOL    HW1 2012   2.466   1.249   0.167  0.1830 -0.1317 -0.8312
  671SOL    HW2 2013   2.490   1.327   0.319  0.6938 -1.9472 -2.0088
  672SOL     OW 2014   2.720   1.186   2.421 -0.2905  0.0096 -0.1588
  672SOL    HW1 2015   2.747   1.219   2.515 -1.1258  3.2050 -0.0963
  672SOL    HW2 2016   2.628   1.133   2.421 -1.0216 -2.0642  0.6350
  673SOL     OW 2017   2.546   0.998   1.499 -0.2343  0.5236  0.2292
  673SOL    HW1 2018   2.469   0.962   1.443  1.1367  0.2256 -0.2928
  673SOL    HW2 2019   2.631   0.951   1.474 -2.2423  0.7477  1.0440
  674SOL     OW 2020   1.533   1.735   1.446  0.5755  0.5451  0.1853
  674SOL    HW1 2021   1.635   1.746   1.450  1.0065  1.3898 -1.0389
  674SOL    HW2 2022   1.500   1.644   1.482 -1.2469 -1.0955  1.3161
  675SOL     OW 2023   0.036   0.512   0.949 -0.3503  0.1058  0.2275
  675SOL    HW1 2024   0.054   0.584   0.876 -1.9083  1.5927 -0.7130
  675SOL    HW2 2025   0.110   0.439   0.940 -2.1095 -0.5464 -0.0171
  676SOL     OW 2026   2.098   0.955   1.078 -0.0511  0.5159  0.0762
  676SOL    HW1 2027   2.176   1.015   1.108 -1.2985 -1.7916 -1.5807
  676SOL    HW2 2028   2.138   0.860   1.073 -0.3705 -0.5204  1.1887
  677SOL     OW 2029   1.630   1.792   2.191  0.0985 -0.2994 -0.4100
  677SOL    HW1 2030   1.546   1.798   2.137  1.0984 -2.4539 -0.7600
  677SOL    HW2 2031   1.706   1.740   2.139  1.2020 -0.8744  0.7279
  678SOL     OW 2032   3.067   1.867   0.899 -0.3554 -0.0280 -0.1553
  678SOL    HW1 2033   0.039   1.902   0.977  0.4638 -0.5776 -0.0943
  678SOL    HW2 2034   3.016   1.793   0.942  0.7357  2.0161  0.8676
  679SOL     OW 2035   3.009   2.861   0.483 -0.3918 -0.4360 -0.1540
  679SOL    HW1 2036   2.924   2.915   0.479 -0.6544 -0.6572  0.0884
  679SOL    HW2 2037   3.009   2.807   0.568  1.8757 -0.8502  2.3983
  680SOL     OW 2038   0.247   2.308   1.340  0.0844  0.3565  0.3284
  680SOL    HW1 2039   0.317   2.278   1.274  1.9176 -0.8319  0.2013
  680SOL    HW2 2040   0.155   2.306   1.298  1.1065 -0.0219  1.3973
  681SOL     OW 2041   0.752   0.894   1.200  0.6981 -0.2651 -0.6803
  681SOL    HW1 2042   0.659   0.894   1.246 -2.9086 -0.1584  2.8256
  681SOL    HW2 2043   0.804   0.811   1.234 -0.0460 -2.2045  2.1086
  682SOL     OW 2044   1.763   2.766   0.754  0.2664 -0.1171 -0.4078
  682SOL    HW1 2045   1.749   2.862   0.781 -0.4749  1.0663 -0.6957
  682SOL    HW2 2046   1.742   2.700   0.829  1.3191  1.0383 -3.0944
  683SOL     OW 2047   2.108   1.235   1.359  0.0379  0.0307 -0.0860
  683SOL    HW1 2048   2.082   1.332   1.336 -1.2588 -0.7094  0.2792
  683SOL    HW2 2049   2.162   1.186   1.287  1.2440  0.9805  0.0736
  684SOL     OW 2050   0.263   1.745   1.696  0.0456  0.1748 -0.0177
  684SOL    HW1 2051   0.362   1.718   1.696 -0.7711 -0.9587 -0.1955
  684SOL    HW2 2052   0.211   1.671   1.748 -1.7517 -2.2337 -1.4997
  685SOL     OW 2053   2.373   1.713   0.172 -0.0146 -0.2102  0.1610
  685SOL    HW1 2054   2.290   1.660   0.200 -0.0519  2.6019 -1.5643
  685SOL    HW2 2055   2.371   1.724   0.070 -0.0613 -1.3180  1.5605
  686SOL     OW 2056   2.826   0.284   0.510 -0.0007  0.3450 -0.5156
  686SOL    HW1 2057   2.727   0.293   0.485  0.6828  2.2942  0.3192
  686SOL    HW2 2058   2.841   0.372   0.560 -0.9020  0.4995 -0.1720
  687SOL     OW 2059   1.492   3.010   0.004  0.2411  0.0296  0.0267
  687SOL    HW1 2060   1.512   3.024   0.103  0.1074  0.4841  1.7267
  687SOL    HW2 2061   1.462   0.006   3.052  0.7472 -2.2273 -0.4853
  688SOL     OW 2062   1.957   1.974   2.032  0.2923  0.4062  0.0575
  688SOL    HW1 2063   2.022   1.893   2.024  0.1750 -1.7405 -1.5270
  688SOL    HW2 2064   1.914   1.972   2.125 -0.4332 -0.6220  0.7290
  689SOL     OW 2065   2.782   0.958   1.845  0.2550 -0.2239  0.2382
  689SOL    HW1 2066   2.810   0.982   1.753  0.0458  0.7338  2.6096
  689SOL    HW2 2067   2.767   0.856   1.851  1.9963 -1.4750 -1.6991
  690SOL     OW 2068   2.099   1.205   0.887  0.4545 -0.3212 -0.1841
  690SOL    HW1 2069   2.180   1.173   0.831  2.2054 -0.8892 -1.4151
  690SOL    HW2 2070   2.064   1.130   0.947  0.7277 -2.5824  1.2817
  691SOL     OW 2071   1.031   1.362   1.177 -0.7338  0.1858 -0.1825
  691SOL    HW1 2072   1.018   1.259   1.176 -1.9449 -0.6270  0.5581
  691SOL    HW2 2073   0.936   1.402   1.186 -1.7852  1.4453  2.6689
  692SOL     OW 2074   1.693   0.124   2.282 -0.0041 -0.6108  0.0723
  692SOL    HW1 2075   1.691   0.036   2.229 -1.9616  4.3591  1.8324
  692SOL    HW2 2076   1.657   0.199   2.228  0.0490 -0.0590 -1.1955
  693SOL     OW 2077   0.260   1.257   2.698  0.1823 -0.3218 -0.3442
  693SOL    HW1 2078   0.311   1.176   2.735 -2.1103 -2.9374  1.0592
  693SOL    HW2 2079   0.167   1.231   2.674 -1.8094  0.9703 -2.0425
  694SOL     OW 2080   2.279   2.671   0.801  0.1386  0.1274  0.2185
  694SOL    HW1 2081   2.315   2.619   0.727 -0.7257  1.4365  1.9298
  694SOL    HW2 2082   2.257   2.771   0.774 -2.4499  0.7325  0.1798
  695SOL     OW 2083   1.610   1.431   2.744  0.4943 -0.4744 -0.4575
  695SOL    HW1 2084   1.708   1.466   2.755  0.4414  2.8253  0.7457
  695SOL    HW2 2085   1.568   1.481   2.667  2.0293 -0.8051 -1.4821
  696SOL     OW 2086   1.799   0.324   1.648 -0.4265 -0.0414  0.1489
  696SOL    HW1 2087   1.808   0.388   1.725 -0.0451 -1.7415  0.2972
  696SOL    HW2 2088   1.816   0.362   1.558  1.9284  2.1950  2.5180
  697SOL     OW 2089   1.720   0.274   2.030  0.1403  0.2424  0.5670
  697SOL    HW1 2090   1.743   0.177   1.997  0.4765 -0.6985  0.2080
  697SOL    HW2 2091   1.617   0.285   2.039 -2.2357 -1.1651  0.6891
  698SOL     OW 2092   1.834   1.496   2.440  0.0864  0.4413 -0.0502
  698SOL    HW1 2093   1.770   1.574   2.459 -0.8220 -0.3291  0.9898
  698SOL    HW2 2094   1.771   1.420   2.428 -0.0387  1.9670 -0.0210
  699SOL     OW 2095   1.746   1.134   0.635  0.0161  0.0187 -0.7464
  699SOL    HW1 2096   1.720   1.164   0.730 -1.1208 -2.4871  1.6110
  699SOL    HW2 2097   1.728   1.036   0.618  1.4483 -0.7801 -0.9599
  700SOL     OW 2098   1.653   2.880   0.343  0.1364 -0.0866 -0.0574
  700SOL    HW1 2099   1.618   2.846   0.435 -1.8915  0.5177  1.9897
  700SOL    HW2 2100   1.607   2.966   0.315 -0.8060 -0.9598  1.3859
  701SOL     OW 2101   0.227   0.250   1.352 -0.2504  0.5730 -0.2088
  701SOL    HW1 2102   0.206   0.340   1.397  1.6708  3.3100 -0.5186
  701SOL    HW2 2103   0.280   0.186   1.410 -1.2664  2.1235 -1.1429
  702SOL     OW 2104   1.642   2.952   1.347  0.4773  0.5996  0.2067
  702SOL    HW1 2105   1.651   2.860   1.305  1.7382 -0.8285 -0.7207
  702SOL    HW2 2106   1.584   2.939   1.426 -0.0382 -1.1126  0.5281
  703SOL     OW 2107   2.400   2.884   2.273  0.2441 -0.4244 -0.2792
  703SOL    HW1 2108   2.406   2.891   2.374  2.9000 -0.1872  0.2256
  703SOL    HW2 2109   2.455   2.806   2.235  1.6272 -1.5721 -0.4064
  704SOL     OW 2110   1.450   2.300   0.915 -0.0392  0.6935 -0.6664
  704SOL    HW1 2111   1.460   2.219   0.975  1.5482  0.1533 -3.3832
  704SOL    HW2 2112   1.387   2.285   0.842  1.9252 -2.8649  1.5423
  705SOL     OW 2113   0.283   1.767   2.123  0.0591  0.0021  0.1067
  705SOL    HW1 2114   0.382   1.763   2.152 -0.4168 -0.2832 -1.4107
  705SOL    HW2 2115   0.230   1.706   2.186 -3.3615 -1.4802  0.8748
  706SOL     OW 2116   1.655   0.305   0.023  0.1812 -0.4096 -0.0329
  706SOL    HW1 2117   1.579   0.274   3.061  1.6887  0.7358  0.6067
  706SOL    HW2 2118   1.718   0.231   0.045  1.1348  1.8150 -1.0436
  707SOL     OW 2119   1.391   2.594   2.104  0.3922 -0.4938 -0.4128
  707SOL    HW1 2120   1.408   2.497   2.131  0.1895  0.2923  0.3998
  707SOL    HW2 2121   1.345   2.597   2.015 -3.0103  1.8845 -0.7782
  708SOL     OW 2122   0.546   2.195   1.563 -0.1280 -0.2286 -0.3212
  708SOL    HW1 2123   0.484   2.116   1.560 -0.2979  1.6432 -1.9351
  708SOL    HW2 2124   0.642   2.188   1.529  2.4787  0.0382  1.0441
  709SOL     OW 2125   2.556   0.518   2.019  0.3145  0.3492  0.0639
  709SOL    HW1 2126   2.533   0.496   2.117 -2.1255 -2.2996 -0.8601
  709SOL    HW2 2127   2.538   0.439   1.959 -0.0285  1.4825  0.6167
  710SOL     OW 2128   2.997   0.227   1.513  0.3213  0.0642 -1.0313
  710SOL    HW1 2129   2.969   0.272   1.425  1.8048 -1.7484  0.0035
  710SOL    HW2 2130   3.016   0.290   1.595 -0.1971  1.8226 -0.2117
  711SOL     OW 2131   3.054   2.302   0.492 -0.2039  0.1658  0.1465
  711SOL    HW1 2132   0.057   2.339   0.505  1.7806 -1.0616  3.4583
  711SOL    HW2 2133   2.993   2.370   0.449  0.3678 -3.2282  0.0384
  712SOL     OW 2134   0.296   2.816   2.589  0.1199 -0.4845 -0.5370
  712SOL    HW1 2135   0.326   2.899   2.644  0.1837  1.1697  4.0891
  712SOL    HW2 2136   0.295   2.730   2.645  2.4677 -0.4793  2.8356
  713SOL     OW 2137   2.014   0.566   0.305  0.1131  0.2162 -0.3712
  713SOL    HW1 2138   2.023   0.539   0.211  2.6215  1.6691  0.0905
  713SOL    HW2 2139   1.927   0.622   0.315 -0.8708  0.6617  1.3963
  714SOL     OW 2140   1.641   1.991   0.484 -0.0940  0.0459  0.2987
  714SOL    HW1 2141   1.624   2.030   0.575 -1.5485 -1.0315 -0.3443
  714SOL    HW2 2142   1.739   1.955   0.476 -1.4816  1.3067  0.2440
  715SOL     OW 2143   0.042   0.349   0.177 -0.4368 -0.2423 -0.3230
  715SOL    HW1 2144   3.059   0.396   0.128  0.9096  1.0292  2.6771
  715SOL    HW2 2145   0.129   0.403   0.181 -2.7007 -0.6634 -0.8366
  716SOL     OW 2146   0.881   2.938   2.094 -0.2210 -0.2494  0.1594
  716SOL    HW1 2147   0.947   2.950   2.014  0.9565 -0.0401  0.0294
  716SOL    HW2 2148   0.904   2.854   2.142 -0.9456  1.7074 -0.1149
  717SOL     OW 2149   0.419   0.489   2.914 -0.1489 -0.3018 -0.1728
  717SOL    HW1 2150   0.483   0.441   2.855 -2.6671 -1.9382  2.2697
  717SOL    HW2 2151   0.379   0.578   2.873 -3.0566 -0.0420  0.1455
  718SOL     OW 2152   1.089   0.686   0.597 -0.4745 -0.1331 -0.2780
  718SOL    HW1 2153   1.069   0.777   0.555  1.1423 -1.1505 -2.6912
  718SOL    HW2 2154   1.006   0.630   0.597  1.5963  1.6096  2.2384
  719SOL     OW 2155   2.367   2.139   2.879  0.6125 -0.5258 -1.1235
  719SOL    HW1 2156   2.407   2.072   2.817  0.7121  0.6539 -0.4210
  719SOL    HW2 2157   2.350   2.222   2.827 -2.3066  0.2290  0.0422
  720SOL     OW 2158   1.527   0.964   1.958 -0.5476  0.6943  0.1753
  720SOL    HW1 2159   1.560   0.904   1.880  1.3010 -3.6828 -0.3328
  720SOL    HW2 2160   1.591   0.957   2.040  0.4807 -1.4533  2.6286
  721SOL     OW 2161   0.095   2.933   1.177  0.2384 -0.3946  0.3607
  721SOL    HW1 2162   0.034   3.015   1.201 -0.5834  4.1142 -0.8269
  721SOL    HW2 2163   0.182   2.965   1.137  0.2020  0.0290 -1.6953
  722SOL     OW 2164   1.168   2.003   2.473 -0.6403 -0.0908  0.0113
  722SOL    HW1 2165   1.259   2.048   2.461 -0.3525  0.7136 -1.2069
  722SOL    HW2 2166   1.179   1.906   2.450 -1.4135  0.9595  0.5037
  723SOL     OW 2167   1.575   0.615   0.666 -0.1567  0.0303  0.1505
  723SOL    HW1 2168   1.514   0.645   0.741  0.2278 -1.7880 -0.2666
  723SOL    HW2 2169   1.632   0.530   0.689  3.4507 -0.4525  2.2875
  724SOL     OW 2170   0.591   2.081   2.705  0.1479 -0.2797 -0.1711
  724SOL    HW1 2171   0.517   2.014   2.690  1.7429 -0.3686  1.6673
  724SOL    HW2 2172   0.645   2.058   2.788 -1.5232  0.3054 -2.4488
  725SOL     OW 2173   3.032   0.570   1.191 -0.0469  0.0650 -0.6375
  725SOL    HW1 2174   2.977   0.655   1.180 -0.3612 -1.2566  0.8154
  725SOL    HW2 2175   3.075   0.544   1.103 -0.8265  0.8648 -2.3128
  726SOL     OW 2176   2.037   0.002   0.676  0.2552 -0.1464  0.3366
  726SOL    HW1 2177   1.967   3.060   0.608 -1.1871  0.3164 -1.4188
  726SOL    HW2 2178   2.013   3.060   0.774 -1.7234 -1.5662  3.2521
  727SOL     OW 2179   1.986   1.174   2.082 -0.4599 -0.2514  0.1060
  727SOL    HW1 2180   1.929   1.250   2.112  2.1583 -0.4040 -0.7388
  727SOL    HW2 2181   2.051   1.153   2.159 -4.4691 -1.4376 -0.8668
  728SOL     OW 2182   1.420   2.636   1.614  0.6520 -0.3172 -0.5854
  728SOL    HW1 2183   1.426   2.736   1.585 -0.8637  3.7841 -0.6508
  728SOL    HW2 2184   1.368   2.588   1.538  0.6435  1.3579 -1.9036
  729SOL     OW 2185   1.847   0.430   2.222  0.0735 -0.5580  0.0950
  729SOL    HW1 2186   1.910   0.482   2.159  0.4109  2.1785  2.2198
  729SOL    HW2 2187   1.772   0.385   2.168  2.0027  1.3076  0.6077
  730SOL     OW 2188   0.431   1.064   1.234 -0.5137  0.4477  0.4610
  730SOL    HW1 2189   0.476   0.986   1.284  0.1871  0.2426 -0.3243
  730SOL    HW2 2190   0.331   1.054   1.219  1.2292  1.1520  0.0419
  731SOL     OW 2191   0.635   0.146   0.025 -0.0955  0.5815 -0.0825
  731SOL    HW1 2192   0.698   0.174   0.099  2.1810 -1.2686 -0.0087
  731SOL    HW2 2193   0.555   0.209   0.026  3.1405 -0.8757  0.6621
  732SOL     OW 2194   0.604   0.809   0.504 -0.7078  0.0082 -0.5362
  732SOL    HW1 2195   0.549   0.729   0.480 -0.0008 -1.5423  3.2523
  732SOL    HW2 2196   0.579   0.822   0.606 -1.5946  1.1629  3.2056
  733SOL     OW 2197   1.297   1.517   1.960 -0.2708 -0.0088  0.0070
  733SOL    HW1 2198   1.350   1.589   2.008  1.3039 -2.6291 -1.3789
  733SOL    HW2 2199   1.226   1.547   1.892 -0.6955 -2.2389  0.3139
  734SOL     OW 2200   0.012   2.367   2.158  0.2616  1.0607 -1.0685
  734SOL    HW1 2201   0.015   2.389   2.055 -0.5967  0.6345 -2.8492
  734SOL    HW2 2202   3.012   2.390   2.197  1.3341  4.5050  1.9597
  735SOL     OW 2203   1.533   0.243   0.927 -0.6508  0.4273 -0.4625
  735SOL    HW1 2204   1.559   0.146   0.947  1.4282 -0.3620  1.6787
  735SOL    HW2 2205   1.436   0.274   0.954 -0.7191 -0.9232  3.2059
  736SOL     OW 2206   0.916   1.265   3.077 -0.1224 -0.8685 -0.4822
  736SOL    HW1 2207   0.900   1.238   0.082  1.4122 -0.1077  0.5701
  736SOL    HW2 2208   0.984   1.341   3.073  2.2702 -0.8027 -0.6460
  737SOL     OW 2209   0.066   0.649   0.716 -0.0685  0.2206 -0.3891
  737SOL    HW1 2210   0.164   0.648   0.707 -2.0885  1.3261 -1.5285
  737SOL    HW2 2211   0.025   0.672   0.628  2.8175 -1.1388  1.3264
  738SOL     OW 2212   0.510   2.453   1.646  1.0436 -0.2810 -0.0842
  738SOL    HW1 2213   0.505   2.525   1.572  2.2822  1.3974  2.2042
  738SOL    HW2 2214   0.510   2.359   1.605  1.2410  2.2227  1.5446
  739SOL     OW 2215   1.391   2.561   2.998 -0.0251 -0.5390 -0.0057
  739SOL    HW1 2216   1.395   2.561   0.010  0.9696  2.9049  0.5980
  739SOL    HW2 2217   1.444   2.642   2.959 -1.1533  2.6259  2.4214
  740SOL     OW 2218   1.798   2.681   1.300 -0.0638  0.0376 -0.0536
  740SOL    HW1 2219   1.858   2.692   1.386  0.0662  0.1540  1.2475
  740SOL    HW2 2220   1.764   2.589   1.288  0.8031  1.6473  1.9597
  741SOL     OW 2221   2.118   0.379   0.864  0.4697 -0.8522 -0.0036
  741SOL    HW1 2222   2.165   0.455   0.818 -0.6552 -0.1313 -2.2705
  741SOL    HW2 2223   2.174   0.350   0.942  1.1235 -0.0676 -1.6449
  742SOL     OW 2224   1.276   2.371   2.339 -0.3058 -0.4280 -0.1635
  742SOL    HW1 2225   1.239   2.376   2.240  0.5150 -1.5902 -3.3741
  742SOL    HW2 2226   1.203   2.377   2.413 -0.0177 -0.3598 -1.1776
  743SOL     OW 2227   2.312   0.667   2.039 -0.0981  0.4329  0.2901
  743SOL    HW1 2228   2.280   0.715   1.951  0.7709 -1.2422  2.5738
  743SOL    HW2 2229   2.401   0.617   2.010  0.0142 -2.2426 -2.1956
  744SOL     OW 2230   2.007   0.650   1.032 -0.1992 -0.2503 -0.0031
  744SOL    HW1 2231   2.092   0.686   0.986 -1.1068  0.1107 -1.1562
  744SOL    HW2 2232   1.928   0.652   0.962  0.6776  0.1710  1.0602
  745SOL     OW 2233   2.436   1.058   1.903  0.0903 -0.4195 -0.9092
  745SOL    HW1 2234   2.467   1.109   1.823 -1.0206  1.0289  1.4689
  745SOL    HW2 2235   2.460   0.962   1.900 -0.4192  0.2451  2.1481
  746SOL     OW 2236   1.390   1.739   0.730 -0.4649  0.2432  0.2500
  746SOL    HW1 2237   1.450   1.745   0.646 -0.0141  0.2021 -2.9468
  746SOL    HW2 2238   1.324   1.815   0.734 -0.1893 -1.6877  1.0343
  747SOL     OW 2239   1.979   1.829   1.061 -0.2608  0.5339 -0.5005
  747SOL    HW1 2240   1.877   1.805   1.052 -2.5395 -1.0275  0.6897
  747SOL    HW2 2241   2.023   1.824   0.969 -1.1009 -2.3335 -2.3391
  748SOL     OW 2242   0.280   2.888   0.348 -0.4199 -0.0970 -0.5404
  748SOL    HW1 2243   0.257   2.790   0.325 -0.9973 -3.4869 -2.4096
  748SOL    HW2 2244   0.367   2.893   0.403  1.7516 -1.3542  0.1872
  749SOL     OW 2245   0.140   0.998   2.228 -0.1861  0.0295 -0.0998
  749SOL    HW1 2246   0.140   0.933   2.150  0.6851  1.7275 -2.1555
  749SOL    HW2 2247   0.051   1.044   2.246 -0.2051  3.5920 -0.0990
  750SOL     OW 2248   1.272   2.936   1.854 -0.0293 -0.0357 -0.1944
  750SOL    HW1 2249   1.170   2.953   1.860  1.5118  1.5619  1.9612
  750SOL    HW2 2250   1.317   2.938   1.943  2.4683 -0.0682 -0.3579
  751SOL     OW 2251   2.703   0.622   0.168 -0.5653  0.1605 -0.4723
  751SOL    HW1 2252   2.718   0.667   0.258 -1.4509 -1.8576 -2.0168
  751SOL    HW2 2253   2.666   0.527   0.173  3.0626  1.8479 -1.5159
  752SOL     OW 2254   0.201   2.236   0.717 -0.1195 -0.1791 -0.2006
  752SOL    HW1 2255   0.178   2.194   0.629 -0.7646  0.5870  1.7261
  752SOL    HW2 2256   0.115   2.286   0.750 -1.0785  1.2260  0.6428
  753SOL     OW 2257   0.924   3.072   0.933 -0.3712 -0.1535 -0.2933
  753SOL    HW1 2258   0.988   0.017   0.864 -5.0049  0.0290  1.0919
  753SOL    HW2 2259   0.837   0.031   0.912  1.1659  1.2464 -0.3252
  754SOL     OW 2260   0.575   0.016   2.244 -0.5740 -0.0667 -0.3767
  754SOL    HW1 2261   0.517   0.055   2.315  0.2093  2.1020  1.5169
  754SOL    HW2 2262   0.612   3.012   2.261 -0.9614 -0.0010  1.3873
  755SOL     OW 2263   1.970   1.034   2.974 -0.2548 -0.4712  0.5175
  755SOL    HW1 2264   1.890   1.100   2.976  0.6442  3.4589 -1.0770
  755SOL    HW2 2265   1.953   0.947   3.024  1.1073  0.8849  2.9047
  756SOL     OW 2266   2.182   2.197   2.486 -0.1725 -0.6702  0.3140
  756SOL    HW1 2267   2.211   2.104   2.497  0.9645  5.4106 -0.3769
  756SOL    HW2 2268   2.196   2.251   2.571 -1.0590 -0.6269  1.9081
  757SOL     OW 2269   1.742   0.581   0.405  0.1725 -0.3726 -0.0377
  757SOL    HW1 2270   1.687   0.632   0.480 -0.9534  1.3129  1.6456
  757SOL    HW2 2271   1.783   0.493   0.428  1.5996  2.9411  1.7493
  758SOL     OW 2272   1.740   0.296   1.064 -0.2150  0.0603 -0.4204
  758SOL    HW1 2273   1.660   0.276   1.009  0.3565  1.4938  1.8985
  758SOL    HW2 2274   1.749   0.395   1.091  1.3327  0.2368  0.8074
  759SOL     OW 2275   2.643   0.584   1.122  0.2170 -0.6709 -0.2907
  759SOL    HW1 2276   2.554   0.579   1.174 -0.7715 -0.2758 -0.5892
  759SOL    HW2 2277   2.663   0.506   1.064 -0.8392  0.4494  0.6710
  760SOL     OW 2278   2.297   1.110   1.194 -0.0528  0.4156 -0.3291
  760SOL    HW1 2279   2.364   1.115   1.119  0.7148 -0.0048 -2.0386
  760SOL    HW2 2280   2.314   1.034   1.260 -0.3983  1.5902  0.5797
  761SOL     OW 2281   0.261   0.486   0.215 -0.0718 -0.2454 -0.2655
  761SOL    HW1 2282   0.317   0.560   0.171  0.5349 -0.0975 -1.0604
  761SOL    HW2 2283   0.248   0.509   0.316  1.1054  1.8745  0.0811
  762SOL     OW 2284   1.421   1.854   1.220  1.0258 -0.2524  0.0723
  762SOL    HW1 2285   1.467   1.794   1.289 -1.2142  0.3341  3.8040
  762SOL    HW2 2286   1.412   1.812   1.130  0.1998 -0.4674  1.4289
  763SOL     OW 2287   1.197   1.269   2.013 -0.5425  0.1501  0.8227
  763SOL    HW1 2288   1.240   1.360   1.980  0.1988  0.5046 -0.2219
  763SOL    HW2 2289   1.200   1.197   1.941 -1.0795 -0.5149  0.1147
  764SOL     OW 2290   3.031   1.843   2.597  0.4410  0.0395  0.0125
  764SOL    HW1 2291   3.020   1.913   2.523  0.3470  0.7759  0.9427
  764SOL    HW2 2292   2.989   1.878   2.686 -0.7065  1.0716 -0.0832
  765SOL     OW 2293   1.381   2.737   1.186  0.0953  0.2768 -0.2717
  765SOL    HW1 2294   1.388   2.660   1.119  2.7713 -1.3611 -2.9372
  765SOL    HW2 2295   1.356   2.825   1.135 -2.1747  1.6753  0.2613
  766SOL     OW 2296   3.032   2.497   2.507 -0.5132 -0.1686  0.2408
  766SOL    HW1 2297   3.065   2.560   2.577 -1.6412 -1.1292 -1.2572
  766SOL    HW2 2298   3.005   2.403   2.541  1.6362  1.3914 -0.7315
  767SOL     OW 2299   1.128   0.848   2.307 -0.4737 -0.5344  0.5152
  767SOL    HW1 2300   1.216   0.905   2.311  2.1756 -1.1029 -0.6562
  767SOL    HW2 2301   1.142   0.748   2.324 -1.2017 -1.0159  1.6676
  768SOL     OW 2302   1.150   2.128   2.890  0.2591  0.1101  0.3899
  768SOL    HW1 2303   1.238   2.160   2.846  0.0810  1.0790 -2.2304
  768SOL    HW2 2304   1.099   2.094   2.810  1.0621  1.3121  0.6279
  769SOL     OW 2305   0.439   2.227   1.140 -0.3769  0.5353 -0.1336
  769SOL    HW1 2306   0.453   2.134   1.181 -0.6885 -0.5888 -1.4170
  769SOL    HW2 2307   0.520   2.292   1.139 -1.1140 -0.7635 -0.6843
  770SOL     OW 2308   1.606   0.760   2.796  0.1164  0.3126 -0.1707
  770SOL    HW1 2309   1.698   0.740   2.839  2.4376 -1.6006  1.8590
  770SOL    HW2 2310   1.555   0.842   2.835 -2.7692  0.2195  0.2768
  771SOL     OW 2311   0.171   0.060   2.207 -0.1519 -0.8397  0.0209
  771SOL    HW1 2312   0.178   3.056   2.177  0.1852  2.1559  1.9571
  771SOL    HW2 2313   0.161   0.128   2.129  0.6358  0.7092 -1.0077
  772SOL     OW 2314   2.026   2.698   2.085 -0.4512  0.4303 -1.0281
  772SOL    HW1 2315   2.068   2.604   2.080 -1.8339 -0.7349  1.6034
  772SOL    HW2 2316   2.068   2.769   2.020  0.9485  1.3219 -0.3729
  773SOL     OW 2317   0.936   1.956   1.530 -0.3182 -0.1219 -0.1647
  773SOL    HW1 2318   0.920   1.974   1.432  0.0630 -0.5247  4.2968
  773SOL    HW2 2319   0.902   2.031   1.591  0.7526 -3.8380 -0.2382
  774SOL     OW 2320   1.042   0.155   1.915  0.6079 -0.1924  0.0541
  774SOL    HW1 2321   1.116   0.151   1.985  2.4349 -2.0992 -0.6521
  774SOL    HW2 2322   0.974   0.223   1.943  1.5841 -0.3666  0.9920
  775SOL     OW 2323   2.063   2.989   0.026  0.3294 -0.5207  0.0980
  775SOL    HW1 2324   2.011   2.998   3.031 -3.1353 -0.0757 -1.0137
  775SOL    HW2 2325   2.108   2.896   0.041  4.6986 -3.0548  1.6557
  776SOL     OW 2326   2.852   0.745   2.301  0.3209 -0.3489  0.0536
  776SOL    HW1 2327   2.766   0.727   2.348 -0.8536  0.8944 -1.5574
  776SOL    HW2 2328   2.857   0.845   2.283 -0.1828 -1.6308  0.9051
  777SOL     OW 2329   2.465   2.293   2.091 -0.4253  0.2576  0.0314
  777SOL    HW1 2330   2.385   2.234   2.072 -1.0459  2.0346  0.8622
  777SOL    HW2 2331   2.442   2.379   2.045 -1.8171 -1.3809  1.9415
  778SOL     OW 2332   1.888   0.936   2.268 -0.3154 -0.4295 -0.3906
  778SOL    HW1 2333   1.893   0.875   2.351 -1.1673  3.5807  1.2286
  778SOL    HW2 2334   1.971   0.926   2.211 -1.9763  0.1353 -2.1150
  779SOL     OW 2335   2.570   0.304   0.431  0.0814  0.3440 -0.4215
  779SOL    HW1 2336   2.522   0.267   0.515  0.4748  1.0696  1.6768
  779SOL    HW2 2337   2.504   0.367   0.386 -0.0975 -1.8652  1.5689
  780SOL     OW 2338   2.406   0.473   0.265  0.2343 -0.3653  0.1369
  780SOL    HW1 2339   2.479   0.455   0.193 -0.2981 -0.8937 -0.1822
  780SOL    HW2 2340   2.405   0.571   0.284  3.6524  0.9644 -1.2769
  781SOL     OW 2341   0.283   2.570   1.403  0.0299  0.0757 -0.2586
  781SOL    HW1 2342   0.279   2.469   1.416 -0.5651  2.8603 -0.2257
  781SOL    HW2 2343   0.238   2.584   1.312 -0.4036 -0.3892 -0.4149
  782SOL     OW 2344   2.215   2.443   0.072  0.3210 -0.1670 -0.6190
  782SOL    HW1 2345   2.176   2.437   0.168 -0.5558 -0.6580 -1.6622
  782SOL    HW2 2346   2.306   2.395   0.068  0.2032 -0.6558 -1.9361
  783SOL     OW 2347   0.637   1.251   1.349  0.1720  0.3456 -0.3912
  783SOL    HW1 2348   0.545   1.213   1.324 -3.2523 -0.4332 -0.2011
  783SOL    HW2 2349   0.718   1.202   1.311 -0.9325  0.3167  0.4584
  784SOL     OW 2350   1.415   0.379   2.503 -0.4075  0.2061  0.2906
  784SOL    HW1 2351   1.315   0.379   2.490  2.2450 -0.7728 -1.0413
  784SOL    HW2 2352   1.459   0.428   2.428 -1.7118 -0.7135  0.2362
  785SOL     OW 2353   2.312   0.331   1.058  0.0182 -0.3046 -0.3439
  785SOL    HW1 2354   2.377   0.265   1.103 -0.0766 -0.6777 -1.2791
  785SOL    HW2 2355   2.270   0.399   1.121 -0.9449  0.5295  1.4073
  786SOL     OW 2356   1.180   2.308   1.768  0.4494  0.1133 -0.7344
  786SOL    HW1 2357   1.272   2.346   1.785  2.1176  0.3140 -2.1091
  786SOL    HW2 2358   1.166   2.213   1.810 -0.6337  2.2431  0.7964
  787SOL     OW 2359   1.865   0.423   1.405 -0.7013  0.1761  0.1322
  787SOL    HW1 2360   1.841   0.497   1.335 -0.4859  0.8557 -0.6386
  787SOL    HW2 2361   1.905   0.339   1.362  1.8021  0.6994  0.8737
  788SOL     OW 2362   0.326   0.673   0.665 -0.1356  0.3352  0.2226
  788SOL    HW1 2363   0.426   0.673   0.694  2.5756 -1.3619  0.3573
  788SOL    HW2 2364   0.296   0.763   0.631 -0.1043 -0.4000  2.2648
  789SOL     OW 2365   0.358   1.977   1.560 -0.3100 -0.3679  0.0807
  789SOL    HW1 2366   0.288   2.052   1.564 -1.1432  3.0055  0.9745
  789SOL    HW2 2367   0.321   1.895   1.602 -0.3404  2.2486 -0.0598
  790SOL     OW 2368   0.840   0.556   2.336 -0.3184  0.2163 -0.4703
  790SOL    HW1 2369   0.776   0.599   2.270  0.2093 -2.5353  2.0962
  790SOL    HW2 2370   0.933   0.555   2.289 -0.2627  0.2388 -1.4925
  791SOL     OW 2371   1.798   0.618   0.868 -0.1005  0.1168  0.2811
  791SOL    HW1 2372   1.718   0.656   0.920 -1.0041 -0.3685  1.4092
  791SOL    HW2 2373   1.771   0.530   0.821  1.2082  1.5051  1.5983
  792SOL     OW 2374   1.105   2.338   2.132 -0.5568 -0.0951 -0.0789
  792SOL    HW1 2375   1.076   2.386   2.043 -2.5234 -1.5655  0.0838
  792SOL    HW2 2376   1.019   2.312   2.175  1.5318  0.7845 -0.4435
  793SOL     OW 2377   0.834   0.610   0.661 -0.1739  0.5898  0.4660
  793SOL    HW1 2378   0.793   0.677   0.601  0.2738  1.1214  2.7162
  793SOL    HW2 2379   0.790   0.520   0.651 -0.9955 -0.5764 -1.2437
  794SOL     OW 2380   0.725   1.051   1.954 -0.2204 -0.1776 -0.0517
  794SOL    HW1 2381   0.623   1.058   1.959 -0.4702 -3.5055  0.7926
  794SOL    HW2 2382   0.775   1.143   1.944  0.3869 -0.6060  0.0353
  795SOL     OW 2383   0.277   2.014   2.427 -0.2176 -0.4681 -0.3858
  795SOL    HW1 2384   0.177   2.029   2.414  0.8902 -1.2032 -1.0734
  795SOL    HW2 2385   0.330   2.096   2.396 -0.3430  1.4848  2.6721
  796SOL     OW 2386   2.360   0.665   2.307 -0.4061  0.1208 -0.2573
  796SOL    HW1 2387   2.325   0.753   2.344 -1.5241  1.5439 -0.1881
  796SOL    HW2 2388   2.361   0.674   2.201 -0.0345  0.0951 -0.8574
  797SOL     OW 2389   2.772   2.263   2.670  0.1902  0.6470  0.0681
  797SOL    HW1 2390   2.687   2.259   2.617  0.2012 -1.0424 -0.5073
  797SOL    HW2 2391   2.769   2.334   2.744  1.1817  1.6612  1.1970
  798SOL     OW 2392   0.136   2.877   2.162  0.1931  0.3336  0.1204
  798SOL    HW1 2393   0.069   2.891   2.087  1.3535  1.0920 -1.2656
  798SOL    HW2 2394   0.222   2.829   2.124 -2.1359 -3.0049  0.7277
  799SOL     OW 2395   0.157   2.524   2.320 -0.5040 -0.2336  0.2005
  799SOL    HW1 2396   0.097   2.554   2.392 -0.1151  0.4774 -1.3814
  799SOL    HW2 2397   0.110   2.461   2.255  0.4888 -2.9042  1.5601
  800SOL     OW 2398   0.278   2.135   0.262 -0.2603  0.2069  0.2318
  800SOL    HW1 2399   0.274   2.219   0.212 -2.9631  0.1300  1.1604
  800SOL    HW2 2400   0.362   2.081   0.241 -1.3656  0.3648  0.6914
  801SOL     OW 2401   1.757   1.467   0.996  0.4422  0.5194 -0.2806
  801SOL    HW1 2402   1.687   1.510   0.937 -0.5215  0.4347  1.1011
  801SOL    HW2 2403   1.849   1.505   0.974  0.4437 -0.9791 -0.1538
  802SOL     OW 2404   0.079   1.050   0.490  0.1930  0.2640 -0.3380
  802SOL    HW1 2405   0.104   0.990   0.416 -3.3783  1.6005  1.9507
  802SOL    HW2 2406   3.079   1.024   0.534 -2.0355 -1.0364  0.5002
  803SOL     OW 2407   1.173   1.863   2.151  0.3663 -0.0102  0.4880
  803SOL    HW1 2408   1.197   1.967   2.169  0.0364  2.0576  1.3455
  803SOL    HW2 2409   1.180   1.817   2.240  0.0608  0.7059  0.2801
  804SOL     OW 2410   1.753   1.584   0.413  0.2254 -0.0062 -0.0478
  804SOL    HW1 2411   1.765   1.626   0.322 -0.5522 -0.9184  0.8461
  804SOL    HW2 2412   1.841   1.571   0.461 -1.9319 -0.1864 -2.1354
  805SOL     OW 2413   2.501   1.217   3.087  0.1477 -0.0036 -0.0243
  805SOL    HW1 2414   2.479   1.253   2.993  0.2408  0.1625  0.6488
  805SOL    HW2 2415   2.520   1.116   0.004  2.4494  0.0608 -1.1038
  806SOL     OW 2416   0.612   2.716   0.315  0.6938  0.3910 -0.2856
  806SOL    HW1 2417   0.677   2.797   0.327  1.6610  0.3932  2.9862
  806SOL    HW2 2418   0.573   2.713   0.224 -1.3034  3.3355  0.3228
  807SOL     OW 2419   2.239   1.665   2.554 -0.1353  0.0185 -0.2595
  807SOL    HW1 2420   2.200   1.747   2.596  0.0059  3.1526 -0.3843
  807SOL    HW2 2421   2.172   1.624   2.487 -0.8171  0.8844  2.1149
  808SOL     OW 2422   1.018   1.727   1.039  0.4626 -0.2512  0.2106
  808SOL    HW1 2423   1.047   1.638   1.001  1.6296  3.4176  1.7620
  808SOL    HW2 2424   0.989   1.725   1.138  0.3359  0.4170 -1.4782
  809SOL     OW 2425   2.778   0.530   0.644 -0.0597  0.3669  0.3446
  809SOL    HW1 2426   2.709   0.583   0.700  2.2916  1.6215  0.8835
  809SOL    HW2 2427   2.771   0.567   0.548 -0.3966 -3.2050  0.6700
  810SOL     OW 2428   0.528   1.407   0.575  0.1672  0.4481  0.6296
  810SOL    HW1 2429   0.552   1.477   0.639 -0.0082  1.1076  0.8205
  810SOL    HW2 2430   0.543   1.435   0.479 -1.5341  0.9309  0.6497
  811SOL     OW 2431   1.735   2.424   1.180 -0.0156 -0.0121 -0.0470
  811SOL    HW1 2432   1.819   2.367   1.175  0.5412  0.3030 -2.0632
  811SOL    HW2 2433   1.654   2.371   1.213  0.0179 -1.2122 -0.2514
  812SOL     OW 2434   1.019   2.457   1.615  0.2988 -0.0327 -0.0482
  812SOL    HW1 2435   1.080   2.424   1.690  1.1632  0.8876 -0.5094
  812SOL    HW2 2436   0.936   2.513   1.648 -1.0864  0.3134 -1.7234
  813SOL     OW 2437   0.813   2.926   1.695 -0.3473  0.2440 -0.6443
  813SOL    HW1 2438   0.745   2.930   1.770 -0.3889 -0.1951 -2.1323
  813SOL    HW2 2439   0.807   3.002   1.630  0.4187  1.8842 -2.0278
  814SOL     OW 2440   0.972   2.686   2.501  0.5087  0.4842  0.6745
  814SOL    HW1 2441   1.004   2.589   2.489  3.2417 -0.0034 -0.3687
  814SOL    HW2 2442   0.877   2.683   2.542 -0.2415  0.7573  1.3589
  815SOL     OW 2443   0.826   0.184   2.509 -0.7122 -0.1332  0.3187
  815SOL    HW1 2444   0.785   0.094   2.514  1.9009 -0.1539 -0.5808
  815SOL    HW2 2445   0.761   0.248   2.466  2.1162 -1.4624  3.1214
  816SOL     OW 2446   2.190   0.364   0.032 -0.1461  0.2962 -0.2304
  816SOL    HW1 2447   2.089   0.375   0.028 -0.2442 -1.9673 -1.9118
  816SOL    HW2 2448   2.235   0.380   0.124  1.5234  0.5232 -0.2140
  817SOL     OW 2449   2.184   2.874   1.916 -0.1918  0.0854  0.5991
  817SOL    HW1 2450   2.264   2.897   1.972  0.7669  0.1433  1.5844
  817SOL    HW2 2451   2.134   2.957   1.893 -0.4800  0.9252  0.6256
  818SOL     OW 2452   1.190   0.805   0.243  0.4184 -0.2414  0.1547
  818SOL    HW1 2453   1.289   0.791   0.223  0.5038  0.1880 -2.3266
  818SOL    HW2 2454   1.140   0.724   0.280 -3.3754  0.1224  0.4927
  819SOL     OW 2455   1.610   1.654   2.432 -0.4442  0.2650 -0.0092
  819SOL    HW1 2456   1.521   1.613   2.448  2.1058  0.9009 -0.2170
  819SOL    HW2 2457   1.622   1.692   2.338 -1.4868 -1.9748  1.2394
  820SOL     OW 2458   0.165   1.714   0.058 -0.4902 -0.3538 -0.2156
  820SOL    HW1 2459   0.149   1.696   3.051 -1.5172 -2.6847  1.6426
  820SOL    HW2 2460   0.249   1.672   0.083 -2.5046  0.9578 -2.5846
  821SOL     OW 2461   0.099   2.938   0.688  0.2615 -0.5310 -0.0612
  821SOL    HW1 2462   0.118   2.925   0.589  1.4694  1.8262  0.7694
  821SOL    HW2 2463   0.171   2.900   0.748 -1.2313  0.3284 -1.8022
  822SOL     OW 2464   2.324   2.378   2.749  0.1699  0.1514 -0.1899
  822SOL    HW1 2465   2.247   2.439   2.734  0.1858 -0.8285  1.1181
  822SOL    HW2 2466   2.388   2.425   2.811  2.4506  0.6372 -1.5708
  823SOL     OW 2467   1.394   2.965   2.097  0.2205  0.6824 -0.0620
  823SOL    HW1 2468   1.491   2.955   2.126 -2.0983 -0.8125 -0.2528
  823SOL    HW2 2469   1.337   2.893   2.139  0.4280  2.1212  0.7412
  824SOL     OW 2470   2.740   2.284   2.122 -0.2288 -0.0634 -0.1390
  824SOL    HW1 2471   2.790   2.336   2.197  1.0764  0.0169  0.7025
  824SOL    HW2 2472   2.644   2.312   2.122  0.6140 -2.5408 -0.3059
  825SOL     OW 2473   2.968   2.025   2.396  0.0209  0.2004 -0.1297
  825SOL    HW1 2474   2.869   2.004   2.373 -4.3937  0.0717 -0.3187
  825SOL    HW2 2475   3.018   2.059   2.313  0.6809 -0.5685 -1.6907
  826SOL     OW 2476   2.324   0.852   2.491  0.3837  0.0865 -0.2280
  826SOL    HW1 2477   2.355   0.790   2.568 -0.4754  2.0267 -2.5871
  826SOL    HW2 2478   2.230   0.885   2.519 -0.9562  0.4557  0.4736
  827SOL     OW 2479   2.735   2.161   1.489  0.1392 -0.6079 -0.0410
  827SOL    HW1 2480   2.705   2.142   1.585 -0.9633 -1.1134  2.2467
  827SOL    HW2 2481   2.651   2.160   1.430 -2.0441 -1.5595 -0.8548
  828SOL     OW 2482   2.919   0.124   1.855 -0.6176 -0.1588 -0.2125
  828SOL    HW1 2483   3.008   0.085   1.818  2.0993 -0.1118  0.0698
  828SOL    HW2 2484   2.902   0.218   1.833  0.9457 -1.3611  0.5896
  829SOL     OW 2485   0.907   2.287   2.676  0.0724  0.2204  0.4924
  829SOL    HW1 2486   0.900   2.186   2.694 -0.6850  0.7748 -1.9184
  829SOL    HW2 2487   0.893   2.330   2.762  3.4663 -1.6328 -6.2069
  830SOL     OW 2488   0.906   1.104   1.097 -0.3729  0.3669 -0.1029
  830SOL    HW1 2489   0.829   1.039   1.125  2.5076 -0.4974 -0.9974
  830SOL    HW2 2490   0.871   1.170   1.034 -0.6722 -1.1128  1.4194
  831SOL     OW 2491   2.918   1.600   2.832  0.2500  0.1138 -0.5099
  831SOL    HW1 2492   2.862   1.630   2.913 -3.0411 -0.3160  1.7883
  831SOL    HW2 2493   2.986   1.526   2.845 -0.4600 -1.1198 -0.1193
  832SOL     OW 2494   1.769   2.237   2.159  0.0656 -0.6436  0.9406
  832SOL    HW1 2495   1.849   2.264   2.221 -0.2698 -0.8165  0.6965
  832SOL    HW2 2496   1.810   2.210   2.069  0.5900 -1.1330  2.3741
  833SOL     OW 2497   0.856   0.335   1.971 -0.0982  0.1070  0.0014
  833SOL    HW1 2498   0.910   0.414   2.013  2.5404  0.5855  2.2766
  833SOL    HW2 2499   0.835   0.268   2.043  1.8171 -0.0443 -0.6612
  834SOL     OW 2500   3.086   0.089   1.224 -0.0673  0.5048  0.1658
  834SOL    HW1 2501   3.019   0.167   1.215  2.1919 -1.8185  1.6834
  834SOL    HW2 2502   0.065   0.123   1.283 -0.2591  0.5915 -1.1365
  835SOL     OW 2503   2.539   0.689   3.045  0.2613  0.0871  0.8870
  835SOL    HW1 2504   2.596   0.685   0.037 -1.5304 -1.4375 -1.5307
  835SOL    HW2 2505   2.550   0.599   2.992  0.4346 -2.4386 -1.5190
  836SOL     OW 2506   1.310   1.992   0.235 -0.5383  0.6449 -0.0980
  836SOL    HW1 2507   1.347   1.895   0.247  3.5398 -0.9074  0.3036
  836SOL    HW2 2508   1.237   2.001   0.165 -2.4366 -0.2361  0.6845
  837SOL     OW 2509   1.892   1.900   0.469  0.3320  0.1895 -0.4427
  837SOL    HW1 2510   1.924   1.808   0.453  1.6761  1.3176 -4.9118
  837SOL    HW2 2511   1.923   1.966   0.397  0.9763 -0.3201 -0.1668
  838SOL     OW 2512   1.385   0.995   2.269  0.0558 -0.2363 -0.6730
  838SOL    HW1 2513   1.482   0.972   2.252  1.8359  1.7683  0.1516
  838SOL    HW2 2514   1.374   1.095   2.268  3.2272 -0.0262 -0.3334
  839SOL     OW 2515   0.925   1.527   2.273 -0.3662 -0.3573  0.1624
  839SOL    HW1 2516   0.917   1.429   2.289 -0.4170  2.5963  0.0937
  839SOL    HW2 2517   0.966   1.553   2.187 -0.4415 -0.3270 -2.5582
  840SOL     OW 2518   1.021   1.808   0.543  0.4124 -0.1359 -0.8290
  840SOL    HW1 2519   0.940   1.788   0.607  0.6065 -1.6060  1.8437
  840SOL    HW2 2520   1.046   1.904   0.556 -3.8337 -1.0590  1.4838
  841SOL     OW 2521   1.814   2.466   0.369  0.5931 -0.1562 -0.0396
  841SOL    HW1 2522   1.849   2.520   0.449  0.8180  0.4470  3.4092
  841SOL    HW2 2523   1.773   2.523   0.290  0.6563 -2.0028 -1.7223
  842SOL     OW 2524   0.492   0.623   0.048  0.1631 -0.0767  0.3439
  842SOL    HW1 2525   0.563   0.573   0.098 -3.2907  1.0657 -0.2111
  842SOL    HW2 2526   0.503   0.606   3.040 -1.6936 -0.2069 -1.3895
  843SOL     OW 2527   0.927   0.548   0.915  0.5436  0.5978 -0.3817
  843SOL    HW1 2528   0.924   0.565   0.814 -1.0592 -0.3790  0.9868
  843SOL    HW2 2529   1.024   0.524   0.940 -0.8445 -0.7255 -0.0208
  844SOL     OW 2530   2.603   3.084   2.991  0.1598 -0.2453 -0.1410
  844SOL    HW1 2531   2.525   3.036   2.942  0.7377 -1.3034 -1.8225
  844SOL    HW2 2532   2.692   3.041   2.978  1.0832  0.3578 -0.7825
  845SOL     OW 2533   2.975   2.190   1.592 -0.6358 -0.3605 -0.0046
  845SOL    HW1 2534   2.980   2.192   1.695 -0.2285  0.1202  0.3355
  845SOL    HW2 2535   2.878   2.175   1.561 -0.9378 -1.4896 -0.6713
  846SOL     OW 2536   2.525   1.552   2.179  0.1911  0.1995 -0.0723
  846SOL    HW1 2537   2.522   1.601   2.271 -1.6597  3.7575  1.5364
  846SOL    HW2 2538   2.597   1.476   2.176  0.5103 -2.7374 -0.7674
  847SOL     OW 2539   1.068   0.531   1.888 -0.0990 -0.3274  0.4156
  847SOL    HW1 2540   1.049   0.525   1.990 -0.9875 -2.2100 -0.8230
  847SOL    HW2 2541   0.988   0.546   1.832  3.2415 -0.5939  3.1139
  848SOL     OW 2542   2.335   2.753   2.994  0.2006  0.2062 -0.3499
  848SOL    HW1 2543   2.352   2.772   0.001 -0.0136  2.1496 -0.7274
  848SOL    HW2 2544   2.342   2.844   2.942 -2.3575 -0.2214 -2.4382
  849SOL     OW 2545   0.381   2.796   2.987  0.3264 -0.4740  0.2708
  849SOL    HW1 2546   0.409   2.892   2.971 -0.5051  1.0314 -2.0130
  849SOL    HW2 2547   0.284   2.788   3.014  0.9307  0.0340 -1.3740
  850SOL     OW 2548   1.311   2.979   1.078 -0.4377  0.6553  0.2229
  850SOL    HW1 2549   1.406   3.008   1.066 -1.4608  0.5799 -1.9569
  850SOL    HW2 2550   1.253   3.053   1.038  2.9580 -2.1558 -2.4261
  851SOL     OW 2551   2.731   0.424   2.417 -0.9066 -0.5696 -0.0272
  851SOL    HW1 2552   2.679   0.513   2.409  0.2726  0.8082 -0.1513
  851SOL    HW2 2553   2.778   0.412   2.504 -3.1355  0.1728  0.0466
  852SOL     OW 2554   1.480   0.642   2.376 -0.1454 -0.3605 -0.1125
  852SOL    HW1 2555   1.534   0.710   2.437 -0.1579  2.6559  1.3188
  852SOL    HW2 2556   1.527   0.643   2.287 -0.8613  0.5358  1.1290
  853SOL     OW 2557   0.051   3.004   0.262 -0.5468 -0.0605 -0.2752
  853SOL    HW1 2558   0.009   3.018   0.352  0.9708 -0.5725  0.4391
  853SOL    HW2 2559   0.140   2.950   0.269 -1.4929  0.9170  0.4203
  854SOL     OW 2560   2.465   1.155   2.183  0.1253 -0.0777 -0.1779
  854SOL    HW1 2561   2.541   1.224   2.178  2.5915  1.6763 -0.5757
  854SOL    HW2 2562   2.462   1.113   2.091  0.1642 -2.6673 -1.5371
  855SOL     OW 2563   0.751   2.465   0.246 -0.0697 -0.3876 -0.6109
  855SOL    HW1 2564   0.722   2.560   0.246 -1.3222  0.7344  0.3366
  855SOL    HW2 2565   0.836   2.448   0.189  0.1966 -1.2468 -1.1987
  856SOL     OW 2566   3.074   2.942   2.727  0.0184 -0.2034  0.0100
  856SOL    HW1 2567   3.065   3.036   2.690  0.3690  0.9741  0.5693
  856SOL    HW2 2568   3.075   2.946   2.827  0.4031  0.6906  0.4076
  857SOL     OW 2569   1.076   2.645   1.436 -0.3116  0.1319  0.0125
  857SOL    HW1 2570   0.986   2.665   1.396  1.8571  1.5667 -0.3629
  857SOL    HW2 2571   1.063   2.584   1.518  0.5799 -1.4049 -2.9655
  858SOL     OW 2572   2.633   2.149   1.771  0.4442 -0.0438  0.0075
  858SOL    HW1 2573   2.641   2.112   1.868  0.0267 -2.2868  0.4854
  858SOL    HW2 2574   2.535   2.156   1.738  1.4018  2.3556  2.3934
  859SOL     OW 2575   1.793   2.131   1.609  0.4220  0.0794  0.2979
  859SOL    HW1 2576   1.732   2.107   1.525 -2.3947 -2.2872 -1.2061
  859SOL    HW2 2577   1.777   2.065   1.687  0.7835  1.1622  0.9597
  860SOL     OW 2578   2.425   3.049   0.345 -0.2074  0.0622  0.6527
  860SOL    HW1 2579   2.448   0.023   0.268  0.9141  0.7723 -0.8177
  860SOL    HW2 2580   2.419   0.001   0.436  0.3916 -1.6032  0.0238
  861SOL     OW 2581   2.762   2.971   0.559  0.3611  0.7454  0.1041
  861SOL    HW1 2582   2.801   2.959   0.654 -1.0327 -1.2761 -1.0713
  861SOL    HW2 2583   2.671   2.933   0.553  3.6252 -1.6427  1.4447
  862SOL     OW 2584   1.560   2.812   2.469 -0.1084  0.0726 -0.3043
  862SOL    HW1 2585   1.470   2.768   2.487  0.8600 -2.8401  1.1027
  862SOL    HW2 2586   1.556   2.915   2.474  0.0446  1.3974  0.4117
  863SOL     OW 2587   0.364   0.594   1.236 -0.0098  0.1514  0.2714
  863SOL    HW1 2588   0.371   0.627   1.139 -0.2426  2.8864 -2.0553
  863SOL    HW2 2589   0.406   0.503   1.248  1.5248 -0.3321  0.8879
  864SOL     OW 2590   0.067   3.035   1.785 -0.3211  0.4536  0.0828
  864SOL    HW1 2591   0.170   3.021   1.790  4.2046 -1.8581  0.3640
  864SOL    HW2 2592   0.017   2.972   1.842 -1.1085 -0.0838 -3.4823
  865SOL     OW 2593   0.548   1.009   2.969  0.2026 -0.2168  0.2532
  865SOL    HW1 2594   0.579   1.103   2.951  0.0189 -1.5472  1.6326
  865SOL    HW2 2595   0.626   0.945   2.950  0.3842 -1.0997  1.8928
  866SOL     OW 2596   2.952   0.535   0.086  0.1484 -0.0877  0.3080
  866SOL    HW1 2597   3.024   0.599   0.115 -0.4281 -2.4390 -1.9166
  866SOL    HW2 2598   2.863   0.551   0.122  1.3514 -1.7958 -1.2191
  867SOL     OW 2599   2.824   2.940   2.986  0.0054  0.4646  0.0201
  867SOL    HW1 2600   2.857   2.919   3.080  0.7807  1.5138 -0.5782
  867SOL    HW2 2601   2.800   2.859   2.933 -0.2769 -0.1356 -0.5328
  868SOL     OW 2602   1.373   0.438   0.302  0.2119 -0.4128  0.0452
  868SOL    HW1 2603   1.382   0.507   0.376 -1.1057 -0.8678 -0.2538
  868SOL    HW2 2604   1.444   0.456   0.235  0.5466  3.0652  2.0175
  869SOL     OW 2605   2.521   1.475   0.382 -0.0315 -0.1356  0.5649
  869SOL    HW1 2606   2.432   1.507   0.418 -0.7127 -0.8686 -0.8828
  869SOL    HW2 2607   2.599   1.517   0.432 -3.1464 -1.3000 -1.6880
  870SOL     OW 2608   2.294   1.560   0.499 -0.1949 -0.2670  0.6211
  870SOL    HW1 2609   2.244   1.490   0.555 -0.5706 -2.0433  2.0130
  870SOL    HW2 2610   2.247   1.586   0.417  0.1705  0.4644  0.6151
  871SOL     OW 2611   1.355   1.412   1.169 -0.4471 -0.6734  0.5627
  871SOL    HW1 2612   1.298   1.429   1.248  0.6645 -0.0164  0.0685
  871SOL    HW2 2613   1.438   1.355   1.191 -1.2435  0.7387  1.4475
  872SOL     OW 2614   1.159   1.654   1.761  0.0856  0.6399  0.0580
  872SOL    HW1 2615   1.074   1.609   1.719 -3.5908  0.9664 -2.5023
  872SOL    HW2 2616   1.157   1.756   1.740 -0.0144  2.0729  0.8425
  873SOL     OW 2617   0.661   1.442   2.280 -0.6551  0.1214  0.6819
  873SOL    HW1 2618   0.608   1.406   2.366  0.0591  0.3145 -1.5464
  873SOL    HW2 2619   0.754   1.478   2.301 -2.7269  1.5319 -0.8569
  874SOL     OW 2620   0.745   1.496   1.212  0.2513  0.7987  0.4271
  874SOL    HW1 2621   0.722   1.558   1.132 -0.6779  3.2898  0.4677
  874SOL    HW2 2622   0.696   1.405   1.216  0.3904  0.6935  2.9043
  875SOL     OW 2623   2.183   0.524   1.269  0.3882 -0.4831 -0.3299
  875SOL    HW1 2624   2.125   0.562   1.190 -0.4824  0.2065 -0.0279
  875SOL    HW2 2625   2.141   0.528   1.359  2.5173  1.9530 -0.4817
  876SOL     OW 2626   1.019   0.780   2.986  0.3113  0.0034  0.2975
  876SOL    HW1 2627   0.982   0.823   3.071  0.9100  0.0999 -1.5926
  876SOL    HW2 2628   1.108   0.819   2.958 -2.1957 -0.7743 -0.6052
  877SOL     OW 2629   2.943   0.317   1.271  0.0112 -0.8204 -0.0415
  877SOL    HW1 2630   2.845   0.324   1.296  0.8466  0.6419 -1.2996
  877SOL    HW2 2631   2.971   0.402   1.224  0.4308 -1.6674 -0.1759
  878SOL     OW 2632   1.685   2.371   0.038 -0.0894 -0.3364  0.0657
  878SOL    HW1 2633   1.696   2.468   0.066  0.0554  0.5849 -1.0328
  878SOL    HW2 2634   1.729   2.354   3.040  0.9096 -1.0312  0.8792
  879SOL     OW 2635   2.469   1.936   1.586 -0.1002 -0.7659  0.6150
  879SOL    HW1 2636   2.506   1.986   1.503  0.6471  0.9495  1.9331
  879SOL    HW2 2637   2.426   2.002   1.655 -0.6088  1.1976  2.3706
  880SOL     OW 2638   1.241   2.869   1.391  0.3448 -0.4806 -0.5248
  880SOL    HW1 2639   1.155   2.815   1.395  0.8899 -1.4714  0.4451
  880SOL    HW2 2640   1.282   2.861   1.302  0.5252 -2.2430  1.9005
  881SOL     OW 2641   1.122   1.767   3.060  0.0671 -0.9211  0.9658
  881SOL    HW1 2642   1.113   1.871   3.081 -2.0491  1.6231  0.8577
  881SOL    HW2 2643   1.038   1.723   0.006 -1.6859  1.4322 -0.1199
  882SOL     OW 2644   2.117   0.893   2.131 -0.0966 -0.3713  0.1215
  882SOL    HW1 2645   2.159   0.974   2.174  1.1207 -0.7869  0.1837
  882SOL    HW2 2646   2.190   0.840   2.089 -4.5485  3.2605  2.1432
  883SOL     OW 2647   1.462   0.313   2.069  0.6849 -0.2651  0.2051
  883SOL    HW1 2648   1.436   0.404   2.030 -0.7457  3.2282 -1.3263
  883SOL    HW2 2649   1.381   0.252   2.082 -0.7333  0.6411 -2.7315
  884SOL     OW 2650   2.957   0.106   2.968  0.3726 -0.3000 -0.7349
  884SOL    HW1 2651   3.027   0.103   3.047  4.0456  0.6868 -0.8171
  884SOL    HW2 2652   2.911   0.019   2.962 -0.8053  0.0845 -1.4867
  885SOL     OW 2653   0.705   1.998   0.307  0.3393  0.1505 -0.2835
  885SOL    HW1 2654   0.651   1.927   0.360  2.5921  0.7117  0.0065
  885SOL    HW2 2655   0.710   2.089   0.356  0.6781  1.7317  0.3640
  886SOL     OW 2656   1.837   1.603   2.781  0.4710  0.1515  0.0183
  886SOL    HW1 2657   1.817   1.628   2.685  0.3787 -1.4962  0.2317
  886SOL    HW2 2658   1.886   1.670   2.841  0.1652  1.4903  1.5642
  887SOL     OW 2659   1.855   0.481   1.858 -0.1245  0.1319 -0.4024
  887SOL    HW1 2660   1.838   0.578   1.899 -0.9300  1.7561  0.3899
  887SOL    HW2 2661   1.786   0.417   1.895 -1.9439  1.2350  0.9232
  888SOL     OW 2662   2.665   0.647   1.629  0.0937  0.4031 -0.2373
  888SOL    HW1 2663   2.705   0.653   1.721  0.7552 -2.2108 -1.2815
  888SOL    HW2 2664   2.715   0.699   1.559 -2.1042  0.7128  1.2164
  889SOL     OW 2665   2.970   2.643   0.671 -0.0121  0.0110 -0.4986
  889SOL    HW1 2666   2.920   2.559   0.690  0.0856 -3.4171 -1.1573
  889SOL    HW2 2667   3.072   2.631   0.680  3.2659  0.0626  1.7229
  890SOL     OW 2668   2.836   2.671   2.838 -0.0232 -0.1130 -0.2445
  890SOL    HW1 2669   2.793   2.584   2.862 -1.9220  2.9168 -1.0990
  890SOL    HW2 2670   2.922   2.659   2.786 -1.9098  0.8335  0.8699
  891SOL     OW 2671   0.781   1.637   2.862 -0.7785  0.6084  0.5684
  891SOL    HW1 2672   0.796   1.651   2.968 -1.1328 -0.3524  2.5957
  891SOL    HW2 2673   0.861   1.663   2.808 -0.3620  0.5121 -1.5661
  892SOL     OW 2674   0.269   3.055   1.003 -0.1460  0.4991  0.0477
  892SOL    HW1 2675   0.212   0.029   0.953  1.9939 -2.5670  1.1590
  892SOL    HW2 2676   0.261   2.959   0.967 -2.2330  1.9082  1.3182
  893SOL     OW 2677   0.590   2.872   1.286  0.1076 -0.5413  0.5949
  893SOL    HW1 2678   0.519   2.945   1.289  0.0961 -0.9608 -1.4841
  893SOL    HW2 2679   0.687   2.909   1.301 -2.7272  0.1761  0.2694
  894SOL     OW 2680   2.985   1.311   0.861  0.0147 -0.2688 -0.1771
  894SOL    HW1 2681   3.067   1.249   0.874  3.1935 -1.8929 -1.2989
  894SOL    HW2 2682   3.000   1.377   0.786  2.3770  1.3553 -3.5344
  895SOL     OW 2683   2.624   2.419   1.663  0.1738  0.2144 -0.2278
  895SOL    HW1 2684   2.668   2.329   1.701 -1.1236  1.8933  2.0951
  895SOL    HW2 2685   2.683   2.475   1.608 -2.8520  0.5170  3.7815
  896SOL     OW 2686   0.987   0.434   1.602 -0.0923  0.6291  0.4479
  896SOL    HW1 2687   0.917   0.450   1.672  3.3042  0.4880 -0.6465
  896SOL    HW2 2688   1.033   0.343   1.624 -0.8834 -4.0497  2.9350
  897SOL     OW 2689   0.933   1.530   1.641  0.0244 -0.2124 -0.4664
  897SOL    HW1 2690   0.962   1.441   1.605  0.1903  0.5961  2.5257
  897SOL    HW2 2691   0.847   1.561   1.598  0.1568  0.9837  1.7302
  898SOL     OW 2692   1.274   2.643   1.859  0.1820  0.1874 -0.0557
  898SOL    HW1 2693   1.325   2.605   1.776  2.1513  0.2753 -1.3495
  898SOL    HW2 2694   1.267   2.745   1.848  0.1705  0.5123 -2.5438
  899SOL     OW 2695   0.718   0.739   0.240 -0.5162  0.0080  0.0276
  899SOL    HW1 2696   0.695   0.793   0.326  0.1440  1.9946 -0.4352
  899SOL    HW2 2697   0.808   0.764   0.203 -1.0014  1.1053 -1.8133
  900SOL     OW 2698   1.480   2.303   1.850  0.3045 -0.5696 -0.2843
  900SOL    HW1 2699   1.477   2.273   1.758 -0.8147 -0.5186  1.6309
  900SOL    HW2 2700   1.550   2.378   1.855 -0.9471  0.7399  0.4267
  901SOL     OW 2701   1.085   2.398   0.454  0.2588 -0.1743 -0.3614
  901SOL    HW1 2702   0.996   2.406   0.503  2.6434 -2.3110 -0.2325
  901SOL    HW2 2703   1.071   2.336   0.378 -0.1341  2.7806  0.5573
  902SOL     OW 2704   1.849   1.426   0.143 -0.0240 -0.7742 -0.1447
  902SOL    HW1 2705   1.904   1.501   0.099  0.1557 -0.5387 -1.7689
  902SOL    HW2 2706   1.880   1.418   0.243  2.9174 -1.8337  0.8185
  903SOL     OW 2707   2.171   1.235   0.235 -0.2676 -0.1834  0.5206
  903SOL    HW1 2708   2.267   1.226   0.272  2.8645  0.3643 -0.2826
  903SOL    HW2 2709   2.142   1.174   0.159  0.1549 -1.7635  1.4775
  904SOL     OW 2710   0.674   1.246   2.924  0.7011 -0.2244 -0.7843
  904SOL    HW1 2711   0.685   1.276   2.829 -0.5468 -0.5516 -0.4619
  904SOL    HW2 2712   0.762   1.258   2.976 -0.1391  0.0807 -2.8611
  905SOL     OW 2713   1.929   0.215   1.239  0.5971 -0.0480 -0.2894
  905SOL    HW1 2714   2.018   0.181   1.193  0.6240 -1.8822  0.6793
  905SOL    HW2 2715   1.862   0.248   1.166 -1.7078  1.0858 -2.4569
  906SOL     OW 2716   2.970   2.495   1.273  0.4175  0.0053  0.0359
  906SOL    HW1 2717   3.051   2.551   1.245  0.2826 -1.3531 -0.1336
  906SOL    HW2 2718   2.888   2.535   1.226 -1.5129  2.4140 -2.6425
  907SOL     OW 2719   0.946   0.895   0.147 -0.1057  0.1408  0.2397
  907SOL    HW1 2720   0.915   0.980   0.203 -0.3185  0.4716  1.4888
  907SOL    HW2 2721   1.039   0.857   0.169  2.5236 -0.9428 -0.6853
  908SOL     OW 2722   1.578   3.062   1.091  0.4801  0.8216 -0.4029
  908SOL    HW1 2723   1.643   3.047   1.018 -2.4104  0.9775  2.9242
  908SOL    HW2 2724   1.620   3.024   1.173  0.2195  2.3309 -3.3860
  909SOL     OW 2725   2.048   1.207   1.611 -0.2019  0.0095 -0.2045
  909SOL    HW1 2726   2.098   1.265   1.679  0.6587  1.6632 -0.9921
  909SOL    HW2 2727   2.086   1.222   1.516 -0.2545  0.5362 -0.3242
  910SOL     OW 2728   1.673   2.970   2.121  0.2078 -0.4091  0.2381
  910SOL    HW1 2729   1.648   2.877   2.155  1.1231  0.5738 -0.3670
  910SOL    HW2 2730   1.725   2.959   2.033 -1.4126 -1.0764 -0.1736
  911SOL     OW 2731   2.700   0.838   2.700 -0.6931 -0.2666 -0.1119
  911SOL    HW1 2732   2.685   0.927   2.744  0.3668 -2.5694  0.8097
  911SOL    HW2 2733   2.799   0.831   2.671 -0.7689  2.9355  1.9702
  912SOL     OW 2734   0.071   1.339   1.635  0.5116  0.2617 -0.8092
  912SOL    HW1 2735   0.076   1.426   1.587 -1.3734 -1.2395 -0.0934
  912SOL    HW2 2736   0.154   1.327   1.695  2.0509 -2.2008 -2.0882
  913SOL     OW 2737   3.064   2.449   1.523 -0.3518  0.8456 -0.2239
  913SOL    HW1 2738   3.045   2.351   1.550  0.1259  0.9996 -1.6067
  913SOL    HW2 2739   3.046   2.459   1.422 -0.3074 -1.2710 -2.8669
  914SOL     OW 2740   1.598   0.877   1.692 -0.0563  0.0381  0.6872
  914SOL    HW1 2741   1.649   0.786   1.687  0.9887  0.9792  0.4571
  914SOL    HW2 2742   1.654   0.959   1.659  0.8046  1.2472 -1.4899
  915SOL     OW 2743   2.072   0.560   1.543 -0.5863  0.0470 -0.5883
  915SOL    HW1 2744   2.088   0.538   1.647 -0.4418  0.3196  2.3155
  915SOL    HW2 2745   2.000   0.501   1.508  0.8809  2.7972  2.2998
  916SOL     OW 2746   2.734   2.616   1.159 -0.2505 -0.5450 -0.2901
  916SOL    HW1 2747   2.672   2.634   1.235 -0.8960 -0.2969 -1.6923
  916SOL    HW2 2748   2.689   2.568   1.081 -2.3728  0.9012  1.9752
  917SOL     OW 2749   1.814   2.240   2.926  0.9588 -0.0339  0.1708
  917SOL    HW1 2750   1.883   2.318   2.943  3.4145 -0.2127 -0.8413
  917SOL    HW2 2751   1.817   2.215   2.825 -2.4697  0.8705 -2.5628
  918SOL     OW 2752   1.790   2.752   2.568 -0.3820  0.0041 -0.2877
  918SOL    HW1 2753   1.860   2.812   2.521  0.3973  2.5944 -0.7137
  918SOL    HW2 2754   1.696   2.772   2.532 -0.2170  2.8055  1.2656
  919SOL     OW 2755   1.322   2.536   1.374  0.3662 -0.4268 -0.0718
  919SOL    HW1 2756   1.366   2.589   1.301  1.5224 -2.0396  0.2477
  919SOL    HW2 2757   1.227   2.569   1.378  2.0766 -0.2664  1.5298
  920SOL     OW 2758   2.975   0.324   2.295  0.0594 -0.4068 -0.2671
  920SOL    HW1 2759   2.957   0.231   2.256 -1.2651 -2.1084 -0.0584
  920SOL    HW2 2760   2.890   0.357   2.339  1.1381 -1.0389 -1.6469
  921SOL     OW 2761   2.932   0.999   1.628  0.1354  0.7868  0.3502
  921SOL    HW1 2762   2.937   1.101   1.639 -0.6924  2.1248 -1.6891
  921SOL    HW2 2763   3.018   0.946   1.644  1.0366  2.0724 -3.1727
  922SOL     OW 2764   2.024   2.075   0.306  0.3446  0.3503 -0.6303
  922SOL    HW1 2765   2.120   2.082   0.264 -0.7360  0.4943  0.3350
  922SOL    HW2 2766   1.959   2.141   0.262 -1.7311  4.8408  2.1629
  923SOL     OW 2767   0.831   1.932   0.074  0.1632 -0.0478  0.4552
  923SOL    HW1 2768   0.846   1.835   0.064  2.6779  1.5109 -0.6082
  923SOL    HW2 2769   0.780   1.955   0.159 -0.4226 -0.1005 -1.6118
  924SOL     OW 2770   1.300   0.379   3.070 -0.2942 -0.1414 -0.0342
  924SOL    HW1 2771   1.234   0.383   2.999  2.3149 -1.0606  1.0971
  924SOL    HW2 2772   1.352   0.466   3.077 -1.5263 -0.8918  2.4122
  925SOL     OW 2773   2.441   0.415   0.834 -0.2169 -0.1504  0.1062
  925SOL    HW1 2774   2.464   0.332   0.773 -0.3080 -1.1152  2.9248
  925SOL    HW2 2775   2.413   0.377   0.920  2.2970 -0.8516  0.1497
  926SOL     OW 2776   0.624   0.162   1.296 -0.3664  0.4541 -0.5756
  926SOL    HW1 2777   0.541   0.106   1.279 -1.5628  1.1270  1.0993
  926SOL    HW2 2778   0.626   0.197   1.390 -2.8925  1.2317 -0.9364
  927SOL     OW 2779   0.137   1.610   2.302 -0.0065  0.4540 -0.3253
  927SOL    HW1 2780   0.053   1.633   2.253 -0.8756  0.6141 -3.3349
  927SOL    HW2 2781   0.170   1.514   2.295 -0.6940  1.5832 -0.2910
  928SOL     OW 2782   2.802   0.303   2.662 -0.3815  0.0087  0.0659
  928SOL    HW1 2783   2.843   0.332   2.748  0.7523 -0.8926  0.0938
  928SOL    HW2 2784   2.846   0.217   2.629 -2.5545  0.6950  1.8125
  929SOL     OW 2785   2.508   0.105   1.405  0.0262 -0.0028 -0.3388
  929SOL    HW1 2786   2.516   0.004   1.378  0.0170 -1.8475  1.3154
  929SOL    HW2 2787   2.410   0.136   1.410  0.2372  0.1925 -0.9350
  930SOL     OW 2788   1.839   1.008   1.930 -0.1281 -0.0463  0.2931
  930SOL    HW1 2789   1.769   1.078   1.919 -1.6938 -1.0668  0.0051
  930SOL    HW2 2790   1.908   1.046   1.995 -0.1782 -0.4219  1.1121
  931SOL     OW 2791   2.170   1.196   3.014 -0.7849 -0.1342 -0.3654
  931SOL    HW1 2792   2.241   1.123   3.006 -1.0975 -1.4194  0.8329
  931SOL    HW2 2793   2.086   1.145   3.007 -0.6690 -0.7265 -2.1033
  932SOL     OW 2794   2.320   1.112   0.779  0.4434  0.2202 -0.1601
  932SOL    HW1 2795   2.335   1.144   0.685 -0.3043 -0.1538  0.4733
  932SOL    HW2 2796   2.290   1.016   0.770  1.9723 -0.7585  0.8540
  933SOL     OW 2797   2.507   1.737   0.852  0.3643 -0.8336  0.6475
  933SOL    HW1 2798   2.470   1.762   0.761 -1.2146  0.6352  0.0516
  933SOL    HW2 2799   2.449   1.780   0.923 -0.0316  1.5226 -2.5878
  934SOL     OW 2800   2.162   0.571   2.476  0.1036 -0.5015  0.2034
  934SOL    HW1 2801   2.227   0.600   2.405 -2.0579 -1.8798  2.3053
  934SOL    HW2 2802   2.071   0.550   2.439  2.6926  0.2100 -0.2160
  935SOL     OW 2803   0.200   1.280   0.473 -0.3805  0.4853 -0.5048
  935SOL    HW1 2804   0.141   1.198   0.486  0.7487 -1.5416  2.5757
  935SOL    HW2 2805   0.294   1.256   0.447 -0.7747 -0.7256  1.8406
  936SOL     OW 2806   0.190   0.256   0.619  0.8995 -0.0020  0.3411
  936SOL    HW1 2807   0.101   0.242   0.564  0.1891 -1.9276 -1.3065
  936SOL    HW2 2808   0.182   0.195   0.700 -0.2598  0.0359  4.2530
  937SOL     OW 2809   2.682   2.949   1.346 -0.4591 -0.2001 -0.0992
  937SOL    HW1 2810   2.602   2.920   1.295  0.1895 -3.2218  0.6039
  937SOL    HW2 2811   2.744   3.010   1.293  1.4403  0.6668  1.0832
  938SOL     OW 2812   2.862   2.458   0.015  0.0935 -0.5506 -0.0340
  938SOL    HW1 2813   2.841   2.543   0.071 -2.1337  0.4848  2.3112
  938SOL    HW2 2814   2.962   2.441   0.024  0.1671  0.5248  1.2396
  939SOL     OW 2815   0.701   1.990   0.868  0.0731  0.2352 -0.7418
  939SOL    HW1 2816   0.677   1.986   0.965 -0.7936  0.2359 -0.8058
  939SOL    HW2 2817   0.617   2.024   0.817 -1.4144 -1.9636  0.1358
  940SOL     OW 2818   0.037   0.267   2.805  0.0257  0.1171 -0.1041
  940SOL    HW1 2819   3.077   0.214   2.877  1.8404 -1.4822 -1.1429
  940SOL    HW2 2820   0.120   0.214   2.778 -0.5266 -1.0353 -0.1873
  941SOL     OW 2821   1.644   0.490   2.661 -0.7837 -0.4242 -0.6355
  941SOL    HW1 2822   1.619   0.578   2.709 -0.7954  1.2904  0.0471
  941SOL    HW2 2823   1.566   0.450   2.611  3.1109 -0.5238  1.0282
  942SOL     OW 2824   1.378   0.775   1.524  0.1141 -0.3822  0.5259
  942SOL    HW1 2825   1.428   0.824   1.593 -1.0521 -2.2380 -1.5023
  942SOL    HW2 2826   1.449   0.747   1.461 -1.1914  4.5539  0.2097
  943SOL     OW 2827   1.296   1.038   1.846  0.1754  0.1005 -0.8005
  943SOL    HW1 2828   1.384   1.022   1.890 -0.5758  1.2136  0.6775
  943SOL    HW2 2829   1.230   0.978   1.897 -2.2615 -0.1414 -2.6506
  944SOL     OW 2830   2.022   0.956   1.708  0.2167 -0.1895  0.1791
  944SOL    HW1 2831   1.937   0.957   1.763 -1.1819  1.1939  0.0291
  944SOL    HW2 2832   2.052   1.053   1.693 -0.7691  0.6628  0.0220
  945SOL     OW 2833   2.768   0.017   0.296 -0.2261  0.2847  0.4911
  945SOL    HW1 2834   2.752   3.068   0.388  0.7878 -0.1615  0.4942
  945SOL    HW2 2835   2.809   0.106   0.307  0.7646 -0.7079  1.8411
  946SOL     OW 2836   2.760   0.672   1.886  0.4189 -0.3436 -0.2536
  946SOL    HW1 2837   2.842   0.646   1.930 -3.2661 -0.1711 -0.9567
  946SOL    HW2 2838   2.683   0.613   1.919 -0.9715 -1.6334 -2.0914
  947SOL     OW 2839   1.033   3.047   0.591 -0.3592  0.3103 -0.2150
  947SOL    HW1 2840   1.063   3.007   0.502 -1.9087 -0.4580  2.4567
  947SOL    HW2 2841   0.930   3.043   0.599  0.1089 -1.0438  2.0520
  948SOL     OW 2842   2.385   1.691   1.454 -0.4388  0.7932 -0.3089
  948SOL    HW1 2843   2.373   1.770   1.511  1.3594 -0.2854 -1.2557
  948SOL    HW2 2844   2.422   1.608   1.503  3.0549 -1.0276 -1.2287
  949SOL     OW 2845   0.446   1.399   2.972 -0.0166 -0.2266  0.3426
  949SOL    HW1 2846   0.415   1.432   2.878  1.1651  1.2347 -2.8942
  949SOL    HW2 2847   0.532   1.346   2.956  1.5436 -3.4963  0.1065
  950SOL     OW 2848   0.547   2.572   0.864 -0.5930 -0.3837 -0.6393
  950SOL    HW1 2849   0.539   2.576   0.760 -0.7315  1.5244  1.9602
  950SOL    HW2 2850   0.464   2.529   0.906 -1.5729 -0.8074  2.1644
  951SOL     OW 2851   0.637   0.949   2.247  0.3667  0.0283  0.0171
  951SOL    HW1 2852   0.713   0.981   2.186 -1.6324  4.9664 -1.1793
  951SOL    HW2 2853   0.661   0.942   2.345 -0.8097 -0.5472 -2.3058
  952SOL     OW 2854   0.320   0.949   0.591  0.1198 -0.1977 -0.1276
  952SOL    HW1 2855   0.394   1.011   0.564 -0.4078 -2.4715  0.9303
  952SOL    HW2 2856   0.228   0.997   0.607 -1.5727 -1.5303 -1.8638
  953SOL     OW 2857   2.505   0.045   2.525 -0.2849 -0.5615  0.2085
  953SOL    HW1 2858   2.417   0.091   2.546  0.3399 -0.4271  0.5726
  953SOL    HW2 2859   2.510   3.042   2.558  2.0834  0.8351  1.5022
  954SOL     OW 2860   1.654   1.350   0.499  0.2175  0.1096  0.2610
  954SOL    HW1 2861   1.713   1.434   0.494 -2.4578 -0.7709  0.4472
  954SOL    HW2 2862   1.693   1.282   0.569  1.9713 -0.8820 -1.2116
  955SOL     OW 2863   0.708   2.041   2.953 -0.0805  0.3673 -0.0363
  955SOL    HW1 2864   0.765   1.993   3.021 -2.6436  1.0716 -0.8719
  955SOL    HW2 2865   0.717   2.138   2.947  0.7957 -0.5633 -0.6728
  956SOL     OW 2866   2.069   0.541   2.089  0.1963  0.4992  0.5366
  956SOL    HW1 2867   2.103   0.445   2.094  1.1180  1.8749  1.2065
  956SOL    HW2 2868   2.145   0.601   2.060 -0.8840 -0.3279 -2.0305
  957SOL     OW 2869   1.950   2.284   2.390 -0.1497  0.0109 -0.7352
  957SOL    HW1 2870   1.910   2.360   2.442  1.4628 -1.1068  0.1619
  957SOL    HW2 2871   2.029   2.250   2.448  2.3619 -1.0212 -0.6880
  958SOL     OW 2872   1.622   1.321   1.277 -0.5261  0.1638  0.4092
  958SOL    HW1 2873   1.699   1.278   1.223  1.2939  0.3486 -0.6307
  958SOL    HW2 2874   1.584   1.248   1.342 -0.9190 -4.1158  1.8663
  959SOL     OW 2875   1.917   2.007   2.309  0.2643 -0.3668 -0.2323
  959SOL    HW1 2876   1.924   2.107   2.315 -1.3495  3.5711 -0.9357
  959SOL    HW2 2877   1.843   1.976   2.375 -1.9236 -0.7119  3.2183
  960SOL     OW 2878   0.196   0.848   2.528 -0.1383 -0.2852  0.2675
  960SOL    HW1 2879   0.207   0.940   2.482 -1.5261  2.6383  0.1620
  960SOL    HW2 2880   0.121   0.799   2.476 -1.3209 -0.8601 -3.2372
  961SOL     OW 2881   0.362   0.720   2.700 -0.0778 -0.6102  0.0674
  961SOL    HW1 2882   0.279   0.726   2.632 -1.3113  0.2816 -2.3483
  961SOL    HW2 2883   0.355   0.794   2.769  3.5381 -1.4652  2.6671
  962SOL     OW 2884   0.446   1.048   2.559 -0.2609 -0.8821 -0.0014
  962SOL    HW1 2885   0.404   1.018   2.647 -0.2159 -1.4277  0.4780
  962SOL    HW2 2886   0.532   1.000   2.538 -1.0215 -0.1552 -0.9913
  963SOL     OW 2887   2.751   2.293   0.187 -0.3008 -0.4291  0.3811
  963SOL    HW1 2888   2.798   2.361   0.125 -2.2924 -2.6903  0.7645
  963SOL    HW2 2889   2.792   2.203   0.181 -1.1028 -0.1960  0.6140
  964SOL     OW 2890   0.845   2.282   1.860 -0.0754 -0.5289  0.2539
  964SOL    HW1 2891   0.931   2.316   1.895 -0.2972 -1.3257  0.0325
  964SOL    HW2 2892   0.763   2.313   1.918  0.9459  4.0264 -3.0818
  965SOL     OW 2893   1.790   1.727   0.172 -0.4301 -0.0874  0.2978
  965SOL    HW1 2894   1.841   1.685   0.095 -0.1726  1.8683 -0.7205
  965SOL    HW2 2895   1.772   1.829   0.164  3.3583  0.1315  3.1822
  966SOL     OW 2896   0.061   1.440   0.322  0.1576 -0.2727 -0.1775
  966SOL    HW1 2897   0.114   1.390   0.392  0.8964  1.3824  2.8144
  966SOL    HW2 2898   0.051   1.540   0.338  1.7378 -1.6275  0.6639
  967SOL     OW 2899   1.758   2.848   1.825  0.6716 -0.8145  0.3789
  967SOL    HW1 2900   1.725   2.820   1.734  0.6864 -0.9778 -3.3858
  967SOL    HW2 2901   1.744   2.773   1.889 -1.0070 -1.6156 -0.1686
  968SOL     OW 2902   1.362   0.640   0.485  0.1769  0.1000 -0.2076
  968SOL    HW1 2903   1.275   0.635   0.532  0.5525  0.0715 -1.3023
  968SOL    HW2 2904   1.444   0.651   0.546 -0.7893  2.3590  1.0958
  969SOL     OW 2905   0.220   1.352   2.210  0.0221  0.4426  0.2519
  969SOL    HW1 2906   0.285   1.289   2.252  0.1376  0.8082 -2.2259
  969SOL    HW2 2907   0.245   1.360   2.109  2.8915  0.3796 -1.3062
  970SOL     OW 2908   2.225   2.032   1.309 -0.1784  1.0591  0.1870
  970SOL    HW1 2909   2.135   1.987   1.325 -0.5364 -0.7709 -0.0098
  970SOL    HW2 2910   2.220   2.122   1.346 -0.9393 -3.1722 -1.5331
  971SOL     OW 2911   2.852   2.848   1.042  0.6915  0.0275 -0.0967
  971SOL    HW1 2912   2.847   2.759   1.093 -1.9453 -1.3445  1.2660
  971SOL    HW2 2913   2.882   2.931   1.093 -1.1860 -0.6676  2.2086
  972SOL     OW 2914   3.080   1.214   2.620 -0.2038  0.2930 -0.1713
  972SOL    HW1 2915   3.089   1.220   2.518  0.8794 -0.6258 -0.3897
  972SOL    HW2 2916   2.982   1.224   2.650  0.7336  0.2695 -0.8959
  973SOL     OW 2917   0.531   0.527   0.439  0.8133  0.1922  0.1442
  973SOL    HW1 2918   0.502   0.453   0.498 -0.9055 -0.5764  2.8760
  973SOL    HW2 2919   0.606   0.501   0.370  2.2543  0.0955 -2.2021
  974SOL     OW 2920   2.222   0.780   1.827  0.5449 -0.4795 -0.1410
  974SOL    HW1 2921   2.155   0.854   1.794 -0.5220  1.5120  1.4820
  974SOL    HW2 2922   2.311   0.793   1.785 -0.9322  2.0021  1.1715
  975SOL     OW 2923   2.925   2.913   0.151 -0.3103 -0.6091  0.2843
  975SOL    HW1 2924   2.860   2.979   0.201  0.1413 -1.8673  1.0909
  975SOL    HW2 2925   3.019   2.940   0.171 -0.1273 -1.7243 -0.3541
  976SOL     OW 2926   0.445   1.739   1.194 -0.1537  0.2349 -0.5560
  976SOL    HW1 2927   0.432   1.648   1.236  0.8283 -1.7848  0.9097
  976SOL    HW2 2928   0.402   1.749   1.099 -0.0024  0.8090 -1.9130
  977SOL     OW 2929   1.098   2.083   0.811 -0.2309 -0.3017 -0.3491
  977SOL    HW1 2930   1.154   2.004   0.833 -1.3404 -0.0641  0.3873
  977SOL    HW2 2931   1.154   2.155   0.765 -1.6926 -3.7846  1.1880
  978SOL     OW 2932   0.601   1.028   0.301  0.1422  0.2854 -0.0831
  978SOL    HW1 2933   0.575   1.011   0.398  1.3987  1.7008  1.0064
  978SOL    HW2 2934   0.535   0.978   0.244  1.6317  3.4937 -0.1706
  979SOL     OW 2935   2.170   1.571   0.265  0.5572  0.3786 -0.2587
  979SOL    HW1 2936   2.194   1.494   0.201  0.1790 -0.9586 -1.8274
  979SOL    HW2 2937   2.092   1.627   0.227  1.1664 -0.8242  2.2255
  980SOL     OW 2938   0.458   1.772   2.463  0.3478 -0.6758 -0.7262
  980SOL    HW1 2939   0.493   1.745   2.372  2.1613  0.3409 -0.8867
  980SOL    HW2 2940   0.372   1.830   2.452  0.4798  0.8443 -2.7377
  981SOL     OW 2941   2.868   0.864   0.118  0.5166 -0.1421  0.5114
  981SOL    HW1 2942   2.829   0.869   0.209  0.2026 -2.9357 -2.0356
  981SOL    HW2 2943   2.812   0.807   0.057 -0.5076  1.2203 -1.6385
  982SOL     OW 2944   2.997   2.901   1.991 -0.9352 -0.2526 -0.1171
  982SOL    HW1 2945   2.917   2.962   1.965  0.8662 -1.8019 -0.3896
  982SOL    HW2 2946   2.998   2.816   1.936  0.4860 -0.3417  0.0554
  983SOL     OW 2947   1.530   0.396   1.483  0.3042  0.8246 -0.4154
  983SOL    HW1 2948   1.505   0.382   1.388  0.7017  0.9427  0.4146
  983SOL    HW2 2949   1.622   0.359   1.494  1.6465  1.7451  1.8404
  984SOL     OW 2950   1.252   2.804   2.676 -0.1953  0.7447  0.2977
  984SOL    HW1 2951   1.313   2.807   2.755 -0.2211  0.2330  0.6900
  984SOL    HW2 2952   1.270   2.726   2.613 -3.0038  0.9251  0.2762
  985SOL     OW 2953   1.345   1.516   1.614 -0.9948  0.0077 -0.7217
  985SOL    HW1 2954   1.292   1.515   1.527 -0.2756 -2.6051  2.8134
  985SOL    HW2 2955   1.288   1.557   1.691 -0.5353  1.3085  2.1406
  986SOL     OW 2956   1.984   2.928   2.515 -0.5363  0.2284  0.0567
  986SOL    HW1 2957   2.073   2.918   2.458  2.0082 -0.0303 -0.7560
  986SOL    HW2 2958   1.962   3.030   2.518 -0.1877  0.8556 -2.0948
  987SOL     OW 2959   2.696   1.768   2.539 -0.4002 -0.2060 -0.5164
  987SOL    HW1 2960   2.798   1.760   2.550  1.1140 -1.0328  1.4371
  987SOL    HW2 2961   2.676   1.844   2.476 -0.2917 -2.2372  2.4032
  988SOL     OW 2962   2.733   0.268   1.695 -0.5116  0.0629  0.4904
  988SOL    HW1 2963   2.824   0.295   1.655 -1.2102  0.3697 -1.6981
  988SOL    HW2 2964   2.692   0.206   1.628  1.2561  1.6176  1.6014
  989SOL     OW 2965   1.759   1.180   1.635 -0.3585 -0.5898  0.1799
  989SOL    HW1 2966   1.711   1.240   1.701 -0.5246  2.4014  0.4973
  989SOL    HW2 2967   1.860   1.198   1.636  0.8850 -1.7970  0.9713
  990SOL     OW 2968   2.974   1.125   0.026 -0.6356  0.1065 -0.1839
  990SOL    HW1 2969   2.959   1.069   0.104 -0.0939  2.5674  0.1575
  990SOL    HW2 2970   2.993   1.072   3.027  1.3683  1.8983 -1.9328
  991SOL     OW 2971   0.280   2.130   2.912  0.2182  0.0392  0.4433
  991SOL    HW1 2972   0.243   2.076   2.991  0.8523  1.1049 -2.9313
  991SOL    HW2 2973   0.320   2.070   2.842 -1.5108  0.9002  1.2468
  992SOL     OW 2974   2.652   2.021   2.009  0.3337  0.0949 -0.3624
  992SOL    HW1 2975   2.667   2.097   2.072  0.6943 -1.2834 -1.6062
  992SOL    HW2 2976   2.732   1.952   2.020  0.6987 -0.4962 -1.1985
  993SOL     OW 2977   0.772   0.017   0.663 -0.2079  0.3436  0.3998
  993SOL    HW1 2978   0.723   0.038   0.578  0.5740 -1.7236  1.5042
  993SOL    HW2 2979   0.711   3.083   0.738 -1.0906  0.6398 -1.5762
  994SOL     OW 2980   0.020   1.871   1.519  0.3608 -0.0471  0.4117
  994SOL    HW1 2981   0.054   1.924   1.602  0.6802  0.2351 -0.1712
  994SOL    HW2 2982   0.082   1.876   1.435  1.0195 -0.9270  0.3803
  995SOL     OW 2983   2.362   1.963   2.484  0.5999  0.1119 -0.3427
  995SOL    HW1 2984   2.411   2.033   2.437 -2.8101  0.3880  1.3746
  995SOL    HW2 2985   2.282   1.927   2.427 -1.8024 -1.2644 -0.2424
  996SOL     OW 2986   1.912   1.819   2.961  0.2042 -0.2158  0.0355
  996SOL    HW1 2987   1.838   1.874   3.012 -0.2814 -0.8210  2.7823
  996SOL    HW2 2988   2.006   1.863   2.955  0.2505  0.2008 -0.8664
  997SOL     OW 2989   1.080   1.309   1.533  0.2480 -0.1224  0.1890
  997SOL    HW1 2990   1.159   1.254   1.542  2.2399  3.4366  0.3241
  997SOL    HW2 2991   1.106   1.376   1.461  0.6231 -1.0163  1.8239
  998SOL     OW 2992   2.836   2.116   0.996 -0.0358 -0.6009  0.3052
  998SOL    HW1 2993   2.891   2.049   0.942  0.2207 -0.3323 -1.9020
  998SOL    HW2 2994   2.860   2.107   1.097 -0.3189 -2.6044  0.0079
  999SOL     OW 2995   2.817   2.662   0.178 -0.2036 -0.2553 -0.1574
  999SOL    HW1 2996   2.729   2.690   0.222 -1.3848  0.6704  1.9421
  999SOL    HW2 2997   2.869   2.746   0.150 -3.4440 -1.3206 -0.4271
 1000SOL     OW 2998   1.071   0.107   0.004  0.2405  0.3431 -0.6149
 1000SOL    HW1 2999   1.096   0.139   0.097 -1.4466 -2.1865  0.9288
 1000SOL    HW2 3000   1.087   0.183   3.022  0.2113 -1.3369  1.3341
   3.09094   3.09094   3.09094
