1000 SPC/Fw water molecules t=  13.00000 step= 13000
 3000
    1SOL     OW    1   1.469   2.625   0.287  0.0711  0.4110 -0.3104
    1SOL    HW1    2   1.491   2.718   0.262  0.5783  1.3613  1.2040
    1SOL    HW2    3   1.398   2.618   0.361 -1.9386 -0.6111  1.3172
    2SOL     OW    4   1.415   0.844   1.870 -0.1417 -0.0576 -0.0937
    2SOL    HW1    5   1.470   0.763   1.842 -0.2426  0.9360  1.4308
    2SOL    HW2    6   1.475   0.931   1.857 -1.1452 -0.6813  0.4016
    3SOL     OW    7   0.824   0.062   2.967 -0.1028  0.0670  0.2362
    3SOL    HW1    8   0.850   0.085   3.060  1.6261 -0.2679 -5.5656
    3SOL    HW2    9   0.744   0.110   2.924  1.2936 -0.7510 -2.1770
    4SOL     OW   10   1.504   1.555   2.990 -0.4396 -0.2523  0.7017
    4SOL    HW1   11   1.459   1.513   3.072 -1.8318  0.7759 -2.4838
    4SOL    HW2   12   1.446   1.620   2.941 -1.0782  0.6085 -0.2178
    5SOL     OW   13   0.756   1.096   2.257 -0.6368 -0.2273 -0.4233
    5SOL    HW1   14   0.818   1.012   2.237 -0.9358  0.9175 -1.7441
    5SOL    HW2   15   0.779   1.147   2.343 -1.2805 -0.5855  3.4287
    6SOL     OW   16   2.305   0.968   2.508  0.1731 -0.5395  0.3456
    6SOL    HW1   17   2.226   0.983   2.442 -1.0262  2.7996 -1.1247
    6SOL    HW2   18   2.398   0.960   2.465  1.6054 -0.1619 -1.9311
    7SOL     OW   19   0.415   0.879   1.275  0.8210  0.6478 -0.0673
    7SOL    HW1   20   0.339   0.826   1.234 -1.2540 -2.8274 -1.4244
    7SOL    HW2   21   0.413   0.976   1.243 -0.9013  0.5995  1.0490
    8SOL     OW   22   2.141   2.788   1.855 -0.2767 -0.0562  0.7821
    8SOL    HW1   23   2.078   2.781   1.772 -2.2680 -0.5573 -1.4954
    8SOL    HW2   24   2.117   2.854   1.929  1.1444 -2.5920 -0.6806
    9SOL     OW   25   3.046   2.520   0.633 -0.5199 -0.4371 -0.2142
    9SOL    HW1   26   3.076   2.462   0.561 -2.7149 -0.9607  4.1496
    9SOL    HW2   27   0.023   2.553   0.694  1.8652  2.2294  1.0051
   10SOL     OW   28   0.073   2.337   2.461 -0.0136 -0.2193  0.4418
   10SOL    HW1   29   0.063   2.393   2.377  0.0799  0.4504 -1.5162
   10SOL    HW2   30   0.110   2.247   2.433 -1.0503  1.6196 -3.2715
   11SOL     OW   31   0.431   1.618   3.097  0.1694  0.1355 -0.0665
   11SOL    HW1   32   0.399   1.522   3.097  1.2720 -0.0842  1.9650
   11SOL    HW2   33   0.442   1.646   0.097 -1.4131  0.2053  0.5452
   12SOL     OW   34   2.019   2.606   0.671 -0.1389  0.2953  0.4549
   12SOL    HW1   35   1.927   2.576   0.701  2.3075 -0.5994  0.2785
   12SOL    HW2   36   2.068   2.661   0.736 -1.9559 -0.1476 -0.9265
   13SOL     OW   37   0.228   0.434   2.622  0.0362  0.3946  0.2507
   13SOL    HW1   38   0.197   0.347   2.669 -0.9536 -0.8159  1.4232
   13SOL    HW2   39   0.267   0.498   2.694  1.7417 -0.9338 -1.3716
   14SOL     OW   40   1.224   1.064   1.578 -0.0829 -0.4275  0.2178
   14SOL    HW1   41   1.183   0.996   1.515 -2.1885  0.1814  0.3437
   14SOL    HW2   42   1.194   1.028   1.672  0.3166  2.1428  1.5879
   15SOL     OW   43   0.483   1.486   2.121 -0.0956 -0.0724 -0.6519
   15SOL    HW1   44   0.392   1.462   2.087  0.9527  1.3455 -1.1684
   15SOL    HW2   45   0.514   1.413   2.191 -0.0915 -2.1754 -1.2926
   16SOL     OW   46   1.568   1.058   2.789  0.6484  0.3623  0.7818
   16SOL    HW1   47   1.519   1.143   2.758 -1.4857 -0.6915 -0.6826
   16SOL    HW2   48   1.653   1.070   2.836 -1.7055 -1.2115 -0.3222
   17SOL     OW   49   0.088   2.488   2.231 -0.4334 -0.0168 -0.3836
   17SOL    HW1   50   0.010   2.558   2.223 -0.3238 -1.8396  1.2479
   17SOL    HW2   51   0.108   2.446   2.142  1.8618  1.7562  3.4360
   18SOL     OW   52   1.426   1.263   0.646 -0.0016 -0.0248  0.0324
   18SOL    HW1   53   1.440   1.164   0.652 -4.2330 -1.4050  0.5012
   18SOL    HW2   54   1.329   1.291   0.667 -0.6697 -1.5411  3.6231
   19SOL     OW   55   0.184   1.140   1.970  0.4471  0.0989 -0.2348
   19SOL    HW1   56   0.257   1.171   2.031 -1.1450  1.1869 -2.5848
   19SOL    HW2   57   0.194   1.043   1.943 -0.3227  2.0764  0.8454
   20SOL     OW   58   2.044   2.192   2.863  0.6875  0.1875  0.4704
   20SOL    HW1   59   2.032   2.229   2.960  1.9247  1.7063  3.0958
   20SOL    HW2   60   2.038   2.263   2.792 -1.2635  0.1179  0.6749
   21SOL     OW   61   1.837   1.956   1.205  0.2387  0.5183 -0.9066
   21SOL    HW1   62   1.816   1.995   1.296  0.8314 -0.0470  2.0262
   21SOL    HW2   63   1.864   1.852   1.210 -1.0934 -2.8782 -0.7633
   22SOL     OW   64   2.016   2.162   1.413 -0.6532  0.5576 -0.0116
   22SOL    HW1   65   1.979   2.156   1.509 -0.1561 -0.7624 -2.2215
   22SOL    HW2   66   1.965   2.222   1.344 -2.7471  3.8377  0.8851
   23SOL     OW   67   0.069   1.018   1.293 -0.0083 -0.1843  0.3981
   23SOL    HW1   68   0.077   1.026   1.396  0.4116  1.0981 -0.8410
   23SOL    HW2   69   0.080   0.922   1.260  3.8030  1.2642  1.1295
   24SOL     OW   70   1.659   1.480   1.814  0.2498 -0.2995  0.1214
   24SOL    HW1   71   1.640   1.463   1.717  2.2498  1.4909 -1.3170
   24SOL    HW2   72   1.750   1.523   1.820 -0.9035 -1.5959  0.4483
   25SOL     OW   73   1.825   0.181   2.403  0.1729  0.3306  0.5046
   25SOL    HW1   74   1.917   0.226   2.410  0.0795  0.1692  0.2978
   25SOL    HW2   75   1.756   0.248   2.431  1.4469 -2.7105  2.2871
   26SOL     OW   76   0.642   2.873   0.757  0.0987 -0.4009 -0.0963
   26SOL    HW1   77   0.709   2.899   0.823 -2.6549 -2.6103  0.8000
   26SOL    HW2   78   0.679   2.786   0.707 -1.3516 -3.0867  0.0368
   27SOL     OW   79   1.073   1.177   0.948 -0.2871  0.0367 -0.4735
   27SOL    HW1   80   1.168   1.144   0.974  0.7015  3.1971  0.5186
   27SOL    HW2   81   1.042   1.246   1.019  0.4862 -0.8806 -1.9078
   28SOL     OW   82   2.266   2.416   1.070  0.7841 -0.8499 -0.2444
   28SOL    HW1   83   2.292   2.475   0.991  0.1526 -0.3274  0.5847
   28SOL    HW2   84   2.204   2.467   1.133 -0.3161 -3.0200 -0.5983
   29SOL     OW   85   2.246   2.957   2.251 -0.5093 -0.4992  0.5202
   29SOL    HW1   86   2.177   2.891   2.283 -0.2298  0.9624 -0.2933
   29SOL    HW2   87   2.242   3.030   2.322 -1.7474 -2.7181  2.1922
   30SOL     OW   88   0.037   2.806   1.986  0.5200  0.4087  0.0874
   30SOL    HW1   89   3.072   2.878   1.951  0.6766 -0.6819 -0.0488
   30SOL    HW2   90   0.097   2.849   2.055 -2.3367  0.5763 -0.2662
   31SOL     OW   91   2.990   1.841   2.144 -0.6823  0.0209 -0.0524
   31SOL    HW1   92   2.941   1.909   2.202 -3.0966 -0.3200  2.7680
   31SOL    HW2   93   3.093   1.858   2.149 -0.9416  1.8462 -0.0788
   32SOL     OW   94   1.063   2.229   2.240  0.0477 -0.5619 -0.5780
   32SOL    HW1   95   1.102   2.149   2.193 -1.6768  1.4309  2.0964
   32SOL    HW2   96   1.132   2.307   2.244  2.3631 -0.8709  1.0886
   33SOL     OW   97   0.251   0.409   3.041  0.0114  0.0095 -0.4269
   33SOL    HW1   98   0.272   0.333   0.005 -1.0290 -1.4749  2.0159
   33SOL    HW2   99   0.335   0.432   2.987  1.7286  1.3140  1.1204
   34SOL     OW  100   2.855   0.123   0.105  0.3489 -0.2735  0.1044
   34SOL    HW1  101   2.953   0.114   0.089  1.1861  0.4649 -0.8326
   34SOL    HW2  102   2.808   0.137   0.021  0.9326  0.5713  2.4011
   35SOL     OW  103   3.016   2.545   1.711 -0.3419  0.2139 -1.0324
   35SOL    HW1  104   0.012   2.546   1.744  1.9612  2.4872  0.4021
   35SOL    HW2  105   3.003   2.611   1.629  3.5670  1.7455 -1.5302
   36SOL     OW  106   2.257   0.078   2.438 -0.1638 -0.2395  0.4312
   36SOL    HW1  107   2.289   0.047   2.526 -2.4755  0.3979 -2.7101
   36SOL    HW2  108   2.185   0.147   2.448 -0.1446 -1.2851 -0.6804
   37SOL     OW  109   1.646   2.649   3.060  0.3260 -0.0513 -0.2031
   37SOL    HW1  110   1.711   2.690   2.994 -0.9293  1.6944 -0.8000
   37SOL    HW2  111   1.603   2.727   0.011 -1.4066  3.3964 -2.1147
   38SOL     OW  112   0.303   0.543   0.666 -0.2032  0.6312 -0.8712
   38SOL    HW1  113   0.383   0.491   0.633 -0.4057  0.4019 -1.4887
   38SOL    HW2  114   0.239   0.472   0.695 -0.9764 -0.1720 -0.7436
   39SOL     OW  115   1.120   1.969   2.114 -0.1780  0.5618  0.2748
   39SOL    HW1  116   1.144   1.871   2.115  0.6471  3.6644  1.2996
   39SOL    HW2  117   1.202   2.009   2.068  2.7837 -0.8503  0.3299
   40SOL     OW  118   3.095   0.984   0.034 -0.4111 -0.4375 -0.0900
   40SOL    HW1  119   3.012   0.942   3.091 -1.3505  1.2998 -0.4108
   40SOL    HW2  120   0.016   1.079   3.099 -2.2507 -0.2633 -0.4165
   41SOL     OW  121   1.505   0.577   1.897  0.1894 -0.0227 -0.0792
   41SOL    HW1  122   1.542   0.545   1.809 -1.2660  0.1882 -0.0031
   41SOL    HW2  123   1.442   0.508   1.935 -1.4977 -0.5793  1.4971
   42SOL     OW  124   2.372   0.233   1.150 -0.2476 -0.5221  0.2178
   42SOL    HW1  125   2.336   0.287   1.072 -1.8899  0.0380 -1.7312
   42SOL    HW2  126   2.395   0.299   1.225  3.5053  0.4771 -3.3609
   43SOL     OW  127   1.494   0.707   1.576  0.5517  0.4976 -0.0601
   43SOL    HW1  128   1.503   0.805   1.554 -0.0853  1.8747  1.3114
   43SOL    HW2  129   1.581   0.664   1.615  0.3435 -1.5122  1.3863
   44SOL     OW  130   0.410   0.699   0.137 -0.5445  0.0768  0.7652
   44SOL    HW1  131   0.368   0.651   0.213  1.5226 -0.9236 -0.7068
   44SOL    HW2  132   0.357   0.781   0.119  1.6160 -0.5051  0.3287
   45SOL     OW  133   0.605   1.716   1.779 -0.5203  0.2434  0.2166
   45SOL    HW1  134   0.661   1.646   1.727 -0.6797  2.8392  0.3928
   45SOL    HW2  135   0.613   1.811   1.744 -2.5451 -2.4635 -1.9331
   46SOL     OW  136   2.346   2.615   1.880  0.3973 -0.4709 -0.0235
   46SOL    HW1  137   2.360   2.599   1.981 -0.2557  0.6822  1.7094
   46SOL    HW2  138   2.264   2.675   1.866 -0.7405  4.1792  0.9927
   47SOL     OW  139   0.322   1.868   1.610 -0.3267  0.1247 -0.0836
   47SOL    HW1  140   0.260   1.786   1.635 -1.2838  0.4198 -1.6878
   47SOL    HW2  141   0.307   1.940   1.680  2.8529 -0.3510  0.3031
   48SOL     OW  142   0.998   2.539   2.776 -0.4745 -0.1467  0.5715
   48SOL    HW1  143   0.972   2.449   2.745  2.2194  1.9351 -0.7882
   48SOL    HW2  144   0.932   2.586   2.835  2.2601 -1.6348  0.4367
   49SOL     OW  145   2.600   1.484   1.941 -0.0771  0.7686  0.2224
   49SOL    HW1  146   2.680   1.520   1.898  1.2444  0.7114 -0.3573
   49SOL    HW2  147   2.603   1.381   1.944  1.6773 -0.5593 -0.3655
   50SOL     OW  148   1.033   2.866   0.618  0.8452 -0.4469  0.1111
   50SOL    HW1  149   1.131   2.889   0.609 -1.9452  1.1381  0.0670
   50SOL    HW2  150   0.986   2.897   0.536 -2.1461 -0.3385 -1.0018
   51SOL     OW  151   1.288   0.227   1.268 -0.5345  0.0789 -1.0453
   51SOL    HW1  152   1.288   0.326   1.252  0.4814 -3.6797 -0.8890
   51SOL    HW2  153   1.193   0.189   1.266 -1.3471 -2.6942 -1.6094
   52SOL     OW  154   0.386   0.780   0.501  0.4786 -0.8044  0.2019
   52SOL    HW1  155   0.321   0.720   0.557  0.6162 -1.7245 -0.4945
   52SOL    HW2  156   0.349   0.877   0.496  1.7316  1.6763  2.5381
   53SOL     OW  157   1.322   0.031   2.770  0.0368  0.2981  0.3056
   53SOL    HW1  158   1.224   0.021   2.798  3.6897  1.2489 -0.9630
   53SOL    HW2  159   1.332   0.013   2.667  4.5529  2.4533  1.0950
   54SOL     OW  160   2.163   0.606   2.335 -0.3171  0.0796  0.6323
   54SOL    HW1  161   2.240   0.633   2.276 -0.6138 -1.5761  0.6285
   54SOL    HW2  162   2.093   0.553   2.286 -1.2697 -0.6461  0.2396
   55SOL     OW  163   2.713   2.717   0.222  0.6305  0.4737  0.0775
   55SOL    HW1  164   2.810   2.703   0.240 -0.2985  2.4969  1.7669
   55SOL    HW2  165   2.695   2.739   0.126 -0.2655  1.1155  2.2920
   56SOL     OW  166   0.883   0.037   2.098  0.0303 -0.2819  0.3709
   56SOL    HW1  167   0.793   0.002   2.069  2.2275  0.2097  1.9848
   56SOL    HW2  168   0.873   0.100   2.178 -0.5409 -1.2077  0.9734
   57SOL     OW  169   1.713   0.953   2.372  0.1573 -0.2203 -0.3451
   57SOL    HW1  170   1.746   1.041   2.333 -1.0678 -0.5594 -0.4639
   57SOL    HW2  171   1.752   0.874   2.322  0.8864 -2.3123  0.6909
   58SOL     OW  172   3.019   1.073   2.152 -0.1009 -0.7922  0.1734
   58SOL    HW1  173   2.973   1.075   2.060 -0.7121  0.8964  0.0078
   58SOL    HW2  174   3.074   0.986   2.150  1.1751  0.7392 -0.2643
   59SOL     OW  175   0.519   2.608   1.502  0.1325 -0.4609 -0.4752
   59SOL    HW1  176   0.546   2.698   1.542  0.2286  2.6230  1.0323
   59SOL    HW2  177   0.585   2.597   1.425 -1.4946  0.9124 -0.9447
   60SOL     OW  178   1.967   2.840   0.218 -0.3627 -0.0711 -0.0167
   60SOL    HW1  179   1.966   2.754   0.272  0.6940 -3.6710 -1.0676
   60SOL    HW2  180   2.045   2.901   0.244  0.9651 -1.5320 -2.0828
   61SOL     OW  181   1.426   2.271   0.409  0.0923 -0.2759 -0.7984
   61SOL    HW1  182   1.493   2.264   0.490  0.4606 -2.5980  2.0969
   61SOL    HW2  183   1.484   2.300   0.330  2.3813 -0.0435  0.4967
   62SOL     OW  184   1.822   2.714   2.842  0.4915  0.0401 -0.0013
   62SOL    HW1  185   1.874   2.739   2.757  1.3882 -1.1153 -1.5679
   62SOL    HW2  186   1.760   2.634   2.825 -2.7021  0.0127 -2.3943
   63SOL     OW  187   2.243   0.851   0.655 -0.0081  0.0240  0.0306
   63SOL    HW1  188   2.280   0.908   0.580  1.0085 -0.6009  0.9012
   63SOL    HW2  189   2.143   0.840   0.644 -0.5150 -0.0509 -0.5994
   64SOL     OW  190   1.588   1.158   0.046 -0.1826  0.3356 -0.2045
   64SOL    HW1  191   1.608   1.256   0.060 -1.2296  0.6830 -2.6907
   64SOL    HW2  192   1.487   1.140   0.027 -1.3468  0.4981  1.8214
   65SOL     OW  193   0.681   2.206   1.574  0.1698  0.1187 -0.6517
   65SOL    HW1  194   0.670   2.195   1.469 -1.5470  0.2219  0.3526
   65SOL    HW2  195   0.631   2.288   1.610  1.1342  0.8323 -0.2639
   66SOL     OW  196   0.875   1.204   1.533  0.4826 -0.0795  0.0488
   66SOL    HW1  197   0.948   1.216   1.464 -1.7763  0.8926 -0.1951
   66SOL    HW2  198   0.885   1.265   1.612  2.5068 -0.7290 -4.2037
   67SOL     OW  199   2.417   2.004   1.705  0.5468 -0.5333  0.0387
   67SOL    HW1  200   2.518   2.006   1.705 -3.9219  0.1066 -0.9168
   67SOL    HW2  201   2.385   1.939   1.775 -3.3294  1.8066 -1.9239
   68SOL     OW  202   0.922   1.642   1.884 -0.3706  0.0996  0.1992
   68SOL    HW1  203   0.885   1.592   1.801  2.2914  1.8709 -0.3160
   68SOL    HW2  204   0.893   1.737   1.896 -0.0036  1.8722 -0.0441
   69SOL     OW  205   0.073   3.089   3.090 -0.1934 -0.0752  0.3480
   69SOL    HW1  206   0.067   3.009   0.054  0.3822  0.2536 -0.5374
   69SOL    HW2  207   0.068   0.081   0.036 -2.3105 -0.1273 -0.6585
   70SOL     OW  208   2.316   1.293   2.344  0.1078 -0.0715 -0.2621
   70SOL    HW1  209   2.302   1.396   2.350  1.9216 -0.7265  0.2529
   70SOL    HW2  210   2.413   1.272   2.363  1.5577  2.1318  1.0133
   71SOL     OW  211   0.908   2.103   0.773  0.3461  0.2455  0.0480
   71SOL    HW1  212   0.993   2.157   0.774 -2.2650  0.9366  1.7431
   71SOL    HW2  213   0.886   2.062   0.861 -2.0423  0.7790 -2.6905
   72SOL     OW  214   2.368   2.039   0.453 -0.0267 -0.1094  0.1825
   72SOL    HW1  215   2.439   2.109   0.433  0.0622  1.6915  0.6560
   72SOL    HW2  216   2.390   2.003   0.545  3.0048 -0.8709 -0.6187
   73SOL     OW  217   1.055   0.740   0.869  0.4077  0.2738  0.1595
   73SOL    HW1  218   1.136   0.800   0.859  0.4603  0.4298  1.0110
   73SOL    HW2  219   0.978   0.796   0.851  4.8320  0.7813 -3.4441
   74SOL     OW  220   2.763   2.173   2.005 -0.4882  0.1313 -0.0463
   74SOL    HW1  221   2.832   2.235   1.967  1.0707  1.5357 -0.0589
   74SOL    HW2  222   2.707   2.217   2.079 -0.3029  3.6098 -1.2204
   75SOL     OW  223   1.588   1.869   1.865  0.0229  0.4099 -0.4149
   75SOL    HW1  224   1.526   1.841   1.789  0.0663  1.2122  0.1234
   75SOL    HW2  225   1.556   1.830   1.953 -2.6679 -2.5899  0.4275
   76SOL     OW  226   1.418   1.514   1.297  0.0616  0.1348 -0.6689
   76SOL    HW1  227   1.369   1.429   1.264  1.1740 -0.1610 -0.8196
   76SOL    HW2  228   1.489   1.543   1.232 -3.0247 -1.3359  2.9134
   77SOL     OW  229   2.459   1.102   1.539  0.2431  0.6222 -0.1918
   77SOL    HW1  230   2.498   1.194   1.547 -3.6509  0.2405 -2.1350
   77SOL    HW2  231   2.381   1.102   1.478  4.1165  0.3209  1.1860
   78SOL     OW  232   1.527   0.635   0.285 -0.1673 -0.8974  0.4966
   78SOL    HW1  233   1.556   0.651   0.188  0.6614 -1.7060 -1.4048
   78SOL    HW2  234   1.470   0.717   0.315 -0.2483  1.8686 -1.1314
   79SOL     OW  235   0.944   1.521   2.131 -0.3758 -0.3481 -0.4889
   79SOL    HW1  236   0.939   1.584   2.049 -0.0556  2.6980 -4.1678
   79SOL    HW2  237   0.872   1.536   2.203 -2.0140 -3.7082 -0.2769
   80SOL     OW  238   0.979   0.288   1.538 -0.3358 -0.0029 -0.0617
   80SOL    HW1  239   1.030   0.372   1.506 -0.6165  1.8115  2.0154
   80SOL    HW2  240   1.036   0.235   1.603  0.5869  1.1373 -0.1649
   81SOL     OW  241   0.493   2.387   0.257  0.6533  0.1769  0.1030
   81SOL    HW1  242   0.577   2.399   0.205 -1.0372 -1.4428 -1.0237
   81SOL    HW2  243   0.491   2.318   0.336 -0.1868 -0.3894 -1.0079
   82SOL     OW  244   1.152   0.116   1.646  0.1371  0.3400  0.3339
   82SOL    HW1  245   1.118   0.064   1.727  0.1187  0.1857 -0.4993
   82SOL    HW2  246   1.214   0.055   1.591 -0.3706 -0.5486  0.2766
   83SOL     OW  247   0.299   2.338   0.924 -0.3777  0.3426 -0.6410
   83SOL    HW1  248   0.225   2.304   0.984  2.5399  0.6793  1.5857
   83SOL    HW2  249   0.319   2.279   0.844  0.5971  2.3201 -0.5500
   84SOL     OW  250   2.804   1.530   1.082 -0.3006  0.4506 -0.0019
   84SOL    HW1  251   2.820   1.442   1.033 -2.1408  1.3878 -1.8543
   84SOL    HW2  252   2.877   1.598   1.055 -1.2111 -0.1664  0.3218
   85SOL     OW  253   2.372   1.946   1.194 -0.4822  0.5344 -0.2556
   85SOL    HW1  254   2.301   1.892   1.248  0.4252 -1.3470  0.6498
   85SOL    HW2  255   2.460   1.942   1.243 -1.8035  0.3191  0.1312
   86SOL     OW  256   1.369   2.352   1.928  0.0390 -0.9199 -0.1740
   86SOL    HW1  257   1.342   2.275   1.870  3.4854  1.0143  3.6336
   86SOL    HW2  258   1.463   2.387   1.903  0.0679 -1.3788  2.0412
   87SOL     OW  259   2.227   1.647   0.742  0.5250  0.7123 -0.0195
   87SOL    HW1  260   2.207   1.609   0.652 -0.4880 -3.0639  5.4563
   87SOL    HW2  261   2.324   1.651   0.772 -1.9065  1.0480  0.6931
   88SOL     OW  262   0.463   2.918   0.989  0.2738  0.2499 -0.3496
   88SOL    HW1  263   0.509   2.885   0.900 -0.3570 -0.1797  1.8688
   88SOL    HW2  264   0.533   2.965   1.048  0.6469  0.6564 -0.6432
   89SOL     OW  265   0.451   0.771   1.965  0.0814 -0.0740  0.2921
   89SOL    HW1  266   0.476   0.862   1.996 -0.5163  0.1147 -0.6755
   89SOL    HW2  267   0.536   0.728   1.934 -0.6337 -1.0494 -1.5722
   90SOL     OW  268   2.750   1.940   0.263 -0.0756 -0.4353 -0.0881
   90SOL    HW1  269   2.690   2.002   0.317 -0.0180 -1.5601 -0.8219
   90SOL    HW2  270   2.799   1.885   0.333  1.2812  3.5896  0.8198
   91SOL     OW  271   0.871   1.959   1.013 -0.4508  0.3432  0.1580
   91SOL    HW1  272   0.920   1.963   1.102 -2.3802  0.0719 -1.6428
   91SOL    HW2  273   0.801   1.883   1.007  1.3003  2.0049  1.8465
   92SOL     OW  274   2.162   0.120   1.851  0.1493  0.7350 -0.5551
   92SOL    HW1  275   2.257   0.148   1.884  1.5921 -0.0584  2.1766
   92SOL    HW2  276   2.132   0.044   1.907 -0.3972 -0.0809 -2.1985
   93SOL     OW  277   0.487   1.700   2.816  0.1651 -0.3281 -0.7122
   93SOL    HW1  278   0.493   1.679   2.913  0.9333  0.2341  0.1989
   93SOL    HW2  279   0.555   1.776   2.804  0.2441 -1.2715  1.8767
   94SOL     OW  280   2.401   0.196   1.956 -0.0111 -0.2805  0.4279
   94SOL    HW1  281   2.404   0.275   2.016 -2.4020 -1.2551 -1.5463
   94SOL    HW2  282   2.503   0.157   1.956  2.2697 -0.2786  0.3000
   95SOL     OW  283   1.940   0.188   2.048  0.2936 -0.5219 -0.2823
   95SOL    HW1  284   1.971   0.176   1.953 -1.7761  1.2092  0.7591
   95SOL    HW2  285   1.914   0.098   2.093  0.2464  0.8617  1.2672
   96SOL     OW  286   0.262   0.440   1.966  0.9594  0.4722 -0.3415
   96SOL    HW1  287   0.178   0.475   2.005 -0.0446 -0.5009 -1.7616
   96SOL    HW2  288   0.284   0.492   1.883 -1.9658  1.1068  0.7665
   97SOL     OW  289   2.070   0.105   1.346  0.1690 -0.4282  0.4016
   97SOL    HW1  290   2.114   0.184   1.396 -1.7672 -0.9725 -2.0821
   97SOL    HW2  291   1.988   0.082   1.399  0.9978  0.1170  1.2910
   98SOL     OW  292   2.064   2.321   1.846 -0.2701  0.3975  0.7856
   98SOL    HW1  293   2.163   2.327   1.834 -1.4903  0.9316  1.3240
   98SOL    HW2  294   2.043   2.329   1.946  0.3318  0.1623 -1.6183
   99SOL     OW  295   0.700   0.734   0.882 -0.1805 -0.0976  0.6549
   99SOL    HW1  296   0.632   0.795   0.833  0.7465 -1.1318 -1.5185
   99SOL    HW2  297   0.714   0.647   0.833  0.7640 -0.1898 -1.2194
  100SOL     OW  298   2.726   1.911   2.030  0.0085 -0.2523  0.3768
  100SOL    HW1  299   2.719   2.010   1.999 -1.8924 -0.8172 -1.6321
  100SOL    HW2  300   2.815   1.884   2.069 -2.0778 -0.1680 -1.1370
  101SOL     OW  301   1.642   0.070   0.018 -0.0052  0.3011  0.5656
  101SOL    HW1  302   1.598   0.144   0.073  0.1096 -0.0557 -2.3022
  101SOL    HW2  303   1.607   0.059   3.022  0.5212 -1.4110 -0.2033
  102SOL     OW  304   2.973   2.925   1.100  0.0200  0.0231 -0.0774
  102SOL    HW1  305   2.888   2.972   1.077 -1.2003  1.9963 -0.1796
  102SOL    HW2  306   3.004   2.868   1.022 -2.1810 -0.5466 -0.2766
  103SOL     OW  307   0.421   3.011   2.355 -0.1012  0.1997  0.0765
  103SOL    HW1  308   0.407   3.044   2.452  0.6915  1.8316  1.2847
  103SOL    HW2  309   0.508   2.960   2.341  0.0881  0.3213 -0.5568
  104SOL     OW  310   0.340   2.183   1.553 -0.5675 -0.1894 -0.1345
  104SOL    HW1  311   0.259   2.229   1.520 -0.8405  1.3861 -0.7864
  104SOL    HW2  312   0.385   2.133   1.473 -0.0464  0.9326 -2.0972
  105SOL     OW  313   0.700   2.004   2.098 -0.0286 -0.3474  0.1749
  105SOL    HW1  314   0.633   1.933   2.130  1.1287  2.3595  0.2090
  105SOL    HW2  315   0.734   2.041   2.184  0.0170 -2.0512 -1.2209
  106SOL     OW  316   2.411   3.049   0.478  0.0220  0.6117 -0.3153
  106SOL    HW1  317   2.390   3.052   0.578 -1.7862 -2.4415  1.9084
  106SOL    HW2  318   2.505   3.017   0.453  0.3581 -0.6283  1.3576
  107SOL     OW  319   0.732   1.190   1.098  0.2535  0.4187  0.0992
  107SOL    HW1  320   0.634   1.198   1.128  0.0489  1.3745 -0.4278
  107SOL    HW2  321   0.745   1.095   1.072 -1.1619  3.7952 -0.3396
  108SOL     OW  322   2.919   1.156   1.905  0.2545 -0.5109 -0.0047
  108SOL    HW1  323   2.821   1.190   1.897  1.5444  0.1005 -1.0327
  108SOL    HW2  324   2.984   1.218   1.861 -0.5790  2.5633 -0.0960
  109SOL     OW  325   1.994   2.699   3.053  0.4454 -0.4201  0.2905
  109SOL    HW1  326   1.947   2.745   0.028 -0.5712 -0.8005  0.9879
  109SOL    HW2  327   1.932   2.682   2.969 -0.5928 -1.1731 -1.1208
  110SOL     OW  328   0.279   2.020   2.848 -0.1506 -0.1332  0.2211
  110SOL    HW1  329   0.182   1.999   2.825  2.4807  0.3382 -1.7703
  110SOL    HW2  330   0.317   1.947   2.911 -1.7078 -0.1502 -1.5970
  111SOL     OW  331   2.784   0.782   2.363 -0.8354  0.1050 -0.0632
  111SOL    HW1  332   2.797   0.784   2.261 -1.0355  0.6657 -0.3452
  111SOL    HW2  333   2.869   0.822   2.400  1.4359 -1.5063  2.1963
  112SOL     OW  334   2.426   2.794   1.590  0.9328 -0.3969 -0.1213
  112SOL    HW1  335   2.353   2.865   1.576  2.2325  1.0387  0.4404
  112SOL    HW2  336   2.464   2.800   1.680 -0.9512 -0.1151 -1.0705
  113SOL     OW  337   2.206   2.067   2.609 -0.0336 -0.2621 -0.2839
  113SOL    HW1  338   2.263   1.982   2.605 -0.9561  2.9662 -1.8888
  113SOL    HW2  339   2.249   2.139   2.664 -0.7849 -0.2333  0.7644
  114SOL     OW  340   0.741   0.029   0.426  0.6836  0.0455  0.0403
  114SOL    HW1  341   0.760   3.065   0.348 -0.5664 -1.2623  0.9748
  114SOL    HW2  342   0.824   0.033   0.482  0.2812  0.4745 -2.1588
  115SOL     OW  343   0.021   1.842   0.024  0.5251 -0.2752  0.7742
  115SOL    HW1  344   3.100   1.747   0.043  1.0606  0.4043 -0.6705
  115SOL    HW2  345   0.118   1.856   3.096 -0.9057 -0.7511  1.8025
  116SOL     OW  346   0.063   1.250   1.733 -0.9261 -0.4141  0.0461
  116SOL    HW1  347   0.093   1.214   1.825 -0.1873 -0.7986  1.4094
  116SOL    HW2  348   0.145   1.287   1.689  0.0597  0.4898 -0.1005
  117SOL     OW  349   2.180   0.348   1.442 -0.4241 -0.0129  0.3596
  117SOL    HW1  350   2.283   0.347   1.426  2.3469  0.6198 -0.2795
  117SOL    HW2  351   2.137   0.434   1.407  0.4284 -1.7573 -0.4495
  118SOL     OW  352   2.752   2.539   2.155  0.0933 -0.4438 -0.3322
  118SOL    HW1  353   2.786   2.539   2.062  1.5277  2.8423  1.7464
  118SOL    HW2  354   2.834   2.578   2.205  1.4204  1.7990  0.1707
  119SOL     OW  355   0.456   1.549   1.626 -0.3883 -0.1022  0.1050
  119SOL    HW1  356   0.527   1.535   1.558 -0.6832  2.5796  3.1771
  119SOL    HW2  357   0.502   1.609   1.690 -3.6954 -0.1790 -1.7737
  120SOL     OW  358   0.354   1.298   1.641  0.0119 -0.3093 -0.3888
  120SOL    HW1  359   0.404   1.226   1.702  0.8818 -0.9890  1.0642
  120SOL    HW2  360   0.380   1.395   1.665  3.9618  1.1976 -0.4246
  121SOL     OW  361   1.459   1.005   0.713  0.9317 -0.1266  0.8132
  121SOL    HW1  362   1.437   0.919   0.662  0.1153 -0.4800  0.9455
  121SOL    HW2  363   1.528   0.988   0.787  0.2352  0.4590  0.2084
  122SOL     OW  364   2.353   2.299   2.701  0.0987  0.1609 -0.0496
  122SOL    HW1  365   2.317   2.382   2.746  1.8184 -0.8525  1.1391
  122SOL    HW2  366   2.370   2.323   2.603 -1.4221  0.2457 -2.9376
  123SOL     OW  367   0.160   0.217   0.371  0.0807  0.0879  0.2843
  123SOL    HW1  368   0.178   0.189   0.464  1.3461  0.3158 -1.5948
  123SOL    HW2  369   0.113   0.310   0.377 -1.4758 -1.6730  0.4869
  124SOL     OW  370   1.741   1.425   0.077  0.0291  0.0443  0.1675
  124SOL    HW1  371   1.758   1.498   0.007  1.4555 -0.8363 -0.0425
  124SOL    HW2  372   1.829   1.403   0.129 -1.1643 -1.2192  1.4677
  125SOL     OW  373   0.071   0.855   2.248  0.5690  0.0773 -0.1212
  125SOL    HW1  374   0.041   0.820   2.339 -1.9056  0.5825 -5.0373
  125SOL    HW2  375   0.173   0.854   2.245  1.3700  2.6308  0.2544
  126SOL     OW  376   0.066   2.692   2.977  0.6528  0.0616 -0.4327
  126SOL    HW1  377   3.096   2.705   2.903  0.3301 -1.8312 -2.9803
  126SOL    HW2  378   0.063   2.589   3.008  1.0098 -2.4276  1.5441
  127SOL     OW  379   2.743   1.843   0.010  0.8723  0.2127 -0.5513
  127SOL    HW1  380   2.750   1.879   0.108  1.3797  2.0013 -1.3720
  127SOL    HW2  381   2.733   1.923   3.049  3.3102  0.7790 -0.2961
  128SOL     OW  382   0.935   0.975   0.868  0.4094  0.1313  0.1026
  128SOL    HW1  383   0.988   1.060   0.887  0.4667  0.2571  0.0954
  128SOL    HW2  384   0.865   0.960   0.941 -0.7208 -0.1854  0.2460
  129SOL     OW  385   2.381   2.183   1.045 -0.4480  0.1056 -0.1475
  129SOL    HW1  386   2.333   2.104   1.096  0.7983 -1.3936 -1.9790
  129SOL    HW2  387   2.312   2.257   1.025 -2.4485  2.9502 -1.0129
  130SOL     OW  388   1.957   0.818   0.135  0.7166  0.2503 -0.1702
  130SOL    HW1  389   2.038   0.857   0.089  1.3167 -2.3725  1.5933
  130SOL    HW2  390   1.885   0.779   0.066 -3.7092 -2.6912  0.2477
  131SOL     OW  391   2.929   1.540   2.662 -0.2727  0.1256  0.1798
  131SOL    HW1  392   2.962   1.558   2.568 -1.2084 -0.1857  2.3140
  131SOL    HW2  393   2.997   1.576   2.730  2.0348  0.4842  1.6323
  132SOL     OW  394   1.096   1.097   2.036 -0.0071 -0.7537  0.5214
  132SOL    HW1  395   1.028   1.169   2.019  1.0105 -0.5973  2.2156
  132SOL    HW2  396   1.134   1.052   1.950 -0.8709  0.8975 -1.0981
  133SOL     OW  397   0.476   1.178   0.703  0.1684  0.2015 -0.0854
  133SOL    HW1  398   0.579   1.186   0.699  4.3566 -0.1628 -0.7324
  133SOL    HW2  399   0.442   1.274   0.714  0.8441  2.1221  0.8391
  134SOL     OW  400   0.022   1.559   3.101 -0.1762  0.3545 -0.0952
  134SOL    HW1  401   0.073   1.533   0.086  0.4036  0.0628 -0.5631
  134SOL    HW2  402   0.062   1.511   3.024 -2.1585  0.2556  3.9277
  135SOL     OW  403   1.578   0.784   0.049 -0.5917  1.0363 -0.4163
  135SOL    HW1  404   1.507   0.818   3.090  2.9616 -1.0025  0.6298
  135SOL    HW2  405   1.658   0.754   3.097 -2.7994  0.7862  0.6203
  136SOL     OW  406   2.147   1.893   1.338 -0.5500  0.3488 -0.0564
  136SOL    HW1  407   2.082   1.812   1.350 -2.4367 -0.3017  0.5146
  136SOL    HW2  408   2.089   1.976   1.338  3.2541 -2.7072 -2.7765
  137SOL     OW  409   2.271   2.568   0.825  0.4384  0.3152 -0.4706
  137SOL    HW1  410   2.226   2.645   0.878  0.9942 -0.8591  1.1114
  137SOL    HW2  411   2.208   2.516   0.768  1.4272  1.9107 -0.4213
  138SOL     OW  412   2.252   0.609   1.852  0.0359  0.0553 -0.2862
  138SOL    HW1  413   2.175   0.611   1.922 -1.5309  2.5932 -0.4046
  138SOL    HW2  414   2.255   0.522   1.801  3.6798  0.5879  0.2835
  139SOL     OW  415   2.687   2.401   2.769 -0.0457 -0.3831 -0.1747
  139SOL    HW1  416   2.689   2.300   2.784 -1.0434  1.3253  0.0666
  139SOL    HW2  417   2.666   2.418   2.670 -2.2355 -1.3602 -1.6213
  140SOL     OW  418   1.641   1.963   2.536  0.1191  0.6058 -0.4704
  140SOL    HW1  419   1.697   2.043   2.572  1.7173  1.1584  1.7770
  140SOL    HW2  420   1.679   1.924   2.449  0.5339 -1.5725 -0.8394
  141SOL     OW  421   1.064   1.204   2.474  0.3476  0.0627  0.0295
  141SOL    HW1  422   1.088   1.262   2.397 -1.7647 -2.2784  3.7711
  141SOL    HW2  423   1.146   1.159   2.518 -0.0193 -0.0109  2.8932
  142SOL     OW  424   1.987   2.654   2.100 -0.3226  0.2679 -0.2454
  142SOL    HW1  425   1.958   2.556   2.105  0.1024 -0.5394 -0.2363
  142SOL    HW2  426   2.068   2.681   2.040 -0.4977 -0.6390  2.4396
  143SOL     OW  427   1.199   2.387   0.420 -0.1523  0.0224 -0.6825
  143SOL    HW1  428   1.296   2.356   0.413 -1.9490 -1.9287  2.3085
  143SOL    HW2  429   1.179   2.434   0.507 -0.4877 -2.2068 -1.7669
  144SOL     OW  430   0.693   2.647   0.614  0.1370  0.0818 -0.1084
  144SOL    HW1  431   0.790   2.638   0.651 -0.6656  3.5876 -1.3741
  144SOL    HW2  432   0.691   2.638   0.510  1.2005 -0.3418 -3.2355
  145SOL     OW  433   1.695   2.480   2.723  0.4098  0.2138  0.4500
  145SOL    HW1  434   1.617   2.538   2.721  0.3332  2.6885 -0.4792
  145SOL    HW2  435   1.702   2.428   2.815 -0.1596 -1.0142  3.6632
  146SOL     OW  436   2.186   2.532   0.037 -0.2437 -0.0744 -0.2855
  146SOL    HW1  437   2.112   2.591   0.003 -1.9698 -0.6297 -0.0444
  146SOL    HW2  438   2.217   2.564   0.129 -2.4292  1.1617  0.0089
  147SOL     OW  439   0.137   1.655   1.647  0.1887 -0.4333  0.1069
  147SOL    HW1  440   0.153   1.608   1.563  0.0112 -0.0580  1.1393
  147SOL    HW2  441   0.157   1.602   1.732  1.9704  1.9777  2.5797
  148SOL     OW  442   1.508   2.854   0.128 -0.4837 -0.1889  0.5081
  148SOL    HW1  443   1.507   2.954   0.139 -0.6189 -2.3148 -0.3661
  148SOL    HW2  444   1.414   2.816   0.121  1.2321  0.0824  0.7847
  149SOL     OW  445   0.471   1.981   0.135 -0.1127 -0.1364 -0.1797
  149SOL    HW1  446   0.532   2.007   0.056  0.5126  2.5521 -1.7006
  149SOL    HW2  447   0.393   2.043   0.139  1.9373 -3.1416 -0.8129
  150SOL     OW  448   0.158   2.630   1.260  0.2502 -0.3821 -0.1474
  150SOL    HW1  449   0.208   2.640   1.351 -1.4604  0.6112  0.6984
  150SOL    HW2  450   0.051   2.626   1.264 -2.1392  2.0024  0.4657
  151SOL     OW  451   0.369   1.362   3.046 -0.2794 -0.5696  0.0002
  151SOL    HW1  452   0.407   1.344   2.953 -0.1512  0.2540 -1.0014
  151SOL    HW2  453   0.436   1.333   0.017 -3.3589  1.4764  3.1760
  152SOL     OW  454   3.003   2.140   1.029 -0.2508 -0.0671 -0.0877
  152SOL    HW1  455   2.921   2.100   0.980  1.6799 -1.0855 -3.2129
  152SOL    HW2  456   2.985   2.227   1.074  0.6606 -4.2008 -4.1790
  153SOL     OW  457   1.633   2.212   0.614  0.2076 -0.0654  0.2042
  153SOL    HW1  458   1.711   2.152   0.584  1.5356 -1.3009 -1.6471
  153SOL    HW2  459   1.563   2.159   0.660  2.1634 -0.3504 -1.6868
  154SOL     OW  460   0.515   0.040   1.589  0.0998  0.7344  0.0825
  154SOL    HW1  461   0.482   0.069   1.496  0.6648 -1.2925  1.6713
  154SOL    HW2  462   0.602   0.091   1.618  0.1265 -0.2923 -0.0642
  155SOL     OW  463   2.627   2.163   0.373  0.6508  1.0914  0.2105
  155SOL    HW1  464   2.716   2.192   0.404 -4.5121 -1.6068  1.5494
  155SOL    HW2  465   2.549   2.236   0.377 -0.5509  0.0463 -0.4278
  156SOL     OW  466   2.283   2.021   0.181  0.2098 -0.0876 -0.3621
  156SOL    HW1  467   2.307   2.108   0.135  0.1121 -1.9657 -2.3407
  156SOL    HW2  468   2.291   2.031   0.281 -1.4374 -1.6320 -2.7342
  157SOL     OW  469   0.652   2.896   1.880 -0.2334 -0.2491  0.0969
  157SOL    HW1  470   0.664   2.969   1.947  0.2149 -0.7507 -2.7531
  157SOL    HW2  471   0.570   2.841   1.915  2.5540 -2.4257  3.4285
  158SOL     OW  472   1.221   0.524   1.239  0.5750  0.1986 -0.2918
  158SOL    HW1  473   1.147   0.569   1.186  2.4889  1.8584 -0.1764
  158SOL    HW2  474   1.208   0.532   1.340 -1.3199 -1.2324 -1.4577
  159SOL     OW  475   1.816   1.069   3.025  0.0687  0.2673  0.1193
  159SOL    HW1  476   1.732   1.094   3.084 -4.2562  1.5636  0.7815
  159SOL    HW2  477   1.802   0.967   3.003 -0.7541 -0.6122 -0.1628
  160SOL     OW  478   1.211   1.949   0.614  1.0803  0.0753  0.2114
  160SOL    HW1  479   1.191   1.989   0.520 -0.7685 -1.5376 -1.3161
  160SOL    HW2  480   1.198   2.014   0.694  0.4852 -0.2519  1.5092
  161SOL     OW  481   2.615   2.133   2.408  0.1616 -0.3380 -0.2664
  161SOL    HW1  482   2.523   2.098   2.425 -0.7112  2.5867 -1.3400
  161SOL    HW2  483   2.671   2.129   2.490 -0.7460  2.8368  3.5592
  162SOL     OW  484   0.104   2.301   1.433  0.0274  0.2240  0.5278
  162SOL    HW1  485   0.055   2.214   1.448 -0.6150  1.5261  0.1033
  162SOL    HW2  486   0.133   2.310   1.336 -0.0887 -1.5090 -0.8506
  163SOL     OW  487   0.277   0.635   2.824 -0.0156  0.0920  0.5544
  163SOL    HW1  488   0.340   0.619   2.901 -1.0370 -0.6372  1.3032
  163SOL    HW2  489   0.195   0.682   2.858  0.5726 -2.7493  0.1648
  164SOL     OW  490   0.335   2.481   2.770  0.2868 -0.2877  0.6557
  164SOL    HW1  491   0.228   2.471   2.758 -1.2661 -0.6541 -1.6621
  164SOL    HW2  492   0.367   2.573   2.800 -0.0289  0.0461 -0.8251
  165SOL     OW  493   2.482   0.827   1.547 -0.5523 -0.2844 -0.4250
  165SOL    HW1  494   2.460   0.922   1.519 -1.4091 -0.7484 -1.3227
  165SOL    HW2  495   2.564   0.817   1.606  1.4677 -2.1804 -1.1772
  166SOL     OW  496   2.013   1.662   1.384  0.4652 -0.2501 -0.0875
  166SOL    HW1  497   2.060   1.570   1.393  0.9037 -1.0777  2.5907
  166SOL    HW2  498   1.954   1.667   1.301  1.2566  0.1504  1.2070
  167SOL     OW  499   0.052   0.737   2.903  0.6388 -0.5311 -0.5584
  167SOL    HW1  500   3.093   0.744   2.987  1.2569  1.6259  0.2266
  167SOL    HW2  501   0.063   0.833   2.866 -0.8884 -0.6328  0.1339
  168SOL     OW  502   2.106   0.273   2.799  0.1909 -0.4878 -0.1224
  168SOL    HW1  503   2.010   0.306   2.779 -0.7333  0.9478 -0.4030
  168SOL    HW2  504   2.172   0.348   2.802  1.7170  0.2386 -0.8983
  169SOL     OW  505   0.605   1.040   2.977 -0.4735  0.1266  0.2378
  169SOL    HW1  506   0.619   0.997   3.066  0.2602 -1.7985  0.5497
  169SOL    HW2  507   0.530   0.993   2.926 -1.6252 -0.0068  0.2172
  170SOL     OW  508   0.943   1.335   1.755 -0.0938  0.0813 -0.6321
  170SOL    HW1  509   0.918   1.303   1.851  0.7878 -1.0062  3.8484
  170SOL    HW2  510   1.039   1.368   1.768  0.6590  0.9355  1.1677
  171SOL     OW  511   1.410   2.728   1.160 -0.0548  0.5994  0.3013
  171SOL    HW1  512   1.421   2.823   1.204  0.3856 -0.6153  0.3694
  171SOL    HW2  513   1.492   2.672   1.165 -1.5988  2.0157  0.1567
  172SOL     OW  514   0.894   2.854   1.805 -0.4731 -0.0774 -0.0818
  172SOL    HW1  515   0.795   2.870   1.833 -0.0433  1.2056  0.4298
  172SOL    HW2  516   0.911   2.755   1.785 -0.8983  1.4945  2.0194
  173SOL     OW  517   0.573   2.404   0.693 -0.3089  0.1666  0.1863
  173SOL    HW1  518   0.656   2.457   0.669 -0.8878 -0.3964  0.1647
  173SOL    HW2  519   0.509   2.459   0.757 -4.3981  2.1566  2.9028
  174SOL     OW  520   2.114   0.151   0.362  0.1633  0.0798 -0.4709
  174SOL    HW1  521   2.028   0.102   0.393 -2.0014  0.3928 -0.9179
  174SOL    HW2  522   2.158   0.088   0.298 -0.4527 -1.1523 -0.2888
  175SOL     OW  523   1.029   1.413   1.081 -0.5821  0.5319 -0.5731
  175SOL    HW1  524   1.098   1.473   1.039 -0.8898  0.0325  1.8659
  175SOL    HW2  525   0.937   1.425   1.041  3.4765 -0.1734  0.7131
  176SOL     OW  526   1.165   1.906   1.010  0.4407  0.0159  0.6294
  176SOL    HW1  527   1.263   1.909   1.045  1.1734  0.0708 -0.1324
  176SOL    HW2  528   1.117   1.996   1.017 -2.2216  1.5285 -0.3880
  177SOL     OW  529   1.335   1.117   0.988  0.3801  0.0593 -0.0473
  177SOL    HW1  530   1.427   1.098   1.024 -0.5132 -0.3084  0.5004
  177SOL    HW2  531   1.339   1.099   0.884  0.4957  1.0959  1.3707
  178SOL     OW  532   2.293   1.461   0.446  0.0672 -0.2665 -0.5329
  178SOL    HW1  533   2.390   1.478   0.477  2.1586  3.0340 -0.1191
  178SOL    HW2  534   2.268   1.490   0.347  0.3290  2.4401 -0.9107
  179SOL     OW  535   1.263   2.768   0.064  0.0447  0.1058  0.1482
  179SOL    HW1  536   1.187   2.738   0.129 -1.3010 -0.2319 -1.8664
  179SOL    HW2  537   1.275   2.702   3.089  0.3355  0.9098  2.7833
  180SOL     OW  538   1.745   1.264   1.378  0.1678 -0.0185  0.4273
  180SOL    HW1  539   1.708   1.337   1.439 -2.6554 -0.4449  4.0513
  180SOL    HW2  540   1.790   1.307   1.296  1.2691  1.5785 -4.9705
  181SOL     OW  541   0.747   0.983   1.829 -0.7170 -0.3391  0.1563
  181SOL    HW1  542   0.796   1.054   1.772  1.6134  1.0661  0.6665
  181SOL    HW2  543   0.756   0.889   1.788 -2.0092  0.0594  2.2755
  182SOL     OW  544   2.865   0.941   2.992  0.2354 -0.1367  0.5331
  182SOL    HW1  545   2.859   0.903   2.893  0.6620 -2.1237  0.6630
  182SOL    HW2  546   2.863   1.041   2.991  0.9463 -0.0140  1.5512
  183SOL     OW  547   1.602   0.334   2.093 -0.0646  0.4630  0.1351
  183SOL    HW1  548   1.682   0.372   2.143 -0.5497 -1.6117  0.1813
  183SOL    HW2  549   1.529   0.334   2.161  0.6413 -1.3628 -0.5880
  184SOL     OW  550   0.743   0.546   1.141 -0.5755 -0.7558 -0.0237
  184SOL    HW1  551   0.779   0.628   1.085  1.0015 -1.0483 -0.9561
  184SOL    HW2  552   0.815   0.474   1.128  0.1771  1.1706  1.7139
  185SOL     OW  553   2.229   1.217   0.545  0.2158 -0.2091 -0.7189
  185SOL    HW1  554   2.320   1.207   0.593  2.4133 -0.2543  0.1762
  185SOL    HW2  555   2.208   1.307   0.506  0.5365 -0.0769  0.6089
  186SOL     OW  556   0.178   2.014   0.244 -0.4899 -0.2902  0.1258
  186SOL    HW1  557   0.082   2.016   0.211 -0.1576 -1.5402  0.0273
  186SOL    HW2  558   0.241   2.077   0.190 -1.1180 -1.3071  2.2381
  187SOL     OW  559   1.839   1.997   2.855  0.4076 -0.3319 -0.1875
  187SOL    HW1  560   1.858   1.914   2.798  1.4621  0.8763  0.0045
  187SOL    HW2  561   1.906   2.069   2.830  0.9410  1.8806 -1.7875
  188SOL     OW  562   1.247   2.475   1.501  0.1523 -0.7847 -0.0550
  188SOL    HW1  563   1.208   2.562   1.456  0.9582  2.0366 -1.8908
  188SOL    HW2  564   1.332   2.441   1.458  2.2077 -0.4907  1.4406
  189SOL     OW  565   2.708   1.168   2.586 -0.4688  0.6806 -0.5656
  189SOL    HW1  566   2.660   1.230   2.524  0.2916 -0.6687  1.1241
  189SOL    HW2  567   2.806   1.199   2.589  0.2805 -0.3994 -0.9264
  190SOL     OW  568   1.041   2.756   2.198 -0.4688  0.0143 -0.0721
  190SOL    HW1  569   0.944   2.740   2.164  0.1778  1.7598  2.3445
  190SOL    HW2  570   1.062   2.857   2.201 -1.9080 -3.3228 -0.8170
  191SOL     OW  571   2.737   1.051   1.031 -0.0865 -0.0865  0.1253
  191SOL    HW1  572   2.680   0.970   1.062 -0.8750 -0.3995 -0.0771
  191SOL    HW2  573   2.758   1.116   1.109  1.6853  0.7360  0.9539
  192SOL     OW  574   2.151   0.586   0.988  0.4236 -0.1918 -0.1839
  192SOL    HW1  575   2.141   0.555   1.078  0.4728  0.8740 -3.5304
  192SOL    HW2  576   2.218   0.529   0.942 -5.3222  4.0578  1.6143
  193SOL     OW  577   1.045   0.056   0.208 -0.1893  0.0129 -0.2935
  193SOL    HW1  578   1.107   0.104   0.143 -1.0044  1.9094  0.2979
  193SOL    HW2  579   0.947   0.089   0.203 -0.8323  0.8590  0.5232
  194SOL     OW  580   1.593   2.413   1.089 -0.0475  0.2731 -0.2272
  194SOL    HW1  581   1.587   2.388   0.990 -0.5259 -3.2784  3.1261
  194SOL    HW2  582   1.601   2.324   1.136 -1.9672  1.7010 -0.2135
  195SOL     OW  583   2.774   1.001   0.593  0.3667 -0.4839 -0.1556
  195SOL    HW1  584   2.740   0.998   0.687 -1.0575 -0.2843 -0.6110
  195SOL    HW2  585   2.759   0.911   0.546 -0.7223  1.4608  0.3480
  196SOL     OW  586   0.577   2.422   1.685  0.1168  0.6847  0.0119
  196SOL    HW1  587   0.546   2.499   1.624 -0.6278 -3.2277  3.6371
  196SOL    HW2  588   0.510   2.413   1.764 -0.3837 -0.3272 -0.5055
  197SOL     OW  589   3.000   0.423   2.454 -1.0373 -0.0283 -0.2226
  197SOL    HW1  590   3.017   0.473   2.544  2.1231  0.5271 -0.3435
  197SOL    HW2  591   2.950   0.340   2.470  2.2046  2.8719  1.7141
  198SOL     OW  592   2.216   1.528   0.193 -1.0475  0.1505  0.7326
  198SOL    HW1  593   2.303   1.526   0.141  0.8680 -2.7567  0.1069
  198SOL    HW2  594   2.146   1.566   0.136  4.1589 -3.6124  3.6779
  199SOL     OW  595   2.505   0.686   1.920  0.5026 -0.2278 -0.5498
  199SOL    HW1  596   2.559   0.621   1.981 -2.1758 -1.3123  0.8587
  199SOL    HW2  597   2.406   0.654   1.917 -0.5315  2.1736 -1.6392
  200SOL     OW  598   1.839   0.026   2.805 -0.3142  0.1150  0.2938
  200SOL    HW1  599   1.870   0.085   2.882 -1.0163 -0.5671 -3.6137
  200SOL    HW2  600   1.740   0.036   2.792 -1.3663  0.4920  1.8389
  201SOL     OW  601   2.637   0.165   1.118 -0.1898  0.0910 -0.4712
  201SOL    HW1  602   2.539   0.192   1.138 -1.3275  0.6473 -0.2602
  201SOL    HW2  603   2.692   0.244   1.082  1.2491 -1.1846 -1.8334
  202SOL     OW  604   2.986   2.711   0.227 -0.3507  0.6474  0.8212
  202SOL    HW1  605   3.058   2.779   0.192  2.2288  0.8266 -1.5493
  202SOL    HW2  606   3.002   2.704   0.329 -1.7622  0.1938  0.5121
  203SOL     OW  607   1.797   1.771   0.607  0.9986 -0.7786  0.3850
  203SOL    HW1  608   1.724   1.817   0.662  0.8940 -0.4470 -3.3521
  203SOL    HW2  609   1.886   1.824   0.612 -0.6818  0.3756 -2.4223
  204SOL     OW  610   0.393   1.716   1.987  0.7396 -0.3880  0.0572
  204SOL    HW1  611   0.456   1.725   1.908 -0.8051  0.2729 -2.2100
  204SOL    HW2  612   0.413   1.626   2.031  0.9628 -0.6666  1.0412
  205SOL     OW  613   0.751   0.479   0.800  0.4494 -0.0783  0.2854
  205SOL    HW1  614   0.809   0.438   0.872 -0.8582  0.2461 -0.6425
  205SOL    HW2  615   0.794   0.500   0.708 -0.2116  3.1369 -1.4914
  206SOL     OW  616   0.513   0.707   2.954 -0.2790 -0.0330 -0.7543
  206SOL    HW1  617   0.501   0.680   3.051 -1.5734 -2.2877  1.6811
  206SOL    HW2  618   0.458   0.787   2.924  0.3043  1.0303 -1.1947
  207SOL     OW  619   1.209   2.511   1.779  0.2072 -0.6156  0.2189
  207SOL    HW1  620   1.249   2.435   1.830 -2.3961  0.1171 -1.5721
  207SOL    HW2  621   1.211   2.494   1.676 -3.2319  1.1804  0.9011
  208SOL     OW  622   2.481   0.283   1.677 -0.6759 -0.0287  0.2536
  208SOL    HW1  623   2.556   0.296   1.749  2.2862  2.0745  2.8892
  208SOL    HW2  624   2.391   0.301   1.722  0.6679  0.1287  0.7382
  209SOL     OW  625   1.982   0.797   0.671  0.3005 -0.2267  0.4372
  209SOL    HW1  626   1.957   0.761   0.762 -0.0880 -1.2090  0.3329
  209SOL    HW2  627   1.896   0.834   0.619 -2.9142  0.6000 -1.5791
  210SOL     OW  628   2.492   1.219   0.596  0.3811 -0.2432  0.5040
  210SOL    HW1  629   2.549   1.177   0.677  1.4371  0.5377  1.1147
  210SOL    HW2  630   2.527   1.312   0.565  0.0866  0.8085 -3.2565
  211SOL     OW  631   1.141   2.987   3.069  0.1071  0.2570  0.4984
  211SOL    HW1  632   1.192   3.071   3.084  1.0200 -1.6079 -1.3140
  211SOL    HW2  633   1.193   2.905   3.098 -1.3891 -2.8930 -1.5367
  212SOL     OW  634   2.015   1.925   0.625  0.5180 -0.0643  0.4023
  212SOL    HW1  635   2.033   1.895   0.718 -1.2638 -2.2515 -2.5609
  212SOL    HW2  636   2.070   1.875   0.554 -1.3803  5.1522  1.2508
  213SOL     OW  637   2.308   3.064   0.027  0.2491  0.5469  0.1176
  213SOL    HW1  638   2.264   2.982   3.077  2.1826 -0.3296 -0.1677
  213SOL    HW2  639   2.301   0.047   3.066  0.0981 -2.4404  0.5837
  214SOL     OW  640   1.266   2.390   2.183  0.0264 -0.1446  0.0316
  214SOL    HW1  641   1.250   2.493   2.173 -2.1161  1.7604 -0.4391
  214SOL    HW2  642   1.305   2.353   2.096 -0.8099  0.9686  1.4994
  215SOL     OW  643   0.300   1.388   0.989  0.0400  0.2356  0.0214
  215SOL    HW1  644   0.205   1.395   1.016  4.5351 -1.5417 -0.6241
  215SOL    HW2  645   0.307   1.393   0.886  0.1533 -0.1507 -0.4753
  216SOL     OW  646   0.484   3.019   2.688 -0.1651 -0.0580 -0.2119
  216SOL    HW1  647   0.485   2.914   2.689  0.6371 -1.6781  0.1255
  216SOL    HW2  648   0.402   3.045   2.743  1.2357  0.7979 -1.3265
  217SOL     OW  649   2.836   1.390   1.598 -0.1820 -0.7607  0.3108
  217SOL    HW1  650   2.870   1.406   1.502 -2.5875  2.7086  0.7681
  217SOL    HW2  651   2.837   1.290   1.618 -1.7666 -1.1224 -0.9026
  218SOL     OW  652   0.943   2.192   1.499 -0.4283  0.8341 -0.6827
  218SOL    HW1  653   0.849   2.196   1.530  2.7908 -0.3867 -1.5984
  218SOL    HW2  654   1.001   2.157   1.578  1.8239 -0.0060 -0.3939
  219SOL     OW  655   2.109   1.889   0.037  0.5382 -0.2235  0.5750
  219SOL    HW1  656   2.178   1.938   0.097  0.8697 -1.0187 -0.7169
  219SOL    HW2  657   2.129   1.918   3.044  3.4639  0.7226 -0.2615
  220SOL     OW  658   1.899   0.165   3.026 -0.1026 -0.2300  0.4404
  220SOL    HW1  659   1.901   0.262   3.058  1.3655  0.0997  2.3762
  220SOL    HW2  660   1.824   0.110   3.059  1.4333  0.7886 -1.7501
  221SOL     OW  661   2.840   0.815   0.194 -0.3554  0.6601  0.2421
  221SOL    HW1  662   2.801   0.721   0.197  0.9456  3.2465 -0.2621
  221SOL    HW2  663   2.939   0.808   0.201 -2.0234 -0.6783  0.1233
  222SOL     OW  664   1.624   1.456   0.860  0.3123 -0.0535 -0.6431
  222SOL    HW1  665   1.571   1.388   0.801 -1.5586 -1.1800  1.1577
  222SOL    HW2  666   1.718   1.476   0.823 -4.1276  1.1913 -0.8762
  223SOL     OW  667   0.994   0.362   2.822  0.3646  0.3290 -0.0140
  223SOL    HW1  668   1.078   0.331   2.864 -3.6687 -0.4038 -2.6594
  223SOL    HW2  669   0.917   0.379   2.886  3.1222 -2.3775  0.4626
  224SOL     OW  670   0.973   2.796   1.079  0.5743 -0.7176  0.4607
  224SOL    HW1  671   0.942   2.836   1.167 -0.3831  1.8818 -0.1633
  224SOL    HW2  672   0.917   2.716   1.053  1.0306  0.8477 -1.3294
  225SOL     OW  673   1.072   3.039   2.240  0.0585 -0.0909 -0.2366
  225SOL    HW1  674   1.010   3.091   2.175 -1.3897  0.0544 -1.2930
  225SOL    HW2  675   1.048   3.071   2.337 -0.8480  1.3263  2.4802
  226SOL     OW  676   1.432   1.633   0.780  0.3968  0.1032 -0.1584
  226SOL    HW1  677   1.489   1.716   0.764 -1.6320 -0.5374  0.7516
  226SOL    HW2  678   1.481   1.554   0.814 -0.2970  2.1518 -0.9626
  227SOL     OW  679   0.436   1.948   1.391  0.3045 -0.0214 -0.0584
  227SOL    HW1  680   0.389   1.908   1.476  0.1576 -0.2910  0.1346
  227SOL    HW2  681   0.423   1.892   1.306  0.2863 -0.1523 -1.6683
  228SOL     OW  682   3.061   1.913   0.596 -0.2778  0.1215 -0.3683
  228SOL    HW1  683   0.049   1.880   0.554 -0.4591 -1.1231  1.1300
  228SOL    HW2  684   3.078   1.949   0.689  0.7819 -0.1176  0.2973
  229SOL     OW  685   2.681   0.159   2.995  0.1059  0.2746 -0.0599
  229SOL    HW1  686   2.605   0.215   3.023  0.5454 -0.1384 -2.2097
  229SOL    HW2  687   2.655   0.079   2.938 -0.2404 -1.9720  2.2986
  230SOL     OW  688   2.487   0.663   0.446 -0.3700 -0.3137  0.2484
  230SOL    HW1  689   2.497   0.738   0.378  1.8911 -2.3266 -1.3570
  230SOL    HW2  690   2.414   0.598   0.416  1.0708  1.8336 -1.3798
  231SOL     OW  691   2.019   1.648   0.005  0.7515 -1.0389 -0.0237
  231SOL    HW1  692   1.922   1.642   3.073  1.9475 -0.6538  0.9118
  231SOL    HW2  693   2.054   1.745   0.025 -0.4128  1.0052  1.6465
  232SOL     OW  694   1.912   2.090   0.955 -0.6457  0.0246 -0.0384
  232SOL    HW1  695   1.864   2.052   1.032 -0.6178  1.7448 -3.9741
  232SOL    HW2  696   1.985   2.021   0.936  1.6585  0.4646 -1.3440
  233SOL     OW  697   0.197   2.872   1.519 -0.5088  0.1053 -0.2944
  233SOL    HW1  698   0.177   2.768   1.522 -2.2542 -0.1013  1.4739
  233SOL    HW2  699   0.125   2.927   1.563 -0.4259 -0.8621 -0.1561
  234SOL     OW  700   0.712   0.299   2.619 -0.4410 -0.5380 -0.2893
  234SOL    HW1  701   0.807   0.274   2.651  0.2998 -1.2524  0.4406
  234SOL    HW2  702   0.689   0.394   2.663  0.0935  1.3821  2.2953
  235SOL     OW  703   2.636   1.077   1.786  0.5960  0.7371  0.2811
  235SOL    HW1  704   2.670   0.978   1.790 -1.6989 -0.0961  0.0571
  235SOL    HW2  705   2.557   1.088   1.724  0.9270 -2.6759  1.6474
  236SOL     OW  706   1.410   2.794   1.526 -0.2160  0.3106 -0.7091
  236SOL    HW1  707   1.317   2.775   1.487 -0.4683  2.7411 -0.6448
  236SOL    HW2  708   1.477   2.728   1.477  2.8676 -0.2444 -1.9983
  237SOL     OW  709   0.611   1.491   2.685 -0.3843  0.3067  0.3178
  237SOL    HW1  710   0.695   1.519   2.633  0.8812  2.2786 -2.1964
  237SOL    HW2  711   0.568   1.567   2.731  0.8652 -1.5332 -1.6208
  238SOL     OW  712   0.933   0.894   2.273 -0.2218 -0.6278  0.0347
  238SOL    HW1  713   1.028   0.874   2.289 -2.0622  0.9283  0.5734
  238SOL    HW2  714   0.874   0.845   2.337  1.2465  1.4401 -3.0602
  239SOL     OW  715   0.749   1.830   2.352 -0.2229  0.2980 -0.1788
  239SOL    HW1  716   0.698   1.880   2.420 -0.4833  3.2188 -1.4320
  239SOL    HW2  717   0.839   1.871   2.352 -1.1401  0.5723 -0.2385
  240SOL     OW  718   2.227   2.947   0.298  0.4025  0.5075 -0.4186
  240SOL    HW1  719   2.277   2.998   0.225 -1.1986  0.3862  1.1545
  240SOL    HW2  720   2.257   2.969   0.391 -0.1025 -1.9760  0.0741
  241SOL     OW  721   0.431   1.062   0.268 -0.4542 -0.1738  0.3204
  241SOL    HW1  722   0.376   1.087   0.353  0.2321  0.8674 -0.6946
  241SOL    HW2  723   0.461   1.149   0.223  0.8129 -1.7501 -1.0885
  242SOL     OW  724   1.571   2.609   1.404  0.4611 -0.0103  0.4199
  242SOL    HW1  725   1.548   2.509   1.412  0.3923 -4.1342 -0.9267
  242SOL    HW2  726   1.651   2.621   1.341  2.8907 -1.5170  0.8600
  243SOL     OW  727   0.761   2.530   1.932 -0.2077  0.7582 -0.3957
  243SOL    HW1  728   0.837   2.562   1.873 -0.5409 -1.7803  1.1483
  243SOL    HW2  729   0.678   2.523   1.877 -0.9622 -1.2068  0.2192
  244SOL     OW  730   2.388   0.690   2.630  0.1174  0.0470  0.0627
  244SOL    HW1  731   2.349   0.759   2.570  1.4364 -2.0518 -3.4537
  244SOL    HW2  732   2.417   0.723   2.722  0.4064 -0.1777 -0.1056
  245SOL     OW  733   1.705   2.651   1.163 -0.4799 -0.0097 -0.0898
  245SOL    HW1  734   1.665   2.558   1.136 -0.4323 -1.9774  1.7547
  245SOL    HW2  735   1.672   2.722   1.095  0.2072  0.4142  1.8064
  246SOL     OW  736   1.512   0.039   0.345 -0.4381  0.1719 -0.7473
  246SOL    HW1  737   1.538   0.115   0.282  0.4000  0.4765 -2.1767
  246SOL    HW2  738   1.410   0.048   0.366 -2.1878 -1.7308  1.1668
  247SOL     OW  739   1.795   0.573   1.918 -0.5691 -0.5219 -0.8185
  247SOL    HW1  740   1.819   0.501   1.847  0.7764  2.8755 -0.6817
  247SOL    HW2  741   1.693   0.568   1.926  3.2658 -1.5392  0.0919
  248SOL     OW  742   0.085   2.029   1.867 -0.3724  0.3662  0.1022
  248SOL    HW1  743   0.172   2.071   1.841  0.3814  2.4101 -0.6045
  248SOL    HW2  744   0.041   1.973   1.793 -2.1360 -1.8577  2.2641
  249SOL     OW  745   0.405   0.307   0.145  0.5583 -0.0469  0.0153
  249SOL    HW1  746   0.367   0.380   0.203  0.0898 -0.8288 -1.5242
  249SOL    HW2  747   0.464   0.242   0.199 -2.2660  1.8614  0.2013
  250SOL     OW  748   2.487   0.167   2.325  0.6295  0.1460  0.4343
  250SOL    HW1  749   2.394   0.146   2.359 -0.8191  1.9583  2.1524
  250SOL    HW2  750   2.484   0.237   2.251 -0.5792  0.0123  2.5108
  251SOL     OW  751   1.361   0.658   3.007  0.1893  0.7192  0.1438
  251SOL    HW1  752   1.289   0.656   3.079  1.3730  1.6184 -1.1798
  251SOL    HW2  753   1.376   0.753   2.963 -1.5318 -0.1259 -0.2559
  252SOL     OW  754   1.295   2.652   2.155  0.4125 -0.0774  0.4253
  252SOL    HW1  755   1.204   2.684   2.175  0.9906 -1.1010 -2.2865
  252SOL    HW2  756   1.355   2.720   2.103 -0.7321 -1.0014  2.1094
  253SOL     OW  757   2.728   2.548   0.475  0.1674 -0.2171  0.2759
  253SOL    HW1  758   2.735   2.633   0.529 -0.6738  2.2180  3.2599
  253SOL    HW2  759   2.658   2.549   0.398  1.0953  1.0523  0.1541
  254SOL     OW  760   2.442   1.163   1.146 -0.0675  0.2009 -0.3696
  254SOL    HW1  761   2.528   1.196   1.180 -1.3976 -3.0401 -0.3064
  254SOL    HW2  762   2.417   1.223   1.068  2.7375  0.8687  0.4709
  255SOL     OW  763   0.672   2.691   1.290  0.2848  0.4008  0.3144
  255SOL    HW1  764   0.723   2.778   1.309  0.2911  0.3758  1.4810
  255SOL    HW2  765   0.580   2.712   1.249  0.7181  0.9339  2.6216
  256SOL     OW  766   1.924   1.715   1.624 -0.4638 -0.4895 -0.1383
  256SOL    HW1  767   1.947   1.634   1.678  2.1228  0.7180  0.9335
  256SOL    HW2  768   1.943   1.704   1.526 -0.0322  0.7367  2.1418
  257SOL     OW  769   0.443   2.329   2.554 -0.1104 -0.3107 -0.4476
  257SOL    HW1  770   0.417   2.372   2.641 -3.7892 -1.2062 -2.0804
  257SOL    HW2  771   0.475   2.233   2.557  0.9931  1.3617 -1.4005
  258SOL     OW  772   0.523   2.590   0.929  0.1626  0.0988 -0.6569
  258SOL    HW1  773   0.473   2.631   0.851 -0.6417  0.0154 -2.3974
  258SOL    HW2  774   0.479   2.596   1.023  0.6855  0.0334  2.5683
  259SOL     OW  775   1.433   0.648   2.582 -0.3526  0.1283 -0.7227
  259SOL    HW1  776   1.527   0.694   2.581 -1.0964 -0.0946 -1.4596
  259SOL    HW2  777   1.376   0.707   2.523 -0.2908 -0.2762 -2.0899
  260SOL     OW  778   0.346   0.308   0.991  0.4332  0.0299 -0.1112
  260SOL    HW1  779   0.339   0.202   1.001  2.2695 -2.6937 -1.0050
  260SOL    HW2  780   0.389   0.323   0.900  1.1594 -0.7109  2.2941
  261SOL     OW  781   0.834   0.153   2.343 -0.2910  0.1783  0.1181
  261SOL    HW1  782   0.784   0.074   2.389 -0.3772  0.0661 -0.6071
  261SOL    HW2  783   0.904   0.200   2.402  0.8819 -1.7475 -0.8546
  262SOL     OW  784   0.945   2.592   1.742 -0.6314  0.2013 -0.1280
  262SOL    HW1  785   0.950   2.584   1.642 -0.2054 -0.8786  2.5791
  262SOL    HW2  786   1.040   2.570   1.778  2.0945 -1.8990  0.3468
  263SOL     OW  787   0.650   2.054   3.052 -0.1299 -0.2559  0.2214
  263SOL    HW1  788   0.622   2.115   2.974 -1.2055 -0.9283  0.6612
  263SOL    HW2  789   0.751   2.046   3.060  1.8145 -0.0672 -0.8288
  264SOL     OW  790   1.616   1.563   1.121 -0.2850 -0.8566 -0.5820
  264SOL    HW1  791   1.609   1.661   1.090  1.2209  0.6211  2.1473
  264SOL    HW2  792   1.629   1.501   1.040 -0.0839 -2.7134  0.6463
  265SOL     OW  793   0.946   2.257   0.438 -0.3317 -0.0813  0.2128
  265SOL    HW1  794   1.047   2.258   0.414  1.2346  0.2448  1.7123
  265SOL    HW2  795   0.920   2.332   0.499 -0.4333  0.8368 -1.8793
  266SOL     OW  796   2.873   0.655   1.096  0.4650 -0.2470  0.2110
  266SOL    HW1  797   2.814   0.652   1.008  0.2913 -0.9761 -1.6722
  266SOL    HW2  798   2.887   0.556   1.130  0.5943 -0.6936  0.2654
  267SOL     OW  799   0.120   1.505   0.247  0.0987  0.2473 -0.0317
  267SOL    HW1  800   0.131   1.438   0.326 -2.0410  2.1238  2.6977
  267SOL    HW2  801   0.159   1.595   0.270  0.5838 -1.0756  0.0631
  268SOL     OW  802   1.437   0.393   0.370  0.0155 -0.0824  0.3120
  268SOL    HW1  803   1.479   0.479   0.341 -1.9092 -2.1042 -1.0384
  268SOL    HW2  804   1.349   0.410   0.421 -1.5551  0.9253  1.2715
  269SOL     OW  805   2.813   0.749   2.078 -0.0106  0.5122 -0.6180
  269SOL    HW1  806   2.892   0.792   2.026  1.8544  0.0640 -1.0807
  269SOL    HW2  807   2.788   0.657   2.053  0.1258 -0.2438  2.5788
  270SOL     OW  808   2.918   1.146   0.405  0.1471  0.2056 -0.4729
  270SOL    HW1  809   2.874   1.091   0.479  0.0993  2.5976 -0.9332
  270SOL    HW2  810   2.865   1.133   0.319  2.3663 -0.8656 -0.6277
  271SOL     OW  811   2.847   1.610   2.194 -0.1806  0.1446  0.5431
  271SOL    HW1  812   2.747   1.614   2.188  1.2711 -3.6851  0.3427
  271SOL    HW2  813   2.903   1.679   2.145 -1.3242 -0.0730  0.7162
  272SOL     OW  814   2.545   2.435   1.876  0.4529  0.3777  0.3688
  272SOL    HW1  815   2.634   2.478   1.876 -1.2600  0.0340  0.2600
  272SOL    HW2  816   2.471   2.503   1.859 -1.9297 -0.5475  1.2066
  273SOL     OW  817   0.081   2.441   3.055  0.4179  0.8779  0.0867
  273SOL    HW1  818   0.154   2.381   3.018 -0.4042  0.8233  1.3129
  273SOL    HW2  819   0.042   2.400   0.037  1.3646 -0.7629  0.5500
  274SOL     OW  820   0.648   2.129   0.715  0.0083 -0.5722  0.6648
  274SOL    HW1  821   0.629   2.230   0.708  1.0419  0.6295  1.6805
  274SOL    HW2  822   0.747   2.113   0.723  0.4022 -1.1506  0.5087
  275SOL     OW  823   1.450   1.793   2.632  0.0164 -0.0374 -0.4690
  275SOL    HW1  824   1.527   1.855   2.607  3.7024  2.2502 -0.4562
  275SOL    HW2  825   1.464   1.710   2.576  0.3342  3.2364  3.7333
  276SOL     OW  826   2.563   1.528   2.205  0.4770  0.2890 -0.4915
  276SOL    HW1  827   2.565   1.506   2.104 -0.8266  0.5485 -0.4151
  276SOL    HW2  828   2.531   1.628   2.214 -1.5687  0.0617  0.7399
  277SOL     OW  829   2.158   0.134   0.813 -0.3273  0.2046  0.5247
  277SOL    HW1  830   2.149   0.171   0.719 -1.1230  0.7187 -0.1719
  277SOL    HW2  831   2.099   0.056   0.828  1.6808  0.9069 -2.1065
  278SOL     OW  832   1.376   0.327   2.261  0.2471 -0.5657  0.5438
  278SOL    HW1  833   1.356   0.229   2.268 -1.0038  1.7983  0.5463
  278SOL    HW2  834   1.299   0.385   2.298 -0.0310  0.4857  0.5510
  279SOL     OW  835   1.227   2.752   0.959 -0.3908 -0.2173 -0.3151
  279SOL    HW1  836   1.292   2.742   1.038 -1.2863 -2.1776  1.0929
  279SOL    HW2  837   1.129   2.759   0.991 -1.9351 -0.4317 -1.1090
  280SOL     OW  838   1.159   1.281   0.713 -0.0589  0.0737  0.4728
  280SOL    HW1  839   1.140   1.217   0.633  0.6864  0.1533 -2.0483
  280SOL    HW2  840   1.125   1.251   0.802 -2.7717  0.7675  0.9938
  281SOL     OW  841   2.174   1.823   0.426  0.6621  0.1957  0.1351
  281SOL    HW1  842   2.254   1.873   0.458 -0.6127 -0.4656  1.4547
  281SOL    HW2  843   2.161   1.819   0.324 -1.9044  0.4381 -2.8232
  282SOL     OW  844   2.847   1.408   0.474 -0.1164 -0.3571  0.9387
  282SOL    HW1  845   2.885   1.315   0.461  0.1967 -1.5014  1.2193
  282SOL    HW2  846   2.877   1.469   0.393 -0.4194  3.0201 -1.3193
  283SOL     OW  847   1.631   2.897   2.765  0.2004  0.3014  0.3988
  283SOL    HW1  848   1.634   2.894   2.665  0.5159 -2.3844  1.8104
  283SOL    HW2  849   1.716   2.858   2.798 -1.9853 -0.6249 -0.9609
  284SOL     OW  850   0.440   0.337   2.501  0.0987 -0.1334 -0.1769
  284SOL    HW1  851   0.510   0.347   2.570 -0.9359 -0.4326 -1.7846
  284SOL    HW2  852   0.351   0.375   2.539 -1.9210 -1.5642 -0.7466
  285SOL     OW  853   1.768   1.612   2.998 -0.1710 -0.0014 -0.6036
  285SOL    HW1  854   1.668   1.589   2.999 -0.7634 -1.0752  0.9211
  285SOL    HW2  855   1.813   1.629   2.905 -0.2326  0.7308 -2.4620
  286SOL     OW  856   1.559   2.194   1.661 -0.0776 -0.2585 -0.0141
  286SOL    HW1  857   1.462   2.193   1.692 -0.5360  1.2349  1.3875
  286SOL    HW2  858   1.621   2.189   1.741 -0.3195  1.9417 -0.8706
  287SOL     OW  859   1.835   0.022   1.495  0.3797  0.2986 -0.1976
  287SOL    HW1  860   1.777   0.009   1.578 -2.3904  1.8536  0.0528
  287SOL    HW2  861   1.782   0.086   1.432  0.6323  1.8135 -3.1091
  288SOL     OW  862   0.434   2.706   1.906  0.0046 -0.0221 -0.2275
  288SOL    HW1  863   0.443   2.603   1.901 -0.7808  1.1069  0.0689
  288SOL    HW2  864   0.412   2.735   2.004  1.5431 -0.3797  0.2290
  289SOL     OW  865   0.219   1.775   0.811 -0.0062  0.0849  0.1918
  289SOL    HW1  866   0.189   1.748   0.904  0.1737 -1.3537 -1.2363
  289SOL    HW2  867   0.290   1.852   0.814  1.2884  3.2331 -0.3528
  290SOL     OW  868   1.010   2.121   1.750 -0.3755  0.1771  0.1428
  290SOL    HW1  869   0.987   2.025   1.773 -2.2981 -1.5220 -1.2208
  290SOL    HW2  870   0.952   2.179   1.809  0.5672 -0.2708 -2.5359
  291SOL     OW  871   1.713   0.236   0.489  0.2029  0.7609  0.2007
  291SOL    HW1  872   1.616   0.241   0.458 -0.5573 -0.3779  1.7514
  291SOL    HW2  873   1.769   0.170   0.435 -1.1525 -1.3417 -0.9429
  292SOL     OW  874   0.298   0.354   1.425  0.2864 -0.3772  0.1902
  292SOL    HW1  875   0.307   0.452   1.403 -1.3654 -0.1853 -0.8639
  292SOL    HW2  876   0.232   0.338   1.501  2.4288 -0.7731  0.2083
  293SOL     OW  877   2.418   1.556   1.093  0.1990 -0.0836 -0.6739
  293SOL    HW1  878   2.429   1.562   1.192  0.9168 -3.4701  0.7001
  293SOL    HW2  879   2.500   1.559   1.031  2.7346 -0.2235  0.5169
  294SOL     OW  880   0.439   0.161   2.214 -0.1404 -0.5691 -0.0438
  294SOL    HW1  881   0.428   0.075   2.268  1.0160  0.0642 -0.3453
  294SOL    HW2  882   0.460   0.242   2.276 -1.7939 -1.1784 -1.2819
  295SOL     OW  883   0.863   1.422   0.517  0.0923  0.3523  0.7943
  295SOL    HW1  884   0.938   1.470   0.563  0.0137 -1.3688  1.7224
  295SOL    HW2  885   0.899   1.371   0.436 -0.0167  0.1472  0.5142
  296SOL     OW  886   2.410   1.291   0.893 -0.1116  0.3781  0.2370
  296SOL    HW1  887   2.318   1.257   0.862  0.7275  0.2058  0.0827
  296SOL    HW2  888   2.425   1.394   0.874  0.7812 -2.1165  1.1156
  297SOL     OW  889   1.817   0.648   2.626  0.1568  0.1222 -0.3881
  297SOL    HW1  890   1.732   0.700   2.645  1.2538 -0.7057  0.0146
  297SOL    HW2  891   1.882   0.699   2.569 -3.2777 -0.7255 -0.6787
  298SOL     OW  892   0.996   0.308   2.532 -0.1650 -0.0535  0.0042
  298SOL    HW1  893   1.016   0.314   2.629  0.5320  0.9428 -2.6766
  298SOL    HW2  894   1.045   0.385   2.481  2.3536 -2.2746 -0.1759
  299SOL     OW  895   1.226   0.670   1.981  0.7198 -0.1008  0.2467
  299SOL    HW1  896   1.305   0.738   1.994  1.2897  1.1674  0.2457
  299SOL    HW2  897   1.261   0.578   1.998  0.3478  1.9979 -0.8345
  300SOL     OW  898   2.650   0.075   1.953  0.5124  0.7524  0.0464
  300SOL    HW1  899   2.639   0.010   1.875  0.7646 -0.1674  2.5637
  300SOL    HW2  900   2.749   0.091   1.963 -0.8066  0.1548  1.0611
  301SOL     OW  901   1.771   0.903   1.608 -0.1583 -0.2612  0.6723
  301SOL    HW1  902   1.692   0.948   1.570 -0.6212 -0.6478 -0.9083
  301SOL    HW2  903   1.758   0.869   1.702  0.4945  2.9484  1.5675
  302SOL     OW  904   0.812   2.725   2.629  0.3506  0.2072 -0.2248
  302SOL    HW1  905   0.828   2.822   2.599 -0.1621 -0.6244 -0.1896
  302SOL    HW2  906   0.722   2.705   2.592 -0.0693 -1.6844  1.9405
  303SOL     OW  907   2.049   1.918   1.802 -0.0162 -0.2384 -0.3579
  303SOL    HW1  908   2.042   2.005   1.751  0.0193 -1.2246 -0.6613
  303SOL    HW2  909   2.017   1.850   1.727 -3.4157  2.0993 -1.7106
  304SOL     OW  910   0.552   3.101   0.621  0.0635 -0.0495  0.1405
  304SOL    HW1  911   0.624   0.019   0.555  0.7007  1.5151 -0.7138
  304SOL    HW2  912   0.577   3.018   0.676  2.2018  0.2302 -1.9792
  305SOL     OW  913   1.361   0.807   0.377  0.2821  0.3278 -0.3362
  305SOL    HW1  914   1.370   0.908   0.363  0.0420  0.3072 -0.0868
  305SOL    HW2  915   1.385   0.787   0.475  0.4165 -0.0038  1.0167
  306SOL     OW  916   0.546   1.286   0.151  0.2928  0.3814  0.6547
  306SOL    HW1  917   0.644   1.293   0.149 -3.2392 -2.9630  2.3868
  306SOL    HW2  918   0.515   1.329   0.240  1.5841  0.7673  1.1869
  307SOL     OW  919   0.689   0.678   1.901 -0.4254  0.5944 -0.0509
  307SOL    HW1  920   0.765   0.694   1.969 -0.3306  0.3012  0.5801
  307SOL    HW2  921   0.731   0.654   1.817 -0.9944  0.9103  4.2137
  308SOL     OW  922   0.624   3.076   1.168 -0.2111 -0.8202  0.7074
  308SOL    HW1  923   0.676   0.043   1.108 -1.0467 -0.2519 -2.3513
  308SOL    HW2  924   0.573   0.026   1.240 -1.2707  0.0001 -3.0375
  309SOL     OW  925   2.214   0.904   0.044 -0.2434 -0.4280  0.1951
  309SOL    HW1  926   2.295   0.852   0.085  2.9249 -0.3035  0.9338
  309SOL    HW2  927   2.234   1.002   0.023 -0.8837  1.8771  2.3704
  310SOL     OW  928   1.343   1.433   0.057 -0.5052  0.0955 -0.4358
  310SOL    HW1  929   1.251   1.446   0.012  1.1868  1.4692  2.6341
  310SOL    HW2  930   1.338   1.473   0.151  0.5227  0.5163 -1.0588
  311SOL     OW  931   1.685   2.408   2.420  0.1500  0.1271 -0.4068
  311SOL    HW1  932   1.639   2.423   2.327 -1.9699  2.1161 -0.4337
  311SOL    HW2  933   1.689   2.501   2.467 -4.1477  1.2451  0.0358
  312SOL     OW  934   2.164   2.890   2.972 -0.0953 -0.1584  0.6688
  312SOL    HW1  935   2.151   2.926   2.876  4.9669  2.6473 -0.5409
  312SOL    HW2  936   2.078   2.840   2.996 -1.4499 -0.4904 -0.1415
  313SOL     OW  937   0.698   0.638   0.213 -0.6798 -0.6624  0.3237
  313SOL    HW1  938   0.662   0.656   0.308 -2.1586  0.7598 -1.6141
  313SOL    HW2  939   0.788   0.682   0.210 -4.0616 -1.1728  0.9137
  314SOL     OW  940   2.666   1.412   2.999  0.0232  0.5585  0.7661
  314SOL    HW1  941   2.654   1.459   2.909  0.2718 -3.0656  2.0708
  314SOL    HW2  942   2.724   1.464   3.064 -1.9292  0.6938 -2.4132
  315SOL     OW  943   1.754   0.824   1.870  0.1862  0.3759  0.4755
  315SOL    HW1  944   1.796   0.729   1.887  1.8760 -0.5310 -0.5417
  315SOL    HW2  945   1.806   0.893   1.926 -1.5803 -0.3961 -1.5344
  316SOL     OW  946   3.006   0.606   0.790 -0.0589 -0.2971 -0.3903
  316SOL    HW1  947   3.061   0.550   0.857  3.0061  1.1543  2.4049
  316SOL    HW2  948   3.035   0.704   0.800 -0.7737 -0.3307  1.2409
  317SOL     OW  949   0.798   0.162   0.136 -0.3085  0.1875  0.4936
  317SOL    HW1  950   0.775   0.261   0.129  1.0317  0.6506  0.5724
  317SOL    HW2  951   0.712   0.113   0.154  0.1409 -0.4161 -4.0379
  318SOL     OW  952   2.410   2.670   1.170 -0.5080  0.2126 -0.1362
  318SOL    HW1  953   2.453   2.651   1.264  2.9482 -0.8587  1.3808
  318SOL    HW2  954   2.454   2.621   1.091  1.8685  0.7542  0.4667
  319SOL     OW  955   1.058   1.538   0.660  0.1451 -0.1988  0.2219
  319SOL    HW1  956   1.089   1.449   0.693 -1.7214 -2.0065  0.9872
  319SOL    HW2  957   1.117   1.581   0.590 -1.1050 -0.7900 -0.4329
  320SOL     OW  958   0.571   2.308   1.077  0.4751 -0.4155 -0.1784
  320SOL    HW1  959   0.546   2.389   1.018  0.7623 -0.3213  0.7403
  320SOL    HW2  960   0.554   2.222   1.030  2.3946  0.2099  1.2734
  321SOL     OW  961   2.078   2.768   2.343 -0.1570  0.4249  0.2529
  321SOL    HW1  962   2.024   2.752   2.432 -2.7210  0.2184  5.2370
  321SOL    HW2  963   2.024   2.729   2.266  0.0513  0.8518  2.5270
  322SOL     OW  964   2.920   2.280   2.564 -0.4116 -0.3602  0.2609
  322SOL    HW1  965   3.010   2.316   2.527  0.9421 -1.8402  0.1372
  322SOL    HW2  966   2.842   2.324   2.517  0.8607  0.5367  1.5497
  323SOL     OW  967   2.771   0.741   0.823  0.0994 -0.0971 -0.7254
  323SOL    HW1  968   2.838   0.671   0.799 -0.2531  0.9551 -0.0123
  323SOL    HW2  969   2.672   0.721   0.788 -3.0963 -0.3825 -1.5493
  324SOL     OW  970   2.329   2.128   2.367 -0.1245  0.3981  0.1346
  324SOL    HW1  971   2.350   2.048   2.307 -0.2377 -1.6998  0.4184
  324SOL    HW2  972   2.279   2.096   2.453  0.0763 -1.1223  0.3770
  325SOL     OW  973   1.214   0.772   2.439 -0.0848  0.9267 -0.2009
  325SOL    HW1  974   1.238   0.816   2.350  1.0039  0.8671  1.5332
  325SOL    HW2  975   1.180   0.838   2.504  2.7629 -3.4347 -1.0719
  326SOL     OW  976   2.831   2.302   0.481 -0.1176  0.2710  0.0906
  326SOL    HW1  977   2.791   2.393   0.495 -2.4974 -2.8490  1.4807
  326SOL    HW2  978   2.930   2.302   0.484 -3.2262 -1.7796  2.5678
  327SOL     OW  979   2.592   3.057   2.853 -0.5913  0.2541  0.5406
  327SOL    HW1  980   2.532   2.980   2.882  1.5805 -0.3402 -1.0857
  327SOL    HW2  981   2.686   3.015   2.831  2.9446 -2.0737  0.0345
  328SOL     OW  982   1.061   0.451   0.462 -0.0508  0.2458  0.1315
  328SOL    HW1  983   0.972   0.416   0.426 -1.1544 -0.7871 -1.7998
  328SOL    HW2  984   1.122   0.501   0.388  0.2230  0.1488  0.2580
  329SOL     OW  985   2.109   0.833   1.389  0.5029 -0.6657 -0.0206
  329SOL    HW1  986   2.153   0.916   1.352  0.1354  1.6754 -1.2932
  329SOL    HW2  987   2.131   0.822   1.490  1.2902 -0.1106  2.2671
  330SOL     OW  988   1.151   0.260   0.626 -0.3503 -0.6822  0.1600
  330SOL    HW1  989   1.122   0.323   0.553  0.5854  0.7560 -1.2120
  330SOL    HW2  990   1.249   0.281   0.658 -0.1691  2.9139  1.9847
  331SOL     OW  991   0.596   2.170   1.913 -0.2265  0.2765 -0.0917
  331SOL    HW1  992   0.662   2.203   1.846 -0.0164  2.9038 -2.8098
  331SOL    HW2  993   0.637   2.111   1.990  0.6893 -0.4744  2.8745
  332SOL     OW  994   2.344   2.257   1.741 -0.0410 -0.2390  0.1370
  332SOL    HW1  995   2.426   2.316   1.759  1.1432 -0.7058  0.0097
  332SOL    HW2  996   2.364   2.156   1.727 -2.2058  2.3996 -1.5824
  333SOL     OW  997   2.717   2.874   0.877  0.1612 -0.0416  0.2793
  333SOL    HW1  998   2.778   2.856   0.798 -0.4219  2.8497  2.0502
  333SOL    HW2  999   2.670   2.963   0.865 -1.8675 -0.2244 -0.7139
  334SOL     OW 1000   2.992   1.721   1.031  0.0748  0.2467  0.5768
  334SOL    HW1 1001   3.091   1.753   1.048 -0.2962  2.7731  1.6734
  334SOL    HW2 1002   2.958   1.765   0.943 -0.7507 -1.8446  0.6583
  335SOL     OW 1003   0.511   2.756   2.547  0.2743 -0.0338 -0.2903
  335SOL    HW1 1004   0.459   2.676   2.508 -1.8383 -3.2709  2.2289
  335SOL    HW2 1005   0.570   2.800   2.481 -2.1426  0.4788  2.5022
  336SOL     OW 1006   0.165   2.621   1.829 -0.0840  0.4071  0.6469
  336SOL    HW1 1007   0.258   2.656   1.830  0.2995 -0.8400 -0.8217
  336SOL    HW2 1008   0.098   2.684   1.880 -2.0802 -2.2260  0.0614
  337SOL     OW 1009   1.033   1.919   2.380  0.2181 -0.3807  0.0416
  337SOL    HW1 1010   1.055   1.954   2.287  1.2825  1.1292 -2.1316
  337SOL    HW2 1011   1.115   1.880   2.427 -1.5838 -0.4740  0.8355
  338SOL     OW 1012   1.076   0.042   2.507  0.1556 -0.7303 -0.4213
  338SOL    HW1 1013   1.171   0.025   2.535  0.6690  1.3329 -0.9163
  338SOL    HW2 1014   1.051   0.142   2.516  0.7292 -0.6650 -1.5722
  339SOL     OW 1015   0.146   1.425   2.905 -0.6899  0.1351 -0.6604
  339SOL    HW1 1016   0.177   1.467   2.816  0.4117  0.4870  2.4436
  339SOL    HW2 1017   0.226   1.393   2.959  0.6968 -0.8717  1.2085
  340SOL     OW 1018   2.187   0.586   1.296 -0.0085 -0.0750  0.1690
  340SOL    HW1 1019   2.164   0.683   1.317 -2.1321  0.3795 -0.3349
  340SOL    HW2 1020   2.290   0.575   1.291  0.1341 -0.0693 -0.1814
  341SOL     OW 1021   1.870   1.124   0.996  0.0858 -0.5456  0.3281
  341SOL    HW1 1022   1.883   1.188   0.917 -1.2254 -0.2306 -1.7028
  341SOL    HW2 1023   1.945   1.051   1.000  1.4769 -0.1801  0.9860
  342SOL     OW 1024   2.116   2.618   2.695  0.2900  0.2579 -0.2990
  342SOL    HW1 1025   2.176   2.585   2.771 -1.4949 -1.8476 -0.3261
  342SOL    HW2 1026   2.138   2.713   2.665 -0.5492  2.0429 -0.6374
  343SOL     OW 1027   2.897   2.629   0.964  0.1325  0.1980 -0.2940
  343SOL    HW1 1028   2.853   2.621   1.055  0.8274  1.9231  2.1304
  343SOL    HW2 1029   2.871   2.550   0.908  0.9876  0.7232 -0.0184
  344SOL     OW 1030   2.471   2.787   0.728  0.2467 -0.0901  0.3814
  344SOL    HW1 1031   2.405   2.866   0.739 -2.4260  1.0980  1.5778
  344SOL    HW2 1032   2.430   2.709   0.780 -0.3280  5.0459  1.4606
  345SOL     OW 1033   2.397   2.311   0.354  0.1303  0.1724 -0.2722
  345SOL    HW1 1034   2.383   2.300   0.251  2.7238 -0.7298 -0.7471
  345SOL    HW2 1035   2.441   2.409   0.369  1.1555  2.8667 -2.4946
  346SOL     OW 1036   1.298   2.138   1.756 -0.4907 -0.8394  0.1471
  346SOL    HW1 1037   1.201   2.138   1.787  0.3187 -0.3119 -0.6949
  346SOL    HW2 1038   1.299   2.072   1.673 -1.6946  0.3812 -0.6210
  347SOL     OW 1039   1.379   2.042   2.053 -0.2628 -0.9065  0.6880
  347SOL    HW1 1040   1.423   2.020   1.966 -0.0683  1.8865  3.8134
  347SOL    HW2 1041   1.449   2.070   2.119  0.0808 -0.1805  0.8941
  348SOL     OW 1042   0.587   1.741   1.235 -0.1518  0.3094  0.1353
  348SOL    HW1 1043   0.585   1.762   1.135 -0.1138  0.9806  0.7974
  348SOL    HW2 1044   0.627   1.822   1.275 -0.3158 -0.7057 -3.5017
  349SOL     OW 1045   1.656   1.479   1.524 -0.2447 -0.0811  0.0832
  349SOL    HW1 1046   1.675   1.580   1.515 -0.2672  0.1537 -0.2521
  349SOL    HW2 1047   1.557   1.460   1.536 -0.4717 -0.4204 -0.4778
  350SOL     OW 1048   2.502   2.191   0.792  0.4598  0.1266  0.0427
  350SOL    HW1 1049   2.468   2.179   0.889  2.8176 -2.0019  1.2054
  350SOL    HW2 1050   2.484   2.289   0.763  0.2260 -0.8198  0.9317
  351SOL     OW 1051   0.353   3.045   1.972 -0.2275 -0.1750  0.2412
  351SOL    HW1 1052   0.317   3.054   1.880  0.6567  0.4544  0.5436
  351SOL    HW2 1053   0.276   2.999   2.028 -1.5176 -4.8007 -0.2205
  352SOL     OW 1054   0.838   1.022   0.221 -0.2949  0.3527 -0.6308
  352SOL    HW1 1055   0.894   0.939   0.204  1.0547  0.7069  1.3706
  352SOL    HW2 1056   0.747   1.019   0.174 -1.2744 -0.1233 -0.1334
  353SOL     OW 1057   0.825   1.512   2.965  0.0239 -0.1120  0.1602
  353SOL    HW1 1058   0.871   1.597   2.999  2.1211  0.9687  3.5278
  353SOL    HW2 1059   0.804   1.524   2.863 -2.6832  0.0345 -2.9012
  354SOL     OW 1060   1.870   2.531   1.784  0.1248 -0.2897  0.0475
  354SOL    HW1 1061   1.874   2.560   1.688 -0.6376  0.4367 -1.8162
  354SOL    HW2 1062   1.942   2.460   1.800  1.4275  1.0498  2.0804
  355SOL     OW 1063   2.134   0.672   2.988  0.1641  0.6979  0.2487
  355SOL    HW1 1064   2.107   0.746   2.922  0.4507 -0.5342 -2.8366
  355SOL    HW2 1065   2.208   0.707   3.050 -0.5867 -0.7259 -2.2019
  356SOL     OW 1066   0.574   2.177   1.314 -0.2926  0.5337  0.0539
  356SOL    HW1 1067   0.551   2.241   1.239  0.0663 -2.2387 -1.7373
  356SOL    HW2 1068   0.519   2.085   1.306 -1.7156 -0.6915 -2.0559
  357SOL     OW 1069   2.969   2.959   1.829 -0.5149 -0.6487  0.4968
  357SOL    HW1 1070   2.998   2.949   1.734 -1.3018  0.7986 -1.1640
  357SOL    HW2 1071   2.954   3.054   1.856  1.8848  0.5978 -1.8546
  358SOL     OW 1072   2.370   1.824   1.505  0.4052  0.2274 -0.7496
  358SOL    HW1 1073   2.281   1.836   1.459 -0.5935 -0.3889 -1.2845
  358SOL    HW2 1074   2.388   1.896   1.572 -0.4658 -1.5403 -1.0755
  359SOL     OW 1075   1.791   2.190   2.563  0.0322 -0.2454 -0.5623
  359SOL    HW1 1076   1.740   2.253   2.501  0.8634 -1.9058 -1.2676
  359SOL    HW2 1077   1.866   2.241   2.613 -0.6612  0.3922  3.1347
  360SOL     OW 1078   1.374   2.598   0.771  0.2107  0.2595 -0.0666
  360SOL    HW1 1079   1.316   2.668   0.827  0.5137  1.7920  2.1782
  360SOL    HW2 1080   1.446   2.641   0.717  0.8800 -0.8711  0.4475
  361SOL     OW 1081   1.884   0.037   0.440  0.3193  0.1904  0.9758
  361SOL    HW1 1082   1.835   3.100   0.358  0.0200  1.8104 -1.1980
  361SOL    HW2 1083   1.875   3.074   0.519 -2.6924 -0.0611  0.2934
  362SOL     OW 1084   1.533   0.990   1.545 -0.1881  0.0719 -0.3524
  362SOL    HW1 1085   1.523   0.994   1.442 -0.0715  2.1590 -0.2630
  362SOL    HW2 1086   1.497   1.073   1.589 -0.9059  0.0783  1.1944
  363SOL     OW 1087   1.927   1.647   2.012  0.3660 -0.2095 -0.7725
  363SOL    HW1 1088   1.839   1.603   2.045  1.7178 -2.3354  0.9078
  363SOL    HW2 1089   2.005   1.599   2.061  1.7524  2.7062  0.7796
  364SOL     OW 1090   0.806   0.623   1.415 -0.3386 -0.2491 -0.3735
  364SOL    HW1 1091   0.801   0.563   1.336  0.9186  2.9107  1.6700
  364SOL    HW2 1092   0.763   0.713   1.392 -0.2217  1.9447  1.0424
  365SOL     OW 1093   0.437   0.724   2.583  0.5270 -0.0990  0.0439
  365SOL    HW1 1094   0.362   0.688   2.650 -0.4657 -0.4359  3.5767
  365SOL    HW2 1095   0.415   0.686   2.489 -0.0901 -0.6333 -1.8759
  366SOL     OW 1096   2.213   1.553   2.938  0.0811  0.4780  0.2314
  366SOL    HW1 1097   2.132   1.587   2.996  1.6914  0.0503 -0.3157
  366SOL    HW2 1098   2.288   1.536   3.001 -0.9813  1.5188 -2.4970
  367SOL     OW 1099   2.932   2.679   2.788  0.5297  0.5304 -0.2479
  367SOL    HW1 1100   2.936   2.579   2.815 -1.5436 -0.6387 -0.8326
  367SOL    HW2 1101   2.881   2.682   2.698 -1.5571 -0.5962 -1.1538
  368SOL     OW 1102   3.028   1.223   1.164  0.6854  0.1576  0.4654
  368SOL    HW1 1103   3.083   1.148   1.209  0.2245 -2.0349 -2.9692
  368SOL    HW2 1104   2.954   1.177   1.105 -2.4371 -1.8135 -0.3120
  369SOL     OW 1105   0.658   2.855   2.358 -0.3519 -0.2510 -0.0600
  369SOL    HW1 1106   0.675   2.800   2.273  0.6799  0.3528  0.6323
  369SOL    HW2 1107   0.752   2.872   2.394  2.7632  0.1914  0.0892
  370SOL     OW 1108   2.891   0.284   0.519  0.4010  0.0069 -0.6580
  370SOL    HW1 1109   2.872   0.224   0.438 -0.7843  1.6610  0.9143
  370SOL    HW2 1110   2.903   0.379   0.505 -0.7712 -3.3793  0.3234
  371SOL     OW 1111   1.013   2.370   1.319 -0.0503 -0.0830 -0.0587
  371SOL    HW1 1112   1.104   2.401   1.346 -2.3068  0.2256 -0.2066
  371SOL    HW2 1113   0.984   2.296   1.385 -0.8348 -0.4250  0.1773
  372SOL     OW 1114   2.582   0.343   2.561 -0.1628 -0.4579 -0.6505
  372SOL    HW1 1115   2.493   0.385   2.583 -0.6993 -1.2596 -0.8162
  372SOL    HW2 1116   2.576   0.273   2.489  1.1111 -0.8019  0.5483
  373SOL     OW 1117   0.054   2.062   0.814  0.3435  1.0143  0.1754
  373SOL    HW1 1118   0.133   2.122   0.801 -1.6903  1.9670 -0.5664
  373SOL    HW2 1119   0.007   2.078   0.902 -1.9191  1.8637  0.4492
  374SOL     OW 1120   0.068   0.067   2.420  0.2124 -0.3990 -0.2387
  374SOL    HW1 1121   3.075   0.108   2.438 -3.4005  1.5810 -1.6357
  374SOL    HW2 1122   0.122   0.123   2.354 -2.2653  1.9807  0.8931
  375SOL     OW 1123   0.621   0.528   2.717 -0.0778 -0.6627 -0.0959
  375SOL    HW1 1124   0.568   0.599   2.663  0.3663  2.3575 -0.8157
  375SOL    HW2 1125   0.695   0.578   2.761 -0.6090 -3.5823 -1.7736
  376SOL     OW 1126   3.028   2.237   1.919  0.6286 -0.0676  0.3029
  376SOL    HW1 1127   3.013   2.282   1.830  0.0712 -0.6384  2.7652
  376SOL    HW2 1128   3.079   2.155   1.905 -2.0691  1.7186  2.2068
  377SOL     OW 1129   1.248   0.271   2.907 -0.1619 -0.1959  0.0339
  377SOL    HW1 1130   1.268   0.180   2.864 -0.3910 -0.0456  2.0368
  377SOL    HW2 1131   1.293   0.347   2.861 -0.0444 -0.4558  1.2381
  378SOL     OW 1132   2.848   0.894   2.711  0.1742  0.1114 -0.0016
  378SOL    HW1 1133   2.885   0.851   2.627  0.3752 -1.2170 -4.1908
  378SOL    HW2 1134   2.818   0.989   2.694  2.5098 -0.1788  1.4658
  379SOL     OW 1135   1.066   0.840   2.990  0.2837  0.7587  0.4611
  379SOL    HW1 1136   1.059   0.859   2.890 -0.8814 -0.3529 -1.7079
  379SOL    HW2 1137   1.051   0.920   3.048 -0.2839  0.9688  0.4750
  380SOL     OW 1138   0.168   1.830   2.036  0.1873  0.5757 -0.0079
  380SOL    HW1 1139   0.262   1.795   2.018 -2.7965 -1.2355 -0.1548
  380SOL    HW2 1140   0.146   1.912   1.983  1.7932 -1.6791  0.1075
  381SOL     OW 1141   0.073   1.101   2.573 -0.0837  0.5480  0.0095
  381SOL    HW1 1142   0.113   1.113   2.478  4.6521  0.8107  2.2800
  381SOL    HW2 1143   3.096   1.162   2.584 -0.6562  1.2773 -0.9753
  382SOL     OW 1144   2.171   2.239   0.496 -0.0222  0.0994  0.0533
  382SOL    HW1 1145   2.255   2.279   0.449 -2.3620  2.6564  0.2501
  382SOL    HW2 1146   2.199   2.158   0.555 -1.3290  0.4739  1.4708
  383SOL     OW 1147   0.737   1.670   0.278  0.3825 -0.1852  0.2705
  383SOL    HW1 1148   0.798   1.752   0.274 -1.6366 -0.1235 -0.1404
  383SOL    HW2 1149   0.727   1.642   0.375 -0.4497  1.5116 -3.4686
  384SOL     OW 1150   0.874   2.047   2.559 -0.2796 -0.4126 -0.7330
  384SOL    HW1 1151   0.924   2.133   2.575 -0.5264 -2.3107 -0.7013
  384SOL    HW2 1152   0.939   1.977   2.529 -1.1789  4.0341  0.0482
  385SOL     OW 1153   2.427   1.943   0.712  0.0306 -0.0003 -0.2297
  385SOL    HW1 1154   2.378   1.902   0.794  1.8393 -1.3282  0.1473
  385SOL    HW2 1155   2.457   2.038   0.736  1.5178  1.8300  0.9248
  386SOL     OW 1156   2.462   0.904   1.121  0.1906  0.1795 -0.5360
  386SOL    HW1 1157   2.403   0.880   1.039 -0.9752  0.1735 -0.5246
  386SOL    HW2 1158   2.449   1.004   1.135 -1.2671 -2.1758 -2.5996
  387SOL     OW 1159   0.162   0.855   1.978 -0.6017 -0.0302 -0.0331
  387SOL    HW1 1160   0.143   0.858   2.078  1.8923 -1.0953 -0.9544
  387SOL    HW2 1161   0.250   0.805   1.960  2.8756 -0.0777 -0.9336
  388SOL     OW 1162   0.703   1.580   2.245  0.2393  0.4103 -0.0670
  388SOL    HW1 1163   0.688   1.677   2.277 -2.0943  2.9267  1.4007
  388SOL    HW2 1164   0.624   1.549   2.186 -1.2859 -1.1053 -0.0272
  389SOL     OW 1165   0.592   1.010   2.041 -0.2715  0.1325 -0.1855
  389SOL    HW1 1166   0.661   1.020   2.115 -0.2568 -0.5987  0.0530
  389SOL    HW2 1167   0.649   0.992   1.956  0.8231 -1.5330 -1.3047
  390SOL     OW 1168   2.712   2.798   0.577 -0.3774 -0.4230  0.5438
  390SOL    HW1 1169   2.626   2.810   0.638 -2.0866  0.8332  0.5167
  390SOL    HW2 1170   2.712   2.856   0.494  0.2416  0.3185 -4.2042
  391SOL     OW 1171   1.878   1.684   1.151 -0.0345 -0.1453  0.1696
  391SOL    HW1 1172   1.796   1.628   1.160  2.9431  0.5568 -1.8557
  391SOL    HW2 1173   1.919   1.670   1.058  3.6371 -0.3344 -1.0559
  392SOL     OW 1174   2.830   2.909   2.855  0.2595 -0.1925  0.2332
  392SOL    HW1 1175   2.906   2.979   2.848  3.2650  0.1459 -0.4905
  392SOL    HW2 1176   2.863   2.816   2.826 -1.4909 -3.4345  0.1553
  393SOL     OW 1177   1.435   2.180   2.465  0.0144 -0.0516 -0.4061
  393SOL    HW1 1178   1.368   2.120   2.509  0.7659  0.9588 -0.5426
  393SOL    HW2 1179   1.533   2.154   2.492  4.0216 -1.1341 -0.6820
  394SOL     OW 1180   0.065   2.487   2.705  0.2315 -0.8604 -0.4110
  394SOL    HW1 1181   0.058   2.437   2.617  0.3717 -0.8773 -0.3964
  394SOL    HW2 1182   3.082   2.472   2.765 -0.6870  2.0742 -0.2740
  395SOL     OW 1183   0.166   0.295   0.679  0.4160  0.1144  0.0281
  395SOL    HW1 1184   0.076   0.263   0.707  3.2971 -1.3771  0.1695
  395SOL    HW2 1185   0.218   0.217   0.644 -1.9205  1.8655  0.0125
  396SOL     OW 1186   2.155   0.307   0.587  0.7766 -0.4516  0.2330
  396SOL    HW1 1187   2.116   0.405   0.578 -1.9205  2.2185  0.9316
  396SOL    HW2 1188   2.138   0.256   0.499  0.0529  0.7960 -0.8521
  397SOL     OW 1189   3.019   0.848   2.490 -0.5314 -0.2099 -0.0704
  397SOL    HW1 1190   3.028   0.751   2.533  0.7487 -1.6358  3.3977
  397SOL    HW2 1191   3.058   0.925   2.551  1.8700  1.0480 -0.2503
  398SOL     OW 1192   0.897   2.923   3.074  0.6812  0.7136  0.4177
  398SOL    HW1 1193   0.860   2.990   3.005 -0.4757 -0.0480 -0.9978
  398SOL    HW2 1194   0.998   2.941   3.084  0.0587  1.1215 -0.1095
  399SOL     OW 1195   1.984   0.399   2.222  0.5533  0.1284 -0.1081
  399SOL    HW1 1196   1.896   0.440   2.246 -4.1975  0.2895  1.0948
  399SOL    HW2 1197   1.974   0.323   2.152  0.8186  1.6076  1.5870
  400SOL     OW 1198   1.091   2.094   2.785  0.4185 -0.2902 -0.7537
  400SOL    HW1 1199   1.056   2.173   2.734  0.6768 -1.1475  0.1550
  400SOL    HW2 1200   1.128   2.109   2.879  2.3841 -1.2442 -2.3037
  401SOL     OW 1201   0.298   1.312   2.549 -0.0474 -0.0192 -0.2663
  401SOL    HW1 1202   0.212   1.251   2.545 -3.8685 -1.5199 -0.6013
  401SOL    HW2 1203   0.366   1.298   2.471  2.3925 -1.2252  0.8585
  402SOL     OW 1204   0.252   2.862   0.341  0.1105  0.0840 -0.1286
  402SOL    HW1 1205   0.304   2.773   0.333 -1.1661  0.4950 -0.0351
  402SOL    HW2 1206   0.215   2.872   0.437  0.0428 -1.7295  0.2134
  403SOL     OW 1207   0.489   1.070   1.747  0.1185  0.5519 -0.2344
  403SOL    HW1 1208   0.529   1.050   1.837  1.8412  1.5745  0.5161
  403SOL    HW2 1209   0.403   1.009   1.728 -3.3202 -1.9496 -0.8957
  404SOL     OW 1210   2.350   2.546   2.144 -0.6219 -0.0107  0.6945
  404SOL    HW1 1211   2.375   2.608   2.216 -0.0926  0.0973 -1.8781
  404SOL    HW2 1212   2.300   2.470   2.182 -1.2457  3.0204 -1.8728
  405SOL     OW 1213   2.940   0.123   1.879 -0.1474  0.1251 -0.0166
  405SOL    HW1 1214   2.973   0.139   1.974 -2.3358  1.2866  1.8741
  405SOL    HW2 1215   3.013   0.110   1.812 -1.9274 -2.2204  0.7750
  406SOL     OW 1216   1.194   1.506   2.751 -0.3229  0.6361  0.2091
  406SOL    HW1 1217   1.125   1.544   2.686  0.8660 -0.8829 -1.2931
  406SOL    HW2 1218   1.257   1.580   2.775  0.2573  1.5058 -0.1982
  407SOL     OW 1219   2.018   0.853   2.807  0.1780  0.1039  0.0498
  407SOL    HW1 1220   2.022   0.809   2.713 -2.7873 -1.8768 -2.0117
  407SOL    HW2 1221   2.009   0.956   2.793  0.7348  0.3332  0.0337
  408SOL     OW 1222   0.389   2.769   2.187  0.2347  0.1192 -0.2052
  408SOL    HW1 1223   0.320   2.837   2.219 -0.3990  0.8449  0.1691
  408SOL    HW2 1224   0.381   2.680   2.234  2.1442  1.3675 -0.6278
  409SOL     OW 1225   0.128   2.346   1.155  0.2454 -0.2821 -0.7288
  409SOL    HW1 1226   0.025   2.329   1.148 -0.7695 -0.1618 -0.9072
  409SOL    HW2 1227   0.148   2.448   1.161  0.9863  1.5082  2.3379
  410SOL     OW 1228   2.861   1.787   0.464  0.3419  0.5395 -0.2704
  410SOL    HW1 1229   2.932   1.851   0.498  1.5805  1.2373  1.8472
  410SOL    HW2 1230   2.901   1.710   0.408  0.8253 -4.0353 -0.7839
  411SOL     OW 1231   2.676   3.089   1.315  0.1368  0.3806  0.3158
  411SOL    HW1 1232   2.603   0.001   1.388 -0.3573 -1.8149 -1.2137
  411SOL    HW2 1233   2.656   0.045   1.232 -1.6426 -0.0251 -1.5585
  412SOL     OW 1234   2.223   0.368   1.740 -0.0933  0.0002  0.2470
  412SOL    HW1 1235   2.208   0.304   1.819 -3.3067  0.6354 -0.5020
  412SOL    HW2 1236   2.173   0.332   1.658  1.0946 -0.1480  3.0810
  413SOL     OW 1237   0.177   0.238   2.231  0.5679  0.3050  0.1540
  413SOL    HW1 1238   0.174   0.328   2.280 -0.5158  3.4980  0.8410
  413SOL    HW2 1239   0.273   0.232   2.196  0.7243 -0.6995 -2.5148
  414SOL     OW 1240   2.868   1.204   3.054  0.0176 -0.2896  0.2924
  414SOL    HW1 1241   2.795   1.267   3.017  0.5798  0.1652  0.4248
  414SOL    HW2 1242   2.835   1.172   0.042  1.7951  1.0421 -0.2327
  415SOL     OW 1243   0.950   2.404   3.068 -0.0249 -0.0923  0.2020
  415SOL    HW1 1244   0.938   2.499   3.034 -2.8481 -2.8868 -0.2922
  415SOL    HW2 1245   1.024   2.395   0.031  1.0795  0.7200 -1.5473
  416SOL     OW 1246   1.523   2.890   2.467  0.0888  0.6432 -0.1312
  416SOL    HW1 1247   1.431   2.842   2.460  1.9950 -1.3108  1.4781
  416SOL    HW2 1248   1.547   2.940   2.386  1.2050 -1.1356  3.2064
  417SOL     OW 1249   0.263   0.712   1.123  0.3318 -0.2685 -0.3959
  417SOL    HW1 1250   0.334   0.634   1.127 -1.0942 -2.2620 -0.4276
  417SOL    HW2 1251   0.248   0.733   1.022  0.7438  1.5155 -3.6748
  418SOL     OW 1252   2.570   0.015   0.852  0.1064 -0.6643  0.7880
  418SOL    HW1 1253   2.587   0.017   0.954  1.7487 -1.1858 -1.5338
  418SOL    HW2 1254   2.622   0.093   0.811  2.6466  2.0578  0.9217
  419SOL     OW 1255   0.317   3.100   0.246  0.2151 -0.0714  0.7854
  419SOL    HW1 1256   0.295   3.003   0.269 -1.9834 -2.7307  1.8085
  419SOL    HW2 1257   0.253   0.056   0.301 -0.8646  0.0215 -0.0272
  420SOL     OW 1258   0.300   0.916   1.654  0.4597  0.6429  0.0510
  420SOL    HW1 1259   0.301   0.824   1.606  4.1958 -2.6844 -0.0984
  420SOL    HW2 1260   0.223   0.974   1.624  2.1280 -0.3340  1.4918
  421SOL     OW 1261   1.803   2.519   0.858 -0.2991 -0.0559  0.2472
  421SOL    HW1 1262   1.871   2.443   0.873  1.4011  1.4967  0.4078
  421SOL    HW2 1263   1.706   2.478   0.853  0.1236  0.5095  0.1110
  422SOL     OW 1264   0.186   0.190   1.208  0.1070 -0.2768  0.0235
  422SOL    HW1 1265   0.202   0.248   1.126  0.7084 -0.9952 -0.8060
  422SOL    HW2 1266   0.208   0.241   1.292  2.0821  0.1345 -1.8798
  423SOL     OW 1267   0.871   1.267   2.030  0.1674  0.0036  0.2314
  423SOL    HW1 1268   0.821   1.226   2.111  1.2159  2.0503 -2.8974
  423SOL    HW2 1269   0.871   1.367   2.043 -3.0488 -2.9327 -4.3324
  424SOL     OW 1270   1.837   2.062   0.482  0.4173  0.3163 -0.2269
  424SOL    HW1 1271   1.818   2.019   0.396  3.3731  2.0735  3.4486
  424SOL    HW2 1272   1.911   2.011   0.536 -0.6780  0.7868 -1.1251
  425SOL     OW 1273   2.774   2.872   2.032  0.1904 -0.5867 -0.3984
  425SOL    HW1 1274   2.677   2.845   2.033  0.1068  1.6360  0.8943
  425SOL    HW2 1275   2.804   2.891   1.936  3.3518 -2.0813 -1.5318
  426SOL     OW 1276   0.120   2.732   2.549  0.7490 -0.0371  0.7885
  426SOL    HW1 1277   0.118   2.679   2.640 -3.0632  0.5527  0.9435
  426SOL    HW2 1278   0.198   2.700   2.496 -0.8078 -3.1613  2.0029
  427SOL     OW 1279   0.988   2.943   0.352  0.0065  0.3589  0.2669
  427SOL    HW1 1280   1.037   3.025   0.303  0.1628  1.7717  0.0513
  427SOL    HW2 1281   0.899   2.919   0.307 -0.6118 -2.0430 -0.1928
  428SOL     OW 1282   2.813   0.423   1.520 -0.4371 -0.2546 -0.5749
  428SOL    HW1 1283   2.819   0.323   1.509  0.1425 -0.6785 -0.6985
  428SOL    HW2 1284   2.754   0.456   1.447 -2.6794 -0.0307  2.8884
  429SOL     OW 1285   2.005   2.977   0.837  0.1308 -0.6017  0.3744
  429SOL    HW1 1286   1.938   2.943   0.763 -3.2137 -3.3931 -1.3743
  429SOL    HW2 1287   2.049   2.899   0.885  0.5083 -0.5905 -1.9391
  430SOL     OW 1288   1.052   1.627   2.554 -0.5494 -1.0087  0.4043
  430SOL    HW1 1289   1.041   1.720   2.600 -1.2719  0.6584 -1.1226
  430SOL    HW2 1290   0.960   1.591   2.531  2.0971  2.7775  1.3512
  431SOL     OW 1291   0.116   1.902   1.391 -0.2108 -0.4266 -0.5751
  431SOL    HW1 1292   0.173   1.895   1.481  1.1441 -0.1512  2.9414
  431SOL    HW2 1293   0.016   1.888   1.417 -0.6065  1.3511 -0.0446
  432SOL     OW 1294   1.441   2.678   2.726 -0.0254  0.4305 -0.1996
  432SOL    HW1 1295   1.466   2.767   2.774  2.1080  0.5957 -1.0895
  432SOL    HW2 1296   1.429   2.692   2.625 -3.6113 -0.0964  1.1839
  433SOL     OW 1297   1.169   0.471   2.403  0.4500  0.1098  0.1154
  433SOL    HW1 1298   1.093   0.468   2.337 -2.5614  1.9415  0.8925
  433SOL    HW2 1299   1.186   0.568   2.434  1.6666  0.2695 -0.1795
  434SOL     OW 1300   0.766   2.663   2.193  0.1583 -0.1408  0.0507
  434SOL    HW1 1301   0.791   2.606   2.112 -0.5116  0.5621  3.3774
  434SOL    HW2 1302   0.732   2.603   2.265 -0.5787  0.5230 -3.3572
  435SOL     OW 1303   0.461   0.074   3.092  0.0527 -0.1496 -0.2313
  435SOL    HW1 1304   0.387   0.024   0.049  0.1910 -0.0427  2.5151
  435SOL    HW2 1305   0.470   0.168   0.016  0.6442 -0.9768 -2.6282
  436SOL     OW 1306   0.502   1.337   2.375 -0.5703 -0.1476 -0.2039
  436SOL    HW1 1307   0.485   1.419   2.435 -2.6228  0.2546  3.0219
  436SOL    HW2 1308   0.562   1.269   2.422  2.5255  0.0294 -0.8089
  437SOL     OW 1309   0.999   2.289   2.601  0.1108 -0.3272  0.3762
  437SOL    HW1 1310   1.095   2.315   2.572  3.2545 -1.8506  0.7449
  437SOL    HW2 1311   0.933   2.353   2.562  2.5153 -2.6942  1.5361
  438SOL     OW 1312   0.809   0.914   0.603  0.4964 -0.0409  0.3496
  438SOL    HW1 1313   0.863   0.939   0.685 -0.1242 -0.6266 -1.1593
  438SOL    HW2 1314   0.872   0.875   0.537 -2.2758  0.3777 -1.2700
  439SOL     OW 1315   2.879   1.333   2.307 -0.4093  0.1232  0.2735
  439SOL    HW1 1316   2.926   1.267   2.245  2.2606 -0.4899 -3.2734
  439SOL    HW2 1317   2.857   1.422   2.260  0.6978 -0.4766 -2.5058
  440SOL     OW 1318   2.931   0.625   3.035  0.7928  0.2062 -0.3094
  440SOL    HW1 1319   2.953   0.549   2.971  0.2152  2.3690  0.6577
  440SOL    HW2 1320   2.847   0.678   2.999  0.2882 -0.6318  0.9181
  441SOL     OW 1321   0.737   1.949   1.335  0.6218 -0.6103 -0.2039
  441SOL    HW1 1322   0.713   2.046   1.311 -1.5484  0.3777  0.1777
  441SOL    HW2 1323   0.738   1.941   1.440  0.1929 -1.8416  2.3662
  442SOL     OW 1324   1.926   1.274   0.781 -0.0142 -0.4250 -0.1803
  442SOL    HW1 1325   1.896   1.217   0.700 -0.6123  0.7089  2.5028
  442SOL    HW2 1326   1.893   1.368   0.764  0.0933 -0.8019  1.4041
  443SOL     OW 1327   2.465   2.070   2.799  0.0558 -0.0779  0.3686
  443SOL    HW1 1328   2.430   2.158   2.766 -0.5364  1.8512 -1.3328
  443SOL    HW2 1329   2.393   2.025   2.854  1.6710  1.3005  0.9871
  444SOL     OW 1330   1.814   1.452   2.645 -0.2692 -0.1771 -0.6084
  444SOL    HW1 1331   1.902   1.407   2.623 -1.8418  2.1370 -0.0018
  444SOL    HW2 1332   1.830   1.544   2.690 -3.4808 -1.2970 -0.6835
  445SOL     OW 1333   0.572   2.311   2.163  0.4597  0.0025  0.0766
  445SOL    HW1 1334   0.585   2.370   2.242 -0.6651 -1.5915  0.8160
  445SOL    HW2 1335   0.653   2.252   2.151 -0.3815 -2.0977 -0.1164
  446SOL     OW 1336   0.928   0.852   1.656  0.1184 -0.5496 -0.5609
  446SOL    HW1 1337   0.892   0.760   1.669  1.1572  0.1506  0.6334
  446SOL    HW2 1338   0.978   0.855   1.571 -0.6939  3.7140  2.4105
  447SOL     OW 1339   1.024   0.799   0.485  0.2584  0.2926 -0.2788
  447SOL    HW1 1340   1.097   0.866   0.460 -2.0476 -0.5844  1.6993
  447SOL    HW2 1341   1.067   0.714   0.529  2.3362  2.9321  0.8338
  448SOL     OW 1342   1.179   1.354   2.218  0.4210 -0.7446  0.1265
  448SOL    HW1 1343   1.118   1.426   2.175 -1.8653 -1.0414  1.0970
  448SOL    HW2 1344   1.162   1.270   2.168  0.7496 -1.6667  2.8694
  449SOL     OW 1345   0.255   1.669   2.393  0.2868  0.0746 -0.1659
  449SOL    HW1 1346   0.233   1.573   2.362 -1.0758 -1.2451 -0.1179
  449SOL    HW2 1347   0.223   1.747   2.336 -1.2472 -1.0267 -1.0289
  450SOL     OW 1348   2.162   1.487   2.099  0.3063 -0.3792 -0.7543
  450SOL    HW1 1349   2.194   1.499   2.195  0.3922  0.4524 -0.2009
  450SOL    HW2 1350   2.232   1.515   2.032 -0.1934 -0.2576  4.0061
  451SOL     OW 1351   2.699   1.250   1.234  0.5004 -0.1452  0.2244
  451SOL    HW1 1352   2.709   1.347   1.210 -2.0263 -1.5477  3.5350
  451SOL    HW2 1353   2.740   1.217   1.320 -0.6045 -0.5201 -1.8125
  452SOL     OW 1354   0.656   1.039   1.527 -0.6443 -0.0988 -0.0374
  452SOL    HW1 1355   0.608   1.046   1.617 -2.3325 -1.3029 -1.4112
  452SOL    HW2 1356   0.751   1.087   1.524  0.0587  1.9115 -1.2342
  453SOL     OW 1357   0.410   2.047   1.083  0.3064  0.0362  0.4018
  453SOL    HW1 1358   0.309   2.031   1.100  1.2876  0.7600  0.2343
  453SOL    HW2 1359   0.431   2.026   0.986 -1.9666 -0.6092 -0.4655
  454SOL     OW 1360   1.327   1.579   0.303  0.2878 -0.0579 -0.1379
  454SOL    HW1 1361   1.427   1.562   0.297 -4.6671  1.9071  2.8280
  454SOL    HW2 1362   1.306   1.605   0.399  1.7745 -0.6893 -0.1551
  455SOL     OW 1363   1.654   0.584   0.931  0.7209 -0.1291  0.7518
  455SOL    HW1 1364   1.670   0.489   0.969 -0.5143  0.4542  0.0757
  455SOL    HW2 1365   1.745   0.632   0.928 -0.6258 -1.2313  1.1534
  456SOL     OW 1366   1.871   2.874   0.628 -0.2093  0.5091  0.1502
  456SOL    HW1 1367   1.886   2.796   0.559 -0.1757  2.1281  1.8107
  456SOL    HW2 1368   1.773   2.882   0.653  4.1781  0.7292 -1.4690
  457SOL     OW 1369   2.098   0.978   2.336  0.0948 -0.3774  0.2547
  457SOL    HW1 1370   2.133   0.940   2.243  0.6703  1.2924 -1.1173
  457SOL    HW2 1371   2.065   1.071   2.315 -0.1363 -0.5343 -0.4511
  458SOL     OW 1372   2.759   0.542   2.606 -0.6881 -0.1428  0.1052
  458SOL    HW1 1373   2.813   0.559   2.519 -0.8970  0.2433 -1.8131
  458SOL    HW2 1374   2.714   0.454   2.602  0.5754 -0.5408 -1.2567
  459SOL     OW 1375   2.589   1.308   2.366  0.1295  0.0148 -0.2758
  459SOL    HW1 1376   2.569   1.402   2.338 -1.0886  2.5333 -2.0142
  459SOL    HW2 1377   2.683   1.285   2.333  2.2278  1.8207  0.7942
  460SOL     OW 1378   0.890   0.961   2.767 -0.1263 -0.1686  0.1128
  460SOL    HW1 1379   0.870   1.048   2.820 -0.7492  1.8414 -0.4545
  460SOL    HW2 1380   0.798   0.928   2.732  2.3744  0.5408  0.2709
  461SOL     OW 1381   0.341   2.216   0.094  0.2316 -0.1524  0.6332
  461SOL    HW1 1382   0.395   2.278   0.152 -2.1927  0.9896 -0.2090
  461SOL    HW2 1383   0.317   2.258   0.002  2.9648  2.2307  3.4751
  462SOL     OW 1384   1.305   0.064   2.232 -0.4640  0.1902  0.0514
  462SOL    HW1 1385   1.379   0.041   2.167  2.7093 -0.7042 -0.3560
  462SOL    HW2 1386   1.221   0.010   2.213 -0.3521  1.2409 -1.6947
  463SOL     OW 1387   1.960   2.393   2.107 -0.3324 -0.5035  0.1803
  463SOL    HW1 1388   1.889   2.322   2.113 -1.7220  0.8788 -1.4511
  463SOL    HW2 1389   2.047   2.369   2.152  0.2907  0.5626  0.6325
  464SOL     OW 1390   2.488   2.453   0.632 -0.1190 -0.4583 -0.5139
  464SOL    HW1 1391   2.428   2.531   0.626  3.6700 -0.8104  0.0540
  464SOL    HW2 1392   2.567   2.467   0.571 -0.6460 -0.8418 -1.1995
  465SOL     OW 1393   3.059   0.048   1.273 -0.2597  0.5830 -0.4411
  465SOL    HW1 1394   3.031   3.079   1.202 -0.5193 -1.4947 -1.8974
  465SOL    HW2 1395   0.055   0.078   1.264  1.8690 -0.5641 -0.7481
  466SOL     OW 1396   1.322   2.721   2.409 -1.1453 -0.6286 -0.4572
  466SOL    HW1 1397   1.230   2.730   2.458 -0.0576  0.2209  1.1290
  466SOL    HW2 1398   1.317   2.683   2.314 -0.0711 -0.6787 -0.1137
  467SOL     OW 1399   3.041   2.323   0.175  0.5054 -0.0253  0.2901
  467SOL    HW1 1400   3.012   2.225   0.172 -1.2140  1.0901 -2.0888
  467SOL    HW2 1401   2.958   2.384   0.158 -0.2417 -0.1855 -0.6875
  468SOL     OW 1402   2.225   1.985   2.911  0.3474  0.8734  0.2761
  468SOL    HW1 1403   2.205   1.900   2.860 -0.4533  2.9423  1.4240
  468SOL    HW2 1404   2.158   2.061   2.888 -1.4992  1.5685  0.4112
  469SOL     OW 1405   0.847   1.876   0.580 -0.2278 -0.0088  0.8672
  469SOL    HW1 1406   0.854   1.964   0.623  0.0277 -3.4673  1.8466
  469SOL    HW2 1407   0.883   1.807   0.649 -3.3558  2.0463 -0.5475
  470SOL     OW 1408   1.889   0.712   0.928  0.4180  0.2556  0.2388
  470SOL    HW1 1409   1.978   0.679   0.965  0.9642  0.5486  0.9786
  470SOL    HW2 1410   1.875   0.812   0.940 -0.3973  0.5363  1.3089
  471SOL     OW 1411   0.230   1.775   0.379  0.1545 -0.2467  0.5849
  471SOL    HW1 1412   0.318   1.741   0.350  0.1344  0.9643  0.8337
  471SOL    HW2 1413   0.216   1.862   0.331  0.8453 -1.5129 -0.8057
  472SOL     OW 1414   2.671   1.815   2.439 -0.3577  0.1292 -0.5385
  472SOL    HW1 1415   2.646   1.781   2.346 -1.2746  0.4284 -0.0629
  472SOL    HW2 1416   2.743   1.887   2.429  0.6154  1.9521  0.4397
  473SOL     OW 1417   1.589   1.867   0.787  0.1644 -0.2733 -0.2106
  473SOL    HW1 1418   1.529   1.954   0.788 -1.9239  2.4968  3.0522
  473SOL    HW2 1419   1.614   1.848   0.885 -3.0861 -0.2256 -0.9085
  474SOL     OW 1420   2.744   0.404   1.045 -0.8133  0.2501 -0.5713
  474SOL    HW1 1421   2.686   0.441   0.967  0.2583  1.0230  2.0462
  474SOL    HW2 1422   2.840   0.382   1.017 -0.6164 -1.5901 -1.2475
  475SOL     OW 1423   2.648   3.011   1.729  0.0477 -0.3983  0.2133
  475SOL    HW1 1424   2.620   2.924   1.773 -0.3181  1.1983  1.1277
  475SOL    HW2 1425   2.612   3.034   1.637  0.4689 -1.5634  0.1990
  476SOL     OW 1426   0.540   0.317   0.808 -0.3958  0.7147  0.5942
  476SOL    HW1 1427   0.525   0.298   0.710 -0.4392 -0.6592  0.5625
  476SOL    HW2 1428   0.600   0.397   0.809 -1.2131 -0.3063 -0.7050
  477SOL     OW 1429   1.291   2.415   1.161  0.0539 -0.3252  0.0678
  477SOL    HW1 1430   1.391   2.434   1.155 -0.1334  0.4803  0.5413
  477SOL    HW2 1431   1.239   2.504   1.162 -2.0100  3.0164  1.1128
  478SOL     OW 1432   1.271   2.482   2.829 -0.4213  0.3121  0.7633
  478SOL    HW1 1433   1.178   2.503   2.801 -0.0256 -0.3526  2.3432
  478SOL    HW2 1434   1.328   2.552   2.782 -1.9973 -0.4782  0.4436
  479SOL     OW 1435   2.391   0.925   1.985 -0.7969  0.6669  0.7255
  479SOL    HW1 1436   2.455   0.984   2.036 -0.0367  1.9207  0.4534
  479SOL    HW2 1437   2.431   0.842   1.937  0.5746 -1.2899 -1.4000
  480SOL     OW 1438   2.776   2.073   2.634  0.0806  0.2279  0.0645
  480SOL    HW1 1439   2.856   2.131   2.627 -0.5430  0.2813  1.4122
  480SOL    HW2 1440   2.789   1.998   2.700 -2.3013  2.6780 -1.8586
  481SOL     OW 1441   1.677   3.063   1.701 -0.0742  0.0390 -0.3495
  481SOL    HW1 1442   1.700   2.986   1.764 -0.3896 -1.1908 -3.2147
  481SOL    HW2 1443   1.576   3.057   1.673  2.4915 -0.1331  0.9937
  482SOL     OW 1444   1.570   2.406   2.169 -0.2211  0.3220  0.4083
  482SOL    HW1 1445   1.604   2.444   2.081 -0.5361 -1.4511  3.2718
  482SOL    HW2 1446   1.472   2.427   2.189 -1.4813  1.1385  3.5864
  483SOL     OW 1447   1.094   2.715   2.550 -0.1010  0.2764  0.1920
  483SOL    HW1 1448   1.048   2.658   2.619 -0.1651 -0.6062  1.9785
  483SOL    HW2 1449   1.038   2.803   2.538  0.5868  4.5472 -1.6360
  484SOL     OW 1450   2.495   0.027   1.495 -0.2442  0.3211 -0.2283
  484SOL    HW1 1451   2.414   0.004   1.441  1.4512  0.1723  0.7468
  484SOL    HW2 1452   2.485   0.113   1.550 -1.9213  3.2710  1.1206
  485SOL     OW 1453   1.985   0.539   0.555 -0.4416 -0.5527  0.1110
  485SOL    HW1 1454   2.004   0.638   0.583 -0.1519  2.2140 -1.1260
  485SOL    HW2 1455   1.887   0.519   0.537 -1.4007 -1.3630 -2.0903
  486SOL     OW 1456   2.298   2.656   2.422  0.2038 -0.0704 -0.3210
  486SOL    HW1 1457   2.316   2.702   2.512 -0.7497 -1.2746 -0.7758
  486SOL    HW2 1458   2.225   2.703   2.372  2.3843 -0.0434  1.0874
  487SOL     OW 1459   1.392   0.758   0.632  0.6081  0.8256 -0.4510
  487SOL    HW1 1460   1.290   0.733   0.640 -0.4119  0.7984  0.9266
  487SOL    HW2 1461   1.458   0.682   0.659 -0.2347  0.1217  1.1420
  488SOL     OW 1462   2.590   2.897   2.491 -0.2961  0.5157 -0.1752
  488SOL    HW1 1463   2.590   2.823   2.414  2.3537  0.1990 -1.4042
  488SOL    HW2 1464   2.510   2.879   2.550  2.2842 -1.9721 -1.1458
  489SOL     OW 1465   1.306   2.675   0.491  0.4292  0.1705 -0.3336
  489SOL    HW1 1466   1.291   2.761   0.534  2.5975 -3.6002 -2.2188
  489SOL    HW2 1467   1.262   2.598   0.541 -1.3734 -0.6755  2.2501
  490SOL     OW 1468   1.539   0.453   3.089 -0.1269  0.1025 -0.0055
  490SOL    HW1 1469   1.617   0.477   3.028 -1.8544  1.5308  0.9822
  490SOL    HW2 1470   1.471   0.527   3.087 -0.0934 -0.5938 -0.3358
  491SOL     OW 1471   0.811   2.924   1.283  0.3534 -0.1203  0.0749
  491SOL    HW1 1472   0.746   2.985   1.236  3.1310  0.8219 -2.1107
  491SOL    HW2 1473   0.831   2.959   1.375 -1.7412  0.4101  0.3044
  492SOL     OW 1474   1.708   2.596   0.456  0.2496  0.7365  0.3588
  492SOL    HW1 1475   1.772   2.520   0.424  1.8280 -3.0211 -0.3757
  492SOL    HW2 1476   1.626   2.600   0.400 -1.3788  0.1955 -0.0165
  493SOL     OW 1477   1.245   2.164   3.066 -0.0556  0.1102 -0.2408
  493SOL    HW1 1478   1.325   2.197   3.012 -1.1662 -2.0917  1.5981
  493SOL    HW2 1479   1.228   2.236   0.039 -0.7018  1.8063  1.0592
  494SOL     OW 1480   0.940   0.764   0.211 -0.0026 -0.0885  0.3316
  494SOL    HW1 1481   1.008   0.699   0.165  0.7234  0.6099 -1.2447
  494SOL    HW2 1482   0.963   0.762   0.313 -0.1448  0.3018 -0.7947
  495SOL     OW 1483   2.750   0.365   1.785 -0.7552  0.0957  0.0809
  495SOL    HW1 1484   2.837   0.304   1.794  2.8636 -2.3298 -0.6736
  495SOL    HW2 1485   2.740   0.395   1.689 -0.2451  0.5885  1.0106
  496SOL     OW 1486   2.417   2.395   2.450 -0.5380  0.1056  0.0915
  496SOL    HW1 1487   2.360   2.480   2.457  2.3012 -2.2715  1.0696
  496SOL    HW2 1488   2.380   2.322   2.387 -0.7848 -0.4780 -0.3654
  497SOL     OW 1489   1.709   1.547   2.380 -0.1963 -0.2531  0.2728
  497SOL    HW1 1490   1.760   1.510   2.462  0.8312 -0.0332  0.9619
  497SOL    HW2 1491   1.606   1.551   2.394  0.0832 -0.6732  0.2433
  498SOL     OW 1492   0.812   2.599   0.980  0.2041 -0.0995  0.4530
  498SOL    HW1 1493   0.710   2.593   0.974  1.1348  1.0154  0.1020
  498SOL    HW2 1494   0.852   2.507   1.000 -0.2810 -2.1192 -1.9652
  499SOL     OW 1495   0.151   2.003   1.150  0.8252 -0.1260  0.0609
  499SOL    HW1 1496   0.074   2.061   1.113 -0.6224  1.2299 -1.7324
  499SOL    HW2 1497   0.132   1.968   1.246 -0.8376 -1.3963  2.4258
  500SOL     OW 1498   0.838   2.648   2.989  0.1731 -0.2618  0.0014
  500SOL    HW1 1499   0.734   2.661   2.982  0.4814 -1.2342 -0.8184
  500SOL    HW2 1500   0.884   2.732   3.031  1.9624 -0.9775 -2.1773
  501SOL     OW 1501   1.763   3.035   0.210 -0.5978  0.8033 -0.3025
  501SOL    HW1 1502   1.832   2.966   0.177  0.5100  0.4063 -1.0556
  501SOL    HW2 1503   1.689   3.045   0.142  0.3993  0.4257 -0.9370
  502SOL     OW 1504   3.018   0.168   0.756 -0.0393 -0.2622  0.4646
  502SOL    HW1 1505   2.987   0.202   0.663  1.0296  0.6030 -0.4787
  502SOL    HW2 1506   3.043   0.069   0.755 -2.2666 -1.6675  4.7013
  503SOL     OW 1507   2.066   3.013   2.044 -0.0907 -0.1002 -0.2091
  503SOL    HW1 1508   2.142   2.999   2.107  0.0448 -0.0085 -2.6454
  503SOL    HW2 1509   1.980   2.994   2.094  3.1449 -2.4220 -0.4725
  504SOL     OW 1510   2.241   1.136   1.793 -0.8367 -0.0915 -0.1016
  504SOL    HW1 1511   2.161   1.090   1.752  0.1821 -2.1738  1.8754
  504SOL    HW2 1512   2.295   1.070   1.849  0.2845  0.3254  1.0961
  505SOL     OW 1513   1.835   3.091   2.201  0.3329  0.2596 -0.1481
  505SOL    HW1 1514   1.832   0.068   2.270 -2.1798  3.8858  1.0166
  505SOL    HW2 1515   1.750   3.042   2.210 -0.9955  0.9170  2.1182
  506SOL     OW 1516   3.098   0.552   2.006 -0.1756  0.4450  0.5353
  506SOL    HW1 1517   3.025   0.504   2.057  1.7339  1.9414  0.2548
  506SOL    HW2 1518   0.006   0.651   2.025 -0.7302 -2.1619 -1.0265
  507SOL     OW 1519   1.702   0.524   0.477  0.1465 -0.0032 -0.2037
  507SOL    HW1 1520   1.649   0.583   0.412 -0.2466 -0.9038 -1.6608
  507SOL    HW2 1521   1.722   0.431   0.438  0.6681  1.4578  1.1464
  508SOL     OW 1522   2.045   0.597   2.030 -0.3332 -0.3491  0.2213
  508SOL    HW1 1523   2.053   0.522   2.096  0.3588  0.1248 -1.9101
  508SOL    HW2 1524   1.944   0.613   2.005  1.4353 -0.1201 -2.4875
  509SOL     OW 1525   0.758   1.814   2.770 -0.2655  0.4189  0.0712
  509SOL    HW1 1526   0.864   1.815   2.776  1.8677  2.2914 -0.9862
  509SOL    HW2 1527   0.733   1.869   2.686 -0.9869  0.6959 -2.9403
  510SOL     OW 1528   0.238   1.047   1.040 -0.4648 -0.6728  0.6081
  510SOL    HW1 1529   0.171   1.043   1.117  0.2340 -1.6019 -0.0236
  510SOL    HW2 1530   0.309   1.115   1.065 -0.2139 -0.7983 -2.2876
  511SOL     OW 1531   1.426   1.207   1.676  0.0058 -0.4188 -0.2699
  511SOL    HW1 1532   1.343   1.148   1.657 -3.1248  0.2505 -1.3440
  511SOL    HW2 1533   1.402   1.305   1.654  0.8313 -1.2464 -0.7067
  512SOL     OW 1534   0.468   1.940   0.796 -0.3001 -0.0392 -0.2715
  512SOL    HW1 1535   0.453   1.881   0.713  0.4907  0.7954  3.3829
  512SOL    HW2 1536   0.535   2.010   0.769 -1.5794  0.4282 -0.2452
  513SOL     OW 1537   0.184   2.573   0.791 -0.5233 -0.2286  0.4457
  513SOL    HW1 1538   0.266   2.613   0.747  1.1433 -1.0748 -0.6665
  513SOL    HW2 1539   0.199   2.509   0.867 -2.4874  1.8305 -1.6838
  514SOL     OW 1540   0.621   1.962   0.395 -0.3794 -0.0014 -0.3820
  514SOL    HW1 1541   0.707   1.947   0.446 -1.6616  1.4222  1.3757
  514SOL    HW2 1542   0.645   1.997   0.301 -2.8038 -3.1122 -0.4382
  515SOL     OW 1543   0.166   0.248   2.825  0.1823 -0.1601  0.0448
  515SOL    HW1 1544   0.194   0.156   2.847  0.9183 -0.2577 -1.7606
  515SOL    HW2 1545   0.190   0.307   2.902  0.2581  0.7334  0.4455
  516SOL     OW 1546   2.265   3.070   1.200  0.1490  0.3583  0.5864
  516SOL    HW1 1547   2.187   3.096   1.260  0.6197  1.9636  0.0227
  516SOL    HW2 1548   2.324   0.049   1.182 -0.3706 -1.2638 -0.3900
  517SOL     OW 1549   1.859   1.532   0.758 -0.1640 -0.4867 -0.6404
  517SOL    HW1 1550   1.842   1.594   0.677 -0.6927 -1.0576 -0.4844
  517SOL    HW2 1551   1.931   1.569   0.821 -0.9681 -3.0700 -2.0032
  518SOL     OW 1552   1.672   2.753   0.912  0.4412 -0.0814  0.5556
  518SOL    HW1 1553   1.734   2.673   0.904 -0.9176  0.3113 -0.4984
  518SOL    HW2 1554   1.619   2.760   0.823 -1.3560 -0.1011  1.1629
  519SOL     OW 1555   2.850   2.491   0.051  0.1747 -0.2178  0.2863
  519SOL    HW1 1556   2.874   2.497   3.051 -1.8281  0.6636 -1.2839
  519SOL    HW2 1557   2.908   2.559   0.099  3.5881  1.8350 -1.1091
  520SOL     OW 1558   2.196   1.821   2.316 -0.0588 -0.1884 -0.3132
  520SOL    HW1 1559   2.108   1.855   2.357 -0.5743  2.5028  0.5289
  520SOL    HW2 1560   2.223   1.883   2.242 -2.5019 -1.6446  0.9030
  521SOL     OW 1561   1.349   3.071   1.848  0.7980 -0.1838  0.3890
  521SOL    HW1 1562   1.355   3.071   1.746  0.5538  0.8799  2.5970
  521SOL    HW2 1563   1.254   3.089   1.879 -1.6828  0.0326  1.3773
  522SOL     OW 1564   0.436   2.432   1.918  0.7072 -0.6552 -0.2751
  522SOL    HW1 1565   0.340   2.409   1.924  2.3589  0.0427 -2.2010
  522SOL    HW2 1566   0.498   2.381   1.983  0.2584  0.6821  0.3711
  523SOL     OW 1567   0.891   2.264   1.952  0.5124 -0.5289  0.1605
  523SOL    HW1 1568   0.815   2.339   1.947 -0.5320  1.2629 -0.8898
  523SOL    HW2 1569   0.921   2.242   2.050  0.5324 -3.6506  1.5341
  524SOL     OW 1570   2.040   2.186   0.266 -0.6507 -0.3965  0.5567
  524SOL    HW1 1571   1.996   2.097   0.281  1.8411  1.3417  3.1614
  524SOL    HW2 1572   2.065   2.221   0.358  2.0418 -1.0236  0.9038
  525SOL     OW 1573   2.697   0.635   2.854 -0.2752 -0.4911 -0.2874
  525SOL    HW1 1574   2.725   0.605   2.759  0.5188 -1.1256 -0.6267
  525SOL    HW2 1575   2.656   0.723   2.850  2.2448  1.1518  0.7923
  526SOL     OW 1576   0.365   2.707   0.634 -0.5281  0.0443 -0.2401
  526SOL    HW1 1577   0.435   2.770   0.593 -1.9973  2.3622 -2.6680
  526SOL    HW2 1578   0.267   2.734   0.616 -1.4272 -1.2073 -0.2357
  527SOL     OW 1579   0.063   1.027   0.792  0.4619  0.1072 -0.5459
  527SOL    HW1 1580   0.147   1.060   0.834 -0.6232 -0.2304  2.5642
  527SOL    HW2 1581   0.011   0.966   0.851  2.6069  1.8474 -1.5209
  528SOL     OW 1582   0.802   1.247   2.480  0.0147  0.4558  0.1150
  528SOL    HW1 1583   0.752   1.194   2.546  0.6242  2.8015  1.1158
  528SOL    HW2 1584   0.902   1.226   2.494 -1.0976  1.3649 -0.3873
  529SOL     OW 1585   0.933   1.275   0.301 -0.0437  0.1385 -0.0559
  529SOL    HW1 1586   0.886   1.189   0.279  1.2977  1.1636  3.1344
  529SOL    HW2 1587   0.905   1.343   0.229 -1.6109  0.2234 -0.8869
  530SOL     OW 1588   1.177   0.951   1.812 -0.5666 -0.1552  0.1134
  530SOL    HW1 1589   1.102   0.892   1.767 -1.1297 -2.0800 -0.2952
  530SOL    HW2 1590   1.253   0.890   1.836 -1.3469 -0.5012  0.3006
  531SOL     OW 1591   1.182   2.373   0.128 -0.3338  0.0022  0.0960
  531SOL    HW1 1592   1.264   2.420   0.093 -0.3588  0.7243  4.8490
  531SOL    HW2 1593   1.184   2.377   0.226 -0.1129 -0.7110 -4.0056
  532SOL     OW 1594   2.558   0.632   2.403  0.6283 -0.3316 -0.3760
  532SOL    HW1 1595   2.635   0.703   2.390  1.9298  3.2681  2.8463
  532SOL    HW2 1596   2.527   0.631   2.501 -1.0260 -1.9566  0.6459
  533SOL     OW 1597   3.010   0.172   2.135  0.4843  0.6555  0.0847
  533SOL    HW1 1598   0.005   0.194   2.159 -3.5834 -3.1708 -2.2294
  533SOL    HW2 1599   2.976   0.093   2.194  0.9501 -0.5352  3.9339
  534SOL     OW 1600   2.579   3.046   0.108 -0.1901 -0.5689  0.2628
  534SOL    HW1 1601   2.628   0.032   0.099 -1.0181 -1.1621  0.4008
  534SOL    HW2 1602   2.483   3.057   0.069 -1.7516  0.8235 -0.9365
  535SOL     OW 1603   0.668   0.400   0.112 -0.1722  0.2131  0.4301
  535SOL    HW1 1604   0.687   0.491   0.149 -2.0748 -1.4455 -1.4604
  535SOL    HW2 1605   0.568   0.392   0.094  0.2512  2.9615 -1.1024
  536SOL     OW 1606   1.247   2.159   1.314  0.1448 -0.4319  0.0517
  536SOL    HW1 1607   1.152   2.126   1.315  0.8354 -0.4002  0.5867
  536SOL    HW2 1608   1.261   2.250   1.268  3.6582 -1.5600 -1.3223
  537SOL     OW 1609   2.947   2.293   1.654  0.1303 -0.1780 -0.6520
  537SOL    HW1 1610   2.996   2.383   1.663 -0.1458 -0.4079  3.1625
  537SOL    HW2 1611   2.845   2.296   1.633 -0.9473 -2.5447 -2.0934
  538SOL     OW 1612   0.487   2.234   0.472 -0.2959 -0.1122  0.5571
  538SOL    HW1 1613   0.541   2.145   0.468  1.9920 -0.4729 -0.8353
  538SOL    HW2 1614   0.498   2.290   0.559 -1.2289  0.5973  0.5314
  539SOL     OW 1615   1.998   1.232   2.301  0.3559 -0.5871  0.1118
  539SOL    HW1 1616   1.897   1.211   2.277 -3.4546 -0.1714  0.2138
  539SOL    HW2 1617   2.035   1.313   2.253  1.6909 -0.4531  2.3857
  540SOL     OW 1618   1.820   0.806   2.975  0.2596  0.5387  0.5006
  540SOL    HW1 1619   1.795   0.712   2.942 -0.8171 -2.2008  0.8512
  540SOL    HW2 1620   1.908   0.837   2.924  4.5339 -3.9348 -0.9008
  541SOL     OW 1621   0.659   0.865   2.640 -0.6634  0.1233  0.6044
  541SOL    HW1 1622   0.566   0.841   2.611 -2.4844  1.0386 -1.0022
  541SOL    HW2 1623   0.729   0.818   2.583  2.8747  1.4003 -0.1141
  542SOL     OW 1624   1.438   2.669   1.783  0.0001  0.2817 -0.0922
  542SOL    HW1 1625   1.353   2.611   1.790  0.8115  2.7871 -1.4681
  542SOL    HW2 1626   1.438   2.724   1.692  0.5034  1.2683 -3.5727
  543SOL     OW 1627   0.585   2.744   0.150 -0.6102 -0.4789  0.5162
  543SOL    HW1 1628   0.600   2.719   0.052  1.4026 -3.3551 -0.7625
  543SOL    HW2 1629   0.511   2.689   0.201 -0.5530  2.1608 -0.0641
  544SOL     OW 1630   3.011   2.224   2.194  0.5841  0.1666  0.5383
  544SOL    HW1 1631   3.013   2.238   2.097  1.1570  1.1194  1.5155
  544SOL    HW2 1632   0.003   2.248   2.226  1.0660  0.5297 -1.2716
  545SOL     OW 1633   1.407   1.771   1.650 -0.1400 -0.6951 -0.4730
  545SOL    HW1 1634   1.367   1.842   1.584 -0.5944  0.8057 -0.6939
  545SOL    HW2 1635   1.334   1.714   1.689  0.4204  0.6268  0.9971
  546SOL     OW 1636   3.001   0.388   2.858  0.0570  0.0986  0.1977
  546SOL    HW1 1637   2.921   0.337   2.810  1.3432 -0.7001  0.5773
  546SOL    HW2 1638   3.084   0.334   2.845 -1.2655 -1.5801  1.8210
  547SOL     OW 1639   1.529   2.974   0.985 -0.3239  0.3363  0.6068
  547SOL    HW1 1640   1.499   2.976   1.084  0.0841  0.2906 -0.8039
  547SOL    HW2 1641   1.603   2.896   0.979  4.6608 -0.6578  1.0675
  548SOL     OW 1642   1.286   1.895   3.089  0.2293  0.0774 -0.0857
  548SOL    HW1 1643   1.365   1.869   0.052  0.0573 -1.0844  1.1317
  548SOL    HW2 1644   1.287   1.995   3.071  0.5156  0.3657 -0.9582
  549SOL     OW 1645   1.948   0.443   3.092 -0.3874  0.5079 -0.4672
  549SOL    HW1 1646   1.966   0.434   0.090 -1.8968  2.3851 -0.8610
  549SOL    HW2 1647   2.039   0.462   3.044  3.5480 -0.5336 -1.6112
  550SOL     OW 1648   2.786   2.014   0.900  0.2118  0.2333 -0.2733
  550SOL    HW1 1649   2.787   2.085   0.826  3.6048  0.5974 -0.4723
  550SOL    HW2 1650   2.798   1.918   0.861 -0.2258  2.5534 -1.0180
  551SOL     OW 1651   1.078   0.097   1.193 -0.6405 -0.1115  0.7917
  551SOL    HW1 1652   0.982   0.104   1.225 -1.3544 -0.6539  1.2842
  551SOL    HW2 1653   1.090   0.099   1.090  2.0055 -0.1021 -0.9879
  552SOL     OW 1654   3.084   1.674   2.835 -0.2365 -0.6866 -1.0028
  552SOL    HW1 1655   0.075   1.665   2.804 -2.9530 -0.0245  0.6790
  552SOL    HW2 1656   3.074   1.624   2.923 -2.2917  0.7330 -0.9130
  553SOL     OW 1657   2.511   2.554   0.318  0.3675 -0.0635  0.4764
  553SOL    HW1 1658   2.581   2.580   0.243  0.7676  1.9234 -3.4702
  553SOL    HW2 1659   2.419   2.607   0.304  1.1976  4.8842 -1.1614
  554SOL     OW 1660   2.005   1.199   1.478 -0.8508 -0.2794  0.2166
  554SOL    HW1 1661   1.913   1.211   1.433 -0.5441  0.8657 -0.6306
  554SOL    HW2 1662   2.005   1.123   1.543 -0.7600 -0.8054 -2.0460
  555SOL     OW 1663   0.631   2.451   2.381 -0.0990  0.3564 -0.2916
  555SOL    HW1 1664   0.564   2.397   2.436 -2.5646 -0.1785  1.2729
  555SOL    HW2 1665   0.727   2.440   2.416  2.2635 -1.6131  0.8399
  556SOL     OW 1666   1.201   1.373   1.882 -0.0719 -0.6977  0.1849
  556SOL    HW1 1667   1.245   1.280   1.887 -1.2846 -0.3890  1.0291
  556SOL    HW2 1668   1.268   1.449   1.868 -1.1093 -0.8980  1.1591
  557SOL     OW 1669   1.372   2.986   1.250  1.0828  0.1577  0.2535
  557SOL    HW1 1670   1.418   3.073   1.263 -1.0978  0.2814 -0.3184
  557SOL    HW2 1671   1.278   2.989   1.288  2.4047 -0.2480  0.7035
  558SOL     OW 1672   0.421   0.607   2.342  0.5565 -0.0337 -0.0272
  558SOL    HW1 1673   0.480   0.581   2.266 -0.4488 -1.4065 -0.5097
  558SOL    HW2 1674   0.329   0.566   2.323 -0.2978  0.1396 -1.3142
  559SOL     OW 1675   1.084   2.701   0.300 -0.0981 -0.2092 -0.2414
  559SOL    HW1 1676   1.046   2.793   0.319 -0.0882  2.9428  1.7958
  559SOL    HW2 1677   1.168   2.687   0.356  1.5264  0.8829  0.5972
  560SOL     OW 1678   1.485   1.841   0.157 -0.3363 -0.2275 -0.4888
  560SOL    HW1 1679   1.520   1.761   0.203  0.1548  2.8652 -2.6509
  560SOL    HW2 1680   1.552   1.920   0.160 -1.1001  0.5790 -1.3498
  561SOL     OW 1681   1.307   2.928   0.608 -0.8683 -0.2085 -0.2348
  561SOL    HW1 1682   1.305   3.007   0.540 -2.2233 -0.5676  2.7164
  561SOL    HW2 1683   1.309   2.966   0.706 -0.5225  1.5128 -0.2221
  562SOL     OW 1684   0.331   0.915   2.295 -0.0501  0.2684 -0.1499
  562SOL    HW1 1685   0.414   0.963   2.260 -0.3016  0.6415  0.3088
  562SOL    HW2 1686   0.365   0.826   2.340  0.7796 -4.1594 -1.6178
  563SOL     OW 1687   1.244   2.383   2.526  0.3675  0.0899  0.3812
  563SOL    HW1 1688   1.252   2.483   2.515 -0.5689  1.5105 -0.7116
  563SOL    HW2 1689   1.320   2.341   2.469  1.0347  0.4413 -0.0136
  564SOL     OW 1690   2.488   0.702   1.314 -0.1320  0.1170 -0.4489
  564SOL    HW1 1691   2.480   0.777   1.242 -1.7856  1.7758 -2.3021
  564SOL    HW2 1692   2.458   0.743   1.403 -1.6617  2.2918 -0.9262
  565SOL     OW 1693   1.361   1.071   0.324  0.8528 -0.1197 -0.6027
  565SOL    HW1 1694   1.355   1.063   0.222  0.6106  0.5571  2.0572
  565SOL    HW2 1695   1.411   1.161   0.353  0.2544  2.4769 -0.9480
  566SOL     OW 1696   2.308   2.512   2.867 -0.1771 -0.4636  0.2214
  566SOL    HW1 1697   2.403   2.538   2.869  0.5371 -0.1961 -2.2647
  566SOL    HW2 1698   2.265   2.504   2.959 -0.8536 -1.1677 -0.9481
  567SOL     OW 1699   1.605   1.010   0.940  0.0272  0.2895 -0.2395
  567SOL    HW1 1700   1.691   1.067   0.955  2.1204 -0.8186 -0.4922
  567SOL    HW2 1701   1.586   0.943   1.015  1.5255  1.2600 -1.2172
  568SOL     OW 1702   1.229   1.622   2.374 -0.5433  0.2154 -0.6641
  568SOL    HW1 1703   1.148   1.621   2.437 -0.3951 -2.2743 -0.9924
  568SOL    HW2 1704   1.257   1.714   2.355 -2.3770  2.4024  2.0132
  569SOL     OW 1705   2.053   1.585   0.945 -0.7413  0.1123  0.4859
  569SOL    HW1 1706   2.123   1.597   0.875 -1.1089 -1.7050  2.5998
  569SOL    HW2 1707   2.089   1.526   1.019  0.4292  3.3904 -1.3213
  570SOL     OW 1708   2.643   2.285   2.201  0.1674 -0.0203  0.4368
  570SOL    HW1 1709   2.663   2.380   2.218 -1.2473 -2.9057 -1.1521
  570SOL    HW2 1710   2.629   2.233   2.289 -2.1016 -0.6372 -0.6540
  571SOL     OW 1711   2.798   1.822   1.789 -0.7418  0.0604  0.2963
  571SOL    HW1 1712   2.783   1.865   1.882 -2.0391  0.4706  0.7089
  571SOL    HW2 1713   2.756   1.880   1.716  1.0047 -0.6931  0.5323
  572SOL     OW 1714   1.379   2.246   2.841 -0.0678 -0.4034  0.0249
  572SOL    HW1 1715   1.342   2.343   2.834  1.2801  0.9738  0.4585
  572SOL    HW2 1716   1.418   2.210   2.751 -0.0181 -3.0634 -0.6085
  573SOL     OW 1717   1.607   2.175   1.225 -0.3377  0.3463 -0.1022
  573SOL    HW1 1718   1.525   2.112   1.210  0.8411 -3.6693  0.6356
  573SOL    HW2 1719   1.670   2.128   1.291  0.3422 -0.6094 -1.9771
  574SOL     OW 1720   1.154   2.725   1.419 -0.4840 -0.3747 -0.3873
  574SOL    HW1 1721   1.060   2.691   1.440 -0.1963 -0.0811  2.8804
  574SOL    HW2 1722   1.151   2.822   1.393 -0.7203 -3.0595  2.7732
  575SOL     OW 1723   0.905   0.357   0.983 -0.0162 -0.5620  0.3098
  575SOL    HW1 1724   1.001   0.325   1.003  2.2949 -0.0079  2.2593
  575SOL    HW2 1725   0.838   0.280   0.972 -2.3834  0.1520  2.2691
  576SOL     OW 1726   2.459   0.344   1.388 -0.8404 -0.0855  0.7678
  576SOL    HW1 1727   2.522   0.417   1.346  1.0907  3.5420 -2.1649
  576SOL    HW2 1728   2.487   0.318   1.479 -0.6925  1.4086 -3.8401
  577SOL     OW 1729   2.298   0.190   2.958 -0.0642 -0.1751  0.4601
  577SOL    HW1 1730   2.328   0.236   3.045  2.0008 -0.5184  2.6714
  577SOL    HW2 1731   2.230   0.241   2.894 -2.6568  2.2924 -0.5433
  578SOL     OW 1732   1.947   1.907   2.064 -0.1488  0.0001  0.0798
  578SOL    HW1 1733   1.926   1.809   2.050 -1.5602  1.1933 -0.9059
  578SOL    HW2 1734   1.996   1.939   1.982  1.3805  1.0666  0.1815
  579SOL     OW 1735   0.650   1.786   0.973  0.1941 -0.3462 -0.1349
  579SOL    HW1 1736   0.597   1.859   0.928  0.6950 -0.3801  0.7824
  579SOL    HW2 1737   0.654   1.698   0.920 -0.3672 -2.2061  0.2444
  580SOL     OW 1738   1.565   0.026   2.861 -0.9342 -0.1129  0.4355
  580SOL    HW1 1739   1.467   0.033   2.835  0.0059 -1.0172 -0.3533
  580SOL    HW2 1740   1.603   3.039   2.824  0.3820 -0.6082  0.7738
  581SOL     OW 1741   0.933   0.748   2.018 -0.3241  0.1948 -0.2043
  581SOL    HW1 1742   1.006   0.705   1.965 -2.8113 -0.1357  0.9753
  581SOL    HW2 1743   0.964   0.820   2.078  0.1939 -1.6208 -4.5451
  582SOL     OW 1744   0.258   0.731   0.845  0.0002 -0.3768 -0.3439
  582SOL    HW1 1745   0.333   0.793   0.830 -0.6306 -0.3408  0.7857
  582SOL    HW2 1746   0.267   0.651   0.785 -0.5000  1.3247  0.9385
  583SOL     OW 1747   0.914   1.913   1.928 -0.2477 -0.3011  0.1972
  583SOL    HW1 1748   0.828   1.953   1.962  0.8085  0.4984  1.3271
  583SOL    HW2 1749   0.991   1.933   1.993 -2.4900 -2.3820 -2.5616
  584SOL     OW 1750   2.270   2.671   0.270  0.7269  0.4070 -0.2293
  584SOL    HW1 1751   2.188   2.637   0.316 -2.8841 -0.7671  2.1960
  584SOL    HW2 1752   2.277   2.773   0.278 -1.2872  0.5344  0.3018
  585SOL     OW 1753   2.267   0.501   2.798 -0.0597  0.0434 -0.2296
  585SOL    HW1 1754   2.221   0.569   2.860  0.1274  1.6797  0.5507
  585SOL    HW2 1755   2.315   0.554   2.720 -2.5916  2.0434 -0.9836
  586SOL     OW 1756   0.450   1.361   0.388  0.0766 -0.3944 -0.3429
  586SOL    HW1 1757   0.494   1.430   0.449  1.0883  0.1875 -0.7667
  586SOL    HW2 1758   0.354   1.347   0.424 -1.0808 -2.2417  0.2280
  587SOL     OW 1759   1.637   1.853   1.058 -0.0431 -0.4604 -0.4852
  587SOL    HW1 1760   1.716   1.895   1.103 -1.8383  1.3670  0.7511
  587SOL    HW2 1761   1.551   1.901   1.092 -1.4064  0.2534 -1.1348
  588SOL     OW 1762   0.456   0.529   1.131 -0.3869 -0.0335 -0.0851
  588SOL    HW1 1763   0.556   0.553   1.138  0.7518 -0.8914 -0.9262
  588SOL    HW2 1764   0.438   0.435   1.095  0.3419  0.1573  0.9776
  589SOL     OW 1765   1.859   3.001   1.081 -0.2479 -0.6317 -0.0864
  589SOL    HW1 1766   1.898   2.992   0.988 -1.1099  0.9143 -2.0446
  589SOL    HW2 1767   1.883   2.921   1.136 -1.6408  1.5630 -0.2476
  590SOL     OW 1768   1.683   1.023   0.316 -0.4915  0.2391 -0.4887
  590SOL    HW1 1769   1.650   1.001   0.221  0.4219 -5.8121 -1.3154
  590SOL    HW2 1770   1.627   1.109   0.349  0.6633  0.7829  1.6742
  591SOL     OW 1771   2.180   2.284   2.203 -0.7772  0.2777 -0.1097
  591SOL    HW1 1772   2.185   2.204   2.270  1.5826 -0.7274  2.4859
  591SOL    HW2 1773   2.268   2.295   2.152  1.4854  0.1214 -1.9613
  592SOL     OW 1774   1.384   1.970   1.180  0.5513 -0.5061 -0.0079
  592SOL    HW1 1775   1.416   1.902   1.247 -1.4891 -0.3430 -1.6452
  592SOL    HW2 1776   1.329   2.044   1.229 -1.7920  0.9057  1.8093
  593SOL     OW 1777   0.736   0.151   0.965  0.0179  0.1768  0.3742
  593SOL    HW1 1778   0.744   0.054   0.948  1.8518  1.5834  0.5866
  593SOL    HW2 1779   0.675   0.196   0.897  1.0790  1.0114 -0.6724
  594SOL     OW 1780   3.004   0.877   1.920  0.3887 -0.3470  0.0565
  594SOL    HW1 1781   2.970   0.969   1.886  0.5236  0.8760  0.2349
  594SOL    HW2 1782   0.008   0.881   1.914  3.6528 -0.6623  2.0552
  595SOL     OW 1783   0.121   2.906   0.591 -0.0371  1.0521 -0.3363
  595SOL    HW1 1784   0.032   2.870   0.563  0.2772 -0.8389  1.2156
  595SOL    HW2 1785   0.111   2.950   0.679 -0.5448 -0.5662 -1.2709
  596SOL     OW 1786   0.064   0.351   1.575 -0.2744 -0.5468 -0.3597
  596SOL    HW1 1787   0.069   0.436   1.636  1.3497 -3.8674  1.4876
  596SOL    HW2 1788   0.030   0.366   1.480  1.2455 -1.4342  0.3729
  597SOL     OW 1789   2.259   1.004   0.385 -0.3457  0.4278 -0.7159
  597SOL    HW1 1790   2.348   0.980   0.343  1.8255 -0.5921 -0.6728
  597SOL    HW2 1791   2.264   1.094   0.435 -0.4181  0.7133 -0.5767
  598SOL     OW 1792   0.617   0.002   2.061  0.0544 -0.3472  0.2148
  598SOL    HW1 1793   0.530   3.063   2.031  1.5462 -0.0425 -0.0410
  598SOL    HW2 1794   0.594   0.063   2.142 -0.1224  2.6943 -3.6458
  599SOL     OW 1795   2.457   1.806   0.039  0.1206  0.1078 -0.0853
  599SOL    HW1 1796   2.424   1.881   0.093  3.5172 -0.3840 -0.6604
  599SOL    HW2 1797   2.545   1.834   3.097  1.9557 -1.7174 -0.7151
  600SOL     OW 1798   1.015   1.108   3.094 -0.4492  0.5311 -0.2777
  600SOL    HW1 1799   0.956   1.141   3.019  1.5725 -0.6352  1.4317
  600SOL    HW2 1800   0.979   1.145   0.082  2.3368  0.2414  0.2813
  601SOL     OW 1801   1.287   1.150   0.045 -0.1431  0.3089  0.2391
  601SOL    HW1 1802   1.311   1.246   0.076  2.1192  2.7324  2.3326
  601SOL    HW2 1803   1.188   1.134   0.024 -0.6181 -0.0724  1.7721
  602SOL     OW 1804   0.847   2.991   1.558  0.0645  0.4116  0.2398
  602SOL    HW1 1805   0.855   2.916   1.626 -1.8772 -0.8222  1.5765
  602SOL    HW2 1806   0.810   3.078   1.596 -0.0279 -0.5482  0.2279
  603SOL     OW 1807   0.889   2.963   2.510  0.3096  0.3167 -0.5189
  603SOL    HW1 1808   0.799   3.010   2.532  0.5380 -1.3856 -0.2851
  603SOL    HW2 1809   0.970   3.021   2.516  0.0256 -1.1272 -3.0710
  604SOL     OW 1810   2.914   3.024   2.232 -0.5863  0.3500  0.2229
  604SOL    HW1 1811   2.839   3.055   2.292  0.2487  1.0213 -3.0160
  604SOL    HW2 1812   2.879   2.972   2.151 -1.1957 -1.7767 -1.7928
  605SOL     OW 1813   2.694   2.829   1.307  0.6334  0.2175  0.2958
  605SOL    HW1 1814   2.607   2.787   1.320  1.0889  3.8614 -1.7797
  605SOL    HW2 1815   2.679   2.927   1.309  0.3576 -0.5743  0.5978
  606SOL     OW 1816   3.098   1.982   2.795  0.0857  0.1291 -0.3000
  606SOL    HW1 1817   3.044   2.049   2.850  0.5913  0.5133 -1.3776
  606SOL    HW2 1818   3.063   1.888   2.809 -0.3035 -0.9997 -0.0904
  607SOL     OW 1819   0.956   0.075   0.609  0.4569  0.0346  0.3369
  607SOL    HW1 1820   0.948   0.005   0.682  1.5789 -2.7539 -0.2327
  607SOL    HW2 1821   1.032   0.141   0.625  0.4231 -0.2137  0.6172
  608SOL     OW 1822   1.733   1.870   2.281 -0.3223  0.7801  0.2166
  608SOL    HW1 1823   1.651   1.836   2.227 -1.8264  0.9453 -1.5518
  608SOL    HW2 1824   1.809   1.870   2.211  1.6776 -0.8660  0.6031
  609SOL     OW 1825   2.990   0.351   0.954 -0.1715  0.3536 -0.0129
  609SOL    HW1 1826   2.981   0.279   0.879 -2.4771 -1.0347  0.3017
  609SOL    HW2 1827   3.086   0.387   0.968 -1.5157  0.7492  1.0858
  610SOL     OW 1828   0.739   2.352   0.106 -0.3635 -0.2890 -0.4426
  610SOL    HW1 1829   0.810   2.389   0.042 -2.9936 -1.2887 -3.7951
  610SOL    HW2 1830   0.777   2.273   0.159  0.7801  0.3134  0.9650
  611SOL     OW 1831   1.875   1.118   0.572 -0.6758 -0.5419 -0.2556
  611SOL    HW1 1832   1.909   1.177   0.495  2.3439  1.2073 -0.6497
  611SOL    HW2 1833   1.852   1.025   0.544  0.7168 -0.9496 -0.0633
  612SOL     OW 1834   0.876   2.517   2.485  0.4807  0.5901  0.3200
  612SOL    HW1 1835   0.853   2.579   2.560  2.0697 -2.2313 -1.7245
  612SOL    HW2 1836   0.940   2.565   2.419  1.6767  2.5121  1.7437
  613SOL     OW 1837   1.293   1.682   0.550 -0.3382 -0.0412 -0.8594
  613SOL    HW1 1838   1.372   1.678   0.620  1.7139  1.3049 -0.2450
  613SOL    HW2 1839   1.241   1.760   0.574  0.7795 -3.7125 -1.2046
  614SOL     OW 1840   2.674   2.312   1.646  0.4452 -0.4226 -0.4153
  614SOL    HW1 1841   2.613   2.322   1.567  1.9155  0.1597 -0.5915
  614SOL    HW2 1842   2.627   2.347   1.732 -2.5117  1.6564  1.3608
  615SOL     OW 1843   2.498   1.207   0.089 -0.1746  0.3805 -0.6648
  615SOL    HW1 1844   2.541   1.284   0.042 -0.3977 -2.8354  1.3643
  615SOL    HW2 1845   2.415   1.179   0.039  1.7510  2.5848  0.8095
  616SOL     OW 1846   1.604   0.079   0.789  0.0707  0.1757  0.0271
  616SOL    HW1 1847   1.583   0.013   0.865 -2.2096  0.6895 -0.0291
  616SOL    HW2 1848   1.699   0.124   0.795  1.6432  1.0298  0.1076
  617SOL     OW 1849   0.426   1.315   2.790  0.0579 -0.4120 -0.4239
  617SOL    HW1 1850   0.498   1.377   2.751  3.4272 -0.4121  2.5578
  617SOL    HW2 1851   0.344   1.309   2.724  2.0676 -1.1017 -1.7604
  618SOL     OW 1852   0.301   0.656   1.768 -0.4932 -0.1611 -0.5757
  618SOL    HW1 1853   0.331   0.663   1.671 -0.2706 -0.0799  3.5920
  618SOL    HW2 1854   0.354   0.721   1.831 -0.2040 -0.7461 -0.9232
  619SOL     OW 1855   2.673   0.800   1.728 -0.2153 -0.3544  0.1719
  619SOL    HW1 1856   2.754   0.741   1.711 -0.6464  0.8511  0.0353
  619SOL    HW2 1857   2.610   0.761   1.797 -1.2836 -1.2981  1.3464
  620SOL     OW 1858   1.985   1.279   3.001  0.2795  0.4940 -0.3409
  620SOL    HW1 1859   1.920   1.201   3.017  0.4455 -0.6048  1.2720
  620SOL    HW2 1860   1.979   1.341   3.082 -2.6303  0.2375  2.5781
  621SOL     OW 1861   2.373   2.895   1.026  0.5101 -0.2202 -0.2283
  621SOL    HW1 1862   2.324   2.964   1.083 -1.0110  0.9073 -0.3637
  621SOL    HW2 1863   2.402   2.820   1.080 -3.0204  2.4850 -3.7924
  622SOL     OW 1864   1.471   0.799   2.135  0.3275  0.2560  0.5206
  622SOL    HW1 1865   1.476   0.817   2.034 -1.2859  0.1170  1.6182
  622SOL    HW2 1866   1.385   0.837   2.179 -0.9741  0.6923  3.2270
  623SOL     OW 1867   1.128   0.869   2.700 -0.7837 -0.0567 -0.0748
  623SOL    HW1 1868   1.029   0.900   2.718 -0.1818  0.8223  0.7004
  623SOL    HW2 1869   1.187   0.951   2.688  0.2861 -0.6674 -1.1055
  624SOL     OW 1870   1.841   0.217   0.720 -0.2315  0.1912 -0.5862
  624SOL    HW1 1871   1.786   0.229   0.637  0.1081  1.4045  0.9454
  624SOL    HW2 1872   1.929   0.260   0.707 -0.5095  0.0164 -0.0559
  625SOL     OW 1873   0.649   1.574   0.515 -0.4875  0.1679 -0.3268
  625SOL    HW1 1874   0.721   1.504   0.514 -1.7069 -2.2243  0.6337
  625SOL    HW2 1875   0.659   1.623   0.605 -1.2299  0.2671  2.6108
  626SOL     OW 1876   1.740   1.198   2.237 -0.3825  0.1831  0.0831
  626SOL    HW1 1877   1.778   1.222   2.147 -0.2110 -3.1001  1.1777
  626SOL    HW2 1878   1.647   1.227   2.248  1.5729 -0.0163  0.1725
  627SOL     OW 1879   0.703   0.331   1.838 -0.5567  0.1236 -0.8302
  627SOL    HW1 1880   0.762   0.353   1.921 -0.3463  0.8521 -0.2223
  627SOL    HW2 1881   0.606   0.339   1.862 -0.7764  1.2079 -0.9485
  628SOL     OW 1882   2.012   0.795   2.526 -0.3838 -0.2126  0.1509
  628SOL    HW1 1883   2.077   0.728   2.479  1.8309 -0.1556 -1.3704
  628SOL    HW2 1884   2.001   0.872   2.459 -0.3019  0.9377 -0.3455
  629SOL     OW 1885   0.796   1.431   0.130 -0.1850  0.3914 -0.1314
  629SOL    HW1 1886   0.786   1.516   0.186  0.2947 -2.9819 -0.0860
  629SOL    HW2 1887   0.788   1.461   0.034 -0.3772 -0.4972  1.4274
  630SOL     OW 1888   0.942   0.495   2.220 -0.3494 -0.1536 -0.2872
  630SOL    HW1 1889   0.950   0.588   2.179 -1.3145  1.2597 -0.3456
  630SOL    HW2 1890   0.878   0.486   2.304 -0.2946 -0.1009  1.6768
  631SOL     OW 1891   2.604   1.137   0.819 -0.2059 -0.3528 -0.1433
  631SOL    HW1 1892   2.650   1.083   0.893 -0.3361  1.4602  1.3038
  631SOL    HW2 1893   2.532   1.200   0.854 -0.3963 -1.6543 -0.0104
  632SOL     OW 1894   2.543   1.578   0.850  0.4346  0.0751  0.8352
  632SOL    HW1 1895   2.629   1.529   0.866 -3.2217  0.5976 -0.8597
  632SOL    HW2 1896   2.549   1.647   0.771 -1.6076 -0.7100 -0.5145
  633SOL     OW 1897   0.713   1.327   0.864  0.0031 -0.0872 -0.1265
  633SOL    HW1 1898   0.727   1.278   0.950  1.8692  1.6612 -3.5701
  633SOL    HW2 1899   0.746   1.265   0.789 -1.5840 -1.1414 -0.3875
  634SOL     OW 1900   1.618   3.003   0.555  0.6346 -0.0014 -0.1983
  634SOL    HW1 1901   1.600   3.045   0.460 -0.4597  1.4649  0.3759
  634SOL    HW2 1902   1.612   3.074   0.627 -1.0771  2.5463  1.5991
  635SOL     OW 1903   1.837   0.746   1.401  0.0149  0.0797 -0.0798
  635SOL    HW1 1904   1.936   0.749   1.374 -0.6158  0.9766  2.3238
  635SOL    HW2 1905   1.823   0.815   1.473 -2.5443 -2.2494  1.0362
  636SOL     OW 1906   1.133   0.632   0.649  0.3272  0.0521 -0.8987
  636SOL    HW1 1907   1.098   0.643   0.744 -2.7135  0.7725 -0.3420
  636SOL    HW2 1908   1.110   0.541   0.604 -1.5254 -0.6199 -0.9738
  637SOL     OW 1909   1.591   2.062   3.000  0.3672 -0.0076  0.0498
  637SOL    HW1 1910   1.514   2.069   2.933  2.0984  3.0130  0.5527
  637SOL    HW2 1911   1.682   2.034   2.955  0.9523 -0.5403 -0.1010
  638SOL     OW 1912   1.051   0.003   2.844  0.1798  0.1860  0.0788
  638SOL    HW1 1913   1.071   3.041   2.919  2.1023 -1.6657 -0.0056
  638SOL    HW2 1914   0.964   0.047   2.870  0.5750 -1.3246 -2.4291
  639SOL     OW 1915   1.294   1.980   1.527  0.6453  0.4904  0.3737
  639SOL    HW1 1916   1.193   1.952   1.526 -1.8231 -0.9150 -0.0479
  639SOL    HW2 1917   1.304   2.049   1.452 -0.0501  0.6020 -0.7707
  640SOL     OW 1918   0.576   0.105   2.860  0.5497 -0.5743 -0.1384
  640SOL    HW1 1919   0.527   0.074   2.941  2.1292  0.9956 -0.9871
  640SOL    HW2 1920   0.542   0.049   2.784  0.9197 -0.8314 -1.0620
  641SOL     OW 1921   0.291   0.531   0.313 -0.1903  0.6314  1.0993
  641SOL    HW1 1922   0.202   0.500   0.343 -0.1154 -0.2654 -0.1611
  641SOL    HW2 1923   0.342   0.544   0.398 -2.4757  0.2011 -1.7122
  642SOL     OW 1924   0.342   1.593   1.193  0.3621 -0.1369  0.0855
  642SOL    HW1 1925   0.434   1.627   1.218 -1.3561  0.6093  0.7944
  642SOL    HW2 1926   0.342   1.522   1.123  1.4816  1.1631 -0.8048
  643SOL     OW 1927   0.485   1.838   2.458 -0.2287 -0.2882 -0.1285
  643SOL    HW1 1928   0.471   1.851   2.354 -1.7362 -0.2573 -3.8039
  643SOL    HW2 1929   0.428   1.759   2.480  1.8646 -0.0528  0.3170
  644SOL     OW 1930   1.555   2.371   0.213 -0.6186  0.0705  0.5489
  644SOL    HW1 1931   1.654   2.369   0.187  3.5414 -3.7226  1.2079
  644SOL    HW2 1932   1.516   2.467   0.213  0.6262  1.9894  0.7660
  645SOL     OW 1933   1.924   2.152   1.676  0.7148 -0.1570  0.0012
  645SOL    HW1 1934   1.829   2.139   1.707 -1.3333  1.4471 -0.5294
  645SOL    HW2 1935   1.973   2.222   1.738  1.3828  1.9512 -0.1798
  646SOL     OW 1936   0.791   2.628   0.347  0.9445 -0.3668  0.1805
  646SOL    HW1 1937   0.886   2.643   0.317  0.7921  0.0120  0.7935
  646SOL    HW2 1938   0.714   2.657   0.283  0.2885  1.9857 -0.3074
  647SOL     OW 1939   0.187   2.973   2.183  0.1274 -0.5792  0.3850
  647SOL    HW1 1940   0.105   3.009   2.233  1.0416  1.6343  1.6056
  647SOL    HW2 1941   0.266   2.992   2.249  0.2985  0.6756  1.2914
  648SOL     OW 1942   2.978   0.907   0.962  0.2199 -0.7659  0.1307
  648SOL    HW1 1943   2.940   0.820   0.996  1.0610  0.3838 -2.8946
  648SOL    HW2 1944   2.901   0.963   0.933  1.3105 -0.8221  0.7563
  649SOL     OW 1945   1.894   2.797   2.555 -0.1188 -0.7030  0.1487
  649SOL    HW1 1946   1.818   2.756   2.500 -2.0349  3.1285  1.5801
  649SOL    HW2 1947   1.885   2.898   2.544 -1.4898  0.6415  0.1135
  650SOL     OW 1948   2.338   1.556   1.898 -0.1050  0.3344 -0.4059
  650SOL    HW1 1949   2.305   1.487   1.825  0.4466 -0.1176 -3.6044
  650SOL    HW2 1950   2.440   1.543   1.912  1.0585  1.4917 -0.7305
  651SOL     OW 1951   1.285   1.997   2.584 -0.0612 -0.2708  0.7168
  651SOL    HW1 1952   1.222   2.022   2.658  0.9257 -0.2665 -2.0113
  651SOL    HW2 1953   1.330   1.907   2.609  1.5344 -2.4515  3.6291
  652SOL     OW 1954   0.680   0.029   2.539 -0.0572  0.0988 -0.4832
  652SOL    HW1 1955   0.599   3.100   2.598 -1.2881 -0.4974  0.6052
  652SOL    HW2 1956   0.681   0.133   2.537 -1.1092 -2.1608  2.2552
  653SOL     OW 1957   2.347   1.809   0.969  0.2409  0.4787  0.4569
  653SOL    HW1 1958   2.362   1.709   0.990  1.8003 -1.8621  1.2198
  653SOL    HW2 1959   2.369   1.866   1.046  0.2195 -4.7540 -1.3749
  654SOL     OW 1960   2.480   2.935   2.099 -0.2564 -0.1575 -0.3600
  654SOL    HW1 1961   2.396   2.950   2.161 -2.4224  0.3312  1.4706
  654SOL    HW2 1962   2.511   3.034   2.087 -3.0512  0.1738 -1.8716
  655SOL     OW 1963   2.590   2.260   1.205  0.1393 -0.1040 -0.1002
  655SOL    HW1 1964   2.641   2.344   1.187 -2.3417 -0.5182  0.9776
  655SOL    HW2 1965   2.518   2.241   1.137  1.2679  0.0620  1.3501
  656SOL     OW 1966   2.614   1.817   2.699  0.0037  0.1473 -0.1338
  656SOL    HW1 1967   2.651   1.803   2.608  0.1324 -0.2615  1.7617
  656SOL    HW2 1968   2.576   1.911   2.719  2.1160 -1.3092  0.7978
  657SOL     OW 1969   0.018   1.183   0.577  0.5512 -0.0533 -0.1827
  657SOL    HW1 1970   3.063   1.162   0.493 -1.6076  0.0276 -4.3325
  657SOL    HW2 1971   0.017   1.116   0.656 -1.0058  0.5709  0.5417
  658SOL     OW 1972   1.372   1.467   1.567  0.5224 -0.1622 -0.0759
  658SOL    HW1 1973   1.383   1.488   1.466 -2.0367  0.1177 -0.3611
  658SOL    HW2 1974   1.272   1.473   1.594  1.3623 -2.4106 -1.6989
  659SOL     OW 1975   1.112   2.993   1.386  0.0455  0.2065  0.0221
  659SOL    HW1 1976   1.101   3.072   1.326 -1.5232  0.8493  3.9949
  659SOL    HW2 1977   1.038   2.989   1.455 -1.8265  0.1792 -0.2678
  660SOL     OW 1978   2.312   0.796   0.918 -0.0283  0.0327  1.1921
  660SOL    HW1 1979   2.273   0.817   0.825  1.5688  1.0406 -3.8901
  660SOL    HW2 1980   2.260   0.721   0.958  0.0053  0.2770 -1.5572
  661SOL     OW 1981   0.461   1.731   0.242 -0.1302 -0.7428  0.1199
  661SOL    HW1 1982   0.555   1.687   0.256  1.8121  0.0036  1.3561
  661SOL    HW2 1983   0.486   1.830   0.218 -2.5665  1.1575  0.8524
  662SOL     OW 1984   2.141   0.885   2.074 -0.1928  0.0912 -0.4946
  662SOL    HW1 1985   2.105   0.788   2.078  0.6697  0.1516  1.3310
  662SOL    HW2 1986   2.230   0.891   2.028 -0.3030  3.9913  0.7399
  663SOL     OW 1987   1.916   1.341   1.169 -0.4698  0.0640  0.3024
  663SOL    HW1 1988   1.903   1.263   1.110  0.1188  3.7952  0.2906
  663SOL    HW2 1989   2.010   1.377   1.176 -0.9370 -0.5131 -0.2026
  664SOL     OW 1990   0.317   0.039   1.007  0.5173 -0.1869  0.2647
  664SOL    HW1 1991   0.382   3.074   0.969 -0.8680 -0.5502  0.5133
  664SOL    HW2 1992   0.324   0.047   1.108 -0.7184 -1.6271 -0.8785
  665SOL     OW 1993   1.385   0.483   2.790  0.1183  0.4477 -0.6024
  665SOL    HW1 1994   1.400   0.555   2.857  1.6366  0.1530 -3.0899
  665SOL    HW2 1995   1.382   0.526   2.696 -0.1594  1.9274  1.1234
  666SOL     OW 1996   0.574   0.477   2.124 -0.3366 -0.7790  0.4382
  666SOL    HW1 1997   0.545   0.403   2.056  3.0982  0.0106  0.4395
  666SOL    HW2 1998   0.618   0.555   2.069  1.3559 -1.5847 -0.0615
  667SOL     OW 1999   1.672   1.769   1.520 -0.2485 -0.0773  0.0283
  667SOL    HW1 2000   1.769   1.772   1.560 -0.6588 -0.0754  2.4797
  667SOL    HW2 2001   1.609   1.742   1.594 -0.2515  3.1206  1.7493
  668SOL     OW 2002   0.163   1.428   2.298  0.2683  0.1304 -0.6033
  668SOL    HW1 2003   0.155   1.328   2.305  2.3358 -0.2206  0.8935
  668SOL    HW2 2004   0.184   1.452   2.197 -0.2050  0.3454 -3.8542
  669SOL     OW 2005   2.592   2.625   2.933  0.7525  0.2253 -0.5161
  669SOL    HW1 2006   2.640   2.555   2.873 -0.2518  0.0972 -1.5802
  669SOL    HW2 2007   2.654   2.673   2.994 -2.0548  0.2545 -0.3711
  670SOL     OW 2008   2.600   1.232   1.999 -0.0488  0.2606  0.2356
  670SOL    HW1 2009   2.614   1.158   1.924 -0.7918 -1.6264  1.0708
  670SOL    HW2 2010   2.556   1.189   2.079  0.6116 -3.2511 -0.1742
  671SOL     OW 2011   2.605   1.701   0.599  0.8002 -0.9854 -0.0448
  671SOL    HW1 2012   2.552   1.790   0.592 -1.5515  2.9438  0.5072
  671SOL    HW2 2013   2.700   1.726   0.568  1.1750  1.2655  0.1543
  672SOL     OW 2014   1.370   1.201   2.006  0.1855 -0.2253 -0.1685
  672SOL    HW1 2015   1.446   1.155   1.968 -1.6705  1.3891 -0.9727
  672SOL    HW2 2016   1.292   1.140   2.031  2.1300 -0.0881  0.7435
  673SOL     OW 2017   2.661   2.024   1.624  0.4149 -0.0011  0.1610
  673SOL    HW1 2018   2.686   2.120   1.624  0.6493  0.6266 -0.5046
  673SOL    HW2 2019   2.694   1.980   1.541 -2.6852  0.7599  0.8064
  674SOL     OW 2020   1.216   1.674   1.820  0.1935  0.0465  0.2595
  674SOL    HW1 2021   1.171   1.668   1.906  1.6919 -3.1764 -1.9377
  674SOL    HW2 2022   1.156   1.635   1.746 -2.9997 -2.5738 -0.8445
  675SOL     OW 2023   0.131   0.589   1.354  0.4853  0.4389  0.0371
  675SOL    HW1 2024   0.140   0.652   1.276 -0.4308 -0.6809 -1.1094
  675SOL    HW2 2025   0.054   0.529   1.351  1.4421  0.0411  1.3847
  676SOL     OW 2026   2.921   0.891   1.492 -0.0415  0.8395 -0.0678
  676SOL    HW1 2027   2.933   0.812   1.558 -1.5087 -1.3045 -0.9092
  676SOL    HW2 2028   2.865   0.861   1.411 -0.9491 -1.9703 -1.7367
  677SOL     OW 2029   2.034   1.296   2.574  0.4252  0.7195 -0.4057
  677SOL    HW1 2030   2.033   1.251   2.483 -0.3414 -1.4490 -0.8976
  677SOL    HW2 2031   2.115   1.350   2.591 -0.2980 -2.7956 -1.2153
  678SOL     OW 2032   2.642   1.716   1.221 -0.3104 -0.0703  0.9388
  678SOL    HW1 2033   2.710   1.651   1.182  1.4794  0.5418  3.4646
  678SOL    HW2 2034   2.656   1.807   1.177  0.8598  1.3008 -0.3457
  679SOL     OW 2035   0.395   2.640   0.357  0.1691  0.1436 -0.2609
  679SOL    HW1 2036   0.404   2.631   0.458  0.1826  1.9720 -0.1783
  679SOL    HW2 2037   0.426   2.558   0.307 -0.4634 -1.5826  1.2077
  680SOL     OW 2038   0.143   1.748   1.068 -0.6580  0.5176  0.3064
  680SOL    HW1 2039   0.161   1.843   1.089 -0.0349 -1.1296  0.2309
  680SOL    HW2 2040   0.197   1.684   1.131  3.5123 -1.7665  1.9924
  681SOL     OW 2041   1.054   0.037   0.917 -0.3726  0.1682  0.3672
  681SOL    HW1 2042   1.092   0.129   0.895  1.8016  0.4873 -0.0688
  681SOL    HW2 2043   1.123   3.067   0.884 -0.2383 -2.1680  2.9174
  682SOL     OW 2044   2.024   2.789   1.624 -0.0793 -0.4763  0.3229
  682SOL    HW1 2045   2.085   2.714   1.592  1.7555 -0.4524  1.1157
  682SOL    HW2 2046   1.938   2.801   1.569 -0.5862  0.7981  1.5147
  683SOL     OW 2047   2.560   1.376   1.542  0.2855  0.1121  0.4335
  683SOL    HW1 2048   2.524   1.456   1.491  2.4620  1.8297 -2.7811
  683SOL    HW2 2049   2.655   1.394   1.580 -1.6096 -0.3783  1.8495
  684SOL     OW 2050   0.016   1.593   1.935 -0.2289 -0.7525  0.4798
  684SOL    HW1 2051   3.022   1.584   1.908 -0.1792  2.3812  0.4238
  684SOL    HW2 2052   0.033   1.690   1.962 -0.3731  0.2325  2.0814
  685SOL     OW 2053   1.584   1.547   0.265  0.2389  0.1426  0.0229
  685SOL    HW1 2054   1.634   1.624   0.314 -0.7618  1.7253 -1.3827
  685SOL    HW2 2055   1.641   1.503   0.187 -0.3875 -3.8956 -0.2925
  686SOL     OW 2056   2.918   0.647   1.611 -0.5668  0.3744  0.0269
  686SOL    HW1 2057   2.996   0.622   1.667 -1.9369  0.3850  0.4034
  686SOL    HW2 2058   2.874   0.558   1.579 -0.5591 -3.2319  1.9880
  687SOL     OW 2059   1.601   0.306   2.761 -0.3480 -0.6582  0.0380
  687SOL    HW1 2060   1.598   0.226   2.828  0.9250 -0.5707 -0.0991
  687SOL    HW2 2061   1.538   0.379   2.787  0.8475 -2.7723  3.4340
  688SOL     OW 2062   1.332   1.880   2.327 -0.4193  0.2851  0.6243
  688SOL    HW1 2063   1.326   1.950   2.254  1.6477  0.2277 -2.3896
  688SOL    HW2 2064   1.348   1.924   2.415 -0.1760 -0.0508 -1.4041
  689SOL     OW 2065   2.313   1.382   1.688  0.3312  0.2979  0.1663
  689SOL    HW1 2066   2.289   1.282   1.706  2.3009 -1.1432  1.2152
  689SOL    HW2 2067   2.404   1.394   1.639  2.2025  0.2773 -1.5564
  690SOL     OW 2068   2.216   2.313   1.505  0.0966  0.6578  0.2011
  690SOL    HW1 2069   2.224   2.260   1.596 -1.2013 -0.7996  0.7096
  690SOL    HW2 2070   2.144   2.269   1.444 -0.7901 -2.0011 -1.9080
  691SOL     OW 2071   0.222   1.602   0.597  0.0287  0.2881  0.1888
  691SOL    HW1 2072   0.216   1.651   0.508 -0.8962 -0.0611 -1.4959
  691SOL    HW2 2073   0.241   1.668   0.670 -1.9121 -0.9027  1.0792
  692SOL     OW 2074   2.755   2.696   2.575  0.0454  0.5348 -0.6320
  692SOL    HW1 2075   2.685   2.763   2.608 -0.0372  1.4860  0.0055
  692SOL    HW2 2076   2.820   2.754   2.523 -1.0382 -1.0773 -2.9187
  693SOL     OW 2077   0.216   1.437   2.036  0.7842 -0.3511 -0.3054
  693SOL    HW1 2078   0.200   1.339   2.005 -0.6603  0.1355  0.0236
  693SOL    HW2 2079   0.157   1.498   1.978 -0.5141  0.7274 -2.5458
  694SOL     OW 2080   2.483   0.388   2.134 -0.4260  0.2836 -0.2355
  694SOL    HW1 2081   2.573   0.414   2.102  0.0705  2.6699  2.1821
  694SOL    HW2 2082   2.457   0.459   2.202 -1.0882  0.5278 -1.1397
  695SOL     OW 2083   1.224   0.922   2.218  0.3054  0.2959 -0.0032
  695SOL    HW1 2084   1.294   0.975   2.262  0.0683 -2.4323 -1.1215
  695SOL    HW2 2085   1.158   0.979   2.165  0.7972  1.5507  1.1414
  696SOL     OW 2086   2.232   3.020   1.595 -0.2856 -0.2887  0.4608
  696SOL    HW1 2087   2.209   3.085   1.668 -0.8681  1.8661  1.8568
  696SOL    HW2 2088   2.172   2.937   1.607 -0.2370 -1.1875  0.1424
  697SOL     OW 2089   0.996   0.315   2.014  0.5369 -0.3517  0.7486
  697SOL    HW1 2090   0.971   0.370   2.097 -0.5715 -1.0281  2.2096
  697SOL    HW2 2091   0.944   0.228   2.008 -0.0540  1.2945  0.7971
  698SOL     OW 2092   2.369   1.858   2.538  0.5691  0.0577 -0.4608
  698SOL    HW1 2093   2.340   1.810   2.452 -0.8320  0.7890 -1.9656
  698SOL    HW2 2094   2.457   1.816   2.574  0.6089 -0.6950  0.6715
  699SOL     OW 2095   2.113   0.724   0.334 -0.2164  0.1248  0.0345
  699SOL    HW1 2096   2.055   0.742   0.253 -0.7708 -1.0058 -0.0774
  699SOL    HW2 2097   2.146   0.813   0.370 -0.4463  0.1783 -0.1279
  700SOL     OW 2098   1.283   3.013   0.867 -0.0982  0.4146  0.2615
  700SOL    HW1 2099   1.376   3.043   0.903  1.1708 -0.4577 -1.8309
  700SOL    HW2 2100   1.257   2.922   0.903 -0.1192 -0.5986 -0.9823
  701SOL     OW 2101   2.946   0.569   0.528  0.3535  0.3819 -0.1016
  701SOL    HW1 2102   2.902   0.658   0.503  3.7615  0.3240  1.5937
  701SOL    HW2 2103   3.000   0.575   0.615 -2.7308 -1.0126 -1.6806
  702SOL     OW 2104   1.794   2.841   1.500 -0.0737 -0.2395 -0.0818
  702SOL    HW1 2105   1.692   2.831   1.488  0.0214  2.5222 -0.7473
  702SOL    HW2 2106   1.817   2.937   1.477 -1.7717  1.9718  1.4758
  703SOL     OW 2107   3.039   0.391   1.320  0.0390  0.3688 -0.1111
  703SOL    HW1 2108   2.945   0.369   1.344 -0.8238 -0.8243 -0.7466
  703SOL    HW2 2109   3.088   0.312   1.282 -0.4293 -1.2426  0.1797
  704SOL     OW 2110   0.914   2.587   1.439 -0.0216  0.1786 -0.1463
  704SOL    HW1 2111   0.942   2.509   1.381 -3.7337  0.0356  1.2574
  704SOL    HW2 2112   0.812   2.599   1.424 -1.2735  0.1476 -0.7114
  705SOL     OW 2113   0.288   1.840   0.003 -0.0621 -0.3592 -0.4411
  705SOL    HW1 2114   0.330   1.751   3.084 -3.0019  1.7978 -0.1672
  705SOL    HW2 2115   0.339   1.888   0.071  0.1242 -2.4778  0.9695
  706SOL     OW 2116   0.041   0.218   0.122 -0.4590 -0.7275  0.0420
  706SOL    HW1 2117   0.016   0.321   0.113  0.2321  0.8774 -0.2304
  706SOL    HW2 2118   0.082   0.196   0.213 -0.5782 -2.2227  4.0753
  707SOL     OW 2119   1.584   2.946   2.206  0.1702  0.1589 -0.0449
  707SOL    HW1 2120   1.550   3.007   2.130  2.1146 -1.6614 -1.0668
  707SOL    HW2 2121   1.604   2.851   2.171 -0.0915 -2.0422  0.8976
  708SOL     OW 2122   0.292   3.057   1.702 -0.2638  0.1605 -0.2361
  708SOL    HW1 2123   0.373   0.014   1.676  1.8998 -1.3299  0.9704
  708SOL    HW2 2124   0.296   2.969   1.649  0.7288 -1.1071  1.3218
  709SOL     OW 2125   0.041   0.561   1.738  0.2563  0.0944 -0.7550
  709SOL    HW1 2126   0.127   0.613   1.721 -0.5988  0.6548 -0.1600
  709SOL    HW2 2127   0.026   0.546   1.840 -3.3878  0.2189  0.9160
  710SOL     OW 2128   0.440   0.941   0.851 -0.0544  0.7265  0.0960
  710SOL    HW1 2129   0.456   1.022   0.788  1.3844  2.4487  0.2778
  710SOL    HW2 2130   0.387   0.965   0.938 -0.9499 -0.8186  0.3873
  711SOL     OW 2131   2.545   2.800   1.864 -0.8189 -0.1451  0.4123
  711SOL    HW1 2132   2.527   2.700   1.860  1.3263  0.4765 -0.9097
  711SOL    HW2 2133   2.476   2.852   1.923  0.5107 -1.9115  1.6225
  712SOL     OW 2134   0.302   2.564   2.401  0.3387  0.0573 -0.3880
  712SOL    HW1 2135   0.226   2.524   2.342  1.7574  0.4692 -0.5739
  712SOL    HW2 2136   0.333   2.491   2.462  1.8226  0.7257 -0.9424
  713SOL     OW 2137   2.675   0.256   0.702 -0.3682 -0.7066  0.2660
  713SOL    HW1 2138   2.604   0.258   0.632  0.2094 -1.3754 -0.2960
  713SOL    HW2 2139   2.772   0.244   0.666  0.7388 -0.4665  0.8842
  714SOL     OW 2140   1.898   1.735   2.486 -0.1637  0.7842 -0.6240
  714SOL    HW1 2141   1.840   1.695   2.415  0.5732 -0.8818  0.8376
  714SOL    HW2 2142   1.931   1.830   2.465  0.0640 -0.7434  1.4963
  715SOL     OW 2143   0.128   0.488   0.956  0.6204 -0.5419  0.0264
  715SOL    HW1 2144   0.201   0.424   0.973 -2.6363  2.1826 -3.5086
  715SOL    HW2 2145   0.168   0.581   0.951 -3.7532 -0.8411 -0.0067
  716SOL     OW 2146   0.825   0.579   1.683 -0.2331 -0.2105  0.0108
  716SOL    HW1 2147   0.792   0.589   1.586 -0.2959 -0.2670  1.1476
  716SOL    HW2 2148   0.831   0.480   1.712  2.0769  0.7295 -1.6968
  717SOL     OW 2149   0.819   0.725   2.464  0.0696  0.5367  0.2456
  717SOL    HW1 2150   0.774   0.639   2.436  0.9416 -4.1829 -0.5521
  717SOL    HW2 2151   0.875   0.701   2.551 -1.4874  4.1169  1.9605
  718SOL     OW 2152   1.254   0.065   0.451 -0.5595  0.3694  0.2754
  718SOL    HW1 2153   1.221   0.130   0.527 -0.6402  0.4936  1.6869
  718SOL    HW2 2154   1.188   0.054   0.373 -0.5067  1.2595  1.2468
  719SOL     OW 2155   2.944   2.415   2.862 -0.0506  0.0351 -0.0025
  719SOL    HW1 2156   2.980   2.326   2.903  0.5537 -0.4230 -0.9275
  719SOL    HW2 2157   2.855   2.404   2.816  1.8513  0.4373  1.6368
  720SOL     OW 2158   1.214   0.659   1.687 -0.0892 -0.0905  0.3737
  720SOL    HW1 2159   1.310   0.656   1.650  2.0612  1.8437 -1.9163
  720SOL    HW2 2160   1.210   0.636   1.785 -2.7233 -2.3822 -1.5851
  721SOL     OW 2161   0.003   2.777   0.899  0.0828 -0.0956  0.9932
  721SOL    HW1 2162   0.081   2.719   0.878 -0.0636  1.5165  0.1505
  721SOL    HW2 2163   3.020   2.715   0.914 -0.3177 -1.0101  3.0662
  722SOL     OW 2164   0.829   1.210   2.935  0.6605  0.1056  0.1090
  722SOL    HW1 2165   0.812   1.309   2.916  0.5312 -2.4168 -0.6219
  722SOL    HW2 2166   0.743   1.150   2.926  0.9882 -3.0805  0.5244
  723SOL     OW 2167   2.253   1.080   1.342  0.1681 -0.0591  0.3500
  723SOL    HW1 2168   2.304   1.129   1.261  3.2659  0.5419 -1.2710
  723SOL    HW2 2169   2.172   1.127   1.371 -0.0178 -0.1254 -0.5777
  724SOL     OW 2170   0.913   1.862   0.299 -0.4145  0.3573  0.0972
  724SOL    HW1 2171   0.995   1.830   0.247  4.2296  0.8826 -2.8020
  724SOL    HW2 2172   0.925   1.864   0.399 -2.5125 -0.7559  0.0408
  725SOL     OW 2173   0.316   0.695   1.502  0.3558  0.5084  0.4052
  725SOL    HW1 2174   0.390   0.738   1.448  1.3278  1.4943  0.1404
  725SOL    HW2 2175   0.252   0.647   1.436 -4.8505 -1.9387 -1.2856
  726SOL     OW 2176   2.616   0.916   0.005  0.1182 -0.2522  0.1469
  726SOL    HW1 2177   2.628   1.006   0.047  0.7393 -1.7128 -1.3460
  726SOL    HW2 2178   2.712   0.873   3.100  0.8337 -1.6211  1.9786
  727SOL     OW 2179   2.028   1.118   2.776 -0.6040  0.2842 -0.3164
  727SOL    HW1 2180   2.018   1.183   2.856 -0.1470  1.9249  1.9137
  727SOL    HW2 2181   2.029   1.174   2.692  0.6318 -0.4618  0.9486
  728SOL     OW 2182   1.940   2.315   1.212  0.4669 -0.0961 -0.0467
  728SOL    HW1 2183   1.858   2.379   1.202 -0.8934 -0.2282  0.3547
  728SOL    HW2 2184   2.002   2.323   1.129 -0.7144  1.7513 -1.1698
  729SOL     OW 2185   1.897   0.996   2.027  0.8079 -0.6401 -0.1145
  729SOL    HW1 2186   1.997   0.983   2.045 -2.4977 -0.5411  1.6193
  729SOL    HW2 2187   1.861   1.094   2.016 -3.4720  1.2877  0.0382
  730SOL     OW 2188   1.193   0.275   0.968  0.5958 -0.1194  0.0542
  730SOL    HW1 2189   1.254   0.274   1.049 -4.1198  3.6561 -0.5492
  730SOL    HW2 2190   1.251   0.277   0.885  0.2403 -0.2960  0.7582
  731SOL     OW 2191   0.767   0.676   2.901 -0.3070  0.2599  0.1434
  731SOL    HW1 2192   0.810   0.762   2.867  1.0128 -0.7568 -2.9683
  731SOL    HW2 2193   0.667   0.690   2.921  2.0376  0.8262  1.3979
  732SOL     OW 2194   0.649   0.692   0.474 -0.7633 -0.5483  0.1955
  732SOL    HW1 2195   0.706   0.766   0.517 -0.0917  1.6834 -1.4549
  732SOL    HW2 2196   0.550   0.731   0.480 -1.4863  1.1310  1.1777
  733SOL     OW 2197   1.509   1.759   2.129  0.4142  0.1128  0.0319
  733SOL    HW1 2198   1.431   1.783   2.191 -0.9452  0.7055 -1.1787
  733SOL    HW2 2199   1.498   1.664   2.099 -1.5587  0.7584  3.2393
  734SOL     OW 2200   0.243   2.263   2.941 -0.5824 -0.3510 -0.1246
  734SOL    HW1 2201   0.255   2.175   2.895  0.9397 -2.7212  0.8344
  734SOL    HW2 2202   0.285   2.337   2.886  0.7653 -0.1848  1.3132
  735SOL     OW 2203   2.563   0.447   0.844  0.2193  0.4881  0.1940
  735SOL    HW1 2204   2.568   0.539   0.804  2.1112  0.4547 -0.6164
  735SOL    HW2 2205   2.601   0.370   0.791  1.0804 -0.1823 -1.2728
  736SOL     OW 2206   2.258   1.563   2.376 -0.2879 -0.1205 -0.3269
  736SOL    HW1 2207   2.325   1.570   2.457 -0.4226 -1.4504  1.9198
  736SOL    HW2 2208   2.235   1.659   2.349  1.0747  0.3651  0.8570
  737SOL     OW 2209   0.032   0.450   0.365  0.0863 -0.6711  0.0025
  737SOL    HW1 2210   0.017   0.483   0.269 -2.2189 -0.5063 -0.2295
  737SOL    HW2 2211   3.049   0.460   0.421  1.5321  1.2042 -2.6795
  738SOL     OW 2212   1.002   1.995   1.273  0.0702  0.3036 -0.1687
  738SOL    HW1 2213   1.052   1.911   1.244 -2.0172 -0.9606 -0.9789
  738SOL    HW2 2214   0.913   1.971   1.316  1.4570  0.6561  0.7742
  739SOL     OW 2215   1.434   2.851   1.982  0.5292 -0.3152 -0.0318
  739SOL    HW1 2216   1.438   2.780   1.912 -1.0351  0.1574  0.4867
  739SOL    HW2 2217   1.409   2.945   1.935 -0.4502  1.1713  0.8629
  740SOL     OW 2218   2.182   2.585   1.540  0.0972 -0.2998  0.8881
  740SOL    HW1 2219   2.174   2.485   1.538 -0.9685  2.2832 -1.0812
  740SOL    HW2 2220   2.252   2.625   1.602  1.9930  2.4336 -0.0365
  741SOL     OW 2221   2.298   0.544   0.276 -0.2435 -0.4368 -0.5574
  741SOL    HW1 2222   2.235   0.471   0.248 -0.1754 -0.9730  0.8003
  741SOL    HW2 2223   2.241   0.630   0.290 -4.2577  0.4950 -0.8930
  742SOL     OW 2224   1.369   2.500   3.074  0.1312 -0.5436 -1.0629
  742SOL    HW1 2225   1.469   2.517   3.055  1.4987  3.4249  2.7288
  742SOL    HW2 2226   1.320   2.476   2.986 -0.0221 -0.9666 -2.1935
  743SOL     OW 2227   2.472   1.097   2.197 -0.7387 -0.1536  0.3340
  743SOL    HW1 2228   2.498   1.050   2.283 -2.6337  0.7779 -1.8482
  743SOL    HW2 2229   2.401   1.162   2.227  1.6909 -0.2081  0.0034
  744SOL     OW 2230   2.763   0.111   0.349 -0.5031 -0.3246  0.4651
  744SOL    HW1 2231   2.789   0.127   0.249 -1.7509 -2.2833  0.5652
  744SOL    HW2 2232   2.732   0.016   0.356 -1.6044  0.8682 -0.0790
  745SOL     OW 2233   2.170   1.404   1.436  0.4650  0.2249 -0.2863
  745SOL    HW1 2234   2.111   1.321   1.456 -0.9247  0.6318 -3.3658
  745SOL    HW2 2235   2.233   1.416   1.512 -0.7832  3.8975 -1.0805
  746SOL     OW 2236   0.940   1.747   0.834  0.0884 -0.0228  0.2901
  746SOL    HW1 2237   0.978   1.834   0.874  1.6684  1.2523  3.5345
  746SOL    HW2 2238   1.008   1.672   0.843 -2.3207  3.0818  0.6221
  747SOL     OW 2239   1.083   1.556   1.600  0.4702 -0.2365  0.3524
  747SOL    HW1 2240   1.102   1.536   1.502  0.5202  2.6606 -0.3288
  747SOL    HW2 2241   0.984   1.531   1.622 -0.6012 -1.0931 -0.5711
  748SOL     OW 2242   0.239   3.022   2.864 -0.2014  0.3830  0.3394
  748SOL    HW1 2243   0.190   3.015   2.773  1.5735 -0.2383  1.2316
  748SOL    HW2 2244   0.175   3.038   2.942 -1.4275  1.3802  0.8938
  749SOL     OW 2245   0.112   0.975   2.801  0.2919 -0.4638  0.4946
  749SOL    HW1 2246   0.077   1.052   2.857  0.9709  2.4270 -0.4850
  749SOL    HW2 2247   0.113   1.014   2.709  1.3245  0.7038  0.7397
  750SOL     OW 2248   1.555   1.076   1.873 -0.3199 -0.0804  0.0663
  750SOL    HW1 2249   1.514   1.114   1.793  2.5474 -1.2058  3.0522
  750SOL    HW2 2250   1.659   1.056   1.861  2.9286 -1.9563 -1.9759
  751SOL     OW 2251   2.766   0.782   0.449 -0.0212  0.4788 -0.0246
  751SOL    HW1 2252   2.789   0.816   0.357 -1.1158 -0.9662 -0.3667
  751SOL    HW2 2253   2.688   0.717   0.444  0.3065 -0.6399 -1.6825
  752SOL     OW 2254   2.574   2.623   0.952 -0.6114  0.0690  0.2735
  752SOL    HW1 2255   2.611   2.721   0.972  1.6990  2.5784 -0.9092
  752SOL    HW2 2256   2.602   2.591   0.860 -1.7867 -2.6864 -1.6870
  753SOL     OW 2257   0.869   2.332   1.057  0.2589  0.1366 -0.3993
  753SOL    HW1 2258   0.901   2.316   1.150 -2.3291  1.3254 -0.3625
  753SOL    HW2 2259   0.770   2.302   1.051 -1.3089  1.3797 -0.3079
  754SOL     OW 2260   2.980   2.695   2.202  0.5544  0.4228 -0.0523
  754SOL    HW1 2261   2.949   2.749   2.281  0.9028 -1.2548  0.3268
  754SOL    HW2 2262   2.963   2.748   2.114  0.9169 -0.6938  1.3422
  755SOL     OW 2263   2.375   0.654   0.047 -0.1993  0.0400  0.2380
  755SOL    HW1 2264   2.447   0.595   0.003 -1.4184  1.3604 -0.5524
  755SOL    HW2 2265   2.349   0.615   0.141 -0.0870 -2.1200  1.3405
  756SOL     OW 2266   1.829   2.367   0.189  0.2177 -0.0130  0.1815
  756SOL    HW1 2267   1.878   2.340   0.275  1.1790 -1.0104 -1.7861
  756SOL    HW2 2268   1.890   2.344   0.113  2.1974 -4.0012 -0.9455
  757SOL     OW 2269   2.457   0.227   0.548  0.0079  0.3793  0.0242
  757SOL    HW1 2270   2.363   0.256   0.576  1.5173  1.6340 -2.0112
  757SOL    HW2 2271   2.456   0.135   0.504  0.6701  2.1475 -2.0071
  758SOL     OW 2272   2.035   0.972   1.662 -0.6400 -0.5461 -0.0952
  758SOL    HW1 2273   1.941   0.924   1.650 -2.1392 -1.4506 -1.7078
  758SOL    HW2 2274   2.104   0.904   1.665 -2.7729  1.7853  0.7050
  759SOL     OW 2275   2.646   0.489   1.288  0.5049  0.0012 -0.1299
  759SOL    HW1 2276   2.596   0.577   1.285 -0.0632 -2.0264 -0.5116
  759SOL    HW2 2277   2.678   0.457   1.196 -0.0480 -0.4087 -0.5549
  760SOL     OW 2278   0.498   1.232   1.416 -0.5891  0.2851 -0.5615
  760SOL    HW1 2279   0.569   1.166   1.445 -2.0930 -0.5761  1.8443
  760SOL    HW2 2280   0.434   1.251   1.495 -1.7013 -1.6433  0.0315
  761SOL     OW 2281   1.083   0.619   0.030 -0.2892  0.4458 -0.7564
  761SOL    HW1 2282   1.045   0.541   3.084  0.5714  2.1903  3.2719
  761SOL    HW2 2283   1.067   0.706   3.079  1.3985  2.5783 -0.1628
  762SOL     OW 2284   1.055   1.871   1.544 -0.5645 -0.4358 -0.3955
  762SOL    HW1 2285   1.092   1.778   1.560 -0.3043 -0.5085 -0.5281
  762SOL    HW2 2286   0.965   1.892   1.597 -4.1775 -0.3135 -0.9458
  763SOL     OW 2287   1.084   0.820   1.438  0.1385  0.5248 -0.0470
  763SOL    HW1 2288   1.137   0.736   1.408 -2.2014 -2.7709  0.4556
  763SOL    HW2 2289   1.041   0.863   1.355 -1.0088 -0.5500  0.5267
  764SOL     OW 2290   0.323   2.757   2.882 -0.2619 -0.3155 -0.3801
  764SOL    HW1 2291   0.320   2.861   2.886  1.4314  0.6590 -0.9375
  764SOL    HW2 2292   0.231   2.724   2.896 -0.6827  2.4752 -0.9682
  765SOL     OW 2293   0.561   2.864   1.617  0.3288 -0.1153  0.3982
  765SOL    HW1 2294   0.582   2.863   1.714 -1.4449 -1.8775 -0.6190
  765SOL    HW2 2295   0.518   2.953   1.594  0.7306  1.4234  0.8853
  766SOL     OW 2296   2.541   1.793   2.175 -0.3806 -0.5024 -0.6783
  766SOL    HW1 2297   2.457   1.847   2.160  2.0173  3.0019  0.6591
  766SOL    HW2 2298   2.621   1.831   2.122  2.6858  0.3012 -2.9516
  767SOL     OW 2299   1.444   1.327   2.287  0.2566  0.2611  0.1749
  767SOL    HW1 2300   1.462   1.404   2.355 -1.2565 -0.5997 -0.5183
  767SOL    HW2 2301   1.357   1.349   2.240  2.8969  0.0062  0.5371
  768SOL     OW 2302   1.723   1.760   0.351  0.2788  0.5370  0.0835
  768SOL    HW1 2303   1.734   1.762   0.452  0.0884 -2.0889  1.2128
  768SOL    HW2 2304   1.793   1.814   0.301 -1.7577  0.5820 -3.0523
  769SOL     OW 2305   0.387   1.428   0.729  0.1355  0.0037 -0.9759
  769SOL    HW1 2306   0.324   1.479   0.665 -3.4415 -0.2687  1.5026
  769SOL    HW2 2307   0.460   1.493   0.756 -2.1838 -3.9708  2.3802
  770SOL     OW 2308   1.448   1.048   2.306 -0.1122 -0.6953 -0.2242
  770SOL    HW1 2309   1.538   0.993   2.311  0.0855 -3.2833  2.3771
  770SOL    HW2 2310   1.462   1.150   2.284  1.8926  2.9126  1.0466
  771SOL     OW 2311   2.696   0.017   2.401  0.7242  0.3442  0.3207
  771SOL    HW1 2312   2.617   0.078   2.365 -1.5025  0.4551  0.5367
  771SOL    HW2 2313   2.656   3.028   2.440  1.2865 -1.4105 -0.6395
  772SOL     OW 2314   2.289   1.991   2.104 -0.1715  0.2011 -0.0075
  772SOL    HW1 2315   2.281   1.931   2.019  1.6696 -3.0124 -0.2411
  772SOL    HW2 2316   2.361   2.061   2.096  4.7104 -0.0064 -1.2363
  773SOL     OW 2317   0.786   1.524   1.653  0.1407  0.6288 -0.4991
  773SOL    HW1 2318   0.821   1.433   1.684  2.1151 -1.0251 -1.0518
  773SOL    HW2 2319   0.745   1.522   1.559  0.8094 -0.7981  2.1435
  774SOL     OW 2320   1.408   0.953   2.955 -0.0130 -0.4127  0.4863
  774SOL    HW1 2321   1.468   0.992   2.885 -1.4809  0.3146  3.1070
  774SOL    HW2 2322   1.367   1.029   3.006  0.5169  0.4622 -1.5862
  775SOL     OW 2323   1.744   2.368   2.954 -0.3479 -0.1099  0.2338
  775SOL    HW1 2324   1.715   2.416   3.035  0.2722 -1.5632 -0.3646
  775SOL    HW2 2325   1.789   2.279   2.968 -0.5132 -0.8194 -0.9962
  776SOL     OW 2326   0.062   1.002   1.562 -0.0449 -0.5205  0.1212
  776SOL    HW1 2327   3.080   0.952   1.538  1.0281 -1.2047 -3.3379
  776SOL    HW2 2328   0.037   1.093   1.610 -1.1342 -1.4204 -3.6752
  777SOL     OW 2329   2.414   2.264   2.069  0.3954  0.0157 -0.0174
  777SOL    HW1 2330   2.495   2.268   2.133  0.5171  2.0250  4.8637
  777SOL    HW2 2331   2.441   2.306   1.979  0.0493 -2.6874 -3.8504
  778SOL     OW 2332   1.821   1.261   1.981  0.4201  0.3195  0.0717
  778SOL    HW1 2333   1.759   1.337   1.955  1.1008  2.1333  0.9884
  778SOL    HW2 2334   1.917   1.287   1.952  1.8998  0.1804 -2.1658
  779SOL     OW 2335   2.781   1.079   0.184  0.5457 -0.4187 -0.4377
  779SOL    HW1 2336   2.792   0.977   0.192  1.7124 -1.7556 -1.8519
  779SOL    HW2 2337   2.706   1.109   0.251 -4.6165 -0.5959  0.6380
  780SOL     OW 2338   2.128   2.966   2.716  0.8318  0.2549 -0.1599
  780SOL    HW1 2339   2.060   2.999   2.644 -0.6157 -1.0580 -1.9442
  780SOL    HW2 2340   2.190   3.041   2.750  0.7053  2.9825  0.7585
  781SOL     OW 2341   2.962   1.717   1.315  0.2035  0.0383 -0.3678
  781SOL    HW1 2342   2.952   1.726   1.214 -2.4404  1.6308  0.9359
  781SOL    HW2 2343   2.937   1.627   1.354 -0.0082 -1.1036  2.4682
  782SOL     OW 2344   2.691   2.085   2.961  0.0820  1.0845 -0.1666
  782SOL    HW1 2345   2.673   2.145   3.044 -1.1641  0.0870 -0.5124
  782SOL    HW2 2346   2.610   2.078   2.900  2.0951 -0.5404  4.1809
  783SOL     OW 2347   0.701   1.588   0.795 -0.3468  0.8298  0.6579
  783SOL    HW1 2348   0.705   1.496   0.838 -0.3716  1.7825 -1.6591
  783SOL    HW2 2349   0.792   1.634   0.802 -1.6605 -0.4451 -0.2084
  784SOL     OW 2350   2.541   1.116   0.351  0.4307 -0.5897  0.4247
  784SOL    HW1 2351   2.509   1.176   0.273  0.0217 -1.3484  0.8254
  784SOL    HW2 2352   2.529   1.163   0.441  1.0981  2.1654 -2.9740
  785SOL     OW 2353   2.052   2.613   0.398 -0.0797  0.4237 -0.6864
  785SOL    HW1 2354   2.037   2.625   0.497 -2.9135 -2.8017 -0.7021
  785SOL    HW2 2355   2.036   2.514   0.381  1.7573 -0.0552 -1.9811
  786SOL     OW 2356   0.609   2.197   2.825  0.0918 -0.2647 -0.7658
  786SOL    HW1 2357   0.695   2.198   2.769 -2.4545 -0.6436  0.3315
  786SOL    HW2 2358   0.546   2.140   2.768 -0.4241  0.3521  0.0994
  787SOL     OW 2359   1.461   0.638   1.128  0.0474 -0.2254 -0.2387
  787SOL    HW1 2360   1.378   0.582   1.154  1.3389  1.0541 -1.6879
  787SOL    HW2 2361   1.489   0.631   1.030  0.2707  1.8182 -0.9061
  788SOL     OW 2362   0.599   0.910   0.132  0.3017  0.3216  0.1336
  788SOL    HW1 2363   0.596   0.808   0.144  0.3744  1.1723  0.7745
  788SOL    HW2 2364   0.523   0.955   0.181  0.6039 -0.9334  0.3515
  789SOL     OW 2365   2.801   1.925   1.392 -0.1221 -0.1234  0.2859
  789SOL    HW1 2366   2.851   1.839   1.369 -0.5684  1.1904 -2.0372
  789SOL    HW2 2367   2.763   1.957   1.303  1.1251 -1.0819  1.4825
  790SOL     OW 2368   1.297   0.407   2.001  0.5320  0.2585  0.2026
  790SOL    HW1 2369   1.335   0.409   2.097 -2.5357 -0.3244 -1.5164
  790SOL    HW2 2370   1.206   0.364   1.990  1.6357 -1.7747 -2.3061
  791SOL     OW 2371   1.207   0.589   0.294  0.6348  0.0977 -0.3965
  791SOL    HW1 2372   1.182   0.578   0.192 -0.5695 -1.1616 -0.3156
  791SOL    HW2 2373   1.269   0.675   0.311 -0.8657  1.8475 -0.3566
  792SOL     OW 2374   1.402   3.048   1.598 -0.3390 -0.8653  0.0236
  792SOL    HW1 2375   1.405   2.952   1.560 -0.3783 -0.7484 -0.9573
  792SOL    HW2 2376   1.439   0.014   1.527  1.1776  3.5529 -0.8471
  793SOL     OW 2377   0.812   3.005   0.930 -0.2016 -0.8067  0.2409
  793SOL    HW1 2378   0.895   3.067   0.917  0.0865  1.4130 -1.3276
  793SOL    HW2 2379   0.835   2.941   1.007  0.1021  0.4041  1.6509
  794SOL     OW 2380   0.401   1.193   2.136  0.8350  0.2893  0.2884
  794SOL    HW1 2381   0.478   1.145   2.098 -0.4446  2.0163  1.9312
  794SOL    HW2 2382   0.409   1.236   2.226 -0.6474 -1.5619 -2.4298
  795SOL     OW 2383   3.051   1.569   2.421  0.0989 -0.3193 -0.2401
  795SOL    HW1 2384   2.982   1.574   2.348 -0.7992 -0.7837 -1.2678
  795SOL    HW2 2385   0.028   1.512   2.386  0.2888 -0.8541 -0.0204
  796SOL     OW 2386   2.079   1.302   1.929 -0.3139  0.8090 -0.0224
  796SOL    HW1 2387   2.159   1.261   1.879 -4.2379  3.3386  1.8032
  796SOL    HW2 2388   2.114   1.364   2.003  3.3246 -0.8663  0.5936
  797SOL     OW 2389   0.097   2.994   2.640 -0.3289  0.4659  0.3126
  797SOL    HW1 2390   0.087   3.065   2.566  0.7881  1.2934 -1.0588
  797SOL    HW2 2391   0.101   2.898   2.594 -1.4879 -1.2422 -2.1908
  798SOL     OW 2392   0.350   2.109   2.134 -0.2113 -0.2402  0.1778
  798SOL    HW1 2393   0.326   2.115   2.038  0.7930 -3.0421  1.2510
  798SOL    HW2 2394   0.419   2.183   2.146  1.3673 -0.0288 -2.2211
  799SOL     OW 2395   2.676   2.248   0.086 -0.1647  0.2957 -0.4243
  799SOL    HW1 2396   2.685   2.213   0.185  2.8516  1.8949 -1.1014
  799SOL    HW2 2397   2.716   2.340   0.080 -3.1017 -1.4103  0.0227
  800SOL     OW 2398   1.181   1.624   0.961  0.1685  0.1896  0.1145
  800SOL    HW1 2399   1.179   1.715   1.007  0.1500  0.0672 -1.4801
  800SOL    HW2 2400   1.261   1.617   0.903  1.1142  1.8128  0.4929
  801SOL     OW 2401   2.517   0.687   0.735  0.4516 -0.2666  0.1196
  801SOL    HW1 2402   2.450   0.734   0.796  0.0507 -1.1091 -0.4514
  801SOL    HW2 2403   2.490   0.705   0.637  0.4676  1.1753 -1.2453
  802SOL     OW 2404   2.565   1.446   0.514  0.2540 -0.1452 -0.4825
  802SOL    HW1 2405   2.656   1.402   0.499  1.1408 -1.7870  0.0127
  802SOL    HW2 2406   2.583   1.541   0.552  1.7732  0.8174  1.2546
  803SOL     OW 2407   1.302   1.720   2.875  0.2902  0.2924 -0.5975
  803SOL    HW1 2408   1.352   1.759   2.797  0.6739  1.5133  1.1760
  803SOL    HW2 2409   1.291   1.790   2.950  0.4006  0.3167 -1.3982
  804SOL     OW 2410   1.891   1.946   0.216  0.2060 -0.1661 -0.3412
  804SOL    HW1 2411   1.813   1.981   0.164 -2.3419 -1.5050 -0.0756
  804SOL    HW2 2412   1.966   1.910   0.159 -1.5928 -0.6634 -2.1702
  805SOL     OW 2413   2.685   1.578   2.767 -0.3395 -0.3493  0.1779
  805SOL    HW1 2414   2.662   1.680   2.753  1.8172  1.1762 -0.2674
  805SOL    HW2 2415   2.783   1.563   2.731 -1.8076 -0.2970 -1.4825
  806SOL     OW 2416   0.518   0.453   0.505  0.2538  0.2036  0.1245
  806SOL    HW1 2417   0.550   0.370   0.451 -1.3535 -1.3676 -1.7013
  806SOL    HW2 2418   0.572   0.536   0.481  0.0854 -1.5708  1.1059
  807SOL     OW 2419   2.257   1.368   2.735  0.4796 -0.3687  0.1554
  807SOL    HW1 2420   2.221   1.423   2.812  2.0090  0.3444  0.5467
  807SOL    HW2 2421   2.218   1.274   2.742 -1.5563  0.8079  1.6444
  808SOL     OW 2422   0.181   1.352   0.487  0.4281  0.0606 -0.5663
  808SOL    HW1 2423   0.114   1.282   0.521 -0.7107  0.0579 -1.2885
  808SOL    HW2 2424   0.176   1.437   0.548  1.0857  0.9970  1.7990
  809SOL     OW 2425   2.460   0.813   2.877 -0.3514  0.0633 -0.1947
  809SOL    HW1 2426   2.522   0.836   2.957  1.8192  1.7204 -0.4442
  809SOL    HW2 2427   2.391   0.887   2.861  1.3335  2.2592 -0.2217
  810SOL     OW 2428   1.106   1.114   0.459 -0.3918  0.7594 -0.0866
  810SOL    HW1 2429   1.193   1.090   0.410  2.1411 -0.8502 -3.0012
  810SOL    HW2 2430   1.047   1.175   0.397  0.8888 -0.6040 -0.2294
  811SOL     OW 2431   1.589   2.391   0.815 -0.0571  0.1779 -0.2917
  811SOL    HW1 2432   1.509   2.450   0.798 -1.7861 -2.2380 -1.3562
  811SOL    HW2 2433   1.618   2.340   0.736  0.3989  1.0774  1.4231
  812SOL     OW 2434   0.247   2.597   1.504  0.1998  0.1037  0.3934
  812SOL    HW1 2435   0.221   2.512   1.452 -2.5871  0.3545 -1.4306
  812SOL    HW2 2436   0.348   2.592   1.529  3.5757  3.7311  1.1947
  813SOL     OW 2437   1.053   3.066   1.879 -0.0920 -0.2995  0.1773
  813SOL    HW1 2438   0.993   2.978   1.854  0.6095 -5.3927 -0.1796
  813SOL    HW2 2439   0.998   0.016   1.951  0.8076  0.9067 -1.8367
  814SOL     OW 2440   1.357   0.013   2.507 -0.1512 -0.6298 -0.3299
  814SOL    HW1 2441   1.421   3.033   2.516  0.9333 -0.0663 -1.0276
  814SOL    HW2 2442   1.353   0.039   2.409 -1.3364  0.0194  0.6691
  815SOL     OW 2443   0.476   0.294   1.970  0.2104 -0.5942  0.1663
  815SOL    HW1 2444   0.455   0.205   2.009  1.6718  1.2146 -2.0451
  815SOL    HW2 2445   0.392   0.354   1.980 -1.3642 -0.4200 -0.7452
  816SOL     OW 2446   2.484   0.292   0.056  0.1252 -0.3058 -0.1135
  816SOL    HW1 2447   2.524   0.316   0.147  0.1282  1.8713 -0.6918
  816SOL    HW2 2448   2.468   0.371   0.002 -2.3409 -3.3586  2.0025
  817SOL     OW 2449   1.861   0.391   2.703  0.4105  0.1076  0.3403
  817SOL    HW1 2450   1.855   0.485   2.661 -1.4269  2.4750  3.2669
  817SOL    HW2 2451   1.766   0.345   2.703 -1.2551  0.1278 -1.0307
  818SOL     OW 2452   2.043   0.417   0.257 -0.0051  0.1066 -0.2162
  818SOL    HW1 2453   2.068   0.324   0.283 -0.0253  0.0679  0.6420
  818SOL    HW2 2454   2.027   0.475   0.345  0.4535  0.4294 -2.8577
  819SOL     OW 2455   2.432   1.540   0.025  0.6149 -0.6109 -0.5598
  819SOL    HW1 2456   2.457   1.644   0.028  0.2709  0.9384  0.8146
  819SOL    HW2 2457   2.504   1.495   3.066  0.9317  0.1532  0.8093
  820SOL     OW 2458   2.985   2.042   0.150 -0.1551  0.4684  0.0382
  820SOL    HW1 2459   3.030   1.959   0.097  1.9198 -3.4036 -0.6330
  820SOL    HW2 2460   2.904   2.004   0.200  0.1782 -1.4409 -1.7171
  821SOL     OW 2461   2.939   2.702   1.262 -0.2888 -0.3093  0.1499
  821SOL    HW1 2462   2.846   2.739   1.260 -1.3540  2.3192 -1.5501
  821SOL    HW2 2463   2.994   2.772   1.224 -1.3130 -0.0752 -1.7930
  822SOL     OW 2464   2.689   2.429   2.497  0.2319  0.1673  0.1249
  822SOL    HW1 2465   2.730   2.523   2.499  0.1556 -2.5857  0.8746
  822SOL    HW2 2466   2.588   2.421   2.473  1.3642 -1.9824  1.9595
  823SOL     OW 2467   1.626   0.372   2.477  0.0959 -0.5060 -0.5120
  823SOL    HW1 2468   1.534   0.389   2.430  1.0411  0.3288 -1.3661
  823SOL    HW2 2469   1.627   0.344   2.578 -0.3332 -0.9475  2.5416
  824SOL     OW 2470   2.478   1.592   1.382  0.0754 -0.4632  0.0997
  824SOL    HW1 2471   2.445   1.664   1.450  0.6205  1.6642 -1.3339
  824SOL    HW2 2472   2.543   1.640   1.317  2.4588  1.0238  0.0700
  825SOL     OW 2473   2.857   2.031   2.316  0.5080  0.1940  0.0163
  825SOL    HW1 2474   2.769   2.076   2.325 -1.1871  2.1891  0.6546
  825SOL    HW2 2475   2.927   2.102   2.297  0.6590  2.2660 -0.9067
  826SOL     OW 2476   2.561   0.967   2.447 -0.5815 -0.3793  0.0763
  826SOL    HW1 2477   2.601   1.024   2.525 -0.2906  2.2173 -0.4771
  826SOL    HW2 2478   2.620   0.890   2.414  0.1639  0.4368 -0.8626
  827SOL     OW 2479   2.534   2.628   1.407 -0.0637  0.0695  0.3917
  827SOL    HW1 2480   2.515   2.532   1.433  1.8514 -2.0901 -1.5042
  827SOL    HW2 2481   2.490   2.701   1.470 -0.2559  1.7141 -1.0376
  828SOL     OW 2482   2.984   2.754   1.520  0.4494  0.5551  0.6138
  828SOL    HW1 2483   3.001   2.854   1.519  1.0509 -1.1105 -1.5641
  828SOL    HW2 2484   2.962   2.722   1.428 -0.1638  0.0122  2.5039
  829SOL     OW 2485   1.562   2.163   2.239 -0.6926  0.1482  0.0884
  829SOL    HW1 2486   1.574   2.262   2.218 -0.3292  0.9811  1.1412
  829SOL    HW2 2487   1.501   2.158   2.320  0.3450  0.8187 -2.0708
  830SOL     OW 2488   1.541   0.543   0.699  0.2426 -0.3555 -0.5812
  830SOL    HW1 2489   1.593   0.563   0.784 -4.1812 -1.6942 -0.3207
  830SOL    HW2 2490   1.601   0.555   0.619  3.0382 -2.3048  1.1107
  831SOL     OW 2491   2.855   1.502   0.722  0.1068 -0.5990  0.1528
  831SOL    HW1 2492   2.879   1.425   0.785 -0.9816 -1.8457  0.6873
  831SOL    HW2 2493   2.846   1.464   0.624 -0.4146 -2.6967 -5.0917
  832SOL     OW 2494   1.622   2.535   1.917 -0.7171  1.1136 -0.0906
  832SOL    HW1 2495   1.556   2.595   1.868 -1.0455 -0.3366  2.2875
  832SOL    HW2 2496   1.701   2.512   1.857  0.5407 -0.4904 -1.0249
  833SOL     OW 2497   2.961   2.834   2.449  0.0211  0.0523  0.1130
  833SOL    HW1 2498   2.965   2.924   2.404 -4.2486  0.8692 -2.3602
  833SOL    HW2 2499   3.049   2.801   2.477 -4.0217 -0.9091 -1.1362
  834SOL     OW 2500   0.999   0.984   1.221  0.6222  0.2260 -0.1816
  834SOL    HW1 2501   1.047   1.071   1.246 -0.0156  2.3208 -1.7829
  834SOL    HW2 2502   0.927   1.006   1.150 -0.2858 -1.0361  0.2568
  835SOL     OW 2503   3.024   0.611   2.648  0.3695  0.5733  0.6398
  835SOL    HW1 2504   2.937   0.597   2.696 -0.9318  0.4078 -1.2527
  835SOL    HW2 2505   0.000   0.610   2.714 -1.3621  1.1129  0.5363
  836SOL     OW 2506   1.109   2.289   0.984  0.0536 -0.0917  0.8604
  836SOL    HW1 2507   1.008   2.323   0.992 -0.9521  1.4288  3.4585
  836SOL    HW2 2508   1.175   2.338   1.049  0.1734 -2.0854 -0.0880
  837SOL     OW 2509   2.080   0.966   0.937 -0.7217  0.4968  0.0565
  837SOL    HW1 2510   2.079   1.042   0.870 -0.9825 -1.6429  0.6300
  837SOL    HW2 2511   2.170   0.922   0.947  1.7630 -0.9426 -1.0367
  838SOL     OW 2512   1.458   1.524   2.481 -0.0046 -0.0690 -0.0056
  838SOL    HW1 2513   1.463   1.496   2.579 -0.4134 -1.5855 -0.0708
  838SOL    HW2 2514   1.358   1.541   2.453 -2.1612 -1.8707  0.7237
  839SOL     OW 2515   0.544   2.399   3.009  0.1160 -0.0320  0.3658
  839SOL    HW1 2516   0.551   2.347   2.920 -3.8153  0.4819 -1.8493
  839SOL    HW2 2517   0.612   2.360   3.076 -1.6992 -0.9243 -1.0280
  840SOL     OW 2518   0.566   2.671   2.997 -0.1306  0.1244 -0.1538
  840SOL    HW1 2519   0.480   2.705   2.953  0.7218  0.7451 -1.0151
  840SOL    HW2 2520   0.556   2.569   3.019  0.4538 -2.6406  0.6375
  841SOL     OW 2521   1.645   2.086   0.150  0.5001 -0.0747 -0.3145
  841SOL    HW1 2522   1.635   2.074   0.049  2.2829 -0.0968  1.2575
  841SOL    HW2 2523   1.622   2.182   0.179 -1.5888  1.1606 -1.9912
  842SOL     OW 2524   1.284   1.075   2.566 -0.0330 -0.2306  0.1251
  842SOL    HW1 2525   1.316   1.142   2.636 -2.7172 -1.6243 -1.8921
  842SOL    HW2 2526   1.362   1.049   2.505  1.7330  2.6136 -2.9668
  843SOL     OW 2527   1.592   2.740   0.649 -0.5560 -0.4730 -0.2867
  843SOL    HW1 2528   1.643   2.671   0.596  1.8605 -0.2506  2.0573
  843SOL    HW2 2529   1.580   2.829   0.593  0.0439  2.4242 -1.7017
  844SOL     OW 2530   2.344   2.836   2.635  0.1844 -0.3515  0.0429
  844SOL    HW1 2531   2.273   2.903   2.656  1.8223 -1.0620 -0.8135
  844SOL    HW2 2532   2.397   2.818   2.723 -3.0702  3.4202  0.8732
  845SOL     OW 2533   2.703   2.498   1.169 -0.2399  0.2291 -0.0196
  845SOL    HW1 2534   2.722   2.563   1.247 -1.9133 -1.7328  1.0403
  845SOL    HW2 2535   2.646   2.541   1.094 -1.7151 -1.1826  0.5200
  846SOL     OW 2536   0.178   2.110   2.341  0.4485 -0.2185 -0.2680
  846SOL    HW1 2537   0.239   2.101   2.258 -0.3141  2.2339  1.5324
  846SOL    HW2 2538   0.204   2.038   2.413 -0.7454 -3.1215  0.1266
  847SOL     OW 2539   1.629   0.456   1.666  0.5365  0.5461  0.1395
  847SOL    HW1 2540   1.642   0.439   1.568 -1.9241  0.4560  1.5299
  847SOL    HW2 2541   1.656   0.365   1.715 -1.4748  0.4773 -2.1301
  848SOL     OW 2542   0.023   0.506   0.090 -0.6863  0.0279 -0.3457
  848SOL    HW1 2543   0.111   0.495   0.036 -0.9643  2.5175 -0.6804
  848SOL    HW2 2544   3.057   0.547   0.025 -0.3671 -2.1917  4.0822
  849SOL     OW 2545   0.848   0.460   3.023  0.1627 -0.0525  0.6226
  849SOL    HW1 2546   0.811   0.549   2.980 -0.7029  2.8683 -0.4853
  849SOL    HW2 2547   0.784   0.435   3.095 -0.5347  2.1485 -0.2102
  850SOL     OW 2548   0.410   2.720   1.166  0.0348  0.0672  0.0659
  850SOL    HW1 2549   0.316   2.681   1.179 -0.3462 -0.0307 -1.9175
  850SOL    HW2 2550   0.423   2.797   1.100 -0.8779 -1.4020  0.9451
  851SOL     OW 2551   2.061   0.271   2.461  0.1781  0.5972 -0.0496
  851SOL    HW1 2552   2.058   0.340   2.382 -1.5926  0.3475 -1.4945
  851SOL    HW2 2553   2.054   0.316   2.550  2.1457 -1.2364 -0.3740
  852SOL     OW 2554   1.719   1.528   2.109 -0.4410  0.0948 -0.4051
  852SOL    HW1 2555   1.710   1.524   2.213 -0.4819  0.6129  0.3670
  852SOL    HW2 2556   1.647   1.469   2.063 -0.5325  0.4542 -0.7899
  853SOL     OW 2557   2.995   2.766   0.534  0.6642 -0.2205 -0.5026
  853SOL    HW1 2558   3.011   2.680   0.587 -0.1790  0.9828  1.9269
  853SOL    HW2 2559   2.901   2.798   0.525  1.6387  1.5930  1.1832
  854SOL     OW 2560   2.302   0.371   0.927 -0.3404  0.2417 -0.7299
  854SOL    HW1 2561   2.262   0.291   0.878 -3.4577  0.3937  0.2872
  854SOL    HW2 2562   2.395   0.398   0.889 -2.5386  0.5827  1.6558
  855SOL     OW 2563   1.420   2.078   0.741 -0.1525 -0.1628 -0.1680
  855SOL    HW1 2564   1.385   2.011   0.676  0.0259  0.4914  1.1262
  855SOL    HW2 2565   1.340   2.136   0.768 -1.3818  1.6566  0.4809
  856SOL     OW 2566   2.610   0.335   0.304  0.0470  0.3607  0.4953
  856SOL    HW1 2567   2.538   0.346   0.375 -2.3483  0.5715 -0.8515
  856SOL    HW2 2568   2.682   0.266   0.324 -0.1732  1.3124 -0.6422
  857SOL     OW 2569   1.757   2.855   1.840  0.0326 -0.6213 -0.0820
  857SOL    HW1 2570   1.707   2.830   1.922  0.5514 -0.4710 -2.4005
  857SOL    HW2 2571   1.818   2.782   1.801  0.7497 -1.1652  0.0040
  858SOL     OW 2572   2.470   2.346   1.456  0.4654 -0.1622 -0.1957
  858SOL    HW1 2573   2.513   2.291   1.379  2.5206 -0.0207 -0.0404
  858SOL    HW2 2574   2.370   2.326   1.461  0.7203  0.3451 -0.2370
  859SOL     OW 2575   1.157   2.479   0.661  0.3570  0.3179  0.4871
  859SOL    HW1 2576   1.071   2.495   0.711  1.6611 -2.5141  4.4422
  859SOL    HW2 2577   1.233   2.525   0.714  2.9048  0.1965 -1.1839
  860SOL     OW 2578   2.050   2.300   0.007 -0.0947 -0.1478  0.0780
  860SOL    HW1 2579   2.107   2.390   0.013  3.0858  3.9198  0.7982
  860SOL    HW2 2580   2.053   2.242   0.091  0.0671  1.8551 -2.6262
  861SOL     OW 2581   2.172   2.609   1.265 -0.8097 -0.1685 -0.1963
  861SOL    HW1 2582   2.261   2.634   1.220  3.8317 -1.3164 -0.9178
  861SOL    HW2 2583   2.176   2.623   1.366  0.5919 -0.6365  2.7282
  862SOL     OW 2584   1.881   3.073   2.554  0.3085  0.3771 -0.1912
  862SOL    HW1 2585   1.853   0.054   2.495 -0.9734  1.7286 -1.1963
  862SOL    HW2 2586   1.870   3.095   2.653 -1.1193  1.4848 -0.2498
  863SOL     OW 2587   0.548   0.130   0.276  0.1557 -0.0961 -0.0724
  863SOL    HW1 2588   0.617   0.096   0.339 -0.5310  2.2367 -0.4856
  863SOL    HW2 2589   0.470   0.073   0.257  2.5870  0.3124  1.6108
  864SOL     OW 2590   2.833   2.573   1.899  0.4164  0.4657 -0.2914
  864SOL    HW1 2591   2.902   2.530   1.840 -3.2881  0.9934  0.1719
  864SOL    HW2 2592   2.819   2.670   1.873 -0.7098  0.6100  0.6141
  865SOL     OW 2593   2.958   2.146   2.959 -0.1873 -0.0771 -0.2387
  865SOL    HW1 2594   3.008   2.117   3.043  0.4603 -2.1646 -2.3230
  865SOL    HW2 2595   2.864   2.111   2.952  0.5292 -0.0975 -1.0188
  866SOL     OW 2596   2.507   0.445   2.935 -0.4481  0.0764 -0.4213
  866SOL    HW1 2597   2.578   0.511   2.905  1.4597  2.9302  0.7185
  866SOL    HW2 2598   2.420   0.444   2.882  0.0019 -2.3463  0.9785
  867SOL     OW 2599   2.921   0.164   2.491  0.3120 -0.0348  0.0524
  867SOL    HW1 2600   2.846   0.117   2.436 -1.4247  0.3870 -1.6959
  867SOL    HW2 2601   2.880   0.173   2.588 -2.1130  2.2761  0.9633
  868SOL     OW 2602   0.949   2.633   0.720 -0.3659  0.3704 -0.0956
  868SOL    HW1 2603   0.913   2.663   0.811  0.6720  0.3284  0.3509
  868SOL    HW2 2604   0.988   2.715   0.671  1.2317  0.0669 -0.3737
  869SOL     OW 2605   1.338   1.276   1.198  0.1330  0.4772  0.1765
  869SOL    HW1 2606   1.322   1.232   1.106  0.3663 -2.8027 -1.1562
  869SOL    HW2 2607   1.425   1.236   1.235  0.9263  0.8360  2.5093
  870SOL     OW 2608   1.686   2.025   1.440 -0.2160 -0.1505  0.0595
  870SOL    HW1 2609   1.687   2.084   1.526  0.0913  0.3175  0.1264
  870SOL    HW2 2610   1.668   1.929   1.462 -2.6204  1.9383 -0.8328
  871SOL     OW 2611   1.124   1.520   1.325  0.1737  0.5291 -0.2617
  871SOL    HW1 2612   1.205   1.566   1.284 -0.4456 -0.0121  0.9649
  871SOL    HW2 2613   1.090   1.455   1.255 -2.0625 -1.1363 -0.7794
  872SOL     OW 2614   1.019   0.721   1.148 -0.4378 -0.3037  0.4792
  872SOL    HW1 2615   1.003   0.814   1.187  1.5585 -1.5220 -1.5634
  872SOL    HW2 2616   1.022   0.723   1.047  0.6698 -1.4830  1.0752
  873SOL     OW 2617   1.631   0.842   2.594 -0.1940  0.0726 -0.5969
  873SOL    HW1 2618   1.615   0.905   2.670 -3.9559  3.0728  0.1983
  873SOL    HW2 2619   1.664   0.889   2.508 -0.1324 -1.3051 -1.0610
  874SOL     OW 2620   0.417   1.211   1.156 -0.0430  0.6886 -0.1244
  874SOL    HW1 2621   0.444   1.239   1.252 -0.7462  2.7831  2.2321
  874SOL    HW2 2622   0.379   1.288   1.099  1.4581  2.8774 -0.6508
  875SOL     OW 2623   2.702   2.840   3.087  0.3336  0.6819 -0.4499
  875SOL    HW1 2624   2.662   2.923   0.031 -3.0054  0.9328 -0.4438
  875SOL    HW2 2625   2.767   2.864   3.012  0.5649 -0.7605  2.2276
  876SOL     OW 2626   1.020   0.611   2.684 -0.0546  0.4510 -1.1004
  876SOL    HW1 2627   1.035   0.523   2.737 -0.5572  0.8665 -0.9395
  876SOL    HW2 2628   1.099   0.674   2.698  2.2085  1.0380  1.3851
  877SOL     OW 2629   3.046   3.028   1.531 -0.1205 -0.4607  0.1429
  877SOL    HW1 2630   3.087   0.005   1.581  0.3315  1.3320 -1.2457
  877SOL    HW2 2631   3.002   3.060   1.448  2.8043 -0.7689 -1.1887
  878SOL     OW 2632   1.973   2.383   2.675  0.0656 -0.5031  0.1622
  878SOL    HW1 2633   1.874   2.414   2.679 -1.3430  2.6195  1.3108
  878SOL    HW2 2634   2.024   2.471   2.652  2.0295  2.6184  1.2300
  879SOL     OW 2635   2.307   1.840   1.885 -0.3817 -0.1655  0.1325
  879SOL    HW1 2636   2.212   1.860   1.852  0.2756 -0.2759  0.5508
  879SOL    HW2 2637   2.312   1.743   1.911  0.3598 -0.6197 -4.6573
  880SOL     OW 2638   0.765   0.897   1.082  0.0235 -0.2195  0.3596
  880SOL    HW1 2639   0.729   0.877   1.177  0.2099  0.0161 -1.8378
  880SOL    HW2 2640   0.712   0.844   1.013  1.4750 -0.3033  1.0014
  881SOL     OW 2641   1.150   1.798   0.204 -0.1169 -0.1519 -0.0727
  881SOL    HW1 2642   1.176   1.856   0.126  0.2125  0.7905  2.9880
  881SOL    HW2 2643   1.217   1.725   0.231 -1.6650 -1.6697  0.8113
  882SOL     OW 2644   1.693   0.258   1.334 -0.3770 -0.3789  0.2523
  882SOL    HW1 2645   1.692   0.358   1.326 -2.2674 -3.4581  1.0058
  882SOL    HW2 2646   1.762   0.219   1.268  1.1288  1.6011 -0.6940
  883SOL     OW 2647   1.741   0.778   2.180  0.1439  0.3928  0.7841
  883SOL    HW1 2648   1.641   0.782   2.163  1.8292 -0.9636  2.6548
  883SOL    HW2 2649   1.791   0.837   2.115 -0.6197 -1.2122  2.5812
  884SOL     OW 2650   2.741   0.559   0.167  0.1476 -0.6580  0.0731
  884SOL    HW1 2651   2.756   0.530   0.071  0.5338  0.5671  2.2463
  884SOL    HW2 2652   2.686   0.492   0.224  0.5648 -0.7779 -1.2887
  885SOL     OW 2653   1.170   2.206   0.745 -0.1284  0.1776  0.0789
  885SOL    HW1 2654   1.180   2.291   0.690  0.7160  1.4782 -1.2976
  885SOL    HW2 2655   1.148   2.228   0.842  0.1198 -0.3627 -1.3133
  886SOL     OW 2656   1.355   1.248   2.751  0.4984 -0.1727 -0.2608
  886SOL    HW1 2657   1.417   1.328   2.745 -1.0631  3.0851  1.6797
  886SOL    HW2 2658   1.263   1.282   2.758  0.0543 -2.3625 -2.1574
  887SOL     OW 2659   1.678   0.270   1.838  0.2088  0.2140  0.5740
  887SOL    HW1 2660   1.700   0.169   1.819 -1.7893 -2.0791 -1.6606
  887SOL    HW2 2661   1.648   0.290   1.936  1.8561 -0.3349  1.1739
  888SOL     OW 2662   2.890   1.571   1.805  0.3290 -0.0967  0.0788
  888SOL    HW1 2663   2.857   1.670   1.783  1.8530  0.8584  0.5380
  888SOL    HW2 2664   2.873   1.508   1.727 -0.2058  0.5794 -1.2510
  889SOL     OW 2665   2.868   2.417   0.819  0.4331  0.2344 -0.7638
  889SOL    HW1 2666   2.922   2.449   0.739  2.0157  1.5401  0.1561
  889SOL    HW2 2667   2.828   2.325   0.796  0.1782 -2.0624  0.7326
  890SOL     OW 2668   0.473   1.865   2.186 -0.1177 -0.1508  0.0643
  890SOL    HW1 2669   0.436   1.798   2.119  0.5675 -2.2958 -0.1756
  890SOL    HW2 2670   0.432   1.958   2.165  3.1537  0.0191 -2.1084
  891SOL     OW 2671   0.454   1.810   0.568 -0.3719 -0.1117 -0.1271
  891SOL    HW1 2672   0.502   1.880   0.514  1.6199 -0.9649  2.7280
  891SOL    HW2 2673   0.461   1.714   0.528 -0.1404  1.3042  1.7333
  892SOL     OW 2674   2.993   2.118   1.435 -0.3718 -0.1123 -0.3546
  892SOL    HW1 2675   2.977   2.165   1.522  1.2643 -0.2541 -1.2184
  892SOL    HW2 2676   2.916   2.052   1.420  1.1692  1.3378  0.3039
  893SOL     OW 2677   0.062   0.107   1.716 -0.1263  0.0917  0.5246
  893SOL    HW1 2678   0.071   0.204   1.681  3.3425  1.9482 -0.4957
  893SOL    HW2 2679   0.156   0.062   1.725  2.9620  0.6721  3.0179
  894SOL     OW 2680   2.874   1.761   0.774  0.1959  0.5596 -0.5078
  894SOL    HW1 2681   2.923   1.802   0.696 -1.3275 -0.6366  2.7755
  894SOL    HW2 2682   2.864   1.658   0.767  1.1905 -2.8524  0.1882
  895SOL     OW 2683   1.508   2.329   1.431  0.4055  0.5403 -0.2309
  895SOL    HW1 2684   1.538   2.278   1.513  0.9278  0.6118 -3.4823
  895SOL    HW2 2685   1.523   2.265   1.349 -1.4366 -1.1594 -0.6576
  896SOL     OW 2686   0.548   0.211   1.354 -0.0181 -0.1223 -0.4735
  896SOL    HW1 2687   0.582   0.289   1.302  0.4069 -0.1533  1.2979
  896SOL    HW2 2688   0.452   0.228   1.363  3.2301  1.1814 -2.2445
  897SOL     OW 2689   1.120   1.197   1.373  0.4194 -0.1844  0.2720
  897SOL    HW1 2690   1.186   1.254   1.315  0.3611 -0.9247 -2.7873
  897SOL    HW2 2691   1.165   1.153   1.452 -1.9423 -1.6895 -0.1093
  898SOL     OW 2692   0.759   0.147   1.643  0.2434 -0.3232 -0.8754
  898SOL    HW1 2693   0.734   0.196   1.731  0.6373 -2.0539 -0.4985
  898SOL    HW2 2694   0.842   0.184   1.595 -1.1707 -0.1927  2.5616
  899SOL     OW 2695   1.487   0.254   0.139  0.3968  0.2266 -0.1025
  899SOL    HW1 2696   1.505   0.328   0.071 -1.6271  0.0666  0.4481
  899SOL    HW2 2697   1.459   0.300   0.229 -0.0026  0.8458 -1.7712
  900SOL     OW 2698   0.704   0.476   2.370  0.2507 -0.4176  0.7694
  900SOL    HW1 2699   0.696   0.403   2.438  0.0232  1.8555  1.4843
  900SOL    HW2 2700   0.671   0.453   2.275 -0.0912  1.6575 -0.7380
  901SOL     OW 2701   0.861   2.115   0.205  0.3131  0.6209 -0.1814
  901SOL    HW1 2702   0.872   2.014   0.225  2.9464 -0.0204  2.8173
  901SOL    HW2 2703   0.884   2.173   0.289  0.7844  2.0089  3.7704
  902SOL     OW 2704   1.755   0.345   0.953 -0.0834  0.1441  0.9832
  902SOL    HW1 2705   1.778   0.301   0.866 -0.0247 -0.2991 -1.6556
  902SOL    HW2 2706   1.806   0.294   1.025  1.9114  1.3419  1.1498
  903SOL     OW 2707   2.970   1.259   2.574  0.2326 -0.2130 -0.7267
  903SOL    HW1 2708   2.993   1.322   2.654 -0.3202  1.6131 -1.7767
  903SOL    HW2 2709   2.955   1.317   2.496  3.5507  1.6728  0.2660
  904SOL     OW 2710   1.538   1.251   0.410  0.0237  0.4291  0.4474
  904SOL    HW1 2711   1.601   1.320   0.377 -3.9463 -1.5380  2.7406
  904SOL    HW2 2712   1.511   1.260   0.507  0.6559 -3.0293 -0.6297
  905SOL     OW 2713   1.964   2.739   1.148  0.1003  0.3890  0.1185
  905SOL    HW1 2714   1.874   2.693   1.177 -0.0025 -0.6601  2.6497
  905SOL    HW2 2715   2.038   2.693   1.196 -2.9526 -1.1441  0.2903
  906SOL     OW 2716   2.156   2.764   0.955  0.0970 -0.6036  0.2083
  906SOL    HW1 2717   2.091   2.753   1.031  1.7006 -0.7329 -0.7119
  906SOL    HW2 2718   2.230   2.838   0.970 -2.3913  0.4295  2.3620
  907SOL     OW 2719   2.000   1.098   0.251 -0.4802  1.1295  0.4715
  907SOL    HW1 2720   2.081   1.078   0.307 -0.2139  0.6090  0.1998
  907SOL    HW2 2721   1.948   1.016   0.219 -0.2860  0.5949 -4.5582
  908SOL     OW 2722   1.682   0.535   1.330 -0.3558 -0.1820  0.2556
  908SOL    HW1 2723   1.620   0.583   1.263 -0.5649 -0.3049  0.5264
  908SOL    HW2 2724   1.758   0.603   1.357 -0.8196  1.2596 -0.4740
  909SOL     OW 2725   2.343   3.048   0.748 -0.3611 -0.4301  0.2734
  909SOL    HW1 2726   2.430   3.053   0.800 -0.9441 -0.5669 -0.1378
  909SOL    HW2 2727   2.270   0.015   0.785 -2.8689  1.7595  1.2159
  910SOL     OW 2728   2.378   0.676   2.205 -0.2330  0.0236 -0.3428
  910SOL    HW1 2729   2.416   0.760   2.158  2.5898  1.4371 -1.4924
  910SOL    HW2 2730   2.441   0.644   2.278 -0.1508 -3.6785  0.7625
  911SOL     OW 2731   2.373   0.040   2.723  0.2753  0.0578  0.5402
  911SOL    HW1 2732   2.330   0.114   2.776  0.7072 -1.0716 -1.0509
  911SOL    HW2 2733   2.470   0.023   2.745 -1.2502 -0.3960 -0.8778
  912SOL     OW 2734   0.672   0.826   1.334 -0.3222 -0.1150 -0.3577
  912SOL    HW1 2735   0.714   0.907   1.375 -2.5596 -4.0128 -2.0852
  912SOL    HW2 2736   0.572   0.844   1.324 -0.4326 -1.0364  1.2064
  913SOL     OW 2737   2.923   2.347   1.192 -0.7477  0.2127  0.3468
  913SOL    HW1 2738   2.842   2.408   1.180 -0.2700 -2.4760  2.4325
  913SOL    HW2 2739   2.926   2.307   1.281 -2.2410  1.3357 -2.2175
  914SOL     OW 2740   1.634   0.825   1.206 -0.0729 -0.2990 -0.2150
  914SOL    HW1 2741   1.704   0.794   1.275  0.2880 -1.4448 -0.6886
  914SOL    HW2 2742   1.568   0.749   1.180  2.9319 -1.0939 -1.2190
  915SOL     OW 2743   0.112   1.500   1.396 -0.1861  0.2425 -0.6692
  915SOL    HW1 2744   0.133   1.576   1.327 -0.6319  1.1044 -1.0235
  915SOL    HW2 2745   0.171   1.419   1.364  3.6814  0.0741 -1.5889
  916SOL     OW 2746   1.996   2.327   0.877 -0.3913  0.1265  0.0430
  916SOL    HW1 2747   2.096   2.342   0.898  0.9985  0.5221 -0.8523
  916SOL    HW2 2748   1.971   2.232   0.900 -0.3028  2.7088  0.8426
  917SOL     OW 2749   1.706   2.693   2.104 -0.3181  0.7249 -0.1497
  917SOL    HW1 2750   1.800   2.716   2.090 -0.9479 -0.0681 -1.3400
  917SOL    HW2 2751   1.679   2.615   2.041 -0.5798  0.9928 -0.7342
  918SOL     OW 2752   1.977   1.998   2.462  0.8932 -0.3150 -0.0297
  918SOL    HW1 2753   1.906   2.069   2.475 -0.7050  2.1466  1.7952
  918SOL    HW2 2754   2.059   2.020   2.517  0.2568  2.3483  0.9891
  919SOL     OW 2755   0.843   0.155   1.337 -0.0175 -0.1605  0.3941
  919SOL    HW1 2756   0.745   0.160   1.359 -0.5450  0.3050 -0.7214
  919SOL    HW2 2757   0.899   0.199   1.406  0.9448 -0.6642 -0.1880
  920SOL     OW 2758   2.902   0.424   2.179 -0.3123 -0.1724  0.0596
  920SOL    HW1 2759   2.930   0.322   2.169  0.3929 -0.2850 -4.0026
  920SOL    HW2 2760   2.913   0.454   2.276  1.1144 -0.8643  1.2576
  921SOL     OW 2761   2.793   1.140   1.484  0.4530 -0.1127 -0.1714
  921SOL    HW1 2762   2.846   1.054   1.497 -2.1511  0.5865  4.5121
  921SOL    HW2 2763   2.702   1.117   1.513  0.2652  2.4191 -0.6835
  922SOL     OW 2764   2.770   2.199   0.724 -0.1839  0.2934 -0.0467
  922SOL    HW1 2765   2.669   2.188   0.747  1.2210 -3.3481 -1.4206
  922SOL    HW2 2766   2.786   2.197   0.624  2.2262 -0.5606  0.9187
  923SOL     OW 2767   0.211   2.198   0.482  0.6657  0.6962  0.1363
  923SOL    HW1 2768   0.173   2.130   0.417 -0.8464  1.9574 -1.0787
  923SOL    HW2 2769   0.309   2.220   0.473 -1.1593 -0.7340  1.4616
  924SOL     OW 2770   1.115   1.453   3.014  0.5782 -0.8183  0.3327
  924SOL    HW1 2771   1.052   1.375   3.024 -0.0434  0.7613 -2.8188
  924SOL    HW2 2772   1.140   1.459   2.915  0.7556  0.3021  0.0792
  925SOL     OW 2773   2.876   1.283   0.877  0.1093 -0.0884 -0.4125
  925SOL    HW1 2774   2.945   1.218   0.841  2.9302  1.1416 -1.8262
  925SOL    HW2 2775   2.784   1.248   0.852  0.4792 -0.1209 -0.7812
  926SOL     OW 2776   0.133   3.038   0.833 -0.5564  0.1235 -0.3369
  926SOL    HW1 2777   0.201   3.095   0.881 -1.1532 -0.5573  0.5485
  926SOL    HW2 2778   0.108   2.962   0.893 -0.1553 -1.5949 -2.1259
  927SOL     OW 2779   0.480   2.037   2.646  0.4747 -0.2098  0.1804
  927SOL    HW1 2780   0.389   2.012   2.686 -3.4926  0.8603 -0.2548
  927SOL    HW2 2781   0.495   1.970   2.572  1.5920 -1.1390  1.1993
  928SOL     OW 2782   0.172   0.476   2.354 -0.1363 -0.4204 -0.2459
  928SOL    HW1 2783   0.185   0.459   2.455 -2.3937  0.8831  1.7788
  928SOL    HW2 2784   0.075   0.504   2.341  0.5010 -1.4216  1.2569
  929SOL     OW 2785   2.692   2.011   1.144  0.2327 -0.2671  0.0607
  929SOL    HW1 2786   2.676   2.106   1.181  0.3693 -1.4834  1.8487
  929SOL    HW2 2787   2.726   2.024   1.042  2.4857  0.9143 -2.7553
  930SOL     OW 2788   1.764   0.516   2.285 -0.3437  0.1394  0.1223
  930SOL    HW1 2789   1.731   0.497   2.377 -2.6443 -1.0492 -0.5792
  930SOL    HW2 2790   1.758   0.614   2.262  0.4799  1.2411  0.0456
  931SOL     OW 2791   2.243   1.150   3.020 -0.6285  0.6751  0.2052
  931SOL    HW1 2792   2.177   1.225   3.016  0.3416 -1.2462 -3.6452
  931SOL    HW2 2793   2.234   1.094   2.935  2.1835  1.4400  1.1621
  932SOL     OW 2794   1.776   0.838   0.509  0.9618  0.0424 -0.0276
  932SOL    HW1 2795   1.790   0.748   0.468 -2.1839  0.4063  1.2671
  932SOL    HW2 2796   1.714   0.892   0.448  1.3110  1.2436  0.1498
  933SOL     OW 2797   2.171   1.191   0.808 -0.2272  0.7615 -0.3714
  933SOL    HW1 2798   2.190   1.168   0.711  0.1203 -2.0553  2.9063
  933SOL    HW2 2799   2.075   1.230   0.809  0.8321  0.6021  3.0072
  934SOL     OW 2800   2.358   1.053   2.757 -0.0024  0.1682 -0.1046
  934SOL    HW1 2801   2.447   1.107   2.752 -0.8863  1.7285 -1.4406
  934SOL    HW2 2802   2.321   1.029   2.664 -0.3995 -0.6094 -1.1415
  935SOL     OW 2803   0.064   1.447   1.068 -0.1769 -0.3295  0.1633
  935SOL    HW1 2804   3.099   1.513   1.033 -1.4540  2.5632  0.4970
  935SOL    HW2 2805   0.011   1.359   1.090 -0.2356 -0.8408 -2.6934
  936SOL     OW 2806   0.109   2.847   0.097  0.5766 -1.1062  0.2060
  936SOL    HW1 2807   0.183   2.837   0.163 -0.6267 -2.0851 -2.4810
  936SOL    HW2 2808   0.103   2.775   0.029  1.4437  2.8762  1.0447
  937SOL     OW 2809   0.167   2.380   1.935 -0.3874 -1.0620 -0.3739
  937SOL    HW1 2810   0.162   2.468   1.882 -0.5049  1.9019  2.9981
  937SOL    HW2 2811   0.085   2.323   1.912  0.9239  1.2360 -0.2258
  938SOL     OW 2812   2.385   2.262   0.084 -0.1940  0.1499 -0.0421
  938SOL    HW1 2813   2.486   2.260   0.063 -0.3409  1.7100 -2.4299
  938SOL    HW2 2814   2.329   2.297   0.004 -0.1032 -0.3870 -0.6020
  939SOL     OW 2815   1.075   0.540   1.472  0.1157  0.5687  0.2183
  939SOL    HW1 2816   1.108   0.595   1.551 -1.2781 -0.6035  1.6567
  939SOL    HW2 2817   0.978   0.557   1.460  0.6305 -0.9516  1.7530
  940SOL     OW 2818   2.439   2.834   2.906  0.3069  0.0267  0.3101
  940SOL    HW1 2819   2.340   2.833   2.918 -0.4613 -1.2090 -0.7771
  940SOL    HW2 2820   2.479   2.746   2.935 -3.9780  2.1342 -0.8778
  941SOL     OW 2821   2.594   2.738   2.265 -0.1654  0.2890 -0.4734
  941SOL    HW1 2822   2.645   2.668   2.216 -0.1812  1.1867  0.0857
  941SOL    HW2 2823   2.557   2.812   2.202 -0.1878 -0.7569 -2.0785
  942SOL     OW 2824   1.493   0.118   1.414 -0.0962 -0.3763  0.2383
  942SOL    HW1 2825   1.584   0.167   1.402 -0.0596  0.0457 -0.8606
  942SOL    HW2 2826   1.417   0.161   1.358 -2.5557  2.2178 -1.4574
  943SOL     OW 2827   0.804   1.547   2.506 -0.1289  0.4475 -0.1527
  943SOL    HW1 2828   0.797   1.445   2.502 -1.4454  2.6031 -2.4263
  943SOL    HW2 2829   0.759   1.589   2.423  0.6808 -0.1793 -0.8216
  944SOL     OW 2830   2.772   0.792   1.303  0.7960  0.2384  0.2119
  944SOL    HW1 2831   2.814   0.757   1.219 -1.2436  3.2139  1.1022
  944SOL    HW2 2832   2.691   0.731   1.330 -2.6015  0.6596  0.3853
  945SOL     OW 2833   2.836   0.177   2.756 -0.3821  0.5014 -0.7964
  945SOL    HW1 2834   2.740   0.185   2.811  0.1941  2.1567  2.1299
  945SOL    HW2 2835   2.903   0.102   2.791 -0.0125 -0.7611  2.1652
  946SOL     OW 2836   2.968   1.396   1.368 -0.2037  0.4323  0.4529
  946SOL    HW1 2837   3.053   1.443   1.399  0.6287  0.0253  1.1036
  946SOL    HW2 2838   2.982   1.317   1.304  1.0094 -0.6122  1.1627
  947SOL     OW 2839   0.494   0.386   2.916  0.2531 -0.3531  0.1454
  947SOL    HW1 2840   0.533   0.452   2.850  0.6051 -0.9115  2.1920
  947SOL    HW2 2841   0.543   0.299   2.898 -0.6640  0.0741  1.9611
  948SOL     OW 2842   2.174   1.453   1.156 -0.7037 -0.7793 -0.1676
  948SOL    HW1 2843   2.194   1.430   1.252 -0.6227  2.2685 -1.9500
  948SOL    HW2 2844   2.258   1.494   1.115 -1.0185  0.4610 -1.2988
  949SOL     OW 2845   0.366   0.937   2.897  0.1099  0.3454 -0.3189
  949SOL    HW1 2846   0.341   0.957   2.995  1.8225 -1.1502  1.4188
  949SOL    HW2 2847   0.284   0.942   2.833 -0.6635 -0.9717 -4.6105
  950SOL     OW 2848   0.300   2.956   1.284 -0.3312 -0.2598  0.0342
  950SOL    HW1 2849   0.254   2.946   1.375  0.4756 -1.1839  0.5783
  950SOL    HW2 2850   0.324   2.865   1.241 -0.1162 -0.5176 -0.1089
  951SOL     OW 2851   1.069   1.852   2.711 -0.1475 -0.5991 -0.5468
  951SOL    HW1 2852   1.070   1.807   2.807  0.5148 -0.3834  1.1213
  951SOL    HW2 2853   1.061   1.954   2.724  0.6046  1.5647  0.0674
  952SOL     OW 2854   0.736   1.197   0.635 -0.5139  0.3695 -0.2439
  952SOL    HW1 2855   0.752   1.100   0.599 -0.2756 -2.4150 -0.4292
  952SOL    HW2 2856   0.781   1.275   0.588 -0.1208  0.3874  0.0810
  953SOL     OW 2857   2.191   1.770   2.762  0.3862  0.2212 -0.1708
  953SOL    HW1 2858   2.255   1.761   2.680  2.8735 -1.1721 -1.2464
  953SOL    HW2 2859   2.210   1.691   2.827 -0.8613  0.6920  0.0820
  954SOL     OW 2860   1.392   0.286   0.738 -0.4544 -0.9053  0.1533
  954SOL    HW1 2861   1.447   0.369   0.713  0.4031  0.8922 -1.1852
  954SOL    HW2 2862   1.454   0.211   0.735 -0.7150  2.1662 -0.2657
  955SOL     OW 2863   1.017   1.764   2.960  0.2692 -0.2918 -0.2418
  955SOL    HW1 2864   1.006   1.843   3.021 -1.7553 -2.3137  1.4394
  955SOL    HW2 2865   1.082   1.696   3.001  0.6777 -0.0829 -0.3285
  956SOL     OW 2866   2.697   0.504   2.014 -0.3481  0.4623 -0.3605
  956SOL    HW1 2867   2.698   0.461   1.919 -0.0093  0.8728 -1.4927
  956SOL    HW2 2868   2.781   0.475   2.071 -2.4556 -0.0994  2.1835
  957SOL     OW 2869   1.829   2.147   2.109 -0.1599 -0.0154  0.2859
  957SOL    HW1 2870   1.883   2.061   2.100  0.4688 -1.0101  0.7007
  957SOL    HW2 2871   1.761   2.140   2.186 -0.5193 -1.3348  1.6171
  958SOL     OW 2872   1.554   1.094   1.242 -0.2568 -0.5805 -0.1826
  958SOL    HW1 2873   1.626   1.147   1.293 -0.0557 -0.1689 -2.5671
  958SOL    HW2 2874   1.584   0.996   1.231 -0.0887  2.1205  2.7841
  959SOL     OW 2875   1.700   2.121   1.877 -0.4072  0.7341  0.0845
  959SOL    HW1 2876   1.670   2.020   1.869 -0.8520 -4.4257 -1.7147
  959SOL    HW2 2877   1.746   2.141   1.966 -1.9394  0.6783  1.3238
  960SOL     OW 2878   0.588   1.127   2.636 -0.1797  0.7116  0.2942
  960SOL    HW1 2879   0.505   1.168   2.668  2.5173  0.0521  0.7123
  960SOL    HW2 2880   0.597   1.032   2.675  1.0906 -0.0351 -2.4548
  961SOL     OW 2881   0.012   1.185   2.935  0.4180 -0.3495 -0.0847
  961SOL    HW1 2882   0.057   1.278   2.936 -0.8903 -1.4496  0.3664
  961SOL    HW2 2883   3.015   1.196   2.968  0.5022 -1.8614  0.3183
  962SOL     OW 2884   1.015   1.999   3.097 -0.5990  0.0058 -0.3885
  962SOL    HW1 2885   1.107   2.038   3.078  0.3763  0.3146  1.8631
  962SOL    HW2 2886   0.959   2.058   0.056  0.4126 -0.1004 -2.3874
  963SOL     OW 2887   2.841   1.595   0.007  0.1330 -0.4980  0.2534
  963SOL    HW1 2888   2.898   1.606   3.024  0.2688  2.2860  1.5550
  963SOL    HW2 2889   2.796   1.683   0.022 -2.7463  0.2188 -0.5503
  964SOL     OW 2890   0.804   2.147   2.298 -0.2650 -0.2863 -0.1386
  964SOL    HW1 2891   0.893   2.198   2.289 -0.0387  3.8518  0.3373
  964SOL    HW2 2892   0.789   2.120   2.393 -0.3070  1.5601 -1.2799
  965SOL     OW 2893   1.448   1.777   1.353 -0.1984  0.7500 -0.0246
  965SOL    HW1 2894   1.416   1.682   1.327 -2.4625 -0.6277 -3.5464
  965SOL    HW2 2895   1.533   1.779   1.408 -0.8203  2.3780 -1.5629
  966SOL     OW 2896   2.945   1.567   0.273 -0.1896  0.1411 -0.1405
  966SOL    HW1 2897   3.043   1.541   0.262  0.6370  2.3786  0.5876
  966SOL    HW2 2898   2.907   1.566   0.178  1.4791 -2.1754 -2.2361
  967SOL     OW 2899   1.708   2.706   2.376  0.2304 -0.1477  0.0266
  967SOL    HW1 2900   1.633   2.771   2.405  0.8335  0.3347 -2.0040
  967SOL    HW2 2901   1.715   2.708   2.274 -1.1609 -0.3379 -3.2501
  968SOL     OW 2902   1.536   1.446   2.731 -0.6524 -0.2233  0.5577
  968SOL    HW1 2903   1.637   1.450   2.704  2.2381 -0.6986  2.2293
  968SOL    HW2 2904   1.523   1.477   2.828  3.1086  1.9029  2.0521
  969SOL     OW 2905   0.129   1.145   2.317 -0.1851 -0.0137  0.3908
  969SOL    HW1 2906   0.042   1.135   2.259 -2.2967  0.8865  0.4097
  969SOL    HW2 2907   0.187   1.063   2.315  0.2155 -2.2003 -1.1837
  970SOL     OW 2908   2.650   2.948   0.345 -0.2537 -0.4229  0.1364
  970SOL    HW1 2909   2.666   2.852   0.317  1.0143  0.3619  2.1001
  970SOL    HW2 2910   2.607   2.996   0.267  1.7935  1.3993  1.5659
  971SOL     OW 2911   2.083   1.878   0.913 -0.4868  0.0731  0.3450
  971SOL    HW1 2912   2.174   1.855   0.949 -1.5951 -0.3827 -2.0523
  971SOL    HW2 2913   2.029   1.791   0.918  0.4071 -0.9523  1.5799
  972SOL     OW 2914   0.234   1.614   2.703 -0.3118  0.0475  0.0018
  972SOL    HW1 2915   0.240   1.614   2.603 -0.6572 -1.4099 -0.5091
  972SOL    HW2 2916   0.320   1.648   2.747 -0.8571 -0.1343  0.1735
  973SOL     OW 2917   0.802   0.336   0.380  0.6311 -0.0867  0.4306
  973SOL    HW1 2918   0.796   0.234   0.387  0.0611 -3.3782  0.7149
  973SOL    HW2 2919   0.751   0.377   0.302  1.7702  1.4739 -1.6937
  974SOL     OW 2920   2.241   0.786   1.651 -0.0441  0.1355  0.0272
  974SOL    HW1 2921   2.239   0.742   1.740 -2.2519  0.9346  0.7751
  974SOL    HW2 2922   2.338   0.808   1.627 -3.7981  0.3811  0.4631
  975SOL     OW 2923   0.268   0.066   0.593 -0.2587  0.2517  0.2504
  975SOL    HW1 2924   0.365   0.041   0.594 -1.1650 -0.3204  1.2788
  975SOL    HW2 2925   0.205   3.085   0.602 -0.3037  0.7436 -0.1435
  976SOL     OW 2926   0.654   1.522   1.420 -0.0350 -0.1789  0.1671
  976SOL    HW1 2927   0.610   1.437   1.385  5.3922  1.0383  2.0106
  976SOL    HW2 2928   0.654   1.603   1.351  0.5668  1.5062  0.0030
  977SOL     OW 2929   1.213   2.067   0.372 -0.7391 -0.4843 -0.3209
  977SOL    HW1 2930   1.232   1.993   0.306 -0.3448 -0.5611  1.7684
  977SOL    HW2 2931   1.292   2.128   0.390  0.6497 -1.3699  1.2732
  978SOL     OW 2932   0.268   0.952   0.071  0.0926  0.0002  0.1873
  978SOL    HW1 2933   0.164   0.944   0.072 -2.6076 -0.5408  1.2370
  978SOL    HW2 2934   0.304   1.004   0.150 -0.7476 -0.0774 -4.4955
  979SOL     OW 2935   1.984   1.352   0.178 -0.1049 -0.5164 -0.1436
  979SOL    HW1 2936   2.058   1.397   0.230 -0.6280  1.0315 -0.1185
  979SOL    HW2 2937   1.990   1.254   0.197  4.2379  1.9117 -0.9067
  980SOL     OW 2938   0.630   1.955   1.613 -0.0013  0.3254  0.3289
  980SOL    HW1 2939   0.644   2.055   1.619 -1.2941  1.1273  1.6138
  980SOL    HW2 2940   0.559   1.930   1.541  0.1604  0.0206 -0.1912
  981SOL     OW 2941   2.411   1.567   2.603 -0.2909  0.1206 -0.2496
  981SOL    HW1 2942   2.495   1.540   2.653 -2.3352  2.1601  0.9908
  981SOL    HW2 2943   2.336   1.521   2.650  0.9309  0.8121 -0.3861
  982SOL     OW 2944   0.348   2.105   1.820 -0.2876 -0.3814  0.3227
  982SOL    HW1 2945   0.334   2.150   1.725  0.6967  0.0396 -3.1499
  982SOL    HW2 2946   0.444   2.111   1.850 -0.9265  0.4917  1.1282
  983SOL     OW 2947   1.503   0.040   2.041 -0.3064 -0.8102 -0.0948
  983SOL    HW1 2948   1.455   0.021   1.952  0.3554 -1.0870  3.3616
  983SOL    HW2 2949   1.553   0.131   2.047  1.7484 -1.0224 -1.5970
  984SOL     OW 2950   3.022   3.082   2.855  0.6413  0.2739 -0.2757
  984SOL    HW1 2951   3.067   3.069   2.948  1.4349 -1.1589  1.6509
  984SOL    HW2 2952   3.075   3.037   2.780  2.1390  0.0175  0.8090
  985SOL     OW 2953   1.428   1.507   2.013  0.0106  0.2698 -0.2925
  985SOL    HW1 2954   1.474   1.506   1.925  0.4398 -1.1053  0.4927
  985SOL    HW2 2955   1.401   1.413   2.049  0.3378 -1.4148  3.9201
  986SOL     OW 2956   1.760   0.552   2.926 -0.2138 -0.3910 -0.4004
  986SOL    HW1 2957   1.827   0.518   2.997 -0.0120 -1.5176 -0.1531
  986SOL    HW2 2958   1.793   0.518   2.835 -0.8492 -1.0226  2.9163
  987SOL     OW 2959   0.181   1.907   2.548 -0.1469  0.0101 -0.0613
  987SOL    HW1 2960   0.132   1.937   2.631  0.7154  0.0423 -3.5062
  987SOL    HW2 2961   0.166   1.808   2.529  0.0498  2.7190  1.8376
  988SOL     OW 2962   2.864   0.182   1.409 -0.8762 -0.2486  0.7306
  988SOL    HW1 2963   2.944   0.142   1.352 -0.1068 -0.1720 -1.6997
  988SOL    HW2 2964   2.790   0.111   1.413 -0.6737 -1.9527  2.6692
  989SOL     OW 2965   1.893   0.169   1.140  0.4405 -0.3417 -0.4456
  989SOL    HW1 2966   1.861   0.076   1.108 -1.5006 -1.1658  0.1746
  989SOL    HW2 2967   1.986   0.168   1.179  0.2299  2.2384 -1.0386
  990SOL     OW 2968   2.488   0.877   0.273  0.0255 -0.2422 -0.4771
  990SOL    HW1 2969   2.515   0.866   0.174  1.3273 -2.2762 -1.3459
  990SOL    HW2 2970   2.522   0.971   0.308  2.0226 -1.0381 -3.2310
  991SOL     OW 2971   0.301   1.039   0.500 -0.0963 -0.0740  0.3217
  991SOL    HW1 2972   0.208   1.074   0.513  0.0841  0.0167 -0.2362
  991SOL    HW2 2973   0.370   1.095   0.557  3.0301  1.2229  1.0542
  992SOL     OW 2974   1.969   1.513   1.785  0.0796 -0.4309 -0.5221
  992SOL    HW1 2975   1.954   1.575   1.870 -1.8114 -3.5403  0.8176
  992SOL    HW2 2976   2.030   1.435   1.791 -2.9388  2.4326  0.1678
  993SOL     OW 2977   0.287   2.147   0.737 -0.9166 -0.4082  0.1895
  993SOL    HW1 2978   0.343   2.064   0.753 -2.5518  0.4585 -1.7338
  993SOL    HW2 2979   0.246   2.145   0.647  2.8019 -0.9626  0.1278
  994SOL     OW 2980   3.074   1.859   1.679  0.4973  0.1092 -0.1543
  994SOL    HW1 2981   2.980   1.832   1.707 -2.5324 -0.2780 -0.6099
  994SOL    HW2 2982   0.023   1.773   1.662 -1.0207  0.0965  0.6685
  995SOL     OW 2983   1.916   1.701   2.745 -0.3937  0.0722  0.4451
  995SOL    HW1 2984   1.902   1.696   2.640  0.4078 -1.3420 -0.9651
  995SOL    HW2 2985   2.010   1.737   2.760  0.3655  1.5715  2.4912
  996SOL     OW 2986   1.895   2.317   0.486 -0.4155  0.0686 -0.3883
  996SOL    HW1 2987   1.848   2.226   0.479  0.9297  2.2689  2.5319
  996SOL    HW2 2988   1.953   2.317   0.569  0.3781  1.3269 -1.2932
  997SOL     OW 2989   1.190   1.693   2.093  0.1229 -0.0762  0.6128
  997SOL    HW1 2990   1.140   1.646   2.172 -1.5179  0.9463  3.3309
  997SOL    HW2 2991   1.282   1.649   2.075  2.5562 -1.3295 -1.0216
  998SOL     OW 2992   3.085   2.363   0.436 -1.2604 -0.2842 -0.4817
  998SOL    HW1 2993   3.080   2.340   0.336  1.2218 -1.7627  0.1358
  998SOL    HW2 2994   0.067   2.313   0.469  0.6912 -2.3485  0.5008
  999SOL     OW 2995   0.755   2.945   0.211  0.2293 -0.9051  0.1579
  999SOL    HW1 2996   0.674   2.882   0.203 -2.4724  0.9927  0.0317
  999SOL    HW2 2997   0.808   2.953   0.120 -0.2558  0.9787 -3.7970
 1000SOL     OW 2998   1.230   0.132   0.044  0.2310 -0.0008  0.2362
 1000SOL    HW1 2999   1.204   0.197   3.068  0.0990  0.0161  0.6512
 1000SOL    HW2 3000   1.312   0.160   0.092 -2.9874  0.0467 -0.4057
   3.10063   3.10063   3.10063
