1000 SPC/Fw water molecules t= 426.00000 step= 426000
 3000
    1SOL     OW    1   0.025   0.007   1.123  0.4280  0.1142  0.1462
    1SOL    HW1    2   0.076   0.086   1.157 -0.3597  1.1531  0.5764
    1SOL    HW2    3   0.033   3.044   1.199 -0.5569  0.1266 -0.0048
    2SOL     OW    4   2.631   3.090   0.165  0.0175  0.5733 -0.1396
    2SOL    HW1    5   2.638   2.999   0.115 -1.1181 -0.9960 -2.5141
    2SOL    HW2    6   2.614   0.057   0.102 -0.6167  2.5488  1.4079
    3SOL     OW    7   1.521   2.570   3.087  0.1597  0.0265  0.3969
    3SOL    HW1    8   1.508   2.541   2.987 -1.8553 -0.5922 -0.1238
    3SOL    HW2    9   1.438   2.546   0.029 -1.9594 -2.9741  0.6547
    4SOL     OW   10   1.077   3.016   2.338  0.3443 -1.2780  0.0688
    4SOL    HW1   11   1.036   3.053   2.426 -0.8939 -2.0953  1.3388
    4SOL    HW2   12   1.025   3.041   2.254 -1.6753 -1.0396  1.1713
    5SOL     OW   13   2.314   0.041   2.151  0.3002 -0.2214 -0.2554
    5SOL    HW1   14   2.270   3.062   2.125 -0.1230 -1.1952  2.5812
    5SOL    HW2   15   2.242   0.116   2.152  0.4061  2.8973  0.0839
    6SOL     OW   16   2.762   1.972   1.129  0.3173 -0.7637  0.2715
    6SOL    HW1   17   2.723   2.065   1.098  0.2009  3.1131  0.2721
    6SOL    HW2   18   2.747   1.903   1.055  0.4180 -0.4479 -2.6611
    7SOL     OW   19   1.719   1.536   0.724 -0.2441  0.1195 -0.4975
    7SOL    HW1   20   1.789   1.511   0.794 -1.3902  2.0310 -0.1030
    7SOL    HW2   21   1.644   1.465   0.713 -0.2944  0.6948  1.4866
    8SOL     OW   22   0.347   1.601   0.980 -0.1391 -0.4896  0.1166
    8SOL    HW1   23   0.404   1.646   1.049 -0.9536  1.4140  1.1501
    8SOL    HW2   24   0.251   1.595   1.003  4.8048 -0.4627 -1.5403
    9SOL     OW   25   0.046   2.695   1.409  0.1792  0.2403 -0.2245
    9SOL    HW1   26   3.088   2.651   1.348  0.2917 -0.5615  0.7500
    9SOL    HW2   27   0.134   2.641   1.423  0.3148 -1.7131 -0.4500
   10SOL     OW   28   1.178   2.466   0.526 -0.0820  0.5082 -0.7197
   10SOL    HW1   29   1.240   2.486   0.447 -2.1539 -0.4717 -0.9476
   10SOL    HW2   30   1.089   2.514   0.502 -2.5783 -0.5367  2.9776
   11SOL     OW   31   1.597   1.840   1.286  0.0410 -0.5297  0.2297
   11SOL    HW1   32   1.654   1.921   1.299 -0.0695 -1.5283  1.6059
   11SOL    HW2   33   1.550   1.830   1.196  1.3044 -1.0381  0.0122
   12SOL     OW   34   0.156   0.812   2.149  0.0899 -0.7998 -0.2605
   12SOL    HW1   35   0.104   0.832   2.062 -0.8860  1.0793 -1.4233
   12SOL    HW2   36   0.254   0.835   2.135 -2.0206  0.1417  1.0896
   13SOL     OW   37   2.387   2.863   0.113  0.1989  0.4691  0.0651
   13SOL    HW1   38   2.330   2.784   0.082  0.4294 -0.4238  0.8230
   13SOL    HW2   39   2.483   2.854   0.079 -3.9630  2.0619  0.4460
   14SOL     OW   40   1.319   1.846   0.393 -0.0107  0.1416  0.2478
   14SOL    HW1   41   1.327   1.809   0.297 -1.5938 -0.1504  0.4909
   14SOL    HW2   42   1.399   1.907   0.417 -1.7251  0.0559  2.9237
   15SOL     OW   43   2.973   2.580   1.828  0.1663 -0.1784  0.6798
   15SOL    HW1   44   3.062   2.551   1.783 -1.4699 -0.6454  0.9895
   15SOL    HW2   45   2.912   2.636   1.764 -1.3799  0.9021 -0.4157
   16SOL     OW   46   2.748   0.500   0.852 -0.2887  0.0110  0.7135
   16SOL    HW1   47   2.840   0.501   0.897 -0.7105  0.9830 -0.5549
   16SOL    HW2   48   2.737   0.417   0.795 -0.4795  1.0570 -1.4428
   17SOL     OW   49   1.077   0.298   0.727  0.4677  0.3256 -0.2504
   17SOL    HW1   50   0.981   0.272   0.763 -2.3198 -3.4868 -0.0159
   17SOL    HW2   51   1.101   0.392   0.756  0.9765 -1.6698  1.4766
   18SOL     OW   52   1.088   0.291   1.066  0.3587  0.0916  0.2531
   18SOL    HW1   53   1.132   0.287   0.974 -1.3549  1.7315  0.1938
   18SOL    HW2   54   1.129   0.358   1.132  0.4639 -2.5444  0.9958
   19SOL     OW   55   2.035   1.229   0.803  0.3596  0.0989 -0.1615
   19SOL    HW1   56   2.132   1.247   0.801 -0.3101 -0.0410 -1.2309
   19SOL    HW2   57   1.991   1.224   0.708  2.6553  2.1632 -3.6401
   20SOL     OW   58   2.341   1.492   2.902  0.3548  0.0538 -0.1844
   20SOL    HW1   59   2.258   1.484   2.839 -0.5723  0.7741 -1.4507
   20SOL    HW2   60   2.422   1.528   2.859  0.8605 -0.1991 -1.0604
   21SOL     OW   61   1.502   3.010   0.170 -0.0870 -0.3837 -0.9875
   21SOL    HW1   62   1.499   3.069   0.259 -1.0392  2.7564  1.8886
   21SOL    HW2   63   1.595   2.975   0.159  0.6124 -0.7180  2.0412
   22SOL     OW   64   3.016   0.926   0.827  0.4027  0.3060 -0.5040
   22SOL    HW1   65   3.013   1.007   0.771  0.2401  1.9669 -0.8363
   22SOL    HW2   66   2.971   0.850   0.775 -1.7097  0.9154 -0.2560
   23SOL     OW   67   0.458   0.276   1.877  0.7854  0.0040 -0.3388
   23SOL    HW1   68   0.552   0.289   1.919  1.0946  0.1109  0.6944
   23SOL    HW2   69   0.471   0.190   1.821 -1.3004  0.1530  0.3841
   24SOL     OW   70   2.183   2.241   0.944  0.2934 -0.3860 -0.0075
   24SOL    HW1   71   2.082   2.252   0.966  0.8973  1.9367 -1.4215
   24SOL    HW2   72   2.193   2.155   0.891 -0.9804 -0.1139 -0.2674
   25SOL     OW   73   1.802   0.074   2.508 -0.0079 -0.1940  0.2214
   25SOL    HW1   74   1.796   3.082   2.492 -4.4460 -4.4597  1.0800
   25SOL    HW2   75   1.743   0.104   2.586 -0.1291 -0.9573 -2.4998
   26SOL     OW   76   1.616   2.162   0.028 -0.6772  0.2217  0.1849
   26SOL    HW1   77   1.667   2.224   3.073  1.1029 -0.4737 -0.1981
   26SOL    HW2   78   1.569   2.092   3.082  2.5183  0.3628  0.7577
   27SOL     OW   79   1.358   0.293   1.264  0.5042  0.0796  1.2448
   27SOL    HW1   80   1.378   0.281   1.161 -0.5460  0.7110 -1.4608
   27SOL    HW2   81   1.420   0.242   1.321 -1.3082 -1.0657 -0.5566
   28SOL     OW   82   0.766   1.575   0.635  0.1549  0.6674  0.3683
   28SOL    HW1   83   0.698   1.499   0.634 -1.3105 -0.8122  2.1107
   28SOL    HW2   84   0.828   1.573   0.553  1.5367 -0.9111 -1.9713
   29SOL     OW   85   2.577   0.465   1.606  0.0386 -0.1696 -0.0061
   29SOL    HW1   86   2.542   0.420   1.520  0.5770  4.7035 -2.3639
   29SOL    HW2   87   2.664   0.516   1.588 -1.2848  0.0362  0.0289
   30SOL     OW   88   1.495   2.409   1.578  0.2212 -0.5993  0.0134
   30SOL    HW1   89   1.581   2.383   1.629 -0.5674  1.3984 -1.3504
   30SOL    HW2   90   1.465   2.330   1.520  2.6755  1.6645 -1.1670
   31SOL     OW   91   1.996   2.798   1.588 -0.3052 -0.6075  0.2144
   31SOL    HW1   92   2.005   2.852   1.674 -0.1799  0.5696  0.5596
   31SOL    HW2   93   2.047   2.848   1.512 -2.0450  1.1009 -3.2075
   32SOL     OW   94   2.167   1.333   2.414 -0.3573  0.0687  0.1759
   32SOL    HW1   95   2.143   1.269   2.337  0.8581 -0.6874 -0.2800
   32SOL    HW2   96   2.260   1.312   2.452  3.4400  1.8448 -1.8250
   33SOL     OW   97   2.701   0.565   2.839 -0.0660 -0.2738  0.2058
   33SOL    HW1   98   2.692   0.585   2.933 -0.9589 -2.5298 -1.3655
   33SOL    HW2   99   2.701   0.644   2.776 -2.0525  0.2438  0.2675
   34SOL     OW  100   1.709   0.355   0.305  0.1124 -0.4618 -0.1595
   34SOL    HW1  101   1.610   0.351   0.330  0.3148  0.4790  1.3118
   34SOL    HW2  102   1.724   0.432   0.241 -1.0327  0.6457  1.2134
   35SOL     OW  103   0.252   2.043   2.088 -0.1148 -0.0054  0.0192
   35SOL    HW1  104   0.204   2.127   2.043  0.4474  2.2611 -1.8471
   35SOL    HW2  105   0.222   1.953   2.052  0.1196  0.7823 -0.0098
   36SOL     OW  106   2.557   1.636   2.781 -0.3691  0.2405  0.6091
   36SOL    HW1  107   2.577   1.690   2.866  1.0407  0.9943 -0.8071
   36SOL    HW2  108   2.524   1.702   2.706 -1.6282  0.1369  0.4684
   37SOL     OW  109   1.361   2.953   1.637 -0.5238  0.7641  0.5862
   37SOL    HW1  110   1.395   2.862   1.601  1.7284 -1.3002 -1.5943
   37SOL    HW2  111   1.383   2.965   1.737 -3.8758  0.2827 -1.8901
   38SOL     OW  112   0.675   0.733   2.715 -0.4342 -0.2279  0.3338
   38SOL    HW1  113   0.624   0.808   2.667 -0.0838  0.1120  1.3374
   38SOL    HW2  114   0.664   0.645   2.666 -0.5371  2.1624 -0.5772
   39SOL     OW  115   1.953   0.719   1.347  0.0228 -0.1254  0.3107
   39SOL    HW1  116   1.868   0.674   1.312  1.4243 -1.2580 -1.5970
   39SOL    HW2  117   2.005   0.773   1.274  4.5161  2.1876 -3.2656
   40SOL     OW  118   1.156   2.464   0.804  0.3044  0.4513  0.6998
   40SOL    HW1  119   1.194   2.385   0.860  2.7298 -0.4914  2.4236
   40SOL    HW2  120   1.164   2.460   0.702 -2.5682  0.7419  2.2450
   41SOL     OW  121   2.092   2.128   1.229 -0.3834 -0.4079 -0.8034
   41SOL    HW1  122   2.030   2.102   1.152  1.0380  1.5230 -0.4915
   41SOL    HW2  123   2.190   2.129   1.200 -1.7663 -0.0815  0.6635
   42SOL     OW  124   2.333   0.555   0.757 -0.0010 -0.5695 -0.5253
   42SOL    HW1  125   2.404   0.608   0.811 -0.5151  1.0994 -0.8129
   42SOL    HW2  126   2.289   0.620   0.698  1.1259 -0.1130  1.0226
   43SOL     OW  127   0.913   1.330   2.348 -0.1184 -1.1360  0.1122
   43SOL    HW1  128   0.841   1.267   2.387 -0.3284 -2.0523  3.1268
   43SOL    HW2  129   0.880   1.425   2.336  0.8841  0.5673  3.1066
   44SOL     OW  130   1.759   2.613   1.268 -0.3584 -0.6535 -0.2811
   44SOL    HW1  131   1.681   2.554   1.244 -1.8365 -0.6384 -0.7925
   44SOL    HW2  132   1.843   2.561   1.288  2.1498  1.3283  1.4023
   45SOL     OW  133   1.015   3.098   2.592  0.1630 -0.4904  0.1296
   45SOL    HW1  134   0.944   0.049   2.626 -1.2392 -0.2994  1.2679
   45SOL    HW2  135   1.012   3.008   2.643 -0.2148 -1.4128  2.8106
   46SOL     OW  136   0.790   2.427   1.778 -0.5984 -0.2345 -0.5308
   46SOL    HW1  137   0.729   2.458   1.707  0.9221  0.9154 -1.6068
   46SOL    HW2  138   0.822   2.508   1.834 -0.7929  0.7985  2.9553
   47SOL     OW  139   0.797   1.994   0.785  0.3448  0.3045 -0.3849
   47SOL    HW1  140   0.818   1.896   0.808  1.3359  2.2849  0.8772
   47SOL    HW2  141   0.700   2.014   0.800  2.1548  3.4625  0.3168
   48SOL     OW  142   0.775   2.748   1.255  0.2951 -0.0256  0.2548
   48SOL    HW1  143   0.773   2.720   1.354 -2.9489 -0.3400  0.7454
   48SOL    HW2  144   0.772   2.847   1.238  2.2807  1.8720  1.3855
   49SOL     OW  145   2.951   3.059   2.929  0.3339  0.3217 -0.6521
   49SOL    HW1  146   2.890   0.032   2.921  0.0968 -0.4360 -0.3741
   49SOL    HW2  147   3.020   3.079   3.003 -2.3913  0.7211 -0.0302
   50SOL     OW  148   1.668   1.224   0.512 -0.4599 -0.0061 -0.2949
   50SOL    HW1  149   1.649   1.134   0.554 -0.9494  0.6781  0.2305
   50SOL    HW2  150   1.650   1.232   0.414 -0.4928 -1.7399 -1.1090
   51SOL     OW  151   2.024   0.005   0.587 -0.4205  0.3718  0.3232
   51SOL    HW1  152   1.998   0.085   0.535 -0.8582 -2.1047 -0.1059
   51SOL    HW2  153   2.017   0.031   0.687 -2.6838  3.2746  1.8669
   52SOL     OW  154   0.938   1.557   0.376  0.1615  0.3180  0.3176
   52SOL    HW1  155   1.001   1.479   0.385  0.0904  3.1628  2.2757
   52SOL    HW2  156   0.893   1.562   0.283  1.0667  0.0518  2.6811
   53SOL     OW  157   0.355   1.053   2.737 -0.0181 -0.0885 -0.0289
   53SOL    HW1  158   0.355   1.037   2.840 -4.9581  1.2199  0.9206
   53SOL    HW2  159   0.320   1.146   2.709 -1.2102 -0.8655 -0.7237
   54SOL     OW  160   2.353   1.896   2.945  0.7683 -0.1644 -0.4562
   54SOL    HW1  161   2.451   1.870   2.953 -0.9131  1.8484 -1.2089
   54SOL    HW2  162   2.301   1.830   3.008 -0.5859 -1.9444  3.0703
   55SOL     OW  163   2.245   2.331   1.418  0.3335  0.1742  0.0823
   55SOL    HW1  164   2.302   2.386   1.487 -0.9888  2.2487  0.5588
   55SOL    HW2  165   2.273   2.234   1.422 -0.7831  3.6534  0.2930
   56SOL     OW  166   1.635   3.038   1.366 -0.2475  0.2075  0.1149
   56SOL    HW1  167   1.668   2.939   1.388  1.0934 -3.6837  1.2539
   56SOL    HW2  168   1.626   3.052   1.267 -2.7849  2.4915  0.0017
   57SOL     OW  169   1.568   1.748   0.818 -0.4564 -0.4992  0.0336
   57SOL    HW1  170   1.631   1.674   0.786 -2.4468 -4.7694  1.3639
   57SOL    HW2  171   1.488   1.741   0.755  3.4067  0.4275 -2.1920
   58SOL     OW  172   2.454   0.049   1.799  0.3381  0.4559  0.3292
   58SOL    HW1  173   2.452   0.115   1.877 -2.5485 -2.1298 -1.6056
   58SOL    HW2  174   2.361   0.044   1.749 -0.9293 -0.5486  0.4812
   59SOL     OW  175   0.982   2.714   2.411  0.1860 -0.0126 -0.7902
   59SOL    HW1  176   1.046   2.771   2.361 -1.3903 -1.4983  0.3687
   59SOL    HW2  177   0.889   2.711   2.366  0.1085  0.4798  1.7993
   60SOL     OW  178   0.620   0.067   2.512 -0.0516 -0.2379 -0.3610
   60SOL    HW1  179   0.548   0.119   2.467  0.5864 -2.2935 -0.9649
   60SOL    HW2  180   0.611   0.088   2.607  0.3850 -2.5341 -0.9777
   61SOL     OW  181   0.714   2.168   0.596 -0.3248 -0.2860  0.6965
   61SOL    HW1  182   0.736   2.162   0.496 -0.6974  0.7879 -2.0088
   61SOL    HW2  183   0.746   2.089   0.652  1.3531 -0.7680  1.3079
   62SOL     OW  184   1.149   2.133   2.252 -0.0994 -0.5680  0.3961
   62SOL    HW1  185   1.176   2.207   2.186 -0.7687  0.3742 -0.2643
   62SOL    HW2  186   1.082   2.167   2.317 -1.9372 -0.9619 -0.8831
   63SOL     OW  187   1.104   1.801   0.874  0.2530 -0.1543 -0.4856
   63SOL    HW1  188   1.018   1.758   0.848  0.7214  1.1764  0.4529
   63SOL    HW2  189   1.182   1.762   0.819 -0.5642  0.9433 -0.5386
   64SOL     OW  190   1.507   1.464   0.224 -0.3871 -0.0646  0.2920
   64SOL    HW1  191   1.520   1.400   0.144  0.7430 -0.1054  0.6600
   64SOL    HW2  192   1.599   1.477   0.269  0.0858 -0.4350 -1.6551
   65SOL     OW  193   1.522   2.112   2.244  0.3466 -0.2494 -0.0647
   65SOL    HW1  194   1.568   2.061   2.169 -0.3086  2.9905  1.5152
   65SOL    HW2  195   1.586   2.105   2.323 -0.8651 -0.6140 -0.9629
   66SOL     OW  196   0.332   1.110   1.070 -0.6575 -0.0739  0.3504
   66SOL    HW1  197   0.345   1.055   1.156  0.2184 -1.1514  0.2895
   66SOL    HW2  198   0.337   1.043   0.996 -0.0323 -0.4007 -0.3864
   67SOL     OW  199   2.160   2.597   0.422  0.1039 -0.1206  0.9041
   67SOL    HW1  200   2.146   2.545   0.510 -2.7171  0.9115 -1.1883
   67SOL    HW2  201   2.156   2.527   0.347  1.4690 -0.6192  1.5938
   68SOL     OW  202   2.400   2.518   1.614  0.0302 -0.6198  0.0211
   68SOL    HW1  203   2.382   2.592   1.548 -0.9981 -1.2509 -0.4445
   68SOL    HW2  204   2.458   2.550   1.694  2.7468 -0.2143  1.3506
   69SOL     OW  205   2.359   2.314   2.611 -0.5803  0.2352  0.2894
   69SOL    HW1  206   2.321   2.409   2.590  0.2087  3.3920 -1.9184
   69SOL    HW2  207   2.311   2.244   2.554  0.5355 -0.9445  0.0736
   70SOL     OW  208   0.244   1.274   2.633 -0.0728  0.4858  0.3405
   70SOL    HW1  209   0.202   1.363   2.661  0.2327  2.6783  1.0948
   70SOL    HW2  210   0.180   1.246   2.554  1.0569  0.2548  3.0850
   71SOL     OW  211   1.011   1.252   2.113 -0.3675  0.0895 -0.0466
   71SOL    HW1  212   0.955   1.265   2.199 -1.3869 -0.9695 -0.7897
   71SOL    HW2  213   0.943   1.258   2.037 -1.1682 -1.5126  0.7624
   72SOL     OW  214   2.285   1.126   1.637 -0.3315  0.5418  0.0163
   72SOL    HW1  215   2.197   1.079   1.610 -1.1442  0.3747 -3.5483
   72SOL    HW2  216   2.356   1.055   1.652 -1.1874  0.0007  0.4720
   73SOL     OW  217   0.526   1.838   2.826 -0.1439 -0.1230 -0.0009
   73SOL    HW1  218   0.596   1.848   2.900  0.1894  2.2742 -0.6663
   73SOL    HW2  219   0.453   1.775   2.862 -3.3851 -0.2416  2.5251
   74SOL     OW  220   1.722   2.946   1.881 -0.0595  0.0270 -0.0268
   74SOL    HW1  221   1.750   2.848   1.878  0.6948 -0.0426  2.3631
   74SOL    HW2  222   1.625   2.949   1.863  1.1296  0.2816 -1.3649
   75SOL     OW  223   0.912   2.861   0.468  0.1511  0.2954 -0.2379
   75SOL    HW1  224   1.005   2.898   0.491  1.2375 -0.9199 -0.5632
   75SOL    HW2  225   0.848   2.900   0.537  0.2389  0.1340  2.1765
   76SOL     OW  226   3.051   1.906   2.633 -0.0579 -0.4217 -0.2411
   76SOL    HW1  227   3.064   1.974   2.559 -2.1897  2.0783  0.5548
   76SOL    HW2  228   0.024   1.854   2.652 -3.4276 -2.8565 -0.2646
   77SOL     OW  229   0.088   2.687   1.013  0.3500 -0.4606  0.1088
   77SOL    HW1  230   0.013   2.655   1.080 -1.5637 -0.0785  2.2763
   77SOL    HW2  231   0.168   2.736   1.058  0.0339  1.0773 -0.5080
   78SOL     OW  232   2.554   1.088   0.384  0.0153 -0.2028  0.0046
   78SOL    HW1  233   2.621   1.088   0.309 -3.5919 -0.2768  1.0357
   78SOL    HW2  234   2.601   1.090   0.476  0.4915  2.4565  0.6983
   79SOL     OW  235   0.325   1.736   2.961 -0.1499  0.4043 -0.0674
   79SOL    HW1  236   0.336   1.633   2.964  0.5728  0.0291 -0.0647
   79SOL    HW2  237   0.314   1.781   3.054  2.3260  1.1771  2.7971
   80SOL     OW  238   1.597   1.521   1.558  0.2367  0.1530  0.0594
   80SOL    HW1  239   1.647   1.599   1.600 -0.5773 -1.7989  1.4106
   80SOL    HW2  240   1.506   1.540   1.512 -0.7081  1.3911  0.5116
   81SOL     OW  241   2.268   0.770   2.239 -0.3557 -0.0073 -0.2509
   81SOL    HW1  242   2.303   0.677   2.227 -1.8849  2.7084 -1.9360
   81SOL    HW2  243   2.171   0.768   2.271 -0.9727 -2.3183 -0.7805
   82SOL     OW  244   1.669   1.287   1.691  0.7587 -0.0096 -0.1003
   82SOL    HW1  245   1.654   1.372   1.631 -0.5625  1.2688  1.5402
   82SOL    HW2  246   1.608   1.289   1.772 -0.3466  0.6788  1.3446
   83SOL     OW  247   0.202   0.256   3.064 -0.3329 -0.2455 -0.2712
   83SOL    HW1  248   0.103   0.277   3.077  1.1735 -1.3038  0.6538
   83SOL    HW2  249   0.212   0.182   2.994 -1.1303 -0.0005  0.3192
   84SOL     OW  250   0.387   1.243   3.049  0.3817 -0.7044 -0.2782
   84SOL    HW1  251   0.487   1.251   3.023  0.6611 -1.3963 -1.8131
   84SOL    HW2  252   0.358   1.148   3.030  1.0018  0.3677  1.3799
   85SOL     OW  253   2.204   1.507   1.932 -0.3633 -0.0238 -0.1697
   85SOL    HW1  254   2.296   1.471   1.913 -3.4738  2.3724 -1.1389
   85SOL    HW2  255   2.202   1.535   2.032  0.6912 -4.3973  2.5682
   86SOL     OW  256   0.743   1.028   1.144  0.9378  0.4610  0.4604
   86SOL    HW1  257   0.827   0.986   1.175 -1.0733  3.1215  0.7112
   86SOL    HW2  258   0.692   0.962   1.083 -2.0790 -1.3602  0.6835
   87SOL     OW  259   2.486   2.032   2.352  0.0153 -0.0897  0.9428
   87SOL    HW1  260   2.563   2.100   2.343 -1.3429  2.4759 -0.6163
   87SOL    HW2  261   2.396   2.077   2.370  0.2940  1.4556  3.4316
   88SOL     OW  262   0.350   2.828   0.233  0.0978  0.3225  0.5060
   88SOL    HW1  263   0.345   2.863   0.329  2.0049  1.3664 -1.4827
   88SOL    HW2  264   0.448   2.832   0.206 -2.7360  1.9882 -0.3376
   89SOL     OW  265   1.724   0.612   0.131  0.3499 -0.2791 -0.2698
   89SOL    HW1  266   1.661   0.677   0.086 -0.6829  0.3803 -1.6538
   89SOL    HW2  267   1.814   0.608   0.082 -0.3797  1.6897 -2.2720
   90SOL     OW  268   2.938   1.542   2.166  0.0997  0.5045  0.0230
   90SOL    HW1  269   2.886   1.455   2.173  0.5012  0.2428 -1.9080
   90SOL    HW2  270   2.998   1.561   2.243  1.5361 -2.0021 -1.9476
   91SOL     OW  271   2.147   2.946   1.398  0.4807  0.3528  0.6259
   91SOL    HW1  272   2.221   2.970   1.334  0.6160 -1.1556  2.7004
   91SOL    HW2  273   2.068   3.006   1.379  3.8174  0.5623  0.6483
   92SOL     OW  274   2.109   1.625   1.172  0.4675 -0.1116  0.2411
   92SOL    HW1  275   2.162   1.574   1.099 -2.2123  0.7201  0.8924
   92SOL    HW2  276   2.173   1.670   1.232  0.0840  2.6172 -3.9774
   93SOL     OW  277   0.266   1.322   0.164  0.2835  0.0532 -0.2941
   93SOL    HW1  278   0.230   1.417   0.146  1.0765  1.1331  2.6236
   93SOL    HW2  279   0.310   1.277   0.083 -3.4333  1.9268 -1.5154
   94SOL     OW  280   1.068   2.604   1.838  0.3732  0.0165 -0.3549
   94SOL    HW1  281   1.023   2.581   1.929 -0.1927 -0.0983  0.6568
   94SOL    HW2  282   1.159   2.562   1.821  0.6821 -0.3273 -0.0245
   95SOL     OW  283   0.293   0.588   0.763 -0.0605 -0.7704 -0.0921
   95SOL    HW1  284   0.348   0.676   0.769 -2.3879  2.4189 -1.3731
   95SOL    HW2  285   0.239   0.571   0.850 -2.3982 -1.8344 -0.0530
   96SOL     OW  286   0.038   2.867   1.656  0.7741 -0.1868  0.1641
   96SOL    HW1  287   3.056   2.891   1.697 -1.5956  0.4282  3.0349
   96SOL    HW2  288   0.029   2.794   1.584 -1.7219  1.4337  1.2193
   97SOL     OW  289   2.478   0.427   1.321 -0.0323 -0.1398  0.0140
   97SOL    HW1  290   2.422   0.511   1.324  0.8194  0.6705 -1.1944
   97SOL    HW2  291   2.516   0.407   1.227 -0.5365  0.2643 -0.5617
   98SOL     OW  292   3.097   2.355   1.461  0.0595  0.0424  0.1200
   98SOL    HW1  293   2.999   2.363   1.440 -1.7860  4.0476 -1.9587
   98SOL    HW2  294   0.047   2.353   1.375  1.9150  0.3166 -1.3102
   99SOL     OW  295   0.013   0.486   1.245  0.0626 -0.0757 -0.0030
   99SOL    HW1  296   0.075   0.406   1.230  1.2252 -0.3306  0.2888
   99SOL    HW2  297   3.091   0.474   1.344 -0.8273 -2.1742  0.8066
  100SOL     OW  298   2.440   0.360   2.517  0.1198  0.2014  0.0295
  100SOL    HW1  299   2.416   0.261   2.512  0.7121  3.3836  1.5243
  100SOL    HW2  300   2.438   0.381   2.615  0.6294 -1.0053  2.2909
  101SOL     OW  301   0.460   0.114   2.110 -0.0702  0.0226  0.0342
  101SOL    HW1  302   0.487   0.168   2.029 -0.7729  0.8335  2.2103
  101SOL    HW2  303   0.543   0.066   2.148 -0.2323 -0.0157 -0.1340
  102SOL     OW  304   0.661   0.365   1.503  0.1321  0.5877  0.6814
  102SOL    HW1  305   0.582   0.420   1.464 -1.7905 -0.4440  0.0013
  102SOL    HW2  306   0.669   0.378   1.604  0.0252 -0.1040  0.1828
  103SOL     OW  307   1.021   0.894   2.459 -0.4906 -0.2747  0.0347
  103SOL    HW1  308   1.113   0.873   2.423 -1.1243 -0.2794 -0.9880
  103SOL    HW2  309   0.953   0.863   2.386 -1.9416 -2.9704 -0.7113
  104SOL     OW  310   0.251   0.454   1.842  0.0526 -0.4204  0.1588
  104SOL    HW1  311   0.159   0.425   1.867  2.9890  3.7927 -0.1329
  104SOL    HW2  312   0.315   0.374   1.851  0.8702  1.6847  0.9146
  105SOL     OW  313   2.396   2.061   1.725  0.7731 -0.3520 -0.0128
  105SOL    HW1  314   2.463   2.039   1.654 -2.7824  0.5582  0.7023
  105SOL    HW2  315   2.302   2.077   1.691 -1.2239 -1.3838 -0.1647
  106SOL     OW  316   1.432   0.077   0.393  0.4416  0.2361  0.8522
  106SOL    HW1  317   1.342   0.044   0.426 -1.1864 -0.1965 -3.2104
  106SOL    HW2  318   1.415   0.168   0.350  0.9550 -0.9020  0.4737
  107SOL     OW  319   2.384   2.067   1.379 -0.6355 -0.1217  0.0039
  107SOL    HW1  320   2.486   2.066   1.383  1.5982  0.3158  1.3475
  107SOL    HW2  321   2.343   2.026   1.295  2.3941 -1.2636  0.4156
  108SOL     OW  322   0.156   2.203   0.761  0.3773 -0.0477 -0.4463
  108SOL    HW1  323   0.121   2.238   0.669  0.6427  0.8876 -0.6308
  108SOL    HW2  324   0.184   2.276   0.823 -3.3082 -1.7815  1.3314
  109SOL     OW  325   1.437   2.756   0.781 -0.1970 -0.2693  0.0863
  109SOL    HW1  326   1.498   2.680   0.756  1.6616 -0.2066 -1.3144
  109SOL    HW2  327   1.349   2.735   0.830  0.1532 -0.7146 -1.1807
  110SOL     OW  328   1.918   1.716   0.998  0.5276  0.6348 -0.4677
  110SOL    HW1  329   2.007   1.708   1.048 -2.0314 -0.1179 -1.7353
  110SOL    HW2  330   1.870   1.629   0.999  4.1062  3.1569 -0.8932
  111SOL     OW  331   1.468   2.513   1.963 -0.1613 -0.1252  0.3543
  111SOL    HW1  332   1.559   2.492   1.921 -0.3099 -1.0847  2.7821
  111SOL    HW2  333   1.488   2.576   2.042  0.1856  2.8901  2.1648
  112SOL     OW  334   2.076   2.191   2.945  0.3893  0.2833 -0.2120
  112SOL    HW1  335   2.085   2.136   2.857 -0.1716  1.0080  3.4759
  112SOL    HW2  336   2.110   2.140   3.025 -0.0436 -0.0866 -2.4998
  113SOL     OW  337   2.084   1.730   1.768  0.4202  0.2627  0.2700
  113SOL    HW1  338   2.116   1.641   1.803 -0.6026  1.0224  1.0966
  113SOL    HW2  339   2.030   1.722   1.685  2.1895  0.0328  1.8746
  114SOL     OW  340   2.974   1.221   1.818 -0.0015  0.3074 -0.4348
  114SOL    HW1  341   2.914   1.189   1.894 -1.6187 -1.5983 -0.4453
  114SOL    HW2  342   2.957   1.322   1.805 -0.1632  3.9219 -0.0170
  115SOL     OW  343   2.958   0.946   0.177 -0.7335  0.3931 -1.0162
  115SOL    HW1  344   3.038   1.012   0.168  2.3867 -1.6303 -0.8679
  115SOL    HW2  345   2.977   0.879   0.251 -1.5092  0.0400 -0.3419
  116SOL     OW  346   2.908   0.759   3.078  0.9467 -0.0726 -0.0092
  116SOL    HW1  347   2.932   0.829   0.040  0.0465  2.5602  0.5523
  116SOL    HW2  348   2.885   0.806   2.992 -0.2303 -1.0684 -1.8975
  117SOL     OW  349   2.686   2.212   3.041 -0.3770  0.5227  0.4101
  117SOL    HW1  350   2.708   2.305   3.005 -0.8959 -0.1976 -3.0869
  117SOL    HW2  351   2.611   2.175   2.984 -0.5877 -0.9892  0.1654
  118SOL     OW  352   0.642   2.065   2.559  0.7189  0.0911 -0.1155
  118SOL    HW1  353   0.648   2.150   2.615  1.1898 -1.3434 -0.0961
  118SOL    HW2  354   0.549   2.025   2.573  2.6430 -0.6879 -0.4900
  119SOL     OW  355   0.786   2.754   0.236  0.1582  0.0199  0.2691
  119SOL    HW1  356   0.749   2.675   0.291  1.4054 -3.2897  1.9819
  119SOL    HW2  357   0.850   2.810   0.295  1.2546  1.2896  0.2912
  120SOL     OW  358   1.378   0.972   0.226 -0.6355  0.1802 -0.0230
  120SOL    HW1  359   1.367   0.925   0.314  0.0347  0.8244 -1.0808
  120SOL    HW2  360   1.415   0.902   0.160  3.2391 -2.0120  1.1673
  121SOL     OW  361   1.425   3.039   0.762  0.3294  0.1856  0.2391
  121SOL    HW1  362   1.430   2.936   0.778 -0.5590  3.1374 -1.2684
  121SOL    HW2  363   1.507   3.073   0.712 -3.5143 -0.1011 -0.7576
  122SOL     OW  364   2.549   1.398   2.292  0.4621 -0.4088 -0.3486
  122SOL    HW1  365   2.524   1.337   2.217  0.4266 -0.5208  2.1746
  122SOL    HW2  366   2.509   1.492   2.273  0.8545  3.2923  0.3807
  123SOL     OW  367   1.325   1.104   1.425 -0.1316  0.3210 -0.0611
  123SOL    HW1  368   1.325   1.126   1.525  0.5768 -0.8442 -1.6797
  123SOL    HW2  369   1.339   1.003   1.405  0.3853 -0.5804  1.6623
  124SOL     OW  370   0.731   0.489   0.115 -0.1690  0.0537 -0.4994
  124SOL    HW1  371   0.678   0.401   0.111  1.1139  0.8352 -2.1942
  124SOL    HW2  372   0.666   0.568   0.103 -0.1688 -0.4094  1.8709
  125SOL     OW  373   0.662   0.466   0.428  0.1670 -0.3962  0.5310
  125SOL    HW1  374   0.706   0.376   0.450 -0.7711 -2.3716  1.8284
  125SOL    HW2  375   0.734   0.525   0.384  1.2451  3.3118 -0.4518
  126SOL     OW  376   0.184   1.597   0.396 -0.7911  0.0521 -0.5732
  126SOL    HW1  377   0.141   1.688   0.392  1.9513 -1.2857 -2.3383
  126SOL    HW2  378   0.285   1.617   0.372  1.7348  0.7423 -0.4168
  127SOL     OW  379   0.644   2.735   1.678  1.0013 -0.5712 -0.3238
  127SOL    HW1  380   0.562   2.787   1.651  0.2328 -2.9503 -2.3122
  127SOL    HW2  381   0.693   2.781   1.754  0.6738  0.2682 -1.2676
  128SOL     OW  382   1.063   1.814   0.384  0.3808 -0.0085 -0.0566
  128SOL    HW1  383   1.028   1.716   0.389 -2.3921  1.6339  1.2514
  128SOL    HW2  384   1.162   1.820   0.385 -1.8215 -1.9142  2.0316
  129SOL     OW  385   1.845   1.613   1.940 -0.3285  0.3431 -0.0496
  129SOL    HW1  386   1.817   1.672   1.864 -0.6320  0.2979 -0.1072
  129SOL    HW2  387   1.892   1.532   1.903  1.1512 -0.2997 -0.9728
  130SOL     OW  388   1.822   2.099   1.558 -0.3037 -0.0073 -0.2147
  130SOL    HW1  389   1.922   2.095   1.559 -1.7865 -2.1613  2.3235
  130SOL    HW2  390   1.792   2.083   1.462 -0.5993  2.1631 -0.1407
  131SOL     OW  391   0.153   2.251   1.931 -0.0267 -0.4319 -0.3067
  131SOL    HW1  392   0.101   2.223   1.846  1.4754 -3.8773 -1.6819
  131SOL    HW2  393   0.239   2.301   1.906  1.4362  0.2715 -0.5639
  132SOL     OW  394   2.691   1.918   0.840 -0.1000  0.6050 -0.6617
  132SOL    HW1  395   2.770   1.966   0.793 -0.2885  3.6951  1.5457
  132SOL    HW2  396   2.617   1.988   0.862 -2.4186 -1.0163  1.2795
  133SOL     OW  397   0.506   0.873   1.625  0.2355  0.2040 -0.1538
  133SOL    HW1  398   0.583   0.910   1.564  6.5436 -0.2860 -0.9964
  133SOL    HW2  399   0.533   0.785   1.670 -1.9924 -1.7525  0.7740
  134SOL     OW  400   2.377   1.755   0.203 -0.3396 -0.1293  0.8909
  134SOL    HW1  401   2.340   1.778   0.290 -0.8969 -0.1084  0.0211
  134SOL    HW2  402   2.305   1.736   0.128 -0.4909 -0.5358 -0.6873
  135SOL     OW  403   1.871   1.006   2.438  0.3921 -0.3642 -0.1314
  135SOL    HW1  404   1.782   0.966   2.474  0.9444  1.9165 -0.1774
  135SOL    HW2  405   1.951   0.991   2.502 -0.5697  2.8748  1.1694
  136SOL     OW  406   2.767   1.735   1.460 -1.1624  0.8228 -0.2121
  136SOL    HW1  407   2.840   1.661   1.474  0.5132 -1.0627 -1.5495
  136SOL    HW2  408   2.694   1.726   1.530  0.2123  2.7563 -5.7302
  137SOL     OW  409   2.595   1.828   0.550 -0.6407 -0.3454  0.1971
  137SOL    HW1  410   2.696   1.809   0.560  0.1889 -1.8206  3.1104
  137SOL    HW2  411   2.596   1.929   0.556  0.8405  0.5283  0.9394
  138SOL     OW  412   2.873   0.731   0.698 -0.1823  0.3199 -0.0426
  138SOL    HW1  413   2.847   0.729   0.595 -1.4051 -2.0174 -2.4218
  138SOL    HW2  414   2.829   0.657   0.750  1.0134  0.6897 -0.2412
  139SOL     OW  415   0.041   3.063   0.020 -0.3672 -0.1606 -0.7096
  139SOL    HW1  416   0.002   0.007   0.102 -0.8702 -0.6185  1.7049
  139SOL    HW2  417   0.144   3.056   0.027 -0.5094 -0.0740  0.5788
  140SOL     OW  418   0.790   1.133   1.488 -0.2993 -0.3035  0.0584
  140SOL    HW1  419   0.750   1.186   1.564  0.2948 -2.7329 -2.9472
  140SOL    HW2  420   0.725   1.065   1.457 -0.6440  2.4222  1.7084
  141SOL     OW  421   1.390   1.450   1.069 -0.7678 -0.6568  0.4095
  141SOL    HW1  422   1.350   1.411   1.154 -1.5752 -0.9778 -1.5881
  141SOL    HW2  423   1.366   1.549   1.063 -2.1492 -0.7247  1.2566
  142SOL     OW  424   1.256   0.650   1.179  0.0947  0.0403  0.6155
  142SOL    HW1  425   1.205   0.689   1.101 -1.4412 -2.4781 -2.8337
  142SOL    HW2  426   1.197   0.590   1.237 -1.9647 -2.0140 -0.4785
  143SOL     OW  427   0.686   1.225   2.455  0.2508 -0.2663 -0.2156
  143SOL    HW1  428   0.627   1.287   2.508  1.7884 -1.7225 -2.0784
  143SOL    HW2  429   0.657   1.218   2.354 -0.6596  2.2687  0.8717
  144SOL     OW  430   2.354   3.067   0.283 -0.1620  0.2245  0.7492
  144SOL    HW1  431   2.424   0.029   0.252  3.8118  1.9044  0.0646
  144SOL    HW2  432   2.365   2.982   0.230 -1.0747  0.4422 -1.3811
  145SOL     OW  433   2.483   0.419   2.779  0.5949  0.5944  0.2211
  145SOL    HW1  434   2.399   0.475   2.800 -1.8443  2.8723  1.8810
  145SOL    HW2  435   2.564   0.482   2.785  0.3075 -2.3180  0.3471
  146SOL     OW  436   2.874   2.948   0.531  0.3030 -0.5040 -0.0649
  146SOL    HW1  437   2.936   2.894   0.594 -0.3951  1.9288  0.7642
  146SOL    HW2  438   2.802   2.881   0.498 -0.5351 -0.5238  0.5582
  147SOL     OW  439   1.307   1.226   2.959  0.2337 -0.2151 -0.3553
  147SOL    HW1  440   1.310   1.294   2.885 -0.6656  1.3162 -2.1397
  147SOL    HW2  441   1.300   1.137   2.911  1.1851  0.7359  0.9159
  148SOL     OW  442   1.409   0.147   0.037 -0.0093  0.1426 -0.1054
  148SOL    HW1  443   1.430   0.052   0.067  0.7822 -0.2894  0.9433
  148SOL    HW2  444   1.344   0.151   3.067 -0.8139  2.0227  0.9379
  149SOL     OW  445   1.503   0.152   1.943 -0.0151 -0.0742 -0.4856
  149SOL    HW1  446   1.586   0.125   1.996  1.7031 -2.4667  1.1188
  149SOL    HW2  447   1.497   0.253   1.946 -1.3833  0.9011  0.5477
  150SOL     OW  448   2.143   3.067   3.072 -0.0037  0.1258  0.1217
  150SOL    HW1  449   2.116   3.005   0.037  2.7245  0.9603 -1.5412
  150SOL    HW2  450   2.237   3.036   3.043 -0.8912 -1.1357  0.1248
  151SOL     OW  451   0.473   1.547   0.071 -0.1154  0.1212 -0.0912
  151SOL    HW1  452   0.373   1.560   0.068  1.3748  0.3372 -0.9795
  151SOL    HW2  453   0.483   1.462   0.019  0.0788  0.3621 -2.6206
  152SOL     OW  454   0.203   0.287   1.236 -0.4389 -0.2118  0.1135
  152SOL    HW1  455   0.281   0.313   1.179 -2.5488  2.2667 -1.5057
  152SOL    HW2  456   0.234   0.248   1.325 -0.3612  1.1489  0.6234
  153SOL     OW  457   2.708   2.840   1.979  0.4949 -0.0244  0.2507
  153SOL    HW1  458   2.808   2.869   1.986  3.2030  2.3929 -1.0320
  153SOL    HW2  459   2.671   2.831   2.071  2.5502  0.4496 -4.0916
  154SOL     OW  460   2.290   3.013   2.519  0.0979  0.2564  0.3600
  154SOL    HW1  461   2.250   2.932   2.473  1.2618  3.0365 -0.6065
  154SOL    HW2  462   2.213   3.077   2.543  0.0888  1.6385  3.0340
  155SOL     OW  463   0.352   1.065   0.683  0.7332  0.4130  0.4557
  155SOL    HW1  464   0.287   1.135   0.715  4.6239 -1.2855 -1.5896
  155SOL    HW2  465   0.443   1.103   0.667 -0.0103  0.9857  0.0722
  156SOL     OW  466   2.459   1.710   0.804 -0.6494  0.1580 -0.4408
  156SOL    HW1  467   2.491   1.616   0.779  1.3472 -3.3638  2.0619
  156SOL    HW2  468   2.511   1.784   0.756 -0.7092 -2.0512  0.9034
  157SOL     OW  469   0.984   0.394   0.092 -0.1875  0.0952 -0.1534
  157SOL    HW1  470   0.896   0.418   0.136  0.9950  2.0640 -2.7046
  157SOL    HW2  471   1.042   0.366   0.171  0.1273  1.2188 -2.1923
  158SOL     OW  472   1.661   0.872   1.012 -0.4386  0.0215 -0.0281
  158SOL    HW1  473   1.641   0.969   1.044 -1.8647 -3.0801 -1.8480
  158SOL    HW2  474   1.581   0.818   1.029  4.8384  2.4835  0.5252
  159SOL     OW  475   0.081   0.545   0.274 -0.4737 -0.0361  0.5623
  159SOL    HW1  476   0.107   0.560   0.372 -0.6323  0.1614  2.7083
  159SOL    HW2  477   0.161   0.516   0.214  1.2607  0.8366 -1.9971
  160SOL     OW  478   2.505   2.056   1.957 -0.4262 -0.5073  0.3583
  160SOL    HW1  479   2.446   2.054   1.875  2.5741  2.4138  0.2348
  160SOL    HW2  480   2.518   2.147   1.996  1.0191  0.0715  1.4966
  161SOL     OW  481   0.369   0.972   3.012 -0.3678 -0.0605 -0.5766
  161SOL    HW1  482   0.446   0.911   2.977  0.2483 -0.6037 -3.9030
  161SOL    HW2  483   0.373   0.975   0.005 -0.6999 -1.5503  2.2243
  162SOL     OW  484   0.416   0.644   1.958 -0.8073 -0.4521  0.2486
  162SOL    HW1  485   0.499   0.653   1.901 -3.7794  2.0596  0.0495
  162SOL    HW2  486   0.352   0.578   1.913 -0.4165 -0.7365  0.4313
  163SOL     OW  487   2.843   2.959   2.695 -0.2773 -0.3038 -0.0619
  163SOL    HW1  488   2.869   2.985   2.792 -1.5041  2.3486  0.8249
  163SOL    HW2  489   2.800   3.042   2.655  1.5044  1.1231 -0.9501
  164SOL     OW  490   2.411   2.231   0.220  0.3229  0.4668  0.1738
  164SOL    HW1  491   2.392   2.224   0.117  0.2869 -1.3180 -0.4959
  164SOL    HW2  492   2.503   2.185   0.229 -3.4688 -1.9298 -2.6583
  165SOL     OW  493   0.397   0.287   1.023 -0.3436 -0.3462 -0.3637
  165SOL    HW1  494   0.465   0.320   0.954 -0.0653 -0.9418  1.2555
  165SOL    HW2  495   0.434   0.205   1.073  0.7519 -1.8398 -0.5152
  166SOL     OW  496   2.467   0.464   0.337 -0.2951  0.6982 -0.2523
  166SOL    HW1  497   2.534   0.417   0.274 -0.5747  2.1170  0.7395
  166SOL    HW2  498   2.487   0.443   0.432 -1.3805 -0.4327 -0.3634
  167SOL     OW  499   2.445   0.772   0.074  0.0446  0.0742 -0.9691
  167SOL    HW1  500   2.517   0.713   0.033  2.3783 -0.0114 -0.7564
  167SOL    HW2  501   2.379   0.711   0.126 -0.5610  0.4987 -0.7924
  168SOL     OW  502   1.341   2.942   2.342 -0.5939  0.0000 -0.0957
  168SOL    HW1  503   1.241   2.968   2.336 -1.4284  0.0219  2.0407
  168SOL    HW2  504   1.399   3.023   2.329 -0.2697 -1.6996 -1.4465
  169SOL     OW  505   0.302   1.963   0.552  0.3595 -0.2529 -0.0867
  169SOL    HW1  506   0.269   1.965   0.648 -0.2363  0.0966  1.5295
  169SOL    HW2  507   0.400   1.944   0.552  1.7554  0.8855 -1.4178
  170SOL     OW  508   0.032   0.755   1.261  0.4303  0.2087 -0.2782
  170SOL    HW1  509   0.018   0.659   1.277  3.8435  0.4946  0.1943
  170SOL    HW2  510   3.070   0.782   1.197  2.9871  0.8705  2.2118
  171SOL     OW  511   2.816   1.328   2.341 -0.1295  0.0357  0.1267
  171SOL    HW1  512   2.821   1.224   2.350  0.9970 -1.5809  0.8687
  171SOL    HW2  513   2.719   1.361   2.332  1.1724  1.1959 -0.1005
  172SOL     OW  514   0.858   1.892   1.314  0.0065  0.1188 -0.2601
  172SOL    HW1  515   0.905   1.929   1.230 -0.8404 -1.4951  0.4224
  172SOL    HW2  516   0.923   1.851   1.381 -0.7487 -0.8495  0.5568
  173SOL     OW  517   1.822   1.806   3.011 -0.1800  0.0044 -0.0427
  173SOL    HW1  518   1.868   1.770   3.095  1.0698  2.8376 -5.2258
  173SOL    HW2  519   1.719   1.801   3.026 -2.9447  1.5445  0.8663
  174SOL     OW  520   1.824   0.777   2.899 -0.6644  0.3380  0.4083
  174SOL    HW1  521   1.868   0.853   2.843  0.4692  0.4111 -1.9920
  174SOL    HW2  522   1.896   0.730   2.954 -3.0316  1.4438  1.5342
  175SOL     OW  523   0.680   1.729   1.436 -0.4449 -0.4365  0.2347
  175SOL    HW1  524   0.626   1.766   1.514 -0.1939 -0.5790 -0.0411
  175SOL    HW2  525   0.751   1.798   1.402 -1.7816  0.5600  1.0905
  176SOL     OW  526   0.816   0.079   0.395  0.2171  0.0254 -0.3861
  176SOL    HW1  527   0.742   0.073   0.465  2.1546 -0.7467  3.3110
  176SOL    HW2  528   0.782   0.049   0.303  2.1051 -3.1555 -1.0798
  177SOL     OW  529   0.204   1.326   0.457  0.7681 -0.1513 -0.4115
  177SOL    HW1  530   0.208   1.426   0.433 -1.0144 -0.7086 -1.9044
  177SOL    HW2  531   0.254   1.274   0.380  0.2958  2.0658  1.1490
  178SOL     OW  532   2.953   2.316   2.443  0.2394  0.0116 -0.2887
  178SOL    HW1  533   2.998   2.387   2.500  1.4151 -2.0517  1.6467
  178SOL    HW2  534   3.004   2.226   2.461 -0.5736 -1.0847  0.8253
  179SOL     OW  535   2.710   2.738   2.646 -0.2543 -0.1395 -0.3570
  179SOL    HW1  536   2.712   2.709   2.548 -1.5614  1.3400 -1.1999
  179SOL    HW2  537   2.761   2.831   2.649  0.0193  2.2410  1.3644
  180SOL     OW  538   2.266   0.349   0.926  0.1530 -0.2955 -0.8282
  180SOL    HW1  539   2.193   0.371   0.994 -1.6426  1.6127 -1.0015
  180SOL    HW2  540   2.301   0.435   0.877  0.6629 -0.0435  1.2050
  181SOL     OW  541   2.844   0.311   2.461  0.2639 -0.0175  0.4673
  181SOL    HW1  542   2.896   0.278   2.381 -0.6205  0.7792 -1.2909
  181SOL    HW2  543   2.814   0.229   2.513  0.1066 -1.0190  0.7279
  182SOL     OW  544   2.234   2.162   2.388 -0.3881 -0.5081  0.5177
  182SOL    HW1  545   2.195   2.089   2.327  2.8424  1.2814 -1.5251
  182SOL    HW2  546   2.165   2.234   2.402 -1.2282  0.4752  0.5271
  183SOL     OW  547   2.528   0.477   1.873  0.6516  0.2173 -0.0388
  183SOL    HW1  548   2.444   0.537   1.870 -1.6991  2.9118  0.4058
  183SOL    HW2  549   2.540   0.420   1.791  0.8302 -0.8573 -0.0325
  184SOL     OW  550   2.952   1.522   0.565  0.0320  0.1249  0.2134
  184SOL    HW1  551   3.031   1.493   0.626  3.2126  1.6533 -0.0751
  184SOL    HW2  552   2.926   1.619   0.576  0.7957  0.6899 -0.0803
  185SOL     OW  553   2.684   0.244   0.752 -0.2340 -0.4190  0.0748
  185SOL    HW1  554   2.772   0.193   0.758  0.1343  1.4368  0.4612
  185SOL    HW2  555   2.609   0.181   0.781  0.4515  2.6658  1.4366
  186SOL     OW  556   2.098   2.636   2.942 -0.2053 -0.0706  0.1982
  186SOL    HW1  557   2.034   2.625   3.024  1.4503  1.6418  1.9214
  186SOL    HW2  558   2.130   2.730   2.923  1.3288 -0.0059 -2.0965
  187SOL     OW  559   0.411   1.609   0.700  0.1296  0.4149 -0.5473
  187SOL    HW1  560   0.395   1.647   0.794 -0.4657 -1.4874 -0.6729
  187SOL    HW2  561   0.423   1.685   0.629  0.8204  2.2921 -0.2487
  188SOL     OW  562   2.020   1.749   0.735  0.0315 -0.0886 -0.5306
  188SOL    HW1  563   1.980   1.715   0.819 -0.3954  2.4381 -0.7223
  188SOL    HW2  564   1.972   1.834   0.701  1.8462  0.0400 -0.2822
  189SOL     OW  565   3.000   1.365   2.881 -0.3246  0.2927 -0.7304
  189SOL    HW1  566   3.023   1.276   2.829  2.2904 -1.6542 -1.1532
  189SOL    HW2  567   2.907   1.395   2.856  3.5001  0.2977 -1.6360
  190SOL     OW  568   2.614   0.421   2.321 -0.4011  0.1948 -0.1202
  190SOL    HW1  569   2.702   0.384   2.355 -0.6313 -0.4119  0.2782
  190SOL    HW2  570   2.542   0.396   2.396 -1.7833 -1.2028  0.0531
  191SOL     OW  571   1.156   0.519   2.353  0.2807 -0.5186 -0.3536
  191SOL    HW1  572   1.086   0.521   2.428 -0.1828 -2.0862  0.4415
  191SOL    HW2  573   1.203   0.609   2.350 -0.1674 -1.5909 -0.9705
  192SOL     OW  574   1.222   1.886   2.115  0.0099 -0.2865  0.4268
  192SOL    HW1  575   1.152   1.828   2.066 -0.8435  1.3518 -0.8736
  192SOL    HW2  576   1.178   1.954   2.176 -1.0497  0.8121  1.9548
  193SOL     OW  577   1.291   2.628   1.115 -0.1893  0.1306  0.1441
  193SOL    HW1  578   1.272   2.661   1.214 -0.4067  2.5796  2.3573
  193SOL    HW2  579   1.240   2.684   1.044  1.6664  0.5689  0.3105
  194SOL     OW  580   1.040   1.731   1.940 -0.0960  0.5417  0.2873
  194SOL    HW1  581   1.104   1.652   1.922  1.1296  0.8982 -1.4966
  194SOL    HW2  582   1.019   1.782   1.855  0.2425 -1.0558  0.8508
  195SOL     OW  583   1.941   0.377   0.669 -0.8033  0.4811 -0.0765
  195SOL    HW1  584   1.862   0.317   0.659  0.8160  1.1204 -2.5721
  195SOL    HW2  585   2.020   0.343   0.617 -0.6802 -0.2469 -0.8107
  196SOL     OW  586   1.325   1.533   2.399  0.3315  0.5525  0.0176
  196SOL    HW1  587   1.410   1.502   2.443 -4.9733  1.9358 -2.3366
  196SOL    HW2  588   1.244   1.495   2.450  0.4134 -1.0518 -1.1969
  197SOL     OW  589   0.171   0.120   1.858 -0.2420  0.3430 -0.2769
  197SOL    HW1  590   0.106   0.088   1.930 -0.1048  0.0607 -1.4122
  197SOL    HW2  591   0.231   0.195   1.887  0.2906  1.5666  0.9316
  198SOL     OW  592   0.091   1.256   1.057  0.2524 -0.0510 -0.1559
  198SOL    HW1  593   0.175   1.203   1.082 -1.2083  3.4607 -0.1282
  198SOL    HW2  594   0.042   1.226   0.971 -0.2459  0.1206  1.6466
  199SOL     OW  595   0.292   2.447   0.742 -0.1605  0.1842  0.0456
  199SOL    HW1  596   0.314   2.367   0.675 -1.1475 -3.9320  0.0819
  199SOL    HW2  597   0.374   2.481   0.796  0.9911 -0.9728  1.1825
  200SOL     OW  598   1.906   1.525   2.938 -0.2536 -0.4308  0.8303
  200SOL    HW1  599   1.894   1.608   2.994 -0.2297  0.5383 -1.2921
  200SOL    HW2  600   1.913   1.433   2.987  0.1320  0.4224 -0.6229
  201SOL     OW  601   0.489   2.322   1.603  0.1489 -0.2223 -0.6324
  201SOL    HW1  602   0.581   2.290   1.578  0.9915 -0.6006 -0.1801
  201SOL    HW2  603   0.416   2.274   1.555  0.8827  3.3171 -0.8858
  202SOL     OW  604   1.247   2.681   2.851  0.2367  0.5387  0.5497
  202SOL    HW1  605   1.196   2.651   2.933 -0.6369  1.0935  0.2246
  202SOL    HW2  606   1.231   2.781   2.835 -0.2743  1.0670 -0.1392
  203SOL     OW  607   1.520   0.590   2.287  0.0917  0.1158 -0.5890
  203SOL    HW1  608   1.610   0.557   2.326 -0.7589 -0.2241  0.8085
  203SOL    HW2  609   1.541   0.627   2.195 -0.2990  0.4730 -1.1621
  204SOL     OW  610   0.443   1.221   1.319 -0.6203  0.2333 -0.2921
  204SOL    HW1  611   0.380   1.219   1.240 -0.2551 -0.2044 -0.3545
  204SOL    HW2  612   0.528   1.262   1.284 -3.2300 -0.9316  2.8566
  205SOL     OW  613   2.497   1.037   2.420 -0.0457 -0.3019 -0.2569
  205SOL    HW1  614   2.462   1.126   2.458 -0.3246 -0.2263  1.0119
  205SOL    HW2  615   2.498   1.031   2.318 -2.0676 -0.0384  1.8967
  206SOL     OW  616   0.392   1.969   2.627 -0.2387 -0.2168  0.0039
  206SOL    HW1  617   0.337   2.045   2.676 -1.0040  0.9599 -0.5069
  206SOL    HW2  618   0.431   1.902   2.692 -0.0536 -1.2037  0.2100
  207SOL     OW  619   0.551   0.083   1.704 -0.0061 -0.1956 -0.1786
  207SOL    HW1  620   0.610   0.054   1.625  3.3809 -2.8912 -0.6475
  207SOL    HW2  621   0.518   0.004   1.756 -0.0037  0.4669 -1.9348
  208SOL     OW  622   0.600   2.487   1.349 -0.4064 -0.9020  0.4526
  208SOL    HW1  623   0.631   2.431   1.272  0.2551 -1.4999 -1.3121
  208SOL    HW2  624   0.500   2.485   1.358  0.4183 -2.8013 -0.5256
  209SOL     OW  625   1.466   2.486   2.833 -0.9331  0.5449 -0.7591
  209SOL    HW1  626   1.384   2.544   2.827 -0.0250 -1.9630 -0.9860
  209SOL    HW2  627   1.436   2.390   2.838  1.2724 -1.3610 -0.5023
  210SOL     OW  628   2.686   1.402   1.635  0.0493  0.1972  0.1660
  210SOL    HW1  629   2.772   1.444   1.677  1.2444  1.8353  0.0876
  210SOL    HW2  630   2.600   1.446   1.659  0.0456  2.4291  1.5415
  211SOL     OW  631   1.215   0.147   1.849 -0.0804  0.3176  0.0648
  211SOL    HW1  632   1.274   0.161   1.933 -0.4399 -2.4387  0.7963
  211SOL    HW2  633   1.281   0.144   1.765  4.2906 -0.8560 -0.8903
  212SOL     OW  634   0.969   2.301   1.528  0.0666 -0.0144  0.2089
  212SOL    HW1  635   1.018   2.385   1.496 -3.3799  0.5345 -1.8356
  212SOL    HW2  636   1.008   2.269   1.619  0.6943  1.5184  0.1729
  213SOL     OW  637   2.776   0.404   1.958  0.1208 -1.1411 -0.2598
  213SOL    HW1  638   2.839   0.454   1.899 -1.2866 -0.7424 -0.9162
  213SOL    HW2  639   2.679   0.431   1.930 -3.7493  1.2956  1.1500
  214SOL     OW  640   1.070   1.954   1.717 -0.3224 -0.4306  0.7961
  214SOL    HW1  641   1.136   2.008   1.658 -0.7495  0.1131 -1.9731
  214SOL    HW2  642   1.053   2.006   1.802 -0.9601  1.3643 -0.5632
  215SOL     OW  643   2.508   2.053   0.984 -0.1333 -0.0573  0.5692
  215SOL    HW1  644   2.569   2.124   1.026  4.1813  0.4207 -0.6477
  215SOL    HW2  645   2.450   1.997   1.051 -1.1598 -0.1763  2.9658
  216SOL     OW  646   2.931   0.778   1.067 -0.2709  0.6784  0.0912
  216SOL    HW1  647   2.904   0.683   1.046 -1.2389 -0.7190  0.1683
  216SOL    HW2  648   2.950   0.828   0.981 -0.6706  0.9049  2.2041
  217SOL     OW  649   2.332   0.203   1.406  0.2706  0.3036 -0.1392
  217SOL    HW1  650   2.408   0.263   1.370  0.6658 -0.5333  1.0162
  217SOL    HW2  651   2.331   0.114   1.355 -0.2333 -1.2449 -2.4659
  218SOL     OW  652   1.527   2.475   1.192 -0.7503  0.3099  0.1460
  218SOL    HW1  653   1.570   2.431   1.114  3.0396 -2.2544  3.6724
  218SOL    HW2  654   1.452   2.537   1.161 -2.0739 -1.5050 -0.8158
  219SOL     OW  655   1.707   2.067   0.273 -0.7533  0.1168 -0.1092
  219SOL    HW1  656   1.730   2.152   0.319 -3.0988 -1.8061 -2.7170
  219SOL    HW2  657   1.698   2.089   0.175 -1.4440 -1.9606  1.9303
  220SOL     OW  658   1.791   2.237   2.932 -0.3187 -0.0676 -0.5703
  220SOL    HW1  659   1.790   2.321   2.872  1.0824  2.6989 -0.8633
  220SOL    HW2  660   1.888   2.212   2.939  0.6906  2.6340 -0.2228
  221SOL     OW  661   2.980   2.370   0.801  0.0180 -0.1473 -0.3148
  221SOL    HW1  662   3.053   2.436   0.769  0.9039  0.6515 -1.2420
  221SOL    HW2  663   2.999   2.336   0.893  0.9251 -1.1506  3.6058
  222SOL     OW  664   2.007   2.565   0.799  0.3356 -0.1407  0.2723
  222SOL    HW1  665   1.932   2.630   0.816  2.7309 -0.4113  0.4373
  222SOL    HW2  666   2.078   2.586   0.866 -1.4925 -0.6661 -5.1971
  223SOL     OW  667   0.362   2.571   2.248 -0.0089  0.0599 -0.8337
  223SOL    HW1  668   0.440   2.622   2.205 -0.3040  1.1444 -0.8309
  223SOL    HW2  669   0.398   2.480   2.279  0.2966 -1.3966  3.6455
  224SOL     OW  670   2.660   2.228   1.087 -0.1263  0.5022 -0.6054
  224SOL    HW1  671   2.749   2.283   1.083 -0.5812 -1.0477 -0.6329
  224SOL    HW2  672   2.581   2.291   1.077  2.8575  1.6846  0.0452
  225SOL     OW  673   2.170   2.042   0.764 -0.2802 -0.5158  0.0407
  225SOL    HW1  674   2.177   1.955   0.815 -1.3344 -0.5641 -0.2240
  225SOL    HW2  675   2.095   2.034   0.694  2.2198 -2.2259 -0.4709
  226SOL     OW  676   1.357   2.510   0.326  0.0130 -0.8984  0.0172
  226SOL    HW1  677   1.416   2.594   0.330 -0.2569  0.4316 -0.6768
  226SOL    HW2  678   1.405   2.436   0.275 -0.4584  2.2540  0.2346
  227SOL     OW  679   1.936   0.538   0.897  0.2522 -0.3974  0.3125
  227SOL    HW1  680   1.956   0.470   0.826  2.4780  0.0795  0.8377
  227SOL    HW2  681   1.867   0.611   0.873 -3.0941  2.3534  0.1721
  228SOL     OW  682   1.237   0.806   2.118  0.3438  0.2493  0.2242
  228SOL    HW1  683   1.282   0.801   2.208 -1.4105  1.6927 -1.7021
  228SOL    HW2  684   1.234   0.903   2.077  0.4719  1.0578 -0.4418
  229SOL     OW  685   3.035   1.135   2.741  0.1602  0.1375 -0.0533
  229SOL    HW1  686   3.093   1.161   2.663 -0.7959 -0.9215 -0.3539
  229SOL    HW2  687   3.091   1.091   2.815 -1.6169  0.1682 -0.9985
  230SOL     OW  688   0.999   1.104   0.942  0.4237 -0.7497 -0.0435
  230SOL    HW1  689   1.085   1.119   0.888  1.5249 -0.7319  0.6376
  230SOL    HW2  690   1.011   1.171   1.015  0.5462 -0.4081  0.4555
  231SOL     OW  691   2.616   2.864   2.234  0.0293 -0.4134  0.0666
  231SOL    HW1  692   2.574   2.954   2.272 -3.0774  2.6898 -1.8997
  231SOL    HW2  693   2.637   2.796   2.305  0.5913  0.3295 -0.8755
  232SOL     OW  694   0.526   1.975   0.159 -0.2201  0.2873  0.1550
  232SOL    HW1  695   0.590   1.930   0.223  3.6624  1.0249 -0.9367
  232SOL    HW2  696   0.568   2.065   0.131  2.3604  1.5130  1.1421
  233SOL     OW  697   1.143   2.434   2.314 -0.0876 -0.0159 -0.2331
  233SOL    HW1  698   1.119   2.477   2.402  4.3186 -0.8536 -1.7037
  233SOL    HW2  699   1.233   2.392   2.326 -3.2988 -0.2676  2.0650
  234SOL     OW  700   1.085   1.405   1.716  0.2581  0.0726 -0.0785
  234SOL    HW1  701   1.146   1.469   1.769  2.6295 -0.2866  0.8381
  234SOL    HW2  702   1.023   1.458   1.655 -0.4006  1.2542 -0.2879
  235SOL     OW  703   0.721   2.050   1.690 -0.4049  0.0599 -0.7584
  235SOL    HW1  704   0.736   2.119   1.620 -0.4508 -3.4896 -1.4869
  235SOL    HW2  705   0.789   2.051   1.769 -0.0128  0.6918  1.2332
  236SOL     OW  706   1.621   2.803   2.625 -0.0850 -0.5955  0.3314
  236SOL    HW1  707   1.664   2.763   2.707  0.3941 -2.4768 -0.2346
  236SOL    HW2  708   1.536   2.750   2.600 -1.9402  0.7231 -0.5455
  237SOL     OW  709   1.158   0.034   0.770  0.0386  0.2144  0.2254
  237SOL    HW1  710   1.133   0.132   0.738 -1.4208  1.7762  2.9199
  237SOL    HW2  711   1.257   0.006   0.755 -0.8905 -1.1109  0.9754
  238SOL     OW  712   1.160   0.729   2.847  0.1400  0.1543 -0.2590
  238SOL    HW1  713   1.151   0.674   2.931 -0.9041  0.6008  0.2207
  238SOL    HW2  714   1.064   0.732   2.803  1.6237  4.2305  0.5464
  239SOL     OW  715   0.117   0.562   2.287  0.3942  0.5527 -0.3003
  239SOL    HW1  716   0.140   0.656   2.259  0.4087 -1.1703  0.2329
  239SOL    HW2  717   0.176   0.526   2.360  1.2949  2.0738 -0.6414
  240SOL     OW  718   2.330   2.626   0.759 -0.1708  0.2550 -0.1982
  240SOL    HW1  719   2.372   2.537   0.732  1.0782  0.3168  1.0605
  240SOL    HW2  720   2.355   2.691   0.686 -0.2608 -0.6007  0.6193
  241SOL     OW  721   1.610   1.128   1.367  0.0104 -0.0995 -0.2375
  241SOL    HW1  722   1.517   1.116   1.402  1.7531  1.0855  1.7566
  241SOL    HW2  723   1.679   1.055   1.398 -2.2322 -1.2467 -0.6124
  242SOL     OW  724   0.410   0.836   0.827  0.0393 -0.7033  0.0783
  242SOL    HW1  725   0.318   0.832   0.877 -0.4264 -1.2504  0.7726
  242SOL    HW2  726   0.417   0.924   0.773 -0.2956 -0.4809  2.6577
  243SOL     OW  727   0.389   0.927   1.291  1.1102  0.8422 -0.4148
  243SOL    HW1  728   0.304   0.935   1.347 -0.4571  2.0265 -1.2626
  243SOL    HW2  729   0.469   0.917   1.353  0.0349  0.0823 -0.0976
  244SOL     OW  730   1.182   0.490   3.012 -0.0904 -0.1826 -0.3868
  244SOL    HW1  731   1.124   0.441   3.077 -0.1816  1.6513 -2.3743
  244SOL    HW2  732   1.174   0.437   2.922  0.9197  2.1520  0.6962
  245SOL     OW  733   2.078   1.103   0.174 -0.1339  0.3489 -0.4163
  245SOL    HW1  734   2.032   1.172   0.116 -0.6645  1.7265  0.4085
  245SOL    HW2  735   2.169   1.138   0.216 -0.0756  0.4402  1.5283
  246SOL     OW  736   0.069   1.121   1.968  0.6279  0.6094  0.4320
  246SOL    HW1  737   0.015   1.152   1.890  0.3527 -1.6230 -1.4467
  246SOL    HW2  738   0.084   1.019   1.960 -1.0805 -0.9431 -1.1794
  247SOL     OW  739   0.424   2.980   1.837  0.6513 -0.5927 -0.8740
  247SOL    HW1  740   0.332   2.945   1.860 -1.9090 -0.6863  0.9356
  247SOL    HW2  741   0.489   2.971   1.916 -1.8405 -1.4108 -0.2580
  248SOL     OW  742   0.702   1.468   2.055 -0.6395 -0.0141 -0.2706
  248SOL    HW1  743   0.748   1.498   2.141  0.3050 -0.9499  0.8573
  248SOL    HW2  744   0.756   1.418   1.992 -0.9416 -0.1660  1.8217
  249SOL     OW  745   0.589   0.128   2.796 -0.0043  0.2776 -0.4937
  249SOL    HW1  746   0.549   0.037   2.811  2.1344 -3.1224 -1.3503
  249SOL    HW2  747   0.542   0.204   2.851 -4.2786  0.5794  0.1332
  250SOL     OW  748   0.213   0.067   2.876 -0.4499 -0.7101  0.5310
  250SOL    HW1  749   0.147   3.101   2.852  0.7899 -1.1029  1.4135
  250SOL    HW2  750   0.179   0.150   2.822 -1.6899  0.5042 -0.9422
  251SOL     OW  751   2.958   1.695   1.114  0.0018  0.0088 -0.0032
  251SOL    HW1  752   2.873   1.703   1.052 -4.9529 -2.5459 -1.2782
  251SOL    HW2  753   2.932   1.673   1.210  0.3227  0.4337  0.9149
  252SOL     OW  754   1.716   2.694   2.180  0.1347  0.4613  0.0541
  252SOL    HW1  755   1.739   2.701   2.083 -1.4990 -1.0138  0.5035
  252SOL    HW2  756   1.753   2.774   2.228 -1.2331  0.4812 -3.2377
  253SOL     OW  757   1.628   1.564   2.891  0.3869  0.0310 -0.1750
  253SOL    HW1  758   1.597   1.649   2.928  2.5225 -0.8570 -2.3236
  253SOL    HW2  759   1.728   1.570   2.874  1.7750 -0.4504  0.6214
  254SOL     OW  760   0.573   1.524   1.663  0.1560 -0.0513  0.4375
  254SOL    HW1  761   0.524   1.580   1.592 -2.3688 -0.1425 -0.2741
  254SOL    HW2  762   0.566   1.572   1.756  1.6721  1.0915  3.4894
  255SOL     OW  763   0.942   2.981   1.480 -0.4314  0.6474 -0.0469
  255SOL    HW1  764   1.012   3.050   1.457  0.9619 -0.3878  0.5439
  255SOL    HW2  765   0.972   2.925   1.560  0.4604  0.0476 -2.2540
  256SOL     OW  766   0.056   2.567   0.783  0.6299 -0.4391 -0.6133
  256SOL    HW1  767   0.141   2.517   0.751 -1.7345 -2.7381  0.8907
  256SOL    HW2  768   0.073   2.618   0.871 -0.9727 -0.9112 -1.4109
  257SOL     OW  769   0.216   2.785   2.907  0.1762  0.8438 -0.2368
  257SOL    HW1  770   0.251   2.839   2.983  0.1091 -0.1531 -4.0862
  257SOL    HW2  771   0.185   2.845   2.832  1.1440  1.0495 -0.0657
  258SOL     OW  772   1.257   2.317   1.994 -0.4045 -0.0951  0.2719
  258SOL    HW1  773   1.284   2.219   2.009 -0.2604 -0.7557 -0.8550
  258SOL    HW2  774   1.340   2.382   1.986  1.2796 -0.0814  0.2143
  259SOL     OW  775   0.922   1.908   2.411  0.8361  0.1843 -0.1374
  259SOL    HW1  776   0.945   1.825   2.468 -0.4594 -1.1679  1.1171
  259SOL    HW2  777   0.896   1.887   2.311 -1.8197  1.6472  0.7825
  260SOL     OW  778   2.607   0.756   2.050 -0.0737  0.1098  0.3532
  260SOL    HW1  779   2.569   0.838   2.096  0.6359  1.5633 -0.0782
  260SOL    HW2  780   2.547   0.678   2.056  0.8386  1.1360 -0.2594
  261SOL     OW  781   1.279   0.851   0.901  0.0147  0.1999 -0.4467
  261SOL    HW1  782   1.322   0.793   0.830 -0.2496 -0.7724  1.5565
  261SOL    HW2  783   1.325   0.938   0.901  0.1361 -2.3416 -1.2898
  262SOL     OW  784   2.324   2.020   2.698  0.5100  0.1488  0.0214
  262SOL    HW1  785   2.328   1.978   2.791  0.2376  0.2649  2.7050
  262SOL    HW2  786   2.233   2.063   2.695 -1.0215 -1.1225  3.0794
  263SOL     OW  787   0.730   2.317   0.809  0.2562  0.6613 -0.2643
  263SOL    HW1  788   0.763   2.414   0.783 -0.5365 -0.1551 -1.1632
  263SOL    HW2  789   0.753   2.239   0.742 -1.6189 -0.8736  1.9520
  264SOL     OW  790   0.154   2.559   0.415 -0.1835 -0.0785 -0.2801
  264SOL    HW1  791   0.073   2.617   0.407 -1.1155 -1.3454  0.0273
  264SOL    HW2  792   0.127   2.460   0.447 -0.1993 -1.7100 -1.0545
  265SOL     OW  793   0.721   1.370   0.085 -0.1753  0.1553  0.1093
  265SOL    HW1  794   0.728   1.328   3.098  1.9253 -2.5743  0.0975
  265SOL    HW2  795   0.793   1.320   0.146  2.6374 -2.1448  1.3585
  266SOL     OW  796   0.736   2.220   2.371 -0.1608  0.5494  0.5334
  266SOL    HW1  797   0.826   2.240   2.413 -0.3259  0.7463 -0.2706
  266SOL    HW2  798   0.687   2.148   2.424  1.1988  1.9317  1.2276
  267SOL     OW  799   1.993   0.754   2.317 -0.0073  0.0971 -0.3407
  267SOL    HW1  800   1.986   0.811   2.403  1.5180  0.8097  0.6606
  267SOL    HW2  801   1.929   0.789   2.245  1.1712  0.8794  0.1865
  268SOL     OW  802   0.682   1.056   0.219  0.4590  0.3174  0.2127
  268SOL    HW1  803   0.780   1.081   0.204  1.2265  0.2407 -2.0554
  268SOL    HW2  804   0.622   1.129   0.260  0.8397 -1.0232  1.6892
  269SOL     OW  805   2.445   1.667   2.294 -0.0965 -0.2812 -0.3069
  269SOL    HW1  806   2.476   1.688   2.387 -1.3507 -1.0052 -0.5276
  269SOL    HW2  807   2.470   1.746   2.228  0.5493  0.5685 -0.6532
  270SOL     OW  808   1.070   1.975   0.152 -0.5465  0.0107  0.1543
  270SOL    HW1  809   1.078   1.884   0.200  1.5949 -0.2312 -0.1606
  270SOL    HW2  810   0.981   1.986   0.108  0.4294 -0.4645  0.4359
  271SOL     OW  811   0.309   0.457   0.147 -0.2133  0.3959  0.4122
  271SOL    HW1  812   0.387   0.508   0.103 -2.3422 -4.4574 -1.6658
  271SOL    HW2  813   0.311   0.363   0.110 -0.4404 -0.2887  0.5541
  272SOL     OW  814   2.820   0.398   0.385 -0.5371 -0.1610 -0.0527
  272SOL    HW1  815   2.765   0.328   0.429  2.7897  1.6151 -1.3733
  272SOL    HW2  816   2.914   0.391   0.422 -0.3874 -0.6243 -1.4307
  273SOL     OW  817   0.175   3.085   1.626 -0.3712 -0.4899 -0.4581
  273SOL    HW1  818   0.191   0.010   1.721 -0.3644 -1.5767 -2.3210
  273SOL    HW2  819   0.119   3.002   1.630 -1.9199  0.4169  0.9635
  274SOL     OW  820   2.832   0.545   1.457  0.0216 -0.1612  0.0493
  274SOL    HW1  821   2.908   0.606   1.466 -2.4893 -0.8549 -0.1495
  274SOL    HW2  822   2.836   0.485   1.375  0.5254  2.9037 -2.8480
  275SOL     OW  823   0.668   1.612   1.066 -0.8688 -0.3316  0.0298
  275SOL    HW1  824   0.603   1.606   1.145  2.3661  1.9391  0.0163
  275SOL    HW2  825   0.659   1.525   1.014  0.8216  0.6198 -0.2394
  276SOL     OW  826   0.658   1.277   1.672  0.3646 -0.2085 -0.4253
  276SOL    HW1  827   0.617   1.365   1.644  2.2885  0.2834 -0.8918
  276SOL    HW2  828   0.595   1.231   1.745 -0.8996  1.9924  1.1546
  277SOL     OW  829   0.975   2.796   2.062  0.2094 -0.6352 -0.3786
  277SOL    HW1  830   1.067   2.749   2.080  1.4168 -1.9834 -0.3850
  277SOL    HW2  831   0.900   2.726   2.067 -1.8252  1.0539  1.8136
  278SOL     OW  832   2.135   2.686   2.241  0.1906  0.4835 -0.1550
  278SOL    HW1  833   2.233   2.714   2.231 -3.7556  2.4269  2.4819
  278SOL    HW2  834   2.120   2.588   2.217 -1.8722  3.0831 -0.3922
  279SOL     OW  835   1.365   1.694   0.161 -0.1851  0.0373  0.2312
  279SOL    HW1  836   1.426   1.611   0.163 -1.2019 -1.5641 -0.4774
  279SOL    HW2  837   1.276   1.670   0.116  2.0883  1.0479 -2.3495
  280SOL     OW  838   1.464   0.780   0.057 -0.0233  0.2335  0.0321
  280SOL    HW1  839   1.513   0.854   0.001  0.2249 -0.3676  0.9786
  280SOL    HW2  840   1.454   0.697   0.003 -1.0763  2.5882  0.2857
  281SOL     OW  841   0.478   0.524   1.398 -0.3827 -0.4258  0.0271
  281SOL    HW1  842   0.445   0.520   1.306  1.7661 -0.0518  0.5513
  281SOL    HW2  843   0.413   0.557   1.470  1.4768  0.8182 -1.4452
  282SOL     OW  844   3.044   2.748   0.618 -0.5001 -0.1087 -0.1395
  282SOL    HW1  845   3.103   2.677   0.670  2.6931 -1.5813  2.6660
  282SOL    HW2  846   3.023   2.718   0.520  0.5477  0.8374 -0.8167
  283SOL     OW  847   1.366   2.081   2.026  0.0589 -0.2806 -0.4415
  283SOL    HW1  848   1.318   1.991   2.052  0.3620 -3.3495  0.0994
  283SOL    HW2  849   1.430   2.117   2.096 -3.9828 -0.0431 -0.0104
  284SOL     OW  850   2.956   2.625   1.222 -0.6561  0.3337  0.1724
  284SOL    HW1  851   2.941   2.706   1.163 -0.9419  0.5838  0.4620
  284SOL    HW2  852   2.865   2.609   1.262  1.3001 -0.3719  0.4057
  285SOL     OW  853   0.205   2.283   0.074 -0.2168  0.7082 -0.1217
  285SOL    HW1  854   0.207   2.184   0.040  0.8112 -1.8927  2.0959
  285SOL    HW2  855   0.296   2.325   0.070 -1.2251 -0.7511 -1.9944
  286SOL     OW  856   0.351   2.802   0.871 -0.1341 -0.4074 -0.0582
  286SOL    HW1  857   0.372   2.895   0.909 -1.1623  2.5985 -2.5154
  286SOL    HW2  858   0.253   2.785   0.871  0.8597 -0.1865  0.2970
  287SOL     OW  859   0.563   1.390   0.571 -0.0662  0.0723 -0.5661
  287SOL    HW1  860   0.491   1.451   0.607 -0.3683  3.1904  0.0703
  287SOL    HW2  861   0.566   1.309   0.628 -2.8015  0.0315 -2.0626
  288SOL     OW  862   1.949   1.921   2.786  0.6642  0.5299  0.1306
  288SOL    HW1  863   1.977   1.839   2.731 -2.4238 -1.1284 -1.9481
  288SOL    HW2  864   1.914   1.889   2.880  1.3778  1.0286  2.1960
  289SOL     OW  865   2.878   1.911   0.291 -0.2594 -0.8684 -0.2893
  289SOL    HW1  866   2.793   1.871   0.258  1.0062  0.2406  0.3410
  289SOL    HW2  867   2.948   1.906   0.220 -1.7099  3.0129  1.7076
  290SOL     OW  868   1.371   1.543   1.416  0.0546  0.4139 -0.7783
  290SOL    HW1  869   1.321   1.624   1.389  2.2948 -0.6941  0.8665
  290SOL    HW2  870   1.331   1.456   1.380 -1.4403  0.5667  0.0454
  291SOL     OW  871   1.245   1.368   0.249  0.5495  0.0718  0.0204
  291SOL    HW1  872   1.231   1.278   0.195 -1.2253 -0.2623 -0.0926
  291SOL    HW2  873   1.344   1.389   0.247  0.5063  2.2467 -0.3581
  292SOL     OW  874   1.059   1.311   0.437  0.5525  0.1680 -0.3250
  292SOL    HW1  875   1.044   1.226   0.489  1.3849  3.3768 -2.3571
  292SOL    HW2  876   1.149   1.310   0.386 -0.1237  1.4411 -1.3859
  293SOL     OW  877   0.979   2.960   0.936  0.2639  0.1798 -0.6549
  293SOL    HW1  878   0.881   2.968   0.927 -0.1297 -1.9884 -0.8955
  293SOL    HW2  879   1.028   3.035   0.888 -0.0726 -0.9456  0.1459
  294SOL     OW  880   2.023   1.127   2.240 -0.3592 -0.6370 -0.0130
  294SOL    HW1  881   1.951   1.187   2.204  0.1830 -3.3478  2.3457
  294SOL    HW2  882   1.973   1.073   2.317  0.5819 -0.0530  1.9854
  295SOL     OW  883   1.500   1.800   3.056 -0.2575 -0.2399  0.4459
  295SOL    HW1  884   1.442   1.771   0.024  2.2458 -1.3840 -0.9077
  295SOL    HW2  885   1.463   1.885   3.013 -1.7517 -1.4066  1.5026
  296SOL     OW  886   1.308   0.737   1.778 -0.2855  0.3022  0.0332
  296SOL    HW1  887   1.268   0.678   1.700  1.5375  1.5237 -3.0522
  296SOL    HW2  888   1.246   0.819   1.790 -2.0350 -1.0435 -1.7249
  297SOL     OW  889   0.063   0.858   1.910  0.1942  0.1746  0.2547
  297SOL    HW1  890   3.079   0.821   1.889  1.9807 -0.3755 -0.7103
  297SOL    HW2  891   0.126   0.844   1.831 -1.5004 -0.4587  0.4607
  298SOL     OW  892   1.395   1.985   1.414 -0.6001  0.4086  0.6774
  298SOL    HW1  893   1.476   1.927   1.400 -0.5256 -2.2653 -2.2802
  298SOL    HW2  894   1.412   2.087   1.402  2.3902  4.6691 -0.1810
  299SOL     OW  895   1.240   0.137   2.703 -0.1865  0.7694 -0.1550
  299SOL    HW1  896   1.327   0.110   2.653 -1.3130 -0.4773 -0.7945
  299SOL    HW2  897   1.161   0.087   2.659 -1.4237  0.7954 -0.4662
  300SOL     OW  898   2.625   1.829   0.132  0.0045  0.6872 -0.4436
  300SOL    HW1  899   2.655   1.731   0.115 -0.1915 -1.6555  1.3630
  300SOL    HW2  900   2.523   1.828   0.154 -1.4632  0.5046  0.8156
  301SOL     OW  901   2.087   0.901   2.570  0.2431  0.6542  0.4516
  301SOL    HW1  902   2.185   0.863   2.562 -0.4921 -0.9660  0.0788
  301SOL    HW2  903   2.064   0.919   2.667 -0.0467  0.2838  0.4459
  302SOL     OW  904   2.578   2.071   2.718  0.1089  0.2801 -0.0722
  302SOL    HW1  905   2.605   2.153   2.675 -0.7585 -2.1955 -0.0719
  302SOL    HW2  906   2.476   2.049   2.712 -0.0628  0.2583  1.8941
  303SOL     OW  907   3.069   2.319   0.157  0.9450  0.3904  0.0445
  303SOL    HW1  908   0.061   2.310   0.136  2.2901 -0.1587 -1.0348
  303SOL    HW2  909   3.017   2.349   0.073 -1.2226  2.5068 -0.8861
  304SOL     OW  910   0.273   1.922   1.147  0.2423 -0.3717  0.4872
  304SOL    HW1  911   0.211   1.912   1.226  0.4548 -0.6882 -0.4569
  304SOL    HW2  912   0.370   1.890   1.163  1.0707  1.1582  0.4951
  305SOL     OW  913   2.931   0.539   1.760  0.8293 -0.0471  0.4261
  305SOL    HW1  914   2.997   0.486   1.819 -0.8134 -0.9304 -0.5616
  305SOL    HW2  915   2.964   0.540   1.664 -1.9783 -1.0246 -1.2233
  306SOL     OW  916   1.663   1.428   1.092  0.3292  0.6476  0.3435
  306SOL    HW1  917   1.562   1.450   1.087 -1.5061 -2.3599  0.1491
  306SOL    HW2  918   1.695   1.438   1.188  0.3400  0.4931 -0.5110
  307SOL     OW  919   3.043   0.299   0.785 -0.1155 -0.0419 -0.0343
  307SOL    HW1  920   0.022   0.280   0.827  3.4766 -1.8716 -0.7400
  307SOL    HW2  921   2.982   0.217   0.784  0.0049 -0.9997  0.1586
  308SOL     OW  922   0.156   1.501   1.766 -0.7902  0.0209  0.0552
  308SOL    HW1  923   0.103   1.440   1.701 -1.1737 -1.6725  0.8395
  308SOL    HW2  924   0.258   1.488   1.759 -0.7887 -2.7337  0.1400
  309SOL     OW  925   2.871   1.966   2.194  0.1342 -0.7729 -0.0495
  309SOL    HW1  926   2.901   2.022   2.113 -0.2339 -2.0915 -0.5025
  309SOL    HW2  927   2.828   2.028   2.263  1.3041 -0.8793  1.5224
  310SOL     OW  928   2.520   1.238   2.783  0.4170 -0.0350 -0.3190
  310SOL    HW1  929   2.605   1.186   2.767 -1.1179  1.7352  3.2272
  310SOL    HW2  930   2.458   1.174   2.836 -5.3017 -0.1370  2.5125
  311SOL     OW  931   1.730   1.199   3.106  0.0422 -0.5857  0.1834
  311SOL    HW1  932   1.666   1.275   3.098  3.0767  1.7678  1.5205
  311SOL    HW2  933   1.683   1.111   3.078 -0.7007 -1.6996  2.2889
  312SOL     OW  934   1.400   2.180   2.634 -0.6581  0.1928 -0.3638
  312SOL    HW1  935   1.492   2.144   2.656 -0.3773 -0.6114  0.7742
  312SOL    HW2  936   1.357   2.125   2.558 -1.7574  2.0425 -0.4149
  313SOL     OW  937   0.329   0.348   0.660 -0.2834  0.2997 -0.2511
  313SOL    HW1  938   0.344   0.363   0.561  2.4657  0.7859  1.6699
  313SOL    HW2  939   0.293   0.436   0.702 -3.5215  0.4551  1.6904
  314SOL     OW  940   0.609   1.931   1.106 -0.1009  0.2936  0.3516
  314SOL    HW1  941   0.615   2.025   1.150  2.5431 -2.1249  1.4074
  314SOL    HW2  942   0.692   1.876   1.114 -0.4142  1.2968  1.1715
  315SOL     OW  943   0.765   2.071   2.143  0.1208 -0.4898  0.7056
  315SOL    HW1  944   0.666   2.075   2.114  0.0056 -2.1341 -0.1410
  315SOL    HW2  945   0.773   2.111   2.233 -2.8098 -1.5939 -2.1054
  316SOL     OW  946   0.435   2.545   0.454  0.0485 -0.7442 -0.0431
  316SOL    HW1  947   0.343   2.583   0.428  1.4432  0.8725  2.3166
  316SOL    HW2  948   0.483   2.617   0.511 -0.2513 -0.7699 -0.9632
  317SOL     OW  949   2.611   0.054   1.163 -0.3223 -0.2804  0.6734
  317SOL    HW1  950   2.524   0.096   1.126  0.3904  0.3178  2.0667
  317SOL    HW2  951   2.588   3.074   1.199 -1.7333 -1.8012 -1.3724
  318SOL     OW  952   1.972   2.789   0.306 -0.4161 -0.9288  0.0668
  318SOL    HW1  953   1.905   2.834   0.375  0.4484  1.5812 -0.6941
  318SOL    HW2  954   2.037   2.722   0.347 -2.0100  0.8625  0.1326
  319SOL     OW  955   1.592   0.663   2.747 -0.1665  0.0786 -0.3259
  319SOL    HW1  956   1.685   0.674   2.788  1.6052 -0.8487  1.2067
  319SOL    HW2  957   1.569   0.563   2.739 -1.9032 -2.8976 -1.1028
  320SOL     OW  958   3.018   2.150   2.025 -0.3338  0.3183  0.2343
  320SOL    HW1  959   0.007   2.184   2.036 -2.9199  2.2793 -0.8904
  320SOL    HW2  960   2.961   2.195   1.955  1.2737 -1.9003  0.6463
  321SOL     OW  961   0.433   2.444   0.076  0.5083 -0.4445 -0.0975
  321SOL    HW1  962   0.513   2.505   0.058 -1.3553 -1.3147  0.8026
  321SOL    HW2  963   0.349   2.508   0.087 -0.6962  0.3748  0.4784
  322SOL     OW  964   2.784   0.640   2.434  0.4616  0.3188 -0.0536
  322SOL    HW1  965   2.765   0.584   2.354 -1.5876  0.2987 -1.2782
  322SOL    HW2  966   2.710   0.615   2.502 -2.3749  0.1363  0.9375
  323SOL     OW  967   2.426   1.102   0.948  0.1970 -0.0829 -0.1003
  323SOL    HW1  968   2.501   1.163   0.984 -3.0525  1.7249 -1.1952
  323SOL    HW2  969   2.467   1.026   0.898  0.4828  2.1515  0.0222
  324SOL     OW  970   2.796   0.405   1.217 -0.0984  0.1733 -0.2066
  324SOL    HW1  971   2.877   0.413   1.153 -0.2498 -1.1514 -1.9585
  324SOL    HW2  972   2.713   0.396   1.167  4.2032  0.2714  0.8505
  325SOL     OW  973   2.908   2.965   1.753  0.0438 -0.7942  0.2214
  325SOL    HW1  974   2.924   2.991   1.851  0.4698  0.0769  2.1711
  325SOL    HW2  975   2.849   3.035   1.711 -0.0049 -0.6942 -1.3548
  326SOL     OW  976   1.920   2.686   0.042  1.0902  0.0021 -0.1050
  326SOL    HW1  977   1.854   2.613   0.065  2.1651 -3.2318  2.3179
  326SOL    HW2  978   1.954   2.739   0.123  3.8275  0.1707  0.9175
  327SOL     OW  979   1.759   1.735   0.520  0.4153  0.1511  0.1210
  327SOL    HW1  980   1.833   1.802   0.532 -0.8433  0.0891  1.0377
  327SOL    HW2  981   1.741   1.675   0.604  1.8058  0.1995  3.0559
  328SOL     OW  982   0.007   2.092   2.411  0.1324  0.1612  0.3047
  328SOL    HW1  983   0.103   2.125   2.418  0.8278 -0.5504 -0.5041
  328SOL    HW2  984   3.106   2.004   2.360 -0.4246 -1.8282 -2.8721
  329SOL     OW  985   0.236   2.268   1.320  0.0307 -0.1901 -0.2295
  329SOL    HW1  986   0.229   2.223   1.230  3.8836 -0.9150 -1.9151
  329SOL    HW2  987   0.258   2.205   1.396  2.0549  1.9893 -1.1522
  330SOL     OW  988   2.757   0.889   2.860  0.4191  0.1829  0.5375
  330SOL    HW1  989   2.726   0.979   2.822  3.6190  2.8203  0.4432
  330SOL    HW2  990   2.850   0.862   2.820  0.4659 -2.7103  0.7113
  331SOL     OW  991   2.394   2.367   1.091 -0.5689 -0.3022 -0.2025
  331SOL    HW1  992   2.320   2.330   1.026 -2.2295 -1.1547 -2.6766
  331SOL    HW2  993   2.354   2.447   1.143 -1.2393 -0.8107  0.0323
  332SOL     OW  994   0.516   2.749   0.618  0.2239 -0.1384  0.0139
  332SOL    HW1  995   0.606   2.797   0.629 -1.2389 -3.0465 -1.3188
  332SOL    HW2  996   0.451   2.767   0.695  1.7254 -0.1949 -1.8746
  333SOL     OW  997   2.226   1.820   2.497  0.0835 -0.3850  0.2910
  333SOL    HW1  998   2.231   1.889   2.568  1.7572 -2.4284  1.3089
  333SOL    HW2  999   2.319   1.787   2.472  2.4838  0.8984 -2.5580
  334SOL     OW 1000   0.561   1.220   0.763 -0.1213  0.8032  0.2241
  334SOL    HW1 1001   0.635   1.159   0.795  0.6734  0.0569  2.2648
  334SOL    HW2 1002   0.564   1.309   0.815  0.7695  1.1656 -0.1438
  335SOL     OW 1003   3.090   1.836   2.331 -0.0668 -0.1806  0.3017
  335SOL    HW1 1004   2.996   1.848   2.293 -0.2614  1.0882 -1.9768
  335SOL    HW2 1005   3.093   1.745   2.381 -0.2300  0.0152  0.2795
  336SOL     OW 1006   2.416   2.718   2.120 -0.0410  0.2157 -0.1368
  336SOL    HW1 1007   2.448   2.637   2.069  3.1058  0.2639 -0.3212
  336SOL    HW2 1008   2.491   2.765   2.164 -1.9013  0.0612 -0.1259
  337SOL     OW 1009   0.745   1.020   0.841 -0.6884  0.6985  0.2917
  337SOL    HW1 1010   0.716   0.936   0.894 -1.6094 -0.3795 -0.0589
  337SOL    HW2 1011   0.822   1.070   0.884  0.6828  1.2993 -0.3593
  338SOL     OW 1012   1.393   2.077   1.081  0.0024 -0.2008 -0.0566
  338SOL    HW1 1013   1.435   1.981   1.075  2.8400 -1.3322 -0.5442
  338SOL    HW2 1014   1.365   2.096   1.173 -0.4674  0.9147 -1.2077
  339SOL     OW 1015   0.142   1.875   1.390  0.2717 -0.2512  0.2884
  339SOL    HW1 1016   0.210   1.879   1.466 -0.5542 -0.0811  0.6182
  339SOL    HW2 1017   0.049   1.896   1.424 -1.4673 -0.1472 -0.6021
  340SOL     OW 1018   1.008   3.073   1.854  0.4156  0.0703  0.5211
  340SOL    HW1 1019   1.079   0.038   1.870  1.1956  0.7386 -0.5736
  340SOL    HW2 1020   1.042   3.001   1.791 -1.9842 -1.9357  0.6189
  341SOL     OW 1021   1.788   1.696   1.330  0.0485  0.4409  0.0275
  341SOL    HW1 1022   1.831   1.716   1.241 -0.3042  0.6723 -1.0673
  341SOL    HW2 1023   1.701   1.747   1.325 -2.3175 -1.6095 -1.4660
  342SOL     OW 1024   2.259   1.495   0.984  0.6178  0.1799 -0.2314
  342SOL    HW1 1025   2.339   1.548   0.962 -2.1194 -2.0750  0.2521
  342SOL    HW2 1026   2.247   1.421   0.911 -0.8410 -0.2149  0.6765
  343SOL     OW 1027   2.082   0.103   0.852 -0.0277 -0.4736  0.1142
  343SOL    HW1 1028   2.113   0.197   0.876 -0.3403  1.9996 -0.6071
  343SOL    HW2 1029   2.142   0.025   0.885  0.4722 -1.2002  0.6203
  344SOL     OW 1030   2.280   0.263   0.308 -0.6412  0.3976  0.1293
  344SOL    HW1 1031   2.363   0.329   0.304 -0.0553 -0.7692  0.9161
  344SOL    HW2 1032   2.265   0.216   0.398 -0.0215 -1.3540 -3.9307
  345SOL     OW 1033   0.781   2.891   1.878 -0.0659  0.2317  0.1947
  345SOL    HW1 1034   0.825   2.976   1.835  1.6372  0.3297  1.6441
  345SOL    HW2 1035   0.851   2.853   1.937 -0.4053 -2.3764 -1.9855
  346SOL     OW 1036   2.428   2.094   0.732  0.0018  0.5092  0.2324
  346SOL    HW1 1037   2.453   2.078   0.830 -0.8235 -0.3076  1.7761
  346SOL    HW2 1038   2.325   2.079   0.723 -1.0364  2.7788 -1.3978
  347SOL     OW 1039   2.359   3.047   1.255 -0.5433 -0.5776 -0.3705
  347SOL    HW1 1040   2.417   2.973   1.228 -0.2180  3.5747 -0.3528
  347SOL    HW2 1041   2.330   3.093   1.171 -1.5533 -0.6273  2.5104
  348SOL     OW 1042   0.945   0.925   1.627  0.1293 -0.5137 -0.1632
  348SOL    HW1 1043   0.898   1.007   1.590  1.1384  1.2729  0.2830
  348SOL    HW2 1044   0.994   0.871   1.551 -3.7859  2.0728 -0.4901
  349SOL     OW 1045   2.523   0.631   2.553 -0.6843  0.6931  0.3644
  349SOL    HW1 1046   2.470   0.541   2.556 -0.9266 -3.0000 -1.4865
  349SOL    HW2 1047   2.455   0.702   2.530 -1.6575 -2.7378 -1.4511
  350SOL     OW 1048   2.168   2.389   0.257  0.0138  0.3076 -0.1432
  350SOL    HW1 1049   2.092   2.384   0.189  0.9371 -0.3143 -0.8151
  350SOL    HW2 1050   2.258   2.355   0.224  0.0369 -2.2928  0.6533
  351SOL     OW 1051   1.352   0.582   0.277  0.4708  0.5067 -0.2416
  351SOL    HW1 1052   1.368   0.648   0.203 -0.9149 -1.2157  0.0695
  351SOL    HW2 1053   1.366   0.630   0.364  1.0726  2.1661 -1.9043
  352SOL     OW 1054   1.786   1.905   2.542  0.1670 -0.2859  1.0777
  352SOL    HW1 1055   1.714   1.869   2.479  1.0374  1.9230  0.4587
  352SOL    HW2 1056   1.865   1.836   2.538 -0.7950 -2.2429 -2.4501
  353SOL     OW 1057   0.501   1.369   2.620  0.0143 -0.4506 -0.1303
  353SOL    HW1 1058   0.421   1.314   2.628 -0.5168  3.0156  0.7007
  353SOL    HW2 1059   0.480   1.467   2.629  2.4945  0.7048  3.0324
  354SOL     OW 1060   0.570   2.649   2.792 -0.3033 -0.2488  0.5814
  354SOL    HW1 1061   0.563   2.628   2.693  0.6829  1.5439 -1.3341
  354SOL    HW2 1062   0.662   2.614   2.820 -2.0596 -0.1306  1.7340
  355SOL     OW 1063   2.367   2.755   1.465  0.4640  0.1534  0.2097
  355SOL    HW1 1064   2.454   2.805   1.487  0.8387  3.0204  3.5785
  355SOL    HW2 1065   2.289   2.826   1.463 -2.1719  0.0218 -1.4043
  356SOL     OW 1066   2.734   0.981   1.153 -0.4064 -0.5166  0.4734
  356SOL    HW1 1067   2.811   0.915   1.148  0.8365 -1.0416  0.9973
  356SOL    HW2 1068   2.648   0.928   1.173  1.6414  1.0557  0.2740
  357SOL     OW 1069   3.016   0.004   1.465  0.0281  0.4995 -0.5964
  357SOL    HW1 1070   3.022   0.047   1.553 -2.2440  2.9129 -0.1331
  357SOL    HW2 1071   2.934   0.027   1.410  1.7559 -0.7620  1.6429
  358SOL     OW 1072   2.943   1.503   1.715 -0.1298 -0.1142  0.0225
  358SOL    HW1 1073   2.967   1.598   1.750  1.8003 -0.5463  1.3926
  358SOL    HW2 1074   2.990   1.488   1.626  0.8181  0.7522  0.3976
  359SOL     OW 1075   2.742   2.685   2.387 -0.2801  0.7807  0.2912
  359SOL    HW1 1076   2.758   2.587   2.372  1.0398  1.9882 -0.5760
  359SOL    HW2 1077   2.816   2.740   2.347 -0.3353 -0.4942  0.1688
  360SOL     OW 1078   1.133   0.426   1.286 -0.1649 -0.1698  0.5829
  360SOL    HW1 1079   1.067   0.385   1.354 -0.7616 -0.4117  0.0646
  360SOL    HW2 1080   1.215   0.364   1.278  1.8285 -1.3152 -0.1619
  361SOL     OW 1081   2.182   2.598   0.999  0.0873 -0.5002  0.0766
  361SOL    HW1 1082   2.256   2.611   0.924 -1.3875  2.1934 -1.0224
  361SOL    HW2 1083   2.231   2.600   1.089 -1.1648  0.7752  1.4119
  362SOL     OW 1084   1.064   0.116   0.500  0.0555  0.6746 -0.0777
  362SOL    HW1 1085   0.979   0.089   0.454  3.5655  2.2591  0.5926
  362SOL    HW2 1086   1.053   0.196   0.559 -2.7089 -3.7446 -1.1401
  363SOL     OW 1087   1.300   1.459   0.803 -0.5957  0.3263 -0.1449
  363SOL    HW1 1088   1.390   1.446   0.757  0.8196 -1.0680 -0.9774
  363SOL    HW2 1089   1.313   1.445   0.904 -0.4182 -0.6907  1.8057
  364SOL     OW 1090   0.216   0.834   1.681  0.0129  0.0328 -0.4122
  364SOL    HW1 1091   0.312   0.865   1.676 -0.3175 -0.6631  1.0378
  364SOL    HW2 1092   0.171   0.851   1.591  1.7443 -2.4275  4.4816
  365SOL     OW 1093   2.600   0.720   0.875  0.5269 -0.0370  0.2151
  365SOL    HW1 1094   2.650   0.630   0.869  0.3122  1.4629 -2.5160
  365SOL    HW2 1095   2.611   0.760   0.969  3.0320 -1.7056  0.3323
  366SOL     OW 1096   2.709   1.688   0.975  0.1324  0.0761  0.7169
  366SOL    HW1 1097   2.686   1.761   0.908 -0.7767  1.6458 -2.0984
  366SOL    HW2 1098   2.656   1.606   0.953  1.4414 -1.6581  1.5988
  367SOL     OW 1099   2.057   1.932   2.292  0.2098  0.4412  0.4525
  367SOL    HW1 1100   2.121   1.883   2.353  2.1796  1.6496 -0.5781
  367SOL    HW2 1101   1.985   1.859   2.271 -1.6060 -2.6302  0.1031
  368SOL     OW 1102   2.673   2.071   1.406 -0.1067  0.0037  0.0901
  368SOL    HW1 1103   2.666   2.046   1.506  0.1524  0.0820 -1.9810
  368SOL    HW2 1104   2.707   1.996   1.353  0.6180  1.1654  3.1634
  369SOL     OW 1105   2.192   2.865   2.795 -0.0126 -0.6585 -0.0525
  369SOL    HW1 1106   2.208   2.869   2.698 -1.0757 -0.3900  1.8677
  369SOL    HW2 1107   2.266   2.905   2.850  0.6949  0.1259  2.0470
  370SOL     OW 1108   0.702   0.485   1.034 -0.0828 -0.0657  0.0435
  370SOL    HW1 1109   0.646   0.470   0.949  0.4189 -0.0567 -0.1648
  370SOL    HW2 1110   0.744   0.394   1.060  0.3433 -0.4551  1.1014
  371SOL     OW 1111   0.462   1.609   0.349 -0.2618 -0.1917 -0.6916
  371SOL    HW1 1112   0.474   1.596   0.251 -0.9678 -0.9004  1.5623
  371SOL    HW2 1113   0.545   1.652   0.388  1.5285  1.7240  0.6556
  372SOL     OW 1114   0.782   1.072   2.832  0.1002 -0.1439 -0.2341
  372SOL    HW1 1115   0.845   1.037   2.902 -0.0716  0.1273 -2.7211
  372SOL    HW2 1116   0.830   1.116   2.754 -0.8829  0.6879 -1.0722
  373SOL     OW 1117   1.142   2.567   2.598 -0.7107 -0.1725 -0.0760
  373SOL    HW1 1118   1.064   2.602   2.540 -1.7185  1.6695 -0.7903
  373SOL    HW2 1119   1.174   2.622   2.680 -0.1505 -0.9082 -0.6703
  374SOL     OW 1120   0.717   1.893   0.339  0.3556 -0.0009  0.2494
  374SOL    HW1 1121   0.664   1.859   0.422  0.5458  1.4216  0.8629
  374SOL    HW2 1122   0.793   1.960   0.360  1.2773  1.8583  1.0477
  375SOL     OW 1123   0.636   0.681   1.792  0.2515  0.1978  0.0470
  375SOL    HW1 1124   0.665   0.581   1.783  1.5433 -5.3039 -0.2323
  375SOL    HW2 1125   0.715   0.738   1.805  1.0024  1.0882  2.0793
  376SOL     OW 1126   0.286   2.549   1.400  0.0524  0.0498  0.0205
  376SOL    HW1 1127   0.285   2.446   1.383  2.4454 -2.1085 -2.2786
  376SOL    HW2 1128   0.289   2.568   1.503 -1.1138 -0.8809  0.6264
  377SOL     OW 1129   2.929   1.700   2.922  0.6395 -0.1053  0.7713
  377SOL    HW1 1130   2.895   1.658   2.839  1.0091 -0.0332 -2.2531
  377SOL    HW2 1131   2.926   1.633   2.999  1.6459  0.3562  0.4385
  378SOL     OW 1132   1.696   3.060   2.969 -0.2161 -0.4417  0.1413
  378SOL    HW1 1133   1.607   3.015   2.970 -1.8749 -1.1693  0.4210
  378SOL    HW2 1134   1.723   3.079   3.067 -2.1610 -1.7113 -1.2718
  379SOL     OW 1135   1.765   0.593   0.621  0.3603 -0.1576  0.0793
  379SOL    HW1 1136   1.836   0.520   0.637  1.2017 -1.2082 -0.8231
  379SOL    HW2 1137   1.774   0.679   0.673 -0.8872  0.8617 -2.7305
  380SOL     OW 1138   0.336   1.857   1.573  0.1191  0.9858  0.0543
  380SOL    HW1 1139   0.256   1.810   1.613 -0.5857 -1.1895 -0.4578
  380SOL    HW2 1140   0.423   1.829   1.613 -0.4684  0.5923 -0.2415
  381SOL     OW 1141   2.470   1.291   2.518  0.3563 -0.0294  0.1230
  381SOL    HW1 1142   2.513   1.352   2.444  3.6568  1.5245 -0.1113
  381SOL    HW2 1143   2.497   1.322   2.613  2.1187  0.1013  4.6084
  382SOL     OW 1144   0.040   2.954   2.769  0.2496 -1.0686  0.4689
  382SOL    HW1 1145   3.076   3.001   2.826 -1.9907  1.2244  0.1448
  382SOL    HW2 1146   0.035   2.991   2.673 -3.5371  0.9015  1.8208
  383SOL     OW 1147   1.521   1.373   3.080 -0.5455 -0.0629  0.1126
  383SOL    HW1 1148   1.554   1.449   3.016 -0.7200  1.7406 -2.4373
  383SOL    HW2 1149   1.442   1.326   3.039  1.7230  1.1360  1.1643
  384SOL     OW 1150   1.019   1.974   1.105  0.2456 -0.2399 -0.2319
  384SOL    HW1 1151   1.032   2.069   1.081  0.0748  1.7265 -0.9010
  384SOL    HW2 1152   1.071   1.912   1.046  0.2578 -1.7214 -3.4914
  385SOL     OW 1153   1.811   2.748   0.795 -0.0463 -0.6337  0.1323
  385SOL    HW1 1154   1.794   2.798   0.883 -2.2756  0.5191 -2.0406
  385SOL    HW2 1155   1.728   2.693   0.774  0.7668  2.5826  1.4714
  386SOL     OW 1156   1.459   1.823   1.045  0.2929 -0.0766 -0.5449
  386SOL    HW1 1157   1.376   1.765   1.064  0.0805 -1.3507 -0.9272
  386SOL    HW2 1158   1.499   1.803   0.949 -1.0084 -0.4243 -4.2809
  387SOL     OW 1159   2.837   2.291   1.378 -0.4304  0.0234  0.6110
  387SOL    HW1 1160   2.838   2.289   1.274 -0.4883  1.4912  0.3802
  387SOL    HW2 1161   2.775   2.217   1.409  0.0726 -0.5029 -1.0748
  388SOL     OW 1162   2.647   0.976   1.484 -0.8352 -0.4608  0.2265
  388SOL    HW1 1163   2.670   0.882   1.445  1.2179 -0.2324 -0.2506
  388SOL    HW2 1164   2.731   1.016   1.523 -3.1853 -1.7113 -2.2977
  389SOL     OW 1165   2.120   0.841   0.084  0.2043  0.2650 -0.9873
  389SOL    HW1 1166   2.105   0.931   0.130  0.5851  3.2992  0.7386
  389SOL    HW2 1167   2.196   0.793   0.128 -1.0839 -1.1439  1.0094
  390SOL     OW 1168   1.279   1.798   2.606 -0.4660 -0.1646 -0.7666
  390SOL    HW1 1169   1.293   1.869   2.535  1.3641  4.7390 -1.2544
  390SOL    HW2 1170   1.341   1.718   2.592 -1.0655  0.6210 -1.6255
  391SOL     OW 1171   1.239   2.154   0.306  0.0043  0.1507  0.0613
  391SOL    HW1 1172   1.185   2.208   0.380 -1.5342 -0.5901  0.7113
  391SOL    HW2 1173   1.187   2.114   0.228  0.4710 -0.0016  0.4430
  392SOL     OW 1174   0.318   2.636   1.655  0.0353 -0.1941  0.8453
  392SOL    HW1 1175   0.360   2.729   1.629  0.7387  3.8102 -0.7057
  392SOL    HW2 1176   0.386   2.576   1.694 -1.7114  0.3087  0.9753
  393SOL     OW 1177   1.466   2.298   0.223  0.7728 -0.0535  0.2783
  393SOL    HW1 1178   1.391   2.244   0.267  1.5280  0.9708  1.4238
  393SOL    HW2 1179   1.520   2.237   0.167  0.3059 -0.1090  3.5665
  394SOL     OW 1180   0.400   0.808   2.397  0.3371  0.2617 -0.0124
  394SOL    HW1 1181   0.470   0.854   2.454  0.2677 -4.5274 -0.7605
  394SOL    HW2 1182   0.332   0.752   2.447 -0.0124  1.5777  0.1447
  395SOL     OW 1183   0.461   1.357   0.997 -0.2997  0.2394 -0.1821
  395SOL    HW1 1184   0.406   1.444   0.987  0.6555  2.6003  0.1893
  395SOL    HW2 1185   0.407   1.273   1.022  0.8678 -0.3951 -0.0602
  396SOL     OW 1186   1.794   0.875   2.110  0.4075  0.1243  0.1652
  396SOL    HW1 1187   1.865   0.911   2.046 -0.0077  3.1167 -0.4890
  396SOL    HW2 1188   1.732   0.950   2.143 -0.4908 -3.4017  1.0501
  397SOL     OW 1189   0.925   0.153   3.043  0.2752  0.0291 -0.4072
  397SOL    HW1 1190   0.845   0.093   3.057  4.9478 -0.0820 -1.2807
  397SOL    HW2 1191   0.928   0.224   0.008 -0.3898  1.7509 -0.0971
  398SOL     OW 1192   0.687   2.287   2.696  0.6034 -0.1926 -0.1500
  398SOL    HW1 1193   0.784   2.290   2.723 -0.5102 -1.5802 -0.6630
  398SOL    HW2 1194   0.618   2.258   2.771 -4.5025  1.7553  0.3148
  399SOL     OW 1195   1.956   1.468   2.530 -0.0405 -0.2771  0.0034
  399SOL    HW1 1196   1.869   1.421   2.534  3.0985  0.6022  0.6054
  399SOL    HW2 1197   2.022   1.408   2.481  4.0002  1.5313 -1.3544
  400SOL     OW 1198   1.958   1.379   1.581 -0.9639  0.1115  0.5478
  400SOL    HW1 1199   1.906   1.379   1.495 -0.4314 -0.6281  2.0232
  400SOL    HW2 1200   1.901   1.338   1.650  0.3912 -0.8498  0.5404
  401SOL     OW 1201   1.256   1.342   1.272  0.4822  0.1218  0.6637
  401SOL    HW1 1202   1.273   1.247   1.304 -3.5029  0.1589 -2.5914
  401SOL    HW2 1203   1.173   1.347   1.218  2.0148 -2.4126  0.9533
  402SOL     OW 1204   0.064   2.541   1.659  0.8572 -0.1063 -0.2641
  402SOL    HW1 1205   0.054   2.473   1.579 -0.3350 -1.7519  0.6525
  402SOL    HW2 1206   0.157   2.580   1.672  0.3678  1.4810  0.8522
  403SOL     OW 1207   0.084   1.506   2.029  0.2116 -0.1974 -0.0686
  403SOL    HW1 1208   0.001   1.462   2.074 -2.1385 -1.9497  0.7881
  403SOL    HW2 1209   0.090   1.485   1.930  1.4963  1.9564 -0.1655
  404SOL     OW 1210   2.087   1.970   1.455  0.2147 -0.7742 -0.0651
  404SOL    HW1 1211   2.164   1.974   1.519  1.7033 -0.0986  2.1272
  404SOL    HW2 1212   2.107   2.033   1.377 -0.5572 -0.6595 -2.9413
  405SOL     OW 1213   2.886   0.402   2.713  0.2907  0.2225  0.2792
  405SOL    HW1 1214   2.828   0.467   2.762  1.7366 -0.2450  0.2347
  405SOL    HW2 1215   2.879   0.399   2.611 -1.9338  1.1965 -1.8661
  406SOL     OW 1216   0.900   1.482   2.760 -0.8447  0.2220  0.4672
  406SOL    HW1 1217   0.907   1.394   2.706 -1.4165 -1.1405 -0.7142
  406SOL    HW2 1218   0.808   1.530   2.753 -3.4618 -0.5690 -1.3128
  407SOL     OW 1219   1.727   2.483   0.138  0.2370 -0.6568 -0.0803
  407SOL    HW1 1220   1.714   2.456   0.237  2.2927 -1.1027 -0.2899
  407SOL    HW2 1221   1.645   2.517   0.097 -0.2097 -1.5030 -0.3968
  408SOL     OW 1222   0.511   3.084   0.324  0.3077  0.3841 -0.6927
  408SOL    HW1 1223   0.462   0.052   0.291  0.3131 -2.4046  1.1091
  408SOL    HW2 1224   0.458   3.044   0.406 -2.1371 -1.2518  2.1223
  409SOL     OW 1225   2.287   1.948   1.145 -0.9094  0.2487  0.3728
  409SOL    HW1 1226   2.262   1.909   1.051  1.3558 -1.3466 -1.7423
  409SOL    HW2 1227   2.267   1.877   1.211 -1.1084  3.6051 -0.9456
  410SOL     OW 1228   2.383   2.135   3.071 -0.0737 -0.6774  0.0594
  410SOL    HW1 1229   2.392   2.041   3.032  3.0284  0.2690  1.9426
  410SOL    HW2 1230   2.359   2.199   2.993 -2.7904 -2.6974 -1.2457
  411SOL     OW 1231   0.102   0.950   0.518  0.9080  0.4587 -0.1146
  411SOL    HW1 1232   0.188   0.978   0.561 -0.3539  2.0935  0.2918
  411SOL    HW2 1233   0.033   1.023   0.533  1.3151  2.4989 -0.0023
  412SOL     OW 1234   1.423   2.770   0.289  0.5630  0.1809  0.7802
  412SOL    HW1 1235   1.482   2.786   0.370  1.3419 -1.3810 -2.1836
  412SOL    HW2 1236   1.438   2.841   0.217 -1.5911 -1.8913 -0.3404
  413SOL     OW 1237   1.928   0.253   2.346 -0.6987  0.1784 -0.2225
  413SOL    HW1 1238   1.975   0.195   2.275 -1.0415 -1.8825 -0.3735
  413SOL    HW2 1239   1.883   0.187   2.410  0.5672 -0.7588  0.0197
  414SOL     OW 1240   3.064   0.427   0.532  0.1819 -0.0640 -0.3664
  414SOL    HW1 1241   0.015   0.508   0.552  0.9776  0.1128 -0.7379
  414SOL    HW2 1242   3.060   0.365   0.615 -0.5809 -0.8666  0.9838
  415SOL     OW 1243   1.032   1.776   1.507 -0.3727 -0.2012  0.1802
  415SOL    HW1 1244   1.062   1.830   1.588  0.2747 -0.1061  1.3780
  415SOL    HW2 1245   0.981   1.690   1.530  0.7445  1.0005 -2.6495
  416SOL     OW 1246   0.590   0.267   0.125 -0.1898  0.4064  0.2748
  416SOL    HW1 1247   0.560   0.259   0.027  0.9866  1.2389  1.8118
  416SOL    HW2 1248   0.521   0.230   0.186 -1.1687  2.0293 -2.4099
  417SOL     OW 1249   2.586   2.904   1.183 -0.1307 -0.2251  0.8117
  417SOL    HW1 1250   2.633   2.815   1.209  1.3855 -3.3820  0.3762
  417SOL    HW2 1251   2.546   2.882   1.092  1.4276  0.9323  0.2806
  418SOL     OW 1252   0.599   0.516   2.555 -0.1568  0.0010  0.0168
  418SOL    HW1 1253   0.635   0.561   2.473  0.0296 -1.1442  0.7925
  418SOL    HW2 1254   0.663   0.443   2.583 -2.2480  0.8557  2.0012
  419SOL     OW 1255   0.087   1.575   1.061  0.6862  0.7537 -0.0353
  419SOL    HW1 1256   0.083   1.471   1.060  1.5532  1.2570 -1.0047
  419SOL    HW2 1257   3.106   1.616   1.080  0.8948 -3.0957 -0.1416
  420SOL     OW 1258   1.045   2.084   0.810 -0.4167  0.5461 -0.5805
  420SOL    HW1 1259   0.946   2.062   0.818 -0.2204 -1.5025 -0.3687
  420SOL    HW2 1260   1.096   1.992   0.815  2.4309 -1.8032  2.5730
  421SOL     OW 1261   1.924   2.080   2.120 -0.2886  0.3775 -0.0082
  421SOL    HW1 1262   1.961   2.061   2.024  2.1171 -1.7620 -1.0199
  421SOL    HW2 1263   1.979   2.035   2.191  0.6106  0.5119  0.7051
  422SOL     OW 1264   3.097   0.547   2.867  0.1538  0.2851  0.2575
  422SOL    HW1 1265   3.048   0.493   2.798  0.3428 -0.9073 -0.6291
  422SOL    HW2 1266   3.078   0.517   2.962  0.9141 -5.1733  1.8570
  423SOL     OW 1267   1.217   2.253   0.945  0.2338  0.1386 -0.1358
  423SOL    HW1 1268   1.189   2.170   0.896  3.7078 -1.3678 -0.5161
  423SOL    HW2 1269   1.300   2.230   0.997 -1.0842 -1.5828  1.4342
  424SOL     OW 1270   0.900   1.534   1.545  0.1659  0.7010  0.2686
  424SOL    HW1 1271   0.912   1.490   1.453 -2.2530 -0.6221 -0.6889
  424SOL    HW2 1272   0.803   1.560   1.559  1.3482  0.9191  0.4619
  425SOL     OW 1273   3.033   2.573   2.074 -0.2265  0.3369  0.2357
  425SOL    HW1 1274   0.025   2.560   2.074  0.0205  2.7860 -0.1025
  425SOL    HW2 1275   2.997   2.576   1.982  0.4780  0.1403  1.5248
  426SOL     OW 1276   1.883   2.895   0.565 -0.3453 -0.4532  0.4165
  426SOL    HW1 1277   1.861   2.845   0.656 -0.2183 -1.4803  2.6134
  426SOL    HW2 1278   1.935   2.981   0.574  1.2268 -1.6445 -3.2288
  427SOL     OW 1279   0.613   0.873   2.937  0.5220 -0.4052 -0.3234
  427SOL    HW1 1280   0.646   0.965   2.907 -0.3650 -0.9828  1.4047
  427SOL    HW2 1281   0.651   0.797   2.875  0.4647 -0.3060 -0.8819
  428SOL     OW 1282   2.103   1.406   0.397  0.3243  0.7572 -0.0247
  428SOL    HW1 1283   2.032   1.439   0.333  2.4705  2.5649 -0.4669
  428SOL    HW2 1284   2.195   1.423   0.361  0.2164  1.1293 -0.0087
  429SOL     OW 1285   3.048   0.131   0.192 -0.3076  0.2252  0.7941
  429SOL    HW1 1286   0.007   0.163   0.263  1.3937 -0.5048 -1.3191
  429SOL    HW2 1287   2.965   0.100   0.243  0.3927  2.3102  2.7182
  430SOL     OW 1288   0.584   2.699   2.133  0.4271 -0.2979 -0.3225
  430SOL    HW1 1289   0.566   2.797   2.112 -0.4278  1.9747  2.1755
  430SOL    HW2 1290   0.630   2.687   2.223 -0.1426 -1.2276 -0.1543
  431SOL     OW 1291   2.450   1.075   1.287  0.1932  0.0918 -0.0898
  431SOL    HW1 1292   2.398   1.162   1.298  1.4144  1.3569 -0.7686
  431SOL    HW2 1293   2.542   1.087   1.332 -1.3966 -0.6240  0.3353
  432SOL     OW 1294   1.831   2.330   2.170 -0.1591 -0.0093 -0.2175
  432SOL    HW1 1295   1.760   2.352   2.237  1.6137  0.8440 -2.0185
  432SOL    HW2 1296   1.843   2.230   2.154  0.4624 -1.1435 -3.6368
  433SOL     OW 1297   0.937   2.023   0.447 -0.5971 -0.1953  0.5750
  433SOL    HW1 1298   0.986   1.943   0.410 -0.3061  2.2864 -1.0300
  433SOL    HW2 1299   1.002   2.071   0.503 -2.9769  0.9372 -0.7423
  434SOL     OW 1300   0.288   2.128   2.352  0.0362  0.2781 -0.0872
  434SOL    HW1 1301   0.348   2.072   2.407  0.3887  1.1915 -3.3688
  434SOL    HW2 1302   0.272   2.089   2.259  1.3998 -2.1433  0.0830
  435SOL     OW 1303   0.861   0.646   0.332  0.1850 -0.0950 -0.2313
  435SOL    HW1 1304   0.811   0.638   0.243  0.4668  1.1646 -0.2389
  435SOL    HW2 1305   0.958   0.675   0.316  0.1731  0.0438  0.9054
  436SOL     OW 1306   0.348   2.979   1.284 -0.0391  0.3171  0.3185
  436SOL    HW1 1307   0.371   2.899   1.225 -1.0278 -2.3310 -3.9929
  436SOL    HW2 1308   0.249   2.988   1.301 -0.6757 -0.6140  0.7403
  437SOL     OW 1309   1.709   1.977   1.767  0.8672 -0.4208 -0.1387
  437SOL    HW1 1310   1.608   1.994   1.751 -1.0297  1.1361 -2.7640
  437SOL    HW2 1311   1.761   2.022   1.694 -0.1699 -0.0856  4.2252
  438SOL     OW 1312   3.077   1.874   0.690  0.3881  0.2006  0.5087
  438SOL    HW1 1313   3.075   1.874   0.792 -0.8912 -0.0025 -2.3444
  438SOL    HW2 1314   0.060   1.904   0.660 -0.0942 -0.2466  0.7896
  439SOL     OW 1315   0.185   0.515   1.008  0.5403  0.0498 -0.0459
  439SOL    HW1 1316   0.238   0.560   1.079  0.1521 -1.8775 -1.5490
  439SOL    HW2 1317   0.218   0.421   0.995  2.8292  2.3036 -3.3807
  440SOL     OW 1318   0.124   2.915   2.339 -1.1311 -0.0788 -0.1068
  440SOL    HW1 1319   0.182   2.854   2.397  1.5249 -0.3475 -1.9916
  440SOL    HW2 1320   0.179   2.951   2.263 -2.3816  0.0092  1.7150
  441SOL     OW 1321   2.984   0.484   1.002  0.3922  0.4204  0.5118
  441SOL    HW1 1322   3.065   0.504   1.057  1.4508 -1.0210 -3.2974
  441SOL    HW2 1323   3.015   0.434   0.918  0.7283  0.8720  2.9140
  442SOL     OW 1324   1.662   2.024   2.774  0.2332  0.1508 -0.5757
  442SOL    HW1 1325   1.725   2.088   2.821 -0.7780 -2.3704  1.1606
  442SOL    HW2 1326   1.707   1.950   2.721  0.6270  0.2022 -0.1655
  443SOL     OW 1327   0.652   1.305   2.910 -0.5478  0.6941 -0.2195
  443SOL    HW1 1328   0.603   1.340   2.832 -0.2705 -1.1328  0.0145
  443SOL    HW2 1329   0.707   1.219   2.886  0.0719 -1.1801 -0.9187
  444SOL     OW 1330   1.441   1.675   2.199  0.4143  0.0627 -0.4339
  444SOL    HW1 1331   1.394   1.761   2.173 -0.1742  1.0711  1.1884
  444SOL    HW2 1332   1.383   1.622   2.262 -0.7543  0.1963 -2.2729
  445SOL     OW 1333   0.114   3.049   0.859 -0.0572 -0.4528 -0.2129
  445SOL    HW1 1334   0.154   0.031   0.867  1.5220  1.3701 -0.0721
  445SOL    HW2 1335   0.070   3.037   0.948 -0.8502  0.3833 -3.3233
  446SOL     OW 1336   2.320   0.661   1.252  0.0694  0.8861  0.2498
  446SOL    HW1 1337   2.294   0.752   1.290 -0.2662 -0.8022 -2.1275
  446SOL    HW2 1338   2.238   0.609   1.223  0.0767  0.9603  0.0680
  447SOL     OW 1339   0.389   0.879   0.163 -0.1591 -0.3877  0.4211
  447SOL    HW1 1340   0.434   0.948   0.222  1.0529 -0.4516  2.2922
  447SOL    HW2 1341   0.294   0.859   0.202 -1.9164 -0.7479  1.5053
  448SOL     OW 1342   1.446   2.044   1.769  0.0735  0.8311  0.1283
  448SOL    HW1 1343   1.370   2.070   1.702  3.7349  1.7063 -1.5489
  448SOL    HW2 1344   1.419   2.071   1.865  2.0628 -1.3613 -1.4415
  449SOL     OW 1345   1.029   1.400   0.702 -0.2947 -0.0395  0.1230
  449SOL    HW1 1346   1.120   1.438   0.729 -3.5915 -0.7709  2.8307
  449SOL    HW2 1347   1.019   1.363   0.608  0.5394 -0.1770 -0.7884
  450SOL     OW 1348   2.990   1.788   1.880  0.4099  0.4849 -0.5716
  450SOL    HW1 1349   3.050   1.823   1.958  1.6798  2.0968 -0.1127
  450SOL    HW2 1350   2.917   1.724   1.914 -0.1169  3.3381  1.6789
  451SOL     OW 1351   2.738   1.442   2.802  0.4485 -0.0259  0.0745
  451SOL    HW1 1352   2.684   1.525   2.802  1.1952  0.3187  0.0994
  451SOL    HW2 1353   2.673   1.361   2.799  3.0565  1.3141  3.6464
  452SOL     OW 1354   1.695   0.599   1.288  0.2091  0.7404 -0.2760
  452SOL    HW1 1355   1.647   0.646   1.364  0.4727  0.5908  1.0368
  452SOL    HW2 1356   1.640   0.601   1.203 -2.6162 -0.6926  0.5163
  453SOL     OW 1357   1.998   1.083   1.309  0.2387 -0.2215  0.4457
  453SOL    HW1 1358   1.964   1.031   1.230  1.2635  1.0111 -2.0922
  453SOL    HW2 1359   2.012   1.179   1.288 -1.4514 -1.5981 -1.2968
  454SOL     OW 1360   2.997   0.722   0.333 -0.1812 -0.0000  0.0973
  454SOL    HW1 1361   3.066   0.656   0.300  0.5011  0.7252  0.3226
  454SOL    HW2 1362   2.908   0.678   0.369 -5.2106 -1.1938  1.6563
  455SOL     OW 1363   2.572   1.675   1.222 -0.1533  0.0291  0.1770
  455SOL    HW1 1364   2.609   1.687   1.130 -0.2204 -1.8768  1.2214
  455SOL    HW2 1365   2.644   1.689   1.291 -2.6996 -2.7527  0.4250
  456SOL     OW 1366   0.762   0.165   1.344 -0.2513 -0.4401 -0.3052
  456SOL    HW1 1367   0.726   0.246   1.397 -0.9741  1.4660 -0.5515
  456SOL    HW2 1368   0.743   0.079   1.397  2.5961 -0.2028 -1.0373
  457SOL     OW 1369   1.615   3.004   1.059  0.0805 -0.2866 -0.1798
  457SOL    HW1 1370   1.515   3.021   1.045  0.3411  0.5087 -0.8987
  457SOL    HW2 1371   1.675   3.079   1.028 -2.5217  0.8507 -0.3031
  458SOL     OW 1372   2.518   0.382   0.599 -0.1944 -0.1814  0.2748
  458SOL    HW1 1373   2.583   0.333   0.664  0.5213  0.6480 -0.2821
  458SOL    HW2 1374   2.466   0.454   0.644  0.8847  0.4977  0.8439
  459SOL     OW 1375   1.959   0.653   3.099 -0.0924 -1.1490 -0.1481
  459SOL    HW1 1376   1.997   0.733   0.038  0.3944 -1.3686  0.1881
  459SOL    HW2 1377   2.025   0.579   3.099  0.1413 -1.3893  0.5308
  460SOL     OW 1378   3.077   2.503   2.612 -0.0002 -0.0400 -0.2061
  460SOL    HW1 1379   2.988   2.520   2.660 -0.1375  1.9278 -2.9908
  460SOL    HW2 1380   0.007   2.586   2.580 -2.0298 -1.4412 -1.3854
  461SOL     OW 1381   0.632   1.775   3.106  0.5868 -0.1634  0.4279
  461SOL    HW1 1382   0.609   1.862   0.042  1.9494 -2.0355  0.4727
  461SOL    HW2 1383   0.580   1.696   0.028 -1.2485 -0.8441  1.0158
  462SOL     OW 1384   2.135   2.416   0.618  0.7954  0.5813 -0.2219
  462SOL    HW1 1385   2.231   2.387   0.636 -0.5073  0.8131 -2.0880
  462SOL    HW2 1386   2.095   2.480   0.689 -2.9279 -1.1504 -0.4914
  463SOL     OW 1387   0.136   0.641   0.540  0.4756 -0.8179  0.0990
  463SOL    HW1 1388   0.207   0.620   0.607  0.2973 -0.8199 -0.7105
  463SOL    HW2 1389   0.120   0.744   0.537 -0.1046  0.7514  0.5225
  464SOL     OW 1390   0.688   2.511   0.368 -1.0531  0.1043  0.0475
  464SOL    HW1 1391   0.593   2.517   0.405  0.3425  0.7328  0.2624
  464SOL    HW2 1392   0.711   2.416   0.345  1.3679 -0.3697 -1.6151
  465SOL     OW 1393   2.332   0.799   0.583 -0.0389  0.3197 -0.0145
  465SOL    HW1 1394   2.279   0.885   0.559  3.5305 -1.9003 -2.0295
  465SOL    HW2 1395   2.379   0.776   0.495 -0.0339  0.7421 -2.4300
  466SOL     OW 1396   2.107   0.236   0.067  0.2563  0.3973 -0.1485
  466SOL    HW1 1397   2.153   0.249   0.159  0.8852 -1.2985  2.7143
  466SOL    HW2 1398   2.118   0.140   0.035 -2.4668 -1.8754 -1.6267
  467SOL     OW 1399   1.053   0.649   1.930 -0.0378 -0.3365  0.7720
  467SOL    HW1 1400   1.093   0.610   1.844 -3.5228  3.9779  1.0177
  467SOL    HW2 1401   1.118   0.712   1.975  0.8299 -1.3320  0.7889
  468SOL     OW 1402   3.037   0.570   2.098  0.7460 -0.2188  0.1154
  468SOL    HW1 1403   3.084   0.549   2.187 -0.1228 -0.0675  1.2660
  468SOL    HW2 1404   3.017   0.667   2.091 -0.4390  2.2586 -0.1080
  469SOL     OW 1405   0.704   2.682   2.368  0.7000 -0.1165 -0.1229
  469SOL    HW1 1406   0.680   2.596   2.417 -0.6457  1.3449  1.0979
  469SOL    HW2 1407   0.720   2.767   2.422  1.2217 -0.1944 -0.3045
  470SOL     OW 1408   1.842   1.318   2.126  0.1569  0.4005  0.2068
  470SOL    HW1 1409   1.780   1.398   2.132  0.0578 -0.1482 -2.1451
  470SOL    HW2 1410   1.904   1.335   2.045  1.9511  0.8591 -2.7269
  471SOL     OW 1411   2.717   1.093   0.178 -0.2701  0.1612 -0.4888
  471SOL    HW1 1412   2.670   1.078   0.088 -1.1138  1.5043 -2.0869
  471SOL    HW2 1413   2.800   1.032   0.195 -0.7991 -2.9054  3.2652
  472SOL     OW 1414   0.401   2.958   0.519 -0.2093  0.7803  0.4258
  472SOL    HW1 1415   0.301   2.931   0.541 -2.6802 -0.2868 -0.9308
  472SOL    HW2 1416   0.464   2.883   0.540  2.6342 -0.8271 -0.3842
  473SOL     OW 1417   0.915   2.840   2.658  0.5456 -0.3901 -0.2419
  473SOL    HW1 1418   0.820   2.866   2.629 -1.5417 -3.1912 -1.2802
  473SOL    HW2 1419   0.962   2.787   2.583  0.2829 -1.4234 -2.2787
  474SOL     OW 1420   1.722   0.028   2.087 -0.2102  0.4840  0.0826
  474SOL    HW1 1421   1.722   3.065   2.015 -0.2464 -1.2773 -0.5712
  474SOL    HW2 1422   1.813   0.034   2.134 -2.1135  2.9319 -2.6728
  475SOL     OW 1423   1.004   2.664   3.102  0.0898  0.2664 -0.4170
  475SOL    HW1 1424   1.107   2.687   0.004  0.3116 -0.3963 -1.7987
  475SOL    HW2 1425   0.952   2.691   0.077  0.4837 -1.2231  0.5270
  476SOL     OW 1426   0.639   0.835   0.978 -0.0330  0.0762 -0.0587
  476SOL    HW1 1427   0.554   0.836   0.920  0.0328  1.5163  0.2316
  476SOL    HW2 1428   0.685   0.745   0.964  3.9874  1.0517  1.0105
  477SOL     OW 1429   1.761   2.093   1.278 -0.3363  0.1870 -0.0027
  477SOL    HW1 1430   1.702   2.160   1.228  0.1466  1.4085  1.6513
  477SOL    HW2 1431   1.843   2.071   1.222  0.5255  0.6200  0.8282
  478SOL     OW 1432   0.634   1.229   2.190  0.6604  0.4434 -0.3007
  478SOL    HW1 1433   0.655   1.318   2.142 -0.2301 -0.8903 -0.6767
  478SOL    HW2 1434   0.555   1.174   2.155 -0.5905 -0.4328 -1.3888
  479SOL     OW 1435   0.406   0.092   0.747  0.3534  0.3357 -0.6730
  479SOL    HW1 1436   0.405   0.030   0.667  0.6451  1.6204  0.4285
  479SOL    HW2 1437   0.362   0.175   0.717 -1.2411 -2.6326  1.8447
  480SOL     OW 1438   2.476   2.539   2.974  0.1264 -0.0626  0.4196
  480SOL    HW1 1439   2.416   2.462   2.948  2.6131  1.9589  1.2226
  480SOL    HW2 1440   2.571   2.505   2.987 -2.3552 -0.9089 -0.7314
  481SOL     OW 1441   2.563   0.762   1.142 -0.4723  0.2234 -0.4671
  481SOL    HW1 1442   2.461   0.747   1.138 -2.0448  3.7341  0.0796
  481SOL    HW2 1443   2.595   0.716   1.225 -0.7569  1.6656 -0.6658
  482SOL     OW 1444   1.300   2.491   1.753  0.1425 -0.5332 -0.0343
  482SOL    HW1 1445   1.362   2.464   1.679 -0.1131 -0.5772 -0.9994
  482SOL    HW2 1446   1.361   2.497   1.836 -1.0184 -1.1799 -2.8312
  483SOL     OW 1447   0.315   1.470   2.927  0.1907 -0.1788 -0.7615
  483SOL    HW1 1448   0.252   1.484   2.852 -0.4590  0.5808 -0.9041
  483SOL    HW2 1449   0.318   1.377   2.965  3.1190 -1.3647 -0.5180
  484SOL     OW 1450   1.300   2.018   2.433  0.7837  0.0806 -0.2620
  484SOL    HW1 1451   1.224   2.034   2.367  1.9749 -0.1153 -1.1692
  484SOL    HW2 1452   1.389   2.029   2.385 -0.5447 -0.4655  0.3421
  485SOL     OW 1453   0.154   0.171   2.484  0.3777  0.2992 -0.1640
  485SOL    HW1 1454   0.101   0.212   2.407 -0.2933 -1.2384  2.2546
  485SOL    HW2 1455   0.123   0.076   2.505 -0.0189 -3.1710 -2.3405
  486SOL     OW 1456   1.652   3.100   0.586 -0.3019  0.4818  0.2776
  486SOL    HW1 1457   1.587   0.027   0.515  1.5957 -0.5134 -0.2072
  486SOL    HW2 1458   1.711   3.020   0.559  0.9838 -0.4777  2.7411
  487SOL     OW 1459   1.136   2.726   0.926  0.2323 -0.1281 -0.4321
  487SOL    HW1 1460   1.116   2.650   0.865  0.3773  2.6435  3.8788
  487SOL    HW2 1461   1.065   2.797   0.923 -0.7253 -1.5290  1.2687
  488SOL     OW 1462   1.777   0.794   0.803 -0.2311 -0.5009  0.1927
  488SOL    HW1 1463   1.724   0.813   0.890 -2.3401 -0.8572 -2.1284
  488SOL    HW2 1464   1.862   0.854   0.797 -0.2970  0.4101  0.3222
  489SOL     OW 1465   1.223   2.701   1.357 -0.2690 -0.6836  0.1534
  489SOL    HW1 1466   1.293   2.731   1.425  3.7759  2.3991 -2.6255
  489SOL    HW2 1467   1.142   2.668   1.405  0.5753  1.0580 -1.0538
  490SOL     OW 1468   0.913   0.640   0.625 -0.6174 -0.1041 -0.0435
  490SOL    HW1 1469   0.966   0.715   0.676  0.2485 -1.7831 -0.5185
  490SOL    HW2 1470   0.887   0.656   0.529  0.9412 -1.7565 -0.2087
  491SOL     OW 1471   1.473   2.910   2.973  0.6494  0.1569 -0.5956
  491SOL    HW1 1472   1.448   2.811   2.990 -3.0952 -3.0146  0.6053
  491SOL    HW2 1473   1.404   2.949   2.915  2.2485 -0.7342  1.8442
  492SOL     OW 1474   1.216   1.418   2.123 -0.6387  0.1168  0.3933
  492SOL    HW1 1475   1.231   1.476   2.207 -1.0902 -0.4015 -0.5524
  492SOL    HW2 1476   1.132   1.362   2.146 -0.7736  1.7745 -0.3702
  493SOL     OW 1477   3.045   1.806   0.093  0.4258 -0.1253 -0.3829
  493SOL    HW1 1478   3.021   1.874   0.020 -2.6194 -0.2253  0.8782
  493SOL    HW2 1479   2.999   1.720   0.084  0.9999  2.2478 -5.0303
  494SOL     OW 1480   2.160   1.630   0.545  0.5195  0.0627  0.2257
  494SOL    HW1 1481   2.103   1.685   0.614 -1.1535  1.5772  2.8199
  494SOL    HW2 1482   2.107   1.555   0.501  0.8113  0.5899 -0.0638
  495SOL     OW 1483   0.152   0.838   2.649  0.1958 -0.5280 -0.2184
  495SOL    HW1 1484   0.118   0.846   2.550  1.9305 -0.2150 -3.2935
  495SOL    HW2 1485   0.161   0.929   2.691  0.4787 -2.5918  1.9791
  496SOL     OW 1486   2.896   3.040   2.338  0.4658  0.1811  0.1272
  496SOL    HW1 1487   2.861   3.028   2.246 -0.7368  2.2147  2.4719
  496SOL    HW2 1488   2.930   2.946   2.364 -0.2163 -1.9958 -0.8286
  497SOL     OW 1489   2.531   0.930   0.737  0.2547 -0.0383  0.2962
  497SOL    HW1 1490   2.475   0.887   0.662  0.6656  0.2529 -1.7794
  497SOL    HW2 1491   2.577   0.858   0.795  2.6061 -1.3311  0.4230
  498SOL     OW 1492   2.923   2.657   3.101 -0.4410  0.6698 -0.1777
  498SOL    HW1 1493   2.935   2.743   0.045  1.2236  1.4381  0.6207
  498SOL    HW2 1494   3.003   2.635   3.043  0.1357 -0.3153 -2.1843
  499SOL     OW 1495   1.615   2.544   0.742  0.7645 -0.3360  0.0877
  499SOL    HW1 1496   1.627   2.493   0.825 -0.6959  1.3031  1.2662
  499SOL    HW2 1497   1.565   2.493   0.665 -0.9385  0.1175 -0.8122
  500SOL     OW 1498   1.018   0.558   2.592 -0.2483  0.0277  0.1124
  500SOL    HW1 1499   0.947   0.512   2.643  1.2065  0.3942  0.1552
  500SOL    HW2 1500   1.025   0.655   2.618 -1.5311 -2.3062 -0.5496
  501SOL     OW 1501   0.993   0.267   1.440  0.0988  0.1961  0.4605
  501SOL    HW1 1502   1.045   0.176   1.429 -1.1721 -0.7560  0.4623
  501SOL    HW2 1503   0.895   0.248   1.421  0.8670  0.8675  2.2775
  502SOL     OW 1504   0.030   0.068   2.093 -0.4436  0.0063  0.1446
  502SOL    HW1 1505   0.109   0.021   2.132 -1.0164  0.6248 -0.9278
  502SOL    HW2 1506   3.108   0.143   2.153  1.9755  2.1587  0.5197
  503SOL     OW 1507   1.388   2.324   2.343  0.5961 -0.0540 -0.2293
  503SOL    HW1 1508   1.452   2.380   2.390 -1.9076 -1.3441 -1.4944
  503SOL    HW2 1509   1.427   2.237   2.307 -1.8933  1.7814 -1.0644
  504SOL     OW 1510   2.266   2.842   1.768  0.4792 -0.3192  0.0466
  504SOL    HW1 1511   2.353   2.844   1.813 -3.3153  1.1765 -2.0673
  504SOL    HW2 1512   2.251   2.929   1.718  0.7625  0.9020  1.1525
  505SOL     OW 1513   2.429   0.904   1.606  0.0931  0.7603 -0.0716
  505SOL    HW1 1514   2.484   0.930   1.524 -1.8751 -1.4391 -1.5960
  505SOL    HW2 1515   2.410   0.801   1.598 -1.3134 -2.7773  1.1052
  506SOL     OW 1516   0.340   1.599   2.094 -0.4243  0.5936  0.0219
  506SOL    HW1 1517   0.249   1.557   2.076 -0.4644  2.3640  2.3818
  506SOL    HW2 1518   0.413   1.529   2.122  1.0154 -0.1405  2.7116
  507SOL     OW 1519   0.071   2.950   1.328  0.5903 -0.0325  0.6480
  507SOL    HW1 1520   0.011   3.006   1.393  0.0865  0.0832 -2.5769
  507SOL    HW2 1521   0.076   2.856   1.356 -0.5826  2.2518 -1.9750
  508SOL     OW 1522   1.404   0.484   1.486  0.1900  0.7899  0.5507
  508SOL    HW1 1523   1.469   0.560   1.461 -1.7080  1.2664 -1.6390
  508SOL    HW2 1524   1.396   0.423   1.407  0.5341  0.6309 -0.3810
  509SOL     OW 1525   1.126   2.212   1.319 -0.1598  0.0274 -0.0169
  509SOL    HW1 1526   1.084   2.277   1.247  0.5857 -1.1356 -0.6307
  509SOL    HW2 1527   1.055   2.184   1.386  1.5434 -1.2291 -0.9044
  510SOL     OW 1528   2.713   1.554   0.062 -0.4361  0.6972  0.0316
  510SOL    HW1 1529   2.623   1.512   0.049  3.6492  2.1268  0.6354
  510SOL    HW2 1530   2.776   1.489   0.109  1.1875 -0.4569 -0.6465
  511SOL     OW 1531   0.851   1.497   1.274 -0.1154 -0.3101 -0.3177
  511SOL    HW1 1532   0.777   1.436   1.237 -0.2816 -0.4527 -0.5134
  511SOL    HW2 1533   0.808   1.584   1.295  0.0141  0.2831 -1.5970
  512SOL     OW 1534   2.897   2.456   0.300 -0.3105  0.3589 -0.2568
  512SOL    HW1 1535   2.969   2.413   0.242 -2.1166 -0.6991 -1.7583
  512SOL    HW2 1536   2.837   2.384   0.340  1.5320 -0.4655 -0.9750
  513SOL     OW 1537   0.666   1.631   2.695  0.0942 -0.5090 -0.0417
  513SOL    HW1 1538   0.676   1.670   2.600 -1.5072  0.7216  0.4096
  513SOL    HW2 1539   0.617   1.693   2.756  0.2683 -1.7634 -0.9930
  514SOL     OW 1540   0.091   2.356   2.831  0.6088  0.3025  0.2441
  514SOL    HW1 1541   0.080   2.409   2.917 -0.7722  1.5130  0.4951
  514SOL    HW2 1542   0.052   2.406   2.749 -0.7455  0.9766  1.0459
  515SOL     OW 1543   1.380   1.192   2.201  0.2560  0.2473 -0.2959
  515SOL    HW1 1544   1.320   1.121   2.161  1.1568 -1.5074 -0.9967
  515SOL    HW2 1545   1.355   1.289   2.174 -0.0410  1.3714 -1.4120
  516SOL     OW 1546   2.018   2.201   0.510 -0.6871  1.0105  0.5481
  516SOL    HW1 1547   2.100   2.159   0.460 -2.2563 -0.8222 -0.4398
  516SOL    HW2 1548   2.037   2.290   0.560 -1.3597 -0.5061 -4.2430
  517SOL     OW 1549   1.311   1.725   0.734 -0.1035  0.0571 -0.1361
  517SOL    HW1 1550   1.295   1.625   0.747 -0.6305  1.3057  1.0907
  517SOL    HW2 1551   1.332   1.750   0.637  0.1294  0.2202 -1.2897
  518SOL     OW 1552   2.056   2.429   2.244  0.0501  0.1687  0.2779
  518SOL    HW1 1553   2.069   2.418   2.346 -0.4177 -1.1549  0.8687
  518SOL    HW2 1554   1.964   2.392   2.218 -1.9827 -1.4094 -1.6548
  519SOL     OW 1555   1.659   2.369   0.982  0.1173 -0.4871 -0.1440
  519SOL    HW1 1556   1.757   2.369   0.983 -3.7261  1.1677 -1.7280
  519SOL    HW2 1557   1.627   2.304   0.913 -0.9640  1.5936 -1.5507
  520SOL     OW 1558   2.626   2.290   2.578  0.2747 -0.6569 -0.2664
  520SOL    HW1 1559   2.660   2.275   2.487  1.2154  1.4692  1.0801
  520SOL    HW2 1560   2.521   2.299   2.584  0.5627 -2.8641  2.6452
  521SOL     OW 1561   3.084   1.266   2.197  0.5578 -0.0503 -0.1882
  521SOL    HW1 1562   2.999   1.212   2.177 -0.2511  1.0676 -1.5666
  521SOL    HW2 1563   0.033   1.266   2.112 -1.9669 -0.1352 -0.1691
  522SOL     OW 1564   0.572   0.500   2.139  0.0704 -0.0991 -0.0944
  522SOL    HW1 1565   0.504   0.546   2.075  0.1000  2.8185 -1.3099
  522SOL    HW2 1566   0.597   0.556   2.222 -1.8171  0.2655  1.8659
  523SOL     OW 1567   0.512   1.939   0.797  0.5352  0.4692  0.3439
  523SOL    HW1 1568   0.526   1.925   0.895 -1.1326  3.4003 -2.3858
  523SOL    HW2 1569   0.411   1.960   0.789 -1.2052  0.7401  1.0496
  524SOL     OW 1570   1.617   2.793   0.468 -0.1337  0.3150 -0.2667
  524SOL    HW1 1571   1.674   2.708   0.465 -0.1801 -1.0674 -4.0221
  524SOL    HW2 1572   1.628   2.852   0.548  0.5952 -0.7381 -0.8551
  525SOL     OW 1573   2.367   0.652   1.551  0.3690 -0.7495  0.1380
  525SOL    HW1 1574   2.266   0.631   1.554  1.2844 -1.0212  2.4288
  525SOL    HW2 1575   2.418   0.592   1.609  0.3750  2.5275 -0.3653
  526SOL     OW 1576   0.920   2.602   0.522  0.0319 -0.2366 -0.3007
  526SOL    HW1 1577   0.920   2.698   0.483  0.6619  0.2943 -1.8610
  526SOL    HW2 1578   0.846   2.552   0.473  2.2397 -0.9375  0.5662
  527SOL     OW 1579   2.618   2.482   0.551 -0.1560 -0.4259  0.2162
  527SOL    HW1 1580   2.600   2.565   0.503 -0.5139  1.0417  2.2585
  527SOL    HW2 1581   2.667   2.410   0.496  0.1718 -3.4079 -0.7981
  528SOL     OW 1582   2.175   0.488   3.109  0.2728  0.4891  0.8121
  528SOL    HW1 1583   2.219   0.526   0.080 -1.3170 -2.2364  0.1177
  528SOL    HW2 1584   2.150   0.392   0.015  0.9808  1.5040  1.3222
  529SOL     OW 1585   1.509   1.655   2.620  0.6113 -0.3806  0.2296
  529SOL    HW1 1586   1.539   1.641   2.714 -0.8465 -0.6373 -1.6055
  529SOL    HW2 1587   1.591   1.671   2.564  1.2877  0.6894  0.0198
  530SOL     OW 1588   2.269   0.609   0.228  0.5989  0.5292  0.2614
  530SOL    HW1 1589   2.195   0.632   0.293 -0.5879 -0.2257  1.5212
  530SOL    HW2 1590   2.343   0.552   0.278  3.3933 -2.7961 -1.5554
  531SOL     OW 1591   1.618   0.944   2.998 -0.1016 -0.2433 -0.2622
  531SOL    HW1 1592   1.700   0.881   2.979 -0.3300 -0.1691  2.4918
  531SOL    HW2 1593   1.571   0.963   2.912 -0.5506 -1.1870  0.5016
  532SOL     OW 1594   1.664   0.708   0.389  0.7454 -0.7107 -0.3028
  532SOL    HW1 1595   1.724   0.658   0.453  1.9088  1.7794 -0.8774
  532SOL    HW2 1596   1.679   0.681   0.292 -0.5515  0.9453  0.0681
  533SOL     OW 1597   0.688   0.963   2.051 -0.7783 -0.0921 -0.0830
  533SOL    HW1 1598   0.591   0.934   2.058  1.2542 -0.2989  0.4926
  533SOL    HW2 1599   0.722   0.952   1.955  0.7094 -0.8775 -2.4718
  534SOL     OW 1600   1.536   0.318   2.514 -0.2051  0.1076 -0.5028
  534SOL    HW1 1601   1.474   0.340   2.432 -1.1373  2.4380 -2.5779
  534SOL    HW2 1602   1.493   0.368   2.593 -1.1932 -1.2001 -0.5487
  535SOL     OW 1603   0.320   0.142   0.232 -0.0424  0.1798  0.2185
  535SOL    HW1 1604   0.236   0.175   0.282  0.1325 -0.6555 -0.0919
  535SOL    HW2 1605   0.298   0.093   0.146  0.4818  1.1906  2.8090
  536SOL     OW 1606   0.827   0.267   0.819 -0.4370 -0.0662  0.1385
  536SOL    HW1 1607   0.745   0.325   0.808  0.9782  0.2751  0.6074
  536SOL    HW2 1608   0.829   0.242   0.919 -1.7074  2.6106  0.0859
  537SOL     OW 1609   1.628   0.948   0.610 -0.1957 -0.1377 -0.5176
  537SOL    HW1 1610   1.693   0.891   0.665 -2.2223 -2.2465 -0.9970
  537SOL    HW2 1611   1.592   0.890   0.535 -0.7121 -1.2694 -1.4795
  538SOL     OW 1612   2.995   2.188   2.982  0.3411 -0.4116  0.2080
  538SOL    HW1 1613   3.035   2.262   2.921  2.3041  1.8579 -1.9846
  538SOL    HW2 1614   2.895   2.186   2.971  0.1818 -0.6322 -2.1171
  539SOL     OW 1615   1.953   1.727   0.111  0.1358  0.0641 -0.0160
  539SOL    HW1 1616   1.945   1.806   0.176 -0.3328 -0.5582  2.6178
  539SOL    HW2 1617   1.953   1.637   0.155 -0.1201 -0.7862  2.7097
  540SOL     OW 1618   0.357   2.713   1.168  0.3502  0.2516  0.1407
  540SOL    HW1 1619   0.322   2.645   1.236 -0.9840 -1.2457  2.4574
  540SOL    HW2 1620   0.442   2.684   1.122 -1.8277 -0.5353 -1.8266
  541SOL     OW 1621   1.884   2.881   2.269 -0.3167  0.3154  0.3006
  541SOL    HW1 1622   1.881   2.894   2.370 -2.9200 -1.3198 -1.5730
  541SOL    HW2 1623   1.948   2.810   2.237 -2.6140  0.4703  2.2868
  542SOL     OW 1624   0.249   0.627   2.820 -0.4982  0.1572 -0.5124
  542SOL    HW1 1625   0.164   0.590   2.859  1.7621 -0.7272  2.2091
  542SOL    HW2 1626   0.225   0.702   2.757  0.0976 -3.0580  1.2083
  543SOL     OW 1627   0.021   1.163   1.310 -0.0627 -0.3259 -0.2858
  543SOL    HW1 1628   3.034   1.150   1.335  0.5426  1.0052 -2.6996
  543SOL    HW2 1629   0.031   1.193   1.211 -1.9706  0.6117  2.7458
  544SOL     OW 1630   2.561   0.352   1.060 -0.0865  0.4435  0.2880
  544SOL    HW1 1631   2.595   0.400   0.976 -0.9764  0.5194 -3.6729
  544SOL    HW2 1632   2.521   0.261   1.036  1.8505  0.3780  1.9692
  545SOL     OW 1633   1.510   2.412   0.548  0.0543  0.1990 -0.5414
  545SOL    HW1 1634   1.465   2.422   0.458  0.1526 -0.7495 -1.6861
  545SOL    HW2 1635   1.523   2.314   0.565 -3.1981 -1.6209 -1.3381
  546SOL     OW 1636   2.100   2.671   1.903  0.1776 -0.0447  0.3074
  546SOL    HW1 1637   2.115   2.573   1.927 -1.9193  1.3980  0.0617
  546SOL    HW2 1638   2.170   2.711   1.840  0.5692 -1.0014  1.7865
  547SOL     OW 1639   0.283   3.022   2.128 -0.4133 -0.9077  0.4553
  547SOL    HW1 1640   0.341   3.101   2.096 -2.1487  2.5462 -0.2926
  547SOL    HW2 1641   0.251   2.963   2.046 -0.9176  1.0792  2.7140
  548SOL     OW 1642   1.979   1.284   3.096  0.1015  0.1247  0.3369
  548SOL    HW1 1643   1.886   1.240   3.108 -2.2178 -0.7143  2.3025
  548SOL    HW2 1644   2.032   1.237   3.019 -1.0982  1.4153 -4.5209
  549SOL     OW 1645   2.968   1.113   0.602 -0.0209 -0.2129  0.4394
  549SOL    HW1 1646   2.865   1.088   0.602 -0.2860  0.7208  0.8752
  549SOL    HW2 1647   2.992   1.187   0.531 -1.9494  0.1865  0.6242
  550SOL     OW 1648   1.927   1.977   0.626  0.0012 -0.2684  0.6131
  550SOL    HW1 1649   1.950   2.066   0.580  1.4776 -2.4141 -1.8690
  550SOL    HW2 1650   1.867   1.998   0.700  0.6262 -2.4367 -1.8538
  551SOL     OW 1651   1.349   0.638   0.721 -0.2687 -0.0268  0.4886
  551SOL    HW1 1652   1.423   0.576   0.746 -2.6530  0.6930 -0.5809
  551SOL    HW2 1653   1.252   0.611   0.740 -0.2243  0.3993  1.9878
  552SOL     OW 1654   2.999   2.775   2.281  0.1205 -0.0808  0.8498
  552SOL    HW1 1655   3.091   2.811   2.290 -0.0153  0.0002  0.9167
  552SOL    HW2 1656   2.998   2.720   2.197  0.6076  0.0408 -0.2774
  553SOL     OW 1657   0.002   3.051   2.535  0.2966  0.1634 -0.1868
  553SOL    HW1 1658   3.008   3.060   2.528  0.4774 -1.1080 -2.8413
  553SOL    HW2 1659   0.035   2.996   2.457  1.1661 -2.2853 -2.5881
  554SOL     OW 1660   0.672   3.035   1.489  0.4382 -0.2314  0.0269
  554SOL    HW1 1661   0.613   2.955   1.502  0.9530 -1.0670 -0.6682
  554SOL    HW2 1662   0.770   3.012   1.493  0.9324  1.6891 -1.1875
  555SOL     OW 1663   2.460   2.462   2.039  0.0999  0.6750 -0.7941
  555SOL    HW1 1664   2.511   2.474   1.952  2.3144 -0.1314  0.2717
  555SOL    HW2 1665   2.519   2.405   2.101 -1.0999  2.0199  1.2067
  556SOL     OW 1666   1.195   0.407   2.752  0.5035  0.1122 -0.7414
  556SOL    HW1 1667   1.179   0.467   2.671  1.8489 -0.2678  1.7102
  556SOL    HW2 1668   1.193   0.310   2.727 -0.7146 -0.6528  0.5292
  557SOL     OW 1669   0.448   1.724   2.304 -0.2097  0.1175 -0.4682
  557SOL    HW1 1670   0.380   1.742   2.375  2.9125  0.3347 -2.6581
  557SOL    HW2 1671   0.404   1.692   2.223  0.9023  0.0671  0.1616
  558SOL     OW 1672   2.340   0.818   2.499 -1.1024  0.1510  0.1378
  558SOL    HW1 1673   2.397   0.898   2.512  0.2324  0.4430  1.0405
  558SOL    HW2 1674   2.325   0.806   2.396 -0.8046  0.0254 -0.1537
  559SOL     OW 1675   2.486   1.880   2.149 -0.4960  0.3869  0.3564
  559SOL    HW1 1676   2.486   1.944   2.063  3.5099 -0.7053 -2.7523
  559SOL    HW2 1677   2.492   1.935   2.237 -0.7629 -1.2782  0.6857
  560SOL     OW 1678   2.877   0.849   2.084 -0.9331 -0.1999 -0.4575
  560SOL    HW1 1679   2.786   0.803   2.088  0.0961 -1.5235  1.5740
  560SOL    HW2 1680   2.905   0.841   1.986  0.0068 -0.5046  0.5743
  561SOL     OW 1681   0.460   0.305   2.972 -0.4910 -0.0132 -0.6668
  561SOL    HW1 1682   0.360   0.298   2.995  3.0734 -1.3851  0.6971
  561SOL    HW2 1683   0.472   0.386   2.912  2.9952 -1.8717  2.6488
  562SOL     OW 1684   1.023   1.069   1.328  0.0513 -0.1630  0.3008
  562SOL    HW1 1685   1.110   1.115   1.353 -1.6517  2.0624 -2.4035
  562SOL    HW2 1686   0.948   1.093   1.397 -2.0737  0.8454 -0.1278
  563SOL     OW 1687   1.687   0.098   2.733  0.0910  0.3097  0.2022
  563SOL    HW1 1688   1.614   0.067   2.669  0.7896  0.3323  0.0303
  563SOL    HW2 1689   1.679   0.053   2.824 -2.1203 -0.9762 -0.8075
  564SOL     OW 1690   0.015   2.247   1.072 -0.5151 -0.0272 -0.1889
  564SOL    HW1 1691   0.107   2.216   1.041  2.4712  0.6030 -2.1665
  564SOL    HW2 1692   3.087   2.187   1.144 -3.2044  2.4208  0.3385
  565SOL     OW 1693   0.611   2.342   2.017  0.0421 -0.4765  0.2099
  565SOL    HW1 1694   0.665   2.362   1.937 -2.7902 -0.3255 -0.3272
  565SOL    HW2 1695   0.607   2.244   2.038 -3.4124 -2.4122  1.0137
  566SOL     OW 1696   1.170   2.630   2.134  0.0309  0.2289 -0.0264
  566SOL    HW1 1697   1.125   2.552   2.185  1.6215 -0.3241  1.1343
  566SOL    HW2 1698   1.273   2.617   2.136  3.0926  2.3797  1.6900
  567SOL     OW 1699   1.931   2.397   1.012  0.3488 -0.1272 -0.3816
  567SOL    HW1 1700   1.963   2.395   1.107  1.8949 -0.1640 -2.1894
  567SOL    HW2 1701   1.995   2.452   0.953  0.0306 -1.8374 -2.0879
  568SOL     OW 1702   2.027   0.740   0.628 -0.0212 -0.0842 -0.3705
  568SOL    HW1 1703   2.074   0.834   0.630 -0.7827 -0.1928 -0.1385
  568SOL    HW2 1704   2.077   0.679   0.685 -0.7701  1.1952 -1.6239
  569SOL     OW 1705   2.825   1.769   2.544 -0.2133  0.1210  0.5670
  569SOL    HW1 1706   2.913   1.821   2.562  0.9833  2.6269  0.2893
  569SOL    HW2 1707   2.840   1.667   2.537  2.2994  3.2222 -1.8312
  570SOL     OW 1708   2.871   3.107   1.014  0.4032  0.0698  0.0399
  570SOL    HW1 1709   2.938   0.050   1.066 -1.2267 -2.0848  0.1926
  570SOL    HW2 1710   2.776   0.000   1.058 -4.8123  0.1039  0.5373
  571SOL     OW 1711   3.100   0.469   1.520 -0.1055 -0.1723  0.4220
  571SOL    HW1 1712   0.073   0.496   1.567 -0.1791 -0.2263 -0.4297
  571SOL    HW2 1713   3.078   0.370   1.550 -0.7214 -2.0291  0.5770
  572SOL     OW 1714   2.723   2.451   0.786 -0.7192 -0.0229 -0.1762
  572SOL    HW1 1715   2.690   2.473   0.689 -0.1521  2.3635 -0.0604
  572SOL    HW2 1716   2.817   2.412   0.778  0.8321 -2.2741 -1.0838
  573SOL     OW 1717   0.865   0.529   2.965 -0.5365 -0.4225 -0.1164
  573SOL    HW1 1718   0.908   0.454   3.019  1.2014  1.1921  2.2820
  573SOL    HW2 1719   0.806   0.590   3.023 -2.5080  3.2679  1.7997
  574SOL     OW 1720   2.973   2.890   0.126 -0.0321 -0.2292 -0.6611
  574SOL    HW1 1721   2.887   2.941   0.148 -1.0751 -0.7213  1.0194
  574SOL    HW2 1722   3.037   2.941   0.067 -2.0848 -0.5246  1.9205
  575SOL     OW 1723   1.395   2.256   1.356  0.1287  0.4764 -0.2202
  575SOL    HW1 1724   1.290   2.251   1.363 -2.4355 -0.9337  0.6045
  575SOL    HW2 1725   1.422   2.335   1.299 -0.0466 -0.2249 -2.0561
  576SOL     OW 1726   0.714   2.640   1.005  0.2287 -0.3837 -0.3741
  576SOL    HW1 1727   0.774   2.572   0.952  0.2429  0.7149 -0.8661
  576SOL    HW2 1728   0.762   2.670   1.088  1.0995  1.4423  0.0448
  577SOL     OW 1729   2.303   1.736   1.307  0.1059 -0.0124 -0.6500
  577SOL    HW1 1730   2.393   1.733   1.257  0.4608 -1.3882 -1.8143
  577SOL    HW2 1731   2.309   1.706   1.406 -1.0382 -1.6484 -1.0343
  578SOL     OW 1732   1.404   0.325   0.267  0.3660 -0.5730 -0.3542
  578SOL    HW1 1733   1.390   0.427   0.275  0.6910 -0.2763 -0.2618
  578SOL    HW2 1734   1.392   0.294   0.172  0.0307 -0.9843  0.6400
  579SOL     OW 1735   2.375   1.075   2.932  0.0767 -0.1292 -0.3281
  579SOL    HW1 1736   2.444   1.075   3.002  1.9121  0.3700  0.2299
  579SOL    HW2 1737   2.336   0.978   2.916 -0.6000 -2.3039 -0.1216
  580SOL     OW 1738   1.862   0.498   2.084 -0.0914  0.2277 -0.0123
  580SOL    HW1 1739   1.775   0.547   2.088 -0.8730  0.7272 -2.8839
  580SOL    HW2 1740   1.877   0.442   2.166  0.5635  2.4920 -1.5983
  581SOL     OW 1741   0.677   1.285   1.160 -0.4776  0.3980  0.2411
  581SOL    HW1 1742   0.608   1.317   1.094  1.9774  3.0339 -0.3649
  581SOL    HW2 1743   0.696   1.186   1.164 -0.9667 -0.3624 -1.9939
  582SOL     OW 1744   2.708   0.082   2.136 -0.6248  0.2167 -0.3314
  582SOL    HW1 1745   2.661   0.025   2.202  2.4026  1.3708 -0.6846
  582SOL    HW2 1746   2.643   0.154   2.101 -0.1128 -2.6970  2.5316
  583SOL     OW 1747   3.102   0.381   1.913 -0.2859  0.0288  0.3916
  583SOL    HW1 1748   3.080   0.446   1.990 -1.1628  1.2758  0.5065
  583SOL    HW2 1749   3.048   0.297   1.921  1.6462 -1.1538 -0.7590
  584SOL     OW 1750   1.220   1.866   2.875 -0.4697 -0.0344  0.1157
  584SOL    HW1 1751   1.263   1.955   2.906 -0.3993  1.5436  0.5020
  584SOL    HW2 1752   1.259   1.841   2.781  0.3757  2.0182 -3.3083
  585SOL     OW 1753   0.299   3.046   0.005  0.1672 -0.0417  0.7504
  585SOL    HW1 1754   0.392   3.008   0.030  1.6342 -2.1067  0.8995
  585SOL    HW2 1755   0.295   3.084   3.020 -0.2277  2.2810  0.8588
  586SOL     OW 1756   1.991   1.725   2.569 -0.0361 -0.4445 -0.4149
  586SOL    HW1 1757   2.087   1.751   2.536  0.7561 -0.0081 -0.5617
  586SOL    HW2 1758   1.967   1.632   2.543  0.4117 -1.7944  0.2301
  587SOL     OW 1759   2.459   2.521   0.283  0.7505 -0.6376 -0.1670
  587SOL    HW1 1760   2.388   2.563   0.219 -0.2081  1.2021 -0.7537
  587SOL    HW2 1761   2.452   2.422   0.299 -0.3514 -0.2919  1.9029
  588SOL     OW 1762   2.382   0.142   1.025  0.5561 -0.0395 -0.1670
  588SOL    HW1 1763   2.331   0.228   1.000 -0.4738  0.0245  0.3435
  588SOL    HW2 1764   2.379   0.075   0.953  1.2347 -1.2127  0.1689
  589SOL     OW 1765   0.651   0.650   0.743  0.1271  0.4210  0.6918
  589SOL    HW1 1766   0.735   0.622   0.693 -1.1781 -3.6460  1.6310
  589SOL    HW2 1767   0.579   0.695   0.689 -1.2867  1.5574 -0.1161
  590SOL     OW 1768   2.215   2.059   0.366  0.6808  0.0992 -0.2732
  590SOL    HW1 1769   2.255   1.968   0.377 -0.0190  0.4384  3.2474
  590SOL    HW2 1770   2.284   2.122   0.327  0.8528  0.7599 -0.9006
  591SOL     OW 1771   0.502   2.280   0.937  0.3090  0.3954 -0.3693
  591SOL    HW1 1772   0.583   2.267   0.879 -1.1358  2.6704 -1.9653
  591SOL    HW2 1773   0.481   2.381   0.943 -1.8715  1.2432 -2.3362
  592SOL     OW 1774   1.035   0.735   1.452 -0.5707  0.0140  0.2882
  592SOL    HW1 1775   1.070   0.660   1.511 -1.4261  0.8676  0.9514
  592SOL    HW2 1776   0.965   0.702   1.386 -0.2608 -1.0343  1.0365
  593SOL     OW 1777   1.007   1.280   1.154 -0.3888  0.4195  0.1186
  593SOL    HW1 1778   0.986   1.194   1.206  0.5769  0.1613  0.9325
  593SOL    HW2 1779   0.959   1.363   1.193  0.7204 -0.0305 -0.2852
  594SOL     OW 1780   0.828   2.257   0.302  0.4135  0.9203 -0.9545
  594SOL    HW1 1781   0.890   2.300   0.233  0.5764 -2.4983 -2.7920
  594SOL    HW2 1782   0.856   2.158   0.310  0.2366 -0.8171  0.8387
  595SOL     OW 1783   1.740   0.368   1.409  0.1337  0.2850  0.4488
  595SOL    HW1 1784   1.740   0.450   1.347 -2.9435  0.2475  1.0234
  595SOL    HW2 1785   1.720   0.393   1.506 -1.5693 -1.3087  0.1672
  596SOL     OW 1786   2.852   1.165   1.346 -0.4982 -0.0913  0.3904
  596SOL    HW1 1787   2.829   1.116   1.258 -0.5729  0.5869 -0.6019
  596SOL    HW2 1788   2.802   1.250   1.354 -0.6628 -1.9781 -1.2797
  597SOL     OW 1789   0.251   2.716   2.473 -1.0902  0.1593  0.4140
  597SOL    HW1 1790   0.240   2.650   2.545  0.2142  1.2698 -2.2990
  597SOL    HW2 1791   0.279   2.673   2.383  0.1537  0.4293  0.4924
  598SOL     OW 1792   2.882   2.314   1.855 -0.3335 -0.7170 -0.0120
  598SOL    HW1 1793   2.903   2.410   1.875 -0.9451 -3.5638  0.4652
  598SOL    HW2 1794   2.859   2.307   1.754 -0.7641 -0.1177 -1.3811
  599SOL     OW 1795   0.955   2.963   2.885  0.2215 -0.1011 -0.4671
  599SOL    HW1 1796   0.875   2.988   2.945  0.2486  0.8246 -0.2700
  599SOL    HW2 1797   0.927   2.909   2.804  0.8864  1.6529 -2.3097
  600SOL     OW 1798   0.255   2.159   2.802 -0.3434 -0.4419 -0.1013
  600SOL    HW1 1799   0.181   2.230   2.794 -2.1211  0.6951  0.7136
  600SOL    HW2 1800   0.236   2.099   2.883 -0.0553 -1.2671 -0.5175
  601SOL     OW 1801   0.647   0.916   1.389  0.3365 -0.3796  0.7039
  601SOL    HW1 1802   0.655   0.817   1.395 -0.0829  1.2765  1.9176
  601SOL    HW2 1803   0.696   0.947   1.302 -0.0245  1.1759 -1.3808
  602SOL     OW 1804   0.690   2.888   0.905  0.0112 -0.0026  0.2450
  602SOL    HW1 1805   0.702   2.809   0.962 -0.5543  1.9175 -0.8021
  602SOL    HW2 1806   0.635   2.961   0.946  0.2996 -2.4712 -3.2613
  603SOL     OW 1807   0.352   0.455   2.440  0.1876  0.1248  0.0063
  603SOL    HW1 1808   0.426   0.472   2.501  0.8377 -2.4773 -1.1261
  603SOL    HW2 1809   0.387   0.378   2.383 -0.1432  0.0173 -1.2265
  604SOL     OW 1810   0.428   2.890   1.564 -0.0895 -0.1335  0.1727
  604SOL    HW1 1811   0.420   2.932   1.655  1.3372  0.0287 -2.2651
  604SOL    HW2 1812   0.383   2.938   1.487 -0.1563 -0.1933  0.2173
  605SOL     OW 1813   1.627   0.681   2.066  0.1937  0.1438  0.0451
  605SOL    HW1 1814   1.595   0.688   1.967  0.6842 -1.9763 -2.5983
  605SOL    HW2 1815   1.693   0.753   2.092 -2.8979  0.1110 -2.8775
  606SOL     OW 1816   2.594   2.796   2.910 -0.0144 -0.4554 -0.4081
  606SOL    HW1 1817   2.534   2.716   2.917 -0.1707  2.4178  0.7229
  606SOL    HW2 1818   2.650   2.784   2.824 -0.7192  0.3858  0.0776
  607SOL     OW 1819   0.689   0.663   1.273 -0.1588  0.2223 -0.3239
  607SOL    HW1 1820   0.631   0.606   1.326  1.1875  0.9002 -3.4106
  607SOL    HW2 1821   0.706   0.610   1.188 -1.1274 -1.7410 -0.0959
  608SOL     OW 1822   0.255   1.788   2.480  0.3080  0.1985 -0.0041
  608SOL    HW1 1823   0.154   1.781   2.490  1.2874 -2.7916  1.0507
  608SOL    HW2 1824   0.297   1.867   2.533  0.7605  0.4735 -1.4661
  609SOL     OW 1825   1.494   1.403   0.641 -0.5993 -0.0254 -0.3931
  609SOL    HW1 1826   1.528   1.315   0.593  0.8720 -3.4198 -2.4985
  609SOL    HW2 1827   1.487   1.484   0.577 -0.9065 -0.2973 -1.5834
  610SOL     OW 1828   0.390   0.657   1.169 -0.3837  0.0071 -0.0521
  610SOL    HW1 1829   0.465   0.681   1.106 -0.9419 -0.5296  0.6769
  610SOL    HW2 1830   0.367   0.735   1.221  2.1699 -2.3878 -2.2339
  611SOL     OW 1831   1.479   1.075   0.813 -0.3227 -0.1362 -0.1986
  611SOL    HW1 1832   1.524   1.106   0.896 -1.2149 -0.5585  1.5499
  611SOL    HW2 1833   1.550   1.038   0.746  0.9200 -1.3338  2.1070
  612SOL     OW 1834   1.962   1.208   0.551 -0.0303  0.4831 -0.2509
  612SOL    HW1 1835   1.865   1.210   0.551  0.1311  1.8179  3.1034
  612SOL    HW2 1836   2.008   1.294   0.513  1.4538 -2.6777 -1.6526
  613SOL     OW 1837   2.036   0.698   0.363 -0.2170 -0.1327  0.3588
  613SOL    HW1 1838   2.030   0.709   0.463  2.4277 -1.2862 -2.1803
  613SOL    HW2 1839   1.967   0.755   0.317 -0.5643 -0.4369  0.4753
  614SOL     OW 1840   2.737   0.069   2.542 -0.1402 -0.2931  0.2340
  614SOL    HW1 1841   2.735   0.043   2.445 -0.7048  0.0088  0.9476
  614SOL    HW2 1842   2.641   0.066   2.575  0.1171 -0.9418 -3.9241
  615SOL     OW 1843   0.571   1.793   0.581  0.1841 -0.7923 -0.4188
  615SOL    HW1 1844   0.630   1.715   0.600 -0.4225 -0.3799  0.3692
  615SOL    HW2 1845   0.558   1.849   0.664 -2.4544  1.0173 -2.6166
  616SOL     OW 1846   1.513   1.038   2.751 -0.1954 -0.2477  0.3635
  616SOL    HW1 1847   1.518   1.142   2.739  1.1412  0.0046  0.2021
  616SOL    HW2 1848   1.419   0.999   2.756 -1.3136 -0.9424  0.4221
  617SOL     OW 1849   1.444   0.549   3.047 -0.7982 -0.1712 -0.0827
  617SOL    HW1 1850   1.344   0.525   3.047  3.4504  1.3607 -0.1436
  617SOL    HW2 1851   1.509   0.480   3.012  0.7971  4.3484  3.3282
  618SOL     OW 1852   1.810   2.424   2.506 -0.3967 -0.2718  0.0305
  618SOL    HW1 1853   1.743   2.461   2.442  1.3809 -1.7514 -2.9308
  618SOL    HW2 1854   1.784   2.432   2.605  0.5065 -0.8356  1.9533
  619SOL     OW 1855   2.233   1.816   0.894  0.2821 -0.2756  0.2556
  619SOL    HW1 1856   2.315   1.785   0.838 -1.5701 -0.8630  3.1383
  619SOL    HW2 1857   2.149   1.773   0.854 -1.6683  0.8010 -1.1446
  620SOL     OW 1858   2.104   2.772   2.500  0.1072 -0.3144  0.2291
  620SOL    HW1 1859   2.119   2.735   2.405  0.1428 -0.8773 -1.7220
  620SOL    HW2 1860   2.014   2.822   2.515 -4.6397  1.3628 -1.2145
  621SOL     OW 1861   0.231   1.319   0.731 -0.8648 -0.0464 -0.0891
  621SOL    HW1 1862   0.237   1.326   0.628 -0.0552  0.1691  0.6893
  621SOL    HW2 1863   0.277   1.395   0.778 -1.6101 -0.0210  1.9967
  622SOL     OW 1864   1.261   1.425   2.727 -0.2823  0.0751  0.3213
  622SOL    HW1 1865   1.199   1.424   2.646  2.5208 -0.0843 -0.9467
  622SOL    HW2 1866   1.206   1.433   2.815 -2.0295 -0.6128  0.5820
  623SOL     OW 1867   2.832   2.459   2.232 -0.0254 -0.5417 -0.0702
  623SOL    HW1 1868   2.876   2.430   2.315 -1.4158 -0.4152 -1.3842
  623SOL    HW2 1869   2.902   2.506   2.176 -1.9970 -1.0415  0.5166
  624SOL     OW 1870   0.655   2.647   0.028  0.3741  0.2846 -0.0978
  624SOL    HW1 1871   0.697   2.619   3.053 -1.2649  1.6778  0.0463
  624SOL    HW2 1872   0.724   2.666   0.098  0.2569 -0.1879  0.8073
  625SOL     OW 1873   0.515   2.057   2.023  0.1207  0.1827 -0.3527
  625SOL    HW1 1874   0.421   2.059   2.067 -1.0917 -0.1631 -1.6881
  625SOL    HW2 1875   0.520   1.979   1.960 -0.6826 -0.7314  0.8124
  626SOL     OW 1876   0.562   2.969   2.835 -0.4022 -0.1237  0.4663
  626SOL    HW1 1877   0.525   2.923   2.749 -1.3349 -1.2759 -1.2515
  626SOL    HW2 1878   0.549   2.900   2.906  0.3161  1.1333 -1.3690
  627SOL     OW 1879   1.921   1.489   0.200  0.0940 -0.7782 -0.0585
  627SOL    HW1 1880   1.911   1.414   0.138 -1.4544  0.9506  2.4796
  627SOL    HW2 1881   1.842   1.486   0.266 -0.7873  2.3406  0.3167
  628SOL     OW 1882   1.123   2.214   0.566  0.2892 -0.4101 -0.0324
  628SOL    HW1 1883   1.119   2.170   0.658  1.3588 -0.3088 -2.2204
  628SOL    HW2 1884   1.115   2.313   0.578 -1.9692 -1.3665  2.5095
  629SOL     OW 1885   3.059   0.235   1.669  0.2596  0.0533  0.6385
  629SOL    HW1 1886   0.039   0.211   1.709  1.2415  0.8376 -1.0376
  629SOL    HW2 1887   2.986   0.222   1.740 -1.0133  0.0543  3.8109
  630SOL     OW 1888   2.207   0.287   1.864 -0.1861 -0.4871 -0.2098
  630SOL    HW1 1889   2.226   0.316   1.771 -3.4550 -0.3216  0.7427
  630SOL    HW2 1890   2.106   0.291   1.876 -1.9308  0.6819 -0.8891
  631SOL     OW 1891   1.435   0.218   1.021 -0.1732 -0.3610  0.6906
  631SOL    HW1 1892   1.502   0.244   0.953  0.1365 -2.4532  4.1190
  631SOL    HW2 1893   1.405   0.122   1.016  3.0856  2.3463  1.7195
  632SOL     OW 1894   2.917   0.807   1.834  0.7925 -0.5317 -0.0868
  632SOL    HW1 1895   2.922   0.710   1.801  0.5819  1.4872  2.0582
  632SOL    HW2 1896   2.899   0.877   1.762  2.3168 -0.1580 -1.6100
  633SOL     OW 1897   1.263   0.991   2.829  0.4128  0.4585  0.3792
  633SOL    HW1 1898   1.206   1.027   2.753 -0.6471  0.8339  0.0572
  633SOL    HW2 1899   1.243   0.892   2.847 -0.6827  0.7146 -1.0090
  634SOL     OW 1900   0.459   2.796   3.031  0.6657  0.3091  0.7842
  634SOL    HW1 1901   0.452   2.722   2.964 -0.0545 -2.0195 -1.1858
  634SOL    HW2 1902   0.520   2.772   3.109 -1.1932  0.9141  0.5549
  635SOL     OW 1903   2.952   1.549   1.410 -0.2374  0.3951  0.0909
  635SOL    HW1 1904   2.903   1.475   1.368 -0.5595 -1.2199  1.3942
  635SOL    HW2 1905   3.051   1.522   1.406 -1.0981  2.5228 -0.4831
  636SOL     OW 1906   0.165   1.566   0.076 -0.7936 -0.0952  0.1117
  636SOL    HW1 1907   0.150   1.654   0.123 -0.8460  0.2042 -1.7278
  636SOL    HW2 1908   0.071   1.532   0.052 -1.1144  0.0161 -0.3796
  637SOL     OW 1909   3.042   2.714   0.335 -0.8742  0.4984 -0.0038
  637SOL    HW1 1910   3.030   2.781   0.261 -1.4121 -1.8200  1.9089
  637SOL    HW2 1911   2.979   2.634   0.325  1.1498 -0.6530  0.8952
  638SOL     OW 1912   2.706   2.645   0.247 -0.4518  0.1197  0.1385
  638SOL    HW1 1913   2.789   2.583   0.255  1.5632  0.4563  3.3187
  638SOL    HW2 1914   2.621   2.593   0.251 -0.0886  0.3065 -0.3686
  639SOL     OW 1915   1.468   0.418   2.753 -0.3423  0.1504 -0.0360
  639SOL    HW1 1916   1.368   0.413   2.768 -1.2982  0.6313 -0.0454
  639SOL    HW2 1917   1.523   0.368   2.827  2.6358 -2.0294  1.1377
  640SOL     OW 1918   2.113   2.163   1.693  0.1267  0.7360  0.0014
  640SOL    HW1 1919   2.091   2.110   1.780  1.1226 -0.1817  2.2964
  640SOL    HW2 1920   2.135   2.259   1.700  1.7476 -2.4620  0.7836
  641SOL     OW 1921   2.901   0.090   0.754 -0.2968 -0.0967 -0.0772
  641SOL    HW1 1922   2.896   0.044   0.844  0.2320 -2.8103 -0.5559
  641SOL    HW2 1923   2.972   0.043   0.696  0.7403  1.3923 -3.7338
  642SOL     OW 1924   1.192   0.989   1.768  0.2078 -0.2787 -0.1557
  642SOL    HW1 1925   1.235   1.074   1.728 -2.5343  1.6798 -0.3476
  642SOL    HW2 1926   1.093   0.982   1.748  0.9984  0.7957 -1.0435
  643SOL     OW 1927   0.793   1.996   2.809 -0.3872  0.5117  0.1755
  643SOL    HW1 1928   0.865   1.921   2.835  0.2013 -2.7094  0.2361
  643SOL    HW2 1929   0.788   2.011   2.709 -0.3894 -1.7895  0.2267
  644SOL     OW 1930   1.379   2.665   2.459 -0.3458  0.1865 -0.0005
  644SOL    HW1 1931   1.345   2.749   2.408 -2.0189  0.9430  1.0381
  644SOL    HW2 1932   1.302   2.611   2.487  1.9009  1.1404  1.5913
  645SOL     OW 1933   1.570   0.699   1.797 -0.1499  0.1649 -0.7131
  645SOL    HW1 1934   1.616   0.789   1.760 -1.9341  2.5410 -1.8518
  645SOL    HW2 1935   1.469   0.711   1.814 -0.2694 -1.4644 -0.6751
  646SOL     OW 1936   1.169   2.316   2.698  0.0877 -0.1841  0.8664
  646SOL    HW1 1937   1.169   2.405   2.649  1.7081 -1.4616  0.4272
  646SOL    HW2 1938   1.251   2.269   2.662 -1.6520  1.1261  1.4801
  647SOL     OW 1939   1.143   2.924   0.619  0.6655  0.3334 -0.3269
  647SOL    HW1 1940   1.131   3.017   0.662  0.4934  4.8153 -1.7594
  647SOL    HW2 1941   1.236   2.890   0.635  2.3267  2.6808  2.2524
  648SOL     OW 1942   2.668   2.659   1.253 -0.2010  0.0493  0.1100
  648SOL    HW1 1943   2.658   2.597   1.171 -0.7377  0.0975 -1.0456
  648SOL    HW2 1944   2.637   2.616   1.337 -0.6879  0.3144 -0.9224
  649SOL     OW 1945   0.622   2.492   2.536  0.9373  0.0694 -0.1251
  649SOL    HW1 1946   0.597   2.445   2.449  0.9233 -2.5961  0.4461
  649SOL    HW2 1947   0.624   2.423   2.612  0.6200 -0.7683 -0.2542
  650SOL     OW 1948   2.539   1.798   2.513  0.2300  0.0035  0.3546
  650SOL    HW1 1949   2.641   1.806   2.495  1.1517  0.5961 -1.7107
  650SOL    HW2 1950   2.501   1.893   2.508  0.9355 -1.1091  1.1502
  651SOL     OW 1951   2.700   2.275   2.086 -0.0966  0.0887  0.7091
  651SOL    HW1 1952   2.765   2.261   2.012 -1.6621 -0.3455  3.4476
  651SOL    HW2 1953   2.733   2.357   2.142 -0.8110  1.2822  0.8480
  652SOL     OW 1954   2.414   2.377   0.686  0.7345  0.8898  0.3720
  652SOL    HW1 1955   2.481   2.409   0.613  0.7702  0.1457 -1.5925
  652SOL    HW2 1956   2.430   2.279   0.711 -0.5054 -1.1882  1.4018
  653SOL     OW 1957   2.632   1.237   1.043 -0.0428  0.4902  0.1344
  653SOL    HW1 1958   2.576   1.273   1.123 -0.1348  1.7223 -1.1363
  653SOL    HW2 1959   2.677   1.150   1.067 -0.0490  2.4669  0.3074
  654SOL     OW 1960   0.807   0.402   2.722 -0.0089  0.0766 -0.2610
  654SOL    HW1 1961   0.856   0.312   2.741  0.5895 -4.0246 -1.3954
  654SOL    HW2 1962   0.804   0.459   2.809 -0.7307  1.2801 -2.6140
  655SOL     OW 1963   0.825   0.240   1.089 -0.0343 -0.2107  0.4457
  655SOL    HW1 1964   0.921   0.273   1.084  0.3883  0.3709  0.7374
  655SOL    HW2 1965   0.804   0.176   1.168  1.0740  0.8710  2.8567
  656SOL     OW 1966   0.394   2.408   1.869  0.3295 -0.1103  0.4545
  656SOL    HW1 1967   0.416   2.368   1.777  1.8993  0.8949  2.0909
  656SOL    HW2 1968   0.475   2.390   1.936  1.6695 -0.0173  0.4738
  657SOL     OW 1969   2.526   0.817   0.339 -0.0821  0.2281  0.0185
  657SOL    HW1 1970   2.497   0.802   0.246 -0.9331 -0.3916 -0.6933
  657SOL    HW2 1971   2.543   0.914   0.365 -0.9775  1.1655 -0.0461
  658SOL     OW 1972   1.926   1.995   1.064 -0.1705  0.6119  0.5525
  658SOL    HW1 1973   1.883   2.014   0.971 -0.0254 -0.5302 -1.6207
  658SOL    HW2 1974   1.938   1.895   1.073  1.4688 -0.0771 -0.5092
  659SOL     OW 1975   2.618   1.835   2.962 -0.2020 -0.2477 -0.0396
  659SOL    HW1 1976   2.651   1.828   3.061  0.5303  1.8868  2.4964
  659SOL    HW2 1977   2.678   1.894   2.907 -0.5329 -0.3268  0.1268
  660SOL     OW 1978   1.113   0.301   0.315  0.9424 -0.0371 -0.3665
  660SOL    HW1 1979   1.091   0.218   0.378 -1.9803 -2.0929  0.3195
  660SOL    HW2 1980   1.210   0.333   0.323  0.2656  0.7878  1.1127
  661SOL     OW 1981   1.784   2.998   0.154 -0.3977  0.2566  0.5653
  661SOL    HW1 1982   1.816   2.913   0.107 -0.5190 -0.3423 -0.5163
  661SOL    HW2 1983   1.850   3.041   0.218  0.4540  1.3818 -0.0165
  662SOL     OW 1984   0.709   2.935   0.642  0.5477 -0.0301  0.2550
  662SOL    HW1 1985   0.691   3.034   0.631 -0.6538 -3.6446 -1.2140
  662SOL    HW2 1986   0.705   2.902   0.740  2.0605  1.2145 -1.2049
  663SOL     OW 1987   1.493   0.051   2.313 -0.6266 -0.1325 -0.3550
  663SOL    HW1 1988   1.591   0.048   2.276 -0.5911  0.2922  0.0472
  663SOL    HW2 1989   1.467   0.144   2.335 -3.2034 -2.2592 -0.5126
  664SOL     OW 1990   0.791   2.610   1.498  0.7676  0.3104  0.5321
  664SOL    HW1 1991   0.717   2.548   1.461 -0.3870  0.1375 -0.3820
  664SOL    HW2 1992   0.744   2.659   1.578 -1.1532  1.5239  2.6948
  665SOL     OW 1993   0.707   2.217   1.463 -0.9201  0.2106  0.5324
  665SOL    HW1 1994   0.804   2.253   1.475 -1.3867  1.1015  0.6010
  665SOL    HW2 1995   0.683   2.189   1.370  0.0163  1.0655 -1.0338
  666SOL     OW 1996   0.648   2.903   2.541 -0.3846 -0.1409  0.2722
  666SOL    HW1 1997   0.640   3.002   2.534  0.8969  0.1515 -2.7609
  666SOL    HW2 1998   0.551   2.868   2.545 -0.1859  2.1489 -0.9812
  667SOL     OW 1999   1.982   1.367   1.903 -0.7480  0.1916 -0.7035
  667SOL    HW1 2000   1.969   1.312   1.821 -1.9683  0.2895  0.9822
  667SOL    HW2 2001   2.082   1.399   1.904  1.1921  1.2176  0.1741
  668SOL     OW 2002   1.964   3.007   1.765 -0.0646 -0.2387 -0.4217
  668SOL    HW1 2003   1.882   2.994   1.828  2.4733 -0.2048 -0.0422
  668SOL    HW2 2004   1.960   3.096   1.716 -1.5855 -1.3465  1.2237
  669SOL     OW 2005   2.613   2.528   1.033 -0.2156 -0.1082 -0.2132
  669SOL    HW1 2006   2.664   2.512   0.947  1.4238  0.7884  3.1528
  669SOL    HW2 2007   2.532   2.468   1.043 -1.0064  1.3303  0.8779
  670SOL     OW 2008   1.291   2.265   2.931 -0.0519 -0.2330 -0.0510
  670SOL    HW1 2009   1.273   2.336   3.005  1.6183  1.4508  2.3170
  670SOL    HW2 2010   1.235   2.277   2.847 -0.3829  1.0972 -0.4022
  671SOL     OW 2011   0.768   0.965   0.558 -0.0754 -0.1231  0.0616
  671SOL    HW1 2012   0.843   1.006   0.506  2.8008 -1.7176 -0.2279
  671SOL    HW2 2013   0.768   0.992   0.657 -3.4901 -0.1228  1.6586
  672SOL     OW 2014   2.747   1.135   2.709  0.0428  0.2506  0.3808
  672SOL    HW1 2015   2.829   1.138   2.760 -1.9622  1.5412 -0.4646
  672SOL    HW2 2016   2.762   1.122   2.611  0.8890  0.1054  2.2278
  673SOL     OW 2017   2.951   1.984   1.713 -0.3325  0.1992 -0.1268
  673SOL    HW1 2018   2.961   1.909   1.786  2.2463 -0.9725  0.6703
  673SOL    HW2 2019   2.859   2.015   1.694  2.1202  0.8786 -0.8162
  674SOL     OW 2020   0.481   2.339   2.340 -0.4207 -0.2841 -0.2020
  674SOL    HW1 2021   0.410   2.280   2.382  0.7053  2.0391  3.0248
  674SOL    HW2 2022   0.570   2.289   2.328  0.2314 -1.3652 -2.2483
  675SOL     OW 2023   1.184   0.568   1.629 -0.6614  0.4306 -0.1814
  675SOL    HW1 2024   1.132   0.494   1.673 -2.4165  0.4621 -0.8956
  675SOL    HW2 2025   1.262   0.528   1.574  0.9277 -0.0561  0.2563
  676SOL     OW 2026   1.932   3.100   1.386 -0.3527  0.0337  0.2287
  676SOL    HW1 2027   1.841   3.070   1.417  0.7997 -0.4989  2.2625
  676SOL    HW2 2028   1.971   0.045   1.461  1.4863 -1.7009  2.2992
  677SOL     OW 2029   2.476   1.390   0.028 -0.4088 -0.0082 -0.5049
  677SOL    HW1 2030   2.453   1.428   3.048  0.7267 -0.9594  1.1927
  677SOL    HW2 2031   2.480   1.293   0.020 -0.9837  1.8259 -0.0056
  678SOL     OW 2032   2.499   1.385   1.222  0.1741  0.0885  0.2383
  678SOL    HW1 2033   2.494   1.480   1.183  0.4776 -2.4811 -0.4364
  678SOL    HW2 2034   2.413   1.351   1.262  2.1916  0.1036 -2.4061
  679SOL     OW 2035   2.668   0.628   3.104 -0.5255 -0.5973  0.0618
  679SOL    HW1 2036   2.667   0.552   0.060 -1.1584 -1.1207  0.7144
  679SOL    HW2 2037   2.761   0.674   3.095 -1.5588 -1.6624 -1.8862
  680SOL     OW 2038   0.572   1.824   1.692 -0.1396 -0.4437 -0.0636
  680SOL    HW1 2039   0.582   1.789   1.784  2.1689  1.3144 -1.3456
  680SOL    HW2 2040   0.638   1.902   1.681 -0.2780 -0.9154 -1.6742
  681SOL     OW 2041   2.677   1.991   1.665 -0.7855  0.0891  0.4485
  681SOL    HW1 2042   2.657   2.038   1.754 -0.2132  1.9611 -0.7517
  681SOL    HW2 2043   2.633   1.899   1.655 -0.3977 -0.8744 -1.5013
  682SOL     OW 2044   0.192   2.040   3.055 -0.5617  0.2200 -0.6956
  682SOL    HW1 2045   0.251   1.975   3.106 -2.0941 -0.8259 -1.1957
  682SOL    HW2 2046   0.096   2.000   3.047  1.4175 -1.8051 -1.5745
  683SOL     OW 2047   3.020   2.026   1.212 -0.2684 -0.9259 -0.0989
  683SOL    HW1 2048   2.940   1.982   1.170 -1.7630 -0.6834  1.3371
  683SOL    HW2 2049   3.016   2.004   1.316  0.6323 -0.0162  2.2058
  684SOL     OW 2050   2.875   1.124   2.091  0.0729  0.0381  0.5455
  684SOL    HW1 2051   2.787   1.168   2.121 -0.0655  0.3485 -1.0138
  684SOL    HW2 2052   2.869   1.024   2.084  0.6204 -1.6743  0.3263
  685SOL     OW 2053   1.401   0.761   0.474  0.6406 -0.1446 -0.1088
  685SOL    HW1 2054   1.496   0.739   0.446  0.0843  2.0953 -3.2227
  685SOL    HW2 2055   1.387   0.729   0.567  0.2399 -1.0460 -1.9563
  686SOL     OW 2056   0.575   0.397   0.804  0.3243 -0.0035 -0.0063
  686SOL    HW1 2057   0.583   0.499   0.798 -0.4083 -2.1648  2.9585
  686SOL    HW2 2058   0.485   0.371   0.757 -1.3851 -0.5193  0.7403
  687SOL     OW 2059   0.826   2.185   3.011  0.0089  0.1097  0.6516
  687SOL    HW1 2060   0.820   2.106   2.948  0.0278 -0.1400  1.2033
  687SOL    HW2 2061   0.741   2.202   3.069 -0.7191  0.6490  2.0612
  688SOL     OW 2062   2.133   0.318   1.570 -0.3204  0.1192 -0.4239
  688SOL    HW1 2063   2.212   0.284   1.516  1.0411 -2.3263  1.6491
  688SOL    HW2 2064   2.130   0.418   1.555  2.1501  0.0732 -2.1124
  689SOL     OW 2065   1.564   0.482   0.774  0.4566 -0.1368 -0.0045
  689SOL    HW1 2066   1.578   0.389   0.810 -1.4333  2.1250 -2.1580
  689SOL    HW2 2067   1.641   0.516   0.713  1.8859 -0.4559 -2.7981
  690SOL     OW 2068   2.746   1.402   1.347  1.1511  0.3352  0.6029
  690SOL    HW1 2069   2.655   1.420   1.301 -0.2686  0.8943  1.3320
  690SOL    HW2 2070   2.728   1.382   1.444  2.6771  0.5078 -0.8049
  691SOL     OW 2071   0.273   2.174   1.045  0.2858  0.0864 -0.8036
  691SOL    HW1 2072   0.367   2.210   1.036 -1.9716 -0.9856 -0.8075
  691SOL    HW2 2073   0.270   2.075   1.078  1.8686 -1.4489 -1.2707
  692SOL     OW 2074   1.311   0.117   1.572 -0.1426  0.2592  0.5048
  692SOL    HW1 2075   1.331   0.020   1.598  2.6940  0.7473 -1.9283
  692SOL    HW2 2076   1.398   0.155   1.524 -0.3786 -2.5325  0.9780
  693SOL     OW 2077   0.866   1.791   2.141  0.0485  0.0037 -0.6088
  693SOL    HW1 2078   0.853   1.889   2.114 -1.6779 -1.2375  0.2569
  693SOL    HW2 2079   0.935   1.749   2.078  0.0723  0.4629  1.9774
  694SOL     OW 2080   1.870   1.454   0.916  0.2182  0.5184  0.0197
  694SOL    HW1 2081   1.793   1.406   0.972 -3.1385 -3.0978  1.7227
  694SOL    HW2 2082   1.952   1.395   0.914 -1.5416  2.6037  2.7075
  695SOL     OW 2083   1.315   0.835   1.370  0.0240 -0.1810  0.4761
  695SOL    HW1 2084   1.334   0.771   1.289  1.6308 -1.5035 -0.1119
  695SOL    HW2 2085   1.220   0.821   1.397  1.7506 -0.5407  0.4573
  696SOL     OW 2086   0.095   0.224   0.391  0.0771 -0.1021  0.4821
  696SOL    HW1 2087   0.052   0.311   0.413 -1.3880 -0.1606  0.6861
  696SOL    HW2 2088   0.058   0.155   0.457 -1.3543  2.2410  1.0714
  697SOL     OW 2089   2.063   0.411   1.105 -0.2075  0.0354  0.1865
  697SOL    HW1 2090   2.010   0.465   1.037  0.9040  2.2764 -0.0580
  697SOL    HW2 2091   1.999   0.359   1.164  2.9775  0.3743 -0.4126
  698SOL     OW 2092   1.528   1.294   1.906  0.1164 -0.2185 -0.2274
  698SOL    HW1 2093   1.555   1.371   1.964 -0.0795 -2.7836  2.6396
  698SOL    HW2 2094   1.549   1.208   1.954 -0.8407 -0.2766  1.6929
  699SOL     OW 2095   0.036   0.290   2.267 -0.0498 -0.5285 -0.0494
  699SOL    HW1 2096   3.053   0.292   2.224 -3.3986 -1.4717  1.0178
  699SOL    HW2 2097   0.079   0.380   2.294  1.6688 -1.0432  1.6334
  700SOL     OW 2098   1.804   2.588   0.500 -0.2333  0.3413 -0.2851
  700SOL    HW1 2099   1.816   2.591   0.595 -0.2172 -2.2703 -1.7999
  700SOL    HW2 2100   1.893   2.571   0.451  1.4073  1.2332  2.2350
  701SOL     OW 2101   3.091   1.599   2.447 -0.7513 -0.1084  0.0446
  701SOL    HW1 2102   0.051   1.536   2.486 -1.5952  1.2991  3.6242
  701SOL    HW2 2103   2.999   1.562   2.473  3.1561  0.6045  0.8169
  702SOL     OW 2104   0.684   0.105   0.654  0.2289 -0.4149  0.0509
  702SOL    HW1 2105   0.757   0.171   0.690  1.2239 -3.0802 -0.2601
  702SOL    HW2 2106   0.602   0.117   0.706  2.9323  0.0548 -1.4322
  703SOL     OW 2107   1.901   2.931   2.804 -0.1819  0.4126  0.4124
  703SOL    HW1 2108   1.996   2.957   2.821 -1.3813 -0.6292 -1.1005
  703SOL    HW2 2109   1.832   2.975   2.865  0.8408 -0.1709 -1.0383
  704SOL     OW 2110   2.656   2.128   0.185 -0.2821  0.4345 -0.2890
  704SOL    HW1 2111   2.681   2.165   0.094  0.2401 -2.9241  1.0838
  704SOL    HW2 2112   2.638   2.035   0.167 -0.4138  4.7979  2.0020
  705SOL     OW 2113   2.714   2.185   2.347 -0.1644  0.1466  0.3768
  705SOL    HW1 2114   2.695   2.198   2.247  0.3334 -0.5715  1.2723
  705SOL    HW2 2115   2.801   2.231   2.376 -1.8040 -0.3480  0.0613
  706SOL     OW 2116   2.836   0.051   0.343  0.5064 -0.6188 -0.1674
  706SOL    HW1 2117   2.752   0.040   0.289  1.1504 -0.4510  1.9590
  706SOL    HW2 2118   2.836   3.091   0.414  2.0668  4.6544 -0.1942
  707SOL     OW 2119   1.192   0.135   2.972 -0.7092  0.6973 -0.2916
  707SOL    HW1 2120   1.210   0.137   2.871 -0.6267 -0.8253 -0.9459
  707SOL    HW2 2121   1.094   0.128   2.997  0.1020  0.3832 -1.6850
  708SOL     OW 2122   0.266   2.130   1.553 -0.6700 -0.5470  0.2612
  708SOL    HW1 2123   0.179   2.133   1.615 -0.9411  0.8925 -1.4182
  708SOL    HW2 2124   0.307   2.037   1.563  1.3566 -1.2922  0.8952
  709SOL     OW 2125   1.438   2.984   1.907 -0.5448 -0.8749 -0.0931
  709SOL    HW1 2126   1.478   3.074   1.935  0.7504 -2.3742 -1.7487
  709SOL    HW2 2127   1.400   2.927   1.984  0.1680  0.6318  0.1274
  710SOL     OW 2128   1.746   2.458   2.776  0.8782 -1.0139 -1.1201
  710SOL    HW1 2129   1.775   2.555   2.794  0.6699  1.4144  1.1805
  710SOL    HW2 2130   1.645   2.456   2.792  0.4236 -0.9307  0.5661
  711SOL     OW 2131   0.823   2.603   2.904  0.4948 -0.1786 -0.2647
  711SOL    HW1 2132   0.887   2.655   2.960 -3.4190  0.8613  0.2468
  711SOL    HW2 2133   0.854   2.514   2.872 -0.6041  0.2341  2.6505
  712SOL     OW 2134   0.954   1.805   2.953  0.7696 -0.1362  0.1494
  712SOL    HW1 2135   1.049   1.840   2.949  0.2668 -1.7258  0.5640
  712SOL    HW2 2136   0.946   1.704   2.970  0.3474 -0.7883 -1.3220
  713SOL     OW 2137   1.786   0.929   1.416  0.4800 -0.1796 -0.1628
  713SOL    HW1 2138   1.836   0.841   1.407  2.7690 -2.1341 -1.0568
  713SOL    HW2 2139   1.840   0.999   1.365  1.4888 -0.8506  0.2402
  714SOL     OW 2140   1.259   1.568   1.909 -0.0542  0.2974  0.1763
  714SOL    HW1 2141   1.264   1.511   1.994 -0.9529 -1.4864 -0.2691
  714SOL    HW2 2142   1.339   1.629   1.894 -1.9109  2.8166  0.6830
  715SOL     OW 2143   2.672   0.405   0.150 -0.3410  0.4295  0.5447
  715SOL    HW1 2144   2.739   0.396   0.225 -2.2936  1.6908 -1.5592
  715SOL    HW2 2145   2.666   0.324   0.089  4.0375 -1.0454 -0.0539
  716SOL     OW 2146   0.471   2.558   0.914  0.1516  1.0669 -0.2944
  716SOL    HW1 2147   0.562   2.591   0.943 -1.9663  4.3999 -1.0718
  716SOL    HW2 2148   0.402   2.632   0.912 -1.4539 -0.7281 -0.7302
  717SOL     OW 2149   2.735   0.662   0.442  0.3598  0.0399 -0.3697
  717SOL    HW1 2150   2.738   0.567   0.400  0.7967 -2.2825 -1.7360
  717SOL    HW2 2151   2.658   0.719   0.404 -1.6285  0.5750  1.8986
  718SOL     OW 2152   1.767   1.366   1.364 -0.4077  0.1406 -0.5295
  718SOL    HW1 2153   1.723   1.456   1.398 -0.8446  1.5112  0.9345
  718SOL    HW2 2154   1.702   1.291   1.390  0.9777 -1.2791 -1.6660
  719SOL     OW 2155   2.655   2.832   0.061  0.1955 -0.3741  0.1773
  719SOL    HW1 2156   2.655   2.798   3.072 -0.9850  1.0640 -1.8809
  719SOL    HW2 2157   2.698   2.763   0.121 -3.1613 -0.1996 -0.6540
  720SOL     OW 2158   0.948   0.625   1.042 -0.5441 -0.3564  0.4996
  720SOL    HW1 2159   0.934   0.719   1.089 -0.8324  0.0946  1.8916
  720SOL    HW2 2160   0.853   0.578   1.043 -4.4438  0.7700 -1.9235
  721SOL     OW 2161   1.849   0.103   0.993  0.1011 -0.3204 -0.5936
  721SOL    HW1 2162   1.941   0.100   0.946 -0.0221  3.4460  1.6865
  721SOL    HW2 2163   1.856   0.134   1.088 -0.7359 -0.1371 -3.8923
  722SOL     OW 2164   0.940   2.070   1.926  0.8297 -0.3580 -0.5969
  722SOL    HW1 2165   0.894   2.076   2.016  0.2224 -0.3430 -0.3205
  722SOL    HW2 2166   0.989   2.159   1.909  0.2698 -0.6032  0.8845
  723SOL     OW 2167   1.141   0.036   1.361 -0.0768 -0.1546  0.4810
  723SOL    HW1 2168   1.175   3.101   1.275  2.1119  1.3501  1.1907
  723SOL    HW2 2169   1.225   0.054   1.421  2.4154 -0.1310 -0.7506
  724SOL     OW 2170   1.991   1.974   1.855  0.4106 -0.1762  0.0909
  724SOL    HW1 2171   1.892   1.974   1.838 -0.8695 -0.2773  1.2189
  724SOL    HW2 2172   2.026   1.887   1.813  2.6724  0.7045  1.0942
  725SOL     OW 2173   1.467   2.734   1.540 -0.2451  0.6875  0.2976
  725SOL    HW1 2174   1.569   2.755   1.536  1.8039  1.8621 -3.8026
  725SOL    HW2 2175   1.445   2.636   1.552  2.2495  0.1783 -0.9871
  726SOL     OW 2176   1.831   0.280   0.026  0.0067 -0.4712  0.3320
  726SOL    HW1 2177   1.787   0.267   0.116 -0.0497  1.5831 -2.1813
  726SOL    HW2 2178   1.929   0.290   0.035 -3.9084  0.9162 -2.2064
  727SOL     OW 2179   1.412   2.110   0.582  0.0107 -0.1051 -0.2795
  727SOL    HW1 2180   1.332   2.124   0.521  0.3892  1.2909 -0.6847
  727SOL    HW2 2181   1.488   2.055   0.536 -0.2298  0.8363  2.9099
  728SOL     OW 2182   1.853   2.901   2.533  0.5187  0.1307  0.2691
  728SOL    HW1 2183   1.766   2.848   2.536 -2.3113  1.0291 -2.8239
  728SOL    HW2 2184   1.877   2.924   2.627 -2.2567  0.6794 -0.6311
  729SOL     OW 2185   2.178   2.411   1.724  0.1583  0.1635  0.3903
  729SOL    HW1 2186   2.265   2.432   1.678  1.7248  0.7274  0.0960
  729SOL    HW2 2187   2.183   2.436   1.823  1.6752 -0.2354 -1.2251
  730SOL     OW 2188   1.746   0.465   2.379 -0.2919  0.1774  0.5320
  730SOL    HW1 2189   1.711   0.420   2.464  0.4099  0.1927 -1.5835
  730SOL    HW2 2190   1.815   0.397   2.342  0.5338 -0.1256  1.6688
  731SOL     OW 2191   0.504   0.086   1.196 -0.2140  0.2870 -0.0201
  731SOL    HW1 2192   0.467   0.011   1.255  1.6281  2.0577  0.5415
  731SOL    HW2 2193   0.590   0.115   1.239 -1.3621 -0.5809  0.7744
  732SOL     OW 2194   1.791   2.799   1.063  0.4651  0.2888 -0.5243
  732SOL    HW1 2195   1.767   2.730   1.135 -0.0006 -2.2561  2.1223
  732SOL    HW2 2196   1.720   2.870   1.058  0.6692 -1.0915 -1.1223
  733SOL     OW 2197   1.530   0.716   1.484  0.0794  0.1150  0.6498
  733SOL    HW1 2198   1.442   0.755   1.450 -0.9468 -0.6871  2.5954
  733SOL    HW2 2199   1.557   0.774   1.558 -0.5047 -0.1068  0.0660
  734SOL     OW 2200   2.724   2.274   0.399 -0.6816 -0.4991 -0.1205
  734SOL    HW1 2201   2.727   2.223   0.311 -0.0076 -0.6425  4.0246
  734SOL    HW2 2202   2.702   2.207   0.477  1.6847  1.0532 -1.7526
  735SOL     OW 2203   0.374   0.453   0.411 -0.5604  0.0619 -0.3339
  735SOL    HW1 2204   0.332   0.467   0.318 -0.5839 -0.5915  0.4288
  735SOL    HW2 2205   0.473   0.486   0.409 -0.8540  0.3909 -0.6824
  736SOL     OW 2206   2.098   2.121   2.685  0.5676  0.0030 -0.3020
  736SOL    HW1 2207   2.025   2.052   2.669 -0.8716  1.2096 -2.4924
  736SOL    HW2 2208   2.086   2.200   2.620  0.0187 -1.0764 -2.0167
  737SOL     OW 2209   1.091   2.416   1.134 -0.3047 -0.2601  0.0485
  737SOL    HW1 2210   1.153   2.498   1.143  1.6802 -1.8608  1.8837
  737SOL    HW2 2211   1.131   2.355   1.061  2.8331 -0.0801  1.3773
  738SOL     OW 2212   1.466   2.804   2.144 -0.4418  0.3490  0.2191
  738SOL    HW1 2213   1.415   2.850   2.221  0.6920  1.2762 -0.1885
  738SOL    HW2 2214   1.559   2.776   2.165 -1.2411  0.9251 -1.1397
  739SOL     OW 2215   1.073   2.301   1.778 -0.2204  0.1781  0.2345
  739SOL    HW1 2216   1.145   2.336   1.840  0.4648  1.9739 -0.8834
  739SOL    HW2 2217   1.007   2.370   1.758  0.9980 -2.1868  0.5901
  740SOL     OW 2218   1.757   2.351   1.663  0.1560 -0.0979 -0.0728
  740SOL    HW1 2219   1.767   2.249   1.643 -0.8673 -1.5872  0.1052
  740SOL    HW2 2220   1.843   2.398   1.629  1.8700  2.1873 -0.5759
  741SOL     OW 2221   2.218   1.707   3.106 -0.0450  0.1861  0.4302
  741SOL    HW1 2222   2.121   1.714   0.033 -2.1174 -0.8631  1.7417
  741SOL    HW2 2223   2.225   1.625   3.045 -0.3019  0.9628 -2.7953
  742SOL     OW 2224   0.887   1.238   2.638  0.5297 -0.0072  0.2104
  742SOL    HW1 2225   0.818   1.230   2.563  2.6678  1.4230 -1.6461
  742SOL    HW2 2226   0.981   1.199   2.611  2.3372 -3.1817 -0.0707
  743SOL     OW 2227   2.790   1.085   2.440 -0.2225 -0.1628 -0.0583
  743SOL    HW1 2228   2.836   1.000   2.406 -0.2054  1.7605  0.2839
  743SOL    HW2 2229   2.693   1.082   2.413  1.0253  0.6208  1.3766
  744SOL     OW 2230   2.183   2.414   1.991  0.1592  0.2061 -1.1671
  744SOL    HW1 2231   2.124   2.393   2.072 -1.5171 -0.4570  2.4894
  744SOL    HW2 2232   2.282   2.422   2.021 -1.0008  0.5158 -0.6407
  745SOL     OW 2233   2.293   1.655   1.583  0.1949 -0.1020  0.1552
  745SOL    HW1 2234   2.218   1.694   1.637  0.3121 -1.1721 -1.4906
  745SOL    HW2 2235   2.281   1.556   1.587 -0.6895  3.6456 -1.1333
  746SOL     OW 2236   2.577   1.458   0.871 -0.1290  0.0979 -0.9291
  746SOL    HW1 2237   2.631   1.422   0.788  1.2122 -0.8350 -0.5960
  746SOL    HW2 2238   2.581   1.393   0.947 -0.7673  2.7147  1.5280
  747SOL     OW 2239   1.788   2.323   0.387  0.2098  0.7542  0.0688
  747SOL    HW1 2240   1.874   2.283   0.435  2.2322 -1.1196  3.2180
  747SOL    HW2 2241   1.733   2.374   0.454 -0.4736 -0.5956 -1.2460
  748SOL     OW 2242   0.969   2.375   0.107 -0.4400 -0.5131  0.3097
  748SOL    HW1 2243   1.060   2.407   0.070 -0.4385 -1.2604 -1.9568
  748SOL    HW2 2244   0.920   2.326   0.036 -0.5312  1.2769  0.0433
  749SOL     OW 2245   2.900   0.283   2.166  0.4831  0.7753  0.3605
  749SOL    HW1 2246   2.841   0.355   2.125 -1.9491 -1.5071  1.8007
  749SOL    HW2 2247   2.848   0.199   2.161  0.8401  2.4956 -2.9506
  750SOL     OW 2248   1.552   0.195   1.413 -0.5516 -0.3316  0.3024
  750SOL    HW1 2249   1.634   0.258   1.412  3.1145  0.3133 -2.0812
  750SOL    HW2 2250   1.582   0.094   1.402 -0.9058 -1.4188 -1.3633
  751SOL     OW 2251   2.067   2.370   2.516 -0.3302  0.9566 -0.2320
  751SOL    HW1 2252   1.968   2.384   2.522  0.4856  1.0613 -1.5593
  751SOL    HW2 2253   2.113   2.432   2.584  1.9659  1.6657 -1.4677
  752SOL     OW 2254   1.727   1.995   0.818  0.2951 -0.0421  0.3792
  752SOL    HW1 2255   1.670   2.080   0.839  1.3700  0.7344  2.2761
  752SOL    HW2 2256   1.665   1.913   0.812 -0.3626  1.2631 -1.2541
  753SOL     OW 2257   1.329   0.756   2.387  0.0904  0.5981  0.1134
  753SOL    HW1 2258   1.337   0.738   2.488 -0.7969  0.1884  2.0159
  753SOL    HW2 2259   1.414   0.727   2.339 -0.4701 -0.6973  1.5777
  754SOL     OW 2260   0.156   2.916   0.621 -0.2344  0.3639  0.6187
  754SOL    HW1 2261   0.147   2.957   0.716  1.2919  1.4382  0.9590
  754SOL    HW2 2262   0.087   2.842   0.610 -0.7926 -0.5053 -1.2740
  755SOL     OW 2263   2.226   3.099   1.634  0.7107 -0.5637  0.1998
  755SOL    HW1 2264   2.245   3.078   1.538  1.1264  2.6500 -1.5891
  755SOL    HW2 2265   2.134   3.069   1.660 -0.2488  2.0084 -0.9528
  756SOL     OW 2266   1.649   0.888   2.544  0.5877 -0.3409 -0.9503
  756SOL    HW1 2267   1.626   0.792   2.528  0.6435  0.0852  0.5747
  756SOL    HW2 2268   1.588   0.927   2.614 -1.4264 -3.6057 -0.6081
  757SOL     OW 2269   2.816   2.722   1.617  0.4667 -0.3215  0.0203
  757SOL    HW1 2270   2.871   2.800   1.657  2.0350  0.2640  0.7665
  757SOL    HW2 2271   2.749   2.753   1.546 -0.7755 -0.0675 -0.9490
  758SOL     OW 2272   0.337   0.163   1.480 -0.5223  0.3716  0.4819
  758SOL    HW1 2273   0.273   0.088   1.510 -0.2133  0.9511  1.2805
  758SOL    HW2 2274   0.423   0.168   1.535  2.0625  0.5096 -1.4400
  759SOL     OW 2275   2.322   1.298   0.802 -0.4441  0.1344  0.6499
  759SOL    HW1 2276   2.390   1.316   0.728 -4.0695 -0.3151 -0.9725
  759SOL    HW2 2277   2.370   1.232   0.866 -0.9939 -1.6915  0.6973
  760SOL     OW 2278   1.952   0.128   1.638 -0.3570  0.2185  0.5121
  760SOL    HW1 2279   1.880   0.173   1.681  1.5030 -2.7191 -0.1783
  760SOL    HW2 2280   2.026   0.191   1.601  0.4654 -0.2203  0.1857
  761SOL     OW 2281   1.972   0.208   0.417  0.5308 -0.6448  0.0924
  761SOL    HW1 2282   1.989   0.125   0.364 -2.4004 -0.1380  2.2610
  761SOL    HW2 2283   1.887   0.251   0.379 -1.6014 -2.3032  1.4978
  762SOL     OW 2284   2.294   2.598   0.054 -0.0465 -0.3134  0.5454
  762SOL    HW1 2285   2.365   2.583   3.096  0.2097  0.7750  1.4218
  762SOL    HW2 2286   2.201   2.570   0.020  1.0943  1.4645  1.0528
  763SOL     OW 2287   0.977   0.895   1.136 -0.8102 -0.0916 -0.9151
  763SOL    HW1 2288   1.030   0.916   1.220 -0.4457  2.4111  2.5953
  763SOL    HW2 2289   1.010   0.947   1.053 -0.3366 -3.4992 -2.1383
  764SOL     OW 2290   2.316   2.334   2.881 -0.1558  0.2747  0.2074
  764SOL    HW1 2291   2.211   2.322   2.888 -0.4995 -1.4151  1.7838
  764SOL    HW2 2292   2.343   2.338   2.785 -1.2167 -1.1189 -3.2780
  765SOL     OW 2293   0.414   0.856   2.112  0.1662  0.7082  0.6714
  765SOL    HW1 2294   0.421   0.828   2.211  0.5089 -0.7384 -0.9542
  765SOL    HW2 2295   0.417   0.775   2.048 -0.4370 -0.6172 -1.3894
  766SOL     OW 2296   2.869   1.491   2.553 -0.1655 -0.1749  0.1290
  766SOL    HW1 2297   2.803   1.478   2.630 -0.9331 -0.6822 -1.3844
  766SOL    HW2 2298   2.862   1.414   2.488 -1.2590  0.8812 -0.0853
  767SOL     OW 2299   0.088   1.794   2.075 -0.4234  0.2074  0.2139
  767SOL    HW1 2300   0.132   1.701   2.074 -0.6400 -1.8931 -1.3176
  767SOL    HW2 2301   0.074   1.821   2.170 -1.5934  1.5263 -4.6381
  768SOL     OW 2302   0.965   0.982   3.025 -0.2217  0.3396 -0.0390
  768SOL    HW1 2303   0.944   0.922   3.106  0.0714  0.5260  1.0316
  768SOL    HW2 2304   1.042   1.045   3.042 -0.7551  0.2327 -2.1257
  769SOL     OW 2305   1.784   2.709   2.872 -0.2908 -0.3410 -0.4539
  769SOL    HW1 2306   1.823   2.804   2.857  1.6594  2.0013  0.8690
  769SOL    HW2 2307   1.807   2.680   2.970  0.9028 -0.9929  2.2605
  770SOL     OW 2308   0.415   0.177   2.382 -0.4425 -0.1576 -0.1993
  770SOL    HW1 2309   0.319   0.159   2.418 -3.0965  1.3273 -0.3968
  770SOL    HW2 2310   0.415   0.176   2.277  1.7173  0.3333 -2.7644
  771SOL     OW 2311   0.842   2.298   1.073  0.0318 -1.0298  0.1821
  771SOL    HW1 2312   0.925   2.349   1.095 -0.5792  2.9025  1.4770
  771SOL    HW2 2313   0.822   2.293   0.972  0.1185  1.0187  0.0383
  772SOL     OW 2314   0.508   0.646   0.064 -0.2440 -0.5992 -0.7164
  772SOL    HW1 2315   0.522   0.654   3.074 -1.5252  0.1096  1.1963
  772SOL    HW2 2316   0.482   0.738   0.103 -1.4374 -0.0834  2.0499
  773SOL     OW 2317   2.125   0.849   1.794 -0.1196 -0.0909 -0.2606
  773SOL    HW1 2318   2.131   0.871   1.697  0.1851  1.2563  1.5777
  773SOL    HW2 2319   2.090   0.755   1.807  1.7034  0.2398 -1.7083
  774SOL     OW 2320   1.072   1.078   0.550 -0.1408 -0.1603 -0.2920
  774SOL    HW1 2321   1.088   1.058   0.648 -0.7014 -0.0958 -0.4254
  774SOL    HW2 2322   1.094   0.993   0.493  1.4293  1.8448 -1.9481
  775SOL     OW 2323   2.170   0.153   2.876  0.1053 -0.2903 -0.3490
  775SOL    HW1 2324   2.136   0.085   2.939  0.9171 -0.8915  0.2850
  775SOL    HW2 2325   2.108   0.168   2.798  3.8607 -1.0500  1.4552
  776SOL     OW 2326   2.479   0.072   2.625  0.3287 -0.0869 -0.0083
  776SOL    HW1 2327   2.471   0.103   2.721 -2.6090  2.4789  0.6938
  776SOL    HW2 2328   2.397   0.020   2.594  0.1102  1.8146 -2.0553
  777SOL     OW 2329   0.852   1.596   0.127  0.1746 -0.6734  0.1614
  777SOL    HW1 2330   0.798   1.521   0.084  1.1706  2.8428  2.5006
  777SOL    HW2 2331   0.798   1.677   0.094 -2.3186  0.3556 -2.7152
  778SOL     OW 2332   0.597   2.935   0.129 -0.0247 -0.4144 -0.0370
  778SOL    HW1 2333   0.581   2.996   0.213  0.3574  1.8081  1.4947
  778SOL    HW2 2334   0.653   2.858   0.155 -0.0181  0.1412  0.7515
  779SOL     OW 2335   0.084   1.046   2.936 -0.0212  0.0459 -0.0918
  779SOL    HW1 2336   0.059   1.080   3.031 -0.0268 -1.4399  1.1376
  779SOL    HW2 2337   0.173   0.991   2.940  3.3133  0.7734 -0.3467
  780SOL     OW 2338   2.158   0.332   2.563  0.3245  0.0870 -0.0898
  780SOL    HW1 2339   2.139   0.413   2.623 -1.9988  0.3386  3.4847
  780SOL    HW2 2340   2.248   0.348   2.518 -0.5798  1.9783  5.0017
  781SOL     OW 2341   2.030   0.572   1.857 -0.0888 -0.1227  0.3624
  781SOL    HW1 2342   1.976   0.558   1.946 -2.5407  0.7882 -0.4482
  781SOL    HW2 2343   2.125   0.554   1.875  2.2974  1.1789  1.6263
  782SOL     OW 2344   1.634   1.773   2.367  0.1622  0.4257  0.5360
  782SOL    HW1 2345   1.563   1.703   2.341 -0.5769 -0.3685  2.1996
  782SOL    HW2 2346   1.695   1.789   2.288 -0.4801  1.9683  1.6397
  783SOL     OW 2347   1.158   2.964   1.171 -0.9392  0.1322  0.4820
  783SOL    HW1 2348   1.174   2.894   1.246 -0.0072 -0.7845 -1.7584
  783SOL    HW2 2349   1.081   2.927   1.117  4.2177  0.7632 -0.9073
  784SOL     OW 2350   1.351   0.718   2.642  0.0167 -0.2317  0.2855
  784SOL    HW1 2351   1.437   0.690   2.694 -2.7429 -1.3250  1.2854
  784SOL    HW2 2352   1.279   0.729   2.711  0.3683  1.6671 -1.3444
  785SOL     OW 2353   2.053   0.529   2.724  0.4509  0.0500  0.5834
  785SOL    HW1 2354   1.993   0.604   2.688 -0.1098  1.2007 -1.8018
  785SOL    HW2 2355   2.003   0.452   2.762  1.2868 -0.5086 -0.5657
  786SOL     OW 2356   3.085   1.263   0.806  0.2083  0.2134 -0.5598
  786SOL    HW1 2357   3.031   1.202   0.741 -1.2824  0.0858 -4.4984
  786SOL    HW2 2358   0.065   1.296   0.766  0.1710  1.1835 -1.4048
  787SOL     OW 2359   1.566   1.943   0.472  0.4763  0.0329  0.6470
  787SOL    HW1 2360   1.601   1.984   0.381 -1.4530 -1.8744  1.1428
  787SOL    HW2 2361   1.632   1.875   0.515 -0.2290 -0.1061  0.2655
  788SOL     OW 2362   1.956   1.752   1.537  0.3271 -0.3370  0.1286
  788SOL    HW1 2363   1.909   1.708   1.458  2.9129  1.1924  1.2809
  788SOL    HW2 2364   2.010   1.835   1.510 -0.7169  0.5590 -0.7168
  789SOL     OW 2365   0.072   1.181   2.446  0.0248  0.0848  0.5028
  789SOL    HW1 2366   0.083   1.081   2.429 -2.1018 -0.0615 -0.0129
  789SOL    HW2 2367   0.038   1.229   2.364 -0.4554 -1.9380 -3.1387
  790SOL     OW 2368   0.755   3.049   3.054 -0.0442 -0.5633 -0.2893
  790SOL    HW1 2369   0.707   3.009   0.025 -1.4281  0.2171 -0.8174
  790SOL    HW2 2370   0.691   3.036   2.975 -2.3292  0.9735  0.6876
  791SOL     OW 2371   0.687   0.020   2.236  0.0289 -0.0685 -0.1737
  791SOL    HW1 2372   0.686   0.037   2.339 -1.3232  1.8299  1.4065
  791SOL    HW2 2373   0.780   0.001   2.191  0.1847 -0.6074 -2.4599
  792SOL     OW 2374   2.081   0.478   2.292 -0.1278  0.1929  0.0231
  792SOL    HW1 2375   2.049   0.576   2.303  2.6102  0.3936  0.6438
  792SOL    HW2 2376   2.026   0.412   2.343 -0.2109  1.2553 -1.0051
  793SOL     OW 2377   2.611   0.694   1.415 -0.0073 -0.4608 -0.1895
  793SOL    HW1 2378   2.684   0.630   1.452 -0.0381 -0.4215 -4.0404
  793SOL    HW2 2379   2.518   0.659   1.431 -1.6262  1.7102 -0.7275
  794SOL     OW 2380   0.263   0.572   1.601  0.2816 -0.3589  0.1796
  794SOL    HW1 2381   0.253   0.671   1.625  0.1768  2.5582 -0.5608
  794SOL    HW2 2382   0.256   0.514   1.687  1.6810 -3.3783  2.2423
  795SOL     OW 2383   3.040   1.291   0.422 -0.4767 -0.0931  0.1608
  795SOL    HW1 2384   3.009   1.383   0.448 -0.0764 -1.7086 -1.4499
  795SOL    HW2 2385   0.030   1.285   0.430 -2.2081 -1.7885 -0.2192
  796SOL     OW 2386   0.224   2.606   0.170  0.0397  0.0473 -0.4896
  796SOL    HW1 2387   0.259   2.702   0.180  2.1913  1.5820 -0.9537
  796SOL    HW2 2388   0.192   2.571   0.262 -0.3073  1.7324  1.3543
  797SOL     OW 2389   1.987   2.385   0.055 -0.0031 -0.0379 -0.0396
  797SOL    HW1 2390   1.893   2.415   0.077 -1.8341 -0.3103  1.2912
  797SOL    HW2 2391   1.986   2.330   3.077 -0.7900 -0.1676 -1.7469
  798SOL     OW 2392   0.082   1.334   1.558 -0.1690 -0.5796  0.1372
  798SOL    HW1 2393   0.184   1.328   1.563 -0.0418  2.7386  0.6141
  798SOL    HW2 2394   0.047   1.278   1.480  0.4039 -0.3779 -0.6963
  799SOL     OW 2395   3.007   0.806   2.808 -0.1938 -0.7384 -0.0043
  799SOL    HW1 2396   3.085   0.792   2.739 -0.5096 -0.6090 -1.7749
  799SOL    HW2 2397   3.021   0.734   2.878 -0.4624  1.1948  0.9879
  800SOL     OW 2398   2.910   2.102   0.728  0.3757  0.1905  0.0892
  800SOL    HW1 2399   2.996   2.046   0.735  0.9658  0.8874  1.5088
  800SOL    HW2 2400   2.944   2.199   0.735  2.1609  3.3836  0.6711
  801SOL     OW 2401   1.659   1.127   1.098 -0.0843 -0.7205 -0.3277
  801SOL    HW1 2402   1.668   1.223   1.056  1.2937  0.8723 -0.7791
  801SOL    HW2 2403   1.646   1.138   1.201 -0.3601 -2.0800  0.9292
  802SOL     OW 2404   1.246   2.113   1.618 -0.0292 -0.0701 -0.2043
  802SOL    HW1 2405   1.240   2.124   1.515 -0.6473  0.4346 -1.9607
  802SOL    HW2 2406   1.198   2.182   1.675 -1.6324  0.2392 -1.2647
  803SOL     OW 2407   0.159   1.885   0.341  0.2075  0.2011 -0.4297
  803SOL    HW1 2408   0.222   1.918   0.412 -1.1228 -1.6451  0.9605
  803SOL    HW2 2409   0.081   1.950   0.333  0.8870 -0.6584  0.0469
  804SOL     OW 2410   1.051   2.581   1.544 -0.0108 -0.0441 -0.0020
  804SOL    HW1 2411   1.061   2.594   1.646  3.4123 -1.4965  3.1104
  804SOL    HW2 2412   0.954   2.606   1.520  4.1322 -1.4641  0.6000
  805SOL     OW 2413   1.601   1.157   0.266 -0.2571 -0.3634 -0.3271
  805SOL    HW1 2414   1.525   1.098   0.247 -1.2842 -1.0815  0.8652
  805SOL    HW2 2415   1.686   1.128   0.218  0.6337 -2.6766  0.7003
  806SOL     OW 2416   1.358   3.051   1.026  0.0152 -0.4784 -0.0531
  806SOL    HW1 2417   1.350   3.027   0.925 -1.3695 -1.5091 -1.2533
  806SOL    HW2 2418   1.281   3.020   1.080 -0.1340  1.3158 -0.9470
  807SOL     OW 2419   2.401   2.987   2.945 -0.6585 -0.0702 -0.0197
  807SOL    HW1 2420   2.439   3.078   2.921  1.1527 -0.4684 -0.6790
  807SOL    HW2 2421   2.477   2.920   2.958  0.9352 -3.0878 -2.1190
  808SOL     OW 2422   0.103   1.103   0.139 -0.2033  0.4355 -0.4134
  808SOL    HW1 2423   0.144   1.038   0.206  1.0273  1.7429 -1.8051
  808SOL    HW2 2424   0.134   1.196   0.167  1.3841 -0.3517  2.9361
  809SOL     OW 2425   2.915   0.859   2.367 -0.4590 -0.4973 -0.4112
  809SOL    HW1 2426   2.861   0.776   2.396  3.1157  0.7782 -3.0344
  809SOL    HW2 2427   2.939   0.858   2.272  1.6907 -0.3143  1.5779
  810SOL     OW 2428   2.070   2.941   2.017 -0.0301 -0.0707  0.1859
  810SOL    HW1 2429   2.062   2.993   1.929  1.4622  2.5046  4.6735
  810SOL    HW2 2430   2.093   2.843   1.989  0.0162 -2.2033 -0.1534
  811SOL     OW 2431   2.595   2.554   1.802  0.3791  0.0287 -0.2310
  811SOL    HW1 2432   2.643   2.634   1.838 -1.6872 -2.2193 -3.7762
  811SOL    HW2 2433   2.646   2.512   1.729 -0.1556  1.5881  1.8387
  812SOL     OW 2434   1.882   0.289   2.809  0.0761  0.0029 -0.3799
  812SOL    HW1 2435   1.908   0.258   2.902  1.6795 -0.6828 -0.8838
  812SOL    HW2 2436   1.807   0.230   2.771 -1.1841 -2.9586  0.2654
  813SOL     OW 2437   2.002   0.103   2.147  0.2715  0.4591 -0.3224
  813SOL    HW1 2438   2.026   0.008   2.113  0.5802 -0.2146 -2.8804
  813SOL    HW2 2439   1.991   0.169   2.071  0.3040 -3.9870 -1.4396
  814SOL     OW 2440   1.885   1.124   1.724  0.5125  0.8034  0.3623
  814SOL    HW1 2441   1.893   1.089   1.821  1.2996 -0.9686  1.1367
  814SOL    HW2 2442   1.795   1.164   1.705  0.6889 -0.1333  0.7530
  815SOL     OW 2443   0.541   0.801   0.501 -0.4369 -0.0027 -0.4557
  815SOL    HW1 2444   0.543   0.719   0.440  1.1477 -0.3621  1.5881
  815SOL    HW2 2445   0.634   0.845   0.507  0.8417  0.0889 -0.4480
  816SOL     OW 2446   2.102   1.492   2.775  0.7313  0.3293  0.2868
  816SOL    HW1 2447   2.062   1.503   2.686 -1.8430 -0.4958  1.8062
  816SOL    HW2 2448   2.029   1.526   2.839  2.3844 -0.3899 -2.3592
  817SOL     OW 2449   3.093   0.018   0.580  0.0501 -0.1297 -0.0523
  817SOL    HW1 2450   0.063   3.062   0.574  3.4611 -1.4876 -0.4045
  817SOL    HW2 2451   3.002   3.087   0.547  0.0749  2.3441  0.8185
  818SOL     OW 2452   2.073   0.078   2.594 -0.3688 -0.1465  0.2805
  818SOL    HW1 2453   2.088   0.178   2.588 -0.5800  1.2841  1.5045
  818SOL    HW2 2454   1.972   0.063   2.585  2.8334 -1.9541  0.0734
  819SOL     OW 2455   1.121   0.823   0.389  0.2004  0.0633 -0.3859
  819SOL    HW1 2456   1.197   0.779   0.434  0.0264 -1.5058  2.3014
  819SOL    HW2 2457   1.107   0.795   0.292  0.4686 -1.9545  0.1120
  820SOL     OW 2458   2.003   0.950   0.862 -0.0552  0.0348  0.6280
  820SOL    HW1 2459   2.086   0.952   0.915 -3.5512  0.8855 -3.3216
  820SOL    HW2 2460   2.001   1.037   0.812  0.7827  0.0555 -1.5014
  821SOL     OW 2461   2.310   0.072   0.576 -0.2802  0.1383  0.3003
  821SOL    HW1 2462   2.343   0.022   0.494  0.7255  0.6050  0.1477
  821SOL    HW2 2463   2.213   0.048   0.594  1.2793  2.2016  1.2607
  822SOL     OW 2464   0.399   2.831   2.649 -0.1077  0.0293 -0.1687
  822SOL    HW1 2465   0.420   2.759   2.715  1.3830 -0.0172  1.7498
  822SOL    HW2 2466   0.344   2.793   2.575 -0.9410  2.3479  0.6894
  823SOL     OW 2467   0.028   2.180   1.709  0.6524  0.2018  1.1038
  823SOL    HW1 2468   3.067   2.107   1.700  2.1043  2.5973 -2.1504
  823SOL    HW2 2469   3.089   2.266   1.698  2.5802 -1.9280  2.1224
  824SOL     OW 2470   0.579   2.958   2.057 -0.6890  0.0208  0.2513
  824SOL    HW1 2471   0.649   2.932   1.990 -0.5095  1.3660  0.6452
  824SOL    HW2 2472   0.622   3.025   2.126  2.9506  3.1918 -0.3648
  825SOL     OW 2473   1.446   1.605   0.459 -0.0091 -0.1877 -0.1177
  825SOL    HW1 2474   1.444   1.527   0.390  0.6346 -2.8353  0.4171
  825SOL    HW2 2475   1.402   1.695   0.428 -2.4666  1.0296 -0.8363
  826SOL     OW 2476   1.586   0.306   2.979  0.3162 -0.6880 -0.0461
  826SOL    HW1 2477   1.678   0.307   3.018 -0.0235  0.0245  0.6817
  826SOL    HW2 2478   1.530   0.237   3.032 -3.9048 -3.1282  2.9341
  827SOL     OW 2479   0.121   1.595   1.341  0.0958 -0.3518  0.2301
  827SOL    HW1 2480   0.131   1.687   1.379  2.5056 -1.7174  1.2974
  827SOL    HW2 2481   0.119   1.597   1.236  1.0882  1.9320 -0.5462
  828SOL     OW 2482   2.059   0.976   1.556  0.0774  0.2101 -0.2735
  828SOL    HW1 2483   2.027   1.004   1.466 -1.2918 -0.2248  1.8074
  828SOL    HW2 2484   1.991   1.009   1.626  1.1456 -1.9637  1.2384
  829SOL     OW 2485   3.073   2.116   0.366  0.2598 -0.4843 -0.2298
  829SOL    HW1 2486   2.990   2.062   0.381  1.2523 -0.4875  0.0371
  829SOL    HW2 2487   3.058   2.178   0.289 -1.8714 -1.1632  1.2852
  830SOL     OW 2488   1.034   0.860   0.770 -0.3749 -0.5543 -0.8298
  830SOL    HW1 2489   1.113   0.836   0.831  0.7797 -2.8010  1.2895
  830SOL    HW2 2490   0.972   0.916   0.827  2.5648 -1.5562 -1.7952
  831SOL     OW 2491   3.056   1.933   2.968  0.2665 -0.0707  0.2281
  831SOL    HW1 2492   2.980   1.875   2.932  0.5494 -0.4932  1.4483
  831SOL    HW2 2493   3.030   2.034   2.977  2.4871 -1.5746  0.3154
  832SOL     OW 2494   1.257   2.737   0.042 -0.0950 -0.0438 -0.7308
  832SOL    HW1 2495   1.262   2.832   0.011  1.3676 -1.4003  6.1627
  832SOL    HW2 2496   1.309   2.732   0.130 -2.4125 -1.2742 -0.4502
  833SOL     OW 2497   1.167   0.424   2.063 -0.4045  0.1342  0.5413
  833SOL    HW1 2498   1.189   0.452   2.158  0.6830  0.9465  0.7849
  833SOL    HW2 2499   1.097   0.485   2.025  0.6775  0.2033  4.7541
  834SOL     OW 2500   0.185   0.850   0.980  0.7480 -0.6755 -0.3119
  834SOL    HW1 2501   0.091   0.863   0.948  1.8619  3.4924  0.8064
  834SOL    HW2 2502   0.189   0.802   1.073  1.6325 -3.1353  1.3587
  835SOL     OW 2503   2.516   0.258   2.050 -0.2789 -0.1874  0.4185
  835SOL    HW1 2504   2.509   0.347   2.000 -0.3296 -1.2267  0.8807
  835SOL    HW2 2505   2.432   0.230   2.106 -0.8804 -4.6223 -0.0823
  836SOL     OW 2506   0.429   2.288   0.546 -0.1581  1.0167 -0.5472
  836SOL    HW1 2507   0.421   2.379   0.505  0.2834 -2.9751  2.1117
  836SOL    HW2 2508   0.523   2.250   0.551 -0.5996 -2.7202  0.3934
  837SOL     OW 2509   2.192   1.573   2.259 -0.2839 -0.5489 -0.2779
  837SOL    HW1 2510   2.166   1.491   2.323 -1.7566 -1.1024 -0.9802
  837SOL    HW2 2511   2.288   1.602   2.284  2.1631  3.1734  1.4289
  838SOL     OW 2512   0.351   1.287   1.573 -0.0284  0.2288 -0.2988
  838SOL    HW1 2513   0.389   1.238   1.490  0.4045  1.9829 -0.1754
  838SOL    HW2 2514   0.375   1.238   1.658  0.5418  3.2502  0.6196
  839SOL     OW 2515   0.170   0.251   0.874  0.2904 -0.1852  0.2393
  839SOL    HW1 2516   0.204   0.261   0.776  2.5897  3.1353 -1.4011
  839SOL    HW2 2517   0.252   0.244   0.936 -1.2471 -2.4229 -1.8260
  840SOL     OW 2518   0.165   0.267   2.721  0.2337  0.1633 -0.6784
  840SOL    HW1 2519   0.163   0.228   2.627 -3.4959  1.1666 -0.4295
  840SOL    HW2 2520   0.145   0.366   2.716  1.6700 -2.1607 -0.8221
  841SOL     OW 2521   0.056   2.549   3.034 -0.1953 -0.0727 -0.6636
  841SOL    HW1 2522   0.093   2.639   3.005  0.5201  0.7902  0.9895
  841SOL    HW2 2523   0.106   2.517   0.010  2.4533 -3.1461 -1.6069
  842SOL     OW 2524   0.464   3.039   0.976  0.2255 -0.3882 -0.2060
  842SOL    HW1 2525   0.437   3.095   0.894 -2.7320 -0.3831 -1.0652
  842SOL    HW2 2526   0.460   3.096   1.062  1.0367 -0.1962  0.4642
  843SOL     OW 2527   0.102   1.513   2.728  0.0638 -0.0830 -0.2660
  843SOL    HW1 2528   0.100   1.614   2.752 -0.0318  2.7579  1.7402
  843SOL    HW2 2529   0.036   1.462   2.785  0.4201  1.9987  1.6968
  844SOL     OW 2530   0.913   2.372   2.171 -0.2238 -0.3159  0.1652
  844SOL    HW1 2531   0.995   2.403   2.223 -0.3680  0.2266 -1.9949
  844SOL    HW2 2532   0.854   2.310   2.228  0.4811 -0.7825  1.3405
  845SOL     OW 2533   2.170   2.578   2.694  0.2611  0.0421  0.3005
  845SOL    HW1 2534   2.184   2.666   2.646  0.3778 -3.1548  0.9794
  845SOL    HW2 2535   2.149   2.591   2.795 -0.2823  0.7553  1.1343
  846SOL     OW 2536   1.717   1.330   2.523 -0.1556 -0.2773 -0.0327
  846SOL    HW1 2537   1.642   1.334   2.596 -1.1166  1.7191  1.0257
  846SOL    HW2 2538   1.686   1.264   2.449 -0.8989 -1.6781 -1.8618
  847SOL     OW 2539   2.840   0.190   2.895  0.1744 -0.4118 -0.3299
  847SOL    HW1 2540   2.840   0.253   2.816 -1.4777  0.6514 -1.9692
  847SOL    HW2 2541   2.909   0.227   2.966  1.6184  0.7774 -1.5232
  848SOL     OW 2542   0.161   0.844   0.280  0.2593  0.3209 -0.2599
  848SOL    HW1 2543   0.132   0.745   0.265 -0.5516 -0.4799 -0.0202
  848SOL    HW2 2544   0.142   0.877   0.376  0.7400  0.9976  0.2804
  849SOL     OW 2545   1.378   0.359   2.308 -0.4540  0.2126  0.4947
  849SOL    HW1 2546   1.277   0.371   2.314 -0.9403  1.7925 -0.7617
  849SOL    HW2 2547   1.418   0.446   2.272 -0.9196 -0.4703  2.7254
  850SOL     OW 2548   0.359   1.092   0.373  0.5752  0.2050  0.1273
  850SOL    HW1 2549   0.416   1.168   0.343 -0.5343 -1.5134  0.8805
  850SOL    HW2 2550   0.340   1.098   0.472 -2.6625 -0.5495  3.3066
  851SOL     OW 2551   0.549   1.284   0.319  0.0744  0.2329  0.1308
  851SOL    HW1 2552   0.549   1.329   0.413 -1.2569 -1.0921  0.1131
  851SOL    HW2 2553   0.580   1.349   0.250 -0.8826  0.1645  2.9113
  852SOL     OW 2554   1.320   1.211   1.676 -0.3808  0.1200  0.2319
  852SOL    HW1 2555   1.382   1.216   1.756  1.7774  0.5412  1.0256
  852SOL    HW2 2556   1.251   1.286   1.678  0.6934 -0.5058  0.3750
  853SOL     OW 2557   2.674   1.390   0.626 -0.4911  0.2845 -0.6195
  853SOL    HW1 2558   2.593   1.431   0.574 -1.1561  1.6348  0.0718
  853SOL    HW2 2559   2.766   1.416   0.590 -0.4245 -2.5355 -0.7249
  854SOL     OW 2560   1.657   1.107   2.187 -0.2519  0.9612  0.2821
  854SOL    HW1 2561   1.560   1.130   2.202  0.8767 -0.9581  0.2678
  854SOL    HW2 2562   1.721   1.185   2.190 -0.7965 -2.0146  0.6555
  855SOL     OW 2563   0.235   2.586   2.731  0.3085  0.3100 -0.2822
  855SOL    HW1 2564   0.231   2.494   2.776 -0.3820  0.5381 -1.3049
  855SOL    HW2 2565   0.233   2.665   2.797 -0.1807  0.4753 -1.1695
  856SOL     OW 2566   1.195   1.062   2.048  0.0737 -0.4715 -0.2288
  856SOL    HW1 2567   1.193   1.059   1.947  0.8294  1.1101 -2.5544
  856SOL    HW2 2568   1.126   1.128   2.093 -0.7252  0.6214  2.7369
  857SOL     OW 2569   0.896   0.846   2.204 -0.3078  0.3961 -0.8710
  857SOL    HW1 2570   0.980   0.817   2.162 -3.7614  3.5144 -0.8355
  857SOL    HW2 2571   0.823   0.861   2.137  1.5536 -1.9517  4.5737
  858SOL     OW 2572   2.888   1.060   1.589 -0.1396 -0.3939 -0.3083
  858SOL    HW1 2573   2.931   1.120   1.662 -2.1738 -0.4455 -1.4372
  858SOL    HW2 2574   2.898   1.099   1.497  0.3527  2.2717  2.5255
  859SOL     OW 2575   2.617   2.901   0.725 -0.2473 -0.2041  0.2128
  859SOL    HW1 2576   2.689   2.841   0.772 -2.0462 -0.6079  0.3085
  859SOL    HW2 2577   2.623   2.882   0.624  1.1665 -0.9657 -1.2259
  860SOL     OW 2578   1.676   0.205   0.797 -0.0934  0.1808 -0.4396
  860SOL    HW1 2579   1.664   0.145   0.718 -2.4918  1.1431  1.5629
  860SOL    HW2 2580   1.743   0.171   0.861 -2.5754 -2.4926 -3.1066
  861SOL     OW 2581   1.501   0.603   1.055  0.5807 -0.1235  0.1535
  861SOL    HW1 2582   1.411   0.630   1.091 -1.2927  0.4934  0.5522
  861SOL    HW2 2583   1.499   0.558   0.961  2.6665 -0.5606 -0.5058
  862SOL     OW 2584   1.464   3.090   2.610  0.7019  0.5283  0.0333
  862SOL    HW1 2585   1.493   2.989   2.606  0.1578 -1.6073  1.8972
  862SOL    HW2 2586   1.484   0.030   2.522 -1.4608  1.3096  0.2762
  863SOL     OW 2587   2.901   2.820   1.048  0.5323 -0.6994 -0.4680
  863SOL    HW1 2588   2.898   2.921   1.058 -0.3039 -0.4026 -0.5611
  863SOL    HW2 2589   2.850   2.785   0.968  1.2828  0.5110  1.8974
  864SOL     OW 2590   2.532   3.088   2.341 -0.3439 -0.4472 -0.2524
  864SOL    HW1 2591   2.514   3.104   2.441  1.6105  0.2616 -0.2917
  864SOL    HW2 2592   2.443   3.094   2.295  0.5166 -1.5248  1.1137
  865SOL     OW 2593   1.101   1.448   2.529 -0.0008 -0.3178  0.7706
  865SOL    HW1 2594   1.035   1.408   2.461 -0.1161 -3.0917  1.2304
  865SOL    HW2 2595   1.075   1.546   2.547 -1.7576 -0.5414 -0.7884
  866SOL     OW 2596   2.056   2.856   1.051  0.4921  0.1357  0.3865
  866SOL    HW1 2597   1.956   2.840   1.061  1.8381 -0.9090 -0.9104
  866SOL    HW2 2598   2.101   2.769   1.019  1.2253 -1.0039 -2.2056
  867SOL     OW 2599   2.439   2.857   0.922 -0.5228  0.0579 -0.2639
  867SOL    HW1 2600   2.511   2.887   0.861  2.0666 -0.2693  0.4267
  867SOL    HW2 2601   2.412   2.758   0.912 -2.7226 -0.1613 -1.4111
  868SOL     OW 2602   2.984   1.923   1.470  0.4447  0.1931 -0.1967
  868SOL    HW1 2603   2.904   1.863   1.457  0.3114  1.7242 -0.3988
  868SOL    HW2 2604   2.978   1.954   1.571 -0.4444 -1.0363 -0.4993
  869SOL     OW 2605   1.691   2.161   2.437  0.5190  0.0816 -0.1975
  869SOL    HW1 2606   1.738   2.250   2.458  0.1523  0.9998  1.8405
  869SOL    HW2 2607   1.743   2.081   2.475  0.8285 -0.9184  0.7026
  870SOL     OW 2608   1.228   1.166   0.805 -0.7562 -0.4573  0.4491
  870SOL    HW1 2609   1.330   1.149   0.803 -2.5940  0.9275  1.4095
  870SOL    HW2 2610   1.189   1.243   0.750  0.1461  0.4746  1.4942
  871SOL     OW 2611   2.781   1.707   2.033 -0.2902 -0.5673 -0.4015
  871SOL    HW1 2612   2.782   1.797   2.084  0.4587 -0.1764 -1.3558
  871SOL    HW2 2613   2.834   1.634   2.084 -0.2323 -1.3967  1.7812
  872SOL     OW 2614   1.113   1.474   2.927  0.6046  0.6402  0.0109
  872SOL    HW1 2615   1.122   1.546   2.993 -1.3448  2.2696 -0.2740
  872SOL    HW2 2616   1.040   1.493   2.857 -1.6739  0.5094 -0.2090
  873SOL     OW 2617   0.883   1.312   1.861  0.4131 -0.4537 -0.1629
  873SOL    HW1 2618   0.807   1.300   1.794 -0.6264  0.0152 -0.8072
  873SOL    HW2 2619   0.967   1.355   1.810  0.8017  3.0726  0.0762
  874SOL     OW 2620   1.646   0.928   1.661 -0.0407  0.1645  0.0767
  874SOL    HW1 2621   1.712   0.915   1.582 -0.6344  1.7923 -1.9024
  874SOL    HW2 2622   1.659   1.025   1.692 -0.0508  1.4276 -0.5161
  875SOL     OW 2623   3.010   0.284   3.079  0.7177  0.1223  0.2603
  875SOL    HW1 2624   3.029   0.227   0.051  0.5295 -0.4724  1.2382
  875SOL    HW2 2625   3.000   0.381   3.108  1.3918 -3.4066 -2.3816
  876SOL     OW 2626   0.932   1.169   0.204  0.0636  0.3816 -0.1612
  876SOL    HW1 2627   0.951   1.204   0.299  1.2135 -0.0997 -1.3140
  876SOL    HW2 2628   1.016   1.168   0.146  1.6448  0.3048  0.3775
  877SOL     OW 2629   2.338   2.797   0.520 -0.1117 -0.0376  0.3643
  877SOL    HW1 2630   2.274   2.729   0.478  1.3675 -0.3593 -2.0288
  877SOL    HW2 2631   2.303   2.890   0.505 -3.6719 -1.8492 -1.9146
  878SOL     OW 2632   1.948   1.926   0.284 -0.4750  0.1931  0.6790
  878SOL    HW1 2633   2.024   1.991   0.307  0.3196  1.2767 -2.7532
  878SOL    HW2 2634   1.859   1.970   0.286 -0.7500 -1.3063 -2.1090
  879SOL     OW 2635   0.112   1.749   1.673  0.1322  0.7019  0.2689
  879SOL    HW1 2636   0.147   1.657   1.702  0.7741  0.5710 -0.0089
  879SOL    HW2 2637   0.032   1.778   1.731 -0.8410 -0.8222  1.4405
  880SOL     OW 2638   0.255   1.971   0.817  0.4933 -0.3575 -0.0636
  880SOL    HW1 2639   0.216   2.069   0.808  0.1655  3.6824  2.1952
  880SOL    HW2 2640   0.220   1.932   0.905 -3.4121  1.9988 -2.3288
  881SOL     OW 2641   1.414   0.409   1.983  0.0040  0.7485 -0.2177
  881SOL    HW1 2642   1.410   0.499   1.936 -1.2329 -3.6648 -2.6954
  881SOL    HW2 2643   1.328   0.401   2.043  1.8167  1.0718 -0.7894
  882SOL     OW 2644   2.238   0.918   1.050 -0.2645 -0.0896 -0.1186
  882SOL    HW1 2645   2.301   0.990   1.017 -1.2405 -1.1604 -1.4859
  882SOL    HW2 2646   2.246   0.905   1.150  1.0057  0.9576 -0.2538
  883SOL     OW 2647   1.717   0.244   1.747  0.9209 -0.0330 -1.0984
  883SOL    HW1 2648   1.690   0.337   1.712  0.0199  2.3769  0.8231
  883SOL    HW2 2649   1.633   0.189   1.760  1.4016  0.1595 -0.1182
  884SOL     OW 2650   2.908   3.034   2.001 -0.0548 -0.5701 -0.5224
  884SOL    HW1 2651   2.840   3.107   2.015  2.3605  0.5725  1.8942
  884SOL    HW2 2652   3.000   3.076   2.008  0.0847  0.5596 -0.0835
  885SOL     OW 2653   1.513   1.318   2.730 -0.2061 -0.0372  0.3932
  885SOL    HW1 2654   1.557   1.383   2.799  3.4258 -0.7522  0.2368
  885SOL    HW2 2655   1.415   1.346   2.715  2.2528  1.1757 -0.7427
  886SOL     OW 2656   2.275   0.570   2.869 -0.4550  0.0878  0.2866
  886SOL    HW1 2657   2.261   0.522   2.960 -1.2050 -1.7683  0.9368
  886SOL    HW2 2658   2.185   0.562   2.820  0.3353 -1.8507  1.7366
  887SOL     OW 2659   1.084   2.885   1.694 -0.0267 -0.4513  0.1984
  887SOL    HW1 2660   1.177   2.905   1.658  0.7193  0.6886 -1.4899
  887SOL    HW2 2661   1.088   2.802   1.753  0.5369 -2.6249 -1.1914
  888SOL     OW 2662   1.929   1.710   2.193  0.5078  0.2385  0.1806
  888SOL    HW1 2663   1.897   1.688   2.099 -2.1294 -3.5872 -1.8047
  888SOL    HW2 2664   2.023   1.667   2.208 -0.3242 -2.5095 -0.8951
  889SOL     OW 2665   1.994   2.392   1.296 -0.4528  0.2043 -0.3302
  889SOL    HW1 2666   2.026   2.415   1.390  2.0616 -0.2637  1.4018
  889SOL    HW2 2667   2.005   2.290   1.284  0.6982  0.5110 -0.2399
  890SOL     OW 2668   1.237   1.685   1.091  0.2595  0.0542 -0.0618
  890SOL    HW1 2669   1.219   1.723   1.187 -0.3189  1.7370 -0.9826
  890SOL    HW2 2670   1.158   1.701   1.028  6.0525 -0.8573 -0.6319
  891SOL     OW 2671   2.848   1.328   0.207 -0.0087 -0.3666 -0.1721
  891SOL    HW1 2672   2.800   1.237   0.193 -0.8379  1.1272  0.8057
  891SOL    HW2 2673   2.918   1.315   0.278  0.4564 -1.3080  2.7256
  892SOL     OW 2674   2.348   1.459   0.269  0.0229  0.1907 -0.0063
  892SOL    HW1 2675   2.389   1.423   0.181 -0.8500 -1.1536 -2.6959
  892SOL    HW2 2676   2.355   1.558   0.270  1.5551  0.3537  0.4766
  893SOL     OW 2677   1.977   2.498   1.559 -0.2597  0.3947  0.5215
  893SOL    HW1 2678   1.999   2.593   1.587  1.9993 -0.6774 -0.3248
  893SOL    HW2 2679   2.060   2.444   1.589  1.2069 -0.8420 -1.9812
  894SOL     OW 2680   2.639   2.789   0.477 -0.5030  0.1165 -0.2260
  894SOL    HW1 2681   2.668   2.747   0.390 -0.6119  2.4433 -0.2940
  894SOL    HW2 2682   2.538   2.785   0.483 -0.0524 -1.1825  0.8158
  895SOL     OW 2683   2.832   2.521   2.740 -0.3497  0.2502  0.1109
  895SOL    HW1 2684   2.784   2.610   2.707 -1.3586 -0.7442  0.1341
  895SOL    HW2 2685   2.774   2.440   2.723  1.7362  0.7424  0.5354
  896SOL     OW 2686   2.448   0.170   2.883 -0.6292  0.4482 -0.6314
  896SOL    HW1 2687   2.488   0.261   2.860 -2.8107  1.4062  0.9592
  896SOL    HW2 2688   2.346   0.185   2.884 -1.1269 -1.8571 -2.4242
  897SOL     OW 2689   0.557   1.735   1.948 -0.0077 -0.5464 -0.2656
  897SOL    HW1 2690   0.636   1.704   2.005  0.2120  2.1286 -2.0227
  897SOL    HW2 2691   0.468   1.705   1.996  2.2459  2.3178  1.9129
  898SOL     OW 2692   2.551   1.729   1.640  0.0775  0.1084  0.4083
  898SOL    HW1 2693   2.556   1.710   1.741  1.5465 -2.0743  1.3527
  898SOL    HW2 2694   2.451   1.721   1.617 -1.0549 -1.8165  1.2483
  899SOL     OW 2695   1.718   2.790   1.460 -0.0225 -0.7191 -0.7248
  899SOL    HW1 2696   1.749   2.731   1.385  1.7136  1.0122  3.5647
  899SOL    HW2 2697   1.794   2.810   1.521 -0.3380 -0.3712 -0.9928
  900SOL     OW 2698   1.199   1.147   0.108 -0.0007 -0.9091  0.3499
  900SOL    HW1 2699   1.245   1.183   0.021  1.5209  1.4717 -1.5689
  900SOL    HW2 2700   1.251   1.068   0.146 -0.2993  0.4552 -0.1519
  901SOL     OW 2701   1.148   1.121   2.578 -0.1320 -0.5334 -0.3411
  901SOL    HW1 2702   1.236   1.145   2.545 -2.7451 -2.1814  1.3206
  901SOL    HW2 2703   1.093   1.086   2.506  1.4738  1.1012  2.1007
  902SOL     OW 2704   2.675   2.089   0.583 -0.2365 -0.0744  0.3934
  902SOL    HW1 2705   2.588   2.120   0.628 -0.2741 -1.6353  2.0114
  902SOL    HW2 2706   2.755   2.081   0.649 -2.9996 -0.7090  1.4451
  903SOL     OW 2707   2.673   1.183   1.846 -0.2445  0.6585  0.1792
  903SOL    HW1 2708   2.671   1.241   1.761  1.5669  1.6632  0.4353
  903SOL    HW2 2709   2.677   1.080   1.827  0.5923 -0.1839  0.0681
  904SOL     OW 2710   2.160   1.017   0.532 -0.1826  0.8429 -0.3752
  904SOL    HW1 2711   2.202   1.094   0.477  1.2816  1.1711  0.7656
  904SOL    HW2 2712   2.073   1.052   0.572  0.5699  3.6084 -0.7236
  905SOL     OW 2713   2.279   2.570   1.258 -0.9145  0.0225  0.0296
  905SOL    HW1 2714   2.312   2.640   1.329  0.2764  1.0947  1.0949
  905SOL    HW2 2715   2.208   2.510   1.296  1.2722  1.4239  0.8328
  906SOL     OW 2716   1.434   2.041   2.934 -0.3516 -0.3030  0.2227
  906SOL    HW1 2717   1.390   2.138   2.935 -2.5439  1.7104  0.2777
  906SOL    HW2 2718   1.515   2.037   2.874 -1.7473  1.6123  0.4781
  907SOL     OW 2719   0.886   2.547   0.780  0.2920  0.1025 -0.5096
  907SOL    HW1 2720   0.966   2.504   0.820 -0.4865  0.3459 -0.2044
  907SOL    HW2 2721   0.905   2.570   0.683  2.6180  2.0115 -0.1548
  908SOL     OW 2722   0.934   3.062   2.118 -0.5890 -0.2077 -0.0871
  908SOL    HW1 2723   0.957   2.962   2.125  1.1539 -1.3559  0.0843
  908SOL    HW2 2724   0.952   3.090   2.022  0.6338  1.4656 -0.0880
  909SOL     OW 2725   1.944   0.283   1.947 -0.6505  0.2805  0.0660
  909SOL    HW1 2726   1.871   0.249   1.886 -1.3270  0.3362 -0.8760
  909SOL    HW2 2727   1.919   0.367   1.995  2.3958  0.2381 -0.7457
  910SOL     OW 2728   0.944   0.797   2.713  0.3083  0.1306  0.0612
  910SOL    HW1 2729   0.981   0.869   2.649  0.6921  1.0218  1.9947
  910SOL    HW2 2730   0.843   0.781   2.706 -0.6062  2.5428 -1.4069
  911SOL     OW 2731   3.027   0.538   0.021  0.4224 -0.2420 -0.3850
  911SOL    HW1 2732   2.986   0.624   3.108 -1.5045 -2.2511  1.3420
  911SOL    HW2 2733   3.081   0.548   0.106 -1.4201 -1.5633  2.2682
  912SOL     OW 2734   2.747   2.479   2.992  0.3144 -0.2207  0.2439
  912SOL    HW1 2735   2.799   2.503   2.903  3.9148 -0.4085  2.5765
  912SOL    HW2 2736   2.782   2.543   3.065  0.6683 -1.7988 -2.0948
  913SOL     OW 2737   2.807   1.988   2.817  0.1622  0.5756 -0.4865
  913SOL    HW1 2738   2.722   2.008   2.765  2.0728  0.5870 -0.1200
  913SOL    HW2 2739   2.888   1.972   2.753 -0.9956 -0.3124  0.0597
  914SOL     OW 2740   1.744   1.733   1.707 -0.4191  0.2450  0.0063
  914SOL    HW1 2741   1.739   1.829   1.745  2.2701 -2.2250 -1.0023
  914SOL    HW2 2742   1.804   1.726   1.629 -0.4231 -0.3716 -1.3866
  915SOL     OW 2743   0.198   2.581   2.020 -0.4364  0.6205  0.1501
  915SOL    HW1 2744   0.250   2.531   1.945  0.7757 -1.9520  2.1665
  915SOL    HW2 2745   0.252   2.570   2.108 -0.0494  0.1693  1.8342
  916SOL     OW 2746   0.356   1.538   1.468  0.3682  0.1869  0.3303
  916SOL    HW1 2747   0.265   1.548   1.415 -0.5722 -0.2085  0.2862
  916SOL    HW2 2748   0.352   1.464   1.539 -0.3721  1.4031 -2.6190
  917SOL     OW 2749   2.649   0.196   3.094  0.8101  0.2107 -0.6115
  917SOL    HW1 2750   2.565   0.171   3.043  1.5261 -0.0655  1.8370
  917SOL    HW2 2751   2.717   0.231   3.030  1.4139 -0.4032  0.6879
  918SOL     OW 2752   1.601   2.533   2.369  0.1186 -0.2650  0.1236
  918SOL    HW1 2753   1.519   2.586   2.403 -0.4610  0.8358  2.5772
  918SOL    HW2 2754   1.661   2.600   2.315  2.7308  0.2617 -1.7617
  919SOL     OW 2755   1.726   2.449   1.942  0.1631 -0.3230  0.5103
  919SOL    HW1 2756   1.746   2.396   1.861  2.1300 -1.2107  0.9169
  919SOL    HW2 2757   1.784   2.420   2.019 -1.4933  0.4063  0.0161
  920SOL     OW 2758   0.770   0.825   0.086 -0.1840 -0.5102  0.4991
  920SOL    HW1 2759   0.727   0.816   3.100 -1.1535 -0.8252 -4.9831
  920SOL    HW2 2760   0.739   0.907   0.139 -1.2351  2.7846 -1.4179
  921SOL     OW 2761   0.078   0.900   2.400  0.0217 -0.0133  0.5238
  921SOL    HW1 2762   3.092   0.865   2.392  0.4949 -1.4811 -0.4458
  921SOL    HW2 2763   0.125   0.881   2.312 -0.1271 -2.6038  2.1804
  922SOL     OW 2764   0.300   1.840   0.100 -0.1320  0.2082 -0.0218
  922SOL    HW1 2765   0.385   1.897   0.101 -0.1268  0.4245  0.9523
  922SOL    HW2 2766   0.262   1.846   0.194  2.8139  1.9594 -3.5149
  923SOL     OW 2767   0.459   1.140   1.785 -0.1330  0.3955  0.1586
  923SOL    HW1 2768   0.407   1.132   1.872  0.6727 -0.4996 -3.4037
  923SOL    HW2 2769   0.486   1.047   1.748  2.1225 -2.7201 -3.5952
  924SOL     OW 2770   1.223   2.949   2.798  0.3883 -0.2225 -0.3297
  924SOL    HW1 2771   1.261   3.027   2.747 -0.1163 -1.7861  0.8947
  924SOL    HW2 2772   1.140   2.965   2.858 -0.8501 -1.3579 -0.2039
  925SOL     OW 2773   2.268   1.282   1.322 -0.0453 -0.2371 -0.1485
  925SOL    HW1 2774   2.191   1.322   1.264 -0.9091 -1.4525 -0.6710
  925SOL    HW2 2775   2.254   1.310   1.419  2.3540 -2.0726  2.7626
  926SOL     OW 2776   2.249   0.327   2.156 -0.2020  0.2805  0.4345
  926SOL    HW1 2777   2.240   0.311   2.057 -0.3508  1.1315  3.5030
  926SOL    HW2 2778   2.176   0.385   2.197  1.7729  0.4119 -1.2870
  927SOL     OW 2779   2.793   2.456   1.607  0.5154  0.0752  0.6244
  927SOL    HW1 2780   2.824   2.551   1.603  1.5810 -0.7069  2.7897
  927SOL    HW2 2781   2.795   2.402   1.521 -1.8420  0.9643 -1.5767
  928SOL     OW 2782   0.556   0.963   2.578 -0.1789 -0.0024  0.6593
  928SOL    HW1 2783   0.500   1.001   2.649  0.4584 -0.3142 -1.1065
  928SOL    HW2 2784   0.611   1.036   2.532 -0.4606 -1.3749  0.0388
  929SOL     OW 2785   2.499   0.069   0.782 -1.0097  0.2744 -0.0804
  929SOL    HW1 2786   2.539   3.086   0.766  1.6601 -2.5462  0.6714
  929SOL    HW2 2787   2.431   0.087   0.709 -3.3807  1.1614 -0.2492
  930SOL     OW 2788   2.703   0.039   1.680  0.3030 -0.3655 -0.1940
  930SOL    HW1 2789   2.605   0.056   1.720 -2.3294 -1.2510  3.6522
  930SOL    HW2 2790   2.716   0.084   1.593  1.7400  1.2852  0.5576
  931SOL     OW 2791   2.301   1.191   0.315 -0.1251  0.3505  0.5610
  931SOL    HW1 2792   2.344   1.282   0.325 -0.3621  0.3243 -1.5674
  931SOL    HW2 2793   2.371   1.119   0.331 -0.5950  2.2811  0.2398
  932SOL     OW 2794   2.219   1.383   1.606 -0.2168 -0.4858  0.8223
  932SOL    HW1 2795   2.250   1.283   1.623  2.8952 -1.2164  1.4525
  932SOL    HW2 2796   2.117   1.391   1.600  1.1552  0.9849  0.7136
  933SOL     OW 2797   2.890   2.380   1.111  0.8858  1.0049  0.2905
  933SOL    HW1 2798   2.923   2.471   1.141  1.1032  0.5539 -0.2797
  933SOL    HW2 2799   2.967   2.323   1.083 -0.1771  3.0875 -0.5826
  934SOL     OW 2800   0.626   2.180   1.176  0.5572  0.1134 -0.0952
  934SOL    HW1 2801   0.726   2.200   1.181  0.8573  2.5048 -1.0894
  934SOL    HW2 2802   0.591   2.219   1.090  0.6376 -0.5580 -1.6586
  935SOL     OW 2803   2.567   1.201   2.092 -0.1334 -0.5940  0.0885
  935SOL    HW1 2804   2.541   1.105   2.110  0.3262 -0.4074  0.0916
  935SOL    HW2 2805   2.592   1.207   1.995 -0.9130 -0.8496 -0.1568
  936SOL     OW 2806   2.487   1.420   1.895 -0.0277  0.0083  0.4801
  936SOL    HW1 2807   2.513   1.519   1.907  0.7519  0.2809  1.2620
  936SOL    HW2 2808   2.570   1.361   1.913  1.5199 -1.3300  1.3682
  937SOL     OW 2809   1.994   0.985   1.985  0.2500  0.1642 -0.5980
  937SOL    HW1 2810   2.031   1.045   2.058 -1.2849 -0.4970 -0.4294
  937SOL    HW2 2811   2.058   0.932   1.925 -1.9594  1.2449  0.8453
  938SOL     OW 2812   0.935   2.357   2.812 -0.2586 -0.0707  0.2252
  938SOL    HW1 2813   0.915   2.293   2.888 -1.0854 -0.1483 -1.2557
  938SOL    HW2 2814   1.025   2.351   2.772 -2.2607  1.7262 -2.0628
  939SOL     OW 2815   2.600   0.975   3.072  0.6757 -0.6853  0.3999
  939SOL    HW1 2816   2.656   0.943   2.992 -0.1230 -0.9767 -1.6122
  939SOL    HW2 2817   2.549   0.898   0.008 -2.5085 -1.9669 -0.8397
  940SOL     OW 2818   0.826   1.727   0.857  0.2230 -0.3141 -0.2748
  940SOL    HW1 2819   0.817   1.664   0.774  1.6205  1.4462  2.6201
  940SOL    HW2 2820   0.776   1.688   0.939  1.7808  1.2608 -2.1296
  941SOL     OW 2821   0.802   2.598   2.022 -0.0611 -0.1103 -0.1955
  941SOL    HW1 2822   0.706   2.624   2.051 -3.4541  0.1162 -1.0728
  941SOL    HW2 2823   0.830   2.514   2.071  1.0896 -3.6093  0.5450
  942SOL     OW 2824   0.642   2.221   0.113  0.3233 -0.1633  0.0765
  942SOL    HW1 2825   0.572   2.291   0.103  2.8198 -0.8069  0.4931
  942SOL    HW2 2826   0.700   2.236   0.199 -1.6493  0.9245 -2.0966
  943SOL     OW 2827   1.824   2.711   1.934  0.0044  0.1641  0.5868
  943SOL    HW1 2828   1.783   2.618   1.904 -1.6576 -1.5035  0.6412
  943SOL    HW2 2829   1.925   2.719   1.919 -0.8061 -1.1958  0.3059
  944SOL     OW 2830   1.133   1.589   0.088  0.4606 -0.1819 -0.3211
  944SOL    HW1 2831   1.166   1.500   0.126 -1.3967  1.5819 -0.5890
  944SOL    HW2 2832   1.040   1.605   0.126 -1.8390 -2.2943 -1.2993
  945SOL     OW 2833   2.833   2.699   0.789 -0.2092 -0.3418 -0.1184
  945SOL    HW1 2834   2.811   2.603   0.791 -0.9969  0.5400 -1.0250
  945SOL    HW2 2835   2.912   2.728   0.729  2.4535 -0.2368 -3.3945
  946SOL     OW 2836   1.006   1.697   2.587  0.6975 -0.0068  0.0025
  946SOL    HW1 2837   1.083   1.747   2.626 -0.7325  0.2607  0.5213
  946SOL    HW2 2838   0.962   1.642   2.658 -0.6044  0.3150  1.5518
  947SOL     OW 2839   2.874   0.180   1.844  0.9913  0.0336 -0.3464
  947SOL    HW1 2840   2.812   0.122   1.789  1.7181  2.6118  0.4967
  947SOL    HW2 2841   2.820   0.247   1.897  4.5587 -1.3545  0.1916
  948SOL     OW 2842   3.074   1.898   0.959  0.3494  0.6473  0.4958
  948SOL    HW1 2843   3.037   1.809   0.996  0.0572  1.2582 -1.2075
  948SOL    HW2 2844   0.003   1.959   1.032  0.4598  1.4651 -0.8877
  949SOL     OW 2845   0.852   0.840   1.859  0.0070  0.3643 -0.3688
  949SOL    HW1 2846   0.925   0.782   1.895  0.3756 -1.7694  1.3967
  949SOL    HW2 2847   0.879   0.882   1.767  0.6030  0.8374 -0.2579
  950SOL     OW 2848   0.145   0.932   1.433  0.3076 -0.1099 -0.9038
  950SOL    HW1 2849   0.089   1.010   1.402  0.6682 -1.9272 -2.0268
  950SOL    HW2 2850   0.118   0.847   1.382 -1.0088 -0.8290 -0.2245
  951SOL     OW 2851   0.829   1.579   2.302 -0.3995 -0.5548 -0.7661
  951SOL    HW1 2852   0.767   1.606   2.379 -3.5417 -1.5366  1.1629
  951SOL    HW2 2853   0.850   1.663   2.251 -0.3136 -1.4322 -0.9937
  952SOL     OW 2854   1.511   2.173   0.820 -0.7870  0.2373  0.5231
  952SOL    HW1 2855   1.447   2.142   0.750 -1.1726  0.0755  2.0931
  952SOL    HW2 2856   1.484   2.139   0.913  1.8745 -0.8973  1.1960
  953SOL     OW 2857   1.031   0.738   0.124 -0.2173 -0.1932 -0.3272
  953SOL    HW1 2858   1.061   0.660   0.069 -0.7408  0.2294  1.3356
  953SOL    HW2 2859   0.935   0.755   0.102  0.1396 -0.3070 -0.2461
  954SOL     OW 2860   1.910   0.905   1.134 -0.1532  0.1668 -0.7190
  954SOL    HW1 2861   1.962   0.901   1.046 -0.8888 -2.7058  2.3711
  954SOL    HW2 2862   1.813   0.901   1.115  1.3897 -0.0082 -2.3860
  955SOL     OW 2863   2.419   1.455   0.552  0.0461 -0.4012  0.1653
  955SOL    HW1 2864   2.344   1.523   0.561 -1.0903 -1.7222  1.8329
  955SOL    HW2 2865   2.424   1.445   0.449 -0.3808  0.7983 -0.1704
  956SOL     OW 2866   0.792   0.434   1.773  0.3453 -0.2050  0.1432
  956SOL    HW1 2867   0.762   0.408   1.865 -0.4090 -2.0307  1.1701
  956SOL    HW2 2868   0.875   0.380   1.743  0.3244 -3.7412 -0.5916
  957SOL     OW 2869   1.881   0.221   1.236  0.0320  0.2165 -0.0908
  957SOL    HW1 2870   1.837   0.276   1.310 -1.3887 -0.1549 -1.0030
  957SOL    HW2 2871   1.910   0.131   1.275  0.0806  0.3179 -1.2669
  958SOL     OW 2872   0.152   2.294   0.493  0.4725  0.0572 -0.0897
  958SOL    HW1 2873   0.102   2.233   0.433 -0.6042  0.7344 -0.4386
  958SOL    HW2 2874   0.251   2.276   0.505  2.2084  0.1696 -0.1320
  959SOL     OW 2875   2.340   1.131   1.925 -0.4006  0.1042  0.8119
  959SOL    HW1 2876   2.347   1.224   1.975  0.8388  1.3168  2.3825
  959SOL    HW2 2877   2.295   1.138   1.829 -1.1309 -0.5156 -4.4563
  960SOL     OW 2878   0.105   1.766   2.808 -1.0801 -0.3566  0.1079
  960SOL    HW1 2879   0.192   1.753   2.860  0.9236 -0.5938  0.4884
  960SOL    HW2 2880   0.039   1.812   2.868  0.3109 -2.5789 -0.3467
  961SOL     OW 2881   0.448   1.654   1.234 -0.1255 -0.1824  0.3673
  961SOL    HW1 2882   0.394   1.606   1.308  0.3501  2.0384  0.3336
  961SOL    HW2 2883   0.508   1.726   1.270  0.2571 -3.7615 -1.9098
  962SOL     OW 2884   0.802   1.372   0.906  0.3167 -0.4194 -0.5590
  962SOL    HW1 2885   0.834   1.316   0.986 -1.1019 -1.0875  1.5866
  962SOL    HW2 2886   0.879   1.393   0.844  0.8100  0.9772  0.0620
  963SOL     OW 2887   0.980   2.186   2.475  0.3255  0.3634 -0.6414
  963SOL    HW1 2888   0.971   2.083   2.459  3.0332 -0.4193 -0.6463
  963SOL    HW2 2889   1.032   2.204   2.559 -2.1710 -0.7341  0.8437
  964SOL     OW 2890   0.229   2.845   1.929 -0.5641 -0.7946 -0.7006
  964SOL    HW1 2891   0.166   2.834   1.855  0.8698 -0.5311  2.1389
  964SOL    HW2 2892   0.236   2.763   1.983 -0.0703  1.9778 -0.3282
  965SOL     OW 2893   0.528   2.172   2.863  0.4802 -0.4186 -0.4117
  965SOL    HW1 2894   0.430   2.206   2.879 -2.4481  1.0739 -1.2611
  965SOL    HW2 2895   0.535   2.072   2.872  2.0082  2.3332 -0.5535
  966SOL     OW 2896   2.998   1.482   0.009 -0.5461 -0.4100 -0.7113
  966SOL    HW1 2897   2.927   1.439   0.073 -3.2799 -3.1534  3.1499
  966SOL    HW2 2898   3.007   1.427   3.033 -0.3176 -0.6729 -1.1109
  967SOL     OW 2899   2.057   3.086   0.277  1.0391 -0.3420 -0.1423
  967SOL    HW1 2900   2.158   3.106   0.281 -1.4877 -0.2559 -0.2514
  967SOL    HW2 2901   2.037   2.988   0.306 -1.8362 -2.6410 -2.2527
  968SOL     OW 2902   2.234   3.016   0.953  0.0070  0.3804  0.2963
  968SOL    HW1 2903   2.157   2.959   0.987 -4.6423 -0.6072 -1.9039
  968SOL    HW2 2904   2.312   2.960   0.921  0.1133  1.9853  0.8232
  969SOL     OW 2905   0.342   1.121   2.019 -0.2511  0.2176 -0.4901
  969SOL    HW1 2906   0.247   1.152   2.019  1.1481 -0.3898 -0.6247
  969SOL    HW2 2907   0.356   1.023   2.045 -1.0128  1.2839 -0.4121
  970SOL     OW 2908   1.731   1.497   0.384  0.4133  0.3325  0.1867
  970SOL    HW1 2909   1.745   1.595   0.410 -0.2286  1.0143  0.7503
  970SOL    HW2 2910   1.707   1.441   0.467 -1.1343 -2.4247 -2.8361
  971SOL     OW 2911   2.593   2.890   1.522 -0.0037 -0.6683 -0.2689
  971SOL    HW1 2912   2.579   2.911   1.622 -1.0364 -0.4596  2.0978
  971SOL    HW2 2913   2.621   2.966   1.464 -3.0081 -1.6813  4.6364
  972SOL     OW 2914   2.738   0.121   1.406  0.1055 -0.1467  0.0040
  972SOL    HW1 2915   2.672   0.088   1.336  0.6284 -0.1761 -0.0362
  972SOL    HW2 2916   2.768   0.216   1.381  0.9799 -0.8724  0.1781
  973SOL     OW 2917   0.497   0.559   2.879  0.3818  0.4545 -0.0569
  973SOL    HW1 2918   0.556   0.597   2.803 -0.4037  0.4789 -1.1758
  973SOL    HW2 2919   0.397   0.581   2.868 -0.5282 -0.7466 -0.8892
  974SOL     OW 2920   2.633   0.919   1.831 -0.4296  0.1172  0.1142
  974SOL    HW1 2921   2.574   0.916   1.751 -1.3629  1.8686  0.9516
  974SOL    HW2 2922   2.620   0.837   1.894 -2.0005 -2.4267  0.5849
  975SOL     OW 2923   1.057   0.342   1.709 -0.7429  0.3182  0.2097
  975SOL    HW1 2924   1.042   0.308   1.611  0.3531 -1.1632 -1.3671
  975SOL    HW2 2925   1.122   0.278   1.758  2.3513  0.5590  2.3234
  976SOL     OW 2926   1.248   1.778   1.335  0.1049  0.1337 -0.2529
  976SOL    HW1 2927   1.313   1.844   1.382 -1.9650 -1.2185 -1.4080
  976SOL    HW2 2928   1.165   1.780   1.392 -1.3360  0.2680 -1.2411
  977SOL     OW 2929   1.165   3.001   0.001 -0.3086  0.3762 -0.0643
  977SOL    HW1 2930   1.067   2.981   3.082  0.5749 -1.4285  3.7257
  977SOL    HW2 2931   1.189   3.101   3.109  0.7592  0.5239 -0.2631
  978SOL     OW 2932   2.443   0.968   2.148  0.0231  0.2266  0.0121
  978SOL    HW1 2933   2.379   0.892   2.176 -0.1140 -0.7174  0.9287
  978SOL    HW2 2934   2.391   1.042   2.102  1.2899  2.3548  3.4023
  979SOL     OW 2935   1.628   0.471   1.661  0.0167 -0.0347  0.3507
  979SOL    HW1 2936   1.629   0.551   1.729  0.6022  2.9705  1.2603
  979SOL    HW2 2937   1.532   0.454   1.633  1.9687 -0.6250 -0.0041
  980SOL     OW 2938   1.638   1.494   2.078  0.2529  0.4903 -0.1576
  980SOL    HW1 2939   1.657   1.545   1.994 -3.2033  0.0330  0.6911
  980SOL    HW2 2940   1.554   1.534   2.127 -1.9792  2.2959  1.2907
  981SOL     OW 2941   2.093   0.631   1.554  0.4938  0.3123  0.3427
  981SOL    HW1 2942   2.055   0.681   1.473 -0.8924 -2.7251 -1.7573
  981SOL    HW2 2943   2.027   0.604   1.627  1.1254 -0.0748 -1.3805
  982SOL     OW 2944   0.849   0.131   2.773  0.0722 -0.0145 -0.6027
  982SOL    HW1 2945   0.745   0.122   2.776 -0.8659 -1.7730 -0.5071
  982SOL    HW2 2946   0.891   0.134   2.870  1.4793 -0.3862  1.4861
  983SOL     OW 2947   2.220   0.847   2.923  0.1629  0.3340 -0.1778
  983SOL    HW1 2948   2.256   0.756   2.893 -1.0643  0.8551  2.0479
  983SOL    HW2 2949   2.188   0.840   3.020  0.2896  1.0877  3.8926
  984SOL     OW 2950   0.695   0.303   2.017 -0.4776  0.3150 -0.4649
  984SOL    HW1 2951   0.786   0.270   2.049  0.6932  0.5056 -0.3826
  984SOL    HW2 2952   0.665   0.378   2.079 -1.8605 -0.0379 -0.0752
  985SOL     OW 2953   1.688   2.029   2.061  0.9359  0.5882 -0.4489
  985SOL    HW1 2954   1.683   2.000   1.962 -0.3558 -1.3057 -0.0277
  985SOL    HW2 2955   1.787   2.046   2.088  1.0491  0.6792 -0.6106
  986SOL     OW 2956   2.530   2.893   1.785  0.3378  0.1787 -0.0103
  986SOL    HW1 2957   2.612   2.881   1.844  1.8045 -2.2140  1.3732
  986SOL    HW2 2958   2.501   2.991   1.779 -3.1556  0.0089 -0.3211
  987SOL     OW 2959   2.013   1.380   1.221 -0.3923  0.0674  0.4839
  987SOL    HW1 2960   2.037   1.473   1.193  0.2955 -0.7759 -1.0209
  987SOL    HW2 2961   1.928   1.384   1.283 -0.2115  1.2131 -1.9655
  988SOL     OW 2962   2.535   1.675   1.927 -1.0457  0.4888 -0.5244
  988SOL    HW1 2963   2.478   1.757   1.947  0.1315  0.9213 -2.6776
  988SOL    HW2 2964   2.627   1.677   1.983  4.9797 -1.7492  2.0944
  989SOL     OW 2965   1.253   2.431   0.043 -0.4388 -0.0191  0.4079
  989SOL    HW1 2966   1.254   2.527   0.078  1.4392 -1.8710  2.2884
  989SOL    HW2 2967   1.300   2.368   0.105 -3.3653 -2.0570 -0.2114
  990SOL     OW 2968   1.997   0.975   2.801 -0.2074  0.8459  0.0084
  990SOL    HW1 2969   2.045   0.921   2.871 -0.1545  2.3915 -1.4097
  990SOL    HW2 2970   2.014   1.072   2.806 -0.3587 -1.3527  0.7890
  991SOL     OW 2971   1.097   0.557   0.813  0.4827  0.6402 -0.4973
  991SOL    HW1 2972   1.025   0.581   0.746  0.9927 -0.5360  1.6211
  991SOL    HW2 2973   1.067   0.577   0.907 -0.4547 -1.5970 -0.3342
  992SOL     OW 2974   2.238   0.882   1.330 -0.2674  0.0458  0.5564
  992SOL    HW1 2975   2.318   0.947   1.330  0.3900 -0.9586  1.9868
  992SOL    HW2 2976   2.175   0.895   1.403  3.5575 -0.9027 -1.8957
  993SOL     OW 2977   2.304   0.646   1.887  0.5870  0.0585  0.1744
  993SOL    HW1 2978   2.293   0.747   1.867 -5.0455  1.6355 -4.2688
  993SOL    HW2 2979   2.291   0.628   1.990  1.9425 -1.9351  0.6093
  994SOL     OW 2980   0.674   1.761   2.470 -0.5890 -0.4125  0.9746
  994SOL    HW1 2981   0.720   1.849   2.491  0.8353  1.8442  0.7956
  994SOL    HW2 2982   0.576   1.760   2.434 -0.3981 -1.5197 -0.8685
  995SOL     OW 2983   2.115   1.205   2.841  0.0600 -0.2318  0.1178
  995SOL    HW1 2984   2.117   1.305   2.807 -0.2339 -0.8425 -2.7854
  995SOL    HW2 2985   2.206   1.159   2.852  0.5772  2.3771  1.9368
  996SOL     OW 2986   2.320   1.821   0.450  0.2467 -0.0162 -0.4600
  996SOL    HW1 2987   2.259   1.758   0.500  3.1491 -0.5015  1.4243
  996SOL    HW2 2988   2.414   1.814   0.490  1.0917  1.0170  1.2055
  997SOL     OW 2989   2.407   0.550   2.184  0.1132  0.0037  0.5932
  997SOL    HW1 2990   2.351   0.463   2.186  0.4873 -0.6223 -1.1951
  997SOL    HW2 2991   2.502   0.525   2.212 -0.4718 -0.9440 -3.0216
  998SOL     OW 2992   2.704   1.109   0.619 -0.5907  0.0688  0.0858
  998SOL    HW1 2993   2.686   1.204   0.646 -3.7488 -2.3447 -0.2370
  998SOL    HW2 2994   2.651   1.047   0.680  2.2499  0.4370  1.0601
  999SOL     OW 2995   2.868   1.798   0.549 -0.0243  0.2938  0.4535
  999SOL    HW1 2996   2.868   1.830   0.453 -1.7739 -0.7773  0.5260
  999SOL    HW2 2997   2.946   1.835   0.599  0.1543  0.6376 -1.0830
 1000SOL     OW 2998   0.776   0.621   2.317  0.1966  0.1846  0.1887
 1000SOL    HW1 2999   0.817   0.711   2.296 -0.5251 -0.9934  1.0766
 1000SOL    HW2 3000   0.846   0.548   2.306  1.7187 -1.3843 -0.2747
   3.11014   3.11014   3.11014
