1000 SPC/Fw water molecules t= 251.00000 step= 251000
 3000
    1SOL     OW    1   2.826   2.468   1.012  0.3062  0.1528 -0.0383
    1SOL    HW1    2   2.798   2.386   1.065 -0.8950  0.1391  0.9240
    1SOL    HW2    3   2.797   2.464   0.913 -0.6523 -1.0265 -0.8841
    2SOL     OW    4   1.666   1.796   1.052  0.4673  1.0446 -0.0071
    2SOL    HW1    5   1.624   1.867   1.111  0.1157  0.1587 -0.9083
    2SOL    HW2    6   1.683   1.706   1.098  2.0504 -0.4919  4.3745
    3SOL     OW    7   1.260   2.638   3.052  0.3296  0.5878  0.1334
    3SOL    HW1    8   1.224   2.627   0.031  0.2921  1.3854  0.6027
    3SOL    HW2    9   1.241   2.730   3.018 -1.0458 -0.2749  1.1835
    4SOL     OW   10   1.857   1.889   1.745  0.1992  0.1868 -0.1582
    4SOL    HW1   11   1.902   1.919   1.831  1.3140 -1.5098 -0.3359
    4SOL    HW2   12   1.884   1.942   1.660  2.2338 -1.0852 -4.0636
    5SOL     OW   13   1.659   1.241   1.503  0.1611  0.6703  0.6104
    5SOL    HW1   14   1.704   1.330   1.499 -0.7674 -3.6886  1.9100
    5SOL    HW2   15   1.725   1.165   1.507 -0.4891 -0.4378 -2.1325
    6SOL     OW   16   2.513   0.021   0.139  0.6234 -0.2916 -0.7394
    6SOL    HW1   17   2.540   0.074   0.059  3.0721 -0.8643 -0.3253
    6SOL    HW2   18   2.411   0.001   0.141 -0.4647 -1.2948  1.3783
    7SOL     OW   19   2.676   1.491   1.433 -0.5444  0.9503 -0.1023
    7SOL    HW1   20   2.664   1.393   1.409  3.7701  5.3966 -2.2258
    7SOL    HW2   21   2.765   1.521   1.390  0.8513 -1.4315 -1.5666
    8SOL     OW   22   1.106   0.190   0.924  0.3639 -0.0208 -1.0907
    8SOL    HW1   23   1.112   0.171   1.025  1.4558 -1.3305  1.3787
    8SOL    HW2   24   1.180   0.253   0.893 -1.9913 -0.2649  3.7706
    9SOL     OW   25   1.644   0.117   2.547  0.0362  0.1980 -0.3300
    9SOL    HW1   26   1.645   0.219   2.558  0.7279  0.6445  0.0430
    9SOL    HW2   27   1.729   0.085   2.595  2.2984  0.0488 -0.6641
   10SOL     OW   28   0.711   1.918   0.507  0.3205 -0.0348 -0.0032
   10SOL    HW1   29   0.629   1.861   0.519  0.3561  0.8053  0.2175
   10SOL    HW2   30   0.793   1.855   0.517  1.7806 -0.3952 -1.8474
   11SOL     OW   31   1.370   1.219   0.198 -0.0789  0.6561  0.3073
   11SOL    HW1   32   1.311   1.253   0.272  0.0513 -0.3103 -1.0216
   11SOL    HW2   33   1.451   1.284   0.195 -0.6301  0.4418 -0.4133
   12SOL     OW   34   2.961   0.061   1.712  0.4023  0.0004 -0.0019
   12SOL    HW1   35   2.867   0.098   1.715 -0.1827 -0.4586 -2.4974
   12SOL    HW2   36   2.973   0.019   1.619  0.9260  0.4498 -0.7082
   13SOL     OW   37   1.434   0.231   0.441 -0.2755  0.4010 -0.4024
   13SOL    HW1   38   1.393   0.307   0.499  0.5966 -0.8926  0.4183
   13SOL    HW2   39   1.522   0.195   0.479  0.7536 -1.2992 -0.6441
   14SOL     OW   40   1.312   2.489   1.242  0.2852 -0.0887  0.1321
   14SOL    HW1   41   1.287   2.587   1.238  1.4584 -2.6159 -1.9891
   14SOL    HW2   42   1.408   2.470   1.236 -0.9353  0.5522  0.9530
   15SOL     OW   43   2.541   1.243   1.620  0.4982  0.2235  0.5190
   15SOL    HW1   44   2.566   1.252   1.521  0.0041  1.7002 -0.1568
   15SOL    HW2   45   2.615   1.301   1.667  1.7840  0.1869  0.6861
   16SOL     OW   46   2.079   2.674   0.302  0.0567 -1.0232  0.3543
   16SOL    HW1   47   2.121   2.756   0.344 -0.1148  2.0883  0.5072
   16SOL    HW2   48   1.979   2.674   0.318 -0.3328 -0.2470 -1.8093
   17SOL     OW   49   0.981   0.119   1.326 -0.0193 -1.1580  0.1587
   17SOL    HW1   50   0.977   0.219   1.335 -0.8145 -0.1168 -3.4332
   17SOL    HW2   51   0.906   0.071   1.375  3.1335 -1.6804 -0.6894
   18SOL     OW   52   1.614   0.648   2.679 -0.4556  0.5797  0.3116
   18SOL    HW1   53   1.648   0.628   2.776  0.4243 -1.4942  3.4338
   18SOL    HW2   54   1.674   0.711   2.633 -0.7951 -1.8892  1.9410
   19SOL     OW   55   1.782   1.953   0.205  0.0261 -0.7216 -0.2483
   19SOL    HW1   56   1.865   1.914   0.162 -0.3902  0.2991  1.2131
   19SOL    HW2   57   1.784   2.055   0.202  2.0639  0.1016  0.9418
   20SOL     OW   58   2.122   2.242   1.758  0.1137  0.0467 -0.7955
   20SOL    HW1   59   2.167   2.163   1.797 -2.9718 -0.0169 -0.8229
   20SOL    HW2   60   2.059   2.282   1.829  1.8577 -2.4812  2.1451
   21SOL     OW   61   0.964   1.767   3.103 -0.2173 -0.1156  0.3628
   21SOL    HW1   62   1.034   1.735   0.051 -2.0773  0.0978  3.5703
   21SOL    HW2   63   0.897   1.822   0.037 -0.5388 -1.2748 -1.8784
   22SOL     OW   64   2.081   2.906   1.428  0.3772 -0.5638 -0.2125
   22SOL    HW1   65   2.107   3.010   1.435  1.9018  4.5562  2.6191
   22SOL    HW2   66   2.031   2.887   1.515  1.4996 -1.9534  0.2651
   23SOL     OW   67   2.892   0.833   1.965  0.1653 -0.4561 -0.2022
   23SOL    HW1   68   2.813   0.869   1.912  0.4517  0.6195 -1.0659
   23SOL    HW2   69   2.864   0.810   2.059 -0.3458  0.5524 -0.3489
   24SOL     OW   70   2.240   2.581   0.808  0.6617 -0.4265 -0.3436
   24SOL    HW1   71   2.200   2.495   0.773 -0.0074 -0.4793  0.2395
   24SOL    HW2   72   2.239   2.578   0.908  1.2546 -0.7645  2.6897
   25SOL     OW   73   1.097   2.703   2.736  0.9645  0.1211 -0.8463
   25SOL    HW1   74   1.194   2.677   2.730  1.1094  0.5578  2.3069
   25SOL    HW2   75   1.084   2.802   2.716  1.7818 -1.9708  0.0291
   26SOL     OW   76   2.055   2.708   3.026 -0.2739  0.5973 -0.0482
   26SOL    HW1   77   1.985   2.775   2.993  3.0253  1.1492 -0.3648
   26SOL    HW2   78   2.010   2.643   3.092 -0.2408 -1.3983  3.0613
   27SOL     OW   79   3.025   1.995   2.949  0.1889  0.1481  0.1315
   27SOL    HW1   80   2.924   2.005   2.929  0.7862  2.0571  2.5494
   27SOL    HW2   81   3.075   1.955   2.865  3.2197 -1.2020 -2.7830
   28SOL     OW   82   2.950   0.921   1.496  0.2781  0.6614  0.4235
   28SOL    HW1   83   2.859   0.938   1.536  0.8803 -0.2866 -2.4418
   28SOL    HW2   84   2.995   1.008   1.474  0.9098 -0.6765  0.9274
   29SOL     OW   85   2.447   2.393   1.400  0.1593 -0.4754  0.5968
   29SOL    HW1   86   2.415   2.479   1.438  0.0913 -2.4348 -0.1802
   29SOL    HW2   87   2.542   2.413   1.373  0.0851  0.3010  1.8214
   30SOL     OW   88   1.546   0.577   0.025 -0.4167  0.3415 -0.4129
   30SOL    HW1   89   1.490   0.491   0.024  0.0869  0.5242  0.1411
   30SOL    HW2   90   1.576   0.597   0.120 -0.7113  3.1562 -0.4117
   31SOL     OW   91   2.780   2.808   1.619  0.4702 -0.1462  0.5817
   31SOL    HW1   92   2.747   2.825   1.525  0.6089 -0.5897 -0.3823
   31SOL    HW2   93   2.852   2.735   1.613  1.5761 -1.6052 -0.1828
   32SOL     OW   94   0.720   1.712   1.399 -0.6758 -0.1921  0.4367
   32SOL    HW1   95   0.803   1.763   1.362  3.2373  1.9543  0.4744
   32SOL    HW2   96   0.699   1.626   1.351  1.0171  0.8534 -0.9818
   33SOL     OW   97   0.544   2.728   2.353  0.0734 -0.0785 -0.8300
   33SOL    HW1   98   0.644   2.709   2.374 -0.6677 -0.2449  0.9655
   33SOL    HW2   99   0.521   2.826   2.371 -0.4705  2.3623  2.3303
   34SOL     OW  100   1.484   0.040   0.841  0.3476 -0.0794  0.0644
   34SOL    HW1  101   1.502   3.103   0.928 -0.4018 -0.4778  0.7471
   34SOL    HW2  102   1.481   3.088   0.760 -0.6633 -1.1678  0.2526
   35SOL     OW  103   2.182   3.001   1.033 -0.0132  1.0278  0.5758
   35SOL    HW1  104   2.085   3.028   1.024  3.1099  0.5886 -0.0955
   35SOL    HW2  105   2.231   3.068   1.091  0.6994  0.1132  0.5136
   36SOL     OW  106   1.930   2.646   2.349 -0.4162  0.1654 -0.5202
   36SOL    HW1  107   1.832   2.633   2.374 -0.8373  0.2186 -0.9715
   36SOL    HW2  108   1.983   2.646   2.437  0.3164 -0.4058 -0.9661
   37SOL     OW  109   0.661   3.108   2.264  0.3246  0.0732  0.0971
   37SOL    HW1  110   0.708   3.045   2.200  0.7366 -1.7569  1.2889
   37SOL    HW2  111   0.606   3.047   2.332 -0.9397 -2.1468  2.0519
   38SOL     OW  112   0.135   2.639   2.538 -0.1742  0.0318 -0.0047
   38SOL    HW1  113   0.235   2.638   2.551 -0.4545 -0.4957 -1.4270
   38SOL    HW2  114   0.111   2.686   2.450 -0.6180 -0.9238  1.8364
   39SOL     OW  115   2.410   1.393   2.161  0.1725 -0.0850  0.2786
   39SOL    HW1  116   2.358   1.396   2.073 -1.4843  2.0404  0.1500
   39SOL    HW2  117   2.425   1.490   2.191  0.5129 -3.4046 -1.5384
   40SOL     OW  118   0.803   2.815   0.010 -0.4035 -0.2083 -0.0416
   40SOL    HW1  119   0.849   2.745   0.069  1.0388 -0.1394  0.3531
   40SOL    HW2  120   0.822   2.901   0.061  1.2085  1.1060  2.8627
   41SOL     OW  121   2.162   1.006   1.096 -0.1145 -0.1220  0.0879
   41SOL    HW1  122   2.259   1.006   1.134  2.8165 -1.8252  2.8344
   41SOL    HW2  123   2.170   1.031   0.997  1.0548 -0.5026 -2.7171
   42SOL     OW  124   0.636   0.614   1.106  0.1154  0.0609  0.4531
   42SOL    HW1  125   0.647   0.612   1.003  3.8060  1.2925 -0.5315
   42SOL    HW2  126   0.636   0.711   1.136  0.6284 -1.6888 -1.0220
   43SOL     OW  127   2.087   1.370   2.748 -0.4827  0.0103  0.2768
   43SOL    HW1  128   2.182   1.411   2.770 -0.1203  0.6034  0.5955
   43SOL    HW2  129   2.052   1.409   2.661 -0.4496 -2.5728  1.7751
   44SOL     OW  130   0.081   2.824   0.903  0.3922  0.4183 -0.1176
   44SOL    HW1  131   0.103   2.843   0.805 -1.7139 -0.8075  1.3889
   44SOL    HW2  132   0.160   2.812   0.969  0.5466 -2.9936 -0.9897
   45SOL     OW  133   0.114   2.605   1.183 -1.1299  0.1530 -0.6899
   45SOL    HW1  134   0.165   2.687   1.153 -1.7870 -0.7427 -0.2918
   45SOL    HW2  135   0.045   2.581   1.108 -1.9057  2.0952 -2.1699
   46SOL     OW  136   2.333   2.747   2.645 -0.1400 -0.1610 -0.0300
   46SOL    HW1  137   2.368   2.696   2.567 -0.1918  1.2929  2.8050
   46SOL    HW2  138   2.408   2.808   2.681 -0.1160  0.4411  1.3184
   47SOL     OW  139   1.909   1.945   1.086 -0.3404  0.3070  0.1818
   47SOL    HW1  140   1.989   1.904   1.036 -0.6403  0.3753 -1.0599
   47SOL    HW2  141   1.826   1.893   1.061  1.5252 -3.5790 -3.9921
   48SOL     OW  142   0.753   1.655   0.297  0.1708 -0.3362 -0.1013
   48SOL    HW1  143   0.768   1.754   0.268 -0.0884  1.1705  1.2783
   48SOL    HW2  144   0.706   1.605   0.224 -0.7310 -0.7821  2.3837
   49SOL     OW  145   2.931   0.140   2.763 -0.0253 -0.2136 -0.4437
   49SOL    HW1  146   2.950   0.085   2.847  1.4328  0.7129  0.5632
   49SOL    HW2  147   2.913   0.083   2.680 -0.9204  1.0351 -0.1388
   50SOL     OW  148   2.010   0.720   0.310 -0.1971 -0.8684  0.6444
   50SOL    HW1  149   1.966   0.806   0.287 -0.9570  1.3617  0.8149
   50SOL    HW2  150   1.942   0.653   0.340  2.5447  1.0864  0.2669
   51SOL     OW  151   2.360   0.799   0.846 -0.1821 -0.1871 -0.0419
   51SOL    HW1  152   2.423   0.880   0.844  0.4061  1.9299  0.3700
   51SOL    HW2  153   2.300   0.802   0.764  2.4755  1.1814  2.3962
   52SOL     OW  154   1.494   1.310   2.379 -0.3371  0.1449  0.3550
   52SOL    HW1  155   1.515   1.247   2.297  2.1166  0.1392 -2.2049
   52SOL    HW2  156   1.517   1.263   2.465 -1.2175 -2.8995  1.4044
   53SOL     OW  157   0.622   1.838   2.145  0.1075  0.4854  0.4347
   53SOL    HW1  158   0.721   1.850   2.133  1.7943  0.5162 -2.1549
   53SOL    HW2  159   0.601   1.800   2.240 -0.7437 -2.0281 -0.2857
   54SOL     OW  160   2.234   0.366   1.086  0.1117 -0.3876  0.3455
   54SOL    HW1  161   2.234   0.301   1.010  0.5567  0.5482  2.6008
   54SOL    HW2  162   2.227   0.453   1.042 -1.7887 -2.8111  0.5114
   55SOL     OW  163   2.617   2.257   0.976 -0.9222 -0.1960  0.2250
   55SOL    HW1  164   2.571   2.168   0.987 -0.9593 -1.4267  0.9420
   55SOL    HW2  165   2.620   2.295   0.882 -1.1823  1.3839  0.5443
   56SOL     OW  166   1.154   2.960   1.673 -0.1783  0.0945 -0.5147
   56SOL    HW1  167   1.185   2.989   1.767 -1.6683  0.5755  0.5362
   56SOL    HW2  168   1.156   3.048   1.621  1.3960  1.3080  1.4533
   57SOL     OW  169   1.424   1.656   0.233  0.1791  0.3262 -0.0972
   57SOL    HW1  170   1.442   1.678   0.330 -0.0596  0.0728 -2.0445
   57SOL    HW2  171   1.484   1.715   0.174 -1.4166  2.1199  0.1199
   58SOL     OW  172   3.071   0.869   2.522 -0.5026  0.0524  0.4304
   58SOL    HW1  173   0.054   0.891   2.515 -0.6771 -0.6966 -3.1912
   58SOL    HW2  174   3.047   0.780   2.472 -1.8978 -1.9568 -0.6361
   59SOL     OW  175   0.734   2.860   2.695 -0.0788  0.4751 -0.0614
   59SOL    HW1  176   0.774   2.894   2.780 -2.0028 -0.4661  1.0947
   59SOL    HW2  177   0.788   2.785   2.654 -0.3896  1.0454 -3.7908
   60SOL     OW  178   2.655   2.260   0.468  0.0473  0.2445 -0.3041
   60SOL    HW1  179   2.669   2.235   0.368 -0.2194 -1.8502 -0.6031
   60SOL    HW2  180   2.708   2.343   0.496 -0.5002  1.4352 -1.1561
   61SOL     OW  181   1.310   2.160   0.500  0.2411  0.0627  0.4491
   61SOL    HW1  182   1.218   2.176   0.534  1.4418 -0.6457 -0.4393
   61SOL    HW2  183   1.371   2.237   0.518  0.7270 -0.5890 -2.1099
   62SOL     OW  184   2.154   2.134   2.615  0.0146 -0.2348 -0.1751
   62SOL    HW1  185   2.188   2.041   2.640 -2.2164  3.3732  0.9684
   62SOL    HW2  186   2.100   2.121   2.530  2.2081  1.2384  0.3248
   63SOL     OW  187   2.316   2.743   0.049 -0.2300  0.2513 -0.3406
   63SOL    HW1  188   2.217   2.730   0.018 -3.5347 -1.4981 -1.9197
   63SOL    HW2  189   2.347   2.830   0.004 -3.0096  0.4203  0.9616
   64SOL     OW  190   1.729   1.045   2.543  0.4814 -0.1327 -0.0150
   64SOL    HW1  191   1.791   1.093   2.472  2.5399 -0.8153  0.8692
   64SOL    HW2  192   1.766   0.952   2.551 -0.0355  1.4173 -2.1816
   65SOL     OW  193   1.297   2.362   2.970  0.1537  0.1982 -0.4346
   65SOL    HW1  194   1.331   2.342   2.876 -1.8829 -0.9190  1.1292
   65SOL    HW2  195   1.275   2.461   2.981  0.5182 -1.6988 -0.9959
   66SOL     OW  196   0.190   1.290   1.959 -0.5660  0.3927  0.8622
   66SOL    HW1  197   0.290   1.316   1.968  0.9319  0.1214 -0.9267
   66SOL    HW2  198   0.177   1.213   1.892 -1.7543 -0.6343 -0.1108
   67SOL     OW  199   2.976   2.694   2.857  0.5349 -0.3691  0.2450
   67SOL    HW1  200   2.887   2.657   2.824  0.6371 -1.0580  1.6754
   67SOL    HW2  201   2.999   2.774   2.797 -0.9529 -1.3994  0.8378
   68SOL     OW  202   0.859   2.498   1.515 -0.5775  0.5011  0.2197
   68SOL    HW1  203   0.921   2.489   1.597  0.0691 -1.0404 -3.4114
   68SOL    HW2  204   0.861   2.594   1.478 -0.5612  2.7795 -2.5754
   69SOL     OW  205   0.607   2.148   0.381 -0.3142  0.5447 -0.1492
   69SOL    HW1  206   0.619   2.221   0.448 -0.9207  1.0946 -1.2083
   69SOL    HW2  207   0.620   2.058   0.428  2.1424  0.5723  1.0948
   70SOL     OW  208   2.639   0.912   2.573 -0.4377  0.7837 -0.5879
   70SOL    HW1  209   2.735   0.941   2.591  0.3778  0.0638  0.4442
   70SOL    HW2  210   2.647   0.810   2.566  3.6415 -0.5736 -0.0506
   71SOL     OW  211   0.588   1.135   2.463 -0.0704  0.1193 -0.0495
   71SOL    HW1  212   0.575   1.037   2.436 -0.0195  0.3479  0.3209
   71SOL    HW2  213   0.561   1.204   2.391 -2.2142 -0.6132 -0.3441
   72SOL     OW  214   0.357   1.933   0.679  0.2236  0.3977  0.4421
   72SOL    HW1  215   0.391   1.870   0.606 -0.2204 -0.7467  3.9864
   72SOL    HW2  216   0.258   1.918   0.694 -0.0087 -0.4783 -0.2522
   73SOL     OW  217   1.050   1.579   0.352  0.2007 -0.3507 -0.2360
   73SOL    HW1  218   0.948   1.586   0.363 -1.4846  0.4553  1.4081
   73SOL    HW2  219   1.099   1.609   0.437 -0.1698  1.9746 -0.8834
   74SOL     OW  220   2.667   2.966   0.252  0.3237 -0.6402 -0.1500
   74SOL    HW1  221   2.598   2.903   0.287 -0.5840 -1.4710  0.3317
   74SOL    HW2  222   2.617   3.032   0.188  2.2105  0.1875  0.9359
   75SOL     OW  223   2.354   1.702   2.110 -0.0049 -0.4364 -0.3065
   75SOL    HW1  224   2.260   1.697   2.138 -0.0550  0.5710  0.3412
   75SOL    HW2  225   2.373   1.698   2.009  1.0501  2.9885 -0.4512
   76SOL     OW  226   1.800   2.488   1.538  0.1429  0.2317 -0.0796
   76SOL    HW1  227   1.766   2.573   1.579  0.8851  2.6221 -0.6232
   76SOL    HW2  228   1.841   2.494   1.448  0.1513 -0.5399  0.7178
   77SOL     OW  229   2.518   0.288   1.474 -0.2649  0.0099  0.0383
   77SOL    HW1  230   2.470   0.271   1.565 -1.5541  1.3304  0.2884
   77SOL    HW2  231   2.612   0.323   1.493  1.3976 -0.4654  0.7637
   78SOL     OW  232   1.976   0.965   2.782 -0.2090 -0.4235 -0.3531
   78SOL    HW1  233   2.052   1.006   2.838  0.3989  2.5246 -2.2140
   78SOL    HW2  234   1.898   1.029   2.771  1.4168 -3.1417 -1.7971
   79SOL     OW  235   0.070   1.540   2.087 -0.1865  0.2004 -0.6132
   79SOL    HW1  236   0.085   1.450   2.045 -0.0276  1.7947  1.6655
   79SOL    HW2  237   0.039   1.604   2.013 -1.3126 -3.1593  1.8260
   80SOL     OW  238   2.091   1.129   1.405  0.3269  0.1203 -0.2479
   80SOL    HW1  239   2.171   1.071   1.392 -1.4914 -2.3377 -2.3672
   80SOL    HW2  240   2.064   1.174   1.314 -1.0991  2.7875 -1.9508
   81SOL     OW  241   1.384   0.600   1.617  0.3276  0.0746  0.7619
   81SOL    HW1  242   1.437   0.686   1.637  0.8969  0.1228  0.2877
   81SOL    HW2  243   1.358   0.597   1.517 -1.4864 -1.3587 -1.2636
   82SOL     OW  244   1.362   2.464   1.765 -0.1457 -0.6886  0.3319
   82SOL    HW1  245   1.405   2.532   1.699 -0.2455 -0.6878  0.9079
   82SOL    HW2  246   1.424   2.384   1.780  1.8241 -1.2614  0.2477
   83SOL     OW  247   0.495   3.071   0.602  0.5036  0.3618  0.4532
   83SOL    HW1  248   0.502   3.023   0.691  1.2210 -1.3364  0.2277
   83SOL    HW2  249   0.396   3.096   0.579 -2.4517 -0.4518  0.9960
   84SOL     OW  250   0.195   0.951   2.870 -0.0457  0.0934 -0.4482
   84SOL    HW1  251   0.283   0.962   2.819  1.6548 -0.1313 -1.3335
   84SOL    HW2  252   0.131   1.033   2.871 -0.0643 -0.3391 -0.6234
   85SOL     OW  253   2.672   2.277   1.769 -0.5131  0.0753  0.6916
   85SOL    HW1  254   2.757   2.314   1.734 -0.0091 -0.9124 -1.1185
   85SOL    HW2  255   2.606   2.352   1.779 -1.3668 -1.6755 -0.1589
   86SOL     OW  256   2.866   2.380   1.612  0.1563 -0.4332  0.0393
   86SOL    HW1  257   2.911   2.474   1.623  0.5409  0.7329 -1.8196
   86SOL    HW2  258   2.833   2.366   1.517  3.0019  0.0285  1.7508
   87SOL     OW  259   0.500   2.820   0.221 -0.1091  0.4865 -0.5628
   87SOL    HW1  260   0.550   2.737   0.251  0.8508  0.3728 -0.2451
   87SOL    HW2  261   0.463   2.803   0.131  1.3907  0.1826 -1.0993
   88SOL     OW  262   0.214   1.968   1.160 -0.1577  0.3847 -0.1935
   88SOL    HW1  263   0.147   2.008   1.091  0.4855  0.6789 -1.6657
   88SOL    HW2  264   0.304   2.009   1.151  0.2703 -1.5796 -0.7117
   89SOL     OW  265   1.003   0.782   1.513 -0.0603  0.1420 -0.4253
   89SOL    HW1  266   1.092   0.828   1.503  0.1290  0.7737 -0.3452
   89SOL    HW2  267   1.013   0.687   1.552  3.2047  1.9133  0.5771
   90SOL     OW  268   2.685   1.637   1.797 -0.2581  0.5507 -0.3072
   90SOL    HW1  269   2.706   1.536   1.780  0.5317  0.0946  0.7255
   90SOL    HW2  270   2.635   1.674   1.716 -0.1202  1.7261 -1.9176
   91SOL     OW  271   1.363   1.687   0.854 -0.3979  0.2904  0.3202
   91SOL    HW1  272   1.289   1.752   0.865  2.7537 -2.6009  0.3670
   91SOL    HW2  273   1.397   1.650   0.946 -2.0974  0.0356 -1.7650
   92SOL     OW  274   2.204   0.650   1.016  0.0466  0.2118 -0.5148
   92SOL    HW1  275   2.269   0.717   0.974 -1.9947  3.8615  0.6869
   92SOL    HW2  276   2.199   0.674   1.113 -0.1178  0.5225 -2.8780
   93SOL     OW  277   2.244   1.381   0.206  0.2481 -0.1712 -0.5579
   93SOL    HW1  278   2.228   1.289   0.240  2.2848  1.0817 -0.3262
   93SOL    HW2  279   2.146   1.421   0.202  0.1629  0.9920 -0.3916
   94SOL     OW  280   2.413   2.043   2.238 -0.4036 -0.4212 -0.0035
   94SOL    HW1  281   2.513   2.020   2.249  2.8669  0.3412 -2.1014
   94SOL    HW2  282   2.404   2.098   2.156  1.2325  0.3091  3.1045
   95SOL     OW  283   1.944   0.565   0.954 -0.3146  0.3927  0.4739
   95SOL    HW1  284   2.032   0.610   0.973 -0.3968 -1.3170 -0.4489
   95SOL    HW2  285   1.948   0.465   0.979 -1.5270 -2.4089 -2.5870
   96SOL     OW  286   2.888   3.085   1.468 -0.3974 -0.0636  0.2930
   96SOL    HW1  287   2.836   3.005   1.433  0.1415 -2.1414  1.3218
   96SOL    HW2  288   2.864   0.054   1.419 -0.0694 -1.7681  0.6629
   97SOL     OW  289   2.298   0.095   1.185 -0.1997 -0.5570 -0.0980
   97SOL    HW1  290   2.254   0.182   1.156  0.0230 -1.7378  2.4617
   97SOL    HW2  291   2.395   0.115   1.205  0.7273  1.2762  0.1074
   98SOL     OW  292   1.543   2.270   1.459  0.1739  0.2873 -0.0446
   98SOL    HW1  293   1.552   2.308   1.367 -1.3891 -0.7736  0.3345
   98SOL    HW2  294   1.603   2.320   1.527 -0.9707 -0.5768 -1.7707
   99SOL     OW  295   2.636   2.903   1.810 -0.4854  0.1007  0.3153
   99SOL    HW1  296   2.653   2.878   1.905 -0.2010 -0.9871 -1.2004
   99SOL    HW2  297   2.690   2.847   1.747 -1.3791  1.4848  3.0928
  100SOL     OW  298   0.421   0.894   2.718 -0.0237  0.2093 -0.0907
  100SOL    HW1  299   0.484   0.931   2.786  1.5597  0.0747 -0.4805
  100SOL    HW2  300   0.433   0.793   2.708  0.5618  1.2042  1.0269
  101SOL     OW  301   1.962   0.756   2.990 -0.2886 -0.6857  0.0754
  101SOL    HW1  302   1.979   0.736   2.891  3.5312  2.9522  0.2325
  101SOL    HW2  303   2.026   0.705   3.049  0.6732  1.0258 -0.1039
  102SOL     OW  304   0.249   0.489   1.566  0.0577  0.3533 -0.6971
  102SOL    HW1  305   0.222   0.480   1.663  1.5368 -2.2878 -2.2609
  102SOL    HW2  306   0.292   0.397   1.546 -0.7151  0.0242 -1.0546
  103SOL     OW  307   2.782   1.132   2.375 -0.8610  0.3183 -0.1546
  103SOL    HW1  308   2.777   1.235   2.376  0.2803  0.1722 -2.1007
  103SOL    HW2  309   2.751   1.097   2.288  0.1407 -0.1258 -0.7152
  104SOL     OW  310   0.355   0.334   2.662  0.2412  0.1237 -0.0555
  104SOL    HW1  311   0.447   0.371   2.651  0.2777  1.9842 -1.8778
  104SOL    HW2  312   0.284   0.405   2.683 -2.3668  2.3948  3.2461
  105SOL     OW  313   2.001   1.504   1.240  0.2907  0.7447 -0.0823
  105SOL    HW1  314   2.004   1.406   1.202 -1.7234 -1.9331 -3.7638
  105SOL    HW2  315   1.943   1.517   1.323 -1.0081 -2.7758  1.4103
  106SOL     OW  316   1.971   0.202   0.542 -0.3912  0.1967 -0.1441
  106SOL    HW1  317   2.069   0.173   0.556 -1.0901  0.7152 -1.2259
  106SOL    HW2  318   1.940   0.270   0.608  1.1710  0.6586  1.7481
  107SOL     OW  319   0.132   1.523   1.465 -0.0379  0.6388  0.1480
  107SOL    HW1  320   0.217   1.525   1.402  4.6202  0.6159 -3.4869
  107SOL    HW2  321   0.071   1.599   1.439  2.5427 -0.5744 -0.5849
  108SOL     OW  322   3.022   2.699   2.104 -0.5633 -0.0749  0.3313
  108SOL    HW1  323   3.067   2.750   2.028 -1.3367 -1.3987  0.0922
  108SOL    HW2  324   3.052   2.601   2.119  0.5288  2.1776  0.8507
  109SOL     OW  325   1.688   0.121   0.564  0.2151 -0.2691 -0.2382
  109SOL    HW1  326   1.787   0.117   0.537 -2.4697  1.4370 -0.9820
  109SOL    HW2  327   1.654   0.038   0.610  1.1529  1.7056  1.9196
  110SOL     OW  328   0.374   2.193   2.311 -0.1918 -0.5023  0.1760
  110SOL    HW1  329   0.320   2.223   2.390 -0.8566  1.7784  0.1232
  110SOL    HW2  330   0.356   2.095   2.286 -0.8547 -3.2188  2.9089
  111SOL     OW  331   1.648   2.394   2.103  0.1815 -0.4534  0.0701
  111SOL    HW1  332   1.731   2.346   2.138 -0.3931  0.7998 -0.4637
  111SOL    HW2  333   1.575   2.383   2.167  0.6831  1.2173 -0.2436
  112SOL     OW  334   1.527   2.750   3.075 -0.1191 -0.0978  0.5722
  112SOL    HW1  335   1.502   2.679   0.031  1.5813  0.9175 -0.7565
  112SOL    HW2  336   1.537   2.707   2.981  1.3907 -0.8105 -0.7759
  113SOL     OW  337   1.967   2.426   1.295 -0.6779 -0.0227  0.3814
  113SOL    HW1  338   1.925   2.369   1.218  1.1989 -1.4832 -3.6717
  113SOL    HW2  339   1.958   2.526   1.281  0.4068  1.1533 -2.8593
  114SOL     OW  340   2.934   0.946   0.768 -0.1497  0.0393 -0.1223
  114SOL    HW1  341   2.883   1.022   0.810 -2.3063  3.2826  1.4434
  114SOL    HW2  342   2.921   0.856   0.817  0.1383  0.4417  0.8013
  115SOL     OW  343   0.600   0.986   2.924 -1.0050 -0.0477  0.1081
  115SOL    HW1  344   0.558   1.071   2.959 -0.8309  2.1849 -3.7987
  115SOL    HW2  345   0.605   0.910   2.996  1.0810 -0.6598 -2.2197
  116SOL     OW  346   2.829   1.567   2.185  0.1322 -0.2480  0.3888
  116SOL    HW1  347   2.865   1.497   2.121  1.7398 -0.0796 -2.9901
  116SOL    HW2  348   2.884   1.645   2.178  0.8500 -2.4892  2.8582
  117SOL     OW  349   2.932   3.058   0.726  0.2111 -0.0489  1.0973
  117SOL    HW1  350   3.017   3.089   0.684 -0.9531 -0.6558 -1.9432
  117SOL    HW2  351   2.853   3.050   0.663 -0.5270 -2.9348  1.8674
  118SOL     OW  352   1.152   2.035   1.572  0.5338  0.0773 -0.1552
  118SOL    HW1  353   1.229   1.976   1.597 -1.3599 -0.3828  1.2048
  118SOL    HW2  354   1.190   2.125   1.544 -0.7808  1.4190  1.0412
  119SOL     OW  355   0.498   2.384   2.703  0.0104  0.2744 -0.6035
  119SOL    HW1  356   0.527   2.405   2.801 -1.0067  0.5280 -0.5140
  119SOL    HW2  357   0.415   2.328   2.712 -0.6975 -0.4300 -1.6220
  120SOL     OW  358   0.750   0.744   3.036 -0.0937 -0.3995  0.1255
  120SOL    HW1  359   0.739   0.678   2.955  1.5903 -5.9563 -2.0497
  120SOL    HW2  360   0.826   0.816   3.025 -2.2057  0.3237 -2.9901
  121SOL     OW  361   1.592   2.837   1.066 -0.0268  0.3387 -0.2377
  121SOL    HW1  362   1.629   2.762   1.125  0.2930  0.2363 -2.0932
  121SOL    HW2  363   1.586   2.813   0.966  3.4241  0.8585  0.1362
  122SOL     OW  364   2.224   2.500   1.731  0.6095 -0.0885 -0.4695
  122SOL    HW1  365   2.248   2.540   1.638  1.1374 -0.0975 -1.9735
  122SOL    HW2  366   2.192   2.406   1.714  0.7893  0.9746 -4.3914
  123SOL     OW  367   0.500   2.706   0.730  0.0085 -0.4653  0.1689
  123SOL    HW1  368   0.495   2.795   0.783  0.6773  1.0009  0.8226
  123SOL    HW2  369   0.410   2.665   0.711  2.2151  1.0074 -1.2949
  124SOL     OW  370   2.343   1.471   2.808 -0.0223  0.5841 -0.4405
  124SOL    HW1  371   2.402   1.393   2.782 -0.0290 -2.2192  0.1765
  124SOL    HW2  372   2.357   1.496   2.907 -1.1004  0.4504 -0.6857
  125SOL     OW  373   0.840   1.047   0.532  0.2852  0.4183 -0.3306
  125SOL    HW1  374   0.825   1.141   0.557 -0.6950 -4.0819 -0.6412
  125SOL    HW2  375   0.906   1.030   0.453  1.7489  0.7049  3.0734
  126SOL     OW  376   2.666   1.669   0.877 -0.2614 -0.2345  0.6928
  126SOL    HW1  377   2.655   1.761   0.830 -3.0349  0.1564 -1.7124
  126SOL    HW2  378   2.728   1.606   0.828  0.0305  0.7490  2.9024
  127SOL     OW  379   0.001   2.097   1.906 -0.2058 -0.0484 -0.3530
  127SOL    HW1  380   0.091   2.060   1.877  1.5175 -1.5608 -1.8226
  127SOL    HW2  381   3.087   2.065   1.998  3.3804  0.3433  4.4790
  128SOL     OW  382   1.230   1.003   0.093  0.0418 -0.6252 -0.2519
  128SOL    HW1  383   1.281   0.923   0.062  0.2546  0.8333  0.9408
  128SOL    HW2  384   1.291   1.082   0.112 -2.7854 -1.5213  0.0867
  129SOL     OW  385   2.571   1.008   0.802 -0.0045  0.0566 -0.6101
  129SOL    HW1  386   2.553   1.108   0.795  0.7118 -1.4519 -0.2787
  129SOL    HW2  387   2.570   0.973   0.706  2.2075 -0.4096  1.1917
  130SOL     OW  388   2.347   0.885   1.415 -0.0337  0.2431  0.1797
  130SOL    HW1  389   2.431   0.833   1.450 -0.7881  0.4540  1.3171
  130SOL    HW2  390   2.369   0.952   1.340  1.6316  0.6469  2.7014
  131SOL     OW  391   3.058   2.627   3.109  0.4337  0.3642 -0.0153
  131SOL    HW1  392   3.053   2.688   3.028 -3.1180 -0.2397  1.7567
  131SOL    HW2  393   0.021   2.562   3.100 -1.8354 -0.2652 -1.3619
  132SOL     OW  394   2.954   2.130   1.696  0.0658  0.1434 -0.0600
  132SOL    HW1  395   2.937   2.231   1.694 -0.8677  1.9379  1.3256
  132SOL    HW2  396   3.020   2.104   1.774  1.0064 -0.4271  2.4192
  133SOL     OW  397   1.330   0.550   1.355 -0.3314 -0.6697  0.2967
  133SOL    HW1  398   1.411   0.488   1.353  0.9941 -0.0050 -2.6484
  133SOL    HW2  399   1.267   0.506   1.286  0.0902 -2.3434 -0.9560
  134SOL     OW  400   0.010   1.334   0.262  0.0142  0.1182  0.3581
  134SOL    HW1  401   3.025   1.315   0.251 -1.0888  0.4775 -0.3367
  134SOL    HW2  402   0.041   1.371   0.173 -0.0950 -3.0239 -1.2795
  135SOL     OW  403   2.284   1.213   1.749 -0.3441  0.3567 -0.5492
  135SOL    HW1  404   2.376   1.237   1.718 -2.6791  0.1651 -0.3669
  135SOL    HW2  405   2.251   1.285   1.817  1.9507  1.8444  2.0841
  136SOL     OW  406   0.054   0.946   0.554 -1.0081  0.0107 -0.1894
  136SOL    HW1  407   3.097   0.975   0.619 -1.2585 -0.9761 -2.0225
  136SOL    HW2  408   0.075   1.016   0.484  0.0972  1.9323  3.0560
  137SOL     OW  409   2.669   1.207   1.387  0.0790  0.1149  0.3190
  137SOL    HW1  410   2.660   1.178   1.290  0.7350 -2.1934 -0.3202
  137SOL    HW2  411   2.767   1.207   1.416 -0.2760 -2.8410  0.0846
  138SOL     OW  412   1.848   1.048   1.485  0.4986  0.1972 -0.2946
  138SOL    HW1  413   1.828   0.956   1.453 -3.7468  2.6369  1.3786
  138SOL    HW2  414   1.945   1.078   1.469 -1.6759  0.2836  1.5275
  139SOL     OW  415   1.977   3.064   0.194  0.1026  0.2817  0.1231
  139SOL    HW1  416   1.921   3.020   0.264  0.6788  0.7857  0.9056
  139SOL    HW2  417   1.933   3.083   0.105  3.0930  0.8536  2.1708
  140SOL     OW  418   1.317   2.137   1.861 -0.3412 -0.3876  0.3258
  140SOL    HW1  419   1.406   2.184   1.863 -0.7884  0.0810 -1.1208
  140SOL    HW2  420   1.302   2.071   1.787 -0.6095 -0.8263  0.2824
  141SOL     OW  421   1.655   2.265   0.633 -0.7585  0.2452 -0.0379
  141SOL    HW1  422   1.709   2.293   0.554 -0.6109 -0.6927  1.6973
  141SOL    HW2  423   1.631   2.165   0.623  0.3993 -0.5955  0.5477
  142SOL     OW  424   0.413   0.878   0.077  0.3781 -0.4144 -0.0339
  142SOL    HW1  425   0.412   0.843   0.171 -2.0558 -0.8364 -2.6192
  142SOL    HW2  426   0.338   0.834   0.028 -0.9319 -0.9017 -0.9904
  143SOL     OW  427   0.291   2.218   2.856 -0.7563 -0.7272 -0.5408
  143SOL    HW1  428   0.301   2.245   2.956  0.0666  1.4943  2.4004
  143SOL    HW2  429   0.200   2.234   2.812 -0.7265  1.8791  0.2393
  144SOL     OW  430   1.427   0.093   1.565  0.2361 -0.1198  0.1156
  144SOL    HW1  431   1.325   0.080   1.547 -5.3450 -0.8167 -0.6974
  144SOL    HW2  432   1.466   0.135   1.483 -3.0817  2.5670  2.2197
  145SOL     OW  433   2.360   1.285   0.599  0.4836 -0.2645  0.5952
  145SOL    HW1  434   2.415   1.327   0.526 -1.4176 -0.6097 -0.1511
  145SOL    HW2  435   2.417   1.271   0.680  0.8063 -0.6356 -5.5236
  146SOL     OW  436   2.541   2.230   0.149  0.5724 -0.1118  0.7595
  146SOL    HW1  437   2.533   2.171   0.065 -1.2012  3.1343 -0.1794
  146SOL    HW2  438   2.526   2.330   0.125 -1.7023 -0.1432  0.0920
  147SOL     OW  439   2.306   2.763   1.279  0.4526  0.4244 -0.2846
  147SOL    HW1  440   2.243   2.825   1.328  0.6198 -0.1482 -0.2934
  147SOL    HW2  441   2.395   2.806   1.252 -0.5295 -0.0736  1.4298
  148SOL     OW  442   1.468   2.826   1.872 -0.6243 -0.0700  0.1560
  148SOL    HW1  443   1.545   2.757   1.883 -2.1836  0.7272 -0.9730
  148SOL    HW2  444   1.378   2.797   1.911  1.4935  1.3667 -0.5927
  149SOL     OW  445   1.434   0.374   2.403  0.4317 -0.3052  0.1279
  149SOL    HW1  446   1.519   0.427   2.393 -3.1741  1.0453  2.0716
  149SOL    HW2  447   1.426   0.350   2.504 -2.3775  1.5251  2.3094
  150SOL     OW  448   0.626   2.666   0.470  0.0116  0.8299 -0.5659
  150SOL    HW1  449   0.576   2.648   0.556  0.5738 -2.2009 -0.7211
  150SOL    HW2  450   0.583   2.617   0.387  0.1291 -5.7585 -1.3321
  151SOL     OW  451   0.074   1.509   0.023  0.2839  0.1197  0.1471
  151SOL    HW1  452   0.054   1.591   0.080 -1.9534 -1.1560  1.1295
  151SOL    HW2  453   0.064   1.535   3.041 -0.2198  1.1620 -0.3562
  152SOL     OW  454   0.022   0.111   0.645  0.1144 -0.0054  0.4098
  152SOL    HW1  455   0.085   0.045   0.600 -2.9419  1.7306  0.7250
  152SOL    HW2  456   3.081   0.152   0.575  1.5825  0.4103 -0.4573
  153SOL     OW  457   2.408   0.059   0.893  0.3372  0.1081  0.0128
  153SOL    HW1  458   2.347   3.107   0.941  0.3102 -1.7591 -1.3910
  153SOL    HW2  459   2.448   0.020   0.805  0.3622  0.8917 -0.7925
  154SOL     OW  460   1.118   0.299   1.737 -0.3415  0.0205  0.0844
  154SOL    HW1  461   1.066   0.272   1.819 -0.7993  1.7392 -4.0883
  154SOL    HW2  462   1.209   0.345   1.764  1.1202 -2.2155  1.3131
  155SOL     OW  463   2.614   1.192   1.110  0.0511 -0.7524  0.2082
  155SOL    HW1  464   2.678   1.135   1.051  2.3186 -0.3385 -2.9963
  155SOL    HW2  465   2.640   1.292   1.098 -3.0094  0.7791  2.0797
  156SOL     OW  466   2.787   2.179   0.221  0.1066 -0.0044  0.6118
  156SOL    HW1  467   2.851   2.250   0.184  0.1018  3.5704 -0.9097
  156SOL    HW2  468   2.687   2.183   0.183 -3.2775 -2.3950 -0.9320
  157SOL     OW  469   0.871   0.197   0.047  0.0344 -0.2295  0.0125
  157SOL    HW1  470   0.862   0.095   0.066  1.2752 -0.4459 -1.9302
  157SOL    HW2  471   0.794   0.253   0.083  1.8129  1.6257 -2.0221
  158SOL     OW  472   2.425   0.163   2.788  1.1551 -0.1025 -0.4516
  158SOL    HW1  473   2.511   0.167   2.734  0.0810 -0.8158 -1.0153
  158SOL    HW2  474   2.358   0.108   2.734  2.2562  1.1218 -0.1600
  159SOL     OW  475   0.474   0.081   0.036  0.3117  0.2960 -0.3167
  159SOL    HW1  476   0.494   0.141   0.111  1.2701 -1.9500 -1.5804
  159SOL    HW2  477   0.539   0.098   3.072  1.4725  2.2396 -0.4127
  160SOL     OW  478   1.133   1.935   2.994  0.6872 -0.1235  0.1791
  160SOL    HW1  479   1.074   2.014   2.957 -0.2437  0.9910  0.7615
  160SOL    HW2  480   1.084   1.846   3.008 -0.2382 -1.2528 -1.7749
  161SOL     OW  481   3.030   1.780   2.532  0.0691  0.2866 -0.2425
  161SOL    HW1  482   2.934   1.797   2.499 -0.7453 -0.0824 -0.3500
  161SOL    HW2  483   3.086   1.718   2.476 -1.6872 -1.2419 -0.4778
  162SOL     OW  484   0.234   2.347   1.213  0.6200  0.1687 -0.0546
  162SOL    HW1  485   0.330   2.377   1.229 -1.9739  1.4091  3.4732
  162SOL    HW2  486   0.182   2.435   1.209 -0.6674  1.7500 -1.2583
  163SOL     OW  487   2.145   0.271   2.849  0.0984 -0.8607 -0.1676
  163SOL    HW1  488   2.192   0.299   2.939  1.0275  0.0652  1.2058
  163SOL    HW2  489   2.210   0.216   2.800 -3.5800  3.5698 -0.9769
  164SOL     OW  490   2.830   1.515   0.707  0.1530  0.0195 -0.7281
  164SOL    HW1  491   2.796   1.509   0.612 -2.4391  0.3534  0.2462
  164SOL    HW2  492   2.888   1.433   0.735 -0.6591 -1.0669  1.8170
  165SOL     OW  493   0.165   3.110   2.029  0.5315  0.2964  0.2988
  165SOL    HW1  494   0.125   3.024   1.993  1.9107  0.0264  1.0540
  165SOL    HW2  495   0.140   0.072   1.969 -0.4547  0.9316 -0.2998
  166SOL     OW  496   2.245   0.773   0.619 -0.1080  0.4247 -0.0011
  166SOL    HW1  497   2.284   0.752   0.533 -3.7289 -2.9163  2.0218
  166SOL    HW2  498   2.147   0.770   0.609 -0.0212  0.6956 -2.7724
  167SOL     OW  499   0.562   0.634   0.531 -0.3634  0.5869 -0.6688
  167SOL    HW1  500   0.583   0.728   0.499  1.2573  0.9239  0.4896
  167SOL    HW2  501   0.464   0.609   0.526  0.6844  0.2224 -0.8401
  168SOL     OW  502   1.852   2.802   2.096  0.3887  0.1932  0.3933
  168SOL    HW1  503   1.877   2.744   2.177 -1.4238  0.8800 -2.3691
  168SOL    HW2  504   1.852   2.900   2.123 -0.6051 -0.8625  0.8474
  169SOL     OW  505   1.133   1.062   0.726  0.4020 -0.5398  0.4605
  169SOL    HW1  506   1.088   0.988   0.667 -1.4035 -2.5124 -0.6708
  169SOL    HW2  507   1.075   1.095   0.806  0.9661 -0.1717 -1.4501
  170SOL     OW  508   0.086   0.263   1.309 -0.5244 -0.6764  0.0506
  170SOL    HW1  509   0.092   0.231   1.403  0.2607 -1.2631  0.1276
  170SOL    HW2  510   0.050   0.358   1.302  0.5727 -0.1123 -0.0374
  171SOL     OW  511   0.940   2.803   1.722  0.1616 -0.1707 -0.1447
  171SOL    HW1  512   0.890   2.803   1.631  0.7713 -3.2071  2.0445
  171SOL    HW2  513   1.027   2.858   1.711  1.2092  2.0284 -0.2174
  172SOL     OW  514   0.353   2.319   1.545  0.4082  0.0473  0.1163
  172SOL    HW1  515   0.320   2.225   1.558  1.2139  0.8128  0.1208
  172SOL    HW2  516   0.449   2.317   1.512  1.1072 -2.3113 -2.0232
  173SOL     OW  517   1.385   0.816   2.648 -0.1181 -0.5001  0.3939
  173SOL    HW1  518   1.319   0.795   2.571  0.5503  2.4097  0.1425
  173SOL    HW2  519   1.471   0.761   2.638  2.4392  2.9457  0.7197
  174SOL     OW  520   1.834   0.029   3.097  0.1554 -0.1695  0.7501
  174SOL    HW1  521   1.771   0.086   0.040 -3.3554  0.9444  0.7413
  174SOL    HW2  522   1.851   0.077   3.007  2.5004  0.9104 -2.7092
  175SOL     OW  523   1.802   2.659   0.288 -0.5734 -0.0621 -0.4529
  175SOL    HW1  524   1.697   2.656   0.293  2.6637  1.0540  1.9883
  175SOL    HW2  525   1.829   2.624   0.198  2.3903  0.1623  0.3667
  176SOL     OW  526   1.509   0.008   2.881 -0.5533  0.2960 -0.1821
  176SOL    HW1  527   1.446   0.073   2.833  1.4444  2.2636 -0.2474
  176SOL    HW2  528   1.592   3.103   2.833 -1.9309  1.6729  3.7711
  177SOL     OW  529   1.161   1.631   0.591 -0.1764  0.3443 -0.0440
  177SOL    HW1  530   1.187   1.539   0.623 -3.3572 -3.1382 -0.9613
  177SOL    HW2  531   1.081   1.663   0.644 -1.4254 -0.7584 -3.5852
  178SOL     OW  532   2.871   2.300   2.415 -0.6454 -0.4735  0.2394
  178SOL    HW1  533   2.884   2.327   2.513 -2.0137  0.7018  1.4467
  178SOL    HW2  534   2.960   2.297   2.363  0.4630 -1.6813 -1.7245
  179SOL     OW  535   0.413   2.612   2.592  0.3613  0.0875 -0.0384
  179SOL    HW1  536   0.443   2.641   2.499 -0.8099 -0.4503 -1.3006
  179SOL    HW2  537   0.451   2.524   2.631  0.5270 -0.1838  0.3941
  180SOL     OW  538   1.574   1.828   0.788 -0.1377  0.2677 -0.0975
  180SOL    HW1  539   1.623   1.826   0.880  2.0133  1.9015  0.7363
  180SOL    HW2  540   1.494   1.771   0.797  2.2208 -1.6924  0.7448
  181SOL     OW  541   2.138   1.092   2.411  0.0962 -0.0116 -0.0452
  181SOL    HW1  542   2.161   1.036   2.493 -1.3382 -1.0127  1.4988
  181SOL    HW2  543   2.217   1.149   2.392 -0.7782  0.8791  0.3475
  182SOL     OW  544   2.902   2.841   2.502 -0.3984  0.3957  0.4398
  182SOL    HW1  545   2.818   2.845   2.445 -2.5921 -0.2791  1.0560
  182SOL    HW2  546   2.969   2.916   2.487  0.0068 -1.2870  1.3139
  183SOL     OW  547   1.241   0.542   2.301  0.2857 -0.0441  0.2634
  183SOL    HW1  548   1.299   0.468   2.343 -2.0402  0.5539 -0.9953
  183SOL    HW2  549   1.253   0.550   2.198 -0.3036  0.8540 -2.7117
  184SOL     OW  550   0.847   0.756   1.863 -0.1185 -0.4031  0.0684
  184SOL    HW1  551   0.870   0.836   1.803  0.5945 -2.9604 -0.2380
  184SOL    HW2  552   0.930   0.733   1.925  2.9683 -0.4995  2.5245
  185SOL     OW  553   1.926   1.110   0.632  0.1085 -0.2969 -0.4696
  185SOL    HW1  554   1.858   1.137   0.561  2.3732  0.2821  0.1883
  185SOL    HW2  555   2.020   1.121   0.591 -1.0458  0.1261 -1.7383
  186SOL     OW  556   0.056   2.218   2.721  0.1771 -0.1560  0.0412
  186SOL    HW1  557   0.063   2.120   2.696  0.5112  1.4620 -0.3126
  186SOL    HW2  558   3.076   2.249   2.731 -1.2158 -0.5689 -0.5474
  187SOL     OW  559   2.450   1.430   0.403  0.0196 -0.2016  0.6765
  187SOL    HW1  560   2.439   1.530   0.392 -0.9863 -1.2413  0.8656
  187SOL    HW2  561   2.421   1.382   0.317  1.1754  0.3254  1.2990
  188SOL     OW  562   0.182   1.715   1.080  0.0723 -0.3004 -0.9293
  188SOL    HW1  563   0.261   1.700   1.023  0.7870  1.0312  1.6123
  188SOL    HW2  564   0.190   1.812   1.125 -0.6265  2.8207 -0.0981
  189SOL     OW  565   2.371   0.419   0.330  0.4573  0.0482  0.0481
  189SOL    HW1  566   2.283   0.380   0.293 -2.7418  0.6242 -1.5109
  189SOL    HW2  567   2.445   0.350   0.322  0.5080 -0.4886 -3.1666
  190SOL     OW  568   1.198   1.630   2.120  1.1522 -0.2209  0.3868
  190SOL    HW1  569   1.189   1.727   2.135  2.8484 -1.1323  3.4296
  190SOL    HW2  570   1.106   1.586   2.113 -1.2075  0.5023 -0.4887
  191SOL     OW  571   2.708   0.308   1.714  0.3433  0.4991  0.4226
  191SOL    HW1  572   2.657   0.216   1.722 -3.1928  0.3855 -0.6712
  191SOL    HW2  573   2.779   0.317   1.786 -0.1437  0.0114  1.4135
  192SOL     OW  574   1.846   1.442   1.516  0.1333  0.1306  0.0787
  192SOL    HW1  575   1.915   1.374   1.551 -1.7411  1.9712  0.5926
  192SOL    HW2  576   1.869   1.538   1.542  0.4068 -1.6346 -2.2189
  193SOL     OW  577   1.094   0.819   0.579 -0.0893  0.3869  0.2731
  193SOL    HW1  578   1.017   0.755   0.555  0.9625  1.6013 -1.7615
  193SOL    HW2  579   1.158   0.763   0.640 -1.8422 -0.8049 -0.5123
  194SOL     OW  580   1.344   2.771   1.237 -0.0660  0.1678  0.0193
  194SOL    HW1  581   1.357   2.827   1.152  2.0970  1.9489 -2.3621
  194SOL    HW2  582   1.389   2.813   1.322 -3.5962  2.4591  0.1455
  195SOL     OW  583   2.263   0.247   0.044 -0.1482 -0.5629 -0.7679
  195SOL    HW1  584   2.359   0.259   0.009  3.4191 -0.6588  0.2257
  195SOL    HW2  585   2.242   0.153   0.077 -0.1210 -1.4896  0.4542
  196SOL     OW  586   0.617   2.379   1.461  0.6668  0.5372  0.2661
  196SOL    HW1  587   0.629   2.282   1.488  0.3086  0.8218 -0.5301
  196SOL    HW2  588   0.687   2.440   1.500 -3.1954  0.2893  0.7788
  197SOL     OW  589   0.638   2.355   0.580 -0.2307  1.0941  0.6952
  197SOL    HW1  590   0.679   2.351   0.669  0.6444 -0.9349  2.2259
  197SOL    HW2  591   0.543   2.398   0.574 -1.0941  2.5820 -2.0742
  198SOL     OW  592   0.736   0.849   0.685 -0.0226 -0.4749 -0.0310
  198SOL    HW1  593   0.704   0.893   0.775 -1.6617 -1.1788  0.0129
  198SOL    HW2  594   0.797   0.913   0.638 -1.5619  1.3812  0.7394
  199SOL     OW  595   0.059   2.999   1.397  0.0051 -0.1355  0.3544
  199SOL    HW1  596   3.075   3.027   1.408 -1.1366  0.7493 -2.1849
  199SOL    HW2  597   0.075   2.897   1.405  0.4126 -0.1978  2.8658
  200SOL     OW  598   2.381   1.755   2.812 -0.2327 -0.4323 -0.1668
  200SOL    HW1  599   2.418   1.678   2.751 -0.5604  0.3870 -1.4513
  200SOL    HW2  600   2.310   1.726   2.881 -1.2177  1.9411  2.1663
  201SOL     OW  601   2.873   2.237   1.254  0.0662  0.2147 -0.4582
  201SOL    HW1  602   2.971   2.246   1.277 -0.2952 -1.8921 -1.7930
  201SOL    HW2  603   2.849   2.140   1.278  2.5689 -0.0607 -0.7674
  202SOL     OW  604   2.774   0.292   0.486 -0.1387 -0.3622 -0.1780
  202SOL    HW1  605   2.708   0.261   0.417  0.8995 -3.2583  0.5381
  202SOL    HW2  606   2.862   0.242   0.466  2.8356  1.0279  1.0844
  203SOL     OW  607   1.014   2.156   2.161 -0.6354 -0.0368 -0.4749
  203SOL    HW1  608   1.094   2.162   2.226  0.2005 -1.3131 -0.6923
  203SOL    HW2  609   0.992   2.253   2.134  2.7444 -0.0291  0.2018
  204SOL     OW  610   1.013   1.753   1.690  0.1556 -0.4699 -0.0948
  204SOL    HW1  611   0.952   1.832   1.690 -0.6000 -0.2313  0.1486
  204SOL    HW2  612   1.082   1.757   1.763 -2.4446 -0.1461 -1.2715
  205SOL     OW  613   0.882   2.068   1.665  0.5318  0.0963 -0.1078
  205SOL    HW1  614   0.983   2.070   1.636  0.8552  0.3871 -0.6066
  205SOL    HW2  615   0.867   2.009   1.745 -0.1987  0.3170 -3.6664
  206SOL     OW  616   0.215   0.587   2.706  0.2998 -0.0546 -0.5635
  206SOL    HW1  617   0.320   0.599   2.720  1.0024 -0.1899  2.7572
  206SOL    HW2  618   0.160   0.670   2.731 -1.2698 -0.5533  3.5265
  207SOL     OW  619   1.668   0.068   2.017  0.0048 -0.4950  0.7227
  207SOL    HW1  620   1.602   0.033   1.952 -1.0441  3.1086  3.7314
  207SOL    HW2  621   1.632   0.156   2.055  1.1221  0.3284  2.1296
  208SOL     OW  622   0.585   2.500   1.788  0.0007  0.1445  0.3188
  208SOL    HW1  623   0.601   2.546   1.876 -1.8360 -1.5773 -0.3332
  208SOL    HW2  624   0.575   2.566   1.710 -0.8059 -0.0401 -1.5183
  209SOL     OW  625   1.860   1.000   3.114 -0.4876  0.1028 -0.2320
  209SOL    HW1  626   1.873   0.914   3.062 -0.0660  1.4269 -0.2280
  209SOL    HW2  627   1.783   1.053   3.077  1.0444 -0.8735 -0.6726
  210SOL     OW  628   0.064   0.498   1.009  0.0631 -0.1095  0.2972
  210SOL    HW1  629   0.022   0.422   0.959 -0.4001 -2.1473  0.4409
  210SOL    HW2  630   0.026   0.512   1.101  2.0515  1.7249  1.8524
  211SOL     OW  631   0.849   0.841   1.278 -0.4758 -0.1297  0.3357
  211SOL    HW1  632   0.753   0.821   1.306 -2.0049 -1.4876  2.3198
  211SOL    HW2  633   0.908   0.828   1.361 -0.0723 -2.1382 -0.5406
  212SOL     OW  634   1.242   2.186   0.927 -0.2987 -0.4691 -0.7301
  212SOL    HW1  635   1.210   2.214   1.021 -1.1121 -1.3186  1.1385
  212SOL    HW2  636   1.217   2.260   0.860  0.3117 -1.5781 -3.6711
  213SOL     OW  637   2.093   0.180   2.024  0.1360 -0.4096  0.1898
  213SOL    HW1  638   2.014   0.179   1.959 -0.4328  0.0656  1.4682
  213SOL    HW2  639   2.157   0.107   1.995 -1.1069 -1.5022 -0.1479
  214SOL     OW  640   1.352   2.433   2.582 -0.3739  0.2518  0.2852
  214SOL    HW1  641   1.350   2.524   2.631 -0.7472  1.0945  2.5317
  214SOL    HW2  642   1.418   2.437   2.505  2.3854  0.0334 -3.5659
  215SOL     OW  643   3.087   1.725   1.393  0.0526 -0.2525 -0.0455
  215SOL    HW1  644   3.024   1.793   1.440 -0.7251  2.9318  1.5877
  215SOL    HW2  645   3.024   1.666   1.338 -1.3101 -0.2917 -1.4138
  216SOL     OW  646   0.392   0.351   2.133 -0.7022 -0.8407  0.7185
  216SOL    HW1  647   0.458   0.310   2.205  0.1346 -1.4863 -1.4583
  216SOL    HW2  648   0.439   0.365   2.045 -1.3830 -1.6942  3.2497
  217SOL     OW  649   2.714   0.430   0.067 -0.1314 -0.6905  0.2640
  217SOL    HW1  650   2.667   0.519   0.074 -2.2209  1.0586 -1.1505
  217SOL    HW2  651   2.816   0.437   0.055 -0.7610 -0.5153 -1.0010
  218SOL     OW  652   1.667   2.008   2.104 -0.5402 -0.2023  0.1388
  218SOL    HW1  653   1.697   1.926   2.154 -0.0043 -0.0395 -0.3285
  218SOL    HW2  654   1.623   1.990   2.012 -0.9069 -1.1974 -1.3898
  219SOL     OW  655   1.900   0.983   0.274 -0.1096  0.1967  1.0371
  219SOL    HW1  656   1.884   1.001   0.170  0.6655  3.5623  0.6940
  219SOL    HW2  657   1.816   0.956   0.331 -2.7185 -1.8784  1.0374
  220SOL     OW  658   1.521   2.157   1.000 -0.3556 -0.3397 -0.1400
  220SOL    HW1  659   1.491   2.107   1.082 -1.4961  0.6149 -1.6213
  220SOL    HW2  660   1.443   2.187   0.943  1.9898 -2.6346  1.9407
  221SOL     OW  661   0.190   0.775   3.057  0.3348  0.0474 -0.1731
  221SOL    HW1  662   0.102   0.795   3.106  0.6688  0.9100 -1.5132
  221SOL    HW2  663   0.212   0.851   2.992  2.3599  2.3352 -0.3520
  222SOL     OW  664   1.088   2.739   1.346 -0.1894  0.0632  0.7979
  222SOL    HW1  665   1.137   2.717   1.432  0.5380  0.8631 -1.5186
  222SOL    HW2  666   1.153   2.785   1.278  3.2657 -1.9591  1.7346
  223SOL     OW  667   1.431   0.421   2.670  0.0111  0.0670  0.0307
  223SOL    HW1  668   1.447   0.364   2.753  2.4219  0.7922 -0.1140
  223SOL    HW2  669   1.482   0.507   2.675 -0.3963 -3.0712 -0.0687
  224SOL     OW  670   3.068   0.924   1.037 -0.5053 -0.0303  0.9347
  224SOL    HW1  671   3.089   0.859   0.961  0.7825  1.0097  3.8115
  224SOL    HW2  672   0.007   0.906   1.117 -2.1742  0.0671 -1.1257
  225SOL     OW  673   1.086   1.165   1.531  0.3590  0.5048  0.7108
  225SOL    HW1  674   0.993   1.130   1.541 -1.7817  1.5071  1.0006
  225SOL    HW2  675   1.078   1.264   1.511  0.1471 -1.7174  1.4173
  226SOL     OW  676   1.079   3.085   0.299  0.2275  0.2012 -0.1884
  226SOL    HW1  677   1.094   3.013   0.227 -0.4703  2.2263  0.0547
  226SOL    HW2  678   1.169   3.108   0.345  0.1956  1.6914  1.3509
  227SOL     OW  679   0.589   1.445   1.335 -0.6613 -0.0641 -0.6914
  227SOL    HW1  680   0.572   1.386   1.417 -0.3107 -0.6878  0.4703
  227SOL    HW2  681   0.505   1.485   1.296  0.1559 -1.2051 -2.1991
  228SOL     OW  682   0.464   2.700   1.269 -0.0526 -0.4105  0.2962
  228SOL    HW1  683   0.519   2.786   1.283  0.5199  0.9351  2.3839
  228SOL    HW2  684   0.428   2.664   1.355 -0.4150 -2.7267 -0.9576
  229SOL     OW  685   2.375   0.952   0.344 -0.4189  0.2545  0.5508
  229SOL    HW1  686   2.352   0.860   0.309 -2.0232  0.4303  2.0747
  229SOL    HW2  687   2.448   0.995   0.284 -0.0110 -0.7180  1.9555
  230SOL     OW  688   0.655   1.211   1.942 -0.0587  0.1953 -0.4482
  230SOL    HW1  689   0.646   1.123   1.896  0.5539 -2.3431 -0.1230
  230SOL    HW2  690   0.718   1.212   2.024 -0.3244 -0.2246  1.2125
  231SOL     OW  691   1.278   2.255   1.496  0.2482  0.3016 -0.3302
  231SOL    HW1  692   1.381   2.264   1.480  0.7149  2.8127  1.0658
  231SOL    HW2  693   1.235   2.338   1.455 -1.1630 -1.5856 -2.9186
  232SOL     OW  694   2.131   2.321   0.464  0.1302 -0.1562  1.0675
  232SOL    HW1  695   2.084   2.365   0.540  1.2048  2.0782 -2.7615
  232SOL    HW2  696   2.231   2.332   0.475 -1.7148 -0.9212 -0.4931
  233SOL     OW  697   0.867   2.505   2.977 -0.2370  0.4372  0.4737
  233SOL    HW1  698   0.860   2.547   3.065 -1.8726  0.8784 -3.6774
  233SOL    HW2  699   0.950   2.443   2.976  2.7154 -1.2877 -1.8078
  234SOL     OW  700   1.083   0.208   2.387 -0.2765  0.1294  0.2706
  234SOL    HW1  701   1.142   0.259   2.453  1.7004  1.1051 -1.6819
  234SOL    HW2  702   1.038   0.132   2.438  0.5262  1.3110  1.0663
  235SOL     OW  703   0.079   2.163   0.006 -0.3211  0.0524 -0.4235
  235SOL    HW1  704   0.026   2.113   3.053 -2.0654  0.7261  1.4012
  235SOL    HW2  705   0.148   2.101   0.055  1.5103  1.2205  1.7335
  236SOL     OW  706   2.076   2.661   2.582 -0.3308 -0.4548 -0.3907
  236SOL    HW1  707   2.077   2.599   2.664  0.2296 -0.8916  0.4519
  236SOL    HW2  708   2.168   2.706   2.574 -0.8365 -2.0924  1.8507
  237SOL     OW  709   2.057   1.285   1.613 -0.3559  0.3045 -0.2002
  237SOL    HW1  710   2.139   1.262   1.670  2.3384 -2.1270  0.1618
  237SOL    HW2  711   2.063   1.230   1.528 -2.3558  0.9342  2.8937
  238SOL     OW  712   2.124   3.115   2.399 -0.1417 -0.2688  0.1085
  238SOL    HW1  713   2.084   0.085   2.358  0.0515 -0.9552 -0.0203
  238SOL    HW2  714   2.049   3.052   2.423 -1.1158  0.6559 -0.8347
  239SOL     OW  715   0.367   1.706   1.725  0.0472  0.4193  0.0686
  239SOL    HW1  716   0.321   1.614   1.716 -0.6637 -1.8460  0.4980
  239SOL    HW2  717   0.429   1.721   1.645 -0.5810  1.8683  2.6968
  240SOL     OW  718   0.222   2.155   0.551  0.5853 -0.7101 -0.3423
  240SOL    HW1  719   0.118   2.155   0.565 -0.1586  1.1527 -2.5439
  240SOL    HW2  720   0.264   2.073   0.584  0.6226  2.3445 -0.9181
  241SOL     OW  721   1.352   2.368   0.222 -0.9166  0.5272 -0.7093
  241SOL    HW1  722   1.383   2.396   0.318 -3.3975  0.9998  0.3373
  241SOL    HW2  723   1.413   2.293   0.196  1.3270  1.1956  0.1472
  242SOL     OW  724   1.743   1.199   0.460  0.4951 -0.2776 -0.0009
  242SOL    HW1  725   1.750   1.225   0.359 -0.7529 -1.3398 -1.1079
  242SOL    HW2  726   1.656   1.147   0.481  0.9343 -0.0914 -0.4633
  243SOL     OW  727   0.885   0.009   1.862 -0.5702 -0.0927 -0.4541
  243SOL    HW1  728   0.961   3.072   1.818  0.9383 -0.9998 -1.2742
  243SOL    HW2  729   0.921   0.097   1.902  0.6979 -0.0314  0.9161
  244SOL     OW  730   1.892   2.890   2.893 -0.5404  0.1513  0.0458
  244SOL    HW1  731   1.878   2.984   2.862 -0.3379 -0.8251  2.8207
  244SOL    HW2  732   1.806   2.839   2.873  0.6343 -2.0516 -3.3401
  245SOL     OW  733   1.354   2.927   3.007  0.5377 -0.4842  0.0142
  245SOL    HW1  734   1.411   3.004   2.966  2.7039 -1.2087  0.0227
  245SOL    HW2  735   1.409   2.849   3.037 -1.5023  2.3332  0.3982
  246SOL     OW  736   0.923   0.883   2.471  0.8810  0.0234  0.1158
  246SOL    HW1  737   0.872   0.800   2.490 -0.3977  1.3369  0.6317
  246SOL    HW2  738   0.895   0.951   2.543 -1.3030 -1.5507  0.8864
  247SOL     OW  739   0.171   0.530   1.820 -0.5470  0.1328  0.4307
  247SOL    HW1  740   0.225   0.567   1.898 -4.2119  2.0517  3.1705
  247SOL    HW2  741   0.074   0.560   1.829 -1.5007  3.4930 -0.5289
  248SOL     OW  742   0.727   0.831   2.093  0.0467 -0.1629 -0.1635
  248SOL    HW1  743   0.797   0.895   2.131  1.4937  1.1682 -1.0839
  248SOL    HW2  744   0.753   0.794   2.003 -0.1964 -0.1482  2.8425
  249SOL     OW  745   2.113   0.603   0.052 -0.1611  0.1289 -0.1644
  249SOL    HW1  746   2.063   0.512   0.040 -2.1419 -2.4525  2.3353
  249SOL    HW2  747   2.089   0.639   0.142 -1.3541 -0.9753  0.4579
  250SOL     OW  748   0.329   0.337   0.473 -0.4836  0.0524  0.0101
  250SOL    HW1  749   0.284   0.419   0.438  2.1181 -2.4225 -0.4536
  250SOL    HW2  750   0.352   0.337   0.571  0.5777 -0.1538 -1.2823
  251SOL     OW  751   0.978   0.439   2.290  0.0208 -0.5287 -0.0581
  251SOL    HW1  752   1.010   0.345   2.314 -2.9023 -0.6938  0.1310
  251SOL    HW2  753   1.060   0.501   2.289 -0.1935  0.2762  1.3581
  252SOL     OW  754   1.335   1.882   1.662  0.3388  0.0703 -0.8305
  252SOL    HW1  755   1.373   1.812   1.597  0.6376 -1.5344  0.3225
  252SOL    HW2  756   1.276   1.835   1.723  0.6200  1.9745 -4.4932
  253SOL     OW  757   1.691   2.629   1.929  0.0896  0.1625 -0.4873
  253SOL    HW1  758   1.746   2.688   1.989  1.7442 -0.8451 -2.6061
  253SOL    HW2  759   1.667   2.540   1.976  1.8957 -1.7965  2.1168
  254SOL     OW  760   0.771   2.124   1.985  0.4504  0.1013  0.0746
  254SOL    HW1  761   0.840   2.106   2.057 -1.6236 -0.2561 -2.5346
  254SOL    HW2  762   0.759   2.035   1.936  0.0423 -2.5777 -2.4622
  255SOL     OW  763   1.328   0.609   0.361  0.0939  0.0106 -0.2076
  255SOL    HW1  764   1.301   0.708   0.350 -1.0770  3.6828 -0.1988
  255SOL    HW2  765   1.249   0.547   0.325 -2.5949 -1.5378 -1.0001
  256SOL     OW  766   1.934   2.029   1.541 -0.0899  0.2763  0.2036
  256SOL    HW1  767   1.991   2.109   1.516  0.5787 -1.0287  0.4504
  256SOL    HW2  768   1.936   1.954   1.469 -0.7962 -1.8140 -1.0050
  257SOL     OW  769   0.232   2.331   2.502 -0.1833  0.3919  0.1126
  257SOL    HW1  770   0.220   2.432   2.509  2.5105  2.1691 -2.2370
  257SOL    HW2  771   0.191   2.289   2.588  3.0265  1.0691  0.5011
  258SOL     OW  772   0.791   0.382   2.100 -0.2814 -0.3183 -0.0654
  258SOL    HW1  773   0.878   0.413   2.147  2.0084 -2.7829 -0.5346
  258SOL    HW2  774   0.722   0.349   2.170  0.4541  2.5885  1.2105
  259SOL     OW  775   1.181   0.784   2.447  0.1769 -0.1931 -0.2496
  259SOL    HW1  776   1.091   0.817   2.471  0.8288 -1.5612  2.6205
  259SOL    HW2  777   1.173   0.700   2.394 -1.3352  3.3436  3.5905
  260SOL     OW  778   1.752   0.747   0.661 -0.0310  0.0460  0.3091
  260SOL    HW1  779   1.649   0.736   0.648 -1.3775 -1.4519  0.4952
  260SOL    HW2  780   1.793   0.660   0.680 -1.0623  3.6854 -0.7690
  261SOL     OW  781   0.626   0.052   2.912 -0.5298 -0.2505  0.1648
  261SOL    HW1  782   0.715   0.010   2.927 -0.5993 -1.6490 -1.4612
  261SOL    HW2  783   0.568   3.114   2.847 -1.2405  0.2694 -0.7242
  262SOL     OW  784   2.723   3.033   2.915 -0.4136  0.0637  0.1874
  262SOL    HW1  785   2.820   3.016   2.904 -1.4287 -2.8355 -0.5479
  262SOL    HW2  786   2.706   3.079   3.005  2.2670  1.0960  0.0384
  263SOL     OW  787   0.342   2.135   0.311  0.2739  0.2021  0.2503
  263SOL    HW1  788   0.287   2.151   0.399 -2.3599 -0.7546  2.4894
  263SOL    HW2  789   0.444   2.144   0.327 -2.9231 -0.7598  0.8901
  264SOL     OW  790   0.467   1.360   1.569  0.2509 -0.1268 -0.7684
  264SOL    HW1  791   0.545   1.355   1.635  0.9533 -0.8431  0.0307
  264SOL    HW2  792   0.384   1.389   1.624 -3.0282 -1.4726  0.0452
  265SOL     OW  793   0.532   1.324   0.314 -0.1838 -0.1346 -0.1188
  265SOL    HW1  794   0.458   1.266   0.273  1.6341  4.0995 -1.5103
  265SOL    HW2  795   0.614   1.321   0.247  1.6667 -1.9343  1.1992
  266SOL     OW  796   1.855   1.463   0.505  0.2622 -0.2519  0.2363
  266SOL    HW1  797   1.802   1.376   0.523 -4.8426 -1.7102  1.2386
  266SOL    HW2  798   1.955   1.448   0.525 -0.4552  0.8299 -1.6912
  267SOL     OW  799   3.004   0.443   0.068  0.0914  0.6952 -0.2368
  267SOL    HW1  800   3.078   0.372   0.081  1.8974 -2.1346  2.0498
  267SOL    HW2  801   3.012   0.496   3.096  1.0089  2.0620 -2.5839
  268SOL     OW  802   0.447   3.045   2.758  0.0875  0.3150 -0.0072
  268SOL    HW1  803   0.418   2.948   2.766  1.3073 -0.1371 -2.0606
  268SOL    HW2  804   0.418   3.077   2.668  0.6434 -0.3410  1.1266
  269SOL     OW  805   1.892   0.176   2.863  0.1111  0.1060  0.1302
  269SOL    HW1  806   1.824   0.250   2.897  1.8573  1.0404 -2.5710
  269SOL    HW2  807   1.993   0.205   2.866 -0.3140 -0.2117  1.1108
  270SOL     OW  808   0.849   0.940   2.794 -0.2994  0.1584 -0.2733
  270SOL    HW1  809   0.754   0.939   2.827  0.6111  0.0864  0.9012
  270SOL    HW2  810   0.905   1.022   2.824  1.0120  0.6148 -0.0499
  271SOL     OW  811   2.524   1.045   0.134  0.3408  0.1244  0.0048
  271SOL    HW1  812   2.475   0.982   0.067  0.3058 -0.9210  0.4422
  271SOL    HW2  813   2.540   1.140   0.092  3.0183  2.5218 -1.4510
  272SOL     OW  814   2.777   1.831   2.432  0.5157  0.3579  0.1410
  272SOL    HW1  815   2.759   1.913   2.493  1.6324 -1.5104  1.3352
  272SOL    HW2  816   2.686   1.793   2.394 -1.3849 -3.0357  1.6381
  273SOL     OW  817   2.413   0.434   2.911 -0.2998  0.6528  0.3973
  273SOL    HW1  818   2.397   0.351   2.855 -0.3851  1.6830 -1.8887
  273SOL    HW2  819   2.496   0.477   2.868  2.3222 -1.7562 -0.9620
  274SOL     OW  820   0.301   2.807   1.076 -0.0485 -0.0817 -0.3319
  274SOL    HW1  821   0.334   2.900   1.091  2.4392  0.4682  1.9021
  274SOL    HW2  822   0.367   2.743   1.115 -1.2989 -0.2937  2.8820
  275SOL     OW  823   2.083   1.394   0.823  0.0885 -0.4064 -0.2486
  275SOL    HW1  824   1.981   1.371   0.837 -2.4120 -1.8252 -0.9626
  275SOL    HW2  825   2.107   1.412   0.729  1.8037 -1.7592  0.7185
  276SOL     OW  826   0.170   1.372   2.718 -0.3144  0.0672 -0.4317
  276SOL    HW1  827   0.262   1.362   2.678 -1.3748 -0.9277  0.9463
  276SOL    HW2  828   0.094   1.360   2.650  0.7919  1.6130  3.0021
  277SOL     OW  829   1.674   2.673   1.659  0.1138  0.2786 -0.4947
  277SOL    HW1  830   1.592   2.631   1.617  0.1333 -0.0629  0.6187
  277SOL    HW2  831   1.686   2.650   1.759  0.2176 -1.0586  1.8701
  278SOL     OW  832   1.606   0.406   2.011 -0.0910 -0.2035  0.1828
  278SOL    HW1  833   1.622   0.369   1.918 -3.3772  0.7458  1.0789
  278SOL    HW2  834   1.561   0.496   1.998  0.7076  0.1220 -1.4192
  279SOL     OW  835   2.000   1.489   0.250  0.1140 -0.4901  0.4663
  279SOL    HW1  836   2.025   1.583   0.282 -1.6377  1.5740 -0.2295
  279SOL    HW2  837   1.933   1.453   0.313  1.7399 -1.1316 -1.3606
  280SOL     OW  838   0.679   1.367   0.941  0.1669 -0.5370  0.6514
  280SOL    HW1  839   0.639   1.297   1.006 -0.6048  1.9581  1.4620
  280SOL    HW2  840   0.654   1.354   0.844  0.0349 -0.9468  1.0184
  281SOL     OW  841   0.402   0.097   2.533  0.5190 -0.0770 -0.3811
  281SOL    HW1  842   0.390   0.179   2.590  0.2913 -0.5264  0.2093
  281SOL    HW2  843   0.346   0.113   2.447 -0.6616  0.2626 -1.2675
  282SOL     OW  844   0.345   0.734   1.208  0.1117  0.0744  0.1567
  282SOL    HW1  845   0.332   0.761   1.109  0.1972 -0.9427 -3.5414
  282SOL    HW2  846   0.265   0.679   1.234  1.3531 -0.5687  1.4131
  283SOL     OW  847   1.744   2.235   0.156 -0.0051  0.1036 -0.0665
  283SOL    HW1  848   1.784   2.271   0.069 -0.1464  0.6428  0.1135
  283SOL    HW2  849   1.646   2.227   0.134 -1.6269  2.2240 -2.0140
  284SOL     OW  850   1.440   1.484   0.680  0.4571  0.3094  0.4017
  284SOL    HW1  851   1.414   1.550   0.753 -1.6848  1.0275  0.5401
  284SOL    HW2  852   1.525   1.514   0.633 -0.4035  1.2433  0.7979
  285SOL     OW  853   2.989   3.055   2.940  0.1574 -0.1333 -0.5915
  285SOL    HW1  854   3.013   3.030   3.033  0.1440  0.4271 -1.5963
  285SOL    HW2  855   3.051   3.004   2.879 -0.4478  3.8944 -0.4111
  286SOL     OW  856   1.788   3.101   1.622 -0.3184  0.5116 -0.0702
  286SOL    HW1  857   1.822   3.004   1.612 -0.8587 -3.8416 -1.4154
  286SOL    HW2  858   1.826   0.053   1.552  0.3287  0.5332  0.0226
  287SOL     OW  859   0.933   1.079   1.170  0.0822 -0.4036  0.2961
  287SOL    HW1  860   0.923   0.987   1.199  1.9028  3.3484 -0.2261
  287SOL    HW2  861   0.893   1.148   1.237 -2.7647  2.4254  1.6697
  288SOL     OW  862   1.510   2.949   0.375  0.7258  0.0699  0.2510
  288SOL    HW1  863   1.542   2.963   0.280 -0.1109 -3.3055 -1.2263
  288SOL    HW2  864   1.408   2.967   0.373 -2.4618  0.5459  0.6550
  289SOL     OW  865   0.046   1.560   2.877  0.1304  0.4619  0.1135
  289SOL    HW1  866   3.063   1.544   2.860  1.9136  0.2233  0.1452
  289SOL    HW2  867   0.104   1.522   2.804  0.7964  2.7486 -2.3486
  290SOL     OW  868   1.107   2.860   0.699 -0.0661 -0.1558 -0.3150
  290SOL    HW1  869   1.026   2.814   0.736  1.3583  0.4996  0.4098
  290SOL    HW2  870   1.191   2.833   0.751 -2.1014 -1.0029  0.1283
  291SOL     OW  871   2.314   2.027   2.876 -0.3458 -0.2370  0.0979
  291SOL    HW1  872   2.353   1.932   2.858 -0.7531 -2.0718  0.0137
  291SOL    HW2  873   2.372   2.065   2.954 -0.0012  0.4226  1.8062
  292SOL     OW  874   1.178   0.962   2.063  0.9819  0.5602 -0.1978
  292SOL    HW1  875   1.244   0.932   2.129  0.9407  1.2654 -4.4715
  292SOL    HW2  876   1.218   1.036   2.004  0.8188  0.5595 -1.7685
  293SOL     OW  877   2.087   2.748   1.013  0.3766 -0.1492  0.1322
  293SOL    HW1  878   2.114   2.843   1.022 -2.2015 -2.6246 -2.7817
  293SOL    HW2  879   2.158   2.680   1.032  0.0202  2.1200 -2.4533
  294SOL     OW  880   0.100   0.594   2.448  0.0889 -0.4549 -0.1824
  294SOL    HW1  881   0.135   0.578   2.541 -1.6437 -0.6692 -1.0704
  294SOL    HW2  882   0.178   0.607   2.388  0.7695 -0.7663  3.6283
  295SOL     OW  883   1.297   1.966   0.309  0.2184 -0.3216 -0.2905
  295SOL    HW1  884   1.307   2.043   0.376  1.4095  0.4480 -0.3349
  295SOL    HW2  885   1.366   1.899   0.340 -1.5539 -0.4592 -0.5908
  296SOL     OW  886   2.002   1.879   0.049  0.1669  0.7122  0.2012
  296SOL    HW1  887   2.000   1.964   3.115  0.7828 -1.5925  2.3633
  296SOL    HW2  888   1.965   1.802   3.107 -2.4493  2.7862 -1.1801
  297SOL     OW  889   2.388   0.621   0.011  0.3032 -0.3536 -0.1131
  297SOL    HW1  890   2.431   0.558   3.060 -0.3863 -2.8105  2.4600
  297SOL    HW2  891   2.286   0.605   0.009  0.1336 -0.8455 -0.4729
  298SOL     OW  892   0.937   2.262   2.608  0.2372 -0.1613 -0.2030
  298SOL    HW1  893   1.008   2.305   2.544  1.0830  2.3470 -1.8419
  298SOL    HW2  894   0.842   2.252   2.564 -1.4109 -1.4429 -0.9893
  299SOL     OW  895   1.080   2.971   2.643  0.4659 -0.2100  0.1298
  299SOL    HW1  896   1.136   2.968   2.559 -0.7551 -0.0153  1.6488
  299SOL    HW2  897   0.991   3.025   2.636 -1.6736  4.2354 -0.7443
  300SOL     OW  898   2.608   0.216   3.055  0.0192 -0.4124  0.1829
  300SOL    HW1  899   2.641   0.302   3.092 -1.6805 -0.0412 -0.8194
  300SOL    HW2  900   2.619   0.220   2.956 -0.2550  2.2339 -1.2146
  301SOL     OW  901   1.431   1.306   1.334 -0.4454  0.2043 -0.1326
  301SOL    HW1  902   1.449   1.401   1.318  1.2287 -0.7313  1.1270
  301SOL    HW2  903   1.506   1.268   1.398  1.0360  3.3843  0.5761
  302SOL     OW  904   2.802   2.492   0.470 -0.1005 -0.4271 -0.2946
  302SOL    HW1  905   2.898   2.511   0.500  1.7372  2.2964  0.7337
  302SOL    HW2  906   2.792   2.523   0.372 -0.2120  0.8761  0.1511
  303SOL     OW  907   2.934   2.589   2.562 -0.1151 -0.1763  0.4404
  303SOL    HW1  908   2.924   2.691   2.562 -1.3864  1.1136  2.1227
  303SOL    HW2  909   3.026   2.559   2.533  0.9505  0.5794 -0.7755
  304SOL     OW  910   3.012   0.596   1.867  0.3404  0.0713  0.3514
  304SOL    HW1  911   2.966   0.665   1.925  0.5095  0.2284 -0.9381
  304SOL    HW2  912   2.990   0.606   1.768  1.7101 -1.2999 -0.8070
  305SOL     OW  913   0.396   1.996   2.026 -0.4909  0.0215  0.2029
  305SOL    HW1  914   0.471   1.941   2.069 -2.2122 -0.7093  1.4201
  305SOL    HW2  915   0.431   2.079   1.988 -0.0201 -3.3301 -1.9951
  306SOL     OW  916   2.714   1.030   1.919  0.3336  0.0411  0.3196
  306SOL    HW1  917   2.706   1.113   1.977 -0.6553  0.8889 -0.5484
  306SOL    HW2  918   2.645   0.955   1.931 -0.5066  1.1377 -0.4813
  307SOL     OW  919   1.882   1.126   1.795 -0.5165  0.4578  0.2570
  307SOL    HW1  920   1.900   1.028   1.760 -1.9771 -1.9540 -0.9897
  307SOL    HW2  921   1.929   1.191   1.730 -0.1247  0.4880 -1.5212
  308SOL     OW  922   2.722   1.744   1.144  0.0836  0.0114  0.0403
  308SOL    HW1  923   2.639   1.719   1.196 -0.6535  0.0072 -1.5572
  308SOL    HW2  924   2.714   1.716   1.049  1.4739  0.2609  3.1621
  309SOL     OW  925   2.135   1.645   1.682  0.6064 -0.2663  0.3080
  309SOL    HW1  926   2.064   1.667   1.610  2.0355 -0.5566  0.8895
  309SOL    HW2  927   2.187   1.561   1.647  0.2812 -0.7696 -1.2594
  310SOL     OW  928   2.706   1.636   2.763  0.0697 -0.1352  0.0136
  310SOL    HW1  929   2.691   1.733   2.750 -2.2465 -1.8995  0.9054
  310SOL    HW2  930   2.646   1.580   2.703  1.7024 -0.4816  0.9413
  311SOL     OW  931   2.595   1.909   2.737 -0.9406  0.4914 -0.4627
  311SOL    HW1  932   2.509   1.864   2.773 -4.0346 -0.6912 -0.0474
  311SOL    HW2  933   2.580   1.971   2.659 -1.2174  0.1062  0.7390
  312SOL     OW  934   2.468   1.720   1.261 -0.2017 -0.1888 -0.6169
  312SOL    HW1  935   2.401   1.648   1.283  2.5812  0.3894 -0.9096
  312SOL    HW2  936   2.420   1.806   1.244  1.0592 -2.9039 -1.4474
  313SOL     OW  937   2.272   2.581   1.079 -0.3106  0.0458 -0.1363
  313SOL    HW1  938   2.293   2.641   1.157 -0.3394  1.3889 -0.9921
  313SOL    HW2  939   2.310   2.485   1.097  0.7423 -2.1099  0.0026
  314SOL     OW  940   1.009   2.063   0.286  0.1270  0.4449 -0.2332
  314SOL    HW1  941   1.106   2.031   0.289  1.6461 -3.5948  1.5650
  314SOL    HW2  942   0.966   2.078   0.380 -2.8014  5.5438 -0.5198
  315SOL     OW  943   0.795   2.724   2.385 -0.3186 -0.0666 -0.2299
  315SOL    HW1  944   0.850   2.807   2.350  1.3147  2.5496  1.7512
  315SOL    HW2  945   0.809   2.707   2.482  1.6005  0.2344 -1.9650
  316SOL     OW  946   0.057   0.686   0.592 -0.4672 -0.4318 -0.0882
  316SOL    HW1  947   0.063   0.790   0.584  0.2783  1.7827  0.4889
  316SOL    HW2  948   3.086   0.654   0.548  0.6189 -1.7651  1.2014
  317SOL     OW  949   1.059   0.471   0.642  0.3607  0.5679  0.8194
  317SOL    HW1  950   1.006   0.393   0.678  1.3376 -1.9897  0.0815
  317SOL    HW2  951   1.007   0.525   0.570 -0.2981  0.9227  0.3878
  318SOL     OW  952   3.050   2.495   0.588 -0.0606  0.4905 -0.2623
  318SOL    HW1  953   3.058   2.581   0.645 -0.0216 -0.7039  0.6168
  318SOL    HW2  954   3.058   2.409   0.642  2.6828 -0.1422 -0.7497
  319SOL     OW  955   0.338   1.564   2.394 -0.8327  0.0361 -0.3002
  319SOL    HW1  956   0.359   1.495   2.464  2.3138 -0.6587 -2.0587
  319SOL    HW2  957   0.410   1.637   2.402  1.9950  0.5669  2.8319
  320SOL     OW  958   0.930   2.751   1.983  0.6036  0.2170  0.5272
  320SOL    HW1  959   0.939   2.774   1.884  2.1367  0.8084  0.9232
  320SOL    HW2  960   0.857   2.679   2.003 -1.6089  0.8871  2.4762
  321SOL     OW  961   0.926   2.640   0.157  0.1676  0.2249  0.0155
  321SOL    HW1  962   1.027   2.625   0.162  2.8790  0.2846  1.3025
  321SOL    HW2  963   0.882   2.605   0.238  0.8459 -0.9866 -4.0680
  322SOL     OW  964   2.646   1.290   2.050 -0.0645 -0.6868 -0.8587
  322SOL    HW1  965   2.570   1.344   2.104 -0.8764  0.0151  1.8770
  322SOL    HW2  966   2.729   1.286   2.111 -1.6928 -1.2192  0.3670
  323SOL     OW  967   2.302   0.678   0.355 -0.4796 -0.2217 -0.3309
  323SOL    HW1  968   2.201   0.676   0.335  0.1069 -1.2365  1.8206
  323SOL    HW2  969   2.341   0.584   0.334  0.4521 -0.0848 -0.5254
  324SOL     OW  970   0.283   2.641   0.044  0.9440  0.3944 -0.9015
  324SOL    HW1  971   0.250   2.547   0.033  1.6617 -0.5915  1.7235
  324SOL    HW2  972   0.381   2.649   0.029 -1.9771  0.7700 -0.4073
  325SOL     OW  973   1.808   3.084   2.700 -0.5734  0.4169  0.8644
  325SOL    HW1  974   1.874   0.044   2.717  1.1178  2.5697  3.0226
  325SOL    HW2  975   1.818   3.040   2.610  1.4965  0.1724  0.1194
  326SOL     OW  976   2.351   2.629   1.522 -0.5003  0.3074 -0.0324
  326SOL    HW1  977   2.338   2.702   1.593 -0.4559 -0.7710  1.6223
  326SOL    HW2  978   2.317   2.660   1.433  1.1046 -1.0367  0.3944
  327SOL     OW  979   1.425   0.271   2.893 -0.1332 -0.0741 -0.3818
  327SOL    HW1  980   1.384   0.343   2.956 -0.1522  1.6952  0.1599
  327SOL    HW2  981   1.514   0.246   2.934  0.1711  0.0080  2.2060
  328SOL     OW  982   2.803   1.400   2.413  0.5321  0.5542  0.5980
  328SOL    HW1  983   2.806   1.453   2.326 -1.2287  1.1340  0.1559
  328SOL    HW2  984   2.724   1.441   2.463  2.8194  2.8736 -1.3957
  329SOL     OW  985   1.874   0.122   1.863 -0.0001 -0.1042  0.1855
  329SOL    HW1  986   1.859   0.086   1.768  0.0345  0.9928  0.4624
  329SOL    HW2  987   1.794   0.122   1.928 -0.6000  3.1362 -2.1134
  330SOL     OW  988   2.561   1.680   1.582 -0.1750 -0.4839  0.5057
  330SOL    HW1  989   2.567   1.774   1.533  1.0576  0.9662 -3.0465
  330SOL    HW2  990   2.595   1.608   1.518 -0.8549  1.1501  0.7966
  331SOL     OW  991   0.355   1.165   1.426 -0.0648 -0.1689  0.2533
  331SOL    HW1  992   0.315   1.213   1.350  1.2463 -0.3470 -0.1653
  331SOL    HW2  993   0.397   1.239   1.490  1.2514  1.8200  0.4463
  332SOL     OW  994   0.756   0.356   1.149  0.0087 -0.1458  0.2094
  332SOL    HW1  995   0.723   0.453   1.143 -0.5913 -2.1952  1.2106
  332SOL    HW2  996   0.857   0.354   1.126 -1.0011  2.1858 -0.2236
  333SOL     OW  997   2.347   2.833   1.748 -0.5984 -0.1263  0.6247
  333SOL    HW1  998   2.403   2.906   1.788  0.5531 -2.7380  0.6295
  333SOL    HW2  999   2.336   2.754   1.812  1.1981  2.2575 -0.9274
  334SOL     OW 1000   1.043   1.410   1.425 -0.2735  0.2114 -0.1477
  334SOL    HW1 1001   0.966   1.395   1.366  4.4968  2.6498  2.4009
  334SOL    HW2 1002   1.121   1.447   1.373  2.0650  3.0121 -2.1642
  335SOL     OW 1003   0.527   2.743   3.061  0.0148  0.7722  0.2859
  335SOL    HW1 1004   0.603   2.805   3.087 -0.3907 -3.3045 -0.8828
  335SOL    HW2 1005   0.520   2.747   2.957 -0.0683 -1.1302  1.0832
  336SOL     OW 1006   2.926   2.929   1.820  0.1791 -0.2871  0.2233
  336SOL    HW1 1007   2.924   3.031   1.793  0.6689 -0.0320  0.3811
  336SOL    HW2 1008   2.858   2.872   1.769  0.3549  0.0457  1.2843
  337SOL     OW 1009   2.632   1.997   0.636 -0.0020  0.0499  1.1060
  337SOL    HW1 1010   2.555   1.935   0.609  0.1985  0.8085 -2.7319
  337SOL    HW2 1011   2.678   2.030   0.547  3.2202  0.2369 -5.2508
  338SOL     OW 1012   1.155   2.033   1.286 -0.4384 -0.7188 -0.0667
  338SOL    HW1 1013   1.177   2.014   1.382  0.6571  0.0101  2.4536
  338SOL    HW2 1014   1.107   2.122   1.271 -4.3306  0.7495  1.3311
  339SOL     OW 1015   2.948   0.622   2.382 -0.6651 -0.1884  0.0789
  339SOL    HW1 1016   2.899   0.546   2.332  0.4894  0.3305  0.5647
  339SOL    HW2 1017   3.046   0.599   2.392  0.4316  2.1460 -2.0094
  340SOL     OW 1018   1.650   0.005   1.131 -0.0481 -0.2792 -0.2451
  340SOL    HW1 1019   1.579   0.057   1.180 -1.1494 -2.3721 -0.7921
  340SOL    HW2 1020   1.629   3.025   1.117 -0.5406 -0.2201  1.6216
  341SOL     OW 1021   1.685   1.532   1.133 -0.1277  0.4552 -0.1686
  341SOL    HW1 1022   1.587   1.522   1.108  0.3954  3.1630 -0.9333
  341SOL    HW2 1023   1.734   1.443   1.153 -1.1244 -1.4714  0.7793
  342SOL     OW 1024   0.333   1.134   0.955  0.6563  0.8210 -0.1150
  342SOL    HW1 1025   0.239   1.149   0.926  1.9966 -1.2383  1.2813
  342SOL    HW2 1026   0.402   1.155   0.879 -0.7425 -1.6938 -2.2424
  343SOL     OW 1027   2.170   0.328   1.371 -0.1875 -0.2119 -0.2190
  343SOL    HW1 1028   2.249   0.392   1.369 -0.0129 -0.8759 -1.8938
  343SOL    HW2 1029   2.108   0.364   1.298  1.8407 -0.2871  2.2875
  344SOL     OW 1030   2.217   2.216   0.938  0.3677 -0.1410 -0.2270
  344SOL    HW1 1031   2.287   2.178   0.874  2.7929 -1.9489  3.0201
  344SOL    HW2 1032   2.268   2.257   1.016 -1.9325 -0.5831 -0.7344
  345SOL     OW 1033   2.714   2.314   2.947  0.3707 -0.1241 -0.7711
  345SOL    HW1 1034   2.745   2.395   3.004  0.2069  0.4553 -0.8353
  345SOL    HW2 1035   2.615   2.326   2.922 -3.7436  0.1917 -2.8743
  346SOL     OW 1036   3.073   1.355   0.720  0.0639  0.0344 -0.1304
  346SOL    HW1 1037   3.085   1.422   0.796 -1.5232  2.0236  1.8039
  346SOL    HW2 1038   3.112   1.394   0.636  2.1719 -0.8511  1.0403
  347SOL     OW 1039   1.864   2.650   0.867  0.6190  0.1964  0.8690
  347SOL    HW1 1040   1.885   2.571   0.810 -0.3314  1.4190 -0.0782
  347SOL    HW2 1041   1.929   2.667   0.939  0.7628 -2.5774 -4.3058
  348SOL     OW 1042   1.280   1.278   2.658  0.2367  0.2111 -0.4855
  348SOL    HW1 1043   1.356   1.213   2.644 -1.1040 -0.5034  0.5827
  348SOL    HW2 1044   1.237   1.305   2.569 -2.1634 -0.0641 -1.6192
  349SOL     OW 1045   2.386   1.321   2.421 -0.4818  0.1359  0.1686
  349SOL    HW1 1046   2.401   1.309   2.322 -2.1678  0.2276  1.1793
  349SOL    HW2 1047   2.409   1.239   2.479 -0.7131  0.0492  2.4702
  350SOL     OW 1048   0.098   1.985   1.406 -0.3496 -0.3082  0.4174
  350SOL    HW1 1049   0.049   1.898   1.421 -1.3937 -0.8791  1.6910
  350SOL    HW2 1050   0.142   1.985   1.311  2.9710  0.9541 -1.5047
  351SOL     OW 1051   0.649   0.312   2.547  0.2784  0.2413  0.1356
  351SOL    HW1 1052   0.682   0.268   2.634 -1.2632  1.0023  2.1775
  351SOL    HW2 1053   0.695   0.402   2.534  2.1350 -1.9016  1.5582
  352SOL     OW 1054   0.837   2.775   1.463  0.3068  0.4355  1.1310
  352SOL    HW1 1055   0.917   2.768   1.400  1.2960  0.8522 -0.1526
  352SOL    HW2 1056   0.761   2.825   1.417 -0.5166 -0.6128 -0.8939
  353SOL     OW 1057   0.796   1.199   2.161 -0.1411 -0.1196  0.5475
  353SOL    HW1 1058   0.730   1.229   2.231  1.1496  2.0675  1.2786
  353SOL    HW2 1059   0.831   1.103   2.175  2.5849 -0.0809  0.0081
  354SOL     OW 1060   1.814   1.303   0.817  0.4315 -0.8407  0.2941
  354SOL    HW1 1061   1.713   1.287   0.818  1.3097  1.9196  1.0375
  354SOL    HW2 1062   1.857   1.223   0.773 -2.2662 -1.0185  2.0718
  355SOL     OW 1063   2.324   0.410   0.643 -0.1903 -0.4935  0.2221
  355SOL    HW1 1064   2.311   0.470   0.565 -2.6278  0.3162  0.6784
  355SOL    HW2 1065   2.383   0.330   0.625 -0.3061 -1.4661 -1.3815
  356SOL     OW 1066   2.890   1.048   2.606  0.2159  0.4952  0.1890
  356SOL    HW1 1067   2.840   1.085   2.522 -0.4995  0.5761 -3.0509
  356SOL    HW2 1068   2.969   0.988   2.578  1.4802  0.2501 -3.7565
  357SOL     OW 1069   0.442   2.989   1.600  0.5635  0.1312 -0.3783
  357SOL    HW1 1070   0.515   3.022   1.664  2.9768  0.0295  3.2566
  357SOL    HW2 1071   0.364   3.057   1.601 -0.5866  1.1884 -2.0034
  358SOL     OW 1072   2.901   1.221   2.796 -0.8583 -0.5401 -0.0136
  358SOL    HW1 1073   2.885   1.157   2.715 -1.9653  0.6585  3.8830
  358SOL    HW2 1074   2.890   1.323   2.772  1.6189  1.6147  0.6067
  359SOL     OW 1075   2.793   2.561   3.053 -0.0606 -0.2108  0.2129
  359SOL    HW1 1076   2.894   2.587   3.069 -3.7096  1.3722 -1.0941
  359SOL    HW2 1077   2.748   2.613   2.973 -1.3930 -0.3614  2.6946
  360SOL     OW 1078   1.743   1.253   1.184 -0.4036  0.4225 -0.3013
  360SOL    HW1 1079   1.718   1.183   1.253  0.1099  1.4418  1.8879
  360SOL    HW2 1080   1.677   1.250   1.106  1.9816  2.2416 -2.7836
  361SOL     OW 1081   1.956   2.733   1.250 -0.0300  0.0185 -0.1292
  361SOL    HW1 1082   2.004   2.790   1.318 -0.3033  0.2336  2.3089
  361SOL    HW2 1083   1.995   2.755   1.152  2.8629  1.3561 -4.6550
  362SOL     OW 1084   1.414   1.513   1.087  0.8379 -0.9136 -0.0763
  362SOL    HW1 1085   1.405   1.432   1.023  1.6337 -1.5001 -1.6957
  362SOL    HW2 1086   1.320   1.533   1.126 -0.4118  0.1031 -0.7245
  363SOL     OW 1087   2.769   2.041   2.896 -0.4167 -0.2078  0.3072
  363SOL    HW1 1088   2.716   2.003   2.814 -0.6197  1.3423 -3.4275
  363SOL    HW2 1089   2.757   2.141   2.907  0.3736  4.2489  0.2679
  364SOL     OW 1090   2.020   0.408   1.591  0.1210 -0.5355 -0.1871
  364SOL    HW1 1091   2.037   0.360   1.502  0.1784 -2.5692 -0.6950
  364SOL    HW2 1092   2.103   0.451   1.624  0.4772  1.1069 -1.4399
  365SOL     OW 1093   2.867   2.703   1.188  0.3370 -0.6525 -0.4598
  365SOL    HW1 1094   2.932   2.774   1.151  1.5909  0.3422  0.1172
  365SOL    HW2 1095   2.827   2.647   1.111  0.6490 -0.5710  1.5208
  366SOL     OW 1096   2.853   1.338   0.236 -0.1791  0.0957  0.2210
  366SOL    HW1 1097   2.832   1.383   0.146 -0.1067 -0.5515 -2.0415
  366SOL    HW2 1098   2.830   1.234   0.239 -1.9859 -3.8060  1.2293
  367SOL     OW 1099   2.440   2.332   2.915 -0.0932  0.1236  0.6799
  367SOL    HW1 1100   2.424   2.282   2.825 -0.2423  0.9054 -2.0540
  367SOL    HW2 1101   2.349   2.347   2.963  0.7530 -0.4313  0.6540
  368SOL     OW 1102   2.760   1.972   1.288  0.4561 -0.0407  0.0764
  368SOL    HW1 1103   2.688   1.975   1.360  1.6587  2.0733  4.5778
  368SOL    HW2 1104   2.759   1.887   1.225  0.5019 -0.7909 -0.9993
  369SOL     OW 1105   0.708   0.409   0.497 -0.2052  0.1408  0.1529
  369SOL    HW1 1106   0.685   0.320   0.543 -1.6261 -1.8786  2.9802
  369SOL    HW2 1107   0.652   0.491   0.534  1.4503  1.2438 -1.4438
  370SOL     OW 1108   1.006   0.629   1.122  0.1159 -0.3603 -0.1277
  370SOL    HW1 1109   0.943   0.690   1.173 -1.0628  0.7066  0.8222
  370SOL    HW2 1110   0.960   0.598   1.039  2.9306  1.7894 -0.8551
  371SOL     OW 1111   2.477   1.696   0.333  0.1176 -0.0978 -0.1117
  371SOL    HW1 1112   2.579   1.699   0.332  0.6525  0.1951 -0.9976
  371SOL    HW2 1113   2.447   1.741   0.244 -0.6815  1.9511 -2.1125
  372SOL     OW 1114   0.212   0.943   2.512  0.3497  0.0832 -0.0900
  372SOL    HW1 1115   0.282   0.943   2.585  1.0251  0.5932 -1.5885
  372SOL    HW2 1116   0.249   0.991   2.426 -1.0217  3.2650 -1.2126
  373SOL     OW 1117   2.842   0.951   0.499 -0.6327  0.2639 -0.0946
  373SOL    HW1 1118   2.897   0.941   0.588 -1.0309 -0.7951  3.4892
  373SOL    HW2 1119   2.856   0.868   0.446  0.5375  4.4868  1.3652
  374SOL     OW 1120   0.536   2.281   3.085 -0.0958 -0.2957  0.4835
  374SOL    HW1 1121   0.596   2.264   0.048 -1.3859 -1.2132 -1.0739
  374SOL    HW2 1122   0.564   2.366   3.028 -0.7307  0.5946  1.5942
  375SOL     OW 1123   1.103   0.670   3.063  0.0999 -0.2105  0.0133
  375SOL    HW1 1124   1.063   0.712   2.976 -1.3994  2.9617 -0.1338
  375SOL    HW2 1125   1.070   0.721   0.031 -0.1512  2.1451  0.3494
  376SOL     OW 1126   0.048   2.844   1.912  0.3972  0.1331  0.7345
  376SOL    HW1 1127   3.079   2.872   1.865  0.2984  0.9461 -0.5149
  376SOL    HW2 1128   0.106   2.769   1.867  1.4403 -1.9262  1.0802
  377SOL     OW 1129   0.335   1.921   2.331  0.0399 -0.3864  0.4149
  377SOL    HW1 1130   0.244   1.942   2.370  0.1707  0.4501  1.1081
  377SOL    HW2 1131   0.317   1.850   2.255 -0.4175 -2.1218 -0.8837
  378SOL     OW 1132   1.680   0.882   0.428  0.3437 -0.5861 -0.3294
  378SOL    HW1 1133   1.594   0.934   0.432  2.4649 -0.5388  0.7837
  378SOL    HW2 1134   1.715   0.848   0.519 -3.3818  0.8814 -3.5204
  379SOL     OW 1135   1.179   1.651   0.119 -0.4254  0.0405  0.2717
  379SOL    HW1 1136   1.110   1.608   0.183 -0.5213 -2.6698  0.6605
  379SOL    HW2 1137   1.268   1.667   0.164 -1.9115  0.1532  0.3858
  380SOL     OW 1138   2.457   2.212   2.029  0.3325  0.2198 -0.3077
  380SOL    HW1 1139   2.550   2.176   2.007 -3.5345 -1.7543  2.7875
  380SOL    HW2 1140   2.453   2.310   2.045  0.1569 -1.3523  1.6347
  381SOL     OW 1141   0.106   0.921   2.092  0.5427 -0.8014 -0.7354
  381SOL    HW1 1142   0.061   0.918   1.999  1.5829 -1.8394  0.1224
  381SOL    HW2 1143   0.054   0.969   2.163  1.8807  0.5181  1.1653
  382SOL     OW 1144   2.719   2.552   0.211  0.0413 -0.3943 -0.1309
  382SOL    HW1 1145   2.615   2.557   0.207 -0.5486  2.8812 -1.2816
  382SOL    HW2 1146   2.743   2.554   0.114 -1.0485  0.1928 -0.0405
  383SOL     OW 1147   2.050   1.289   2.102  0.4392  0.0421 -0.4481
  383SOL    HW1 1148   2.058   1.185   2.106 -0.2393 -0.6116 -1.8010
  383SOL    HW2 1149   1.952   1.323   2.114 -2.8470  0.3973 -1.2767
  384SOL     OW 1150   0.607   2.280   2.190 -0.3522  0.5135  0.5417
  384SOL    HW1 1151   0.673   2.231   2.127  2.6110 -0.7897 -0.3967
  384SOL    HW2 1152   0.526   2.223   2.222 -1.3146 -0.9270  2.3727
  385SOL     OW 1153   2.704   2.463   0.739  0.1828 -0.3006 -0.1329
  385SOL    HW1 1154   2.718   2.488   0.642  1.0629  2.7320 -1.2578
  385SOL    HW2 1155   2.639   2.528   0.789 -3.7154 -0.5195  0.4282
  386SOL     OW 1156   1.722   0.616   2.938 -0.0565 -0.6594  0.5025
  386SOL    HW1 1157   1.655   0.605   3.011  0.7801  0.5694 -1.0349
  386SOL    HW2 1158   1.797   0.671   2.974 -2.3019 -1.3010 -0.6923
  387SOL     OW 1159   0.438   0.682   1.599 -0.0998  0.1420 -0.0651
  387SOL    HW1 1160   0.373   0.607   1.582  0.6274  1.4993 -1.0477
  387SOL    HW2 1161   0.450   0.692   1.700 -0.8029 -0.8266  1.9336
  388SOL     OW 1162   3.036   0.730   1.320  0.2903 -0.3958  0.1448
  388SOL    HW1 1163   2.968   0.659   1.292  0.6437 -0.5696  1.7157
  388SOL    HW2 1164   2.990   0.802   1.378 -1.2575  1.9532  1.7065
  389SOL     OW 1165   1.776   1.152   2.790  0.7976 -0.0539  0.0697
  389SOL    HW1 1166   1.696   1.161   2.855 -1.6720  2.4404  0.7633
  389SOL    HW2 1167   1.746   1.114   2.701 -1.3001 -1.8595 -0.3450
  390SOL     OW 1168   1.758   2.381   0.421 -0.2618  0.4788 -0.0755
  390SOL    HW1 1169   1.799   2.469   0.395 -1.0658 -0.5554 -1.7506
  390SOL    HW2 1170   1.771   2.306   0.350  1.2417 -1.6394 -1.0470
  391SOL     OW 1171   1.191   2.560   0.976 -0.1559  0.2556  0.4547
  391SOL    HW1 1172   1.114   2.618   1.007  0.7411 -0.8931 -1.6580
  391SOL    HW2 1173   1.187   2.472   1.030 -0.6764 -1.4052 -0.1130
  392SOL     OW 1174   2.739   2.872   1.363  0.1864 -0.0558 -0.3315
  392SOL    HW1 1175   2.803   2.806   1.315  1.1675 -1.2726  0.9613
  392SOL    HW2 1176   2.667   2.900   1.295 -2.1699 -2.3139 -0.0943
  393SOL     OW 1177   1.976   2.351   2.695 -0.1363 -0.2333 -0.3489
  393SOL    HW1 1178   2.032   2.402   2.762 -0.1679 -0.3714  1.1115
  393SOL    HW2 1179   2.012   2.257   2.691 -3.0056 -0.7250  1.5936
  394SOL     OW 1180   0.495   2.775   2.803  0.0116  0.0935  0.8718
  394SOL    HW1 1181   0.434   2.726   2.735 -2.2882 -2.1415  3.2209
  394SOL    HW2 1182   0.574   2.817   2.752 -0.1432  0.2525  0.8521
  395SOL     OW 1183   0.587   1.037   1.350 -0.2423 -0.1745 -0.1829
  395SOL    HW1 1184   0.573   0.936   1.347  0.3362 -1.8143 -3.2645
  395SOL    HW2 1185   0.506   1.087   1.379  1.2368 -1.5287  1.6468
  396SOL     OW 1186   1.873   1.434   2.573  0.4364 -0.1601  0.1893
  396SOL    HW1 1187   1.858   1.355   2.509  1.6204  1.6625 -2.6736
  396SOL    HW2 1188   1.845   1.407   2.668  0.7380  2.0961  3.4709
  397SOL     OW 1189   2.646   0.202   2.654 -0.7050 -0.1913  0.4170
  397SOL    HW1 1190   2.698   0.155   2.579 -0.0437  0.2235 -2.7132
  397SOL    HW2 1191   2.715   0.267   2.695  2.3058  1.6035  0.6363
  398SOL     OW 1192   1.727   0.247   0.822 -0.1255 -0.4161  0.3415
  398SOL    HW1 1193   1.680   0.213   0.739 -1.1532 -0.0992  0.7499
  398SOL    HW2 1194   1.689   0.192   0.901 -1.3349 -1.8214  2.5893
  399SOL     OW 1195   2.323   3.099   1.650  0.3028  0.0414  0.1889
  399SOL    HW1 1196   2.293   0.004   1.554  1.1153 -0.1808 -2.1883
  399SOL    HW2 1197   2.349   2.997   1.651  1.5024 -1.3576 -0.6232
  400SOL     OW 1198   3.093   2.371   1.836 -0.0183 -0.5754 -0.0529
  400SOL    HW1 1199   3.100   2.272   1.869  1.1611 -0.7722  1.6134
  400SOL    HW2 1200   0.044   2.391   1.759  0.0903  0.7712  0.2716
  401SOL     OW 1201   0.489   0.199   0.308  0.3025  0.3351 -0.3955
  401SOL    HW1 1202   0.509   0.108   0.349  1.6066  1.8663 -1.2346
  401SOL    HW2 1203   0.435   0.256   0.376 -0.3550  2.2316  0.5372
  402SOL     OW 1204   0.566   2.719   1.604 -0.5501  0.1014  0.2902
  402SOL    HW1 1205   0.661   2.734   1.573  0.5686  0.5812  0.4759
  402SOL    HW2 1206   0.515   2.804   1.634  0.6642 -1.5335  1.0150
  403SOL     OW 1207   0.164   1.094   1.753  0.4835  0.1456  0.0376
  403SOL    HW1 1208   0.081   1.036   1.740 -0.0051  0.4879  0.7343
  403SOL    HW2 1209   0.252   1.044   1.745 -1.0814 -0.9368  0.1534
  404SOL     OW 1210   2.778   2.438   2.121 -0.3178 -0.5279 -0.8627
  404SOL    HW1 1211   2.877   2.454   2.132  1.7149 -0.4549 -1.2461
  404SOL    HW2 1212   2.765   2.343   2.098  0.2946 -1.2523  1.7896
  405SOL     OW 1213   2.475   0.282   2.465 -0.2969 -0.0930 -0.1081
  405SOL    HW1 1214   2.444   0.198   2.419  1.4297 -0.8317 -2.3894
  405SOL    HW2 1215   2.529   0.257   2.547 -0.1319  1.5017  0.3400
  406SOL     OW 1216   1.533   2.666   0.306 -0.2519  0.8834  0.0136
  406SOL    HW1 1217   1.482   2.754   0.327 -2.1613 -1.3033 -3.0127
  406SOL    HW2 1218   1.516   2.607   0.387  0.4551 -1.2800  3.0414
  407SOL     OW 1219   1.630   1.606   0.508 -0.0561  0.1483  0.0720
  407SOL    HW1 1220   1.695   1.532   0.477 -0.7375  0.6231 -0.4214
  407SOL    HW2 1221   1.678   1.694   0.475 -0.5784  0.6775 -2.6768
  408SOL     OW 1222   0.283   0.671   2.068  0.3611 -0.0249  0.2837
  408SOL    HW1 1223   0.294   0.623   2.156 -1.7539 -0.7395 -0.3036
  408SOL    HW2 1224   0.229   0.758   2.076 -1.1618  0.0079 -0.0738
  409SOL     OW 1225   2.833   1.465   3.088 -0.1231  0.0828 -0.4726
  409SOL    HW1 1226   2.784   1.557   3.074 -0.1047  0.7420 -1.3611
  409SOL    HW2 1227   2.930   1.467   3.049  2.5857 -1.6801  0.7894
  410SOL     OW 1228   2.604   1.464   1.078  0.1331 -0.3787  0.4836
  410SOL    HW1 1229   2.607   1.547   1.016 -1.7895 -1.8399 -1.2623
  410SOL    HW2 1230   2.578   1.492   1.174  1.3465 -0.8337  3.3802
  411SOL     OW 1231   2.923   0.568   0.479 -0.6809  0.1549 -0.0014
  411SOL    HW1 1232   2.977   0.610   0.400  0.8971 -0.6142  0.2488
  411SOL    HW2 1233   2.886   0.478   0.456 -1.0422  1.7530  2.0947
  412SOL     OW 1234   1.691   0.174   0.145  0.3843 -0.4092 -0.1702
  412SOL    HW1 1235   1.592   0.201   0.157  0.0224  1.7884  0.1355
  412SOL    HW2 1236   1.753   0.224   0.212 -0.2339  1.4086 -2.2844
  413SOL     OW 1237   1.343   0.443   1.819 -0.1559  0.4606  0.0911
  413SOL    HW1 1238   1.429   0.398   1.794 -2.9459  1.1663 -0.6825
  413SOL    HW2 1239   1.328   0.507   1.742  3.2490 -0.7506 -0.5109
  414SOL     OW 1240   0.358   1.188   0.167 -0.2383 -0.2074 -0.7543
  414SOL    HW1 1241   0.369   1.087   0.160  1.2880 -0.2879  1.4833
  414SOL    HW2 1242   0.332   1.229   0.079 -1.1510  0.1372 -0.3672
  415SOL     OW 1243   0.080   1.451   0.511 -0.4922  0.2075  0.1789
  415SOL    HW1 1244   0.104   1.538   0.462  1.5413 -0.9521  2.0563
  415SOL    HW2 1245   0.058   1.384   0.441  1.4602 -0.8409 -1.7725
  416SOL     OW 1246   2.148   1.104   0.256 -0.1472 -0.3026  0.4400
  416SOL    HW1 1247   2.224   1.062   0.307 -2.2315  1.5362  2.5326
  416SOL    HW2 1248   2.058   1.069   0.281  0.1535  2.0505 -0.0758
  417SOL     OW 1249   2.937   3.046   0.267 -0.0429  0.1193 -0.1937
  417SOL    HW1 1250   3.005   3.026   0.196 -0.2046 -0.5978  0.2591
  417SOL    HW2 1251   2.842   3.020   0.245  1.7764  2.4298 -0.8359
  418SOL     OW 1252   2.642   0.688   0.121  0.0318 -0.1705  0.1468
  418SOL    HW1 1253   2.542   0.683   0.099 -1.7009 -0.3349  0.9200
  418SOL    HW2 1254   2.648   0.683   0.221  2.7802  0.8608 -1.9358
  419SOL     OW 1255   0.829   0.466   0.263  0.5121 -0.3428 -0.1020
  419SOL    HW1 1256   0.761   0.436   0.190 -2.6399 -3.5385 -3.0333
  419SOL    HW2 1257   0.802   0.431   0.352  2.0221  2.0587 -2.8244
  420SOL     OW 1258   0.489   1.089   0.694  0.0127  0.1540 -0.1809
  420SOL    HW1 1259   0.441   1.002   0.672  1.5621  0.7330  0.3771
  420SOL    HW2 1260   0.582   1.076   0.735 -1.3562  0.5783 -2.7127
  421SOL     OW 1261   0.459   1.764   0.494  0.1454  0.2071 -0.4374
  421SOL    HW1 1262   0.505   1.679   0.529  0.1892 -0.5381 -0.0988
  421SOL    HW2 1263   0.400   1.738   0.413 -0.3684  0.3820 -0.2138
  422SOL     OW 1264   2.776   0.401   1.421 -0.3353 -0.0544  0.1004
  422SOL    HW1 1265   2.736   0.495   1.396 -1.3484  0.9061  2.8412
  422SOL    HW2 1266   2.832   0.399   1.507  0.9873 -2.9145  0.8325
  423SOL     OW 1267   2.013   1.849   0.596 -0.0520  0.2574  0.1762
  423SOL    HW1 1268   1.985   1.796   0.677  0.1796  0.6481 -1.9421
  423SOL    HW2 1269   1.930   1.865   0.542  0.0309 -0.4133  3.3978
  424SOL     OW 1270   1.639   1.623   2.996  0.5104  0.2448  0.3583
  424SOL    HW1 1271   1.597   1.685   3.060  0.4416 -0.6792 -1.6581
  424SOL    HW2 1272   1.741   1.617   3.016  0.2187  1.1308 -0.8248
  425SOL     OW 1273   0.445   2.772   1.958 -0.0669  0.4553 -0.2138
  425SOL    HW1 1274   0.419   2.873   1.951 -0.2342 -0.7185  1.2278
  425SOL    HW2 1275   0.402   2.725   2.036 -1.9708  1.0427 -0.0356
  426SOL     OW 1276   2.348   2.971   3.009 -0.5061  0.4469  0.2369
  426SOL    HW1 1277   2.427   2.971   2.948 -0.8409  1.2060  0.9150
  426SOL    HW2 1278   2.270   2.946   2.951  1.4958  0.1880 -2.1079
  427SOL     OW 1279   0.442   1.371   2.014 -0.1529 -0.3979 -0.5599
  427SOL    HW1 1280   0.528   1.332   1.976 -0.0589 -1.0740 -0.2769
  427SOL    HW2 1281   0.446   1.474   2.029 -1.0473  0.3014  1.1141
  428SOL     OW 1282   2.199   1.519   2.472  0.1191 -0.2671 -0.1053
  428SOL    HW1 1283   2.262   1.442   2.460 -1.0726  0.1275  0.5872
  428SOL    HW2 1284   2.108   1.509   2.435  2.7000  0.5809  1.4733
  429SOL     OW 1285   2.504   0.209   0.602 -0.3920 -0.1452 -0.0454
  429SOL    HW1 1286   2.597   0.254   0.575  2.4449  1.7103 -0.6734
  429SOL    HW2 1287   2.517   0.115   0.640 -4.2114  1.5132  0.0878
  430SOL     OW 1288   1.768   1.832   2.292  0.2888  0.0931  0.4370
  430SOL    HW1 1289   1.843   1.775   2.256 -1.6279 -0.0610 -1.6185
  430SOL    HW2 1290   1.723   1.787   2.371  0.4253  1.3974 -0.5856
  431SOL     OW 1291   2.955   1.702   1.701 -0.4880 -0.1445  0.0051
  431SOL    HW1 1292   2.944   1.788   1.643 -0.8976  0.9631 -1.2709
  431SOL    HW2 1293   2.863   1.677   1.742  1.7448  0.1304 -0.4760
  432SOL     OW 1294   0.978   2.409   2.056  0.0914 -0.0310  0.3368
  432SOL    HW1 1295   1.075   2.393   2.035 -1.6182  2.6905  0.6172
  432SOL    HW2 1296   0.925   2.397   1.971 -1.0815 -2.5628  0.8232
  433SOL     OW 1297   1.149   0.008   0.676  0.2247 -0.1394 -0.2496
  433SOL    HW1 1298   1.175   0.054   0.764  0.3216 -0.6285 -1.2738
  433SOL    HW2 1299   1.134   3.021   0.683 -0.5445  2.2733  0.1922
  434SOL     OW 1300   0.303   2.393   2.122  0.6866 -0.2655  0.3431
  434SOL    HW1 1301   0.311   2.327   2.043 -2.8828 -0.5437 -0.4409
  434SOL    HW2 1302   0.332   2.350   2.208 -0.3273  0.4101 -1.4149
  435SOL     OW 1303   0.561   1.333   0.599 -0.1501  0.7576  0.3324
  435SOL    HW1 1304   0.538   1.244   0.636 -0.0040  1.9452  0.1959
  435SOL    HW2 1305   0.568   1.331   0.496  1.9347 -1.6624 -0.1424
  436SOL     OW 1306   0.247   1.444   1.699 -0.4950  0.4137 -0.0085
  436SOL    HW1 1307   0.189   1.388   1.762 -1.6504 -0.4359 -2.0168
  436SOL    HW2 1308   0.189   1.470   1.616  2.3867  0.9796 -0.9891
  437SOL     OW 1309   1.093   0.522   0.244 -0.2281  0.4053  1.0909
  437SOL    HW1 1310   0.996   0.498   0.272 -0.5923  1.3094 -0.3368
  437SOL    HW2 1311   1.098   0.608   0.195  1.3582 -1.8914  1.4179
  438SOL     OW 1312   0.930   1.816   1.293  0.2330 -0.0043  0.0015
  438SOL    HW1 1313   0.903   1.891   1.231  2.0952 -2.1107 -1.4687
  438SOL    HW2 1314   0.992   1.856   1.362 -0.6977 -0.9484  0.7083
  439SOL     OW 1315   1.619   2.120   2.486  0.5328  0.0172 -0.1293
  439SOL    HW1 1316   1.544   2.068   2.531 -2.1260  1.0515  0.0220
  439SOL    HW2 1317   1.705   2.063   2.471 -0.0949  0.6878 -0.3020
  440SOL     OW 1318   1.599   0.511   1.316 -0.3198  0.3733 -0.0783
  440SOL    HW1 1319   1.615   0.601   1.360  1.4489 -2.4618  1.7507
  440SOL    HW2 1320   1.635   0.520   1.221 -2.5180 -2.3464 -0.0585
  441SOL     OW 1321   0.734   0.068   1.456 -0.3945  0.6518  0.0695
  441SOL    HW1 1322   0.682   0.150   1.437 -0.4483 -1.1389  0.6010
  441SOL    HW2 1323   0.723   0.036   1.552 -2.6188  2.7544  0.1271
  442SOL     OW 1324   2.385   2.160   0.737  0.5728 -0.2002  0.2159
  442SOL    HW1 1325   2.469   2.114   0.761  0.0344  1.2131  0.6419
  442SOL    HW2 1326   2.314   2.101   0.692 -1.7321 -1.2729  0.2563
  443SOL     OW 1327   2.836   0.442   2.213 -0.3187  0.0498 -0.2059
  443SOL    HW1 1328   2.738   0.446   2.190  1.0976  3.1497 -1.8476
  443SOL    HW2 1329   2.883   0.358   2.179  0.9496  0.4259  1.4003
  444SOL     OW 1330   1.876   1.189   2.384 -0.6583  0.3606 -0.1626
  444SOL    HW1 1331   1.824   1.219   2.302  1.0052  1.0736  0.9316
  444SOL    HW2 1332   1.973   1.176   2.350  1.8230 -0.4011 -0.3289
  445SOL     OW 1333   2.555   1.944   1.478 -0.7223  0.0942 -0.0602
  445SOL    HW1 1334   2.478   2.007   1.457  1.5599 -1.9145 -0.4980
  445SOL    HW2 1335   2.582   1.963   1.573  0.0489 -0.7367  1.4746
  446SOL     OW 1336   0.333   0.867   0.666 -0.4487 -0.0038  1.3428
  446SOL    HW1 1337   0.334   0.766   0.679  1.3113 -1.0973 -2.2874
  446SOL    HW2 1338   0.240   0.903   0.664  2.2464  1.2518 -1.4995
  447SOL     OW 1339   0.846   1.795   0.924 -0.0977 -0.1991 -0.2155
  447SOL    HW1 1340   0.823   1.892   0.939 -1.9519 -3.2499 -0.3896
  447SOL    HW2 1341   0.763   1.742   0.950 -0.3199  0.4038  0.3147
  448SOL     OW 1342   1.331   1.133   1.908  0.2066 -1.1828  0.2799
  448SOL    HW1 1343   1.273   1.215   1.918 -1.2434  0.7554 -0.3073
  448SOL    HW2 1344   1.363   1.126   1.812 -0.4944 -4.4454 -0.4770
  449SOL     OW 1345   0.216   1.837   2.894  0.0921  0.0435  0.5174
  449SOL    HW1 1346   0.213   1.745   2.933  0.9979  1.4331 -1.3305
  449SOL    HW2 1347   0.204   1.908   2.963  0.6023  0.3942 -2.3234
  450SOL     OW 1348   2.501   2.478   2.029 -0.3716  0.1919  0.3242
  450SOL    HW1 1349   2.515   2.489   1.930  1.8459 -0.7584  0.1272
  450SOL    HW2 1350   2.581   2.460   2.080 -0.0385 -1.4056 -0.0209
  451SOL     OW 1351   2.299   0.363   2.042  0.3401  0.3006 -0.1186
  451SOL    HW1 1352   2.217   0.300   2.037 -0.8747 -0.1359  1.9647
  451SOL    HW2 1353   2.265   0.461   2.034 -1.5448  0.1923 -0.7780
  452SOL     OW 1354   0.988   2.703   1.102  0.1144 -0.8246 -0.2964
  452SOL    HW1 1355   0.943   2.793   1.072  0.9562  2.8014 -0.4123
  452SOL    HW2 1356   0.990   2.705   1.201  1.5558 -0.3870 -1.4918
  453SOL     OW 1357   0.963   1.166   0.900  0.7179  0.2560  0.1436
  453SOL    HW1 1358   0.969   1.264   0.884 -2.1748 -0.2941  1.6925
  453SOL    HW2 1359   0.951   1.139   0.998 -0.5321 -0.8282 -0.4674
  454SOL     OW 1360   0.072   1.116   0.840  0.6040  0.1753  0.3592
  454SOL    HW1 1361   0.012   1.046   0.886 -1.9526 -3.4072  1.3727
  454SOL    HW2 1362   0.025   1.174   0.777 -1.3917  2.0254 -0.2185
  455SOL     OW 1363   0.137   0.202   0.314  0.2522  0.3252 -0.4709
  455SOL    HW1 1364   0.121   0.219   0.212  1.0150  2.3307 -0.2695
  455SOL    HW2 1365   0.210   0.261   0.346 -1.9849  1.5545 -1.0554
  456SOL     OW 1366   2.408   2.343   0.512  0.0644  0.6299  0.4688
  456SOL    HW1 1367   2.388   2.303   0.602 -2.4213  0.3974  0.3107
  456SOL    HW2 1368   2.503   2.319   0.486 -1.2121  2.1015  0.4156
  457SOL     OW 1369   1.132   3.039   2.902  0.0582 -0.2444 -0.3614
  457SOL    HW1 1370   1.214   3.010   2.960  0.6048 -0.4348 -1.3230
  457SOL    HW2 1371   1.143   3.004   2.808 -0.3904 -0.3293 -0.6302
  458SOL     OW 1372   2.697   2.745   0.613  0.0374 -0.7234  0.1365
  458SOL    HW1 1373   2.631   2.733   0.690 -0.6728 -2.7794  1.7238
  458SOL    HW2 1374   2.690   2.677   0.540  1.6282  0.8354 -0.2931
  459SOL     OW 1375   2.531   0.398   2.182 -0.1431 -0.0704 -0.4172
  459SOL    HW1 1376   2.510   0.377   2.281  2.0108 -0.0762  1.8015
  459SOL    HW2 1377   2.452   0.387   2.118  1.2520  0.1323 -1.3435
  460SOL     OW 1378   3.077   0.655   0.250 -0.2326  0.3124 -0.0345
  460SOL    HW1 1379   0.006   0.733   0.205 -0.5919 -0.6233 -1.3155
  460SOL    HW2 1380   3.036   0.596   0.179  2.7934  0.1621  2.6275
  461SOL     OW 1381   0.474   2.042   1.180 -0.0653  0.0288  0.0836
  461SOL    HW1 1382   0.489   2.016   1.085 -2.8895 -0.1048  0.7881
  461SOL    HW2 1383   0.565   2.071   1.222  3.1025  0.1598 -2.7008
  462SOL     OW 1384   2.991   2.916   1.050  0.0272  0.2005 -0.1118
  462SOL    HW1 1385   3.069   2.872   0.994  0.2069  1.1616 -0.9477
  462SOL    HW2 1386   3.006   3.015   1.054  1.3220 -1.2157  0.0866
  463SOL     OW 1387   2.604   1.292   3.097 -0.1329  0.5359  0.3819
  463SOL    HW1 1388   2.607   1.212   3.036 -1.7902  1.1049 -0.7547
  463SOL    HW2 1389   2.693   1.344   3.098  2.4712  2.9419 -0.8831
  464SOL     OW 1390   0.496   2.421   1.208  0.1790 -0.0173 -0.1417
  464SOL    HW1 1391   0.545   2.397   1.295  0.4997  0.4967 -0.2515
  464SOL    HW2 1392   0.492   2.522   1.202 -0.4486 -0.0261  0.4286
  465SOL     OW 1393   0.895   0.560   0.889 -0.3394 -0.0222 -0.3815
  465SOL    HW1 1394   0.899   0.472   0.831  2.7570 -0.2867 -2.2542
  465SOL    HW2 1395   0.816   0.608   0.853  0.1196  4.0412  1.3591
  466SOL     OW 1396   1.274   2.704   2.268  0.5011 -0.1527  0.0534
  466SOL    HW1 1397   1.182   2.662   2.282 -2.4854  2.6576  1.9965
  466SOL    HW2 1398   1.323   2.676   2.181  0.2550  1.1504 -1.4181
  467SOL     OW 1399   1.005   0.245   1.985 -0.7706 -0.2898  0.4975
  467SOL    HW1 1400   1.073   0.198   2.043 -0.9411  0.7151  0.5645
  467SOL    HW2 1401   0.933   0.297   2.036  2.4235  2.5577  0.3963
  468SOL     OW 1402   0.312   1.046   2.272 -0.4591  0.6470  0.1111
  468SOL    HW1 1403   0.250   1.009   2.198  0.1011 -2.6928 -0.8819
  468SOL    HW2 1404   0.293   1.148   2.282  0.1809  4.0316  0.4426
  469SOL     OW 1405   0.360   1.702   0.876 -0.5754 -0.7683  0.0501
  469SOL    HW1 1406   0.368   1.772   0.807  0.2493 -1.4879  2.1050
  469SOL    HW2 1407   0.364   1.613   0.831  0.5875  2.7995 -0.4480
  470SOL     OW 1408   2.295   1.991   1.883 -0.5961 -0.0777 -0.2042
  470SOL    HW1 1409   2.324   1.906   1.837 -0.1272 -2.0914  1.0774
  470SOL    HW2 1410   2.356   2.029   1.952 -2.5165  0.9583 -2.0012
  471SOL     OW 1411   1.165   0.365   2.613  0.0927 -0.1846  0.4895
  471SOL    HW1 1412   1.147   0.320   2.695  2.4955  3.8374 -1.1842
  471SOL    HW2 1413   1.255   0.411   2.613 -1.6143  0.4147  2.2886
  472SOL     OW 1414   0.328   2.608   1.515  0.1894 -0.0017 -0.2502
  472SOL    HW1 1415   0.341   2.507   1.523  0.7898 -0.5096 -2.6425
  472SOL    HW2 1416   0.405   2.658   1.558  2.2439  2.4801  0.0538
  473SOL     OW 1417   0.594   0.255   2.276  0.4688 -0.8566 -0.0155
  473SOL    HW1 1418   0.599   0.268   2.376  3.5781  0.8649 -1.0935
  473SOL    HW2 1419   0.624   0.163   2.262 -0.9889 -1.4038  0.2853
  474SOL     OW 1420   1.934   0.380   1.222  0.0135 -0.0459 -0.4177
  474SOL    HW1 1421   1.891   0.473   1.211  2.2903  0.8391 -0.8372
  474SOL    HW2 1422   1.952   0.334   1.135  0.2557  0.6786 -0.3445
  475SOL     OW 1423   1.935   0.717   1.276  0.3933 -0.3128 -0.5882
  475SOL    HW1 1424   2.027   0.671   1.283  1.3603  0.8479  1.9886
  475SOL    HW2 1425   1.924   0.775   1.196 -1.0265 -0.6252 -0.8758
  476SOL     OW 1426   0.694   1.066   0.878  0.1361  0.5515 -0.6413
  476SOL    HW1 1427   0.644   1.096   0.960 -0.3790  1.3652 -4.1367
  476SOL    HW2 1428   0.789   1.105   0.871 -0.5639 -0.2683  2.5884
  477SOL     OW 1429   1.202   2.397   0.748  0.4728 -0.3652  0.7905
  477SOL    HW1 1430   1.122   2.380   0.689  4.4192 -1.1514  1.7854
  477SOL    HW2 1431   1.186   2.460   0.829 -2.7423  1.0877  0.7874
  478SOL     OW 1432   0.099   2.743   2.291  0.5941 -0.2115 -0.4325
  478SOL    HW1 1433   0.019   2.735   2.226 -2.2912  2.4992  1.5324
  478SOL    HW2 1434   0.181   2.700   2.250 -0.7918 -1.1169 -0.6436
  479SOL     OW 1435   2.415   0.478   1.318  0.2013 -0.4584  0.1067
  479SOL    HW1 1436   2.461   0.410   1.383  2.2386 -2.7481  0.0125
  479SOL    HW2 1437   2.434   0.446   1.224  0.5917  1.7207  1.5405
  480SOL     OW 1438   0.387   2.372   0.506  0.2122  0.1709 -0.3123
  480SOL    HW1 1439   0.378   2.380   0.408  1.8160  0.6691  2.0127
  480SOL    HW2 1440   0.336   2.292   0.538  0.6550  2.8483  0.5156
  481SOL     OW 1441   2.118   2.226   1.463  0.3286  0.1495 -0.5132
  481SOL    HW1 1442   2.056   2.291   1.408 -2.0134  3.0223  0.0655
  481SOL    HW2 1443   2.135   2.263   1.553  1.8223 -0.4760 -0.9739
  482SOL     OW 1444   1.385   2.662   2.731 -0.1972  0.0983 -0.0916
  482SOL    HW1 1445   1.394   2.761   2.714 -1.2478 -1.7083 -0.0644
  482SOL    HW2 1446   1.458   2.635   2.795 -0.5445  0.3069 -0.2241
  483SOL     OW 1447   0.797   1.895   1.876  0.4528  0.1526  0.4970
  483SOL    HW1 1448   0.841   1.880   1.965  1.7674 -2.6306 -0.9306
  483SOL    HW2 1449   0.760   1.804   1.843  1.9884 -2.4322  2.3026
  484SOL     OW 1450   1.002   0.423   1.310 -0.0185 -0.7572 -0.3774
  484SOL    HW1 1451   1.008   0.457   1.408  0.5046  1.1781  0.9634
  484SOL    HW2 1452   1.019   0.498   1.238 -2.2068 -1.0224  1.3770
  485SOL     OW 1453   2.113   1.127   3.110 -0.3540  0.1985  0.1335
  485SOL    HW1 1454   2.022   1.100   3.078  0.6565  0.5699 -1.2694
  485SOL    HW2 1455   2.119   1.105   0.096  1.0447  0.1302 -0.5479
  486SOL     OW 1456   2.190   0.076   1.428 -0.5366  0.1110  0.4395
  486SOL    HW1 1457   2.179   0.178   1.418  1.2622 -0.5353  2.4345
  486SOL    HW2 1458   2.217   0.044   1.339 -1.0418 -0.1027  1.9895
  487SOL     OW 1459   0.746   2.107   1.280  0.1701 -0.5247 -0.2269
  487SOL    HW1 1460   0.786   2.198   1.288 -3.8206 -1.5900 -0.7770
  487SOL    HW2 1461   0.724   2.080   1.375 -1.5776 -2.2321 -1.7601
  488SOL     OW 1462   2.174   2.349   3.049 -0.2162 -0.0465 -0.3257
  488SOL    HW1 1463   2.133   2.259   3.027  2.9664  1.5769 -0.4849
  488SOL    HW2 1464   2.166   2.373   0.029 -1.7595  1.4517  0.2243
  489SOL     OW 1465   1.921   2.902   0.781  0.6065  0.1043 -0.2353
  489SOL    HW1 1466   1.916   2.797   0.795  1.2989 -4.0516  1.1387
  489SOL    HW2 1467   1.967   2.926   0.693  1.2593  0.9412  0.3623
  490SOL     OW 1468   0.962   2.120   2.847  0.3793 -0.1864 -0.2293
  490SOL    HW1 1469   0.947   2.174   2.763  1.9340 -0.5787  0.5670
  490SOL    HW2 1470   0.992   2.185   2.920  0.5039 -1.5748 -0.4509
  491SOL     OW 1471   0.223   1.899   1.840  0.2811 -0.0373 -0.2869
  491SOL    HW1 1472   0.280   1.829   1.797  0.3238  1.3982  1.2671
  491SOL    HW2 1473   0.277   1.932   1.919 -0.1297  1.6017  0.7687
  492SOL     OW 1474   0.722   1.420   1.759 -0.0494  0.1784  0.6427
  492SOL    HW1 1475   0.820   1.419   1.735 -0.9601  0.2184 -1.0206
  492SOL    HW2 1476   0.705   1.352   1.832  2.8642  2.1368  1.9675
  493SOL     OW 1477   2.371   1.705   0.804  0.0799  0.3928  0.2074
  493SOL    HW1 1478   2.364   1.734   0.709 -3.9317  3.3831 -0.7208
  493SOL    HW2 1479   2.465   1.728   0.838  1.7230  1.0818 -0.9871
  494SOL     OW 1480   2.968   1.732   0.790  0.0030  0.7284 -0.1379
  494SOL    HW1 1481   2.903   1.666   0.739 -2.0836 -0.8033 -2.5104
  494SOL    HW2 1482   2.917   1.809   0.832  1.3283  1.8377 -0.3088
  495SOL     OW 1483   2.266   2.825   0.679  0.1193 -0.7051 -0.6618
  495SOL    HW1 1484   2.180   2.846   0.627 -1.7134  1.9345  1.1318
  495SOL    HW2 1485   2.248   2.759   0.754  2.1476  4.1676 -0.3854
  496SOL     OW 1486   2.555   0.071   1.276 -0.0408 -0.8173 -0.9410
  496SOL    HW1 1487   2.658   0.082   1.266  1.0825  0.1017 -1.0963
  496SOL    HW2 1488   2.524   0.133   1.353 -2.4385  0.6365  3.2397
  497SOL     OW 1489   2.509   1.262   2.733  0.1833  0.0488 -0.1364
  497SOL    HW1 1490   2.473   1.193   2.664 -1.3901 -0.1550  0.1583
  497SOL    HW2 1491   2.572   1.217   2.805 -2.9464 -3.4895  0.0698
  498SOL     OW 1492   2.946   1.912   1.525 -0.0908 -0.1733 -0.4686
  498SOL    HW1 1493   2.965   1.990   1.588  2.2525  0.2670  0.1351
  498SOL    HW2 1494   2.874   1.935   1.460  0.1301 -0.3845  0.9367
  499SOL     OW 1495   1.124   2.387   2.443 -0.7039 -0.7878  0.1218
  499SOL    HW1 1496   1.083   2.465   2.390  1.6271  0.7953  1.1934
  499SOL    HW2 1497   1.202   2.422   2.504  0.2045  0.0889  1.0651
  500SOL     OW 1498   1.165   1.327   0.654 -0.3594  0.1261 -0.4026
  500SOL    HW1 1499   1.188   1.364   0.744  1.9853  1.5853 -0.8738
  500SOL    HW2 1500   1.144   1.228   0.662 -1.8883 -0.7095  0.6415
  501SOL     OW 1501   1.673   0.349   1.517 -0.2492  0.1711 -0.7427
  501SOL    HW1 1502   1.634   0.411   1.445  1.8028  2.8820 -0.4409
  501SOL    HW2 1503   1.742   0.282   1.484 -0.4009  1.3250 -0.1159
  502SOL     OW 1504   2.606   0.574   1.754 -0.6549  0.0325 -0.7872
  502SOL    HW1 1505   2.617   0.595   1.859 -1.0145  0.9284  2.4064
  502SOL    HW2 1506   2.603   0.473   1.732 -0.1993  2.7273  0.2989
  503SOL     OW 1507   2.590   1.682   2.280 -0.5313 -0.0798  0.1103
  503SOL    HW1 1508   2.518   1.696   2.210  2.2871  0.3582 -0.1245
  503SOL    HW2 1509   2.686   1.667   2.246  0.7268  2.7075  0.2774
  504SOL     OW 1510   1.422   1.512   1.810  0.3001 -0.2051  0.1452
  504SOL    HW1 1511   1.344   1.479   1.861  0.9436  0.6054  0.8068
  504SOL    HW2 1512   1.510   1.472   1.835 -0.1734 -0.4729 -2.9705
  505SOL     OW 1513   0.634   0.303   1.393  0.1671  0.3149  0.8352
  505SOL    HW1 1514   0.549   0.348   1.358  2.5407  0.0348  0.8011
  505SOL    HW2 1515   0.715   0.348   1.356 -0.5796 -0.8632 -0.5603
  506SOL     OW 1516   0.157   0.322   0.072 -0.1780 -0.3257 -0.2928
  506SOL    HW1 1517   0.195   0.415   0.084 -1.8880 -2.1770  0.0536
  506SOL    HW2 1518   0.181   0.276   3.100 -0.6217  1.3264  3.0148
  507SOL     OW 1519   0.127   2.425   3.066  0.1074 -0.3209 -0.3755
  507SOL    HW1 1520   0.143   2.446   2.966 -0.4028 -1.5437  0.2842
  507SOL    HW2 1521   0.117   2.325   3.088  0.2612 -0.8346 -0.7291
  508SOL     OW 1522   1.184   0.116   2.145 -0.3925  0.3882  0.8566
  508SOL    HW1 1523   1.279   0.141   2.142  1.0260  0.2106  0.9813
  508SOL    HW2 1524   1.138   0.122   2.239 -0.8008  1.3358 -1.4694
  509SOL     OW 1525   1.503   1.931   1.206  0.1436  0.0559  0.2022
  509SOL    HW1 1526   1.510   1.965   1.302  1.3188  0.9843 -0.0762
  509SOL    HW2 1527   1.417   1.881   1.181  0.7811 -1.4955 -1.1885
  510SOL     OW 1528   2.705   0.996   1.651 -0.0756 -0.3589  0.4134
  510SOL    HW1 1529   2.723   1.018   1.750  2.1478  1.2238  2.7075
  510SOL    HW2 1530   2.632   1.057   1.614 -1.0658  0.2661 -0.1046
  511SOL     OW 1531   1.172   1.638   1.228 -0.8868  0.3294 -0.3288
  511SOL    HW1 1532   1.207   1.714   1.170  4.6651 -1.9691  0.4859
  511SOL    HW2 1533   1.175   1.661   1.327  0.0396 -2.3155 -1.1141
  512SOL     OW 1534   0.149   1.680   0.401  0.6357 -0.5108  0.6774
  512SOL    HW1 1535   0.057   1.721   0.421 -0.1863 -1.4240  0.6311
  512SOL    HW2 1536   0.183   1.738   0.325 -2.4423  1.5497 -0.7332
  513SOL     OW 1537   0.237   1.299   3.054 -0.1298 -0.2806 -0.5489
  513SOL    HW1 1538   0.193   1.377   3.110  0.1692  0.0618 -2.4667
  513SOL    HW2 1539   0.168   1.267   2.991 -0.0301  0.1183 -0.8306
  514SOL     OW 1540   2.222   2.312   2.309 -0.2890 -0.6740  0.0560
  514SOL    HW1 1541   2.154   2.244   2.340  0.5378  3.3202  0.6428
  514SOL    HW2 1542   2.319   2.281   2.322  0.0232  0.0641 -1.3844
  515SOL     OW 1543   2.566   0.892   0.559  0.2392  0.2680  0.3361
  515SOL    HW1 1544   2.501   0.901   0.480  0.2530  0.3825 -2.8008
  515SOL    HW2 1545   2.655   0.924   0.521 -1.2355  0.4969 -0.4206
  516SOL     OW 1546   2.389   2.806   0.314  0.3716 -0.0846 -0.1872
  516SOL    HW1 1547   2.355   2.770   0.223  1.3750  1.0517  1.2480
  516SOL    HW2 1548   2.380   2.746   0.391  2.3749  0.1148  0.8006
  517SOL     OW 1549   0.561   1.734   2.890 -0.4393 -0.1859 -0.1093
  517SOL    HW1 1550   0.632   1.792   2.845  2.1894  0.8412  3.7614
  517SOL    HW2 1551   0.517   1.787   2.964 -1.4784  1.2565  0.7324
  518SOL     OW 1552   0.076   0.168   1.805 -0.0333  0.0572 -0.3373
  518SOL    HW1 1553   3.096   0.144   1.784  0.1415  0.9150  0.2573
  518SOL    HW2 1554   0.073   0.256   1.848  0.3750  0.2189 -1.0810
  519SOL     OW 1555   1.556   1.395   0.261  0.0629 -0.0052 -0.1260
  519SOL    HW1 1556   1.645   1.392   0.215 -1.3655  2.6827 -0.7770
  519SOL    HW2 1557   1.529   1.489   0.268  0.0060 -2.5713  0.6873
  520SOL     OW 1558   2.682   2.828   2.305  0.1649 -0.3282  0.4684
  520SOL    HW1 1559   2.647   2.860   2.213  1.5039  0.4462 -1.0798
  520SOL    HW2 1560   2.690   2.723   2.313 -0.3269 -2.5158 -0.3897
  521SOL     OW 1561   0.050   1.933   2.146 -0.3382  0.1403  0.1966
  521SOL    HW1 1562   0.041   1.984   2.235  0.5969  3.6751 -2.2836
  521SOL    HW2 1563   0.136   1.873   2.144 -0.9732 -0.2585 -0.2970
  522SOL     OW 1564   1.504   3.089   1.829 -0.0131  0.2143 -0.1680
  522SOL    HW1 1565   1.468   2.998   1.854 -0.5686 -0.1378  0.1966
  522SOL    HW2 1566   1.520   3.099   1.728 -3.3144  0.5619  3.2266
  523SOL     OW 1567   1.985   2.206   1.109 -0.1801  0.1482 -0.2539
  523SOL    HW1 1568   1.951   2.113   1.118  1.6193 -0.6441  0.4188
  523SOL    HW2 1569   2.071   2.212   1.053  1.4083  2.2894  3.4182
  524SOL     OW 1570   0.943   2.112   0.810  0.0284  0.1539 -0.2782
  524SOL    HW1 1571   1.024   2.136   0.870  0.0978  3.1160  3.5127
  524SOL    HW2 1572   0.866   2.084   0.871 -1.5035 -0.3250 -2.1051
  525SOL     OW 1573   2.892   0.416   0.714  0.0173  0.4266 -0.1306
  525SOL    HW1 1574   2.910   0.492   0.655 -0.6877 -0.2861 -0.9224
  525SOL    HW2 1575   2.833   0.353   0.656  2.4168  0.0573  0.1262
  526SOL     OW 1576   1.157   0.270   0.102  0.3990  0.2396 -0.2185
  526SOL    HW1 1577   1.119   0.352   0.155 -0.6690  1.4500  0.9178
  526SOL    HW2 1578   1.086   0.196   0.110  3.0371  1.2306  0.2855
  527SOL     OW 1579   2.013   1.249   1.130 -0.1513 -0.0509  0.1499
  527SOL    HW1 1580   1.908   1.233   1.126 -2.9859 -0.7275 -1.0479
  527SOL    HW2 1581   2.056   1.163   1.091 -0.9546 -2.2428 -0.8776
  528SOL     OW 1582   2.733   2.574   2.365  0.2096  0.1139  0.7793
  528SOL    HW1 1583   2.812   2.566   2.428 -1.4442  1.4979  0.0557
  528SOL    HW2 1584   2.740   2.513   2.285  2.0218  0.6759  1.4510
  529SOL     OW 1585   0.836   1.261   2.511  0.5270  0.5881  0.2867
  529SOL    HW1 1586   0.895   1.177   2.522  0.7370 -2.4079  1.7503
  529SOL    HW2 1587   0.736   1.235   2.520 -0.5744  0.9791 -0.0926
  530SOL     OW 1588   1.832   0.808   2.597 -0.2938 -0.1352 -0.7821
  530SOL    HW1 1589   1.902   0.797   2.525 -2.2428  1.6567  1.3457
  530SOL    HW2 1590   1.880   0.839   2.683  0.9596  2.4929  0.2877
  531SOL     OW 1591   0.345   0.842   0.348  0.3668 -0.2491  0.0186
  531SOL    HW1 1592   0.437   0.848   0.395 -2.8270  1.1442 -1.6572
  531SOL    HW2 1593   0.272   0.889   0.403  0.9353 -0.1042 -0.4122
  532SOL     OW 1594   1.537   1.235   0.800  0.2093 -0.3452  0.1153
  532SOL    HW1 1595   1.501   1.141   0.780 -1.5937  0.7253 -0.4358
  532SOL    HW2 1596   1.486   1.304   0.741  0.9330  2.3418  0.1839
  533SOL     OW 1597   0.338   0.593   2.323 -0.5284  0.0994  0.0566
  533SOL    HW1 1598   0.381   0.505   2.284 -2.2410  1.3557  1.0562
  533SOL    HW2 1599   0.409   0.639   2.385 -0.0702  0.9390  0.1522
  534SOL     OW 1600   0.765   0.192   2.739 -0.3644 -1.0195 -0.2009
  534SOL    HW1 1601   0.827   0.251   2.796 -0.9656  1.1472  2.0549
  534SOL    HW2 1602   0.706   0.135   2.801  1.0204  0.9196 -2.1601
  535SOL     OW 1603   0.469   0.441   3.028 -0.1565  0.4301  0.5250
  535SOL    HW1 1604   0.412   0.508   3.079  0.4957 -2.8276 -0.2039
  535SOL    HW2 1605   0.405   0.371   2.991  2.5636 -1.0935 -0.8629
  536SOL     OW 1606   0.538   0.882   2.314  0.2357  0.2200 -0.4046
  536SOL    HW1 1607   0.456   0.933   2.294  3.0880  0.5733 -0.0693
  536SOL    HW2 1608   0.589   0.860   2.230 -1.2255  2.4485 -0.4852
  537SOL     OW 1609   1.440   0.175   1.289 -0.0462 -0.0021 -0.4218
  537SOL    HW1 1610   1.361   0.115   1.272 -1.6415 -0.3387  2.4277
  537SOL    HW2 1611   1.446   0.244   1.213  0.7361 -0.6266  1.5798
  538SOL     OW 1612   0.653   2.036   3.074 -0.1589  0.0177  0.1521
  538SOL    HW1 1613   0.595   2.122   3.057 -1.0932  3.5034 -1.0123
  538SOL    HW2 1614   0.687   1.997   2.987  0.4338  1.6412  0.8743
  539SOL     OW 1615   2.205   1.403   1.919 -0.1504 -0.2143  0.2531
  539SOL    HW1 1616   2.169   1.478   1.860  0.4118  0.7177  1.7357
  539SOL    HW2 1617   2.133   1.370   1.985  1.7593  1.6497  1.2585
  540SOL     OW 1618   1.895   1.706   1.546 -0.1225  0.2577 -0.1353
  540SOL    HW1 1619   1.867   1.759   1.464  0.7382  1.4424 -2.2434
  540SOL    HW2 1620   1.868   1.754   1.631 -0.5805  2.5123 -0.3532
  541SOL     OW 1621   0.676   1.693   1.684  0.0729 -0.0794  0.4616
  541SOL    HW1 1622   0.682   1.594   1.713 -0.4517  2.4365  0.3786
  541SOL    HW2 1623   0.713   1.701   1.593  0.3241 -1.4833  1.6815
  542SOL     OW 1624   1.972   0.801   2.356  0.7496 -0.1973  0.2653
  542SOL    HW1 1625   2.019   0.883   2.326  0.9251  0.3291 -1.5676
  542SOL    HW2 1626   2.039   0.729   2.371  0.6348  3.5913  2.0108
  543SOL     OW 1627   0.884   0.670   0.512 -0.3314  0.0029 -0.4343
  543SOL    HW1 1628   0.830   0.722   0.586 -0.7053  1.6856  0.1553
  543SOL    HW2 1629   0.818   0.620   0.450 -2.2041 -0.7919 -1.2467
  544SOL     OW 1630   2.219   1.867   2.619 -0.1965  0.2368 -0.4874
  544SOL    HW1 1631   2.226   1.872   2.517 -0.6428 -2.2983 -0.7036
  544SOL    HW2 1632   2.304   1.826   2.657  1.0165  1.2578  1.4356
  545SOL     OW 1633   1.867   1.876   1.341  0.2268 -0.4839  0.4635
  545SOL    HW1 1634   1.885   1.907   1.243 -1.4564  0.8235 -0.7430
  545SOL    HW2 1635   1.784   1.923   1.370  1.7516 -0.4020  0.9834
  546SOL     OW 1636   0.266   0.240   2.949  0.1673  0.1615  0.4690
  546SOL    HW1 1637   0.201   0.253   2.871  0.7401  1.3394 -1.8449
  546SOL    HW2 1638   0.318   0.157   2.944 -1.3219  2.4096  0.4771
  547SOL     OW 1639   2.391   0.900   3.065 -0.3558  0.0904 -0.1654
  547SOL    HW1 1640   2.342   0.950   2.990  0.2842  0.3345 -0.1103
  547SOL    HW2 1641   2.336   0.817   3.090 -0.3528  0.5391  1.2242
  548SOL     OW 1642   2.190   1.900   2.344  0.0594  0.2708 -0.0956
  548SOL    HW1 1643   2.281   1.934   2.312  1.4355 -0.3210  0.3734
  548SOL    HW2 1644   2.154   1.821   2.289 -0.7774  1.9509 -2.4721
  549SOL     OW 1645   2.208   0.236   0.845  0.7590 -0.0313 -0.4404
  549SOL    HW1 1646   2.285   0.168   0.834 -0.6382 -0.4974  0.8232
  549SOL    HW2 1647   2.209   0.316   0.779  0.0209  3.4311 -0.9602
  550SOL     OW 1648   2.108   1.701   0.385 -0.1336 -0.6553  0.2115
  550SOL    HW1 1649   2.171   1.746   0.320 -1.7007 -1.9817 -1.0829
  550SOL    HW2 1650   2.104   1.759   0.469  2.0061  0.9251  1.1397
  551SOL     OW 1651   1.573   0.269   1.781 -0.2673  0.2448  0.3222
  551SOL    HW1 1652   1.547   0.173   1.777  1.1115  0.1184 -1.2871
  551SOL    HW2 1653   1.605   0.300   1.689  2.3987  2.0614  0.6612
  552SOL     OW 1654   0.005   2.301   2.320 -0.0732 -0.8384  0.1662
  552SOL    HW1 1655   0.007   2.342   2.230  0.6458 -0.1778  3.3664
  552SOL    HW2 1656   0.082   2.333   2.376  0.2833  2.0337 -3.2596
  553SOL     OW 1657   0.851   3.054   0.160  0.3078 -0.0198 -0.3265
  553SOL    HW1 1658   0.933   3.073   0.215  1.2185  0.4818 -0.5517
  553SOL    HW2 1659   0.773   3.035   0.221  0.3221 -1.7900 -0.7640
  554SOL     OW 1660   1.735   2.246   1.684  0.1296  0.0488  0.3052
  554SOL    HW1 1661   1.773   2.162   1.638 -0.4878  0.7636 -0.0795
  554SOL    HW2 1662   1.785   2.338   1.661 -0.5039 -1.8445 -0.6422
  555SOL     OW 1663   1.141   1.991   1.986  0.1757 -0.2204 -0.0035
  555SOL    HW1 1664   1.084   2.046   2.047  0.1994 -1.5312 -2.0715
  555SOL    HW2 1665   1.211   2.053   1.940 -0.9832 -0.9323  0.6145
  556SOL     OW 1666   1.163   1.913   0.869  0.0513  0.4339  0.0684
  556SOL    HW1 1667   1.097   1.910   0.793 -0.2199  1.3321  0.7141
  556SOL    HW2 1668   1.215   2.004   0.870  3.1189  0.3748 -1.0871
  557SOL     OW 1669   1.543   2.297   1.858 -0.3856 -0.0559  0.0379
  557SOL    HW1 1670   1.615   2.265   1.788  1.9607  0.3586 -0.2516
  557SOL    HW2 1671   1.587   2.315   1.949  1.1658  0.0206  2.9873
  558SOL     OW 1672   0.377   0.259   1.563  0.1114  0.0397  0.2281
  558SOL    HW1 1673   0.343   0.163   1.560  1.8950 -1.4131  0.6325
  558SOL    HW2 1674   0.459   0.264   1.617 -2.4179  2.7318 -4.2164
  559SOL     OW 1675   2.535   2.934   1.191 -0.5732 -0.2826 -0.3501
  559SOL    HW1 1676   2.556   2.931   1.094 -1.5034  1.8213 -0.2142
  559SOL    HW2 1677   2.524   3.031   1.220  1.0786 -0.5125  2.2216
  560SOL     OW 1678   0.727   2.309   0.199 -0.5668 -0.1242  0.0304
  560SOL    HW1 1679   0.825   2.323   0.204 -2.9549  0.7607  0.8476
  560SOL    HW2 1680   0.701   2.232   0.262  0.0412  0.9640 -0.1624
  561SOL     OW 1681   1.012   0.787   0.171  0.2508 -0.0218 -0.1833
  561SOL    HW1 1682   0.954   0.776   0.253 -1.4050 -0.4282  0.3245
  561SOL    HW2 1683   0.978   0.874   0.127 -1.0801  3.8843  1.1396
  562SOL     OW 1684   0.793   0.558   2.437 -0.5244 -0.5592  0.2477
  562SOL    HW1 1685   0.852   0.582   2.520 -1.8310  1.1766 -2.3218
  562SOL    HW2 1686   0.852   0.503   2.370 -0.4422 -0.3800 -1.4667
  563SOL     OW 1687   1.739   2.377   2.566 -0.0644  0.2678 -0.2569
  563SOL    HW1 1688   1.695   2.285   2.565  0.3532  1.3465 -1.0612
  563SOL    HW2 1689   1.833   2.377   2.604 -1.0179 -0.1324 -0.5015
  564SOL     OW 1690   0.128   1.104   0.361  0.4078  0.0173  0.4377
  564SOL    HW1 1691   0.220   1.102   0.314  1.6995 -1.3804 -2.3305
  564SOL    HW2 1692   0.076   1.181   0.325  0.2380 -0.3929 -0.2265
  565SOL     OW 1693   1.441   2.905   2.659  0.3481  0.0641 -0.0277
  565SOL    HW1 1694   1.368   2.904   2.590  2.6655 -3.2241 -3.3723
  565SOL    HW2 1695   1.458   2.993   2.710  0.5306  0.3523  1.3632
  566SOL     OW 1696   1.858   3.011   2.451 -0.2312  0.6502  0.5348
  566SOL    HW1 1697   1.822   2.917   2.448  1.6788 -2.3051  0.5023
  566SOL    HW2 1698   1.845   3.059   2.361 -2.4010  0.6570 -2.6021
  567SOL     OW 1699   2.471   1.278   0.858 -0.7865  0.5760 -0.3374
  567SOL    HW1 1700   2.408   1.356   0.887  2.6902 -0.3886 -0.8248
  567SOL    HW2 1701   2.464   1.208   0.930 -0.3614 -0.2473  0.5224
  568SOL     OW 1702   1.764   1.850   0.474  0.4530  0.4693  0.3816
  568SOL    HW1 1703   1.757   1.887   0.381 -3.5480  0.4502  1.5251
  568SOL    HW2 1704   1.705   1.905   0.540 -1.0818  0.5712 -0.0315
  569SOL     OW 1705   2.176   1.646   2.971  0.0417  0.0644  0.2693
  569SOL    HW1 1706   2.168   1.558   3.028 -1.8067 -2.1658  2.4349
  569SOL    HW2 1707   2.088   1.666   2.936  3.3361 -1.1126  2.0284
  570SOL     OW 1708   3.012   2.620   1.634 -0.4257 -0.2677 -0.1933
  570SOL    HW1 1709   3.078   2.673   1.580 -1.6573 -1.7360  0.5132
  570SOL    HW2 1710   3.068   2.575   1.704  0.8761 -0.6634  0.4055
  571SOL     OW 1711   0.123   0.349   2.252 -0.3693  0.2621 -0.0848
  571SOL    HW1 1712   0.208   0.366   2.197  1.1272  0.5639 -1.1195
  571SOL    HW2 1713   0.085   0.437   2.293 -0.6821  1.3056 -1.1338
  572SOL     OW 1714   0.949   1.452   0.818 -0.4056  0.0109 -0.3143
  572SOL    HW1 1715   0.945   1.472   0.919  1.5940 -0.9630  1.8091
  572SOL    HW2 1716   0.974   1.542   0.766  0.7410  4.4254 -4.9505
  573SOL     OW 1717   0.914   0.333   2.921 -0.3481 -0.1942  0.6421
  573SOL    HW1 1718   0.887   0.306   3.014 -0.2895  1.5539 -0.0879
  573SOL    HW2 1719   1.012   0.300   2.901  2.6479 -0.3315 -0.1088
  574SOL     OW 1720   0.699   0.142   0.632  0.5465  0.4102  0.1506
  574SOL    HW1 1721   0.769   0.112   0.569  0.0652  0.7880 -2.2321
  574SOL    HW2 1722   0.614   0.089   0.614  2.0658  0.1847 -0.8892
  575SOL     OW 1723   2.941   1.192   1.437  0.0942 -0.1356 -0.3112
  575SOL    HW1 1724   2.997   1.186   1.349  1.4143  0.9256 -0.4052
  575SOL    HW2 1725   2.978   1.267   1.498  1.4161 -2.0762  1.1150
  576SOL     OW 1726   2.236   0.470   1.758  0.0775 -0.0267  0.1818
  576SOL    HW1 1727   2.164   0.446   1.828 -0.4949 -0.8678  2.1948
  576SOL    HW2 1728   2.297   0.391   1.742 -1.2490 -1.0029 -0.7715
  577SOL     OW 1729   2.939   1.331   2.076 -0.0686  0.4465 -0.1350
  577SOL    HW1 1730   3.002   1.298   2.149  0.0666  1.1424  1.3639
  577SOL    HW2 1731   2.963   1.304   1.980  0.5170 -0.2789  0.3668
  578SOL     OW 1732   1.662   2.795   2.519  0.1362 -0.4903 -0.2220
  578SOL    HW1 1733   1.616   2.726   2.466  1.3074 -0.4379  0.2915
  578SOL    HW2 1734   1.599   2.834   2.589 -2.6919 -0.9910 -1.5158
  579SOL     OW 1735   1.981   2.349   1.943  0.7081  0.1827 -0.0758
  579SOL    HW1 1736   2.024   2.402   2.014 -3.6726 -0.7215 -0.4761
  579SOL    HW2 1737   1.890   2.318   1.980 -0.3374  2.3735 -1.0772
  580SOL     OW 1738   1.707   1.551   2.109 -0.2325 -0.1354 -0.4066
  580SOL    HW1 1739   1.627   1.617   2.113 -0.0169 -0.3364 -0.6567
  580SOL    HW2 1740   1.749   1.558   2.022 -2.9731 -0.3406  0.5386
  581SOL     OW 1741   1.493   1.075   2.645 -0.3563  0.1758 -0.0918
  581SOL    HW1 1742   1.595   1.080   2.629  0.7318  0.0231 -1.3800
  581SOL    HW2 1743   1.456   0.981   2.624 -0.1661 -1.8945 -1.7681
  582SOL     OW 1744   0.313   2.258   1.905 -0.5642  0.0900  0.5022
  582SOL    HW1 1745   0.393   2.274   1.837  0.0866 -0.9198 -0.6827
  582SOL    HW2 1746   0.254   2.185   1.873  0.5620 -1.0371 -0.1500
  583SOL     OW 1747   1.486   1.121   1.128  0.1241 -0.3320 -0.2409
  583SOL    HW1 1748   1.410   1.066   1.087  0.4713 -0.2559 -0.5397
  583SOL    HW2 1749   1.444   1.185   1.199 -0.1715  2.1736 -0.9910
  584SOL     OW 1750   1.040   2.336   0.530 -0.6233  0.1182  0.1830
  584SOL    HW1 1751   0.997   2.423   0.498  0.0115  0.7612  1.0962
  584SOL    HW2 1752   0.971   2.263   0.535 -1.0713  2.2685  0.5337
  585SOL     OW 1753   3.019   2.332   0.152  0.6823  0.0806  0.3993
  585SOL    HW1 1754   3.070   2.256   0.114 -0.1631  0.7977 -0.2098
  585SOL    HW2 1755   3.008   2.405   0.086 -0.4798 -2.7497  0.7277
  586SOL     OW 1756   2.739   1.478   0.447 -0.6351  0.0087 -0.1602
  586SOL    HW1 1757   2.789   1.425   0.377  0.7169  1.5521 -2.2448
  586SOL    HW2 1758   2.652   1.437   0.475 -0.3557 -0.7267  2.4086
  587SOL     OW 1759   1.186   1.515   2.943 -0.4617 -0.0179 -0.2320
  587SOL    HW1 1760   1.178   1.413   2.948 -2.0385 -0.9803  0.5820
  587SOL    HW2 1761   1.174   1.558   3.035 -0.8630 -0.4501  1.3429
  588SOL     OW 1762   0.432   0.319   0.750 -0.2416  0.7492  0.3649
  588SOL    HW1 1763   0.399   0.221   0.751  0.4678 -3.9463 -1.0195
  588SOL    HW2 1764   0.381   0.375   0.820  0.2797 -2.4325 -2.0234
  589SOL     OW 1765   1.312   0.423   0.588  0.0138 -0.1398  0.2686
  589SOL    HW1 1766   1.214   0.445   0.614 -3.9101 -0.5120 -1.4956
  589SOL    HW2 1767   1.343   0.491   0.521 -2.5968  1.0923  0.7102
  590SOL     OW 1768   2.105   2.428   0.203 -0.5086  0.0208  0.0620
  590SOL    HW1 1769   2.118   2.369   0.284  0.6952  3.1634  0.0240
  590SOL    HW2 1770   2.094   2.531   0.229 -2.4602  3.3858  1.5454
  591SOL     OW 1771   0.221   2.674   1.783 -0.7444 -0.1859 -0.2344
  591SOL    HW1 1772   0.312   2.690   1.832  6.5411  0.5689  1.3524
  591SOL    HW2 1773   0.238   2.629   1.696 -0.1129  1.8481 -0.2620
  592SOL     OW 1774   2.887   1.861   2.152 -0.4994 -0.2211 -0.4467
  592SOL    HW1 1775   2.845   1.873   2.241 -2.1254  2.8309 -1.6289
  592SOL    HW2 1776   2.987   1.892   2.151  3.3422  1.5846 -2.6566
  593SOL     OW 1777   1.596   1.539   1.398 -0.0274 -0.5043  0.0169
  593SOL    HW1 1778   1.678   1.497   1.436 -0.0866  0.7336 -0.2121
  593SOL    HW2 1779   1.610   1.562   1.298  0.2894  0.9288 -0.4389
  594SOL     OW 1780   0.793   1.288   2.906  0.1068 -0.9676  0.3326
  594SOL    HW1 1781   0.703   1.243   2.924 -0.6159  1.2807 -0.0454
  594SOL    HW2 1782   0.774   1.365   2.843 -2.3662 -0.2513  1.6477
  595SOL     OW 1783   1.465   0.762   0.633 -0.2416 -0.3122  0.2849
  595SOL    HW1 1784   1.383   0.717   0.672 -0.2678 -1.0593  1.3390
  595SOL    HW2 1785   1.453   0.861   0.643  0.6935 -1.1920 -1.8116
  596SOL     OW 1786   2.869   1.144   1.013  0.0790  0.3069 -0.2680
  596SOL    HW1 1787   2.958   1.104   1.054  2.3367  0.8265  1.2423
  596SOL    HW2 1788   2.871   1.243   1.034 -3.0704  2.1863  0.4595
  597SOL     OW 1789   0.886   2.335   1.808 -0.0176  0.1621 -0.2259
  597SOL    HW1 1790   0.808   2.392   1.778 -2.3265  2.3018 -2.1235
  597SOL    HW2 1791   0.866   2.234   1.793  0.7884 -0.3639 -2.3706
  598SOL     OW 1792   2.208   2.655   1.960 -0.4109 -0.3012  0.0449
  598SOL    HW1 1793   2.149   2.617   2.033 -1.7106  3.3100  2.5126
  598SOL    HW2 1794   2.210   2.590   1.881 -0.6763 -1.7742  0.8562
  599SOL     OW 1795   1.006   1.057   0.299 -0.2281  0.2341 -0.0592
  599SOL    HW1 1796   1.063   1.120   0.350 -1.8352 -3.5368 -0.7564
  599SOL    HW2 1797   1.011   1.085   0.202 -0.4802 -0.6620  0.5756
  600SOL     OW 1798   1.344   0.795   3.093  0.1970 -0.0292  0.0615
  600SOL    HW1 1799   1.247   0.759   3.087 -0.4636  0.3615  2.2465
  600SOL    HW2 1800   1.407   0.713   3.103 -1.0990 -4.5280  1.5947
  601SOL     OW 1801   0.987   0.505   1.579  0.6773  0.1780  0.1312
  601SOL    HW1 1802   1.026   0.421   1.622 -0.9809  1.5476  0.6719
  601SOL    HW2 1803   0.889   0.517   1.602  1.2261  0.6015  0.9690
  602SOL     OW 1804   0.519   2.037   0.889  0.4841 -0.3626  0.5218
  602SOL    HW1 1805   0.480   2.006   0.800  0.3369  3.2057 -5.6655
  602SOL    HW2 1806   0.497   2.135   0.898 -0.3137  0.7747 -0.0602
  603SOL     OW 1807   0.998   2.560   2.281  0.1883  0.0805  0.1488
  603SOL    HW1 1808   0.987   2.515   2.196  2.2279  0.2947 -0.8064
  603SOL    HW2 1809   0.919   2.618   2.299  3.6478  0.8460 -1.0399
  604SOL     OW 1810   0.271   1.984   0.103  0.3750  0.1284  0.5141
  604SOL    HW1 1811   0.304   2.023   0.192  1.3166 -0.5122  0.0507
  604SOL    HW2 1812   0.345   1.944   0.048 -0.5059  0.7859  0.9436
  605SOL     OW 1813   1.993   1.651   1.935  0.6579  0.1156  0.1172
  605SOL    HW1 1814   1.924   1.603   1.875  2.4557  0.3191 -1.2161
  605SOL    HW2 1815   2.060   1.707   1.877  2.3330  1.5032 -0.4917
  606SOL     OW 1816   1.003   1.130   2.885  0.0842  0.4383 -0.2929
  606SOL    HW1 1817   0.924   1.195   2.898  0.0189 -0.7604  1.7710
  606SOL    HW2 1818   1.091   1.175   2.871 -1.8426 -3.3702 -1.1745
  607SOL     OW 1819   1.199   1.203   1.177 -0.2647 -0.3252  0.2024
  607SOL    HW1 1820   1.231   1.249   1.260 -0.1085  0.5106 -0.4854
  607SOL    HW2 1821   1.111   1.154   1.189 -2.0726  0.6255 -1.2538
  608SOL     OW 1822   2.726   2.152   2.003  0.2011 -0.2794 -0.1051
  608SOL    HW1 1823   2.714   2.201   1.914 -0.3630  0.7524  0.4834
  608SOL    HW2 1824   2.731   2.054   1.980 -1.0613  0.5787 -2.4143
  609SOL     OW 1825   2.220   0.137   0.549 -0.5878  0.2120  0.0863
  609SOL    HW1 1826   2.316   0.174   0.566  1.3111  0.7973 -1.7532
  609SOL    HW2 1827   2.226   0.058   0.489  0.0949  2.2184 -0.1208
  610SOL     OW 1828   0.014   2.252   1.369 -0.1323  0.3398 -0.1884
  610SOL    HW1 1829   0.089   2.283   1.312 -2.5038  1.3035  1.8391
  610SOL    HW2 1830   0.026   2.147   1.386  1.1457 -4.5429 -2.4746
  611SOL     OW 1831   1.462   2.445   0.463 -0.6802  0.0716 -0.2690
  611SOL    HW1 1832   1.557   2.415   0.440 -0.7696  2.5204  0.1779
  611SOL    HW2 1833   1.460   2.491   0.556  0.4424  1.6645  1.8275
  612SOL     OW 1834   0.650   0.006   1.745  0.0059  0.1078  0.6381
  612SOL    HW1 1835   0.740   3.112   1.794  2.1189 -2.3724  0.3178
  612SOL    HW2 1836   0.629   0.106   1.713 -2.2648  0.0720 -0.6029
  613SOL     OW 1837   3.016   1.801   0.466  0.2207 -0.0298  0.4323
  613SOL    HW1 1838   3.035   1.823   0.564  1.4753 -0.6433  1.4603
  613SOL    HW2 1839   2.947   1.864   0.431 -0.5705  1.7596 -0.3749
  614SOL     OW 1840   1.948   0.485   2.216  0.2431 -0.2751 -0.2188
  614SOL    HW1 1841   2.012   0.534   2.279  1.6796  1.6429 -0.1546
  614SOL    HW2 1842   1.939   0.540   2.128  0.0441  0.1824 -1.8416
  615SOL     OW 1843   0.832   1.341   1.229 -0.1461  0.5284 -0.4274
  615SOL    HW1 1844   0.735   1.370   1.226  1.1424 -1.9704 -2.1752
  615SOL    HW2 1845   0.882   1.400   1.166 -0.5622  0.4714 -0.4052
  616SOL     OW 1846   1.581   1.833   0.087 -0.2576 -0.4986  0.3943
  616SOL    HW1 1847   1.504   1.896   0.058 -0.0594  0.1638 -1.4276
  616SOL    HW2 1848   1.648   1.880   0.150  0.5543  3.5791  4.0988
  617SOL     OW 1849   2.041   2.910   0.535 -0.2540  0.2861 -0.2616
  617SOL    HW1 1850   2.099   2.984   0.495  2.8416  4.5015 -0.6200
  617SOL    HW2 1851   1.950   2.910   0.492  2.5010  0.4765  0.2940
  618SOL     OW 1852   0.531   0.672   2.476  0.3718  0.0811 -0.0653
  618SOL    HW1 1853   0.529   0.767   2.440 -0.7748  1.0990  1.1914
  618SOL    HW2 1854   0.608   0.619   2.440 -0.1245 -1.0759 -0.0947
  619SOL     OW 1855   2.890   1.581   1.293 -0.1769  0.2953  0.6717
  619SOL    HW1 1856   2.938   1.520   1.223 -0.8070  2.3129  0.4650
  619SOL    HW2 1857   2.834   1.646   1.245  2.0331  0.3854  2.4112
  620SOL     OW 1858   2.171   2.892   2.823 -0.3932  0.3354  0.0356
  620SOL    HW1 1859   2.212   2.813   2.776 -0.9994 -3.1860  2.4006
  620SOL    HW2 1860   2.077   2.872   2.856 -0.9339 -1.7119  2.8979
  621SOL     OW 1861   2.470   1.702   3.113  0.1234  0.6212 -0.3303
  621SOL    HW1 1862   2.455   1.602   3.104 -0.0855 -1.5480  0.7132
  621SOL    HW2 1863   2.379   1.746   0.001 -0.5371 -2.2183  1.1343
  622SOL     OW 1864   1.857   3.070   2.176 -0.3437 -0.0340 -0.2812
  622SOL    HW1 1865   1.769   3.090   2.128  0.0676 -0.4830 -0.6026
  622SOL    HW2 1866   1.932   0.018   2.150 -1.6041 -1.4686  0.8902
  623SOL     OW 1867   1.250   1.865   1.118  0.3617  0.0795 -0.4339
  623SOL    HW1 1868   1.236   1.945   1.181  2.8047  2.4053  2.1172
  623SOL    HW2 1869   1.214   1.884   1.026  0.3097 -0.2806  1.7185
  624SOL     OW 1870   0.262   2.998   0.070 -0.3277  0.0469  0.2608
  624SOL    HW1 1871   0.295   2.979   0.165  0.7016  2.5546  1.0057
  624SOL    HW2 1872   0.338   3.046   0.016  0.8839  2.2986 -1.5630
  625SOL     OW 1873   0.922   1.684   0.680  0.0312 -0.3961 -0.1186
  625SOL    HW1 1874   0.889   1.725   0.769  0.0816 -0.3969 -1.8703
  625SOL    HW2 1875   0.861   1.616   0.642 -0.8412  1.1261  1.9454
  626SOL     OW 1876   3.096   2.957   0.065  0.1252 -0.1855 -0.0897
  626SOL    HW1 1877   0.079   2.985   0.068 -0.1044  0.2589  1.3665
  626SOL    HW2 1878   3.082   2.857   0.084 -0.5876 -0.5803 -1.0113
  627SOL     OW 1879   1.340   1.815   2.828  0.1161 -0.3002  0.3905
  627SOL    HW1 1880   1.291   1.736   2.790 -1.2257  0.9433  0.1816
  627SOL    HW2 1881   1.282   1.872   2.893  1.8876 -0.5551 -1.0743
  628SOL     OW 1882   0.177   2.838   2.968 -0.1162 -0.4292  0.3368
  628SOL    HW1 1883   0.202   2.749   3.005 -0.4184  1.0289 -1.3992
  628SOL    HW2 1884   0.193   2.916   3.037  1.2289  0.1710 -0.0575
  629SOL     OW 1885   0.540   3.002   2.487  0.0446 -0.1941 -0.6393
  629SOL    HW1 1886   0.635   2.994   2.527 -0.1223  1.8904 -1.5473
  629SOL    HW2 1887   0.489   3.087   2.514  2.0352  1.4774 -0.1161
  630SOL     OW 1888   1.456   1.147   2.163  0.5514  0.1865 -0.2447
  630SOL    HW1 1889   1.424   1.058   2.205  0.1604  0.8053 -1.4417
  630SOL    HW2 1890   1.440   1.140   2.065  2.9502  1.7672  0.1359
  631SOL     OW 1891   2.205   1.052   0.598 -0.0488 -0.2386 -0.5917
  631SOL    HW1 1892   2.278   1.117   0.562  0.5739  0.2249  1.0796
  631SOL    HW2 1893   2.228   0.952   0.598 -0.1001 -1.0634  1.5480
  632SOL     OW 1894   2.645   0.605   2.024 -0.1525 -0.1272 -0.0698
  632SOL    HW1 1895   2.707   0.646   2.093  0.7224 -3.3345 -0.7461
  632SOL    HW2 1896   2.589   0.531   2.068 -0.3278  3.1191 -1.3322
  633SOL     OW 1897   0.813   1.922   0.159  0.0812 -0.0157 -0.0863
  633SOL    HW1 1898   0.761   1.983   0.092  0.0091 -0.7242  0.0380
  633SOL    HW2 1899   0.865   1.980   0.222  1.3390 -0.0962  1.1817
  634SOL     OW 1900   1.816   2.685   2.717  0.2875  0.1752 -0.1130
  634SOL    HW1 1901   1.774   2.718   2.632  0.9084  0.1627  0.2130
  634SOL    HW2 1902   1.913   2.680   2.700 -1.7207 -0.5726 -0.9305
  635SOL     OW 1903   2.003   0.359   0.048  0.4054  0.6764  0.1737
  635SOL    HW1 1904   2.081   0.293   0.040  0.6152  2.3856  0.0120
  635SOL    HW2 1905   1.954   0.336   0.129  0.0113 -0.5632 -0.3180
  636SOL     OW 1906   0.877   1.320   0.555 -0.0778  0.6484  0.7360
  636SOL    HW1 1907   0.957   1.305   0.494  0.8459 -0.5204 -4.4229
  636SOL    HW2 1908   0.902   1.349   0.644 -0.5055  0.2023 -1.6032
  637SOL     OW 1909   3.051   2.179   0.535 -0.0909 -0.7124  0.0712
  637SOL    HW1 1910   2.993   2.153   0.452 -1.6606 -0.9034  1.4839
  637SOL    HW2 1911   2.998   2.208   0.618  0.3302 -2.4017  3.8776
  638SOL     OW 1912   0.849   2.622   2.628 -0.3967 -0.3487  0.2772
  638SOL    HW1 1913   0.936   2.632   2.678 -1.6242  0.8231 -0.9182
  638SOL    HW2 1914   0.797   2.540   2.661  0.5639 -1.8084 -1.2849
  639SOL     OW 1915   1.353   1.974   0.054  0.6727  0.6910 -0.3195
  639SOL    HW1 1916   1.272   1.956   3.107  1.0362 -0.7933  1.6639
  639SOL    HW2 1917   1.320   1.958   0.149 -1.8044 -0.6114 -1.5089
  640SOL     OW 1918   1.922   3.062   1.016 -0.2032  0.2393  0.5494
  640SOL    HW1 1919   1.820   3.086   1.029 -2.2497 -1.4707  0.6468
  640SOL    HW2 1920   1.931   3.019   0.924 -1.5184 -1.7065  0.7251
  641SOL     OW 1921   3.062   2.853   0.457  0.2570 -0.1913  0.1462
  641SOL    HW1 1922   2.987   2.889   0.393 -1.0837 -0.5337  0.3082
  641SOL    HW2 1923   3.115   2.782   0.406  0.8491 -0.9349 -0.5017
  642SOL     OW 1924   1.136   0.093   1.565 -0.0847  0.8535 -0.5328
  642SOL    HW1 1925   1.094   0.101   1.471 -1.2815 -0.0719  1.7170
  642SOL    HW2 1926   1.115   0.168   1.628  2.2782 -0.6043 -1.8021
  643SOL     OW 1927   0.473   1.651   2.002  0.1915 -0.2842 -0.2001
  643SOL    HW1 1928   0.543   1.711   2.054 -0.5842  0.5641  0.2712
  643SOL    HW2 1929   0.462   1.683   1.910 -0.3220 -0.3517  1.7664
  644SOL     OW 1930   0.564   2.547   0.242  0.3167  0.7365 -0.1826
  644SOL    HW1 1931   0.627   2.474   0.211  0.7506  0.4548  1.9250
  644SOL    HW2 1932   0.476   2.503   0.245  0.8539 -1.2724  0.2903
  645SOL     OW 1933   1.490   2.206   0.069  0.1061 -0.2798  0.8878
  645SOL    HW1 1934   1.424   2.250   0.002  0.5417 -1.3854  2.9293
  645SOL    HW2 1935   1.470   2.110   0.056  0.4133  1.5989 -2.3034
  646SOL     OW 1936   0.522   1.251   2.983 -0.3277  0.5123 -0.6128
  646SOL    HW1 1937   0.445   1.286   2.930  3.0056  0.6371 -1.0854
  646SOL    HW2 1938   0.518   1.272   3.078  1.8176 -2.0684 -3.5969
  647SOL     OW 1939   0.709   0.004   0.856 -0.0028  0.1997  0.5031
  647SOL    HW1 1940   0.729   0.045   0.767 -1.3559  0.5855  1.1383
  647SOL    HW2 1941   0.667   0.068   0.922 -0.5678 -1.5416 -0.7109
  648SOL     OW 1942   1.888   0.406   1.831  0.2468 -0.2898 -0.2875
  648SOL    HW1 1943   1.857   0.314   1.845  0.9181  3.2888  0.4667
  648SOL    HW2 1944   1.912   0.420   1.729 -2.5031  1.0115 -0.1603
  649SOL     OW 1945   1.392   1.990   2.612 -0.2798  0.2766 -0.7000
  649SOL    HW1 1946   1.337   1.938   2.544  3.3066 -2.1099 -2.9662
  649SOL    HW2 1947   1.388   1.936   2.702 -0.6074 -2.1145  1.6127
  650SOL     OW 1948   2.722   1.871   1.955  0.1333 -0.0945 -0.3637
  650SOL    HW1 1949   2.685   1.782   1.924 -2.6860 -1.6329 -0.3328
  650SOL    HW2 1950   2.798   1.861   2.021 -1.0120  1.8122 -0.0725
  651SOL     OW 1951   1.155   0.217   2.842 -0.8356  0.1741 -0.3068
  651SOL    HW1 1952   1.130   0.128   2.885 -0.5623  0.1645 -0.9512
  651SOL    HW2 1953   1.255   0.239   2.854  2.9071 -1.1677  0.2550
  652SOL     OW 1954   2.954   1.836   0.059  0.4814 -0.6514 -0.3244
  652SOL    HW1 1955   2.866   1.800   0.030  1.6145  0.8609  1.2424
  652SOL    HW2 1956   2.989   1.902   3.113  0.7140  0.1891 -1.3583
  653SOL     OW 1957   0.406   3.076   1.080  0.0127  0.3843  0.1556
  653SOL    HW1 1958   0.309   3.105   1.111 -2.9798  3.2189  0.5276
  653SOL    HW2 1959   0.466   0.043   1.082  1.9251  0.9424 -0.2831
  654SOL     OW 1960   2.225   0.028   2.678  0.5322 -0.5877  0.2246
  654SOL    HW1 1961   2.186   0.032   2.579 -1.1072 -1.7726 -1.2429
  654SOL    HW2 1962   2.188   3.065   2.727 -0.4287  3.7611 -0.8849
  655SOL     OW 1963   0.425   2.300   0.943  0.1778 -0.1119  0.2861
  655SOL    HW1 1964   0.332   2.333   0.914  0.0085 -2.5209 -2.4202
  655SOL    HW2 1965   0.434   2.327   1.040  0.5597  2.4764 -0.6641
  656SOL     OW 1966   3.114   3.013   2.452  0.5784  0.3544  0.1711
  656SOL    HW1 1967   0.042   3.104   2.433 -0.1683 -1.7646  1.6377
  656SOL    HW2 1968   0.051   2.935   2.406  0.1545 -0.6100  1.8542
  657SOL     OW 1969   2.439   0.542   2.513  0.0286  0.1030  0.6866
  657SOL    HW1 1970   2.435   0.608   2.431 -2.6258 -0.3722 -1.0560
  657SOL    HW2 1971   2.452   0.445   2.483 -0.3447 -0.9255 -0.4672
  658SOL     OW 1972   2.129   1.847   0.924  0.1279 -0.2291  0.4750
  658SOL    HW1 1973   2.065   1.775   0.887 -0.6473 -0.6773 -2.4438
  658SOL    HW2 1974   2.216   1.836   0.876 -1.7737  0.9940 -0.4573
  659SOL     OW 1975   2.237   3.101   0.129 -0.3337  0.7020  0.1179
  659SOL    HW1 1976   2.260   3.067   0.034 -0.1117 -1.7766  0.2490
  659SOL    HW2 1977   2.140   3.076   0.148 -0.8450  3.0943 -3.0547
  660SOL     OW 1978   1.540   1.361   2.970 -0.3903 -0.7153  0.5702
  660SOL    HW1 1979   1.555   1.461   2.970 -1.8116 -1.7147 -1.3020
  660SOL    HW2 1980   1.446   1.330   2.979  1.4967  2.4485 -0.1333
  661SOL     OW 1981   2.401   2.347   1.129 -0.0662  0.6629 -0.3415
  661SOL    HW1 1982   2.491   2.332   1.086 -0.3167 -0.9628 -1.3038
  661SOL    HW2 1983   2.406   2.350   1.231 -0.5570 -1.9966 -0.7328
  662SOL     OW 1984   0.630   0.864   0.417  0.1592  0.5254 -0.0769
  662SOL    HW1 1985   0.683   0.822   0.342  0.5643  1.9879  0.4282
  662SOL    HW2 1986   0.682   0.934   0.475  0.3357 -0.5090 -2.6932
  663SOL     OW 1987   1.894   2.528   0.065  0.0773 -0.3008  0.3895
  663SOL    HW1 1988   1.874   2.468   3.099 -0.1487  0.5934 -1.5069
  663SOL    HW2 1989   1.961   2.484   0.125 -2.2211  1.1808 -0.8564
  664SOL     OW 1990   0.651   2.100   1.532  0.0316  0.3965 -0.4924
  664SOL    HW1 1991   0.573   2.079   1.598 -1.4180 -1.8293  0.2510
  664SOL    HW2 1992   0.737   2.112   1.584 -2.0323  0.3027 -0.1139
  665SOL     OW 1993   1.833   2.234   2.173  0.2697 -0.7409  0.1710
  665SOL    HW1 1994   1.902   2.216   2.249  0.3709 -1.9475  1.5254
  665SOL    HW2 1995   1.787   2.146   2.144 -1.5435  0.1122  0.1029
  666SOL     OW 1996   0.318   2.398   0.241 -0.5093 -0.5455 -0.1735
  666SOL    HW1 1997   0.324   2.303   0.208  1.5748  2.9028  0.0542
  666SOL    HW2 1998   0.226   2.423   0.263  4.5709 -0.7420 -0.4303
  667SOL     OW 1999   2.082   1.725   2.171  0.9165  0.0394 -0.0628
  667SOL    HW1 2000   2.021   1.665   2.229 -1.3779  2.2914 -3.4000
  667SOL    HW2 2001   2.045   1.708   2.077 -1.8838  1.4175  0.9719
  668SOL     OW 2002   0.474   0.646   2.729  0.1137  0.1711  0.1682
  668SOL    HW1 2003   0.499   0.645   2.630 -1.3033 -0.6600 -1.5707
  668SOL    HW2 2004   0.550   0.605   2.782 -1.4571  0.7151 -0.0329
  669SOL     OW 2005   1.664   2.309   2.828  0.1817 -0.5966  0.0293
  669SOL    HW1 2006   1.564   2.273   2.817 -3.2068  0.1080  0.5483
  669SOL    HW2 2007   1.704   2.327   2.737 -0.1471 -1.5949 -1.6702
  670SOL     OW 2008   2.551   2.028   3.073  0.2362 -0.2486  0.3359
  670SOL    HW1 2009   2.629   2.025   3.004 -0.6333 -0.2596 -3.3504
  670SOL    HW2 2010   2.556   1.948   0.022  0.9282 -0.1545 -0.5418
  671SOL     OW 2011   0.548   1.181   1.117  0.4442  0.2489 -0.1932
  671SOL    HW1 2012   0.450   1.165   1.093  0.6507  1.8607  3.2361
  671SOL    HW2 2013   0.577   1.159   1.213  2.2989  0.8814 -0.3466
  672SOL     OW 2014   2.552   0.930   2.292 -0.2837 -0.0265 -0.5363
  672SOL    HW1 2015   2.505   0.981   2.220  1.8257 -0.5476  3.2320
  672SOL    HW2 2016   2.534   0.972   2.385  0.4707  2.4776  3.4381
  673SOL     OW 2017   2.398   2.696   2.147  0.0244 -0.3444 -0.1373
  673SOL    HW1 2018   2.454   2.622   2.111  1.3999  1.4800  2.0887
  673SOL    HW2 2019   2.301   2.686   2.115 -0.6066  2.2115  1.8933
  674SOL     OW 2020   1.397   2.417   2.263 -0.2136 -0.6165  0.7018
  674SOL    HW1 2021   1.316   2.457   2.213 -1.7958  0.5190 -0.9386
  674SOL    HW2 2022   1.415   2.319   2.250  1.3493 -0.3450  0.6652
  675SOL     OW 2023   0.585   0.760   1.350 -0.3542 -0.0789  0.1909
  675SOL    HW1 2024   0.500   0.751   1.288 -1.5129  1.1401 -2.4102
  675SOL    HW2 2025   0.562   0.723   1.442 -0.1868 -1.1211 -1.4185
  676SOL     OW 2026   1.957   0.870   0.773 -0.0604  0.3737 -0.1124
  676SOL    HW1 2027   1.871   0.819   0.740 -1.2817 -1.7212 -0.4102
  676SOL    HW2 2028   1.960   0.961   0.730  0.2389  0.1129  2.0041
  677SOL     OW 2029   2.920   1.494   2.754 -0.1890 -0.3023 -0.2653
  677SOL    HW1 2030   2.961   1.490   2.664 -1.5336  0.9236  1.2707
  677SOL    HW2 2031   2.835   1.558   2.757 -0.8459  3.4732 -2.2679
  678SOL     OW 2032   2.520   2.005   1.030  0.6112  0.3026  0.1660
  678SOL    HW1 2033   2.608   1.975   1.065 -2.6837  2.4770  1.1085
  678SOL    HW2 2034   2.445   1.975   1.090  3.0153 -0.8761  1.0433
  679SOL     OW 2035   1.606   2.697   0.822 -0.0258  0.6533  0.4584
  679SOL    HW1 2036   1.568   2.602   0.805  0.9636  3.1537  2.4313
  679SOL    HW2 2037   1.710   2.693   0.828  2.1896  0.1755 -0.5733
  680SOL     OW 2038   0.334   2.639   2.183 -0.0215  0.0082  0.6190
  680SOL    HW1 2039   0.415   2.654   2.246 -1.1197  0.3197 -0.6307
  680SOL    HW2 2040   0.319   2.541   2.149 -0.3131 -2.5804 -0.9656
  681SOL     OW 2041   2.726   1.361   1.788  0.5573 -0.1655  0.3969
  681SOL    HW1 2042   2.821   1.330   1.769  0.8709  0.8715 -0.2258
  681SOL    HW2 2043   2.695   1.338   1.882 -0.6543  0.6727  0.3915
  682SOL     OW 2044   0.466   1.802   1.357 -0.6140  0.0201 -0.0854
  682SOL    HW1 2045   0.554   1.769   1.399 -1.3512  1.8224 -1.6249
  682SOL    HW2 2046   0.475   1.901   1.346 -1.1563  4.0994 -1.3158
  683SOL     OW 2047   2.282   1.530   1.228  0.4430 -0.0525 -0.5537
  683SOL    HW1 2048   2.322   1.504   1.141 -2.9277  0.9034  1.2156
  683SOL    HW2 2049   2.181   1.531   1.220 -0.1837  1.3649 -0.8801
  684SOL     OW 2050   2.722   1.702   3.037 -0.3501 -0.7315  0.2226
  684SOL    HW1 2051   2.717   1.676   2.940  0.6031  1.0265  4.0800
  684SOL    HW2 2052   2.629   1.708   3.072  0.9282 -2.0571 -2.1297
  685SOL     OW 2053   1.634   1.137   3.055 -0.0646  0.2976 -0.3122
  685SOL    HW1 2054   1.597   1.231   3.043 -0.3517  0.6358  0.7357
  685SOL    HW2 2055   1.581   1.071   3.002  0.4587  0.5998 -1.3103
  686SOL     OW 2056   0.447   0.470   1.271 -0.4829 -0.0594  0.2840
  686SOL    HW1 2057   0.518   0.532   1.238  0.5695 -1.3699 -0.6476
  686SOL    HW2 2058   0.353   0.500   1.242  0.5439 -1.0629 -0.8152
  687SOL     OW 2059   1.214   2.143   2.334 -0.0637  0.1651 -0.3429
  687SOL    HW1 2060   1.310   2.170   2.307  0.5114 -1.5203 -1.3805
  687SOL    HW2 2061   1.172   2.207   2.400 -1.9341 -1.2490  1.0839
  688SOL     OW 2062   0.340   1.585   1.273  0.6804  0.6080 -0.0336
  688SOL    HW1 2063   0.384   1.662   1.324 -0.4733 -0.1411 -1.8635
  688SOL    HW2 2064   0.286   1.624   1.197 -0.9757 -1.2790  0.2946
  689SOL     OW 2065   1.473   1.122   1.681 -0.1545  0.2201  0.3989
  689SOL    HW1 2066   1.503   1.201   1.618  0.4618  1.9340  0.1791
  689SOL    HW2 2067   1.499   1.033   1.628 -1.9732 -0.9989 -1.0216
  690SOL     OW 2068   2.566   0.734   1.155  0.1608  0.1779  0.3547
  690SOL    HW1 2069   2.576   0.635   1.124 -1.5092 -3.0495 -2.6783
  690SOL    HW2 2070   2.603   0.797   1.083  0.6363  0.5103  0.1148
  691SOL     OW 2071   0.586   2.234   1.802 -0.3869 -0.1203  0.1601
  691SOL    HW1 2072   0.658   2.212   1.870 -0.3629  1.2185  0.5772
  691SOL    HW2 2073   0.578   2.335   1.780 -0.9114 -0.8907 -0.5696
  692SOL     OW 2074   1.962   0.300   0.953  0.1226 -0.6172 -0.2890
  692SOL    HW1 2075   1.882   0.284   0.898 -0.7052  0.7332  0.3560
  692SOL    HW2 2076   2.041   0.247   0.933 -0.1253  1.2386  2.1125
  693SOL     OW 2077   0.136   1.292   2.256  0.2460  0.2519  0.1591
  693SOL    HW1 2078   0.172   1.308   2.166 -1.2718 -1.9300  2.5981
  693SOL    HW2 2079   0.113   1.382   2.301  2.2260 -1.3883  0.2331
  694SOL     OW 2080   2.212   0.663   1.286 -0.1027 -0.3017  0.0715
  694SOL    HW1 2081   2.268   0.573   1.294  0.1215 -1.9527 -3.4124
  694SOL    HW2 2082   2.259   0.742   1.325 -0.1294  1.3948  1.1260
  695SOL     OW 2083   0.995   1.472   1.683  0.0662 -0.0271  0.2160
  695SOL    HW1 2084   0.998   1.574   1.703 -1.6797  3.2245  1.3071
  695SOL    HW2 2085   1.012   1.449   1.580 -2.8947  0.7505 -1.2098
  696SOL     OW 2086   1.219   2.883   0.133  0.2876  0.3557 -0.5900
  696SOL    HW1 2087   1.220   2.784   0.148 -1.4096  1.8900  1.1254
  696SOL    HW2 2088   1.253   2.902   0.041 -0.5022 -0.8743 -0.8273
  697SOL     OW 2089   0.886   0.300   0.785  0.3541  0.0452 -0.3387
  697SOL    HW1 2090   0.821   0.234   0.738 -2.6709 -1.3811 -2.4983
  697SOL    HW2 2091   0.947   0.253   0.846  1.5925  0.2877 -2.1110
  698SOL     OW 2092   1.099   1.455   2.349  0.0214 -0.1498  0.3538
  698SOL    HW1 2093   1.027   1.524   2.357 -0.2147  3.3582  0.2447
  698SOL    HW2 2094   1.191   1.497   2.355 -3.4480 -1.0919 -0.5774
  699SOL     OW 2095   1.662   0.904   1.178 -0.0804 -0.3214 -0.1811
  699SOL    HW1 2096   1.617   0.988   1.134 -1.5764  1.6095 -0.2718
  699SOL    HW2 2097   1.759   0.898   1.137  3.8469  0.8933 -0.8170
  700SOL     OW 2098   0.827   2.861   0.507 -0.5906 -0.1958 -0.2069
  700SOL    HW1 2099   0.748   2.844   0.445 -0.6886 -0.4663  0.8440
  700SOL    HW2 2100   0.859   2.959   0.504  0.7877  1.5230 -0.9978
  701SOL     OW 2101   2.571   2.888   2.750  0.2216  0.2014  0.0481
  701SOL    HW1 2102   2.625   2.953   2.812 -0.0896  1.0817 -1.3437
  701SOL    HW2 2103   2.572   2.935   2.662  0.6057 -1.0211  0.3974
  702SOL     OW 2104   1.233   0.438   3.022 -0.4671  0.7874  0.3902
  702SOL    HW1 2105   1.211   0.363   3.088  0.5741  2.1976 -0.5749
  702SOL    HW2 2106   1.167   0.518   3.031 -2.9108  1.5976  1.5458
  703SOL     OW 2107   2.572   3.001   2.521 -0.1512 -0.1044  0.4377
  703SOL    HW1 2108   2.530   3.067   2.456  1.2037 -1.6533  2.2447
  703SOL    HW2 2109   2.603   2.917   2.473  0.6364 -0.3747  1.4931
  704SOL     OW 2110   0.117   1.886   0.771  0.5088  0.5546  0.1892
  704SOL    HW1 2111   0.020   1.903   0.749  1.5925 -1.9750  0.6154
  704SOL    HW2 2112   0.128   1.799   0.818  1.9972  0.3712  0.4305
  705SOL     OW 2113   2.894   3.107   2.246 -0.5593  0.0519  0.2428
  705SOL    HW1 2114   2.963   3.048   2.290  0.5340 -1.0755  3.5874
  705SOL    HW2 2115   2.862   3.060   2.167 -0.0196  1.1195 -0.2336
  706SOL     OW 2116   1.822   2.925   0.371  0.4614 -0.0311  0.4133
  706SOL    HW1 2117   1.807   2.836   0.328 -0.7295 -0.6182  1.8952
  706SOL    HW2 2118   1.730   2.963   0.389  0.0801 -0.0720  0.9231
  707SOL     OW 2119   0.908   1.839   2.140 -0.5910  0.3887 -0.4810
  707SOL    HW1 2120   0.983   1.872   2.204  0.5609 -0.8364  1.9379
  707SOL    HW2 2121   0.897   1.740   2.139  0.0254 -0.0841  2.4724
  708SOL     OW 2122   0.104   2.375   1.602  0.4864 -0.3578 -0.1149
  708SOL    HW1 2123   0.041   2.322   1.539 -2.1498 -2.5051 -0.8533
  708SOL    HW2 2124   0.204   2.355   1.590  0.0729 -1.0115 -1.1503
  709SOL     OW 2125   2.228   3.069   1.915 -0.1047 -0.1868 -0.1869
  709SOL    HW1 2126   2.141   3.014   1.893  0.9038  0.0995  3.1619
  709SOL    HW2 2127   2.272   3.099   1.826  2.1643  2.3168 -0.8695
  710SOL     OW 2128   2.200   0.929   2.620  0.2311 -0.3907  0.3721
  710SOL    HW1 2129   2.110   0.926   2.669  1.1408 -1.6138 -1.4964
  710SOL    HW2 2130   2.240   0.834   2.628 -3.3001 -1.8471 -0.1029
  711SOL     OW 2131   1.055   2.247   3.041 -0.2771  0.0673 -0.2138
  711SOL    HW1 2132   1.050   2.246   0.027 -1.4667  1.0979  3.7071
  711SOL    HW2 2133   1.146   2.280   3.013 -0.4307  1.4778 -0.4773
  712SOL     OW 2134   0.675   2.607   2.012 -0.0129 -0.2151  0.0934
  712SOL    HW1 2135   0.618   2.687   1.997  1.8071 -1.9795  0.4573
  712SOL    HW2 2136   0.636   2.554   2.090 -1.3719  1.6674  1.6843
  713SOL     OW 2137   1.775   1.274   0.160  0.1474 -0.1743  0.1202
  713SOL    HW1 2138   1.739   1.214   0.083  0.6014 -1.1097  0.1327
  713SOL    HW2 2139   1.866   1.314   0.132  0.6907  2.3989  1.7721
  714SOL     OW 2140   0.811   1.139   1.449 -0.2289  0.6998  0.0326
  714SOL    HW1 2141   0.820   1.221   1.387  3.1966  1.1194 -0.2008
  714SOL    HW2 2142   0.737   1.071   1.429 -0.3822 -2.8481  0.6389
  715SOL     OW 2143   1.734   0.361   2.975  0.2304  0.2566 -0.2668
  715SOL    HW1 2144   1.746   0.456   2.945 -0.7107 -2.2390 -0.7819
  715SOL    HW2 2145   1.757   0.347   3.075  1.3497 -2.1965  0.9626
  716SOL     OW 2146   2.820   2.902   2.071 -0.1176  0.2137 -0.1315
  716SOL    HW1 2147   2.857   2.922   1.978  0.9639 -0.3590  1.7061
  716SOL    HW2 2148   2.878   2.836   2.121  0.0710 -0.1257  1.4765
  717SOL     OW 2149   0.064   0.743   0.868  0.1653 -0.1026  0.1832
  717SOL    HW1 2150   0.030   0.725   0.774  0.1556  1.6700 -0.0605
  717SOL    HW2 2151   0.067   0.651   0.921  0.8985 -4.6618 -0.1879
  718SOL     OW 2152   0.517   1.335   2.286 -0.3318  0.4210 -0.4769
  718SOL    HW1 2153   0.547   1.430   2.299  0.7676 -1.2628  1.4335
  718SOL    HW2 2154   0.478   1.313   2.197  1.5401 -0.1112  1.4021
  719SOL     OW 2155   2.369   1.455   3.093  0.0704 -0.7604  0.4694
  719SOL    HW1 2156   2.328   1.449   0.067  3.6143 -0.2527 -2.3128
  719SOL    HW2 2157   2.450   1.389   3.088 -2.4347  1.5188 -0.5400
  720SOL     OW 2158   1.247   0.667   0.747 -0.4608 -0.2153  0.1322
  720SOL    HW1 2159   1.176   0.599   0.719  1.9510  4.1498 -2.6621
  720SOL    HW2 2160   1.268   0.663   0.846  1.8198 -2.9758 -0.9879
  721SOL     OW 2161   2.611   0.253   0.267  0.1509  0.0730  0.4244
  721SOL    HW1 2162   2.642   0.312   0.194  1.4012 -0.8873  0.2558
  721SOL    HW2 2163   2.582   0.166   0.227  2.2251  0.9555  1.5069
  722SOL     OW 2164   2.083   0.659   2.742  0.0001 -0.2069 -0.0154
  722SOL    HW1 2165   2.180   0.680   2.758  0.7972  1.3603 -0.1852
  722SOL    HW2 2166   2.071   0.572   2.689 -0.2722  0.1231 -0.8900
  723SOL     OW 2167   2.670   0.657   0.380 -0.8923 -0.1286 -0.1720
  723SOL    HW1 2168   2.577   0.641   0.414  0.6060  0.7766 -0.2715
  723SOL    HW2 2169   2.737   0.621   0.447 -2.1600 -1.4107 -0.6284
  724SOL     OW 2170   0.887   1.562   2.100 -0.4598 -0.4854 -0.4245
  724SOL    HW1 2171   0.806   1.556   2.157  2.2760 -1.0598 -2.7734
  724SOL    HW2 2172   0.922   1.469   2.075  1.0484 -2.5768 -0.6361
  725SOL     OW 2173   1.921   0.630   1.985 -0.3041  0.0711  0.1124
  725SOL    HW1 2174   1.974   0.697   1.932 -1.4059 -0.2539  1.8131
  725SOL    HW2 2175   1.891   0.546   1.933 -0.9694 -0.9841 -2.0975
  726SOL     OW 2176   1.562   2.991   0.639  0.1867 -0.1392  0.1367
  726SOL    HW1 2177   1.562   2.896   0.675 -0.4309  0.2732  2.8201
  726SOL    HW2 2178   1.523   2.993   0.547 -1.1647  2.1741 -0.2279
  727SOL     OW 2179   1.461   1.678   2.114 -0.2726 -0.6024  0.0411
  727SOL    HW1 2180   1.362   1.642   2.100  0.2047 -1.5986  2.7896
  727SOL    HW2 2181   1.478   1.765   2.066  0.0240 -2.6077 -0.2128
  728SOL     OW 2182   1.902   2.860   1.634 -0.5643  0.4954  0.0003
  728SOL    HW1 2183   1.819   2.804   1.648  2.0706  0.8463 -0.2204
  728SOL    HW2 2184   1.944   2.884   1.721 -2.9672 -1.0791 -3.3852
  729SOL     OW 2185   2.168   1.125   0.860  0.7840  0.1398 -0.6800
  729SOL    HW1 2186   2.153   1.227   0.860  2.0706  2.0712 -3.1017
  729SOL    HW2 2187   2.181   1.088   0.766  1.1390  0.4621  0.6499
  730SOL     OW 2188   0.404   1.345   2.605  0.1983 -0.2730  0.0198
  730SOL    HW1 2189   0.463   1.397   2.673 -0.5708  2.9954 -1.7791
  730SOL    HW2 2190   0.451   1.257   2.574 -0.4280 -0.8964 -0.6813
  731SOL     OW 2191   0.259   0.106   0.816  0.2345  0.0710  0.0678
  731SOL    HW1 2192   0.167   0.116   0.770 -1.4827 -0.4295 -0.6225
  731SOL    HW2 2193   0.246   0.067   0.909 -0.6272  1.7213 -2.2385
  732SOL     OW 2194   1.254   0.868   0.331  0.2260 -0.0039  0.4259
  732SOL    HW1 2195   1.218   0.925   0.251  1.6597  2.2251  0.8286
  732SOL    HW2 2196   1.185   0.859   0.408 -0.7631 -1.2776  1.6161
  733SOL     OW 2197   0.629   1.650   0.979 -0.1020  0.1738 -0.0317
  733SOL    HW1 2198   0.659   1.552   0.982  0.6529  0.0557 -0.8754
  733SOL    HW2 2199   0.531   1.654   0.998  1.4017 -0.4423  0.2734
  734SOL     OW 2200   0.065   2.440   0.347  0.4118  0.4003 -0.5143
  734SOL    HW1 2201   3.105   2.412   0.281 -0.1671 -0.4153  0.8403
  734SOL    HW2 2202   0.028   2.443   0.441  0.4288  0.5889  1.3820
  735SOL     OW 2203   1.381   0.835   1.275  0.1237 -0.0305 -0.5228
  735SOL    HW1 2204   1.373   0.745   1.322 -0.0344 -4.0506 -2.6734
  735SOL    HW2 2205   1.476   0.853   1.241  0.7529  0.6638  0.5540
  736SOL     OW 2206   2.452   2.529   0.144 -0.0885  0.0480 -0.0975
  736SOL    HW1 2207   2.411   2.592   0.073  0.0188 -0.1324  0.8560
  736SOL    HW2 2208   2.384   2.501   0.217  1.0932  1.5631  3.1007
  737SOL     OW 2209   2.867   0.694   0.827  0.6817  0.0260 -0.5817
  737SOL    HW1 2210   2.876   0.614   0.889  1.2201 -0.7613  0.8503
  737SOL    HW2 2211   2.781   0.686   0.773 -0.5039  0.8591 -0.9305
  738SOL     OW 2212   2.598   0.214   1.035  0.4046 -0.3532 -0.4601
  738SOL    HW1 2213   2.684   0.165   1.052 -0.1387 -1.5932 -0.4736
  738SOL    HW2 2214   2.528   0.150   0.986  0.5513 -2.0504 -2.0770
  739SOL     OW 2215   1.192   2.605   0.198 -0.7212  0.9058  0.9127
  739SOL    HW1 2216   1.255   2.529   0.216 -0.2261  0.8199 -1.0940
  739SOL    HW2 2217   1.164   2.637   0.289 -1.5329 -1.1449 -0.3469
  740SOL     OW 2218   1.684   0.546   1.039 -0.1781 -0.3146  0.3115
  740SOL    HW1 2219   1.624   0.615   0.990  0.2247  1.6319  1.0783
  740SOL    HW2 2220   1.776   0.551   1.005  0.1433 -1.8738  1.3325
  741SOL     OW 2221   2.712   0.889   0.995 -0.3773 -0.1920 -0.5991
  741SOL    HW1 2222   2.806   0.927   0.994  1.6138 -2.1546  0.2386
  741SOL    HW2 2223   2.650   0.937   0.928  0.9483  0.0988 -0.2055
  742SOL     OW 2224   0.576   1.488   2.739  0.2931 -0.3653 -0.2191
  742SOL    HW1 2225   0.641   1.515   2.662  0.0022  0.0893 -0.7458
  742SOL    HW2 2226   0.552   1.572   2.793 -2.7405  1.3183 -0.9326
  743SOL     OW 2227   1.509   0.721   2.089 -0.4777 -0.3783  0.3737
  743SOL    HW1 2228   1.492   0.776   2.000  0.9123  0.7854 -1.3167
  743SOL    HW2 2229   1.590   0.761   2.138 -1.1215 -1.0048  1.9736
  744SOL     OW 2230   2.227   0.962   1.665  0.3731 -0.0926 -0.0904
  744SOL    HW1 2231   2.288   0.943   1.587  1.4299 -0.6099  1.7365
  744SOL    HW2 2232   2.233   1.054   1.710  0.8296 -1.0687  1.5435
  745SOL     OW 2233   1.391   1.634   1.559  0.3364 -0.3110  0.4804
  745SOL    HW1 2234   1.469   1.609   1.498  1.4197 -2.0286 -0.3546
  745SOL    HW2 2235   1.390   1.577   1.639  0.1402  0.3675  0.0470
  746SOL     OW 2236   1.905   1.693   0.786  0.4914 -0.1754 -0.2368
  746SOL    HW1 2237   1.801   1.695   0.777  0.0255  2.4794 -0.7349
  746SOL    HW2 2238   1.943   1.600   0.782 -0.6017  2.9048  2.2964
  747SOL     OW 2239   2.301   1.492   0.964 -0.2672 -0.2683  0.4909
  747SOL    HW1 2240   2.331   1.575   0.913  0.9618 -0.3687  0.6499
  747SOL    HW2 2241   2.224   1.448   0.915  0.6142 -0.6941 -0.7037
  748SOL     OW 2242   0.764   2.037   1.009  0.5174  0.3231 -0.6636
  748SOL    HW1 2243   0.666   2.024   0.980 -0.8640 -1.5354 -1.5216
  748SOL    HW2 2244   0.753   2.073   1.103  0.4807 -0.2524  0.7672
  749SOL     OW 2245   2.399   2.975   2.104 -0.2624 -0.8524 -0.4502
  749SOL    HW1 2246   2.337   3.011   2.029  1.5548 -0.4186 -0.6173
  749SOL    HW2 2247   2.406   2.876   2.101  0.2522 -1.1618 -0.1995
  750SOL     OW 2248   2.434   0.538   0.841  0.3587 -0.1748 -0.6733
  750SOL    HW1 2249   2.402   0.471   0.768  1.5499 -0.0395 -0.2303
  750SOL    HW2 2250   2.396   0.632   0.828 -1.5449 -3.1338  1.8589
  751SOL     OW 2251   2.703   3.004   0.540 -0.5969 -0.3386 -0.1303
  751SOL    HW1 2252   2.699   2.903   0.557  0.0016 -0.6097 -0.5207
  751SOL    HW2 2253   2.733   3.017   0.443 -1.7546 -1.4794  0.2806
  752SOL     OW 2254   0.129   2.850   0.649  0.2485  0.1409 -0.1865
  752SOL    HW1 2255   0.043   2.847   0.594  1.7796 -0.0933  1.2973
  752SOL    HW2 2256   0.208   2.876   0.592 -0.8377 -0.6711  0.9847
  753SOL     OW 2257   1.761   0.795   2.178 -0.2331 -0.2039  0.1914
  753SOL    HW1 2258   1.799   0.728   2.110  0.6408  0.3680 -4.0834
  753SOL    HW2 2259   1.826   0.804   2.253 -2.0894 -3.2407 -1.6298
  754SOL     OW 2260   1.240   2.389   2.008 -0.0421  0.7487  0.0156
  754SOL    HW1 2261   1.300   2.422   1.931 -1.1725 -1.1971 -1.6824
  754SOL    HW2 2262   1.260   2.289   2.021  0.6862 -1.0252  0.1641
  755SOL     OW 2263   2.631   0.662   0.688 -0.2184 -0.6770 -0.6994
  755SOL    HW1 2264   2.572   0.624   0.761  0.3837 -3.6612  1.0196
  755SOL    HW2 2265   2.587   0.734   0.635 -0.3929  0.1075  0.9172
  756SOL     OW 2266   1.113   1.661   2.718 -0.0595 -0.0154  0.5985
  756SOL    HW1 2267   1.159   1.589   2.774  0.5647 -0.3683 -0.0108
  756SOL    HW2 2268   1.064   1.731   2.774 -1.9148  1.3659  0.4963
  757SOL     OW 2269   0.913   0.001   0.524  0.1029  0.2877 -0.0741
  757SOL    HW1 2270   0.972   3.083   0.602  1.1367 -1.0488  1.3622
  757SOL    HW2 2271   0.974   0.024   0.445  0.1021  0.6350 -1.9787
  758SOL     OW 2272   1.233   0.037   1.209 -0.0400 -0.3432  0.1388
  758SOL    HW1 2273   1.212   3.081   1.137 -1.6302  1.1322  0.6564
  758SOL    HW2 2274   1.147   0.067   1.253 -1.6617 -1.3001 -2.1421
  759SOL     OW 2275   0.302   0.592   0.663  0.4731 -0.2887 -0.3748
  759SOL    HW1 2276   0.202   0.595   0.636 -0.8700  0.5614  1.1272
  759SOL    HW2 2277   0.316   0.537   0.746 -1.6612  0.1607 -3.4260
  760SOL     OW 2278   2.431   1.006   1.187 -0.1199  0.6700 -0.1710
  760SOL    HW1 2279   2.483   0.919   1.189  2.0876  0.9070  0.6384
  760SOL    HW2 2280   2.495   1.076   1.155  1.4165 -0.5240  0.0526
  761SOL     OW 2281   1.823   0.487   0.707 -0.3585  0.0790  0.3506
  761SOL    HW1 2282   1.764   0.414   0.744  1.9554 -0.5542 -2.3781
  761SOL    HW2 2283   1.915   0.484   0.749 -1.2952  0.8237 -1.2422
  762SOL     OW 2284   2.204   2.058   0.573 -0.0882  0.0722 -0.5041
  762SOL    HW1 2285   2.148   1.968   0.591 -2.9137 -0.2789 -1.1257
  762SOL    HW2 2286   2.138   2.136   0.569 -0.9151  1.6914 -1.7506
  763SOL     OW 2287   1.188   1.365   1.877 -0.1797 -0.2340  0.5640
  763SOL    HW1 2288   1.130   1.361   1.959  0.1522  2.5348  1.6569
  763SOL    HW2 2289   1.132   1.409   1.804  0.4609 -2.8649  0.5418
  764SOL     OW 2290   2.570   2.037   2.501 -0.4301  0.3331 -0.0365
  764SOL    HW1 2291   2.495   2.099   2.533 -0.9511 -1.2287  0.3452
  764SOL    HW2 2292   2.635   2.083   2.436  2.6194 -0.5007  0.6901
  765SOL     OW 2293   0.836   2.488   1.047 -0.1964  0.3187  0.0253
  765SOL    HW1 2294   0.754   2.494   0.989  0.7749 -1.2176 -0.5929
  765SOL    HW2 2295   0.889   2.577   1.046  1.2553  0.9935  1.8321
  766SOL     OW 2296   0.069   1.597   2.363 -0.8306  0.1083  0.0400
  766SOL    HW1 2297   0.172   1.595   2.373  1.4909 -1.5503 -0.8439
  766SOL    HW2 2298   0.050   1.579   2.267 -1.8998 -0.8555  0.4196
  767SOL     OW 2299   2.358   0.702   2.704  0.8510 -0.0338  0.1934
  767SOL    HW1 2300   2.442   0.726   2.755 -0.4687  0.6338 -1.5265
  767SOL    HW2 2301   2.373   0.637   2.632 -3.3926  2.9819  0.9094
  768SOL     OW 2302   0.872   0.054   2.479  0.2600 -0.3191  0.4353
  768SOL    HW1 2303   0.839   0.105   2.561  0.5228 -0.9584 -0.3967
  768SOL    HW2 2304   0.818   0.067   2.395  2.2890  0.0859  1.5123
  769SOL     OW 2305   0.196   2.417   0.860  0.3928  0.3503  0.1083
  769SOL    HW1 2306   0.235   2.451   0.777 -0.5596  0.3487  1.1047
  769SOL    HW2 2307   0.106   2.466   0.881 -2.4179  0.7191  0.9600
  770SOL     OW 2308   0.629   0.348   0.108  0.3261 -0.5814  0.1152
  770SOL    HW1 2309   0.560   0.380   0.036 -0.7064 -1.9667 -2.6897
  770SOL    HW2 2310   0.588   0.311   0.198 -2.5964  0.0907  1.0080
  771SOL     OW 2311   1.291   1.767   2.498  0.0202  0.6696 -0.0251
  771SOL    HW1 2312   1.236   1.717   2.566  2.8767  0.8511 -0.5624
  771SOL    HW2 2313   1.341   1.699   2.441  0.6072 -1.1561 -0.9200
  772SOL     OW 2314   2.376   0.011   2.333 -0.4162  0.1420 -0.0194
  772SOL    HW1 2315   2.389   3.073   2.248 -1.0875 -0.3038  0.3764
  772SOL    HW2 2316   2.289   3.108   2.381  1.8611  0.9643  0.4903
  773SOL     OW 2317   1.459   0.236   2.154 -0.2583 -0.3502 -0.7406
  773SOL    HW1 2318   1.480   0.272   2.246  1.4792 -0.5898 -0.0949
  773SOL    HW2 2319   1.492   0.306   2.087 -1.0018  2.7309 -0.8693
  774SOL     OW 2320   1.495   0.855   1.583  0.3500  0.2376 -0.3535
  774SOL    HW1 2321   1.405   0.879   1.535  1.0565 -0.4718  0.8072
  774SOL    HW2 2322   1.562   0.816   1.514 -1.1603  1.0234 -1.4298
  775SOL     OW 2323   2.238   3.041   0.394 -0.2562 -0.0332  0.0365
  775SOL    HW1 2324   2.232   3.087   0.307  0.0178 -0.8365  2.2539
  775SOL    HW2 2325   2.280   2.952   0.378  1.7829 -2.0185 -0.9451
  776SOL     OW 2326   2.218   0.881   2.121  0.2267  0.0476  0.1808
  776SOL    HW1 2327   2.122   0.915   2.128  0.0896  0.8420  1.0336
  776SOL    HW2 2328   2.291   0.949   2.117 -0.8610 -1.5356 -2.4729
  777SOL     OW 2329   3.065   1.422   2.533  0.3305 -0.1324 -0.0574
  777SOL    HW1 2330   2.975   1.410   2.492  0.2371  0.1212  0.4899
  777SOL    HW2 2331   3.111   1.497   2.485  0.1684  0.0374  0.6689
  778SOL     OW 2332   2.431   1.087   2.554  0.2823  0.4551  0.2237
  778SOL    HW1 2333   2.349   1.023   2.570 -2.5843 -1.7235  0.2614
  778SOL    HW2 2334   2.517   1.034   2.581  1.7855  0.8505 -0.7039
  779SOL     OW 2335   2.822   0.376   2.829  0.3946  0.3367  0.0404
  779SOL    HW1 2336   2.896   0.432   2.875  0.4656 -0.3606  1.2134
  779SOL    HW2 2337   2.861   0.284   2.798  2.0124  1.3080  1.9991
  780SOL     OW 2338   2.352   2.558   2.414  0.4209 -0.2508  0.3132
  780SOL    HW1 2339   2.283   2.493   2.376  0.2644  0.0451 -2.3058
  780SOL    HW2 2340   2.382   2.618   2.341 -4.2559 -1.0928  1.5578
  781SOL     OW 2341   3.021   0.969   1.785  0.3313  0.4792  0.0829
  781SOL    HW1 2342   2.966   0.963   1.870 -0.1546  0.2921  1.2495
  781SOL    HW2 2343   2.973   0.926   1.706  3.2752  1.3074 -0.0794
  782SOL     OW 2344   1.849   2.296   3.019 -0.4220  0.1758  0.3324
  782SOL    HW1 2345   1.778   2.305   2.942  2.5096  0.1143 -0.8911
  782SOL    HW2 2346   1.925   2.242   2.984 -0.8700  1.6096  1.8960
  783SOL     OW 2347   0.891   2.342   1.273 -0.1133  0.1749  0.0503
  783SOL    HW1 2348   0.854   2.394   1.354 -0.2658 -0.4215  0.6481
  783SOL    HW2 2349   0.840   2.360   1.186  0.9594 -1.4439 -1.0723
  784SOL     OW 2350   2.400   0.686   2.296 -0.1045  0.1973  0.1612
  784SOL    HW1 2351   2.359   0.676   2.202 -0.5905  0.9756  1.0394
  784SOL    HW2 2352   2.468   0.762   2.297 -1.0864  2.0927  2.7507
  785SOL     OW 2353   0.173   0.034   1.162 -0.0725  0.0103 -0.1739
  785SOL    HW1 2354   0.149   0.125   1.198  1.7302  1.1879  0.6499
  785SOL    HW2 2355   0.118   3.074   1.203 -1.8067 -0.7154 -2.1597
  786SOL     OW 2356   1.060   2.648   0.425 -0.0494  0.0691 -0.9012
  786SOL    HW1 2357   1.062   2.734   0.479 -1.0602 -0.3311  1.2903
  786SOL    HW2 2358   0.963   2.610   0.421 -1.9221 -0.1790 -2.5088
  787SOL     OW 2359   1.340   0.284   0.823  0.3882  0.4785 -0.0450
  787SOL    HW1 2360   1.363   0.314   0.729 -3.5830 -0.6638  0.8526
  787SOL    HW2 2361   1.385   0.196   0.845 -0.9535  1.5328 -2.6156
  788SOL     OW 2362   2.995   1.391   1.126  0.1188  0.0864 -0.6632
  788SOL    HW1 2363   3.064   1.422   1.054  1.7827 -0.8260 -2.4176
  788SOL    HW2 2364   3.044   1.334   1.193 -0.3995 -3.4840 -2.6645
  789SOL     OW 2365   2.754   0.760   2.219 -0.2462  0.1546  0.1174
  789SOL    HW1 2366   2.708   0.843   2.260  0.2331 -1.5084 -0.6195
  789SOL    HW2 2367   2.836   0.736   2.279  0.3576  1.0754  1.9789
  790SOL     OW 2368   1.048   0.765   2.814 -0.3674  0.3359  0.1672
  790SOL    HW1 2369   1.124   0.790   2.752 -1.8049 -1.2933  0.0153
  790SOL    HW2 2370   0.971   0.834   2.817 -3.3828 -1.2341 -0.9163
  791SOL     OW 2371   0.120   2.695   0.283 -0.3430 -0.2800  0.0358
  791SOL    HW1 2372   0.169   2.699   0.195 -0.9880 -0.6381  0.2225
  791SOL    HW2 2373   0.078   2.604   0.306 -1.0372 -0.1801  0.4913
  792SOL     OW 2374   1.292   0.557   2.041  0.5422  0.4226  0.6758
  792SOL    HW1 2375   1.378   0.608   2.030 -1.3056 -1.7700 -2.7841
  792SOL    HW2 2376   1.284   0.499   1.954 -0.9832 -2.4429 -1.2573
  793SOL     OW 2377   2.958   0.470   1.189 -0.2327  0.5410  0.2060
  793SOL    HW1 2378   2.886   0.483   1.253  0.6877  0.5662 -0.7964
  793SOL    HW2 2379   2.918   0.434   1.100  2.7581 -1.2696  0.3494
  794SOL     OW 2380   3.010   0.221   2.158 -0.0132  0.1842  0.0528
  794SOL    HW1 2381   2.976   0.133   2.197 -1.8178  0.1575 -1.1598
  794SOL    HW2 2382   3.098   0.256   2.197  2.0497 -1.1128  3.8851
  795SOL     OW 2383   0.477   1.845   0.030 -0.1507 -0.2391  0.0591
  795SOL    HW1 2384   0.485   1.766   0.093  1.4239 -0.5027  0.1183
  795SOL    HW2 2385   0.561   1.902   0.032  1.7340  2.5003 -1.0848
  796SOL     OW 2386   2.851   0.799   3.068 -0.1525 -0.0019  0.1924
  796SOL    HW1 2387   2.775   0.820   3.004  3.3554 -0.4232 -2.3400
  796SOL    HW2 2388   2.807   0.760   0.035 -2.8580  1.3684 -0.0051
  797SOL     OW 2389   2.424   2.229   2.640 -0.2711  0.1534  0.5178
  797SOL    HW1 2390   2.321   2.232   2.630 -0.4369  2.2476  2.1887
  797SOL    HW2 2391   2.458   2.325   2.617 -0.8811  1.9589  0.6957
  798SOL     OW 2392   3.013   0.111   1.070 -0.1564  0.3648 -0.0228
  798SOL    HW1 2393   3.103   0.120   1.110 -2.3699 -0.1666 -2.3663
  798SOL    HW2 2394   2.996   0.176   0.994 -1.4479 -0.9722  0.2962
  799SOL     OW 2395   2.887   0.584   1.611 -0.5770  0.3811  0.1289
  799SOL    HW1 2396   2.798   0.600   1.656 -1.1487 -0.0442 -2.4657
  799SOL    HW2 2397   2.893   0.637   1.526  0.6652  1.1529  0.4041
  800SOL     OW 2398   0.398   1.587   0.260  0.0262 -0.1881 -0.2494
  800SOL    HW1 2399   0.305   1.577   0.237  2.7803  0.6882  1.5252
  800SOL    HW2 2400   0.435   1.497   0.291 -0.9965 -0.7344 -2.1230
  801SOL     OW 2401   1.574   2.007   0.603 -0.0837  0.7557 -0.2518
  801SOL    HW1 2402   1.485   2.021   0.563  1.4429 -0.8301 -0.4829
  801SOL    HW2 2403   1.566   1.935   0.679  0.2722  1.1649  1.2293
  802SOL     OW 2404   1.425   0.987   2.933 -0.2464 -0.2584  0.3089
  802SOL    HW1 2405   1.410   0.978   2.833 -0.1190  2.4337 -0.8421
  802SOL    HW2 2406   1.402   0.901   2.983  0.1801  0.5207 -0.0693
  803SOL     OW 2407   1.209   1.764   1.867  0.5810 -0.2102 -0.0641
  803SOL    HW1 2408   1.181   1.840   1.932 -0.5773  1.8110  1.6248
  803SOL    HW2 2409   1.269   1.689   1.906 -1.8168 -2.9938 -0.7610
  804SOL     OW 2410   1.482   2.462   0.742  0.2010  0.2429  0.1715
  804SOL    HW1 2411   1.542   2.386   0.737 -2.4372 -2.3006  1.4350
  804SOL    HW2 2412   1.385   2.432   0.763 -1.1393 -0.8963  0.8455
  805SOL     OW 2413   0.030   2.432   2.091 -0.4305 -0.3661  0.3099
  805SOL    HW1 2414   0.001   2.390   2.000  1.2375 -0.9196 -0.6235
  805SOL    HW2 2415   0.131   2.437   2.085 -1.6567  1.6992 -2.7009
  806SOL     OW 2416   0.233   0.028   0.510  0.3822 -0.1851  0.2484
  806SOL    HW1 2417   0.227   0.116   0.460  1.1828 -0.5157 -2.0701
  806SOL    HW2 2418   0.212   3.066   0.445  1.2722 -0.2427  1.6344
  807SOL     OW 2419   2.605   0.826   2.901 -0.6458 -0.3172 -0.4599
  807SOL    HW1 2420   2.515   0.827   2.951 -2.2981  0.8078 -0.2538
  807SOL    HW2 2421   2.634   0.730   2.880 -0.9847  1.4227 -1.3856
  808SOL     OW 2422   1.338   2.772   0.857 -0.1268  0.2942  0.4896
  808SOL    HW1 2423   1.288   2.691   0.888 -0.9874  0.3392  0.2656
  808SOL    HW2 2424   1.435   2.742   0.838  1.0173 -2.3105  0.2075
  809SOL     OW 2425   3.003   0.161   0.392 -0.2804  0.6039  0.1806
  809SOL    HW1 2426   2.967   0.096   0.320 -2.3126 -1.4557 -3.4714
  809SOL    HW2 2427   3.094   0.196   0.357 -2.9617  0.8179  0.2788
  810SOL     OW 2428   1.293   1.315   0.945 -0.4180 -0.1657 -0.4026
  810SOL    HW1 2429   1.235   1.289   1.028  1.3105 -0.3042 -0.6294
  810SOL    HW2 2430   1.355   1.239   0.916 -1.9676 -1.6460 -2.4364
  811SOL     OW 2431   1.601   2.885   1.436 -0.4277 -0.0790  0.2651
  811SOL    HW1 2432   1.629   2.873   1.533  1.2115 -1.8381 -1.3444
  811SOL    HW2 2433   1.577   2.982   1.418  1.6806 -0.8137  0.0557
  812SOL     OW 2434   1.449   0.302   0.170  0.0245 -0.2064 -0.2913
  812SOL    HW1 2435   1.448   0.305   0.272  2.2079  2.6329  2.1848
  812SOL    HW2 2436   1.361   0.280   0.131  0.2308 -0.8862 -0.5666
  813SOL     OW 2437   1.218   3.089   1.916  0.0954 -0.4926  0.0320
  813SOL    HW1 2438   1.197   0.011   2.007  1.7914 -1.4334 -1.8414
  813SOL    HW2 2439   1.315   0.001   1.895  1.1942 -0.5681 -3.6974
  814SOL     OW 2440   0.513   2.945   0.847  0.2439 -0.0273 -0.1211
  814SOL    HW1 2441   0.602   2.998   0.847 -0.7020  0.0081 -1.1010
  814SOL    HW2 2442   0.453   2.957   0.931 -2.1299  1.8825  2.3530
  815SOL     OW 2443   0.272   2.608   0.648 -0.6264  0.1939  0.0373
  815SOL    HW1 2444   0.191   2.662   0.682 -0.9102 -0.8006  1.5563
  815SOL    HW2 2445   0.259   2.559   0.562 -1.2568  1.0273  0.9033
  816SOL     OW 2446   2.602   1.472   2.569 -0.1259 -0.4312 -0.2649
  816SOL    HW1 2447   2.545   1.403   2.613  0.3900  2.7624 -0.9704
  816SOL    HW2 2448   2.546   1.542   2.517  0.2641 -0.7964  0.4331
  817SOL     OW 2449   1.615   2.594   2.874 -0.5397  0.2095 -0.1623
  817SOL    HW1 2450   1.637   2.499   2.884  0.2566 -0.1944  1.2806
  817SOL    HW2 2451   1.690   2.643   2.827 -0.2347 -3.0295 -1.1078
  818SOL     OW 2452   1.456   1.051   0.408  0.0382 -0.0805 -0.2633
  818SOL    HW1 2453   1.448   1.113   0.327 -0.7687  1.5557  1.3899
  818SOL    HW2 2454   1.383   0.979   0.398  0.3354  2.9373 -0.1241
  819SOL     OW 2455   1.867   1.935   2.823 -0.1730 -0.6591 -0.5023
  819SOL    HW1 2456   1.778   1.898   2.841  2.5254 -0.1134  0.3343
  819SOL    HW2 2457   1.922   1.861   2.774  1.5824  0.0221 -0.1552
  820SOL     OW 2458   0.713   0.703   0.214 -0.3078  0.1452 -0.2130
  820SOL    HW1 2459   0.740   0.734   0.119 -1.5427 -1.3287 -3.0478
  820SOL    HW2 2460   0.778   0.631   0.245  4.3951 -1.3776  0.5374
  821SOL     OW 2461   0.574   0.209   0.992 -0.4964  0.2381 -0.5432
  821SOL    HW1 2462   0.542   0.265   0.918  0.4056 -2.1197  2.4108
  821SOL    HW2 2463   0.616   0.264   1.068 -0.5389  2.8665 -0.6679
  822SOL     OW 2464   1.579   2.529   2.430 -0.3041 -0.3429  0.0343
  822SOL    HW1 2465   1.649   2.466   2.467 -1.8630  2.4702 -0.9512
  822SOL    HW2 2466   1.525   2.490   2.350 -1.5279 -3.0812 -0.4640
  823SOL     OW 2467   0.945   0.974   2.207 -0.4645 -0.5675 -0.2559
  823SOL    HW1 2468   1.032   0.976   2.151 -1.9952  1.2340 -0.1351
  823SOL    HW2 2469   0.955   0.923   2.295 -1.4631  0.6910 -0.8036
  824SOL     OW 2470   2.385   0.250   1.705 -0.1838 -0.0619 -0.5200
  824SOL    HW1 2471   2.331   0.166   1.683 -0.3839  0.7123  2.2689
  824SOL    HW2 2472   2.451   0.237   1.784 -0.2745  0.8397  0.7816
  825SOL     OW 2473   0.719   1.338   0.095  0.3702 -0.3203  0.5330
  825SOL    HW1 2474   0.796   1.279   0.067  1.6654 -3.1136  2.4704
  825SOL    HW2 2475   0.732   1.431   0.066  2.2778 -1.2729  0.1988
  826SOL     OW 2476   2.046   0.427   2.601 -0.2790  0.0575 -0.2668
  826SOL    HW1 2477   2.067   0.357   2.679  1.4247 -2.3935  3.2841
  826SOL    HW2 2478   1.958   0.405   2.555 -0.9099  0.9494 -0.6470
  827SOL     OW 2479   0.640   2.245   2.513 -0.6199 -0.1380 -0.1087
  827SOL    HW1 2480   0.619   2.281   2.419  0.3994 -0.8015 -0.0843
  827SOL    HW2 2481   0.587   2.302   2.585 -1.0089  1.2145  0.0288
  828SOL     OW 2482   2.807   0.155   1.291  0.4548  0.6176 -0.3957
  828SOL    HW1 2483   2.863   0.125   1.211 -0.7669 -1.9265 -1.2045
  828SOL    HW2 2484   2.822   0.249   1.324 -2.6851 -0.8728 -2.9489
  829SOL     OW 2485   1.162   1.724   1.475  0.2106  0.0676  0.4515
  829SOL    HW1 2486   1.251   1.693   1.512 -1.1074  2.4817  1.5447
  829SOL    HW2 2487   1.089   1.736   1.545  1.7845  0.1176  2.3326
  830SOL     OW 2488   0.607   0.959   1.808  0.3218 -0.2272  0.1324
  830SOL    HW1 2489   0.679   0.912   1.753 -0.4395 -2.0502 -0.5819
  830SOL    HW2 2490   0.531   0.989   1.745  3.1043 -0.8047  0.9117
  831SOL     OW 2491   0.111   1.763   0.103  0.0133 -0.4236 -0.6599
  831SOL    HW1 2492   0.014   1.783   0.128  0.9348  1.1553 -1.7505
  831SOL    HW2 2493   0.168   1.844   0.113 -1.6408  1.8018 -0.2449
  832SOL     OW 2494   0.854   2.959   2.909 -0.4209 -0.1217  0.2089
  832SOL    HW1 2495   0.945   2.995   2.926 -2.1164 -2.0563 -4.3432
  832SOL    HW2 2496   0.835   2.889   2.977 -0.4325  0.1901 -1.3498
  833SOL     OW 2497   2.899   0.339   1.942  0.4579 -0.1256 -0.2559
  833SOL    HW1 2498   2.951   0.295   2.017  0.0859 -2.2515 -3.5184
  833SOL    HW2 2499   2.940   0.431   1.917  1.9804  1.7875  1.2793
  834SOL     OW 2500   0.300   0.841   0.982 -0.4581  0.0589 -0.0094
  834SOL    HW1 2501   0.347   0.933   0.963  3.2597  2.7658  0.6885
  834SOL    HW2 2502   0.210   0.825   0.934  1.1944 -0.3758  0.2237
  835SOL     OW 2503   2.515   2.905   0.907  0.2298 -0.4839  0.5408
  835SOL    HW1 2504   2.458   2.943   0.830  0.5497  1.8735  1.4452
  835SOL    HW2 2505   2.605   2.957   0.907  1.0940 -0.1604 -2.0717
  836SOL     OW 2506   0.761   1.937   2.834 -0.0683 -0.2167 -0.4311
  836SOL    HW1 2507   0.729   1.975   2.746  1.5079 -0.8255  2.0268
  836SOL    HW2 2508   0.844   1.989   2.863  0.6119 -3.2512  1.4357
  837SOL     OW 2509   2.064   2.143   2.922  0.3855  0.1156 -0.5725
  837SOL    HW1 2510   1.982   2.086   2.900 -2.3602  1.2595 -1.8061
  837SOL    HW2 2511   2.148   2.089   2.890  0.3567  1.4592  0.2162
  838SOL     OW 2512   3.088   1.064   2.273 -0.0490  0.0484 -0.0563
  838SOL    HW1 2513   3.078   1.004   2.356  0.4498 -0.3881  1.2668
  838SOL    HW2 2514   0.030   1.146   2.289  0.6878 -0.9119  2.8771
  839SOL     OW 2515   0.985   0.989   3.103 -0.3966  0.0429  0.2634
  839SOL    HW1 2516   0.968   1.046   3.019  2.3067  1.5615  0.3521
  839SOL    HW2 2517   1.081   0.999   0.020  1.2018 -3.5405 -2.5565
  840SOL     OW 2518   1.603   0.657   0.283 -0.6940  0.5479  0.0302
  840SOL    HW1 2519   1.660   0.742   0.299  1.3847 -0.8750 -0.5871
  840SOL    HW2 2520   1.513   0.654   0.331  0.6854 -1.5149 -1.4182
  841SOL     OW 2521   0.823   2.731   0.751 -0.1498  0.9803 -0.5643
  841SOL    HW1 2522   0.759   2.652   0.756 -2.8523  4.1826  0.2494
  841SOL    HW2 2523   0.820   2.777   0.662  0.1271 -4.1978  1.2669
  842SOL     OW 2524   0.233   0.580   0.358 -0.2039  0.4171  0.3721
  842SOL    HW1 2525   0.139   0.583   0.318 -1.5160  1.6284 -0.3062
  842SOL    HW2 2526   0.276   0.671   0.376 -0.0685 -3.8368  1.7576
  843SOL     OW 2527   0.723   0.611   1.644  0.3566  0.1583  0.4742
  843SOL    HW1 2528   0.765   0.651   1.728 -2.4378  0.3383 -0.8782
  843SOL    HW2 2529   0.630   0.637   1.626  1.8219 -0.1856  0.6774
  844SOL     OW 2530   2.125   2.537   2.834  0.2963  0.1930 -0.0630
  844SOL    HW1 2531   2.095   2.601   2.906 -0.2313 -1.8283 -0.0077
  844SOL    HW2 2532   2.191   2.469   2.873  0.4522 -1.6792  4.1470
  845SOL     OW 2533   2.643   0.049   1.782  1.1412 -0.7290  0.2977
  845SOL    HW1 2534   2.585   0.059   1.866 -0.1847 -2.2783  3.0011
  845SOL    HW2 2535   2.658   3.067   1.761 -0.8792  0.1901  0.4920
  846SOL     OW 2536   1.997   1.719   2.723 -0.8156  0.5391 -0.1405
  846SOL    HW1 2537   2.033   1.623   2.721  3.6988  0.8817  0.9041
  846SOL    HW2 2538   2.057   1.768   2.659  0.0180 -1.0125  1.1316
  847SOL     OW 2539   2.039   2.887   1.909 -0.0216 -0.2939 -0.1325
  847SOL    HW1 2540   1.969   2.868   1.980  2.6389 -0.2013 -1.6571
  847SOL    HW2 2541   2.114   2.820   1.920 -0.2162  2.9997  0.0857
  848SOL     OW 2542   0.264   2.910   0.362 -0.3064  0.0141  0.1769
  848SOL    HW1 2543   0.358   2.890   0.330  4.7790 -0.8599  1.2566
  848SOL    HW2 2544   0.205   2.837   0.333  0.0935 -2.0800 -1.5743
  849SOL     OW 2545   0.614   2.917   1.382  0.4241 -0.1810  0.5118
  849SOL    HW1 2546   0.664   2.999   1.347  3.9883  0.8368  1.2480
  849SOL    HW2 2547   0.547   2.941   1.458  0.0669 -0.1050 -0.6194
  850SOL     OW 2548   0.009   1.552   0.934  0.1721  0.6853  0.3314
  850SOL    HW1 2549   3.058   1.610   0.884  1.1196  0.7877 -0.3805
  850SOL    HW2 2550   0.069   1.606   0.996 -0.5792  0.5532 -1.5599
  851SOL     OW 2551   2.980   0.589   2.951  0.2680  0.0954 -0.2478
  851SOL    HW1 2552   3.032   0.634   2.883 -0.5399 -1.3345  1.9242
  851SOL    HW2 2553   2.919   0.656   3.001 -1.7094  0.7172  0.8979
  852SOL     OW 2554   1.989   2.119   2.370 -0.0501  0.3028 -0.2063
  852SOL    HW1 2555   1.923   2.064   2.428 -2.0644 -1.2120  1.9170
  852SOL    HW2 2556   2.055   2.063   2.318 -0.8954 -2.1243  2.2223
  853SOL     OW 2557   0.669   1.583   0.544  0.7360 -0.3867  0.0297
  853SOL    HW1 2558   0.680   1.486   0.576 -0.3280  3.7278  0.2664
  853SOL    HW2 2559   0.698   1.599   0.445  1.1242  0.5026 -0.8180
  854SOL     OW 2560   1.677   1.310   1.883 -0.8846 -0.2523  0.5314
  854SOL    HW1 2561   1.597   1.255   1.901  0.4742 -0.9762 -1.1608
  854SOL    HW2 2562   1.760   1.251   1.860 -0.0588 -0.5363  0.4891
  855SOL     OW 2563   0.395   1.990   2.729 -0.2044 -0.2343 -0.3520
  855SOL    HW1 2564   0.353   1.915   2.784  2.3182  0.4831  0.0617
  855SOL    HW2 2565   0.382   2.082   2.771 -0.3876 -0.3487 -1.8688
  856SOL     OW 2566   0.210   0.002   1.599 -0.2041  0.2137 -0.1235
  856SOL    HW1 2567   0.139   3.097   1.525  0.6136 -1.2820 -0.6077
  856SOL    HW2 2568   0.174   0.037   1.689 -0.5644  0.0496  0.9011
  857SOL     OW 2569   0.627   0.287   1.675  1.0308 -0.2538 -0.5603
  857SOL    HW1 2570   0.636   0.362   1.741 -2.0119 -2.5195 -1.6506
  857SOL    HW2 2571   0.621   0.318   1.578  0.5301  0.6203 -1.3860
  858SOL     OW 2572   0.082   2.034   2.391  0.1713  0.1394 -0.0101
  858SOL    HW1 2573   0.046   2.003   2.481 -0.3432  1.2082 -1.8073
  858SOL    HW2 2574   0.054   2.133   2.370 -0.7524 -0.6157 -0.8286
  859SOL     OW 2575   2.101   2.357   0.745 -0.1879  0.0016 -0.2150
  859SOL    HW1 2576   2.137   2.288   0.808  1.9946 -0.2779  0.5942
  859SOL    HW2 2577   2.000   2.362   0.756 -0.5139 -2.5781  0.9264
  860SOL     OW 2578   1.806   0.536   0.400 -0.3444 -0.3460  0.0324
  860SOL    HW1 2579   1.823   0.513   0.502  0.9865 -0.7363 -1.2514
  860SOL    HW2 2580   1.714   0.575   0.384  1.0660  0.8843 -0.8305
  861SOL     OW 2581   0.341   0.540   0.936 -0.1948  0.3055 -0.5425
  861SOL    HW1 2582   0.372   0.634   0.961  1.4714 -0.9818  0.6974
  861SOL    HW2 2583   0.248   0.514   0.967  0.2222 -0.5286  2.5569
  862SOL     OW 2584   2.322   0.733   1.764 -0.2595 -0.8526 -0.0207
  862SOL    HW1 2585   2.293   0.658   1.702  0.9543  0.7581 -0.6696
  862SOL    HW2 2586   2.270   0.820   1.734  1.5748 -1.3085  0.4722
  863SOL     OW 2587   0.276   1.326   1.209 -0.2516 -0.2939 -0.4411
  863SOL    HW1 2588   0.312   1.296   1.119  0.2520  0.1189  1.5288
  863SOL    HW2 2589   0.303   1.426   1.226  2.9280 -2.0103  3.3502
  864SOL     OW 2590   2.504   0.222   1.937  1.1827  0.1988  0.0196
  864SOL    HW1 2591   2.419   0.253   1.979  4.7207  2.9041 -4.2963
  864SOL    HW2 2592   2.580   0.239   2.000 -1.1631 -1.5746 -0.5350
  865SOL     OW 2593   1.692   0.459   2.290  0.2683  0.0956 -0.4278
  865SOL    HW1 2594   1.651   0.436   2.202  1.2160  2.9458  1.2040
  865SOL    HW2 2595   1.795   0.470   2.279  2.7108 -0.4685  1.7115
  866SOL     OW 2596   2.439   3.049   0.645 -0.4199 -0.0243  0.0455
  866SOL    HW1 2597   2.387   2.964   0.624  0.5514  1.0612  1.9918
  866SOL    HW2 2598   2.526   3.048   0.596 -0.0764 -1.1611 -0.8860
  867SOL     OW 2599   2.510   2.633   0.836  0.3691 -0.2564 -0.4011
  867SOL    HW1 2600   2.520   2.723   0.888 -0.3353 -0.2405  0.6770
  867SOL    HW2 2601   2.416   2.595   0.853 -0.8708 -0.1481  2.2763
  868SOL     OW 2602   1.617   1.774   2.780 -0.4765  0.2843 -0.5112
  868SOL    HW1 2603   1.522   1.808   2.785  0.8231 -0.9844 -1.5250
  868SOL    HW2 2604   1.639   1.708   2.857  1.4061  2.5362  0.5604
  869SOL     OW 2605   2.421   1.868   0.539  0.2665 -0.1476  0.0391
  869SOL    HW1 2606   2.428   1.794   0.464  1.3852  0.7098 -0.4472
  869SOL    HW2 2607   2.341   1.932   0.529 -1.7488  1.3641 -1.1329
  870SOL     OW 2608   2.833   1.975   0.378  0.0321  0.3865 -0.4231
  870SOL    HW1 2609   2.762   1.902   0.376  0.4839 -0.1402  1.0942
  870SOL    HW2 2610   2.814   2.047   0.314  0.3493 -1.3476  0.4724
  871SOL     OW 2611   0.373   0.949   1.625 -0.1386  0.2839  0.3737
  871SOL    HW1 2612   0.346   1.007   1.547  0.6648  0.6767  0.7653
  871SOL    HW2 2613   0.384   0.854   1.598  1.8668 -1.9919  0.8491
  872SOL     OW 2614   0.246   1.737   2.139 -1.0464 -0.2549  0.0566
  872SOL    HW1 2615   0.180   1.661   2.127 -2.0831  2.5077 -1.3399
  872SOL    HW2 2616   0.339   1.704   2.109 -0.5983 -1.9922  0.2507
  873SOL     OW 2617   0.076   2.713   1.440  0.2252  0.4956 -0.8499
  873SOL    HW1 2618   0.061   2.672   1.349  1.0598  0.1086 -0.1363
  873SOL    HW2 2619   0.171   2.695   1.476  2.5062 -0.9452  1.2134
  874SOL     OW 2620   1.075   0.722   2.001  0.3882  0.4251 -0.5034
  874SOL    HW1 2621   1.098   0.820   2.006 -2.1191 -1.3461 -0.1680
  874SOL    HW2 2622   1.158   0.668   2.025  0.6770  3.3188  0.1529
  875SOL     OW 2623   2.768   3.031   0.958  0.4863  0.3546  0.6395
  875SOL    HW1 2624   2.839   2.996   1.021  1.6289 -1.8495  0.5818
  875SOL    HW2 2625   2.807   3.041   0.866  0.8087 -2.8518  2.3815
  876SOL     OW 2626   1.135   1.323   0.384  0.6027  0.1593 -0.2763
  876SOL    HW1 2627   1.119   1.422   0.350  1.2231  1.9681 -1.8869
  876SOL    HW2 2628   1.188   1.322   0.470 -0.1415  1.6010  0.1043
  877SOL     OW 2629   1.269   0.739   1.035  0.7753 -0.8588  0.2210
  877SOL    HW1 2630   1.182   0.687   1.060  0.2936 -2.1254 -1.0971
  877SOL    HW2 2631   1.298   0.794   1.113 -1.1241 -2.4910 -0.4242
  878SOL     OW 2632   2.387   2.040   0.281  0.0520  0.2446  0.1321
  878SOL    HW1 2633   2.379   2.103   0.362  0.3288 -0.8948  1.2563
  878SOL    HW2 2634   2.437   2.086   0.207  2.0644 -1.1741 -1.4365
  879SOL     OW 2635   2.633   1.993   1.725  0.3477  0.1743  0.0599
  879SOL    HW1 2636   2.644   1.941   1.813  1.6491 -0.5999  0.0248
  879SOL    HW2 2637   2.657   2.089   1.736  1.4414 -2.2640 -2.6644
  880SOL     OW 2638   1.148   2.300   1.153  0.5222  0.2570 -0.1955
  880SOL    HW1 2639   1.216   2.368   1.190 -3.2980  3.1372  1.7411
  880SOL    HW2 2640   1.052   2.324   1.183 -1.2672  0.1180  0.7542
  881SOL     OW 2641   0.898   2.112   0.539 -0.7543 -0.5239  0.2072
  881SOL    HW1 2642   0.925   2.115   0.640  0.1493  3.4453 -0.2058
  881SOL    HW2 2643   0.799   2.088   0.523  1.5424  1.5773 -2.6886
  882SOL     OW 2644   1.910   1.601   3.071  0.2367 -0.1135 -0.7697
  882SOL    HW1 2645   1.902   1.510   3.025  2.3104 -0.9430 -1.3646
  882SOL    HW2 2646   1.957   1.589   0.044 -1.4922 -0.5769 -0.4597
  883SOL     OW 2647   1.678   0.755   1.395 -0.5830  0.2543  0.1153
  883SOL    HW1 2648   1.660   0.803   1.304 -0.5812 -0.5111 -2.7099
  883SOL    HW2 2649   1.779   0.733   1.398  6.6629  3.0798 -0.7084
  884SOL     OW 2650   2.957   2.738   0.736 -0.2689 -0.2998 -0.0000
  884SOL    HW1 2651   2.886   2.761   0.666 -1.3747  0.6151 -1.0759
  884SOL    HW2 2652   2.970   2.825   0.792  1.3876  1.2590 -3.2441
  885SOL     OW 2653   1.054   1.338   2.098 -0.3757  0.1082  0.2576
  885SOL    HW1 2654   0.985   1.261   2.106 -1.2808 -2.7214 -0.9478
  885SOL    HW2 2655   1.091   1.355   2.194  0.4281 -2.4992  1.3672
  886SOL     OW 2656   0.831   1.527   2.590  0.1888 -0.4915  0.1830
  886SOL    HW1 2657   0.907   1.566   2.644 -1.3971 -1.0921 -2.0662
  886SOL    HW2 2658   0.840   1.430   2.569  2.2690 -1.9035  0.0924
  887SOL     OW 2659   1.525   0.754   0.922 -0.0196 -0.4009  0.3439
  887SOL    HW1 2660   1.520   0.738   0.818  0.6302  0.3736 -2.3062
  887SOL    HW2 2661   1.439   0.743   0.969  1.2269  0.8947 -0.0615
  888SOL     OW 2662   2.140   0.591   2.398 -0.0300 -0.0546 -0.0439
  888SOL    HW1 2663   2.123   0.514   2.462 -0.4903  2.2177 -1.7136
  888SOL    HW2 2664   2.241   0.614   2.392 -1.8031 -2.7429  2.9768
  889SOL     OW 2665   2.810   1.947   0.825 -0.0118  0.3182  0.0345
  889SOL    HW1 2666   2.752   1.976   0.746 -1.9293  0.4064 -0.8348
  889SOL    HW2 2667   2.848   2.025   0.876 -1.1628 -1.5345  0.8338
  890SOL     OW 2668   1.079   2.317   0.193 -0.3366 -0.5993 -0.3291
  890SOL    HW1 2669   1.175   2.342   0.202 -1.8202 -0.3602 -3.3402
  890SOL    HW2 2670   1.061   2.233   0.247 -0.7299 -0.3260  0.6511
  891SOL     OW 2671   2.638   0.571   2.824  0.0238 -0.0209  0.0265
  891SOL    HW1 2672   2.705   0.497   2.855  1.8379 -0.2988 -0.3505
  891SOL    HW2 2673   2.676   0.612   2.743  1.8315 -1.0771  2.2774
  892SOL     OW 2674   2.944   2.133   0.970  0.0753 -0.2368 -0.3854
  892SOL    HW1 2675   3.038   2.160   1.004 -0.1287  0.7608  0.8322
  892SOL    HW2 2676   2.879   2.167   1.037  3.3325  0.0245 -0.4442
  893SOL     OW 2677   1.440   0.362   1.072 -0.0650 -0.3687  0.3458
  893SOL    HW1 2678   1.404   0.324   0.985  2.9843 -1.1693 -1.3274
  893SOL    HW2 2679   1.518   0.427   1.051 -0.5798 -0.5676 -2.0738
  894SOL     OW 2680   2.816   0.432   0.970  0.1941 -0.9175 -0.5144
  894SOL    HW1 2681   2.843   0.424   0.873 -0.6926 -0.1133 -1.1308
  894SOL    HW2 2682   2.716   0.440   0.977  0.3348 -2.6073 -2.7653
  895SOL     OW 2683   1.734   1.728   2.544  0.4389 -0.2194  0.0283
  895SOL    HW1 2684   1.748   1.630   2.533 -0.8519  1.3857  0.6760
  895SOL    HW2 2685   1.695   1.746   2.639  0.3834  0.2342 -0.1191
  896SOL     OW 2686   1.928   0.857   1.745 -0.5890 -0.0662 -0.3237
  896SOL    HW1 2687   2.022   0.853   1.713 -0.1713  1.7621 -0.7089
  896SOL    HW2 2688   1.872   0.796   1.690  0.5565  1.1589  2.5040
  897SOL     OW 2689   0.036   1.205   1.237 -0.4460  0.0711 -0.0905
  897SOL    HW1 2690   0.130   1.250   1.245 -0.3083 -1.9002  2.5603
  897SOL    HW2 2691   0.061   1.105   1.255 -0.6883 -1.0347  1.7306
  898SOL     OW 2692   2.098   2.505   2.157  0.1420  0.0358 -0.1883
  898SOL    HW1 2693   2.045   2.556   2.231  1.2069  0.6412 -0.5140
  898SOL    HW2 2694   2.142   2.417   2.192  1.4893  2.4246  0.7809
  899SOL     OW 2695   0.945   1.549   1.109  0.1012  0.4178 -0.5226
  899SOL    HW1 2696   1.038   1.575   1.154  1.8551 -2.0698 -1.7935
  899SOL    HW2 2697   0.893   1.633   1.102  1.8588 -0.4742 -0.6600
  900SOL     OW 2698   1.013   2.884   2.312  0.0419 -0.5303 -0.1534
  900SOL    HW1 2699   1.113   2.880   2.335  2.1515  0.0657 -2.3385
  900SOL    HW2 2700   0.999   2.929   2.223 -0.7724  0.6335 -1.2817
  901SOL     OW 2701   0.698   1.572   2.340  0.6822 -0.4468  0.0367
  901SOL    HW1 2702   0.651   1.656   2.369 -0.6985 -1.4879 -2.9674
  901SOL    HW2 2703   0.754   1.533   2.415 -1.3570  1.5715  3.2589
  902SOL     OW 2704   2.274   1.096   2.906 -0.4629  0.2708  0.2230
  902SOL    HW1 2705   2.230   1.097   2.997  4.4177  0.8561 -3.1201
  902SOL    HW2 2706   2.270   1.187   2.858 -0.7521  3.0697 -0.3819
  903SOL     OW 2707   1.906   1.374   2.950 -0.2553  0.7906  0.3318
  903SOL    HW1 2708   1.995   1.370   2.891 -0.5216 -0.2575 -3.2297
  903SOL    HW2 2709   1.848   1.291   2.928  0.5097 -0.7381 -1.8278
  904SOL     OW 2710   1.345   0.896   2.257 -0.7344 -0.2794  0.1690
  904SOL    HW1 2711   1.389   0.820   2.212 -1.3793  1.4903  2.7854
  904SOL    HW2 2712   1.281   0.869   2.330  1.2891  2.5104 -0.3316
  905SOL     OW 2713   2.560   0.464   1.076 -0.2233 -0.8767 -0.3146
  905SOL    HW1 2714   2.571   0.360   1.072  0.8387 -0.7462 -0.7408
  905SOL    HW2 2715   2.502   0.496   0.994 -0.5435  0.1341 -0.3811
  906SOL     OW 2716   0.329   1.479   0.693 -0.0656 -0.3996  0.3010
  906SOL    HW1 2717   0.411   1.430   0.654  1.1923 -0.8004 -0.8043
  906SOL    HW2 2718   0.238   1.442   0.659 -2.1936  1.9611 -1.6709
  907SOL     OW 2719   1.309   0.005   0.438  0.4886  0.2413 -0.1925
  907SOL    HW1 2720   1.244   0.016   0.518 -2.2472 -0.2546 -0.7336
  907SOL    HW2 2721   1.363   0.089   0.419 -1.8708 -2.7775 -0.3978
  908SOL     OW 2722   1.458   2.582   1.521 -0.0882  0.3539  0.6431
  908SOL    HW1 2723   1.481   2.553   1.424  1.0015 -0.4987  0.4886
  908SOL    HW2 2724   1.365   2.629   1.529 -1.1489 -0.6852  1.0190
  909SOL     OW 2725   2.538   0.831   1.930  0.1292 -0.4501  0.2099
  909SOL    HW1 2726   2.581   0.753   1.979  1.0689  1.6571  0.2006
  909SOL    HW2 2727   2.459   0.799   1.873  2.1500 -1.0955 -0.7796
  910SOL     OW 2728   1.262   2.951   2.421  0.7223  0.8265  0.5263
  910SOL    HW1 2729   1.296   3.039   2.375  1.7480  1.6580  0.1010
  910SOL    HW2 2730   1.298   2.863   2.386  0.7419  0.8242  1.6109
  911SOL     OW 2731   2.424   1.667   2.511 -0.1999 -0.2760 -0.0615
  911SOL    HW1 2732   2.464   1.692   2.424 -0.5891  0.2423  0.5302
  911SOL    HW2 2733   2.334   1.621   2.496  2.2963  0.6468  0.8748
  912SOL     OW 2734   2.354   2.120   1.398 -0.2940 -0.5575  0.1982
  912SOL    HW1 2735   2.389   2.214   1.392  2.2835  0.6436  1.4991
  912SOL    HW2 2736   2.259   2.118   1.438 -0.1629  0.3297  0.6880
  913SOL     OW 2737   2.516   2.500   1.745  0.5691  0.0264  0.0881
  913SOL    HW1 2738   2.553   2.536   1.657  1.8832  2.2895 -0.0252
  913SOL    HW2 2739   2.417   2.526   1.765  1.9754  0.6986  1.3069
  914SOL     OW 2740   2.310   1.936   1.190  0.6851 -0.3209  0.0632
  914SOL    HW1 2741   2.292   2.005   1.264 -1.5388  1.7023 -1.4277
  914SOL    HW2 2742   2.229   1.936   1.129  0.5307 -0.3104 -1.2202
  915SOL     OW 2743   1.101   2.456   1.697  0.3425 -0.6126  0.6447
  915SOL    HW1 2744   1.025   2.407   1.739 -1.2394  0.5464 -2.8778
  915SOL    HW2 2745   1.190   2.437   1.746  1.2667 -1.7865 -1.1325
  916SOL     OW 2746   0.095   2.187   1.037 -0.4854 -0.0760  0.2723
  916SOL    HW1 2747   0.133   2.215   0.943  0.2934 -0.7793 -2.4044
  916SOL    HW2 2748   0.151   2.246   1.102  1.0822  1.9002  0.3512
  917SOL     OW 2749   2.678   1.119   2.904  0.0477  0.1432  0.0022
  917SOL    HW1 2750   2.645   1.026   2.883  2.7219  1.7008  1.2939
  917SOL    HW2 2751   2.767   1.141   2.859  0.5782 -2.5870 -1.9548
  918SOL     OW 2752   1.855   1.970   2.549  0.1089  0.4976 -0.1766
  918SOL    HW1 2753   1.873   1.976   2.649 -0.1404  0.7798  0.5816
  918SOL    HW2 2754   1.836   1.873   2.522 -0.1900 -1.1461 -0.2523
  919SOL     OW 2755   1.740   2.304   1.050  0.1101 -0.4222 -0.2671
  919SOL    HW1 2756   1.668   2.239   1.011 -1.7052 -1.0908 -2.1420
  919SOL    HW2 2757   1.829   2.261   1.079  0.7560 -0.9381  2.2848
  920SOL     OW 2758   1.001   0.605   2.612 -0.0379 -0.4141 -0.1999
  920SOL    HW1 2759   1.051   0.518   2.593 -1.7623  0.1386 -0.4435
  920SOL    HW2 2760   1.015   0.644   2.705 -0.3290 -0.6814 -1.8585
  921SOL     OW 2761   0.004   2.895   2.755 -0.6697 -0.3015  0.3685
  921SOL    HW1 2762   0.009   2.968   2.680 -0.0116 -0.1771 -0.1494
  921SOL    HW2 2763   0.091   2.886   2.805 -0.0743 -0.4246  2.0099
  922SOL     OW 2764   2.354   1.711   1.810 -0.0131  0.2904  0.2771
  922SOL    HW1 2765   2.435   1.704   1.748 -1.2860  2.0824 -0.6305
  922SOL    HW2 2766   2.269   1.683   1.761  0.0563 -0.4002 -0.7016
  923SOL     OW 2767   0.648   1.966   2.594 -0.1890 -0.2761 -0.2528
  923SOL    HW1 2768   0.558   1.978   2.637 -2.8391 -0.0319 -0.9776
  923SOL    HW2 2769   0.655   2.049   2.531 -1.9487  0.4649  0.3911
  924SOL     OW 2770   1.730   0.380   2.578  0.2255 -0.4733 -0.1558
  924SOL    HW1 2771   1.712   0.432   2.490  1.9075 -2.4175  0.1681
  924SOL    HW2 2772   1.758   0.441   2.658 -1.5889 -0.4381  3.1687
  925SOL     OW 2773   3.083   0.866   0.066 -0.2875  0.2558 -0.7214
  925SOL    HW1 2774   2.994   0.827   0.034 -1.0248  0.0392 -0.4898
  925SOL    HW2 2775   3.084   0.967   0.063 -0.1620  1.1508  0.1233
  926SOL     OW 2776   3.075   0.295   0.858 -0.5038  0.3358  0.2481
  926SOL    HW1 2777   3.105   0.229   0.782  3.1501 -3.8365 -0.1398
  926SOL    HW2 2778   2.993   0.346   0.821 -0.4643 -3.0488  1.4277
  927SOL     OW 2779   1.393   1.023   0.698  0.7418 -0.0043  0.1281
  927SOL    HW1 2780   1.393   1.051   0.599  0.0163 -0.2263  0.9599
  927SOL    HW2 2781   1.294   1.016   0.726  1.7813 -1.9778 -1.0903
  928SOL     OW 2782   0.214   0.096   2.328 -0.1254  0.0908 -0.4824
  928SOL    HW1 2783   0.250   0.065   2.239  1.2902  1.4891  1.1201
  928SOL    HW2 2784   0.167   0.184   2.323 -1.3441  1.7379 -1.0544
  929SOL     OW 2785   2.572   0.760   1.563  0.3632  0.3954  1.0262
  929SOL    HW1 2786   2.604   0.850   1.594  0.1056  0.1476 -1.3656
  929SOL    HW2 2787   2.565   0.699   1.642 -3.0392 -0.4890  0.2921
  930SOL     OW 2788   1.839   2.366   0.794  0.0273  0.4611 -0.2386
  930SOL    HW1 2789   1.767   2.340   0.725 -0.7051 -0.6355 -0.7650
  930SOL    HW2 2790   1.798   2.365   0.886  2.4249 -0.4135 -2.7360
  931SOL     OW 2791   1.909   0.898   1.054  0.3372  0.2238 -0.2054
  931SOL    HW1 2792   1.905   0.880   0.954 -2.8357 -2.1933 -0.5671
  931SOL    HW2 2793   2.003   0.929   1.067 -0.6337 -1.1177  0.2394
  932SOL     OW 2794   0.160   0.584   1.330  0.3037 -0.0936  0.3791
  932SOL    HW1 2795   0.071   0.641   1.337 -1.0618  1.0049 -0.6940
  932SOL    HW2 2796   0.184   0.542   1.422  2.4206 -0.6402  0.7905
  933SOL     OW 2797   2.038   1.935   1.965 -0.1939  0.3041 -0.0883
  933SOL    HW1 2798   2.033   1.901   2.057 -1.2836  0.5419  1.2193
  933SOL    HW2 2799   2.135   1.950   1.940 -0.2482 -1.7548  1.0668
  934SOL     OW 2800   1.875   0.150   1.384 -0.2302 -0.8383 -0.3224
  934SOL    HW1 2801   1.895   0.241   1.337  0.5244 -2.0059 -1.0634
  934SOL    HW2 2802   1.857   0.082   1.310  0.6352 -0.9194 -1.1459
  935SOL     OW 2803   0.120   0.958   1.307  0.1590  0.3352  0.5269
  935SOL    HW1 2804   0.083   0.890   1.370  3.1651  0.1642 -0.3287
  935SOL    HW2 2805   0.206   0.923   1.262 -0.2420 -0.8048 -0.0372
  936SOL     OW 2806   2.725   0.652   1.370  0.2304  0.3674  0.2196
  936SOL    HW1 2807   2.695   0.687   1.281  4.4888 -2.3247  2.2908
  936SOL    HW2 2808   2.652   0.660   1.438 -0.6694  0.3256  1.8429
  937SOL     OW 2809   1.206   2.957   1.000  0.1388  0.2826  0.4129
  937SOL    HW1 2810   1.108   2.966   0.967 -3.2549  0.2629 -2.1446
  937SOL    HW2 2811   1.257   2.895   0.937 -0.8796 -3.2984  3.0755
  938SOL     OW 2812   2.895   2.268   0.737 -0.6497  0.0118  0.2453
  938SOL    HW1 2813   2.905   2.226   0.828 -1.1727  3.8058  2.2725
  938SOL    HW2 2814   2.806   2.318   0.717 -0.9693 -1.4960  0.2076
  939SOL     OW 2815   0.052   1.957   2.673  0.4180  0.2372 -0.0764
  939SOL    HW1 2816   0.012   1.883   2.617  0.3163 -0.1987 -1.2642
  939SOL    HW2 2817   0.130   1.921   2.730  1.3618 -0.3554  2.3633
  940SOL     OW 2818   2.681   2.651   2.812  0.0228  0.2381  0.3487
  940SOL    HW1 2819   2.623   2.581   2.763 -0.4285 -0.5049  0.1189
  940SOL    HW2 2820   2.646   2.744   2.787 -1.6971 -0.0275 -0.5453
  941SOL     OW 2821   1.606   2.965   0.112  0.6950  0.1021 -0.2715
  941SOL    HW1 2822   1.592   2.879   0.058 -1.1746 -2.4291 -0.1077
  941SOL    HW2 2823   1.676   3.024   0.071 -0.8976 -3.3513  1.0174
  942SOL     OW 2824   1.608   1.995   1.472  0.0467  0.2453  0.1352
  942SOL    HW1 2825   1.584   1.973   1.566 -0.0308  1.1117 -0.6417
  942SOL    HW2 2826   1.614   2.093   1.463  4.0190 -1.4349  0.9383
  943SOL     OW 2827   1.976   1.014   2.072  0.0444 -0.6044  0.1665
  943SOL    HW1 2828   1.947   1.051   1.979  0.2357  1.3408  0.3394
  943SOL    HW2 2829   1.900   0.949   2.100  2.3832 -2.6598  0.2749
  944SOL     OW 2830   1.444   0.868   1.875 -0.6287 -0.1727 -0.4186
  944SOL    HW1 2831   1.384   0.949   1.859  0.7199 -0.4668 -0.5390
  944SOL    HW2 2832   1.497   0.860   1.790  0.4276  0.1948  1.0586
  945SOL     OW 2833   2.705   2.423   1.316 -0.2701 -0.3230  0.1876
  945SOL    HW1 2834   2.754   2.510   1.308  0.4217  0.7078  0.9838
  945SOL    HW2 2835   2.763   2.340   1.309 -1.0799  1.8980  1.7719
  946SOL     OW 2836   0.832   0.942   1.657 -0.0655  0.2999 -0.0317
  946SOL    HW1 2837   0.909   0.896   1.617 -1.3990 -0.4413  0.1886
  946SOL    HW2 2838   0.812   1.019   1.593  0.7433 -2.7761 -0.7678
  947SOL     OW 2839   0.626   2.504   0.874 -0.1471  0.6584 -0.3094
  947SOL    HW1 2840   0.552   2.442   0.901 -1.9990  1.4325  2.6161
  947SOL    HW2 2841   0.588   2.590   0.842 -2.3282  1.5394  0.0535
  948SOL     OW 2842   2.982   1.275   1.802 -0.0049 -0.1146 -0.2191
  948SOL    HW1 2843   3.002   1.187   1.771  0.9953  3.7630 -0.9100
  948SOL    HW2 2844   3.018   1.348   1.736 -2.1434  1.5055 -1.0971
  949SOL     OW 2845   0.582   0.435   1.916 -0.1553 -0.6077 -0.4836
  949SOL    HW1 2846   0.660   0.430   1.982  0.5290 -0.4489  0.1678
  949SOL    HW2 2847   0.550   0.531   1.905  1.4264  1.9271  0.2644
  950SOL     OW 2848   0.615   0.622   0.829 -0.1468  0.0514  0.0973
  950SOL    HW1 2849   0.630   0.684   0.753  1.0900 -0.2738  3.1670
  950SOL    HW2 2850   0.562   0.542   0.795 -0.2269  0.9198 -1.7030
  951SOL     OW 2851   1.150   1.876   2.271 -0.1260 -0.4215  0.3257
  951SOL    HW1 2852   1.165   1.977   2.268  0.1674  1.7261 -4.5266
  951SOL    HW2 2853   1.196   1.827   2.351  1.1633 -1.5611  0.9515
  952SOL     OW 2854   1.257   1.247   2.929 -0.0209  0.3875  0.6165
  952SOL    HW1 2855   1.275   1.273   2.829  1.7715 -0.1027 -1.7986
  952SOL    HW2 2856   1.291   1.153   2.951 -0.5469 -0.1243  0.2533
  953SOL     OW 2857   1.198   2.707   1.947  0.8069  0.4948  0.0335
  953SOL    HW1 2858   1.199   2.617   1.897  0.0468  1.1205 -1.2564
  953SOL    HW2 2859   1.104   2.746   1.966 -0.7617  0.1547 -1.1966
  954SOL     OW 2860   2.143   1.458   0.557 -0.4252 -0.0753  0.3149
  954SOL    HW1 2861   2.134   1.540   0.498  1.7389  2.0153 -3.8057
  954SOL    HW2 2862   2.225   1.403   0.542 -2.6095  0.4927  1.5663
  955SOL     OW 2863   2.905   2.358   2.699  1.0258 -0.1360  0.2197
  955SOL    HW1 2864   2.917   2.449   2.655  0.5922 -0.5536 -2.2593
  955SOL    HW2 2865   2.811   2.352   2.741 -0.7457 -0.9019 -0.1172
  956SOL     OW 2866   1.265   0.949   1.490 -0.0574 -0.2516 -0.1255
  956SOL    HW1 2867   1.289   0.927   1.397  0.1156  0.2456  0.2802
  956SOL    HW2 2868   1.240   1.044   1.500  0.0277  1.5164  0.4680
  957SOL     OW 2869   1.902   1.568   2.299  0.1066  0.1289 -0.5917
  957SOL    HW1 2870   1.833   1.542   2.230 -0.7034  0.6618  1.2904
  957SOL    HW2 2871   1.884   1.511   2.378  1.8587 -0.9780 -1.6753
  958SOL     OW 2872   1.681   2.691   1.281  0.0541  0.0887 -0.2815
  958SOL    HW1 2873   1.784   2.712   1.273  0.8545  1.4982  1.7947
  958SOL    HW2 2874   1.631   2.766   1.332 -1.2190  0.3620 -0.5262
  959SOL     OW 2875   1.576   1.950   1.813 -0.2871 -0.2694 -0.4424
  959SOL    HW1 2876   1.666   1.924   1.768  1.9027  1.3515 -3.4967
  959SOL    HW2 2877   1.499   1.942   1.750  1.9765 -0.4587 -0.1040
  960SOL     OW 2878   0.007   0.770   2.769 -0.0051 -0.3575  0.4111
  960SOL    HW1 2879   0.074   0.833   2.815  3.3243 -0.3197  0.4409
  960SOL    HW2 2880   3.087   0.818   2.688 -2.5145  2.7894 -0.4299
  961SOL     OW 2881   0.498   0.691   1.874 -0.1165 -0.1913  0.0407
  961SOL    HW1 2882   0.563   0.767   1.893 -1.2828 -0.8558 -2.2948
  961SOL    HW2 2883   0.412   0.696   1.927 -1.6337 -0.7498 -1.2172
  962SOL     OW 2884   1.416   1.779   0.502  0.1100 -0.1805  0.1580
  962SOL    HW1 2885   1.324   1.734   0.518  1.0494  0.4386  2.0950
  962SOL    HW2 2886   1.482   1.726   0.554 -0.8660  1.1635  4.4301
  963SOL     OW 2887   1.406   2.212   2.752 -0.4155  0.2203 -0.7132
  963SOL    HW1 2888   1.403   2.282   2.675  1.1010 -0.0211 -1.0325
  963SOL    HW2 2889   1.376   2.121   2.716  3.6287 -1.0383  2.4706
  964SOL     OW 2890   0.830   2.525   0.408  0.4809 -0.7786 -0.3008
  964SOL    HW1 2891   0.782   2.436   0.417 -1.8065 -2.8191 -1.4761
  964SOL    HW2 2892   0.756   2.596   0.425 -5.2724  1.5144  1.2964
  965SOL     OW 2893   0.888   2.927   0.978  0.0770 -0.2007  0.5335
  965SOL    HW1 2894   0.830   3.005   0.946 -2.4838 -0.3701 -2.0816
  965SOL    HW2 2895   0.872   2.846   0.919 -0.5553 -2.7151  0.4289
  966SOL     OW 2896   0.048   1.195   2.870 -0.1843 -0.0327  0.1808
  966SOL    HW1 2897   0.084   1.271   2.810  1.4606  1.4255  3.6002
  966SOL    HW2 2898   3.064   1.182   2.851 -3.4102 -0.1474  2.0082
  967SOL     OW 2899   1.221   2.683   1.577  0.5889 -0.2051  0.4855
  967SOL    HW1 2900   1.238   2.762   1.641  0.2098 -2.5407  1.7806
  967SOL    HW2 2901   1.160   2.615   1.625  0.5171  2.2934 -0.5544
  968SOL     OW 2902   1.864   0.307   0.292  0.4043  0.2668  0.3846
  968SOL    HW1 2903   1.900   0.244   0.367  1.7423  0.7204 -0.7940
  968SOL    HW2 2904   1.830   0.400   0.324  0.8122  0.1706  1.8621
  969SOL     OW 2905   0.032   1.710   1.881 -0.1496  0.3821 -0.2550
  969SOL    HW1 2906   3.063   1.714   1.819  2.1151 -1.4564 -0.4975
  969SOL    HW2 2907   0.094   1.790   1.865  0.4271 -0.0237 -0.2685
  970SOL     OW 2908   2.278   1.491   1.514 -0.2229  0.2013 -0.4832
  970SOL    HW1 2909   2.265   1.479   1.414  0.0816  0.3613  1.1617
  970SOL    HW2 2910   2.378   1.511   1.527 -1.7237  1.4750  0.5537
  971SOL     OW 2911   1.824   0.648   1.610  0.4817  0.0114 -0.6085
  971SOL    HW1 2912   1.901   0.588   1.593  0.8439  0.6386  0.5647
  971SOL    HW2 2913   1.732   0.594   1.598 -2.1385 -1.5768 -0.0937
  972SOL     OW 2914   0.435   3.043   1.967 -0.0772  0.5407 -0.3304
  972SOL    HW1 2915   0.509   3.104   1.946 -1.6297 -0.5913 -2.0201
  972SOL    HW2 2916   0.347   3.097   1.970 -0.3102  2.6294 -2.9733
  973SOL     OW 2917   2.784   1.071   0.253 -0.3117  0.2464 -0.6495
  973SOL    HW1 2918   2.700   1.036   0.213 -0.7872  0.5992  0.9842
  973SOL    HW2 2919   2.802   1.034   0.347 -0.8467  0.5094  0.7917
  974SOL     OW 2920   1.759   1.280   2.167 -0.5193 -0.0550  0.6689
  974SOL    HW1 2921   1.679   1.223   2.138 -1.6367 -1.5010  0.7101
  974SOL    HW2 2922   1.751   1.376   2.124  0.9034  1.8961  1.6007
  975SOL     OW 2923   3.078   2.540   0.913 -0.3418 -0.0380 -0.0597
  975SOL    HW1 2924   3.056   2.628   0.862  0.7742  1.9767 -1.9166
  975SOL    HW2 2925   2.997   2.504   0.958  2.8112  0.7727  0.3234
  976SOL     OW 2926   3.019   1.409   1.561  0.3734  0.2638 -0.2146
  976SOL    HW1 2927   3.101   1.427   1.508 -2.0148 -2.7771  0.9633
  976SOL    HW2 2928   2.960   1.495   1.564 -0.1223  1.5938  0.5598
  977SOL     OW 2929   0.590   2.489   2.925 -0.3523  0.4481  0.2738
  977SOL    HW1 2930   0.576   2.574   2.977 -0.5739 -2.0308 -1.3471
  977SOL    HW2 2931   0.691   2.473   2.916 -0.0029  1.2318 -0.0101
  978SOL     OW 2932   0.543   1.784   2.422 -0.2920 -0.1158 -0.4680
  978SOL    HW1 2933   0.456   1.833   2.393 -0.5171 -0.2603 -0.0316
  978SOL    HW2 2934   0.595   1.851   2.479 -0.3892  1.7625 -1.7106
  979SOL     OW 2935   1.587   2.447   1.228  0.4389  0.5575 -0.1022
  979SOL    HW1 2936   1.633   2.538   1.247 -0.8185  1.8382  1.5796
  979SOL    HW2 2937   1.643   2.380   1.178 -1.0506  1.4578 -0.7377
  980SOL     OW 2938   0.734   1.614   3.109 -0.1760 -0.2371 -0.1629
  980SOL    HW1 2939   0.669   1.637   3.034 -0.7234 -0.4473 -1.6463
  980SOL    HW2 2940   0.825   1.658   3.105 -0.5194  1.9796 -0.4595
  981SOL     OW 2941   2.772   0.058   2.469  0.1607 -0.1716  0.0488
  981SOL    HW1 2942   2.721   3.094   2.512 -0.6722 -0.9245 -0.3621
  981SOL    HW2 2943   2.819   0.035   2.379 -0.8412 -1.5934  1.6039
  982SOL     OW 2944   0.086   2.556   2.828  0.3117 -0.4355  0.3844
  982SOL    HW1 2945   0.128   2.604   2.743  0.8263 -1.3585 -1.6324
  982SOL    HW2 2946   3.110   2.591   2.846 -2.5678 -2.3694  1.5022
  983SOL     OW 2947   2.440   1.033   2.086 -0.6116  0.0024 -0.1456
  983SOL    HW1 2948   2.470   1.117   2.045  1.3321 -0.8653  1.0597
  983SOL    HW2 2949   2.482   0.950   2.040  0.0817 -2.6702  1.2800
  984SOL     OW 2950   1.451   0.035   2.355  0.0429  0.2271 -0.5346
  984SOL    HW1 2951   1.524   0.054   2.425  2.1101 -1.6290 -1.4102
  984SOL    HW2 2952   1.475   0.086   2.272  2.9720 -0.5526  0.7831
  985SOL     OW 2953   1.485   2.174   2.248  0.2430  0.0058 -0.0256
  985SOL    HW1 2954   1.522   2.123   2.163  0.0009 -0.5519 -1.0082
  985SOL    HW2 2955   1.541   2.157   2.332  0.6656  5.5098  1.9046
  986SOL     OW 2956   2.023   0.231   2.278  0.6936 -0.4062 -0.1841
  986SOL    HW1 2957   2.067   0.225   2.187 -4.1461  1.5304 -1.8416
  986SOL    HW2 2958   1.970   0.318   2.273 -2.4546  1.0884  3.8092
  987SOL     OW 2959   2.259   0.630   2.030  0.2102  0.4116 -0.1004
  987SOL    HW1 2960   2.228   0.724   2.059  4.1350  1.4525 -2.0538
  987SOL    HW2 2961   2.296   0.631   1.935  1.9152  2.2596  2.1360
  988SOL     OW 2962   2.725   0.640   2.549  0.1780 -0.4667 -0.1268
  988SOL    HW1 2963   2.806   0.630   2.484  1.8372 -1.8089 -0.4524
  988SOL    HW2 2964   2.648   0.579   2.516 -0.2486  0.2214 -1.3240
  989SOL     OW 2965   2.556   2.470   2.569  0.1950 -0.3782  0.0855
  989SOL    HW1 2966   2.476   2.485   2.506  1.1425 -0.6742 -1.1727
  989SOL    HW2 2967   2.643   2.505   2.528  1.5641 -0.5833 -1.0761
  990SOL     OW 2968   0.292   0.551   0.083 -0.1242  0.7607 -0.2167
  990SOL    HW1 2969   0.308   0.571   0.180  0.7173 -1.9537  0.4125
  990SOL    HW2 2970   0.246   0.631   0.047  1.3400 -2.4521 -1.9520
  991SOL     OW 2971   0.689   0.533   2.862  0.0984  0.1199 -0.1170
  991SOL    HW1 2972   0.616   0.508   2.927 -1.2345 -0.5363 -2.5642
  991SOL    HW2 2973   0.777   0.490   2.881 -1.7030  0.3568 -0.4119
  992SOL     OW 2974   2.695   2.124   2.299 -0.1947  0.0639  0.0845
  992SOL    HW1 2975   2.744   2.207   2.336 -1.3459  0.8634  0.3649
  992SOL    HW2 2976   2.693   2.130   2.197  0.7764 -1.9483 -2.0934
  993SOL     OW 2977   0.596   3.038   0.339  0.1143 -0.4813 -0.5410
  993SOL    HW1 2978   0.577   3.027   0.434 -1.1655  2.3023 -0.9142
  993SOL    HW2 2979   0.563   2.962   0.275  1.4515 -2.4567  1.4938
  994SOL     OW 2980   0.266   2.065   1.610  0.0264  0.0807 -0.1937
  994SOL    HW1 2981   0.242   2.018   1.695  2.3403 -1.8953  2.0251
  994SOL    HW2 2982   0.216   2.027   1.533 -0.9830 -0.7973  2.7808
  995SOL     OW 2983   2.266   1.832   0.167  0.1923  0.2210  0.7784
  995SOL    HW1 2984   2.302   1.920   0.204 -0.8939  1.2537 -2.1074
  995SOL    HW2 2985   2.168   1.843   0.132  1.7931  2.1851 -0.4991
  996SOL     OW 2986   1.373   1.543   2.355 -0.0884 -0.2610 -0.0163
  996SOL    HW1 2987   1.410   1.451   2.364  1.9838  1.0450  0.3811
  996SOL    HW2 2988   1.413   1.587   2.270  0.6387  0.5271 -1.6055
  997SOL     OW 2989   1.774   1.549   1.801 -0.0490 -0.3770 -0.1819
  997SOL    HW1 2990   1.705   1.597   1.739 -0.5585 -0.0517  1.4840
  997SOL    HW2 2991   1.738   1.452   1.807  1.6583 -0.0934 -0.5274
  998SOL     OW 2992   2.745   1.717   0.320  0.0743  0.2647  0.4124
  998SOL    HW1 2993   2.755   1.632   0.375 -0.8788  2.4797 -1.5595
  998SOL    HW2 2994   2.824   1.730   0.250  3.4205 -1.4264  0.3228
  999SOL     OW 2995   2.398   2.639   0.520 -0.5611 -0.0723  0.6299
  999SOL    HW1 2996   2.376   2.705   0.588 -0.1387 -2.3920 -2.0293
  999SOL    HW2 2997   2.378   2.545   0.537 -0.3696  1.7059 -0.5166
 1000SOL     OW 2998   0.821   2.978   2.090  0.1422 -0.3768 -0.0599
 1000SOL    HW1 2999   0.821   3.048   2.016  2.2577 -1.0730 -0.2305
 1000SOL    HW2 3000   0.836   2.885   2.056  0.2410  0.1863  0.9401
   3.11591   3.11591   3.11591
