1000 SPC/Fw water molecules t= 357.00000 step= 357000
 3000
    1SOL     OW    1   2.591   3.072   1.391  0.4233 -0.1578  0.0095
    1SOL    HW1    2   2.561   2.986   1.433  1.2923 -3.1310  0.5422
    1SOL    HW2    3   2.604   3.059   1.290  1.0100  0.9911  0.5024
    2SOL     OW    4   2.782   2.318   0.804  0.3757  0.1037  0.3591
    2SOL    HW1    5   2.686   2.295   0.839  0.9911 -2.8372  0.6637
    2SOL    HW2    6   2.774   2.341   0.705 -2.7287 -0.1219 -2.0308
    3SOL     OW    7   1.466   3.023   2.985 -0.2543 -0.0542 -0.1250
    3SOL    HW1    8   1.516   3.098   2.940  0.3605  1.3688  0.4426
    3SOL    HW2    9   1.382   3.052   3.035 -1.2588  2.4563  1.1396
    4SOL     OW   10   1.547   2.697   2.293 -1.0689  0.2145  0.1250
    4SOL    HW1   11   1.470   2.737   2.235 -3.8488  1.1952 -3.3084
    4SOL    HW2   12   1.614   2.660   2.223 -0.0234  0.3534 -0.3608
    5SOL     OW   13   1.911   0.356   1.682  0.4941  0.2805 -0.5064
    5SOL    HW1   14   1.969   0.410   1.623 -0.8058 -2.4205  1.7385
    5SOL    HW2   15   1.861   0.407   1.752  1.5764 -0.9109 -2.6662
    6SOL     OW   16   2.124   2.421   0.529  0.5094  0.2972 -0.1858
    6SOL    HW1   17   2.053   2.485   0.496 -0.1166 -2.2449  1.6546
    6SOL    HW2   18   2.191   2.480   0.580 -0.3238 -1.9553  0.9314
    7SOL     OW   19   1.654   1.139   1.094  0.0542  0.2164 -0.4535
    7SOL    HW1   20   1.673   1.185   1.185  0.2952  1.5923  0.7747
    7SOL    HW2   21   1.578   1.197   1.055 -0.9753  2.7826  1.3073
    8SOL     OW   22   0.769   1.686   1.366  0.7135  0.5332 -0.3622
    8SOL    HW1   23   0.743   1.611   1.427  0.1210 -0.5137  0.8414
    8SOL    HW2   24   0.870   1.703   1.362 -0.2916 -0.6334 -1.4390
    9SOL     OW   25   1.159   2.313   1.870 -0.2640 -0.2512  0.4943
    9SOL    HW1   26   1.093   2.385   1.840 -3.6121  0.5058 -3.4929
    9SOL    HW2   27   1.126   2.222   1.840 -0.5701 -0.8251  0.3249
   10SOL     OW   28   0.622   2.158   0.610  0.3220 -0.3357 -0.1094
   10SOL    HW1   29   0.696   2.155   0.679 -1.6908  1.3260 -0.2620
   10SOL    HW2   30   0.605   2.256   0.597 -1.9176 -1.4136 -0.9717
   11SOL     OW   31   1.690   2.046   1.483  0.0546  0.3728 -0.5303
   11SOL    HW1   32   1.633   2.114   1.530 -0.0588  1.1181  1.7908
   11SOL    HW2   33   1.715   2.069   1.388  1.9226  1.0973 -1.3830
   12SOL     OW   34   2.614   0.422   2.549 -0.5536  0.1604  0.1667
   12SOL    HW1   35   2.614   0.336   2.495 -1.1486 -4.5905 -0.4151
   12SOL    HW2   36   2.691   0.487   2.527  1.2882 -0.1943  0.8716
   13SOL     OW   37   2.767   2.842   0.677 -0.0065 -0.1478 -0.3409
   13SOL    HW1   38   2.778   2.745   0.707 -1.9288 -0.4374 -3.2309
   13SOL    HW2   39   2.855   2.873   0.632 -0.6454 -1.5907  0.3723
   14SOL     OW   40   1.427   1.568   3.061  0.3879  0.0064  0.0780
   14SOL    HW1   41   1.479   1.609   2.985 -0.8499 -1.1289  4.3660
   14SOL    HW2   42   1.337   1.529   3.027  0.5917 -1.4605  0.6878
   15SOL     OW   43   2.434   2.593   1.397 -0.4186  0.1926  0.0916
   15SOL    HW1   44   2.437   2.494   1.366  1.2122  1.0050 -0.1461
   15SOL    HW2   45   2.335   2.615   1.415  2.5075 -1.1347 -0.1287
   16SOL     OW   46   2.354   2.774   0.470 -0.2532 -0.5082 -0.3119
   16SOL    HW1   47   2.290   2.811   0.401  0.6143  0.6102  2.7148
   16SOL    HW2   48   2.434   2.838   0.492  3.1274  0.2695 -1.0272
   17SOL     OW   49   0.410   0.286   1.106  0.6207 -0.3205  0.0868
   17SOL    HW1   50   0.463   0.370   1.136  0.7611  0.9962 -2.3776
   17SOL    HW2   51   0.329   0.309   1.043 -0.1770 -0.1961  1.4809
   18SOL     OW   52   2.079   0.354   0.382 -0.1195 -0.4487  0.1433
   18SOL    HW1   53   2.076   0.332   0.483 -1.3999 -2.1087  1.3766
   18SOL    HW2   54   2.022   0.282   0.335 -0.4745 -5.4995  2.1013
   19SOL     OW   55   1.865   1.524   3.064  0.3783  0.2193  0.0009
   19SOL    HW1   56   1.957   1.543   3.024  0.4994  2.2927 -1.0130
   19SOL    HW2   57   1.855   1.571   0.055 -0.3955 -2.0532  1.9309
   20SOL     OW   58   2.404   1.525   2.305 -0.1779  0.1396  0.2805
   20SOL    HW1   59   2.472   1.449   2.327 -2.3047 -0.6601 -3.6045
   20SOL    HW2   60   2.451   1.597   2.255 -1.0301 -1.0912  0.6497
   21SOL     OW   61   1.581   0.174   0.581 -0.3623 -0.0366 -0.8504
   21SOL    HW1   62   1.615   0.138   0.666 -1.7613  3.9332 -1.8777
   21SOL    HW2   63   1.602   0.115   0.500  1.5004  0.6080  1.1336
   22SOL     OW   64   2.709   0.608   1.470 -0.1964  0.4438 -0.5204
   22SOL    HW1   65   2.649   0.528   1.496 -1.9091 -0.1387 -0.8228
   22SOL    HW2   66   2.708   0.616   1.370  0.5286  0.1034  0.9872
   23SOL     OW   67   0.253   0.476   1.722  0.3250 -0.4834 -0.7212
   23SOL    HW1   68   0.337   0.478   1.779 -0.9826  1.9647 -0.0201
   23SOL    HW2   69   0.174   0.469   1.784  0.1445  0.7257 -0.1048
   24SOL     OW   70   2.792   2.629   0.378  0.1706  0.7661 -0.0008
   24SOL    HW1   71   2.874   2.679   0.337 -0.2887  2.8053 -1.0690
   24SOL    HW2   72   2.706   2.684   0.376 -3.7308  1.0202  0.7557
   25SOL     OW   73   1.027   2.817   2.841  0.3916 -0.4727 -0.7249
   25SOL    HW1   74   0.929   2.793   2.830 -0.3520 -0.3659 -3.0828
   25SOL    HW2   75   1.048   2.914   2.810  1.6362  0.0427 -0.5035
   26SOL     OW   76   1.316   2.678   0.428 -0.5986 -0.3444  0.2928
   26SOL    HW1   77   1.404   2.625   0.412  0.6970 -2.8920  1.2391
   26SOL    HW2   78   1.333   2.760   0.487 -1.3918  0.5974 -1.2034
   27SOL     OW   79   2.229   0.606   0.630  0.0523  0.0477 -0.0714
   27SOL    HW1   80   2.238   0.679   0.562  2.9503  0.3373  0.7646
   27SOL    HW2   81   2.294   0.623   0.706 -0.1538  0.6056 -2.6873
   28SOL     OW   82   0.859   1.699   1.018 -0.3287  0.0987 -0.0027
   28SOL    HW1   83   0.794   1.652   1.077  1.6523  2.1092  0.4941
   28SOL    HW2   84   0.955   1.658   1.026  0.6993  1.2644  2.9709
   29SOL     OW   85   3.072   2.803   1.780  0.1275 -0.0459  0.4683
   29SOL    HW1   86   0.062   2.853   1.794  0.7443  0.2060  1.9914
   29SOL    HW2   87   3.006   2.857   1.728  1.3022  2.9797  1.1698
   30SOL     OW   88   1.593   0.013   1.206 -0.3282  0.5310  0.2339
   30SOL    HW1   89   1.557   0.024   1.110  0.0651  0.0923 -0.6349
   30SOL    HW2   90   1.571   3.021   1.243  2.3899  0.3633  0.8827
   31SOL     OW   91   2.011   2.848   2.441  0.1517  0.3945  0.1771
   31SOL    HW1   92   1.929   2.797   2.466  2.4210 -1.2391 -1.9930
   31SOL    HW2   93   2.040   2.820   2.350 -2.7286 -0.4961  2.5012
   32SOL     OW   94   0.747   1.307   0.190 -0.2106  0.1289  0.2215
   32SOL    HW1   95   0.765   1.367   0.113  0.7598  1.3391 -2.5497
   32SOL    HW2   96   0.801   1.335   0.268 -0.0965 -0.1697 -1.0668
   33SOL     OW   97   0.061   0.981   2.666  0.2137  0.5114 -0.5148
   33SOL    HW1   98   0.061   0.915   2.590  1.9868 -0.0166  1.1186
   33SOL    HW2   99   0.095   0.943   2.753 -1.2543 -0.5041  0.0730
   34SOL     OW  100   2.383   0.149   0.559  0.0521  0.0114  0.2065
   34SOL    HW1  101   2.319   0.152   0.639 -1.0039  3.9130 -2.7598
   34SOL    HW2  102   2.457   0.084   0.576  1.6548  0.7992  0.4053
   35SOL     OW  103   2.402   2.614   1.715  0.2149 -0.2463 -0.0101
   35SOL    HW1  104   2.484   2.557   1.691 -1.4011 -2.3803  0.0894
   35SOL    HW2  105   2.326   2.586   1.651 -0.1443  0.1699  1.2977
   36SOL     OW  106   2.331   2.141   2.853 -0.3369  0.1075 -0.5831
   36SOL    HW1  107   2.364   2.172   2.759  2.3864  2.2180 -1.0433
   36SOL    HW2  108   2.230   2.161   2.873 -1.9727  1.2787  0.7625
   37SOL     OW  109   1.913   0.157   2.035 -0.4682 -0.1600 -0.2635
   37SOL    HW1  110   1.839   0.188   1.968  0.1188 -2.3363 -0.7329
   37SOL    HW2  111   1.970   0.086   1.994 -0.1235 -1.2507 -2.4385
   38SOL     OW  112   0.149   0.574   2.947 -0.5193 -0.1233  0.0783
   38SOL    HW1  113   0.109   0.502   2.894  2.1484  0.3820 -1.6147
   38SOL    HW2  114   0.114   0.572   3.040  1.8778 -1.8916  0.0750
   39SOL     OW  115   1.853   1.324   1.538 -0.1191 -0.4903  0.9843
   39SOL    HW1  116   1.822   1.330   1.633 -0.7553 -1.5100 -2.8468
   39SOL    HW2  117   1.954   1.336   1.531  0.3110  0.0128 -0.3333
   40SOL     OW  118   1.343   2.383   0.529  0.0671  0.1345  0.4367
   40SOL    HW1  119   1.302   2.327   0.604 -1.3003 -3.6866  1.5768
   40SOL    HW2  120   1.280   2.392   0.448 -1.5383  1.7100 -2.4606
   41SOL     OW  121   2.110   1.349   1.029  0.2839  0.3166 -0.2589
   41SOL    HW1  122   2.153   1.311   0.943  2.7812  0.1776 -0.4629
   41SOL    HW2  123   2.046   1.425   1.005 -0.0142  0.7927  0.2334
   42SOL     OW  124   0.650   0.094   1.013  0.0994 -1.0280 -0.0912
   42SOL    HW1  125   0.740   0.097   1.061  2.5223 -2.6477  0.9500
   42SOL    HW2  126   0.583   0.161   1.044 -2.0963 -3.6963 -0.5939
   43SOL     OW  127   0.073   1.602   2.509  0.4958  0.1241 -0.2401
   43SOL    HW1  128   0.016   1.605   2.593 -0.5313 -3.0084 -1.6786
   43SOL    HW2  129   0.173   1.587   2.527 -0.4747  0.4757 -0.0802
   44SOL     OW  130   2.052   2.953   1.390  0.0993  0.4910 -0.2564
   44SOL    HW1  131   2.082   2.931   1.486 -1.6612  0.2910  0.3510
   44SOL    HW2  132   2.136   2.956   1.336  1.0916 -2.1262 -1.6625
   45SOL     OW  133   1.174   0.032   2.340  0.1090  0.0015 -0.1642
   45SOL    HW1  134   1.245   3.062   2.362  0.4856 -0.3725  1.3047
   45SOL    HW2  135   1.105   0.026   2.416  0.2231 -0.4381  3.5654
   46SOL     OW  136   0.732   2.704   2.446 -0.5405  0.0551  0.4177
   46SOL    HW1  137   0.687   2.686   2.359  0.7732  2.1495  0.6578
   46SOL    HW2  138   0.730   2.614   2.504 -2.5449 -0.3314  1.1920
   47SOL     OW  139   1.070   1.846   0.738 -0.6155  0.0632 -0.2971
   47SOL    HW1  140   1.164   1.802   0.754 -0.1420 -0.6845 -0.1701
   47SOL    HW2  141   1.005   1.824   0.816 -0.1384  0.8353  3.7447
   48SOL     OW  142   1.362   2.882   0.995  1.0653  0.8349 -0.3686
   48SOL    HW1  143   1.340   2.798   0.945 -0.8238  0.3754 -1.0596
   48SOL    HW2  144   1.292   2.898   1.066 -2.6451  0.5548 -1.7232
   49SOL     OW  145   2.409   0.151   3.084 -0.8118 -0.0627  0.1732
   49SOL    HW1  146   2.429   0.052   3.096 -1.1089  2.5582 -0.5867
   49SOL    HW2  147   2.497   0.201   3.077  0.9517  0.9173 -0.7386
   50SOL     OW  148   1.705   0.023   0.029  0.3820  0.0265  0.2165
   50SOL    HW1  149   1.794   3.077   0.004  1.4138  0.1383  1.9835
   50SOL    HW2  150   1.664   0.057   3.047 -0.7018 -0.6564  2.4175
   51SOL     OW  151   2.267   0.625   1.288  0.2163  0.3293  0.1107
   51SOL    HW1  152   2.299   0.715   1.254 -0.9037  0.2401  1.4022
   51SOL    HW2  153   2.330   0.551   1.263  0.8794  0.5735 -1.8664
   52SOL     OW  154   0.771   1.717   0.072 -0.1138  0.0016 -0.1007
   52SOL    HW1  155   0.769   1.615   0.056 -1.3034 -0.4434  0.5333
   52SOL    HW2  156   0.845   1.739   0.136 -1.5477  0.2996 -0.8854
   53SOL     OW  157   0.200   1.427   2.747 -0.5807 -0.8071 -0.2508
   53SOL    HW1  158   0.192   1.357   2.675  1.5208 -0.2306  1.7009
   53SOL    HW2  159   0.294   1.424   2.789 -0.6780 -0.7072  1.7121
   54SOL     OW  160   2.720   1.120   1.705  0.1790  0.0066  0.0166
   54SOL    HW1  161   2.803   1.064   1.722  3.2706 -1.6927 -1.0792
   54SOL    HW2  162   2.678   1.156   1.791 -0.0266  0.6063 -1.0280
   55SOL     OW  163   2.240   1.921   0.371  0.1463  0.0194 -0.5997
   55SOL    HW1  164   2.316   1.977   0.412  0.3935 -0.7597 -0.4588
   55SOL    HW2  165   2.208   1.841   0.428 -1.8414 -1.7507 -0.3947
   56SOL     OW  166   1.840   0.101   1.596 -0.6157  0.0675 -0.8021
   56SOL    HW1  167   1.853   0.191   1.639  0.1147 -2.8480  0.4774
   56SOL    HW2  168   1.883   0.097   1.501 -0.9648  0.4498 -1.6045
   57SOL     OW  169   1.448   1.360   2.730  0.0621 -0.0962  0.4363
   57SOL    HW1  170   1.398   1.325   2.813 -0.7793 -2.0266 -1.3347
   57SOL    HW2  171   1.531   1.406   2.768  2.7517  1.1490 -1.0123
   58SOL     OW  172   0.169   0.686   1.211  0.1630 -0.5241 -0.1340
   58SOL    HW1  173   0.140   0.706   1.304  1.0232 -1.3782 -1.0538
   58SOL    HW2  174   0.109   0.614   1.168  0.5936 -1.6908  0.0171
   59SOL     OW  175   1.359   2.750   0.147  0.2929  0.7388  0.5674
   59SOL    HW1  176   1.335   2.721   0.240  0.4338  2.1727 -2.1128
   59SOL    HW2  177   1.281   2.799   0.115  2.1932 -0.4261 -0.1283
   60SOL     OW  178   3.101   1.835   2.750  0.3287  0.1552  0.4978
   60SOL    HW1  179   0.094   1.798   2.771  1.1274 -1.8984  0.7118
   60SOL    HW2  180   3.091   1.937   2.742  4.2214 -1.3758 -1.8868
   61SOL     OW  181   0.765   2.415   1.141 -0.0745  0.4674  0.0538
   61SOL    HW1  182   0.860   2.382   1.159 -0.4840 -1.4772 -0.5114
   61SOL    HW2  183   0.741   2.497   1.205  0.4903  1.4222  0.8678
   62SOL     OW  184   1.539   1.592   2.585  0.1016  0.3921  0.1024
   62SOL    HW1  185   1.624   1.560   2.537  0.8240 -0.8506  0.9477
   62SOL    HW2  186   1.474   1.510   2.598 -2.7043 -4.3920 -2.5896
   63SOL     OW  187   2.281   1.914   0.098 -0.8666 -0.4812  0.7084
   63SOL    HW1  188   2.194   1.940   0.054 -0.3209 -0.7021  1.2951
   63SOL    HW2  189   2.270   1.908   0.203  0.4710 -0.8531 -2.8258
   64SOL     OW  190   1.810   1.015   0.337 -0.1384  0.2778 -0.5452
   64SOL    HW1  191   1.738   1.070   0.294 -0.0585 -1.7244  1.8547
   64SOL    HW2  192   1.887   0.996   0.273  2.6074 -1.2623  2.3753
   65SOL     OW  193   2.174   1.771   2.167  0.2270 -0.1416 -0.1270
   65SOL    HW1  194   2.230   1.761   2.251 -1.9991 -0.0493  0.4926
   65SOL    HW2  195   2.213   1.716   2.088  1.5479  1.4604  0.1980
   66SOL     OW  196   0.523   1.112   1.477 -0.4099  0.1851  0.6252
   66SOL    HW1  197   0.486   1.207   1.464 -0.5769  3.6216 -1.8635
   66SOL    HW2  198   0.445   1.041   1.486 -0.0861 -0.5394 -0.9857
   67SOL     OW  199   2.142   0.116   2.527 -0.0062  0.3636  0.0486
   67SOL    HW1  200   2.046   0.147   2.522 -2.0483  0.1946  0.1957
   67SOL    HW2  201   2.154   0.030   2.580  2.1242  1.6825 -0.7017
   68SOL     OW  202   1.189   2.218   1.568 -0.2564 -0.1905  0.7707
   68SOL    HW1  203   1.232   2.148   1.503  2.6483 -4.9883 -0.9438
   68SOL    HW2  204   1.240   2.307   1.566 -1.7630  0.2351 -1.1177
   69SOL     OW  205   0.643   2.480   3.064 -0.5180  0.5395 -0.1163
   69SOL    HW1  206   0.627   2.488   0.059  1.7656  2.0088 -2.2146
   69SOL    HW2  207   0.740   2.463   3.045 -0.5096 -1.2917  1.9635
   70SOL     OW  208   0.211   0.757   2.176  1.1069 -0.4089  0.0051
   70SOL    HW1  209   0.131   0.717   2.117  1.7875 -0.4313  1.6242
   70SOL    HW2  210   0.271   0.826   2.137  0.9242 -0.4634 -0.7670
   71SOL     OW  211   0.787   1.163   2.545 -0.7212 -0.1919 -0.2280
   71SOL    HW1  212   0.711   1.126   2.486  0.9885 -2.6398 -0.0797
   71SOL    HW2  213   0.846   1.084   2.574  0.8457 -0.7893 -1.2850
   72SOL     OW  214   3.073   1.494   2.279 -0.0994  0.0818  0.7773
   72SOL    HW1  215   3.096   1.528   2.374 -1.8564  0.5636  0.3566
   72SOL    HW2  216   2.998   1.552   2.233 -0.1558  0.9580 -2.0658
   73SOL     OW  217   1.559   1.692   0.394 -0.1853  0.2035  0.1715
   73SOL    HW1  218   1.596   1.732   0.308  0.0197  0.3587  1.1606
   73SOL    HW2  219   1.516   1.600   0.380 -0.4838  0.6979 -0.8749
   74SOL     OW  220   2.488   3.029   2.632 -0.0272  0.1379  0.5952
   74SOL    HW1  221   2.427   3.052   2.707  1.8757 -1.0983 -3.9372
   74SOL    HW2  222   2.440   3.034   2.543 -0.4004  1.9051 -1.0436
   75SOL     OW  223   1.790   2.134   1.220 -0.2215 -0.0276  0.0969
   75SOL    HW1  224   1.811   2.232   1.235  1.1478 -1.5817 -0.1675
   75SOL    HW2  225   1.865   2.084   1.172  0.4119  2.8129 -0.1090
   76SOL     OW  226   2.986   2.142   1.994 -0.4169 -0.2679 -0.3827
   76SOL    HW1  227   3.026   2.064   1.946  0.9782  1.0103 -0.2340
   76SOL    HW2  228   3.025   2.230   1.959  1.5832  0.1707 -1.9619
   77SOL     OW  229   0.132   0.236   2.046  0.4442  0.3950  0.1823
   77SOL    HW1  230   0.176   0.184   1.967 -0.0197  0.4395  0.1090
   77SOL    HW2  231   0.136   0.337   2.023  1.7578  1.4977  1.0514
   78SOL     OW  232   2.355   1.050   3.026  0.4240  0.2975 -0.1834
   78SOL    HW1  233   2.394   1.142   3.052  0.3293  0.1675  1.9086
   78SOL    HW2  234   2.347   1.040   2.926 -1.7055  0.8017 -1.9327
   79SOL     OW  235   2.994   1.252   2.413  0.1832  0.4522  0.0187
   79SOL    HW1  236   2.956   1.273   2.505  0.9864 -0.8226 -2.8299
   79SOL    HW2  237   3.002   1.332   2.356  2.2926  0.5354  2.3483
   80SOL     OW  238   1.469   1.378   1.501  0.1268  1.2839 -0.1892
   80SOL    HW1  239   1.533   1.442   1.553  3.1610 -0.6925 -3.2639
   80SOL    HW2  240   1.447   1.298   1.559  0.4454  0.1426 -0.5060
   81SOL     OW  241   2.092   0.927   1.933 -0.2135 -0.8058  0.2288
   81SOL    HW1  242   2.094   0.831   1.905 -1.1353  0.8147 -1.0035
   81SOL    HW2  243   2.186   0.954   1.943 -2.4551 -3.9849  0.3738
   82SOL     OW  244   1.651   1.532   1.649 -0.2352 -0.1800 -0.2928
   82SOL    HW1  245   1.651   1.497   1.745  1.9361  2.2480 -0.8882
   82SOL    HW2  246   1.751   1.535   1.615  2.6194 -0.2670 -2.3117
   83SOL     OW  247   0.304   0.228   0.230 -0.0368 -0.4081  0.2968
   83SOL    HW1  248   0.215   0.206   0.186 -0.5312  1.1116 -1.2572
   83SOL    HW2  249   0.380   0.245   0.163 -3.3849 -2.1141  2.1311
   84SOL     OW  250   0.144   0.957   0.008 -0.5002  0.1546 -0.2501
   84SOL    HW1  251   0.112   0.931   0.101 -0.2982 -1.8300 -1.5516
   84SOL    HW2  252   0.165   1.057   0.003 -0.1767 -0.4664  0.4139
   85SOL     OW  253   2.270   2.063   1.046 -0.2360  0.0999  0.6102
   85SOL    HW1  254   2.232   2.014   0.967  1.5548  0.1694 -0.7641
   85SOL    HW2  255   2.371   2.059   1.036  1.6123  1.6551 -0.2492
   86SOL     OW  256   0.444   2.338   1.343 -0.2028 -0.0930  0.9340
   86SOL    HW1  257   0.531   2.304   1.382  0.7208  0.1332  2.8646
   86SOL    HW2  258   0.459   2.352   1.243  1.4613  0.9546  2.7481
   87SOL     OW  259   0.444   2.440   2.139  0.1319 -0.4798 -0.3981
   87SOL    HW1  260   0.531   2.481   2.113  0.3936  0.9219  0.5761
   87SOL    HW2  261   0.451   2.362   2.200  2.8938  2.1209 -1.2071
   88SOL     OW  262   0.048   1.997   0.193  0.3138  0.1985  0.4956
   88SOL    HW1  263   3.051   2.018   0.186  0.0284  1.1250 -0.8268
   88SOL    HW2  264   0.074   1.905   0.147  1.7175 -2.1812  0.2340
   89SOL     OW  265   0.906   0.876   0.916 -0.3046  0.0308  0.4096
   89SOL    HW1  266   0.885   0.845   1.010  0.5841  0.3610 -2.0016
   89SOL    HW2  267   0.823   0.863   0.853 -1.3573  3.3355 -1.1382
   90SOL     OW  268   0.350   1.373   2.133 -0.2261  0.1434 -0.2592
   90SOL    HW1  269   0.403   1.452   2.094  1.3437 -0.5102  0.7992
   90SOL    HW2  270   0.254   1.368   2.100 -1.2157  1.3112  0.6212
   91SOL     OW  271   1.194   1.011   1.154  0.3051  0.1961 -0.0237
   91SOL    HW1  272   1.153   1.099   1.187 -3.3621 -0.2132 -0.0702
   91SOL    HW2  273   1.222   1.009   1.053  1.6796  1.3970  0.1063
   92SOL     OW  274   1.855   1.205   0.892  0.1905  0.5259  0.0344
   92SOL    HW1  275   1.796   1.185   0.976 -0.5143  1.1030  0.9196
   92SOL    HW2  276   1.816   1.278   0.831 -0.1857 -1.3943 -1.5510
   93SOL     OW  277   2.956   0.756   2.420 -0.2081  0.1255 -0.0940
   93SOL    HW1  278   2.883   0.772   2.353  1.7982 -0.3958  2.0852
   93SOL    HW2  279   2.929   0.681   2.485 -3.4278 -3.1927  1.5928
   94SOL     OW  280   2.273   1.737   2.698 -0.1200  0.1034 -0.0827
   94SOL    HW1  281   2.281   1.753   2.597 -1.5039 -1.3831  0.3465
   94SOL    HW2  282   2.189   1.782   2.728  1.4839 -2.8243 -1.0238
   95SOL     OW  283   2.881   0.405   1.040  0.4772  0.5349  0.2311
   95SOL    HW1  284   2.872   0.440   0.947  1.2043  0.5152 -0.2912
   95SOL    HW2  285   2.836   0.315   1.052 -0.0973 -0.5984  1.2306
   96SOL     OW  286   2.562   2.827   1.494 -0.7099 -0.0489  0.0990
   96SOL    HW1  287   2.565   2.848   1.593  1.6657  3.7567  0.8354
   96SOL    HW2  288   2.504   2.751   1.476 -1.3986 -1.4550 -0.9786
   97SOL     OW  289   2.454   0.959   1.682  0.2907  0.0228  0.2384
   97SOL    HW1  290   2.432   0.922   1.591  1.2163  0.1182  0.5143
   97SOL    HW2  291   2.544   1.005   1.684  3.0289  0.2852 -0.9053
   98SOL     OW  292   1.777   2.531   1.855  0.2564  0.0728  0.1487
   98SOL    HW1  293   1.845   2.475   1.914  0.6051  0.5773  1.3541
   98SOL    HW2  294   1.738   2.471   1.781  0.4055  1.2710 -3.3799
   99SOL     OW  295   0.309   2.556   1.450 -0.3095 -0.1612 -0.5697
   99SOL    HW1  296   0.364   2.483   1.405  1.1492  1.0096  0.6880
   99SOL    HW2  297   0.333   2.553   1.548  1.1492  0.4879  0.9370
  100SOL     OW  298   1.623   0.414   2.857  0.2274  0.2332 -0.2031
  100SOL    HW1  299   1.605   0.443   2.761 -2.1341  1.7451 -1.2928
  100SOL    HW2  300   1.680   0.479   2.910 -1.1539 -1.2429 -1.3088
  101SOL     OW  301   2.473   0.537   2.747 -0.1301 -0.2968  0.0201
  101SOL    HW1  302   2.383   0.488   2.733 -2.3800 -3.5924 -0.1828
  101SOL    HW2  303   2.549   0.505   2.687  1.4442 -0.1652  2.5627
  102SOL     OW  304   0.518   0.668   1.471  0.4247 -0.2761 -0.3261
  102SOL    HW1  305   0.598   0.664   1.537  1.7320 -0.0175  0.2732
  102SOL    HW2  306   0.429   0.687   1.516 -0.9951  0.5200 -0.4061
  103SOL     OW  307   0.920   0.930   2.610 -0.6123 -0.1309 -0.2003
  103SOL    HW1  308   0.892   0.922   2.706  0.0449  0.5914  1.0684
  103SOL    HW2  309   0.886   0.850   2.561 -0.1055  0.3016  1.8706
  104SOL     OW  310   0.385   0.927   2.762  0.0226  0.0650  0.2356
  104SOL    HW1  311   0.296   0.893   2.805 -3.4653 -1.9869  0.8780
  104SOL    HW2  312   0.465   0.910   2.824 -0.3125 -1.9878 -0.8036
  105SOL     OW  313   2.256   2.059   1.635 -0.1214  0.0382  0.4247
  105SOL    HW1  314   2.260   2.022   1.729  0.8244 -2.1140  1.9771
  105SOL    HW2  315   2.167   2.024   1.590 -2.2849  0.3041 -0.3906
  106SOL     OW  316   1.630   2.971   0.449  0.1680 -0.2175 -0.6988
  106SOL    HW1  317   1.629   2.890   0.514 -2.3591  1.3806 -0.0395
  106SOL    HW2  318   1.708   2.966   0.384 -4.2511  1.9484  0.9758
  107SOL     OW  319   2.018   1.958   1.144 -0.1645  0.4338  0.8047
  107SOL    HW1  320   1.994   1.861   1.175 -1.4108 -0.1966  0.6976
  107SOL    HW2  321   2.118   1.981   1.133  2.3659 -1.0525 -0.6314
  108SOL     OW  322   2.836   2.795   1.353  0.2195 -0.1586 -0.0900
  108SOL    HW1  323   2.885   2.703   1.371 -1.2347 -4.7703  1.2383
  108SOL    HW2  324   2.748   2.815   1.406 -1.3692 -0.3161  2.8374
  109SOL     OW  325   1.772   2.333   0.954  0.0120 -0.2241  0.3380
  109SOL    HW1  326   1.829   2.250   0.974  0.3134  1.8224  0.0504
  109SOL    HW2  327   1.682   2.300   0.926  0.3298 -0.7048  1.1317
  110SOL     OW  328   0.845   1.831   2.011  0.0783  0.3090 -0.2059
  110SOL    HW1  329   0.868   1.731   2.029  0.0132  0.0065 -1.5460
  110SOL    HW2  330   0.927   1.892   2.016 -0.5942 -1.5674 -0.9686
  111SOL     OW  331   1.622   2.208   2.212 -0.7156  0.1391  1.0026
  111SOL    HW1  332   1.627   2.193   2.114 -0.0409  1.2790  0.7976
  111SOL    HW2  333   1.560   2.287   2.225  1.0890 -2.6735 -1.3311
  112SOL     OW  334   1.757   1.510   2.433 -0.4066 -0.7757  0.5055
  112SOL    HW1  335   1.745   1.587   2.367  1.3169  1.2551  0.2810
  112SOL    HW2  336   1.735   1.420   2.397 -1.0856  4.1258  0.6829
  113SOL     OW  337   1.706   1.863   1.861 -0.0613  0.0919 -0.0706
  113SOL    HW1  338   1.610   1.897   1.861 -2.0638 -0.6868  1.3396
  113SOL    HW2  339   1.698   1.774   1.908  2.4975 -2.3377 -0.7048
  114SOL     OW  340   3.022   1.246   1.535  0.7264 -0.3340 -0.0355
  114SOL    HW1  341   2.929   1.286   1.553  2.3314  2.2530 -0.6797
  114SOL    HW2  342   3.021   1.158   1.479  2.7854 -0.3136  2.2662
  115SOL     OW  343   0.811   0.780   0.274  0.6998 -0.2570 -0.3532
  115SOL    HW1  344   0.741   0.709   0.304  0.0834 -1.0815 -0.4318
  115SOL    HW2  345   0.829   0.850   0.346  0.8637  1.2159  1.4499
  116SOL     OW  346   2.912   1.866   2.231 -0.0002  0.8209  0.4918
  116SOL    HW1  347   2.907   1.920   2.146  2.0324 -0.1648 -0.9255
  116SOL    HW2  348   2.833   1.880   2.293  0.6024 -2.4141  0.3583
  117SOL     OW  349   0.000   2.692   0.791  0.0113  0.8169  0.1628
  117SOL    HW1  350   0.015   2.599   0.750  0.6661 -2.4417 -2.9247
  117SOL    HW2  351   0.049   2.701   0.877 -1.7566  2.3396 -2.1877
  118SOL     OW  352   0.582   1.745   2.942 -0.1522 -0.1966 -0.2630
  118SOL    HW1  353   0.522   1.824   2.942 -1.2991 -0.5153  0.5862
  118SOL    HW2  354   0.631   1.734   3.033 -1.9668  2.6064 -1.7081
  119SOL     OW  355   0.680   1.933   0.436 -0.4340 -0.1687  0.1423
  119SOL    HW1  356   0.633   1.879   0.511 -0.1742 -0.1224  1.8537
  119SOL    HW2  357   0.666   2.032   0.463  1.2144  0.0639 -1.3929
  120SOL     OW  358   1.263   0.480   0.224 -0.0482  0.5721 -0.0763
  120SOL    HW1  359   1.353   0.450   0.262  0.2032  3.4933  1.6611
  120SOL    HW2  360   1.209   0.406   0.181 -0.9249  0.4247  0.1711
  121SOL     OW  361   1.501   2.499   0.709  0.3488 -0.2212 -0.3323
  121SOL    HW1  362   1.480   2.430   0.781 -1.4322 -1.1666 -0.6974
  121SOL    HW2  363   1.440   2.470   0.629 -0.1027 -0.8965 -1.5610
  122SOL     OW  364   2.620   2.506   1.602  0.2331 -0.0733 -0.5580
  122SOL    HW1  365   2.608   2.553   1.510 -1.6885 -1.6314 -1.3543
  122SOL    HW2  366   2.712   2.462   1.601  0.1302  0.0406 -0.5446
  123SOL     OW  367   0.674   1.638   0.736 -0.3367  0.0461  0.2997
  123SOL    HW1  368   0.777   1.638   0.731  3.8983  1.6034 -1.9281
  123SOL    HW2  369   0.641   1.717   0.690  4.7688 -0.6929  3.3032
  124SOL     OW  370   2.882   1.016   0.546 -0.1004 -0.0678  0.6787
  124SOL    HW1  371   2.940   0.932   0.541  0.6870  0.4085  1.3865
  124SOL    HW2  372   2.903   1.078   0.469 -0.4112 -0.3269 -2.0897
  125SOL     OW  373   0.543   0.760   0.040 -0.1825 -0.0341  0.2296
  125SOL    HW1  374   0.451   0.719   0.054  1.9999  0.8357 -2.4706
  125SOL    HW2  375   0.578   0.798   0.123 -2.4815  0.5909 -0.7778
  126SOL     OW  376   2.983   1.965   0.492 -0.0827 -0.3244 -0.3549
  126SOL    HW1  377   2.918   1.915   0.552  2.5310  2.1506  0.2280
  126SOL    HW2  378   2.932   2.011   0.420 -1.0241 -0.9166  0.3900
  127SOL     OW  379   1.403   2.423   1.840  0.3262  0.2910 -0.5504
  127SOL    HW1  380   1.311   2.377   1.849 -0.2777 -1.7190 -0.6214
  127SOL    HW2  381   1.475   2.354   1.869  0.2615 -0.2313  0.0206
  128SOL     OW  382   0.864   1.070   0.218  0.6179  0.1082 -0.1689
  128SOL    HW1  383   0.878   0.999   0.144 -2.4985 -0.2456 -0.9883
  128SOL    HW2  384   0.821   1.150   0.172 -0.5471  0.9521  1.2973
  129SOL     OW  385   1.800   1.848   1.611 -0.2258  0.1640 -0.1860
  129SOL    HW1  386   1.754   1.929   1.568 -2.6374 -0.9080  0.1703
  129SOL    HW2  387   1.775   1.836   1.706  1.0577 -0.1440 -1.9824
  130SOL     OW  388   2.174   1.597   1.655 -0.2047  0.2058  0.0669
  130SOL    HW1  389   2.225   1.614   1.738 -1.9474 -0.1773 -3.4380
  130SOL    HW2  390   2.190   1.669   1.582  0.6588  0.0937  3.1026
  131SOL     OW  391   2.790   2.991   2.885  0.1347 -0.3384  0.3163
  131SOL    HW1  392   2.750   3.080   2.851  0.6278 -1.2690 -0.2604
  131SOL    HW2  393   2.817   2.935   2.805  0.6749 -0.5635 -1.8436
  132SOL     OW  394   2.400   2.020   0.698  0.5443  0.1483  0.2772
  132SOL    HW1  395   2.413   2.055   0.600 -2.7494  0.9448 -2.6314
  132SOL    HW2  396   2.463   1.942   0.715  0.1818 -0.4218 -1.4845
  133SOL     OW  397   0.604   0.173   2.225  0.1335  0.7823  0.9689
  133SOL    HW1  398   0.552   0.197   2.137  0.2226 -1.7608  0.6232
  133SOL    HW2  399   0.694   0.229   2.229  2.5649  2.2181  1.7358
  134SOL     OW  400   2.870   2.043   2.967  0.2176  0.6652 -0.1971
  134SOL    HW1  401   2.908   1.951   2.978 -2.2752 -1.4337  1.4161
  134SOL    HW2  402   2.768   2.035   2.949 -0.0715  0.2811 -0.3155
  135SOL     OW  403   1.424   0.655   2.044  0.0777  0.9209  0.4101
  135SOL    HW1  404   1.439   0.708   1.954  1.3782  3.1148 -0.6164
  135SOL    HW2  405   1.510   0.642   2.093  0.1082  1.0454  1.3379
  136SOL     OW  406   2.462   1.576   0.650 -0.0318  0.0866  0.3572
  136SOL    HW1  407   2.504   1.508   0.592 -0.0809  0.8777 -0.4923
  136SOL    HW2  408   2.397   1.531   0.710  0.5732 -0.7482 -3.6243
  137SOL     OW  409   2.795   1.753   0.676 -0.4607 -0.7162  0.8673
  137SOL    HW1  410   2.841   1.663   0.661 -1.5934  0.5433 -0.0938
  137SOL    HW2  411   2.830   1.797   0.763  2.3807  1.4332 -0.3606
  138SOL     OW  412   2.506   0.769   1.154 -0.5035 -0.6088 -0.0347
  138SOL    HW1  413   2.413   0.761   1.108  0.7767 -1.4976 -0.3698
  138SOL    HW2  414   2.573   0.831   1.108  1.9480  0.2246  1.6546
  139SOL     OW  415   0.426   2.575   2.945 -0.3965 -0.2723  0.3645
  139SOL    HW1  416   0.506   2.538   2.999  2.5027  1.6817 -1.7159
  139SOL    HW2  417   0.443   2.559   2.844 -0.1495 -0.4053 -0.8717
  140SOL     OW  418   1.094   2.073   1.120  0.6831  0.3325 -0.2166
  140SOL    HW1  419   1.169   2.095   1.056  0.0072  0.2409  1.2010
  140SOL    HW2  420   1.014   2.034   1.070 -0.5450 -1.0798 -0.3423
  141SOL     OW  421   1.232   2.144   0.707 -0.4531  0.5596  0.3560
  141SOL    HW1  422   1.314   2.094   0.670  0.1912 -1.0152 -0.3069
  141SOL    HW2  423   1.146   2.125   0.654 -0.8923  0.4172 -0.6239
  142SOL     OW  424   0.991   0.540   1.001 -0.1035  0.2934 -0.0425
  142SOL    HW1  425   1.036   0.591   0.923  0.6692 -0.6327  0.1768
  142SOL    HW2  426   0.888   0.540   1.006  1.0944 -2.3120  4.7572
  143SOL     OW  427   1.078   1.209   2.852 -0.2775  0.2499 -0.0853
  143SOL    HW1  428   1.136   1.279   2.905  3.2867  1.3036 -0.4125
  143SOL    HW2  429   1.050   1.255   2.759 -2.7235  1.1703 -4.4301
  144SOL     OW  430   1.893   2.569   0.888 -0.3670 -0.3286 -0.5177
  144SOL    HW1  431   1.812   2.623   0.857 -2.7807  1.7953  0.4005
  144SOL    HW2  432   1.873   2.471   0.915  0.3722 -0.0535  0.4376
  145SOL     OW  433   1.906   0.782   2.776 -0.1876 -0.4178  0.2398
  145SOL    HW1  434   1.822   0.817   2.733  1.6473 -0.4664  0.2073
  145SOL    HW2  435   1.924   0.827   2.864 -1.2804  1.4757  0.0584
  146SOL     OW  436   0.224   2.864   0.732 -0.0565  0.3195 -0.3380
  146SOL    HW1  437   0.239   2.886   0.630 -1.0874  0.6348  0.1744
  146SOL    HW2  438   0.160   2.785   0.736 -1.9064  0.8824  2.3027
  147SOL     OW  439   1.690   0.473   1.815 -0.1372 -0.2400  0.2659
  147SOL    HW1  440   1.683   0.532   1.733  0.9039 -0.0021  0.9491
  147SOL    HW2  441   1.716   0.526   1.898 -1.1682 -0.8648 -1.2742
  148SOL     OW  442   1.295   0.447   1.923  0.0232 -0.5260  0.1799
  148SOL    HW1  443   1.365   0.511   1.958  0.2159  1.7243 -2.9731
  148SOL    HW2  444   1.316   0.354   1.948 -1.1573  1.2265 -2.7523
  149SOL     OW  445   1.598   0.183   2.463  0.2625 -0.0064  0.1700
  149SOL    HW1  446   1.569   0.193   2.361 -2.6599  0.8236 -1.8033
  149SOL    HW2  447   1.609   0.086   2.485 -2.3188  4.2004 -0.8724
  150SOL     OW  448   2.711   3.032   0.201  0.1142  0.0357 -0.1344
  150SOL    HW1  449   2.775   2.969   0.148 -1.2099 -1.1622  0.2309
  150SOL    HW2  450   2.743   0.022   0.228 -1.6838 -1.8134 -1.9473
  151SOL     OW  451   0.701   1.285   2.926  0.7897 -0.4153 -0.2789
  151SOL    HW1  452   0.617   1.255   2.974  1.6133 -1.7285 -0.6653
  151SOL    HW2  453   0.747   1.211   2.879  1.1904  0.8589  2.5991
  152SOL     OW  454   3.047   0.326   0.653  0.2200 -0.8230  0.5890
  152SOL    HW1  455   3.052   0.285   0.743  0.6416 -2.8570 -5.0196
  152SOL    HW2  456   0.023   0.278   0.600  0.0734 -2.2151  1.0108
  153SOL     OW  457   2.613   0.338   1.555  0.0570  0.1266  0.4324
  153SOL    HW1  458   2.578   0.268   1.483 -1.2267 -4.5187 -3.3661
  153SOL    HW2  459   2.683   0.300   1.618  1.9559  0.6028 -2.5291
  154SOL     OW  460   1.633   0.228   2.182 -0.1591  0.0070  0.2332
  154SOL    HW1  461   1.721   0.229   2.133 -1.6302 -2.3377  3.2780
  154SOL    HW2  462   1.559   0.202   2.116  2.2660  0.8012  1.3744
  155SOL     OW  463   0.042   1.772   0.394  0.0479  0.6786  0.0452
  155SOL    HW1  464   0.110   1.787   0.313  0.4096  2.8558  1.2328
  155SOL    HW2  465   3.087   1.851   0.412  1.4807 -1.8826  2.1078
  156SOL     OW  466   2.676   1.710   2.979 -0.1480  0.1439 -0.2922
  156SOL    HW1  467   2.777   1.723   2.997  0.2252 -2.2156  2.0866
  156SOL    HW2  468   2.631   1.707   3.068  0.7741 -0.1716 -0.0132
  157SOL     OW  469   0.836   0.289   0.588 -0.0115  0.1673  0.2364
  157SOL    HW1  470   0.873   0.356   0.522  2.0721  4.2937  0.5036
  157SOL    HW2  471   0.862   0.191   0.565 -1.1699 -3.6040  2.3140
  158SOL     OW  472   2.369   0.645   1.983  0.2870 -0.0154  0.3888
  158SOL    HW1  473   2.410   0.638   1.891 -1.6285  3.3009  2.3493
  158SOL    HW2  474   2.282   0.589   1.989  0.5469 -0.8390 -0.5857
  159SOL     OW  475   0.128   0.230   0.467 -0.0065  0.0720  0.2477
  159SOL    HW1  476   0.098   0.134   0.479  1.1617  1.0957  3.6522
  159SOL    HW2  477   0.166   0.254   0.378 -0.3790 -0.0190 -0.2267
  160SOL     OW  478   1.837   2.049   2.035 -0.1350 -0.6452 -0.0140
  160SOL    HW1  479   1.827   2.149   2.038 -0.2080  1.3300 -1.2693
  160SOL    HW2  480   1.777   2.014   1.960  1.4370  0.2251  1.7719
  161SOL     OW  481   2.921   0.537   2.577  0.0394  0.0524 -0.5188
  161SOL    HW1  482   2.953   0.556   2.667 -2.4371  0.7594 -0.9964
  161SOL    HW2  483   2.958   0.448   2.543 -2.2166 -0.5440 -1.1634
  162SOL     OW  484   1.025   2.873   1.402  0.4068 -0.4934  0.0009
  162SOL    HW1  485   1.047   2.774   1.423 -2.3872 -1.0445 -0.7505
  162SOL    HW2  486   1.016   2.928   1.492 -0.7116  1.4267  2.2977
  163SOL     OW  487   2.590   0.197   2.417 -0.1776 -0.3254 -0.3398
  163SOL    HW1  488   2.515   0.131   2.412 -0.8144  0.1435 -0.2298
  163SOL    HW2  489   2.677   0.135   2.417  0.2244 -3.1764  2.0604
  164SOL     OW  490   2.330   1.649   0.055  0.6002 -0.1820  0.4564
  164SOL    HW1  491   2.301   1.745   0.060 -0.9561 -0.6597 -1.9686
  164SOL    HW2  492   2.431   1.646   0.069 -1.1141  2.0272  1.2901
  165SOL     OW  493   0.048   0.480   1.094 -0.4727 -0.1555  0.5774
  165SOL    HW1  494   0.100   0.466   1.009 -0.6268 -0.1722  0.6901
  165SOL    HW2  495   3.051   0.479   1.077 -2.8038 -0.2778 -1.1490
  166SOL     OW  496   2.313   0.725   0.382  0.1249  0.2470  0.1458
  166SOL    HW1  497   2.405   0.713   0.330 -0.8014 -0.4351  1.1250
  166SOL    HW2  498   2.280   0.820   0.356  0.9460  3.3413 -0.7976
  167SOL     OW  499   2.750   0.984   0.015 -0.0465 -0.3208 -0.2835
  167SOL    HW1  500   2.716   1.000   3.021 -2.1083  1.8194 -2.1192
  167SOL    HW2  501   2.682   1.004   0.086  0.0501 -3.6880  1.0604
  168SOL     OW  502   1.766   0.009   2.691  0.1955 -0.0902 -0.0204
  168SOL    HW1  503   1.808   3.021   2.718  0.3583  0.5396 -0.4458
  168SOL    HW2  504   1.825   0.051   2.627  0.3574 -0.2224 -0.7122
  169SOL     OW  505   0.128   1.551   0.963 -0.0598  0.4851 -0.3886
  169SOL    HW1  506   0.036   1.508   0.940  2.7473 -3.7417 -1.4020
  169SOL    HW2  507   0.201   1.491   0.911  2.1543 -2.1121 -1.4033
  170SOL     OW  508   0.244   0.967   1.235 -0.1191 -0.2315 -0.0597
  170SOL    HW1  509   0.263   0.976   1.335 -0.3600  1.0553  1.2697
  170SOL    HW2  510   0.245   0.868   1.207 -2.1076 -2.1814 -0.4019
  171SOL     OW  511   2.502   2.041   1.928 -0.5932 -0.0803  0.2528
  171SOL    HW1  512   2.550   2.097   1.847  4.4353  2.4120 -2.1704
  171SOL    HW2  513   2.415   1.990   1.898 -2.9653 -0.3752  0.7244
  172SOL     OW  514   0.258   2.119   1.346  0.2149  0.2037  0.2550
  172SOL    HW1  515   0.157   2.143   1.347  1.2531 -1.2206 -1.1858
  172SOL    HW2  516   0.310   2.202   1.315 -0.9081  2.6093 -0.2728
  173SOL     OW  517   1.182   1.333   0.107  0.4161 -0.1132  0.0268
  173SOL    HW1  518   1.153   1.364   0.198 -0.1521 -1.1943 -1.9849
  173SOL    HW2  519   1.159   1.405   0.040 -2.7043  0.0801 -0.5164
  174SOL     OW  520   1.270   0.681   2.820  0.0854  0.1933 -0.2220
  174SOL    HW1  521   1.298   0.719   2.730  0.9134  0.4553 -0.0946
  174SOL    HW2  522   1.353   0.645   2.866 -0.5745  0.6465 -0.7965
  175SOL     OW  523   1.397   1.866   1.032 -0.3813  0.0114  0.4360
  175SOL    HW1  524   1.419   1.817   1.117 -1.6161  1.3925 -1.7018
  175SOL    HW2  525   1.342   1.811   0.973 -0.0672  0.9038  3.3703
  176SOL     OW  526   1.496   3.070   0.238 -1.0877  0.3777  0.4726
  176SOL    HW1  527   1.558   3.070   0.152  1.7823  0.1090 -0.4286
  176SOL    HW2  528   1.537   3.044   0.327  0.3301  1.7179  1.3682
  177SOL     OW  529   0.555   1.113   3.091  0.6102  0.0953  0.0678
  177SOL    HW1  530   0.474   1.127   0.050  0.4860  0.5050 -1.3021
  177SOL    HW2  531   0.621   1.043   0.025  1.3642  0.4462 -2.9890
  178SOL     OW  532   2.252   2.249   2.361 -0.6118 -0.0917 -0.0035
  178SOL    HW1  533   2.315   2.295   2.429  3.3011 -0.8010 -1.8482
  178SOL    HW2  534   2.278   2.269   2.265  4.6592  1.9141 -1.8149
  179SOL     OW  535   2.918   0.138   2.638 -0.1506 -0.0716 -0.2472
  179SOL    HW1  536   2.839   0.156   2.703 -0.7485  0.8415  1.4297
  179SOL    HW2  537   2.888   0.101   2.548 -0.8612  0.7228  3.7416
  180SOL     OW  538   1.820   0.804   0.752 -0.2037  0.1997  0.8506
  180SOL    HW1  539   1.879   0.721   0.732  1.2840  0.8268  2.2093
  180SOL    HW2  540   1.799   0.823   0.852  1.4242  2.9028  0.8977
  181SOL     OW  541   2.156   1.177   2.432 -0.2917  0.3952 -0.0255
  181SOL    HW1  542   2.169   1.276   2.438 -0.8731 -0.0907  1.3579
  181SOL    HW2  543   2.079   1.144   2.492  0.6644 -4.9089 -0.5594
  182SOL     OW  544   2.715   2.407   2.111 -0.4649  0.0893 -0.0484
  182SOL    HW1  545   2.786   2.432   2.044 -0.9359  0.2052 -1.7155
  182SOL    HW2  546   2.745   2.328   2.170  2.0525 -1.9175  4.2244
  183SOL     OW  547   2.052   0.672   1.862 -0.2360 -0.1972 -0.1791
  183SOL    HW1  548   1.971   0.662   1.929 -1.5143 -1.9052  1.0826
  183SOL    HW2  549   2.103   0.586   1.878 -0.3736 -0.7995  1.4129
  184SOL     OW  550   0.033   1.677   1.467  0.4055 -0.4631  0.0005
  184SOL    HW1  551   0.080   1.622   1.396 -0.3377 -2.5950 -1.8077
  184SOL    HW2  552   0.086   1.741   1.529 -0.9295  3.2646  0.1917
  185SOL     OW  553   2.377   3.061   0.927  0.0081  0.1937 -0.1227
  185SOL    HW1  554   2.446   0.013   0.978 -2.7042 -1.4860  1.6053
  185SOL    HW2  555   2.425   2.975   0.901  0.6540 -1.5378 -0.9403
  186SOL     OW  556   3.012   2.545   2.731 -0.6549 -0.4828  0.4818
  186SOL    HW1  557   2.970   2.464   2.686 -0.1309 -0.6907  0.3537
  186SOL    HW2  558   3.001   2.540   2.831  0.1079 -1.2116 -2.0581
  187SOL     OW  559   2.891   1.469   0.646  0.3430  0.2990  0.2569
  187SOL    HW1  560   2.930   1.502   0.554  1.2347 -1.7607 -0.3179
  187SOL    HW2  561   2.834   1.383   0.635 -0.9772 -2.6599  1.6499
  188SOL     OW  562   2.314   1.161   1.089 -0.5214  0.0325  0.0882
  188SOL    HW1  563   2.374   1.203   1.156 -2.7462 -2.8884 -0.1706
  188SOL    HW2  564   2.230   1.212   1.080  3.1591  0.8104  0.4628
  189SOL     OW  565   3.059   0.307   2.475  0.6125 -0.1936  0.0148
  189SOL    HW1  566   3.011   0.236   2.536 -1.5116 -1.6087  2.7063
  189SOL    HW2  567   0.056   0.300   2.481  0.5733  1.4874  0.0021
  190SOL     OW  568   1.683   0.871   1.877  0.5081 -0.4336 -0.6850
  190SOL    HW1  569   1.740   0.898   1.799 -0.0264 -0.8727  2.4373
  190SOL    HW2  570   1.587   0.847   1.844  0.0008 -1.4725 -0.7280
  191SOL     OW  571   0.929   0.204   1.963 -0.7001  0.0676  0.4033
  191SOL    HW1  572   0.965   0.134   2.027 -0.6377  2.9759  1.5566
  191SOL    HW2  573   0.964   0.294   1.989  0.9217 -1.4575 -0.9962
  192SOL     OW  574   1.463   1.999   1.867 -0.5611 -0.3464 -0.2194
  192SOL    HW1  575   1.397   1.956   1.932  1.5362 -0.1431 -1.8554
  192SOL    HW2  576   1.418   1.982   1.776 -1.6316 -0.8169  2.8696
  193SOL     OW  577   1.734   0.454   0.878 -0.0048 -0.0706  0.8275
  193SOL    HW1  578   1.730   0.436   0.779 -2.8187  0.8887  1.4405
  193SOL    HW2  579   1.666   0.520   0.910  0.7710 -3.1335  0.6837
  194SOL     OW  580   0.722   1.949   1.304  0.2886 -0.4054 -0.2003
  194SOL    HW1  581   0.623   1.951   1.272  0.0136  2.4406  0.0340
  194SOL    HW2  582   0.759   1.858   1.336 -1.6483 -0.1533 -1.0575
  195SOL     OW  583   1.519   0.416   0.313  0.4374 -0.3749 -0.1028
  195SOL    HW1  584   1.552   0.504   0.352  0.4575  1.2353 -2.8368
  195SOL    HW2  585   1.591   0.371   0.252  0.4502  3.3314 -0.7798
  196SOL     OW  586   0.613   1.498   1.756  0.4718  0.3166  0.7452
  196SOL    HW1  587   0.651   1.596   1.755  0.2237  2.1472 -0.2818
  196SOL    HW2  588   0.514   1.494   1.726  0.1656 -1.8960  1.0004
  197SOL     OW  589   1.011   0.362   1.564  0.0921  0.4373 -0.3189
  197SOL    HW1  590   1.068   0.364   1.475 -0.2538 -1.3395 -1.3066
  197SOL    HW2  591   1.048   0.426   1.634 -1.5946 -0.8682  0.7473
  198SOL     OW  592   1.002   1.333   0.947  0.3247  0.0525 -0.1849
  198SOL    HW1  593   0.910   1.373   0.919 -2.4009 -0.6697  0.0928
  198SOL    HW2  594   1.007   1.237   0.902 -1.0439 -4.1702  0.2019
  199SOL     OW  595   3.085   2.343   1.827 -0.2359 -0.3214  0.8409
  199SOL    HW1  596   3.060   2.437   1.788  0.9106 -0.6565  0.9485
  199SOL    HW2  597   0.082   2.329   1.820  2.1132  0.5920  0.6031
  200SOL     OW  598   1.863   1.340   1.825  0.5004  0.3573 -0.1073
  200SOL    HW1  599   1.886   1.240   1.827 -0.4715 -0.2046 -1.2980
  200SOL    HW2  600   1.773   1.353   1.865  0.9436 -1.3851 -0.9179
  201SOL     OW  601   0.584   1.860   2.115  0.4216 -0.0954  0.3198
  201SOL    HW1  602   0.666   1.844   2.063 -0.7080  0.4550  1.1813
  201SOL    HW2  603   0.498   1.838   2.059 -0.2299  0.4815  1.0145
  202SOL     OW  604   1.326   0.183   0.105 -0.0319 -0.2288  0.4701
  202SOL    HW1  605   1.411   0.171   0.157  1.5457 -0.6620  1.5044
  202SOL    HW2  606   1.284   0.094   0.079  0.0626  0.7168 -1.1456
  203SOL     OW  607   1.372   2.933   2.401 -0.1344  0.1444  0.0782
  203SOL    HW1  608   1.413   2.892   2.486 -0.7331 -0.8019  0.7598
  203SOL    HW2  609   1.369   2.864   2.328  1.3119  3.3100 -1.3399
  204SOL     OW  610   0.696   1.754   1.776  0.8008  0.2245 -0.3302
  204SOL    HW1  611   0.703   1.822   1.702  2.6795  0.0484 -1.6482
  204SOL    HW2  612   0.749   1.787   1.853  0.0705 -0.1776  1.2468
  205SOL     OW  613   1.740   1.241   2.429 -0.2138  0.5621  0.0297
  205SOL    HW1  614   1.806   1.213   2.359 -1.5057  1.0998 -1.2464
  205SOL    HW2  615   1.780   1.254   2.523  0.4228  0.4056 -0.8226
  206SOL     OW  616   0.179   1.657   2.207  0.4203  0.3494 -0.2204
  206SOL    HW1  617   0.242   1.666   2.281 -1.0004 -1.2262 -1.3985
  206SOL    HW2  618   0.119   1.580   2.227  0.1039  1.5085 -1.7211
  207SOL     OW  619   0.998   3.018   1.643  0.0708 -0.0020 -0.4617
  207SOL    HW1  620   0.914   3.072   1.613 -2.7257  0.7246 -0.9021
  207SOL    HW2  621   1.082   3.065   1.618 -4.0110 -1.1537 -1.4623
  208SOL     OW  622   0.358   2.618   1.742 -0.0647  0.6253 -0.0728
  208SOL    HW1  623   0.308   2.556   1.803 -0.7755  2.1139 -2.3414
  208SOL    HW2  624   0.456   2.623   1.768 -1.4723  0.7618 -1.1642
  209SOL     OW  625   1.339   2.910   0.579  0.2396 -0.8051 -0.2207
  209SOL    HW1  626   1.414   2.912   0.645  0.6302 -2.6926  0.8360
  209SOL    HW2  627   1.359   2.972   0.504  0.8960  1.0256 -0.4961
  210SOL     OW  628   2.680   0.903   1.004 -0.2372  0.5284 -0.1092
  210SOL    HW1  629   2.733   0.879   0.919  0.9507 -1.4506  2.0495
  210SOL    HW2  630   2.607   0.973   0.976  1.6148  1.4607 -0.3529
  211SOL     OW  631   0.623   0.330   1.728 -0.3189  0.0760  0.4024
  211SOL    HW1  632   0.705   0.270   1.715 -0.4600 -0.7199 -0.0265
  211SOL    HW2  633   0.565   0.316   1.647  0.3516  0.9070  1.3490
  212SOL     OW  634   1.313   2.458   1.566 -0.2108 -0.5822 -0.7162
  212SOL    HW1  635   1.404   2.465   1.520 -0.5722 -0.9943  2.5879
  212SOL    HW2  636   1.326   2.457   1.667 -3.0632  0.4921  1.1723
  213SOL     OW  637   2.981   0.511   1.529 -0.4418 -0.3419  0.1108
  213SOL    HW1  638   3.034   0.463   1.454 -0.6644 -1.0397 -0.8289
  213SOL    HW2  639   2.888   0.542   1.500 -1.5771  1.9244 -0.8062
  214SOL     OW  640   0.638   2.603   1.803 -0.4776 -0.7639  0.5514
  214SOL    HW1  641   0.674   2.598   1.709 -0.7470 -1.4104  3.2825
  214SOL    HW2  642   0.666   2.684   1.857 -0.5377 -1.1921 -0.8588
  215SOL     OW  643   2.590   1.539   1.671  0.0456  0.3760  0.0586
  215SOL    HW1  644   2.527   1.471   1.707  1.4738  3.9933  1.7752
  215SOL    HW2  645   2.541   1.607   1.617 -1.4634  0.5667  0.8229
  216SOL     OW  646   0.424   0.946   2.130 -0.2638 -0.4591  0.4121
  216SOL    HW1  647   0.460   1.034   2.091 -1.5996  2.8676 -1.0765
  216SOL    HW2  648   0.493   0.871   2.127 -0.4278  0.3282 -1.3936
  217SOL     OW  649   2.832   0.011   1.498  0.4781  0.1170 -0.6468
  217SOL    HW1  650   2.746   0.013   1.442 -1.7134  0.4242 -1.4095
  217SOL    HW2  651   2.912   3.092   1.439 -0.0589  2.0104 -1.8484
  218SOL     OW  652   1.510   2.190   1.180  0.4707  0.2558 -0.7492
  218SOL    HW1  653   1.471   2.154   1.094 -0.4381 -1.8404 -0.6056
  218SOL    HW2  654   1.612   2.178   1.190  0.3628  1.2877 -0.3754
  219SOL     OW  655   1.688   2.717   0.536  0.3541  0.3317 -0.6183
  219SOL    HW1  656   1.663   2.708   0.639  0.4877  0.8861  4.4040
  219SOL    HW2  657   1.660   2.631   0.483  0.3803 -2.3099 -0.3987
  220SOL     OW  658   1.639   2.469   0.142 -0.2133 -0.0152 -0.1149
  220SOL    HW1  659   1.575   2.492   0.065  0.2650  3.6875  0.5621
  220SOL    HW2  660   1.713   2.536   0.134 -1.9036 -3.5643 -0.3956
  221SOL     OW  661   2.538   1.811   0.771  0.5016 -0.4917 -0.3050
  221SOL    HW1  662   2.631   1.802   0.737 -0.1894  0.6613 -0.8094
  221SOL    HW2  663   2.486   1.728   0.741 -0.1548 -0.7764  2.1174
  222SOL     OW  664   0.806   2.471   0.886 -0.4399 -0.5540 -0.1264
  222SOL    HW1  665   0.731   2.451   0.825 -0.2547  0.9402 -0.0429
  222SOL    HW2  666   0.776   2.455   0.982  2.7541  1.4360  1.0502
  223SOL     OW  667   1.102   2.825   0.023 -0.4165 -0.3036  0.6880
  223SOL    HW1  668   1.081   2.739   0.079  1.8623  0.2653 -2.0371
  223SOL    HW2  669   1.081   2.818   3.025 -0.4026  0.2735  0.0620
  224SOL     OW  670   3.090   1.083   1.191 -0.2236 -0.1856 -0.0346
  224SOL    HW1  671   3.009   1.023   1.215 -1.9324  1.0622 -0.5990
  224SOL    HW2  672   0.073   1.034   1.210  1.4672 -3.4735 -0.1536
  225SOL     OW  673   2.916   1.861   0.890 -0.1350  0.5634  0.7333
  225SOL    HW1  674   2.892   1.958   0.915  1.6757  0.4001  1.0826
  225SOL    HW2  675   3.018   1.849   0.862  1.7703 -0.3780 -1.0088
  226SOL     OW  676   0.935   2.706   0.983 -0.1879 -0.0811  0.6115
  226SOL    HW1  677   0.949   2.632   0.911 -0.9516 -0.0007 -1.8988
  226SOL    HW2  678   0.981   2.790   0.953 -2.4097  1.0657 -0.1519
  227SOL     OW  679   0.740   1.441   1.521  0.1650 -0.0167 -0.1718
  227SOL    HW1  680   0.758   1.345   1.486  0.5691 -1.9117 -0.5948
  227SOL    HW2  681   0.678   1.433   1.604 -2.6373  1.0704  1.4700
  228SOL     OW  682   1.347   0.227   2.057  0.4299  0.7241 -0.5195
  228SOL    HW1  683   1.356   0.128   2.039 -1.2334 -2.1365  0.2003
  228SOL    HW2  684   1.272   0.247   2.122 -0.2264 -0.6352  0.1090
  229SOL     OW  685   0.107   0.803   2.425 -0.2275 -0.1321  0.3260
  229SOL    HW1  686   0.005   0.786   2.425  1.8730 -0.4172 -2.1719
  229SOL    HW2  687   0.146   0.759   2.340  2.9291  1.5539 -0.3725
  230SOL     OW  688   0.098   1.260   1.013 -0.0293 -0.6112 -0.3163
  230SOL    HW1  689   0.019   1.312   0.969  0.0808  0.1879 -1.1179
  230SOL    HW2  690   0.067   1.185   1.080 -1.3702  2.6717  1.0723
  231SOL     OW  691   1.308   0.074   2.685 -0.4189  0.0038 -0.3643
  231SOL    HW1  692   1.337   0.025   2.601  1.8188 -1.2174 -1.7300
  231SOL    HW2  693   1.317   0.007   2.758  1.8066  0.7251 -1.4473
  232SOL     OW  694   0.272   1.547   3.098 -0.1549 -0.6074  0.7263
  232SOL    HW1  695   0.328   1.539   3.015 -1.1099 -0.0129  2.1415
  232SOL    HW2  696   0.314   1.490   0.070 -2.3538 -2.0690  1.2788
  233SOL     OW  697   1.291   2.436   2.903 -0.1398  0.4767  0.0015
  233SOL    HW1  698   1.368   2.422   2.836  0.4111 -1.0327  0.1129
  233SOL    HW2  699   1.207   2.464   2.850 -0.7783 -4.2657  1.3186
  234SOL     OW  700   0.887   1.562   2.088  0.6502  0.3692 -0.3705
  234SOL    HW1  701   0.942   1.483   2.050  1.6810  0.7503  0.3589
  234SOL    HW2  702   0.808   1.525   2.142  0.6489 -0.1127 -2.0024
  235SOL     OW  703   0.255   2.450   1.944  0.2121 -0.3675  0.1602
  235SOL    HW1  704   0.248   2.365   1.886  2.3749  1.2329  0.0198
  235SOL    HW2  705   0.331   2.433   2.009 -0.6360  0.1144  1.2916
  236SOL     OW  706   1.704   2.096   2.663 -0.0813 -0.1744 -0.1446
  236SOL    HW1  707   1.690   2.034   2.739  1.9382 -1.5615  0.6133
  236SOL    HW2  708   1.664   2.189   2.681 -0.7656  0.5103  0.8570
  237SOL     OW  709   1.480   0.601   0.706 -0.4932  0.1129  0.3783
  237SOL    HW1  710   1.557   0.542   0.670 -1.7472  0.8346  2.2270
  237SOL    HW2  711   1.414   0.622   0.628  2.4368 -0.5272  0.7541
  238SOL     OW  712   0.979   0.052   2.536 -0.1745  0.0148  0.2232
  238SOL    HW1  713   0.911   3.078   2.524  0.5902 -0.2984  0.2555
  238SOL    HW2  714   0.945   0.136   2.490  0.1107 -0.2118  2.5632
  239SOL     OW  715   1.049   2.824   1.830 -0.1800  0.2789 -0.2778
  239SOL    HW1  716   1.049   2.728   1.797 -1.0468 -0.1892  0.1931
  239SOL    HW2  717   1.010   2.886   1.756  1.1860 -2.0795  0.3167
  240SOL     OW  718   2.097   2.768   0.852  0.0080  0.2739  0.3234
  240SOL    HW1  719   2.023   2.693   0.863  0.1727 -3.7972  0.2101
  240SOL    HW2  720   2.142   2.762   0.942 -1.7129  0.9358 -0.6444
  241SOL     OW  721   1.635   1.455   1.895 -0.7163 -0.3069  0.0660
  241SOL    HW1  722   1.580   1.387   1.944  2.6299 -1.2150 -1.6054
  241SOL    HW2  723   1.636   1.538   1.949  0.8603 -0.6899 -2.1205
  242SOL     OW  724   2.526   0.745   0.211  0.0246 -0.2051  0.1271
  242SOL    HW1  725   2.576   0.675   0.156 -0.0200 -0.4494  0.5626
  242SOL    HW2  726   2.456   0.788   0.151 -1.7771  0.4056  0.1118
  243SOL     OW  727   0.916   0.890   1.228  0.3123 -0.5695  0.2739
  243SOL    HW1  728   0.937   0.881   1.325 -1.6701  1.3255 -2.4220
  243SOL    HW2  729   0.997   0.918   1.174  1.2361 -2.7203 -0.0411
  244SOL     OW  730   1.644   0.128   2.906  0.2347  0.1422 -0.1379
  244SOL    HW1  731   1.620   0.227   2.899  1.3138  2.9784 -1.6791
  244SOL    HW2  732   1.696   0.101   2.823 -1.0847  1.0003 -1.5290
  245SOL     OW  733   2.054   0.083   2.976  0.2981  0.0929 -0.9349
  245SOL    HW1  734   2.002   3.101   2.987  0.7102 -0.8154  0.8360
  245SOL    HW2  735   2.108   0.112   3.060  0.3160  1.7661  1.7822
  246SOL     OW  736   1.116   0.895   1.460 -0.3103 -0.2948  0.4222
  246SOL    HW1  737   1.191   0.845   1.405  1.4992 -2.3203 -0.8034
  246SOL    HW2  738   1.034   0.837   1.473  2.3056  1.6181  1.4755
  247SOL     OW  739   0.518   0.222   1.969 -0.1825 -0.0316 -0.2618
  247SOL    HW1  740   0.431   0.171   1.950  1.4383  0.0567  0.6220
  247SOL    HW2  741   0.528   0.296   1.899 -1.6459 -2.1569  0.3111
  248SOL     OW  742   0.081   1.962   1.865 -0.6261 -0.1759 -0.3865
  248SOL    HW1  743   0.072   1.866   1.904 -0.4093 -1.5987  1.2663
  248SOL    HW2  744   0.161   2.003   1.914  0.0876 -0.2408  1.4732
  249SOL     OW  745   2.936   0.170   3.024 -0.2537 -0.0497 -0.1094
  249SOL    HW1  746   2.848   0.143   2.988  3.5544  1.3803  1.3006
  249SOL    HW2  747   2.996   0.088   3.012  1.9033  0.2421 -1.8993
  250SOL     OW  748   3.062   0.006   0.505 -0.4900 -0.0096 -0.5329
  250SOL    HW1  749   3.036   3.016   0.546  0.5516  2.1660 -1.3697
  250SOL    HW2  750   3.072   3.096   0.403 -0.9081  0.1502 -2.8310
  251SOL     OW  751   0.640   1.325   1.215  0.2368  0.7515  0.3510
  251SOL    HW1  752   0.552   1.342   1.267  0.8542  1.8328 -0.2658
  251SOL    HW2  753   0.706   1.267   1.263 -1.7571  2.3970 -1.9538
  252SOL     OW  754   1.692   2.760   1.435  0.3276 -0.1139  0.0756
  252SOL    HW1  755   1.772   2.798   1.379  1.6665  0.9513 -1.7160
  252SOL    HW2  756   1.609   2.799   1.388 -1.6217 -1.9434 -0.4093
  253SOL     OW  757   2.324   1.773   2.429  0.4143  0.1860 -1.0654
  253SOL    HW1  758   2.391   1.847   2.430 -2.6725 -2.1483  1.0251
  253SOL    HW2  759   2.363   1.686   2.404 -0.6823  1.1894 -0.2620
  254SOL     OW  760   0.682   2.105   2.184  0.1885 -0.1764 -0.0216
  254SOL    HW1  761   0.645   2.008   2.178  0.5247  2.0986 -2.4289
  254SOL    HW2  762   0.614   2.161   2.237 -1.6134 -3.3131  1.6137
  255SOL     OW  763   1.168   0.360   1.347 -0.0518 -0.2804  0.2063
  255SOL    HW1  764   1.264   0.357   1.364  1.0262 -1.6443 -1.4605
  255SOL    HW2  765   1.150   0.296   1.271 -1.2102 -3.4277 -0.2888
  256SOL     OW  766   2.180   2.208   1.275 -0.3903 -0.3595 -0.3518
  256SOL    HW1  767   2.117   2.169   1.347  2.5356  1.2858 -2.0456
  256SOL    HW2  768   2.192   2.147   1.193  0.2858 -0.3945 -2.2074
  257SOL     OW  769   0.766   2.183   2.885  0.1304 -0.1665 -0.1363
  257SOL    HW1  770   0.830   2.254   2.849 -0.5640  1.1736  2.7511
  257SOL    HW2  771   0.688   2.171   2.822 -1.4843  0.3291 -0.7314
  258SOL     OW  772   0.453   1.499   2.922 -0.3192  0.5637  0.0462
  258SOL    HW1  773   0.497   1.591   2.909 -1.0028  0.0896 -0.2737
  258SOL    HW2  774   0.521   1.430   2.902 -1.4546  1.8208  0.9098
  259SOL     OW  775   0.696   1.510   2.603  0.4157 -0.1950  0.6217
  259SOL    HW1  776   0.631   1.430   2.605  0.1723 -3.3839  2.1122
  259SOL    HW2  777   0.782   1.479   2.559  1.9918 -2.1051 -1.1329
  260SOL     OW  778   1.978   1.019   1.381  0.4111 -0.3869 -0.2931
  260SOL    HW1  779   1.919   1.024   1.466  1.0871 -0.5362  1.9298
  260SOL    HW2  780   2.016   1.112   1.357  0.6474 -1.7838  1.4672
  261SOL     OW  781   1.317   0.366   0.822 -0.2271 -0.4140 -0.7769
  261SOL    HW1  782   1.353   0.458   0.795 -1.4485  0.3215  0.8251
  261SOL    HW2  783   1.316   0.358   0.927  0.0416  0.6023  2.9428
  262SOL     OW  784   1.963   2.024   2.604 -0.3679 -0.0468 -0.3798
  262SOL    HW1  785   2.000   2.021   2.510  0.4294  0.8895  0.2867
  262SOL    HW2  786   1.872   2.063   2.613  0.9485 -0.5695 -0.5308
  263SOL     OW  787   0.003   1.585   0.004 -0.5787 -0.1331  0.3492
  263SOL    HW1  788   3.050   1.529   0.073 -1.3851 -1.9097  0.6164
  263SOL    HW2  789   0.103   1.567   0.019  0.2076  0.0189 -0.9296
  264SOL     OW  790   0.405   1.710   1.137 -0.3725 -0.4775 -0.1499
  264SOL    HW1  791   0.325   1.657   1.174  1.3051 -0.2757  2.1505
  264SOL    HW2  792   0.477   1.646   1.107  1.6063 -2.2341 -2.0575
  265SOL     OW  793   0.413   0.818   0.668 -0.0094  0.2531  0.6557
  265SOL    HW1  794   0.318   0.836   0.701 -0.6114  3.5607  0.4204
  265SOL    HW2  795   0.444   0.890   0.601 -1.4692 -0.8062 -1.0254
  266SOL     OW  796   1.272   1.969   0.322  0.1640 -0.1956  0.6834
  266SOL    HW1  797   1.269   1.872   0.344  1.8710 -0.9413  0.5441
  266SOL    HW2  798   1.189   2.008   0.278  2.3716 -2.2191  0.2985
  267SOL     OW  799   0.655   0.758   2.139 -0.1208  0.6897 -0.4223
  267SOL    HW1  800   0.691   0.787   2.049  0.8731  0.1238  0.2607
  267SOL    HW2  801   0.724   0.759   2.215  1.8238  1.2474  1.0559
  268SOL     OW  802   0.621   0.877   2.890  0.4324 -0.1523 -0.1123
  268SOL    HW1  803   0.711   0.930   2.893  1.5235 -0.2550 -0.0235
  268SOL    HW2  804   0.590   0.839   2.982 -0.3214  0.1001  1.7016
  269SOL     OW  805   1.779   2.725   2.475  0.0982 -0.1994  0.2192
  269SOL    HW1  806   1.695   2.726   2.414 -0.5291 -0.5586  0.8138
  269SOL    HW2  807   1.748   2.685   2.563  0.8755  0.0291 -3.2288
  270SOL     OW  808   0.999   1.292   2.624  0.1411 -0.6427  0.0468
  270SOL    HW1  809   0.910   1.253   2.595  2.5225  0.2310  2.0132
  270SOL    HW2  810   1.069   1.272   2.552  3.0561  1.4492  1.3885
  271SOL     OW  811   0.081   0.183   0.112  0.1255 -0.4276  0.2967
  271SOL    HW1  812   0.046   0.275   0.085  0.1648 -0.6523 -0.3605
  271SOL    HW2  813   0.133   0.142   0.034 -0.9509  1.6710 -0.0489
  272SOL     OW  814   2.333   0.807   0.031  0.0644 -0.1091  0.0943
  272SOL    HW1  815   2.336   0.897   3.086 -0.1631 -0.1701  1.4070
  272SOL    HW2  816   2.293   0.727   3.078 -0.6606 -3.6937 -0.4348
  273SOL     OW  817   0.119   0.109   2.284 -0.7584  0.1518  0.0169
  273SOL    HW1  818   0.099   0.153   2.194  0.1868 -5.9604  0.0745
  273SOL    HW2  819   0.194   0.162   2.332  1.4093  1.9573  0.6281
  274SOL     OW  820   0.050   0.462   1.930 -0.1637  0.1777  0.5595
  274SOL    HW1  821   0.045   0.559   1.952 -1.6208 -3.0831  2.1793
  274SOL    HW2  822   3.074   0.433   1.867 -1.9343 -1.5210 -2.0322
  275SOL     OW  823   1.324   1.782   0.546 -0.1828  0.3068  0.1571
  275SOL    HW1  824   1.409   1.745   0.501 -0.0664 -1.5501 -1.0464
  275SOL    HW2  825   1.345   1.870   0.594  1.1310  0.7620  4.3087
  276SOL     OW  826   0.575   1.033   2.400  0.0480  0.2397  0.1166
  276SOL    HW1  827   0.521   1.120   2.385 -0.1312  0.5836  0.7477
  276SOL    HW2  828   0.508   0.963   2.430  7.1331 -0.7361 -0.3668
  277SOL     OW  829   1.960   2.536   2.413 -0.0679 -0.0942 -0.4691
  277SOL    HW1  830   1.930   2.489   2.325 -1.1680  1.0732 -3.7594
  277SOL    HW2  831   1.892   2.605   2.448  2.5295 -0.0783 -0.8784
  278SOL     OW  832   2.045   2.792   2.151  0.0679  0.3439  0.2408
  278SOL    HW1  833   2.092   2.807   2.063 -1.8987 -1.6182  0.2411
  278SOL    HW2  834   1.957   2.841   2.160 -1.2486 -0.0459  2.1322
  279SOL     OW  835   1.775   1.280   0.027 -0.0853 -0.5200  0.0858
  279SOL    HW1  836   1.693   1.308   0.081  1.2341 -0.8534 -2.5756
  279SOL    HW2  837   1.822   1.364   3.088 -1.5672 -1.8510 -0.3577
  280SOL     OW  838   0.860   0.998   2.904  0.2805 -0.8286  0.0951
  280SOL    HW1  839   0.926   1.068   2.869 -2.0765  1.3066  3.6193
  280SOL    HW2  840   0.899   0.958   2.990 -0.5487 -0.0908  0.7612
  281SOL     OW  841   0.044   0.389   1.346  0.0214 -0.0680 -0.0412
  281SOL    HW1  842   0.132   0.339   1.357  2.7123  1.7859 -0.1670
  281SOL    HW2  843   0.041   0.441   1.257 -0.3248  0.2130 -1.7728
  282SOL     OW  844   2.885   2.133   0.967  0.2537 -0.1103  0.1262
  282SOL    HW1  845   2.977   2.163   1.005  0.8962 -0.7531  1.1675
  282SOL    HW2  846   2.850   2.195   0.890 -0.1009  1.3126 -1.8706
  283SOL     OW  847   1.310   1.859   2.036 -0.0404  0.0569 -0.3579
  283SOL    HW1  848   1.349   1.807   2.117 -0.2448 -0.5274  1.5768
  283SOL    HW2  849   1.221   1.899   2.059 -0.5950  1.7781 -1.3866
  284SOL     OW  850   1.841   2.960   0.280  0.0051  0.1896  0.2794
  284SOL    HW1  851   1.937   2.944   0.300 -2.0545  2.1787  0.8552
  284SOL    HW2  852   1.798   2.880   0.238 -3.1005 -0.9597 -0.4125
  285SOL     OW  853   2.911   2.828   2.698  0.1389  0.1196  0.3573
  285SOL    HW1  854   2.825   2.817   2.647  0.7933  2.2495  0.0150
  285SOL    HW2  855   2.943   2.737   2.732  2.0707 -1.0545  1.1717
  286SOL     OW  856   2.128   2.531   1.263 -0.0321 -0.4131 -0.5642
  286SOL    HW1  857   2.144   2.562   1.360  1.0648 -1.0711  0.2202
  286SOL    HW2  858   2.161   2.437   1.249 -2.6361 -2.6093  2.6251
  287SOL     OW  859   0.465   1.449   0.689  0.4031  0.1632 -0.2190
  287SOL    HW1  860   0.416   1.422   0.779 -0.2529 -1.4998  0.0991
  287SOL    HW2  861   0.516   1.536   0.702 -1.1557 -0.0691 -0.1591
  288SOL     OW  862   2.027   1.804   2.754 -0.4874 -0.0163 -0.2188
  288SOL    HW1  863   1.997   1.715   2.706  2.6465 -4.7565 -0.9075
  288SOL    HW2  864   1.997   1.887   2.696  0.2768  0.5728 -1.7869
  289SOL     OW  865   0.340   1.594   2.539  0.1482 -0.1736  0.3040
  289SOL    HW1  866   0.395   1.660   2.486 -2.7797 -0.4008 -0.5692
  289SOL    HW2  867   0.394   1.527   2.585  0.3420 -0.5763  1.7376
  290SOL     OW  868   1.324   2.101   1.343 -0.3415 -0.4208  0.3856
  290SOL    HW1  869   1.403   2.144   1.306 -2.7188  2.3430  0.6305
  290SOL    HW2  870   1.260   2.066   1.271  0.4776  0.7117  0.2550
  291SOL     OW  871   1.790   1.047   3.003  0.1626  0.5689 -0.3850
  291SOL    HW1  872   1.849   0.964   3.024  0.6614  1.2285  1.0860
  291SOL    HW2  873   1.777   1.107   3.086  2.3102 -2.1053  2.4760
  292SOL     OW  874   0.946   1.548   0.621  0.2928 -0.2966 -0.1787
  292SOL    HW1  875   0.886   1.515   0.546  0.6219 -0.0119 -0.2684
  292SOL    HW2  876   1.015   1.481   0.657 -0.9303 -1.8522  1.9155
  293SOL     OW  877   1.906   2.971   0.996  0.7101 -0.0224  0.5099
  293SOL    HW1  878   1.970   2.933   0.923  1.7485  0.3968 -0.6244
  293SOL    HW2  879   1.843   3.037   0.953  0.8645 -1.0670  0.3834
  294SOL     OW  880   2.740   1.254   2.902  0.5719 -0.2012  0.0306
  294SOL    HW1  881   2.657   1.213   2.859  0.5666  1.1723 -3.7367
  294SOL    HW2  882   2.806   1.178   2.925 -0.1312 -1.0092 -0.1221
  295SOL     OW  883   1.607   2.005   2.391 -0.0332 -0.0650 -0.1867
  295SOL    HW1  884   1.664   2.032   2.472 -0.7945 -2.9283  1.0334
  295SOL    HW2  885   1.614   2.076   2.316  1.8863  0.9869  0.6451
  296SOL     OW  886   1.806   0.664   2.005  0.2660 -0.5123  0.4059
  296SOL    HW1  887   1.778   0.761   1.991  0.0371  0.2971  0.0679
  296SOL    HW2  888   1.769   0.617   2.085  0.7672 -1.2463 -1.3000
  297SOL     OW  889   3.092   0.702   2.031 -0.3211  0.3131 -0.4185
  297SOL    HW1  890   3.006   0.671   2.081  3.3899  2.2115  2.1503
  297SOL    HW2  891   3.086   0.798   1.991 -2.4273  0.9524 -0.5102
  298SOL     OW  892   0.961   2.552   2.116 -0.6062  0.1938 -0.3473
  298SOL    HW1  893   0.941   2.476   2.049  0.3517 -2.3920 -0.1659
  298SOL    HW2  894   1.020   2.508   2.192  0.2698  0.4646 -0.0457
  299SOL     OW  895   1.125   2.577   2.731 -0.2071 -0.5779 -0.0852
  299SOL    HW1  896   1.075   2.643   2.796 -0.8002 -1.9827  1.6263
  299SOL    HW2  897   1.157   2.629   2.644 -0.1842  0.0381 -2.8473
  300SOL     OW  898   2.945   1.075   2.838 -0.1175  0.2429  0.2822
  300SOL    HW1  899   2.942   0.988   2.888  2.0915  0.0964 -0.9625
  300SOL    HW2  900   2.995   1.067   2.751 -2.8272  0.4669  1.4194
  301SOL     OW  901   1.830   0.960   1.597 -0.6423  0.1852 -0.6739
  301SOL    HW1  902   1.854   0.859   1.586  1.2969 -0.8888  0.8364
  301SOL    HW2  903   1.736   0.971   1.554 -2.2536 -0.9492 -0.2714
  302SOL     OW  904   2.743   1.896   2.467 -0.0599  0.4058  0.5906
  302SOL    HW1  905   2.754   1.831   2.547  4.7619 -0.1253 -0.0277
  302SOL    HW2  906   2.652   1.938   2.461  0.3734  0.1934  0.3386
  303SOL     OW  907   0.026   3.037   2.445 -0.4027  0.9814  0.8641
  303SOL    HW1  908   0.013   3.052   2.544 -0.9020 -0.9212  1.0956
  303SOL    HW2  909   0.056   0.023   2.389  2.3495  1.3069 -3.0873
  304SOL     OW  910   0.296   0.994   1.516  0.2629  0.4144 -0.1822
  304SOL    HW1  911   0.275   0.907   1.565 -1.6395 -0.1800  0.1266
  304SOL    HW2  912   0.249   1.070   1.560 -0.8518  0.7272 -2.6635
  305SOL     OW  913   2.991   0.347   1.736 -0.9074  0.3261 -0.6898
  305SOL    HW1  914   2.994   0.404   1.654  1.7239 -2.2681  2.1202
  305SOL    HW2  915   2.955   0.252   1.716 -2.6464 -1.3332 -0.4192
  306SOL     OW  916   2.462   1.295   1.314  0.2562  0.0558  0.6713
  306SOL    HW1  917   2.428   1.259   1.402  2.2131  2.4866  0.1979
  306SOL    HW2  918   2.416   1.386   1.291 -3.0665  2.0567 -3.3773
  307SOL     OW  919   2.547   2.862   0.847 -0.7998  0.1073  0.2692
  307SOL    HW1  920   2.613   2.860   0.769 -1.1713 -1.4358 -0.8644
  307SOL    HW2  921   2.533   2.768   0.879 -0.9268  1.3867 -1.3039
  308SOL     OW  922   2.553   1.983   1.261  0.3204 -0.0362  0.1437
  308SOL    HW1  923   2.564   1.974   1.160 -0.7676 -1.1272  0.4115
  308SOL    HW2  924   2.606   1.907   1.308  0.5262 -1.3804 -0.3170
  309SOL     OW  925   2.016   1.892   1.907 -0.5718  0.0985 -0.0775
  309SOL    HW1  926   1.999   1.794   1.906 -2.1600 -0.4033 -0.3294
  309SOL    HW2  927   1.946   1.941   1.965  1.2223 -1.3753 -3.0794
  310SOL     OW  928   2.311   1.478   2.700  0.1873  0.2510 -0.0009
  310SOL    HW1  929   2.275   1.441   2.790  1.7420 -2.1705  2.3063
  310SOL    HW2  930   2.290   1.578   2.690  0.3003  0.5227  0.5892
  311SOL     OW  931   2.102   1.136   2.827  0.1085 -0.3165 -0.3059
  311SOL    HW1  932   2.047   1.123   2.742 -0.9892  1.1143  0.4061
  311SOL    HW2  933   2.063   1.079   2.904 -0.0321  0.5186  0.3719
  312SOL     OW  934   1.270   2.366   2.136  0.2260 -0.0703 -0.3378
  312SOL    HW1  935   1.223   2.336   2.047  1.2732 -2.7928 -0.7783
  312SOL    HW2  936   1.202   2.363   2.212  1.8052  0.3216 -1.4883
  313SOL     OW  937   0.662   2.749   0.889 -0.3991 -0.1399 -0.3831
  313SOL    HW1  938   0.673   2.730   0.790  1.2022 -2.8694 -0.0294
  313SOL    HW2  939   0.746   2.726   0.938  1.2654 -0.7293 -3.9354
  314SOL     OW  940   0.616   1.556   1.018  0.3746  0.1474 -0.1127
  314SOL    HW1  941   0.630   1.479   1.088 -0.5737  0.4325 -0.2555
  314SOL    HW2  942   0.664   1.544   0.932 -2.4487  0.3706 -0.6876
  315SOL     OW  943   0.701   2.622   2.191 -0.0092 -0.2995  0.1698
  315SOL    HW1  944   0.668   2.702   2.133 -0.5340  3.5002  0.5203
  315SOL    HW2  945   0.800   2.607   2.191 -0.3643 -0.9367  1.0895
  316SOL     OW  946   0.046   2.192   1.074 -0.0664  0.2219 -0.1337
  316SOL    HW1  947   0.029   2.204   1.172  0.5017  1.4755  1.5277
  316SOL    HW2  948   0.116   2.121   1.068  0.8679  0.4333  2.8784
  317SOL     OW  949   1.989   0.652   0.349 -0.4848 -0.3053  0.5426
  317SOL    HW1  950   1.988   0.721   0.425  2.1460 -2.3736 -1.9852
  317SOL    HW2  951   2.017   0.558   0.381  0.1183  0.6171  0.6564
  318SOL     OW  952   2.746   2.490   2.974 -0.2403 -0.0433  0.3960
  318SOL    HW1  953   2.701   2.489   3.064 -1.2585 -1.1579 -1.5694
  318SOL    HW2  954   2.851   2.477   2.976  1.8708 -2.0061  0.4176
  319SOL     OW  955   1.319   1.841   0.021 -0.6048  0.2082 -0.8440
  319SOL    HW1  956   1.379   1.761   0.018 -1.8822  1.8764  1.7543
  319SOL    HW2  957   1.235   1.832   3.073  3.6656  1.4816 -2.1748
  320SOL     OW  958   0.754   2.483   2.629  0.4541  0.3530  0.3458
  320SOL    HW1  959   0.663   2.443   2.655 -0.7188  1.2537  2.1250
  320SOL    HW2  960   0.823   2.451   2.695 -3.1390  0.0453  1.2636
  321SOL     OW  961   1.067   2.589   0.154 -0.4312 -0.6710 -0.0968
  321SOL    HW1  962   1.130   2.512   0.178 -1.4551 -1.4462  0.1192
  321SOL    HW2  963   1.022   2.627   0.236  0.2490  1.9912 -0.9311
  322SOL     OW  964   2.234   0.241   2.308  0.1389  0.1362 -0.1745
  322SOL    HW1  965   2.224   0.193   2.401 -0.0868 -1.1705 -1.4015
  322SOL    HW2  966   2.297   0.322   2.319  1.5450 -0.3514  3.8844
  323SOL     OW  967   2.820   0.839   0.765 -0.3126 -0.0612  0.2511
  323SOL    HW1  968   2.924   0.847   0.758 -0.1859 -0.4265  0.1394
  323SOL    HW2  969   2.783   0.908   0.700 -0.0615 -0.1834  0.4678
  324SOL     OW  970   0.458   0.597   2.250 -0.4641  0.3057  0.0786
  324SOL    HW1  971   0.359   0.622   2.230 -0.9812 -0.3950 -0.4504
  324SOL    HW2  972   0.529   0.648   2.200  4.3196  0.5310  1.1025
  325SOL     OW  973   0.536   0.005   2.412 -0.0711  0.0762  0.1846
  325SOL    HW1  974   0.577   0.062   2.337  2.1715  2.3017  0.0384
  325SOL    HW2  975   0.514   0.062   2.494 -1.8733 -0.8638 -1.2337
  326SOL     OW  976   2.532   2.304   0.527  0.1337  0.5060  0.3411
  326SOL    HW1  977   2.461   2.325   0.596 -0.2624  0.4031 -1.3223
  326SOL    HW2  978   2.618   2.356   0.543 -0.3191  0.3237 -2.0749
  327SOL     OW  979   2.019   1.289   0.523  0.9768  0.6305 -0.6969
  327SOL    HW1  980   1.951   1.264   0.591  2.5058  3.0404 -5.2429
  327SOL    HW2  981   1.987   1.365   0.467  0.4805 -0.4575  0.2184
  328SOL     OW  982   0.311   2.030   2.255 -0.1779 -0.6265  0.5580
  328SOL    HW1  983   0.334   1.934   2.253 -1.0069  4.0513 -1.5283
  328SOL    HW2  984   0.236   2.032   2.318  0.2168  1.6331 -2.5720
  329SOL     OW  985   2.941   2.572   1.433 -0.3122 -0.0005  0.6112
  329SOL    HW1  986   2.919   2.480   1.393  0.1078 -0.6250 -2.6894
  329SOL    HW2  987   2.968   2.567   1.535  0.3507 -1.1219  0.2982
  330SOL     OW  988   2.439   1.381   1.815 -0.1773 -0.1045  0.1053
  330SOL    HW1  989   2.378   1.405   1.893  2.3398 -0.0999  1.7009
  330SOL    HW2  990   2.513   1.325   1.855 -2.9125 -0.7254 -0.1668
  331SOL     OW  991   2.541   1.991   1.002 -0.2936 -0.2002  0.1839
  331SOL    HW1  992   2.615   2.045   0.962  0.3553 -0.1369 -1.8548
  331SOL    HW2  993   2.513   1.918   0.934 -1.1741  0.8883  2.4166
  332SOL     OW  994   0.467   2.653   0.458 -0.4572 -0.1938 -0.0330
  332SOL    HW1  995   0.456   2.578   0.391  0.3373 -1.5722 -0.1585
  332SOL    HW2  996   0.382   2.710   0.467  0.1029 -0.1096 -1.4813
  333SOL     OW  997   2.169   3.070   2.193 -0.4916 -0.1601 -0.4459
  333SOL    HW1  998   2.130   0.053   2.229 -0.1444 -0.9987  0.2449
  333SOL    HW2  999   2.138   3.064   2.096  2.3240  0.5107  0.2344
  334SOL     OW 1000   0.851   0.974   0.476  0.6629 -0.3800 -0.6739
  334SOL    HW1 1001   0.832   1.029   0.390  0.9239 -0.5055 -0.4932
  334SOL    HW2 1002   0.821   1.017   0.567 -0.3397 -0.5653 -2.4509
  335SOL     OW 1003   0.366   2.673   2.363 -0.3562 -0.1093 -0.3778
  335SOL    HW1 1004   0.364   2.582   2.324  2.1473  3.5685  2.0949
  335SOL    HW2 1005   0.272   2.714   2.364 -0.3944 -0.4576 -0.6795
  336SOL     OW 1006   2.722   2.905   2.483  0.0778 -0.0084 -0.0526
  336SOL    HW1 1007   2.668   2.941   2.562 -2.0716  0.8908  0.5268
  336SOL    HW2 1008   2.655   2.879   2.406  0.0481 -0.6055 -5.2469
  337SOL     OW 1009   1.149   1.647   1.054 -0.1646  0.5325 -0.0237
  337SOL    HW1 1010   1.137   1.554   1.097 -1.4407 -0.2151 -0.6396
  337SOL    HW2 1011   1.205   1.638   0.968 -0.4135  2.4627 -1.3084
  338SOL     OW 1012   0.812   1.964   1.043  0.0993 -0.3496  0.4059
  338SOL    HW1 1013   0.818   1.866   1.020 -0.1583  0.6739  2.1756
  338SOL    HW2 1014   0.773   1.973   1.136 -0.4715  3.7213 -0.4488
  339SOL     OW 1015   0.119   1.221   1.716  0.4181  0.4752  0.5025
  339SOL    HW1 1016   0.025   1.226   1.677 -0.1839 -0.9740  0.8607
  339SOL    HW2 1017   0.155   1.313   1.732 -1.7828 -0.4664 -0.6913
  340SOL     OW 1018   1.414   3.060   1.994 -0.0218 -0.1400 -0.0830
  340SOL    HW1 1019   1.454   2.984   2.056  2.8929 -1.8753  0.5795
  340SOL    HW2 1020   1.410   3.024   1.901  0.2757  0.4507  0.4369
  341SOL     OW 1021   1.723   1.585   1.092 -0.1230  0.4048  0.5624
  341SOL    HW1 1022   1.640   1.617   1.148  0.4991 -0.0392  0.2832
  341SOL    HW2 1023   1.794   1.541   1.147  0.9747  3.6021 -1.6955
  342SOL     OW 1024   3.001   1.440   0.890  0.4256 -0.2783  0.4846
  342SOL    HW1 1025   2.988   1.468   0.792  3.2777 -0.6776 -1.3754
  342SOL    HW2 1026   2.909   1.426   0.929 -0.0518  2.6755 -1.0476
  343SOL     OW 1027   3.000   0.970   1.473  0.1496 -0.2406 -0.0478
  343SOL    HW1 1028   3.061   0.889   1.480 -0.6529  1.6023  4.2049
  343SOL    HW2 1029   2.933   0.965   1.396 -1.2268 -0.0128  1.7189
  344SOL     OW 1030   1.972   0.466   1.007  0.3494 -0.2567  0.1675
  344SOL    HW1 1031   1.884   0.463   0.956 -2.0605 -2.0804  1.7637
  344SOL    HW2 1032   1.957   0.466   1.110  2.1855  0.0975  0.6909
  345SOL     OW 1033   0.506   2.946   2.774  0.5229  0.1945  0.2551
  345SOL    HW1 1034   0.485   2.871   2.712  1.7325  2.0248  2.3839
  345SOL    HW2 1035   0.521   3.034   2.721  0.0981  2.2033 -2.3870
  346SOL     OW 1036   2.263   1.476   0.304  0.0818 -0.2398  0.2287
  346SOL    HW1 1037   2.289   1.558   0.247  1.4337 -0.7577 -1.9131
  346SOL    HW2 1038   2.170   1.488   0.348 -1.9096  2.0881  0.6468
  347SOL     OW 1039   1.944   2.967   1.732  0.4128  0.2479 -0.3882
  347SOL    HW1 1040   1.915   3.056   1.689 -1.8148  3.4330 -2.2529
  347SOL    HW2 1041   1.869   2.913   1.772  0.9803  1.6784  1.4793
  348SOL     OW 1042   1.035   1.177   1.365  0.0502 -0.4638 -0.0030
  348SOL    HW1 1043   1.092   1.103   1.401  0.4825  0.7183  0.8458
  348SOL    HW2 1044   0.934   1.157   1.368  1.7733  0.2399  0.9881
  349SOL     OW 1045   2.723   0.708   1.740 -0.2039  0.5137  0.0962
  349SOL    HW1 1046   2.711   0.668   1.645  0.9518 -2.2067 -2.2773
  349SOL    HW2 1047   2.771   0.799   1.737 -2.0671  0.8033 -0.6358
  350SOL     OW 1048   2.429   2.142   0.026  0.0278 -0.0339 -0.1350
  350SOL    HW1 1049   2.365   2.158   3.046  0.6258 -1.3532 -1.0486
  350SOL    HW2 1050   2.396   2.061   0.081 -0.8205  1.1791 -1.6306
  351SOL     OW 1051   0.519   3.081   1.708 -0.2219 -0.2459 -0.2774
  351SOL    HW1 1052   0.601   3.067   1.769  2.6436 -3.9792  0.2055
  351SOL    HW2 1053   0.467   0.062   1.739 -0.7424  3.1041  3.2999
  352SOL     OW 1054   1.991   2.374   1.976 -0.0469  0.0862 -0.0274
  352SOL    HW1 1055   2.089   2.393   1.975 -0.0760  4.0947  2.2024
  352SOL    HW2 1056   1.962   2.379   2.072  0.1650 -1.0428 -0.1714
  353SOL     OW 1057   0.824   1.286   2.247  0.3124 -0.0804 -0.2726
  353SOL    HW1 1058   0.807   1.193   2.217 -0.5142  3.3181  0.1417
  353SOL    HW2 1059   0.866   1.282   2.340 -1.5102 -0.6542  0.2906
  354SOL     OW 1060   1.046   1.986   0.123  0.2416 -0.0377  0.2977
  354SOL    HW1 1061   1.031   2.085   0.101 -1.4632  2.5131  0.6382
  354SOL    HW2 1062   0.997   1.948   0.205  3.3722  1.9939  0.0986
  355SOL     OW 1063   1.967   0.049   0.661  0.4968 -0.0744 -0.2223
  355SOL    HW1 1064   1.963   0.138   0.614  0.7615 -2.0239 -1.0866
  355SOL    HW2 1065   2.057   0.042   0.708 -0.6638 -1.6025  0.4583
  356SOL     OW 1066   2.635   1.416   3.094 -0.3813 -0.7203 -0.2859
  356SOL    HW1 1067   2.691   1.374   3.021  0.9888  0.8555  2.8996
  356SOL    HW2 1068   2.537   1.389   3.089  4.0081 -2.0260 -0.4266
  357SOL     OW 1069   2.877   0.132   2.146  0.5942  0.0611  0.1041
  357SOL    HW1 1070   2.945   0.209   2.151 -0.7250  0.5329 -1.2097
  357SOL    HW2 1071   2.816   0.126   2.064 -2.3422  0.0143 -1.0338
  358SOL     OW 1072   0.313   1.410   0.480 -0.0171  0.9485  0.2496
  358SOL    HW1 1073   0.241   1.341   0.500  1.8339 -1.0270 -1.6035
  358SOL    HW2 1074   0.374   1.420   0.565 -0.6297  1.0021  1.8799
  359SOL     OW 1075   2.591   0.381   2.948 -0.3536 -0.1404  0.6190
  359SOL    HW1 1076   2.545   0.435   2.878  1.3281 -3.3092  1.7676
  359SOL    HW2 1077   2.634   0.441   3.022  1.7791  4.1802 -0.4131
  360SOL     OW 1078   1.454   0.926   1.220  0.4141 -0.2601 -0.3230
  360SOL    HW1 1079   1.521   0.984   1.167  0.0224 -0.5230  2.1167
  360SOL    HW2 1080   1.357   0.961   1.206  2.9387 -0.0900  1.8409
  361SOL     OW 1081   2.536   2.376   0.950  0.4178  0.1054  0.4300
  361SOL    HW1 1082   2.551   2.353   1.047 -0.7439  0.0759 -3.9385
  361SOL    HW2 1083   2.511   2.477   0.930  2.3619  1.6842  0.4931
  362SOL     OW 1084   1.369   0.307   1.101 -1.0728 -0.0761  0.0067
  362SOL    HW1 1085   1.421   0.308   1.191  2.1129 -0.4609 -1.1903
  362SOL    HW2 1086   1.394   0.220   1.050  0.7028 -0.5133 -0.0902
  363SOL     OW 1087   2.010   2.114   0.408  0.0714  0.2966  0.6145
  363SOL    HW1 1088   2.079   2.041   0.416 -0.0974 -0.6457 -0.6260
  363SOL    HW2 1089   1.991   2.159   0.498  1.2654 -0.8251  1.6833
  364SOL     OW 1090   0.300   0.652   0.968 -0.4040 -0.2681  0.3561
  364SOL    HW1 1091   0.255   0.671   1.059 -0.1270 -1.0800  2.5903
  364SOL    HW2 1092   0.396   0.670   0.964  0.3572 -0.8067  0.4491
  365SOL     OW 1093   0.414   2.679   0.789 -0.1327  0.3923 -0.5318
  365SOL    HW1 1094   0.503   2.703   0.840  3.7328  1.3773  2.0494
  365SOL    HW2 1095   0.349   2.757   0.800 -0.5099 -0.2278  0.5250
  366SOL     OW 1096   2.966   1.414   0.172 -0.1714 -0.5088 -0.0182
  366SOL    HW1 1097   3.023   1.332   0.160  1.0321  0.2625 -1.6151
  366SOL    HW2 1098   2.866   1.395   0.187  1.2912  1.8533 -0.4939
  367SOL     OW 1099   2.386   2.477   2.490 -0.0635  0.1394  0.5543
  367SOL    HW1 1100   2.343   2.509   2.406  0.0721  2.7074  1.6095
  367SOL    HW2 1101   2.361   2.529   2.573  1.0160  2.9321 -1.4524
  368SOL     OW 1102   2.172   1.724   0.560 -0.4816 -0.1086 -0.3060
  368SOL    HW1 1103   2.239   1.653   0.579  0.1580  4.8404  0.1678
  368SOL    HW2 1104   2.099   1.729   0.630 -0.4436 -1.2746 -2.0668
  369SOL     OW 1105   1.461   0.938   0.062 -0.2688  0.0875 -0.2875
  369SOL    HW1 1106   1.376   0.976   0.095 -1.5869  1.6108  0.9095
  369SOL    HW2 1107   1.455   0.845   0.015  1.1763 -0.2217 -1.4178
  370SOL     OW 1108   0.670   3.017   0.817  0.4874  0.3876 -0.0617
  370SOL    HW1 1109   0.674   3.091   0.887 -1.1139  0.1538 -1.5579
  370SOL    HW2 1110   0.617   2.935   0.851  0.6324  0.7404 -0.2174
  371SOL     OW 1111   2.902   1.343   2.687 -0.2107  0.3669 -0.0515
  371SOL    HW1 1112   2.957   1.414   2.736  1.1975  0.7518  1.0607
  371SOL    HW2 1113   2.858   1.280   2.751 -1.1433  1.2203 -2.1705
  372SOL     OW 1114   0.609   0.696   2.463  0.5118  0.2037  0.3522
  372SOL    HW1 1115   0.550   0.674   2.385  1.3104 -1.4363 -1.2990
  372SOL    HW2 1116   0.567   0.766   2.517  0.8179  0.4867  0.8974
  373SOL     OW 1117   0.530   0.086   2.978 -0.5000 -0.0359  0.2612
  373SOL    HW1 1118   0.478   0.151   2.918  1.0380  0.1620  0.2295
  373SOL    HW2 1119   0.615   0.062   2.926 -0.8691  1.2112  0.8783
  374SOL     OW 1120   1.062   1.794   3.011 -0.0060  0.0167  0.6115
  374SOL    HW1 1121   1.040   1.843   2.923  0.9413  0.7160  1.3180
  374SOL    HW2 1122   1.040   1.856   3.089  0.4365  0.1935  0.4038
  375SOL     OW 1123   0.850   0.197   1.695 -0.0992  0.3746  0.0255
  375SOL    HW1 1124   0.923   0.243   1.645 -1.0752 -1.0959  3.3543
  375SOL    HW2 1125   0.879   0.190   1.793 -1.8123  1.6715 -1.0785
  376SOL     OW 1126   0.257   3.030   2.121  0.1437  0.3084 -0.2550
  376SOL    HW1 1127   0.212   0.001   2.180 -2.2278 -0.1372  1.9839
  376SOL    HW2 1128   0.331   2.978   2.169 -0.5559  0.8150 -0.6755
  377SOL     OW 1129   2.649   2.296   2.807  0.0348 -0.1216  0.6730
  377SOL    HW1 1130   2.689   2.363   2.875 -0.9708  2.1632 -0.1010
  377SOL    HW2 1131   2.659   2.194   2.833  1.6933  1.4232  0.0924
  378SOL     OW 1132   1.953   0.130   0.266  0.4761 -0.3970  0.1623
  378SOL    HW1 1133   1.917   0.042   0.301 -1.7003  0.0923  1.4839
  378SOL    HW2 1134   2.012   0.119   0.187 -0.4663 -1.5605  3.5402
  379SOL     OW 1135   1.680   0.638   0.367  0.6004  0.9142  0.3384
  379SOL    HW1 1136   1.770   0.665   0.324  0.7503 -0.1593  3.9220
  379SOL    HW2 1137   1.598   0.690   0.342  1.8536 -0.2096  0.6192
  380SOL     OW 1138   2.643   2.156   1.735  0.0064 -0.1597 -0.1914
  380SOL    HW1 1139   2.746   2.178   1.731  1.3840  1.7710 -4.2120
  380SOL    HW2 1140   2.613   2.142   1.639  2.3715 -2.2108 -0.8710
  381SOL     OW 1141   2.663   1.227   1.939 -0.5605  0.0694  0.2807
  381SOL    HW1 1142   2.706   1.301   1.991  0.8623 -0.8290  0.4693
  381SOL    HW2 1143   2.679   1.142   1.988  1.7809  0.0230 -0.0221
  382SOL     OW 1144   2.864   2.298   2.653 -0.3562 -0.1282 -0.1421
  382SOL    HW1 1145   2.771   2.289   2.691  0.4520  0.8148  0.7130
  382SOL    HW2 1146   2.879   2.236   2.569 -1.2597  0.4767 -3.9562
  383SOL     OW 1147   1.166   0.957   2.903 -0.2021  0.2448  0.3045
  383SOL    HW1 1148   1.217   0.883   2.852  1.1841 -2.1402  0.8946
  383SOL    HW2 1149   1.191   1.049   2.866  1.5539 -2.0497 -0.1881
  384SOL     OW 1150   1.731   1.755   2.289  0.1271 -0.1167  0.0919
  384SOL    HW1 1151   1.685   1.831   2.340 -0.3609 -4.2574 -2.0918
  384SOL    HW2 1152   1.826   1.790   2.270 -1.3382  4.4011 -1.9606
  385SOL     OW 1153   2.352   2.518   0.238  0.1371 -0.2281 -0.0490
  385SOL    HW1 1154   2.285   2.446   0.268  0.0866 -1.0460  5.0794
  385SOL    HW2 1155   2.409   2.540   0.317 -0.7451 -2.1104 -0.8026
  386SOL     OW 1156   1.780   1.360   0.659 -0.1728 -0.1397 -0.0138
  386SOL    HW1 1157   1.724   1.302   0.599  1.7741 -0.0801 -0.1773
  386SOL    HW2 1158   1.776   1.457   0.629 -0.7428 -2.9480 -0.3045
  387SOL     OW 1159   2.536   1.692   1.107  0.5568 -0.2476  0.0424
  387SOL    HW1 1160   2.501   1.648   1.195  0.3364 -1.0242  1.1645
  387SOL    HW2 1161   2.639   1.699   1.109  1.6168  3.8248 -1.7587
  388SOL     OW 1162   0.694   1.035   1.660 -0.3027  0.8237  0.0848
  388SOL    HW1 1163   0.631   1.042   1.579 -1.3764 -1.0377  2.8151
  388SOL    HW2 1164   0.702   1.125   1.708 -2.1018  0.2356 -0.9360
  389SOL     OW 1165   2.390   1.020   2.754 -0.4833 -0.1391 -0.4350
  389SOL    HW1 1166   2.296   1.063   2.746 -1.9872  2.5466 -1.7272
  389SOL    HW2 1167   2.464   1.081   2.711  1.2996 -0.3445 -4.1366
  390SOL     OW 1168   0.833   1.462   3.084 -0.1418  0.0936  0.7786
  390SOL    HW1 1169   0.934   1.461   3.077 -3.7557 -0.4215 -1.3798
  390SOL    HW2 1170   0.780   1.409   3.014 -0.5373  1.2740  1.5479
  391SOL     OW 1171   0.787   2.143   0.196  0.8281 -0.2489  0.2193
  391SOL    HW1 1172   0.765   2.100   0.106  0.7950  3.4452  2.2147
  391SOL    HW2 1173   0.709   2.205   0.218  2.2232 -0.4810 -3.9165
  392SOL     OW 1174   2.704   2.580   2.322  0.5358 -0.6471  0.1362
  392SOL    HW1 1175   2.803   2.608   2.333  1.4496 -0.0264 -2.6043
  392SOL    HW2 1176   2.692   2.523   2.240  0.4848 -1.6956  0.7379
  393SOL     OW 1177   1.664   2.195   0.101  0.2735 -0.1486 -0.0397
  393SOL    HW1 1178   1.659   2.294   0.128  0.4335  0.5160 -1.9251
  393SOL    HW2 1179   1.579   2.159   0.052 -1.1827 -2.9166  0.0637
  394SOL     OW 1180   0.848   0.272   2.429  0.4195  0.3526  0.4354
  394SOL    HW1 1181   0.779   0.313   2.491  1.8568  1.3820  1.9820
  394SOL    HW2 1182   0.925   0.340   2.419  0.0257  2.0851  1.5563
  395SOL     OW 1183   0.393   1.680   1.459 -0.3541 -0.2190  0.1098
  395SOL    HW1 1184   0.444   1.738   1.526 -2.5642  1.3192  0.5861
  395SOL    HW2 1185   0.352   1.726   1.380  0.5199  1.0087 -2.3261
  396SOL     OW 1186   2.204   1.367   2.916 -0.0311  0.0897  0.1836
  396SOL    HW1 1187   2.159   1.287   2.881  2.4491  0.2580  2.7312
  396SOL    HW2 1188   2.138   1.442   2.942  0.4020 -0.8342  0.5062
  397SOL     OW 1189   0.181   0.644   0.206 -0.2826 -0.1384  0.2727
  397SOL    HW1 1190   0.248   0.614   0.135 -0.3199  0.8139  1.0381
  397SOL    HW2 1191   0.208   0.614   0.299  2.0214  0.5269 -3.0712
  398SOL     OW 1192   1.050   2.608   0.491  0.3255  0.2671 -0.3952
  398SOL    HW1 1193   1.150   2.621   0.466  2.0257 -2.7954 -0.8929
  398SOL    HW2 1194   0.988   2.674   0.442 -2.5397 -0.3947  0.2581
  399SOL     OW 1195   1.992   2.352   2.601 -0.2950 -0.4286 -0.3944
  399SOL    HW1 1196   2.005   2.417   2.525  0.8879  0.8911 -1.2781
  399SOL    HW2 1197   2.005   2.256   2.568  0.0621 -2.6370 -1.5563
  400SOL     OW 1198   2.906   1.586   1.541 -0.0092 -0.3013 -0.1013
  400SOL    HW1 1199   2.878   1.491   1.523 -0.6598 -0.8147 -0.2997
  400SOL    HW2 1200   2.984   1.629   1.489  1.2858  0.4369 -1.3156
  401SOL     OW 1201   1.062   0.701   0.788  0.3107 -0.4935  0.1132
  401SOL    HW1 1202   1.070   0.736   0.690  1.5181  0.7603 -1.8556
  401SOL    HW2 1203   1.008   0.770   0.842 -1.5476  0.4098 -1.2482
  402SOL     OW 1204   0.513   0.100   2.669  0.0504 -0.2567  0.4044
  402SOL    HW1 1205   0.615   0.107   2.679 -1.0159  0.3329  0.6257
  402SOL    HW2 1206   0.473   0.178   2.719  2.4928  1.0575  1.3736
  403SOL     OW 1207   2.909   1.632   1.817 -0.3275  0.8520 -0.6687
  403SOL    HW1 1208   2.897   1.638   1.717  0.3450  1.6066  1.0932
  403SOL    HW2 1209   2.869   1.714   1.865 -0.0561 -0.0938  3.8579
  404SOL     OW 1210   2.490   2.072   1.507 -0.2481  0.1254 -0.3395
  404SOL    HW1 1211   2.394   2.055   1.531 -1.5878 -1.7030  0.3984
  404SOL    HW2 1212   2.505   2.039   1.411 -0.5665 -0.4005 -0.8215
  405SOL     OW 1213   2.241   0.375   2.674  0.3374  0.7329 -0.2170
  405SOL    HW1 1214   2.227   0.272   2.654  1.1246 -1.1406 -0.6533
  405SOL    HW2 1215   2.152   0.427   2.670  0.5283 -1.4259  2.5492
  406SOL     OW 1216   1.086   1.520   3.026  0.0788  0.1282  0.3505
  406SOL    HW1 1217   1.080   1.617   3.054 -1.0770  0.5879 -1.2968
  406SOL    HW2 1218   1.083   1.510   2.925 -1.5069 -0.7495 -2.3141
  407SOL     OW 1219   1.797   1.968   0.763  0.0302 -0.1616 -0.7434
  407SOL    HW1 1220   1.737   2.038   0.729  0.5530 -2.9133  0.4626
  407SOL    HW2 1221   1.860   2.013   0.833  1.2526 -0.8251 -0.0805
  408SOL     OW 1222   3.060   0.165   0.881  0.3517  0.2799  0.0694
  408SOL    HW1 1223   3.030   0.168   0.976  1.6351 -1.0264 -1.9570
  408SOL    HW2 1224   3.084   0.072   0.855  0.0634  1.7836 -1.5660
  409SOL     OW 1225   1.638   1.541   0.860  0.3849  0.7574 -0.1041
  409SOL    HW1 1226   1.682   1.543   0.956 -0.8247 -0.6974  0.7735
  409SOL    HW2 1227   1.682   1.475   0.799 -1.4163 -0.1921 -0.9194
  410SOL     OW 1228   2.027   2.422   0.201  0.1681  0.0393  0.0267
  410SOL    HW1 1229   1.947   2.402   0.254  1.9279  2.4901 -0.6893
  410SOL    HW2 1230   2.109   2.364   0.220  1.7926 -1.6709 -1.1561
  411SOL     OW 1231   0.225   2.949   0.233 -0.2415 -0.6315  0.0620
  411SOL    HW1 1232   0.141   2.967   0.182 -0.0000 -0.4485  1.8091
  411SOL    HW2 1233   0.233   3.005   0.319  1.7060  1.6555  1.6684
  412SOL     OW 1234   1.545   2.917   0.771  0.0480  0.0927 -0.1431
  412SOL    HW1 1235   1.500   2.935   0.866 -0.0078 -0.1548 -2.3020
  412SOL    HW2 1236   1.610   2.994   0.748 -0.5515  0.0648 -3.2659
  413SOL     OW 1237   1.563   0.424   2.585 -0.5088 -0.0666  0.2751
  413SOL    HW1 1238   1.607   0.502   2.529 -0.1024  0.8935  0.2522
  413SOL    HW2 1239   1.570   0.331   2.539 -0.0029  1.3693 -1.3985
  414SOL     OW 1240   0.232   0.589   0.481  1.1997 -0.0914 -0.2231
  414SOL    HW1 1241   0.181   0.607   0.567  0.1690 -0.9299 -1.9597
  414SOL    HW2 1242   0.327   0.555   0.503  2.0641 -0.2357  1.4284
  415SOL     OW 1243   0.131   1.317   1.359  0.0692 -0.7979  0.1554
  415SOL    HW1 1244   0.065   1.307   1.439 -1.1388  0.3035  1.6069
  415SOL    HW2 1245   0.116   1.237   1.299 -1.8404  2.8759  2.1935
  416SOL     OW 1246   0.369   0.545   0.009 -0.4419  0.2728 -0.0758
  416SOL    HW1 1247   0.324   0.555   3.020  0.4526 -2.6976  3.3796
  416SOL    HW2 1248   0.416   0.455   0.010  1.5038 -1.0834 -0.8406
  417SOL     OW 1249   2.471   0.322   0.896 -0.6904 -0.1550 -0.0084
  417SOL    HW1 1250   2.548   0.324   0.828  1.6744  0.6308 -0.2024
  417SOL    HW2 1251   2.482   0.240   0.956 -2.7449  0.7311  0.9355
  418SOL     OW 1252   0.511   0.392   2.406 -0.2519 -0.4438 -0.4083
  418SOL    HW1 1253   0.550   0.318   2.345 -0.9811 -4.0298 -1.0921
  418SOL    HW2 1254   0.490   0.473   2.350 -1.3214 -0.8816 -1.7139
  419SOL     OW 1255   0.204   1.128   0.585 -0.1391 -0.7116  0.7677
  419SOL    HW1 1256   0.129   1.189   0.554 -0.3732 -0.5595 -1.6254
  419SOL    HW2 1257   0.190   1.095   0.681  1.9614  1.3190  0.9413
  420SOL     OW 1258   2.136   1.680   1.197  0.5349 -0.1149  0.3787
  420SOL    HW1 1259   2.049   1.623   1.192 -0.5739  0.7911 -0.7276
  420SOL    HW2 1260   2.175   1.700   1.105  0.3488  0.0297  0.5452
  421SOL     OW 1261   1.103   2.082   2.811 -0.5345 -0.0539  0.2002
  421SOL    HW1 1262   1.047   1.996   2.791  0.4503 -5.2757 -1.3577
  421SOL    HW2 1263   1.204   2.062   2.787  3.5005 -1.5288 -2.5468
  422SOL     OW 1264   2.504   0.363   0.161 -0.5138  0.7967  0.1037
  422SOL    HW1 1265   2.411   0.399   0.183 -0.0305 -1.5361 -0.4668
  422SOL    HW2 1266   2.563   0.432   0.116 -0.3684 -0.0572 -0.5755
  423SOL     OW 1267   1.942   1.688   0.173  0.3583 -0.3269 -0.1755
  423SOL    HW1 1268   1.991   1.740   0.099 -0.4596  0.5306  1.9143
  423SOL    HW2 1269   1.849   1.734   0.185  1.3890  1.4570  1.0149
  424SOL     OW 1270   0.981   0.963   1.839  0.0980  0.2314 -0.7756
  424SOL    HW1 1271   0.940   0.997   1.754 -0.1003 -2.1708  1.1017
  424SOL    HW2 1272   0.960   1.025   1.918 -0.8361 -0.9229 -0.8352
  425SOL     OW 1273   2.932   2.717   2.374  0.4977  0.3777  0.1300
  425SOL    HW1 1274   2.952   2.768   2.290  0.4019 -0.3232  1.8787
  425SOL    HW2 1275   2.857   2.762   2.428 -2.5958  0.8549 -0.8820
  426SOL     OW 1276   1.928   2.583   0.446  0.3650 -0.3816  0.5509
  426SOL    HW1 1277   1.897   2.574   0.350 -0.1829 -0.3280  1.7694
  426SOL    HW2 1278   1.868   2.659   0.483  1.2264  0.4075 -0.7778
  427SOL     OW 1279   0.669   0.544   3.061  0.3404  0.1800 -0.2023
  427SOL    HW1 1280   0.621   0.634   3.073  0.2671  0.1118 -0.6396
  427SOL    HW2 1281   0.625   0.460   0.002  0.2174 -1.2336  2.5906
  428SOL     OW 1282   2.595   1.154   2.660 -0.2655 -0.4640  0.2045
  428SOL    HW1 1283   2.623   1.123   2.566  1.5884 -0.0130 -1.0968
  428SOL    HW2 1284   2.575   1.253   2.666 -0.4398 -1.8013  0.7851
  429SOL     OW 1285   2.790   0.154   0.573 -0.0635  0.0006 -0.1795
  429SOL    HW1 1286   2.778   0.081   0.638  1.5092 -1.5853 -1.2156
  429SOL    HW2 1287   2.888   0.144   0.538  3.1773  0.7163 -0.7480
  430SOL     OW 1288   0.986   2.820   2.082 -0.5079  0.0082  0.0554
  430SOL    HW1 1289   0.981   2.724   2.113 -3.3296 -0.0020 -1.6516
  430SOL    HW2 1290   0.993   2.823   1.980 -1.0900  2.5611  0.0350
  431SOL     OW 1291   2.721   1.736   1.359  0.6441 -0.1955  0.2266
  431SOL    HW1 1292   2.789   1.698   1.424  0.7790  1.9249 -0.1559
  431SOL    HW2 1293   2.757   1.726   1.260 -0.5910 -0.8645 -2.2417
  432SOL     OW 1294   2.476   2.314   2.041 -0.3907  0.0574 -0.0666
  432SOL    HW1 1295   2.565   2.357   2.062 -1.8615  1.1573 -1.4715
  432SOL    HW2 1296   2.483   2.225   1.995  0.2128 -0.1629  0.4015
  433SOL     OW 1297   1.432   2.076   0.009  0.4668 -0.4073  0.3368
  433SOL    HW1 1298   1.382   1.989   0.029 -0.5461 -1.5055  2.7105
  433SOL    HW2 1299   1.373   2.156   0.032  0.8415 -0.0307 -1.0415
  434SOL     OW 1300   0.204   2.129   2.855 -0.2925 -0.3253 -0.3518
  434SOL    HW1 1301   0.206   2.183   2.937 -1.8643  1.6461 -3.2229
  434SOL    HW2 1302   0.108   2.109   2.823  0.5026  0.3932  3.0001
  435SOL     OW 1303   0.031   1.303   0.506  0.4827 -0.0873  0.4922
  435SOL    HW1 1304   3.069   1.234   0.460  0.1212 -1.8359 -2.2198
  435SOL    HW2 1305   0.009   1.400   0.480 -0.6458 -0.1352  0.6255
  436SOL     OW 1306   0.405   2.864   1.568  0.5956 -0.1672 -0.0052
  436SOL    HW1 1307   0.385   2.774   1.610 -3.0300  3.3882  0.9619
  436SOL    HW2 1308   0.443   2.930   1.635 -1.9463 -1.9295  1.0284
  437SOL     OW 1309   1.234   2.525   1.134 -0.5254  0.1316  0.2272
  437SOL    HW1 1310   1.328   2.503   1.176  1.4625 -0.9346  0.8964
  437SOL    HW2 1311   1.238   2.584   1.052 -0.1853 -1.4665 -0.0308
  438SOL     OW 1312   0.190   2.266   0.686  0.0824 -0.1565  0.1052
  438SOL    HW1 1313   0.153   2.176   0.656  4.0966 -1.1043 -2.0885
  438SOL    HW2 1314   0.142   2.314   0.764  0.0360  1.1919 -1.0470
  439SOL     OW 1315   1.013   2.562   1.769  0.1543  0.5193  0.0854
  439SOL    HW1 1316   0.963   2.572   1.683 -0.6592 -0.9056  2.9289
  439SOL    HW2 1317   0.952   2.506   1.835  0.4870 -1.8226  2.4101
  440SOL     OW 1318   2.244   2.777   1.906  0.2667 -0.1006  0.4383
  440SOL    HW1 1319   2.266   2.679   1.918  4.2534  1.3927  0.8224
  440SOL    HW2 1320   2.271   2.802   1.809 -0.0787  2.7231  0.2671
  441SOL     OW 1321   0.287   0.720   1.623 -0.4071 -0.0774 -0.1595
  441SOL    HW1 1322   0.345   0.749   1.702 -1.3043  3.3613 -1.2491
  441SOL    HW2 1323   0.276   0.619   1.633  1.3348  1.5466  1.8360
  442SOL     OW 1324   1.780   2.401   0.593 -0.2186 -0.8189  0.1769
  442SOL    HW1 1325   1.840   2.469   0.548  0.4549 -0.2366 -0.1979
  442SOL    HW2 1326   1.719   2.452   0.657 -2.9544 -1.3750 -0.5863
  443SOL     OW 1327   0.156   0.827   2.882  0.2601  0.2430  0.4525
  443SOL    HW1 1328   0.151   0.729   2.891  0.5595  2.1188 -0.0451
  443SOL    HW2 1329   0.160   0.871   2.973 -1.0319  0.7187 -0.9666
  444SOL     OW 1330   1.656   0.839   2.189  0.2110 -0.0494  0.1223
  444SOL    HW1 1331   1.747   0.855   2.227  2.7872  2.0369  1.4722
  444SOL    HW2 1332   1.646   0.875   2.091 -1.6906  1.1948 -0.7679
  445SOL     OW 1333   0.092   2.680   1.321  0.1033  0.5763 -0.1733
  445SOL    HW1 1334   0.165   2.625   1.370  0.5852 -1.0852 -1.9489
  445SOL    HW2 1335   0.006   2.633   1.350  3.0074  1.3462  2.1183
  446SOL     OW 1336   2.810   1.706   1.101 -0.1337  0.2569 -0.5111
  446SOL    HW1 1337   2.817   1.620   1.053  1.1933  0.1533  0.3947
  446SOL    HW2 1338   2.860   1.774   1.051 -1.6019 -1.2315  0.8875
  447SOL     OW 1339   0.262   0.994   0.372 -0.2136  0.4126  0.1643
  447SOL    HW1 1340   0.243   1.028   0.471  3.5697  0.9447  0.9525
  447SOL    HW2 1341   0.182   0.940   0.334  1.5652  0.5749  0.0528
  448SOL     OW 1342   1.059   1.987   2.036  0.0125  0.4503 -0.2368
  448SOL    HW1 1343   1.070   2.017   1.936 -0.9692  0.6256  1.9109
  448SOL    HW2 1344   1.056   2.064   2.106 -0.7218 -0.8488  1.0324
  449SOL     OW 1345   1.434   1.445   0.402  0.0733  0.2265 -0.0783
  449SOL    HW1 1346   1.434   1.385   0.482  1.4308  1.1077 -1.9727
  449SOL    HW2 1347   1.342   1.462   0.360  0.1315 -0.6773 -0.7416
  450SOL     OW 1348   2.635   2.929   2.055  0.0892  0.4700  0.3229
  450SOL    HW1 1349   2.725   2.881   2.034 -0.8094 -2.6266 -0.1428
  450SOL    HW2 1350   2.606   2.909   2.150 -2.0072 -1.3839  1.9460
  451SOL     OW 1351   2.153   0.627   2.462 -0.0049  0.1090  0.0880
  451SOL    HW1 1352   2.203   0.717   2.463  1.9474  0.4128  0.7181
  451SOL    HW2 1353   2.101   0.607   2.548  3.2334  0.7922  1.0869
  452SOL     OW 1354   1.680   0.432   0.589 -0.2449 -0.3138 -0.0470
  452SOL    HW1 1355   1.655   0.340   0.560  3.2160  1.7748 -1.5204
  452SOL    HW2 1356   1.699   0.489   0.506  2.8962  2.7184  1.0877
  453SOL     OW 1357   1.928   0.704   1.607 -0.3969  0.0761 -0.0358
  453SOL    HW1 1358   1.986   0.725   1.689 -0.6743  1.1143  0.5041
  453SOL    HW2 1359   1.984   0.648   1.540  0.4720  1.0780 -1.8686
  454SOL     OW 1360   3.025   1.533   0.409 -0.4923  0.0320  0.3605
  454SOL    HW1 1361   3.021   1.489   0.319  3.7312  1.6587  1.4122
  454SOL    HW2 1362   3.069   1.627   0.403  2.7472  1.4874 -1.0067
  455SOL     OW 1363   2.702   2.913   1.168 -0.3365  0.5909 -0.3880
  455SOL    HW1 1364   2.771   2.871   1.234 -1.8440 -0.4708  1.4948
  455SOL    HW2 1365   2.743   2.956   1.079 -0.1504  0.1560 -2.3855
  456SOL     OW 1366   0.197   2.914   1.409  0.0221  0.5601 -0.0648
  456SOL    HW1 1367   0.151   2.818   1.399 -2.3948 -0.4687  0.5698
  456SOL    HW2 1368   0.284   2.911   1.460  1.1697 -1.7946 -0.7889
  457SOL     OW 1369   1.275   3.098   0.382 -0.2741  0.7595  0.5241
  457SOL    HW1 1370   1.294   0.094   0.409 -0.2750  1.3038  1.1096
  457SOL    HW2 1371   1.359   3.060   0.330  1.3426 -1.1943 -0.7875
  458SOL     OW 1372   2.254   2.640   0.667 -0.3697  0.1381  0.8633
  458SOL    HW1 1373   2.193   2.687   0.731 -1.1671  0.2814 -2.9627
  458SOL    HW2 1374   2.263   2.692   0.579 -0.6139 -1.0950 -1.8255
  459SOL     OW 1375   2.160   0.651   2.964  0.0218  0.3534 -0.7975
  459SOL    HW1 1376   2.150   0.560   3.007  1.4325 -1.1185 -0.8973
  459SOL    HW2 1377   2.164   0.647   2.866  0.5223 -0.8577  2.3575
  460SOL     OW 1378   2.450   2.838   2.972  0.2879  0.6275 -0.0054
  460SOL    HW1 1379   2.408   2.899   2.906  0.6243 -2.4639  0.3178
  460SOL    HW2 1380   2.526   2.788   2.927  1.5596  0.3835 -0.8020
  461SOL     OW 1381   0.919   1.866   0.324  0.3062 -0.1854 -0.0974
  461SOL    HW1 1382   0.989   1.812   0.375  1.1034  1.1683  1.2663
  461SOL    HW2 1383   0.827   1.874   0.373 -1.5804 -2.1466  0.7915
  462SOL     OW 1384   1.948   2.132   0.926  0.1184 -0.4484 -0.0227
  462SOL    HW1 1385   1.998   2.053   0.958 -2.4606  0.0587 -0.4130
  462SOL    HW2 1386   1.978   2.165   0.831 -0.2444  3.0943 -0.8874
  463SOL     OW 1387   2.452   0.956   0.670  0.3699  0.0434  0.0112
  463SOL    HW1 1388   2.509   0.872   0.654  1.7153 -3.4722 -1.3952
  463SOL    HW2 1389   2.353   0.937   0.657  2.0623 -3.1364 -0.5500
  464SOL     OW 1390   0.588   2.972   1.214  0.4095  0.4634 -0.4386
  464SOL    HW1 1391   0.544   2.889   1.260  0.6910 -1.7514  1.4140
  464SOL    HW2 1392   0.688   2.963   1.204 -0.0667 -0.1009  1.3273
  465SOL     OW 1393   2.383   1.325   0.013 -0.3611  0.4550  0.1112
  465SOL    HW1 1394   2.337   1.374   0.087  0.5505 -1.4612 -0.8088
  465SOL    HW2 1395   2.317   1.308   3.031 -1.4408 -0.1756  0.1851
  466SOL     OW 1396   1.928   0.291   2.839 -0.5184  0.2807  0.1012
  466SOL    HW1 1397   1.967   0.205   2.886 -0.8682 -0.0386  0.7624
  466SOL    HW2 1398   1.859   0.336   2.898 -1.3574 -0.2705 -2.2095
  467SOL     OW 1399   0.996   0.580   1.294 -0.0590  0.2992  0.6565
  467SOL    HW1 1400   1.072   0.514   1.320 -0.0970  3.0906 -0.1341
  467SOL    HW2 1401   0.950   0.557   1.203 -3.9549  1.4992  0.8939
  468SOL     OW 1402   0.413   1.214   2.849 -0.7022  0.2182 -0.4313
  468SOL    HW1 1403   0.419   1.213   2.951  1.1471  1.2047  2.6893
  468SOL    HW2 1404   0.418   1.118   2.809 -0.2600 -0.6274 -1.9233
  469SOL     OW 1405   0.483   2.281   0.290 -0.1522  0.3027 -0.0182
  469SOL    HW1 1406   0.414   2.314   0.353  1.8827 -0.4475  1.4085
  469SOL    HW2 1407   0.542   2.357   0.260 -1.2110 -2.1302  0.7706
  470SOL     OW 1408   2.598   1.353   2.373  0.4284  0.7377 -0.3982
  470SOL    HW1 1409   2.620   1.387   2.467 -0.2548  0.2081  3.5968
  470SOL    HW2 1410   2.595   1.247   2.366 -2.0021 -1.2650 -1.3618
  471SOL     OW 1411   2.730   0.979   2.027  0.1965 -0.0740 -0.2083
  471SOL    HW1 1412   2.748   0.959   2.127 -2.4005  1.5695  2.6067
  471SOL    HW2 1413   2.719   0.889   1.978 -0.3503  1.3273 -0.0742
  472SOL     OW 1414   0.687   2.699   0.627  0.8356  0.3245 -0.0178
  472SOL    HW1 1415   0.590   2.702   0.592  2.8674  0.1645 -0.1982
  472SOL    HW2 1416   0.738   2.782   0.604 -0.2819 -2.7237  2.5753
  473SOL     OW 1417   0.743   0.051   0.104  0.4967  0.6992 -0.3632
  473SOL    HW1 1418   0.703   0.013   0.188 -1.8524  0.1248  1.8695
  473SOL    HW2 1419   0.759   3.080   0.033  2.3635 -0.8319 -2.2593
  474SOL     OW 1420   1.803   2.915   2.134  0.6170 -0.2541 -0.4863
  474SOL    HW1 1421   1.811   3.008   2.173  3.4139 -0.3871  1.2206
  474SOL    HW2 1422   1.768   2.913   2.037  1.0005  1.5687  2.5462
  475SOL     OW 1423   1.536   2.537   0.385  0.2661 -0.0930  0.2651
  475SOL    HW1 1424   1.470   2.464   0.415 -1.3608 -1.5299  0.7176
  475SOL    HW2 1425   1.587   2.500   0.304 -3.0755  0.5320  2.4242
  476SOL     OW 1426   0.242   0.936   0.839  0.3407  0.2476  0.4380
  476SOL    HW1 1427   0.251   0.841   0.874 -0.1931  0.6961 -0.0724
  476SOL    HW2 1428   0.297   1.005   0.888 -2.6890 -1.4374  1.7451
  477SOL     OW 1429   1.481   2.470   1.216 -0.1284  0.3505 -0.0981
  477SOL    HW1 1430   1.493   2.368   1.210 -0.3168  1.1395  0.4852
  477SOL    HW2 1431   1.556   2.517   1.165 -2.6556  0.1138 -1.3103
  478SOL     OW 1432   0.408   1.792   2.317  0.0429  0.1742 -0.4926
  478SOL    HW1 1433   0.477   1.767   2.243  0.8590  0.3860 -1.1098
  478SOL    HW2 1434   0.451   1.853   2.387  1.1649  1.4855  0.1023
  479SOL     OW 1435   2.778   0.121   1.058 -0.1136 -0.0946  0.7846
  479SOL    HW1 1436   2.801   0.052   0.983  0.6692  0.0187 -1.3821
  479SOL    HW2 1437   2.854   0.116   1.125  0.1492  1.3112 -0.3467
  480SOL     OW 1438   3.020   2.830   0.559 -0.2230  0.0918 -0.0913
  480SOL    HW1 1439   3.066   2.770   0.626  1.1591 -2.0167  0.4873
  480SOL    HW2 1440   3.026   2.795   0.465  0.1858  2.7829 -0.7478
  481SOL     OW 1441   2.424   2.606   0.892 -0.3905  0.4935  0.5520
  481SOL    HW1 1442   2.392   2.617   0.795  0.8515  1.4118 -2.4710
  481SOL    HW2 1443   2.336   2.604   0.949 -0.2130  3.1222 -2.4402
  482SOL     OW 1444   1.338   2.046   2.667 -0.0091 -0.0752  0.0640
  482SOL    HW1 1445   1.351   1.962   2.613 -1.0630  2.1346  1.5267
  482SOL    HW2 1446   1.321   2.129   2.606  2.0341  0.8201 -2.3174
  483SOL     OW 1447   0.551   1.935   2.521  0.0300 -0.4671 -0.0805
  483SOL    HW1 1448   0.620   1.884   2.577  2.6163 -0.5049 -3.0330
  483SOL    HW2 1449   0.480   1.986   2.573  2.0630 -1.6802  0.5563
  484SOL     OW 1450   0.954   1.332   1.931 -0.0946  0.1586  0.2194
  484SOL    HW1 1451   0.945   1.263   2.003  0.0571 -0.1508 -0.3486
  484SOL    HW2 1452   0.970   1.285   1.844 -0.8479  0.3172  1.3300
  485SOL     OW 1453   2.441   0.419   0.527  0.2293 -0.1687 -0.8557
  485SOL    HW1 1454   2.431   0.318   0.506 -1.4664 -2.1015  0.6180
  485SOL    HW2 1455   2.345   0.448   0.549 -0.5696 -0.1872  0.8504
  486SOL     OW 1456   1.725   0.042   0.774 -0.4386 -0.4432  0.3821
  486SOL    HW1 1457   1.738   0.094   0.857 -1.4150  2.9349 -1.5273
  486SOL    HW2 1458   1.817   0.036   0.728  0.9570 -0.1151  2.9838
  487SOL     OW 1459   0.457   2.072   0.852  0.1451 -0.1140 -0.5987
  487SOL    HW1 1460   0.514   2.145   0.896 -0.5041 -0.6288  0.6698
  487SOL    HW2 1461   0.454   2.090   0.754  1.8645  1.9840  0.3898
  488SOL     OW 1462   2.586   1.477   0.413  0.3618  0.5521  0.2137
  488SOL    HW1 1463   2.487   1.475   0.382  1.2624  0.1182  0.1759
  488SOL    HW2 1464   2.648   1.435   0.348  0.6690  0.6267  1.1894
  489SOL     OW 1465   1.804   0.199   1.003 -0.2405 -0.5191  0.4778
  489SOL    HW1 1466   1.785   0.202   1.104 -2.0546 -2.4553 -0.3860
  489SOL    HW2 1467   1.781   0.281   0.950  0.1602 -0.5259  3.3455
  490SOL     OW 1468   1.081   0.838   0.537  0.5296  0.0612  0.8132
  490SOL    HW1 1469   1.116   0.802   0.446  2.2391 -6.4932  1.6317
  490SOL    HW2 1470   0.989   0.884   0.522 -0.6269  1.6039  1.1022
  491SOL     OW 1471   0.665   2.446   0.588 -0.4625 -0.1342  0.1915
  491SOL    HW1 1472   0.739   2.428   0.519 -0.6358  1.3302  0.9504
  491SOL    HW2 1473   0.652   2.545   0.595 -0.3132 -1.2479  1.5356
  492SOL     OW 1474   1.225   1.450   2.199  0.1176 -0.4081 -0.4539
  492SOL    HW1 1475   1.197   1.372   2.257  0.5677  1.2187 -0.4543
  492SOL    HW2 1476   1.226   1.409   2.108  1.6716 -0.9788  2.8686
  493SOL     OW 1477   0.092   2.401   0.906 -0.3555  0.2295 -0.0655
  493SOL    HW1 1478   0.100   2.315   0.963  1.3643 -1.0463  0.3827
  493SOL    HW2 1479   0.108   2.478   0.966  2.4996 -2.9771  0.3170
  494SOL     OW 1480   2.598   2.047   2.901 -0.0065 -0.4180  0.2849
  494SOL    HW1 1481   2.556   1.963   2.855 -0.0041 -1.0048 -2.7953
  494SOL    HW2 1482   2.530   2.087   2.962 -2.0213 -0.0198  2.8308
  495SOL     OW 1483   2.809   1.675   2.700 -0.3898 -0.0553 -0.6206
  495SOL    HW1 1484   2.756   1.681   2.786  1.0716  1.8159 -0.7354
  495SOL    HW2 1485   2.909   1.674   2.725  0.3490  0.0043 -1.1775
  496SOL     OW 1486   2.766   0.173   1.703  0.2211 -0.9587 -0.4778
  496SOL    HW1 1487   2.792   0.109   1.630 -3.4581 -0.0779 -0.4477
  496SOL    HW2 1488   2.732   0.116   1.781  1.0223 -0.3933  1.2593
  497SOL     OW 1489   2.635   1.032   0.285  0.7729  0.1378 -0.0996
  497SOL    HW1 1490   2.612   1.074   0.375 -3.6798  1.5631  0.1148
  497SOL    HW2 1491   2.602   0.937   0.286 -0.0900  0.9135 -1.3508
  498SOL     OW 1492   0.262   2.389   2.595 -0.0104 -0.2048 -0.5618
  498SOL    HW1 1493   0.209   2.453   2.536 -0.6944  0.3962  4.1497
  498SOL    HW2 1494   0.222   2.294   2.589 -1.2039 -2.5410  1.1565
  499SOL     OW 1495   1.222   2.354   0.288  0.2845  0.0312 -0.4205
  499SOL    HW1 1496   1.170   2.270   0.321  0.8807  1.0617 -2.9160
  499SOL    HW2 1497   1.238   2.343   0.189  0.4703  0.3457 -0.3794
  500SOL     OW 1498   1.207   3.066   3.097  0.1438  0.4719 -0.0490
  500SOL    HW1 1499   1.164   0.040   3.046 -0.0650 -5.2066  0.8941
  500SOL    HW2 1500   1.150   2.980   0.004  1.9659  2.4603  4.0337
  501SOL     OW 1501   1.617   0.024   1.722 -0.0930 -0.1981  0.2535
  501SOL    HW1 1502   1.546   3.090   1.657 -0.7914  0.5934  1.5162
  501SOL    HW2 1503   1.699   0.062   1.668  0.3038 -1.2664 -1.6792
  502SOL     OW 1504   3.021   0.362   2.209  0.0277 -0.0809  0.6356
  502SOL    HW1 1505   3.032   0.343   2.310  1.8150  0.5983  0.5747
  502SOL    HW2 1506   0.009   0.351   2.164 -1.0507 -1.6456 -1.1350
  503SOL     OW 1507   2.492   2.005   2.430  0.1730 -0.2991 -0.1073
  503SOL    HW1 1508   2.515   2.042   2.340  0.9207 -2.0786  1.9193
  503SOL    HW2 1509   2.461   2.081   2.490  0.7848  1.2646  0.8437
  504SOL     OW 1510   1.447   0.297   1.377 -0.4673  0.2031  0.1041
  504SOL    HW1 1511   1.546   0.331   1.380 -0.1970  1.0498 -0.9181
  504SOL    HW2 1512   1.404   0.291   1.470 -1.9865  0.3544  3.7580
  505SOL     OW 1513   0.727   0.579   1.657  0.1385 -0.1839  0.1325
  505SOL    HW1 1514   0.769   0.609   1.741 -1.1884  0.5498 -2.1339
  505SOL    HW2 1515   0.692   0.485   1.676  1.3386 -0.9499 -2.4566
  506SOL     OW 1516   0.382   0.882   2.497 -0.4002  0.1613 -0.0818
  506SOL    HW1 1517   0.383   0.904   2.598 -0.2043 -2.0617  2.1777
  506SOL    HW2 1518   0.287   0.841   2.477 -0.2876 -0.9567 -2.4407
  507SOL     OW 1519   0.111   2.949   2.934  0.3690  0.4708 -0.0796
  507SOL    HW1 1520   0.064   2.965   2.843  1.9602  1.7571 -0.8896
  507SOL    HW2 1521   0.208   2.913   2.922  2.1944 -0.8720 -0.5564
  508SOL     OW 1522   1.656   0.634   1.567  0.2765  0.4748 -0.1924
  508SOL    HW1 1523   1.643   0.607   1.470 -0.4606  1.6968 -1.1991
  508SOL    HW2 1524   1.742   0.682   1.588 -0.7069  2.6047 -0.8349
  509SOL     OW 1525   1.017   1.818   1.610 -0.2430  0.3058 -0.5611
  509SOL    HW1 1526   0.933   1.861   1.649  2.9048 -0.2909  5.2830
  509SOL    HW2 1527   1.034   1.850   1.513 -0.3704  2.7754 -1.9689
  510SOL     OW 1528   2.163   1.198   2.166 -0.0217 -0.0073 -0.8108
  510SOL    HW1 1529   2.160   1.176   2.265 -1.0926  2.3626 -0.9194
  510SOL    HW2 1530   2.219   1.131   2.114 -0.4270  2.2290  2.2327
  511SOL     OW 1531   0.434   1.796   0.867  0.0725 -0.1155 -0.2860
  511SOL    HW1 1532   0.456   1.893   0.887  0.2960 -0.4441 -4.2297
  511SOL    HW2 1533   0.440   1.744   0.953 -1.4598 -1.5395 -0.7278
  512SOL     OW 1534   2.567   2.379   0.121  0.5696  0.2556 -0.4520
  512SOL    HW1 1535   2.536   2.290   0.083  2.6239  0.9705 -2.3888
  512SOL    HW2 1536   2.495   2.428   0.175 -0.1366  1.4564 -0.4754
  513SOL     OW 1537   0.059   1.896   2.430  0.1216  0.2326  0.2605
  513SOL    HW1 1538   0.063   1.803   2.473  0.1941 -1.1385 -0.7631
  513SOL    HW2 1539   0.038   1.882   2.336  0.9776 -1.0695  3.7243
  514SOL     OW 1540   0.478   2.491   2.687 -0.2587  0.1109 -0.0072
  514SOL    HW1 1541   0.406   2.435   2.642 -0.9621  2.1611 -1.2691
  514SOL    HW2 1542   0.485   2.584   2.640  0.3078  0.3788  1.4691
  515SOL     OW 1543   2.134   1.363   1.540  0.2905  0.1074  0.2715
  515SOL    HW1 1544   2.200   1.288   1.569  0.7013  0.4831  0.0180
  515SOL    HW2 1545   2.155   1.450   1.593  0.8370 -0.5098  0.2088
  516SOL     OW 1546   2.441   2.227   2.602  0.0239 -0.0941 -0.1531
  516SOL    HW1 1547   2.432   2.313   2.555  1.8153 -1.8467 -0.1660
  516SOL    HW2 1548   2.521   2.231   2.664  2.2762  0.8880 -2.3605
  517SOL     OW 1549   1.534   1.074   2.939  0.2098 -0.7083  0.1042
  517SOL    HW1 1550   1.633   1.100   2.938  1.5894  2.6294  0.0812
  517SOL    HW2 1551   1.508   1.012   3.018 -0.1553 -2.3161 -0.6987
  518SOL     OW 1552   2.827   0.046   2.401 -0.2508 -0.3500 -0.7081
  518SOL    HW1 1553   2.862   0.074   2.311  0.5111  0.2751  1.0381
  518SOL    HW2 1554   2.799   3.049   2.412 -1.3009 -0.9599  0.7868
  519SOL     OW 1555   1.623   1.667   2.046  0.0691 -0.3516 -0.6161
  519SOL    HW1 1556   1.535   1.678   2.093  1.7203  0.9486 -0.7820
  519SOL    HW2 1557   1.691   1.697   2.117  0.4119  1.6782 -1.4244
  520SOL     OW 1558   2.700   0.143   2.809  0.0302 -0.3328 -0.5198
  520SOL    HW1 1559   2.666   0.227   2.860 -1.3465  1.2717 -1.6144
  520SOL    HW2 1560   2.631   0.105   2.742 -2.9198 -0.6762  1.0106
  521SOL     OW 1561   0.521   1.561   2.023  0.2072 -0.0240 -0.1734
  521SOL    HW1 1562   0.569   1.518   1.946  2.1317 -1.5884  0.4004
  521SOL    HW2 1563   0.580   1.562   2.109  2.2494  2.0215  1.6648
  522SOL     OW 1564   1.203   0.083   1.551  0.2604 -0.4459 -0.3529
  522SOL    HW1 1565   1.231   0.074   1.451  2.0990 -0.7040 -0.9371
  522SOL    HW2 1566   1.137   0.166   1.564  0.2302  1.7681 -1.5277
  523SOL     OW 1567   0.154   2.639   1.047  0.5391 -0.4911 -0.0370
  523SOL    HW1 1568   0.121   2.648   1.143  1.8929  1.2519  3.0761
  523SOL    HW2 1569   0.226   2.708   1.033 -1.9720  1.2641  0.5771
  524SOL     OW 1570   1.669   2.688   0.842  0.8374 -0.3412 -0.1107
  524SOL    HW1 1571   1.608   2.614   0.817  0.6021  0.0396 -0.2092
  524SOL    HW2 1572   1.630   2.784   0.846  1.8258  1.8797  0.7378
  525SOL     OW 1573   2.513   1.073   0.889 -0.0103 -0.0444 -0.1293
  525SOL    HW1 1574   2.428   1.093   0.943 -0.7026 -0.1613 -1.7618
  525SOL    HW2 1575   2.484   1.046   0.793 -1.3847 -1.9513 -0.0420
  526SOL     OW 1576   1.025   2.584   0.754  0.3251 -0.0820  0.1891
  526SOL    HW1 1577   0.945   2.525   0.783  1.6107  0.9378 -0.0430
  526SOL    HW2 1578   1.035   2.593   0.655  1.2441 -1.5438  3.1045
  527SOL     OW 1579   2.205   1.864   0.840  0.2728 -0.1637  0.2037
  527SOL    HW1 1580   2.265   1.919   0.778  1.0303 -0.3241 -0.5941
  527SOL    HW2 1581   2.250   1.775   0.869 -2.5045  0.5958  1.4727
  528SOL     OW 1582   2.276   0.474   0.246 -0.0628 -0.0540  0.4097
  528SOL    HW1 1583   2.302   0.568   0.279 -2.8877  2.0582 -1.1007
  528SOL    HW2 1584   2.205   0.427   0.306  1.0994 -1.3217 -1.2910
  529SOL     OW 1585   1.234   1.099   2.160 -0.6658  0.3999 -0.2483
  529SOL    HW1 1586   1.334   1.111   2.149  1.8697 -2.7524  1.0508
  529SOL    HW2 1587   1.215   0.998   2.168  0.5632  0.0963 -0.2187
  530SOL     OW 1588   2.656   0.965   2.858  0.1285  0.0167 -0.1999
  530SOL    HW1 1589   2.555   0.963   2.855  1.7113 -2.3602 -1.6512
  530SOL    HW2 1590   2.687   1.010   2.772 -2.4872 -0.2232 -0.9477
  531SOL     OW 1591   1.235   1.059   0.138  0.1254 -0.9087 -0.2179
  531SOL    HW1 1592   1.221   1.160   0.146 -0.4740 -1.9611  0.1262
  531SOL    HW2 1593   1.152   1.013   0.094 -0.7971  1.1246 -2.1620
  532SOL     OW 1594   2.261   0.161   0.814 -0.4545 -0.4821  0.0841
  532SOL    HW1 1595   2.319   0.240   0.851  0.3654  3.6030  0.0932
  532SOL    HW2 1596   2.284   0.068   0.848 -0.3635 -1.3307  0.4940
  533SOL     OW 1597   0.691   0.825   1.842 -0.3183  0.1134 -0.1744
  533SOL    HW1 1598   0.681   0.912   1.788 -0.2154 -0.9018  1.9703
  533SOL    HW2 1599   0.777   0.775   1.828  0.3521 -0.9351 -0.0866
  534SOL     OW 1600   1.884   0.210   2.557  0.7151 -0.1423  0.6222
  534SOL    HW1 1601   1.795   0.234   2.510  0.8230  0.4160  0.1533
  534SOL    HW2 1602   1.883   0.242   2.653  0.4192 -0.2147  1.3270
  535SOL     OW 1603   0.507   0.202   0.403 -0.5511 -0.8982 -0.2251
  535SOL    HW1 1604   0.431   0.230   0.344 -1.3570 -0.2834 -0.4976
  535SOL    HW2 1605   0.548   0.121   0.359 -0.1648 -0.1299 -1.1499
  536SOL     OW 1606   0.859   2.877   1.207  0.1698 -0.0218 -0.0403
  536SOL    HW1 1607   0.923   2.907   1.281 -1.8185  2.1689  0.2629
  536SOL    HW2 1608   0.900   2.829   1.126 -1.9982 -2.1261 -2.8406
  537SOL     OW 1609   1.712   2.917   1.871 -0.6384  0.1601  0.4148
  537SOL    HW1 1610   1.671   3.008   1.856 -0.4581  0.9904  2.8650
  537SOL    HW2 1611   1.652   2.841   1.841  1.3888  0.5230 -1.1051
  538SOL     OW 1612   3.022   2.746   0.301  0.1198  0.0585  0.0468
  538SOL    HW1 1613   3.052   2.797   0.220  1.0082  0.0374  4.1445
  538SOL    HW2 1614   3.077   2.660   0.305 -0.8706  0.5364 -1.2479
  539SOL     OW 1615   2.797   1.909   1.885  0.2224  0.3826 -0.3811
  539SOL    HW1 1616   2.836   1.986   1.828 -0.6214  1.1519 -0.2964
  539SOL    HW2 1617   2.698   1.917   1.893 -0.0999 -1.2888 -1.2617
  540SOL     OW 1618   2.985   2.565   1.711  0.4480 -0.1245  0.3924
  540SOL    HW1 1619   2.908   2.550   1.775 -2.2669  0.7227  0.4246
  540SOL    HW2 1620   3.031   2.651   1.736  0.9998  0.5346  1.3540
  541SOL     OW 1621   2.833   2.938   1.711 -0.5338  0.2057  0.1008
  541SOL    HW1 1622   2.752   2.885   1.739  1.7469 -1.7522  0.1161
  541SOL    HW2 1623   2.817   2.999   1.624 -0.0733  1.3543 -1.8606
  542SOL     OW 1624   2.869   0.583   2.127 -0.7175  0.2115  0.3475
  542SOL    HW1 1625   2.809   0.534   2.065 -0.9986  0.9471  0.3752
  542SOL    HW2 1626   2.925   0.510   2.175  0.6519 -1.1295  4.0259
  543SOL     OW 1627   0.525   0.811   1.013 -0.1449 -0.2140  0.0632
  543SOL    HW1 1628   0.590   0.768   0.948 -0.2261 -1.7211 -0.2835
  543SOL    HW2 1629   0.570   0.822   1.110  1.6566  1.2937  0.1302
  544SOL     OW 1630   1.963   1.563   0.956 -0.0834 -0.1180  0.0981
  544SOL    HW1 1631   1.871   1.540   1.003 -1.8913  0.7597  3.1278
  544SOL    HW2 1632   1.951   1.625   0.878  1.4626 -2.8541  2.4794
  545SOL     OW 1633   1.089   1.692   0.437  0.3388  0.2846  0.4545
  545SOL    HW1 1634   1.176   1.728   0.470 -3.1286 -0.1598 -1.5485
  545SOL    HW2 1635   1.042   1.648   0.514 -0.2581  0.3770  0.6806
  546SOL     OW 1636   2.551   0.358   2.121  0.1177  0.2900 -0.4513
  546SOL    HW1 1637   2.618   0.399   2.056 -0.3864 -2.4864  3.0971
  546SOL    HW2 1638   2.535   0.419   2.197 -0.9240 -1.4273 -2.0457
  547SOL     OW 1639   0.240   0.271   2.456  0.2952  0.0239  0.0537
  547SOL    HW1 1640   0.237   0.251   2.556 -1.0408 -0.0376  3.5604
  547SOL    HW2 1641   0.328   0.319   2.423  2.8777  0.0142 -0.9181
  548SOL     OW 1642   1.992   2.171   2.342 -0.2179 -0.4494 -0.0010
  548SOL    HW1 1643   2.089   2.201   2.346  1.6102 -2.4347  0.0284
  548SOL    HW2 1644   1.977   2.091   2.288 -1.4242  3.9001  1.9098
  549SOL     OW 1645   2.458   0.418   1.254 -0.4072  0.0833 -0.0013
  549SOL    HW1 1646   2.437   0.355   1.334  0.1021  3.0273 -2.5162
  549SOL    HW2 1647   2.554   0.450   1.251 -0.5183 -1.1179 -1.1530
  550SOL     OW 1648   1.786   1.599   0.578 -0.6860  0.0798  0.4475
  550SOL    HW1 1649   1.704   1.626   0.528  0.9914  0.5184 -0.9835
  550SOL    HW2 1650   1.835   1.674   0.627 -0.4337 -1.5595 -1.3654
  551SOL     OW 1651   1.253   0.054   1.291 -0.2147  0.2846 -0.0266
  551SOL    HW1 1652   1.188   0.060   1.210 -0.7735 -0.4348 -2.9555
  551SOL    HW2 1653   1.340   0.089   1.258 -3.3192 -2.2042  2.0984
  552SOL     OW 1654   1.855   2.351   2.220  0.1470 -0.1789  0.4999
  552SOL    HW1 1655   1.769   2.297   2.230 -1.5806 -0.5381 -2.1644
  552SOL    HW2 1656   1.927   2.294   2.265 -0.5870  1.0852  1.3648
  553SOL     OW 1657   0.607   3.068   0.344  0.1278  0.0827 -0.5161
  553SOL    HW1 1658   0.659   3.018   0.419  0.8922 -1.4436  2.6067
  553SOL    HW2 1659   0.568   2.999   0.281  0.6791 -1.9623 -0.7998
  554SOL     OW 1660   1.712   2.667   2.081  0.3808 -0.2886  0.1388
  554SOL    HW1 1661   1.747   2.607   2.006  0.7266 -0.4128  1.0166
  554SOL    HW2 1662   1.776   2.750   2.087 -1.8450 -0.0146  0.5890
  555SOL     OW 1663   2.233   2.471   2.046  0.0980  0.3593  0.3975
  555SOL    HW1 1664   2.327   2.440   2.046 -0.9568  5.2165  1.5984
  555SOL    HW2 1665   2.215   2.523   2.133  0.6086 -0.5720  1.1147
  556SOL     OW 1666   0.930   0.012   0.493  0.4580 -0.6135  0.2592
  556SOL    HW1 1667   1.002   3.084   0.560  0.4534  1.3361  1.9744
  556SOL    HW2 1668   0.964   3.096   0.402 -1.2203  3.4345  4.2191
  557SOL     OW 1669   0.676   2.144   1.909  0.6979 -0.2484 -0.0333
  557SOL    HW1 1670   0.701   2.116   2.006  1.6979 -1.3896  1.7388
  557SOL    HW2 1671   0.579   2.174   1.893 -0.4649 -1.3413  0.0791
  558SOL     OW 1672   2.880   1.016   2.319  0.4406 -0.0093 -0.2651
  558SOL    HW1 1673   2.938   0.936   2.342  0.9709 -0.8339  0.7001
  558SOL    HW2 1674   2.911   1.100   2.358 -3.7612  2.1324 -2.5576
  559SOL     OW 1675   2.591   2.028   2.176  0.4626  0.0626 -0.0667
  559SOL    HW1 1676   2.542   2.042   2.086  0.5423 -2.8202  2.1920
  559SOL    HW2 1677   2.685   2.070   2.175 -0.6402 -1.0794  2.1580
  560SOL     OW 1678   0.711   0.497   1.987  0.7544  0.1447 -0.6299
  560SOL    HW1 1679   0.675   0.402   2.000  0.4557 -0.2303 -0.6396
  560SOL    HW2 1680   0.809   0.505   2.013 -3.0531  0.2297 -0.6446
  561SOL     OW 1681   1.072   0.293   0.127  0.5020  0.0379 -0.4816
  561SOL    HW1 1682   1.151   0.233   0.101  2.2379  1.7112 -2.6395
  561SOL    HW2 1683   0.987   0.269   0.068 -2.3219  0.1338 -0.1084
  562SOL     OW 1684   0.974   1.535   1.596  0.2519 -0.5017  0.3139
  562SOL    HW1 1685   0.973   1.637   1.599  0.7457 -2.6513  1.8376
  562SOL    HW2 1686   0.886   1.500   1.559  2.5207  0.4947  2.6024
  563SOL     OW 1687   1.838   2.650   0.118 -0.0322  0.7693 -0.0418
  563SOL    HW1 1688   1.928   2.686   0.088  3.1840  0.5923 -0.1749
  563SOL    HW2 1689   1.763   2.718   0.106  2.1475 -0.8719  1.6488
  564SOL     OW 1690   2.823   2.051   0.281 -0.1205  0.0152  0.0683
  564SOL    HW1 1691   2.816   2.138   0.229  0.8250  0.5017  1.8967
  564SOL    HW2 1692   2.738   1.997   0.258 -2.1404 -0.5590 -1.0849
  565SOL     OW 1693   0.472   2.902   2.235 -0.0206 -0.0273 -0.0177
  565SOL    HW1 1694   0.502   2.971   2.302 -0.4552 -0.2814 -1.7563
  565SOL    HW2 1695   0.447   2.810   2.273  0.1823 -0.8019  0.4213
  566SOL     OW 1696   1.478   2.429   2.724  0.1406 -0.4904 -0.3593
  566SOL    HW1 1697   1.579   2.438   2.727 -3.0842  2.2371 -2.8651
  566SOL    HW2 1698   1.439   2.379   2.643  1.3454 -1.3757 -0.9448
  567SOL     OW 1699   2.013   2.004   1.517 -0.5308 -0.2270 -0.2121
  567SOL    HW1 1700   1.963   2.091   1.488  1.7945  0.2735 -0.0331
  567SOL    HW2 1701   1.951   1.941   1.569 -1.0982  2.1779  1.2632
  568SOL     OW 1702   2.003   0.864   3.021  0.5578 -0.6233  0.0583
  568SOL    HW1 1703   1.995   0.900   0.015  0.6698  1.3631 -0.1503
  568SOL    HW2 1704   2.082   0.800   3.023  1.4657 -0.3600  1.8997
  569SOL     OW 1705   2.705   1.425   2.131 -0.2115  0.1406 -0.1513
  569SOL    HW1 1706   2.786   1.487   2.142  2.6981  1.8841 -1.4594
  569SOL    HW2 1707   2.672   1.383   2.221  1.4086 -1.5664 -0.7430
  570SOL     OW 1708   2.577   2.821   1.793 -0.2079  0.0511  0.2665
  570SOL    HW1 1709   2.507   2.749   1.776 -0.4871  0.2043 -0.8630
  570SOL    HW2 1710   2.585   2.856   1.890 -1.7536  3.0848  0.3554
  571SOL     OW 1711   0.295   0.231   1.628 -0.1302  0.1116  0.4415
  571SOL    HW1 1712   0.373   0.238   1.562 -1.0808 -0.8018  0.5234
  571SOL    HW2 1713   0.269   0.320   1.667  0.6258  1.1738 -0.5471
  572SOL     OW 1714   0.141   2.020   0.611 -0.3414 -0.1510  0.0930
  572SOL    HW1 1715   0.058   1.995   0.559 -2.9551  2.6261 -0.0896
  572SOL    HW2 1716   0.149   1.975   0.700 -1.1543  1.3160 -1.2902
  573SOL     OW 1717   0.901   0.639   0.034  0.2393  0.2723 -0.1541
  573SOL    HW1 1718   0.873   0.689   0.121 -1.0325 -0.0453  1.0308
  573SOL    HW2 1719   0.819   0.588   0.006 -1.3529 -0.9122 -0.5260
  574SOL     OW 1720   3.065   3.060   0.221  0.0956 -0.0959  0.4863
  574SOL    HW1 1721   0.016   0.041   0.193  1.0110  0.2479  0.5959
  574SOL    HW2 1722   3.004   3.022   0.147 -0.2763  1.1810  0.1619
  575SOL     OW 1723   1.035   2.327   1.215  0.3790 -0.5395 -0.4331
  575SOL    HW1 1724   1.042   2.231   1.173 -0.2276 -0.1120 -0.3845
  575SOL    HW2 1725   1.105   2.390   1.182 -1.2302 -2.0552 -1.2759
  576SOL     OW 1726   3.043   2.983   1.382 -0.0032  0.0365  0.2741
  576SOL    HW1 1727   3.003   2.889   1.385  1.5344 -0.8324  0.6513
  576SOL    HW2 1728   0.040   2.979   1.410 -1.8885  1.4689  0.1098
  577SOL     OW 1729   2.372   1.558   1.302  0.2594  0.7610 -0.1589
  577SOL    HW1 1730   2.406   1.603   1.383 -0.8532  1.2927  2.3341
  577SOL    HW2 1731   2.284   1.599   1.267  0.7013  1.3030  0.7759
  578SOL     OW 1732   1.024   3.099   2.807  0.4127  0.2663 -0.7986
  578SOL    HW1 1733   1.021   3.101   2.706  1.1683 -0.2082 -0.7845
  578SOL    HW2 1734   1.086   0.076   2.832  0.6810  4.1862  0.3771
  579SOL     OW 1735   2.513   1.735   2.174 -0.0556  0.7168 -0.1594
  579SOL    HW1 1736   2.558   1.699   2.093 -1.0380  1.0337  1.1224
  579SOL    HW2 1737   2.517   1.836   2.181 -0.3212  1.8188  1.5872
  580SOL     OW 1738   1.686   0.211   1.907  0.5507  0.6781 -0.3832
  580SOL    HW1 1739   1.642   0.151   1.837 -1.3631 -0.0354  0.9170
  580SOL    HW2 1740   1.687   0.307   1.872  0.8816 -0.0141  0.0624
  581SOL     OW 1741   1.217   1.416   1.920  0.0016 -0.1872 -0.2681
  581SOL    HW1 1742   1.120   1.385   1.917 -1.4052 -1.2921 -1.9361
  581SOL    HW2 1743   1.228   1.513   1.886 -0.1767  2.0609 -1.1360
  582SOL     OW 1744   2.891   2.815   2.009 -1.0891  0.0939 -0.0902
  582SOL    HW1 1745   2.931   2.862   2.096  1.2006  1.7240  2.1772
  582SOL    HW2 1746   2.942   2.832   1.921  0.5744 -1.6806  1.1777
  583SOL     OW 1747   1.418   1.416   1.247  0.1948 -0.1112 -0.0182
  583SOL    HW1 1748   1.448   1.403   1.345  0.0388 -1.6397 -1.2682
  583SOL    HW2 1749   1.314   1.426   1.246 -0.0798  0.8068 -0.1800
  584SOL     OW 1750   1.500   1.690   2.847 -0.0516  0.1184  0.8079
  584SOL    HW1 1751   1.509   1.791   2.858 -0.5031 -1.0110  2.2475
  584SOL    HW2 1752   1.571   1.658   2.778  2.0914 -1.3722 -1.4267
  585SOL     OW 1753   0.122   2.574   0.304 -0.0402 -0.1127  0.0118
  585SOL    HW1 1754   0.203   2.526   0.347 -2.7627  1.2492  0.6683
  585SOL    HW2 1755   0.149   2.593   0.209 -0.2874 -0.2946  0.3886
  586SOL     OW 1756   2.037   2.509   3.014 -0.4763 -0.2878 -0.1407
  586SOL    HW1 1757   2.059   2.512   0.013  1.1237 -0.8769 -1.4400
  586SOL    HW2 1758   2.117   2.463   2.962  0.9667  1.0602 -0.8752
  587SOL     OW 1759   2.469   2.070   0.422 -0.7063  0.1756 -0.1204
  587SOL    HW1 1760   2.501   2.168   0.446 -2.6321 -1.2141  0.4206
  587SOL    HW2 1761   2.525   2.024   0.352 -0.5400 -2.6385  0.9241
  588SOL     OW 1762   2.255   0.348   1.076 -0.1422  0.6007  0.1493
  588SOL    HW1 1763   2.178   0.402   1.036 -2.8612  0.1602  2.0732
  588SOL    HW2 1764   2.339   0.395   1.108 -1.8373 -1.7241  0.1267
  589SOL     OW 1765   0.673   0.759   0.802  0.0345 -0.3948 -0.2560
  589SOL    HW1 1766   0.713   0.668   0.776  2.8937 -3.0064  0.7696
  589SOL    HW2 1767   0.604   0.792   0.736  0.3752 -0.3929  0.4452
  590SOL     OW 1768   2.816   2.331   0.213 -0.0863  0.5147 -0.2886
  590SOL    HW1 1769   2.733   2.381   0.181 -0.7547 -0.6639 -0.2170
  590SOL    HW2 1770   2.834   2.341   0.318 -0.7361  2.5321  2.1586
  591SOL     OW 1771   0.193   2.934   1.878 -0.3181  0.0641  0.1588
  591SOL    HW1 1772   0.250   2.851   1.872 -0.0810  0.8990  1.2216
  591SOL    HW2 1773   0.203   2.981   1.970  0.1202  1.5091 -0.9531
  592SOL     OW 1774   0.769   1.109   1.345 -0.1069 -0.2916  0.1454
  592SOL    HW1 1775   0.682   1.087   1.381  2.8403  3.7576 -0.9635
  592SOL    HW2 1776   0.797   1.049   1.269  1.1821 -2.9621  0.7371
  593SOL     OW 1777   1.049   1.829   1.329 -0.7141  0.0733 -0.2782
  593SOL    HW1 1778   1.098   1.737   1.339 -0.1072 -0.8595 -1.4056
  593SOL    HW2 1779   1.080   1.881   1.250  1.6384 -1.0641  1.7189
  594SOL     OW 1780   0.245   1.741   2.828 -0.8395  0.1532  0.0794
  594SOL    HW1 1781   0.279   1.798   2.905 -2.5519 -0.6554  0.5566
  594SOL    HW2 1782   0.308   1.670   2.793 -2.5419 -0.9950  1.5841
  595SOL     OW 1783   1.374   0.742   0.926  0.1962  0.1663 -0.3914
  595SOL    HW1 1784   1.428   0.701   0.853  1.5458 -2.2786  1.6322
  595SOL    HW2 1785   1.308   0.677   0.977 -3.2985  0.5877  0.5811
  596SOL     OW 1786   0.330   1.674   0.450  0.0734 -0.2066 -0.6734
  596SOL    HW1 1787   0.239   1.724   0.474 -2.0781  1.6909 -1.6134
  596SOL    HW2 1788   0.323   1.571   0.469  1.0508  1.7176 -0.5381
  597SOL     OW 1789   3.046   2.089   2.768 -0.1137  0.4264  0.4210
  597SOL    HW1 1790   3.028   2.179   2.728  2.0487 -0.2106  1.7714
  597SOL    HW2 1791   2.979   2.073   2.843 -0.3789 -0.0647 -3.1348
  598SOL     OW 1792   1.949   1.896   2.217  0.1537  0.4810 -0.1979
  598SOL    HW1 1793   1.915   1.952   2.137  0.8440 -0.6334 -0.3328
  598SOL    HW2 1794   2.035   1.848   2.193 -1.8391  1.8886  3.4722
  599SOL     OW 1795   1.346   0.249   0.468  0.2613 -0.3310 -0.0720
  599SOL    HW1 1796   1.430   0.233   0.524  1.8969  0.4316  0.1877
  599SOL    HW2 1797   1.368   0.324   0.403  0.2510  1.4001 -2.4754
  600SOL     OW 1798   0.904   2.768   0.317  0.2566  0.0026  0.1364
  600SOL    HW1 1799   0.948   2.858   0.311 -2.3883 -1.6881  1.1782
  600SOL    HW2 1800   0.804   2.780   0.284 -3.1786  0.7342 -0.4609
  601SOL     OW 1801   0.639   0.820   1.256 -0.7537 -0.0664 -0.5898
  601SOL    HW1 1802   0.598   0.773   1.335  1.4756  1.2379 -2.0210
  601SOL    HW2 1803   0.743   0.829   1.275  3.2593 -1.3557  0.0339
  602SOL     OW 1804   0.358   2.808   1.055  0.1952 -0.3493 -0.1248
  602SOL    HW1 1805   0.440   2.778   1.111  1.5221 -1.9370 -2.6391
  602SOL    HW2 1806   0.362   2.908   1.037 -2.6170  0.0787  1.2932
  603SOL     OW 1807   1.252   2.645   2.455  0.1980 -0.3279 -0.5811
  603SOL    HW1 1808   1.266   2.674   2.359 -0.9332 -0.7727 -1.8500
  603SOL    HW2 1809   1.334   2.642   2.513 -2.9837 -1.9400  0.5623
  604SOL     OW 1810   0.744   2.800   2.852 -0.1566  0.5164 -0.0196
  604SOL    HW1 1811   0.721   2.710   2.892  1.0747 -0.2370  0.3573
  604SOL    HW2 1812   0.659   2.847   2.824  0.7712 -2.5408 -1.4597
  605SOL     OW 1813   0.950   0.717   1.766  0.4451  0.3902 -0.6480
  605SOL    HW1 1814   1.031   0.654   1.756  0.7029 -2.3448  0.3385
  605SOL    HW2 1815   0.977   0.802   1.817  2.0113 -0.7397  2.6110
  606SOL     OW 1816   2.016   0.525   2.695  0.1878 -0.5497 -0.4992
  606SOL    HW1 1817   1.958   0.442   2.716 -1.1074 -0.6338  0.5110
  606SOL    HW2 1818   1.969   0.606   2.742 -3.1274 -0.3441  0.0467
  607SOL     OW 1819   0.583   1.259   0.971 -0.1163  0.4557  0.0399
  607SOL    HW1 1820   0.617   1.274   1.064  0.0656 -4.9032 -1.1833
  607SOL    HW2 1821   0.520   1.178   0.971 -0.8286 -1.3328  1.3127
  608SOL     OW 1822   0.114   2.776   2.369  0.0009  0.4314 -0.9571
  608SOL    HW1 1823   0.101   2.871   2.403 -1.2980  1.2785  1.1761
  608SOL    HW2 1824   0.066   2.711   2.433 -3.4013 -1.8891  0.8792
  609SOL     OW 1825   1.419   0.671   3.092  0.2388 -0.4327  0.3118
  609SOL    HW1 1826   1.517   0.662   0.005  0.1527  1.1053  0.1294
  609SOL    HW2 1827   1.365   0.628   0.065  1.3816  0.0313  0.5526
  610SOL     OW 1828   0.722   2.637   1.281 -0.2623 -0.2906 -0.0251
  610SOL    HW1 1829   0.776   2.712   1.238  0.2942  2.1229 -1.1658
  610SOL    HW2 1830   0.628   2.664   1.302  0.1156  0.0584 -1.9589
  611SOL     OW 1831   1.377   0.677   0.459 -0.0133 -0.3666  0.1185
  611SOL    HW1 1832   1.296   0.625   0.424 -0.8891  1.7425 -0.4557
  611SOL    HW2 1833   1.381   0.773   0.413  0.5813  0.3706 -0.3382
  612SOL     OW 1834   1.434   0.958   2.717 -0.4799 -0.1274  0.1002
  612SOL    HW1 1835   1.384   1.024   2.653 -1.4847  3.0755 -2.5664
  612SOL    HW2 1836   1.475   1.005   2.797  0.8590 -1.4042 -0.7667
  613SOL     OW 1837   2.182   0.904   0.706 -0.0914  0.2441 -0.1026
  613SOL    HW1 1838   2.122   0.888   0.623 -1.4038 -0.5888  0.1799
  613SOL    HW2 1839   2.121   0.917   0.792 -1.2068 -1.8281  0.1628
  614SOL     OW 1840   2.299   0.191   1.824  0.5976 -0.2976  0.0367
  614SOL    HW1 1841   2.342   0.179   1.913 -1.1083 -1.2535 -0.1870
  614SOL    HW2 1842   2.332   0.271   1.770  1.4616  1.1246  0.5175
  615SOL     OW 1843   0.813   2.122   0.807  0.1100  0.5957 -0.2054
  615SOL    HW1 1844   0.775   2.062   0.883 -3.5305 -2.9719  3.3472
  615SOL    HW2 1845   0.872   2.195   0.846 -0.1544  0.1616  0.8803
  616SOL     OW 1846   1.480   0.896   2.381 -0.7118  0.3809 -0.0207
  616SOL    HW1 1847   1.458   0.995   2.398 -0.2611  0.4322  0.2825
  616SOL    HW2 1848   1.518   0.884   2.286  0.7835  1.7962 -2.7435
  617SOL     OW 1849   1.632   2.810   0.120  0.0970  0.0427  0.8250
  617SOL    HW1 1850   1.535   2.783   0.145  0.6830  3.3405  0.0510
  617SOL    HW2 1851   1.625   2.904   0.083 -2.5701 -1.5452 -0.3798
  618SOL     OW 1852   1.187   1.222   2.445 -0.3412 -0.4801  0.3457
  618SOL    HW1 1853   1.289   1.230   2.444  0.0706  1.4201  0.9548
  618SOL    HW2 1854   1.165   1.125   2.456  0.7096  1.0593 -3.2880
  619SOL     OW 1855   2.354   1.407   0.839  0.0131 -0.2067 -0.1948
  619SOL    HW1 1856   2.297   1.328   0.802  2.1516 -1.5830 -2.4994
  619SOL    HW2 1857   2.444   1.375   0.877 -0.2170 -0.3484 -1.8626
  620SOL     OW 1858   2.324   2.628   2.708  0.5823  0.2140  0.0248
  620SOL    HW1 1859   2.418   2.650   2.746  1.5875  0.0626 -0.1947
  620SOL    HW2 1860   2.252   2.697   2.736  0.9110  1.3600 -0.3672
  621SOL     OW 1861   2.514   1.141   0.508  0.7929  0.3251 -0.4234
  621SOL    HW1 1862   2.424   1.173   0.485  1.9126 -2.1754 -1.4487
  621SOL    HW2 1863   2.501   1.067   0.583  0.0691 -0.0872 -0.4313
  622SOL     OW 1864   1.377   2.296   2.501  0.1815 -0.5198 -0.0669
  622SOL    HW1 1865   1.454   2.306   2.434  1.8534 -0.9286  1.7409
  622SOL    HW2 1866   1.284   2.312   2.465 -1.2863  0.9084  1.8506
  623SOL     OW 1867   0.137   2.254   3.099 -0.3678 -0.4115 -0.0472
  623SOL    HW1 1868   0.204   2.207   0.055  0.0243  1.3712 -1.6493
  623SOL    HW2 1869   0.038   2.219   0.017 -1.9429  1.3062  1.5029
  624SOL     OW 1870   0.233   0.081   3.019 -0.2784 -0.4477  0.2217
  624SOL    HW1 1871   0.330   0.068   3.042  0.1405 -2.3458  2.5899
  624SOL    HW2 1872   0.193   3.089   2.993 -2.7511 -1.5872  2.6322
  625SOL     OW 1873   0.721   1.982   3.078 -0.0744  0.4180  0.2852
  625SOL    HW1 1874   0.770   2.018   2.998  4.1700  1.1500  0.3929
  625SOL    HW2 1875   0.744   1.882   3.093 -0.0930 -0.6396  2.1576
  626SOL     OW 1876   2.932   0.773   0.417 -0.2893  0.2708  0.0739
  626SOL    HW1 1877   2.834   0.763   0.406  0.7015  1.6953  0.1326
  626SOL    HW2 1878   2.973   0.690   0.467 -0.9976 -1.0191  0.7440
  627SOL     OW 1879   1.676   1.423   2.887 -0.1732  0.0515 -0.2852
  627SOL    HW1 1880   1.643   1.362   2.963  0.1380 -1.7401  1.3818
  627SOL    HW2 1881   1.742   1.489   2.928  1.8742 -2.4945  0.8114
  628SOL     OW 1882   1.332   1.274   2.960  0.0385  0.1342 -0.2676
  628SOL    HW1 1883   1.298   1.318   3.045 -0.9298 -1.1169  1.1033
  628SOL    HW2 1884   1.387   1.185   2.977  2.4745 -0.5738 -0.5472
  629SOL     OW 1885   0.283   0.103   1.854  0.4655 -0.6137 -0.2532
  629SOL    HW1 1886   0.266   0.003   1.860  0.9835 -1.9859 -1.1834
  629SOL    HW2 1887   0.246   0.134   1.765 -0.2627  2.7624  0.9431
  630SOL     OW 1888   2.450   0.687   2.237  0.0809  0.2364  0.1254
  630SOL    HW1 1889   2.435   0.662   2.139 -0.0872  1.1109  0.5484
  630SOL    HW2 1890   2.406   0.619   2.298 -0.1706 -0.2339 -0.0594
  631SOL     OW 1891   2.080   0.305   0.657  0.3656  0.1935 -0.8130
  631SOL    HW1 1892   2.133   0.269   0.738 -1.5570 -3.3333  0.5186
  631SOL    HW2 1893   2.028   0.388   0.687 -0.1910  0.5031  2.1214
  632SOL     OW 1894   0.050   0.740   1.491 -0.2359 -0.2647 -0.3500
  632SOL    HW1 1895   3.087   0.663   1.516 -0.4345 -2.9124 -0.4166
  632SOL    HW2 1896   0.137   0.730   1.541  1.6975  0.7862  0.5421
  633SOL     OW 1897   0.878   0.252   3.054  0.3289 -0.1629 -0.0249
  633SOL    HW1 1898   0.840   0.321   2.986 -1.2541 -0.8547  1.1903
  633SOL    HW2 1899   0.799   0.193   3.091 -2.9377 -0.1464 -1.2529
  634SOL     OW 1900   0.909   2.495   3.024  0.0584  0.0519 -0.1522
  634SOL    HW1 1901   0.955   2.539   0.002 -0.2225 -2.4451  0.3016
  634SOL    HW2 1902   0.965   2.418   2.982  0.3596 -1.2771  0.2259
  635SOL     OW 1903   3.052   0.541   0.484 -0.1906  0.3508  0.6904
  635SOL    HW1 1904   0.037   0.533   0.430  2.1940  0.0722 -0.9969
  635SOL    HW2 1905   3.042   0.456   0.542 -2.3850  1.6277  0.7227
  636SOL     OW 1906   0.571   1.151   0.354  0.3031 -0.3004  0.9651
  636SOL    HW1 1907   0.566   1.047   0.337 -1.1379 -2.3089 -0.0875
  636SOL    HW2 1908   0.629   1.197   0.283  2.0422  0.7930 -0.9474
  637SOL     OW 1909   0.242   2.773   0.469  0.1573  0.6772  0.3419
  637SOL    HW1 1910   0.188   2.689   0.441  2.7035 -2.0547 -1.4631
  637SOL    HW2 1911   0.213   2.862   0.425 -1.0693 -0.7654 -1.0030
  638SOL     OW 1912   0.052   2.495   0.602  0.4237 -0.1786  0.4431
  638SOL    HW1 1913   0.001   2.438   0.534  0.6749 -1.7493  1.3941
  638SOL    HW2 1914   0.142   2.452   0.614 -1.7115  2.8617 -0.8561
  639SOL     OW 1915   1.587   1.135   0.255  0.0223 -0.2197 -0.7930
  639SOL    HW1 1916   1.566   1.061   0.184  0.4721 -2.2424 -1.4477
  639SOL    HW2 1917   1.572   1.230   0.219 -1.3773  1.1710 -2.1593
  640SOL     OW 1918   1.692   2.344   1.660 -0.1410  0.2409  0.3551
  640SOL    HW1 1919   1.646   2.410   1.593 -0.7581  0.7909  1.4868
  640SOL    HW2 1920   1.774   2.298   1.609  1.9444 -3.0566 -1.1911
  641SOL     OW 1921   2.931   2.505   1.061  0.6013 -0.0306 -0.6339
  641SOL    HW1 1922   2.856   2.559   1.018 -0.4770  0.9273 -1.2906
  641SOL    HW2 1923   3.000   2.485   0.989 -1.2088  3.0508  1.5191
  642SOL     OW 1924   0.768   0.009   1.501 -0.4372 -0.9216  0.0877
  642SOL    HW1 1925   0.789   0.107   1.536  0.7793  3.4401  1.4218
  642SOL    HW2 1926   0.677   3.074   1.534 -2.1994  1.6814 -0.3960
  643SOL     OW 1927   0.979   2.348   2.777 -0.0824  0.6384  0.4294
  643SOL    HW1 1928   1.029   2.421   2.730 -3.2961 -0.1223 -1.2126
  643SOL    HW2 1929   1.029   2.259   2.772 -0.3477  1.0540  1.2513
  644SOL     OW 1930   1.268   2.666   0.857  0.2783 -0.0257  0.1605
  644SOL    HW1 1931   1.345   2.644   0.796  2.6714 -1.1120 -0.3084
  644SOL    HW2 1932   1.176   2.636   0.818 -2.2285  0.8470  3.2118
  645SOL     OW 1933   1.435   1.241   1.906 -0.3947  0.3752 -0.1621
  645SOL    HW1 1934   1.454   1.206   1.812  0.9722  1.8679 -1.2647
  645SOL    HW2 1935   1.360   1.312   1.913  0.5806  1.1176  2.2157
  646SOL     OW 1936   0.045   0.855   0.248  0.3811  0.1520  0.7027
  646SOL    HW1 1937   0.094   0.767   0.240  0.0409  1.0350  0.5152
  646SOL    HW2 1938   3.050   0.837   0.274 -1.6028  0.5367 -1.8142
  647SOL     OW 1939   1.071   0.471   0.592  0.3940  0.5714 -0.2526
  647SOL    HW1 1940   1.137   0.397   0.590 -0.4046  0.0901  0.3217
  647SOL    HW2 1941   1.060   0.503   0.687  0.6757 -2.7286  2.3489
  648SOL     OW 1942   2.236   2.694   1.075  0.2736  0.2360 -0.2734
  648SOL    HW1 1943   2.187   2.635   1.142 -2.9054 -0.3773  0.2469
  648SOL    HW2 1944   2.327   2.730   1.113 -1.2419  1.7740 -0.3636
  649SOL     OW 1945   0.376   1.921   2.968  0.8232 -0.4833  0.5495
  649SOL    HW1 1946   0.324   1.985   2.903  0.3993 -0.0884 -1.7117
  649SOL    HW2 1947   0.373   1.970   3.060 -0.9670  1.1775  1.8917
  650SOL     OW 1948   2.278   1.911   1.857  0.2105 -0.2747  0.0621
  650SOL    HW1 1949   2.175   1.927   1.861 -2.0294 -0.3939  2.5924
  650SOL    HW2 1950   2.297   1.809   1.860 -1.2726 -1.4877 -0.5851
  651SOL     OW 1951   3.082   3.053   2.714  0.0025 -0.5250 -0.4756
  651SOL    HW1 1952   3.027   2.977   2.685  0.8987  1.4262  1.9263
  651SOL    HW2 1953   3.032   0.036   2.702  1.2050  1.7272  1.1490
  652SOL     OW 1954   2.633   1.738   0.449  0.1268  0.2749 -0.4320
  652SOL    HW1 1955   2.685   1.760   0.536 -1.6881 -1.0545  1.8941
  652SOL    HW2 1956   2.614   1.637   0.442  1.4692  1.3717 -1.9494
  653SOL     OW 1957   0.215   0.326   0.923  0.0574  0.2880  0.3899
  653SOL    HW1 1958   0.264   0.328   0.834 -1.1919 -0.4847  2.6230
  653SOL    HW2 1959   0.134   0.267   0.919  2.0582 -2.8247 -1.3144
  654SOL     OW 1960   1.052   3.033   0.258 -0.2848 -0.2419 -0.4649
  654SOL    HW1 1961   1.148   3.062   0.282 -2.0103  1.2335 -1.7858
  654SOL    HW2 1962   1.039   3.044   0.158  2.0152  0.6220 -0.1256
  655SOL     OW 1963   0.471   2.761   1.346  0.1372 -0.2121  0.4478
  655SOL    HW1 1964   0.467   2.811   1.436  1.4697 -0.4567  1.6718
  655SOL    HW2 1965   0.392   2.701   1.344  1.8851  2.3992 -0.6993
  656SOL     OW 1966   2.966   2.963   2.222 -0.2088 -0.2374 -0.1021
  656SOL    HW1 1967   3.024   2.993   2.302  0.4847  1.4843  0.9040
  656SOL    HW2 1968   2.949   3.046   2.170 -1.1079  1.7871  0.3281
  657SOL     OW 1969   1.660   0.637   2.376 -0.3360  0.1413 -0.1136
  657SOL    HW1 1970   1.635   0.726   2.333 -0.2830  3.0262 -0.4596
  657SOL    HW2 1971   1.763   0.626   2.373  1.0264 -1.1770 -0.5571
  658SOL     OW 1972   1.913   1.521   1.286 -0.5153  0.0047  0.4958
  658SOL    HW1 1973   1.955   1.433   1.316 -1.4259 -1.1882  0.5614
  658SOL    HW2 1974   1.895   1.582   1.370  1.7135 -0.3531 -0.1828
  659SOL     OW 1975   2.588   2.653   2.823  0.4416 -0.0758 -0.1206
  659SOL    HW1 1976   2.612   2.631   2.727  0.5256 -1.9810  1.8239
  659SOL    HW2 1977   2.645   2.589   2.876  3.2390 -1.2377 -1.1539
  660SOL     OW 1978   1.131   0.750   0.260 -0.2001 -0.1719  0.0404
  660SOL    HW1 1979   1.129   0.655   0.226  0.2590  0.1895  0.9915
  660SOL    HW2 1980   1.057   0.811   0.225  0.6578 -0.6319  1.2091
  661SOL     OW 1981   2.588   2.978   0.489  0.1658  0.1402 -0.2582
  661SOL    HW1 1982   2.667   2.937   0.543  3.1096 -0.9114 -0.0260
  661SOL    HW2 1983   2.624   3.007   0.399  2.6647  0.3045  1.5267
  662SOL     OW 1984   0.738   0.531   1.031 -0.9126  0.1509  0.1908
  662SOL    HW1 1985   0.673   0.506   1.101  0.5201  0.1651  1.4253
  662SOL    HW2 1986   0.704   0.509   0.934 -0.9241  0.7898 -3.2151
  663SOL     OW 1987   1.262   2.747   2.207 -0.6160  0.2656 -1.0071
  663SOL    HW1 1988   1.183   2.807   2.178 -0.9927  1.8786 -0.9446
  663SOL    HW2 1989   1.295   2.695   2.127  2.2031  1.7973 -1.2194
  664SOL     OW 1990   0.709   2.172   1.459 -0.4596  0.1413 -0.5618
  664SOL    HW1 1991   0.797   2.226   1.468  1.1665  2.2343 -1.5263
  664SOL    HW2 1992   0.728   2.088   1.403  0.3550 -2.1403  0.5820
  665SOL     OW 1993   1.061   2.085   1.769  0.2095  0.5717  0.5138
  665SOL    HW1 1994   0.969   2.055   1.748  0.8532 -0.1540  0.0619
  665SOL    HW2 1995   1.110   2.121   1.685  1.0283  0.3811 -0.4383
  666SOL     OW 1996   0.380   2.841   2.997 -0.6535  0.5715  0.0327
  666SOL    HW1 1997   0.420   2.898   2.920 -1.0620  1.1296 -1.5307
  666SOL    HW2 1998   0.385   2.743   2.984 -0.0480  1.8251  0.5279
  667SOL     OW 1999   1.492   1.701   1.229  0.4623 -0.0637  0.5186
  667SOL    HW1 2000   1.444   1.621   1.268  3.2913  5.4737  0.0593
  667SOL    HW2 2001   1.507   1.769   1.304  1.8507 -2.7881  1.7478
  668SOL     OW 2002   1.134   0.299   2.286 -0.3308  0.2610 -0.0115
  668SOL    HW1 2003   1.211   0.348   2.335  1.3419 -0.1262  0.0046
  668SOL    HW2 2004   1.138   0.199   2.306  2.5946 -1.9082 -0.5177
  669SOL     OW 2005   2.311   2.311   1.723 -0.0681 -0.0937  0.5898
  669SOL    HW1 2006   2.294   2.219   1.680  0.7531  3.3753 -0.6191
  669SOL    HW2 2007   2.404   2.316   1.761  0.1659  0.3993 -0.0750
  670SOL     OW 2008   2.030   1.941   3.083  0.0914  0.0488 -0.8780
  670SOL    HW1 2009   1.963   1.981   0.046  1.1899 -0.3644 -0.6645
  670SOL    HW2 2010   2.014   1.978   2.987 -1.5882  0.2063  0.7778
  671SOL     OW 2011   1.305   1.012   0.916 -0.0271 -0.0463 -0.1673
  671SOL    HW1 2012   1.343   0.914   0.916  0.5859 -0.2249  0.4036
  671SOL    HW2 2013   1.313   1.055   0.826 -1.1881 -2.0920  1.1537
  672SOL     OW 2014   2.605   1.067   2.398  0.5006 -0.1258 -0.0397
  672SOL    HW1 2015   2.532   1.000   2.376 -0.3958 -1.7735  0.8281
  672SOL    HW2 2016   2.695   1.038   2.356 -0.6627  0.0991  2.4766
  673SOL     OW 2017   2.913   1.621   2.112  0.7636 -0.0316  0.0031
  673SOL    HW1 2018   2.921   1.614   2.009 -0.2377  2.0980 -3.4108
  673SOL    HW2 2019   2.911   1.720   2.134  1.7911 -0.1419 -2.1689
  674SOL     OW 2020   1.087   2.462   2.343  0.0219  0.0894 -0.0216
  674SOL    HW1 2021   1.120   2.549   2.385 -0.3463 -0.0138 -0.2229
  674SOL    HW2 2022   1.008   2.425   2.394  1.4761 -0.4689  0.4644
  675SOL     OW 2023   0.983   1.244   1.652 -0.1553 -0.2198  0.1126
  675SOL    HW1 2024   1.026   1.196   1.575  1.9426  0.4736 -0.0684
  675SOL    HW2 2025   0.979   1.345   1.638 -0.1586 -0.1673  1.0082
  676SOL     OW 2026   2.398   0.589   0.827 -0.0555 -0.7507 -0.2045
  676SOL    HW1 2027   2.480   0.624   0.779 -2.0486 -1.1861 -0.0994
  676SOL    HW2 2028   2.417   0.508   0.876  2.2845 -0.1769 -1.8834
  677SOL     OW 2029   2.587   1.426   2.648 -0.6023 -0.0865  0.2127
  677SOL    HW1 2030   2.663   1.480   2.676 -2.1343 -1.1202  1.3030
  677SOL    HW2 2031   2.510   1.461   2.694  0.9041 -1.1748 -3.9732
  678SOL     OW 2032   0.100   3.023   1.163 -0.6094  0.1483  0.3447
  678SOL    HW1 2033   0.094   2.965   1.245  0.4863  1.2956 -5.7742
  678SOL    HW2 2034   0.196   3.057   1.151  3.3378 -2.5260 -1.4190
  679SOL     OW 2035   2.179   0.153   0.085  0.2259  0.1286  0.2979
  679SOL    HW1 2036   2.267   0.159   0.032  2.2392 -0.7649  1.1891
  679SOL    HW2 2037   2.198   0.095   0.170  2.2348 -1.9245  0.7423
  680SOL     OW 2038   0.068   2.512   2.124  0.0507  0.1009  0.0665
  680SOL    HW1 2039   0.133   2.498   2.044  0.2290  0.8192 -2.9159
  680SOL    HW2 2040   0.090   2.597   2.177 -3.4465  0.9743 -0.4673
  681SOL     OW 2041   2.182   1.785   1.453 -0.2025  0.1457  0.0428
  681SOL    HW1 2042   2.126   1.870   1.460  1.0425 -0.1652  2.0828
  681SOL    HW2 2043   2.155   1.738   1.368  1.2628  0.0044 -1.6755
  682SOL     OW 2044   0.007   2.243   2.263  0.1162  0.0236 -0.3057
  682SOL    HW1 2045   3.028   2.207   2.212  1.9046 -2.1658  1.4775
  682SOL    HW2 2046   0.028   2.341   2.241 -1.4580  1.3258  0.7309
  683SOL     OW 2047   0.005   2.189   1.329  0.4730  0.2522 -0.2805
  683SOL    HW1 2048   3.067   2.100   1.365 -2.1093 -0.0887 -0.9749
  683SOL    HW2 2049   3.042   2.266   1.354  0.2955 -1.5475 -0.0894
  684SOL     OW 2050   2.311   0.839   2.497 -0.0988 -0.3891  0.0215
  684SOL    HW1 2051   2.333   0.907   2.422  1.3874  0.3588  0.7598
  684SOL    HW2 2052   2.340   0.869   2.590 -1.4613  0.3860  1.2008
  685SOL     OW 2053   1.417   1.310   0.639 -0.3822  0.1009  0.6190
  685SOL    HW1 2054   1.389   1.211   0.648  1.3688 -2.4453 -1.1296
  685SOL    HW2 2055   1.519   1.315   0.647  0.9793 -0.4637  1.3782
  686SOL     OW 2056   0.308   3.048   0.484 -0.0541 -0.5172  0.4517
  686SOL    HW1 2057   0.394   3.095   0.444  1.0962  0.1278 -1.4785
  686SOL    HW2 2058   0.295   3.082   0.579 -0.0306 -0.8835  1.9405
  687SOL     OW 2059   1.485   1.190   2.484 -0.0033 -0.3363  0.2127
  687SOL    HW1 2060   1.579   1.217   2.455 -1.0853  0.5035  0.1878
  687SOL    HW2 2061   1.449   1.226   2.568 -1.6335 -3.2203 -3.2988
  688SOL     OW 2062   1.224   1.636   1.435 -0.2917 -0.0335  0.0791
  688SOL    HW1 2063   1.153   1.597   1.498 -0.8098 -0.8029  1.8256
  688SOL    HW2 2064   1.310   1.657   1.484  0.7589  1.6314 -1.2705
  689SOL     OW 2065   2.188   0.171   1.281 -0.2214  0.9254 -0.0073
  689SOL    HW1 2066   2.196   0.238   1.205 -1.0340  2.1001  1.6425
  689SOL    HW2 2067   2.222   0.078   1.251  1.1068 -2.1085 -1.0805
  690SOL     OW 2068   0.151   1.585   1.243  0.3071 -0.3599  0.0173
  690SOL    HW1 2069   0.141   1.575   1.139  1.6781 -1.1970 -2.1818
  690SOL    HW2 2070   0.151   1.490   1.282  0.6607  0.5199 -1.5167
  691SOL     OW 2071   0.477   2.364   1.077  0.1406 -0.6187  0.5729
  691SOL    HW1 2072   0.580   2.354   1.073 -0.6922  1.1340 -2.2090
  691SOL    HW2 2073   0.444   2.417   0.992 -2.2525  1.8350 -0.6069
  692SOL     OW 2074   2.160   0.437   1.968  0.1211  0.3497 -0.1756
  692SOL    HW1 2075   2.098   0.410   2.046  0.9479 -0.1472 -0.1197
  692SOL    HW2 2076   2.176   0.349   1.918 -0.6630  1.0407  2.1401
  693SOL     OW 2077   0.346   2.048   1.958 -0.1846  0.2988 -0.3495
  693SOL    HW1 2078   0.390   1.958   1.941  0.7355 -1.7144 -0.6093
  693SOL    HW2 2079   0.335   2.069   2.059  0.5486  4.0824  1.7388
  694SOL     OW 2080   1.566   0.943   1.492  0.1601 -0.2550  0.2609
  694SOL    HW1 2081   1.562   0.846   1.511 -0.5512  0.5613  0.0480
  694SOL    HW2 2082   1.520   0.965   1.403 -1.6547  1.5057  0.4486
  695SOL     OW 2083   0.747   1.116   0.705 -0.6551 -0.1494  0.0225
  695SOL    HW1 2084   0.770   1.207   0.744  0.5838  0.6259 -0.1607
  695SOL    HW2 2085   0.650   1.123   0.667 -3.6181  0.7945 -0.9808
  696SOL     OW 2086   1.103   3.018   0.709  0.0107  0.5666  0.0400
  696SOL    HW1 2087   1.149   2.965   0.634 -0.5637  2.0927 -2.3307
  696SOL    HW2 2088   1.166   3.093   0.730  1.8747 -0.2913  2.2908
  697SOL     OW 2089   1.398   0.300   1.662  0.4281  0.0309 -0.0174
  697SOL    HW1 2090   1.433   0.345   1.743  0.8628  0.9472 -0.9243
  697SOL    HW2 2091   1.352   0.212   1.685 -0.0373 -0.3586 -0.5989
  698SOL     OW 2092   1.902   1.117   2.189 -0.8187 -0.1160  0.0866
  698SOL    HW1 2093   1.977   1.177   2.162 -1.4356  2.3767  2.3944
  698SOL    HW2 2094   1.829   1.115   2.120  1.6003  1.3472  1.1405
  699SOL     OW 2095   2.344   0.395   1.616 -0.4235 -0.6569 -0.4293
  699SOL    HW1 2096   2.349   0.475   1.681  2.1594 -1.6054  0.7459
  699SOL    HW2 2097   2.436   0.363   1.590 -0.8343 -0.7179  0.5586
  700SOL     OW 2098   1.009   2.177   0.348  0.1319 -0.3600 -0.6836
  700SOL    HW1 2099   0.925   2.145   0.295  0.5894 -1.7353  2.0887
  700SOL    HW2 2100   1.012   2.120   0.432  0.5041 -1.9066  1.5858
  701SOL     OW 2101   2.131   2.987   2.645 -1.0109 -0.1083 -0.2172
  701SOL    HW1 2102   2.129   2.951   2.554 -0.5504  0.0567  1.7685
  701SOL    HW2 2103   2.048   2.942   2.694 -2.3441 -1.3950 -0.3174
  702SOL     OW 2104   1.055   0.056   1.099 -0.3285 -0.5028  0.0924
  702SOL    HW1 2105   1.058   3.066   1.055  1.4534 -1.4943  1.6240
  702SOL    HW2 2106   0.992   0.114   1.047  1.7456 -1.1385 -0.1282
  703SOL     OW 2107   2.424   3.083   2.367 -0.3773 -0.0084 -0.2197
  703SOL    HW1 2108   2.368   0.034   2.301  1.0995  0.5171 -0.5520
  703SOL    HW2 2109   2.451   2.995   2.336  1.9056  2.6771  2.8001
  704SOL     OW 2110   3.045   2.339   0.417 -0.0548 -0.1991  0.0206
  704SOL    HW1 2111   0.010   2.258   0.416  0.9010  0.9548 -1.8707
  704SOL    HW2 2112   3.027   2.376   0.320 -0.0619  0.1985 -2.3760
  705SOL     OW 2113   2.537   2.804   2.321 -0.5010  0.2459  0.2591
  705SOL    HW1 2114   2.454   2.817   2.259  0.2819 -1.5505  1.3119
  705SOL    HW2 2115   2.590   2.722   2.300 -1.7013 -1.1408  0.6806
  706SOL     OW 2116   2.269   3.002   1.203 -0.2324 -0.1176  0.1102
  706SOL    HW1 2117   2.261   3.028   1.106 -1.4056  1.0865  1.2342
  706SOL    HW2 2118   2.335   2.926   1.211 -1.4300 -1.3709  1.0177
  707SOL     OW 2119   0.777   2.962   2.481  0.1250 -0.3495  0.3202
  707SOL    HW1 2120   0.774   2.867   2.449 -1.3392  0.1073 -1.9714
  707SOL    HW2 2121   0.702   3.026   2.447 -0.9580  1.6105 -1.2667
  708SOL     OW 2122   2.905   2.199   1.684  0.1115 -0.1360  0.0711
  708SOL    HW1 2123   2.982   2.251   1.719 -0.6859 -0.5156 -0.2922
  708SOL    HW2 2124   2.933   2.125   1.622 -0.1901 -0.6261  2.0571
  709SOL     OW 2125   1.638   0.539   1.325 -0.0509  0.0996 -0.0928
  709SOL    HW1 2126   1.602   0.598   1.246 -1.0583  0.8250  0.0747
  709SOL    HW2 2127   1.733   0.500   1.304 -2.7155  1.6498  0.2648
  710SOL     OW 2128   0.761   0.126   2.771 -0.0125  0.5695 -0.3162
  710SOL    HW1 2129   0.842   0.073   2.753 -0.9566  0.7973  1.4489
  710SOL    HW2 2130   0.784   0.220   2.777  0.4540 -0.3577 -2.8153
  711SOL     OW 2131   0.790   2.078   2.523 -0.0914  0.0058  0.1942
  711SOL    HW1 2132   0.699   2.038   2.502 -0.5055 -1.4348  0.7436
  711SOL    HW2 2133   0.842   2.030   2.595 -2.0779 -0.1841 -0.8035
  712SOL     OW 2134   1.014   2.192   3.059 -0.4586  0.2893  0.4582
  712SOL    HW1 2135   0.912   2.213   3.056  1.0558  1.0984 -0.7158
  712SOL    HW2 2136   1.045   2.152   2.970  0.2552  0.8101 -1.7014
  713SOL     OW 2137   1.893   0.888   2.331 -0.5922 -0.2850  0.2224
  713SOL    HW1 2138   1.901   0.974   2.280  2.1584  0.5972  0.9651
  713SOL    HW2 2139   1.980   0.839   2.341 -1.0076  0.2717 -0.0397
  714SOL     OW 2140   1.233   1.667   1.800  0.5223 -0.4248 -0.0873
  714SOL    HW1 2141   1.267   1.725   1.874 -1.5895 -1.4808  0.4691
  714SOL    HW2 2142   1.159   1.714   1.746  0.3562  0.1964  1.1380
  715SOL     OW 2143   2.110   0.440   0.035  0.0364  0.1196  0.1652
  715SOL    HW1 2144   2.138   0.344   0.050 -1.6272  3.2940 -0.8912
  715SOL    HW2 2145   2.124   0.493   0.119 -1.7391 -2.5130  2.4659
  716SOL     OW 2146   2.878   2.355   1.290  0.3082 -0.1906 -0.0775
  716SOL    HW1 2147   2.793   2.297   1.289 -1.3539 -0.5922  0.1598
  716SOL    HW2 2148   2.896   2.403   1.202  0.8619 -2.3333 -0.0466
  717SOL     OW 2149   2.648   1.304   0.872  0.0586 -0.1192  0.4778
  717SOL    HW1 2150   2.596   1.214   0.883  0.1884 -2.8692  0.7204
  717SOL    HW2 2151   2.707   1.300   0.788  0.6200  2.6711  2.1408
  718SOL     OW 2152   1.423   1.685   1.610  0.1106 -0.5839 -0.3050
  718SOL    HW1 2153   1.513   1.640   1.621 -0.3286 -1.5423  0.2205
  718SOL    HW2 2154   1.361   1.653   1.682  3.2349  1.0961 -0.1169
  719SOL     OW 2155   2.671   0.564   0.041  0.1767  0.3747  0.2845
  719SOL    HW1 2156   2.665   0.613   3.052 -2.0987  0.0245 -0.8542
  719SOL    HW2 2157   2.765   0.522   0.057  0.1744 -2.3517 -0.7191
  720SOL     OW 2158   0.928   0.268   0.972 -0.3787 -0.5450 -0.1215
  720SOL    HW1 2159   0.947   0.366   0.988  0.2446 -2.2577 -2.9769
  720SOL    HW2 2160   0.908   0.257   0.875  1.1283  0.4388  0.3718
  721SOL     OW 2161   2.615   0.710   0.667  0.3466  0.1899  0.0249
  721SOL    HW1 2162   2.628   0.636   0.595  1.2189 -1.1969  1.4772
  721SOL    HW2 2163   2.701   0.759   0.698  1.7506 -0.7985  2.0520
  722SOL     OW 2164   0.496   2.755   2.583 -0.1538  0.0963 -0.2040
  722SOL    HW1 2165   0.589   2.791   2.554 -0.2112  2.0099 -2.4986
  722SOL    HW2 2166   0.440   2.731   2.501 -0.7592 -2.0105  1.0201
  723SOL     OW 2167   2.000   0.568   0.741 -0.2136 -0.0554  0.4282
  723SOL    HW1 2168   2.091   0.577   0.699 -2.2737  0.6058  1.3209
  723SOL    HW2 2169   2.017   0.541   0.837 -0.6803  1.1193  0.0925
  724SOL     OW 2170   1.015   1.721   2.297  0.2012  0.6423 -0.1317
  724SOL    HW1 2171   1.024   1.822   2.286 -0.6936  0.1686  2.1073
  724SOL    HW2 2172   0.996   1.670   2.214 -0.8028  1.5802  3.3584
  725SOL     OW 2173   1.410   2.843   1.356  0.3918  0.2261 -0.6199
  725SOL    HW1 2174   1.425   2.895   1.442  0.1560  0.4552 -0.1166
  725SOL    HW2 2175   1.319   2.868   1.315 -2.9206  2.6785  0.0873
  726SOL     OW 2176   2.308   2.639   0.008  0.6092  0.7244  0.2056
  726SOL    HW1 2177   2.380   2.688   3.062 -0.8046  2.9766 -0.4269
  726SOL    HW2 2178   2.330   2.610   0.107 -0.9353 -0.5619  0.9518
  727SOL     OW 2179   1.318   2.128   0.961 -0.1836 -0.1018  0.1889
  727SOL    HW1 2180   1.343   2.027   0.975  1.8264 -1.4680 -2.2585
  727SOL    HW2 2181   1.269   2.131   0.872 -0.2873 -0.8358  2.0577
  728SOL     OW 2182   2.248   2.587   2.275 -0.3035 -0.3258 -0.3550
  728SOL    HW1 2183   2.287   2.680   2.246 -0.3076  3.0264 -0.1045
  728SOL    HW2 2184   2.156   2.598   2.317 -1.3809 -0.9384 -1.8247
  729SOL     OW 2185   1.922   2.260   1.513  0.4454 -0.6450 -0.2215
  729SOL    HW1 2186   1.874   2.295   1.429 -3.0779  0.7028 -1.3961
  729SOL    HW2 2187   1.966   2.330   1.571  1.8751  0.9436  0.0491
  730SOL     OW 2188   1.570   0.743   2.798 -0.4205 -0.0749  0.0952
  730SOL    HW1 2189   1.520   0.825   2.769  2.5490 -0.9686 -0.1419
  730SOL    HW2 2190   1.525   0.661   2.763  0.7539 -1.3604  0.8097
  731SOL     OW 2191   0.770   0.358   1.400  0.4693  0.0460 -0.2567
  731SOL    HW1 2192   0.853   0.400   1.440 -0.5345 -0.3011 -0.9595
  731SOL    HW2 2193   0.800   0.273   1.352 -2.8132  1.5231  0.8279
  732SOL     OW 2194   1.302   0.098   0.745  0.2586 -0.2974  0.0213
  732SOL    HW1 2195   1.301   0.197   0.770 -1.2341  1.4251  1.3137
  732SOL    HW2 2196   1.340   0.077   0.654 -1.9909  1.6057  4.5315
  733SOL     OW 2197   1.160   1.376   0.709  0.2428 -0.5068 -0.2380
  733SOL    HW1 2198   1.256   1.348   0.714  1.0610  2.0930 -0.9945
  733SOL    HW2 2199   1.116   1.369   0.800 -0.6775 -0.8000  0.7683
  734SOL     OW 2200   2.729   2.590   2.615 -0.3643  0.4539 -0.6047
  734SOL    HW1 2201   2.764   2.503   2.652 -0.6840  1.5506  1.8561
  734SOL    HW2 2202   2.681   2.578   2.525 -3.3414 -0.3007 -1.0185
  735SOL     OW 2203   0.868   0.149   1.282 -0.4481  0.0685  0.2410
  735SOL    HW1 2204   0.826   0.070   1.330  0.3066 -0.2102 -0.1209
  735SOL    HW2 2205   0.943   0.111   1.225 -2.5849 -0.6611  2.2975
  736SOL     OW 2206   1.556   1.983   2.876  0.3310 -0.0905  0.1490
  736SOL    HW1 2207   1.500   2.022   2.800 -0.0502 -0.2570 -2.0138
  736SOL    HW2 2208   1.537   2.026   2.966  2.3583  1.1838 -0.6850
  737SOL     OW 2209   0.459   1.944   1.253  0.7171 -0.2543 -0.1839
  737SOL    HW1 2210   0.435   1.849   1.233 -1.9705  0.4498  0.9057
  737SOL    HW2 2211   0.383   2.005   1.282  0.9672  0.0308  0.1299
  738SOL     OW 2212   1.717   2.676   2.723  0.0666 -1.0651  0.0871
  738SOL    HW1 2213   1.644   2.689   2.792 -0.2829 -1.0051  1.6700
  738SOL    HW2 2214   1.762   2.587   2.738  0.0149  0.6599 -0.3323
  739SOL     OW 2215   0.959   2.227   2.186  0.4518  0.0561 -0.2385
  739SOL    HW1 2216   0.943   2.272   2.277  0.9452  0.8490  0.0140
  739SOL    HW2 2217   0.882   2.161   2.166  0.1161 -2.7781 -0.0711
  740SOL     OW 2218   1.164   2.839   1.175  0.5976 -0.3249 -0.5624
  740SOL    HW1 2219   1.161   2.738   1.160 -3.1656 -0.4970  1.0040
  740SOL    HW2 2220   1.121   2.854   1.265  1.6648 -0.8512  1.1837
  741SOL     OW 2221   2.714   1.291   0.233 -0.0416 -0.0998 -0.9223
  741SOL    HW1 2222   2.683   1.196   0.250 -0.1955 -0.3993 -1.4816
  741SOL    HW2 2223   2.671   1.331   0.154 -3.0375 -0.0036  1.7731
  742SOL     OW 2224   0.912   1.489   2.450 -0.3172  0.1094 -0.3673
  742SOL    HW1 2225   0.987   1.462   2.513 -3.5826 -0.5465  1.0980
  742SOL    HW2 2226   0.940   1.540   2.366  2.2267 -4.5593 -0.2159
  743SOL     OW 2227   0.815   1.000   2.282  0.1090 -0.3292  0.4267
  743SOL    HW1 2228   0.722   1.010   2.323 -2.9074  1.6656  0.5037
  743SOL    HW2 2229   0.874   0.939   2.336  0.3567 -1.2551 -0.1218
  744SOL     OW 2230   2.183   2.599   1.544 -0.0404 -0.2203 -0.3912
  744SOL    HW1 2231   2.118   2.536   1.586  1.6000  0.7713 -0.1016
  744SOL    HW2 2232   2.166   2.690   1.579 -1.3823 -2.6389 -3.1095
  745SOL     OW 2233   1.709   1.271   1.303  0.2175  0.3415  0.6321
  745SOL    HW1 2234   1.624   1.325   1.306  0.2127 -0.9865  0.9620
  745SOL    HW2 2235   1.760   1.281   1.391  0.0057 -1.2365  1.2951
  746SOL     OW 2236   2.042   0.976   0.933  0.0273  0.1401  0.3204
  746SOL    HW1 2237   1.991   1.058   0.902  1.5500 -1.6803 -1.5193
  746SOL    HW2 2238   2.011   0.947   1.026  1.6207 -0.5293  2.8324
  747SOL     OW 2239   1.971   1.762   0.746  0.1032 -0.7298 -0.7166
  747SOL    HW1 2240   2.048   1.820   0.780  1.0373 -0.6406 -0.6199
  747SOL    HW2 2241   1.887   1.819   0.727 -3.8577  1.6555 -0.7427
  748SOL     OW 2242   0.607   1.606   0.284  0.4096 -0.6294 -0.0579
  748SOL    HW1 2243   0.548   1.662   0.336  2.4476 -1.4790 -2.3004
  748SOL    HW2 2244   0.630   1.638   0.191  1.7527 -1.8585  0.6139
  749SOL     OW 2245   0.046   2.542   2.495 -0.4059  0.6999 -0.5010
  749SOL    HW1 2246   3.064   2.548   2.444  0.7565  1.2748  1.3643
  749SOL    HW2 2247   0.021   2.554   2.596 -4.2056 -1.0656  4.0238
  750SOL     OW 2248   1.963   0.849   1.177  0.3024  0.0125  0.1694
  750SOL    HW1 2249   1.994   0.759   1.214  0.5833 -0.7238  0.9349
  750SOL    HW2 2250   1.949   0.915   1.252  1.8568  0.1367  0.8616
  751SOL     OW 2251   2.267   0.016   0.329 -0.4897  0.1123 -0.3279
  751SOL    HW1 2252   2.337   3.091   0.260  0.0915  1.7874  0.4284
  751SOL    HW2 2253   2.305   0.066   0.410 -0.8310  0.8095  1.5647
  752SOL     OW 2254   2.239   2.276   0.320 -0.3275  0.3495  0.0073
  752SOL    HW1 2255   2.202   2.313   0.410 -2.5426 -1.1659 -0.5980
  752SOL    HW2 2256   2.285   2.184   0.327  0.4805 -0.1758 -2.3004
  753SOL     OW 2257   1.990   1.588   2.591 -0.3492 -0.3170 -0.2554
  753SOL    HW1 2258   2.070   1.554   2.545  1.5159  0.7176 -0.7758
  753SOL    HW2 2259   1.914   1.568   2.530 -3.4036 -1.0289  0.2201
  754SOL     OW 2260   2.388   2.331   1.386  0.3388  0.0074  0.5564
  754SOL    HW1 2261   2.410   2.280   1.466  0.7863 -1.0873 -2.3652
  754SOL    HW2 2262   2.309   2.278   1.343 -0.8441 -1.8880  0.2460
  755SOL     OW 2263   2.287   0.783   1.028  0.8533  0.0996  0.6476
  755SOL    HW1 2264   2.222   0.857   1.005 -0.1545 -0.1889 -0.1852
  755SOL    HW2 2265   2.309   0.733   0.943  1.2539  1.0633 -1.9566
  756SOL     OW 2266   1.049   1.535   2.751 -0.6892  0.3470  0.5867
  756SOL    HW1 2267   1.015   1.444   2.730  0.3786 -0.0934 -0.4282
  756SOL    HW2 2268   1.060   1.585   2.663  0.9067 -1.7925  0.7706
  757SOL     OW 2269   1.699   2.606   1.124  0.2599 -0.3181 -0.0320
  757SOL    HW1 2270   1.742   2.681   1.182  0.0841 -0.7199 -1.5291
  757SOL    HW2 2271   1.738   2.601   1.033 -0.9746  0.1905 -1.8711
  758SOL     OW 2272   0.944   2.300   1.481  0.3618  0.2646 -0.2100
  758SOL    HW1 2273   1.013   2.268   1.545 -0.5616  0.2391 -0.6644
  758SOL    HW2 2274   0.991   2.325   1.395  1.0409 -1.4671  2.2588
  759SOL     OW 2275   2.090   1.241   1.283 -0.2722  0.5578 -0.1304
  759SOL    HW1 2276   2.109   1.303   1.361  0.0260  0.2372 -0.8526
  759SOL    HW2 2277   2.088   1.287   1.192 -0.4168  1.7360 -3.8150
  760SOL     OW 2278   2.224   0.956   1.280 -0.3831 -0.1946 -0.1814
  760SOL    HW1 2279   2.247   0.994   1.186  1.7536  1.0616  2.3457
  760SOL    HW2 2280   2.130   0.960   1.306  0.6342 -1.2917  2.0496
  761SOL     OW 2281   2.066   2.801   0.073 -0.2927 -0.3090 -0.3332
  761SOL    HW1 2282   2.085   2.858   0.160  0.6371  1.3160  1.6028
  761SOL    HW2 2283   2.147   2.744   0.051 -1.6648 -1.2723  0.2152
  762SOL     OW 2284   2.097   1.612   2.975  0.2650  0.2291  0.4446
  762SOL    HW1 2285   2.067   1.693   2.917 -0.3866  2.1402 -1.3226
  762SOL    HW2 2286   2.185   1.627   3.023  0.9877 -2.8801 -1.0080
  763SOL     OW 2287   0.421   1.379   1.384 -0.1324  0.1607  0.3452
  763SOL    HW1 2288   0.330   1.337   1.359  0.6151  0.1334  1.1983
  763SOL    HW2 2289   0.409   1.478   1.394 -0.5384 -2.4852 -2.0236
  764SOL     OW 2290   3.025   2.475   2.994  0.6701 -0.4865 -0.3785
  764SOL    HW1 2291   3.002   2.388   3.043 -0.2548  0.8492  1.0441
  764SOL    HW2 2292   0.028   2.485   2.995  1.1928  0.0852  0.8707
  765SOL     OW 2293   0.693   3.081   1.931 -0.6522  0.3717  0.0634
  765SOL    HW1 2294   0.791   3.090   1.953  0.6005 -0.9208 -0.9918
  765SOL    HW2 2295   0.646   0.065   1.963  0.6223  1.5931 -5.2451
  766SOL     OW 2296   0.150   2.139   2.459  0.1341  0.5027  0.4806
  766SOL    HW1 2297   0.105   2.195   2.391 -1.3684 -3.6895  0.8481
  766SOL    HW2 2298   0.106   2.045   2.469 -0.5308 -2.8051  2.9013
  767SOL     OW 2299   0.096   1.495   1.804 -0.4134  0.2181  0.2155
  767SOL    HW1 2300   0.087   1.437   1.888  0.8924  1.7461  0.7618
  767SOL    HW2 2301   0.009   1.517   1.760 -0.2925  0.5729 -1.2802
  768SOL     OW 2302   1.016   0.651   2.870 -0.1484 -0.0138 -0.7267
  768SOL    HW1 2303   1.016   0.606   2.960 -1.4002  0.3471  0.9944
  768SOL    HW2 2304   1.111   0.689   2.854 -2.1668 -1.2553 -0.1300
  769SOL     OW 2305   1.984   2.221   0.675  0.4895 -0.3456 -0.3174
  769SOL    HW1 2306   2.070   2.266   0.658 -2.6703 -1.8572  0.0194
  769SOL    HW2 2307   1.911   2.293   0.672 -4.7124 -0.4197  0.2052
  770SOL     OW 2308   2.851   0.382   0.092  0.2447  0.0109  0.7458
  770SOL    HW1 2309   2.877   0.301   0.037  0.0946 -0.5830 -1.3975
  770SOL    HW2 2310   2.819   0.349   0.185 -2.3458 -1.6202  0.4640
  771SOL     OW 2311   1.599   2.221   1.896  0.2365 -0.2440  0.2932
  771SOL    HW1 2312   1.648   2.249   1.808  0.3887 -0.1143 -0.5146
  771SOL    HW2 2313   1.544   2.137   1.877 -1.5670 -2.4965  0.8143
  772SOL     OW 2314   0.782   0.391   2.855 -0.2021  0.3597 -0.2013
  772SOL    HW1 2315   0.738   0.456   2.923 -1.2711 -0.5401  1.7176
  772SOL    HW2 2316   0.751   0.408   2.763  1.1538 -0.9284  2.5406
  773SOL     OW 2317   2.916   0.944   1.742 -0.5808 -0.1375 -0.4701
  773SOL    HW1 2318   2.946   0.966   1.648 -1.2577 -0.2892 -1.0050
  773SOL    HW2 2319   2.988   0.977   1.812 -0.0005  4.5840  1.5209
  774SOL     OW 2320   1.402   0.937   0.359 -0.1958 -0.5689  0.2542
  774SOL    HW1 2321   1.327   0.992   0.319 -0.8564  0.2823  0.7460
  774SOL    HW2 2322   1.490   0.993   0.356  0.4331  1.1281  0.6143
  775SOL     OW 2323   2.453   3.003   0.093  0.3871 -0.5618 -0.8227
  775SOL    HW1 2324   2.548   3.019   0.118 -0.7981 -0.1206 -2.2033
  775SOL    HW2 2325   2.441   2.928   0.029  0.9952 -1.9798 -0.7409
  776SOL     OW 2326   2.379   0.961   2.238 -0.3333 -0.3035 -0.3861
  776SOL    HW1 2327   2.405   1.008   2.151 -1.7075  1.4086  1.1525
  776SOL    HW2 2328   2.387   0.857   2.230  0.0153 -2.6623 -2.2527
  777SOL     OW 2329   0.139   1.229   2.571  0.0939 -0.2947 -0.1091
  777SOL    HW1 2330   0.126   1.128   2.587 -1.1332 -0.3737  1.0581
  777SOL    HW2 2331   0.073   1.258   2.498 -1.0018 -0.1625 -0.7171
  778SOL     OW 2332   0.677   0.383   0.287  0.0934  0.2896  0.0301
  778SOL    HW1 2333   0.776   0.406   0.299 -0.0163  2.7615  1.9109
  778SOL    HW2 2334   0.638   0.315   0.352 -4.2118  3.9879  2.0610
  779SOL     OW 2335   0.694   0.421   2.610  0.2291  0.2473  0.0352
  779SOL    HW1 2336   0.714   0.519   2.629  0.0258  0.3404 -1.7309
  779SOL    HW2 2337   0.620   0.412   2.539  0.7515 -2.0486 -0.5014
  780SOL     OW 2338   1.749   0.939   2.546  0.0253  0.0096 -0.5024
  780SOL    HW1 2339   1.793   0.924   2.461  0.8527  0.5056  2.3740
  780SOL    HW2 2340   1.648   0.925   2.539 -2.0480 -0.8199 -0.7100
  781SOL     OW 2341   0.017   0.963   1.936  0.4033  0.2524  0.1633
  781SOL    HW1 2342   0.115   0.974   1.895  1.2116 -1.6105 -2.1422
  781SOL    HW2 2343   0.000   1.033   2.005  0.9733  3.2005 -2.1707
  782SOL     OW 2344   0.714   1.774   2.705 -0.4008  0.0686  0.0144
  782SOL    HW1 2345   0.724   1.675   2.678  0.7806  0.6380 -1.1744
  782SOL    HW2 2346   0.672   1.783   2.796 -0.8948 -0.4196 -2.0243
  783SOL     OW 2347   0.788   2.569   1.538 -0.5568 -0.1048 -0.1310
  783SOL    HW1 2348   0.843   2.492   1.502  1.0311 -0.2297  0.6310
  783SOL    HW2 2349   0.757   2.632   1.467  0.2891 -0.1868 -0.7829
  784SOL     OW 2350   1.378   0.367   2.978  0.4254  0.0855  0.1238
  784SOL    HW1 2351   1.466   0.406   2.946 -0.5110  0.0700 -0.5134
  784SOL    HW2 2352   1.381   0.327   3.072 -0.8482 -0.7853 -3.6619
  785SOL     OW 2353   1.027   0.537   2.498 -0.4851  0.3068 -0.5648
  785SOL    HW1 2354   1.124   0.526   2.471 -0.6081 -0.7229 -1.2027
  785SOL    HW2 2355   1.012   0.546   2.600 -2.3264  0.3949  0.0234
  786SOL     OW 2356   0.521   1.913   0.211  0.0737  0.2101 -0.1792
  786SOL    HW1 2357   0.597   1.898   0.143  1.1824 -0.6766 -0.6678
  786SOL    HW2 2358   0.558   1.912   0.304  0.7792  0.4001 -1.2528
  787SOL     OW 2359   1.639   1.172   0.551 -0.5383  0.5713  0.1792
  787SOL    HW1 2360   1.657   1.146   0.453  1.6900 -2.3428 -1.4700
  787SOL    HW2 2361   1.646   1.093   0.617  0.2518  4.5007 -0.4837
  788SOL     OW 2362   1.910   1.616   1.546  0.6367 -0.5841 -0.1285
  788SOL    HW1 2363   1.856   1.702   1.565 -0.4038  1.4545  1.2726
  788SOL    HW2 2364   2.004   1.624   1.590  0.8403  0.4813 -1.5801
  789SOL     OW 2365   0.144   1.730   1.961  1.0790 -0.4267  0.1710
  789SOL    HW1 2366   0.116   1.650   1.904 -1.6477  0.0810  1.5894
  789SOL    HW2 2367   0.152   1.711   2.059 -0.0972 -0.1981 -2.6426
  790SOL     OW 2368   0.635   2.751   0.273  0.1638 -0.0712 -0.1533
  790SOL    HW1 2369   0.583   2.807   0.205  0.5058  2.0164  0.5858
  790SOL    HW2 2370   0.580   2.715   0.352  0.4383 -0.0060 -1.5179
  791SOL     OW 2371   0.516   0.298   0.058  0.2848 -0.4632 -0.5515
  791SOL    HW1 2372   0.579   0.303   0.141  1.5470  2.7559  0.2533
  791SOL    HW2 2373   0.537   0.218   0.001 -1.3060  2.5296 -0.2188
  792SOL     OW 2374   1.623   0.502   2.147 -0.0846 -0.2989  0.6069
  792SOL    HW1 2375   1.645   0.542   2.235 -1.1764  0.0159 -0.1242
  792SOL    HW2 2376   1.616   0.397   2.156 -1.4758  1.2528  0.7866
  793SOL     OW 2377   0.163   0.609   0.736  0.1246  0.0738 -0.5659
  793SOL    HW1 2378   0.101   0.528   0.739 -1.3411 -1.8943  0.5400
  793SOL    HW2 2379   0.230   0.606   0.810 -1.5725 -0.3750 -1.1473
  794SOL     OW 2380   0.517   0.233   1.452  0.6993 -0.0408  0.3286
  794SOL    HW1 2381   0.608   0.279   1.433 -1.0387 -0.2348 -1.9816
  794SOL    HW2 2382   0.458   0.217   1.366 -1.7599  1.5075 -0.7214
  795SOL     OW 2383   0.037   1.215   0.136 -0.1206  0.3860 -0.3966
  795SOL    HW1 2384   0.134   1.206   0.166 -0.1699 -1.4405  2.2738
  795SOL    HW2 2385   0.029   1.216   0.035 -2.2226 -1.7611  2.8498
  796SOL     OW 2386   0.025   0.450   0.078 -0.4346  0.0687 -0.1003
  796SOL    HW1 2387   0.051   0.526   0.144  0.8751  3.7562  1.8782
  796SOL    HW2 2388   3.025   0.432   0.091  1.2027  0.2941 -1.4967
  797SOL     OW 2389   1.466   2.574   3.078  0.4120 -0.3858  0.3431
  797SOL    HW1 2390   1.412   2.628   0.049  0.6795  3.6686  3.3155
  797SOL    HW2 2391   1.400   2.524   3.014 -1.1198 -1.0144 -0.1702
  798SOL     OW 2392   2.960   0.549   0.812 -0.2196  0.2071  0.2526
  798SOL    HW1 2393   2.986   0.490   0.728 -0.4626 -0.1640 -0.9278
  798SOL    HW2 2394   2.917   0.633   0.780  1.0170  1.0501 -0.4748
  799SOL     OW 2395   2.708   0.757   2.236 -0.1858 -0.2222  0.5381
  799SOL    HW1 2396   2.606   0.735   2.249 -0.2112  0.0881 -0.0319
  799SOL    HW2 2397   2.759   0.676   2.203 -1.5176  2.3581  0.2552
  800SOL     OW 2398   0.177   2.150   0.374  0.0240 -0.0944  0.2457
  800SOL    HW1 2399   0.167   2.105   0.464  1.3337  1.9506  0.7215
  800SOL    HW2 2400   0.142   2.084   0.295  1.3091 -3.3702 -0.7778
  801SOL     OW 2401   1.431   1.996   0.666 -0.1066 -0.0158  0.4586
  801SOL    HW1 2402   1.494   2.058   0.613  1.0230 -0.6036  0.5518
  801SOL    HW2 2403   1.490   1.930   0.719 -3.3246  0.7770  1.8659
  802SOL     OW 2404   0.962   1.863   2.752  0.2555  0.7622 -0.3544
  802SOL    HW1 2405   0.868   1.828   2.731 -2.4235  2.5008 -1.0681
  802SOL    HW2 2406   1.029   1.820   2.686  0.7895  1.8778 -0.5915
  803SOL     OW 2407   3.002   1.992   1.509  0.4844 -0.1018 -0.2145
  803SOL    HW1 2408   2.926   1.926   1.520 -0.5736  2.3449 -0.6406
  803SOL    HW2 2409   3.090   1.957   1.543 -2.2625 -0.3404  3.1959
  804SOL     OW 2410   1.124   2.622   1.467 -0.3991 -0.5959  0.4595
  804SOL    HW1 2411   1.212   2.573   1.493  0.8816  0.9778  1.5096
  804SOL    HW2 2412   1.071   2.562   1.409  1.1651 -2.0220  0.5796
  805SOL     OW 2413   2.528   1.817   2.784 -0.1141 -0.0441  0.2764
  805SOL    HW1 2414   2.461   1.761   2.733 -2.0528  1.6049  0.7711
  805SOL    HW2 2415   2.580   1.771   2.857 -0.7007 -0.1466 -2.4466
  806SOL     OW 2416   2.005   2.879   0.598 -0.1090  0.6096 -0.5443
  806SOL    HW1 2417   2.052   2.837   0.679 -0.1846  1.4503  2.3272
  806SOL    HW2 2418   1.977   2.974   0.617 -2.4312 -0.6478 -1.7897
  807SOL     OW 2419   2.919   0.591   2.850  0.5546  0.2440  0.2209
  807SOL    HW1 2420   2.964   0.678   2.876  0.8464 -0.0695  0.3817
  807SOL    HW2 2421   2.820   0.589   2.888 -2.3952 -0.4160  1.6688
  808SOL     OW 2422   0.495   1.069   0.586 -0.3076  0.2714  0.1285
  808SOL    HW1 2423   0.516   1.112   0.496  1.2425 -0.4808  1.0804
  808SOL    HW2 2424   0.399   1.101   0.607  1.2361  0.8932 -0.0719
  809SOL     OW 2425   2.723   0.485   1.915 -0.1688  0.7127  0.3158
  809SOL    HW1 2426   2.729   0.580   1.879 -3.7142 -0.1457 -1.4860
  809SOL    HW2 2427   2.782   0.423   1.857 -2.6742  0.7733 -0.1182
  810SOL     OW 2428   1.243   0.553   1.091  0.3958 -0.0305 -0.4403
  810SOL    HW1 2429   1.142   0.537   1.078 -1.3932 -1.6210  0.7102
  810SOL    HW2 2430   1.292   0.466   1.116 -0.2540  0.4783 -1.3967
  811SOL     OW 2431   2.366   3.037   1.702  0.4819 -0.2678 -0.1409
  811SOL    HW1 2432   2.462   3.025   1.709 -0.6578 -0.6495  0.0715
  811SOL    HW2 2433   2.332   0.015   1.755 -2.7998  2.0689  0.0111
  812SOL     OW 2434   1.850   2.319   2.986  0.3761 -0.0333 -0.0607
  812SOL    HW1 2435   1.807   2.291   3.074  1.0095  0.1431  0.3738
  812SOL    HW2 2436   1.923   2.391   2.998  1.0962 -0.5524  1.7880
  813SOL     OW 2437   1.377   0.624   1.564  0.5564  0.8535 -0.3387
  813SOL    HW1 2438   1.329   0.641   1.475 -1.3690 -1.2201  1.3853
  813SOL    HW2 2439   1.479   0.618   1.559 -1.3213  0.2587  0.5316
  814SOL     OW 2440   0.561   0.459   1.227 -0.2026 -0.7889 -0.1848
  814SOL    HW1 2441   0.514   0.526   1.290  1.0638  2.4660 -0.6816
  814SOL    HW2 2442   0.647   0.422   1.265  0.1074  0.9322 -0.7469
  815SOL     OW 2443   0.570   0.631   0.362 -0.2932  0.2981  0.0378
  815SOL    HW1 2444   0.605   0.567   0.297  1.5239  0.8890  1.8423
  815SOL    HW2 2445   0.552   0.590   0.454 -0.7102 -1.8969  2.3732
  816SOL     OW 2446   2.199   1.440   2.473 -0.1264  0.3612  0.3630
  816SOL    HW1 2447   2.249   1.437   2.564 -2.2296  0.1973  2.5997
  816SOL    HW2 2448   2.248   1.485   2.392  0.0698 -1.2201 -1.1851
  817SOL     OW 2449   0.929   2.957   0.901  0.2261  0.2553  0.3355
  817SOL    HW1 2450   0.996   2.973   0.824  0.5555 -1.7381 -0.1542
  817SOL    HW2 2451   0.830   2.967   0.866 -2.2729 -3.0866 -0.5763
  818SOL     OW 2452   1.674   0.661   3.062  0.5754 -0.6881 -0.6326
  818SOL    HW1 2453   1.765   0.622   3.096  0.1594  0.3269 -0.0911
  818SOL    HW2 2454   1.678   0.715   2.977 -0.1655 -0.9448  0.9249
  819SOL     OW 2455   1.723   0.249   0.196  1.0395  0.1260  0.0933
  819SOL    HW1 2456   1.801   0.220   0.252 -2.4798  0.8481 -1.2783
  819SOL    HW2 2457   1.705   0.176   0.131 -5.3208  1.9853  0.6222
  820SOL     OW 2458   1.841   0.414   3.086  0.0252 -0.6253 -0.6369
  820SOL    HW1 2459   1.944   0.430   3.090  2.1890  1.9840 -2.7591
  820SOL    HW2 2460   1.803   0.374   0.072  0.2072  2.5843  0.1488
  821SOL     OW 2461   2.660   0.369   0.714 -0.3714  0.1733 -0.3925
  821SOL    HW1 2462   2.592   0.411   0.654  0.7013 -1.9632  1.0825
  821SOL    HW2 2463   2.734   0.322   0.660 -2.1914 -2.6930  0.4442
  822SOL     OW 2464   0.808   2.413   1.908  0.0878 -0.7043  0.5456
  822SOL    HW1 2465   0.739   2.475   1.860 -1.7163  0.9707  1.1669
  822SOL    HW2 2466   0.775   2.315   1.888  1.5777 -1.0880 -0.1165
  823SOL     OW 2467   0.362   1.519   1.673 -0.2700  0.4683  0.0633
  823SOL    HW1 2468   0.270   1.525   1.710  0.5032  1.8864  1.0856
  823SOL    HW2 2469   0.380   1.585   1.600  2.8834  1.4083  2.3260
  824SOL     OW 2470   1.447   2.817   2.650 -0.1430  0.4278  0.0316
  824SOL    HW1 2471   1.540   2.799   2.616 -2.8357 -2.1828  2.8075
  824SOL    HW2 2472   1.430   2.783   2.743 -1.2021  1.6959 -3.0990
  825SOL     OW 2473   1.953   0.856   0.522  0.6279  0.1964  0.8085
  825SOL    HW1 2474   1.905   0.836   0.607  1.8780 -0.2719 -2.4128
  825SOL    HW2 2475   1.901   0.926   0.465 -2.4233  0.2065  2.0111
  826SOL     OW 2476   2.009   0.886   0.190  0.0024 -0.3795 -0.3340
  826SOL    HW1 2477   2.097   0.922   0.235  1.5356 -0.3820  3.5094
  826SOL    HW2 2478   2.004   0.793   0.232  0.4330  0.9734 -1.0711
  827SOL     OW 2479   0.411   1.784   1.922 -0.4658  0.5875  0.2108
  827SOL    HW1 2480   0.456   1.695   1.940 -0.7307  0.7188 -1.4106
  827SOL    HW2 2481   0.314   1.767   1.958 -1.9326  1.3000  0.7555
  828SOL     OW 2482   2.353   1.223   1.606 -0.1987  0.0084 -0.2493
  828SOL    HW1 2483   2.410   1.277   1.674  1.4970  0.4607  2.1621
  828SOL    HW2 2484   2.346   1.130   1.633  1.0163  0.9254  1.2334
  829SOL     OW 2485   0.231   1.759   0.165  1.1916 -0.4511 -0.0373
  829SOL    HW1 2486   0.309   1.818   0.189 -0.7770 -2.7041 -0.2768
  829SOL    HW2 2487   0.265   1.681   0.109  0.5034  0.4821 -0.0972
  830SOL     OW 2488   1.582   0.879   0.632 -0.4672 -0.4492 -0.1985
  830SOL    HW1 2489   1.533   0.812   0.570  1.6956 -0.1148 -0.9375
  830SOL    HW2 2490   1.672   0.846   0.676  0.6925 -0.2913  1.5768
  831SOL     OW 2491   2.956   1.767   2.957  0.4891  0.1979 -0.2950
  831SOL    HW1 2492   3.026   1.788   2.887  2.7800  0.7337  0.7138
  831SOL    HW2 2493   3.009   1.720   3.031 -1.4885 -0.9918  2.3295
  832SOL     OW 2494   0.932   0.415   0.340 -0.5753  0.0803  0.1136
  832SOL    HW1 2495   0.983   0.450   0.419  1.4320  0.5831  0.3980
  832SOL    HW2 2496   0.995   0.375   0.267  0.5827 -2.9666 -0.2062
  833SOL     OW 2497   0.458   0.543   1.890  0.0782  0.1881 -0.2241
  833SOL    HW1 2498   0.427   0.642   1.882 -0.6965 -1.6224  0.5153
  833SOL    HW2 2499   0.564   0.542   1.896  2.1195  0.2935 -0.6540
  834SOL     OW 2500   0.339   0.330   0.687 -0.1705 -0.3685  0.3729
  834SOL    HW1 2501   0.420   0.275   0.710 -0.7924 -1.7183 -1.5427
  834SOL    HW2 2502   0.307   0.305   0.597 -0.7450  0.8247  2.5068
  835SOL     OW 2503   2.451   2.790   1.201  0.2282  0.5593  0.1004
  835SOL    HW1 2504   2.455   2.705   1.263 -1.9362 -2.6953  0.0186
  835SOL    HW2 2505   2.541   2.834   1.196  1.2131  1.2445 -1.3050
  836SOL     OW 2506   0.367   2.139   0.094  0.3073 -0.0437  0.3209
  836SOL    HW1 2507   0.381   2.209   0.163  0.8230  0.9770 -2.4790
  836SOL    HW2 2508   0.419   2.057   0.123  3.0580  1.3826 -1.9580
  837SOL     OW 2509   1.861   1.357   2.690 -0.2862 -0.5493 -0.2750
  837SOL    HW1 2510   1.784   1.358   2.759  0.1798 -1.7622  0.7765
  837SOL    HW2 2511   1.908   1.445   2.688 -0.3688 -0.6736  0.7172
  838SOL     OW 2512   0.482   1.187   1.983  0.3583 -0.2423  0.1170
  838SOL    HW1 2513   0.555   1.217   1.921  0.5965 -1.2858 -1.0233
  838SOL    HW2 2514   0.458   1.264   2.047  0.3551 -2.3131 -0.9539
  839SOL     OW 2515   0.337   1.371   0.920  0.4261  0.1861 -0.0275
  839SOL    HW1 2516   0.433   1.336   0.941 -1.2081 -1.2740  0.5360
  839SOL    HW2 2517   0.267   1.318   0.973  0.6070 -0.1965  2.5559
  840SOL     OW 2518   2.384   0.160   2.075  1.1154 -1.0739  0.0570
  840SOL    HW1 2519   2.311   0.153   2.146  2.0887  1.3974 -1.2390
  840SOL    HW2 2520   2.445   0.238   2.100  0.2874  0.2850  0.3838
  841SOL     OW 2521   0.884   2.407   0.424  0.4951  0.5727  0.6641
  841SOL    HW1 2522   0.953   2.476   0.455 -0.0522  1.5942 -2.5793
  841SOL    HW2 2523   0.926   2.320   0.384 -0.9487  1.4393 -0.5708
  842SOL     OW 2524   0.529   0.137   0.697 -0.8057 -0.0585  0.1324
  842SOL    HW1 2525   0.590   0.066   0.732 -0.9863  1.0558 -3.0746
  842SOL    HW2 2526   0.546   0.152   0.599  0.9403 -1.4202  1.7019
  843SOL     OW 2527   0.326   1.184   0.179 -0.0391 -0.4492 -0.1818
  843SOL    HW1 2528   0.321   1.125   0.259  0.1115  0.6449 -1.1199
  843SOL    HW2 2529   0.360   1.277   0.203 -1.6423  0.3918  0.5266
  844SOL     OW 2530   1.245   2.309   0.025 -0.0006 -0.2327 -0.2241
  844SOL    HW1 2531   1.154   2.262   0.015 -2.5500  0.6339 -1.3289
  844SOL    HW2 2532   1.262   2.362   3.042 -1.5019  0.9678  1.6146
  845SOL     OW 2533   2.328   2.842   2.166 -0.0461 -0.0971  0.3660
  845SOL    HW1 2534   2.302   2.815   2.073  1.0401  0.5582  0.1201
  845SOL    HW2 2535   2.263   2.914   2.196  3.0011  0.1955  0.5805
  846SOL     OW 2536   2.027   2.139   2.882  0.0369 -0.6882 -0.1972
  846SOL    HW1 2537   1.972   2.224   2.907 -0.7582 -0.8402 -0.6122
  846SOL    HW2 2538   2.017   2.111   2.784  0.8702  0.5226  0.9069
  847SOL     OW 2539   2.730   0.196   0.298 -0.3042 -0.1919  0.3366
  847SOL    HW1 2540   2.641   0.241   0.277 -1.4208  1.5875  2.5527
  847SOL    HW2 2541   2.738   0.199   0.400 -0.1453 -1.2947 -0.7762
  848SOL     OW 2542   0.461   0.555   0.632 -0.4183 -0.6662 -0.0348
  848SOL    HW1 2543   0.424   0.652   0.640 -0.6803  0.8270 -2.0570
  848SOL    HW2 2544   0.396   0.489   0.673 -0.1910  0.1188  1.9593
  849SOL     OW 2545   1.438   2.633   2.028  0.7108  0.2442  0.6438
  849SOL    HW1 2546   1.537   2.617   2.040 -0.6366 -1.5546 -1.7325
  849SOL    HW2 2547   1.405   2.563   1.966 -1.2366  2.7123 -0.2645
  850SOL     OW 2548   0.750   1.441   0.463  0.4650 -0.3171  0.5021
  850SOL    HW1 2549   0.683   1.359   0.455 -4.1809 -2.1381 -1.2837
  850SOL    HW2 2550   0.719   1.516   0.403 -2.5263 -0.3478 -0.2295
  851SOL     OW 2551   0.399   1.440   0.224  0.0935 -0.0562  0.0943
  851SOL    HW1 2552   0.487   1.493   0.234  0.8344  0.8838  0.4156
  851SOL    HW2 2553   0.353   1.416   0.313  1.0539 -1.0977 -0.9068
  852SOL     OW 2554   1.318   2.849   1.812  0.1982 -0.1364 -0.2855
  852SOL    HW1 2555   1.221   2.839   1.848 -0.0140 -0.6747  1.1437
  852SOL    HW2 2556   1.353   2.763   1.766  0.0767 -2.0579 -2.1028
  853SOL     OW 2557   2.591   1.646   0.115 -0.2034 -0.1047 -0.1462
  853SOL    HW1 2558   2.629   1.557   0.079 -0.9589  1.6717  1.9622
  853SOL    HW2 2559   2.658   1.673   0.193  2.6810 -1.2241  0.9792
  854SOL     OW 2560   1.687   1.128   2.022  0.4898  0.4969 -0.5045
  854SOL    HW1 2561   1.588   1.160   2.014 -4.0860  1.4729 -1.2731
  854SOL    HW2 2562   1.721   1.071   1.946  0.1466 -0.4439  1.0966
  855SOL     OW 2563   0.203   2.540   3.087 -0.5340  0.9066 -0.3454
  855SOL    HW1 2564   0.181   2.444   0.010 -2.0499  0.4744 -1.4025
  855SOL    HW2 2565   0.285   2.547   3.026  2.0311  0.5492  0.0730
  856SOL     OW 2566   0.431   0.795   1.848  0.0620 -0.0109 -0.2381
  856SOL    HW1 2567   0.531   0.805   1.844 -3.0343  2.2842  2.2591
  856SOL    HW2 2568   0.384   0.883   1.855 -0.1098  0.3435 -1.7826
  857SOL     OW 2569   1.251   0.820   2.180 -0.1852  0.5291  0.4866
  857SOL    HW1 2570   1.206   0.766   2.256 -2.1217 -0.8750 -3.1040
  857SOL    HW2 2571   1.309   0.760   2.120  0.8801  2.6223  0.3769
  858SOL     OW 2572   0.371   1.231   2.386 -0.0163  0.4864  0.4357
  858SOL    HW1 2573   0.293   1.162   2.373 -1.6470 -2.2071 -1.1550
  858SOL    HW2 2574   0.367   1.303   2.317 -3.6288  1.3653 -0.0013
  859SOL     OW 2575   2.518   0.127   1.070 -0.0828  0.2041  0.3003
  859SOL    HW1 2576   2.471   0.159   1.154 -2.1363  0.8516  0.7562
  859SOL    HW2 2577   2.621   0.137   1.077  2.0959  2.4162 -1.0913
  860SOL     OW 2578   1.924   2.962   3.028  0.0505 -0.7640 -0.0244
  860SOL    HW1 2579   1.990   2.906   3.080 -0.7042  2.1083 -0.8975
  860SOL    HW2 2580   1.885   2.910   2.947  1.3593 -0.1581 -0.6191
  861SOL     OW 2581   0.693   0.493   0.756 -0.0618 -0.8751  0.1539
  861SOL    HW1 2582   0.760   0.438   0.704  0.7225 -0.4725 -1.4074
  861SOL    HW2 2583   0.608   0.514   0.705 -0.2211 -1.2158  2.8766
  862SOL     OW 2584   1.205   0.337   2.687 -0.4858  0.0167 -0.0748
  862SOL    HW1 2585   1.230   0.388   2.768  0.2625  2.0149 -3.9476
  862SOL    HW2 2586   1.224   0.238   2.690 -0.0533  1.1550  0.2163
  863SOL     OW 2587   2.390   2.285   0.750  0.0656  0.4973 -0.0506
  863SOL    HW1 2588   2.450   2.320   0.828 -0.2779 -0.2593  2.7401
  863SOL    HW2 2589   2.381   2.180   0.754  0.6725 -1.5088  0.4381
  864SOL     OW 2590   2.670   0.078   1.943 -0.0643  0.5029  0.0217
  864SOL    HW1 2591   2.668   3.083   1.975 -1.1723 -1.7261  0.2652
  864SOL    HW2 2592   2.588   0.134   1.963  2.4000  1.0966 -2.4691
  865SOL     OW 2593   1.158   0.552   1.728 -0.6544  0.7025 -0.1777
  865SOL    HW1 2594   1.180   0.503   1.813  3.1577  0.6069 -1.3355
  865SOL    HW2 2595   1.241   0.562   1.675 -1.0945 -2.5834  3.0150
  866SOL     OW 2596   1.872   2.830   1.232  0.0913  0.2126 -0.3901
  866SOL    HW1 2597   1.938   2.872   1.294 -2.4222 -0.0479 -2.9217
  866SOL    HW2 2598   1.884   2.872   1.144 -0.8305 -2.6841  0.2696
  867SOL     OW 2599   2.792   2.412   0.552 -0.4883  0.3531  0.1681
  867SOL    HW1 2600   2.780   2.499   0.503 -0.6339  1.4732  0.8374
  867SOL    HW2 2601   2.890   2.383   0.555 -4.3028 -0.4002  1.3830
  868SOL     OW 2602   0.466   2.083   1.576 -0.5041 -0.1766 -0.6139
  868SOL    HW1 2603   0.414   2.099   1.491  0.5178  0.6840 -0.1298
  868SOL    HW2 2604   0.567   2.099   1.555  0.2443 -0.2694  0.1385
  869SOL     OW 2605   2.174   2.417   2.794 -0.0218  0.3394  0.1724
  869SOL    HW1 2606   2.107   2.401   2.715 -0.6970  1.7724  1.0310
  869SOL    HW2 2607   2.239   2.492   2.780 -1.4570 -0.7945 -0.6265
  870SOL     OW 2608   1.566   1.781   0.777 -0.7330  0.2901 -0.6427
  870SOL    HW1 2609   1.602   1.842   0.849 -0.5258 -1.6206  1.0568
  870SOL    HW2 2610   1.602   1.687   0.796 -1.8859  1.3097 -0.5195
  871SOL     OW 2611   0.139   1.862   1.615 -0.8360  0.3365  0.2534
  871SOL    HW1 2612   0.237   1.851   1.604 -2.7833 -0.9772  1.3162
  871SOL    HW2 2613   0.113   1.897   1.710 -0.3511 -0.5474  0.0413
  872SOL     OW 2614   0.465   1.349   2.633  0.1259 -0.2109 -0.3757
  872SOL    HW1 2615   0.421   1.299   2.558  0.1693  0.1175 -0.6932
  872SOL    HW2 2616   0.452   1.300   2.720  3.9010  2.1820 -3.5939
  873SOL     OW 2617   0.780   2.016   1.687 -0.3414  0.1775  0.2083
  873SOL    HW1 2618   0.739   2.049   1.778 -2.0803  1.6325  0.4019
  873SOL    HW2 2619   0.769   2.089   1.621 -1.2361 -1.2056 -0.9545
  874SOL     OW 2620   1.423   0.803   1.785 -0.4981  0.0425 -0.0291
  874SOL    HW1 2621   1.413   0.724   1.719  0.1502 -0.2016  3.0379
  874SOL    HW2 2622   1.363   0.880   1.762  1.2004  1.3542 -0.5275
  875SOL     OW 2623   2.829   2.610   0.803 -0.1766 -0.0735 -0.2913
  875SOL    HW1 2624   2.832   2.508   0.803  0.0827 -0.9946 -2.6376
  875SOL    HW2 2625   2.923   2.648   0.821  0.1376  2.1270 -0.8424
  876SOL     OW 2626   1.166   1.441   0.349 -0.1893  0.3411 -0.6175
  876SOL    HW1 2627   1.102   1.378   0.401 -1.4357 -0.5553 -1.5807
  876SOL    HW2 2628   1.142   1.535   0.371 -0.2976 -0.9923 -0.2531
  877SOL     OW 2629   2.844   2.998   0.908  0.1171 -0.2618 -0.0562
  877SOL    HW1 2630   2.785   2.953   0.840  0.5142  4.9152  1.5106
  877SOL    HW2 2631   2.944   2.988   0.890  1.5254  1.0327 -0.6389
  878SOL     OW 2632   1.980   1.513   0.391  0.1364 -0.1892  0.2091
  878SOL    HW1 2633   1.966   1.575   0.310  3.2482 -3.1567  1.4539
  878SOL    HW2 2634   1.909   1.535   0.458 -1.1242  1.1467 -0.8123
  879SOL     OW 2635   2.295   1.635   0.959 -0.0245 -0.2123 -0.0740
  879SOL    HW1 2636   2.384   1.664   1.005  0.2274 -1.3806 -3.1710
  879SOL    HW2 2637   2.300   1.541   0.919 -1.3694  2.4289 -0.2250
  880SOL     OW 2638   0.406   2.403   0.826  0.3768 -0.3865 -0.3947
  880SOL    HW1 2639   0.310   2.366   0.793 -3.9321 -1.7119  1.1328
  880SOL    HW2 2640   0.403   2.506   0.806  0.9993 -0.2614 -0.8187
  881SOL     OW 2641   1.021   1.097   0.845 -0.5442  0.0352  0.3845
  881SOL    HW1 2642   0.969   1.014   0.879 -0.5790  0.9829  1.2865
  881SOL    HW2 2643   1.120   1.076   0.832 -0.1144 -0.5176  0.2376
  882SOL     OW 2644   2.246   0.966   0.296  0.1230 -0.5106 -0.0686
  882SOL    HW1 2645   2.319   0.983   0.226 -0.7088  0.3157  0.5722
  882SOL    HW2 2646   2.239   1.050   0.363 -0.3110  2.2177  0.9587
  883SOL     OW 2647   1.431   3.018   1.568  0.1845  0.6676 -0.3462
  883SOL    HW1 2648   1.366   3.094   1.556 -1.9992 -1.1935 -0.2703
  883SOL    HW2 2649   1.398   2.957   1.638  1.2027  2.3992 -0.3389
  884SOL     OW 2650   2.973   0.097   1.224  0.4434 -0.1926  0.1149
  884SOL    HW1 2651   3.022   0.174   1.271 -0.1186 -0.3966  0.2341
  884SOL    HW2 2652   3.007   0.008   1.261 -1.2876  0.2175  0.1450
  885SOL     OW 2653   1.228   1.013   1.680 -0.3504 -0.2861  0.2276
  885SOL    HW1 2654   1.159   0.997   1.751  1.5797 -1.7447 -1.4895
  885SOL    HW2 2655   1.195   0.977   1.589 -0.3561  1.4286  0.8944
  886SOL     OW 2656   1.314   0.710   2.489  0.8329  0.3237 -0.2085
  886SOL    HW1 2657   1.390   0.767   2.449 -0.4637 -1.7289 -1.2860
  886SOL    HW2 2658   1.308   0.615   2.457  1.1151  0.8516  0.5050
  887SOL     OW 2659   1.602   0.662   1.063  0.5212 -0.3393 -0.1348
  887SOL    HW1 2660   1.513   0.696   1.020 -5.3960  1.5986  0.0575
  887SOL    HW2 2661   1.673   0.731   1.045  0.2767 -2.2741  1.0442
  888SOL     OW 2662   2.336   1.659   1.883 -0.4088  0.1017  0.0618
  888SOL    HW1 2663   2.304   1.585   1.944  1.0011  1.1839 -0.0080
  888SOL    HW2 2664   2.439   1.658   1.865 -1.9510 -0.6597  0.3552
  889SOL     OW 2665   1.652   2.158   0.613  0.0079  0.3685  0.8140
  889SOL    HW1 2666   1.713   2.242   0.622  3.1040 -0.5291  0.2795
  889SOL    HW2 2667   1.627   2.132   0.517 -0.1111  2.8000  0.6018
  890SOL     OW 2668   0.993   2.072   0.602 -0.6372  0.2316 -0.1514
  890SOL    HW1 2669   1.015   1.979   0.637  0.5845  2.5573 -1.0743
  890SOL    HW2 2670   0.899   2.095   0.633 -0.3091 -1.3845 -1.2639
  891SOL     OW 2671   2.651   0.689   2.918 -0.0863 -0.9485 -0.1048
  891SOL    HW1 2672   2.567   0.654   2.868  1.4061 -1.4688  0.6670
  891SOL    HW2 2673   2.683   0.778   2.881 -0.6870  0.7273 -2.1020
  892SOL     OW 2674   0.871   0.757   2.398  0.2418  0.0303 -0.5170
  892SOL    HW1 2675   0.771   0.738   2.423 -3.6249 -1.2124  0.0161
  892SOL    HW2 2676   0.933   0.683   2.433  2.8355  0.5773  0.0483
  893SOL     OW 2677   1.742   0.247   1.291 -0.0342  0.1439  0.2748
  893SOL    HW1 2678   1.819   0.186   1.324 -0.2108  1.8639 -0.7937
  893SOL    HW2 2679   1.664   0.187   1.281  0.6533  3.4972  2.0455
  894SOL     OW 2680   0.023   3.010   0.867 -0.2778 -0.3178 -0.2657
  894SOL    HW1 2681   0.064   3.018   0.961  0.4046 -0.1236 -1.3895
  894SOL    HW2 2682   0.082   2.959   0.802  0.9830 -0.1931 -1.7820
  895SOL     OW 2683   1.906   2.859   2.771 -0.0786 -0.0345 -0.3485
  895SOL    HW1 2684   1.828   2.793   2.751 -2.5069 -2.7297  0.4643
  895SOL    HW2 2685   1.983   2.802   2.814 -0.6208 -0.6920  1.3212
  896SOL     OW 2686   2.097   0.007   1.934  0.1232 -0.0067 -0.4991
  896SOL    HW1 2687   2.044   3.055   1.861  0.6655  0.0711 -1.1225
  896SOL    HW2 2688   2.168   0.064   1.889 -2.1772 -0.3683  0.4685
  897SOL     OW 2689   0.254   2.225   1.784  0.2499  0.2058  0.3845
  897SOL    HW1 2690   0.247   2.203   1.685  0.5443 -0.3978 -0.3216
  897SOL    HW2 2691   0.294   2.149   1.836 -1.1761  1.1041  0.2683
  898SOL     OW 2692   2.585   1.601   1.951 -0.0706 -0.5345  0.2248
  898SOL    HW1 2693   2.620   1.524   2.005  0.9410  0.8600 -1.6208
  898SOL    HW2 2694   2.610   1.580   1.855 -0.9676  1.6010  1.1086
  899SOL     OW 2695   1.504   2.270   0.844 -0.0181 -0.0426  0.1082
  899SOL    HW1 2696   1.422   2.235   0.894  1.0887 -2.7157 -1.5458
  899SOL    HW2 2697   1.530   2.207   0.763 -0.9333 -1.2071 -3.7252
  900SOL     OW 2698   0.847   2.999   3.023  0.4948  0.1278  0.3590
  900SOL    HW1 2699   0.808   2.930   2.960  0.7000 -2.5131  1.0714
  900SOL    HW2 2700   0.918   3.056   2.975  0.9540  2.2387 -2.3297
  901SOL     OW 2701   1.129   1.711   2.530 -0.2879 -0.3857  0.2671
  901SOL    HW1 2702   1.229   1.738   2.530  2.0468 -2.2807 -3.8526
  901SOL    HW2 2703   1.091   1.703   2.434  1.4356 -3.8459  0.2409
  902SOL     OW 2704   3.063   0.369   2.867  0.0992  0.3781 -0.2825
  902SOL    HW1 2705   3.011   0.454   2.882 -1.1223  1.7221 -3.0821
  902SOL    HW2 2706   3.033   0.291   2.927  0.2212  1.0958 -1.2581
  903SOL     OW 2707   1.930   0.553   2.330  0.4978 -0.2503  0.1379
  903SOL    HW1 2708   2.008   0.604   2.376 -2.1842  2.4161  0.4035
  903SOL    HW2 2709   1.968   0.479   2.266  1.3974 -0.5376 -0.9324
  904SOL     OW 2710   1.310   0.440   2.461  0.2262 -0.2822  0.0524
  904SOL    HW1 2711   1.406   0.458   2.492  1.4625 -0.1682  0.8489
  904SOL    HW2 2712   1.254   0.405   2.538 -0.9088  0.3180  0.4537
  905SOL     OW 2713   2.055   2.406   1.702 -0.5194 -0.1240 -0.0020
  905SOL    HW1 2714   1.999   2.396   1.785 -1.5238 -1.3587 -1.3175
  905SOL    HW2 2715   2.154   2.376   1.718 -0.2289 -2.3614  1.6092
  906SOL     OW 2716   1.873   2.048   0.182  0.3620  0.0603 -0.9220
  906SOL    HW1 2717   1.917   2.076   0.274  0.4990  2.6950  3.1257
  906SOL    HW2 2718   1.794   2.113   0.168 -0.4242 -1.5809  1.0430
  907SOL     OW 2719   1.404   0.057   0.996 -0.1124  0.5890 -0.0131
  907SOL    HW1 2720   1.378   0.085   0.902  1.3541  0.4617 -0.6091
  907SOL    HW2 2721   1.392   3.056   1.004 -0.9922 -1.6183  0.0845
  908SOL     OW 2722   1.507   2.428   2.260  0.3737  0.0049 -0.1760
  908SOL    HW1 2723   1.523   2.524   2.281 -0.3372 -0.1058  0.1132
  908SOL    HW2 2724   1.420   2.421   2.205  0.2295  0.8346 -0.1665
  909SOL     OW 2725   2.038   0.369   2.180 -0.0574  0.2827 -0.5874
  909SOL    HW1 2726   2.104   0.343   2.255  2.0900 -2.0916  1.0441
  909SOL    HW2 2727   2.002   0.287   2.129  0.9734  1.6015 -0.8698
  910SOL     OW 2728   1.006   0.873   0.005 -0.0130  0.8118 -0.1705
  910SOL    HW1 2729   0.966   0.782   0.026  0.3410  0.1898  0.5423
  910SOL    HW2 2730   1.066   0.874   3.024 -0.9298 -1.4090 -2.8476
  911SOL     OW 2731   2.967   1.178   0.341 -0.1102 -0.2712  0.1580
  911SOL    HW1 2732   3.043   1.173   0.278  1.8254 -0.7563  0.7306
  911SOL    HW2 2733   2.882   1.222   0.299 -4.0803  2.0426 -1.8072
  912SOL     OW 2734   0.312   2.385   0.474 -0.5230  0.1888 -0.0730
  912SOL    HW1 2735   0.267   2.295   0.470  0.8701  0.8473  3.2314
  912SOL    HW2 2736   0.354   2.390   0.566  0.4608 -0.3746 -1.0866
  913SOL     OW 2737   2.826   2.193   2.214  0.5093 -0.1275  0.5506
  913SOL    HW1 2738   2.863   2.174   2.307 -1.4177 -0.1140  2.0563
  913SOL    HW2 2739   2.883   2.166   2.132 -0.0813 -1.0520  1.1693
  914SOL     OW 2740   1.393   1.966   1.599  0.3344  0.0076 -0.1255
  914SOL    HW1 2741   1.335   1.989   1.521 -0.1215 -1.5477  0.0688
  914SOL    HW2 2742   1.436   1.878   1.577  2.3097 -0.2853 -1.5979
  915SOL     OW 2743   0.605   2.827   2.006 -0.0559 -0.7833  0.4397
  915SOL    HW1 2744   0.645   2.910   1.959 -1.2410 -0.4718  0.1961
  915SOL    HW2 2745   0.548   2.863   2.083 -0.8721  0.2017 -1.4233
  916SOL     OW 2746   0.882   0.763   1.463  0.2090  0.0195 -0.7966
  916SOL    HW1 2747   0.914   0.691   1.398  1.2831 -3.0949  0.8463
  916SOL    HW2 2748   0.828   0.726   1.547 -0.5593  1.7006 -2.9414
  917SOL     OW 2749   2.639   0.568   0.441 -0.3223  0.5652  0.4134
  917SOL    HW1 2750   2.559   0.510   0.455  1.4434  1.1898  0.5350
  917SOL    HW2 2751   2.625   0.644   0.374  1.3672 -0.3873 -0.7068
  918SOL     OW 2752   1.759   2.387   2.738  0.2576 -0.4442 -0.0767
  918SOL    HW1 2753   1.841   2.375   2.675 -1.0233  0.5552  2.3881
  918SOL    HW2 2754   1.790   2.362   2.833 -1.3528  1.2965  0.8619
  919SOL     OW 2755   1.573   2.495   1.469 -0.1982 -0.2502  0.4686
  919SOL    HW1 2756   1.539   2.501   1.372  0.1095 -0.3207  3.4773
  919SOL    HW2 2757   1.628   2.579   1.483 -0.6154  0.9055  1.3621
  920SOL     OW 2758   0.784   0.651   2.727  0.2564 -0.2496 -0.0755
  920SOL    HW1 2759   0.868   0.645   2.786  0.9709  1.0895  0.4216
  920SOL    HW2 2760   0.708   0.697   2.779 -0.5499 -0.6527  1.5641
  921SOL     OW 2761   2.987   0.820   3.013  0.2389  0.1795 -0.1082
  921SOL    HW1 2762   2.914   0.868   3.065 -0.4795 -3.0782 -0.8139
  921SOL    HW2 2763   3.077   0.861   3.033  1.6859  1.0527 -0.7698
  922SOL     OW 2764   0.226   2.014   1.016 -0.1207 -0.1914  0.0817
  922SOL    HW1 2765   0.275   1.969   1.092 -1.4617 -0.5424  0.4472
  922SOL    HW2 2766   0.296   2.048   0.950 -2.3152 -0.1346 -2.9136
  923SOL     OW 2767   0.696   1.257   1.826 -0.4230  1.1502  0.6626
  923SOL    HW1 2768   0.785   1.282   1.868  0.4868  0.8846 -0.2506
  923SOL    HW2 2769   0.656   1.340   1.780 -2.3985 -1.1619 -1.0349
  924SOL     OW 2770   1.509   2.766   2.905 -0.0816  0.1118  0.3018
  924SOL    HW1 2771   1.496   2.689   2.968  0.5514 -0.3358 -1.7653
  924SOL    HW2 2772   1.487   2.860   2.939  1.2526 -1.6835  3.6673
  925SOL     OW 2773   2.794   1.444   1.050  0.3304 -0.9032 -0.1587
  925SOL    HW1 2774   2.708   1.406   1.001 -0.7261 -0.6181  1.4910
  925SOL    HW2 2775   2.780   1.415   1.149 -1.2051 -0.6789  2.2218
  926SOL     OW 2776   2.111   0.505   1.490  0.6508  0.0833  0.2851
  926SOL    HW1 2777   2.178   0.428   1.513  1.5805 -2.9711  0.3916
  926SOL    HW2 2778   2.156   0.572   1.421 -1.2962  2.1509 -1.0500
  927SOL     OW 2779   1.939   0.096   1.357  0.0209  0.8463 -0.5989
  927SOL    HW1 2780   2.028   0.148   1.341  1.3380  0.8819 -0.0992
  927SOL    HW2 2781   1.959   3.095   1.363  2.0935 -2.7607 -1.2922
  928SOL     OW 2782   0.205   1.035   2.289 -0.2207  0.0197 -0.2566
  928SOL    HW1 2783   0.174   0.946   2.335 -0.1101 -1.0075  0.8154
  928SOL    HW2 2784   0.287   1.015   2.234  0.8987 -0.7288 -2.4557
  929SOL     OW 2785   2.408   0.834   1.448  0.3719 -0.3698 -0.4763
  929SOL    HW1 2786   2.355   0.896   1.386  0.2594 -1.0312  1.7740
  929SOL    HW2 2787   2.493   0.807   1.402  0.9769  3.3956 -1.1357
  930SOL     OW 2788   2.931   2.539   1.988 -0.0589 -0.6010 -0.0717
  930SOL    HW1 2789   2.907   2.639   1.993  0.1415  1.1788 -1.4317
  930SOL    HW2 2790   3.016   2.526   2.040  0.5695  0.2700  2.2757
  931SOL     OW 2791   1.744   0.894   1.010  0.3043  0.1366 -0.5077
  931SOL    HW1 2792   1.831   0.866   1.060  0.1744  0.0675 -1.5389
  931SOL    HW2 2793   1.707   0.981   1.052 -1.7194  1.5424 -1.5942
  932SOL     OW 2794   0.300   1.049   1.858 -0.3823  0.1420  0.5303
  932SOL    HW1 2795   0.375   1.087   1.913 -1.7466  2.0957  0.0335
  932SOL    HW2 2796   0.235   1.123   1.827  0.8255  1.8135 -2.8351
  933SOL     OW 2797   2.467   1.722   1.497 -0.8434 -0.8956  0.3570
  933SOL    HW1 2798   2.549   1.767   1.458 -1.2481  1.5525 -0.1848
  933SOL    HW2 2799   2.385   1.775   1.494  2.6628 -0.4768 -4.0246
  934SOL     OW 2800   0.423   1.848   1.660 -0.3992  0.2058  0.2977
  934SOL    HW1 2801   0.443   1.836   1.761  2.0376 -0.6902 -0.4116
  934SOL    HW2 2802   0.419   1.945   1.633 -2.2467  2.2143 -3.7385
  935SOL     OW 2803   2.725   1.226   1.312 -0.2110  0.4335 -0.3849
  935SOL    HW1 2804   2.626   1.229   1.303  0.2271 -0.1935 -0.3833
  935SOL    HW2 2805   2.761   1.298   1.376  3.1729  0.5670  1.7391
  936SOL     OW 2806   2.770   1.339   1.571  0.4139 -0.0928 -0.0336
  936SOL    HW1 2807   2.749   1.255   1.618 -0.3615  3.8254  0.4672
  936SOL    HW2 2808   2.715   1.413   1.618 -0.4021  0.5868 -1.5071
  937SOL     OW 2809   1.925   0.446   1.269  0.7896 -0.2347 -0.6135
  937SOL    HW1 2810   1.997   0.446   1.340 -1.3206 -2.3919 -1.2093
  937SOL    HW2 2811   1.859   0.365   1.281 -0.1614 -2.2334 -0.3420
  938SOL     OW 2812   0.483   2.928   0.132 -0.2070  0.7667 -0.6914
  938SOL    HW1 2813   0.387   2.934   0.168 -2.3035  0.6091 -2.8252
  938SOL    HW2 2814   0.496   2.925   0.030  0.9419 -0.1569 -0.8314
  939SOL     OW 2815   2.899   2.104   2.466 -0.4654  0.5293 -0.4133
  939SOL    HW1 2816   2.991   2.058   2.470 -0.8542 -2.4890 -2.3057
  939SOL    HW2 2817   2.830   2.032   2.500  2.0320 -0.2799  1.1945
  940SOL     OW 2818   1.566   2.088   0.362  0.3505 -0.3254  0.4734
  940SOL    HW1 2819   1.585   2.118   0.266 -1.6590  2.7919  0.7826
  940SOL    HW2 2820   1.470   2.052   0.367 -0.3315  0.8195 -0.7201
  941SOL     OW 2821   2.124   2.736   2.875 -0.6905  0.4612  0.4126
  941SOL    HW1 2822   2.082   2.662   2.935  1.6452 -0.3536  2.3689
  941SOL    HW2 2823   2.204   2.772   2.932  0.7644  3.1253  0.2370
  942SOL     OW 2824   1.855   2.398   1.274  0.1223 -0.8088 -0.0835
  942SOL    HW1 2825   1.788   2.452   1.218  0.2998  2.0934  0.6609
  942SOL    HW2 2826   1.939   2.451   1.282 -2.8491  0.1852 -1.3470
  943SOL     OW 2827   2.351   0.949   1.959 -0.3026  0.0619 -0.3146
  943SOL    HW1 2828   2.380   0.960   1.860 -0.4123  0.9128 -2.1636
  943SOL    HW2 2829   2.358   0.853   1.980 -0.0062  1.1098  0.5591
  944SOL     OW 2830   1.169   0.956   2.528 -0.2995  0.3294  0.1272
  944SOL    HW1 2831   1.222   0.874   2.507  0.8436  0.5718  2.0604
  944SOL    HW2 2832   1.080   0.930   2.572  3.4586  0.6277 -0.1293
  945SOL     OW 2833   2.586   2.283   1.203  0.2146  0.5555 -0.1831
  945SOL    HW1 2834   2.563   2.180   1.201 -2.5654  1.1606 -3.7786
  945SOL    HW2 2835   2.526   2.336   1.268  0.6658  1.6385  0.4053
  946SOL     OW 2836   0.511   0.900   0.311 -0.0432 -0.5622 -0.1990
  946SOL    HW1 2837   0.422   0.928   0.348  0.1164 -0.3209  2.7457
  946SOL    HW2 2838   0.530   0.804   0.330  2.9223 -0.7376  0.7076
  947SOL     OW 2839   2.175   2.863   1.629  0.3077 -0.2719  0.2516
  947SOL    HW1 2840   2.082   2.896   1.666 -2.0805 -0.0483  1.9466
  947SOL    HW2 2841   2.251   2.930   1.647 -1.5400 -0.3391 -1.3737
  948SOL     OW 2842   0.097   1.838   0.854  0.3884  0.1265  0.2534
  948SOL    HW1 2843   0.135   1.904   0.926  1.8555 -0.5093 -3.5244
  948SOL    HW2 2844   0.135   1.743   0.878  1.3823 -1.4616  2.1003
  949SOL     OW 2845   1.448   1.152   1.665  0.3713 -0.3443 -0.1514
  949SOL    HW1 2846   1.484   1.094   1.591  0.8341  0.3271 -0.5668
  949SOL    HW2 2847   1.352   1.130   1.684  1.5307  2.1072  0.7039
  950SOL     OW 2848   0.425   1.038   1.019  0.1834 -0.8015  0.6052
  950SOL    HW1 2849   0.473   0.948   1.013 -2.3746  0.0427 -1.0558
  950SOL    HW2 2850   0.359   1.037   1.095  2.6336 -0.1480  1.5600
  951SOL     OW 2851   0.477   2.235   2.322 -0.0010  0.1014 -0.4441
  951SOL    HW1 2852   0.416   2.159   2.294  1.0439  0.8208 -1.0958
  951SOL    HW2 2853   0.467   2.247   2.423  0.9485 -2.3060  2.0645
  952SOL     OW 2854   1.543   1.398   0.144 -0.1203 -0.3277  0.3103
  952SOL    HW1 2855   1.504   1.422   0.237  0.1852 -0.8126 -1.4356
  952SOL    HW2 2856   1.490   1.446   0.074 -1.2708  1.4644 -1.9174
  953SOL     OW 2857   1.147   0.187   2.956  0.2036  0.2082  0.0491
  953SOL    HW1 2858   1.060   0.245   2.970  1.5047 -0.8134  0.9471
  953SOL    HW2 2859   1.229   0.247   2.956  0.9146  1.2426  0.1937
  954SOL     OW 2860   2.255   1.225   0.412 -0.4836 -0.0214  0.4577
  954SOL    HW1 2861   2.169   1.237   0.463 -1.2305 -0.7812 -1.1189
  954SOL    HW2 2862   2.267   1.310   0.354  1.7448  0.2439 -2.6998
  955SOL     OW 2863   2.916   2.890   0.024  0.0348 -0.2994 -0.3070
  955SOL    HW1 2864   2.862   2.913   3.039 -1.7456 -0.7161 -0.4333
  955SOL    HW2 2865   2.992   2.829   0.007  4.5004 -0.4771 -0.6760
  956SOL     OW 2866   1.290   0.723   1.327  0.0729 -0.1401  0.2923
  956SOL    HW1 2867   1.342   0.791   1.271 -1.2987  1.6819 -0.6203
  956SOL    HW2 2868   1.243   0.660   1.262  0.3327  0.8739 -1.3037
  957SOL     OW 2869   1.130   1.382   1.182 -0.3284  0.2907 -0.1442
  957SOL    HW1 2870   1.079   1.334   1.259  1.9787  2.9229  0.0338
  957SOL    HW2 2871   1.083   1.374   1.093  2.0806  1.0300  1.2770
  958SOL     OW 2872   0.504   1.809   0.603 -0.3099 -1.3112 -0.4395
  958SOL    HW1 2873   0.461   1.816   0.697  0.4598  1.7078  0.2975
  958SOL    HW2 2874   0.443   1.771   0.532  1.9250  0.4355  1.1495
  959SOL     OW 2875   1.483   1.322   1.014 -0.1954  0.3130 -0.1545
  959SOL    HW1 2876   1.484   1.407   0.954  0.6783  3.2655  2.6724
  959SOL    HW2 2877   1.449   1.353   1.106 -1.3168  1.2268  0.0309
  960SOL     OW 2878   0.116   1.189   2.956  0.1366  0.1925  0.4549
  960SOL    HW1 2879   0.173   1.250   2.902 -0.8570 -1.9305  2.3845
  960SOL    HW2 2880   0.027   1.168   2.912  0.3548  1.2546  0.2302
  961SOL     OW 2881   0.762   1.373   0.814  0.0871 -0.2531 -0.3592
  961SOL    HW1 2882   0.699   1.322   0.875  1.7541  0.1809 -1.1737
  961SOL    HW2 2883   0.711   1.430   0.751  2.0215 -0.7161  1.0512
  962SOL     OW 2884   0.965   1.264   0.445  0.2089  0.3861 -0.6198
  962SOL    HW1 2885   0.884   1.321   0.476 -1.7443  0.9520  2.5671
  962SOL    HW2 2886   0.972   1.172   0.488 -1.6973 -0.1488 -0.2610
  963SOL     OW 2887   1.407   1.811   2.495  0.1858 -0.0821 -0.2035
  963SOL    HW1 2888   1.477   1.874   2.454 -1.1933  0.8949  1.0781
  963SOL    HW2 2889   1.457   1.732   2.539  2.0842 -1.3046 -0.7947
  964SOL     OW 2890   0.047   2.764   0.016 -0.4139 -0.4700 -0.3779
  964SOL    HW1 2891   0.107   2.683   3.100 -1.7454  0.3909 -1.5857
  964SOL    HW2 2892   0.057   2.833   3.042  2.2274 -0.2520  1.5845
  965SOL     OW 2893   0.669   2.474   0.246 -0.0564  0.4148 -0.4456
  965SOL    HW1 2894   0.684   2.574   0.259  1.9242  2.1412  3.1359
  965SOL    HW2 2895   0.743   2.430   0.298 -1.0147  2.8193 -2.1969
  966SOL     OW 2896   3.064   1.510   2.818  0.2550 -0.2900 -0.4943
  966SOL    HW1 2897   0.056   1.476   2.792  0.2974 -2.1818  0.9841
  966SOL    HW2 2898   3.072   1.552   2.911  0.2546  0.7618  0.0585
  967SOL     OW 2899   2.293   3.041   2.871  0.1514 -0.6749  0.6993
  967SOL    HW1 2900   2.243   3.015   2.781 -0.4189 -1.1958 -1.6134
  967SOL    HW2 2901   2.227   0.006   2.910 -2.0734 -0.2720 -1.1314
  968SOL     OW 2902   2.094   2.911   0.347 -0.1437  0.2858 -0.4737
  968SOL    HW1 2903   2.066   2.883   0.445  0.6529 -0.6978  0.7124
  968SOL    HW2 2904   2.153   2.995   0.345 -0.7242 -0.9640 -0.0451
  969SOL     OW 2905   0.655   1.501   2.257  0.6751 -0.2859 -0.1022
  969SOL    HW1 2906   0.648   1.538   2.346  0.8396 -0.8522 -0.3647
  969SOL    HW2 2907   0.709   1.415   2.257  0.4997  2.7205  0.9148
  970SOL     OW 2908   1.315   1.656   0.828  0.2805 -0.4171 -0.0366
  970SOL    HW1 2909   1.385   1.706   0.776  0.8254  3.1912 -1.9630
  970SOL    HW2 2910   1.301   1.566   0.786  0.2271  1.2824 -1.7330
  971SOL     OW 2911   2.434   0.186   1.421 -0.0651 -0.0159  0.3096
  971SOL    HW1 2912   2.485   0.096   1.424  0.1021 -1.1738 -0.3258
  971SOL    HW2 2913   2.335   0.181   1.409 -2.5544 -0.7963  1.3614
  972SOL     OW 2914   0.219   0.174   1.370 -0.3423 -0.0352 -0.1304
  972SOL    HW1 2915   0.213   0.167   1.468  1.4898  2.2711 -1.2255
  972SOL    HW2 2916   0.196   0.087   1.321  1.3702  0.1893  1.0143
  973SOL     OW 2917   0.377   0.271   2.817  0.3028  0.1492 -0.1954
  973SOL    HW1 2918   0.284   0.237   2.792 -0.5264 -0.1914  1.7154
  973SOL    HW2 2919   0.405   0.352   2.758 -0.2224  1.2553  2.0316
  974SOL     OW 2920   2.300   1.439   2.065 -0.4068  0.1565 -0.4396
  974SOL    HW1 2921   2.344   1.474   2.150  0.8467  0.0032 -1.2163
  974SOL    HW2 2922   2.245   1.353   2.088  2.8038 -1.8784  1.8777
  975SOL     OW 2923   0.362   0.023   1.130  0.2472  0.0716 -0.0492
  975SOL    HW1 2924   0.446   3.066   1.148  1.3638  1.9548  2.0438
  975SOL    HW2 2925   0.387   0.124   1.130  1.2019 -0.0224 -2.5167
  976SOL     OW 2926   0.853   2.343   2.440 -1.1282  0.2639  0.3438
  976SOL    HW1 2927   0.798   2.411   2.496 -1.4642  1.9479 -0.3009
  976SOL    HW2 2928   0.835   2.248   2.467 -0.2413  0.0136  1.2183
  977SOL     OW 2929   0.741   2.967   0.574 -0.4031 -0.2009 -0.1252
  977SOL    HW1 2930   0.813   3.034   0.544 -0.7733  2.2922 -0.4479
  977SOL    HW2 2931   0.719   2.981   0.670 -0.1478  1.5578  0.0615
  978SOL     OW 2932   0.067   1.383   2.073  0.6919 -0.1006 -0.0311
  978SOL    HW1 2933   0.042   1.283   2.074 -1.1796 -1.0615  0.5246
  978SOL    HW2 2934   0.021   1.437   2.151 -1.3781  2.8851  1.1477
  979SOL     OW 2935   1.610   2.721   1.700 -0.0909 -0.3920 -0.7897
  979SOL    HW1 2936   1.638   2.736   1.604 -0.3323 -0.7832 -0.3019
  979SOL    HW2 2937   1.677   2.661   1.750  1.5517 -0.3079 -1.5496
  980SOL     OW 2938   1.385   1.673   2.217 -0.1002  0.0717  0.2746
  980SOL    HW1 2939   1.336   1.581   2.223  3.0483  1.0683 -1.0684
  980SOL    HW2 2940   1.416   1.708   2.306  3.1853 -5.2343  0.1521
  981SOL     OW 2941   2.458   0.649   1.706 -0.9432  0.1907 -0.1474
  981SOL    HW1 2942   2.555   0.684   1.724  1.2857 -0.0293 -2.6549
  981SOL    HW2 2943   2.417   0.690   1.625 -1.0123 -0.7450 -0.2196
  982SOL     OW 2944   0.126   0.177   2.734  0.2365 -0.2013 -0.1353
  982SOL    HW1 2945   0.095   0.085   2.762 -0.0650 -1.1347 -2.6555
  982SOL    HW2 2946   0.066   0.258   2.768 -2.1131  1.3501 -1.7376
  983SOL     OW 2947   2.374   0.453   2.402 -0.3316  0.2151  0.3196
  983SOL    HW1 2948   2.314   0.500   2.474 -0.0901 -0.3899 -0.1010
  983SOL    HW2 2949   2.450   0.424   2.458 -2.2238 -1.2742 -1.1609
  984SOL     OW 2950   1.002   0.007   2.126  0.1569 -0.0003 -0.3513
  984SOL    HW1 2951   0.996   3.009   2.129 -3.5994  0.8749 -0.1095
  984SOL    HW2 2952   1.077   0.041   2.191  3.6633  2.9743  2.1532
  985SOL     OW 2953   1.924   1.591   1.923 -0.1434 -0.3931 -0.1754
  985SOL    HW1 2954   1.882   1.568   2.010  2.3160  2.2423 -0.8277
  985SOL    HW2 2955   1.931   1.511   1.864  0.7315  0.5332  2.0186
  986SOL     OW 2956   2.701   0.556   1.189 -0.0568  0.1567 -0.0560
  986SOL    HW1 2957   2.766   0.548   1.110 -0.0009 -2.3099 -4.3817
  986SOL    HW2 2958   2.630   0.632   1.174  1.0847  1.5479 -2.2474
  987SOL     OW 2959   2.831   0.980   1.274 -0.1101  0.1556 -0.1228
  987SOL    HW1 2960   2.797   1.070   1.308  0.5537  0.4147 -0.8960
  987SOL    HW2 2961   2.792   0.959   1.182  1.7841 -1.5272 -0.6161
  988SOL     OW 2962   3.087   1.128   2.145 -0.2961 -0.0313  0.2275
  988SOL    HW1 2963   3.002   1.104   2.193  0.9021  0.2369 -1.9069
  988SOL    HW2 2964   0.061   1.110   2.209  0.1010  0.4250  0.0382
  989SOL     OW 2965   1.708   1.823   0.158 -0.1823  0.0370  0.2427
  989SOL    HW1 2966   1.774   1.903   0.169  0.2413  0.8235 -0.0424
  989SOL    HW2 2967   1.628   1.847   0.100 -3.0130  0.3444  0.3983
  990SOL     OW 2968   0.997   0.433   2.093  0.0744 -0.0829  0.3250
  990SOL    HW1 2969   1.037   0.401   2.180 -1.3567  2.0655 -0.6270
  990SOL    HW2 2970   1.071   0.480   2.037 -0.4906  1.6391  1.5833
  991SOL     OW 2971   1.330   1.045   0.643 -0.2986 -0.1032 -0.1327
  991SOL    HW1 2972   1.248   1.028   0.588 -2.6899  1.3319  2.1426
  991SOL    HW2 2973   1.401   0.986   0.612 -1.0543  3.9746  0.6552
  992SOL     OW 2974   2.184   1.219   0.763  0.5378  0.5254  0.2470
  992SOL    HW1 2975   2.182   1.117   0.764  3.5134  3.1487 -2.1475
  992SOL    HW2 2976   2.138   1.258   0.680 -2.4428  0.8548 -0.2652
  993SOL     OW 2977   3.089   0.824   0.706  0.0924 -0.0965  0.0019
  993SOL    HW1 2978   0.041   0.888   0.764  0.3192 -0.5358 -1.3427
  993SOL    HW2 2979   0.025   0.731   0.718 -2.7157  1.7777  2.2720
  994SOL     OW 2980   0.366   2.094   2.637  0.4647 -0.7329 -0.1633
  994SOL    HW1 2981   0.291   2.113   2.570  0.1570  1.2806 -0.4122
  994SOL    HW2 2982   0.337   2.123   2.729  2.0703  0.6927  0.3147
  995SOL     OW 2983   1.955   1.131   2.601  0.2818  0.2948  0.2484
  995SOL    HW1 2984   1.876   1.068   2.588 -1.0518  2.9454 -0.5956
  995SOL    HW2 2985   1.918   1.223   2.630 -2.3211  0.8437  0.4390
  996SOL     OW 2986   2.750   1.255   0.590  0.2646 -0.3051  0.6436
  996SOL    HW1 2987   2.665   1.237   0.534 -0.9289 -0.2942 -1.6234
  996SOL    HW2 2988   2.804   1.166   0.578  1.5309 -0.7631  1.0307
  997SOL     OW 2989   1.917   1.089   1.825 -0.4951  0.1920  0.7555
  997SOL    HW1 2990   1.981   1.036   1.885 -0.5515  0.8288 -2.0991
  997SOL    HW2 2991   1.912   1.040   1.738  0.1658  1.1147  3.2228
  998SOL     OW 2992   2.597   1.922   0.252 -0.4837 -0.1911  0.0795
  998SOL    HW1 2993   2.532   1.882   0.181 -0.2463 -0.6741 -2.6104
  998SOL    HW2 2994   2.612   1.853   0.326  1.6005 -2.6660  2.2064
  999SOL     OW 2995   2.967   2.242   0.016 -0.1139  0.2616 -0.1600
  999SOL    HW1 2996   2.923   2.170   3.065 -0.3194  0.2217 -0.1944
  999SOL    HW2 2997   2.912   2.279   0.091 -1.3796  1.6545 -2.5670
 1000SOL     OW 2998   0.986   1.095   2.071  0.3934 -0.3006 -0.1285
 1000SOL    HW1 2999   0.929   1.051   2.137  1.8256 -0.0227 -0.5603
 1000SOL    HW2 3000   1.074   1.127   2.115 -3.4707 -1.2168 -1.8060
   3.10156   3.10156   3.10156
