1000 SPC/Fw water molecules t=  36.00000 step= 36000
 3000
    1SOL     OW    1   1.955   2.585   0.539 -0.3350 -0.0702  0.2640
    1SOL    HW1    2   2.029   2.615   0.473  1.2890  1.0214 -0.7052
    1SOL    HW2    3   1.911   2.498   0.511  0.8469  0.2454  0.4866
    2SOL     OW    4   1.174   0.565   2.169 -0.1616 -0.0932 -0.1368
    2SOL    HW1    5   1.132   0.494   2.230  1.3639  1.6948  0.8487
    2SOL    HW2    6   1.164   0.657   2.207  2.3616  0.7708 -0.8505
    3SOL     OW    7   0.953   2.905   2.687 -0.2703  0.1131  0.3489
    3SOL    HW1    8   0.942   2.804   2.704 -2.9880 -2.0707 -1.8662
    3SOL    HW2    9   0.902   2.956   2.762  1.2245  0.8002  0.2083
    4SOL     OW   10   1.087   1.403   3.094 -0.4103  0.2459  0.0823
    4SOL    HW1   11   1.076   1.386   2.991 -1.4441  0.4840 -1.2046
    4SOL    HW2   12   1.125   1.498   0.015 -0.8563  2.0238 -0.7360
    5SOL     OW   13   0.683   1.102   2.188 -0.4404 -0.0209  0.2291
    5SOL    HW1   14   0.736   1.059   2.115  0.1404  0.0308 -1.0265
    5SOL    HW2   15   0.693   1.204   2.181  1.5992  0.1933 -2.4526
    6SOL     OW   16   2.043   0.787   2.438  0.5623 -0.2892  0.0692
    6SOL    HW1   17   2.048   0.746   2.530 -0.2726 -2.2515  0.9009
    6SOL    HW2   18   2.134   0.797   2.391  1.4888  1.0196 -0.2589
    7SOL     OW   19   0.606   0.869   1.477  0.8182 -0.4294  0.0042
    7SOL    HW1   20   0.594   0.831   1.386 -0.9821  1.8203  1.4575
    7SOL    HW2   21   0.536   0.837   1.545 -2.2224 -0.8068  0.0163
    8SOL     OW   22   2.247   2.980   1.994 -0.0036 -0.7774 -0.0219
    8SOL    HW1   23   2.215   3.000   1.895 -0.8129 -0.5487 -4.1905
    8SOL    HW2   24   2.350   2.981   1.998  2.2784 -2.2307 -0.1733
    9SOL     OW   25   0.103   3.021   0.672  0.9274  0.6138 -0.0145
    9SOL    HW1   26   0.068   0.021   0.677  1.9199  0.8973  2.5454
    9SOL    HW2   27   0.088   2.978   0.580 -0.5281  2.3746  3.1147
   10SOL     OW   28   0.155   2.200   2.404  0.6764 -0.1932  0.0423
   10SOL    HW1   29   0.219   2.247   2.469  2.3969 -0.4221 -2.0231
   10SOL    HW2   30   0.133   2.107   2.440  0.7089  0.7500 -0.4990
   11SOL     OW   31   0.740   1.590   2.958 -0.2489 -0.2951 -0.2846
   11SOL    HW1   32   0.709   1.541   3.044 -0.5259 -1.3231  0.1737
   11SOL    HW2   33   0.821   1.656   2.976 -0.8327  2.4638 -0.1671
   12SOL     OW   34   2.174   2.613   1.170 -0.2630 -0.1280  0.3027
   12SOL    HW1   35   2.245   2.680   1.141  0.3412 -1.0224  0.5895
   12SOL    HW2   36   2.101   2.615   1.102  0.4643 -1.3360  0.6038
   13SOL     OW   37   0.291   2.924   2.980  0.2817 -0.1940 -0.7367
   13SOL    HW1   38   0.216   2.977   3.024 -0.7105 -1.8997 -0.9564
   13SOL    HW2   39   0.372   2.978   2.982  1.4240 -3.3095  1.2718
   14SOL     OW   40   1.354   1.143   1.576  0.4123  0.1197  0.9239
   14SOL    HW1   41   1.376   1.200   1.657  1.7688 -0.7136 -1.0043
   14SOL    HW2   42   1.369   1.196   1.488  1.7598  0.5217  0.2601
   15SOL     OW   43   0.298   1.215   2.322  0.4457 -0.5423 -0.2332
   15SOL    HW1   44   0.276   1.164   2.234 -0.0832 -1.1552 -1.4791
   15SOL    HW2   45   0.398   1.203   2.326 -1.2023 -0.7457 -3.1428
   16SOL     OW   46   1.670   0.619   2.670 -0.1251 -0.2382 -0.4149
   16SOL    HW1   47   1.576   0.591   2.678  1.7027  1.2074 -2.1603
   16SOL    HW2   48   1.676   0.720   2.664  0.1892  1.9645  0.9391
   17SOL     OW   49   0.015   2.707   2.318 -0.1287 -0.2090  0.0487
   17SOL    HW1   50   0.073   2.645   2.374 -1.1598  2.5363 -1.0260
   17SOL    HW2   51   3.062   2.652   2.249 -2.4717  0.5459  0.9354
   18SOL     OW   52   1.339   1.104   0.495 -0.1936 -0.2567 -0.3127
   18SOL    HW1   53   1.432   1.063   0.493 -1.6409 -1.4309  0.9080
   18SOL    HW2   54   1.297   1.109   0.592 -0.7972  1.2880  3.2035
   19SOL     OW   55   0.035   1.513   2.093 -0.9880  0.4538  0.0113
   19SOL    HW1   56   0.069   1.422   2.047  2.8472 -2.0616 -3.3577
   19SOL    HW2   57   3.090   1.565   2.019  1.8958  1.4487  0.6620
   20SOL     OW   58   2.123   2.294   2.641 -0.0945 -0.0819 -0.3653
   20SOL    HW1   59   2.199   2.241   2.685 -0.5951 -1.7617  0.1526
   20SOL    HW2   60   2.062   2.235   2.582  1.1200 -1.6194 -2.0379
   21SOL     OW   61   1.630   1.983   0.745 -0.0999  0.0149  0.3332
   21SOL    HW1   62   1.655   2.059   0.683  0.6532 -0.3041 -1.6893
   21SOL    HW2   63   1.609   2.012   0.838 -1.7688 -0.1245 -3.0682
   22SOL     OW   64   2.427   1.910   1.252 -0.3727  0.2236  0.4610
   22SOL    HW1   65   2.399   2.000   1.282 -0.8280 -0.9745 -0.3383
   22SOL    HW2   66   2.371   1.837   1.297  1.5437  3.1119 -1.4414
   23SOL     OW   67   3.092   1.449   1.346 -0.0305  0.0632 -0.1565
   23SOL    HW1   68   0.011   1.528   1.285  1.8301 -0.4111 -0.7063
   23SOL    HW2   69   2.991   1.437   1.369 -1.2472  2.1284 -0.1223
   24SOL     OW   70   1.647   1.239   1.997  0.2155 -0.0638  0.8780
   24SOL    HW1   71   1.687   1.153   1.959 -4.6850  1.8545 -2.8666
   24SOL    HW2   72   1.718   1.316   1.989 -0.6555  2.6255  0.7208
   25SOL     OW   73   1.843   0.076   2.207 -0.2652  0.1770  0.3159
   25SOL    HW1   74   1.809   0.114   2.298 -2.0483 -0.9632 -2.5590
   25SOL    HW2   75   1.929   0.024   2.215 -0.1133  0.3869  0.9805
   26SOL     OW   76   0.823   0.277   0.524 -0.4396  0.5434  0.3239
   26SOL    HW1   77   0.784   0.276   0.433 -0.0114 -0.3922 -1.7099
   26SOL    HW2   78   0.895   0.350   0.522  0.5814  2.2001  1.3032
   27SOL     OW   79   1.030   1.378   0.813  0.2988  0.5904  0.3269
   27SOL    HW1   80   1.052   1.462   0.757 -2.8589 -1.1294  0.7833
   27SOL    HW2   81   1.048   1.389   0.914 -0.7455  0.3256 -0.8336
   28SOL     OW   82   2.416   2.186   1.237 -0.3114 -0.1012  0.2147
   28SOL    HW1   83   2.345   2.238   1.288 -0.0376 -1.3836 -0.8283
   28SOL    HW2   84   2.381   2.183   1.140 -2.7807  1.0829  3.3874
   29SOL     OW   85   2.141   2.976   2.378  0.3852 -0.1629 -0.4888
   29SOL    HW1   86   2.095   2.925   2.451 -0.1258 -0.5918  0.8269
   29SOL    HW2   87   2.170   2.914   2.302 -2.1073  0.7605 -0.4964
   30SOL     OW   88   0.110   3.004   1.807  0.4799  0.5979  0.1584
   30SOL    HW1   89   0.035   2.940   1.792  0.8164 -1.6224 -1.0538
   30SOL    HW2   90   0.185   2.992   1.737 -1.1299  2.6342  0.0987
   31SOL     OW   91   0.020   1.820   2.097  0.0156  0.1122 -0.2362
   31SOL    HW1   92   0.004   1.918   2.085 -0.7698 -2.5849  0.7293
   31SOL    HW2   93   0.003   1.770   2.010 -1.5266  1.0012 -0.4832
   32SOL     OW   94   1.565   2.351   2.176 -0.0839  0.1116 -0.0739
   32SOL    HW1   95   1.576   2.380   2.076 -0.2527  1.7276 -1.7330
   32SOL    HW2   96   1.540   2.423   2.241 -1.0234 -1.7912  0.2745
   33SOL     OW   97   0.281   0.213   2.909  0.0379 -0.3942  0.0861
   33SOL    HW1   98   0.198   0.177   2.954  0.3947 -0.9945  1.1060
   33SOL    HW2   99   0.255   0.278   2.829  1.4246  0.4908 -0.4877
   34SOL     OW  100   2.525   0.086   0.361 -0.0914  0.2238 -0.3940
   34SOL    HW1  101   2.563   0.097   0.457  0.6348 -0.5437 -0.9654
   34SOL    HW2  102   2.589   0.144   0.306  1.4501 -0.3167  0.6749
   35SOL     OW  103   2.824   2.533   1.632 -0.2609 -0.3154  0.2776
   35SOL    HW1  104   2.786   2.443   1.630  1.5965  1.7222 -1.4523
   35SOL    HW2  105   2.749   2.603   1.624  2.6526 -1.2061 -0.4463
   36SOL     OW  106   2.461   3.076   2.240  0.1119 -0.2271  0.3491
   36SOL    HW1  107   2.404   0.036   2.300  1.2457  1.8166  0.0092
   36SOL    HW2  108   2.533   0.042   2.199  2.0266 -2.1363  1.3539
   37SOL     OW  109   1.552   0.039   0.058  0.2043  0.2634  0.0505
   37SOL    HW1  110   1.536   0.068   0.157  1.2005 -1.9151  3.5131
   37SOL    HW2  111   1.489   3.059   0.031  1.8883  0.2207  0.5127
   38SOL     OW  112   0.321   0.422   0.117 -0.1757 -0.4924 -0.0820
   38SOL    HW1  113   0.385   0.493   0.147  0.7525 -2.0248 -2.1922
   38SOL    HW2  114   0.368   0.340   0.077 -0.3273 -2.8741  0.6033
   39SOL     OW  115   1.209   1.890   2.130  0.1342  0.4025  0.0904
   39SOL    HW1  116   1.210   1.913   2.226 -0.6454 -1.9825 -1.9181
   39SOL    HW2  117   1.300   1.855   2.099  0.9318 -1.8039 -1.2514
   40SOL     OW  118   3.076   0.448   2.461  0.3654  0.1907  0.4471
   40SOL    HW1  119   0.010   0.545   2.461  1.3688 -1.8323  0.5962
   40SOL    HW2  120   0.057   0.383   2.432 -1.8026 -1.7590 -1.3265
   41SOL     OW  121   1.353   0.919   2.022 -0.5742 -0.4043 -0.2923
   41SOL    HW1  122   1.350   0.908   1.920  0.6914 -2.0810 -0.0140
   41SOL    HW2  123   1.375   0.823   2.064  0.8263 -0.2988  1.4979
   42SOL     OW  124   2.784   0.013   1.392  0.2740  0.1190 -0.7352
   42SOL    HW1  125   2.715   0.043   1.459 -2.0520 -1.4162  0.9384
   42SOL    HW2  126   2.745   3.045   1.320 -2.7889 -0.0736 -3.5299
   43SOL     OW  127   1.373   0.885   1.739  0.0573  0.2054 -0.7676
   43SOL    HW1  128   1.350   0.986   1.721 -2.0025  4.5803 -0.7307
   43SOL    HW2  129   1.456   0.851   1.694  0.5191  1.6065 -0.3270
   44SOL     OW  130   0.055   0.205   3.084  0.1101  0.0843 -0.6507
   44SOL    HW1  131   0.089   0.250   0.080 -0.7045  1.2356  3.6015
   44SOL    HW2  132   0.040   0.104   0.007 -1.9708 -2.7536  1.8848
   45SOL     OW  133   0.479   1.922   1.747  0.4745  0.3076  0.7548
   45SOL    HW1  134   0.498   1.824   1.767  1.9417 -0.3455  0.8903
   45SOL    HW2  135   0.567   1.973   1.724  1.7131  1.9834  0.7135
   46SOL     OW  136   2.462   2.913   1.799 -0.2018  0.5305 -0.4434
   46SOL    HW1  137   2.541   2.968   1.840  0.4815  0.6480  3.2031
   46SOL    HW2  138   2.475   2.814   1.815  0.8826 -0.0274  1.2436
   47SOL     OW  139   0.399   1.933   1.269  0.4381 -0.5374  0.0780
   47SOL    HW1  140   0.455   1.857   1.299 -0.6519 -0.2225  0.5597
   47SOL    HW2  141   0.308   1.898   1.245 -1.9113  1.4219 -0.3336
   48SOL     OW  142   0.594   2.764   2.839 -0.1283 -0.1967 -0.1370
   48SOL    HW1  143   0.607   2.741   2.746  0.6305  0.2340  1.9877
   48SOL    HW2  144   0.658   2.714   2.902  0.2684 -0.4520  0.2451
   49SOL     OW  145   3.043   1.387   1.704  0.2231  0.1313  0.0432
   49SOL    HW1  146   0.046   1.405   1.720 -2.5216  1.8610  0.5602
   49SOL    HW2  147   3.002   1.460   1.648  0.9245  0.3151 -0.2086
   50SOL     OW  148   1.344   2.774   0.612  0.1954  0.0950 -0.1012
   50SOL    HW1  149   1.357   2.718   0.691 -0.4656  0.4564 -1.7159
   50SOL    HW2  150   1.272   2.841   0.632  1.0228  0.1237  0.2492
   51SOL     OW  151   0.967   0.274   0.937 -0.4281  0.6847  0.8762
   51SOL    HW1  152   0.888   0.247   0.872  1.3687 -0.9875  0.4362
   51SOL    HW2  153   1.051   0.307   0.885  1.9210 -0.3040 -0.9446
   52SOL     OW  154   0.616   1.289   0.289  0.1403  0.4865 -0.1131
   52SOL    HW1  155   0.565   1.205   0.251 -0.8556 -0.0649 -0.2397
   52SOL    HW2  156   0.559   1.325   0.367  0.2221 -1.8297  2.0892
   53SOL     OW  157   1.335   2.698   2.671  0.1394  0.3658 -0.2095
   53SOL    HW1  158   1.384   2.767   2.723 -1.6259 -1.0816 -1.5444
   53SOL    HW2  159   1.311   2.730   2.580  0.2625 -3.2300 -0.6932
   54SOL     OW  160   2.180   0.263   1.798  0.8287 -0.1986  0.2043
   54SOL    HW1  161   2.114   0.294   1.723 -0.6249  1.3733  2.4112
   54SOL    HW2  162   2.210   0.345   1.847 -0.2101 -3.6195 -2.1865
   55SOL     OW  163   2.838   2.607   0.346  0.2011  0.0278 -0.2423
   55SOL    HW1  164   2.843   2.508   0.353 -1.7040  1.7813  0.7141
   55SOL    HW2  165   2.928   2.648   0.353 -2.4433 -0.0923  1.2891
   56SOL     OW  166   1.004   2.960   1.644  0.4509 -0.3720  0.9010
   56SOL    HW1  167   0.952   3.027   1.587 -2.1417 -0.4224  0.5207
   56SOL    HW2  168   0.944   2.880   1.667  1.7598 -0.4339 -0.7066
   57SOL     OW  169   1.899   0.990   2.511  0.1357 -0.2586  0.1136
   57SOL    HW1  170   1.969   0.923   2.472 -0.7206 -1.1007 -0.9251
   57SOL    HW2  171   1.848   1.033   2.433  0.2858 -0.5181  0.2770
   58SOL     OW  172   0.008   0.777   2.149  0.0763  0.2709 -0.8245
   58SOL    HW1  173   3.065   0.677   2.151 -3.7307 -2.2247  1.2184
   58SOL    HW2  174   0.077   0.794   2.078 -0.8940  0.9576  0.5204
   59SOL     OW  175   0.911   2.682   1.702  0.3192  0.3002  0.4036
   59SOL    HW1  176   0.820   2.638   1.673 -1.1181  0.0573 -0.3855
   59SOL    HW2  177   0.988   2.636   1.656  1.1763  1.4626 -1.4920
   60SOL     OW  178   2.212   2.601   0.323 -0.2432 -0.4656 -0.6311
   60SOL    HW1  179   2.234   2.505   0.311 -0.3977  4.9253  1.4469
   60SOL    HW2  180   2.126   2.628   0.281 -0.4498  3.3234 -0.7782
   61SOL     OW  181   1.583   2.546   0.681 -0.5042 -0.5093 -0.1167
   61SOL    HW1  182   1.594   2.455   0.726 -0.6982 -1.1715  1.6905
   61SOL    HW2  183   1.518   2.603   0.733  0.1702 -1.6525 -0.5923
   62SOL     OW  184   1.804   0.103   0.011 -0.3685 -0.2874  0.1644
   62SOL    HW1  185   1.713   0.073   0.041  0.8622  2.4083 -0.0840
   62SOL    HW2  186   1.801   0.203   0.005 -0.1662 -1.0765  0.1598
   63SOL     OW  187   2.370   0.539   0.233  0.5626 -0.1961 -0.2626
   63SOL    HW1  188   2.310   0.620   0.226  2.3194 -2.8799  2.2513
   63SOL    HW2  189   2.419   0.522   0.145  2.6416 -2.0134 -0.5348
   64SOL     OW  190   1.292   1.029   3.019 -0.0740  0.5753 -0.3138
   64SOL    HW1  191   1.276   0.930   3.009  1.0126  1.1159  0.1578
   64SOL    HW2  192   1.256   1.079   2.935 -1.9787 -2.3548 -5.1277
   65SOL     OW  193   0.690   2.587   1.364  0.5544 -0.2053  0.1125
   65SOL    HW1  194   0.740   2.504   1.329  1.3078  2.8332  0.1333
   65SOL    HW2  195   0.736   2.671   1.328  0.9036 -3.1133  0.0030
   66SOL     OW  196   0.983   1.402   1.503  0.1482 -0.3663 -0.2031
   66SOL    HW1  197   0.990   1.302   1.510 -0.1669 -0.9667  0.5426
   66SOL    HW2  198   1.068   1.461   1.522  1.1051  1.1380  0.1106
   67SOL     OW  199   2.332   2.136   1.897  0.4415  0.1619  0.0335
   67SOL    HW1  200   2.343   2.218   1.841  1.4835 -2.5583  1.2498
   67SOL    HW2  201   2.299   2.061   1.838  0.5522  3.8334 -0.0314
   68SOL     OW  202   0.705   1.379   2.171 -0.1323  0.1277  0.0290
   68SOL    HW1  203   0.621   1.434   2.190 -0.9534 -0.4443  1.4776
   68SOL    HW2  204   0.722   1.376   2.069 -0.4022  1.2567 -0.0932
   69SOL     OW  205   3.085   2.648   0.046 -0.7290 -0.2896 -0.0733
   69SOL    HW1  206   0.050   2.725   0.007 -1.7422  0.1660 -1.0431
   69SOL    HW2  207   3.095   2.649   0.147 -1.5062  3.8093  2.0416
   70SOL     OW  208   2.291   0.781   2.326  0.2615 -0.3715 -0.2058
   70SOL    HW1  209   2.302   0.723   2.240  0.8069 -1.6374 -1.6801
   70SOL    HW2  210   2.302   0.881   2.307  2.7637 -0.7935  0.3353
   71SOL     OW  211   0.504   2.019   0.777  0.3290  0.1619  0.2732
   71SOL    HW1  212   0.584   1.966   0.810  0.9349  1.4694 -1.3350
   71SOL    HW2  213   0.449   2.051   0.856 -0.6808 -1.9639  1.5338
   72SOL     OW  214   2.650   2.065   0.531  0.2972 -0.1233 -0.3012
   72SOL    HW1  215   2.637   2.157   0.496  1.7513 -2.6129 -1.4799
   72SOL    HW2  216   2.641   2.054   0.630 -2.0779  1.6149  1.8677
   73SOL     OW  217   1.097   0.583   0.728 -0.4658  0.1810 -0.1162
   73SOL    HW1  218   1.057   0.541   0.648  1.5030  1.4521  1.1028
   73SOL    HW2  219   1.167   0.653   0.701  0.0543 -0.7811  1.1984
   74SOL     OW  220   2.629   2.100   1.888  0.0704 -0.1041 -0.2246
   74SOL    HW1  221   2.629   2.000   1.879 -1.1861  1.3868  1.2074
   74SOL    HW2  222   2.537   2.132   1.918  0.2335 -1.0139  1.4442
   75SOL     OW  223   1.617   1.608   1.822 -0.2250 -0.4500 -0.0391
   75SOL    HW1  224   1.523   1.581   1.849 -0.3821 -0.3304 -0.2817
   75SOL    HW2  225   1.685   1.551   1.875  0.0312 -0.5494  0.5561
   76SOL     OW  226   1.188   1.684   0.983  0.0852  0.1852  0.2589
   76SOL    HW1  227   1.290   1.666   0.987 -1.9533 -1.3641  0.4513
   76SOL    HW2  228   1.140   1.594   1.010 -0.8085 -0.6900  1.0130
   77SOL     OW  229   2.904   1.254   1.895  0.1309  0.4934  0.0926
   77SOL    HW1  230   2.849   1.323   1.948  1.8722  3.1513  0.7913
   77SOL    HW2  231   2.963   1.306   1.829  0.2911  0.2887 -0.1563
   78SOL     OW  232   1.638   0.772   0.327 -0.4429 -0.7278 -0.5704
   78SOL    HW1  233   1.631   0.732   0.235  0.5068  1.5352  0.0404
   78SOL    HW2  234   1.703   0.724   0.384  0.7521  0.1772 -2.4487
   79SOL     OW  235   1.313   1.446   2.137 -0.0492  0.1782 -0.2898
   79SOL    HW1  236   1.313   1.348   2.115  1.9576  3.2984  1.9384
   79SOL    HW2  237   1.219   1.492   2.136 -4.2823  2.9264 -0.1347
   80SOL     OW  238   1.100   0.395   1.626 -0.6800  0.0247 -0.1630
   80SOL    HW1  239   1.132   0.414   1.535 -0.4953  0.4505  3.1040
   80SOL    HW2  240   1.176   0.389   1.691 -1.6683 -2.0831  0.9647
   81SOL     OW  241   0.690   2.469   0.336  0.1408 -0.0479 -0.0167
   81SOL    HW1  242   0.651   2.401   0.269  1.1412 -2.0636 -0.2484
   81SOL    HW2  243   0.726   2.429   0.423  0.3333 -2.4749  0.7522
   82SOL     OW  244   1.336   0.374   1.783  1.2007 -1.0260  0.0982
   82SOL    HW1  245   1.390   0.319   1.722 -2.4929 -1.6183  0.9661
   82SOL    HW2  246   1.320   0.336   1.877  0.8924  2.8137  3.5185
   83SOL     OW  247   0.369   2.394   0.991  0.0045 -0.6651  0.0234
   83SOL    HW1  248   0.458   2.447   1.000  2.7439 -0.0467 -0.2358
   83SOL    HW2  249   0.394   2.296   1.010  2.0235 -0.6213  2.0233
   84SOL     OW  250   2.853   1.725   0.462 -0.2200  0.2391 -0.0847
   84SOL    HW1  251   2.919   1.667   0.414 -1.8546  0.1691  0.2774
   84SOL    HW2  252   2.806   1.791   0.399 -0.3770  1.0483 -2.5150
   85SOL     OW  253   2.604   1.893   1.478  0.0579  0.3699  0.2021
   85SOL    HW1  254   2.573   1.885   1.382 -0.3742  1.2914 -0.2880
   85SOL    HW2  255   2.704   1.908   1.487  2.3497  0.5656  0.5270
   86SOL     OW  256   1.543   2.273   1.273  0.1065 -0.5013 -0.5621
   86SOL    HW1  257   1.553   2.248   1.173  1.5915 -1.1131 -3.0139
   86SOL    HW2  258   1.618   2.240   1.331 -0.3605  1.1196  2.2888
   87SOL     OW  259   2.172   1.499   0.470 -0.4942 -0.1493 -0.0053
   87SOL    HW1  260   2.099   1.563   0.489  1.2088 -0.4146  1.0378
   87SOL    HW2  261   2.206   1.512   0.374 -0.7357 -0.5357  0.4944
   88SOL     OW  262   0.519   0.099   0.716  0.2467  0.6721 -0.0073
   88SOL    HW1  263   0.525   0.040   0.633 -0.2549  1.4340  2.4800
   88SOL    HW2  264   0.599   0.164   0.714 -1.5356 -0.0892  0.2143
   89SOL     OW  265   0.890   0.294   1.767 -0.2361 -0.2541  0.4871
   89SOL    HW1  266   0.969   0.322   1.704  2.9542  0.7706 -1.0727
   89SOL    HW2  267   0.906   0.197   1.797  0.1602  1.9705  0.2016
   90SOL     OW  268   0.050   1.950   0.293 -0.0339 -0.0198 -0.1906
   90SOL    HW1  269   0.043   1.982   0.195  0.5593  1.5608 -2.2778
   90SOL    HW2  270   3.093   2.009   0.355  0.6271 -1.0947 -0.0931
   91SOL     OW  271   1.103   1.626   0.721  0.1226 -0.0976  0.4067
   91SOL    HW1  272   1.056   1.692   0.655 -1.8074 -0.4718 -0.7741
   91SOL    HW2  273   1.137   1.677   0.799 -0.4098 -3.9927 -1.5604
   92SOL     OW  274   2.407   0.089   1.422  0.4857 -0.1490 -0.0811
   92SOL    HW1  275   2.481   0.112   1.484 -0.8741 -1.6095 -5.1306
   92SOL    HW2  276   2.364   3.092   1.448  0.4691  0.3619  0.8613
   93SOL     OW  277   0.328   1.160   2.875  0.1468  0.3323 -0.3654
   93SOL    HW1  278   0.370   1.225   2.940 -1.0339  0.7305 -0.4295
   93SOL    HW2  279   0.305   1.207   2.785 -1.5696 -2.5284  0.4573
   94SOL     OW  280   2.628   0.023   1.868  0.3313  0.6872 -0.0132
   94SOL    HW1  281   2.551   0.083   1.899  2.4108  1.5717 -0.0172
   94SOL    HW2  282   2.693   0.010   1.949  2.1798  1.0070  3.4774
   95SOL     OW  283   1.984   0.622   1.705 -0.7720  0.0554  0.0669
   95SOL    HW1  284   1.933   0.668   1.630 -4.6802  0.4599 -1.1375
   95SOL    HW2  285   2.040   0.540   1.671  2.7128  0.3289  0.6778
   96SOL     OW  286   2.782   0.315   1.981  0.3303  0.8436  0.2304
   96SOL    HW1  287   2.728   0.338   1.894 -0.9324  0.6945 -2.2506
   96SOL    HW2  288   2.782   0.385   2.052  0.0487  0.2817 -1.8955
   97SOL     OW  289   2.204   0.257   1.378 -0.2164  0.4995 -0.4633
   97SOL    HW1  290   2.120   0.213   1.338  2.4570  0.3522  0.2269
   97SOL    HW2  291   2.268   0.181   1.393 -3.2274 -2.6549  0.0241
   98SOL     OW  292   2.215   2.537   1.753  0.2723  0.0783 -0.2272
   98SOL    HW1  293   2.273   2.459   1.715  1.7073 -2.7495 -2.1455
   98SOL    HW2  294   2.284   2.607   1.791 -0.2504 -0.0493  2.3452
   99SOL     OW  295   0.388   0.687   1.113 -0.2062 -0.0630 -0.1159
   99SOL    HW1  296   0.322   0.609   1.112 -1.5743  3.8577 -3.6643
   99SOL    HW2  297   0.359   0.765   1.056  1.9674 -2.7691  1.1592
  100SOL     OW  298   2.606   1.832   1.812  0.4143 -0.5265  0.2814
  100SOL    HW1  299   2.533   1.818   1.742  0.4264  0.7279  2.3712
  100SOL    HW2  300   2.699   1.838   1.765 -1.8877  0.4859  1.4726
  101SOL     OW  301   2.077   3.018   0.278 -0.2232 -0.1402  0.0529
  101SOL    HW1  302   2.136   3.089   0.317 -0.3622  1.9825 -0.0241
  101SOL    HW2  303   2.053   3.028   0.175  1.4410  2.7704 -3.7438
  102SOL     OW  304   0.433   0.259   1.163  0.2784  0.4931  0.0452
  102SOL    HW1  305   0.406   0.295   1.259  0.3533  2.1347  1.6928
  102SOL    HW2  306   0.348   0.245   1.107  2.2754  0.7628 -3.2398
  103SOL     OW  307   3.088   0.020   2.517 -0.2032 -0.6367  0.7694
  103SOL    HW1  308   3.013   3.063   2.463 -1.4562 -1.6987 -2.3707
  103SOL    HW2  309   0.075   3.059   2.526  1.6763  1.2088 -1.2103
  104SOL     OW  310   0.385   2.181   1.389 -0.2274  0.0650  0.2963
  104SOL    HW1  311   0.405   2.098   1.331  1.0905 -1.2730 -2.0605
  104SOL    HW2  312   0.294   2.217   1.384 -0.4140  0.2706 -1.9843
  105SOL     OW  313   0.694   1.748   2.144  0.3277 -0.2379  0.5298
  105SOL    HW1  314   0.778   1.766   2.201  1.3797  0.4479  1.7371
  105SOL    HW2  315   0.714   1.782   2.049  1.9959 -0.8879  2.2663
  106SOL     OW  316   2.180   0.287   0.777 -0.0639  0.2956  0.0904
  106SOL    HW1  317   2.199   0.296   0.880  2.5490 -0.0544  1.7233
  106SOL    HW2  318   2.089   0.244   0.758  4.9103  1.9724  1.9554
  107SOL     OW  319   0.404   1.322   1.259 -0.6102  0.3432  0.0389
  107SOL    HW1  320   0.455   1.262   1.197  0.5289 -1.6507 -1.7642
  107SOL    HW2  321   0.405   1.285   1.355 -2.3522  1.2343 -0.7940
  108SOL     OW  322   2.752   0.994   2.321 -0.1654  0.0630  0.3465
  108SOL    HW1  323   2.812   1.029   2.247 -0.1511 -0.1914 -0.6154
  108SOL    HW2  324   2.724   0.898   2.305  0.5984 -1.0989 -1.6116
  109SOL     OW  325   1.848   3.008   2.899  0.4084  0.5694  0.4574
  109SOL    HW1  326   1.865   3.074   2.823 -0.4763 -0.1179 -0.4299
  109SOL    HW2  327   1.836   3.056   2.991  1.2561 -0.8152  0.1871
  110SOL     OW  328   0.247   1.982   0.010  0.0348  0.0397  0.1882
  110SOL    HW1  329   0.146   1.971   3.088 -2.5103 -1.0636 -0.0565
  110SOL    HW2  330   0.292   1.902   0.048 -0.2426  0.9758  0.2052
  111SOL     OW  331   2.708   0.740   2.287  0.5009 -0.0111  0.2114
  111SOL    HW1  332   2.692   0.653   2.236  1.6545 -0.3508 -0.0252
  111SOL    HW2  333   2.669   0.739   2.383 -0.8140 -0.9740  2.7159
  112SOL     OW  334   2.135   2.757   1.455 -0.2543 -0.3882 -0.5577
  112SOL    HW1  335   2.069   2.828   1.427  1.9616 -0.1798 -3.8894
  112SOL    HW2  336   2.174   2.712   1.371 -0.1337 -0.4184  1.5547
  113SOL     OW  337   2.036   2.219   2.335 -0.4417  0.6758 -0.5322
  113SOL    HW1  338   2.026   2.121   2.320 -2.5744 -0.1274  1.7999
  113SOL    HW2  339   2.126   2.247   2.308 -2.8067 -0.5460  0.6227
  114SOL     OW  340   0.461   0.344   0.388 -0.1754  0.3407  0.3852
  114SOL    HW1  341   0.394   0.273   0.412 -2.3976  0.8798 -0.9253
  114SOL    HW2  342   0.548   0.306   0.350  2.0839 -0.2966  1.4774
  115SOL     OW  343   2.844   1.501   3.011 -0.0584  0.1435 -0.0891
  115SOL    HW1  344   2.934   1.537   3.032 -1.8727  1.0442  0.8366
  115SOL    HW2  345   2.847   1.399   3.006 -2.1069  0.5466 -1.0728
  116SOL     OW  346   0.097   0.674   1.531  0.0377 -0.2852  0.1643
  116SOL    HW1  347   0.115   0.700   1.435  0.9089  0.2550 -1.4487
  116SOL    HW2  348   0.042   0.743   1.589 -1.3764  1.3860  2.0201
  117SOL     OW  349   2.445   0.193   1.166  0.3259  0.0109  0.2119
  117SOL    HW1  350   2.352   0.232   1.162  0.2276  0.1350  1.6786
  117SOL    HW2  351   2.467   0.173   1.264 -2.0518 -0.8611  0.2279
  118SOL     OW  352   2.821   2.185   2.082  0.5541  0.1268 -0.0686
  118SOL    HW1  353   2.848   2.281   2.091 -0.4860  0.0167 -2.7054
  118SOL    HW2  354   2.762   2.167   1.999 -2.7652 -0.0776 -0.2267
  119SOL     OW  355   0.681   1.845   0.916  0.2439  0.2971  0.3156
  119SOL    HW1  356   0.714   1.906   0.989 -1.1307 -4.8773 -2.6409
  119SOL    HW2  357   0.680   1.753   0.954 -4.7007  0.0659 -0.0492
  120SOL     OW  358   0.374   1.583   1.208  0.1597 -0.4660 -0.6703
  120SOL    HW1  359   0.312   1.585   1.128 -1.7845  2.3710  1.6638
  120SOL    HW2  360   0.394   1.484   1.221 -0.3203 -0.6331  0.1642
  121SOL     OW  361   1.399   1.109   0.854  0.4433 -0.0339  0.1620
  121SOL    HW1  362   1.399   1.186   0.920 -1.0198 -0.1138  1.0115
  121SOL    HW2  363   1.303   1.111   0.816 -0.1029 -1.3897  0.9705
  122SOL     OW  364   2.012   2.436   2.851  0.0952  0.0102 -0.1744
  122SOL    HW1  365   1.927   2.478   2.805  0.8422 -0.5783 -0.7366
  122SOL    HW2  366   2.075   2.401   2.777  1.1339 -0.6096  1.0091
  123SOL     OW  367   2.908   0.014   0.357  0.1816  0.0118  0.1665
  123SOL    HW1  368   2.871   0.013   0.449  3.7257  3.0190 -1.4222
  123SOL    HW2  369   2.931   0.114   0.339  4.6793  2.8308  1.6373
  124SOL     OW  370   1.307   1.303   0.329 -0.6311  0.2943 -0.0967
  124SOL    HW1  371   1.254   1.264   0.249  1.0017  1.7581 -0.1758
  124SOL    HW2  372   1.326   1.225   0.391 -1.0018  0.8722 -1.3228
  125SOL     OW  373   0.122   0.860   2.369  0.3115  0.0326  0.4011
  125SOL    HW1  374   0.099   0.959   2.404  0.4102  2.0461  0.8027
  125SOL    HW2  375   0.095   0.858   2.270 -1.3270 -1.2197 -2.4959
  126SOL     OW  376   0.118   2.415   0.123 -0.4052  0.4480  0.3914
  126SOL    HW1  377   0.197   2.447   0.177  1.4406  0.5732 -0.0702
  126SOL    HW2  378   0.075   2.495   0.079 -1.1817 -2.4085 -1.1958
  127SOL     OW  379   2.786   1.963   0.310 -0.7249 -0.4227 -0.6241
  127SOL    HW1  380   2.713   2.014   0.359 -1.1208 -3.6050 -0.8856
  127SOL    HW2  381   2.763   1.972   0.208 -0.9690 -1.4174 -0.0636
  128SOL     OW  382   1.414   0.845   0.830 -0.4616  0.0108 -0.1830
  128SOL    HW1  383   1.407   0.943   0.863 -0.8215 -1.7534 -1.7756
  128SOL    HW2  384   1.328   0.825   0.786  1.6065  2.4577 -1.4085
  129SOL     OW  385   2.779   1.909   1.125  0.5707 -0.3537 -0.4148
  129SOL    HW1  386   2.852   1.939   1.059 -0.9918  0.3124  0.1639
  129SOL    HW2  387   2.743   1.982   1.183  0.8278 -3.1966  1.1156
  130SOL     OW  388   1.989   1.023   0.507  0.3825  0.0832  0.1107
  130SOL    HW1  389   2.054   1.098   0.501 -3.0866 -1.3087  1.9076
  130SOL    HW2  390   1.892   1.055   0.501  0.4004  1.5169  1.5149
  131SOL     OW  391   2.963   1.291   2.507  0.0539 -0.1831 -0.0517
  131SOL    HW1  392   2.872   1.265   2.554 -5.3010 -2.1189  2.8500
  131SOL    HW2  393   2.957   1.344   2.423 -0.5032  1.2063 -0.2585
  132SOL     OW  394   1.009   1.496   2.160  0.1246  0.2268 -0.0052
  132SOL    HW1  395   0.973   1.484   2.254 -0.3674  0.1492 -0.9999
  132SOL    HW2  396   0.969   1.428   2.100  1.4194  0.9372 -1.4132
  133SOL     OW  397   0.215   1.121   0.330  0.5801  0.1064 -0.2848
  133SOL    HW1  398   0.258   1.206   0.292  0.0862  0.9483  3.2627
  133SOL    HW2  399   0.195   1.054   0.257  0.8198 -0.9249  0.1777
  134SOL     OW  400   2.692   1.030   0.060  0.1531  0.0406  0.0670
  134SOL    HW1  401   2.752   0.988   3.085 -0.5949  0.0865  2.5609
  134SOL    HW2  402   2.706   1.128   0.066 -1.7259  1.0467 -0.6881
  135SOL     OW  403   1.610   0.637   0.099  0.5663  0.0766 -0.0913
  135SOL    HW1  404   1.651   0.646   0.009 -0.9528 -1.8619  2.4356
  135SOL    HW2  405   1.639   0.550   0.143  0.5698  1.2362 -0.8655
  136SOL     OW  406   1.985   1.767   1.777  0.0116 -0.1521  0.0713
  136SOL    HW1  407   1.923   1.785   1.695 -1.0098 -0.2946 -1.3146
  136SOL    HW2  408   2.020   1.671   1.780 -0.9888  0.1290 -0.7449
  137SOL     OW  409   2.309   2.386   1.017  0.2964  0.4895  0.5675
  137SOL    HW1  410   2.258   2.431   1.090  2.4154 -1.0064  2.4186
  137SOL    HW2  411   2.284   2.291   1.008  0.2663  1.8672  2.6535
  138SOL     OW  412   2.369   0.649   1.613  0.0559  0.2344 -0.0549
  138SOL    HW1  413   2.349   0.746   1.618 -1.4775 -1.8916  0.8269
  138SOL    HW2  414   2.351   0.611   1.521 -0.5678 -0.5878  1.3533
  139SOL     OW  415   2.285   2.859   2.726  0.4448 -0.0812 -0.6239
  139SOL    HW1  416   2.286   2.844   2.627  2.3026  0.5132  2.4783
  139SOL    HW2  417   2.199   2.833   2.772 -0.8422  0.0158 -1.5285
  140SOL     OW  418   1.368   1.915   2.381 -0.1195 -0.2790 -0.4208
  140SOL    HW1  419   1.459   1.886   2.407 -0.9742  1.9588  0.9126
  140SOL    HW2  420   1.297   1.852   2.424  0.0040  0.1059 -1.2182
  141SOL     OW  421   0.842   1.031   2.538  0.0463 -0.2803  0.6246
  141SOL    HW1  422   0.754   0.992   2.529  1.8907  0.1072  0.0141
  141SOL    HW2  423   0.905   0.971   2.597  2.9294  1.9362  1.1022
  142SOL     OW  424   2.642   2.616   2.202 -0.4558 -0.3668 -0.4090
  142SOL    HW1  425   2.647   2.713   2.180  1.1642 -3.3468  0.2345
  142SOL    HW2  426   2.551   2.572   2.176  0.4689 -2.9008 -0.8585
  143SOL     OW  427   1.127   2.441   0.293  0.0474  0.8039 -0.4872
  143SOL    HW1  428   1.163   2.530   0.322 -1.2935  0.3281 -2.7288
  143SOL    HW2  429   1.074   2.403   0.374  0.7066 -0.8924  2.5203
  144SOL     OW  430   1.030   2.713   0.657 -0.4530 -0.1781  0.0383
  144SOL    HW1  431   1.013   2.766   0.745  2.0538  1.1002  2.5610
  144SOL    HW2  432   1.018   2.767   0.573 -0.4275  1.1758  3.0281
  145SOL     OW  433   1.497   2.536   2.374 -0.1220 -0.4489  0.3400
  145SOL    HW1  434   1.531   2.522   2.466  0.4652  0.0229  0.9461
  145SOL    HW2  435   1.523   2.635   2.351  0.9824  1.4594  0.4180
  146SOL     OW  436   2.069   0.016   0.031  0.5708  0.4735 -0.3771
  146SOL    HW1  437   2.106   0.110   0.039  1.0068 -1.4356 -0.1446
  146SOL    HW2  438   1.968   0.017   0.025  0.9821 -1.7210 -1.1132
  147SOL     OW  439   3.089   1.708   1.192  0.2256  0.1064 -0.8292
  147SOL    HW1  440   3.089   1.700   1.090  0.6963  0.8027 -1.1632
  147SOL    HW2  441   2.999   1.705   1.237  1.0617  0.6239  0.1144
  148SOL     OW  442   1.910   3.000   0.490 -0.3058 -0.4253  0.1173
  148SOL    HW1  443   1.903   2.922   0.557 -1.7850  1.8089 -0.1504
  148SOL    HW2  444   1.971   2.976   0.414  0.7063 -0.4408  1.2894
  149SOL     OW  445   0.593   1.816   2.993 -0.2569  0.4089 -0.4325
  149SOL    HW1  446   0.656   1.734   2.973  2.4923 -1.0161 -0.5213
  149SOL    HW2  447   0.549   1.852   2.909 -0.5261 -1.5016 -0.6077
  150SOL     OW  448   0.395   2.786   0.953  0.2739  0.2553 -0.4468
  150SOL    HW1  449   0.375   2.817   1.052 -0.7743  1.3777  1.6716
  150SOL    HW2  450   0.388   2.866   0.884 -0.0217  1.1113 -0.8461
  151SOL     OW  451   0.117   1.018   2.956  0.1877 -0.2762  0.0939
  151SOL    HW1  452   0.201   1.068   2.924 -1.2826  0.7295  0.4625
  151SOL    HW2  453   0.059   0.977   2.881 -0.3136 -0.4056  1.3270
  152SOL     OW  454   2.980   1.980   0.891  0.4775  0.1170  0.5331
  152SOL    HW1  455   2.948   2.042   0.820 -0.9953  2.4252 -1.0104
  152SOL    HW2  456   2.976   1.885   0.851 -0.2356 -2.2818 -0.5553
  153SOL     OW  457   1.667   2.288   0.808  0.1038 -0.3303  0.1259
  153SOL    HW1  458   1.769   2.276   0.792  0.2813 -0.8876  2.2811
  153SOL    HW2  459   1.630   2.217   0.872 -0.8518  1.3652 -0.1108
  154SOL     OW  460   0.574   3.003   1.268 -0.2939 -0.3748 -0.2901
  154SOL    HW1  461   0.558   0.002   1.310 -0.4511  1.8504  1.9122
  154SOL    HW2  462   0.662   3.003   1.216 -0.7603 -1.9237  0.4494
  155SOL     OW  463   2.918   2.175   0.714 -0.1421 -0.4345 -0.2827
  155SOL    HW1  464   2.930   2.266   0.666 -0.1877  1.7450  0.4120
  155SOL    HW2  465   2.819   2.146   0.718 -1.2603 -0.5567  2.6000
  156SOL     OW  466   2.534   2.105   0.141 -0.7775  0.1913  0.0268
  156SOL    HW1  467   2.621   2.159   0.131  0.8585  1.0096  0.0508
  156SOL    HW2  468   2.538   2.040   0.215 -1.6183 -2.8408 -0.2667
  157SOL     OW  469   0.453   2.501   1.759 -0.1778 -0.7094  0.1152
  157SOL    HW1  470   0.376   2.435   1.752  1.1836  0.1372 -0.3423
  157SOL    HW2  471   0.496   2.483   1.850 -1.1051 -0.4263  1.5073
  158SOL     OW  472   1.446   0.413   1.016 -0.1195 -0.1349 -0.2814
  158SOL    HW1  473   1.419   0.322   1.057 -1.6598 -2.8083  0.8041
  158SOL    HW2  474   1.511   0.463   1.078 -1.9469  0.0278  0.9325
  159SOL     OW  475   1.730   0.999   0.057 -0.1046 -0.4130  0.3686
  159SOL    HW1  476   1.694   0.925   0.116  0.8583  0.0305 -0.1545
  159SOL    HW2  477   1.656   1.054   0.004 -0.4315  1.9919 -3.6457
  160SOL     OW  478   1.138   1.986   0.356 -0.1693  0.0657 -0.3775
  160SOL    HW1  479   1.195   2.062   0.313  0.6282  0.6567  0.0875
  160SOL    HW2  480   1.074   1.949   0.287  2.3416  3.8264 -0.1550
  161SOL     OW  481   2.559   2.239   2.602 -0.4946 -0.1260 -0.0078
  161SOL    HW1  482   2.644   2.190   2.562  3.7450 -3.5896 -3.0596
  161SOL    HW2  483   2.581   2.332   2.633 -0.5796 -0.7863 -0.2985
  162SOL     OW  484   0.171   2.345   1.424 -0.6625  0.9419 -0.6433
  162SOL    HW1  485   0.073   2.338   1.450 -1.0996  2.1574 -1.2786
  162SOL    HW2  486   0.170   2.385   1.328 -2.7536 -1.5238 -1.4228
  163SOL     OW  487   0.224   0.365   2.702  0.1178 -0.1537 -0.1031
  163SOL    HW1  488   0.231   0.331   2.608  0.5905  0.1177  2.2537
  163SOL    HW2  489   0.160   0.447   2.715 -0.8412 -0.5758  1.2771
  164SOL     OW  490   0.058   2.550   2.835  0.2328 -0.1488  0.4308
  164SOL    HW1  491   0.133   2.614   2.806  1.3023  0.2381 -1.3203
  164SOL    HW2  492   0.029   2.568   2.930  0.1151 -4.0325 -3.0113
  165SOL     OW  493   2.862   1.047   1.387 -0.1662  0.0465 -0.7474
  165SOL    HW1  494   2.773   1.079   1.425  0.6029  0.5181 -1.9188
  165SOL    HW2  495   2.852   0.949   1.370 -0.5120  2.4190  0.2654
  166SOL     OW  496   2.237   1.741   1.338  0.1168 -0.1641  0.6599
  166SOL    HW1  497   2.247   1.640   1.324  1.9861 -3.3450 -0.7336
  166SOL    HW2  498   2.150   1.762   1.384 -0.7000  0.5851  1.4340
  167SOL     OW  499   0.397   0.599   2.440  0.0957 -0.1212  0.4130
  167SOL    HW1  500   0.348   0.572   2.353 -0.7443  0.5154  0.1867
  167SOL    HW2  501   0.338   0.651   2.502 -1.5120 -0.5059 -0.0144
  168SOL     OW  502   2.145   0.046   2.186 -0.1208 -0.5036  1.0385
  168SOL    HW1  503   2.184   3.085   2.108  1.9900 -3.2147 -0.0052
  168SOL    HW2  504   2.148   3.083   2.267  1.9807  1.3392  1.1975
  169SOL     OW  505   0.502   0.988   2.991  0.3306 -0.2339  0.5421
  169SOL    HW1  506   0.416   1.038   2.957 -4.9743 -0.2166 -1.8242
  169SOL    HW2  507   0.586   0.993   2.931 -0.2978  0.0706 -0.4965
  170SOL     OW  508   0.840   1.454   1.270 -0.0575 -0.3232  0.0587
  170SOL    HW1  509   0.905   1.467   1.350 -0.2721  0.0339 -0.4640
  170SOL    HW2  510   0.791   1.362   1.281 -0.6707 -1.7331  0.5664
  171SOL     OW  511   1.119   2.550   1.579  0.1215  0.4732 -0.3189
  171SOL    HW1  512   1.162   2.625   1.523  0.2114 -0.4010 -0.0713
  171SOL    HW2  513   1.140   2.456   1.530  4.0426 -1.5897 -5.0741
  172SOL     OW  514   1.214   3.023   1.982 -0.9905 -0.2044 -0.0924
  172SOL    HW1  515   1.160   3.025   2.068 -2.0719  3.5380  1.9696
  172SOL    HW2  516   1.228   0.030   1.960 -2.3042  2.1363 -1.3177
  173SOL     OW  517   1.221   2.392   0.884 -0.3122 -0.0840  0.0400
  173SOL    HW1  518   1.123   2.423   0.898 -0.7216  1.0352  0.7769
  173SOL    HW2  519   1.236   2.354   0.790  0.1712  1.0542  0.1940
  174SOL     OW  520   2.194   3.040   0.622 -0.2199 -0.3331  0.7449
  174SOL    HW1  521   2.129   0.020   0.642  0.9393 -0.6148  0.0060
  174SOL    HW2  522   2.241   3.051   0.529 -0.8848  0.0636  1.0312
  175SOL     OW  523   1.154   1.141   0.743 -0.5384 -0.1967 -0.0324
  175SOL    HW1  524   1.103   1.228   0.760  1.2500 -0.1557 -0.9835
  175SOL    HW2  525   1.105   1.066   0.704  1.5464  2.1751  0.3674
  176SOL     OW  526   0.851   1.687   0.396 -0.1059  0.2774 -0.0711
  176SOL    HW1  527   0.830   1.671   0.497 -0.7697 -2.3952  3.1806
  176SOL    HW2  528   0.906   1.612   0.362 -2.5221  3.9925  0.9047
  177SOL     OW  529   1.399   1.409   0.791 -0.0776 -0.3192 -0.2464
  177SOL    HW1  530   1.333   1.422   0.714 -0.9124  0.1325 -1.7915
  177SOL    HW2  531   1.487   1.386   0.748  3.3626  0.7973 -4.4001
  178SOL     OW  532   2.158   1.832   0.134 -0.0720  0.1339  0.1665
  178SOL    HW1  533   2.224   1.873   0.065  0.7602  0.6959 -2.7258
  178SOL    HW2  534   2.185   1.734   0.157 -0.7781 -5.2283  1.5901
  179SOL     OW  535   1.387   2.921   0.005  0.3609 -0.0594 -0.4123
  179SOL    HW1  536   1.431   2.855   0.072  0.1790 -3.1678 -0.1315
  179SOL    HW2  537   1.287   2.898   3.090 -0.4909 -0.6605  1.9026
  180SOL     OW  538   1.998   1.279   1.531 -0.1304 -0.0836  0.2551
  180SOL    HW1  539   2.046   1.287   1.620  3.5347  1.0718  1.7505
  180SOL    HW2  540   2.039   1.351   1.470 -0.1661  2.1517  1.5735
  181SOL     OW  541   1.047   0.619   1.917 -0.2649 -0.2463  0.0329
  181SOL    HW1  542   1.104   0.564   1.981  0.1828 -0.5296 -1.0744
  181SOL    HW2  543   0.964   0.653   1.966 -1.3622 -0.6174 -0.6087
  182SOL     OW  544   0.072   1.099   2.439  0.3856 -0.8799 -0.6993
  182SOL    HW1  545   3.080   1.153   2.442  1.1492  1.6670 -2.1803
  182SOL    HW2  546   0.151   1.154   2.404 -1.1258 -1.6947  0.5804
  183SOL     OW  547   1.554   0.697   2.322 -0.1946  0.0576 -0.0891
  183SOL    HW1  548   1.637   0.652   2.285  0.0676 -0.8903 -1.1434
  183SOL    HW2  549   1.498   0.627   2.371 -0.5324 -1.7729  0.4508
  184SOL     OW  550   0.732   0.546   0.941  0.3188  0.4825 -0.3116
  184SOL    HW1  551   0.784   0.628   0.910  1.3105  0.8798  1.4523
  184SOL    HW2  552   0.782   0.497   1.021  2.8156 -1.2256  3.2032
  185SOL     OW  553   2.251   1.447   0.732 -0.1914  0.1265 -0.0127
  185SOL    HW1  554   2.354   1.414   0.713  3.1218 -2.0226  0.6036
  185SOL    HW2  555   2.212   1.488   0.650  1.7558  0.5211  0.6038
  186SOL     OW  556   0.326   1.939   0.343  0.1665  0.4082  0.2461
  186SOL    HW1  557   0.348   1.905   0.248 -0.1698  1.9460 -0.0469
  186SOL    HW2  558   0.227   1.932   0.355  4.4340  0.7431 -0.1138
  187SOL     OW  559   1.924   2.271   3.050 -0.5526  0.0811 -0.2812
  187SOL    HW1  560   1.978   2.179   3.052  0.1150 -0.4023  0.2420
  187SOL    HW2  561   1.956   2.333   2.975  1.8047  1.0858 -0.0680
  188SOL     OW  562   1.341   1.964   1.366  0.3567  0.3851 -0.3461
  188SOL    HW1  563   1.402   1.883   1.343 -1.6689 -2.3094 -2.2122
  188SOL    HW2  564   1.280   1.981   1.287 -0.8778  1.5166  0.9275
  189SOL     OW  565   2.223   1.516   2.426  0.0894 -0.1741 -0.5644
  189SOL    HW1  566   2.133   1.473   2.405 -2.7553  0.5498 -0.5038
  189SOL    HW2  567   2.223   1.618   2.421 -0.8433  1.1215 -0.6217
  190SOL     OW  568   0.877   2.529   2.352 -0.3093  0.3684 -0.5371
  190SOL    HW1  569   0.973   2.535   2.311  0.4053 -0.1931 -1.4685
  190SOL    HW2  570   0.834   2.621   2.351  0.4520  0.4543 -1.3935
  191SOL     OW  571   2.525   1.124   1.166 -0.4984  0.2163 -0.2258
  191SOL    HW1  572   2.542   1.089   1.259 -0.4072  0.1419  0.1283
  191SOL    HW2  573   2.600   1.120   1.098  1.0576 -0.5411 -1.6642
  192SOL     OW  574   2.708   0.670   1.758 -0.2955 -0.1564 -0.1665
  192SOL    HW1  575   2.644   0.590   1.773 -2.0804 -2.3633  0.9136
  192SOL    HW2  576   2.807   0.654   1.789  4.7486  1.3179  3.6887
  193SOL     OW  577   0.957   0.423   3.084 -0.1442 -0.5815  0.2425
  193SOL    HW1  578   1.032   0.368   0.021 -3.1184  0.3506 -1.0640
  193SOL    HW2  579   0.915   0.365   3.009 -1.0368  0.1960 -0.5255
  194SOL     OW  580   1.187   2.316   1.431 -0.1373  0.1653  0.1307
  194SOL    HW1  581   1.125   2.246   1.472 -0.3061  0.8246  0.6290
  194SOL    HW2  582   1.207   2.300   1.331 -0.9376 -0.5691 -2.1913
  195SOL     OW  583   2.495   1.234   0.297 -0.5390  0.1409 -0.1042
  195SOL    HW1  584   2.551   1.159   0.344  2.3638 -1.4554  1.3031
  195SOL    HW2  585   2.488   1.320   0.355 -0.4258 -0.0214  0.3190
  196SOL     OW  586   0.566   2.267   1.581 -0.0117 -0.3702 -0.1828
  196SOL    HW1  587   0.491   2.233   1.519  2.8900  0.1628 -0.5587
  196SOL    HW2  588   0.558   2.367   1.594  2.4460  0.4285 -1.2048
  197SOL     OW  589   3.013   0.522   2.120 -0.5535  0.4991  0.3567
  197SOL    HW1  590   0.002   0.464   2.107 -0.0837 -2.3804 -3.0255
  197SOL    HW2  591   2.956   0.464   2.180  2.3458  2.9162 -0.0040
  198SOL     OW  592   1.783   1.179   0.384  0.7339 -0.2218  0.0473
  198SOL    HW1  593   1.823   1.189   0.290 -0.9866 -1.8854  1.0739
  198SOL    HW2  594   1.765   1.271   0.424  0.4286 -0.0659  0.3236
  199SOL     OW  595   2.518   0.401   1.548  0.1114  0.4935  0.1048
  199SOL    HW1  596   2.455   0.482   1.560  1.7314  4.5496 -0.2289
  199SOL    HW2  597   2.560   0.399   1.457  0.8361 -1.2002 -0.7720
  200SOL     OW  598   2.208   0.260   0.034  0.1724  0.1250 -0.3721
  200SOL    HW1  599   2.291   0.200   0.020  0.2414 -2.5337  2.2154
  200SOL    HW2  600   2.208   0.342   3.073 -0.2579 -0.7242  1.1428
  201SOL     OW  601   2.878   0.349   1.003  0.8820  0.2460  0.1061
  201SOL    HW1  602   2.878   0.316   1.100  0.3760 -1.4740  0.6938
  201SOL    HW2  603   2.779   0.361   0.981  2.0011  1.3018 -1.4725
  202SOL     OW  604   0.038   2.665   0.315 -0.0855  0.4331 -0.4621
  202SOL    HW1  605   0.120   2.607   0.339  0.0170  0.9361  1.3510
  202SOL    HW2  606   0.038   2.758   0.356 -0.3294 -1.3741  1.9879
  203SOL     OW  607   1.314   1.774   0.363 -0.2549 -0.4560 -0.5068
  203SOL    HW1  608   1.240   1.843   0.370  1.5116  0.0675 -0.8877
  203SOL    HW2  609   1.355   1.763   0.452 -0.5152  0.6351 -1.1391
  204SOL     OW  610   0.442   1.944   2.295 -0.5967  0.6247 -0.2034
  204SOL    HW1  611   0.482   1.989   2.211 -0.5144  0.9356  0.5772
  204SOL    HW2  612   0.376   1.871   2.256  1.1208 -0.6301 -2.4660
  205SOL     OW  613   0.887   0.723   0.830 -0.3285 -0.2825 -0.1870
  205SOL    HW1  614   0.914   0.741   0.932  2.2048  2.1966  5.9799
  205SOL    HW2  615   0.963   0.672   0.784 -0.3935  1.0691 -2.6892
  206SOL     OW  616   0.426   0.541   2.803  0.3650  0.7624  0.3140
  206SOL    HW1  617   0.380   0.630   2.791  1.3943  2.0247 -2.9040
  206SOL    HW2  618   0.377   0.468   2.759  2.0981  1.4281  2.0491
  207SOL     OW  619   1.328   2.416   1.686 -0.6361  0.0223 -0.2432
  207SOL    HW1  620   1.394   2.444   1.756 -1.0794  0.9308  0.9861
  207SOL    HW2  621   1.265   2.492   1.671  2.2107 -3.8383 -0.4900
  208SOL     OW  622   2.989   3.030   1.548 -0.0984 -0.1661  0.0052
  208SOL    HW1  623   3.040   2.977   1.481 -1.4850 -0.7961  2.9939
  208SOL    HW2  624   2.907   3.071   1.507  0.7962  1.4035 -0.6315
  209SOL     OW  625   1.627   1.079   0.704 -0.2881 -0.3096 -0.7738
  209SOL    HW1  626   1.552   1.052   0.764 -1.7384 -1.0447 -0.6342
  209SOL    HW2  627   1.616   1.040   0.609 -1.0692  0.9981 -1.0414
  210SOL     OW  628   2.590   0.879   0.258 -0.1455 -0.4071  0.3143
  210SOL    HW1  629   2.607   0.950   0.333 -0.6511  1.9386  0.2831
  210SOL    HW2  630   2.625   0.910   0.165  0.1157 -1.5051  0.2626
  211SOL     OW  631   1.243   0.046   0.188 -0.2266  0.0431  0.3618
  211SOL    HW1  632   1.259   0.124   0.127 -2.2103 -0.7260  2.4386
  211SOL    HW2  633   1.324   3.088   0.215  0.4595  1.4393 -0.3618
  212SOL     OW  634   1.816   2.132   0.584 -0.0327 -0.0347 -0.2212
  212SOL    HW1  635   1.904   2.117   0.638 -0.6222  1.6179 -0.0591
  212SOL    HW2  636   1.833   2.119   0.486 -1.5609  0.1575 -2.0967
  213SOL     OW  637   2.450   0.142   2.984  0.0967  0.6186  0.4385
  213SOL    HW1  638   2.543   0.160   3.026  0.0094  2.1307 -0.5840
  213SOL    HW2  639   2.448   0.194   2.896 -0.7071  0.4434  0.2459
  214SOL     OW  640   0.946   2.092   2.253 -0.0468  0.1333 -0.3442
  214SOL    HW1  641   1.020   2.117   2.188  0.4649 -0.5888 -0.1191
  214SOL    HW2  642   0.866   2.150   2.231  0.1563  0.6049  0.6621
  215SOL     OW  643   0.248   1.324   0.910  0.1528 -0.6639  0.1135
  215SOL    HW1  644   0.272   1.425   0.920  3.0322  2.0972  0.1069
  215SOL    HW2  645   0.322   1.262   0.940 -0.6810  0.7639 -0.5501
  216SOL     OW  646   0.128   2.301   2.772 -0.2506  0.2458  0.0447
  216SOL    HW1  647   0.192   2.299   2.690  1.1584 -1.5142 -0.7319
  216SOL    HW2  648   0.121   2.386   2.822 -2.2099  1.0682 -0.8352
  217SOL     OW  649   2.825   1.329   1.280 -0.5958 -0.4750  0.2845
  217SOL    HW1  650   2.891   1.285   1.220  0.0900 -1.1889  1.5641
  217SOL    HW2  651   2.766   1.258   1.322  0.5643  0.9660  1.1708
  218SOL     OW  652   0.853   2.384   1.958  0.2468  0.1405 -0.3332
  218SOL    HW1  653   0.921   2.456   1.943  0.4988  1.3165 -0.0335
  218SOL    HW2  654   0.852   2.358   2.057 -0.3478 -0.3832 -0.0678
  219SOL     OW  655   1.935   1.630   0.457  0.2933  0.1873 -0.2322
  219SOL    HW1  656   1.935   1.695   0.379  1.0307 -1.4757  0.8095
  219SOL    HW2  657   1.915   1.677   0.548 -0.6192 -0.0881  3.6008
  220SOL     OW  658   2.041   0.772   0.452 -0.3144  0.2367 -0.2731
  220SOL    HW1  659   2.018   0.873   0.458  0.5377  0.6876  0.4307
  220SOL    HW2  660   1.959   0.714   0.462  0.7370  0.6788 -1.0079
  221SOL     OW  661   2.927   0.657   0.071 -0.3354 -0.2711 -0.3372
  221SOL    HW1  662   2.882   0.678   0.161 -1.5162  1.3394  2.2023
  221SOL    HW2  663   3.025   0.624   0.078  0.1144 -0.6062 -0.4200
  222SOL     OW  664   1.508   1.543   0.556  0.3724 -0.0815 -0.4374
  222SOL    HW1  665   1.425   1.504   0.507 -1.2077 -0.1634  0.3847
  222SOL    HW2  666   1.479   1.605   0.633  1.7355  0.5102  4.5053
  223SOL     OW  667   1.190   0.026   2.904  0.0316  0.3211 -0.2193
  223SOL    HW1  668   1.269   0.036   2.840 -4.1035 -0.9621  1.8002
  223SOL    HW2  669   1.160   3.025   2.920 -2.3207 -2.7425  0.5653
  224SOL     OW  670   0.778   3.056   1.111  0.2312  0.3069  0.9115
  224SOL    HW1  671   0.747   0.054   1.081  1.1221  1.5246 -1.0185
  224SOL    HW2  672   0.870   3.066   1.152 -1.6337  0.5183 -5.4191
  225SOL     OW  673   0.656   2.636   2.102 -0.5403  0.1417  0.3062
  225SOL    HW1  674   0.645   2.542   2.074 -0.8364  1.5768  0.3762
  225SOL    HW2  675   0.597   2.689   2.035 -1.5015  0.2666 -3.5443
  226SOL     OW  676   1.328   1.556   0.190  0.0805  0.1340 -0.0089
  226SOL    HW1  677   1.334   1.638   0.250 -2.4866  1.8812  2.0775
  226SOL    HW2  678   1.338   1.463   0.231 -0.6739 -1.2388  1.2327
  227SOL     OW  679   0.374   1.777   0.766 -0.1971 -0.2398  0.7279
  227SOL    HW1  680   0.412   1.867   0.742 -0.7246 -2.0990 -0.9601
  227SOL    HW2  681   0.428   1.703   0.720  1.7480  1.3688 -1.6104
  228SOL     OW  682   0.125   2.153   0.731  0.0208  0.3566 -1.1351
  228SOL    HW1  683   0.058   2.184   0.800 -1.2679 -2.3116 -1.3383
  228SOL    HW2  684   0.138   2.214   0.650  0.5810  1.0087  2.1484
  229SOL     OW  685   2.714   0.073   3.054  0.4430  0.3137  0.2622
  229SOL    HW1  686   2.662   0.010   0.016  0.7074  1.6915  1.1626
  229SOL    HW2  687   2.794   0.025   3.018  0.8545  0.0830  2.0410
  230SOL     OW  688   2.328   1.027   0.615  0.4344 -0.5549  0.3291
  230SOL    HW1  689   2.283   1.103   0.567  0.0136 -3.9154 -1.2677
  230SOL    HW2  690   2.285   1.006   0.707 -1.0081 -0.9538 -2.0101
  231SOL     OW  691   1.545   1.378   2.862 -0.5696  0.0144  0.6910
  231SOL    HW1  692   1.515   1.418   2.775 -1.0684 -0.5656  0.5092
  231SOL    HW2  693   1.583   1.450   2.917  0.0282 -0.8882  0.0624
  232SOL     OW  694   2.460   1.930   0.958  0.4396  0.0077  0.2321
  232SOL    HW1  695   2.434   1.836   0.919  0.8050  0.8815  0.7025
  232SOL    HW2  696   2.458   1.912   1.057  1.8956 -1.4215 -0.6810
  233SOL     OW  697   0.364   2.867   1.218 -0.7569  0.4619  0.2343
  233SOL    HW1  698   0.449   2.904   1.259 -2.1411  0.1057 -1.0902
  233SOL    HW2  699   0.293   2.935   1.223 -1.8536 -1.3493  0.5626
  234SOL     OW  700   0.862   0.051   2.478 -0.1052  0.6170 -0.0732
  234SOL    HW1  701   0.948   3.092   2.488 -0.2658  1.6209 -0.0402
  234SOL    HW2  702   0.790   0.019   2.542  1.2149  0.3424  2.6952
  235SOL     OW  703   2.926   1.009   2.102 -0.4702 -0.0065  0.1134
  235SOL    HW1  704   2.896   1.038   2.011  1.4958  0.5558  0.4704
  235SOL    HW2  705   2.978   0.921   2.104  0.5214  0.8619  1.4469
  236SOL     OW  706   1.197   2.808   1.809  0.0691 -0.3123 -0.2034
  236SOL    HW1  707   1.218   2.876   1.882  0.2696  0.5080 -0.8360
  236SOL    HW2  708   1.141   2.846   1.734 -1.4804 -0.4386 -2.4276
  237SOL     OW  709   0.673   1.316   2.638  0.3270 -0.0579  0.0550
  237SOL    HW1  710   0.607   1.269   2.576  4.3242 -1.6378  0.5124
  237SOL    HW2  711   0.759   1.327   2.586  0.3815  1.4313  3.5538
  238SOL     OW  712   1.091   0.416   2.378 -0.3100  0.7218  0.2543
  238SOL    HW1  713   1.087   0.514   2.406 -1.1256 -1.3890 -2.5605
  238SOL    HW2  714   1.001   0.375   2.397  0.3073 -0.7924 -0.3725
  239SOL     OW  715   0.366   2.122   1.943 -0.1917  0.0108  0.1621
  239SOL    HW1  716   0.367   2.073   1.857 -0.0912  1.6169 -1.1099
  239SOL    HW2  717   0.445   2.090   1.998 -3.9231 -1.6735 -1.5376
  240SOL     OW  718   2.618   2.849   0.649 -0.0762  0.2886  0.2953
  240SOL    HW1  719   2.562   2.910   0.703 -2.4391 -0.7972 -1.3028
  240SOL    HW2  720   2.578   2.835   0.559  0.2298 -2.7661 -0.3489
  241SOL     OW  721   0.112   0.874   0.113  0.0689 -0.2563  0.2091
  241SOL    HW1  722   0.108   0.778   0.095  1.9486 -0.2842 -0.7847
  241SOL    HW2  723   0.118   0.922   0.023 -1.1551  0.1878  0.2114
  242SOL     OW  724   1.809   2.480   1.789  0.7608  0.0613 -0.1945
  242SOL    HW1  725   1.825   2.383   1.811  0.8435 -1.0526  2.2462
  242SOL    HW2  726   1.848   2.516   1.702 -0.4002 -1.6387  0.3090
  243SOL     OW  727   0.565   2.410   1.977 -0.5073  0.4643 -0.4162
  243SOL    HW1  728   0.662   2.378   1.965  0.8651 -2.4043 -0.2320
  243SOL    HW2  729   0.520   2.352   2.048 -0.9286 -1.0705  0.4785
  244SOL     OW  730   2.301   0.527   2.389  0.1777 -0.0441 -0.1658
  244SOL    HW1  731   2.213   0.477   2.408  0.8945 -2.4594 -0.0034
  244SOL    HW2  732   2.283   0.623   2.381  0.4797 -1.1475 -2.0960
  245SOL     OW  733   1.313   2.891   1.158 -0.2950  0.4659  0.4354
  245SOL    HW1  734   1.325   2.969   1.226 -0.2343  0.1260  3.7663
  245SOL    HW2  735   1.326   2.924   1.061 -1.8604 -3.1002 -2.8403
  246SOL     OW  736   1.582   2.874   0.602  0.3138  0.3686  0.4035
  246SOL    HW1  737   1.613   2.914   0.511 -0.7720  1.0946  0.1691
  246SOL    HW2  738   1.485   2.834   0.590 -0.7794 -1.6795 -2.1591
  247SOL     OW  739   1.839   0.487   1.905  0.2357 -0.3385 -0.0848
  247SOL    HW1  740   1.774   0.412   1.879 -2.9442 -1.8026  1.4352
  247SOL    HW2  741   1.877   0.523   1.821  0.0171 -0.7621  0.4542
  248SOL     OW  742   3.079   1.955   1.812  0.0982 -0.1411 -0.2702
  248SOL    HW1  743   3.070   1.990   1.910 -0.0342 -2.5768  0.4572
  248SOL    HW2  744   0.078   1.935   1.788 -6.6636  0.9699  0.9677
  249SOL     OW  745   2.941   0.294   0.321 -0.5577 -0.4475  0.1180
  249SOL    HW1  746   2.931   0.333   0.418  1.4176  1.8817  0.7443
  249SOL    HW2  747   3.034   0.314   0.285  1.7318 -1.3174 -0.1813
  250SOL     OW  748   2.530   0.029   2.651  0.2790 -0.0532 -0.5034
  250SOL    HW1  749   2.507   3.062   2.729 -3.7611  0.0718 -0.7629
  250SOL    HW2  750   2.450   0.043   2.581 -2.5361  2.1605  0.1484
  251SOL     OW  751   1.343   0.572   0.098  0.1126 -0.1570 -0.3275
  251SOL    HW1  752   1.295   0.551   0.009 -0.5779  2.7466 -1.9656
  251SOL    HW2  753   1.446   0.589   0.093 -0.3956 -0.3057  2.0513
  252SOL     OW  754   1.143   2.561   2.267  0.3634  0.3975 -0.1257
  252SOL    HW1  755   1.210   2.494   2.304 -0.8571 -1.0313  0.0267
  252SOL    HW2  756   1.190   2.622   2.199 -0.9162  1.4421 -0.1003
  253SOL     OW  757   1.995   2.627   0.965 -0.3574 -0.4804 -0.6114
  253SOL    HW1  758   2.045   2.570   0.894 -1.4998 -0.2159 -1.2671
  253SOL    HW2  759   1.993   2.722   0.928 -0.3820  1.6504  0.9733
  254SOL     OW  760   2.410   1.300   0.992 -0.1123  0.4079  0.0181
  254SOL    HW1  761   2.399   1.260   0.900  2.9858 -0.2664 -1.8419
  254SOL    HW2  762   2.438   1.235   1.068 -0.4713  1.0516  1.1160
  255SOL     OW  763   0.822   2.781   1.238  0.0743  0.1708  0.0932
  255SOL    HW1  764   0.773   2.856   1.191  0.6495 -0.2940  0.9522
  255SOL    HW2  765   0.879   2.729   1.167  2.4428  0.7733 -0.8604
  256SOL     OW  766   2.249   2.034   1.495  0.1704  0.1669  0.1431
  256SOL    HW1  767   2.226   2.003   1.588 -0.5785  2.6389 -3.0821
  256SOL    HW2  768   2.337   2.087   1.499 -0.0690  1.1064 -2.2545
  257SOL     OW  769   0.330   2.311   2.591 -0.0858 -0.1611  0.0037
  257SOL    HW1  770   0.410   2.261   2.552 -2.1596  2.3060 -2.1786
  257SOL    HW2  771   0.357   2.406   2.627  2.0014  2.4366 -0.3896
  258SOL     OW  772   0.701   2.969   0.854  0.1038 -0.6858 -0.5487
  258SOL    HW1  773   0.717   2.982   0.953  0.4040 -0.5775 -2.3684
  258SOL    HW2  774   0.635   3.037   0.818  0.1432  1.2499  0.5398
  259SOL     OW  775   1.402   0.592   2.720  0.4381 -0.3816 -0.0335
  259SOL    HW1  776   1.399   0.516   2.790  0.1684 -2.5807 -0.3950
  259SOL    HW2  777   1.348   0.671   2.758 -1.1011 -0.2851 -1.0749
  260SOL     OW  778   0.115   0.962   1.104  0.4724 -0.0020  0.3958
  260SOL    HW1  779   0.111   1.019   1.184  0.6203 -1.2447 -1.8621
  260SOL    HW2  780   0.207   0.934   1.078 -0.2681 -0.5535 -0.2307
  261SOL     OW  781   0.532   0.196   2.275 -0.0533  0.1302 -0.4487
  261SOL    HW1  782   0.539   0.265   2.203  0.0338 -1.6479 -0.8040
  261SOL    HW2  783   0.591   0.119   2.246 -1.4668  0.9715 -0.0436
  262SOL     OW  784   0.979   2.623   1.960 -0.6219 -0.2663  0.2735
  262SOL    HW1  785   0.978   2.661   1.867 -2.0115 -1.7551  0.0572
  262SOL    HW2  786   0.928   2.677   2.028  0.9109  1.3371 -1.6508
  263SOL     OW  787   0.699   2.241   3.059 -0.4377  0.5849 -0.3415
  263SOL    HW1  788   0.790   2.275   3.085 -1.9065 -0.0294 -1.1480
  263SOL    HW2  789   0.637   2.242   0.042  1.5548  1.9614 -1.5672
  264SOL     OW  790   1.054   1.452   1.087  0.3425  0.2629 -0.0282
  264SOL    HW1  791   1.102   1.369   1.123  0.3958  0.0894 -0.8663
  264SOL    HW2  792   0.959   1.453   1.125 -1.4546  2.2501  1.7022
  265SOL     OW  793   1.043   2.428   0.581 -0.0368  0.1433  0.3834
  265SOL    HW1  794   1.144   2.421   0.593  1.9006  0.7844  2.8868
  265SOL    HW2  795   1.018   2.520   0.593 -1.3070 -2.1821 -4.1301
  266SOL     OW  796   2.672   1.061   0.938  0.3499  0.5701 -0.0323
  266SOL    HW1  797   2.590   1.005   0.928 -0.7647 -1.2145  2.2309
  266SOL    HW2  798   2.755   1.000   0.942  0.2110  0.1498 -0.4487
  267SOL     OW  799   2.945   1.255   2.877  0.2506 -0.0672  0.0073
  267SOL    HW1  800   2.971   1.216   2.968  1.0956  0.0378 -2.3042
  267SOL    HW2  801   3.024   1.273   2.814  0.1731  1.8681  2.6621
  268SOL     OW  802   1.526   0.074   0.335 -0.6065 -0.0793 -0.3709
  268SOL    HW1  803   1.576   3.086   0.368  1.7756 -3.2075  3.1352
  268SOL    HW2  804   1.590   0.158   0.337  0.6537  1.6996 -1.4533
  269SOL     OW  805   2.972   0.728   2.421 -0.2278  0.0494 -0.5069
  269SOL    HW1  806   3.057   0.770   2.387 -1.8251  0.4881 -1.2807
  269SOL    HW2  807   2.892   0.762   2.376 -0.0354 -3.6101 -3.5156
  270SOL     OW  808   3.027   1.155   0.007  0.0200  0.2950  0.8940
  270SOL    HW1  809   3.021   1.104   0.095 -2.9339 -1.5295  0.1363
  270SOL    HW2  810   0.006   1.111   3.045 -1.6584  2.4703  2.2376
  271SOL     OW  811   2.865   1.617   2.501  0.5762 -0.0897 -0.5086
  271SOL    HW1  812   2.871   1.612   2.602 -1.2208  1.9069 -0.8576
  271SOL    HW2  813   2.912   1.703   2.460  1.6282 -0.2808  1.6781
  272SOL     OW  814   2.479   2.638   1.874  0.4127  0.2082  0.5298
  272SOL    HW1  815   2.547   2.566   1.855  0.4900 -2.2099 -0.4566
  272SOL    HW2  816   2.438   2.623   1.967 -0.5354 -1.8771  1.1676
  273SOL     OW  817   0.321   2.533   0.312 -0.1702 -0.8277 -0.4358
  273SOL    HW1  818   0.350   2.489   0.401 -0.9552 -2.0503  2.4296
  273SOL    HW2  819   0.401   2.560   0.254  1.1763  1.6579  0.9617
  274SOL     OW  820   0.911   2.379   0.915  0.3858 -0.2145 -0.1484
  274SOL    HW1  821   0.882   2.366   0.814  1.0069  1.8636 -0.1939
  274SOL    HW2  822   0.921   2.291   0.966  1.0541 -0.6794 -1.1792
  275SOL     OW  823   1.902   1.775   3.091  0.3732  0.2444 -0.1112
  275SOL    HW1  824   1.994   1.810   0.022  0.9214 -0.8004 -1.9169
  275SOL    HW2  825   1.864   1.828   3.009 -1.6095 -0.3168 -0.7277
  276SOL     OW  826   2.633   1.321   1.665 -0.0350  0.3687  0.3954
  276SOL    HW1  827   2.555   1.318   1.728  1.8845 -0.4811  0.4981
  276SOL    HW2  828   2.719   1.331   1.720 -0.9399  0.0965  0.3076
  277SOL     OW  829   2.583   0.375   0.993  0.0746 -0.1370 -0.3503
  277SOL    HW1  830   2.530   0.368   0.907  2.6123 -0.4437 -0.7238
  277SOL    HW2  831   2.548   0.312   1.063  0.0001  0.3730 -2.1395
  278SOL     OW  832   1.795   0.423   2.483 -0.1089 -0.0286 -0.0452
  278SOL    HW1  833   1.742   0.468   2.561 -3.5999 -1.7760  1.2459
  278SOL    HW2  834   1.891   0.407   2.516 -0.1474  0.3574  1.3844
  279SOL     OW  835   1.086   0.025   0.932  0.1230  0.4215  0.4969
  279SOL    HW1  836   1.072   3.095   1.031  2.7537 -0.2650 -3.6963
  279SOL    HW2  837   1.035   0.115   0.922 -1.5194 -1.2459  0.7015
  280SOL     OW  838   1.132   1.014   0.351 -0.7075  0.1037  0.2901
  280SOL    HW1  839   1.218   1.030   0.404 -2.0249  0.7811 -1.8908
  280SOL    HW2  840   1.109   1.091   0.284 -2.3693  2.7310  0.2803
  281SOL     OW  841   2.243   1.551   0.215  0.5877  0.3696  0.0798
  281SOL    HW1  842   2.341   1.572   0.231 -2.2619 -2.5390 -0.0081
  281SOL    HW2  843   2.236   1.495   0.128 -0.4648  2.0117 -0.3587
  282SOL     OW  844   2.623   1.342   0.086 -0.0893  0.0343  0.3564
  282SOL    HW1  845   2.571   1.286   0.151  1.5843 -1.4923  0.3138
  282SOL    HW2  846   2.687   1.397   0.140 -1.3718 -0.2717  1.8474
  283SOL     OW  847   1.712   2.827   2.769  0.0257  0.1159 -0.0761
  283SOL    HW1  848   1.720   2.857   2.672 -0.9645  0.1989 -1.1842
  283SOL    HW2  849   1.764   2.894   2.818  0.0710  2.1857 -2.7478
  284SOL     OW  850   0.855   3.082   2.884  0.0130  0.1437  0.1717
  284SOL    HW1  851   0.893   0.080   2.867  1.4641 -1.5090  0.2469
  284SOL    HW2  852   0.874   3.055   2.981  0.6179  0.5138  1.2095
  285SOL     OW  853   2.020   1.963   2.686 -0.0339 -0.5713 -0.6538
  285SOL    HW1  854   2.116   1.971   2.659 -1.8226  0.0220 -1.3772
  285SOL    HW2  855   1.953   2.004   2.620 -0.4360 -1.0880  1.9312
  286SOL     OW  856   1.446   1.657   0.918  0.3620 -0.1963 -0.2396
  286SOL    HW1  857   1.430   1.726   0.843 -0.3526  2.9505 -0.7506
  286SOL    HW2  858   1.430   1.561   0.883 -0.9304 -0.4399  0.7511
  287SOL     OW  859   1.788   3.086   1.514 -0.7415  0.4100  0.1787
  287SOL    HW1  860   1.812   3.048   1.604 -1.2629  0.1764  1.5393
  287SOL    HW2  861   1.691   3.087   1.505  4.4204  0.2057 -1.2633
  288SOL     OW  862   0.657   2.714   2.367  0.0109  0.3393  0.1876
  288SOL    HW1  863   0.660   2.813   2.375 -0.4550 -1.9101 -1.2667
  288SOL    HW2  864   0.646   2.678   2.273  0.2549 -0.8907 -3.1732
  289SOL     OW  865   0.183   1.361   0.622 -0.1363 -0.6387  0.2977
  289SOL    HW1  866   0.152   1.277   0.579 -1.2497 -1.0489  2.5402
  289SOL    HW2  867   0.204   1.335   0.716  0.8608  0.8138 -0.5623
  290SOL     OW  868   1.193   1.871   1.572  0.2482  0.0120  0.3272
  290SOL    HW1  869   1.246   1.912   1.496 -1.8813 -1.1959  0.1349
  290SOL    HW2  870   1.220   1.915   1.661  1.5499  0.1967  0.6050
  291SOL     OW  871   1.959   0.117   0.651 -0.3762  0.2668  0.3660
  291SOL    HW1  872   1.908   0.083   0.732  3.4579 -1.0548  0.5609
  291SOL    HW2  873   1.958   0.047   0.579  2.5213  0.3422  1.8903
  292SOL     OW  874   0.278   0.353   1.370  0.0966  0.3902  0.1029
  292SOL    HW1  875   0.175   0.362   1.375 -0.1958 -0.7998  1.5115
  292SOL    HW2  876   0.326   0.423   1.428  2.6758  0.5813 -2.6086
  293SOL     OW  877   2.382   1.692   0.822 -0.1392  0.1423 -0.3709
  293SOL    HW1  878   2.459   1.703   0.750  1.8438  2.4628 -1.6609
  293SOL    HW2  879   2.335   1.608   0.801 -0.6239  0.5206 -2.7275
  294SOL     OW  880   0.267   0.187   2.212 -0.5670 -0.4406 -0.2071
  294SOL    HW1  881   0.239   0.112   2.157  0.2817  3.1876  1.4784
  294SOL    HW2  882   0.364   0.189   2.239 -2.7857  0.1683  0.4180
  295SOL     OW  883   0.883   1.252   0.357  0.0059  0.5979  0.1231
  295SOL    HW1  884   0.884   1.169   0.408  0.6121  2.2647  0.7157
  295SOL    HW2  885   0.795   1.269   0.312  0.6472 -1.4956 -3.2266
  296SOL     OW  886   2.013   1.860   1.103  0.0221  0.7026 -0.2942
  296SOL    HW1  887   2.080   1.800   1.062 -3.8306  2.3060  0.0712
  296SOL    HW2  888   2.059   1.923   1.169 -1.6983 -0.0791  0.2144
  297SOL     OW  889   1.801   0.626   2.903 -0.3837 -0.3658 -0.2567
  297SOL    HW1  890   1.803   0.726   2.931  1.3652 -0.3067  1.3481
  297SOL    HW2  891   1.761   0.614   2.809 -1.0893  1.2863 -1.8091
  298SOL     OW  892   1.412   0.058   2.749 -0.1792  0.3579 -0.0256
  298SOL    HW1  893   1.450   3.064   2.745 -1.5377  1.8678  0.0559
  298SOL    HW2  894   1.472   0.125   2.794 -0.2772  1.7821 -3.3503
  299SOL     OW  895   0.955   0.156   2.107  0.5649  0.0840  0.2261
  299SOL    HW1  896   1.037   0.168   2.165  0.0172 -0.1672 -2.8277
  299SOL    HW2  897   0.975   0.101   2.023 -1.0026 -1.2441  1.0626
  300SOL     OW  898   2.620   0.118   1.608  0.4390 -0.2163 -0.2761
  300SOL    HW1  899   2.619   0.067   1.699  1.7303 -0.7306  1.4631
  300SOL    HW2  900   2.585   0.213   1.621 -1.4519  3.6602 -0.1207
  301SOL     OW  901   2.165   0.818   1.825 -0.2814  0.4206  0.1760
  301SOL    HW1  902   2.222   0.854   1.751 -2.6376  0.3416 -0.0526
  301SOL    HW2  903   2.106   0.742   1.789  2.0272 -1.1452 -0.0803
  302SOL     OW  904   0.701   2.848   0.156  0.0060  0.4883  0.0854
  302SOL    HW1  905   0.610   2.898   0.154  0.4502  5.2113  1.1664
  302SOL    HW2  906   0.700   2.786   0.238 -0.1730 -0.4347 -4.2721
  303SOL     OW  907   1.873   1.901   2.029 -0.6748 -0.3325 -0.5069
  303SOL    HW1  908   1.921   1.867   1.946  0.7977  3.3611 -1.7741
  303SOL    HW2  909   1.795   1.960   2.008  0.6420 -0.0219  0.0560
  304SOL     OW  910   0.333   0.303   0.813 -0.1343 -0.2575 -0.1538
  304SOL    HW1  911   0.402   0.232   0.803  0.0824  0.9748 -0.7436
  304SOL    HW2  912   0.377   0.391   0.797  0.9929 -0.3809  1.0339
  305SOL     OW  913   0.740   0.899   0.564  0.1226 -0.0750 -0.2457
  305SOL    HW1  914   0.728   0.926   0.465  0.4890 -0.5458 -0.5063
  305SOL    HW2  915   0.672   0.827   0.592  0.8280  0.5612 -0.8588
  306SOL     OW  916   0.446   1.319   3.066  0.8752 -0.7151 -0.2647
  306SOL    HW1  917   0.529   1.376   3.067  0.3703 -3.3819 -0.2678
  306SOL    HW2  918   0.413   1.300   0.067  0.2464 -1.1108  2.5056
  307SOL     OW  919   0.812   0.383   1.996  0.3072 -0.9565  0.0822
  307SOL    HW1  920   0.837   0.353   1.902  0.3041 -1.7212  0.1085
  307SOL    HW2  921   0.868   0.325   2.060  1.3896 -0.4466  3.1902
  308SOL     OW  922   0.729   0.288   0.777 -0.2526  0.3814  0.1927
  308SOL    HW1  923   0.713   0.386   0.800  1.1291 -1.9181 -0.4123
  308SOL    HW2  924   0.738   0.272   0.675 -1.0818  0.1783  0.6527
  309SOL     OW  925   2.202   1.216   0.459 -0.3779 -0.1053 -0.2236
  309SOL    HW1  926   2.174   1.317   0.476 -1.1599  1.2423  1.9380
  309SOL    HW2  927   2.229   1.216   0.362 -1.0350 -2.4299 -0.0643
  310SOL     OW  928   0.867   1.260   0.044 -0.0214 -0.1387  0.0099
  310SOL    HW1  929   0.946   1.318   0.011 -1.1736 -1.0468  0.0157
  310SOL    HW2  930   0.815   1.308   0.114 -2.1315 -2.3550 -0.0882
  311SOL     OW  931   2.029   2.564   2.186  0.0459  0.3987 -0.6860
  311SOL    HW1  932   2.044   2.487   2.119 -2.0300 -2.0770  1.3861
  311SOL    HW2  933   1.928   2.585   2.188 -2.9291 -0.2734  1.1612
  312SOL     OW  934   2.335   3.007   3.033  0.3554 -0.3697 -0.2438
  312SOL    HW1  935   2.245   3.027   3.082 -2.1691 -0.7824  1.4151
  312SOL    HW2  936   2.391   3.090   3.004  1.8191 -0.6091 -1.5938
  313SOL     OW  937   0.658   0.402   2.975 -0.1477 -0.0601  0.1867
  313SOL    HW1  938   0.684   0.485   3.026  0.9309 -0.1173 -0.1119
  313SOL    HW2  939   0.577   0.416   2.927  2.8414 -0.0844 -0.1876
  314SOL     OW  940   2.577   1.462   2.698  0.2950 -0.4724 -0.4176
  314SOL    HW1  941   2.530   1.443   2.787  1.4332 -0.4199 -0.0402
  314SOL    HW2  942   2.661   1.515   2.711 -2.7252 -3.1825  1.5869
  315SOL     OW  943   1.773   0.771   1.950 -0.0322  0.8197 -0.0182
  315SOL    HW1  944   1.786   0.671   1.918 -1.2768 -2.8590 -1.0128
  315SOL    HW2  945   1.782   0.774   2.054  3.2647  0.9856  0.8072
  316SOL     OW  946   2.928   0.982   0.498  0.2828 -0.4134  0.3479
  316SOL    HW1  947   2.828   0.987   0.463 -3.6885  0.1894  1.2170
  316SOL    HW2  948   2.928   0.940   0.585 -1.6143  0.9743 -0.4078
  317SOL     OW  949   0.505   3.056   0.173  0.4275  0.0071  0.2679
  317SOL    HW1  950   0.523   0.013   0.086  0.8963  0.1955 -1.8206
  317SOL    HW2  951   0.579   3.075   0.242 -0.4678  1.2001  4.5430
  318SOL     OW  952   1.719   2.593   1.275 -0.2213 -0.4138  0.1994
  318SOL    HW1  953   1.699   2.569   1.370  3.1409  1.2217 -3.5864
  318SOL    HW2  954   1.777   2.517   1.235  0.4768  1.6255  1.4458
  319SOL     OW  955   1.053   1.490   0.315 -0.2698 -0.5103  0.1165
  319SOL    HW1  956   1.004   1.403   0.343  0.3347 -0.4993  0.5686
  319SOL    HW2  957   1.138   1.476   0.267 -2.3927 -2.3929  1.1628
  320SOL     OW  958   0.658   2.072   1.083 -0.3313  0.1487 -0.7108
  320SOL    HW1  959   0.565   2.086   1.045  0.4687  0.6620  0.3666
  320SOL    HW2  960   0.669   2.116   1.173 -0.0484  1.4855  0.2689
  321SOL     OW  961   2.393   2.591   2.115  0.2695  0.4490  0.0330
  321SOL    HW1  962   2.336   2.504   2.128 -0.6618 -4.7689  1.9091
  321SOL    HW2  963   2.344   2.673   2.144 -2.3161 -0.6797  2.0221
  322SOL     OW  964   2.387   2.362   2.411 -0.0526  0.2261  0.4388
  322SOL    HW1  965   2.426   2.289   2.470 -1.3170  0.2691 -0.6983
  322SOL    HW2  966   2.367   2.450   2.454  1.7740  2.6360 -2.3644
  323SOL     OW  967   2.456   0.925   0.891 -0.0411 -0.0863 -0.0503
  323SOL    HW1  968   2.358   0.911   0.867 -3.2690 -0.6484  0.6230
  323SOL    HW2  969   2.506   0.865   0.822  0.9814 -2.0165  2.5889
  324SOL     OW  970   2.282   2.323   2.161  0.0448 -0.0438  0.6293
  324SOL    HW1  971   2.343   2.337   2.243  4.3151 -1.7576  0.6664
  324SOL    HW2  972   2.326   2.253   2.095  1.8600 -1.2321 -1.3511
  325SOL     OW  973   1.408   0.508   2.460  0.8262 -0.4991 -0.0440
  325SOL    HW1  974   1.339   0.444   2.430  1.0234  1.3565  1.0575
  325SOL    HW2  975   1.393   0.540   2.554 -0.4968 -0.6838 -1.3789
  326SOL     OW  976   2.560   2.480   1.033 -0.2436 -0.3952  0.0221
  326SOL    HW1  977   2.562   2.574   0.992  0.2464  1.8833 -0.0759
  326SOL    HW2  978   2.466   2.434   1.030 -0.3960  0.8104 -1.9873
  327SOL     OW  979   2.475   2.942   0.225 -0.4899 -0.1888  0.2385
  327SOL    HW1  980   2.413   2.922   0.145  2.1674 -2.0658 -0.3939
  327SOL    HW2  981   2.481   3.039   0.245 -0.2218 -1.4235  1.0268
  328SOL     OW  982   0.742   0.586   0.638  0.0575  0.0075 -0.3718
  328SOL    HW1  983   0.800   0.645   0.700  1.0184  0.5443 -0.9984
  328SOL    HW2  984   0.653   0.559   0.689 -0.7634  0.9628 -0.5911
  329SOL     OW  985   1.954   0.641   1.248  0.1031  0.3675 -0.2088
  329SOL    HW1  986   1.865   0.653   1.199  0.3125 -0.2571  0.6589
  329SOL    HW2  987   2.021   0.606   1.182  0.3924 -0.1396 -3.7939
  330SOL     OW  988   0.701   0.533   0.372 -0.3765 -0.0055 -0.0725
  330SOL    HW1  989   0.764   0.604   0.336  2.5375  0.5288 -0.3739
  330SOL    HW2  990   0.703   0.549   0.472  0.0843  1.5666  3.2962
  331SOL     OW  991   0.824   1.786   1.887 -0.1135 -0.2933 -0.0092
  331SOL    HW1  992   0.910   1.754   1.932  0.7773  1.4647 -0.0695
  331SOL    HW2  993   0.835   1.802   1.789  2.4905 -1.1700  3.7308
  332SOL     OW  994   2.081   2.384   1.963 -0.0078 -0.7132  0.1960
  332SOL    HW1  995   2.153   2.333   2.011 -1.2818 -0.6668  0.8010
  332SOL    HW2  996   2.124   2.453   1.903  0.8324  0.7572  0.5873
  333SOL     OW  997   3.069   0.049   1.059  0.5441 -0.1576 -0.3135
  333SOL    HW1  998   3.007   0.115   1.104 -2.9329  1.8290  0.9558
  333SOL    HW2  999   3.020   3.060   1.025 -0.0602 -0.9789 -1.8520
  334SOL     OW 1000   2.977   1.778   0.702  0.0833  0.3353  0.2340
  334SOL    HW1 1001   2.920   1.749   0.617  0.5020 -0.4892 -0.9877
  334SOL    HW2 1002   3.064   1.823   0.671 -0.7977 -1.2357 -0.2887
  335SOL     OW 1003   0.425   2.540   2.702  0.8294  0.4866  0.1513
  335SOL    HW1 1004   0.466   2.484   2.777 -0.3246 -1.3728  1.7089
  335SOL    HW2 1005   0.366   2.610   2.746 -0.1527 -0.0553  2.7302
  336SOL     OW 1006   0.264   2.796   2.094  0.3911  0.4703  0.2075
  336SOL    HW1 1007   0.197   2.731   2.139  2.6326  0.3259  2.2854
  336SOL    HW2 1008   0.219   2.883   2.068  1.8506  0.7450 -1.1067
  337SOL     OW 1009   1.236   2.083   1.817  0.1235  0.5035 -0.2384
  337SOL    HW1 1010   1.306   2.101   1.746  0.0365  0.3076  1.5309
  337SOL    HW2 1011   1.257   2.008   1.884  1.5123 -1.1362  0.8220
  338SOL     OW 1012   1.333   0.064   2.471  0.2205 -0.1738  0.2701
  338SOL    HW1 1013   1.255   3.093   2.466 -0.4136  0.3230  1.7711
  338SOL    HW2 1014   1.364   0.072   2.566  1.4176 -1.1398  1.1264
  339SOL     OW 1015   0.166   0.699   2.581  0.1136  0.3350  0.1664
  339SOL    HW1 1016   0.158   0.759   2.497 -0.5214  1.5154 -0.3047
  339SOL    HW2 1017   0.202   0.759   2.651 -0.2449 -1.6671 -2.0138
  340SOL     OW 1018   2.296   0.538   1.388  0.3131 -0.2642  0.3785
  340SOL    HW1 1019   2.307   0.601   1.309 -1.0676  0.7808 -0.3657
  340SOL    HW2 1020   2.265   0.446   1.360 -0.9865 -0.2466  0.3450
  341SOL     OW 1021   2.084   1.400   1.296  0.4138  0.1724 -0.2018
  341SOL    HW1 1022   2.179   1.421   1.311 -3.7358 -0.1402 -2.2917
  341SOL    HW2 1023   2.081   1.335   1.214 -0.3815  2.2379 -1.7416
  342SOL     OW 1024   2.031   2.827   2.833 -0.0665 -0.0547 -0.5802
  342SOL    HW1 1025   1.963   2.895   2.876 -0.5235  1.0141  2.7434
  342SOL    HW2 1026   2.060   2.760   2.902 -1.3070 -0.0947 -2.2112
  343SOL     OW 1027   3.014   2.526   1.134  0.3639  0.6549 -0.6262
  343SOL    HW1 1028   0.012   2.494   1.167  1.2005  1.1167  1.4714
  343SOL    HW2 1029   2.975   2.601   1.191 -0.3929 -0.3887 -0.2574
  344SOL     OW 1030   2.297   3.065   1.016  0.3278  0.1911 -0.0839
  344SOL    HW1 1031   2.345   0.057   1.034  0.0922  1.3377 -1.0634
  344SOL    HW2 1032   2.201   3.066   1.059  1.0349  1.0780 -0.9330
  345SOL     OW 1033   2.644   2.312   0.390  0.1084 -0.0919 -0.1582
  345SOL    HW1 1034   2.690   2.324   0.301  1.3657 -0.6137  1.1619
  345SOL    HW2 1035   2.599   2.400   0.420 -1.1352 -0.3188 -2.2922
  346SOL     OW 1036   1.602   2.020   1.637 -0.2075 -0.1993  0.4394
  346SOL    HW1 1037   1.668   2.034   1.714 -0.3993  1.0829  1.1542
  346SOL    HW2 1038   1.515   2.080   1.631 -0.9332  2.9558 -1.7734
  347SOL     OW 1039   1.346   1.523   1.245  0.0147  0.2233  0.1470
  347SOL    HW1 1040   1.274   1.572   1.192 -2.0704  0.7441 -0.1692
  347SOL    HW2 1041   1.417   1.587   1.275  1.4529  0.1391 -0.8885
  348SOL     OW 1042   0.614   1.694   1.709 -0.2397 -0.3517  0.3289
  348SOL    HW1 1043   0.653   1.781   1.680 -1.0099 -1.2585 -2.4533
  348SOL    HW2 1044   0.680   1.618   1.725 -0.5470  1.1997  1.8092
  349SOL     OW 1045   1.545   1.436   1.532  0.4948 -0.0113 -0.2200
  349SOL    HW1 1046   1.518   1.395   1.625 -1.8106  0.6244  1.5381
  349SOL    HW2 1047   1.539   1.536   1.529  0.6120 -3.5498 -0.3553
  350SOL     OW 1048   2.263   2.326   0.658  0.3865  0.0957 -0.1621
  350SOL    HW1 1049   2.347   2.291   0.703 -0.9282  0.9944 -0.0824
  350SOL    HW2 1050   2.251   2.293   0.562  0.1129 -0.4898  3.5768
  351SOL     OW 1051   0.309   2.986   1.627  0.7013 -0.2656  0.0639
  351SOL    HW1 1052   0.297   2.893   1.590  2.2116 -1.8175  2.0969
  351SOL    HW2 1053   0.269   3.058   1.566  1.7307  2.1797 -1.5897
  352SOL     OW 1054   0.546   1.120   0.631 -0.2334 -0.0028  0.4352
  352SOL    HW1 1055   0.607   1.181   0.675 -5.0491 -0.3027  0.3155
  352SOL    HW2 1056   0.579   1.027   0.635  0.4140 -0.4830  3.8487
  353SOL     OW 1057   1.086   1.798   2.692 -0.0829 -0.5837 -0.6489
  353SOL    HW1 1058   1.048   1.889   2.722 -1.4247  1.2171  0.2862
  353SOL    HW2 1059   1.032   1.723   2.728 -1.0268 -0.1558  1.3087
  354SOL     OW 1060   1.746   2.735   1.830 -0.0984  0.3251 -0.2457
  354SOL    HW1 1061   1.694   2.740   1.916  2.9441 -2.9007  0.7518
  354SOL    HW2 1062   1.787   2.638   1.817 -1.0403 -2.5756  0.8567
  355SOL     OW 1063   2.182   1.184   0.140 -0.5024 -0.2670  0.0673
  355SOL    HW1 1064   2.225   1.272   0.108 -0.4494  1.6385  2.0040
  355SOL    HW2 1065   2.080   1.194   0.135  0.2626  0.9641  1.1534
  356SOL     OW 1066   0.375   2.098   1.032 -0.0204 -0.1727 -0.2817
  356SOL    HW1 1067   0.277   2.119   1.046  1.3088 -1.2377 -0.1112
  356SOL    HW2 1068   0.397   2.032   1.107 -0.5346  1.2886 -0.8725
  357SOL     OW 1069   2.967   2.828   1.778 -0.4665 -0.3516 -0.4325
  357SOL    HW1 1070   3.005   2.739   1.759 -1.5102  2.8309  0.9055
  357SOL    HW2 1071   2.932   2.865   1.695  2.2859 -2.7111  1.5205
  358SOL     OW 1072   2.410   1.764   1.663  0.0075  0.4087  0.5528
  358SOL    HW1 1073   2.432   1.787   1.564 -1.7260 -1.6422  1.1070
  358SOL    HW2 1074   2.393   1.664   1.664 -1.0634  2.0826 -0.9627
  359SOL     OW 1075   1.982   2.774   2.578  0.6053 -0.5232  0.3540
  359SOL    HW1 1076   2.000   2.789   2.678  1.1362  0.5741  1.4709
  359SOL    HW2 1077   2.011   2.682   2.543  2.5894 -1.3562 -0.3087
  360SOL     OW 1078   0.956   2.879   0.865  0.0909  0.0198 -0.0148
  360SOL    HW1 1079   0.861   2.908   0.848  0.3968  0.0545  0.6455
  360SOL    HW2 1080   1.011   2.954   0.896  0.5241 -2.5276 -1.7497
  361SOL     OW 1081   1.831   0.383   0.592 -0.1390 -0.0021 -0.1704
  361SOL    HW1 1082   1.869   0.291   0.590 -2.5332  2.0154 -1.8056
  361SOL    HW2 1083   1.817   0.404   0.693 -3.3522  1.2661 -0.8016
  362SOL     OW 1084   1.430   0.688   1.384  0.1974 -0.0920  0.2467
  362SOL    HW1 1085   1.469   0.782   1.380 -0.6509 -1.0049  0.5138
  362SOL    HW2 1086   1.327   0.689   1.393 -0.0035  2.6588 -1.4927
  363SOL     OW 1087   1.973   1.551   2.172  0.2336  0.0640  0.5432
  363SOL    HW1 1088   1.981   1.484   2.245  0.3293  0.3160 -3.1087
  363SOL    HW2 1089   2.063   1.581   2.126  1.3428  0.8278 -3.1016
  364SOL     OW 1090   0.611   0.797   1.204 -0.0968 -0.1386  0.1619
  364SOL    HW1 1091   0.532   0.749   1.163 -0.4591  2.4371  1.3865
  364SOL    HW2 1092   0.691   0.732   1.205 -1.4421 -0.8252 -1.6452
  365SOL     OW 1093   0.456   0.316   2.523  0.2067  0.5737  0.2516
  365SOL    HW1 1094   0.488   0.414   2.521 -1.2072  0.0898  1.1535
  365SOL    HW2 1095   0.498   0.260   2.449 -2.5402  2.7039 -0.1528
  366SOL     OW 1096   2.293   1.914   2.633  0.3951  0.0734 -0.3932
  366SOL    HW1 1097   2.380   1.857   2.629 -0.1289  0.3821 -0.6744
  366SOL    HW2 1098   2.312   2.010   2.663 -0.1656 -0.6743 -1.3638
  367SOL     OW 1099   2.804   2.530   0.005  0.0248 -0.5032  0.2011
  367SOL    HW1 1100   2.897   2.563   0.017 -1.3259  2.6204 -2.7613
  367SOL    HW2 1101   2.775   2.545   3.006  0.5738 -1.5332  0.0000
  368SOL     OW 1102   3.077   1.634   0.924  0.4732 -0.3859 -0.3818
  368SOL    HW1 1103   3.056   1.536   0.918  0.1730  2.9864  0.2341
  368SOL    HW2 1104   3.039   1.685   0.847 -1.4310 -0.1712  1.3179
  369SOL     OW 1105   0.579   2.986   2.437 -0.0668  0.8133 -0.1037
  369SOL    HW1 1106   0.605   3.015   2.531 -0.4867 -0.0382 -2.4196
  369SOL    HW2 1107   0.645   3.020   2.370  0.4739 -0.0197  0.1241
  370SOL     OW 1108   2.901   0.327   0.570  0.2850 -1.1356 -0.0400
  370SOL    HW1 1109   2.889   0.432   0.579  0.2086  0.8893 -2.0845
  370SOL    HW2 1110   2.816   0.282   0.599 -1.1840  0.7426 -0.2446
  371SOL     OW 1111   1.396   2.171   1.609  0.1494  0.1272 -0.1154
  371SOL    HW1 1112   1.384   2.162   1.510  0.1767  1.7000  1.5600
  371SOL    HW2 1113   1.382   2.266   1.630  1.1958 -1.9690 -2.7443
  372SOL     OW 1114   2.883   0.355   2.305 -0.2870  0.4926  0.0927
  372SOL    HW1 1115   2.874   0.253   2.317 -0.6060 -3.0514  1.8274
  372SOL    HW2 1116   2.940   0.406   2.379 -1.0883  1.6890 -0.0634
  373SOL     OW 1117   0.140   2.336   0.531  0.0283 -0.3525 -0.5923
  373SOL    HW1 1118   0.216   2.404   0.550  0.7682 -0.9707 -0.1733
  373SOL    HW2 1119   0.049   2.387   0.528  0.5079  2.8312 -0.9146
  374SOL     OW 1120   0.212   2.966   2.585  0.2657 -0.3704 -0.6959
  374SOL    HW1 1121   0.293   3.003   2.637 -0.3180 -0.7516  1.1037
  374SOL    HW2 1122   0.243   2.934   2.492  0.7429  2.8035 -2.2200
  375SOL     OW 1123   0.395   0.062   2.690  0.2246  0.2425  0.6949
  375SOL    HW1 1124   0.385   0.111   2.779 -2.9655 -0.6792 -1.7229
  375SOL    HW2 1125   0.386   0.132   2.615 -2.2058 -1.2524  1.9630
  376SOL     OW 1126   2.922   2.181   1.714 -0.1119 -0.0548 -0.2012
  376SOL    HW1 1127   2.977   2.100   1.722 -1.7014  0.8938 -0.9414
  376SOL    HW2 1128   2.824   2.153   1.703  0.7537 -2.6636  1.4747
  377SOL     OW 1129   1.443   2.887   2.828  0.0213 -0.0094  0.4330
  377SOL    HW1 1130   1.425   2.897   2.928  2.0951  0.3903 -3.6080
  377SOL    HW2 1131   1.540   2.856   2.805  3.3570 -0.8647  2.3006
  378SOL     OW 1132   2.966   0.257   2.652 -0.0940 -0.5548 -0.0546
  378SOL    HW1 1133   2.992   0.330   2.586  1.1284  0.7387 -1.0636
  378SOL    HW2 1134   2.989   0.164   2.613 -2.0494 -0.5099  1.4518
  379SOL     OW 1135   0.513   1.049   0.162 -0.5968 -0.1515 -0.0157
  379SOL    HW1 1136   0.518   1.025   0.060  0.1715  0.0009 -1.2151
  379SOL    HW2 1137   0.453   0.977   0.202 -2.2312  0.2898 -2.5239
  380SOL     OW 1138   0.397   1.563   1.898  0.8871  0.3819 -0.3248
  380SOL    HW1 1139   0.449   1.595   1.818 -1.5643  3.7059 -0.8887
  380SOL    HW2 1140   0.455   1.536   1.979  0.9149 -2.0903 -0.3498
  381SOL     OW 1141   0.231   1.070   2.114 -0.0489  0.5522  0.5014
  381SOL    HW1 1142   0.278   0.999   2.058  0.2120 -3.4494 -0.7959
  381SOL    HW2 1143   0.187   1.145   2.068 -0.3676 -1.4707  2.1594
  382SOL     OW 1144   2.186   1.975   0.398  0.6238  0.2607 -0.1333
  382SOL    HW1 1145   2.256   1.941   0.338  1.0346  1.5215  3.2869
  382SOL    HW2 1146   2.112   1.907   0.401  2.4280  2.0757  1.3842
  383SOL     OW 1147   0.382   1.752   0.080  0.2022  0.4585 -0.4115
  383SOL    HW1 1148   0.407   1.689   0.156  1.8511 -1.3707 -3.0623
  383SOL    HW2 1149   0.466   1.775   0.027 -0.2620 -0.4656  2.0929
  384SOL     OW 1150   0.754   2.243   2.594 -0.3839 -0.0091 -0.3200
  384SOL    HW1 1151   0.710   2.215   2.682  2.1450 -1.4736  0.6418
  384SOL    HW2 1152   0.728   2.337   2.568 -0.7779  0.0461 -2.9181
  385SOL     OW 1153   2.071   1.827   0.722 -0.1096 -0.0907  0.2541
  385SOL    HW1 1154   2.167   1.806   0.744 -0.4461 -1.1202 -0.5673
  385SOL    HW2 1155   2.067   1.923   0.684 -1.9826  1.6504  0.6717
  386SOL     OW 1156   2.322   1.065   1.402 -0.6117 -0.4820  0.0082
  386SOL    HW1 1157   2.345   1.022   1.309  4.4036 -1.3528 -3.7718
  386SOL    HW2 1158   2.335   1.164   1.406 -1.1724 -1.5040  2.6910
  387SOL     OW 1159   2.799   1.445   2.051  0.3515  0.2607 -0.1950
  387SOL    HW1 1160   2.745   1.526   2.061  1.7481 -1.5910 -1.0579
  387SOL    HW2 1161   2.830   1.415   2.143  2.8806 -1.8442  0.8933
  388SOL     OW 1162   0.486   1.544   2.200  0.3103  0.1740 -0.0771
  388SOL    HW1 1163   0.520   1.638   2.196 -0.6794 -0.3728 -1.0417
  388SOL    HW2 1164   0.385   1.556   2.196 -0.4618 -0.1920  1.1014
  389SOL     OW 1165   0.915   0.995   1.991 -0.2125  0.6364  0.3049
  389SOL    HW1 1166   0.917   0.923   1.916  1.6097  2.7443  0.0840
  389SOL    HW2 1167   0.973   0.969   2.073 -1.4236  0.1641 -0.5890
  390SOL     OW 1168   2.434   3.021   0.783  0.3765 -0.1823  0.1729
  390SOL    HW1 1169   2.363   3.040   0.705 -2.2358  2.9568  1.0265
  390SOL    HW2 1170   2.392   3.037   0.874 -0.5502 -1.0690 -2.6920
  391SOL     OW 1171   1.965   1.656   1.312 -0.0363 -0.2659  0.3378
  391SOL    HW1 1172   1.987   1.564   1.281  0.0592  0.2696  1.7858
  391SOL    HW2 1173   1.978   1.722   1.235 -0.3238  2.5294 -1.4700
  392SOL     OW 1174   2.716   2.794   0.163  0.6051 -0.4698  0.1331
  392SOL    HW1 1175   2.628   2.829   0.200  0.2447  1.5264  0.6389
  392SOL    HW2 1176   2.761   2.733   0.230 -1.4045  0.3788  0.6302
  393SOL     OW 1177   1.708   2.419   3.027 -0.6854 -0.1565  0.1973
  393SOL    HW1 1178   1.723   2.482   2.943  0.0962 -1.5960 -0.4618
  393SOL    HW2 1179   1.793   2.361   3.047  1.1808 -0.0138  0.1874
  394SOL     OW 1180   3.000   2.340   2.440 -0.3960 -0.9639 -0.2395
  394SOL    HW1 1181   2.995   2.370   2.538  0.8574  1.2085 -0.1334
  394SOL    HW2 1182   3.084   2.293   2.416  0.0131  0.1040 -0.7320
  395SOL     OW 1183   0.077   0.203   0.656  0.1942  0.5238 -0.1545
  395SOL    HW1 1184   3.091   0.255   0.629 -2.6973 -1.5154  1.0921
  395SOL    HW2 1185   0.127   0.245   0.732 -0.9573 -1.6316 -2.4628
  396SOL     OW 1186   1.815   0.638   0.513 -0.6245 -0.5891  0.2117
  396SOL    HW1 1187   1.781   0.686   0.598 -1.0446  1.4395  0.6881
  396SOL    HW2 1188   1.820   0.536   0.530 -0.1751  0.7642  0.7720
  397SOL     OW 1189   0.366   0.536   2.169 -0.0918 -0.5447  0.7038
  397SOL    HW1 1190   0.430   0.470   2.123 -1.8623 -1.3378 -0.3159
  397SOL    HW2 1191   0.276   0.530   2.127  0.9563 -3.2632 -1.8870
  398SOL     OW 1192   1.008   3.074   0.309 -0.5349 -0.2170  0.0997
  398SOL    HW1 1193   1.101   0.007   0.272  3.2538 -0.5988  3.1671
  398SOL    HW2 1194   0.997   0.013   0.405  1.6633 -1.0550 -0.3653
  399SOL     OW 1195   2.307   0.507   1.838  0.4351 -0.0404 -0.0162
  399SOL    HW1 1196   2.306   0.548   1.746  0.4598 -0.2909 -1.2222
  399SOL    HW2 1197   2.344   0.572   1.904  0.4586 -0.9332  1.1453
  400SOL     OW 1198   1.009   2.188   2.497  0.3510 -0.1373 -0.7428
  400SOL    HW1 1199   0.919   2.201   2.543  1.4279  0.6490  0.8285
  400SOL    HW2 1200   1.000   2.141   2.405 -1.2675  2.3760 -0.5196
  401SOL     OW 1201   0.616   0.866   2.565 -0.0550 -0.0887  0.4049
  401SOL    HW1 1202   0.607   0.789   2.630  2.7205  1.6112  1.3230
  401SOL    HW2 1203   0.575   0.850   2.473  1.2368  1.1684  0.3508
  402SOL     OW 1204   0.366   2.492   0.575 -0.0034  0.0659  0.2401
  402SOL    HW1 1205   0.447   2.431   0.596  1.3230 -1.1283 -0.0453
  402SOL    HW2 1206   0.322   2.537   0.654 -0.3691 -0.5312 -1.2226
  403SOL     OW 1207   0.071   1.251   1.988 -0.1973  0.0863  0.7394
  403SOL    HW1 1208   0.112   1.239   1.898 -2.4821  1.8768  1.6542
  403SOL    HW2 1209   3.079   1.209   1.983  2.9882  0.9688 -1.1661
  404SOL     OW 1210   2.777   2.532   2.419 -0.0259 -0.1083 -0.4066
  404SOL    HW1 1211   2.721   2.557   2.341  1.2860  2.0562 -0.4791
  404SOL    HW2 1212   2.840   2.459   2.403 -2.6595  3.3716  1.0908
  405SOL     OW 1213   0.239   0.296   1.778 -0.3346  0.1196  0.3023
  405SOL    HW1 1214   0.326   0.243   1.786  0.6004  0.5151 -0.5507
  405SOL    HW2 1215   0.175   0.246   1.716  0.3698  0.5932 -1.2211
  406SOL     OW 1216   1.503   1.484   2.624  0.1138  0.2465  0.2034
  406SOL    HW1 1217   1.587   1.544   2.621  2.0676  2.3855 -1.3379
  406SOL    HW2 1218   1.444   1.518   2.550  0.3833  1.2437 -0.6482
  407SOL     OW 1219   1.698   0.890   2.655  0.2677 -0.2599 -0.4952
  407SOL    HW1 1220   1.715   0.961   2.726  0.6083 -4.1568 -1.2001
  407SOL    HW2 1221   1.760   0.909   2.580 -3.8616 -2.2039  1.2818
  408SOL     OW 1222   0.353   2.903   2.364  0.5835  0.2721 -0.0235
  408SOL    HW1 1223   0.449   2.930   2.380 -1.1745  1.0467  0.3888
  408SOL    HW2 1224   0.335   2.909   2.268 -0.9067 -0.2958  1.5362
  409SOL     OW 1225   0.053   2.126   1.049  0.1819  0.1384 -0.5160
  409SOL    HW1 1226   3.083   2.077   0.989  0.3053 -0.1710 -1.5815
  409SOL    HW2 1227   0.004   2.176   1.129 -3.0889 -0.2971  1.3643
  410SOL     OW 1228   2.506   1.649   0.252  1.2767 -0.5433 -0.0263
  410SOL    HW1 1229   2.519   1.579   0.321 -1.3551  1.5707  0.1448
  410SOL    HW2 1230   2.583   1.657   0.184  1.6602 -1.2464 -0.5474
  411SOL     OW 1231   2.862   0.243   1.271 -0.4336 -0.3386  0.0221
  411SOL    HW1 1232   2.829   0.165   1.325  4.2454  1.0220  0.3025
  411SOL    HW2 1233   2.789   0.312   1.276  0.1984 -0.5904 -0.3079
  412SOL     OW 1234   2.048   0.376   1.608  0.3888 -0.0312  0.1376
  412SOL    HW1 1235   1.954   0.388   1.562  2.1876 -0.4047 -0.1122
  412SOL    HW2 1236   2.115   0.344   1.534  3.0016 -3.0822 -0.2759
  413SOL     OW 1237   0.537   0.355   2.036  0.4472 -0.2101  0.5312
  413SOL    HW1 1238   0.497   0.301   1.958 -2.6018  1.4279 -0.6864
  413SOL    HW2 1239   0.638   0.375   2.020  1.7853 -0.1087 -0.2047
  414SOL     OW 1240   2.729   1.204   2.688  0.8336  0.0859 -0.0991
  414SOL    HW1 1241   2.786   1.222   2.769  0.5594 -2.0543 -2.4661
  414SOL    HW2 1242   2.645   1.261   2.678  0.9229 -2.8065  1.0213
  415SOL     OW 1243   0.747   2.666   3.042  0.2561  0.8211  0.5316
  415SOL    HW1 1244   0.840   2.645   2.999 -0.4382 -1.1111  0.8101
  415SOL    HW2 1245   0.762   2.721   0.031  1.5616 -0.9860 -0.5444
  416SOL     OW 1246   1.485   0.201   2.298 -0.0702  0.3360  0.2019
  416SOL    HW1 1247   1.408   0.162   2.358  0.5163  0.2866 -0.2650
  416SOL    HW2 1248   1.458   0.294   2.267 -0.9093  2.4581 -1.0687
  417SOL     OW 1249   0.069   0.550   0.632  0.6650  0.2539 -0.0243
  417SOL    HW1 1250   0.154   0.558   0.575 -0.6304  1.1833  1.5301
  417SOL    HW2 1251   0.095   0.549   0.730 -1.2010 -1.0606 -1.7531
  418SOL     OW 1252   2.563   0.138   0.634 -0.2541  0.0255 -0.6082
  418SOL    HW1 1253   2.514   0.064   0.687 -2.1410 -0.8408  1.9875
  418SOL    HW2 1254   2.513   0.231   0.636 -1.6116  2.3684 -0.2556
  419SOL     OW 1255   0.030   2.930   0.411 -0.5237 -0.1922 -0.3193
  419SOL    HW1 1256   0.083   2.992   0.343  1.8051  1.2761 -0.1688
  419SOL    HW2 1257   3.030   2.967   0.434 -0.5801  1.8033  3.4963
  420SOL     OW 1258   0.232   1.303   1.759 -0.4727  0.1671 -0.0941
  420SOL    HW1 1259   0.247   1.358   1.674 -1.3706  1.8121  2.5448
  420SOL    HW2 1260   0.314   1.242   1.775  0.7370  1.8545 -0.0770
  421SOL     OW 1261   1.817   2.440   1.062  1.0796 -0.2980 -0.3752
  421SOL    HW1 1262   1.877   2.514   1.033 -0.9556 -0.9236  2.2463
  421SOL    HW2 1263   1.751   2.423   0.984 -2.8274 -1.5568 -1.0203
  422SOL     OW 1264   0.538   0.489   1.474  0.0929 -0.0486  0.4529
  422SOL    HW1 1265   0.601   0.511   1.395  2.5807 -0.8383 -1.0786
  422SOL    HW2 1266   0.536   0.574   1.538  0.1079  2.6361  2.4360
  423SOL     OW 1267   0.728   1.376   1.899 -0.3508 -0.2386 -0.0065
  423SOL    HW1 1268   0.740   1.453   1.838  0.1234 -0.3679  1.9895
  423SOL    HW2 1269   0.787   1.301   1.863 -0.1784  2.4610  1.2331
  424SOL     OW 1270   1.885   2.119   0.315  0.1122 -0.4987  0.2083
  424SOL    HW1 1271   1.951   2.193   0.293 -1.3301 -1.9783  0.9668
  424SOL    HW2 1272   1.788   2.142   0.285 -1.8364 -0.4266  0.0120
  425SOL     OW 1273   2.884   2.984   2.028  0.5209  0.2487  0.5449
  425SOL    HW1 1274   2.930   3.075   2.020  0.3836 -1.6601 -0.1594
  425SOL    HW2 1275   2.887   2.923   1.945  0.8595  2.1765  1.5284
  426SOL     OW 1276   2.946   2.428   2.710 -0.2843  0.3655  0.1981
  426SOL    HW1 1277   3.017   2.474   2.761  0.4142 -0.0775  1.5598
  426SOL    HW2 1278   2.858   2.483   2.732 -2.4036 -1.4084  0.7722
  427SOL     OW 1279   1.159   0.567   2.980 -0.1130 -0.7214 -0.4037
  427SOL    HW1 1280   1.074   0.552   3.029 -1.7846  1.2517 -1.3706
  427SOL    HW2 1281   1.188   0.482   2.932 -3.5241  0.2745 -0.2714
  428SOL     OW 1282   2.866   0.785   1.313 -0.8820  0.0411  0.0289
  428SOL    HW1 1283   2.962   0.785   1.278  0.9504 -0.3379  3.2920
  428SOL    HW2 1284   2.864   0.716   1.389 -1.4661 -0.2606  1.0207
  429SOL     OW 1285   2.041   3.007   1.113  0.1128  0.1752  0.2895
  429SOL    HW1 1286   2.025   2.955   1.202  3.3007 -1.7016 -0.1085
  429SOL    HW2 1287   1.993   2.960   1.038  1.4156  0.0514 -1.1499
  430SOL     OW 1288   1.102   1.371   2.508 -0.8980 -0.0003  0.7478
  430SOL    HW1 1289   1.135   1.371   2.601 -1.5689  1.9731 -0.1299
  430SOL    HW2 1290   1.014   1.419   2.498  0.5241 -1.7902 -0.1564
  431SOL     OW 1291   2.636   1.672   1.116  0.3009 -0.0910  0.8575
  431SOL    HW1 1292   2.536   1.656   1.099 -3.2153 -2.3164  3.8144
  431SOL    HW2 1293   2.670   1.768   1.098  0.5786 -1.7618 -3.4782
  432SOL     OW 1294   1.275   2.779   2.426 -0.8918 -0.1665  0.0434
  432SOL    HW1 1295   1.228   2.699   2.386  0.0665 -1.1158  1.3764
  432SOL    HW2 1296   1.359   2.802   2.374  1.4544  0.3684  0.4079
  433SOL     OW 1297   1.735   0.473   2.230  0.4097 -0.3941 -0.4190
  433SOL    HW1 1298   1.772   0.474   2.322 -1.0448  0.7129  1.1936
  433SOL    HW2 1299   1.808   0.453   2.164  0.1012  0.3144  3.6581
  434SOL     OW 1300   0.468   2.327   2.202  0.1084  0.1830  0.1970
  434SOL    HW1 1301   0.393   2.390   2.216  2.8022  0.0271 -3.5322
  434SOL    HW2 1302   0.477   2.252   2.277 -0.2996  0.3092 -0.2562
  435SOL     OW 1303   0.257   0.176   0.457 -0.2244  0.6427 -0.0206
  435SOL    HW1 1304   0.325   0.100   0.464 -1.9865  0.5982  0.5713
  435SOL    HW2 1305   0.198   0.173   0.540 -0.8497 -1.8953  1.0585
  436SOL     OW 1306   0.559   0.694   1.998  0.2961  0.5589 -0.1231
  436SOL    HW1 1307   0.657   0.686   2.034 -1.0110  1.1063  2.0782
  436SOL    HW2 1308   0.502   0.631   2.058 -0.5584  1.0177 -0.8114
  437SOL     OW 1309   0.679   2.576   2.620 -0.2809 -0.0650 -0.5774
  437SOL    HW1 1310   0.678   2.624   2.530 -2.3602  0.9114  0.9574
  437SOL    HW2 1311   0.579   2.557   2.642  0.5584  1.1768  0.3635
  438SOL     OW 1312   0.940   1.068   1.105  0.0804  0.5033  0.3675
  438SOL    HW1 1313   1.019   1.132   1.095  1.9527  0.1027 -0.4175
  438SOL    HW2 1314   0.905   1.027   1.017  1.5213 -0.4959  1.6810
  439SOL     OW 1315   2.601   1.640   2.413  0.5144  1.0601  0.0746
  439SOL    HW1 1316   2.703   1.628   2.427 -2.9954  0.8368  3.4783
  439SOL    HW2 1317   2.555   1.548   2.427  0.9674 -2.2322  0.1690
  440SOL     OW 1318   0.062   0.531   2.854 -0.5890 -0.1552  0.4708
  440SOL    HW1 1319   0.006   0.585   2.786  0.1611 -0.2919  0.2062
  440SOL    HW2 1320   3.094   0.454   2.887 -0.8048 -0.7334 -0.0043
  441SOL     OW 1321   0.951   2.146   1.509 -0.1613 -0.1220  0.6866
  441SOL    HW1 1322   0.866   2.105   1.471  1.7548  1.7434  1.8621
  441SOL    HW2 1323   0.936   2.161   1.610 -0.8943 -0.9663 -0.4138
  442SOL     OW 1324   1.729   1.345   0.939 -0.0952  0.1723 -0.6060
  442SOL    HW1 1325   1.712   1.294   1.029 -0.8243 -3.8844  2.7306
  442SOL    HW2 1326   1.766   1.282   0.870 -0.3357  0.0494  1.9660
  443SOL     OW 1327   2.437   2.292   2.951 -0.4523 -0.1530 -0.2283
  443SOL    HW1 1328   2.411   2.303   3.047  0.3901 -0.3161 -2.8720
  443SOL    HW2 1329   2.413   2.374   2.893 -1.0376  2.4749 -1.8545
  444SOL     OW 1330   1.921   1.558   2.916  0.4148  0.0379  0.5831
  444SOL    HW1 1331   1.933   1.588   2.819 -0.4921 -1.2400 -1.7357
  444SOL    HW2 1332   1.930   1.631   2.983 -0.2962 -3.8684 -1.1819
  445SOL     OW 1333   0.023   2.511   2.124 -0.0937 -0.0330 -0.4284
  445SOL    HW1 1334   0.118   2.490   2.157  0.5053  0.5749 -2.7805
  445SOL    HW2 1335   0.016   2.463   2.033 -2.3129  1.4772 -0.2172
  446SOL     OW 1336   1.153   0.716   1.704 -0.3461  0.1326 -0.7580
  446SOL    HW1 1337   1.233   0.767   1.740 -0.8293  0.7841 -1.7653
  446SOL    HW2 1338   1.107   0.656   1.773 -1.6027  0.9387  1.8181
  447SOL     OW 1339   0.862   0.984   0.858 -0.1206 -0.0282  0.5525
  447SOL    HW1 1340   0.874   0.887   0.824 -2.0459 -2.6368  2.6707
  447SOL    HW2 1341   0.860   1.057   0.785 -3.1954 -0.8859  0.0239
  448SOL     OW 1342   1.065   1.128   2.380  0.2638  0.1544 -0.2555
  448SOL    HW1 1343   0.983   1.093   2.427 -0.2829 -0.7308 -1.9469
  448SOL    HW2 1344   1.083   1.220   2.417 -1.5502 -1.9462 -2.9458
  449SOL     OW 1345   0.064   1.924   2.468  0.0513 -0.0186 -0.1049
  449SOL    HW1 1346   0.119   1.839   2.488  1.3670 -1.3560 -1.6525
  449SOL    HW2 1347   3.086   1.908   2.407  3.2850 -0.3276 -1.3529
  450SOL     OW 1348   2.204   1.634   2.040 -0.8110  0.9576  0.0965
  450SOL    HW1 1349   2.288   1.598   2.089 -0.6295 -0.1143  1.7846
  450SOL    HW2 1350   2.210   1.735   2.041 -1.2016 -0.9643  0.1282
  451SOL     OW 1351   2.918   1.588   1.580 -0.0502  0.3749 -0.3327
  451SOL    HW1 1352   2.909   1.686   1.594 -0.7319 -2.4710 -0.4574
  451SOL    HW2 1353   2.909   1.566   1.482  2.2107 -0.1719  0.3668
  452SOL     OW 1354   0.647   1.086   1.625  0.3383 -0.0558 -0.2591
  452SOL    HW1 1355   0.645   0.994   1.578  2.2368 -0.2946  1.1577
  452SOL    HW2 1356   0.736   1.107   1.668  0.8298  1.9742 -0.2975
  453SOL     OW 1357   0.541   1.573   0.653 -0.0099 -0.6875  0.6282
  453SOL    HW1 1358   0.547   1.652   0.583 -1.4392  0.9263 -0.1291
  453SOL    HW2 1359   0.517   1.484   0.604  0.7484  0.6041 -1.6431
  454SOL     OW 1360   0.958   1.844   0.196 -0.4086  0.0889  0.2700
  454SOL    HW1 1361   0.919   1.827   0.104 -0.1236  1.5182 -0.2981
  454SOL    HW2 1362   0.920   1.781   0.268 -1.3146  2.7584 -1.5839
  455SOL     OW 1363   1.585   0.521   1.226 -0.5802  0.3601  0.1765
  455SOL    HW1 1364   1.668   0.492   1.275  1.3839 -0.0215  4.4397
  455SOL    HW2 1365   1.521   0.591   1.269  0.3472  0.4223 -2.8140
  456SOL     OW 1366   1.800   2.830   1.133  0.4734  0.1647 -0.0525
  456SOL    HW1 1367   1.781   2.846   1.036  0.9602  0.8976 -2.5388
  456SOL    HW2 1368   1.754   2.748   1.167  2.4374  2.0728 -0.9354
  457SOL     OW 1369   2.054   0.619   2.694  0.3039 -0.0596  0.0925
  457SOL    HW1 1370   1.999   0.596   2.776 -0.7956 -0.7040  1.2196
  457SOL    HW2 1371   2.051   0.545   2.625  1.6786 -0.0027 -0.5428
  458SOL     OW 1372   2.623   0.751   2.574  1.0621 -0.6823  0.5330
  458SOL    HW1 1373   2.677   0.838   2.574 -0.1335  1.6439  0.6473
  458SOL    HW2 1374   2.670   0.681   2.630  1.3946  2.0969 -1.0082
  459SOL     OW 1375   2.667   1.693   2.053 -0.1719 -0.6325  0.6904
  459SOL    HW1 1376   2.649   1.752   1.970 -0.0040  0.4756  1.0443
  459SOL    HW2 1377   2.680   1.749   2.137 -0.8844  0.9682 -1.1747
  460SOL     OW 1378   0.748   0.608   0.063  0.1936  0.4508  0.1975
  460SOL    HW1 1379   0.763   0.698   0.015  2.7650  2.6244  2.5479
  460SOL    HW2 1380   0.837   0.556   0.056  1.5416  0.1089  0.5661
  461SOL     OW 1381   0.316   2.260   3.069 -0.5288  0.1250 -0.3181
  461SOL    HW1 1382   0.243   2.321   0.011 -0.4590 -1.2296  0.4008
  461SOL    HW2 1383   0.288   2.169   3.090  3.3353  4.0458  0.6723
  462SOL     OW 1384   0.469   2.741   1.920  0.1177  0.6375  0.3405
  462SOL    HW1 1385   0.392   2.764   1.991 -2.5600 -0.5030  2.1280
  462SOL    HW2 1386   0.433   2.668   1.855 -0.7548 -1.6097 -2.3887
  463SOL     OW 1387   1.657   2.060   1.953  0.1145 -0.4863 -0.4720
  463SOL    HW1 1388   1.735   2.123   1.949  1.0552 -2.8145 -2.2361
  463SOL    HW2 1389   1.594   2.078   2.029  0.4031  0.9246 -2.3196
  464SOL     OW 1390   2.557   2.739   0.918 -0.0195 -0.0407 -0.7048
  464SOL    HW1 1391   2.640   2.795   0.940  1.1364  2.2959 -2.1635
  464SOL    HW2 1392   2.538   2.731   0.817  0.0934  0.9818 -2.2753
  465SOL     OW 1393   0.208   0.105   1.487  0.0783 -0.0363 -0.0041
  465SOL    HW1 1394   0.132   0.130   1.548  1.8868 -1.9939 -1.7396
  465SOL    HW2 1395   0.250   0.185   1.442 -1.0541 -3.8447  0.8630
  466SOL     OW 1396   1.303   2.343   2.339 -0.2657  0.8267  0.6164
  466SOL    HW1 1397   1.379   2.403   2.366 -1.5673 -0.4206  1.0263
  466SOL    HW2 1398   1.266   2.298   2.420 -1.1472 -1.3899 -0.4915
  467SOL     OW 1399   2.974   2.121   0.440 -0.0183 -0.4116  0.1247
  467SOL    HW1 1400   2.976   2.125   0.542 -1.0511 -0.8313 -1.6564
  467SOL    HW2 1401   2.891   2.075   0.404 -1.2389  0.9314  1.2553
  468SOL     OW 1402   2.102   1.977   2.950 -0.7283  0.8334  0.1169
  468SOL    HW1 1403   2.100   1.978   2.849 -1.4870 -1.1168  3.3770
  468SOL    HW2 1404   2.198   1.970   2.988 -0.7250  2.7562  1.6305
  469SOL     OW 1405   1.311   2.401   0.610  0.4465  0.0789  0.0169
  469SOL    HW1 1406   1.362   2.320   0.575 -0.9391  3.7426 -3.1272
  469SOL    HW2 1407   1.364   2.487   0.608 -1.3560 -1.2076  0.5476
  470SOL     OW 1408   1.828   1.053   1.238  0.3227 -0.6778  0.3070
  470SOL    HW1 1409   1.788   0.968   1.190 -1.1481  0.0203 -1.4435
  470SOL    HW2 1410   1.899   1.031   1.307  0.0496  2.2563  0.7557
  471SOL     OW 1411   0.553   2.269   0.201  0.2679 -0.5619  0.1750
  471SOL    HW1 1412   0.467   2.256   0.254  1.8191 -0.2322  2.0493
  471SOL    HW2 1413   0.541   2.354   0.140  0.7151 -0.7931 -3.0039
  472SOL     OW 1414   2.531   1.786   2.650 -0.0445  0.6237 -0.2132
  472SOL    HW1 1415   2.619   1.836   2.653 -1.4189 -0.5053  0.4122
  472SOL    HW2 1416   2.523   1.705   2.589  0.8446 -1.2742 -1.9486
  473SOL     OW 1417   1.290   2.111   0.737 -0.3497  0.2316 -0.0646
  473SOL    HW1 1418   1.328   2.158   0.652 -1.0577  1.6527 -1.2776
  473SOL    HW2 1419   1.301   2.165   0.818 -1.8803 -0.9485 -1.3155
  474SOL     OW 1420   2.965   0.578   0.931 -0.1422 -0.0168  0.2474
  474SOL    HW1 1421   2.943   0.480   0.944  1.0136  1.2956 -3.9378
  474SOL    HW2 1422   2.878   0.625   0.922  2.9468 -0.4019  0.5314
  475SOL     OW 1423   2.323   2.972   1.551  0.4935 -0.1202  0.1748
  475SOL    HW1 1424   2.375   2.947   1.633 -1.7847 -0.2708 -0.2655
  475SOL    HW2 1425   2.257   2.903   1.515 -2.2438 -1.9013 -3.9740
  476SOL     OW 1426   0.345   0.521   0.544  0.4699 -0.5906 -0.6562
  476SOL    HW1 1427   0.387   0.465   0.464  3.6348 -0.8026  0.0908
  476SOL    HW2 1428   0.401   0.515   0.624 -1.6363  1.9083 -0.9560
  477SOL     OW 1429   1.147   1.914   1.135  0.4632  0.1119 -0.2989
  477SOL    HW1 1430   1.160   1.837   1.068  2.6203  0.7927  0.7721
  477SOL    HW2 1431   1.057   1.962   1.125 -3.1149 -1.1662 -0.3318
  478SOL     OW 1432   1.074   2.334   2.827  0.5519  0.3590  0.4694
  478SOL    HW1 1433   0.992   2.369   2.773 -4.4052 -2.3134 -2.3908
  478SOL    HW2 1434   1.159   2.391   2.811 -0.2942  1.7096 -0.9527
  479SOL     OW 1435   2.842   0.992   1.838  0.3514  0.0888  0.2862
  479SOL    HW1 1436   2.853   1.092   1.856 -0.6803  0.5126  2.9203
  479SOL    HW2 1437   2.922   0.950   1.789 -0.4386 -1.3162  0.4359
  480SOL     OW 1438   2.838   2.195   2.792 -0.6690 -0.4867 -0.1099
  480SOL    HW1 1439   2.906   2.155   2.857 -1.3468 -0.3983  2.5825
  480SOL    HW2 1440   2.868   2.287   2.764  0.0644 -1.2815 -1.8388
  481SOL     OW 1441   1.556   3.089   2.141 -0.0145  0.4748 -0.0913
  481SOL    HW1 1442   1.656   0.009   2.149 -0.4523 -0.9618  0.5170
  481SOL    HW2 1443   1.511   0.071   2.191 -2.5994 -0.2346  1.9208
  482SOL     OW 1444   1.632   2.162   2.934 -0.4785  0.2656  0.2507
  482SOL    HW1 1445   1.667   2.257   2.952 -0.5017  1.9927  0.4772
  482SOL    HW2 1446   1.714   2.101   2.933 -0.3873 -0.5812 -0.2481
  483SOL     OW 1447   0.910   2.613   2.730 -0.5839 -0.5110 -0.1106
  483SOL    HW1 1448   0.827   2.592   2.675 -1.8124 -0.0143 -2.0819
  483SOL    HW2 1449   0.986   2.563   2.676  2.2666  0.4484 -2.0676
  484SOL     OW 1450   0.043   2.855   1.374  0.0193  0.3403 -0.1536
  484SOL    HW1 1451   0.101   2.805   1.439 -0.4561  0.6225 -1.6622
  484SOL    HW2 1452   0.092   2.928   1.323 -2.4637 -0.9802  0.3791
  485SOL     OW 1453   2.305   0.765   0.539  0.1878 -0.0555  0.1438
  485SOL    HW1 1454   2.210   0.746   0.508 -0.6154 -1.0046 -0.7828
  485SOL    HW2 1455   2.314   0.866   0.556 -0.8569  0.6180 -1.0845
  486SOL     OW 1456   2.428   2.873   2.428  0.2760  0.3358 -0.2168
  486SOL    HW1 1457   2.520   2.874   2.471  1.9213  4.5456 -2.0533
  486SOL    HW2 1458   2.423   2.949   2.365 -0.7723  1.0363 -0.3987
  487SOL     OW 1459   1.235   0.782   0.638 -0.0519 -0.6648  0.1818
  487SOL    HW1 1460   1.285   0.767   0.549  0.7964 -0.9607 -1.1938
  487SOL    HW2 1461   1.142   0.821   0.617  1.7527  0.6104 -0.7597
  488SOL     OW 1462   2.570   2.811   2.752 -0.0170  0.2379 -0.5358
  488SOL    HW1 1463   2.470   2.821   2.767 -0.2425  0.8929  0.7297
  488SOL    HW2 1464   2.625   2.818   2.835  0.3467 -0.4022  0.7478
  489SOL     OW 1465   1.688   2.941   0.356 -0.2283  0.3552 -0.2431
  489SOL    HW1 1466   1.704   2.850   0.319  0.4249  2.9534  1.0081
  489SOL    HW2 1467   1.779   2.972   0.389  0.4423  0.1753  2.0688
  490SOL     OW 1468   1.756   0.364   3.005  0.1327 -0.4299 -0.0105
  490SOL    HW1 1469   1.731   0.397   0.003 -0.3373 -1.2047 -1.6921
  490SOL    HW2 1470   1.793   0.441   2.953  1.2335 -1.2679 -2.4387
  491SOL     OW 1471   0.680   0.209   1.044  0.0021 -0.4291  0.1572
  491SOL    HW1 1472   0.586   0.225   1.077 -1.3496 -0.4776 -1.2113
  491SOL    HW2 1473   0.691   0.241   0.948 -0.7837 -1.4656 -2.3043
  492SOL     OW 1474   1.610   3.095   0.765  0.6727  0.1933  0.3989
  492SOL    HW1 1475   1.698   0.014   0.814 -3.2785  0.0557  1.2211
  492SOL    HW2 1476   1.607   3.020   0.697 -0.4315  0.4986 -0.9743
  493SOL     OW 1477   1.122   2.156   3.010  0.7763 -0.1673  0.0613
  493SOL    HW1 1478   1.211   2.107   3.010  0.2756 -0.1533 -0.1076
  493SOL    HW2 1479   1.117   2.221   2.933  1.3639  1.9108 -2.0642
  494SOL     OW 1480   0.618   0.965   0.978  0.6952 -0.2683  0.7041
  494SOL    HW1 1481   0.625   0.905   1.056 -1.4090  0.3900 -0.3393
  494SOL    HW2 1482   0.705   0.979   0.933 -2.7427  1.5925  0.4121
  495SOL     OW 1483   2.817   0.591   1.505 -0.0604  0.2841 -0.0912
  495SOL    HW1 1484   2.869   0.514   1.539 -1.9478  3.5485 -0.8727
  495SOL    HW2 1485   2.778   0.641   1.584  1.9571 -1.8298 -0.0244
  496SOL     OW 1486   2.337   2.622   2.511 -0.1340 -0.1402 -0.1090
  496SOL    HW1 1487   2.368   2.702   2.456 -1.2086  0.7384  0.8632
  496SOL    HW2 1488   2.236   2.618   2.521 -2.0821 -1.1242 -1.1499
  497SOL     OW 1489   1.718   1.093   2.818  0.2419 -0.2851 -0.0753
  497SOL    HW1 1490   1.768   1.175   2.800 -0.8996 -1.1681  0.3946
  497SOL    HW2 1491   1.652   1.109   2.891  3.1143 -0.7240 -5.5205
  498SOL     OW 1492   0.931   2.120   0.998 -0.2007 -0.2623  0.3232
  498SOL    HW1 1493   0.973   2.041   0.945 -0.0802 -1.7002  1.3613
  498SOL    HW2 1494   0.834   2.098   1.025 -1.2968 -0.2178 -2.1167
  499SOL     OW 1495   0.133   1.876   0.647 -0.4434  0.8458 -0.0594
  499SOL    HW1 1496   0.144   1.970   0.680  0.2182 -3.0808 -0.8737
  499SOL    HW2 1497   0.216   1.824   0.688  2.4104  0.4228 -0.4851
  500SOL     OW 1498   1.249   2.706   0.355 -0.4821 -0.3962  0.0186
  500SOL    HW1 1499   1.163   2.755   0.355  1.3850 -1.2676 -0.8429
  500SOL    HW2 1500   1.305   2.723   0.442 -1.0922  0.1706  0.8017
  501SOL     OW 1501   1.841   2.803   0.668 -0.2748 -0.3110 -0.2440
  501SOL    HW1 1502   1.739   2.799   0.665  0.7891 -0.0967  2.0118
  501SOL    HW2 1503   1.879   2.720   0.621 -0.5666  1.1177  1.3969
  502SOL     OW 1504   0.202   0.492   1.151  0.0544  0.3375  1.0457
  502SOL    HW1 1505   0.149   0.428   1.088 -1.8280 -1.4898  1.8092
  502SOL    HW2 1506   0.242   0.441   1.229 -1.5828 -0.3337  0.5875
  503SOL     OW 1507   2.133   3.081   1.732  0.3715 -0.5672  0.2287
  503SOL    HW1 1508   2.150   0.078   1.769 -0.2432  0.6607  1.3512
  503SOL    HW2 1509   2.194   3.062   1.650  0.1900 -2.6708 -0.8848
  504SOL     OW 1510   2.050   1.074   1.925  0.0074  0.0469  0.3635
  504SOL    HW1 1511   2.111   1.001   1.891  0.7535 -1.4090 -0.4221
  504SOL    HW2 1512   1.947   1.058   1.916  0.2784  0.2481  2.6581
  505SOL     OW 1513   1.556   2.812   2.358 -0.2135 -0.3219 -0.3939
  505SOL    HW1 1514   1.643   2.811   2.408 -2.0081  2.4474 -2.8407
  505SOL    HW2 1515   1.535   2.899   2.312 -0.1273  1.8093  1.2647
  506SOL     OW 1516   0.481   0.707   1.681 -0.7102 -0.0583  0.2003
  506SOL    HW1 1517   0.396   0.669   1.718  0.9166  2.1649  1.7829
  506SOL    HW2 1518   0.557   0.708   1.753  2.3512 -0.3667  3.2318
  507SOL     OW 1519   1.723   0.408   0.172  0.1018  0.0715 -0.3790
  507SOL    HW1 1520   1.700   0.365   0.265 -1.3767 -0.5629  1.1965
  507SOL    HW2 1521   1.822   0.430   0.167 -0.9419  2.2004  1.5471
  508SOL     OW 1522   2.124   0.773   2.084  0.3821 -0.2382 -0.0265
  508SOL    HW1 1523   2.033   0.811   2.111 -0.6818  2.2430 -0.3230
  508SOL    HW2 1524   2.144   0.787   1.985 -0.9028 -2.1107  0.2797
  509SOL     OW 1525   0.761   1.686   2.512 -0.4606 -0.1555 -0.1386
  509SOL    HW1 1526   0.664   1.696   2.525  1.2404 -3.4832  0.5855
  509SOL    HW2 1527   0.797   1.737   2.432 -0.7470 -0.6639  1.9038
  510SOL     OW 1528   2.892   0.815   0.698  0.5532 -0.3617 -0.7514
  510SOL    HW1 1529   2.911   0.741   0.630  0.7686 -1.9181  1.5438
  510SOL    HW2 1530   2.967   0.840   0.758 -0.5062  4.0135 -2.7962
  511SOL     OW 1531   1.719   1.236   1.516 -0.8571  0.5027  0.4274
  511SOL    HW1 1532   1.667   1.317   1.495  2.7336 -1.5908  1.1792
  511SOL    HW2 1533   1.815   1.260   1.536  2.1489  0.3578 -0.0593
  512SOL     OW 1534   0.527   1.794   0.491 -0.4590 -0.0290 -0.5983
  512SOL    HW1 1535   0.462   1.847   0.434  1.7335  0.7744  0.2323
  512SOL    HW2 1536   0.611   1.847   0.516  0.6253 -2.3037  0.3491
  513SOL     OW 1537   0.588   2.600   1.040 -0.0401 -0.1940 -0.5408
  513SOL    HW1 1538   0.524   2.675   1.016  0.0009  1.1209  0.6978
  513SOL    HW2 1539   0.656   2.634   1.102  0.4718 -2.4485 -1.6722
  514SOL     OW 1540   0.586   2.327   0.628  0.4483  0.3064 -0.4114
  514SOL    HW1 1541   0.550   2.235   0.641  0.0188  3.0332 -0.0897
  514SOL    HW2 1542   0.684   2.321   0.594 -1.6114 -0.4649 -0.3776
  515SOL     OW 1543   0.108   3.037   0.060 -0.3268 -0.3333 -0.2602
  515SOL    HW1 1544   0.176   3.050   0.136 -1.4717  0.3713  1.3610
  515SOL    HW2 1545   0.029   2.985   0.095  0.9066  2.6774 -1.8089
  516SOL     OW 1546   2.028   0.155   1.193  0.1993 -0.2307 -0.4627
  516SOL    HW1 1547   1.931   0.170   1.224  0.2449  0.1282  0.9139
  516SOL    HW2 1548   2.038   0.061   1.160 -1.7040  1.0018  1.3040
  517SOL     OW 1549   1.429   1.784   0.676  0.1899  0.2281 -0.3984
  517SOL    HW1 1550   1.338   1.823   0.668  0.7417  1.2206 -2.6849
  517SOL    HW2 1551   1.502   1.856   0.676 -0.1961 -0.4011 -1.0631
  518SOL     OW 1552   1.388   3.014   0.911 -0.0407 -0.0443 -0.1445
  518SOL    HW1 1553   1.317   2.990   0.844 -0.5779 -0.2016  0.0732
  518SOL    HW2 1554   1.472   3.047   0.863 -3.3858 -1.2960  3.3117
  519SOL     OW 1555   2.983   2.349   0.278 -0.4554 -0.1998  0.3141
  519SOL    HW1 1556   2.997   2.262   0.335  1.3514  0.3196 -0.2998
  519SOL    HW2 1557   3.073   2.378   0.239  0.6837  0.2057  0.5264
  520SOL     OW 1558   1.743   2.236   2.377  0.0458  0.4696 -0.2646
  520SOL    HW1 1559   1.845   2.253   2.367  3.1566 -1.0970  0.9675
  520SOL    HW2 1560   1.682   2.265   2.301 -1.0444 -0.5900 -0.5823
  521SOL     OW 1561   1.089   2.939   2.203 -0.1451 -0.5238  0.3520
  521SOL    HW1 1562   0.994   2.901   2.184  2.8753 -0.1218  2.6664
  521SOL    HW2 1563   1.104   2.941   2.304 -1.3704  2.2135  1.2627
  522SOL     OW 1564   0.315   2.528   2.230 -0.4359 -0.2680  0.5847
  522SOL    HW1 1565   0.353   2.595   2.165  1.5409 -0.1539  2.1946
  522SOL    HW2 1566   0.306   2.563   2.324 -1.0584  1.4704  0.7405
  523SOL     OW 1567   0.956   2.168   1.779 -0.3190 -0.0538  0.2320
  523SOL    HW1 1568   0.945   2.248   1.843 -1.1120 -0.6109 -1.7672
  523SOL    HW2 1569   1.046   2.121   1.794 -0.5524 -0.8337 -1.4810
  524SOL     OW 1570   2.388   2.346   0.217  0.6726 -0.3165  0.1432
  524SOL    HW1 1571   2.472   2.285   0.215  1.2300  0.0196 -1.3100
  524SOL    HW2 1572   2.315   2.300   0.266 -1.2260  0.5693 -0.4782
  525SOL     OW 1573   2.772   0.474   3.037  0.0574 -0.0651 -0.5293
  525SOL    HW1 1574   2.810   0.549   3.094  2.7919 -1.3184 -2.8070
  525SOL    HW2 1575   2.849   0.423   2.994 -0.2845  2.2745 -0.7879
  526SOL     OW 1576   0.331   3.005   0.802  0.2275 -0.0586 -0.1249
  526SOL    HW1 1577   0.241   2.996   0.751 -3.1037 -0.9468  2.2875
  526SOL    HW2 1578   0.393   3.082   0.774  0.9793  1.2164  0.1660
  527SOL     OW 1579   2.935   1.381   0.454  0.3214 -0.1718 -0.4540
  527SOL    HW1 1580   3.021   1.339   0.433 -3.2633  0.1837  1.9481
  527SOL    HW2 1581   2.910   1.360   0.549 -0.4852 -1.4901 -1.4554
  528SOL     OW 1582   0.795   0.722   2.348 -0.6346 -0.2747 -0.5245
  528SOL    HW1 1583   0.781   0.644   2.407  0.9389  0.1856  0.0589
  528SOL    HW2 1584   0.707   0.769   2.330  0.2029 -0.6408  0.3239
  529SOL     OW 1585   0.664   1.467   0.094  0.1135 -0.1868 -0.1105
  529SOL    HW1 1586   0.654   1.553   0.146  0.7430 -1.0976  1.1447
  529SOL    HW2 1587   0.627   1.387   0.150  0.1753 -1.0507  2.3507
  530SOL     OW 1588   1.122   0.963   2.175  0.0796  0.0581  0.5166
  530SOL    HW1 1589   1.217   0.955   2.136  1.6433 -1.9540 -0.4294
  530SOL    HW2 1590   1.109   1.047   2.231 -2.6354 -0.4816  0.3820
  531SOL     OW 1591   0.945   2.355   0.033  0.2884 -0.1004  0.4118
  531SOL    HW1 1592   1.013   2.290   3.088  1.0032 -1.7704 -0.2876
  531SOL    HW2 1593   0.966   2.382   0.126  1.0800  1.1762  0.6690
  532SOL     OW 1594   2.378   1.049   2.526 -0.3195  0.4257 -0.1271
  532SOL    HW1 1595   2.464   1.060   2.580  2.6744 -1.9525  0.0436
  532SOL    HW2 1596   2.300   1.101   2.568 -4.7572  1.8323  0.4986
  533SOL     OW 1597   2.995   0.149   1.947  0.0148 -0.6521  0.2943
  533SOL    HW1 1598   3.076   0.191   1.994  1.1375 -0.6369 -0.1950
  533SOL    HW2 1599   2.914   0.207   1.966  0.0201  2.6251 -0.7651
  534SOL     OW 1600   2.257   0.116   0.379  0.0842  0.5629  0.4855
  534SOL    HW1 1601   2.355   0.137   0.352  0.0579  0.4585 -1.0717
  534SOL    HW2 1602   2.212   0.203   0.405 -0.2892  3.4304  3.3974
  535SOL     OW 1603   0.484   0.211   0.012  0.0311 -0.0229  0.0933
  535SOL    HW1 1604   0.566   0.255   3.065  0.1610 -1.3201 -2.8440
  535SOL    HW2 1605   0.403   0.197   3.048 -2.2737 -1.7470  2.3580
  536SOL     OW 1606   0.874   1.826   1.627  0.2345 -0.2554 -0.2579
  536SOL    HW1 1607   0.818   1.886   1.572  1.4011 -1.3843 -0.0719
  536SOL    HW2 1608   0.967   1.847   1.598 -0.8665 -4.7807 -0.1123
  537SOL     OW 1609   3.069   2.583   1.751 -0.5118 -0.6904  0.3846
  537SOL    HW1 1610   2.971   2.561   1.729  2.1573  2.1000 -1.4072
  537SOL    HW2 1611   0.022   2.505   1.805 -0.2823 -0.5659 -0.0282
  538SOL     OW 1612   0.334   2.221   0.363 -0.0901 -0.1297  0.1232
  538SOL    HW1 1613   0.244   2.253   0.399  1.2124  0.8270 -1.8212
  538SOL    HW2 1614   0.342   2.124   0.383  1.1620  2.2685 -0.7924
  539SOL     OW 1615   2.330   1.068   2.264 -0.0424  0.1741  0.5995
  539SOL    HW1 1616   2.351   1.068   2.365  1.6154  1.8147 -2.0188
  539SOL    HW2 1617   2.402   1.114   2.202 -0.4270 -1.9112  1.3988
  540SOL     OW 1618   1.907   0.842   3.003  0.0599  0.6459  0.0281
  540SOL    HW1 1619   1.960   0.897   2.934 -0.3272 -0.9811 -2.2181
  540SOL    HW2 1620   1.835   0.900   3.047  1.8624  0.5246 -1.8796
  541SOL     OW 1621   0.640   0.545   2.476 -0.0006  0.1176 -0.1076
  541SOL    HW1 1622   0.545   0.579   2.448 -0.1185  1.2217 -0.6233
  541SOL    HW2 1623   0.653   0.578   2.573 -2.3494  1.6487 -0.8497
  542SOL     OW 1624   1.558   2.496   1.924  0.1550 -0.2122  0.0297
  542SOL    HW1 1625   1.530   2.586   1.890  1.8428 -2.0170 -0.1667
  542SOL    HW2 1626   1.634   2.471   1.858  0.5185 -2.1246  0.2779
  543SOL     OW 1627   0.715   2.713   0.417 -0.3714 -0.5385  0.0927
  543SOL    HW1 1628   0.685   2.622   0.382 -0.0648 -0.6061 -0.7315
  543SOL    HW2 1629   0.683   2.727   0.517  0.3292 -2.6205  1.3451
  544SOL     OW 1630   2.913   1.827   2.305 -0.3845  0.6033 -0.2750
  544SOL    HW1 1631   2.865   1.917   2.291  1.4683 -0.3544 -0.0630
  544SOL    HW2 1632   2.989   1.805   2.244 -3.5094  0.0024  1.9316
  545SOL     OW 1633   1.379   1.539   1.896  0.4068 -0.7664  0.9875
  545SOL    HW1 1634   1.359   1.514   1.996 -0.5114 -1.9719  1.6515
  545SOL    HW2 1635   1.310   1.608   1.865 -1.2578 -1.3199  0.5681
  546SOL     OW 1636   0.126   0.242   2.435 -0.4537  0.2081 -0.3159
  546SOL    HW1 1637   0.194   0.214   2.359  0.4649 -0.0248 -1.7143
  546SOL    HW2 1638   0.073   0.162   2.478  0.7893  0.6167  1.1206
  547SOL     OW 1639   1.203   0.335   0.803 -0.1267 -0.7149  0.2440
  547SOL    HW1 1640   1.190   0.432   0.776  2.0146 -2.2500  1.4632
  547SOL    HW2 1641   1.304   0.316   0.815 -0.0394  1.1681  0.5358
  548SOL     OW 1642   1.388   2.041   3.003 -0.1019 -0.2565  0.0721
  548SOL    HW1 1643   1.398   2.014   0.007  1.8243  0.2235  0.8463
  548SOL    HW2 1644   1.472   2.085   2.964  2.2557 -0.9954 -0.5316
  549SOL     OW 1645   2.333   0.946   0.129 -0.2145 -0.0704 -0.4746
  549SOL    HW1 1646   2.295   1.039   0.146  0.2137 -2.2155  1.2885
  549SOL    HW2 1647   2.423   0.929   0.175 -0.6962 -0.4002  1.4643
  550SOL     OW 1648   2.621   2.064   0.794  0.2968  0.2257 -0.3609
  550SOL    HW1 1649   2.583   2.161   0.775 -1.5463 -1.9103  0.0084
  550SOL    HW2 1650   2.560   2.024   0.870  0.5113  1.8616  2.7230
  551SOL     OW 1651   0.793   0.577   1.298 -0.0156 -0.5759 -0.0755
  551SOL    HW1 1652   0.852   0.502   1.262 -0.6591  1.7119  1.8836
  551SOL    HW2 1653   0.827   0.600   1.392  2.1318  1.6155 -1.0264
  552SOL     OW 1654   0.122   1.600   2.790  0.2182 -0.1782 -0.3795
  552SOL    HW1 1655   0.084   1.505   2.782  0.6441 -2.7147 -1.5283
  552SOL    HW2 1656   0.196   1.595   2.857 -2.0731  0.4567 -1.8370
  553SOL     OW 1657   2.546   2.519   0.543  0.1424  0.2135  0.3629
  553SOL    HW1 1658   2.632   2.546   0.585  0.2299 -1.1286  0.6344
  553SOL    HW2 1659   2.502   2.597   0.494  1.1126 -0.2599  0.0739
  554SOL     OW 1660   2.019   1.034   1.424  0.1132  0.0813  0.1176
  554SOL    HW1 1661   2.114   1.031   1.381  2.2714  0.0166 -3.1836
  554SOL    HW2 1662   2.001   1.122   1.475  0.6974  0.9462  0.4229
  555SOL     OW 1663   1.130   2.226   2.110 -0.2217  0.5089  0.1259
  555SOL    HW1 1664   1.179   2.185   2.030 -3.1244  3.1906  0.1266
  555SOL    HW2 1665   1.185   2.282   2.176 -2.1072  2.4352  0.3218
  556SOL     OW 1666   0.853   1.160   1.801 -0.8743  0.4240  0.0608
  556SOL    HW1 1667   0.936   1.167   1.742  0.4358 -0.9523 -0.9286
  556SOL    HW2 1668   0.869   1.100   1.888 -0.2347  0.3511 -0.5343
  557SOL     OW 1669   1.465   3.024   1.571  0.8805  0.1007  0.2087
  557SOL    HW1 1670   1.375   2.972   1.557 -3.1688 -0.0973 -0.2530
  557SOL    HW2 1671   1.479   3.049   1.668  0.0368  0.5206  1.2211
  558SOL     OW 1672   0.763   0.015   2.235 -0.0828 -0.4301 -0.3290
  558SOL    HW1 1673   0.805   0.011   2.328 -1.1319  0.4577 -0.6481
  558SOL    HW2 1674   0.824   0.078   2.185 -2.4104  0.2638  0.5368
  559SOL     OW 1675   1.715   2.678   0.253 -0.0577 -0.0990  0.1512
  559SOL    HW1 1676   1.638   2.698   0.190  1.2118 -0.7486 -4.1733
  559SOL    HW2 1677   1.692   2.594   0.304 -1.3350  2.3678 -2.1469
  560SOL     OW 1678   1.614   2.149   0.269 -0.9061  0.5019  0.3543
  560SOL    HW1 1679   1.563   2.063   0.248 -1.1993 -1.1376  2.9975
  560SOL    HW2 1680   1.583   2.232   0.213 -4.4034  0.4693  2.6614
  561SOL     OW 1681   1.482   0.267   0.728  0.5439 -0.1183  0.0299
  561SOL    HW1 1682   1.517   0.181   0.696 -1.2919 -1.9935 -3.6807
  561SOL    HW2 1683   1.547   0.315   0.787 -0.7263  0.0990 -0.0859
  562SOL     OW 1684   0.402   0.932   1.925  0.3026  0.2943 -0.0710
  562SOL    HW1 1685   0.428   1.026   1.892 -2.1428 -0.0919 -0.4207
  562SOL    HW2 1686   0.477   0.862   1.906  1.0366 -1.4818 -0.7728
  563SOL     OW 1687   1.438   2.274   2.730  0.2421  0.1171  0.2415
  563SOL    HW1 1688   1.369   2.237   2.666 -0.0351  0.2213  0.9290
  563SOL    HW2 1689   1.477   2.202   2.794  1.1602  1.8646  1.8289
  564SOL     OW 1690   2.915   0.914   1.029 -0.2664 -0.5700 -0.0631
  564SOL    HW1 1691   2.885   0.838   1.087  1.3686  2.1907 -1.2627
  564SOL    HW2 1692   3.003   0.890   0.986 -0.8495 -0.6287 -2.5003
  565SOL     OW 1693   0.926   0.986   0.110  0.3899 -0.1347 -0.9813
  565SOL    HW1 1694   0.944   1.083   0.087 -1.1301 -1.6594 -0.8001
  565SOL    HW2 1695   1.005   0.937   0.150  3.1785  4.2503  0.3040
  566SOL     OW 1696   2.329   2.711   3.025 -0.3348 -0.7940 -0.0788
  566SOL    HW1 1697   2.398   2.677   3.090 -0.3565  1.2767  1.4630
  566SOL    HW2 1698   2.331   2.811   3.024  1.4278 -3.6199  0.5011
  567SOL     OW 1699   1.479   0.956   1.434 -0.1234  0.2982 -0.0598
  567SOL    HW1 1700   1.422   1.020   1.497 -0.8730  0.1866  1.1306
  567SOL    HW2 1701   1.581   0.958   1.458  0.2319 -1.4934 -0.8526
  568SOL     OW 1702   1.379   1.203   2.612 -0.5275  0.0763 -0.5619
  568SOL    HW1 1703   1.462   1.203   2.668 -1.5464 -3.6210 -0.0038
  568SOL    HW2 1704   1.407   1.216   2.513  2.5887  0.5626 -1.1459
  569SOL     OW 1705   1.814   1.753   0.775  0.2762  0.4351 -0.0824
  569SOL    HW1 1706   1.914   1.774   0.763  2.0116 -1.9627 -1.6634
  569SOL    HW2 1707   1.759   1.839   0.767  1.4399  2.0387  0.0986
  570SOL     OW 1708   2.747   2.046   2.286  0.1406 -0.5217 -0.0987
  570SOL    HW1 1709   2.781   2.098   2.205  2.9389  1.1860  0.0155
  570SOL    HW2 1710   2.761   2.104   2.370  1.0225  3.6015  2.2405
  571SOL     OW 1711   2.861   1.844   1.701  0.3629  0.5359  0.4957
  571SOL    HW1 1712   2.857   1.892   1.611  1.5929 -2.5279 -0.0067
  571SOL    HW2 1713   2.947   1.875   1.751  0.1361  0.1465 -0.9455
  572SOL     OW 1714   1.462   2.700   0.152 -0.2838 -0.3923 -0.7222
  572SOL    HW1 1715   1.390   2.708   0.219  0.9135 -1.7116 -0.4708
  572SOL    HW2 1716   1.429   2.656   0.070  2.9263  0.4647  1.0773
  573SOL     OW 1717   1.644   1.727   1.083  0.0091 -0.2668 -0.1128
  573SOL    HW1 1718   1.573   1.694   1.015 -3.7307  2.5796 -2.2782
  573SOL    HW2 1719   1.724   1.666   1.083 -1.4527 -1.6749 -1.2910
  574SOL     OW 1720   1.052   3.060   1.219 -0.6206 -0.3540  0.1969
  574SOL    HW1 1721   1.145   0.001   1.243  2.1265 -1.2451  0.8521
  574SOL    HW2 1722   1.035   2.970   1.264  1.3899  1.1302 -1.2327
  575SOL     OW 1723   0.914   0.739   1.100 -0.5237  0.0738 -0.1264
  575SOL    HW1 1724   0.990   0.802   1.137 -0.4022  2.4137  4.5621
  575SOL    HW2 1725   0.885   0.682   1.181  1.2757  0.6830 -0.2588
  576SOL     OW 1726   2.679   0.428   1.330 -0.2714 -0.3023  0.0871
  576SOL    HW1 1727   2.635   0.489   1.261  0.6600 -1.2978 -0.7951
  576SOL    HW2 1728   2.727   0.484   1.398 -2.8628  0.0573  0.7223
  577SOL     OW 1729   2.354   0.590   2.839 -1.0335 -0.4813  0.3996
  577SOL    HW1 1730   2.350   0.672   2.904 -0.6775  2.6132 -0.5513
  577SOL    HW2 1731   2.380   0.623   2.745 -0.5738  2.5351  0.1285
  578SOL     OW 1732   1.766   1.719   2.209 -0.2350  0.0738  0.1748
  578SOL    HW1 1733   1.832   1.641   2.202 -1.0228 -0.2175  0.8583
  578SOL    HW2 1734   1.788   1.796   2.146  1.2969  0.2916 -0.8564
  579SOL     OW 1735   0.549   1.451   0.921 -0.3723 -0.2190 -0.4404
  579SOL    HW1 1736   0.506   1.521   0.861  1.1050 -1.0680  0.3882
  579SOL    HW2 1737   0.596   1.493   0.999  1.2247  0.2147 -2.6755
  580SOL     OW 1738   1.283   2.495   3.084  0.3062 -0.4607 -0.5217
  580SOL    HW1 1739   1.202   2.554   0.010 -0.0933  1.3351 -0.1391
  580SOL    HW2 1740   1.297   2.491   2.984  2.0361 -0.2344 -1.4306
  581SOL     OW 1741   0.817   0.631   2.096  0.0236 -0.5685  0.7647
  581SOL    HW1 1742   0.832   0.659   2.194 -0.3386  0.3159 -1.4518
  581SOL    HW2 1743   0.803   0.530   2.093  2.2413  1.1310  1.7264
  582SOL     OW 1744   0.553   0.780   0.724 -0.6434 -0.0259  0.0749
  582SOL    HW1 1745   0.470   0.795   0.665 -0.9722  1.2809 -1.3642
  582SOL    HW2 1746   0.574   0.851   0.793  1.3074  1.4161  4.3154
  583SOL     OW 1747   1.038   1.719   2.018 -0.0449 -0.1513 -0.0443
  583SOL    HW1 1748   1.087   1.788   2.077 -2.3761 -1.3244  0.8445
  583SOL    HW2 1749   1.039   1.627   2.065 -0.3303  0.1393 -1.3331
  584SOL     OW 1750   2.426   2.745   0.419 -0.0601  0.6303 -0.9174
  584SOL    HW1 1751   2.340   2.699   0.406  1.4928  0.5684  0.6527
  584SOL    HW2 1752   2.435   2.829   0.359 -0.9310  1.0404 -0.3903
  585SOL     OW 1753   2.045   0.653   0.012 -0.4957 -0.2845 -0.3981
  585SOL    HW1 1754   1.978   0.714   3.067  2.5654  0.8247  0.7999
  585SOL    HW2 1755   2.091   0.707   0.087  0.2048  1.8123  1.7805
  586SOL     OW 1756   0.364   1.617   0.311 -1.1545 -0.0684 -0.1586
  586SOL    HW1 1757   0.286   1.627   0.372 -3.3767 -0.4675 -1.1763
  586SOL    HW2 1758   0.455   1.654   0.349  0.5763  0.2463  0.7383
  587SOL     OW 1759   1.581   2.128   1.012  0.0936 -0.3588  0.3576
  587SOL    HW1 1760   1.630   2.059   1.063 -5.1550  0.0766 -3.2219
  587SOL    HW2 1761   1.478   2.116   1.032 -1.2807 -2.9692 -0.5437
  588SOL     OW 1762   0.507   0.530   0.800 -0.0816  1.1034 -0.4147
  588SOL    HW1 1763   0.585   0.519   0.867 -1.2697  2.2605  2.0487
  588SOL    HW2 1764   0.487   0.628   0.794  1.0251 -2.3085 -2.3802
  589SOL     OW 1765   1.399   0.152   1.089  0.3830  0.1395  0.3649
  589SOL    HW1 1766   1.366   0.087   1.015 -0.7741 -0.5855 -0.0056
  589SOL    HW2 1767   1.372   0.113   1.182 -0.1926 -2.7091 -0.0147
  590SOL     OW 1768   1.358   0.776   0.395 -0.5003 -0.1035 -0.1389
  590SOL    HW1 1769   1.442   0.827   0.367  2.5941  1.0013 -0.6470
  590SOL    HW2 1770   1.331   0.714   0.316 -0.7904 -0.0514 -0.5439
  591SOL     OW 1771   2.392   2.318   1.720 -0.7524  0.4195  0.3455
  591SOL    HW1 1772   2.474   2.361   1.763 -1.4442 -0.0807 -0.5739
  591SOL    HW2 1773   2.415   2.255   1.641 -0.4378  0.7269  0.9163
  592SOL     OW 1774   1.500   1.711   1.332  0.0312 -0.1365 -0.0355
  592SOL    HW1 1775   1.524   1.724   1.427 -1.0750  0.6520 -2.4446
  592SOL    HW2 1776   1.571   1.717   1.262 -5.0715 -0.4477 -0.5045
  593SOL     OW 1777   1.038   0.069   0.575 -0.0774  0.1352  0.2031
  593SOL    HW1 1778   0.972   0.137   0.601  0.0802  0.1431 -1.5249
  593SOL    HW2 1779   1.127   0.115   0.566 -0.0814  2.2089  0.2674
  594SOL     OW 1780   0.187   0.781   1.940  0.4137 -0.5845 -0.0347
  594SOL    HW1 1781   0.186   0.705   1.872  0.8924 -0.0919  0.5198
  594SOL    HW2 1782   0.266   0.840   1.926 -1.3852  0.0803  1.7345
  595SOL     OW 1783   2.725   2.963   0.955 -0.4486  0.6666 -0.4716
  595SOL    HW1 1784   2.724   3.061   0.923  0.4364  2.0132  2.6537
  595SOL    HW2 1785   2.817   2.935   0.960 -4.7656  0.0937 -0.6373
  596SOL     OW 1786   2.984   0.424   1.664  0.2134  0.0788 -0.1119
  596SOL    HW1 1787   2.974   0.468   1.756 -0.0165  0.0325 -0.4133
  596SOL    HW2 1788   3.045   0.342   1.669 -1.2754 -0.1384 -0.1000
  597SOL     OW 1789   2.079   1.241   0.825  0.5268  0.0518 -0.1590
  597SOL    HW1 1790   2.143   1.325   0.819  1.6873  2.1455  1.2274
  597SOL    HW2 1791   1.994   1.249   0.765 -1.3596 -0.3173 -2.2199
  598SOL     OW 1792   0.715   3.033   1.783  0.0417  0.4701 -0.5139
  598SOL    HW1 1793   0.711   2.970   1.706  2.9874 -0.2312  3.1499
  598SOL    HW2 1794   0.623   3.024   1.839 -3.9303 -0.0735  3.8808
  599SOL     OW 1795   2.628   1.671   0.017 -0.6984  0.0083  0.3368
  599SOL    HW1 1796   2.685   1.590   3.076 -0.8643 -1.8925  1.4058
  599SOL    HW2 1797   2.557   1.695   3.047  0.1699  0.9218  0.8220
  600SOL     OW 1798   0.789   0.826   3.014 -0.1484  0.4457 -0.3291
  600SOL    HW1 1799   0.739   0.865   2.934 -0.1183 -1.2392  1.7788
  600SOL    HW2 1800   0.833   0.905   3.064  2.1817 -0.8662  1.3641
  601SOL     OW 1801   1.187   1.166   2.788 -0.0487  0.5419 -0.3116
  601SOL    HW1 1802   1.262   1.176   2.716  1.6597  0.1571 -0.6760
  601SOL    HW2 1803   1.134   1.253   2.787 -0.7991  1.8581 -0.8798
  602SOL     OW 1804   1.274   2.690   1.381 -0.5536 -0.2109 -0.4181
  602SOL    HW1 1805   1.346   2.618   1.385 -0.4031 -0.2809 -1.2373
  602SOL    HW2 1806   1.276   2.740   1.292 -0.8548 -0.6134 -1.1789
  603SOL     OW 1807   1.121   2.983   2.490  0.2366  0.2168 -0.0291
  603SOL    HW1 1808   1.084   2.973   2.587 -2.4972 -0.7145 -2.3485
  603SOL    HW2 1809   1.174   2.898   2.463 -0.4362 -0.9823 -0.4650
  604SOL     OW 1810   2.889   0.097   2.311 -0.3096 -0.1142 -0.1117
  604SOL    HW1 1811   2.941   0.029   2.258  0.1587 -1.7293  1.0513
  604SOL    HW2 1812   2.843   0.055   2.391 -0.3071 -1.8323  0.3395
  605SOL     OW 1813   2.238   2.385   1.346  0.2904 -0.0740  0.6669
  605SOL    HW1 1814   2.176   2.326   1.404  0.1996 -1.7740 -1.6463
  605SOL    HW2 1815   2.177   2.453   1.302  0.1645 -0.3250 -0.0998
  606SOL     OW 1816   0.328   1.553   2.956 -0.2130 -0.0511 -0.2936
  606SOL    HW1 1817   0.342   1.452   2.969  2.4204  2.9192 -1.0911
  606SOL    HW2 1818   0.338   1.603   3.044  0.0288 -0.8541 -1.1757
  607SOL     OW 1819   1.004   0.509   0.497  0.6709 -0.2230 -0.3871
  607SOL    HW1 1820   1.069   0.495   0.419  1.4043  0.4826 -2.3805
  607SOL    HW2 1821   0.929   0.574   0.463  1.2804  1.1407  0.2946
  608SOL     OW 1822   1.751   1.343   2.497 -0.3182  0.4977  0.3061
  608SOL    HW1 1823   1.677   1.302   2.553  0.3963 -0.8130  0.3271
  608SOL    HW2 1824   1.738   1.442   2.490 -0.9885  1.3617  1.3352
  609SOL     OW 1825   2.683   0.620   0.942  0.0424  0.6822 -0.5222
  609SOL    HW1 1826   2.654   0.665   0.853  2.7565  0.5734  0.0131
  609SOL    HW2 1827   2.629   0.533   0.968 -1.8275 -4.7640  0.4687
  610SOL     OW 1828   0.495   2.373   2.898 -0.1253 -0.7134  0.1304
  610SOL    HW1 1829   0.570   2.312   2.876 -0.2648  1.1067  1.1647
  610SOL    HW2 1830   0.434   2.320   2.961 -0.2804 -0.0345  3.6686
  611SOL     OW 1831   1.760   1.427   0.487 -0.2415 -0.1143 -0.0945
  611SOL    HW1 1832   1.830   1.500   0.459  2.1600  0.4048 -1.8681
  611SOL    HW2 1833   1.678   1.477   0.526 -1.8389  0.2912 -0.1308
  612SOL     OW 1834   1.037   2.460   2.560  0.6116 -0.0735  0.0594
  612SOL    HW1 1835   1.045   2.361   2.543  3.9523  0.2311 -0.4188
  612SOL    HW2 1836   0.969   2.501   2.496  0.0877  0.4555 -1.3421
  613SOL     OW 1837   1.175   1.666   3.079 -0.2456  0.3907 -0.5745
  613SOL    HW1 1838   1.242   1.642   0.051 -0.6709  1.5741  0.9560
  613SOL    HW2 1839   1.222   1.719   3.009  1.6038 -3.7791  0.8281
  614SOL     OW 1840   2.635   2.383   1.877  0.1852 -0.5750 -0.1676
  614SOL    HW1 1841   2.715   2.411   1.930 -0.4012 -0.5913  3.1365
  614SOL    HW2 1842   2.624   2.285   1.871 -2.1657  1.9899  1.5766
  615SOL     OW 1843   2.229   1.410   3.081  0.4876 -0.1725 -0.5638
  615SOL    HW1 1844   2.149   1.360   3.036  1.1060 -2.1450  1.2069
  615SOL    HW2 1845   2.313   1.407   3.024 -1.5183  0.8924 -0.5296
  616SOL     OW 1846   1.677   0.200   1.086  0.2571  0.0595 -0.3056
  616SOL    HW1 1847   1.703   0.201   1.183  1.4700 -1.6305 -2.5106
  616SOL    HW2 1848   1.580   0.173   1.084  3.2648 -2.2977  0.5215
  617SOL     OW 1849   0.709   0.984   2.809  0.2519  0.0625  0.2983
  617SOL    HW1 1850   0.663   0.984   2.721 -0.6684  0.2556  0.5601
  617SOL    HW2 1851   0.769   1.069   2.820  1.0040  0.7723  2.3424
  618SOL     OW 1852   0.752   0.642   1.794 -0.2787  0.1243  0.1590
  618SOL    HW1 1853   0.831   0.703   1.783  0.8361 -3.5882  0.1896
  618SOL    HW2 1854   0.756   0.599   1.885 -0.9472 -1.1218 -1.0346
  619SOL     OW 1855   0.211   1.074   1.492  0.1319  0.2670 -0.1301
  619SOL    HW1 1856   0.139   1.097   1.561 -2.5686  0.9358  2.8976
  619SOL    HW2 1857   0.190   1.121   1.405  2.9312  0.9044 -1.6011
  620SOL     OW 1858   1.894   1.214   0.123 -0.4739  0.0870  0.1465
  620SOL    HW1 1859   1.848   1.127   0.089 -0.8710  0.2958  0.0373
  620SOL    HW2 1860   1.918   1.273   0.048  0.3627 -2.7674  1.2048
  621SOL     OW 1861   2.607   2.935   1.196  0.1158 -0.3501  0.3236
  621SOL    HW1 1862   2.660   2.960   1.114 -2.0783 -1.6058 -1.1050
  621SOL    HW2 1863   2.516   2.917   1.159 -0.0371  2.3851  0.4031
  622SOL     OW 1864   1.405   0.661   2.089 -0.6349 -0.7107 -0.1449
  622SOL    HW1 1865   1.471   0.645   2.169  2.3148 -1.1370 -0.3703
  622SOL    HW2 1866   1.322   0.606   2.104  0.9314  0.3514 -0.6158
  623SOL     OW 1867   0.977   0.475   2.686  0.7911 -0.5496 -0.3678
  623SOL    HW1 1868   0.938   0.472   2.594  1.3928  1.2507 -0.9024
  623SOL    HW2 1869   0.940   0.562   2.729 -2.7648  3.1488  1.3724
  624SOL     OW 1870   1.641   0.308   0.407  0.6552  0.5073  0.1264
  624SOL    HW1 1871   1.557   0.363   0.432  0.1203 -0.6298 -0.0336
  624SOL    HW2 1872   1.710   0.324   0.481  1.0765 -0.3933 -1.6569
  625SOL     OW 1873   0.746   1.276   0.805  0.3558  0.1366 -0.0037
  625SOL    HW1 1874   0.835   1.316   0.800 -0.6368 -0.8187 -1.1803
  625SOL    HW2 1875   0.685   1.346   0.853 -1.5339 -1.4363  0.6460
  626SOL     OW 1876   1.540   1.141   2.979 -0.0894 -0.8717  0.3463
  626SOL    HW1 1877   1.527   1.232   2.939 -0.6831  0.7835  0.4453
  626SOL    HW2 1878   1.450   1.103   3.001  0.6921 -1.7344 -2.5096
  627SOL     OW 1879   0.947   0.036   1.871 -0.1411 -0.2602 -0.4551
  627SOL    HW1 1880   1.026   3.079   1.836 -0.8176 -0.7355  1.9424
  627SOL    HW2 1881   0.857   3.092   1.846 -1.0394 -0.5371  2.4586
  628SOL     OW 1882   2.452   0.401   2.143  0.0417  0.3520 -0.0039
  628SOL    HW1 1883   2.434   0.480   2.082  0.6485 -3.2423  0.5599
  628SOL    HW2 1884   2.406   0.419   2.236 -1.5236  2.5346  2.4108
  629SOL     OW 1885   0.834   1.209   2.864  0.4374  0.3523 -0.1059
  629SOL    HW1 1886   0.824   1.242   2.962 -1.0420  1.5368 -0.9148
  629SOL    HW2 1887   0.770   1.251   2.794 -3.8401 -1.7011  1.9684
  630SOL     OW 1888   1.189   0.196   2.259 -0.6874  0.7805  0.0342
  630SOL    HW1 1889   1.159   0.279   2.306  1.2942 -0.5059 -0.9702
  630SOL    HW2 1890   1.201   0.119   2.328  1.2379  0.7719  1.6842
  631SOL     OW 1891   2.713   1.196   0.683  0.1522  0.0618 -0.3210
  631SOL    HW1 1892   2.793   1.252   0.700  0.4332 -3.1929 -0.4771
  631SOL    HW2 1893   2.703   1.140   0.767  0.0429  0.3584  0.0461
  632SOL     OW 1894   2.530   1.416   0.714  0.3216  0.3329 -0.2951
  632SOL    HW1 1895   2.584   1.331   0.692 -0.0497 -0.3471  1.0717
  632SOL    HW2 1896   2.559   1.455   0.799 -0.0808 -0.3018 -0.3607
  633SOL     OW 1897   1.486   0.936   1.181 -0.1435 -0.0204 -0.1458
  633SOL    HW1 1898   1.466   1.016   1.126 -0.0464 -0.5337  0.4625
  633SOL    HW2 1899   1.479   0.959   1.279  2.7218 -1.1510 -1.6233
  634SOL     OW 1900   1.835   0.053   0.919 -0.1841  0.6015 -0.3108
  634SOL    HW1 1901   1.778   0.096   0.990  0.2330 -0.3454 -1.1439
  634SOL    HW2 1902   1.924   0.027   0.963  2.0026  0.5989 -0.6986
  635SOL     OW 1903   1.836   0.472   1.442 -0.5634  0.2700  0.0561
  635SOL    HW1 1904   1.867   0.529   1.360  0.4950  1.1433 -1.9193
  635SOL    HW2 1905   1.770   0.527   1.499  0.7085  1.6127 -1.0887
  636SOL     OW 1906   1.013   0.934   0.587  0.3985  0.2916  0.0051
  636SOL    HW1 1907   1.030   0.974   0.495 -1.7287  3.3194  4.9137
  636SOL    HW2 1908   0.914   0.903   0.598 -1.0780  3.3795 -1.8895
  637SOL     OW 1909   1.493   2.351   0.100 -0.2298 -0.1227  0.3368
  637SOL    HW1 1910   1.417   2.415   0.080  0.4551 -0.8152  0.7340
  637SOL    HW2 1911   1.574   2.372   0.043 -1.3664 -0.8034  1.7180
  638SOL     OW 1912   1.114   2.866   3.073  0.2228 -0.4476  0.1005
  638SOL    HW1 1913   1.041   2.935   3.096  2.3654 -0.6308 -0.9898
  638SOL    HW2 1914   1.072   2.778   3.048  0.1208 -0.8999  0.3768
  639SOL     OW 1915   0.722   1.971   1.431 -0.5079 -0.5533  0.1262
  639SOL    HW1 1916   0.697   2.064   1.401 -0.8034  0.0787 -0.0100
  639SOL    HW2 1917   0.655   1.904   1.391  1.4128 -2.8259 -2.4744
  640SOL     OW 1918   0.264   2.973   0.275  0.0755 -0.3665  0.0430
  640SOL    HW1 1919   0.294   2.904   0.345  0.6245  3.6211 -0.8386
  640SOL    HW2 1920   0.342   3.011   0.223 -1.1401  1.2195 -2.0989
  641SOL     OW 1921   0.132   0.277   0.238 -0.1846  0.5361  0.5505
  641SOL    HW1 1922   0.178   0.238   0.321  1.5259  0.5239  0.3198
  641SOL    HW2 1923   0.190   0.352   0.206 -0.5880  1.2992 -0.5461
  642SOL     OW 1924   0.250   1.617   0.972 -0.1472 -0.5660 -0.3099
  642SOL    HW1 1925   0.302   1.673   0.904 -0.0667 -0.5451 -0.3901
  642SOL    HW2 1926   0.148   1.641   0.958 -1.0707  2.2322  3.9516
  643SOL     OW 1927   0.910   1.834   2.331  0.0063  0.2655  0.4374
  643SOL    HW1 1928   1.001   1.797   2.350 -0.9439  0.1087 -1.6434
  643SOL    HW2 1929   0.913   1.929   2.292 -1.0917  0.3747 -0.0236
  644SOL     OW 1930   1.722   2.436   0.469 -0.0595  0.7533  0.2824
  644SOL    HW1 1931   1.698   2.336   0.484  2.5410 -1.7798 -0.5266
  644SOL    HW2 1932   1.660   2.497   0.530 -2.9965  1.9326  1.8127
  645SOL     OW 1933   1.752   2.121   1.389 -0.1475 -0.4131 -0.3866
  645SOL    HW1 1934   1.712   2.067   1.460  1.2813  0.3903 -1.1051
  645SOL    HW2 1935   1.783   2.058   1.312 -1.4059  1.2915 -0.3985
  646SOL     OW 1936   0.971   2.806   0.399  0.4346  0.5794  0.1596
  646SOL    HW1 1937   0.966   2.903   0.361  1.3263  3.9906 -1.9366
  646SOL    HW2 1938   0.882   2.755   0.386  0.9835 -1.4239  1.8662
  647SOL     OW 1939   0.450   3.018   1.854 -0.0923 -0.2788  0.3688
  647SOL    HW1 1940   0.431   2.931   1.903 -0.1128 -1.7861  1.0197
  647SOL    HW2 1941   0.404   3.025   1.765  1.1139  1.0911  0.4564
  648SOL     OW 1942   2.609   1.060   0.465 -0.4174  0.4332  0.3314
  648SOL    HW1 1943   2.534   1.020   0.523 -0.8361 -1.2306  0.8388
  648SOL    HW2 1944   2.666   1.115   0.532  0.8126  3.2868  1.7463
  649SOL     OW 1945   1.754   2.544   2.800 -0.6588 -0.1543 -0.1377
  649SOL    HW1 1946   1.699   2.501   2.729 -0.4770  2.4455  1.9838
  649SOL    HW2 1947   1.755   2.646   2.791 -0.4301 -2.4251  1.2078
  650SOL     OW 1948   2.416   1.320   1.853  0.2657 -0.2134 -0.1277
  650SOL    HW1 1949   2.425   1.399   1.923  0.1005 -3.6198 -2.4617
  650SOL    HW2 1950   2.440   1.230   1.896  2.5491  1.1634 -1.4199
  651SOL     OW 1951   1.570   1.699   2.841  0.1265 -0.0896 -0.3333
  651SOL    HW1 1952   1.581   1.661   2.937  1.1252 -1.8358  1.9726
  651SOL    HW2 1953   1.478   1.743   2.826 -4.2024  2.3617 -1.3178
  652SOL     OW 1954   0.668   0.006   2.672  0.2089  0.5592 -0.1734
  652SOL    HW1 1955   0.731   0.005   2.749 -1.3145  1.2534 -1.7872
  652SOL    HW2 1956   0.569   0.013   2.696 -0.1153 -1.1088 -1.2590
  653SOL     OW 1957   2.270   2.118   1.000  0.0493 -0.1681 -0.0862
  653SOL    HW1 1958   2.337   2.046   0.974 -2.1221  1.0767 -1.1501
  653SOL    HW2 1959   2.177   2.082   1.026 -1.0306 -2.9195  0.8612
  654SOL     OW 1960   2.650   2.909   2.142  0.0957 -0.0110 -0.1908
  654SOL    HW1 1961   2.577   2.979   2.158 -0.8234  1.0631  0.0350
  654SOL    HW2 1962   2.746   2.948   2.108  3.4425 -0.1052 -0.1824
  655SOL     OW 1963   2.685   2.151   1.245  0.3858  0.0626 -0.1228
  655SOL    HW1 1964   2.589   2.178   1.246  0.2855 -2.0570  0.6284
  655SOL    HW2 1965   2.740   2.216   1.195  0.2386 -0.7887  1.8647
  656SOL     OW 1966   0.003   1.873   2.725 -0.4077 -0.2910  0.1407
  656SOL    HW1 1967   0.025   1.904   2.627  1.6516 -0.4689 -0.4516
  656SOL    HW2 1968   0.039   1.777   2.735  1.0464  0.8703 -1.5280
  657SOL     OW 1969   3.021   1.017   0.237  0.2402 -0.3129  0.2736
  657SOL    HW1 1970   2.981   1.018   0.334  1.9660  2.3382  3.4985
  657SOL    HW2 1971   3.048   0.919   0.219  0.9004 -0.9631  1.8990
  658SOL     OW 1972   1.438   1.286   1.355  0.5792 -0.4399  0.6574
  658SOL    HW1 1973   1.485   1.341   1.429  0.6408 -1.7819  1.4293
  658SOL    HW2 1974   1.396   1.357   1.294  3.0773  1.3287  2.1655
  659SOL     OW 1975   0.923   0.354   1.210 -0.2820 -0.4769  0.6045
  659SOL    HW1 1976   0.929   0.311   1.117  3.5418  2.0281  0.2149
  659SOL    HW2 1977   0.963   0.293   1.279 -2.0428  0.6505 -1.5864
  660SOL     OW 1978   2.025   1.183   1.091 -0.5018  0.2818  0.3749
  660SOL    HW1 1979   2.011   1.202   0.991 -0.9059  3.6190 -0.8590
  660SOL    HW2 1980   1.949   1.128   1.126  0.7053 -2.0224  0.3622
  661SOL     OW 1981   0.305   1.350   0.217  0.3071 -0.8495 -0.4108
  661SOL    HW1 1982   0.336   1.441   0.255 -2.5583  0.0945  0.1268
  661SOL    HW2 1983   0.222   1.359   0.158 -1.5333  1.7961  0.4267
  662SOL     OW 1984   2.626   0.857   2.018  0.2969  0.1591  0.2091
  662SOL    HW1 1985   2.682   0.820   2.092 -0.4588 -2.3942 -1.5030
  662SOL    HW2 1986   2.676   0.857   1.928  1.7492 -0.0125  2.6961
  663SOL     OW 1987   2.344   1.446   1.347  0.3631 -0.3589 -0.1051
  663SOL    HW1 1988   2.383   1.459   1.254 -0.9849  0.1225 -0.0225
  663SOL    HW2 1989   2.417   1.465   1.413 -1.2130 -1.4744 -2.4962
  664SOL     OW 1990   0.671   0.190   1.378 -0.1984  0.2886 -0.0631
  664SOL    HW1 1991   0.650   0.239   1.465 -1.4712  0.0277 -2.8082
  664SOL    HW2 1992   0.673   0.259   1.303 -3.2351  0.5993  2.6061
  665SOL     OW 1993   1.567   0.188   2.917 -0.2615  0.7861  0.2635
  665SOL    HW1 1994   1.645   0.255   2.930  1.0343 -1.0901  0.4546
  665SOL    HW2 1995   1.561   0.122   3.000  0.1361 -2.6820  0.6379
  666SOL     OW 1996   0.469   0.188   1.841 -0.2279 -0.1979 -0.0174
  666SOL    HW1 1997   0.530   0.202   1.758 -1.9455 -1.4021 -0.7335
  666SOL    HW2 1998   0.441   0.087   1.848  0.2444 -1.1872 -0.7288
  667SOL     OW 1999   1.836   1.443   1.937 -0.3844  0.3498 -0.5805
  667SOL    HW1 2000   1.899   1.459   1.864 -0.6949  0.1622 -0.0282
  667SOL    HW2 2001   1.874   1.501   2.019  2.0851  1.5093  1.2752
  668SOL     OW 2002   0.199   1.477   2.315 -0.1303 -0.0342  0.4831
  668SOL    HW1 2003   0.235   1.385   2.327 -0.5933  1.1510  0.2208
  668SOL    HW2 2004   0.138   1.493   2.237 -0.2094  1.2081 -2.3498
  669SOL     OW 2005   2.125   0.019   2.814  0.2764 -0.3588  0.1475
  669SOL    HW1 2006   2.193   3.069   2.759 -4.2980  1.2226  0.6064
  669SOL    HW2 2007   2.117   3.065   2.903  1.1089 -1.3931  1.7922
  670SOL     OW 2008   2.610   1.259   2.267  0.3188  0.1945 -0.3170
  670SOL    HW1 2009   2.666   1.176   2.290  2.1992 -2.0552  0.7703
  670SOL    HW2 2010   2.570   1.300   2.356 -1.3352 -0.0820  0.6737
  671SOL     OW 2011   2.482   1.912   0.320 -0.3291 -0.1542 -0.1145
  671SOL    HW1 2012   2.480   1.812   0.285  2.1514 -2.2526 -1.2670
  671SOL    HW2 2013   2.529   1.913   0.410 -1.3126 -2.3252 -1.1557
  672SOL     OW 2014   1.381   1.168   2.105  0.5150 -0.1351  0.1541
  672SOL    HW1 2015   1.469   1.193   2.064 -1.1525 -0.9894  1.8738
  672SOL    HW2 2016   1.354   1.077   2.072 -1.8223 -0.9233  1.4088
  673SOL     OW 2017   0.051   1.984   1.475 -0.0969  0.3681  0.4131
  673SOL    HW1 2018   0.060   1.958   1.380 -3.4888  0.1768  2.4804
  673SOL    HW2 2019   0.139   1.961   1.524  0.6250 -0.8353 -1.1251
  674SOL     OW 2020   1.150   1.672   1.774 -0.1806  0.1459  0.6060
  674SOL    HW1 2021   1.107   1.703   1.861  2.7456  1.3737  1.1153
  674SOL    HW2 2022   1.148   1.745   1.703  1.2655  2.3815 -3.3894
  675SOL     OW 2023   0.027   0.848   0.840  0.6771  0.1970  0.0186
  675SOL    HW1 2024   0.093   0.915   0.801 -0.2972  0.4465  1.7976
  675SOL    HW2 2025   0.070   0.757   0.855  1.4874 -0.1606 -0.0641
  676SOL     OW 2026   3.078   1.355   0.921  0.2736 -0.5532 -0.0874
  676SOL    HW1 2027   0.081   1.343   0.914 -1.1924  1.1388 -1.2888
  676SOL    HW2 2028   3.040   1.292   0.996 -0.0038  0.4701  1.6150
  677SOL     OW 2029   1.647   1.821   2.438  0.0492 -0.1722  0.2043
  677SOL    HW1 2030   1.668   1.777   2.350  1.1525  0.4898 -0.1177
  677SOL    HW2 2031   1.660   1.762   2.519 -2.2040  1.6658 -0.3557
  678SOL     OW 2032   2.714   1.552   0.879 -0.0758 -0.2991  0.1772
  678SOL    HW1 2033   2.707   1.633   0.817 -0.2053  2.2516 -0.5000
  678SOL    HW2 2034   2.702   1.580   0.976  0.6629 -3.0682 -1.2783
  679SOL     OW 2035   0.606   2.788   0.671 -0.5653  0.0171  0.4169
  679SOL    HW1 2036   0.623   2.699   0.715  1.6457 -0.0404  0.5135
  679SOL    HW2 2037   0.660   2.863   0.719  1.1431 -1.3264  0.0263
  680SOL     OW 2038   0.133   1.923   1.216  0.3577 -0.2563 -0.0305
  680SOL    HW1 2039   0.094   1.999   1.158  0.2414 -1.1001  0.7811
  680SOL    HW2 2040   0.092   1.833   1.192 -0.4553 -0.2345 -0.8961
  681SOL     OW 2041   1.228   0.576   1.021  0.1473 -0.7601  0.0237
  681SOL    HW1 2042   1.184   0.568   0.930 -0.1385  3.2659  1.2221
  681SOL    HW2 2043   1.315   0.525   1.023  2.0294  0.8684 -1.1301
  682SOL     OW 2044   1.640   2.554   1.558  0.3354  0.4770  0.5702
  682SOL    HW1 2045   1.548   2.534   1.512 -1.9282  1.7951 -0.7037
  682SOL    HW2 2046   1.632   2.604   1.641  0.5617  0.2103 -1.3838
  683SOL     OW 2047   2.574   1.515   1.471 -0.3411  0.4097  1.0658
  683SOL    HW1 2048   2.613   1.456   1.544  1.2863 -1.6389  0.2328
  683SOL    HW2 2049   2.645   1.564   1.421 -1.1921 -0.4615  1.0281
  684SOL     OW 2050   0.170   1.609   1.738 -0.1037  0.1048  0.0191
  684SOL    HW1 2051   0.205   1.567   1.655 -3.4039  0.1486  0.9686
  684SOL    HW2 2052   0.239   1.587   1.813  0.1449  1.6749 -0.3297
  685SOL     OW 2053   1.949   1.864   0.309  0.1658 -0.4322 -0.4022
  685SOL    HW1 2054   1.906   1.951   0.300  0.6241 -0.4945  3.2168
  685SOL    HW2 2055   2.024   1.853   0.242  2.3497 -2.4917  1.6714
  686SOL     OW 2056   0.035   0.730   1.218 -0.7283  0.5917  0.2419
  686SOL    HW1 2057   0.067   0.808   1.162  0.0804 -0.8733  0.4937
  686SOL    HW2 2058   0.073   0.648   1.177  0.7994  0.4352 -3.1725
  687SOL     OW 2059   1.841   0.073   2.669  0.4300  0.3085  0.3155
  687SOL    HW1 2060   1.907   0.144   2.699  2.0551 -0.5001 -0.9518
  687SOL    HW2 2061   1.773   0.107   2.602 -2.2645  1.6055  1.3071
  688SOL     OW 2062   1.277   2.134   2.549 -0.3771 -0.1088  0.4801
  688SOL    HW1 2063   1.328   2.077   2.486 -2.2301  0.1336  3.2736
  688SOL    HW2 2064   1.176   2.123   2.535  0.4000  1.1952  0.0580
  689SOL     OW 2065   2.139   1.278   1.786 -0.0198  0.5264  0.4868
  689SOL    HW1 2066   2.238   1.293   1.804 -1.3010 -0.7991 -0.7985
  689SOL    HW2 2067   2.101   1.209   1.853  1.8323 -0.4028  1.8101
  690SOL     OW 2068   1.862   1.754   1.544 -0.1121 -0.1673  1.2755
  690SOL    HW1 2069   1.762   1.740   1.562 -0.6989 -0.4981  0.6408
  690SOL    HW2 2070   1.885   1.703   1.458 -0.4014 -1.0816 -0.9793
  691SOL     OW 2071   0.137   1.616   0.489  0.3259  0.2812 -0.3621
  691SOL    HW1 2072   0.109   1.695   0.545  0.6219 -1.0640 -0.1514
  691SOL    HW2 2073   0.140   1.522   0.536  1.3277 -3.8207 -1.3819
  692SOL     OW 2074   2.712   2.784   2.520  0.4881  0.1350  0.3278
  692SOL    HW1 2075   2.672   2.778   2.612  0.6394 -0.3344 -0.2060
  692SOL    HW2 2076   2.766   2.704   2.492 -0.0711  2.2388  0.6575
  693SOL     OW 2077   2.925   1.451   2.285 -1.0943 -0.0119 -0.0009
  693SOL    HW1 2078   2.910   1.512   2.366  1.5645  1.5511  0.0305
  693SOL    HW2 2079   3.004   1.485   2.230 -0.3038 -1.8868 -0.2956
  694SOL     OW 2080   2.424   0.208   1.942 -0.1809  0.5411  0.1415
  694SOL    HW1 2081   2.432   0.273   2.019  1.2071 -0.7795 -0.7366
  694SOL    HW2 2082   2.329   0.204   1.908  0.1303 -0.5820 -0.0158
  695SOL     OW 2083   1.067   0.700   2.383 -0.1507  0.5468 -0.7279
  695SOL    HW1 2084   0.974   0.735   2.352 -1.8636  1.3580  0.4258
  695SOL    HW2 2085   1.121   0.776   2.424 -0.0136 -0.8857 -0.9564
  696SOL     OW 2086   1.796   2.999   1.763 -0.0246 -0.4816 -0.0487
  696SOL    HW1 2087   1.885   3.036   1.793  0.8913  2.1611 -1.9087
  696SOL    HW2 2088   1.781   2.902   1.787 -0.2255  1.4808  0.4037
  697SOL     OW 2089   1.530   0.375   2.082 -0.3820  0.1566 -0.3470
  697SOL    HW1 2090   1.593   0.424   2.146  0.5371 -0.3670 -0.4525
  697SOL    HW2 2091   1.579   0.367   1.993  1.5732 -1.3099 -0.1023
  698SOL     OW 2092   2.190   1.775   2.408  0.0270 -0.1461 -0.4337
  698SOL    HW1 2093   2.207   1.818   2.495 -0.1866 -1.8407 -0.7277
  698SOL    HW2 2094   2.122   1.825   2.350 -1.0676 -3.3089  0.7694
  699SOL     OW 2095   2.174   0.740   0.229  0.1097 -0.3693 -0.0101
  699SOL    HW1 2096   2.109   0.767   0.304 -0.9472  0.5788 -2.2621
  699SOL    HW2 2097   2.223   0.827   0.203 -0.4890 -0.4261 -0.1130
  700SOL     OW 2098   1.298   0.162   0.517 -0.2018 -0.7786  0.1294
  700SOL    HW1 2099   1.350   0.181   0.603  0.2335  2.1452 -0.3254
  700SOL    HW2 2100   1.364   0.136   0.446 -1.1085 -0.4588 -2.7683
  701SOL     OW 2101   0.243   0.978   0.725  0.2836  0.1911  0.4350
  701SOL    HW1 2102   0.313   0.954   0.659  0.0073 -0.0102 -1.0722
  701SOL    HW2 2103   0.177   1.044   0.688 -2.1774 -1.7728  0.0041
  702SOL     OW 2104   1.908   0.152   1.935  0.7244  0.2367 -0.0395
  702SOL    HW1 2105   1.878   0.129   2.031 -0.9666 -1.8731  1.7562
  702SOL    HW2 2106   1.997   0.201   1.928 -0.1685  3.1619 -3.7722
  703SOL     OW 2107   2.982   1.180   1.093 -0.6340 -0.0978  0.1199
  703SOL    HW1 2108   2.910   1.115   1.066 -0.5356  0.0621 -0.2727
  703SOL    HW2 2109   3.072   1.130   1.096  1.4311  0.5934  1.0712
  704SOL     OW 2110   0.879   2.433   1.271 -0.0971 -0.1838 -0.0779
  704SOL    HW1 2111   0.906   2.443   1.176  1.2756  0.5818  3.0221
  704SOL    HW2 2112   0.958   2.397   1.324 -1.6478 -0.4824 -1.0158
  705SOL     OW 2113   0.317   1.295   2.642 -0.4397  0.1288  0.3497
  705SOL    HW1 2114   0.337   1.248   2.550 -1.6915 -0.8865 -2.6738
  705SOL    HW2 2115   0.375   1.378   2.650 -0.4661 -2.0343 -0.0971
  706SOL     OW 2116   2.959   2.936   0.151  0.6952  0.0310 -0.4337
  706SOL    HW1 2117   2.880   2.875   0.130 -2.1989 -0.8432 -0.3612
  706SOL    HW2 2118   2.935   2.993   0.233  1.1519  2.4305  3.8379
  707SOL     OW 2119   1.529   2.789   2.047 -0.0226  0.7948  0.3257
  707SOL    HW1 2120   1.531   2.889   2.061 -1.1935 -0.8383 -0.2314
  707SOL    HW2 2121   1.437   2.748   2.033  1.7456 -1.2193 -0.9858
  708SOL     OW 2122   0.196   2.692   1.552  0.4608  0.8200  0.9976
  708SOL    HW1 2123   0.264   2.659   1.477 -0.6856  0.3636 -0.8456
  708SOL    HW2 2124   0.156   2.619   1.606  1.6802  2.2930 -0.7185
  709SOL     OW 2125   2.958   0.609   1.868 -0.2656  0.1672 -0.6474
  709SOL    HW1 2126   3.012   0.689   1.848 -0.4577 -0.9654  0.4759
  709SOL    HW2 2127   2.970   0.570   1.964 -1.5552 -2.1725 -1.5705
  710SOL     OW 2128   0.341   0.891   0.952 -0.1019 -0.1935  0.2135
  710SOL    HW1 2129   0.428   0.951   0.962  2.4687 -0.3203 -1.4107
  710SOL    HW2 2130   0.294   0.901   0.863  2.3509  1.1655  1.7926
  711SOL     OW 2131   2.722   2.808   1.401 -0.6246 -0.4919  0.6039
  711SOL    HW1 2132   2.663   2.751   1.464  0.1138 -0.5075  1.6627
  711SOL    HW2 2133   2.661   2.851   1.331  1.5418  3.8815  1.4880
  712SOL     OW 2134   0.287   2.650   2.466 -0.2117  0.3062 -0.2335
  712SOL    HW1 2135   0.348   2.621   2.538 -1.2109  0.0027 -1.7336
  712SOL    HW2 2136   0.306   2.744   2.439 -1.0346 -1.8700  1.0848
  713SOL     OW 2137   2.442   0.376   0.768  0.0982  0.2520  0.1645
  713SOL    HW1 2138   2.343   0.348   0.772 -4.5839 -0.6323 -0.0560
  713SOL    HW2 2139   2.451   0.457   0.705 -1.0999  0.9352 -0.4661
  714SOL     OW 2140   1.791   1.934   2.890 -0.6037 -0.3607  0.0368
  714SOL    HW1 2141   1.716   1.874   2.853 -0.2078 -1.4466 -0.7214
  714SOL    HW2 2142   1.866   1.951   2.823 -0.4486  2.2402 -2.5960
  715SOL     OW 2143   0.130   0.579   0.905 -0.0019 -0.3782 -0.4761
  715SOL    HW1 2144   0.183   0.550   0.982 -0.7058  2.2492 -2.2879
  715SOL    HW2 2145   0.030   0.570   0.919  0.6849  0.9107 -1.1969
  716SOL     OW 2146   0.853   0.553   1.556  0.0416  0.0474  0.6511
  716SOL    HW1 2147   0.937   0.502   1.585  0.1774 -1.0350  0.2173
  716SOL    HW2 2148   0.801   0.582   1.630  2.7552  1.1226 -0.0670
  717SOL     OW 2149   0.846   0.347   2.454  0.2966  0.0754 -0.1911
  717SOL    HW1 2150   0.824   0.245   2.467 -1.1827 -2.1854  2.4769
  717SOL    HW2 2151   0.757   0.397   2.475 -1.2687 -0.8917 -0.9292
  718SOL     OW 2152   1.150   0.460   0.280  0.5933  0.3407 -0.0063
  718SOL    HW1 2153   1.177   0.369   0.308 -1.9829  0.5996  0.1472
  718SOL    HW2 2154   1.220   0.508   0.223  0.6452 -0.0040  2.6821
  719SOL     OW 2155   2.810   2.174   2.525  0.0066 -0.4726 -0.4363
  719SOL    HW1 2156   2.816   2.149   2.625  1.0378 -0.5104 -1.5360
  719SOL    HW2 2157   2.878   2.248   2.504 -0.2725  2.1240 -0.3879
  720SOL     OW 2158   1.175   0.474   1.357 -0.1819  0.2472 -0.0774
  720SOL    HW1 2159   1.164   0.571   1.388  0.6282  0.1395  0.5033
  720SOL    HW2 2160   1.158   0.464   1.257 -0.3394 -2.4553  0.3369
  721SOL     OW 2161   2.982   2.901   0.995  0.3511  0.4204 -0.4943
  721SOL    HW1 2162   3.037   2.859   0.923 -2.5049  1.0990 -1.1776
  721SOL    HW2 2163   2.983   2.844   1.076  3.7983  0.6572  0.6956
  722SOL     OW 2164   1.034   1.390   2.803  0.4760 -0.4577  0.5767
  722SOL    HW1 2165   0.966   1.324   2.834 -2.2556 -1.7978  0.1027
  722SOL    HW2 2166   0.987   1.479   2.783  4.1624  0.9137  0.4359
  723SOL     OW 2167   2.309   0.747   1.163  0.3554  0.1394  1.0829
  723SOL    HW1 2168   2.411   0.757   1.161 -0.9155  0.9075  0.3312
  723SOL    HW2 2169   2.266   0.834   1.146  1.4857 -4.0768 -0.6370
  724SOL     OW 2170   0.830   2.073   0.337  0.0362  0.1852 -0.1180
  724SOL    HW1 2171   0.741   2.064   0.284 -1.2583  0.0183 -3.2767
  724SOL    HW2 2172   0.902   2.018   0.290  3.0741  1.7929  1.2907
  725SOL     OW 2173   0.438   1.230   1.502 -0.3786  0.6686 -0.2269
  725SOL    HW1 2174   0.365   1.161   1.514 -0.4371 -0.3572  0.9800
  725SOL    HW2 2175   0.525   1.218   1.555 -0.6051  1.5332 -0.0086
  726SOL     OW 2176   2.454   1.140   2.858  1.2019 -0.3911  0.1572
  726SOL    HW1 2177   2.494   1.048   2.875 -1.1505 -1.7116 -1.0298
  726SOL    HW2 2178   2.371   1.129   2.798 -0.9588 -1.5991 -0.8121
  727SOL     OW 2179   1.934   1.229   2.669 -0.4556  0.4499  0.2748
  727SOL    HW1 2180   1.867   1.288   2.622  0.2389  0.0131  1.3338
  727SOL    HW2 2181   1.941   1.142   2.622  0.1315  2.9818  1.8987
  728SOL     OW 2182   1.420   2.456   1.417 -0.2531 -0.3331  0.2655
  728SOL    HW1 2183   1.334   2.425   1.462 -1.6551 -3.3254 -0.0954
  728SOL    HW2 2184   1.464   2.390   1.357 -0.3693  3.3905 -0.6705
  729SOL     OW 2185   1.852   0.812   2.222  0.1179  0.3782  0.2735
  729SOL    HW1 2186   1.909   0.801   2.303 -1.8626 -0.7060  0.1898
  729SOL    HW2 2187   1.789   0.893   2.238 -1.8438  2.2567 -0.3658
  730SOL     OW 2188   1.255   0.802   1.150  0.3446 -0.3078 -0.1233
  730SOL    HW1 2189   1.347   0.841   1.144 -0.3909 -2.2599 -2.8653
  730SOL    HW2 2190   1.243   0.721   1.087  4.4576  0.6255 -3.0158
  731SOL     OW 2191   0.883   0.269   2.857 -0.2331 -0.3245 -0.2013
  731SOL    HW1 2192   0.953   0.320   2.801  0.6744 -0.5875  0.5927
  731SOL    HW2 2193   0.789   0.295   2.830 -3.2120  1.5738 -0.0345
  732SOL     OW 2194   0.501   0.615   0.184  0.2157 -0.1635  0.2368
  732SOL    HW1 2195   0.506   0.592   0.283 -2.4377 -0.5408 -2.7015
  732SOL    HW2 2196   0.594   0.632   0.144 -0.6624 -0.0194  0.2134
  733SOL     OW 2197   1.738   1.627   2.654  0.2728 -0.2391 -0.4232
  733SOL    HW1 2198   1.698   1.673   2.736  2.2468 -0.0142 -0.7420
  733SOL    HW2 2199   1.842   1.634   2.651  2.9560  0.1058  0.6197
  734SOL     OW 2200   0.297   2.084   2.850 -0.0320 -0.3213 -0.3727
  734SOL    HW1 2201   0.315   2.057   2.945 -0.5020  0.3191 -2.0511
  734SOL    HW2 2202   0.238   2.167   2.840  2.3777  1.5381 -1.7303
  735SOL     OW 2203   2.114   0.597   1.016 -0.1280  0.1291 -0.3704
  735SOL    HW1 2204   2.133   0.574   0.920  0.8262 -3.1182  1.1449
  735SOL    HW2 2205   2.194   0.649   1.053 -1.1223 -5.3217 -2.0951
  736SOL     OW 2206   1.992   1.680   2.650  0.5869  0.3198  0.0592
  736SOL    HW1 2207   2.036   1.766   2.688  0.4935 -0.9529  0.0214
  736SOL    HW2 2208   2.043   1.638   2.573 -0.5764  0.0764  0.4787
  737SOL     OW 2209   2.904   0.603   0.534  0.0533  0.5604  0.2055
  737SOL    HW1 2210   2.871   0.620   0.436 -0.5654  1.1117 -2.0897
  737SOL    HW2 2211   3.002   0.574   0.540 -0.0586 -0.8364  0.2444
  738SOL     OW 2212   0.684   2.095   1.758  0.1082  0.1524 -0.2981
  738SOL    HW1 2213   0.788   2.099   1.754  0.5629 -0.8859  0.3330
  738SOL    HW2 2214   0.638   2.176   1.715 -2.0968  4.1799 -0.2758
  739SOL     OW 2215   1.245   2.730   2.086 -0.2268 -0.3904 -0.4641
  739SOL    HW1 2216   1.205   2.705   1.996  1.3040  1.5839  0.1632
  739SOL    HW2 2217   1.201   2.815   2.125  0.1894  2.9583  3.0460
  740SOL     OW 2218   1.994   2.324   1.463 -0.9614 -0.6564 -0.2400
  740SOL    HW1 2219   1.911   2.267   1.464  1.7663  1.1364 -1.5412
  740SOL    HW2 2220   1.976   2.411   1.509 -3.1505 -0.5133 -1.1153
  741SOL     OW 2221   2.199   0.380   0.386 -0.6120 -0.4806 -0.3349
  741SOL    HW1 2222   2.125   0.397   0.323  1.1020  0.9170  1.7171
  741SOL    HW2 2223   2.286   0.425   0.343  0.6554  0.7296 -3.7407
  742SOL     OW 2224   1.007   2.608   2.993 -0.5411 -0.2305  0.8191
  742SOL    HW1 2225   0.997   2.599   2.892 -0.2200 -0.2231 -1.3578
  742SOL    HW2 2226   0.977   2.520   3.032  0.9399  2.9626 -0.6346
  743SOL     OW 2227   2.518   1.113   2.002 -0.2720  0.0553 -0.2125
  743SOL    HW1 2228   2.579   1.181   2.044  0.2877  1.8040  1.6098
  743SOL    HW2 2229   2.547   1.011   2.012 -2.2253 -3.4264 -0.6430
  744SOL     OW 2230   2.609   0.777   0.717 -0.0488 -0.2346 -0.4455
  744SOL    HW1 2231   2.575   0.700   0.658 -2.0102 -1.2368  0.5989
  744SOL    HW2 2232   2.708   0.799   0.700 -0.2325 -0.6249  1.6572
  745SOL     OW 2233   2.620   1.117   1.469  0.4973 -0.5006 -0.1281
  745SOL    HW1 2234   2.622   1.036   1.534 -0.4766 -0.6902  0.5162
  745SOL    HW2 2235   2.590   1.205   1.519  0.4598  0.4763  1.8749
  746SOL     OW 2236   1.252   1.456   0.545  0.5261 -0.3600 -0.2420
  746SOL    HW1 2237   1.161   1.507   0.560 -1.6837 -1.1441  2.6866
  746SOL    HW2 2238   1.255   1.397   0.459  2.4612  0.0962 -0.5713
  747SOL     OW 2239   1.221   1.525   1.526 -0.2053  0.8766 -0.2360
  747SOL    HW1 2240   1.209   1.593   1.603  0.3335  2.5879  2.3508
  747SOL    HW2 2241   1.278   1.561   1.448 -0.7906 -1.6732  2.1834
  748SOL     OW 2242   0.283   2.683   3.095  0.2250 -0.2919 -0.1338
  748SOL    HW1 2243   0.324   2.756   3.037  0.7444 -0.8279  1.2579
  748SOL    HW2 2244   0.357   2.619   0.016 -1.3890 -0.5445  0.7337
  749SOL     OW 2245   0.328   0.983   2.564  0.5977 -0.4013  0.1827
  749SOL    HW1 2246   0.252   1.045   2.576  0.6121 -2.1128 -0.9385
  749SOL    HW2 2247   0.311   0.924   2.483 -0.9587  1.0959  2.0095
  750SOL     OW 2248   1.789   1.038   1.882 -0.1881  0.3441 -0.2495
  750SOL    HW1 2249   1.763   1.062   1.784 -1.1577  2.5238  0.3196
  750SOL    HW2 2250   1.798   0.936   1.889  1.7681 -1.1425  1.1209
  751SOL     OW 2251   2.750   0.655   0.307 -0.0783 -0.4499 -0.1855
  751SOL    HW1 2252   2.698   0.571   0.328 -1.5192  0.8995  0.1300
  751SOL    HW2 2253   2.688   0.734   0.298 -2.9063  0.0501  1.2542
  752SOL     OW 2254   2.940   2.776   1.233  0.2188  0.2032 -0.3595
  752SOL    HW1 2255   3.005   2.806   1.302 -1.0623 -0.8363  1.8604
  752SOL    HW2 2256   2.847   2.761   1.272  1.3830  1.3214 -2.2651
  753SOL     OW 2257   0.706   2.226   1.335 -0.5303  0.0095 -0.5935
  753SOL    HW1 2258   0.785   2.280   1.302  0.9870 -0.3754 -1.6320
  753SOL    HW2 2259   0.670   2.265   1.418 -0.3616  0.0984  0.2451
  754SOL     OW 2260   0.132   3.077   2.084 -0.1325  0.5087  0.2220
  754SOL    HW1 2261   0.049   3.065   2.148 -1.1039 -1.1125  1.5273
  754SOL    HW2 2262   0.104   3.072   1.982 -0.3196  0.0784 -2.0955
  755SOL     OW 2263   2.491   0.559   0.571  0.0614  0.0269 -0.8441
  755SOL    HW1 2264   2.532   0.514   0.493 -0.6348  3.3491  0.0994
  755SOL    HW2 2265   2.437   0.639   0.534 -2.0821  1.9731  1.8233
  756SOL     OW 2266   2.319   2.515   2.808  0.2153  0.1290 -0.3382
  756SOL    HW1 2267   2.311   2.518   2.708  1.0441 -0.2143 -0.5006
  756SOL    HW2 2268   2.327   2.604   2.843  0.1947 -0.3155  0.7960
  757SOL     OW 2269   2.169   0.581   0.737  0.1301  0.3268 -0.0374
  757SOL    HW1 2270   2.210   0.639   0.668  0.9908  0.4083  0.1171
  757SOL    HW2 2271   2.160   0.489   0.694 -0.8827 -1.6974 -3.5811
  758SOL     OW 2272   2.372   0.931   1.647 -0.7806  0.1815  0.1243
  758SOL    HW1 2273   2.339   0.998   1.574 -0.5392  0.2220 -2.6840
  758SOL    HW2 2274   2.468   0.958   1.662 -1.0494  0.9488 -1.4424
  759SOL     OW 2275   2.601   0.725   1.189  0.3076 -0.3392 -0.3397
  759SOL    HW1 2276   2.678   0.746   1.249 -0.4489  1.2363  0.1688
  759SOL    HW2 2277   2.634   0.725   1.089  0.1712  2.0832 -1.3135
  760SOL     OW 2278   2.828   1.600   1.305 -0.1812 -0.2235 -0.7576
  760SOL    HW1 2279   2.819   1.496   1.312  0.4114 -2.1815 -0.8442
  760SOL    HW2 2280   2.766   1.637   1.235  0.4255  1.3189  1.4648
  761SOL     OW 2281   0.890   0.717   0.318 -0.4434  0.1989 -0.1106
  761SOL    HW1 2282   0.853   0.801   0.270  0.2821 -0.3281 -0.7570
  761SOL    HW2 2283   0.983   0.700   0.282  2.4125 -1.5079 -3.1276
  762SOL     OW 2284   0.816   1.699   0.653  0.4386  0.1719  0.0880
  762SOL    HW1 2285   0.793   1.793   0.626  2.1855 -0.9551  0.5722
  762SOL    HW2 2286   0.759   1.668   0.735 -0.2277  0.0249  1.7920
  763SOL     OW 2287   1.150   0.707   1.447  0.6748  0.1503  0.2765
  763SOL    HW1 2288   1.155   0.690   1.546 -0.7113  0.0445 -2.4401
  763SOL    HW2 2289   1.103   0.797   1.434 -3.1871  2.5694  0.9611
  764SOL     OW 2290   0.479   1.915   2.772  0.1999 -0.2160 -0.0855
  764SOL    HW1 2291   0.475   1.860   2.688 -0.5217  0.2836  0.3788
  764SOL    HW2 2292   0.395   1.976   2.770 -2.6123 -0.5634  0.7205
  765SOL     OW 2293   0.705   2.865   1.548  0.3695 -0.7322  0.2149
  765SOL    HW1 2294   0.691   2.780   1.597 -1.4990  2.4180 -1.8548
  765SOL    HW2 2295   0.648   2.867   1.464  0.1195  0.7896 -0.0049
  766SOL     OW 2296   2.544   1.862   2.257  0.3851 -0.6178  0.8649
  766SOL    HW1 2297   2.614   1.935   2.278 -1.3790 -1.9575  0.1775
  766SOL    HW2 2298   2.554   1.783   2.319  1.1146 -2.5507  1.5043
  767SOL     OW 2299   1.482   1.167   2.366 -0.4521  0.2352 -0.0987
  767SOL    HW1 2300   1.459   1.071   2.391 -1.4406  0.2966 -0.2922
  767SOL    HW2 2301   1.434   1.194   2.280  0.9890  1.2360 -0.1568
  768SOL     OW 2302   1.455   1.944   0.166  0.4197  0.0413 -0.1450
  768SOL    HW1 2303   1.397   1.884   0.225  2.7621  0.2760 -3.2870
  768SOL    HW2 2304   1.536   1.892   0.139 -3.6986 -0.1430  1.5277
  769SOL     OW 2305   0.472   1.197   1.025  0.9604 -0.1291  0.3222
  769SOL    HW1 2306   0.513   1.279   0.978  0.2657 -1.1570  3.0459
  769SOL    HW2 2307   0.537   1.118   1.005 -1.6561 -0.6950 -1.1659
  770SOL     OW 2308   1.467   0.906   2.464 -0.0676  0.0423 -0.7295
  770SOL    HW1 2309   1.519   0.889   2.548 -1.7110  0.0149 -1.4163
  770SOL    HW2 2310   1.491   0.840   2.392 -2.8833 -3.9276  1.3640
  771SOL     OW 2311   2.773   3.038   2.527  1.0490  0.4918 -0.5503
  771SOL    HW1 2312   2.713   3.079   2.599 -2.0848  0.9376  1.1776
  771SOL    HW2 2313   2.763   2.934   2.519 -2.0567 -2.4472  0.8012
  772SOL     OW 2314   2.071   1.974   2.222  0.1361 -0.1619  0.0973
  772SOL    HW1 2315   2.002   1.939   2.155  0.6087 -0.2638 -0.4362
  772SOL    HW2 2316   2.166   1.992   2.185  0.4084 -1.7377 -0.2709
  773SOL     OW 2317   0.550   1.730   1.393 -0.0802 -0.3247  0.6782
  773SOL    HW1 2318   0.553   1.714   1.490 -0.3692  2.3901  1.0863
  773SOL    HW2 2319   0.473   1.674   1.352  0.1679 -0.5337  2.0665
  774SOL     OW 2320   1.275   0.788   2.895  0.4150  0.3582  0.2816
  774SOL    HW1 2321   1.227   0.823   2.815  0.3923 -1.3111 -3.0651
  774SOL    HW2 2322   1.226   0.713   2.939  1.2038  0.9444  0.1290
  775SOL     OW 2323   1.980   2.641   0.201  0.0513  0.5064 -0.4128
  775SOL    HW1 2324   1.881   2.653   0.220 -0.1222 -0.9439 -0.1359
  775SOL    HW2 2325   2.002   2.659   0.106  0.4107  0.1699  2.4936
  776SOL     OW 2326   0.238   0.569   1.749  0.3834  0.2984 -0.1319
  776SOL    HW1 2327   0.242   0.463   1.742 -0.5121 -3.8546  1.8981
  776SOL    HW2 2328   0.182   0.604   1.670 -0.7600  2.0661 -1.9349
  777SOL     OW 2329   2.299   1.919   2.117  0.1475  0.6309  0.1143
  777SOL    HW1 2330   2.384   1.893   2.166  2.7325 -0.6344 -0.6701
  777SOL    HW2 2331   2.311   1.994   2.051 -2.3799 -2.5525  0.4570
  778SOL     OW 2332   1.768   1.068   2.272  0.3564  0.1182  0.1133
  778SOL    HW1 2333   1.674   1.108   2.290 -0.9633  2.9602  0.1972
  778SOL    HW2 2334   1.822   1.135   2.219  1.0823  0.7424  0.5818
  779SOL     OW 2335   2.823   0.841   2.952  0.6781  0.3306  0.5040
  779SOL    HW1 2336   2.855   0.754   2.996 -1.1513  0.4001  1.3623
  779SOL    HW2 2337   2.890   0.881   2.888  0.1257  2.2831  2.1522
  780SOL     OW 2338   2.339   0.317   2.549 -0.4397  0.0173  0.1573
  780SOL    HW1 2339   2.371   0.338   2.642 -0.9728 -1.8272 -0.5144
  780SOL    HW2 2340   2.345   0.397   2.488 -0.2276 -1.2002  0.9458
  781SOL     OW 2341   0.208   1.893   1.699  0.2570 -0.0086 -0.3050
  781SOL    HW1 2342   0.308   1.915   1.723 -0.1149 -1.3899  1.3006
  781SOL    HW2 2343   0.187   1.795   1.688 -0.0828  0.7319 -0.9471
  782SOL     OW 2344   2.622   2.082   2.911  0.0105 -0.1944 -0.6914
  782SOL    HW1 2345   2.673   2.145   2.855 -0.4225  0.5376  1.6791
  782SOL    HW2 2346   2.548   2.126   2.968 -0.3912  0.0012 -0.9201
  783SOL     OW 2347   0.734   1.207   1.269  0.4147  0.2977 -0.0812
  783SOL    HW1 2348   0.664   1.153   1.319 -0.6067  1.0074  1.3112
  783SOL    HW2 2349   0.796   1.147   1.223  0.6790  2.5725  1.1977
  784SOL     OW 2350   2.343   0.827   2.981 -0.7381 -0.1911 -0.1026
  784SOL    HW1 2351   2.426   0.849   2.932 -0.2535 -1.0293  0.4693
  784SOL    HW2 2352   2.343   0.874   3.069  1.1327  2.5105  0.9690
  785SOL     OW 2353   2.082   2.486   0.763 -0.3285  0.2522  0.1886
  785SOL    HW1 2354   2.041   2.540   0.686 -1.5095 -0.2122  3.0501
  785SOL    HW2 2355   2.162   2.427   0.736  1.1027 -0.7863  3.1507
  786SOL     OW 2356   0.497   2.185   2.439  0.2080  0.4909  0.3067
  786SOL    HW1 2357   0.581   2.160   2.495  0.4642 -2.1285  2.1873
  786SOL    HW2 2358   0.456   2.102   2.401  1.9020  4.2655 -0.2353
  787SOL     OW 2359   1.392   0.343   1.414  0.2454  0.4230  0.1063
  787SOL    HW1 2360   1.304   0.388   1.394  0.0056  2.2617 -1.2593
  787SOL    HW2 2361   1.458   0.370   1.344 -2.3003  0.2342 -0.7539
  788SOL     OW 2362   0.362   0.837   0.247 -0.0346 -0.2897 -0.1086
  788SOL    HW1 2363   0.413   0.757   0.214 -0.8733  0.1602  2.2739
  788SOL    HW2 2364   0.265   0.843   0.217 -1.1374 -0.7209  1.1177
  789SOL     OW 2365   3.012   2.247   1.252 -0.1878 -0.0906  0.0614
  789SOL    HW1 2366   3.005   2.265   1.351  0.7662 -1.9948  0.9504
  789SOL    HW2 2367   2.946   2.307   1.200  1.5504  1.3285  0.8144
  790SOL     OW 2368   1.496   0.587   1.792  0.3416  0.2271  0.0605
  790SOL    HW1 2369   1.493   0.644   1.877  2.5092  2.2908  2.8018
  790SOL    HW2 2370   1.416   0.527   1.791 -0.7329 -0.8119 -1.2447
  791SOL     OW 2371   1.485   0.523   0.505 -0.6406  0.0337  0.1991
  791SOL    HW1 2372   1.475   0.516   0.604 -0.0634  0.6934 -1.0657
  791SOL    HW2 2373   1.487   0.620   0.474 -2.2954 -0.3533 -0.9210
  792SOL     OW 2374   1.450   2.703   1.793  0.6362  0.1146  0.3109
  792SOL    HW1 2375   1.351   2.714   1.789  1.3509  0.2654  1.8576
  792SOL    HW2 2376   1.494   2.779   1.842  1.4116  0.5181  2.4003
  793SOL     OW 2377   0.552   3.057   0.493  0.4458  0.2166 -0.4321
  793SOL    HW1 2378   0.612   3.091   0.417 -0.2496  0.7344  0.9006
  793SOL    HW2 2379   0.498   2.970   0.476 -0.1016 -0.2527 -1.3891
  794SOL     OW 2380   0.537   0.883   2.281  0.0564  0.6962 -0.2820
  794SOL    HW1 2381   0.585   0.961   2.246 -0.5623 -2.6137 -0.6844
  794SOL    HW2 2382   0.464   0.853   2.214  2.2305  0.8852  0.1931
  795SOL     OW 2383   0.245   1.767   2.232  0.1568 -0.4607  0.6005
  795SOL    HW1 2384   0.160   1.783   2.172  0.4370  1.9826 -0.6456
  795SOL    HW2 2385   0.229   1.713   2.314 -1.2750 -2.3200  1.0616
  796SOL     OW 2386   2.058   1.168   2.214  0.4373 -0.6014 -0.3005
  796SOL    HW1 2387   2.039   1.124   2.129  0.3274  2.3212  3.8374
  796SOL    HW2 2388   2.159   1.161   2.239  2.4886 -0.1749  1.3366
  797SOL     OW 2389   0.034   0.023   2.803 -0.6146  0.2728 -0.3899
  797SOL    HW1 2390   0.048   0.119   2.781 -3.1579 -1.3902  0.6496
  797SOL    HW2 2391   0.031   3.060   2.719  1.1254  2.0440  0.4342
  798SOL     OW 2392   3.055   2.077   2.051  0.3497 -0.2651 -0.3238
  798SOL    HW1 2393   2.965   2.128   2.065 -3.5441  2.7674  1.9329
  798SOL    HW2 2394   0.041   2.138   2.058 -1.2417  2.1239 -0.1063
  799SOL     OW 2395   3.079   2.112   2.877 -0.1547  0.1504 -0.1913
  799SOL    HW1 2396   0.025   2.190   2.824 -0.6281  0.8389 -1.2073
  799SOL    HW2 2397   3.092   2.035   2.813  0.1237 -0.7430 -1.0462
  800SOL     OW 2398   1.175   1.894   0.619  0.2634 -0.3757 -0.5655
  800SOL    HW1 2399   1.148   1.911   0.519 -1.3971 -1.2069 -3.0437
  800SOL    HW2 2400   1.219   1.976   0.659  0.1350  0.2577  1.6418
  801SOL     OW 2401   1.975   0.800   0.743 -0.2416 -0.4186 -0.1089
  801SOL    HW1 2402   1.985   0.848   0.652  2.3741  0.8191 -3.0011
  801SOL    HW2 2403   2.002   0.702   0.736 -0.3169  0.0636  0.3252
  802SOL     OW 2404   2.800   1.497   0.255  0.2632  0.5162 -1.0248
  802SOL    HW1 2405   2.857   1.462   0.333  3.2646 -1.6673  0.7544
  802SOL    HW2 2406   2.855   1.532   0.179 -1.7639 -1.0383  2.5929
  803SOL     OW 2407   1.305   1.811   2.852  0.4542 -0.3692  0.8404
  803SOL    HW1 2408   1.331   1.896   2.906  0.5242 -1.2591 -1.3165
  803SOL    HW2 2409   1.221   1.802   2.792  1.3230  1.6524 -2.4586
  804SOL     OW 2410   1.698   1.783   0.169 -0.0316  0.0128 -0.3307
  804SOL    HW1 2411   1.720   1.802   0.266  0.7870 -1.2186  0.8310
  804SOL    HW2 2412   1.779   1.784   0.108 -1.6649 -3.8689  1.8640
  805SOL     OW 2413   2.475   1.758   2.908 -0.1463  0.2267  0.1321
  805SOL    HW1 2414   2.521   1.785   2.820  2.5938  0.4835  1.6161
  805SOL    HW2 2415   2.393   1.694   2.894  1.2848  1.3017  1.3030
  806SOL     OW 2416   0.724   0.084   0.304  0.6277 -0.2692 -0.4035
  806SOL    HW1 2417   0.734   0.159   0.238 -2.3977 -2.0774 -0.2302
  806SOL    HW2 2418   0.817   0.061   0.342 -0.0110  1.2955  3.8525
  807SOL     OW 2419   1.963   1.326   2.981  0.8069 -0.0060 -0.1299
  807SOL    HW1 2420   1.946   1.427   2.965 -0.6002  1.5367  0.8044
  807SOL    HW2 2421   1.949   1.286   2.884  0.2736 -0.1868 -1.9276
  808SOL     OW 2422   3.054   1.689   0.263 -0.4390 -0.0758  0.3202
  808SOL    HW1 2423   0.040   1.654   0.310  1.2299  1.2558 -1.5824
  808SOL    HW2 2424   3.053   1.788   0.275  1.1416 -2.2944  2.7894
  809SOL     OW 2425   2.577   0.886   2.840 -0.0612  0.2403  0.4825
  809SOL    HW1 2426   2.669   0.854   2.877  0.2017 -1.4246  1.6110
  809SOL    HW2 2427   2.566   0.854   2.746 -0.7649  4.4899 -0.5905
  810SOL     OW 2428   0.761   0.995   0.311 -0.6652  0.1138  0.0222
  810SOL    HW1 2429   0.822   1.009   0.234  0.6544  1.8076  0.6023
  810SOL    HW2 2430   0.673   1.037   0.281  1.0510  0.6873 -1.3302
  811SOL     OW 2431   1.261   2.352   1.168  0.0208  0.4716 -0.0317
  811SOL    HW1 2432   1.239   2.395   1.081  1.8276 -0.8234 -2.5853
  811SOL    HW2 2433   1.350   2.391   1.198 -3.1326  0.9666 -0.1184
  812SOL     OW 2434   0.665   2.604   1.641 -0.1866  0.1495 -0.1748
  812SOL    HW1 2435   0.640   2.600   1.544  0.1970 -2.8526  0.2936
  812SOL    HW2 2436   0.591   2.560   1.695  0.1754 -0.9449 -0.0255
  813SOL     OW 2437   1.299   0.233   2.021  0.4678  0.0746  0.4178
  813SOL    HW1 2438   1.387   0.282   2.045  0.1247  0.4231 -0.1630
  813SOL    HW2 2439   1.248   0.224   2.107  0.5947 -5.1049 -1.2648
  814SOL     OW 2440   1.290   2.471   2.818 -0.3244 -0.3915 -1.0043
  814SOL    HW1 2441   1.302   2.558   2.763 -4.5221  2.0274 -3.9761
  814SOL    HW2 2442   1.364   2.403   2.798  1.7259  1.7781 -0.5635
  815SOL     OW 2443   0.648   0.286   1.652 -0.3053  0.2467  0.5701
  815SOL    HW1 2444   0.609   0.371   1.623  1.4290 -1.2051 -0.3744
  815SOL    HW2 2445   0.743   0.294   1.686  0.1272 -0.3468 -0.3305
  816SOL     OW 2446   2.142   0.470   2.958  0.0087  0.1727  0.0548
  816SOL    HW1 2447   2.209   0.520   2.904 -0.2088 -2.1702 -0.4515
  816SOL    HW2 2448   2.088   0.539   3.010 -1.0250 -0.5387 -2.4272
  817SOL     OW 2449   2.053   0.396   2.541 -0.6428  0.1699 -0.2984
  817SOL    HW1 2450   2.053   0.345   2.448 -1.9498 -3.2265 -1.7269
  817SOL    HW2 2451   2.065   0.341   2.626 -0.8465 -1.5521  1.3358
  818SOL     OW 2452   1.994   0.420   0.167  0.2689  0.5908 -0.5228
  818SOL    HW1 2453   2.057   0.362   0.114 -0.0287 -0.1800  2.8823
  818SOL    HW2 2454   1.997   0.521   0.138  0.4551  2.7039  1.5321
  819SOL     OW 2455   2.355   1.939   3.091 -0.3448 -0.7100 -0.1248
  819SOL    HW1 2456   2.417   1.883   3.032  0.8164  1.2491 -0.0748
  819SOL    HW2 2457   2.414   2.004   0.041  0.5171 -1.1430 -0.6048
  820SOL     OW 2458   3.050   1.970   0.023 -0.4008  0.1232  0.1104
  820SOL    HW1 2459   3.057   2.032   3.043  1.4228 -1.9869  0.9780
  820SOL    HW2 2460   2.957   1.962   0.059  0.2445  0.4202  1.0673
  821SOL     OW 2461   0.204   2.471   1.206  0.6388  0.2757  0.3864
  821SOL    HW1 2462   0.252   2.449   1.120  0.0870  1.3130  0.2638
  821SOL    HW2 2463   0.260   2.535   1.261 -1.0919  0.3304  0.9516
  822SOL     OW 2464   2.743   2.554   2.831  0.0935 -0.9765  0.2365
  822SOL    HW1 2465   2.741   2.656   2.834 -1.2506  0.1825 -2.4039
  822SOL    HW2 2466   2.663   2.524   2.776  1.1357  2.3931 -0.2494
  823SOL     OW 2467   1.703   0.162   2.438  0.3632 -0.5890  0.8369
  823SOL    HW1 2468   1.620   0.163   2.378 -0.8926 -3.4670  0.5739
  823SOL    HW2 2469   1.714   0.262   2.464  0.1049  0.8049 -0.7615
  824SOL     OW 2470   2.878   1.962   1.469 -0.1905 -0.0328  0.2760
  824SOL    HW1 2471   2.846   2.005   1.382 -0.6456  1.7352 -0.1840
  824SOL    HW2 2472   2.982   1.964   1.482 -1.1340  0.6954  0.0293
  825SOL     OW 2473   2.794   1.901   2.731  0.4601  0.0183  0.3056
  825SOL    HW1 2474   2.743   1.948   2.803  1.6988  0.1981  1.1874
  825SOL    HW2 2475   2.895   1.910   2.743  0.7811  0.1280 -0.4919
  826SOL     OW 2476   2.471   1.502   2.059 -0.1465 -0.1556  0.3804
  826SOL    HW1 2477   2.497   1.453   2.143  1.6846  2.9271 -4.8003
  826SOL    HW2 2478   2.547   1.571   2.044  0.7995  0.8983 -0.0337
  827SOL     OW 2479   2.099   2.046   1.265 -0.0700  0.1609  0.1802
  827SOL    HW1 2480   2.064   2.143   1.244 -0.8838  1.6021 -2.6381
  827SOL    HW2 2481   2.154   2.030   1.352  2.2418 -1.9800  2.3252
  828SOL     OW 2482   2.548   2.666   1.534  0.3712 -0.3691 -0.0603
  828SOL    HW1 2483   2.527   2.623   1.443  1.1958  1.0140 -1.0702
  828SOL    HW2 2484   2.465   2.709   1.569 -0.8639 -3.6769 -0.3672
  829SOL     OW 2485   1.642   2.394   2.601  0.0044 -0.1839 -0.7227
  829SOL    HW1 2486   1.558   2.351   2.644 -1.6427  1.1202  4.4404
  829SOL    HW2 2487   1.685   2.343   2.525 -1.1256  2.1303 -0.7209
  830SOL     OW 2488   1.479   0.582   0.799  0.1852 -0.3722  0.0935
  830SOL    HW1 2489   1.470   0.678   0.827  1.5353  1.9009 -1.4247
  830SOL    HW2 2490   1.498   0.525   0.881  0.3166  2.2443  0.3526
  831SOL     OW 2491   2.471   1.381   2.963  0.0886  0.7305  0.1121
  831SOL    HW1 2492   2.522   1.374   3.053 -3.5707 -0.8126 -2.1574
  831SOL    HW2 2493   2.476   1.290   2.908  1.8632 -3.9160  0.5652
  832SOL     OW 2494   1.445   1.847   1.936 -0.2327 -0.1788 -0.0012
  832SOL    HW1 2495   1.522   1.800   1.887 -1.3038  0.9807  0.8252
  832SOL    HW2 2496   1.479   1.940   1.958  2.2317 -1.0040  1.3977
  833SOL     OW 2497   3.046   2.965   2.239 -0.1132  0.2594 -0.1471
  833SOL    HW1 2498   3.085   2.880   2.279 -0.0872 -1.7712  1.1205
  833SOL    HW2 2499   2.955   2.944   2.192 -0.9190  1.6510 -1.7879
  834SOL     OW 2500   0.934   0.847   1.765  0.2927  0.0399  0.0505
  834SOL    HW1 2501   1.029   0.810   1.760 -2.2324 -0.6757  1.3959
  834SOL    HW2 2502   0.909   0.866   1.668  3.3286 -2.7298  1.8476
  835SOL     OW 2503   2.966   0.656   2.689 -0.5616 -0.3704 -0.2165
  835SOL    HW1 2504   2.975   0.683   2.591 -3.0066  0.4019 -0.4386
  835SOL    HW2 2505   2.881   0.621   2.711  2.8236  1.3999  0.2428
  836SOL     OW 2506   1.012   1.905   0.854 -0.1350  0.6726 -0.2505
  836SOL    HW1 2507   0.998   1.808   0.886 -0.6623  0.0032  0.2674
  836SOL    HW2 2508   1.060   1.902   0.766  0.2543 -0.8935  1.8232
  837SOL     OW 2509   1.629   1.209   1.155 -0.1682 -0.1170 -0.6024
  837SOL    HW1 2510   1.565   1.234   1.234 -2.7917  0.9431  3.0995
  837SOL    HW2 2511   1.712   1.159   1.195  4.0163 -0.3694 -0.0644
  838SOL     OW 2512   1.166   1.755   2.453 -0.0813  0.0218  0.4718
  838SOL    HW1 2513   1.216   1.666   2.450  4.3915 -0.7351  1.3318
  838SOL    HW2 2514   1.125   1.766   2.544  0.3300 -1.0493  0.9433
  839SOL     OW 2515   0.664   2.148   2.814  0.1250 -0.1080  0.5012
  839SOL    HW1 2516   0.615   2.061   2.798  1.2973 -0.3705 -0.6220
  839SOL    HW2 2517   0.674   2.169   2.912  3.9536  0.9835  1.9088
  840SOL     OW 2518   0.529   2.507   0.035 -0.2410  0.0736 -0.1019
  840SOL    HW1 2519   0.523   2.442   3.055  0.2916  1.0335 -0.7667
  840SOL    HW2 2520   0.595   2.576   0.010 -0.8940  1.5450  0.0201
  841SOL     OW 2521   2.029   2.351   0.253  0.4115 -0.2352  0.3676
  841SOL    HW1 2522   2.038   2.334   0.154 -1.1409 -1.9498 -3.2267
  841SOL    HW2 2523   2.009   2.449   0.266  0.7254  1.9700 -0.0600
  842SOL     OW 2524   0.907   0.707   2.815 -0.0116  0.3050  0.0876
  842SOL    HW1 2525   0.880   0.740   2.907  0.5676  0.3766  0.2349
  842SOL    HW2 2526   0.959   0.781   2.764  0.0904  3.3388  0.2912
  843SOL     OW 2527   1.200   2.995   0.703  0.6167 -0.1727  0.4513
  843SOL    HW1 2528   1.146   3.044   0.634  0.2203 -0.1144  1.4142
  843SOL    HW2 2529   1.155   3.003   0.792 -1.0716  0.5742 -1.6983
  844SOL     OW 2530   2.332   0.072   2.463  0.2048 -0.0164 -0.1539
  844SOL    HW1 2531   2.321   0.170   2.489  0.8855  1.0966 -1.6763
  844SOL    HW2 2532   2.246   0.024   2.448 -1.1119  1.1372  0.8783
  845SOL     OW 2533   2.494   2.506   1.324  0.0327 -0.7227 -0.1018
  845SOL    HW1 2534   2.396   2.486   1.354  0.3113  1.9083  0.9134
  845SOL    HW2 2535   2.512   2.520   1.224  4.0802 -0.8185  0.4874
  846SOL     OW 2536   0.167   1.662   2.494 -0.1744  0.3754  0.3596
  846SOL    HW1 2537   0.169   1.588   2.420 -0.2431  0.4438 -1.3350
  846SOL    HW2 2538   0.162   1.626   2.587 -1.1506 -0.7199 -1.7027
  847SOL     OW 2539   1.625   0.599   1.550 -0.3547 -0.1901  0.5119
  847SOL    HW1 2540   1.538   0.633   1.500 -2.0953  0.5059 -0.9134
  847SOL    HW2 2541   1.599   0.592   1.648  2.1727  2.0351  3.6656
  848SOL     OW 2542   2.708   0.226   0.212 -0.1395  0.1739  0.0384
  848SOL    HW1 2543   2.698   0.222   0.109 -2.0184  3.1421 -0.2011
  848SOL    HW2 2544   2.806   0.254   0.238  1.2649  3.8103  1.1955
  849SOL     OW 2545   0.551   3.019   2.942 -0.3540 -0.2747 -0.0211
  849SOL    HW1 2546   0.539   2.916   2.919 -0.0829 -0.4764 -2.2564
  849SOL    HW2 2547   0.652   3.039   2.941  0.4913  0.2280  0.5989
  850SOL     OW 2548   0.937   2.655   1.027  0.5503 -0.1947  0.3932
  850SOL    HW1 2549   0.906   2.578   0.969  0.9785  0.6558  2.5161
  850SOL    HW2 2550   0.971   2.735   0.967  4.0388 -0.2858 -1.5186
  851SOL     OW 2551   2.667   0.123   2.150  0.2767  0.0889 -0.7324
  851SOL    HW1 2552   2.737   0.125   2.225 -1.8252 -2.1675 -0.4332
  851SOL    HW2 2553   2.664   0.204   2.096 -1.3418  0.8108  2.7434
  852SOL     OW 2554   1.993   1.376   2.376  0.3217  0.3065 -0.2904
  852SOL    HW1 2555   1.904   1.349   2.415 -0.5044 -0.9069  0.6629
  852SOL    HW2 2556   2.036   1.300   2.321 -1.1542  2.2895  0.5972
  853SOL     OW 2557   2.740   2.581   0.733  0.0031  0.0900 -0.7598
  853SOL    HW1 2558   2.829   2.562   0.780 -2.3795  2.8796 -0.9627
  853SOL    HW2 2559   2.741   2.677   0.701  1.3867 -1.6190  0.7859
  854SOL     OW 2560   2.239   1.005   1.104  0.3497  0.5378 -0.1537
  854SOL    HW1 2561   2.319   1.012   1.044  0.6717  0.0875  2.1089
  854SOL    HW2 2562   2.180   1.090   1.095 -2.9225  0.3992 -1.3864
  855SOL     OW 2563   1.413   2.170   0.492 -0.2125  0.3495 -0.3769
  855SOL    HW1 2564   1.358   2.195   0.410 -1.6179 -1.7656  3.3445
  855SOL    HW2 2565   1.500   2.132   0.465 -3.1928  1.7347  0.0999
  856SOL     OW 2566   2.989   0.336   2.922  0.7229 -0.0656  0.2233
  856SOL    HW1 2567   2.964   0.301   2.830 -0.9863 -0.0605  1.0797
  856SOL    HW2 2568   3.039   0.270   2.986  0.1624 -0.9822  0.5286
  857SOL     OW 2569   1.540   3.056   1.838 -0.3901 -0.0158 -0.4663
  857SOL    HW1 2570   1.640   3.039   1.827 -0.5320  0.1669  1.0860
  857SOL    HW2 2571   1.507   3.047   1.936 -1.3498  0.8906  2.2632
  858SOL     OW 2572   2.515   2.130   1.565 -0.3741  0.2855 -0.5395
  858SOL    HW1 2573   2.577   2.208   1.540  2.3947  5.0211  0.3995
  858SOL    HW2 2574   2.551   2.032   1.538  1.4400 -2.0657  0.3418
  859SOL     OW 2575   1.327   2.121   1.072  0.6025 -0.2978 -0.1851
  859SOL    HW1 2576   1.315   2.212   1.124  0.8440  1.2738  0.3389
  859SOL    HW2 2577   1.261   2.047   1.100  2.3973  0.8213  1.3123
  860SOL     OW 2578   2.477   2.549   0.083 -1.0143  0.1556  0.6085
  860SOL    HW1 2579   2.576   2.549   0.108  0.8143 -3.0237 -1.6802
  860SOL    HW2 2580   2.432   2.470   0.129  0.1913  3.0818 -1.5193
  861SOL     OW 2581   1.519   2.685   1.093  0.1317 -0.1894  0.6947
  861SOL    HW1 2582   1.453   2.745   1.145 -1.8848  0.2256  1.5428
  861SOL    HW2 2583   1.588   2.639   1.151 -1.5408  1.5527 -0.5765
  862SOL     OW 2584   1.769   2.899   2.503  0.3615  0.0359  0.0789
  862SOL    HW1 2585   1.861   2.859   2.524  2.5972  1.9947  0.2500
  862SOL    HW2 2586   1.781   2.997   2.490  0.6943  0.8156 -1.0912
  863SOL     OW 2587   0.365   0.818   0.532 -0.3833 -0.4685  0.3497
  863SOL    HW1 2588   0.362   0.721   0.514  2.1901  1.3644 -0.6233
  863SOL    HW2 2589   0.356   0.872   0.445 -1.9437 -1.0780  1.1916
  864SOL     OW 2590   2.839   2.456   2.139 -0.3528 -0.6482 -0.3292
  864SOL    HW1 2591   2.934   2.496   2.152  1.2452  1.4722  0.4482
  864SOL    HW2 2592   2.770   2.525   2.166 -0.2925 -0.5243  1.4387
  865SOL     OW 2593   0.460   1.516   2.706 -0.0495 -0.0349  0.1292
  865SOL    HW1 2594   0.439   1.573   2.790 -1.3733  1.5180 -0.6771
  865SOL    HW2 2595   0.539   1.453   2.720  1.5679 -2.6243 -1.0764
  866SOL     OW 2596   2.714   0.548   2.768 -0.5817 -0.1526 -0.0412
  866SOL    HW1 2597   2.731   0.455   2.730 -0.8300  0.5872 -3.1892
  866SOL    HW2 2598   2.715   0.543   2.868 -0.0356 -2.2643 -1.8006
  867SOL     OW 2599   0.250   2.738   2.769 -0.3350 -0.1402 -0.0692
  867SOL    HW1 2600   0.269   2.802   2.847  1.0292 -2.4693 -2.4814
  867SOL    HW2 2601   0.184   2.788   2.703  0.4045  1.6065 -2.0398
  868SOL     OW 2602   1.391   2.640   0.841 -0.4000  0.2325  0.0854
  868SOL    HW1 2603   1.440   2.675   0.925  0.7561 -2.0246  1.3105
  868SOL    HW2 2604   1.332   2.560   0.858 -1.1058  2.4697  0.6715
  869SOL     OW 2605   1.389   1.308   1.032  0.3921 -0.0179  1.1396
  869SOL    HW1 2606   1.401   1.358   0.941 -1.1334 -1.8356  1.2718
  869SOL    HW2 2607   1.483   1.285   1.059  0.3948 -0.0079 -1.0851
  870SOL     OW 2608   1.765   1.945   1.151 -0.1980  0.2947  0.3828
  870SOL    HW1 2609   1.863   1.935   1.133 -2.0164 -1.3871  2.3295
  870SOL    HW2 2610   1.705   1.872   1.112  3.2335  1.0088  4.3104
  871SOL     OW 2611   0.829   1.531   1.696  0.3980 -0.3947  0.0107
  871SOL    HW1 2612   0.876   1.621   1.691 -1.0521 -1.4549  0.9205
  871SOL    HW2 2613   0.861   1.472   1.626 -2.9963  3.8683  0.6891
  872SOL     OW 2614   1.173   1.223   1.162 -0.2231 -0.3354  0.2013
  872SOL    HW1 2615   1.176   1.239   1.262 -3.2133  3.6767  0.6673
  872SOL    HW2 2616   1.264   1.243   1.120  0.5105  1.6544 -0.6550
  873SOL     OW 2617   1.199   0.909   2.498  0.7268  0.0737 -0.1001
  873SOL    HW1 2618   1.165   0.990   2.441 -2.8026  1.4238 -1.1833
  873SOL    HW2 2619   1.301   0.904   2.489 -0.2038 -0.5698 -0.8063
  874SOL     OW 2620   0.141   1.209   1.260  0.2740 -0.0639  0.7483
  874SOL    HW1 2621   0.083   1.289   1.268  1.9184  0.2990  0.1959
  874SOL    HW2 2622   0.231   1.238   1.218 -0.8269  0.8800  1.2069
  875SOL     OW 2623   2.799   3.055   0.617 -0.2081 -0.2496  0.9925
  875SOL    HW1 2624   2.800   0.037   0.685  0.3392  1.7852  0.5530
  875SOL    HW2 2625   2.726   2.986   0.629  0.3476 -0.6161 -2.3516
  876SOL     OW 2626   1.175   0.269   2.698  0.4102 -0.1630  0.6389
  876SOL    HW1 2627   1.139   0.178   2.675 -0.2170  1.5967 -1.7210
  876SOL    HW2 2628   1.112   0.345   2.671  1.1272 -2.0034 -0.2156
  877SOL     OW 2629   0.175   3.061   1.249 -0.5239  0.3175  0.2881
  877SOL    HW1 2630   0.194   0.020   1.332  1.4507  2.5952  1.4981
  877SOL    HW2 2631   0.119   0.020   1.182 -1.7980  1.1489  0.3185
  878SOL     OW 2632   2.079   2.626   3.023  0.5766  0.0720 -0.2604
  878SOL    HW1 2633   2.046   2.547   2.968  0.0461 -1.8448  1.1851
  878SOL    HW2 2634   2.181   2.627   3.020 -3.0461  2.3580  3.8072
  879SOL     OW 2635   2.234   1.927   1.753 -0.3060 -0.0977  0.3765
  879SOL    HW1 2636   2.311   1.867   1.717 -0.4378 -1.1804  2.4048
  879SOL    HW2 2637   2.159   1.865   1.792  0.2072 -3.3914  1.3074
  880SOL     OW 2638   0.900   0.932   1.503 -0.1142  0.5915  0.1468
  880SOL    HW1 2639   0.959   0.924   1.422 -1.9407  0.3713 -1.7327
  880SOL    HW2 2640   0.803   0.911   1.471  3.7424 -2.5232 -2.1702
  881SOL     OW 2641   0.935   1.767   3.013 -1.0893 -0.3517 -0.5654
  881SOL    HW1 2642   0.945   1.863   2.980 -1.8669 -1.6576  1.1978
  881SOL    HW2 2643   1.028   1.725   3.020  2.4118 -2.2881  1.0519
  882SOL     OW 2644   1.711   0.371   0.850 -0.3059  0.5762  0.2834
  882SOL    HW1 2645   1.747   0.455   0.889 -0.0378  0.3270 -1.3574
  882SOL    HW2 2646   1.700   0.303   0.925  0.0833 -0.2894 -0.2995
  883SOL     OW 2647   2.042   0.463   2.092  0.3840  0.4971  0.3441
  883SOL    HW1 2648   2.088   0.552   2.095  3.1956 -1.5471  0.1560
  883SOL    HW2 2649   1.980   0.462   2.006 -1.0932 -0.1247 -2.5131
  884SOL     OW 2650   2.603   0.419   0.362  0.5178 -0.1247 -0.4455
  884SOL    HW1 2651   2.648   0.341   0.322 -0.0350  2.7045  2.1857
  884SOL    HW2 2652   2.527   0.453   0.305  1.1122  0.7904 -1.9664
  885SOL     OW 2653   0.735   1.941   0.570 -0.0283  0.4546 -0.4162
  885SOL    HW1 2654   0.781   1.977   0.490 -0.4287 -1.2002  1.8611
  885SOL    HW2 2655   0.672   2.008   0.621  0.8088  1.9895  0.5299
  886SOL     OW 2656   1.556   1.627   3.092  0.0367 -0.3107  0.5239
  886SOL    HW1 2657   1.494   1.597   0.069 -0.3252  1.6536 -1.6000
  886SOL    HW2 2658   1.628   1.683   0.040  1.2443 -0.6796  0.6917
  887SOL     OW 2659   1.514   0.218   1.620 -0.1842 -0.3041 -0.3339
  887SOL    HW1 2660   1.508   0.123   1.586 -0.9191  4.2057 -1.5452
  887SOL    HW2 2661   1.466   0.277   1.552 -3.5088 -1.3025  0.7233
  888SOL     OW 2662   3.043   1.110   1.587  0.4108  0.6971  0.1923
  888SOL    HW1 2663   3.036   1.213   1.599 -1.0361  2.6061 -0.9374
  888SOL    HW2 2664   2.984   1.075   1.511 -0.8196  1.0722 -0.4056
  889SOL     OW 2665   2.984   2.546   0.870  0.3050  0.5487  0.6813
  889SOL    HW1 2666   3.029   2.638   0.867 -0.5206 -2.7441  0.7475
  889SOL    HW2 2667   2.983   2.506   0.966 -0.7841 -1.1420  0.6827
  890SOL     OW 2668   0.176   2.235   2.137 -0.5784  0.7839 -0.0196
  890SOL    HW1 2669   0.157   2.229   2.236 -1.5415  2.2749  0.6056
  890SOL    HW2 2670   0.261   2.182   2.109 -0.9243 -0.6149  1.0834
  891SOL     OW 2671   0.653   1.696   0.217  0.3733 -0.0742 -0.2324
  891SOL    HW1 2672   0.636   1.788   0.177 -0.9107  2.9628  0.2134
  891SOL    HW2 2673   0.729   1.694   0.287  2.0452  0.9117  2.6652
  892SOL     OW 2674   2.998   2.346   1.519  0.0409 -0.1862  0.2293
  892SOL    HW1 2675   2.983   2.282   1.595 -0.8355  0.7463  0.7636
  892SOL    HW2 2676   2.969   2.440   1.544  2.3323 -2.9154  1.5538
  893SOL     OW 2677   3.087   0.162   1.679  0.1223 -0.2742 -0.1891
  893SOL    HW1 2678   3.061   0.150   1.777  0.0588 -0.4068  0.9013
  893SOL    HW2 2679   3.038   0.093   1.625  0.4805 -0.6950  1.6306
  894SOL     OW 2680   2.618   1.754   0.692 -0.9156  0.3287 -0.5977
  894SOL    HW1 2681   2.635   1.720   0.598  2.4269 -2.1822 -1.0949
  894SOL    HW2 2682   2.669   1.842   0.710  0.0578  1.0397 -0.9376
  895SOL     OW 2683   1.989   2.560   1.599 -0.1387 -0.2478 -0.1730
  895SOL    HW1 2684   2.060   2.556   1.671 -2.3782 -2.7357 -0.8690
  895SOL    HW2 2685   2.009   2.638   1.545 -0.8615 -0.9623  1.7573
  896SOL     OW 2686   0.827   0.016   1.496 -0.6668  0.4129  0.7418
  896SOL    HW1 2687   0.770   0.088   1.460 -0.3672 -1.3769  1.7250
  896SOL    HW2 2688   0.766   3.040   1.537  1.4618  0.3285  1.1896
  897SOL     OW 2689   1.056   1.155   1.568  0.4405 -0.1285  0.1178
  897SOL    HW1 2690   1.001   1.073   1.545 -0.3366  0.9526 -1.0490
  897SOL    HW2 2691   1.151   1.125   1.598  2.6025 -0.2673 -0.5568
  898SOL     OW 2692   1.225   2.922   1.503  0.1205 -0.0758  0.4579
  898SOL    HW1 2693   1.140   2.945   1.552  1.2191  1.3121  0.1408
  898SOL    HW2 2694   1.237   2.820   1.499 -0.2190 -2.6528 -0.8652
  899SOL     OW 2695   1.368   0.365   2.872  0.3911  0.1801  0.4161
  899SOL    HW1 2696   1.454   0.313   2.887 -4.0468  1.4149  0.3881
  899SOL    HW2 2697   1.305   0.317   2.811  0.7411 -0.3838 -0.2922
  900SOL     OW 2698   0.843   2.864   2.112  0.2542  0.4270 -0.5512
  900SOL    HW1 2699   0.773   2.795   2.081  1.7007 -1.6323 -1.4735
  900SOL    HW2 2700   0.790   2.947   2.141 -1.2111 -1.8698 -2.0343
  901SOL     OW 2701   0.836   2.271   0.547  0.2283 -0.1539 -0.9598
  901SOL    HW1 2702   0.925   2.322   0.563  0.1726  2.1383 -1.8557
  901SOL    HW2 2703   0.847   2.199   0.479  1.9318  0.7444  0.6502
  902SOL     OW 2704   1.734   0.846   1.100  0.3427 -0.5826 -0.2216
  902SOL    HW1 2705   1.632   0.858   1.117 -0.1825 -0.4684 -3.9564
  902SOL    HW2 2706   1.760   0.765   1.045  2.6824 -1.4255 -0.0824
  903SOL     OW 2707   2.799   0.970   2.584  0.1685 -0.2582 -0.2911
  903SOL    HW1 2708   2.768   1.044   2.643 -0.6728  2.0364 -0.8510
  903SOL    HW2 2709   2.775   0.997   2.483 -2.8619  2.6952 -0.5617
  904SOL     OW 2710   1.183   1.180   0.127 -0.1807  0.1215 -0.0797
  904SOL    HW1 2711   1.219   1.105   0.069 -1.5269 -0.3241  2.3727
  904SOL    HW2 2712   1.150   1.261   0.073 -2.0302  1.8556 -1.1608
  905SOL     OW 2713   1.938   2.934   1.352 -0.3358 -0.1471  0.0434
  905SOL    HW1 2714   1.886   2.992   1.428 -1.7954  2.8137  4.3813
  905SOL    HW2 2715   1.872   2.887   1.294  0.0558  2.6544  1.8604
  906SOL     OW 2716   2.356   2.810   1.090 -0.5878 -0.1630 -0.5783
  906SOL    HW1 2717   2.439   2.788   1.023  2.6533 -1.8293 -3.7171
  906SOL    HW2 2718   2.312   2.897   1.064  0.6067 -2.8608 -0.8358
  907SOL     OW 2719   1.589   1.002   0.441  0.2376 -0.8012  0.6345
  907SOL    HW1 2720   1.611   0.917   0.396  0.0825  4.0276  2.2975
  907SOL    HW2 2721   1.650   1.076   0.412 -1.4345  0.1153  1.1192
  908SOL     OW 2722   1.793   0.210   1.338 -0.2795 -0.0570  0.1185
  908SOL    HW1 2723   1.808   0.131   1.401 -0.5542  1.0136 -1.2829
  908SOL    HW2 2724   1.811   0.301   1.385  0.4268  1.3624 -1.6905
  909SOL     OW 2725   2.214   0.319   1.062  0.2655 -0.5150  0.4265
  909SOL    HW1 2726   2.133   0.263   1.099 -3.8715 -0.6986  0.2214
  909SOL    HW2 2727   2.192   0.418   1.053 -0.9003  3.2878 -1.6001
  910SOL     OW 2728   2.380   0.705   2.048 -0.2432  0.2075  0.5819
  910SOL    HW1 2729   2.466   0.759   2.039 -0.7500 -1.1768  0.2918
  910SOL    HW2 2730   2.291   0.757   2.062  0.5488 -1.9510 -1.5429
  911SOL     OW 2731   2.458   0.329   2.795  0.1001 -0.1661  0.1659
  911SOL    HW1 2732   2.454   0.430   2.804 -0.9897 -0.2770  0.0623
  911SOL    HW2 2733   2.549   0.308   2.750 -0.3324 -2.3038  1.1054
  912SOL     OW 2734   0.504   1.186   1.826  0.4095 -0.5306 -0.1539
  912SOL    HW1 2735   0.530   1.271   1.875 -0.2422 -2.3211  1.1683
  912SOL    HW2 2736   0.564   1.154   1.743  3.0691 -3.7731 -0.8910
  913SOL     OW 2737   2.638   2.347   1.473  0.0587  0.7410  0.1742
  913SOL    HW1 2738   2.709   2.326   1.403  3.5019  0.7016  1.2023
  913SOL    HW2 2739   2.573   2.411   1.431  0.5580 -1.7435 -0.0175
  914SOL     OW 2740   1.926   0.789   1.472  0.0254 -0.6893 -0.0505
  914SOL    HW1 2741   1.950   0.883   1.445  1.3846 -1.3971 -0.1737
  914SOL    HW2 2742   1.937   0.727   1.393 -1.4388  0.3439  0.9366
  915SOL     OW 2743   2.885   1.396   0.749 -0.7835  0.0873  0.0233
  915SOL    HW1 2744   2.810   1.447   0.797 -1.0286  1.1082  0.2888
  915SOL    HW2 2745   2.971   1.383   0.800 -1.8529 -0.6834 -0.8783
  916SOL     OW 2746   2.006   2.283   1.189  0.3905  0.1992 -0.6889
  916SOL    HW1 2747   1.935   2.334   1.138  3.0656 -2.5209  0.9624
  916SOL    HW2 2748   2.006   2.300   1.295 -0.3348 -1.1346  1.8727
  917SOL     OW 2749   1.731   2.584   2.160  0.0129  0.2303  0.5624
  917SOL    HW1 2750   1.683   2.675   2.164  2.0031  2.1063 -0.1441
  917SOL    HW2 2751   1.706   2.532   2.077  2.0679 -1.3425  3.1919
  918SOL     OW 2752   2.058   2.541   2.460 -0.1013 -0.0404 -0.1542
  918SOL    HW1 2753   2.033   2.539   2.360  0.3826 -1.0774 -1.4592
  918SOL    HW2 2754   2.077   2.453   2.503  1.3782  1.0925  1.3420
  919SOL     OW 2755   1.005   0.204   1.399  0.8363 -0.4625 -0.3479
  919SOL    HW1 2756   0.960   0.113   1.410  0.1873  2.0356 -1.8760
  919SOL    HW2 2757   1.024   0.253   1.488  1.4588  0.1894  0.3217
  920SOL     OW 2758   2.694   0.496   2.185 -0.4774  0.3858 -0.0171
  920SOL    HW1 2759   2.604   0.452   2.181  1.6606  0.8992  2.2848
  920SOL    HW2 2760   2.751   0.449   2.256 -1.3586 -0.7641  0.3501
  921SOL     OW 2761   3.062   0.891   1.725  0.1458 -0.2277  0.3135
  921SOL    HW1 2762   0.044   0.887   1.785 -2.9515 -0.9621 -3.9728
  921SOL    HW2 2763   3.050   0.983   1.679  0.2806  0.6695 -2.1821
  922SOL     OW 2764   2.531   2.301   0.729  0.3483  0.0217  0.1658
  922SOL    HW1 2765   2.555   2.365   0.652 -0.6479  1.6225 -2.7779
  922SOL    HW2 2766   2.516   2.361   0.806  2.5833 -1.1251 -2.0982
  923SOL     OW 2767   0.692   2.540   0.763  0.3793 -0.0052 -0.0086
  923SOL    HW1 2768   0.645   2.454   0.732  0.3085  1.8553 -1.0673
  923SOL    HW2 2769   0.673   2.564   0.862  0.7364  0.0843  1.4763
  924SOL     OW 2770   1.038   0.915   2.707  0.4796 -0.8552  0.4156
  924SOL    HW1 2771   1.083   0.991   2.762 -2.0579 -4.8887  0.6105
  924SOL    HW2 2772   1.087   0.917   2.617  0.3946  1.6180 -2.4223
  925SOL     OW 2773   2.581   1.478   0.437 -0.1399  0.1354 -0.0348
  925SOL    HW1 2774   2.579   1.476   0.537 -1.2836  1.7836 -0.1150
  925SOL    HW2 2775   2.676   1.493   0.404 -2.1638  2.1331  1.0433
  926SOL     OW 2776   0.164   0.256   1.029  0.6400 -0.9834 -0.4513
  926SOL    HW1 2777   0.212   0.251   0.940  0.5900 -0.3882  0.1153
  926SOL    HW2 2778   0.110   0.172   1.049  0.7853 -1.2158  0.1445
  927SOL     OW 2779   0.485   1.746   2.516  0.0591 -0.2887 -0.2495
  927SOL    HW1 2780   0.430   1.661   2.532  0.8924  1.7813  0.7536
  927SOL    HW2 2781   0.447   1.800   2.441 -4.2065 -0.2781 -0.6066
  928SOL     OW 2782   0.121   0.340   2.028 -0.3500  0.0909 -0.3295
  928SOL    HW1 2783   0.182   0.299   2.097 -2.7252 -1.5631 -1.3957
  928SOL    HW2 2784   0.162   0.337   1.935  1.1863 -0.9758  0.4657
  929SOL     OW 2785   2.807   2.363   1.085 -0.2560  0.4637 -0.3025
  929SOL    HW1 2786   2.884   2.431   1.098 -0.1048 -0.4673 -0.6081
  929SOL    HW2 2787   2.729   2.406   1.036  1.8209 -1.2355  2.1418
  930SOL     OW 2788   2.090   0.306   2.294 -0.1303  0.0695 -0.2674
  930SOL    HW1 2789   2.056   0.365   2.217 -0.4904 -0.2284  0.7386
  930SOL    HW2 2790   2.128   0.223   2.252 -0.2539 -0.8684 -0.2017
  931SOL     OW 2791   2.201   1.093   2.723  0.1271 -0.1464  0.4256
  931SOL    HW1 2792   2.116   1.146   2.737 -1.4743 -0.8925 -0.7793
  931SOL    HW2 2793   2.184   0.998   2.758  0.3427 -2.0681 -0.4362
  932SOL     OW 2794   1.842   1.246   0.700 -0.2681 -0.3279  0.1886
  932SOL    HW1 2795   1.761   1.184   0.690  1.9204  0.9467  0.8694
  932SOL    HW2 2796   1.831   1.323   0.632  0.8286  1.4133 -0.6028
  933SOL     OW 2797   2.130   1.561   1.013  0.3175 -0.0084 -0.3094
  933SOL    HW1 2798   2.025   1.565   1.010 -1.3488 -3.5269 -1.9178
  933SOL    HW2 2799   2.164   1.532   0.921 -0.1763 -0.6601 -0.5874
  934SOL     OW 2800   2.131   0.846   2.813  0.9501 -0.8403  0.0455
  934SOL    HW1 2801   2.114   0.770   2.754  0.8306 -2.8863 -1.0707
  934SOL    HW2 2802   2.216   0.833   2.868 -1.2830  1.6075 -1.0859
  935SOL     OW 2803   0.061   1.119   0.553  0.6551 -0.3176 -0.1627
  935SOL    HW1 2804   0.121   1.120   0.472 -0.5701  2.3762  2.1373
  935SOL    HW2 2805   3.060   1.085   0.532 -2.8358 -0.7937  3.3021
  936SOL     OW 2806   0.032   2.793   0.802 -0.3652  0.7503 -0.1025
  936SOL    HW1 2807   0.041   2.885   0.761 -0.7478  0.4310 -0.7184
  936SOL    HW2 2808   0.121   2.738   0.790  0.1761 -1.3662  0.4072
  937SOL     OW 2809   0.111   2.396   1.890  0.6534  0.4483  0.4647
  937SOL    HW1 2810   0.150   2.334   1.960  1.5266  1.5463  1.3490
  937SOL    HW2 2811   0.141   2.364   1.794 -1.0089 -1.6573 -1.6183
  938SOL     OW 2812   2.746   2.279   0.126  0.5219  0.2746 -0.4628
  938SOL    HW1 2813   2.835   2.288   0.171  1.0367 -2.2775  1.4347
  938SOL    HW2 2814   2.737   2.346   0.046  0.0454  3.0129 -2.1580
  939SOL     OW 2815   1.071   0.936   1.295 -0.4933 -0.7772 -0.0358
  939SOL    HW1 2816   1.024   0.994   1.222 -2.0786 -0.0456 -0.7721
  939SOL    HW2 2817   1.154   0.895   1.255  0.6093  1.7224 -0.0912
  940SOL     OW 2818   2.700   0.282   2.691  0.6240  0.4747  0.0366
  940SOL    HW1 2819   2.642   0.201   2.666 -0.1615  0.7443  3.7117
  940SOL    HW2 2820   2.795   0.255   2.677 -2.7666 -1.3371  1.7484
  941SOL     OW 2821   2.581   2.505   2.608 -0.4784  0.3292 -0.6065
  941SOL    HW1 2822   2.657   2.513   2.539  0.7383  0.5849 -1.0643
  941SOL    HW2 2823   2.501   2.572   2.594 -1.0167  0.9364  1.3680
  942SOL     OW 2824   1.315   0.025   1.320 -0.9350 -0.6615 -0.3743
  942SOL    HW1 2825   1.376   3.066   1.380  2.2397  1.2513  0.9869
  942SOL    HW2 2826   1.283   0.097   1.380  0.9765  0.5356 -1.1728
  943SOL     OW 2827   0.854   1.444   2.395  0.1079  0.7567 -0.5604
  943SOL    HW1 2828   0.805   1.412   2.310 -2.2766  0.9527 -1.4177
  943SOL    HW2 2829   0.807   1.532   2.427 -1.0270  0.6340 -2.0492
  944SOL     OW 2830   2.163   0.972   0.843  0.1920 -0.4078  0.4010
  944SOL    HW1 2831   2.092   0.904   0.866 -0.6480  2.1273  0.8038
  944SOL    HW2 2832   2.126   1.067   0.853 -1.1718  2.4278 -1.3153
  945SOL     OW 2833   2.937   3.008   2.947  0.5366 -0.0055 -0.3180
  945SOL    HW1 2834   3.009   3.064   2.897 -1.2520 -3.3227 -1.4408
  945SOL    HW2 2835   2.970   2.979   3.038 -2.1495 -0.5274 -0.0869
  946SOL     OW 2836   0.228   1.450   1.523 -0.0043 -0.0339  0.1988
  946SOL    HW1 2837   0.147   1.450   1.458 -2.5379 -0.0680 -1.7457
  946SOL    HW2 2838   0.305   1.405   1.484  1.0488  0.8288  0.3888
  947SOL     OW 2839   0.894   3.011   0.072  0.1834  0.4274 -0.3634
  947SOL    HW1 2840   0.937   3.046   0.156  1.2066  2.6833  0.0982
  947SOL    HW2 2841   0.809   2.960   0.094 -0.9848 -1.2098  0.4982
  948SOL     OW 2842   2.392   1.542   1.102  0.3049 -0.1466 -0.3005
  948SOL    HW1 2843   2.417   1.463   1.044 -1.7404 -1.7431 -0.9746
  948SOL    HW2 2844   2.294   1.555   1.088  1.3441  2.6605  0.5455
  949SOL     OW 2845   0.348   0.816   2.787  0.0618  0.2753 -0.2255
  949SOL    HW1 2846   0.382   0.844   2.878 -1.9650  0.8480  2.0919
  949SOL    HW2 2847   0.350   0.903   2.733 -0.2277  1.5359  1.7788
  950SOL     OW 2848   0.372   2.640   1.347  0.0227  0.2620  0.1505
  950SOL    HW1 2849   0.359   2.724   1.287 -0.6836  0.8459 -1.6034
  950SOL    HW2 2850   0.471   2.617   1.360  1.6324  2.4249  0.1845
  951SOL     OW 2851   0.900   1.597   2.738 -0.2820 -0.7100  0.4770
  951SOL    HW1 2852   0.826   1.608   2.806 -2.2803 -1.9445 -2.4386
  951SOL    HW2 2853   0.857   1.618   2.645 -2.3417 -0.6048 -1.8439
  952SOL     OW 2854   0.442   1.349   0.511 -0.3741  0.6833  0.0171
  952SOL    HW1 2855   0.464   1.251   0.531 -0.3062 -1.0745  0.9371
  952SOL    HW2 2856   0.345   1.368   0.535 -1.9767 -0.4480  1.7928
  953SOL     OW 2857   2.346   2.165   2.733  0.0175 -0.3423 -0.1133
  953SOL    HW1 2858   2.416   2.198   2.664 -0.5888 -2.9381  0.1415
  953SOL    HW2 2859   2.372   2.195   2.825  0.3308 -1.4783 -1.9857
  954SOL     OW 2860   1.699   0.764   0.730 -0.1772 -0.0799 -0.0049
  954SOL    HW1 2861   1.608   0.788   0.770 -0.1802 -1.6366 -2.9272
  954SOL    HW2 2862   1.756   0.846   0.721 -0.3224 -4.5779  4.0695
  955SOL     OW 2863   0.654   1.956   0.113 -0.2235 -0.5421 -0.3488
  955SOL    HW1 2864   0.589   2.028   0.131 -0.6279  0.0524  0.0799
  955SOL    HW2 2865   0.640   1.913   0.018  0.5284 -3.0372  1.1360
  956SOL     OW 2866   2.613   0.397   1.789  0.1642 -0.3975 -0.6134
  956SOL    HW1 2867   2.569   0.402   1.696 -1.3376  1.8764  0.7079
  956SOL    HW2 2868   2.552   0.355   1.854  1.5296  2.1634 -0.8382
  957SOL     OW 2869   1.907   2.200   1.835 -0.2519  0.9517 -0.0534
  957SOL    HW1 2870   1.965   2.257   1.901 -2.3643  2.6138 -1.2382
  957SOL    HW2 2871   1.965   2.145   1.777 -4.3945 -0.8884  1.0808
  958SOL     OW 2872   1.723   0.965   1.545  0.0402 -0.0696  0.1049
  958SOL    HW1 2873   1.728   1.062   1.516 -1.8749  0.5638 -0.6380
  958SOL    HW2 2874   1.802   0.906   1.517  0.2157  0.3653  1.0692
  959SOL     OW 2875   1.491   2.078   2.165 -0.1887 -0.2984  0.5009
  959SOL    HW1 2876   1.440   2.021   2.233 -1.2741  0.5855  0.6645
  959SOL    HW2 2877   1.476   2.177   2.177 -1.0397  0.7852 -0.3386
  960SOL     OW 2878   0.656   0.632   2.722  0.0659 -0.3190  0.3873
  960SOL    HW1 2879   0.577   0.594   2.766 -0.8468  1.4587 -0.4675
  960SOL    HW2 2880   0.734   0.651   2.785 -1.5818  2.3959  1.2833
  961SOL     OW 2881   3.036   0.925   2.745 -0.0819  0.1490  0.5080
  961SOL    HW1 2882   3.026   0.822   2.728 -0.9166 -0.9409 -1.5534
  961SOL    HW2 2883   2.964   0.973   2.696  1.9739 -0.0894  2.1293
  962SOL     OW 2884   0.946   2.016   2.857 -0.0979  0.4774 -0.0285
  962SOL    HW1 2885   0.859   2.063   2.856  0.5755  0.0247 -0.9764
  962SOL    HW2 2886   1.012   2.074   2.910 -1.5297 -0.4878 -0.9785
  963SOL     OW 2887   2.767   1.932   0.003  0.1894  0.0614 -0.1588
  963SOL    HW1 2888   2.751   1.830   0.003  0.9549  0.4099 -0.1781
  963SOL    HW2 2889   2.696   1.979   3.048  1.7612  1.5360  1.4951
  964SOL     OW 2890   0.760   2.322   2.226  0.0379  0.4833  0.0905
  964SOL    HW1 2891   0.663   2.350   2.241  0.0387 -1.7134 -1.2819
  964SOL    HW2 2892   0.823   2.384   2.281 -2.4175 -0.5815  1.5002
  965SOL     OW 2893   1.584   1.739   1.590 -0.6139  0.1419  0.2823
  965SOL    HW1 2894   1.591   1.840   1.611 -0.6910  1.1670  1.5329
  965SOL    HW2 2895   1.581   1.682   1.676  0.1579  2.0078 -0.6286
  966SOL     OW 2896   3.084   1.625   3.038 -0.3082 -0.2801 -0.8387
  966SOL    HW1 2897   3.065   1.683   0.025 -1.4991  1.2932  0.5248
  966SOL    HW2 2898   0.023   1.675   2.957 -1.7032 -0.0132 -1.2443
  967SOL     OW 2899   2.217   2.795   2.185  0.0411  0.3736  0.2510
  967SOL    HW1 2900   2.139   2.731   2.196 -1.4986  0.1613 -1.5768
  967SOL    HW2 2901   2.205   2.854   2.101 -1.7111 -1.4433  0.3394
  968SOL     OW 2902   1.158   0.801   0.181  0.5641  0.3775 -0.0219
  968SOL    HW1 2903   1.187   0.857   0.264  0.6949 -2.4545 -1.5133
  968SOL    HW2 2904   1.224   0.738   0.146 -3.5172  0.3986  1.9861
  969SOL     OW 2905   0.537   1.150   2.439  0.4025 -0.2496  0.1917
  969SOL    HW1 2906   0.599   1.126   2.368 -1.8041  1.6029 -1.8138
  969SOL    HW2 2907   0.509   1.067   2.489  2.6269  1.6187  1.9170
  970SOL     OW 2908   2.024   2.874   0.864 -0.1727 -0.2061 -0.3072
  970SOL    HW1 2909   2.098   2.929   0.821  2.4841  0.2455 -2.3549
  970SOL    HW2 2910   1.960   2.850   0.793  3.7626 -0.4207  1.5152
  971SOL     OW 2911   2.056   2.127   0.717 -0.1215  0.4460 -0.3017
  971SOL    HW1 2912   2.079   2.139   0.815 -0.0706  1.3783 -1.7624
  971SOL    HW2 2913   2.084   2.208   0.661  0.6191  1.1821 -1.8303
  972SOL     OW 2914   0.058   1.324   2.719  0.0306 -0.2284  0.4601
  972SOL    HW1 2915   3.082   1.332   2.644 -2.8928  1.0778  0.0417
  972SOL    HW2 2916   0.157   1.316   2.686  1.1847 -1.0139 -0.7682
  973SOL     OW 2917   0.778   0.326   0.211  0.6197  0.1616 -0.0900
  973SOL    HW1 2918   0.806   0.359   0.124 -0.0893 -0.6363  4.0442
  973SOL    HW2 2919   0.737   0.401   0.265  1.0766 -2.6232 -2.7586
  974SOL     OW 2920   2.653   0.925   1.683  0.5147  0.1364 -0.8308
  974SOL    HW1 2921   2.645   0.824   1.680 -2.8966 -1.0947  2.0037
  974SOL    HW2 2922   2.737   0.956   1.739  3.7491  1.0450  0.5397
  975SOL     OW 2923   2.791   0.116   0.858 -0.4304 -0.8046 -0.2299
  975SOL    HW1 2924   2.722   0.180   0.820 -0.2088  2.1311  2.6567
  975SOL    HW2 2925   2.869   0.171   0.904 -0.4893  0.5604 -1.2406
  976SOL     OW 2926   0.673   1.627   1.090  0.1983  0.6034 -0.1477
  976SOL    HW1 2927   0.594   1.642   1.150  1.1048  0.4647  0.9072
  976SOL    HW2 2928   0.743   1.576   1.143  0.8570  0.1680  0.0065
  977SOL     OW 2929   1.274   2.222   0.235  0.5514  0.1301 -0.3981
  977SOL    HW1 2930   1.348   2.232   0.164 -0.2677 -1.2134 -1.8335
  977SOL    HW2 2931   1.215   2.311   0.233 -3.4778  2.4069  0.0338
  978SOL     OW 2932   0.142   0.603   0.039  0.4565 -0.2338 -0.2647
  978SOL    HW1 2933   0.131   0.611   3.036 -1.1373  1.2243  0.2032
  978SOL    HW2 2934   0.202   0.529   0.067 -1.8403  2.0141 -2.0683
  979SOL     OW 2935   1.850   1.583   0.975  0.1175 -0.2497  0.6413
  979SOL    HW1 2936   1.809   1.489   0.968 -1.8702 -2.2663  4.0238
  979SOL    HW2 2937   1.828   1.645   0.898  0.4676 -1.7137 -0.2145
  980SOL     OW 2938   0.577   1.984   2.048  0.1240 -0.3981 -0.1820
  980SOL    HW1 2939   0.640   1.933   2.111  0.0283 -0.6721 -0.7086
  980SOL    HW2 2940   0.623   1.993   1.954 -2.2674  0.3321 -0.9275
  981SOL     OW 2941   2.464   1.385   2.456 -0.4031 -0.0219 -0.0415
  981SOL    HW1 2942   2.513   1.403   2.547  3.2632  0.0760 -0.9532
  981SOL    HW2 2943   2.384   1.450   2.444 -1.2015  1.3222  0.8921
  982SOL     OW 2944   0.279   2.300   1.679 -0.1543 -0.0844 -0.2405
  982SOL    HW1 2945   0.261   2.299   1.581 -0.6169  2.1325  2.7726
  982SOL    HW2 2946   0.296   2.206   1.719  4.0593 -3.5652  1.8877
  983SOL     OW 2947   1.671   0.299   1.837  0.1614 -0.0511  0.0369
  983SOL    HW1 2948   1.618   0.266   1.759 -1.6700 -0.4778 -1.0791
  983SOL    HW2 2949   1.743   0.230   1.860  2.2161 -0.3291 -3.8178
  984SOL     OW 2950   2.723   2.835   2.986 -0.1192 -0.3399  0.2135
  984SOL    HW1 2951   2.801   2.896   2.957 -1.8879 -0.3789  2.0201
  984SOL    HW2 2952   2.735   2.808   3.087 -0.1238 -1.6380  2.8697
  985SOL     OW 2953   1.452   1.318   1.773  0.0187  0.4075  0.3059
  985SOL    HW1 2954   1.403   1.392   1.812 -0.6617 -1.4089 -1.0663
  985SOL    HW2 2955   1.529   1.289   1.831 -2.2112  1.6093  1.7690
  986SOL     OW 2956   2.026   0.261   2.785 -0.2645 -0.9623 -0.5089
  986SOL    HW1 2957   2.058   0.169   2.806 -0.1333 -0.0290  0.3881
  986SOL    HW2 2958   2.037   0.323   2.865 -0.8311  1.2449  1.9349
  987SOL     OW 2959   2.807   1.607   2.774 -0.0407 -0.5179  0.0108
  987SOL    HW1 2960   2.802   1.563   2.866  0.5194 -0.9355 -2.8495
  987SOL    HW2 2961   2.778   1.704   2.773 -4.4574  1.6863  2.0533
  988SOL     OW 2962   0.003   0.348   1.414 -0.3629  0.4439  0.3410
  988SOL    HW1 2963   3.022   0.328   1.353  2.6314  0.2771  1.0035
  988SOL    HW2 2964   3.072   0.417   1.485 -1.0279  3.3118  0.2465
  989SOL     OW 2965   1.830   0.648   0.931 -0.1020  0.1590 -0.8374
  989SOL    HW1 2966   1.928   0.678   0.929  3.3798 -1.2944  0.7132
  989SOL    HW2 2967   1.768   0.686   0.855 -0.3189  0.4245 -2.0438
  990SOL     OW 2968   2.481   0.505   3.087 -0.2483 -0.2970  0.1898
  990SOL    HW1 2969   2.583   0.492   3.075  2.3194  3.2145 -0.1919
  990SOL    HW2 2970   2.431   0.498   3.003 -1.7344 -0.8740  1.5343
  991SOL     OW 2971   0.081   1.393   0.060  0.4838  0.2065  0.2884
  991SOL    HW1 2972   0.010   1.319   0.049  0.4120  1.2989 -2.0909
  991SOL    HW2 2973   0.052   1.481   0.020 -0.5822  0.6860  0.0359
  992SOL     OW 2974   2.077   1.522   1.804 -0.2543 -0.0015  0.5549
  992SOL    HW1 2975   2.127   1.549   1.886  0.5353 -0.7868 -4.4371
  992SOL    HW2 2976   2.102   1.428   1.778  1.9783 -1.0116 -1.2115
  993SOL     OW 2977   0.266   2.603   0.792  0.3055 -0.4848 -0.5015
  993SOL    HW1 2978   0.261   2.512   0.837 -0.0881  0.6185  2.8138
  993SOL    HW2 2979   0.317   2.673   0.845  0.0851 -0.1549 -1.7596
  994SOL     OW 2980   3.028   1.668   1.889  0.1772  0.1336  0.5375
  994SOL    HW1 2981   2.943   1.658   1.827 -1.1059 -0.3533  1.5454
  994SOL    HW2 2982   0.018   1.658   1.836  0.3566  2.3944 -1.0165
  995SOL     OW 2983   1.819   2.027   2.529 -0.3821 -0.0043  0.1345
  995SOL    HW1 2984   1.774   2.110   2.492 -0.3594 -2.2603  0.9471
  995SOL    HW2 2985   1.772   1.947   2.494 -2.0398 -0.1147  0.2904
  996SOL     OW 2986   2.216   2.243   0.403  0.3585  0.6393  0.3496
  996SOL    HW1 2987   2.161   2.291   0.334 -1.7063  2.9734 -1.4820
  996SOL    HW2 2988   2.211   2.140   0.400 -1.6081 -1.0627 -1.4572
  997SOL     OW 2989   1.311   1.520   2.410 -0.4828  0.3966 -0.0403
  997SOL    HW1 2990   1.238   1.455   2.445 -0.0665 -0.1947  2.9986
  997SOL    HW2 2991   1.352   1.491   2.322  0.7656 -1.1412  0.5679
  998SOL     OW 2992   2.989   2.455   0.597 -0.4226 -0.2629 -0.1012
  998SOL    HW1 2993   3.025   2.480   0.686  0.3209 -0.1383 -2.2104
  998SOL    HW2 2994   2.903   2.504   0.578  3.3154 -2.7471 -0.0521
  999SOL     OW 2995   0.411   2.813   0.483 -0.4542  0.2112  0.3361
  999SOL    HW1 2996   0.474   2.800   0.561  1.2929  0.9761 -2.6132
  999SOL    HW2 2997   0.367   2.728   0.450 -1.5446  0.8016 -0.4283
 1000SOL     OW 2998   1.190   0.258   3.050 -0.2954  0.1985 -0.0884
 1000SOL    HW1 2999   1.172   0.162   3.015  0.4660 -1.6308 -0.6642
 1000SOL    HW2 3000   1.276   0.289   3.000  3.6656 -1.0986 -1.8200
   3.09607   3.09607   3.09607
