1000 SPC/Fw water molecules t= 157.00000 step= 157000
 3000
    1SOL     OW    1   2.471   2.638   0.650 -0.2541 -0.5142  0.6231
    1SOL    HW1    2   2.526   2.710   0.703  1.9192  2.2860  4.1874
    1SOL    HW2    3   2.374   2.671   0.639 -3.4288  2.4466  0.6380
    2SOL     OW    4   1.320   2.074   2.469 -0.2007  0.0287 -0.0606
    2SOL    HW1    5   1.406   2.120   2.441 -0.6836 -0.2712  1.8465
    2SOL    HW2    6   1.348   1.997   2.531  1.8473  0.2877  1.1343
    3SOL     OW    7   1.791   2.390   1.955  0.3676 -0.2479  0.3463
    3SOL    HW1    8   1.816   2.293   1.961 -0.7300  1.0149 -1.1333
    3SOL    HW2    9   1.858   2.449   2.003 -0.4489 -0.9140 -1.5240
    4SOL     OW   10   2.034   2.488   2.049 -0.6012 -0.0719 -0.6480
    4SOL    HW1   11   2.099   2.420   2.089  2.9568 -1.1515 -2.0699
    4SOL    HW2   12   2.053   2.584   2.087 -0.3630  2.6238  0.6335
    5SOL     OW   13   0.638   0.534   1.676 -0.2924 -0.2402 -0.5117
    5SOL    HW1   14   0.740   0.562   1.659  1.3583  0.4220 -0.4523
    5SOL    HW2   15   0.631   0.483   1.766 -2.8706  0.9100  3.1622
    6SOL     OW   16   2.427   0.836   2.918  0.3065  0.3417 -0.0271
    6SOL    HW1   17   2.382   0.795   3.002 -4.0029 -0.6776  0.3973
    6SOL    HW2   18   2.377   0.816   2.831 -1.0262 -1.8297  0.9422
    7SOL     OW   19   0.786   0.528   1.316  0.2814  0.2013  0.1294
    7SOL    HW1   20   0.840   0.520   1.230 -1.9220  1.5427  0.9031
    7SOL    HW2   21   0.695   0.567   1.291  1.9685  2.3864  2.2780
    8SOL     OW   22   1.319   2.372   1.371  0.5947  0.5050  1.1583
    8SOL    HW1   23   1.239   2.367   1.432  0.7939  1.1262  0.8183
    8SOL    HW2   24   1.384   2.298   1.391 -1.0018  0.5007  0.4752
    9SOL     OW   25   0.769   0.921   0.103  0.5234  0.2514 -0.3660
    9SOL    HW1   26   0.735   0.889   0.009 -1.7508 -0.7782 -1.8861
    9SOL    HW2   27   0.861   0.876   0.128  0.8624  1.3485  0.4860
   10SOL     OW   28   0.472   2.839   3.038 -0.1363 -0.0715 -0.4687
   10SOL    HW1   29   0.379   2.797   3.070 -3.0689 -2.2201 -2.2188
   10SOL    HW2   30   0.493   2.792   2.951 -0.7138 -2.4531  0.5669
   11SOL     OW   31   0.096   1.296   2.858 -0.9718  0.3034  0.1057
   11SOL    HW1   32   0.062   1.369   2.797  0.3830  1.6161 -0.1538
   11SOL    HW2   33   0.133   1.326   2.947  0.4465 -1.2571  0.4675
   12SOL     OW   34   0.827   0.051   1.311 -0.2827 -0.1446 -0.4202
   12SOL    HW1   35   0.743   0.016   1.264  2.8146 -1.5087  0.3762
   12SOL    HW2   36   0.814   0.142   1.349  1.4072 -2.1737  1.4661
   13SOL     OW   37   0.588   2.609   0.657 -0.0979 -0.1528  0.1289
   13SOL    HW1   38   0.667   2.545   0.678  2.0035 -4.7748 -1.4281
   13SOL    HW2   39   0.634   2.689   0.619 -0.8032 -0.1975  2.0479
   14SOL     OW   40   1.468   1.843   0.835  0.3691 -0.4011 -0.1727
   14SOL    HW1   41   1.405   1.911   0.795  2.2664 -0.6803 -0.4544
   14SOL    HW2   42   1.434   1.800   0.923  0.4369 -1.4091 -0.3063
   15SOL     OW   43   2.394   0.859   2.299 -0.2543  0.3426  0.2379
   15SOL    HW1   44   2.319   0.900   2.356 -2.2472 -1.0532  0.8232
   15SOL    HW2   45   2.402   0.920   2.219  1.4592 -2.2643  1.5850
   16SOL     OW   46   1.315   0.024   2.916  0.6152  0.4833  0.3011
   16SOL    HW1   47   1.364   3.089   2.996  1.0989 -0.1330 -0.2912
   16SOL    HW2   48   1.368   0.098   2.875 -0.3620 -2.2405  2.7056
   17SOL     OW   49   0.843   2.515   1.908 -0.8598 -0.1363  0.5060
   17SOL    HW1   50   0.765   2.577   1.917 -0.3369 -0.6328  2.0283
   17SOL    HW2   51   0.919   2.563   1.857 -0.2681  0.5142  2.2989
   18SOL     OW   52   1.364   0.701   0.131  0.4515  0.1662 -0.0156
   18SOL    HW1   53   1.348   0.799   0.131 -0.5899  0.1063 -3.3331
   18SOL    HW2   54   1.349   0.679   0.030  1.7764  1.4632  1.3340
   19SOL     OW   55   2.131   1.937   2.786  0.2889 -0.5597 -0.4320
   19SOL    HW1   56   2.133   1.968   2.880  0.4110 -0.8902 -2.3246
   19SOL    HW2   57   2.216   1.949   2.733  0.5811 -2.7181  0.4887
   20SOL     OW   58   2.061   1.824   2.018 -0.3858 -0.2163  0.2463
   20SOL    HW1   59   2.155   1.791   2.009 -1.1910  2.5526 -0.7953
   20SOL    HW2   60   2.003   1.754   2.065  0.5631  2.1726  1.3040
   21SOL     OW   61   0.331   1.645   2.946 -0.5524 -0.2325  0.0205
   21SOL    HW1   62   0.378   1.702   3.014  0.0222 -0.3849 -1.2624
   21SOL    HW2   63   0.368   1.672   2.852  1.0294  0.3662 -1.0428
   22SOL     OW   64   2.468   0.028   1.403 -1.0871 -0.2012 -0.5292
   22SOL    HW1   65   2.524   3.054   1.429 -0.5876  1.0196  0.6101
   22SOL    HW2   66   2.448   0.024   1.302  0.8866 -2.4864  1.2542
   23SOL     OW   67   3.040   1.173   1.638  0.0628  0.1086  0.1371
   23SOL    HW1   68   3.086   1.107   1.577 -2.2898  2.4686 -0.1176
   23SOL    HW2   69   0.007   1.232   1.677  1.0213  3.2057  1.0368
   24SOL     OW   70   2.626   1.838   1.369 -0.0718 -0.2527  0.0177
   24SOL    HW1   71   2.661   1.754   1.318 -0.5866 -1.5483  0.7997
   24SOL    HW2   72   2.525   1.827   1.390  0.1709  0.9641 -1.6917
   25SOL     OW   73   1.961   3.004   2.558 -0.1944  0.2352 -0.5292
   25SOL    HW1   74   2.012   3.007   2.467  1.6487  2.2970  0.6104
   25SOL    HW2   75   1.876   2.941   2.558 -0.7676 -0.2659  1.6279
   26SOL     OW   76   1.387   2.946   0.492 -0.0924 -0.6072  0.3059
   26SOL    HW1   77   1.327   3.019   0.534 -2.6322 -0.5774 -1.0941
   26SOL    HW2   78   1.484   2.960   0.522 -0.7528  1.5658  0.7733
   27SOL     OW   79   0.806   2.062   3.012  0.3358  0.2888 -0.1325
   27SOL    HW1   80   0.816   2.034   0.005 -1.8562 -2.1004  1.2167
   27SOL    HW2   81   0.726   2.007   2.976 -1.9382 -2.8155  2.1149
   28SOL     OW   82   2.715   1.582   1.206  0.3193  0.1724 -0.1559
   28SOL    HW1   83   2.768   1.565   1.118 -2.1657  2.5381  0.1898
   28SOL    HW2   84   2.621   1.537   1.188 -0.1195  0.0799 -2.1089
   29SOL     OW   85   2.632   2.246   2.139 -0.1231  0.4749  0.0317
   29SOL    HW1   86   2.569   2.323   2.167 -1.6569 -2.8418 -2.0925
   29SOL    HW2   87   2.728   2.275   2.133 -1.7511  0.0922  2.6718
   30SOL     OW   88   1.163   2.679   1.078  0.0832 -0.4518 -0.0321
   30SOL    HW1   89   1.160   2.780   1.097  0.2505  0.4893  1.7733
   30SOL    HW2   90   1.086   2.653   1.014 -1.2000 -0.1866 -0.6878
   31SOL     OW   91   3.028   2.221   1.786 -0.8365 -0.3069 -0.0471
   31SOL    HW1   92   2.980   2.298   1.734  0.8417  1.6922 -0.8256
   31SOL    HW2   93   3.100   2.265   1.844  0.6513 -2.7542  2.6471
   32SOL     OW   94   1.194   1.077   1.973 -0.2676 -0.2102 -0.0179
   32SOL    HW1   95   1.248   1.071   1.888 -3.1056  0.0831 -3.2122
   32SOL    HW2   96   1.229   1.141   2.038 -0.1318 -3.6761  0.5656
   33SOL     OW   97   0.680   2.963   2.526 -0.1548  0.2872  0.1627
   33SOL    HW1   98   0.699   2.870   2.562 -0.6409  1.1102 -1.5784
   33SOL    HW2   99   0.620   3.013   2.595 -0.2835 -1.2889  0.0231
   34SOL     OW  100   1.843   2.927   1.187 -0.0379 -0.2180 -0.2604
   34SOL    HW1  101   1.853   2.968   1.283  4.2455 -0.6150  2.5497
   34SOL    HW2  102   1.923   2.869   1.175  0.4821  1.4182 -2.0372
   35SOL     OW  103   2.040   0.544   1.373 -0.0397  0.0870 -0.1148
   35SOL    HW1  104   2.049   0.581   1.278 -1.8807 -0.0363 -0.6506
   35SOL    HW2  105   2.034   0.616   1.444 -0.2949  0.9262  2.2856
   36SOL     OW  106   2.116   2.705   2.171  0.3420  0.3309  0.6067
   36SOL    HW1  107   2.164   2.639   2.231 -1.7498 -1.9145  1.3573
   36SOL    HW2  108   2.181   2.734   2.097 -2.2263  1.2978  1.4842
   37SOL     OW  109   1.354   2.349   2.644 -0.2717 -0.3187 -0.4040
   37SOL    HW1  110   1.420   2.337   2.722  1.3405 -2.0432 -0.6990
   37SOL    HW2  111   1.261   2.336   2.693  1.8614 -1.0886  0.7989
   38SOL     OW  112   2.324   0.163   0.055 -0.4153 -0.1794 -0.3847
   38SOL    HW1  113   2.428   0.178   0.070  4.7110  1.6200  1.1803
   38SOL    HW2  114   2.284   0.260   0.035 -1.0247  3.4076  0.0340
   39SOL     OW  115   2.092   1.864   2.309  0.0531  0.0656 -0.4991
   39SOL    HW1  116   2.006   1.888   2.357  0.8627 -1.0584 -1.8302
   39SOL    HW2  117   2.076   1.870   2.212 -2.4701 -1.0739  4.9059
   40SOL     OW  118   0.310   2.996   2.890  0.1395  0.2979 -0.1011
   40SOL    HW1  119   0.252   3.053   2.953 -0.2689  1.5013  1.4396
   40SOL    HW2  120   0.386   2.951   2.941  0.7235 -0.2697 -1.0303
   41SOL     OW  121   1.490   0.747   1.550  0.7521  0.2686 -0.2285
   41SOL    HW1  122   1.411   0.687   1.519  1.4557 -0.2308  0.1044
   41SOL    HW2  123   1.581   0.700   1.552 -0.6558  2.0986 -1.4116
   42SOL     OW  124   0.339   0.151   1.740 -0.0435 -0.3416 -0.2082
   42SOL    HW1  125   0.389   0.197   1.666  0.3990  0.2421 -1.9557
   42SOL    HW2  126   0.318   0.210   1.819 -0.7659  0.6178 -1.5802
   43SOL     OW  127   1.628   0.186   1.955  0.5269  0.7433 -0.6031
   43SOL    HW1  128   1.642   0.211   2.055 -0.5012  0.1997  0.2103
   43SOL    HW2  129   1.715   0.197   1.905 -3.3504  0.2919 -0.1136
   44SOL     OW  130   0.137   2.696   2.549  0.4749  0.3061 -0.3671
   44SOL    HW1  131   0.205   2.758   2.587 -0.4062 -1.0027 -1.4238
   44SOL    HW2  132   0.059   2.749   2.507 -1.0250 -4.0955 -1.2176
   45SOL     OW  133   0.282   2.377   1.547  0.1278 -0.4685  0.2286
   45SOL    HW1  134   0.216   2.429   1.597 -1.3537 -4.4070 -1.8726
   45SOL    HW2  135   0.363   2.368   1.601 -1.6572 -2.3965  1.3462
   46SOL     OW  136   2.209   2.113   2.362 -0.0932 -0.2811 -0.6274
   46SOL    HW1  137   2.213   2.157   2.271 -1.1312 -0.4911  2.4485
   46SOL    HW2  138   2.181   2.015   2.350  0.9798  0.3967 -0.0023
   47SOL     OW  139   1.626   1.925   1.886 -0.2487 -0.3068  0.1885
   47SOL    HW1  140   1.696   1.995   1.893 -2.9510 -2.1571  1.2019
   47SOL    HW2  141   1.638   1.856   1.810  1.1574  1.2411  0.0733
   48SOL     OW  142   0.255   1.799   0.180  0.2383  0.2037  0.2652
   48SOL    HW1  143   0.253   1.776   0.281  0.4486 -2.3247  0.0458
   48SOL    HW2  144   0.170   1.838   0.145  0.7774  2.3674  0.2295
   49SOL     OW  145   2.630   0.517   2.422 -0.2485 -0.7783 -0.0590
   49SOL    HW1  146   2.589   0.550   2.510 -0.4930  2.1846  1.4067
   49SOL    HW2  147   2.555   0.516   2.355  3.0227 -1.7209  1.0516
   50SOL     OW  148   1.942   0.659   1.086  0.1840  0.6272 -0.2132
   50SOL    HW1  149   1.971   0.755   1.092  2.3519 -0.3961 -1.7640
   50SOL    HW2  150   1.842   0.644   1.110 -1.1015  0.8289 -1.4546
   51SOL     OW  151   1.125   0.727   1.033  0.4055 -0.0268 -0.5853
   51SOL    HW1  152   1.063   0.807   1.044  1.7488 -1.9567  1.5457
   51SOL    HW2  153   1.221   0.763   1.020 -1.3148  0.6940 -0.6186
   52SOL     OW  154   1.366   1.264   3.027 -0.4074 -0.2004 -0.2020
   52SOL    HW1  155   1.308   1.213   2.962 -1.1628  4.6352 -1.7436
   52SOL    HW2  156   1.304   1.338   3.069  0.7232  0.0725 -2.0267
   53SOL     OW  157   1.182   2.021   2.872  0.4395  0.0565 -0.2210
   53SOL    HW1  158   1.103   1.960   2.857  1.5102  1.5075  0.2774
   53SOL    HW2  159   1.164   2.115   2.841  1.1661 -1.9002 -1.6555
   54SOL     OW  160   1.734   0.640   1.560 -0.3692 -0.3402  0.0444
   54SOL    HW1  161   1.806   0.706   1.524 -0.5826  1.1284 -1.1156
   54SOL    HW2  162   1.764   0.602   1.652 -0.0630  1.3853  1.4737
   55SOL     OW  163   1.931   2.826   0.742  0.2761 -0.8509 -0.1990
   55SOL    HW1  164   1.975   2.914   0.766  3.4493  0.9701 -0.1734
   55SOL    HW2  165   1.829   2.839   0.750  0.0740  1.1970 -0.6734
   56SOL     OW  166   0.816   2.670   1.342  0.3462 -0.2607 -0.2110
   56SOL    HW1  167   0.899   2.612   1.334 -2.4344  2.0001 -2.0140
   56SOL    HW2  168   0.817   2.735   1.421  0.0238  2.4066  0.5113
   57SOL     OW  169   1.727   0.870   0.314 -0.1996 -0.7992  0.1093
   57SOL    HW1  170   1.745   0.946   0.246 -1.6832  2.2198  1.0820
   57SOL    HW2  171   1.711   0.776   0.273 -2.5426 -3.7094  2.3938
   58SOL     OW  172   0.145   0.954   2.192  0.5718 -0.0344 -0.5403
   58SOL    HW1  173   0.150   0.921   2.289  0.5991 -2.5152 -2.4062
   58SOL    HW2  174   0.045   0.968   2.174 -1.2182 -1.0957 -0.0573
   59SOL     OW  175   0.865   2.446   2.455  0.4232  0.3145  0.7475
   59SOL    HW1  176   0.914   2.533   2.482  0.1571 -0.0885  3.0094
   59SOL    HW2  177   0.845   2.457   2.354  2.4541 -0.1249 -0.3865
   60SOL     OW  178   2.670   2.793   0.953  0.0491 -0.1727 -0.3136
   60SOL    HW1  179   2.616   2.732   1.015  2.4066 -3.7523 -1.4946
   60SOL    HW2  180   2.614   2.867   0.922 -1.4633 -2.5023  0.2643
   61SOL     OW  181   1.337   2.063   0.519 -0.5604  0.3034  0.1194
   61SOL    HW1  182   1.364   2.069   0.615  0.0104 -1.9569  1.9985
   61SOL    HW2  183   1.318   2.154   0.479 -4.4705  3.2976  0.4391
   62SOL     OW  184   2.123   2.673   2.911  0.3796 -0.2494 -0.1320
   62SOL    HW1  185   2.207   2.617   2.915  0.3880  2.7598  0.4480
   62SOL    HW2  186   2.122   2.744   2.985 -1.5577  0.9841  0.1437
   63SOL     OW  187   1.828   0.470   0.096  0.3263  0.3064  0.5165
   63SOL    HW1  188   1.929   0.464   0.119 -0.2662 -0.5210 -3.6349
   63SOL    HW2  189   1.808   0.569   0.084 -0.9121  0.7264 -0.1249
   64SOL     OW  190   0.962   1.198   3.042 -0.4526 -0.1352  0.0565
   64SOL    HW1  191   0.943   1.186   2.948  0.7051 -0.8557  1.3633
   64SOL    HW2  192   0.875   1.184   3.091 -1.5292 -1.2707  4.0223
   65SOL     OW  193   1.440   2.421   0.565  0.3331  0.4940 -0.0331
   65SOL    HW1  194   1.452   2.460   0.472 -1.4205  1.2419 -1.2535
   65SOL    HW2  195   1.531   2.390   0.602  0.5210  0.0185 -0.5462
   66SOL     OW  196   0.480   1.267   1.919  0.0904  0.1683 -0.2635
   66SOL    HW1  197   0.520   1.311   2.003 -1.4575 -0.4068 -0.4643
   66SOL    HW2  198   0.405   1.200   1.936 -2.6928 -1.9058  3.2151
   67SOL     OW  199   2.304   0.058   2.293  0.0614  0.1145  0.2160
   67SOL    HW1  200   2.321   0.117   2.211 -0.8138  1.0488  1.1591
   67SOL    HW2  201   2.349   0.093   2.383 -2.0741  0.7447  3.5172
   68SOL     OW  202   0.696   1.140   1.287  0.2799 -0.1417 -0.2421
   68SOL    HW1  203   0.742   1.167   1.374  2.2130 -0.3435  0.8528
   68SOL    HW2  204   0.617   1.082   1.311  2.9138  2.7343 -0.0479
   69SOL     OW  205   1.754   2.775   0.317  0.2772 -0.0787 -0.4204
   69SOL    HW1  206   1.706   2.854   0.358 -0.1751  0.7716  0.5843
   69SOL    HW2  207   1.811   2.722   0.382  1.4237 -1.1086  1.9924
   70SOL     OW  208   2.842   0.996   2.319 -0.4371  0.1098 -0.3238
   70SOL    HW1  209   2.919   0.956   2.378  0.8314 -0.1209  3.4694
   70SOL    HW2  210   2.769   0.930   2.301 -0.9616 -1.7057 -3.0742
   71SOL     OW  211   2.996   1.517   3.039  0.1858 -0.1186  0.6404
   71SOL    HW1  212   2.955   1.447   2.973  1.3861 -0.9656  1.3765
   71SOL    HW2  213   3.073   1.569   2.998  2.4992 -0.0602  0.2416
   72SOL     OW  214   3.006   1.974   0.278  0.3512  0.1630 -0.3545
   72SOL    HW1  215   2.913   1.946   0.304  0.9556  2.0854 -1.3654
   72SOL    HW2  216   3.065   1.991   0.361 -0.2194  1.4036  1.1350
   73SOL     OW  217   0.864   1.584   0.460 -0.6089 -0.2453  0.2190
   73SOL    HW1  218   0.885   1.531   0.545  2.6606 -2.2357  3.1271
   73SOL    HW2  219   0.822   1.522   0.388 -0.9734  0.1146  0.3167
   74SOL     OW  220   0.383   1.911   1.945 -0.8031  0.0123  0.0553
   74SOL    HW1  221   0.316   1.889   2.018 -0.6813  0.0755 -3.0014
   74SOL    HW2  222   0.473   1.956   1.976  3.0646  1.4920 -0.9535
   75SOL     OW  223   1.706   1.366   1.717  0.0155  0.2092 -0.0413
   75SOL    HW1  224   1.713   1.278   1.770  0.4006 -4.2983  0.4352
   75SOL    HW2  225   1.766   1.442   1.760 -0.2889  1.0130  3.1046
   76SOL     OW  226   2.063   2.583   1.397 -0.7465  0.0454  0.3274
   76SOL    HW1  227   2.137   2.516   1.404 -1.5784  1.4964  0.4445
   76SOL    HW2  228   2.083   2.670   1.448  0.4450  0.4440  0.8754
   77SOL     OW  229   2.730   1.003   1.225 -0.0418  0.2322 -0.3303
   77SOL    HW1  230   2.823   1.000   1.265  1.8131  1.5727 -2.2498
   77SOL    HW2  231   2.688   0.913   1.237  0.2491  0.1547  0.3300
   78SOL     OW  232   1.282   0.941   0.560 -0.2130 -0.5620 -0.2956
   78SOL    HW1  233   1.319   1.034   0.534 -0.1859  1.8293 -0.1122
   78SOL    HW2  234   1.357   0.873   0.575 -0.4840 -2.2923  2.1879
   79SOL     OW  235   2.681   1.401   1.701  0.0592 -0.0676 -0.2400
   79SOL    HW1  236   2.705   1.319   1.748  1.1363  0.8706 -2.9311
   79SOL    HW2  237   2.697   1.393   1.602 -1.1785  0.5604 -0.4551
   80SOL     OW  238   0.880   0.592   1.563 -0.7775  0.5459 -0.2599
   80SOL    HW1  239   0.852   0.597   1.465 -0.0190  0.4871  0.0422
   80SOL    HW2  240   0.956   0.523   1.564  1.5817  1.4600  0.2915
   81SOL     OW  241   0.991   2.865   0.742  0.3303  0.7659 -0.2603
   81SOL    HW1  242   1.058   2.812   0.685  0.5228 -2.6937  2.7978
   81SOL    HW2  243   1.000   2.967   0.736  1.7927  0.7921 -0.6579
   82SOL     OW  244   1.393   0.103   1.532 -0.1457  0.6408  0.4637
   82SOL    HW1  245   1.466   0.074   1.465 -0.3802 -0.7505  0.3708
   82SOL    HW2  246   1.309   0.049   1.515  0.0349 -0.5017  2.8398
   83SOL     OW  247   1.258   2.025   0.785 -0.3331 -0.2474 -0.0624
   83SOL    HW1  248   1.294   2.090   0.860 -1.2159  2.2955  3.0080
   83SOL    HW2  249   1.159   2.018   0.790  0.1838 -0.3806 -0.1093
   84SOL     OW  250   0.409   1.688   2.680  0.5320  0.1914  0.3328
   84SOL    HW1  251   0.354   1.608   2.652  1.6721  0.6377  0.6847
   84SOL    HW2  252   0.507   1.661   2.701  1.2350  1.5286  0.8855
   85SOL     OW  253   0.259   2.457   1.283  0.4119 -0.4536  0.2264
   85SOL    HW1  254   0.155   2.452   1.265 -2.5043  1.0732  2.1212
   85SOL    HW2  255   0.280   2.429   1.378  0.6557  0.0057 -1.0578
   86SOL     OW  256   2.508   2.603   1.432  0.1490  0.0936 -0.0260
   86SOL    HW1  257   2.583   2.541   1.414 -1.3898 -1.2276  2.8321
   86SOL    HW2  258   2.479   2.608   1.531 -0.4261  0.8428  0.6130
   87SOL     OW  259   0.118   1.976   0.473 -0.1323 -0.1839  0.1842
   87SOL    HW1  260   0.167   1.891   0.446 -1.6888  0.2837 -1.0138
   87SOL    HW2  261   0.162   2.032   0.542 -0.3470 -2.7101  0.1558
   88SOL     OW  262   0.784   1.459   1.425  0.5212  0.1963  0.3040
   88SOL    HW1  263   0.780   1.358   1.442  0.1385  1.6685 -1.7672
   88SOL    HW2  264   0.819   1.474   1.331 -1.1462 -1.5407 -0.3938
   89SOL     OW  265   1.128   2.884   2.011  0.2274  0.5706 -0.0312
   89SOL    HW1  266   1.093   2.975   2.035  1.7084  1.8709  0.9344
   89SOL    HW2  267   1.100   2.811   2.078 -0.4108  3.1292 -1.5889
   90SOL     OW  268   2.940   1.707   1.283 -0.4123 -0.3025 -0.2137
   90SOL    HW1  269   2.959   1.701   1.383  0.5296  1.3813  1.5372
   90SOL    HW2  270   2.859   1.655   1.256 -2.0262  0.7353  2.7250
   91SOL     OW  271   1.285   1.794   1.056 -0.1444 -0.5279  0.2865
   91SOL    HW1  272   1.184   1.760   1.073 -2.1720  0.0467  0.2583
   91SOL    HW2  273   1.293   1.888   1.095  2.0132 -1.4821 -0.2601
   92SOL     OW  274   2.457   2.560   1.702  0.3201  0.2931 -0.1730
   92SOL    HW1  275   2.364   2.539   1.732  2.1312 -0.7590 -1.2394
   92SOL    HW2  276   2.532   2.500   1.746  0.9124 -0.1637  3.6687
   93SOL     OW  277   2.816   1.528   2.672  0.1084  0.1834  0.2193
   93SOL    HW1  278   2.758   1.495   2.597 -2.7808 -1.4444  1.7985
   93SOL    HW2  279   2.832   1.452   2.739 -0.0830 -1.2723  0.4229
   94SOL     OW  280   2.682   3.023   2.221  0.3958 -1.1352  0.2778
   94SOL    HW1  281   2.704   0.014   2.241 -0.5338  1.4949  1.0746
   94SOL    HW2  282   2.713   3.001   2.124  1.6925  1.1375  2.8792
   95SOL     OW  283   1.435   0.383   1.873 -0.0878 -0.2279 -0.0130
   95SOL    HW1  284   1.505   0.310   1.897 -0.7914  0.1147 -1.1647
   95SOL    HW2  285   1.467   0.474   1.902 -3.1762 -0.4745 -1.3012
   96SOL     OW  286   2.859   0.300   1.707 -0.6675  0.0709 -0.8501
   96SOL    HW1  287   2.788   0.345   1.649 -0.2091  2.0848  1.3487
   96SOL    HW2  288   2.888   0.362   1.785  0.3503  0.2962  0.2801
   97SOL     OW  289   1.982   0.343   1.555  0.0800  0.7868  0.2721
   97SOL    HW1  290   1.988   0.419   1.482 -0.3664 -1.6548 -2.3230
   97SOL    HW2  291   2.063   0.342   1.614  0.5042  1.0485 -2.3858
   98SOL     OW  292   1.803   2.480   1.404  0.1703 -0.7607 -0.1323
   98SOL    HW1  293   1.900   2.516   1.398 -2.5522 -0.0699  2.0719
   98SOL    HW2  294   1.765   2.511   1.497 -2.5102  0.5883  0.9627
   99SOL     OW  295   2.935   0.047   1.751 -0.4149  0.1942 -0.3735
   99SOL    HW1  296   2.919   0.149   1.739 -1.8077  2.6681 -1.0905
   99SOL    HW2  297   2.989   0.010   1.676 -1.0580  0.7482  2.0097
  100SOL     OW  298   2.692   1.181   2.006  0.4399 -0.2758  0.1243
  100SOL    HW1  299   2.726   1.257   2.064  1.1672 -0.3240 -0.2105
  100SOL    HW2  300   2.776   1.140   1.962 -1.1486 -0.2468  0.1491
  101SOL     OW  301   1.401   0.553   0.808 -0.3840  0.3099 -0.1103
  101SOL    HW1  302   1.465   0.497   0.864  2.4669 -0.6058 -0.3554
  101SOL    HW2  303   1.412   0.651   0.843  0.4991  2.8821  1.6068
  102SOL     OW  304   0.515   0.941   1.395 -0.0848 -0.0834 -0.5656
  102SOL    HW1  305   0.428   0.998   1.390 -0.6456 -2.4066  3.0499
  102SOL    HW2  306   0.494   0.859   1.451 -0.3976  0.0127 -1.3930
  103SOL     OW  307   2.328   0.691   0.045 -0.5028 -0.3955 -0.0400
  103SOL    HW1  308   2.245   0.725   0.098  1.3736  0.9789 -1.5704
  103SOL    HW2  309   2.396   0.652   0.106 -1.8270  2.4041 -5.1343
  104SOL     OW  310   0.057   0.215   2.027 -0.1773  0.2285  0.2659
  104SOL    HW1  311   0.062   0.121   1.982 -1.0693  1.6335 -0.5510
  104SOL    HW2  312   3.063   0.231   2.054 -2.7025  2.7484 -2.7046
  105SOL     OW  313   1.979   0.820   1.872 -0.8357 -0.6231 -0.3055
  105SOL    HW1  314   1.901   0.886   1.858 -2.8375 -0.0907  2.0876
  105SOL    HW2  315   2.059   0.836   1.812  3.7155  0.3267 -2.1036
  106SOL     OW  316   1.823   3.054   0.942  0.0514 -0.5253 -0.0253
  106SOL    HW1  317   1.842   2.990   1.016  0.0983  1.8862 -1.9336
  106SOL    HW2  318   1.767   3.015   0.864  1.3827  2.4941 -2.5536
  107SOL     OW  319   0.392   1.079   0.723 -0.1591 -0.1947  0.1067
  107SOL    HW1  320   0.392   1.056   0.623 -0.3985 -0.0185  1.4516
  107SOL    HW2  321   0.351   1.172   0.738  0.6009 -0.3637  1.4368
  108SOL     OW  322   2.907   0.259   2.090 -0.4067  0.0398  0.2480
  108SOL    HW1  323   2.846   0.312   2.035  3.9225  0.4262 -0.8444
  108SOL    HW2  324   2.864   0.180   2.137  0.0218 -0.1441 -2.1117
  109SOL     OW  325   2.394   0.386   0.703  0.1150 -0.0111 -0.3295
  109SOL    HW1  326   2.338   0.384   0.621 -0.6410  0.0115 -0.9394
  109SOL    HW2  327   2.388   0.304   0.761  0.5569  1.7537  0.4785
  110SOL     OW  328   0.473   2.472   2.744  0.2376  0.2037 -0.6792
  110SOL    HW1  329   0.384   2.425   2.723  0.5228 -2.0384 -0.4932
  110SOL    HW2  330   0.545   2.438   2.686 -3.1845  0.9613 -1.1278
  111SOL     OW  331   1.835   3.039   2.096  0.6059 -0.0166  0.0522
  111SOL    HW1  332   1.877   0.029   2.099 -0.1042  0.1287  3.7424
  111SOL    HW2  333   1.847   2.996   2.002 -0.8864 -0.5831 -0.8406
  112SOL     OW  334   2.073   2.614   0.206  0.2191 -0.0479 -0.3164
  112SOL    HW1  335   2.073   2.666   0.118 -1.1514 -2.7371 -2.3092
  112SOL    HW2  336   2.172   2.591   0.223  0.1244  1.9415  0.9773
  113SOL     OW  337   2.339   2.289   1.572  0.4628  0.4097 -0.1535
  113SOL    HW1  338   2.440   2.292   1.568  0.8583 -0.5883  0.5430
  113SOL    HW2  339   2.304   2.333   1.657 -1.5246  0.8804  1.3845
  114SOL     OW  340   2.763   1.098   0.916  0.3560  0.1531 -0.4663
  114SOL    HW1  341   2.673   1.108   0.863  1.2652 -0.6248 -0.3392
  114SOL    HW2  342   2.821   1.018   0.888  3.9112  1.3931 -0.4569
  115SOL     OW  343   2.931   1.725   0.105 -0.1127  0.3571  0.4106
  115SOL    HW1  344   2.951   1.686   0.195 -3.3012  1.0513  0.9273
  115SOL    HW2  345   2.947   1.660   0.024 -0.3111 -1.3215 -0.6769
  116SOL     OW  346   0.015   1.342   2.257 -0.3270 -0.3776 -0.1330
  116SOL    HW1  347   3.098   1.246   2.267 -1.3025  0.3492  2.2682
  116SOL    HW2  348   0.023   1.365   2.160  0.2434  1.0326  0.1581
  117SOL     OW  349   2.528   2.990   0.841  0.4064  0.0662 -0.3403
  117SOL    HW1  350   2.430   2.979   0.836 -0.3212  0.1181  2.5781
  117SOL    HW2  351   2.574   2.996   0.747  0.8287  0.9571  1.6137
  118SOL     OW  352   0.309   2.109   1.482 -0.0250  0.1483 -0.2954
  118SOL    HW1  353   0.373   2.096   1.559 -0.6504  2.4007  0.7095
  118SOL    HW2  354   0.295   2.208   1.475  2.6691 -1.6327  1.3173
  119SOL     OW  355   1.815   2.128   0.486  0.3099  0.9391 -0.0186
  119SOL    HW1  356   1.745   2.052   0.506 -2.3139 -3.4220  3.1146
  119SOL    HW2  357   1.909   2.108   0.507 -2.1373 -1.5363  0.2413
  120SOL     OW  358   0.114   2.028   2.399 -0.1425 -0.4963 -0.1766
  120SOL    HW1  359   0.179   1.952   2.403 -0.0293  1.3359  3.7393
  120SOL    HW2  360   0.025   1.986   2.383  2.9421 -0.1770  1.2352
  121SOL     OW  361   2.306   2.038   1.308 -0.0430  0.3604  0.2779
  121SOL    HW1  362   2.239   2.099   1.266 -0.1608 -0.3730  2.6677
  121SOL    HW2  363   2.339   1.986   1.229 -2.7604  1.3744  1.4189
  122SOL     OW  364   2.196   1.326   2.215  0.5306 -0.5062 -0.1564
  122SOL    HW1  365   2.235   1.265   2.286 -0.3751  1.2210  0.8441
  122SOL    HW2  366   2.261   1.365   2.149 -2.3434 -0.7260 -0.1858
  123SOL     OW  367   0.118   2.897   0.625 -0.0319  0.1313 -0.3488
  123SOL    HW1  368   0.031   2.920   0.578 -1.6575  0.4356 -1.2550
  123SOL    HW2  369   0.105   2.856   0.715 -1.3538  0.7913 -1.5133
  124SOL     OW  370   1.776   0.683   2.625 -0.2356 -0.1768  0.0338
  124SOL    HW1  371   1.795   0.781   2.615  0.9618  4.4339 -0.6006
  124SOL    HW2  372   1.693   0.670   2.577  2.2089 -0.2593  1.4069
  125SOL     OW  373   0.594   1.443   2.856  0.3983 -0.0106 -0.6546
  125SOL    HW1  374   0.638   1.526   2.824  0.1238 -1.0509  0.3425
  125SOL    HW2  375   0.584   1.438   2.961  2.1433 -1.0418  2.4724
  126SOL     OW  376   2.743   1.922   0.132  0.2664 -0.2919  0.0101
  126SOL    HW1  377   2.749   2.016   0.090  0.3239 -1.1811 -0.3442
  126SOL    HW2  378   2.827   1.869   0.110  2.2516  0.6395 -0.5446
  127SOL     OW  379   0.555   1.806   1.174  0.0221 -0.3070  0.1334
  127SOL    HW1  380   0.518   1.893   1.150  0.9242 -2.0590  3.6723
  127SOL    HW2  381   0.532   1.787   1.271 -0.7678  0.6783 -1.3127
  128SOL     OW  382   0.984   0.797   0.132  0.0620 -0.3121  0.4676
  128SOL    HW1  383   1.041   0.757   0.056 -2.0905  1.5366 -0.3565
  128SOL    HW2  384   1.031   0.793   0.223  0.9059  1.8622 -1.6326
  129SOL     OW  385   2.187   1.370   0.874  0.1208 -0.0551  0.1002
  129SOL    HW1  386   2.110   1.374   0.806  1.5234 -1.5876  0.3833
  129SOL    HW2  387   2.279   1.382   0.832 -3.8660 -0.4842  2.0805
  130SOL     OW  388   2.204   1.686   0.864 -0.4101  0.1153  0.7361
  130SOL    HW1  389   2.119   1.686   0.921  0.6809  0.4962 -0.2504
  130SOL    HW2  390   2.288   1.655   0.917 -2.3019 -2.8994  1.6552
  131SOL     OW  391   2.777   1.057   2.728  0.5034 -0.2759  0.4650
  131SOL    HW1  392   2.719   1.044   2.812  0.4934 -0.4788  1.8334
  131SOL    HW2  393   2.864   1.086   2.760 -3.2862  1.1128  1.3428
  132SOL     OW  394   2.519   1.798   1.867 -0.2622  0.4154  0.0491
  132SOL    HW1  395   2.547   1.894   1.859 -0.3871 -0.3444  4.4635
  132SOL    HW2  396   2.599   1.741   1.904  2.8736 -1.4005 -1.1780
  133SOL     OW  397   3.080   0.867   0.023 -0.5246  0.5731 -0.1614
  133SOL    HW1  398   3.089   0.828   0.116  0.7301  1.8313 -1.5389
  133SOL    HW2  399   0.060   0.853   3.073  0.0784 -0.8989 -1.2369
  134SOL     OW  400   0.372   1.086   0.007 -0.1339  0.0387  0.4957
  134SOL    HW1  401   0.392   1.165   0.070  0.6696  2.9391  2.0154
  134SOL    HW2  402   0.434   1.088   3.029 -1.4098  1.8091 -0.1476
  135SOL     OW  403   2.344   1.705   0.594 -0.5181  0.6281 -0.2947
  135SOL    HW1  404   2.285   1.729   0.678 -0.1736 -1.3415  0.8998
  135SOL    HW2  405   2.320   1.769   0.522  1.1669 -3.3763  0.9419
  136SOL     OW  406   1.890   1.432   1.369  0.8914 -0.3074  0.4369
  136SOL    HW1  407   1.877   1.356   1.435  0.8421  1.2095  0.4357
  136SOL    HW2  408   1.943   1.386   1.297 -1.3485  0.8522 -1.6980
  137SOL     OW  409   2.617   1.705   0.752 -1.6521 -0.2566  0.3053
  137SOL    HW1  410   2.678   1.789   0.756 -0.0012 -1.0262  0.2589
  137SOL    HW2  411   2.566   1.708   0.666  0.8034  2.1653  3.1709
  138SOL     OW  412   1.176   0.338   1.306  0.1933  0.2506  1.0424
  138SOL    HW1  413   1.149   0.407   1.235  1.4759 -0.8496  0.0387
  138SOL    HW2  414   1.276   0.320   1.300  0.0151  1.9442  1.4974
  139SOL     OW  415   2.320   3.086   0.282 -0.0749  0.3593 -0.0185
  139SOL    HW1  416   2.313   0.036   0.199  3.0934 -1.0388 -1.0747
  139SOL    HW2  417   2.320   0.036   0.368 -2.8349  0.3791  0.7634
  140SOL     OW  418   1.450   2.035   2.817 -0.2400  0.5476  0.2925
  140SOL    HW1  419   1.351   2.024   2.841  3.2579 -0.1306  2.3573
  140SOL    HW2  420   1.483   2.131   2.811 -0.6579  0.1820  2.6753
  141SOL     OW  421   0.843   1.185   1.526 -0.2022 -0.2018 -0.2684
  141SOL    HW1  422   0.801   1.197   1.615  2.8987  0.7738 -0.6360
  141SOL    HW2  423   0.904   1.107   1.521 -1.9813  0.4738 -1.0954
  142SOL     OW  424   2.590   0.166   0.138  0.1642 -0.3348 -0.3489
  142SOL    HW1  425   2.595   0.117   0.227  1.2646 -1.0068  1.0739
  142SOL    HW2  426   2.670   0.144   0.080 -0.7930  1.0962  1.4457
  143SOL     OW  427   0.773   2.489   3.040  0.1209 -0.6039  0.1022
  143SOL    HW1  428   0.778   2.484   0.038  1.8205 -1.0978 -1.1791
  143SOL    HW2  429   0.816   2.582   3.015  1.5471  4.8554 -0.3641
  144SOL     OW  430   1.209   2.755   2.608  0.3377 -0.2695 -0.4458
  144SOL    HW1  431   1.215   2.701   2.696 -0.8427  1.0863 -0.4562
  144SOL    HW2  432   1.188   2.851   2.644 -1.5748  0.9766  0.8924
  145SOL     OW  433   2.373   1.533   3.082  0.5207 -0.1660 -0.1689
  145SOL    HW1  434   2.435   1.614   3.094 -0.6167  0.0143  0.7541
  145SOL    HW2  435   2.277   1.566   3.074  1.6653  1.3725 -1.0391
  146SOL     OW  436   2.778   2.852   0.022 -0.1551 -0.0191 -0.2404
  146SOL    HW1  437   2.810   2.909   0.102  3.3148  1.1005  2.3058
  146SOL    HW2  438   2.848   2.787   3.088  1.6532 -0.5027 -0.2974
  147SOL     OW  439   2.730   2.444   1.091  0.6490  0.0884 -0.0739
  147SOL    HW1  440   2.647   2.483   1.136  1.7899  0.7102 -0.5264
  147SOL    HW2  441   2.740   2.464   0.990 -0.1649  1.9189 -1.2832
  148SOL     OW  442   1.701   0.248   0.102  0.3775 -0.9240  0.0366
  148SOL    HW1  443   1.755   0.335   0.112  2.3724  0.0479 -0.8737
  148SOL    HW2  444   1.599   0.268   0.081 -1.4245  0.9237 -0.5085
  149SOL     OW  445   1.061   1.475   2.775 -0.1347 -0.7053  0.2610
  149SOL    HW1  446   1.134   1.409   2.771 -1.6666  1.7266 -1.8952
  149SOL    HW2  447   1.008   1.459   2.688 -0.5770 -2.2430  0.7321
  150SOL     OW  448   0.856   2.487   0.710  0.1549 -0.1912  0.1291
  150SOL    HW1  449   0.928   2.530   0.647 -0.5981  0.0111  0.2250
  150SOL    HW2  450   0.876   2.387   0.723 -1.6472  2.2880  0.0981
  151SOL     OW  451   0.577   1.950   2.924 -0.6320  0.3692  0.3331
  151SOL    HW1  452   0.570   1.939   2.824 -0.4519  1.1560  1.6406
  151SOL    HW2  453   0.538   1.873   2.973 -2.2808  3.0039  0.1188
  152SOL     OW  454   2.744   0.997   0.328 -0.0124  0.3403  0.5729
  152SOL    HW1  455   2.672   1.011   0.401  1.5670 -0.0896 -0.6547
  152SOL    HW2  456   2.817   0.941   0.375 -0.8301  1.9802  2.4598
  153SOL     OW  457   2.326   2.557   0.205 -0.2227 -0.1984 -0.2514
  153SOL    HW1  458   2.399   2.534   0.275 -0.7746  1.2372  0.9101
  153SOL    HW2  459   2.362   2.635   0.147 -0.7847 -1.5877  0.0835
  154SOL     OW  460   0.649   3.041   1.173 -0.0671  0.3492  0.0948
  154SOL    HW1  461   0.573   3.057   1.239  1.1501  0.8552 -1.9282
  154SOL    HW2  462   0.620   3.062   1.079  0.2990 -0.3418 -2.4413
  155SOL     OW  463   0.508   2.098   1.239  0.1947  0.2644 -0.2572
  155SOL    HW1  464   0.466   2.171   1.178  0.5402 -1.2471  1.0339
  155SOL    HW2  465   0.451   2.083   1.326 -1.3632  0.0057  1.9948
  156SOL     OW  466   2.502   2.329   3.068  0.2064  0.0683  0.2534
  156SOL    HW1  467   2.514   2.239   3.016  2.2450 -0.3518 -0.1529
  156SOL    HW2  468   2.590   2.383   3.065 -0.8944  3.3767  2.1456
  157SOL     OW  469   1.054   2.081   1.161  0.0980  0.1052  0.3416
  157SOL    HW1  470   1.026   2.163   1.113  0.6918  0.9365  1.0067
  157SOL    HW2  471   0.966   2.029   1.177  2.1925  2.0092 -0.4600
  158SOL     OW  472   1.631   0.720   2.917  1.0318 -0.1947  0.4405
  158SOL    HW1  473   1.665   0.626   2.898 -0.2716 -1.3381 -2.6851
  158SOL    HW2  474   1.598   0.769   2.831 -0.7676 -0.5096 -1.6071
  159SOL     OW  475   1.168   0.543   2.600  0.4909 -0.0618  0.3073
  159SOL    HW1  476   1.081   0.534   2.655  0.2804 -1.7101 -0.2770
  159SOL    HW2  477   1.179   0.471   2.527 -0.0720 -2.8113  0.2675
  160SOL     OW  478   1.273   1.811   0.439  0.6504 -0.2170 -0.7896
  160SOL    HW1  479   1.300   1.901   0.456 -3.2463 -2.9820 -0.2154
  160SOL    HW2  480   1.173   1.799   0.449  1.8701  2.7431 -0.5578
  161SOL     OW  481   3.101   2.263   3.031  0.4272 -0.3399 -0.7217
  161SOL    HW1  482   0.080   2.217   3.004 -1.4037 -1.6475 -0.2552
  161SOL    HW2  483   3.085   2.262   0.025 -0.9606  1.3610  3.2554
  162SOL     OW  484   0.713   2.666   1.068 -0.1095 -0.3894  0.1826
  162SOL    HW1  485   0.790   2.660   1.005 -0.7023 -1.9193  1.1307
  162SOL    HW2  486   0.740   2.689   1.162 -1.9055 -2.5834 -1.3792
  163SOL     OW  487   2.662   0.958   2.972  0.3257 -0.1121  0.2454
  163SOL    HW1  488   2.570   0.914   2.959  3.7251 -0.7958 -0.2497
  163SOL    HW2  489   2.736   0.892   3.000 -0.5852 -1.1178  3.8019
  164SOL     OW  490   0.197   2.731   3.066  0.7392  0.0120  0.3406
  164SOL    HW1  491   0.201   2.711   0.059 -1.0708  0.3048  2.7117
  164SOL    HW2  492   0.148   2.659   3.011  0.1006  0.9456 -0.3338
  165SOL     OW  493   2.317   0.391   1.457  0.2226  0.0094  0.1981
  165SOL    HW1  494   2.287   0.338   1.541 -2.6129 -1.2655 -0.3977
  165SOL    HW2  495   2.241   0.379   1.388 -1.6758  2.5386  1.5560
  166SOL     OW  496   1.859   0.255   1.210 -0.2988  0.1574  0.2536
  166SOL    HW1  497   1.929   0.287   1.140  0.3387  1.3134 -2.1527
  166SOL    HW2  498   1.773   0.229   1.162  0.1236  0.9485 -0.7571
  167SOL     OW  499   0.889   0.441   1.888  0.9425  0.4513 -0.0474
  167SOL    HW1  500   0.885   0.538   1.859  0.1090  1.8740 -1.0753
  167SOL    HW2  501   0.894   0.431   1.991  1.5067  0.1906  1.5175
  168SOL     OW  502   2.686   0.373   1.950 -0.2149  0.1427  0.2201
  168SOL    HW1  503   2.627   0.359   2.033  0.6817 -0.7479  0.3254
  168SOL    HW2  504   2.624   0.362   1.869  1.0469 -0.4364 -0.3674
  169SOL     OW  505   0.248   1.260   0.345  0.4369  0.7096  0.0731
  169SOL    HW1  506   0.226   1.337   0.280  0.7176  0.3245 -0.2098
  169SOL    HW2  507   0.167   1.207   0.370 -0.9695 -1.4316 -1.0366
  170SOL     OW  508   0.120   0.934   1.780 -0.1737  0.1229 -0.4329
  170SOL    HW1  509   0.147   0.962   1.687  0.3216  1.5192  5.0996
  170SOL    HW2  510   0.020   0.902   1.785 -0.8756 -0.7980  1.9807
  171SOL     OW  511   1.174   1.882   1.779  0.1262 -0.5525 -0.3243
  171SOL    HW1  512   1.145   1.861   1.880 -0.9534 -0.8597  1.0098
  171SOL    HW2  513   1.090   1.898   1.718  0.8324  1.0770  2.0674
  172SOL     OW  514   0.556   2.474   1.617  0.6183  0.5368 -0.0822
  172SOL    HW1  515   0.571   2.574   1.634  0.9634 -1.7823  1.8731
  172SOL    HW2  516   0.616   2.447   1.542 -1.5035 -0.7084  1.6655
  173SOL     OW  517   1.212   2.774   0.584 -0.1897 -0.3092  0.1826
  173SOL    HW1  518   1.291   2.835   0.564 -0.7944 -0.1032 -0.9096
  173SOL    HW2  519   1.238   2.707   0.655  0.5505  0.5377 -0.4878
  174SOL     OW  520   0.882   2.710   0.310 -0.9817  0.3683  0.1444
  174SOL    HW1  521   0.837   2.798   0.327 -2.4799 -1.6172 -0.7595
  174SOL    HW2  522   0.974   2.717   0.259  2.7273 -0.9605 -0.3969
  175SOL     OW  523   1.192   1.034   3.029  0.6689 -0.1360  0.4155
  175SOL    HW1  524   1.250   1.022   0.005  0.3761 -0.3514  1.9849
  175SOL    HW2  525   1.105   1.078   3.054  2.3783  0.7533 -1.0695
  176SOL     OW  526   1.539   0.591   0.334  0.1993 -0.1680  0.6039
  176SOL    HW1  527   1.480   0.639   0.265  0.1955  3.2179  2.2603
  176SOL    HW2  528   1.514   0.618   0.429 -0.5070  0.8031 -0.8080
  177SOL     OW  529   1.378   1.255   0.776 -0.3071 -0.3487  0.0184
  177SOL    HW1  530   1.350   1.352   0.758 -0.3927 -0.6285  0.1940
  177SOL    HW2  531   1.480   1.239   0.764  1.9960 -0.8571 -0.2673
  178SOL     OW  532   2.776   1.793   2.670  0.1743  0.1325  0.2632
  178SOL    HW1  533   2.778   1.690   2.676  0.6744 -0.9292  0.2725
  178SOL    HW2  534   2.808   1.828   2.580 -1.2018 -1.3921 -0.8936
  179SOL     OW  535   0.578   3.097   2.972 -0.4511  0.1790 -0.3031
  179SOL    HW1  536   0.558   3.011   3.019  0.2845  2.6993  0.5169
  179SOL    HW2  537   0.667   0.028   2.995 -2.1548 -3.5123  0.5992
  180SOL     OW  538   1.664   1.570   1.295  0.1580 -0.2491  0.1026
  180SOL    HW1  539   1.743   1.516   1.331 -0.0855 -0.3992  0.5995
  180SOL    HW2  540   1.668   1.564   1.193  1.9540  0.9207  1.7272
  181SOL     OW  541   1.015   1.308   2.265 -0.1088 -0.3134 -0.4390
  181SOL    HW1  542   1.002   1.221   2.220 -2.0697  1.3208  3.6459
  181SOL    HW2  543   1.117   1.320   2.272 -0.6623  1.9693  4.2572
  182SOL     OW  544   2.759   0.773   2.730  0.0313 -0.2652  0.1801
  182SOL    HW1  545   2.774   0.868   2.697  2.2197 -1.7027  0.3319
  182SOL    HW2  546   2.763   0.763   2.833 -2.6134 -3.1737  0.9326
  183SOL     OW  547   1.743   0.067   2.384  0.0226  0.0438 -0.0698
  183SOL    HW1  548   1.689   0.073   2.472 -0.6758  1.4137  1.7834
  183SOL    HW2  549   1.700   3.098   2.328 -3.8728  3.4816  0.7381
  184SOL     OW  550   0.485   0.324   1.550 -0.2804 -0.0141  0.1802
  184SOL    HW1  551   0.489   0.412   1.599  2.1797  1.9138 -0.9329
  184SOL    HW2  552   0.579   0.301   1.515  3.3337 -0.9360 -0.4991
  185SOL     OW  553   2.436   1.412   0.760  0.5747  0.2313 -0.5391
  185SOL    HW1  554   2.418   1.512   0.750 -3.9417  1.9960  1.8360
  185SOL    HW2  555   2.524   1.391   0.810  0.5525 -1.1692  2.3879
  186SOL     OW  556   0.296   2.154   2.711  0.2798 -0.3320 -0.6053
  186SOL    HW1  557   0.247   2.221   2.653  3.3502  1.2657  0.3614
  186SOL    HW2  558   0.239   2.124   2.788  1.2898  0.2795 -1.4653
  187SOL     OW  559   2.534   1.762   0.023  0.3262 -0.0802  0.1339
  187SOL    HW1  560   2.620   1.794   0.074  0.6920 -0.5146  0.6972
  187SOL    HW2  561   2.467   1.841   0.023 -1.0853 -0.7931 -1.6706
  188SOL     OW  562   0.623   2.257   0.424 -0.2337  0.0661 -0.1940
  188SOL    HW1  563   0.678   2.175   0.451  0.4257  1.3786 -0.2366
  188SOL    HW2  564   0.522   2.234   0.419 -0.2212 -0.5937 -2.0059
  189SOL     OW  565   2.443   1.023   0.177  0.2240  0.0877  0.0648
  189SOL    HW1  566   2.476   0.927   0.183 -0.5938  2.4802 -3.2411
  189SOL    HW2  567   2.515   1.076   0.129 -0.3357 -0.0132 -3.8286
  190SOL     OW  568   1.156   1.634   2.120 -0.2184 -0.0368 -0.2764
  190SOL    HW1  569   1.116   1.729   2.101 -2.9819  0.7135  1.0801
  190SOL    HW2  570   1.118   1.558   2.052 -1.8482  1.9342 -1.2802
  191SOL     OW  571   2.722   0.459   1.512 -0.5932 -0.1434 -0.1139
  191SOL    HW1  572   2.771   0.525   1.458 -0.2606 -4.2827 -1.6130
  191SOL    HW2  573   2.656   0.408   1.451  0.6277 -0.5433  1.4374
  192SOL     OW  574   2.221   0.291   1.698 -0.6750  0.2629 -0.3808
  192SOL    HW1  575   2.190   0.196   1.706  1.7512  1.7962 -0.7458
  192SOL    HW2  576   2.180   0.348   1.773  1.3993  0.6243  3.3781
  193SOL     OW  577   0.256   0.734   0.519 -0.3294  0.1104 -0.0914
  193SOL    HW1  578   0.266   0.632   0.513  0.2003 -0.6496 -0.2868
  193SOL    HW2  579   0.333   0.770   0.578 -1.4005  0.3346  1.4690
  194SOL     OW  580   1.589   2.679   1.633 -0.1375 -0.4738  0.1401
  194SOL    HW1  581   1.664   2.612   1.652 -0.1289  1.2121  0.1953
  194SOL    HW2  582   1.523   2.671   1.706  1.6107  0.1639 -0.5107
  195SOL     OW  583   2.425   0.666   0.735  0.1687 -0.4530  0.0839
  195SOL    HW1  584   2.428   0.564   0.718 -1.2146  0.9245 -0.6270
  195SOL    HW2  585   2.328   0.695   0.721  0.1778  0.4090 -0.0068
  196SOL     OW  586   1.892   2.186   2.235 -0.1821  0.5652 -0.5446
  196SOL    HW1  587   1.884   2.120   2.316  0.0381  1.2918  1.5429
  196SOL    HW2  588   1.853   2.275   2.264  1.6792 -0.4703  0.2440
  197SOL     OW  589   0.381   0.148   0.129  0.1201  0.4059 -0.2335
  197SOL    HW1  590   0.372   0.107   0.219 -1.0733  0.7466 -1.6981
  197SOL    HW2  591   0.369   0.083   0.054 -0.1781 -0.2236  2.0141
  198SOL     OW  592   1.090   1.237   0.638 -0.1547 -0.3715 -0.2180
  198SOL    HW1  593   1.192   1.236   0.656  1.6652 -0.0464 -0.7957
  198SOL    HW2  594   1.028   1.190   0.700 -0.5270  0.2202  0.6245
  199SOL     OW  595   2.460   0.734   1.690 -0.0847  0.1304  0.0503
  199SOL    HW1  596   2.518   0.681   1.749 -2.2830  2.9018 -2.1798
  199SOL    HW2  597   2.519   0.810   1.657  1.5481  3.3978 -0.1826
  200SOL     OW  598   2.501   2.679   2.277 -0.3363 -0.7320 -0.0563
  200SOL    HW1  599   2.459   2.762   2.234 -0.7049  0.2928 -2.1626
  200SOL    HW2  600   2.479   2.674   2.376 -1.0746  1.6779 -0.6567
  201SOL     OW  601   2.791   3.066   1.282  0.5004 -0.3339 -0.1062
  201SOL    HW1  602   2.732   3.005   1.335  2.6812 -0.0137 -1.8972
  201SOL    HW2  603   2.760   3.085   1.188 -0.1912  1.7678  0.2438
  202SOL     OW  604   2.005   0.495   0.686 -0.0501 -0.0123  0.0159
  202SOL    HW1  605   1.927   0.558   0.707  0.1820  0.9159 -1.8356
  202SOL    HW2  606   1.979   0.405   0.711  0.5729  0.8526  0.8500
  203SOL     OW  607   1.647   1.781   2.125 -0.0760 -0.5441  0.0060
  203SOL    HW1  608   1.654   1.864   2.068  5.2087  2.2099 -0.1877
  203SOL    HW2  609   1.642   1.806   2.228 -0.0899 -2.8950  3.9268
  204SOL     OW  610   0.940   1.669   2.416 -0.2161 -0.3950 -0.5891
  204SOL    HW1  611   0.948   1.592   2.483  0.0112 -0.7764  4.5756
  204SOL    HW2  612   1.025   1.722   2.415 -2.4988 -2.0976 -2.1475
  205SOL     OW  613   0.806   1.801   1.389 -0.1948 -0.4597 -0.1019
  205SOL    HW1  614   0.870   1.724   1.383  2.1040 -0.0213 -0.8697
  205SOL    HW2  615   0.711   1.773   1.422  0.3263 -2.1966  0.5439
  206SOL     OW  616   2.864   0.521   3.001  0.1349  0.1777 -0.2210
  206SOL    HW1  617   2.903   0.464   2.922 -0.4984  0.0082 -3.3101
  206SOL    HW2  618   2.785   0.475   3.048  0.3669  0.2482  1.7639
  207SOL     OW  619   1.642   2.570   2.091 -0.3533  0.0405  0.7749
  207SOL    HW1  620   1.721   2.621   2.134  1.3919 -0.6091 -0.7776
  207SOL    HW2  621   1.674   2.478   2.065  1.2005  0.1375 -0.9595
  208SOL     OW  622   0.701   2.435   1.398 -0.3515  0.1816 -0.2816
  208SOL    HW1  623   0.719   2.534   1.379 -0.7165  0.4586 -0.5373
  208SOL    HW2  624   0.636   2.399   1.329 -1.6077  1.4713 -2.1106
  209SOL     OW  625   1.375   1.184   2.181  0.1066 -0.1652  0.2975
  209SOL    HW1  626   1.434   1.260   2.144  3.5432  0.2050  1.5872
  209SOL    HW2  627   1.324   1.214   2.264 -1.2051  0.0794  0.8091
  210SOL     OW  628   1.787   0.868   1.341 -0.2063  0.1849 -0.2651
  210SOL    HW1  629   1.869   0.888   1.285 -0.0806  0.5414 -0.7438
  210SOL    HW2  630   1.705   0.840   1.288 -1.5435 -0.9542 -0.0470
  211SOL     OW  631   0.738   2.847   0.584 -0.5754 -0.2021 -0.0024
  211SOL    HW1  632   0.714   2.923   0.513 -1.0046  3.7356 -1.6358
  211SOL    HW2  633   0.813   2.881   0.647 -1.0626 -1.9322  0.3990
  212SOL     OW  634   1.810   1.625   0.156 -0.1374 -0.4774  0.2311
  212SOL    HW1  635   1.818   1.709   0.100 -3.5375 -2.4796  0.4441
  212SOL    HW2  636   1.849   1.547   0.103 -0.4264  0.0802 -1.5041
  213SOL     OW  637   1.379   0.161   2.517 -0.1786 -0.2381 -0.0490
  213SOL    HW1  638   1.337   0.254   2.539  0.3576  0.1515 -1.0009
  213SOL    HW2  639   1.459   0.143   2.573 -2.2842 -1.9033 -0.1471
  214SOL     OW  640   1.421   1.650   2.006  0.0964  0.4232 -0.0810
  214SOL    HW1  641   1.490   1.720   2.033  0.1693 -2.3609 -1.4372
  214SOL    HW2  642   1.333   1.654   2.070 -0.6417  1.7004  4.1595
  215SOL     OW  643   0.705   1.812   0.195  0.4838 -0.1254  0.1821
  215SOL    HW1  644   0.766   1.891   0.179  0.1314 -0.7321 -1.3855
  215SOL    HW2  645   0.685   1.797   0.296 -0.1578 -1.3305  0.6947
  216SOL     OW  646   0.292   2.983   2.417  0.1174 -0.3408  0.3701
  216SOL    HW1  647   0.388   3.007   2.380 -1.1598  2.0425  0.9798
  216SOL    HW2  648   0.290   2.906   2.482 -1.1804  0.1298  0.6509
  217SOL     OW  649   2.293   1.118   0.826 -0.2575 -0.1277 -0.2408
  217SOL    HW1  650   2.255   1.205   0.858  0.7179 -0.5175  1.4352
  217SOL    HW2  651   2.227   1.064   0.767 -0.6916 -2.2763 -1.1823
  218SOL     OW  652   1.857   1.562   1.831 -0.0205 -0.1115 -0.0854
  218SOL    HW1  653   1.875   1.607   1.921  2.1199  1.1027 -2.1819
  218SOL    HW2  654   1.924   1.595   1.759 -1.2900 -0.6633  0.7849
  219SOL     OW  655   1.807   1.281   2.886  0.6814  0.4909  0.3141
  219SOL    HW1  656   1.861   1.309   2.803 -0.7248  2.0229  1.7658
  219SOL    HW2  657   1.705   1.286   2.875  1.9017 -1.8415 -1.9336
  220SOL     OW  658   1.394   1.536   1.025  0.2000  0.0923 -0.2365
  220SOL    HW1  659   1.357   1.624   1.067 -1.2905  4.1002 -0.8217
  220SOL    HW2  660   1.360   1.518   0.929 -0.4954 -0.2975  0.6902
  221SOL     OW  661   0.859   0.675   2.914  0.3798 -1.1491 -0.2104
  221SOL    HW1  662   0.822   0.772   2.906 -2.2626 -0.5632  1.8678
  221SOL    HW2  663   0.814   0.627   2.995  1.1318 -1.0658 -0.6321
  222SOL     OW  664   0.833   1.438   0.715 -0.2237  0.7337 -0.2441
  222SOL    HW1  665   0.892   1.362   0.746 -3.2139 -1.0614 -0.1052
  222SOL    HW2  666   0.750   1.400   0.660 -2.9374  0.9553 -2.1591
  223SOL     OW  667   0.936   2.947   2.849  0.4432  0.0123 -0.8704
  223SOL    HW1  668   1.023   2.984   2.804  0.7249  0.5507 -1.1080
  223SOL    HW2  669   0.909   3.002   2.931  1.5179 -0.2504 -0.8660
  224SOL     OW  670   2.542   0.287   1.377 -0.4837  0.9916 -0.5521
  224SOL    HW1  671   2.458   0.330   1.415  2.1981 -0.2701 -0.9869
  224SOL    HW2  672   2.536   0.184   1.374 -1.7765  0.0022  1.6715
  225SOL     OW  673   0.751   0.276   1.459  0.0983 -0.1969  0.0004
  225SOL    HW1  674   0.756   0.350   1.387  0.2028 -0.7719 -1.5077
  225SOL    HW2  675   0.839   0.274   1.505 -4.3479  1.0847 -1.1567
  226SOL     OW  676   1.501   1.590   2.898 -0.2749  0.0070 -0.1703
  226SOL    HW1  677   1.433   1.621   2.834 -2.7368 -1.1959  1.0026
  226SOL    HW2  678   1.471   1.607   2.996  0.5857 -1.7347  0.9278
  227SOL     OW  679   1.059   1.637   1.352  0.3636  0.2954 -0.0055
  227SOL    HW1  680   1.086   1.540   1.343  0.0293  1.7544  2.7327
  227SOL    HW2  681   1.129   1.695   1.401  2.9972  2.8566  0.1024
  228SOL     OW  682   0.459   1.626   0.618  0.0378 -0.4863 -0.1219
  228SOL    HW1  683   0.429   1.534   0.580  0.8152  2.7502  2.1914
  228SOL    HW2  684   0.460   1.609   0.723  1.1871  1.3758  4.0305
  229SOL     OW  685   1.208   0.397   0.049  0.0178  0.1600 -0.4267
  229SOL    HW1  686   1.203   0.474   3.087 -0.8234 -0.7548  1.3684
  229SOL    HW2  687   1.177   0.423   0.143  1.7433 -2.2124 -1.2884
  230SOL     OW  688   1.070   0.646   2.148  0.0459 -0.5198  0.0876
  230SOL    HW1  689   0.996   0.576   2.152  2.9116  1.4349  0.9720
  230SOL    HW2  690   1.157   0.601   2.129 -1.0016 -2.2215  1.8206
  231SOL     OW  691   1.121   1.882   2.477 -0.0073 -0.1490  0.5951
  231SOL    HW1  692   1.054   1.937   2.530  0.3154 -3.6546 -1.0725
  231SOL    HW2  693   1.200   1.942   2.453 -1.8545 -0.4662 -0.2837
  232SOL     OW  694   2.329   1.867   1.104 -0.2920 -0.5804 -0.1494
  232SOL    HW1  695   2.393   1.796   1.075 -2.7749  0.3398  3.3818
  232SOL    HW2  696   2.247   1.822   1.144  2.1020 -0.7036 -0.1596
  233SOL     OW  697   2.574   2.902   0.282  0.0770 -0.1459 -0.0092
  233SOL    HW1  698   2.490   2.940   0.324 -1.4410  0.6918  2.1006
  233SOL    HW2  699   2.553   2.874   0.187 -1.5801 -0.6060 -1.9411
  234SOL     OW  700   0.963   0.252   2.767  0.2019  0.0786 -0.6716
  234SOL    HW1  701   1.010   0.186   2.701  2.5410  0.1338 -1.9726
  234SOL    HW2  702   0.996   0.228   2.861  1.7392 -0.3182 -4.2275
  235SOL     OW  703   2.436   3.096   2.846 -0.4255  0.2510  0.1524
  235SOL    HW1  704   2.354   3.060   2.891  0.5645  0.4680  0.1884
  235SOL    HW2  705   2.452   3.025   2.779 -1.4533  0.6055  2.5968
  236SOL     OW  706   2.199   2.502   2.343 -0.1060 -0.3255 -0.0106
  236SOL    HW1  707   2.275   2.521   2.416  1.7664  0.2971  1.6983
  236SOL    HW2  708   2.110   2.475   2.385 -2.3303  1.9400  0.7414
  237SOL     OW  709   0.859   1.521   2.216  0.4899  0.5727 -0.0884
  237SOL    HW1  710   0.888   1.593   2.283  0.5713 -0.3583 -1.1341
  237SOL    HW2  711   0.904   1.429   2.240  0.9326 -1.9213  0.6725
  238SOL     OW  712   2.030   0.175   2.433 -0.3817  0.0825  0.2608
  238SOL    HW1  713   1.985   0.089   2.459 -0.1452  1.6711 -0.8379
  238SOL    HW2  714   2.109   0.193   2.494 -0.6816 -0.1574 -0.3725
  239SOL     OW  715   3.049   1.678   1.532  0.3361 -0.4397 -0.0553
  239SOL    HW1  716   0.047   1.684   1.523  1.5543 -3.5938 -2.1786
  239SOL    HW2  717   3.027   1.717   1.620  1.9950 -2.7119  1.2471
  240SOL     OW  718   2.913   2.627   0.622 -0.0163 -0.4269  0.0874
  240SOL    HW1  719   2.941   2.532   0.602 -1.4157  1.2119  0.9258
  240SOL    HW2  720   2.861   2.674   0.549  2.8803  1.2354 -1.4088
  241SOL     OW  721   1.975   1.370   0.706  0.3263  0.0589  0.0425
  241SOL    HW1  722   1.956   1.400   0.612 -1.6483 -0.1000  2.2431
  241SOL    HW2  723   1.942   1.274   0.723  0.6831  1.4409  1.6064
  242SOL     OW  724   1.425   1.871   2.626 -0.2779 -0.0834  0.2358
  242SOL    HW1  725   1.371   1.792   2.657 -0.5277  2.1934 -3.3731
  242SOL    HW2  726   1.438   1.935   2.703  0.5923 -2.6200 -2.8400
  243SOL     OW  727   0.665   2.722   1.933 -0.0004  0.3100  0.1695
  243SOL    HW1  728   0.673   2.806   1.992 -0.5398  2.5681 -0.2275
  243SOL    HW2  729   0.593   2.733   1.863  0.7032 -0.0004  0.1992
  244SOL     OW  730   2.007   0.033   2.788 -0.3056 -0.0319  0.3631
  244SOL    HW1  731   2.054   0.121   2.766 -1.5228 -0.3749 -2.2679
  244SOL    HW2  732   2.007   3.078   2.704 -0.4723 -1.4963 -4.0867
  245SOL     OW  733   1.461   2.797   0.871 -0.3190 -0.0067 -0.3789
  245SOL    HW1  734   1.430   2.867   0.935 -0.9287  0.3805  0.0340
  245SOL    HW2  735   1.395   2.721   0.853 -0.6271 -1.2633 -1.4965
  246SOL     OW  736   1.545   2.708   0.158  0.1627 -0.2180  0.4346
  246SOL    HW1  737   1.620   2.736   0.227  1.1931  1.7484  0.6908
  246SOL    HW2  738   1.592   2.681   0.070  1.8925  0.8467 -3.0035
  247SOL     OW  739   0.850   0.462   2.165 -0.0072 -0.0280 -0.1024
  247SOL    HW1  740   0.757   0.495   2.135 -0.6372 -1.1055  0.0774
  247SOL    HW2  741   0.843   0.413   2.254 -1.6699  0.0667  1.2882
  248SOL     OW  742   0.668   1.691   2.044 -0.4873 -0.3219 -0.0811
  248SOL    HW1  743   0.757   1.650   2.072  0.2117  3.3041  0.5289
  248SOL    HW2  744   0.682   1.779   1.996  0.5494  1.8389 -1.4028
  249SOL     OW  745   2.414   0.462   0.433  0.2616  0.0231 -0.4330
  249SOL    HW1  746   2.433   0.365   0.407 -0.1775 -0.0083  0.2014
  249SOL    HW2  747   2.316   0.479   0.423 -1.2489 -1.2162  2.6546
  250SOL     OW  748   0.515   0.246   0.892 -0.6038 -0.2209  0.0852
  250SOL    HW1  749   0.449   0.175   0.932 -0.2039 -0.3197  0.1493
  250SOL    HW2  750   0.586   0.194   0.842 -1.4005  1.9465  0.7577
  251SOL     OW  751   1.613   0.138   2.683  0.4991  0.2852 -0.4489
  251SOL    HW1  752   1.684   0.214   2.699  2.1444  0.7608 -0.2916
  251SOL    HW2  753   1.650   0.061   2.744  1.7081  0.0472 -1.3879
  252SOL     OW  754   1.898   1.642   2.108  0.3715 -0.0947  0.5155
  252SOL    HW1  755   1.907   1.546   2.135 -2.0151  1.0051  0.1846
  252SOL    HW2  756   1.801   1.666   2.111 -3.6340  1.8202 -0.9640
  253SOL     OW  757   2.649   2.409   1.800 -0.7694 -0.2275  0.0879
  253SOL    HW1  758   2.731   2.473   1.807  1.6079  2.5701  0.0433
  253SOL    HW2  759   2.661   2.336   1.731 -0.3561  0.8246  0.0158
  254SOL     OW  760   3.060   1.438   1.125  0.1504  0.5526 -0.3006
  254SOL    HW1  761   3.014   1.352   1.088  0.5724 -1.8633 -1.0728
  254SOL    HW2  762   3.083   1.424   1.225  2.5338  1.3025  2.0568
  255SOL     OW  763   0.789   0.837   1.336 -0.3778  0.3425 -0.0069
  255SOL    HW1  764   0.785   0.804   1.243 -0.4436  0.3245  1.7165
  255SOL    HW2  765   0.701   0.871   1.361  1.6531 -0.8398  0.9169
  256SOL     OW  766   1.772   2.502   1.697 -0.0585  0.5286 -0.0071
  256SOL    HW1  767   1.856   2.552   1.711 -2.1941 -1.7976  0.8162
  256SOL    HW2  768   1.763   2.434   1.772 -2.4505  1.6023 -0.3988
  257SOL     OW  769   0.552   2.715   2.783  0.0070  0.1069  0.3577
  257SOL    HW1  770   0.649   2.717   2.745  0.6164 -0.8030 -2.2912
  257SOL    HW2  771   0.515   2.619   2.791  0.5516 -1.5935 -1.3435
  258SOL     OW  772   0.796   2.474   0.232  0.4713  0.1889 -0.0107
  258SOL    HW1  773   0.716   2.443   0.283  0.6165  3.5467 -0.9642
  258SOL    HW2  774   0.822   2.565   0.264 -0.1900 -3.0467 -4.6251
  259SOL     OW  775   1.011   0.030   2.028  0.5054  0.1613 -0.0610
  259SOL    HW1  776   1.060   0.111   2.061 -2.2723  1.0691 -0.6824
  259SOL    HW2  777   0.925   0.062   1.982 -0.5857 -0.4776  2.5046
  260SOL     OW  778   1.697   0.647   1.167  0.1602 -0.2733 -0.4405
  260SOL    HW1  779   1.695   0.569   1.235 -0.9134 -2.2871  2.5127
  260SOL    HW2  780   1.608   0.705   1.172 -0.0324  4.9483  2.3006
  261SOL     OW  781   0.659   0.621   2.641 -0.6171 -0.4055  0.7364
  261SOL    HW1  782   0.606   0.589   2.723 -1.0438  0.7581  1.2128
  261SOL    HW2  783   0.752   0.593   2.657 -0.3413  0.9104  0.9916
  262SOL     OW  784   0.087   2.337   1.988  0.1121  0.7611  0.0160
  262SOL    HW1  785   0.073   2.425   2.043  1.0123 -0.4411  1.1590
  262SOL    HW2  786   0.140   2.268   2.044 -0.0965  1.5793 -0.6907
  263SOL     OW  787   3.063   1.626   2.257 -0.1095 -0.1619  0.1910
  263SOL    HW1  788   3.096   1.645   2.164 -0.4567 -0.1547  3.8580
  263SOL    HW2  789   3.078   1.529   2.281  0.1394 -0.3585  0.0707
  264SOL     OW  790   0.439   0.979   0.975 -0.5316 -0.4127  0.0970
  264SOL    HW1  791   0.436   1.026   0.882 -1.7095  0.5864  0.2745
  264SOL    HW2  792   0.349   0.927   0.981 -0.4236  0.4562 -1.2890
  265SOL     OW  793   1.124   2.359   0.922 -0.0396 -0.0304 -0.1117
  265SOL    HW1  794   1.063   2.346   1.005 -0.9925 -0.5077 -1.1053
  265SOL    HW2  795   1.211   2.306   0.933  0.3428  2.4463  3.6886
  266SOL     OW  796   1.574   0.968   1.026  0.7606 -0.0836  0.2122
  266SOL    HW1  797   1.539   0.932   1.117 -2.9430 -2.0028 -1.5537
  266SOL    HW2  798   1.605   1.064   1.032  1.4776 -4.2711  2.9870
  267SOL     OW  799   2.762   1.192   3.056  0.6503  0.3411 -0.1367
  267SOL    HW1  800   2.846   1.166   3.106  1.9536  2.0612  0.2104
  267SOL    HW2  801   2.716   1.112   3.008 -0.2707  0.9588 -2.3654
  268SOL     OW  802   1.672   0.358   0.357  0.3186 -0.3248  0.1744
  268SOL    HW1  803   1.723   0.308   0.281 -2.6304  2.4311  0.8594
  268SOL    HW2  804   1.628   0.441   0.323  0.3367 -0.7453 -1.5533
  269SOL     OW  805   2.152   0.666   2.922  0.5770 -0.1272  0.2911
  269SOL    HW1  806   2.205   0.660   3.005 -0.6782  1.5369 -1.4452
  269SOL    HW2  807   2.065   0.725   2.937  3.0834  1.9225  0.4529
  270SOL     OW  808   0.240   0.864   3.024  0.0759 -0.1266 -0.0256
  270SOL    HW1  809   0.287   0.955   3.044 -0.5899  3.2979  0.6776
  270SOL    HW2  810   0.282   0.789   3.079  0.4786 -0.6034 -0.3589
  271SOL     OW  811   2.625   0.817   0.138  0.1240 -0.0413 -0.1558
  271SOL    HW1  812   2.674   0.868   0.212 -0.2039 -0.7068 -0.7887
  271SOL    HW2  813   2.694   0.801   0.061  3.8489  3.5240 -1.1446
  272SOL     OW  814   2.976   2.691   0.225 -0.4416  0.1021  0.7627
  272SOL    HW1  815   2.950   2.659   0.130  1.9600 -2.1348 -1.7808
  272SOL    HW2  816   3.072   2.729   0.217  0.9650  1.3366 -1.1283
  273SOL     OW  817   2.842   3.038   0.219  0.2822 -0.3750 -0.0206
  273SOL    HW1  818   2.926   3.057   0.273 -0.2136 -2.2962 -1.9887
  273SOL    HW2  819   2.765   3.011   0.280  3.0910 -0.7139 -0.3432
  274SOL     OW  820   0.648   2.400   1.055  0.1062 -0.3467 -0.2121
  274SOL    HW1  821   0.681   2.496   1.065 -3.0986 -3.7730  1.8589
  274SOL    HW2  822   0.651   2.368   0.956 -2.0785  1.4381  0.2584
  275SOL     OW  823   2.777   1.454   0.339  0.1911  0.6122 -0.0231
  275SOL    HW1  824   2.830   1.414   0.262  0.8237 -3.9259 -0.9145
  275SOL    HW2  825   2.676   1.471   0.315  1.0217 -2.1811 -0.8075
  276SOL     OW  826   2.878   1.104   1.839 -0.3056  0.2030  0.5428
  276SOL    HW1  827   2.887   1.004   1.819 -3.1489  2.7797 -0.4266
  276SOL    HW2  828   2.940   1.149   1.770  1.1282 -0.6012 -1.1309
  277SOL     OW  829   2.400   0.061   1.144 -0.0451 -0.0198  0.6100
  277SOL    HW1  830   2.356   3.078   1.133  0.9677  0.9581 -0.8914
  277SOL    HW2  831   2.345   0.150   1.124 -0.7532  0.5819 -1.1358
  278SOL     OW  832   1.484   2.377   2.413 -0.2405  0.1520 -0.3316
  278SOL    HW1  833   1.444   2.429   2.336 -0.0016  0.3000  1.1652
  278SOL    HW2  834   1.425   2.369   2.493  1.8567 -1.4092 -2.5031
  279SOL     OW  835   1.708   1.854   0.488  0.3190  0.0349  0.2565
  279SOL    HW1  836   1.811   1.857   0.471  1.2333 -1.3152 -2.6010
  279SOL    HW2  837   1.654   1.807   0.412 -1.1363  0.7777 -1.5060
  280SOL     OW  838   0.206   1.521   0.970  0.1658 -0.1048 -0.4094
  280SOL    HW1  839   0.217   1.621   0.951 -0.7917 -0.4947  1.5669
  280SOL    HW2  840   0.119   1.496   1.020  1.1028 -2.3194 -2.0251
  281SOL     OW  841   3.041   0.862   2.447 -0.0374  0.1749  0.2859
  281SOL    HW1  842   3.060   0.771   2.403 -0.7836  0.2783 -1.8496
  281SOL    HW2  843   3.100   0.888   2.523 -3.1419 -0.5162 -3.8393
  282SOL     OW  844   0.644   1.290   0.612 -0.7851 -0.0134 -0.3296
  282SOL    HW1  845   0.555   1.314   0.565  0.2265  0.1370 -0.4784
  282SOL    HW2  846   0.638   1.198   0.657  0.6727 -1.9293  1.0617
  283SOL     OW  847   2.041   2.221   0.204 -0.0341 -0.0960  0.8086
  283SOL    HW1  848   2.016   2.268   0.292  1.8065  0.5109 -2.2745
  283SOL    HW2  849   2.136   2.251   0.170 -0.3545  1.5965 -1.7646
  284SOL     OW  850   1.000   0.104   0.435  0.3129  0.1102  0.1354
  284SOL    HW1  851   1.036   0.059   0.352 -0.5415 -1.1629  1.7463
  284SOL    HW2  852   0.960   0.195   0.421 -0.1403 -0.3481  0.5661
  285SOL     OW  853   2.221   1.076   2.957  0.1757 -0.0981  0.1547
  285SOL    HW1  854   2.301   1.013   2.954 -0.4567  0.3032  1.6662
  285SOL    HW2  855   2.252   1.174   2.960 -2.0821  0.1325 -2.2878
  286SOL     OW  856   1.885   2.148   1.090  0.1342  0.2623 -0.3534
  286SOL    HW1  857   1.850   2.241   1.092  0.9357 -1.3086  1.3403
  286SOL    HW2  858   1.819   2.080   1.133 -0.1988 -1.9305 -1.3158
  287SOL     OW  859   1.218   0.413   0.695  0.0378 -0.2610  0.0039
  287SOL    HW1  860   1.255   0.389   0.601 -1.1036 -0.6017 -1.8604
  287SOL    HW2  861   1.283   0.476   0.739  0.8753  1.1886 -0.3456
  288SOL     OW  862   1.154   2.327   2.866  0.5472  0.2228 -0.1312
  288SOL    HW1  863   1.054   2.323   2.894 -2.1490 -2.4962  0.7253
  288SOL    HW2  864   1.212   2.377   2.933  0.2148 -1.5544  0.7465
  289SOL     OW  865   3.055   1.436   1.422 -0.5662  0.6069 -0.3201
  289SOL    HW1  866   3.020   1.524   1.452  1.2926 -0.8888 -0.2698
  289SOL    HW2  867   0.044   1.422   1.462  2.0364  0.9394 -1.1472
  290SOL     OW  868   1.652   2.083   0.843 -0.3896  0.3663  0.0131
  290SOL    HW1  869   1.571   2.022   0.848  0.4620 -0.1988  1.5106
  290SOL    HW2  870   1.739   2.037   0.825 -1.2010  0.5789  1.2927
  291SOL     OW  871   1.688   3.072   0.024 -0.1222 -0.2059  0.1383
  291SOL    HW1  872   1.713   0.064   0.039  2.3759 -1.3448 -1.8593
  291SOL    HW2  873   1.758   3.008   0.069  0.5419 -0.3564  0.7990
  292SOL     OW  874   0.830   0.154   1.851  0.1947  0.4990 -0.2076
  292SOL    HW1  875   0.903   0.117   1.789 -2.2850 -1.6043 -1.5767
  292SOL    HW2  876   0.848   0.248   1.878  0.8405  1.2878 -3.0864
  293SOL     OW  877   2.521   2.280   0.986 -0.3236  0.4736  0.2745
  293SOL    HW1  878   2.507   2.311   0.888 -1.4565  0.0101 -1.4478
  293SOL    HW2  879   2.586   2.343   1.031 -2.6569 -1.1921 -2.4152
  294SOL     OW  880   0.542   0.913   2.167 -0.4394 -0.4402  0.0552
  294SOL    HW1  881   0.478   0.848   2.213  0.8920  3.2476  1.3736
  294SOL    HW2  882   0.518   0.928   2.068 -1.1141 -2.7314  0.5563
  295SOL     OW  883   1.630   1.415   1.083 -0.5526  0.0900 -0.0128
  295SOL    HW1  884   1.537   1.457   1.082  0.2129  0.1322 -0.5096
  295SOL    HW2  885   1.693   1.456   1.012  0.7203  0.5317  0.4194
  296SOL     OW  886   2.571   1.850   0.364 -0.4930 -0.0248  0.6069
  296SOL    HW1  887   2.596   1.899   0.276  0.3058  0.3301  2.0639
  296SOL    HW2  888   2.470   1.855   0.383 -0.4728  0.0938 -0.6293
  297SOL     OW  889   1.951   0.182   0.283  0.2526 -0.5987 -0.2847
  297SOL    HW1  890   1.991   0.277   0.266  0.9393  1.8945 -1.5929
  297SOL    HW2  891   1.867   0.170   0.222 -2.1699  1.2942 -0.4895
  298SOL     OW  892   0.814   2.742   2.693  1.0105  0.3205 -0.2529
  298SOL    HW1  893   0.871   2.706   2.618 -0.0857  1.2133  2.7742
  298SOL    HW2  894   0.857   2.812   2.745 -2.3512 -0.9124 -2.7817
  299SOL     OW  895   1.182   2.121   2.078 -0.4074 -0.4794  0.0794
  299SOL    HW1  896   1.154   2.205   2.027 -0.2915 -2.1903  0.1591
  299SOL    HW2  897   1.145   2.124   2.170  1.1411 -0.4750 -2.4158
  300SOL     OW  898   2.730   0.011   2.844  0.0719 -0.6902  0.0161
  300SOL    HW1  899   2.785   0.057   2.920  1.3106 -0.3198  1.4288
  300SOL    HW2  900   2.632   0.003   2.868 -0.2676 -1.5195 -2.0583
  301SOL     OW  901   0.967   1.232   1.878  0.2325 -0.3398 -0.3107
  301SOL    HW1  902   0.994   1.327   1.850 -1.3260  1.9133  3.0119
  301SOL    HW2  903   1.048   1.174   1.894  0.1527 -1.6658  0.0856
  302SOL     OW  904   2.681   2.325   0.436 -0.0457  0.2970 -0.0377
  302SOL    HW1  905   2.633   2.418   0.446  0.1990 -1.8262  0.3826
  302SOL    HW2  906   2.632   2.252   0.476  0.7318  2.5017 -2.0736
  303SOL     OW  907   2.406   2.359   1.946  0.1752  0.4413 -0.4983
  303SOL    HW1  908   2.494   2.371   1.896 -0.0229  0.1544 -1.5069
  303SOL    HW2  909   2.414   2.376   2.048  0.1918  1.7078 -1.3304
  304SOL     OW  910   2.972   0.860   1.753  0.1501  0.1645 -0.1505
  304SOL    HW1  911   2.950   0.784   1.817 -0.5061 -0.3402 -0.8651
  304SOL    HW2  912   2.927   0.844   1.661  0.6650 -0.5886 -1.1912
  305SOL     OW  913   0.473   1.479   1.326 -0.4924 -0.1662  0.0282
  305SOL    HW1  914   0.544   1.414   1.356 -0.0568  0.0515 -0.7103
  305SOL    HW2  915   0.424   1.435   1.247  1.6032 -1.7582  1.6262
  306SOL     OW  916   0.172   1.430   2.017 -0.1332  0.5642  0.0927
  306SOL    HW1  917   0.190   1.333   1.986  0.6828 -4.1531  0.7164
  306SOL    HW2  918   0.252   1.472   2.064 -0.8358  0.2801  0.4359
  307SOL     OW  919   0.876   0.702   1.804 -0.0673 -0.5161 -0.6341
  307SOL    HW1  920   0.889   0.684   1.703 -0.2414 -1.6062  0.7458
  307SOL    HW2  921   0.959   0.747   1.843  0.6727 -0.1458 -1.0464
  308SOL     OW  922   2.942   1.196   1.084 -1.0718  0.0771  0.2269
  308SOL    HW1  923   2.944   1.143   1.173 -1.3047 -0.6137 -0.1443
  308SOL    HW2  924   2.871   1.171   1.015  0.1048 -0.7398  0.1752
  309SOL     OW  925   2.569   1.208   1.115  0.0836  0.1915 -0.0674
  309SOL    HW1  926   2.635   1.133   1.140 -0.3888 -1.0659 -0.3522
  309SOL    HW2  927   2.601   1.264   1.038  1.0723 -1.0784  0.2002
  310SOL     OW  928   2.728   2.343   2.662  1.1386 -0.5448  0.1135
  310SOL    HW1  929   2.788   2.338   2.741 -1.8219 -1.5198  1.2448
  310SOL    HW2  930   2.713   2.256   2.611 -2.3022 -1.7852 -1.0792
  311SOL     OW  931   2.635   2.800   2.641 -0.3610  0.5023 -0.2673
  311SOL    HW1  932   2.715   2.844   2.677  0.6455 -1.6307 -1.1279
  311SOL    HW2  933   2.569   2.867   2.597 -0.5229  0.2737 -0.1830
  312SOL     OW  934   2.166   1.821   0.149  0.4322  0.0508  0.6170
  312SOL    HW1  935   2.086   1.877   0.178  1.3909  1.8696  2.6956
  312SOL    HW2  936   2.137   1.736   0.098 -2.3468  0.0783  0.8178
  313SOL     OW  937   2.680   2.936   0.618  0.0734  1.0879 -0.3057
  313SOL    HW1  938   2.700   2.881   0.536  1.6215  0.9329  2.0621
  313SOL    HW2  939   2.758   2.997   0.647  0.9718  1.1830  2.1319
  314SOL     OW  940   1.561   1.177   0.117  0.1397  0.1108 -0.6049
  314SOL    HW1  941   1.493   1.176   0.039 -0.9197 -1.9653  0.1400
  314SOL    HW2  942   1.551   1.265   0.173 -0.5349  1.7392  1.3044
  315SOL     OW  943   1.384   2.926   1.973  0.5640  0.1076 -0.1652
  315SOL    HW1  944   1.285   2.897   1.969  2.1469 -0.8038 -1.0744
  315SOL    HW2  945   1.409   2.999   1.907 -0.2771 -0.0973  1.4126
  316SOL     OW  946   2.841   0.782   3.073  0.4484  0.2057  0.1320
  316SOL    HW1  947   2.928   0.830   0.004 -1.6112 -0.3852  0.8458
  316SOL    HW2  948   2.862   0.683   3.040  2.0210 -2.0736 -2.0771
  317SOL     OW  949   0.496   2.942   0.219  0.1211 -0.3431 -0.4739
  317SOL    HW1  950   0.425   2.903   0.282  0.6961 -0.4979 -0.0128
  317SOL    HW2  951   0.503   2.886   0.136  0.6529  1.2869  2.0750
  318SOL     OW  952   2.200   2.721   0.643  0.0019  0.0711  0.0135
  318SOL    HW1  953   2.136   2.641   0.660  1.1339 -0.1749  1.4291
  318SOL    HW2  954   2.167   2.784   0.570  2.3517 -0.9199  1.1314
  319SOL     OW  955   0.927   1.891   2.857 -0.6873  0.1502 -0.0824
  319SOL    HW1  956   0.907   1.957   2.931  0.5295  1.4661  0.4415
  319SOL    HW2  957   0.921   1.793   2.882 -1.2133 -0.9502 -0.2117
  320SOL     OW  958   0.447   2.100   1.746 -0.2043 -0.0334  0.1833
  320SOL    HW1  959   0.458   2.190   1.795 -1.1079  1.5461  0.8806
  320SOL    HW2  960   0.396   2.030   1.800 -2.1875  2.3229  2.0821
  321SOL     OW  961   1.322   0.033   2.264  0.1359  0.3559 -0.3441
  321SOL    HW1  962   1.339   0.075   2.360  0.8432  0.9116  1.8313
  321SOL    HW2  963   1.409   3.095   2.231  1.2137 -0.6035 -0.2747
  322SOL     OW  964   2.780   1.403   2.157 -0.3412 -0.1268  0.2269
  322SOL    HW1  965   2.841   1.395   2.231 -3.2316  0.5706  0.0775
  322SOL    HW2  966   2.691   1.445   2.187 -1.6422 -0.7746 -2.1778
  323SOL     OW  967   2.338   1.039   1.084 -0.0759  0.4515 -0.2439
  323SOL    HW1  968   2.321   1.065   0.985  0.2180 -0.2683 -1.6257
  323SOL    HW2  969   2.414   1.088   1.127 -2.3353 -2.5310 -0.3759
  324SOL     OW  970   2.717   0.188   2.276 -0.2466  0.1325 -0.3044
  324SOL    HW1  971   2.737   0.186   2.377 -0.7238 -1.3066  1.4212
  324SOL    HW2  972   2.621   0.220   2.265  0.3723  0.0608 -1.6678
  325SOL     OW  973   1.134   0.822   2.650  0.0999 -0.1676  0.2085
  325SOL    HW1  974   1.164   0.735   2.606  1.8678 -0.4433  0.1770
  325SOL    HW2  975   1.045   0.848   2.610  0.9993 -1.9750  0.3804
  326SOL     OW  976   1.925   2.922   1.863 -0.5427 -0.1346 -0.5085
  326SOL    HW1  977   1.835   2.931   1.817 -0.1441 -0.8356  0.0237
  326SOL    HW2  978   1.972   2.836   1.837 -0.5085 -0.3662  0.2948
  327SOL     OW  979   2.084   0.442   0.189 -0.0600  0.1465  0.2440
  327SOL    HW1  980   2.103   0.472   0.285 -0.2135 -1.9563  0.1821
  327SOL    HW2  981   2.172   0.439   0.133  1.5798  0.5496  0.5159
  328SOL     OW  982   0.214   1.528   2.549 -0.1501  0.1168  0.2019
  328SOL    HW1  983   0.237   1.471   2.463  0.6232 -0.9245 -1.2263
  328SOL    HW2  984   0.131   1.492   2.599  0.3500 -2.6022  1.7987
  329SOL     OW  985   2.094   0.020   1.761  0.6528  0.1236  0.0450
  329SOL    HW1  986   2.028   3.052   1.786  0.9106 -0.7869 -0.5156
  329SOL    HW2  987   2.183   3.104   1.801  0.3628 -0.6965 -2.8222
  330SOL     OW  988   0.226   1.301   0.769 -0.2222  0.1047  0.2747
  330SOL    HW1  989   0.241   1.354   0.855  0.6983  3.5098  0.7088
  330SOL    HW2  990   0.139   1.327   0.723 -1.3837  2.9235 -0.3330
  331SOL     OW  991   0.232   1.793   2.416  0.4304  0.1081  0.8674
  331SOL    HW1  992   0.216   1.704   2.463  1.6976  2.9605  2.1390
  331SOL    HW2  993   0.332   1.807   2.408 -2.4721  2.1538 -0.6608
  332SOL     OW  994   0.039   2.980   1.594 -0.8006  0.0281  0.3030
  332SOL    HW1  995   0.035   2.903   1.527  0.2355 -1.4829  3.7114
  332SOL    HW2  996   0.137   2.977   1.628  2.2663 -0.8829 -2.1017
  333SOL     OW  997   2.317   0.148   0.821 -0.0472 -0.3466  0.1739
  333SOL    HW1  998   2.230   0.099   0.815  4.6406  2.8354 -0.7235
  333SOL    HW2  999   2.314   0.205   0.903  0.5565  1.5154  1.0036
  334SOL     OW 1000   0.490   2.082   0.676 -0.1379 -0.3188  0.6680
  334SOL    HW1 1001   0.573   2.034   0.650 -1.9970 -0.9791 -0.6730
  334SOL    HW2 1002   0.441   2.125   0.596  1.6041  0.9926  0.8379
  335SOL     OW 1003   0.142   2.623   0.226  0.3623 -0.3184  0.5455
  335SOL    HW1 1004   0.081   2.568   0.282  1.4036  2.0954 -3.0541
  335SOL    HW2 1005   0.233   2.576   0.207  1.3168 -1.3504  1.8247
  336SOL     OW 1006   3.065   0.089   2.455  0.3414  0.7702 -0.0039
  336SOL    HW1 1007   2.987   0.027   2.423  0.6323 -1.6025  2.1006
  336SOL    HW2 1008   0.034   0.095   2.388  1.6663  0.5647  1.9319
  337SOL     OW 1009   2.433   2.257   2.716  0.0624  0.6921 -0.6055
  337SOL    HW1 1010   2.462   2.349   2.749  0.1181 -2.1535  0.4405
  337SOL    HW2 1011   2.447   2.191   2.789  0.1517 -0.4736 -0.2615
  338SOL     OW 1012   0.806   0.592   0.653  0.5550  0.4730  0.1531
  338SOL    HW1 1013   0.735   0.521   0.654  4.4157  3.2609 -0.0619
  338SOL    HW2 1014   0.880   0.559   0.718 -0.7575  0.3167 -0.2971
  339SOL     OW 1015   0.268   0.815   1.982  0.2670 -0.0842 -0.1434
  339SOL    HW1 1016   0.233   0.864   2.064  1.1221 -2.6781  1.7731
  339SOL    HW2 1017   0.215   0.857   1.908 -2.4174  1.1962  0.8743
  340SOL     OW 1018   1.676   2.996   0.500  0.3030  0.7838 -0.1526
  340SOL    HW1 1019   1.774   3.005   0.480 -2.2801  1.9261 -2.0871
  340SOL    HW2 1020   1.628   3.085   0.482  0.0914 -1.0459  0.2863
  341SOL     OW 1021   2.038   0.903   1.198  0.2374 -0.2684  0.4740
  341SOL    HW1 1022   2.102   0.834   1.161  0.3108 -0.2262 -2.0959
  341SOL    HW2 1023   2.091   0.957   1.264 -1.2106 -0.7986  1.7619
  342SOL     OW 1024   2.368   2.782   0.056  0.2325 -0.6802  0.7070
  342SOL    HW1 1025   2.285   2.836   0.048 -1.5681  1.2686  0.3528
  342SOL    HW2 1026   2.436   2.791   3.085 -0.9531 -0.3361 -0.2199
  343SOL     OW 1027   1.397   2.030   1.777  0.3425 -0.2480  0.4398
  343SOL    HW1 1028   1.479   1.982   1.813  1.9391  0.0729 -0.7393
  343SOL    HW2 1029   1.312   1.973   1.783 -0.7328  1.2424 -1.2904
  344SOL     OW 1030   2.500   2.596   1.146  0.5342 -0.7428  0.3890
  344SOL    HW1 1031   2.407   2.594   1.107 -0.2754  1.2460  2.9408
  344SOL    HW2 1032   2.490   2.637   1.237  2.1608  1.1286 -1.0180
  345SOL     OW 1033   2.740   2.452   3.055 -0.3840  0.1110 -0.3554
  345SOL    HW1 1034   2.778   2.386   2.989 -2.1370 -1.9938  1.6655
  345SOL    HW2 1035   2.725   2.408   0.040  1.0570  2.0529 -0.3720
  346SOL     OW 1036   2.809   1.411   0.615  0.0387 -0.1869 -0.0883
  346SOL    HW1 1037   2.792   1.427   0.515  0.1225  1.5714  0.0841
  346SOL    HW2 1038   2.723   1.431   0.668 -1.2068  0.3082  0.8028
  347SOL     OW 1039   1.813   2.101   1.971 -0.1310  0.4332 -0.8497
  347SOL    HW1 1040   1.822   2.123   2.070 -0.5960  1.2127 -1.0634
  347SOL    HW2 1041   1.899   2.090   1.927 -1.0673 -0.2160  1.3260
  348SOL     OW 1042   0.679   1.657   2.720 -0.2293  0.1741 -0.3891
  348SOL    HW1 1043   0.702   1.707   2.636 -1.7215  1.0776  2.2949
  348SOL    HW2 1044   0.759   1.670   2.779  0.0636  0.6803 -2.2608
  349SOL     OW 1045   2.377   1.221   1.513 -0.3758 -0.0742  0.2868
  349SOL    HW1 1046   2.370   1.319   1.539 -0.2213 -2.8215  1.8701
  349SOL    HW2 1047   2.471   1.191   1.491 -3.0132  1.2969  2.4016
  350SOL     OW 1048   3.011   2.474   1.203  0.5109 -0.1244 -0.4285
  350SOL    HW1 1049   3.020   2.380   1.247  0.3186 -2.2249  1.0192
  350SOL    HW2 1050   2.918   2.484   1.163 -2.4011 -1.4605 -1.0456
  351SOL     OW 1051   0.612   0.216   2.273  0.0512  0.2923 -0.1548
  351SOL    HW1 1052   0.628   0.316   2.253  3.4346  2.0589 -0.7415
  351SOL    HW2 1053   0.691   0.170   2.317  1.5572 -0.2223 -1.0233
  352SOL     OW 1054   0.721   1.664   1.015 -0.9087 -0.1359 -0.1771
  352SOL    HW1 1055   0.667   1.719   1.085 -2.9269 -1.3637  0.6351
  352SOL    HW2 1056   0.656   1.611   0.960 -0.3535  3.3347  2.7240
  353SOL     OW 1057   1.314   1.665   2.376  0.0007  0.5232  0.2130
  353SOL    HW1 1058   1.276   1.734   2.442 -0.3015  0.2419  2.3271
  353SOL    HW2 1059   1.243   1.639   2.303 -0.2615  0.6703  0.6199
  354SOL     OW 1060   1.156   0.156   0.828  0.1102  0.2301 -0.2792
  354SOL    HW1 1061   1.168   0.132   0.928 -0.6834 -0.7896  3.1854
  354SOL    HW2 1062   1.162   0.258   0.816  0.2215 -2.5653  0.4710
  355SOL     OW 1063   2.543   1.027   0.476 -0.4660 -0.1100  0.1296
  355SOL    HW1 1064   2.518   1.099   0.408 -4.4653  0.5028 -1.7383
  355SOL    HW2 1065   2.481   0.947   0.463 -0.6190  0.2834  0.7085
  356SOL     OW 1066   2.466   1.810   2.279 -0.1287  0.1561 -0.0939
  356SOL    HW1 1067   2.397   1.801   2.355 -1.1165 -1.7836 -1.5274
  356SOL    HW2 1068   2.539   1.878   2.306  2.1348 -1.1212  2.0287
  357SOL     OW 1069   0.587   2.732   1.644  0.0113  0.4570  0.3503
  357SOL    HW1 1070   0.524   2.778   1.579 -1.0371  0.6686 -1.4125
  357SOL    HW2 1071   0.683   2.750   1.627  1.8563 -1.8409 -0.1656
  358SOL     OW 1072   2.395   0.669   1.391  0.5642  0.2297  0.0869
  358SOL    HW1 1073   2.414   0.712   1.483  3.0228 -0.5047 -0.0991
  358SOL    HW2 1074   2.375   0.568   1.401 -0.6887  0.7306 -0.7124
  359SOL     OW 1075   2.222   2.782   2.609  0.1204  0.0801  0.4809
  359SOL    HW1 1076   2.130   2.821   2.577 -2.0334  2.7876 -3.9394
  359SOL    HW2 1077   2.223   2.768   2.709 -0.9998  1.5948 -1.4855
  360SOL     OW 1078   1.017   0.542   0.846 -0.6924 -0.2009  0.1280
  360SOL    HW1 1079   1.059   0.619   0.903  0.8493  2.1799  1.4899
  360SOL    HW2 1080   1.088   0.506   0.780 -1.8285 -0.9401 -0.0298
  361SOL     OW 1081   2.142   0.248   1.301 -0.6546 -0.0508  0.2484
  361SOL    HW1 1082   2.144   0.149   1.316 -0.8825  4.2194 -1.5162
  361SOL    HW2 1083   2.046   0.284   1.298 -1.2737  0.1081  1.6177
  362SOL     OW 1084   1.346   1.150   0.400 -0.8282  0.0369  0.1385
  362SOL    HW1 1085   1.268   1.126   0.342  1.0002 -2.4031  1.2530
  362SOL    HW2 1086   1.397   1.236   0.375 -0.8299 -0.8165 -0.1781
  363SOL     OW 1087   2.282   1.769   2.474  0.2495  0.2181  0.6006
  363SOL    HW1 1088   2.235   1.685   2.514 -0.7121 -2.6060 -0.2141
  363SOL    HW2 1089   2.213   1.805   2.402 -1.5330  1.0818 -0.2940
  364SOL     OW 1090   0.272   0.256   1.367  0.0333 -0.7240 -0.4113
  364SOL    HW1 1091   0.349   0.298   1.421  0.3959  0.9500  1.3522
  364SOL    HW2 1092   0.189   0.250   1.429  4.7386  0.9418  1.3028
  365SOL     OW 1093   0.292   2.837   0.362  0.0123  0.0778  0.0303
  365SOL    HW1 1094   0.241   2.777   0.298  2.3747  0.9334 -2.4145
  365SOL    HW2 1095   0.315   2.778   0.442 -0.4794 -0.9403 -1.4881
  366SOL     OW 1096   2.341   1.962   0.003  0.0482  0.2738  0.1021
  366SOL    HW1 1097   2.278   1.908   0.062  0.4088  0.8607 -1.7829
  366SOL    HW2 1098   2.286   2.036   3.063 -0.8335 -2.6441  1.3260
  367SOL     OW 1099   2.565   2.556   2.725 -0.3222 -0.3742 -0.1918
  367SOL    HW1 1100   2.608   2.648   2.692  1.9244 -1.6820  0.6364
  367SOL    HW2 1101   2.623   2.474   2.703  0.5608  1.7404  0.8274
  368SOL     OW 1102   0.167   1.793   0.915  0.4146 -0.2958 -0.5030
  368SOL    HW1 1103   0.138   1.782   1.012 -0.0615 -1.1064 -4.1609
  368SOL    HW2 1104   0.235   1.868   0.911 -2.9508 -1.8168 -0.9340
  369SOL     OW 1105   0.943   2.711   3.039 -0.2009 -0.6861 -0.4740
  369SOL    HW1 1106   0.927   2.785   2.971  1.0000  0.4553 -0.5256
  369SOL    HW2 1107   1.017   2.732   0.003 -1.6312 -1.3854  3.1162
  370SOL     OW 1108   0.073   0.978   0.528  0.2718  0.0745 -0.1371
  370SOL    HW1 1109   0.057   1.005   0.627 -1.6117  1.4181  0.1815
  370SOL    HW2 1110   0.155   0.917   0.524  0.0093 -0.6170 -1.8650
  371SOL     OW 1111   2.056   2.605   0.874  0.1446  0.0912  0.3437
  371SOL    HW1 1112   1.985   2.677   0.856  0.7492  1.1630 -0.9840
  371SOL    HW2 1113   2.014   2.514   0.873  2.2855 -2.5177  0.2356
  372SOL     OW 1114   0.115   0.930   2.639  0.4902 -0.2008  0.1637
  372SOL    HW1 1115   0.180   1.004   2.628 -1.2805 -3.0381  1.7582
  372SOL    HW2 1116   0.161   0.849   2.680 -0.5554 -1.0452 -0.6294
  373SOL     OW 1117   3.047   1.942   0.684 -0.0266 -0.2858  0.2010
  373SOL    HW1 1118   3.069   1.863   0.744  0.4243  0.9833 -0.2823
  373SOL    HW2 1119   3.096   1.934   0.596  1.2016  1.0416 -0.0830
  374SOL     OW 1120   0.030   2.417   0.371  0.0775  0.4213 -0.1224
  374SOL    HW1 1121   3.050   2.401   0.427  1.3620  1.9421  0.9680
  374SOL    HW2 1122   0.113   2.400   0.425 -1.7153 -0.6902  1.2287
  375SOL     OW 1123   0.572   0.592   0.188  0.2009  0.2167 -0.1083
  375SOL    HW1 1124   0.659   0.612   0.245  1.1305 -3.0416 -1.5795
  375SOL    HW2 1125   0.522   0.513   0.220  2.4475 -0.4797 -0.5936
  376SOL     OW 1126   0.502   2.318   2.103 -0.1220 -0.7013 -0.1384
  376SOL    HW1 1127   0.467   2.334   2.007 -3.1245 -0.7194 -0.3146
  376SOL    HW2 1128   0.581   2.382   2.128  1.7101  1.4284 -1.7186
  377SOL     OW 1129   1.503   2.617   2.696 -0.0876  0.7598 -0.5152
  377SOL    HW1 1130   1.418   2.568   2.667  0.7746  0.1542  1.8843
  377SOL    HW2 1131   1.568   2.615   2.623 -2.7833  3.0487 -1.3866
  378SOL     OW 1132   1.053   0.863   0.434 -0.2658 -0.6709  0.1741
  378SOL    HW1 1133   1.119   0.907   0.495 -1.6774  1.9203  1.1965
  378SOL    HW2 1134   1.054   0.759   0.447 -0.6890 -2.8154  0.8045
  379SOL     OW 1135   0.664   1.768   0.464  0.1110  0.3850  0.4874
  379SOL    HW1 1136   0.587   1.721   0.517  1.5925 -1.4696 -2.1697
  379SOL    HW2 1137   0.748   1.712   0.470  2.8228 -4.8384 -0.3863
  380SOL     OW 1138   0.100   1.992   1.363  0.4125 -0.2197 -0.4142
  380SOL    HW1 1139   0.018   1.992   1.429  0.3717  0.0736  0.1484
  380SOL    HW2 1140   0.174   2.046   1.406  1.7303 -0.8211 -3.7815
  381SOL     OW 1141   0.385   1.135   1.649  0.2082 -0.1194  0.2880
  381SOL    HW1 1142   0.461   1.104   1.703  0.2854  2.0949 -1.8416
  381SOL    HW2 1143   0.311   1.180   1.707 -1.4945 -0.3399  1.6271
  382SOL     OW 1144   2.342   2.142   0.428  0.0745 -0.1497  0.5269
  382SOL    HW1 1145   2.407   2.145   0.507  3.1335 -3.3199 -0.4303
  382SOL    HW2 1146   2.401   2.149   0.346 -0.0838  0.1170  0.2931
  383SOL     OW 1147   2.880   2.019   2.235  0.5532 -0.3492 -0.2163
  383SOL    HW1 1148   2.890   2.115   2.191  0.3692  2.9200 -1.1636
  383SOL    HW2 1149   2.779   2.002   2.255  1.7339 -0.5045 -2.5450
  384SOL     OW 1150   0.179   2.128   2.125 -0.2709 -0.3408  0.2838
  384SOL    HW1 1151   0.170   2.148   2.223  2.4760 -0.8911  1.3649
  384SOL    HW2 1152   0.176   2.028   2.117 -0.1516  1.2536  1.3839
  385SOL     OW 1153   2.997   2.203   0.773 -0.1014 -0.4034  0.5222
  385SOL    HW1 1154   3.040   2.118   0.744 -1.3598  6.0139  0.6032
  385SOL    HW2 1155   2.920   2.187   0.840 -0.8509  0.4281  3.3446
  386SOL     OW 1156   1.783   0.634   0.780 -0.0834  0.1216  0.1023
  386SOL    HW1 1157   1.734   0.722   0.765 -0.2072 -0.2647  1.3397
  386SOL    HW2 1158   1.722   0.571   0.831 -1.7148  0.8084 -0.9541
  387SOL     OW 1159   0.512   0.703   1.950  0.0068  0.4272 -0.0856
  387SOL    HW1 1160   0.420   0.740   1.968 -0.9164  1.9645  0.1587
  387SOL    HW2 1161   0.562   0.755   1.881 -1.8985  0.8978  0.4851
  388SOL     OW 1162   2.164   0.904   2.469  0.2739  0.5853  0.2808
  388SOL    HW1 1163   2.077   0.878   2.425  1.7106 -0.0007 -1.8627
  388SOL    HW2 1164   2.150   0.996   2.520 -0.5318  0.8677 -2.8884
  389SOL     OW 1165   1.939   1.281   1.942 -0.4316  0.1378 -0.0872
  389SOL    HW1 1166   1.962   1.325   1.855  0.9304  0.6526 -1.0086
  389SOL    HW2 1167   2.010   1.207   1.956  0.9566  0.8888  0.0002
  390SOL     OW 1168   1.843   2.863   0.083 -0.5879 -0.3669 -0.3804
  390SOL    HW1 1169   1.817   2.822   0.173 -1.1506 -0.6985  0.9763
  390SOL    HW2 1170   1.823   2.800   0.011  0.7746 -3.0710 -1.8136
  391SOL     OW 1171   2.128   2.266   1.417  0.1107  0.0753  0.4062
  391SOL    HW1 1172   2.130   2.272   1.312 -0.4256 -3.4448 -0.9901
  391SOL    HW2 1173   2.219   2.289   1.464  2.6496  3.7137  0.2282
  392SOL     OW 1174   0.086   2.577   1.008 -0.1958 -0.8440 -0.1460
  392SOL    HW1 1175   0.009   2.588   1.074 -0.1991 -0.8494  2.5131
  392SOL    HW2 1176   0.114   2.479   0.986 -1.9721  1.6675  0.1546
  393SOL     OW 1177   2.116   1.618   3.071 -0.2443  0.0518  0.3448
  393SOL    HW1 1178   2.042   1.552   3.084  2.6802 -0.0875  0.2765
  393SOL    HW2 1179   2.105   1.673   2.981 -1.3458  0.5782 -4.4715
  394SOL     OW 1180   3.075   0.238   3.050 -0.0373  0.0515  0.1927
  394SOL    HW1 1181   0.000   0.332   3.082  1.0487 -0.1479  3.9909
  394SOL    HW2 1182   3.034   0.244   2.959 -1.2223  3.7946  1.6183
  395SOL     OW 1183   1.213   1.128   0.958  0.3169 -0.0685  0.0162
  395SOL    HW1 1184   1.278   1.171   0.892  1.4341 -0.6962  3.1168
  395SOL    HW2 1185   1.167   1.050   0.917 -2.5712 -2.8347 -1.8675
  396SOL     OW 1186   1.398   0.570   2.989  0.3306  0.4541  0.3193
  396SOL    HW1 1187   1.489   0.620   2.988  1.4387  1.5526  0.0312
  396SOL    HW2 1188   1.377   0.529   2.899 -1.8218  1.0802  0.1225
  397SOL     OW 1189   0.065   0.497   2.547 -0.2864  0.4276 -0.3676
  397SOL    HW1 1190   3.069   0.512   2.568 -1.2328 -1.3769 -0.1615
  397SOL    HW2 1191   0.089   0.399   2.527  0.2566  4.1975 -1.0238
  398SOL     OW 1192   0.730   0.185   0.166  0.0580  0.1355 -0.0372
  398SOL    HW1 1193   0.779   0.249   0.229 -1.3861  1.0571  1.0451
  398SOL    HW2 1194   0.666   0.238   0.106  0.7720  1.6792 -1.7493
  399SOL     OW 1195   2.471   2.825   1.740  0.1982 -0.1301  0.0128
  399SOL    HW1 1196   2.467   2.724   1.728  2.4004  1.1693 -0.5365
  399SOL    HW2 1197   2.564   2.859   1.747 -1.2540 -3.3057 -0.8908
  400SOL     OW 1198   0.491   1.805   2.304  0.5381 -0.0409  0.1703
  400SOL    HW1 1199   0.552   1.791   2.386 -1.1901  0.4113 -1.6955
  400SOL    HW2 1200   0.551   1.822   2.226 -1.9152  0.4309  1.3446
  401SOL     OW 1201   0.924   0.514   2.709 -0.5325 -0.3789  0.5849
  401SOL    HW1 1202   0.922   0.417   2.747  0.1370 -2.8254  0.3612
  401SOL    HW2 1203   0.897   0.576   2.784  3.2271 -1.3877 -1.2523
  402SOL     OW 1204   3.014   2.060   1.559 -0.7438  0.4472 -0.1005
  402SOL    HW1 1205   2.926   2.018   1.593 -1.6162 -0.9829 -0.3163
  402SOL    HW2 1206   3.061   2.108   1.638 -1.2907  2.3852 -0.4185
  403SOL     OW 1207   0.705   1.172   1.779 -0.0040  0.3311 -0.0525
  403SOL    HW1 1208   0.801   1.195   1.804 -1.4225 -1.9391 -3.0844
  403SOL    HW2 1209   0.636   1.212   1.838  1.4213 -0.8452  1.3705
  404SOL     OW 1210   2.956   2.472   1.665 -0.2460 -0.1029 -0.4998
  404SOL    HW1 1211   2.928   2.528   1.745 -0.1008  0.6741  2.2672
  404SOL    HW2 1212   2.884   2.486   1.592 -4.0094  4.0684  0.5835
  405SOL     OW 1213   0.337   0.467   1.826  0.6684 -0.3574 -0.5996
  405SOL    HW1 1214   0.358   0.563   1.832  3.3541  4.5859 -0.4070
  405SOL    HW2 1215   0.405   0.406   1.880 -1.3608  0.6755  2.6697
  406SOL     OW 1216   1.832   2.324   0.064  0.0526 -0.2761 -0.2522
  406SOL    HW1 1217   1.916   2.283   0.106 -0.1983 -1.4938  0.3439
  406SOL    HW2 1218   1.856   2.386   3.096 -3.5135  1.5451 -0.5336
  407SOL     OW 1219   1.732   0.981   1.818  0.2826  0.1545 -0.4633
  407SOL    HW1 1220   1.646   0.927   1.826  0.7430 -1.8122  0.0652
  407SOL    HW2 1221   1.724   1.073   1.864 -1.2038 -1.6431  1.0787
  408SOL     OW 1222   0.670   0.261   2.752  0.1739 -0.4986  0.1521
  408SOL    HW1 1223   0.624   0.176   2.727 -2.2874  0.4617  0.3234
  408SOL    HW2 1224   0.770   0.244   2.725  0.9368  1.2175 -2.8795
  409SOL     OW 1225   2.936   2.357   0.564 -0.1387  0.0726  0.0302
  409SOL    HW1 1226   2.844   2.338   0.521 -1.9443 -2.5582  0.4836
  409SOL    HW2 1227   2.957   2.288   0.638 -0.3156 -1.2354  0.3732
  410SOL     OW 1228   2.517   1.572   0.394 -0.1493 -0.5463 -0.2132
  410SOL    HW1 1229   2.433   1.588   0.449  1.2796  0.3142 -0.9865
  410SOL    HW2 1230   2.557   1.658   0.356 -0.1682  1.7954 -2.9914
  411SOL     OW 1231   0.060   0.769   0.776 -0.4906 -0.1295 -0.0512
  411SOL    HW1 1232   0.131   0.755   0.702 -0.2341 -1.1992 -0.9610
  411SOL    HW2 1233   0.045   0.679   0.821 -0.5400  1.8912  3.4117
  412SOL     OW 1234   1.362   0.833   0.890  0.1944  0.3278 -0.2803
  412SOL    HW1 1235   1.276   0.884   0.882 -0.2571 -2.3416 -0.9676
  412SOL    HW2 1236   1.432   0.899   0.917 -1.1761  0.0120  0.6226
  413SOL     OW 1237   1.014   0.160   1.133  0.0417 -0.7917  0.6022
  413SOL    HW1 1238   0.970   0.086   1.196 -2.2408 -0.6744  0.1931
  413SOL    HW2 1239   1.093   0.209   1.184  0.7289  0.8799  1.4528
  414SOL     OW 1240   0.060   1.690   2.881  0.0906 -0.0791 -0.1014
  414SOL    HW1 1241   0.039   1.790   2.894 -0.3448 -0.3998  1.9099
  414SOL    HW2 1242   0.151   1.674   2.924 -1.1268 -1.6012 -1.0454
  415SOL     OW 1243   0.515   2.407   3.018 -0.0536  0.1462 -0.1665
  415SOL    HW1 1244   0.613   2.446   3.029  3.3661  2.4408  1.0428
  415SOL    HW2 1245   0.475   2.434   2.929  0.1947 -1.0452 -1.1852
  416SOL     OW 1246   1.478   0.669   0.573  0.4067 -0.7072 -0.8079
  416SOL    HW1 1247   1.431   0.623   0.649 -0.1708  0.3346  0.6818
  416SOL    HW2 1248   1.555   0.726   0.598 -0.8581  0.5807  2.1440
  417SOL     OW 1249   0.309   0.957   0.234 -0.1344  0.5105 -0.2820
  417SOL    HW1 1250   0.335   0.994   0.139  0.3142  1.1954 -1.8689
  417SOL    HW2 1251   0.214   0.931   0.234  4.0101  1.5994 -0.6445
  418SOL     OW 1252   2.604   1.432   2.503  0.0957  0.4609 -0.3835
  418SOL    HW1 1253   2.562   1.483   2.424 -1.8446 -2.0188 -1.1365
  418SOL    HW2 1254   2.655   1.350   2.472  3.2836  4.8436  0.9322
  419SOL     OW 1255   0.249   0.488   2.897  0.2117 -0.1506  0.0808
  419SOL    HW1 1256   0.162   0.498   2.955  2.2230  2.3036  3.2853
  419SOL    HW2 1257   0.254   0.395   2.855 -3.1025  1.8826  0.1998
  420SOL     OW 1258   0.506   1.514   0.917 -0.4199 -0.4299 -0.8901
  420SOL    HW1 1259   0.545   1.421   0.897  2.5585  0.2301 -0.3601
  420SOL    HW2 1260   0.417   1.514   0.962  0.3700 -0.0531 -1.5412
  421SOL     OW 1261   0.630   2.273   0.824 -0.2340 -0.6403  0.2001
  421SOL    HW1 1262   0.732   2.283   0.811  1.3265  0.6027 -0.3859
  421SOL    HW2 1263   0.603   2.185   0.784  0.3704  1.9717  1.9781
  422SOL     OW 1264   3.004   0.984   1.298 -0.2037  0.0205 -0.1424
  422SOL    HW1 1265   3.081   0.972   1.364  0.3881  0.4765 -2.1665
  422SOL    HW2 1266   2.991   0.902   1.241  1.2887  2.1977  0.4046
  423SOL     OW 1267   1.462   1.376   1.357  0.4226 -0.2770 -0.1378
  423SOL    HW1 1268   1.536   1.446   1.330  1.2269  0.3971  1.8336
  423SOL    HW2 1269   1.492   1.282   1.387  2.2799  0.3242 -1.4084
  424SOL     OW 1270   1.772   1.014   0.094 -0.3811 -0.0727 -0.3769
  424SOL    HW1 1271   1.688   1.075   0.102  1.9487  2.3130  0.9588
  424SOL    HW2 1272   1.851   1.071   0.064  1.7621 -0.4053  0.2828
  425SOL     OW 1273   3.079   0.456   1.875 -0.0470 -0.0271 -0.3416
  425SOL    HW1 1274   0.018   0.365   1.889 -0.5064  1.2073 -0.8415
  425SOL    HW2 1275   0.029   0.515   1.811 -0.6802  1.3077  0.9870
  426SOL     OW 1276   2.446   2.970   2.576  0.2827  0.4459 -0.3190
  426SOL    HW1 1277   2.353   2.925   2.567 -0.5681  1.2325 -0.9325
  426SOL    HW2 1278   2.445   3.072   2.557  2.6120  1.4945  1.3636
  427SOL     OW 1279   1.057   0.878   2.276  0.4494 -0.3631 -0.7651
  427SOL    HW1 1280   1.060   0.782   2.235  0.3450  1.5157 -1.0995
  427SOL    HW2 1281   0.995   0.942   2.225  0.6891 -1.4305  0.0999
  428SOL     OW 1282   2.083   1.064   2.002 -0.1406 -0.9583  0.0396
  428SOL    HW1 1283   2.093   0.966   1.981 -0.2999  0.0370  4.5062
  428SOL    HW2 1284   2.047   1.087   2.097  0.0615  0.6632 -1.0303
  429SOL     OW 1285   2.885   3.088   0.673 -0.1277  0.2634  0.0425
  429SOL    HW1 1286   2.938   3.092   0.757 -0.8050 -1.0487  0.7248
  429SOL    HW2 1287   2.941   0.029   0.601  1.2170  2.9817 -0.4712
  430SOL     OW 1288   1.930   1.382   2.188 -0.5017 -0.2691 -0.0978
  430SOL    HW1 1289   2.026   1.366   2.226 -0.7443 -0.7929 -0.7989
  430SOL    HW2 1290   1.924   1.341   2.097 -1.4756 -2.8305 -2.5839
  431SOL     OW 1291   0.079   1.782   1.170 -0.4594 -0.3436  0.4894
  431SOL    HW1 1292   0.117   1.852   1.236 -1.6379 -1.3680  1.1046
  431SOL    HW2 1293   0.011   1.724   1.212  4.7212  1.6302 -2.9357
  432SOL     OW 1294   1.570   3.026   2.202  0.3492  0.3121  0.4747
  432SOL    HW1 1295   1.551   2.932   2.237  1.3268 -0.6229 -0.2571
  432SOL    HW2 1296   1.657   3.031   2.154 -0.8914  0.6017  1.3739
  433SOL     OW 1297   1.501   3.093   1.783  0.0362 -0.5631  0.1660
  433SOL    HW1 1298   1.470   0.037   1.697 -0.7277  0.4504 -0.8055
  433SOL    HW2 1299   1.545   0.052   1.854 -0.0325  2.5455  4.1952
  434SOL     OW 1300   0.578   2.623   2.464  0.4098  0.0487 -0.0682
  434SOL    HW1 1301   0.481   2.627   2.424 -2.4372 -2.1458  0.5282
  434SOL    HW2 1302   0.595   2.526   2.499  0.6817 -2.3763  0.5298
  435SOL     OW 1303   0.282   2.245   0.172  0.2558  0.1149  0.1791
  435SOL    HW1 1304   0.317   2.344   0.175  0.3330 -2.8613  1.2913
  435SOL    HW2 1305   0.346   2.184   0.120  1.3008  2.3837  1.7823
  436SOL     OW 1306   0.671   0.859   1.762  0.2286 -0.2853  0.1270
  436SOL    HW1 1307   0.751   0.798   1.789  3.1380 -2.0126 -1.8076
  436SOL    HW2 1308   0.699   0.954   1.753 -0.7135  0.0334  1.5652
  437SOL     OW 1309   0.544   3.056   2.320 -0.0626  0.0523 -0.0173
  437SOL    HW1 1310   0.557   0.047   2.304  0.0483 -1.0835 -2.3610
  437SOL    HW2 1311   0.596   3.029   2.408  1.2170  0.3820  0.6640
  438SOL     OW 1312   0.522   1.722   1.444 -0.7826 -0.4344  0.0697
  438SOL    HW1 1313   0.525   1.711   1.544  1.0136  0.1139 -0.2757
  438SOL    HW2 1314   0.481   1.640   1.394  1.6046  0.2577 -0.1722
  439SOL     OW 1315   1.924   0.803   2.929 -0.1802  0.3963  0.2496
  439SOL    HW1 1316   1.930   0.899   2.964  0.2010 -1.4198 -1.5216
  439SOL    HW2 1317   1.833   0.790   2.883 -2.9925  0.5126  0.1010
  440SOL     OW 1318   0.613   0.338   0.513  0.1104  0.2736  0.2719
  440SOL    HW1 1319   0.582   0.397   0.588  1.2010  1.1810 -1.3382
  440SOL    HW2 1320   0.535   0.320   0.450 -2.6825  1.2135 -0.6412
  441SOL     OW 1321   1.103   2.263   1.522 -0.3543 -0.0598  0.2462
  441SOL    HW1 1322   1.147   2.258   1.614  0.1187  1.6671 -1.6890
  441SOL    HW2 1323   1.007   2.227   1.513  0.8612  0.3332 -0.0254
  442SOL     OW 1324   2.955   1.652   0.392 -0.6156 -0.0410 -0.1555
  442SOL    HW1 1325   2.887   1.579   0.376 -0.5364  0.4093 -0.4485
  442SOL    HW2 1326   2.905   1.739   0.421 -0.1725  1.5802 -1.3627
  443SOL     OW 1327   2.756   2.011   2.832  0.6707  0.3380 -0.4817
  443SOL    HW1 1328   2.722   1.997   2.739 -1.0439 -0.8247 -0.5473
  443SOL    HW2 1329   2.846   1.958   2.842  2.6469 -2.3619  1.0626
  444SOL     OW 1330   1.372   0.984   0.125  0.3434 -0.0312 -0.0046
  444SOL    HW1 1331   1.452   1.044   0.135 -2.4625  0.6822 -0.0283
  444SOL    HW2 1332   1.309   1.000   0.204  1.3098 -0.1776 -1.8310
  445SOL     OW 1333   2.740   2.665   2.127 -0.2129 -0.5766  0.1436
  445SOL    HW1 1334   2.754   2.751   2.073 -2.7796 -1.3667  1.6336
  445SOL    HW2 1335   2.673   2.681   2.203 -0.1760 -0.1743 -1.2853
  446SOL     OW 1336   3.071   1.325   0.658 -0.4223 -0.1498 -0.4213
  446SOL    HW1 1337   3.090   1.226   0.677 -0.4054 -0.2589  0.0537
  446SOL    HW2 1338   2.969   1.341   0.652 -1.5151 -1.2176  0.4850
  447SOL     OW 1339   1.038   1.711   1.086  0.1033  0.5709 -0.3032
  447SOL    HW1 1340   1.017   1.680   1.183  1.7113 -2.8056  0.5066
  447SOL    HW2 1341   0.989   1.798   1.069  1.6170 -0.2257 -2.7273
  448SOL     OW 1342   1.613   1.715   1.702 -0.0937 -0.0834  0.1961
  448SOL    HW1 1343   1.657   1.640   1.757  1.2441 -1.6644  2.7558
  448SOL    HW2 1344   1.509   1.710   1.706 -0.6306  4.2976  0.6587
  449SOL     OW 1345   2.889   2.540   2.506 -0.2997 -1.3450  0.9958
  449SOL    HW1 1346   2.802   2.509   2.542  2.9689  0.3802  1.4498
  449SOL    HW2 1347   2.963   2.511   2.566  2.3744  1.6215  0.8417
  450SOL     OW 1348   0.054   1.658   1.987 -0.3462 -0.1508 -0.2452
  450SOL    HW1 1349   0.010   1.694   1.903  1.6871 -1.4601 -1.7415
  450SOL    HW2 1350   0.093   1.566   1.974 -0.4826 -0.8318 -1.7094
  451SOL     OW 1351   2.320   0.779   1.143 -0.2108  0.6539 -0.1789
  451SOL    HW1 1352   2.342   0.876   1.120  0.7479 -1.6033  1.0277
  451SOL    HW2 1353   2.346   0.757   1.238 -1.0159  0.1735 -1.3591
  452SOL     OW 1354   0.872   1.160   0.785 -0.0284  0.2676 -0.2101
  452SOL    HW1 1355   0.847   1.059   0.778 -0.4840  0.2666  1.2422
  452SOL    HW2 1356   0.858   1.187   0.884  0.6909 -0.3029  2.1055
  453SOL     OW 1357   1.665   2.282   0.656 -0.3811  0.5037 -0.1815
  453SOL    HW1 1358   1.636   2.213   0.728 -0.2493  0.1773 -0.3977
  453SOL    HW2 1359   1.725   2.236   0.582  2.1717 -2.1622 -1.5984
  454SOL     OW 1360   0.499   1.754   0.031  0.3576  0.1931 -0.5347
  454SOL    HW1 1361   0.587   1.776   0.073  3.2089 -3.1260  1.1342
  454SOL    HW2 1362   0.420   1.778   0.089  0.5155  0.3147  0.0945
  455SOL     OW 1363   1.133   1.055   0.264  0.1060  0.2719 -0.4633
  455SOL    HW1 1364   1.090   0.990   0.331  0.1099  0.7131  1.0602
  455SOL    HW2 1365   1.063   1.123   0.242  0.6917 -0.1125  3.0222
  456SOL     OW 1366   2.296   2.596   0.952 -0.1176 -0.0812  0.0442
  456SOL    HW1 1367   2.315   2.494   0.950  0.8736 -0.5860  0.5540
  456SOL    HW2 1368   2.206   2.616   0.913 -0.3233  0.4434 -1.0312
  457SOL     OW 1369   1.428   3.003   0.014  0.1929  0.0958  0.0887
  457SOL    HW1 1370   1.519   3.045   0.031 -2.4598 -1.3961 -0.2122
  457SOL    HW2 1371   1.393   2.945   0.092  0.7428 -0.1280  1.7320
  458SOL     OW 1372   2.355   0.845   0.481  0.8242  0.3065  0.2284
  458SOL    HW1 1373   2.327   0.766   0.540  0.2268 -1.5160  1.0104
  458SOL    HW2 1374   2.298   0.928   0.493 -2.0724  0.4454  0.2794
  459SOL     OW 1375   2.400   0.397   2.577 -0.6062  0.2429  0.0256
  459SOL    HW1 1376   2.320   0.438   2.526 -1.2243  2.7423  0.1646
  459SOL    HW2 1377   2.444   0.476   2.625 -0.9080 -1.5133  2.9403
  460SOL     OW 1378   2.510   0.641   2.653 -0.9967 -0.3090 -0.4808
  460SOL    HW1 1379   2.590   0.690   2.694  2.1899  0.7957  0.2866
  460SOL    HW2 1380   2.421   0.700   2.662  0.9689  1.4075 -0.5281
  461SOL     OW 1381   0.084   2.305   0.976  0.0444 -0.9147 -0.2251
  461SOL    HW1 1382   0.099   2.222   1.031  1.9883  0.5449 -3.8062
  461SOL    HW2 1383   0.000   2.289   0.915  0.4022 -0.5330 -0.5091
  462SOL     OW 1384   3.019   2.815   1.817 -0.3674  0.5853 -0.5923
  462SOL    HW1 1385   3.075   2.825   1.904 -1.0530 -1.4217  3.5073
  462SOL    HW2 1386   3.063   2.864   1.736 -0.6754  3.4748  2.1959
  463SOL     OW 1387   2.397   1.897   2.684 -0.4542  0.1115  0.3884
  463SOL    HW1 1388   2.442   1.843   2.754  0.7479  2.0420  1.1531
  463SOL    HW2 1389   2.359   1.842   2.603  0.1408 -0.3752  0.4936
  464SOL     OW 1390   0.831   2.806   1.601  0.1540  0.8145  0.7179
  464SOL    HW1 1391   0.895   2.781   1.678  1.9252 -0.6614  2.3451
  464SOL    HW2 1392   0.854   2.901   1.574  1.1320 -0.7629 -0.3160
  465SOL     OW 1393   0.896   3.060   1.578 -0.1208 -0.4142  0.1278
  465SOL    HW1 1394   0.861   0.007   1.496 -1.1381  1.8395  1.1066
  465SOL    HW2 1395   0.933   0.023   1.644  1.1178 -1.8223  1.7838
  466SOL     OW 1396   1.438   2.651   1.881 -0.4853 -0.1060 -0.3079
  466SOL    HW1 1397   1.493   2.608   1.959 -1.8087  0.8488  1.0876
  466SOL    HW2 1398   1.414   2.747   1.904 -1.9680 -3.1014 -0.0413
  467SOL     OW 1399   0.764   2.031   1.226  0.1749 -0.3328 -0.2832
  467SOL    HW1 1400   0.770   1.960   1.300  1.8114 -0.9222  0.1980
  467SOL    HW2 1401   0.680   2.088   1.232 -0.3105  1.3469  1.7700
  468SOL     OW 1402   2.919   1.826   2.422  0.1125 -0.0115 -0.0165
  468SOL    HW1 1403   2.884   1.895   2.354 -2.3952  0.1211  0.3635
  468SOL    HW2 1404   2.960   1.750   2.366  0.6386 -0.9564 -1.8591
  469SOL     OW 1405   0.989   1.972   0.796  0.2995 -0.3241  0.1648
  469SOL    HW1 1406   1.001   1.914   0.713 -2.1833 -2.2842 -0.1320
  469SOL    HW2 1407   0.919   1.938   0.863 -3.4919 -0.3397  1.4129
  470SOL     OW 1408   2.209   1.142   1.714  0.0418  0.4927 -0.8271
  470SOL    HW1 1409   2.122   1.197   1.710 -0.0370  3.5075 -0.4342
  470SOL    HW2 1410   2.278   1.194   1.655 -0.5662 -0.1097  1.4942
  471SOL     OW 1411   0.384   2.494   0.138 -0.4923 -0.6356  1.0689
  471SOL    HW1 1412   0.454   2.509   0.214 -1.3278 -1.4746 -1.5673
  471SOL    HW2 1413   0.431   2.478   0.050  1.0186 -1.8132  0.3433
  472SOL     OW 1414   2.957   1.988   1.914 -0.1205 -0.0918  0.0206
  472SOL    HW1 1415   2.972   1.984   2.016 -2.1199  2.0782  2.3182
  472SOL    HW2 1416   2.983   2.077   1.871  0.7635 -1.1180  2.3540
  473SOL     OW 1417   1.093   3.076   0.225 -0.3439  0.1880 -0.6080
  473SOL    HW1 1418   1.091   2.974   0.220 -0.9864  0.0140  1.3780
  473SOL    HW2 1419   1.050   3.102   0.137 -1.5203  1.0794  2.0760
  474SOL     OW 1420   2.746   2.530   0.848  0.6636  0.1629 -0.1277
  474SOL    HW1 1421   2.734   2.623   0.884  1.7606  3.2028 -0.5821
  474SOL    HW2 1422   2.797   2.527   0.756  3.5937  0.8153  0.2083
  475SOL     OW 1423   2.050   2.826   1.538  1.1258 -0.1724  0.5084
  475SOL    HW1 1424   2.144   2.860   1.549 -1.7961  1.5853 -1.5529
  475SOL    HW2 1425   1.989   2.896   1.489  0.6537  2.1665 -2.4922
  476SOL     OW 1426   0.861   0.888   0.662 -0.0267  0.0934 -0.3940
  476SOL    HW1 1427   0.881   0.915   0.564  0.0034 -0.0336  0.0930
  476SOL    HW2 1428   0.861   0.786   0.671 -2.2958 -0.4698  4.1345
  477SOL     OW 1429   0.322   2.040   0.925  0.2496 -0.2193  0.7449
  477SOL    HW1 1430   0.336   2.128   0.979 -1.9903  2.5686  2.0570
  477SOL    HW2 1431   0.378   2.050   0.839  0.3124 -3.8331  0.7200
  478SOL     OW 1432   0.085   2.574   2.123 -0.1625 -0.3121  1.0461
  478SOL    HW1 1433   3.099   2.562   2.161  3.5820 -2.7114 -0.1667
  478SOL    HW2 1434   0.138   2.646   2.173 -0.0236 -2.2078 -0.0656
  479SOL     OW 1435   0.130   0.523   1.675 -0.3792 -0.1153  0.1102
  479SOL    HW1 1436   0.112   0.445   1.610 -1.5230  0.9800 -0.6920
  479SOL    HW2 1437   0.200   0.499   1.745 -3.2800  0.7545  0.4566
  480SOL     OW 1438   2.939   2.643   3.068 -0.3647 -0.0453 -0.0039
  480SOL    HW1 1439   3.027   2.608   3.019  0.3785  0.5659 -1.5765
  480SOL    HW2 1440   2.867   2.571   3.064  0.9023  1.9942 -2.4184
  481SOL     OW 1441   2.127   2.035   1.885 -0.0346  0.0747  0.0503
  481SOL    HW1 1442   2.092   1.975   1.961  0.7475  0.1136 -1.9455
  481SOL    HW2 1443   2.195   1.982   1.828  0.7924 -2.0126 -1.7717
  482SOL     OW 1444   1.606   2.191   3.077 -0.3156 -0.0485 -0.0979
  482SOL    HW1 1445   1.569   2.132   0.041  0.3127  2.8074 -1.4338
  482SOL    HW2 1446   1.687   2.245   0.007  3.9941 -0.3825  0.4698
  483SOL     OW 1447   0.618   2.041   2.035  0.0073  0.1947  0.4487
  483SOL    HW1 1448   0.719   2.024   2.047  1.2018  0.1743 -0.5690
  483SOL    HW2 1449   0.593   2.138   2.064  3.4321 -0.2899 -1.4157
  484SOL     OW 1450   2.879   0.547   1.067 -0.0592  0.5417  0.5814
  484SOL    HW1 1451   2.933   0.478   1.015  0.8408 -1.0090  1.5958
  484SOL    HW2 1452   2.783   0.517   1.088 -0.9468  0.9607 -0.7445
  485SOL     OW 1453   2.098   0.969   0.683  0.8333  0.4448  0.4367
  485SOL    HW1 1454   2.131   1.011   0.595  1.0457  2.5453  1.8007
  485SOL    HW2 1455   2.003   1.001   0.707 -1.6358 -1.8779 -1.0278
  486SOL     OW 1456   1.700   0.261   2.206  0.2416 -0.1202  0.3238
  486SOL    HW1 1457   1.652   0.345   2.252  2.5801  1.3615  3.1206
  486SOL    HW2 1458   1.698   0.185   2.275  1.4443 -3.2893  0.6562
  487SOL     OW 1459   0.864   1.440   1.126  0.0122  0.5119  0.2021
  487SOL    HW1 1460   0.828   1.519   1.077  0.3970 -0.2521  4.1684
  487SOL    HW2 1461   0.965   1.427   1.115  2.0572 -1.0001 -1.4387
  488SOL     OW 1462   2.319   1.311   2.936 -0.4010  0.3640 -0.0445
  488SOL    HW1 1463   2.322   1.333   2.838 -1.0657  2.3807 -2.1975
  488SOL    HW2 1464   2.357   1.392   2.988  1.3836 -0.9430 -0.0662
  489SOL     OW 1465   2.319   0.146   0.495  0.3169 -0.0849 -0.4711
  489SOL    HW1 1466   2.398   0.114   0.551 -0.3374 -1.3381 -0.7930
  489SOL    HW2 1467   2.243   0.152   0.568 -2.1028 -0.7981  1.5479
  490SOL     OW 1468   1.457   2.464   0.292 -0.2543 -0.2414  0.3163
  490SOL    HW1 1469   1.543   2.407   0.306 -0.9324 -2.7904 -0.1047
  490SOL    HW2 1470   1.482   2.554   0.262 -0.7030 -0.6850 -0.8823
  491SOL     OW 1471   1.135   0.934   0.791  0.6721 -0.3061 -0.3618
  491SOL    HW1 1472   1.037   0.908   0.772 -1.6546 -0.3376  0.0718
  491SOL    HW2 1473   1.184   0.927   0.706 -1.6972 -2.8280  0.9862
  492SOL     OW 1474   1.436   0.245   2.840 -0.5334 -0.2485 -0.0386
  492SOL    HW1 1475   1.514   0.212   2.780 -2.3643  1.3625  3.1227
  492SOL    HW2 1476   1.404   0.341   2.809 -1.2712  0.6945 -0.2041
  493SOL     OW 1477   1.950   1.977   0.197 -0.1681 -0.0456 -0.1414
  493SOL    HW1 1478   1.978   2.074   0.201 -0.2378 -2.0677  0.0486
  493SOL    HW2 1479   1.941   1.938   0.292  0.6431 -1.2789  1.6499
  494SOL     OW 1480   0.644   1.076   0.328 -0.4705  0.3888 -0.2744
  494SOL    HW1 1481   0.726   1.139   0.336  1.0334  1.9212 -1.4572
  494SOL    HW2 1482   0.671   0.995   0.278  2.2712  2.1611  1.1870
  495SOL     OW 1483   3.082   2.757   0.827  0.6427 -0.2035 -0.7606
  495SOL    HW1 1484   0.022   2.670   0.850 -0.0817 -1.8694 -0.2530
  495SOL    HW2 1485   2.999   2.737   0.768  0.4341 -1.8609 -2.3512
  496SOL     OW 1486   2.500   0.123   1.684 -0.1885 -0.3025 -0.1278
  496SOL    HW1 1487   2.497   0.125   1.580  0.1379 -0.9102 -0.7355
  496SOL    HW2 1488   2.484   0.220   1.719 -1.7634  1.5313 -1.1675
  497SOL     OW 1489   1.905   1.363   2.663  0.0070  0.0696 -0.0623
  497SOL    HW1 1490   1.980   1.428   2.645 -1.9215  0.8191 -1.7563
  497SOL    HW2 1491   1.835   1.378   2.589  2.6645  2.3848  0.0561
  498SOL     OW 1492   0.856   1.892   1.011  0.6078  0.1445  0.0537
  498SOL    HW1 1493   0.807   1.945   1.081 -0.0684 -0.9038 -0.2072
  498SOL    HW2 1494   0.805   1.804   0.994  1.7024 -2.8032 -0.8612
  499SOL     OW 1495   0.839   2.215   1.462 -0.3507 -0.3101 -0.0149
  499SOL    HW1 1496   0.844   2.141   1.391 -1.6166 -1.8530 -0.5570
  499SOL    HW2 1497   0.803   2.307   1.430  0.1865  1.1789 -2.6358
  500SOL     OW 1498   0.840   2.077   0.181  0.2052  0.2278  0.2477
  500SOL    HW1 1499   0.792   2.092   0.271  2.4444  0.5886  0.1700
  500SOL    HW2 1500   0.920   2.140   0.172 -0.3122  0.8710 -3.3496
  501SOL     OW 1501   2.631   2.905   1.423  0.1896  0.1251  0.3877
  501SOL    HW1 1502   2.575   2.826   1.393 -0.8746  0.1512 -2.0399
  501SOL    HW2 1503   2.688   2.870   1.502 -1.5503  2.1852  1.3908
  502SOL     OW 1504   0.204   0.765   1.548  0.0427 -0.3169  0.2481
  502SOL    HW1 1505   0.163   0.685   1.596  1.3692  0.3892  0.6222
  502SOL    HW2 1506   0.307   0.759   1.557 -1.3692 -2.2470  0.1093
  503SOL     OW 1507   2.208   0.844   1.683  0.4929  0.4883 -0.2758
  503SOL    HW1 1508   2.296   0.795   1.702 -1.5460 -2.1335 -1.7249
  503SOL    HW2 1509   2.211   0.944   1.700 -1.3588  0.9841 -1.7097
  504SOL     OW 1510   1.089   0.837   1.931  0.0001  0.1205 -0.3948
  504SOL    HW1 1511   1.088   0.780   2.017 -0.2445  0.1839  1.3639
  504SOL    HW2 1512   1.125   0.933   1.950 -0.6188 -1.4795  0.4789
  505SOL     OW 1513   0.846   0.080   2.475  0.5982  0.3581 -0.1571
  505SOL    HW1 1514   0.926   0.053   2.414  0.6107  3.6897 -0.5295
  505SOL    HW2 1515   0.801   3.102   2.514 -1.5552 -0.7397 -2.0408
  506SOL     OW 1516   0.060   0.500   0.878 -0.2689 -0.2606 -0.0003
  506SOL    HW1 1517   3.097   0.431   0.861  2.5234  1.5378 -2.5855
  506SOL    HW2 1518   0.151   0.460   0.902  1.7096 -0.8333 -0.9917
  507SOL     OW 1519   1.443   0.276   0.009 -0.2393  0.1842 -0.3569
  507SOL    HW1 1520   1.468   0.260   3.014  0.9644  1.7234  0.5561
  507SOL    HW2 1521   1.371   0.344   0.026 -1.7683  1.7907  3.2044
  508SOL     OW 1522   1.868   0.404   2.433 -0.2087  0.3973 -0.2831
  508SOL    HW1 1523   1.930   0.470   2.384  0.2692  3.6558 -3.5869
  508SOL    HW2 1524   1.911   0.311   2.446  2.1690  0.2416 -1.1492
  509SOL     OW 1525   0.645   1.375   2.130 -0.0623 -0.3752  0.0663
  509SOL    HW1 1526   0.722   1.432   2.162 -0.1141 -0.1352 -1.1263
  509SOL    HW2 1527   0.673   1.280   2.134 -2.4729  0.0645 -0.8310
  510SOL     OW 1528   0.008   1.075   0.801 -0.3889  0.0604  0.2455
  510SOL    HW1 1529   0.076   1.089   0.873 -3.4383  0.5669 -2.6180
  510SOL    HW2 1530   3.022   1.049   0.840 -0.2518 -2.6178 -0.7126
  511SOL     OW 1531   2.168   1.946   0.771  0.1042  0.0484 -0.0778
  511SOL    HW1 1532   2.225   2.001   0.840  1.9712 -2.5967 -0.9978
  511SOL    HW2 1533   2.179   1.850   0.794  0.4128 -1.3207 -0.1060
  512SOL     OW 1534   0.390   1.363   0.563  0.4012  0.5416  0.0108
  512SOL    HW1 1535   0.346   1.332   0.646 -1.0808 -0.8272 -0.3513
  512SOL    HW2 1536   0.341   1.325   0.480 -2.8822 -3.0873 -1.2989
  513SOL     OW 1537   0.359   2.193   0.438  1.0514  0.0695  0.1969
  513SOL    HW1 1538   0.341   2.183   0.337  3.2625  1.9061  1.6288
  513SOL    HW2 1539   0.317   2.282   0.468 -1.3623 -0.9980 -2.9084
  514SOL     OW 1540   2.630   2.009   2.327 -0.2186 -0.3316  0.5150
  514SOL    HW1 1541   2.643   2.041   2.420 -1.3036 -0.9832 -2.5546
  514SOL    HW2 1542   2.594   2.080   2.260 -3.0360  1.2333 -0.6844
  515SOL     OW 1543   2.166   1.042   0.156 -0.4745  0.4120  0.0346
  515SOL    HW1 1544   2.124   0.972   0.098  1.8803  0.1998  2.1174
  515SOL    HW2 1545   2.265   1.031   0.171 -0.8596  0.2896 -3.4536
  516SOL     OW 1546   1.999   0.204   0.555  0.2578  0.0004 -0.5719
  516SOL    HW1 1547   1.918   0.237   0.606  0.3877  0.6385 -2.1974
  516SOL    HW2 1548   1.985   0.174   0.458 -0.9305 -1.0000 -0.6208
  517SOL     OW 1549   1.272   2.130   0.181 -0.1416  0.4582  0.1683
  517SOL    HW1 1550   1.190   2.184   0.201 -1.1627 -0.2423 -0.4282
  517SOL    HW2 1551   1.247   2.053   0.119  1.2687  0.1029  2.1874
  518SOL     OW 1552   1.156   0.844   1.605  0.3349  0.2563 -0.0874
  518SOL    HW1 1553   1.144   0.842   1.706 -4.9373 -0.6927  2.1538
  518SOL    HW2 1554   1.204   0.768   1.570 -3.3594  0.4710  1.0536
  519SOL     OW 1555   3.050   1.404   0.178 -0.2195 -0.1214 -0.1273
  519SOL    HW1 1556   3.022   1.429   0.080  1.6206  2.1598  0.4905
  519SOL    HW2 1557   3.001   1.312   0.193 -2.0064  0.6828 -0.6664
  520SOL     OW 1558   2.204   1.982   1.572  0.6046  0.5214  0.4239
  520SOL    HW1 1559   2.260   1.964   1.490  0.6041 -0.1708  3.5606
  520SOL    HW2 1560   2.175   2.076   1.576 -4.6872 -2.3376  0.7802
  521SOL     OW 1561   0.993   2.678   2.496 -0.2732  0.1777 -0.6813
  521SOL    HW1 1562   0.996   2.691   2.397  0.4346 -1.7766  1.8776
  521SOL    HW2 1563   1.081   2.712   2.534  0.2123 -4.5557 -0.3532
  522SOL     OW 1564   1.980   0.214   2.170 -0.2844 -0.5820  0.0576
  522SOL    HW1 1565   2.027   0.197   2.260 -2.2702 -1.2592 -0.1563
  522SOL    HW2 1566   1.874   0.224   2.172 -2.5894  0.9372 -1.5026
  523SOL     OW 1567   1.782   1.878   1.171 -0.4512  0.3274 -0.2400
  523SOL    HW1 1568   1.705   1.942   1.150 -1.3579  1.0423  3.7554
  523SOL    HW2 1569   1.780   1.845   1.267 -0.9540 -1.4247 -0.7068
  524SOL     OW 1570   1.203   2.486   0.209  0.2231  0.3790  0.5316
  524SOL    HW1 1571   1.145   2.409   0.231 -1.6921  0.5664  1.9274
  524SOL    HW2 1572   1.296   2.472   0.247  2.0039 -1.9912  0.0464
  525SOL     OW 1573   0.027   0.515   3.076 -0.1190 -0.1798  0.3659
  525SOL    HW1 1574   3.036   0.541   3.071  0.3439  0.5365  3.4321
  525SOL    HW2 1575   0.076   0.556   0.046 -0.3751 -1.7181 -0.1359
  526SOL     OW 1576   1.022   2.599   0.534  0.1042  0.4549  0.5919
  526SOL    HW1 1577   1.110   2.651   0.528  0.5823 -0.3711  2.5722
  526SOL    HW2 1578   0.956   2.640   0.467  2.7090 -3.2433 -1.0159
  527SOL     OW 1579   2.815   1.865   0.466 -0.1682 -0.1341 -0.1956
  527SOL    HW1 1580   2.792   1.869   0.566  1.0266 -1.3563 -1.0995
  527SOL    HW2 1581   2.728   1.857   0.417  6.5838  0.1667  2.5305
  528SOL     OW 1582   0.049   0.651   2.327  0.1729  0.2110 -0.0089
  528SOL    HW1 1583   0.033   0.565   2.390 -0.3175 -0.9337 -0.5514
  528SOL    HW2 1584   0.129   0.629   2.269  0.1506 -2.2841 -1.8107
  529SOL     OW 1585   1.319   1.621   2.676  0.1770  0.3343 -0.3361
  529SOL    HW1 1586   1.352   1.555   2.610 -2.3174 -1.0920  1.3109
  529SOL    HW2 1587   1.218   1.622   2.691 -0.7995  2.4394 -0.5512
  530SOL     OW 1588   1.736   1.127   2.456  0.3372 -0.0543  0.0552
  530SOL    HW1 1589   1.682   1.082   2.381 -2.1393  0.7858 -0.1240
  530SOL    HW2 1590   1.766   1.218   2.425 -0.1095 -1.3734  1.0769
  531SOL     OW 1591   0.576   2.122   2.407  0.1657  0.1926  0.2647
  531SOL    HW1 1592   0.535   2.085   2.323  2.1763 -0.5827  4.2272
  531SOL    HW2 1593   0.547   2.064   2.484 -2.8494  1.9530 -1.6011
  532SOL     OW 1594   2.185   1.062   0.440  0.6069 -0.0382 -0.0887
  532SOL    HW1 1595   2.169   1.074   0.341  0.6019 -0.2413  1.0459
  532SOL    HW2 1596   2.211   1.153   0.479 -1.0411  0.9132 -0.8149
  533SOL     OW 1597   0.113   3.093   1.899  0.0308 -0.4016  0.6611
  533SOL    HW1 1598   0.201   3.048   1.866  1.4610 -0.2373 -1.3968
  533SOL    HW2 1599   0.058   0.023   1.821 -2.9999 -1.2789 -0.3864
  534SOL     OW 1600   0.584   0.296   3.066 -0.1552 -0.0413  0.3521
  534SOL    HW1 1601   0.585   0.328   2.966 -0.0593  1.9860 -0.4642
  534SOL    HW2 1602   0.503   0.245   3.091 -0.1531  1.4316 -0.0736
  535SOL     OW 1603   0.198   0.146   0.428 -0.3103 -0.0520  0.6052
  535SOL    HW1 1604   0.146   0.209   0.484  3.1803 -2.8736 -0.0178
  535SOL    HW2 1605   0.262   0.100   0.499 -2.6746 -0.6806 -0.1057
  536SOL     OW 1606   0.250   1.470   1.470  0.2551  0.2929 -0.1542
  536SOL    HW1 1607   0.230   1.572   1.471  0.0124 -0.7158 -1.2957
  536SOL    HW2 1608   0.342   1.453   1.442 -1.8241 -2.4751 -1.5802
  537SOL     OW 1609   1.218   2.561   1.724 -0.3928 -0.4988 -0.4609
  537SOL    HW1 1610   1.292   2.562   1.791  1.0323  1.4388  1.1356
  537SOL    HW2 1611   1.228   2.487   1.654 -0.1378 -3.7930 -1.1157
  538SOL     OW 1612   0.038   1.907   0.027  0.0435 -0.3542  0.1946
  538SOL    HW1 1613   0.004   1.947   0.117 -1.3756 -1.4036  0.3837
  538SOL    HW2 1614   3.093   1.819   0.018 -1.3621  1.3034  0.3378
  539SOL     OW 1615   2.739   1.197   2.484  0.3572 -0.2313 -0.1747
  539SOL    HW1 1616   2.749   1.153   2.579 -1.3877 -0.1864  1.5321
  539SOL    HW2 1617   2.794   1.144   2.419 -2.4658  0.8132 -1.1406
  540SOL     OW 1618   1.773   0.689   2.015  0.6835 -0.4184 -0.2243
  540SOL    HW1 1619   1.813   0.775   1.975 -0.1266  2.0810 -1.7590
  540SOL    HW2 1620   1.747   0.706   2.111  1.0346 -0.7837  1.4962
  541SOL     OW 1621   0.592   0.516   2.129 -0.8300  0.2150 -0.5367
  541SOL    HW1 1622   0.574   0.522   2.229  0.8025 -1.2746  1.2570
  541SOL    HW2 1623   0.578   0.608   2.086  0.3906  0.2786  0.0862
  542SOL     OW 1624   2.221   3.070   2.988 -0.4050  0.3622  0.3963
  542SOL    HW1 1625   2.264   0.034   3.046 -2.7918 -3.2956  1.0952
  542SOL    HW2 1626   2.154   0.001   2.914 -1.5247  1.4031 -2.1324
  543SOL     OW 1627   1.345   0.153   0.252 -0.0342 -0.1786  0.0487
  543SOL    HW1 1628   1.393   0.187   0.168 -1.8927 -1.3735  0.5650
  543SOL    HW2 1629   1.274   0.082   0.223  1.3164  2.1383  0.3053
  544SOL     OW 1630   2.752   1.622   1.883  0.0769  0.2395  0.0226
  544SOL    HW1 1631   2.745   1.590   1.976 -3.0620 -0.0244  0.8854
  544SOL    HW2 1632   2.746   1.545   1.815 -0.8032 -0.7302  0.5046
  545SOL     OW 1633   1.864   2.233   1.418  0.5509  0.2834  0.0421
  545SOL    HW1 1634   1.955   2.221   1.384 -2.0729  1.6050  1.9392
  545SOL    HW2 1635   1.835   2.334   1.413  0.8999  4.6043  1.0267
  546SOL     OW 1636   3.067   0.082   2.707 -0.1114  0.4474 -0.3087
  546SOL    HW1 1637   3.072   0.073   2.605 -0.4494  0.6099 -1.2906
  546SOL    HW2 1638   3.074   3.098   2.757  0.9352  0.8750 -2.9855
  547SOL     OW 1639   1.610   0.853   0.747  0.3829 -0.6265 -0.1837
  547SOL    HW1 1640   1.607   0.929   0.680  0.8304  0.0666 -0.6067
  547SOL    HW2 1641   1.629   0.878   0.847 -2.0344 -2.1707  3.5261
  548SOL     OW 1642   1.857   1.999   2.446 -0.5081  1.3371 -0.0049
  548SOL    HW1 1643   1.872   1.999   2.548  2.0690  2.7548 -1.3123
  548SOL    HW2 1644   1.760   1.979   2.423 -3.3200 -0.5661  0.2412
  549SOL     OW 1645   2.145   0.522   0.448 -0.3913  0.3463 -0.0342
  549SOL    HW1 1646   2.086   0.600   0.439  2.6785 -2.5537 -1.3121
  549SOL    HW2 1647   2.124   0.470   0.533 -1.1014  1.5868 -1.3000
  550SOL     OW 1648   2.790   1.906   0.758  0.3370  0.1695 -0.5351
  550SOL    HW1 1649   2.893   1.923   0.743  0.3144  0.9060 -1.7322
  550SOL    HW2 1650   2.760   1.957   0.840  0.2182  1.5577 -1.1359
  551SOL     OW 1651   1.330   2.623   2.377 -0.3897 -0.2830  0.2363
  551SOL    HW1 1652   1.367   2.683   2.300 -1.2571  1.4686 -1.2244
  551SOL    HW2 1653   1.338   2.664   2.467 -0.5945 -0.7468 -3.3551
  552SOL     OW 1654   0.041   2.523   2.949  0.0003 -0.5886  0.4599
  552SOL    HW1 1655   0.030   2.430   2.989  2.1353 -0.0952 -3.2396
  552SOL    HW2 1656   0.044   2.519   2.848 -0.5720 -0.7553  0.6680
  553SOL     OW 1657   0.144   0.197   0.849  0.9724  0.1589 -0.0429
  553SOL    HW1 1658   0.217   0.164   0.912 -2.0261 -2.4917  0.9473
  553SOL    HW2 1659   0.053   0.148   0.877 -0.0234 -3.6339  1.7204
  554SOL     OW 1660   2.196   2.450   1.763  0.1013  0.4413  0.1431
  554SOL    HW1 1661   2.124   2.379   1.747 -0.5254 -1.5749  1.0516
  554SOL    HW2 1662   2.232   2.441   1.857 -0.0792  0.6198 -0.3438
  555SOL     OW 1663   1.754   2.385   2.332 -0.4659 -0.6530 -0.1702
  555SOL    HW1 1664   1.660   2.401   2.369  1.0144 -0.0383 -0.8765
  555SOL    HW2 1665   1.823   2.425   2.397  0.9280  1.5311  1.8126
  556SOL     OW 1666   1.194   1.394   1.344 -0.1411  0.4019  0.2805
  556SOL    HW1 1667   1.155   1.373   1.251 -0.6592  1.3019  1.2465
  556SOL    HW2 1668   1.296   1.395   1.339  0.2517 -2.4736  2.4579
  557SOL     OW 1669   1.960   2.453   2.502  0.0347  0.4513 -0.6075
  557SOL    HW1 1670   2.026   2.383   2.527 -0.6749  0.9133 -2.4984
  557SOL    HW2 1671   1.948   2.522   2.577  0.6626  1.0860 -2.8658
  558SOL     OW 1672   0.233   2.824   2.178  0.3206  0.3527  0.1170
  558SOL    HW1 1673   0.264   2.842   2.083  0.8930  1.2996 -0.2487
  558SOL    HW2 1674   0.277   2.890   2.243 -0.8586  2.1611  1.8909
  559SOL     OW 1675   2.250   2.941   0.784 -0.1867 -0.4305  0.2437
  559SOL    HW1 1676   2.231   2.854   0.734  1.2741  0.9812  2.2956
  559SOL    HW2 1677   2.178   3.011   0.764  0.2540  0.3409 -1.8799
  560SOL     OW 1678   1.839   2.639   0.526 -0.3443 -0.6776 -0.2728
  560SOL    HW1 1679   1.785   2.584   0.592  3.1681 -3.3587  2.1346
  560SOL    HW2 1680   1.887   2.721   0.574  0.7625  2.6017 -0.8447
  561SOL     OW 1681   0.938   0.031   0.700 -0.0772  0.8994  0.1591
  561SOL    HW1 1682   0.970   0.043   0.603  3.2105  1.8803  1.7819
  561SOL    HW2 1683   1.009   0.065   0.767 -1.3092 -1.5936  0.4848
  562SOL     OW 1684   0.655   0.853   2.475  0.3121 -0.2349 -0.2833
  562SOL    HW1 1685   0.683   0.776   2.539  0.4667 -0.1748  0.1509
  562SOL    HW2 1686   0.575   0.819   2.422 -1.3502  1.7721  1.9536
  563SOL     OW 1687   1.590   1.856   2.424 -0.4957  0.5689  0.5657
  563SOL    HW1 1688   1.538   1.852   2.511  0.4994  1.0063 -5.4868
  563SOL    HW2 1689   1.564   1.944   2.375  1.2083  0.0972 -0.1718
  564SOL     OW 1690   2.690   0.744   1.266 -0.3081  0.5806  0.6525
  564SOL    HW1 1691   2.613   0.677   1.274  1.5530  0.0623  1.0256
  564SOL    HW2 1692   2.752   0.729   1.187 -1.1904  2.4936 -0.1050
  565SOL     OW 1693   1.113   0.676   3.038  0.2911  0.3503 -0.3538
  565SOL    HW1 1694   1.185   0.718   2.975  2.0655  0.0371  0.3234
  565SOL    HW2 1695   1.016   0.665   2.997 -4.3107  0.3628  2.7449
  566SOL     OW 1696   2.117   0.279   2.751 -0.1102 -0.4441 -0.5686
  566SOL    HW1 1697   2.080   0.369   2.738 -1.6877 -0.6466  2.7525
  566SOL    HW2 1698   2.218   0.282   2.769  3.9394 -0.1090 -0.0325
  567SOL     OW 1699   2.094   1.387   0.381  0.9735  0.0544 -0.0446
  567SOL    HW1 1700   2.163   1.380   0.452  1.1713 -0.2135 -1.0632
  567SOL    HW2 1701   2.141   1.387   0.293 -1.2150  0.6722  2.2876
  568SOL     OW 1702   1.789   1.668   2.893 -0.4644 -0.2703  0.1318
  568SOL    HW1 1703   1.706   1.608   2.889  1.1361 -1.3403 -0.1601
  568SOL    HW2 1704   1.755   1.758   2.864 -0.2011 -2.0519 -1.5144
  569SOL     OW 1705   1.954   1.071   2.991  0.2297  0.5981  0.0886
  569SOL    HW1 1706   1.910   1.152   2.943 -2.4689  1.3679 -2.8095
  569SOL    HW2 1707   2.056   1.078   2.984 -0.4400  0.4744  0.2752
  570SOL     OW 1708   0.422   2.369   1.822  0.0116  0.4610 -0.2578
  570SOL    HW1 1709   0.481   2.423   1.754 -3.0154 -2.1741 -1.4555
  570SOL    HW2 1710   0.339   2.424   1.841  1.4756 -2.6720 -2.7881
  571SOL     OW 1711   0.235   1.139   1.978  0.2390  0.0616 -0.0206
  571SOL    HW1 1712   0.174   1.097   1.904  0.7926 -0.5125  2.0252
  571SOL    HW2 1713   0.233   1.077   2.058 -0.9894  0.2985 -1.8094
  572SOL     OW 1714   1.018   1.799   0.578  0.0680  0.0292 -0.2612
  572SOL    HW1 1715   1.052   1.745   0.658 -1.9852  0.0226  2.3871
  572SOL    HW2 1716   0.955   1.738   0.520 -1.0332 -1.9006 -2.3225
  573SOL     OW 1717   1.739   1.881   0.064 -0.2019  0.6767 -0.1732
  573SOL    HW1 1718   1.664   1.876   0.132  2.2795 -0.8012 -0.2780
  573SOL    HW2 1719   1.819   1.918   0.101 -1.2134 -2.3088 -2.3719
  574SOL     OW 1720   0.909   2.969   1.070 -0.5126  0.0272  0.0893
  574SOL    HW1 1721   0.821   2.927   1.105  2.8023  0.3527  0.7003
  574SOL    HW2 1722   0.898   3.017   0.982 -1.6172  1.2505  2.4539
  575SOL     OW 1723   0.324   1.127   1.366 -0.0690 -0.2683  0.4424
  575SOL    HW1 1724   0.340   1.141   1.469  0.7932 -1.6762  1.3509
  575SOL    HW2 1725   0.331   1.210   1.311 -2.0643 -0.5757  1.9173
  576SOL     OW 1726   2.652   0.008   1.054  0.3758  0.8557  0.1298
  576SOL    HW1 1727   2.563   0.016   1.105  0.4798 -2.0990 -2.3248
  576SOL    HW2 1728   2.628   3.079   0.961  1.8427  0.8728 -0.6388
  577SOL     OW 1729   0.939   1.099   2.121  0.0735 -0.3497 -0.5549
  577SOL    HW1 1730   0.951   1.172   2.051 -2.7653 -0.1263  1.3264
  577SOL    HW2 1731   0.842   1.104   2.152 -1.1823 -0.7535 -0.8341
  578SOL     OW 1732   1.883   0.944   2.576  0.1878 -0.0799  0.1923
  578SOL    HW1 1733   1.830   1.016   2.527  0.3094 -0.8091 -2.7393
  578SOL    HW2 1734   1.936   0.988   2.647  2.2097  2.3862  0.1569
  579SOL     OW 1735   2.026   2.232   1.736  0.4771 -0.0423 -0.3750
  579SOL    HW1 1736   2.074   2.169   1.802  0.0255 -0.3708  2.6062
  579SOL    HW2 1737   1.958   2.181   1.682 -0.6326 -2.9537  1.1555
  580SOL     OW 1738   1.598   1.584   2.400  0.1140 -0.4273  0.0906
  580SOL    HW1 1739   1.641   1.670   2.427  0.9117  0.5391 -0.0604
  580SOL    HW2 1740   1.509   1.610   2.358 -2.2923 -0.6072  0.6702
  581SOL     OW 1741   1.262   1.289   2.408  0.0398  0.0407 -0.6161
  581SOL    HW1 1742   1.244   1.217   2.477  1.8568  0.8867  0.9832
  581SOL    HW2 1743   1.341   1.350   2.446  4.8731  2.5679  1.8157
  582SOL     OW 1744   1.027   1.478   1.800 -0.0809 -0.1999 -0.2247
  582SOL    HW1 1745   0.949   1.532   1.764  0.7382  1.3163 -0.0906
  582SOL    HW2 1746   1.114   1.473   1.746  1.7532  2.2110  1.4158
  583SOL     OW 1747   1.316   1.094   1.752  0.0880  0.3747  0.2970
  583SOL    HW1 1748   1.296   1.086   1.657  3.0905 -0.1637  3.3828
  583SOL    HW2 1749   1.385   1.170   1.765 -0.2251  2.4054 -0.7198
  584SOL     OW 1750   2.140   2.845   0.366 -0.0440 -0.1162  0.0258
  584SOL    HW1 1751   2.125   2.757   0.315  0.2319 -2.1580 -1.2969
  584SOL    HW2 1752   2.179   2.921   0.312  3.3039 -1.7887  0.7029
  585SOL     OW 1753   1.716   3.073   2.867  0.2720 -0.1619 -0.5433
  585SOL    HW1 1754   1.817   3.072   2.858 -0.0117 -1.1000 -0.7013
  585SOL    HW2 1755   1.690   3.067   2.967 -1.0214  0.1262  0.0070
  586SOL     OW 1756   2.825   1.939   1.156  0.7724  0.2579  0.1028
  586SOL    HW1 1757   2.885   1.858   1.171  3.6941  0.1609  1.7698
  586SOL    HW2 1758   2.744   1.924   1.216 -1.7790  1.6261 -1.6467
  587SOL     OW 1759   1.235   1.898   0.032 -0.5708  0.1784 -0.0296
  587SOL    HW1 1760   1.250   1.797   0.012 -0.2754 -2.4000 -1.0010
  587SOL    HW2 1761   1.208   1.945   3.051 -1.1247 -1.5215  0.5132
  588SOL     OW 1762   0.306   0.405   1.106 -0.1441 -0.2736 -0.4214
  588SOL    HW1 1763   0.383   0.382   1.040  1.0685 -2.1543 -0.6575
  588SOL    HW2 1764   0.302   0.338   1.182  1.3043 -2.0282  0.7975
  589SOL     OW 1765   1.226   0.038   0.568 -0.0322  0.0808  0.0938
  589SOL    HW1 1766   1.151   0.071   0.503 -1.0548 -0.8263 -1.2408
  589SOL    HW2 1767   1.211   0.065   0.664  1.7580 -1.1933  0.5489
  590SOL     OW 1768   1.272   0.830   2.879 -0.5344 -0.0213  0.3500
  590SOL    HW1 1769   1.248   0.833   2.780 -0.1662 -0.5725 -1.4450
  590SOL    HW2 1770   1.247   0.907   2.937 -0.9175 -0.7517 -1.2822
  591SOL     OW 1771   2.896   2.283   2.086  0.3456  0.1505 -0.2097
  591SOL    HW1 1772   2.938   2.361   2.131 -0.6227  1.0269 -5.1152
  591SOL    HW2 1773   2.939   2.262   1.999  0.2497  2.1849 -0.5151
  592SOL     OW 1774   2.422   1.408   1.793  0.1844  0.7116 -0.2047
  592SOL    HW1 1775   2.372   1.480   1.735 -1.9049  2.7119 -2.7208
  592SOL    HW2 1776   2.521   1.406   1.768  0.8016  0.9860  2.7244
  593SOL     OW 1777   1.267   1.106   1.476  0.3340  0.3465 -0.4339
  593SOL    HW1 1778   1.218   1.034   1.422  0.4117  0.7616  3.0560
  593SOL    HW2 1779   1.274   1.187   1.416 -0.1863  1.5460  0.1409
  594SOL     OW 1780   2.442   1.489   2.705  0.6621  0.2558  0.5349
  594SOL    HW1 1781   2.478   1.573   2.753  1.1783  0.7362  0.8117
  594SOL    HW2 1782   2.513   1.473   2.632  0.6370 -0.5087  1.4997
  595SOL     OW 1783   0.112   0.325   0.621  0.8102  0.2014  0.1572
  595SOL    HW1 1784   0.129   0.269   0.708 -0.4749 -2.1725 -0.8936
  595SOL    HW2 1785   0.015   0.360   0.616 -1.1680  0.8179 -1.4533
  596SOL     OW 1786   2.868   1.561   0.984  0.8462  0.3681 -0.2602
  596SOL    HW1 1787   2.941   1.517   1.042  0.0259 -0.7146  2.7673
  596SOL    HW2 1788   2.915   1.619   0.910  0.9003  2.2599 -2.1395
  597SOL     OW 1789   1.448   1.628   0.598 -0.7692 -0.2856 -0.0891
  597SOL    HW1 1790   1.471   1.692   0.677  0.3193 -1.4059  0.5632
  597SOL    HW2 1791   1.396   1.683   0.527  0.4240 -1.2927  2.5006
  598SOL     OW 1792   0.376   2.832   1.946  0.1164  0.1526 -0.7491
  598SOL    HW1 1793   0.359   2.892   1.864 -1.2937  0.8190  2.1063
  598SOL    HW2 1794   0.368   2.733   1.925  1.1919 -1.6204 -0.5338
  599SOL     OW 1795   3.087   1.509   2.688 -0.6181  0.2197  0.0483
  599SOL    HW1 1796   2.985   1.502   2.671  1.0422  1.4823 -0.6962
  599SOL    HW2 1797   0.009   1.594   2.744  1.0032  1.6982  0.9888
  600SOL     OW 1798   0.515   1.069   2.867 -0.1181  0.8916 -0.5005
  600SOL    HW1 1799   0.506   0.975   2.822  0.2125 -1.9785 -0.2922
  600SOL    HW2 1800   0.462   1.140   2.812 -0.4441 -1.5995 -0.5190
  601SOL     OW 1801   0.667   0.913   1.107 -0.0628 -0.0853  0.7468
  601SOL    HW1 1802   0.597   0.946   1.036 -0.0104  2.3037 -0.9067
  601SOL    HW2 1803   0.681   0.984   1.179 -1.3473 -2.7817 -2.1197
  602SOL     OW 1804   1.206   2.298   0.523 -0.2544  0.3205 -0.2067
  602SOL    HW1 1805   1.118   2.327   0.562  1.0382 -0.9995  0.0351
  602SOL    HW2 1806   1.277   2.359   0.559 -0.8807  1.9048 -0.8223
  603SOL     OW 1807   1.549   2.116   2.355  0.1112 -0.1424  0.1242
  603SOL    HW1 1808   1.552   2.215   2.375  2.9074 -0.0343  1.9905
  603SOL    HW2 1809   1.551   2.107   2.254  0.0805  0.8013 -0.2714
  604SOL     OW 1810   0.512   0.485   2.822  0.6515 -0.2294  0.1244
  604SOL    HW1 1811   0.413   0.491   2.817  2.4198 -0.1039 -1.5620
  604SOL    HW2 1812   0.545   0.391   2.801  1.6022 -1.6596 -0.7168
  605SOL     OW 1813   2.596   0.992   1.607  0.8519  0.0992  0.3141
  605SOL    HW1 1814   2.574   1.066   1.673  1.0099  0.1894 -1.7397
  605SOL    HW2 1815   2.597   1.036   1.515  0.0191  1.1014  0.0101
  606SOL     OW 1816   0.715   1.796   2.479  0.0196 -0.5473  0.0898
  606SOL    HW1 1817   0.746   1.894   2.481  0.6869 -3.1553 -0.8679
  606SOL    HW2 1818   0.789   1.753   2.426 -0.2973  1.7614  2.8494
  607SOL     OW 1819   0.660   0.071   0.714 -0.3655  0.5319  0.0303
  607SOL    HW1 1820   0.622   0.065   0.617 -0.8847 -3.1918 -0.0466
  607SOL    HW2 1821   0.760   0.050   0.718 -1.9049  1.8010  1.0560
  608SOL     OW 1822   2.373   1.742   1.460  0.0346 -0.4091  0.1006
  608SOL    HW1 1823   2.301   1.788   1.394 -2.9856  1.7394  0.5237
  608SOL    HW2 1824   2.329   1.670   1.516 -0.8727 -1.6030 -2.1127
  609SOL     OW 1825   2.716   0.319   0.712 -0.0188  0.0087 -0.2435
  609SOL    HW1 1826   2.687   0.308   0.807  1.3293  0.7438 -1.0891
  609SOL    HW2 1827   2.667   0.392   0.660  0.7284  0.5615 -2.2808
  610SOL     OW 1828   0.340   2.714   1.253  0.0805  0.2025 -0.1524
  610SOL    HW1 1829   0.324   2.614   1.268 -0.1529 -0.7302 -6.2490
  610SOL    HW2 1830   0.351   2.734   1.157  0.0848  1.3486 -0.1064
  611SOL     OW 1831   1.535   1.608   0.120  0.6343  0.5862 -0.0231
  611SOL    HW1 1832   1.634   1.586   0.123 -0.9947  3.1370 -3.1621
  611SOL    HW2 1833   1.508   1.686   0.184 -1.2465 -0.4699 -0.1896
  612SOL     OW 1834   0.741   2.716   2.264  0.2972  0.3020  0.3894
  612SOL    HW1 1835   0.681   2.677   2.336 -0.6270  2.4322  1.5858
  612SOL    HW2 1836   0.699   2.800   2.218  1.5117  2.0079 -1.0320
  613SOL     OW 1837   0.524   2.733   0.898 -0.1638  0.0084 -1.4038
  613SOL    HW1 1838   0.553   2.715   0.800 -2.1670  0.8997 -1.0030
  613SOL    HW2 1839   0.590   2.691   0.963 -0.8773  0.6319  0.4816
  614SOL     OW 1840   2.322   0.159   2.059 -0.1412  0.4776 -0.1947
  614SOL    HW1 1841   2.246   0.215   2.028  1.2129  0.4581  0.8595
  614SOL    HW2 1842   2.340   0.079   1.997  1.4061  1.2685 -2.6052
  615SOL     OW 1843   1.498   1.386   0.289  0.4085 -0.2841  0.5456
  615SOL    HW1 1844   1.486   1.467   0.231 -0.7960 -1.0730  1.1198
  615SOL    HW2 1845   1.574   1.398   0.351 -4.0261 -1.8746  1.6044
  616SOL     OW 1846   1.854   1.540   0.420 -0.0695  0.6109  0.2136
  616SOL    HW1 1847   1.830   1.592   0.337  0.1892  1.2332  0.3545
  616SOL    HW2 1848   1.918   1.462   0.400  1.6365  1.2735  2.9480
  617SOL     OW 1849   1.274   1.050   2.593  0.0245  0.0967 -0.0934
  617SOL    HW1 1850   1.256   0.948   2.593  0.7672 -1.6117 -1.1297
  617SOL    HW2 1851   1.370   1.066   2.575  1.1505 -2.6848  2.2566
  618SOL     OW 1852   0.568   2.903   2.111  0.2162  0.1564 -0.5129
  618SOL    HW1 1853   0.490   2.897   2.051 -1.3665  2.5170 -2.3572
  618SOL    HW2 1854   0.558   2.977   2.179 -0.2066 -2.3735  0.8549
  619SOL     OW 1855   2.786   1.427   1.447 -0.2524 -0.4050  0.2433
  619SOL    HW1 1856   2.882   1.407   1.480  0.4540 -0.0247  1.2913
  619SOL    HW2 1857   2.782   1.500   1.374  0.7033  1.2928  1.2670
  620SOL     OW 1858   2.383   0.291   2.837 -0.2780 -0.3291  0.1659
  620SOL    HW1 1859   2.413   0.341   2.753  1.3059 -3.1930 -0.4938
  620SOL    HW2 1860   2.404   0.192   2.835  1.5669 -3.5623  0.2146
  621SOL     OW 1861   2.605   2.081   2.599  0.2035 -0.2641  0.3021
  621SOL    HW1 1862   2.547   2.157   2.639  0.9658 -0.7468  0.2017
  621SOL    HW2 1863   2.547   1.998   2.610  1.5150 -1.9342 -0.8963
  622SOL     OW 1864   0.922   0.954   2.520 -0.1418 -0.5770 -0.5266
  622SOL    HW1 1865   0.829   0.922   2.492 -1.3965  0.4770  0.7230
  622SOL    HW2 1866   0.993   0.949   2.447 -0.2084  1.4893 -1.5791
  623SOL     OW 1867   0.695   1.114   2.235 -0.2789 -0.4657  0.2303
  623SOL    HW1 1868   0.671   1.149   2.329  0.4881  0.9047 -0.6800
  623SOL    HW2 1869   0.646   1.025   2.213 -0.6975 -2.0719 -2.7148
  624SOL     OW 1870   2.835   0.512   0.304 -0.4209  0.1558 -0.0930
  624SOL    HW1 1871   2.794   0.480   0.216  2.1182 -1.4341 -1.3673
  624SOL    HW2 1872   2.892   0.594   0.284  0.5599  0.2137  1.6445
  625SOL     OW 1873   0.947   2.322   1.140  0.3211  0.5174 -0.1581
  625SOL    HW1 1874   0.857   2.364   1.136  1.0663 -0.8190  1.4562
  625SOL    HW2 1875   1.004   2.367   1.212 -1.4849 -0.5373 -1.5530
  626SOL     OW 1876   2.023   0.546   2.710 -0.0420  0.4450 -0.2914
  626SOL    HW1 1877   2.058   0.571   2.803 -0.4538  2.8831  0.9367
  626SOL    HW2 1878   1.928   0.582   2.696 -0.5499 -0.6054  2.7924
  627SOL     OW 1879   1.526   2.819   2.884 -0.1667  0.6876 -0.4854
  627SOL    HW1 1880   1.474   2.906   2.865 -3.1023 -1.8976  1.9080
  627SOL    HW2 1881   1.495   2.741   2.827  0.2088  1.0695 -1.5470
  628SOL     OW 1882   2.429   2.947   2.170 -0.4402  0.6617  0.3438
  628SOL    HW1 1883   2.523   2.975   2.195 -0.4823  0.5683  0.1181
  628SOL    HW2 1884   2.365   3.023   2.193 -0.0353 -0.6231  0.5356
  629SOL     OW 1885   1.058   3.105   2.315 -0.1293 -0.0610 -0.8147
  629SOL    HW1 1886   1.153   0.001   2.285 -0.8948 -0.4433 -3.8238
  629SOL    HW2 1887   1.000   3.084   2.239  0.4918  0.6870  4.4959
  630SOL     OW 1888   0.894   0.339   2.420 -0.1162 -0.1791 -0.0989
  630SOL    HW1 1889   0.891   0.410   2.499  0.0318  2.4336  2.1225
  630SOL    HW2 1890   0.874   0.240   2.452  0.4011  0.5898  1.4620
  631SOL     OW 1891   1.895   1.113   0.777 -0.3254  0.3092  0.1444
  631SOL    HW1 1892   1.798   1.124   0.759 -0.8654  1.1070  0.2363
  631SOL    HW2 1893   1.912   1.089   0.875  1.1485  3.2396  1.0536
  632SOL     OW 1894   2.475   0.402   1.749  0.0527 -0.0903 -0.1690
  632SOL    HW1 1895   2.374   0.406   1.733 -3.2093  2.0034  0.5924
  632SOL    HW2 1896   2.521   0.493   1.744  1.3526 -0.1991  2.2554
  633SOL     OW 1897   1.039   1.801   0.247  0.1581 -0.2108 -0.1473
  633SOL    HW1 1898   1.111   1.806   0.179 -0.8063  0.4779 -0.5295
  633SOL    HW2 1899   0.982   1.715   0.232  0.4452 -1.7409 -0.6535
  634SOL     OW 1900   2.694   3.078   1.801 -0.4863 -0.3686 -0.2208
  634SOL    HW1 1901   2.630   0.032   1.756  1.0955  0.2777  0.8176
  634SOL    HW2 1902   2.789   0.009   1.788 -1.5776  0.4588 -0.3505
  635SOL     OW 1903   1.619   0.448   0.931  0.0529 -0.4650  0.0321
  635SOL    HW1 1904   1.623   0.485   1.026  1.3570  0.5248  0.8332
  635SOL    HW2 1905   1.665   0.359   0.920  0.1342 -1.1333 -0.5514
  636SOL     OW 1906   0.703   1.203   0.037 -0.7028  0.3053 -0.0935
  636SOL    HW1 1907   0.665   1.107   0.060  1.5339  1.1913 -0.1673
  636SOL    HW2 1908   0.635   1.258   3.100 -0.4440 -1.7069  2.7805
  637SOL     OW 1909   2.864   2.268   2.912 -0.0234 -0.5600  0.2141
  637SOL    HW1 1910   2.853   2.170   2.883 -1.5713  0.4619  0.2566
  637SOL    HW2 1911   2.958   2.283   2.950 -0.4781 -0.3991 -0.3775
  638SOL     OW 1912   1.530   2.288   2.845 -0.1770  0.1572 -0.0606
  638SOL    HW1 1913   1.601   2.347   2.805  0.8781 -0.1337  0.6494
  638SOL    HW2 1914   1.544   2.262   2.943  0.3454  0.8524 -1.0100
  639SOL     OW 1915   1.710   1.780   0.747 -0.2016  0.6329 -0.0562
  639SOL    HW1 1916   1.628   1.802   0.800  1.2207  1.1945  1.9377
  639SOL    HW2 1917   1.693   1.802   0.648  0.1367  0.3115  0.6583
  640SOL     OW 1918   1.955   3.031   0.439  0.5040 -0.4765 -0.0510
  640SOL    HW1 1919   2.021   2.959   0.406  1.2760 -1.8871 -1.0061
  640SOL    HW2 1920   1.952   0.009   0.378  1.0679  0.2522 -0.8852
  641SOL     OW 1921   2.687   0.450   0.083  0.1313 -0.7026 -0.2562
  641SOL    HW1 1922   2.613   0.503   0.132 -1.0403 -0.0433  0.9062
  641SOL    HW2 1923   2.659   0.355   0.079  0.0347 -1.6770  1.2629
  642SOL     OW 1924   0.238   0.672   1.219  0.3856  0.0039 -0.0186
  642SOL    HW1 1925   0.240   0.572   1.194 -0.3417  0.1037  0.3245
  642SOL    HW2 1926   0.204   0.674   1.315 -0.7275 -0.2119 -1.0539
  643SOL     OW 1927   0.416   1.531   2.127  0.3698 -0.0309  0.0582
  643SOL    HW1 1928   0.499   1.478   2.155 -3.5362 -0.0612  0.3226
  643SOL    HW2 1929   0.424   1.632   2.135 -1.1067  1.6113 -2.3840
  644SOL     OW 1930   2.198   2.363   0.638  0.0129  0.2553 -0.0059
  644SOL    HW1 1931   2.172   2.362   0.542 -3.1214 -2.7543 -0.6533
  644SOL    HW2 1932   2.133   2.309   0.692 -1.9219 -0.0685  0.3986
  645SOL     OW 1933   2.135   2.204   1.143  0.2239 -0.1577  0.2447
  645SOL    HW1 1934   2.198   2.202   1.061  2.3297  0.4896  2.3766
  645SOL    HW2 1935   2.036   2.186   1.117 -0.4419 -0.0732 -0.6947
  646SOL     OW 1936   0.885   2.297   2.922  0.4439  0.1905  0.1694
  646SOL    HW1 1937   0.867   2.208   2.969 -1.2742  1.2381  0.0871
  646SOL    HW2 1938   0.837   2.365   2.977  0.2069  0.2751  0.9424
  647SOL     OW 1939   1.018   2.716   1.794  0.1737  0.5577 -0.5470
  647SOL    HW1 1940   1.091   2.640   1.788  0.4920 -0.4262 -0.5292
  647SOL    HW2 1941   1.034   2.775   1.879 -1.0426  3.0147  0.7632
  648SOL     OW 1942   1.432   0.288   1.230 -0.3858  0.3829 -0.1050
  648SOL    HW1 1943   1.475   0.205   1.273 -0.8498 -0.5772  0.1785
  648SOL    HW2 1944   1.496   0.368   1.250 -1.3266 -1.7343  3.9092
  649SOL     OW 1945   1.534   2.087   0.241  0.1736  0.2580 -0.5815
  649SOL    HW1 1946   1.433   2.096   0.223  0.0281 -0.6283  4.1073
  649SOL    HW2 1947   1.579   2.174   0.264  0.2301 -1.4409 -1.7378
  650SOL     OW 1948   2.299   1.486   1.536  1.0823 -0.3013 -0.5164
  650SOL    HW1 1949   2.212   1.539   1.559 -3.9276  0.3329  1.4456
  650SOL    HW2 1950   2.310   1.476   1.435 -2.0269 -2.0028  0.4794
  651SOL     OW 1951   1.719   2.668   3.035  0.6628  0.1368 -0.2032
  651SOL    HW1 1952   1.639   2.705   2.984  0.8841 -0.8287 -3.2474
  651SOL    HW2 1953   1.751   2.588   2.985  4.5248  0.7787 -2.1394
  652SOL     OW 1954   0.194   2.077   2.984 -0.2629  0.2881 -0.0492
  652SOL    HW1 1955   0.142   2.011   3.041 -1.2423 -0.6694 -2.6346
  652SOL    HW2 1956   0.278   2.106   3.027 -3.3449 -1.1290  0.8487
  653SOL     OW 1957   2.930   2.934   0.984 -0.3027 -0.3016  0.8182
  653SOL    HW1 1958   2.988   2.855   0.942  0.5434  1.7630  0.4270
  653SOL    HW2 1959   2.839   2.904   1.015 -2.7400  1.2634  1.9345
  654SOL     OW 1960   2.794   2.907   1.992 -0.4532 -0.2813  0.2064
  654SOL    HW1 1961   2.897   2.914   2.007 -0.6500 -1.2127 -0.3863
  654SOL    HW2 1962   2.762   2.971   1.920 -0.3464 -1.9638  3.4877
  655SOL     OW 1963   0.077   2.096   1.112  0.2823  0.8142 -0.2418
  655SOL    HW1 1964   0.082   2.059   1.211 -2.0061  0.5395  1.0299
  655SOL    HW2 1965   0.089   2.015   1.052  0.4863  0.9085  0.6011
  656SOL     OW 1966   2.879   3.016   2.417  0.0237  0.0249  0.1497
  656SOL    HW1 1967   2.815   3.001   2.338  1.8520  0.2457  0.0061
  656SOL    HW2 1968   2.924   2.926   2.435  0.8860 -1.0997  0.7139
  657SOL     OW 1969   2.898   1.334   2.853 -0.0981 -0.0418 -0.6756
  657SOL    HW1 1970   2.985   1.281   2.836  1.3548 -0.0672 -1.0236
  657SOL    HW2 1971   2.841   1.300   2.933  0.9374  0.7942 -0.9664
  658SOL     OW 1972   2.477   1.682   0.984  0.8846  0.0698  0.2174
  658SOL    HW1 1973   2.486   1.593   1.034  1.9560 -1.9800  1.9268
  658SOL    HW2 1974   2.543   1.697   0.911  1.4074  2.1553  1.8989
  659SOL     OW 1975   1.671   0.180   1.048 -0.1443 -0.2756 -0.5910
  659SOL    HW1 1976   1.722   0.106   1.007 -0.8184  0.3995  2.7194
  659SOL    HW2 1977   1.571   0.161   1.041  0.6721  0.5624  1.3223
  660SOL     OW 1978   1.535   1.330   2.824  0.2122 -0.2556 -0.8461
  660SOL    HW1 1979   1.469   1.295   2.896  0.8163 -0.1664  1.3485
  660SOL    HW2 1980   1.541   1.430   2.835  1.3597  0.8187  1.4633
  661SOL     OW 1981   0.401   2.301   1.076 -0.0604 -0.1529  0.4032
  661SOL    HW1 1982   0.490   2.347   1.072  1.3108 -0.5779 -0.4000
  661SOL    HW2 1983   0.326   2.358   1.123  0.4504  1.9599 -1.4367
  662SOL     OW 1984   2.894   0.547   2.640 -0.6000  0.2294 -0.5817
  662SOL    HW1 1985   2.845   0.635   2.663  0.7253  2.2038  4.4158
  662SOL    HW2 1986   2.854   0.505   2.555 -2.2962 -0.1473  1.2620
  663SOL     OW 1987   1.934   1.719   1.014 -0.0776 -0.0817 -0.3131
  663SOL    HW1 1988   1.870   1.647   0.977  1.7607  1.9155  0.1437
  663SOL    HW2 1989   1.877   1.790   1.063 -1.0003  2.4267  1.6153
  664SOL     OW 1990   0.818   1.183   1.055  0.2447 -0.8247 -0.4684
  664SOL    HW1 1991   0.765   1.159   1.140 -1.5322 -3.2639  1.6627
  664SOL    HW2 1992   0.838   1.280   1.060 -1.9033 -0.2350  1.0441
  665SOL     OW 1993   1.653   2.658   2.445  0.2157  0.1941 -0.1750
  665SOL    HW1 1994   1.590   2.592   2.397  2.6323  0.4894  1.0308
  665SOL    HW2 1995   1.712   2.700   2.380 -1.4199  1.6356 -0.8932
  666SOL     OW 1996   2.855   2.903   2.760 -0.0321 -0.4675  0.2228
  666SOL    HW1 1997   2.919   2.873   2.832 -1.4321 -0.4143 -1.1093
  666SOL    HW2 1998   2.808   2.990   2.782 -0.2648 -1.8306  0.0562
  667SOL     OW 1999   2.381   1.464   2.049 -0.0649  0.4387  0.2181
  667SOL    HW1 2000   2.397   1.434   1.952 -0.2776 -0.0615  2.5531
  667SOL    HW2 2001   2.338   1.556   2.060 -0.5238  0.5329  0.5080
  668SOL     OW 2002   0.293   1.117   2.548 -0.4689 -0.1771 -0.0887
  668SOL    HW1 2003   0.327   1.173   2.625  0.9821 -0.2943 -1.6111
  668SOL    HW2 2004   0.294   1.175   2.460 -0.8281 -1.2504 -0.0201
  669SOL     OW 2005   2.183   2.257   2.599  0.4245 -0.6991 -0.4532
  669SOL    HW1 2006   2.190   2.205   2.514  2.3742 -0.0220  1.5979
  669SOL    HW2 2007   2.273   2.279   2.648  0.7257 -1.8058 -0.5433
  670SOL     OW 2008   2.353   0.992   1.930 -0.1768  0.1858  0.0121
  670SOL    HW1 2009   2.276   1.056   1.937 -1.3021  0.0835 -2.2674
  670SOL    HW2 2010   2.409   1.015   1.848 -1.9303  0.4104 -1.8326
  671SOL     OW 2011   2.584   1.324   0.092  0.3403  0.0220  0.7357
  671SOL    HW1 2012   2.659   1.284   0.036 -1.3417 -0.5085  2.3609
  671SOL    HW2 2013   2.528   1.388   0.038  2.4807 -3.1462  0.7400
  672SOL     OW 2014   2.461   1.120   2.136  0.4848  0.3820 -0.8277
  672SOL    HW1 2015   2.430   1.069   2.051  1.1972 -1.8983 -2.4906
  672SOL    HW2 2016   2.559   1.143   2.131  1.6118  0.7644 -0.2035
  673SOL     OW 2017   2.765   0.820   2.016  0.2671  0.8393  0.0085
  673SOL    HW1 2018   2.706   0.846   2.096 -1.3304 -0.4992 -0.5461
  673SOL    HW2 2019   2.847   0.766   2.050 -0.1698 -1.3443 -1.1511
  674SOL     OW 2020   2.020   1.783   1.489  0.1905  0.0315 -0.6356
  674SOL    HW1 2021   1.919   1.790   1.477  1.6291 -1.4186  2.1723
  674SOL    HW2 2022   2.047   1.874   1.526 -4.1143  0.2203  2.1375
  675SOL     OW 2023   0.498   0.661   0.914  0.2863  0.0529 -0.7551
  675SOL    HW1 2024   0.452   0.714   0.988 -1.0120 -0.9955 -0.9247
  675SOL    HW2 2025   0.565   0.603   0.959  0.2152 -1.2397 -2.7571
  676SOL     OW 2026   1.719   1.190   1.202 -0.0903  0.1813 -0.2970
  676SOL    HW1 2027   1.724   1.281   1.150 -1.1003  0.7553  1.5261
  676SOL    HW2 2028   1.649   1.194   1.276 -0.0605  0.3985  0.4701
  677SOL     OW 2029   2.575   1.538   2.252 -0.5397  0.0932  0.0446
  677SOL    HW1 2030   2.501   1.481   2.202 -2.4898 -2.0596  0.9175
  677SOL    HW2 2031   2.541   1.633   2.252 -0.7154  1.1852 -1.8039
  678SOL     OW 2032   0.066   1.542   0.538  0.4667 -0.0728 -0.1686
  678SOL    HW1 2033   0.049   1.465   0.598 -3.1403 -0.8136 -2.8678
  678SOL    HW2 2034   3.087   1.573   0.484 -1.0954  0.6509  2.0970
  679SOL     OW 2035   2.553   2.560   0.424 -0.6705 -0.2506  0.1895
  679SOL    HW1 2036   2.512   2.583   0.512  2.7931  1.2225 -1.5733
  679SOL    HW2 2037   2.628   2.631   0.405  1.6653  0.6389  1.3868
  680SOL     OW 2038   2.687   2.247   1.569  0.0908 -0.1331  0.0501
  680SOL    HW1 2039   2.651   2.213   1.478 -3.4965 -2.6871  2.7922
  680SOL    HW2 2040   2.720   2.167   1.626  0.3960 -1.3542  0.1469
  681SOL     OW 2041   0.346   1.323   1.166  0.2905  0.5066 -0.1253
  681SOL    HW1 2042   0.412   1.288   1.098 -2.0912  1.1725  2.1984
  681SOL    HW2 2043   0.252   1.302   1.139 -0.6106 -0.9489 -3.6774
  682SOL     OW 2044   1.788   2.493   0.779 -0.3719 -0.3681  0.1234
  682SOL    HW1 2045   1.730   2.526   0.849  2.7965 -0.6321 -0.8741
  682SOL    HW2 2046   1.753   2.407   0.741  1.8242  0.9941 -2.2469
  683SOL     OW 2047   2.309   1.299   0.520  0.3568  0.4326 -0.2437
  683SOL    HW1 2048   2.356   1.332   0.603 -1.4547 -3.0075  1.1873
  683SOL    HW2 2049   2.369   1.311   0.440 -0.0091  1.2018  0.4280
  684SOL     OW 2050   0.845   2.244   1.875  0.1100 -0.1505  0.4080
  684SOL    HW1 2051   0.821   2.336   1.845 -1.5849 -0.7013  1.9891
  684SOL    HW2 2052   0.809   2.178   1.804 -0.3832 -0.4279  0.2273
  685SOL     OW 2053   1.926   1.404   0.019 -0.0338 -0.0119  0.1377
  685SOL    HW1 2054   1.993   1.345   0.071  0.8150 -0.4648 -2.2353
  685SOL    HW2 2055   1.885   1.366   3.040  0.1428  0.9660  0.3166
  686SOL     OW 2056   0.483   0.450   0.714  0.4020 -0.5269  0.8881
  686SOL    HW1 2057   0.478   0.378   0.786  0.9421  1.2371 -1.8924
  686SOL    HW2 2058   0.493   0.537   0.761 -1.4317 -1.7290 -2.0860
  687SOL     OW 2059   1.210   2.598   2.827  0.2444  0.0393 -0.0992
  687SOL    HW1 2060   1.169   2.510   2.797 -1.7841 -1.1291 -0.3353
  687SOL    HW2 2061   1.280   2.573   2.898  1.6688  1.9147 -0.5692
  688SOL     OW 2062   2.291   1.790   1.759  0.5863 -0.2511 -0.0831
  688SOL    HW1 2063   2.384   1.796   1.793 -0.4459 -3.6012  0.9973
  688SOL    HW2 2064   2.264   1.855   1.679 -1.4826  3.1931 -2.6009
  689SOL     OW 2065   2.362   0.713   1.985 -0.0544  0.0227 -0.2371
  689SOL    HW1 2066   2.454   0.675   1.970 -0.7880  0.5574  2.4663
  689SOL    HW2 2067   2.353   0.813   1.969  0.1499  0.1276  0.5420
  690SOL     OW 2068   1.986   0.776   1.534  0.3341 -0.4073  0.3623
  690SOL    HW1 2069   1.936   0.842   1.480  0.2226  0.7167  3.1193
  690SOL    HW2 2070   2.076   0.814   1.571  0.6155  1.4183  3.1190
  691SOL     OW 2071   1.189   1.927   1.362 -0.1951  0.3962  0.4365
  691SOL    HW1 2072   1.141   1.914   1.450  0.4370 -4.8990 -0.3767
  691SOL    HW2 2073   1.156   2.002   1.300 -1.4742  1.3975 -0.7742
  692SOL     OW 2074   1.802   0.146   1.492 -0.1390  0.2380 -0.5223
  692SOL    HW1 2075   1.725   0.194   1.539  0.5107 -2.9632 -0.7309
  692SOL    HW2 2076   1.885   0.204   1.504  0.8449  2.3739 -0.6234
  693SOL     OW 2077   0.611   1.115   2.501  0.2573  0.2600  0.4567
  693SOL    HW1 2078   0.648   1.017   2.504  0.1243 -1.3276 -0.8455
  693SOL    HW2 2079   0.506   1.109   2.502 -2.6314  2.6598  0.0899
  694SOL     OW 2080   2.073   2.747   1.148 -0.1973  0.0782  0.5610
  694SOL    HW1 2081   2.124   2.685   1.084  0.5818 -0.3453  2.0420
  694SOL    HW2 2082   2.041   2.694   1.226  1.0570  2.6956 -1.8908
  695SOL     OW 2083   1.475   1.385   2.035  0.3309  0.4809  0.0177
  695SOL    HW1 2084   1.446   1.353   1.942  0.7270 -0.2016  1.9556
  695SOL    HW2 2085   1.471   1.490   2.045  0.6856  1.1003 -1.6088
  696SOL     OW 2086   1.659   0.438   1.336  0.3651  0.1334 -0.4925
  696SOL    HW1 2087   1.740   0.377   1.316 -0.4373  1.3627  2.1134
  696SOL    HW2 2088   1.676   0.472   1.430  1.4141 -0.0507  1.2515
  697SOL     OW 2089   1.399   0.152   1.002  0.5655 -0.2829  0.5111
  697SOL    HW1 2090   1.413   0.051   1.016  2.0269  0.8951 -3.2331
  697SOL    HW2 2091   1.398   0.213   1.087  0.2830  2.0098 -0.3859
  698SOL     OW 2092   1.692   1.192   1.969 -1.1971  0.3423  0.1964
  698SOL    HW1 2093   1.789   1.240   1.967  1.9177  1.2457  0.8831
  698SOL    HW2 2094   1.619   1.263   1.984 -1.1569  0.2737  0.8392
  699SOL     OW 2095   1.541   1.143   1.447 -0.4086  0.1809  0.3093
  699SOL    HW1 2096   1.448   1.105   1.462 -0.0441 -0.3103  2.2080
  699SOL    HW2 2097   1.605   1.099   1.515  0.5195 -0.6317 -1.2907
  700SOL     OW 2098   1.541   0.125   0.456  0.3145  0.4893 -0.4081
  700SOL    HW1 2099   1.601   0.202   0.439 -2.5429 -2.1160 -1.4212
  700SOL    HW2 2100   1.462   0.122   0.385 -0.2796 -3.4901  1.0126
  701SOL     OW 2101   0.308   2.978   1.715 -0.5639 -0.3721  0.3226
  701SOL    HW1 2102   0.352   3.070   1.718  1.0117 -0.7669  0.6973
  701SOL    HW2 2103   0.350   2.921   1.640  1.0583  0.0287 -2.0798
  702SOL     OW 2104   1.351   2.865   0.240  0.0346  0.3843 -0.1202
  702SOL    HW1 2105   1.375   2.911   0.327  0.2901 -2.7255  2.6039
  702SOL    HW2 2106   1.428   2.806   0.201  2.8114  0.1645  1.7066
  703SOL     OW 2107   2.509   0.328   2.139  0.3901  0.0203 -0.5216
  703SOL    HW1 2108   2.470   0.412   2.187 -2.3780 -0.6791  2.2558
  703SOL    HW2 2109   2.436   0.263   2.107 -1.1871 -0.6555 -2.0487
  704SOL     OW 2110   1.304   2.137   1.029  0.4263 -0.4244  0.3546
  704SOL    HW1 2111   1.387   2.150   1.086 -0.5385 -2.1767  2.4754
  704SOL    HW2 2112   1.231   2.096   1.089 -2.5824  2.0103  0.2551
  705SOL     OW 2113   3.002   1.075   2.105 -0.0496  0.3945 -1.0009
  705SOL    HW1 2114   2.929   1.034   2.166  1.0724 -0.6966  0.1067
  705SOL    HW2 2115   2.977   1.064   2.008  1.2250  0.8243  0.9209
  706SOL     OW 2116   1.559   0.163   0.717  0.1841 -0.2154 -0.1671
  706SOL    HW1 2117   1.473   0.196   0.766 -2.5188 -1.3102  1.9451
  706SOL    HW2 2118   1.533   0.142   0.622  2.1407  0.4559  0.0824
  707SOL     OW 2119   1.119   2.182   2.332 -0.1365 -0.6651  0.1484
  707SOL    HW1 2120   1.018   2.166   2.346 -3.1778 -0.7300  2.6835
  707SOL    HW2 2121   1.170   2.144   2.408 -1.5068  0.8142  0.1666
  708SOL     OW 2122   3.008   2.230   1.314  0.2022 -0.2187 -0.3310
  708SOL    HW1 2123   3.052   2.170   1.246  2.4653 -2.9022  1.7390
  708SOL    HW2 2124   2.986   2.179   1.400 -0.6692 -0.0921  0.0284
  709SOL     OW 2125   1.806   0.507   1.794 -0.0633  0.4365 -0.3548
  709SOL    HW1 2126   1.831   0.410   1.819  2.3233 -1.6976 -0.7906
  709SOL    HW2 2127   1.816   0.573   1.874  2.1149 -0.0122  0.6555
  710SOL     OW 2128   2.911   0.150   1.450 -0.1245 -0.2197 -0.3904
  710SOL    HW1 2129   2.871   0.076   1.395  1.7350  0.0769  0.8817
  710SOL    HW2 2130   2.839   0.202   1.502  0.9256  0.1168  2.4976
  711SOL     OW 2131   0.287   2.368   0.789 -0.4263  0.3263  0.2718
  711SOL    HW1 2132   0.382   2.362   0.825  2.6282 -0.4547 -2.2098
  711SOL    HW2 2133   0.215   2.332   0.852 -2.7922  2.2887  0.7694
  712SOL     OW 2134   0.150   2.281   2.526 -0.4030  0.2311 -0.3531
  712SOL    HW1 2135   0.121   2.187   2.492 -1.3394  0.9247 -0.8145
  712SOL    HW2 2136   0.219   2.320   2.457  0.3793 -0.7342 -0.7688
  713SOL     OW 2137   1.796   0.730   0.073 -0.0962 -0.1729 -0.1390
  713SOL    HW1 2138   1.791   0.823   0.116  1.1311  2.8503  0.1395
  713SOL    HW2 2139   1.753   0.733   3.090  0.9542 -0.3429 -0.6422
  714SOL     OW 2140   1.499   1.828   0.305  0.1938  0.2350  0.3488
  714SOL    HW1 2141   1.516   1.925   0.275 -2.7106 -1.0900  1.4296
  714SOL    HW2 2142   1.405   1.818   0.348 -0.8728  1.0269  0.2051
  715SOL     OW 2143   2.541   0.121   0.661 -0.1930 -0.2764  0.2353
  715SOL    HW1 2144   2.604   0.199   0.682  1.0650  0.0173  0.1146
  715SOL    HW2 2145   2.480   0.105   0.742 -0.7045 -0.1524 -0.5477
  716SOL     OW 2146   0.590   0.495   2.407  0.6075  0.2450 -0.1998
  716SOL    HW1 2147   0.592   0.559   2.487  0.9204 -1.4894 -0.8706
  716SOL    HW2 2148   0.561   0.403   2.441  2.8147  3.2071  0.1464
  717SOL     OW 2149   0.224   0.242   2.784 -0.0687  0.1538  0.0718
  717SOL    HW1 2150   0.267   0.207   2.691 -0.8357  1.2396 -2.5258
  717SOL    HW2 2151   0.125   0.208   2.793 -4.4013 -4.0860  0.5932
  718SOL     OW 2152   1.081   0.601   0.501 -0.3490 -0.3609  0.1060
  718SOL    HW1 2153   1.094   0.522   0.566  2.1926  0.5556  1.5433
  718SOL    HW2 2154   1.115   0.570   0.409  1.7149 -1.9095  0.4445
  719SOL     OW 2155   2.511   2.102   2.909 -0.2202  0.5695  0.4277
  719SOL    HW1 2156   2.467   2.033   2.969  2.5869 -0.6062 -2.7037
  719SOL    HW2 2157   2.611   2.078   2.891  0.1788  0.5300  0.5164
  720SOL     OW 2158   1.268   0.978   1.166 -0.2709  0.7479  0.0311
  720SOL    HW1 2159   1.260   1.049   1.093  1.9542 -0.1317 -0.4383
  720SOL    HW2 2160   1.180   0.963   1.216 -1.4387 -0.2175  2.3095
  721SOL     OW 2161   2.919   0.829   0.477 -0.4117  0.1493  0.0550
  721SOL    HW1 2162   2.844   0.797   0.535  0.4718 -0.3034  2.9699
  721SOL    HW2 2163   2.974   0.894   0.527  0.4533 -2.4074  0.8877
  722SOL     OW 2164   0.913   1.991   2.612 -0.2422  0.1722  0.4907
  722SOL    HW1 2165   0.912   1.930   2.695  0.0563  1.1645 -0.3380
  722SOL    HW2 2166   0.900   2.089   2.642 -1.8540  2.0413 -1.9211
  723SOL     OW 2167   0.678   0.798   0.436  0.1446 -0.2713  0.1714
  723SOL    HW1 2168   0.723   0.807   0.525  1.6486  1.2604 -2.2685
  723SOL    HW2 2169   0.577   0.786   0.438 -2.1045 -2.0417 -2.3359
  724SOL     OW 2170   0.954   1.913   1.605  0.2241 -0.0233  0.2674
  724SOL    HW1 2171   0.905   1.843   1.546 -1.2928  0.8140  0.7197
  724SOL    HW2 2172   0.885   1.960   1.667 -2.3943  0.6610  1.5154
  725SOL     OW 2173   0.109   0.997   1.489 -0.4290  0.2105  0.1044
  725SOL    HW1 2174   0.173   1.061   1.439  1.8121  1.0668 -4.1349
  725SOL    HW2 2175   0.152   0.904   1.499  1.1750  0.2146  1.5952
  726SOL     OW 2176   1.796   0.300   0.703 -0.2255  0.0850  0.2530
  726SOL    HW1 2177   1.715   0.241   0.720  0.5768 -2.5018 -0.3648
  726SOL    HW2 2178   1.771   0.395   0.721  2.5502 -1.6110 -1.1287
  727SOL     OW 2179   1.516   1.010   2.346 -0.0932 -0.2179  0.3278
  727SOL    HW1 2180   1.477   1.081   2.283 -0.9624 -3.7800 -2.8125
  727SOL    HW2 2181   1.457   0.930   2.347  0.2309  1.6958  0.4697
  728SOL     OW 2182   1.774   2.418   1.113 -0.0414  0.4936  0.0597
  728SOL    HW1 2183   1.708   2.465   1.053  2.3990  0.9470 -1.3689
  728SOL    HW2 2184   1.757   2.438   1.209  0.6861 -2.1695 -0.2191
  729SOL     OW 2185   1.255   0.594   1.501 -0.1466  0.2045 -0.1178
  729SOL    HW1 2186   1.228   0.559   1.411  1.8832  1.5968  1.6781
  729SOL    HW2 2187   1.275   0.520   1.571 -3.9744 -2.1481  0.6829
  730SOL     OW 2188   0.724   2.065   1.688 -0.5269  0.1049  0.0561
  730SOL    HW1 2189   0.631   2.094   1.698 -0.2521 -0.3106 -1.7283
  730SOL    HW2 2190   0.763   2.111   1.609 -0.1636 -1.6342  0.0258
  731SOL     OW 2191   0.448   0.373   0.281  0.2769 -0.0319 -0.1792
  731SOL    HW1 2192   0.385   0.393   0.358 -1.9056  1.7998 -0.1239
  731SOL    HW2 2193   0.409   0.310   0.212 -0.6159  1.0641  0.0510
  732SOL     OW 2194   0.764   0.512   3.101  0.0084 -0.0806 -0.7250
  732SOL    HW1 2195   0.762   0.416   3.076  0.1417  1.2678 -0.9177
  732SOL    HW2 2196   0.698   0.545   0.068 -4.1341  1.2437 -0.0648
  733SOL     OW 2197   1.456   1.841   1.335  0.3626  0.1450  0.1386
  733SOL    HW1 2198   1.520   1.766   1.356  1.8218  0.9591  0.8214
  733SOL    HW2 2199   1.364   1.835   1.372  1.3621 -1.7925 -3.8481
  734SOL     OW 2200   2.973   2.797   2.535  0.5069 -0.2995  0.3320
  734SOL    HW1 2201   2.933   2.704   2.512 -1.2182 -1.6300  1.3583
  734SOL    HW2 2202   2.934   2.835   2.624 -0.0557  1.0287  1.0751
  735SOL     OW 2203   0.928   2.659   0.913 -0.0889  0.7698 -0.3190
  735SOL    HW1 2204   0.957   2.744   0.863 -0.0670  0.9159 -0.1711
  735SOL    HW2 2205   0.916   2.582   0.846  1.3863 -0.8648  0.3516
  736SOL     OW 2206   1.508   0.671   2.519 -0.5461  0.3790  0.4888
  736SOL    HW1 2207   1.450   0.689   2.434  0.1736  0.2412 -1.0836
  736SOL    HW2 2208   1.501   0.738   2.594  0.1136 -1.9969 -1.5519
  737SOL     OW 2209   3.035   0.709   0.247  0.4050  0.4431 -0.5001
  737SOL    HW1 2210   0.032   0.698   0.253  0.9346 -1.6493 -0.2154
  737SOL    HW2 2211   3.002   0.756   0.331  0.8304  0.5252 -1.6526
  738SOL     OW 2212   0.087   2.582   1.612  0.0403 -0.2433  0.2052
  738SOL    HW1 2213   3.096   2.555   1.610  2.5241 -0.4102 -0.5621
  738SOL    HW2 2214   0.094   2.663   1.540  0.4634  0.0416 -1.1842
  739SOL     OW 2215   1.669   2.913   0.741 -0.4939 -0.2468  0.2403
  739SOL    HW1 2216   1.581   2.883   0.777 -0.0859  0.3475  0.7395
  739SOL    HW2 2217   1.664   2.956   0.650  1.0044  0.1603  0.4893
  740SOL     OW 2218   1.580   2.916   1.234  0.1202  0.1445  0.0225
  740SOL    HW1 2219   1.674   2.906   1.196 -0.5962 -0.1371 -2.5309
  740SOL    HW2 2220   1.545   2.829   1.271 -0.9517  1.8362 -1.8920
  741SOL     OW 2221   2.024   0.409   1.018  0.2586 -0.1905  0.2471
  741SOL    HW1 2222   1.996   0.509   1.042  0.8212  0.2601 -1.2603
  741SOL    HW2 2223   2.109   0.400   0.961  2.5829 -0.6626 -1.7174
  742SOL     OW 2224   1.532   2.134   2.091  0.7787  0.2294  0.2784
  742SOL    HW1 2225   1.583   2.103   2.011 -0.3153  2.3423  2.2461
  742SOL    HW2 2226   1.429   2.128   2.072 -3.9227 -1.8178  1.0810
  743SOL     OW 2227   2.125   0.335   1.994  0.2919  0.8242  0.5695
  743SOL    HW1 2228   2.128   0.438   2.006  1.4880  1.7218  0.6979
  743SOL    HW2 2229   2.061   0.298   2.069  0.1244  2.3866  0.4566
  744SOL     OW 2230   2.398   0.551   1.030  0.5468  0.3922  0.1233
  744SOL    HW1 2231   2.409   0.584   0.931 -1.6182  0.2294 -0.6851
  744SOL    HW2 2232   2.347   0.627   1.079 -2.2849 -0.7676 -1.5176
  745SOL     OW 2233   2.093   1.616   1.664  0.7033 -0.6579 -0.4233
  745SOL    HW1 2234   2.049   1.681   1.592 -1.8965 -0.1395  0.1645
  745SOL    HW2 2235   2.174   1.663   1.713  2.2285 -2.0977  1.3512
  746SOL     OW 2236   1.019   1.629   0.809  0.1837  0.5108 -0.4256
  746SOL    HW1 2237   0.925   1.587   0.784 -1.6435 -2.2813  0.1057
  746SOL    HW2 2238   1.011   1.656   0.910 -2.4529 -0.9410 -0.0364
  747SOL     OW 2239   1.917   1.085   1.059  0.5672 -0.1548 -0.2160
  747SOL    HW1 2240   1.833   1.120   1.101  1.3279 -0.5258 -0.9337
  747SOL    HW2 2241   1.956   1.011   1.115  1.6756 -0.1235 -1.6350
  748SOL     OW 2242   0.176   3.040   0.226 -0.2384  0.1996  0.4099
  748SOL    HW1 2243   0.189   0.015   0.285  1.7387 -4.2240 -0.4534
  748SOL    HW2 2244   0.240   2.972   0.266 -0.7035 -1.1610 -1.3458
  749SOL     OW 2245   0.241   0.354   2.401  0.1858  0.5688  0.3384
  749SOL    HW1 2246   0.259   0.348   2.303  2.7065  2.0991 -0.1195
  749SOL    HW2 2247   0.289   0.429   2.440  0.2818 -1.9459 -1.6745
  750SOL     OW 2248   1.868   2.994   1.465 -0.0496 -0.2507 -0.5944
  750SOL    HW1 2249   1.862   3.094   1.471 -2.6854 -2.4315  1.5374
  750SOL    HW2 2250   1.815   2.953   1.542 -1.4023  0.8174  0.0541
  751SOL     OW 2251   2.954   0.396   0.522 -0.1421 -0.0376  0.5848
  751SOL    HW1 2252   2.909   0.450   0.445  1.1426 -0.6398  0.7609
  751SOL    HW2 2253   2.885   0.367   0.592 -1.3895  1.7651  1.5478
  752SOL     OW 2254   0.161   3.007   1.150 -0.0255 -0.3533 -0.0251
  752SOL    HW1 2255   0.191   2.945   1.078  0.1042 -0.2345  2.0408
  752SOL    HW2 2256   0.077   2.981   1.197 -0.1005  0.2756  3.0574
  753SOL     OW 2257   1.020   0.295   1.536 -0.3350  0.3147  0.4691
  753SOL    HW1 2258   1.070   0.236   1.605 -0.8667 -0.6408  0.9406
  753SOL    HW2 2259   1.085   0.322   1.457  1.0741 -2.0093 -0.3326
  754SOL     OW 2260   1.027   2.718   2.192  0.0046 -0.1806 -0.4804
  754SOL    HW1 2261   1.070   2.629   2.200 -0.3747 -1.1265 -0.5026
  754SOL    HW2 2262   0.933   2.713   2.230 -0.2951  1.5081 -1.2830
  755SOL     OW 2263   2.508   1.301   0.344  0.1857 -0.5733 -0.3148
  755SOL    HW1 2264   2.511   1.398   0.383  1.3492  0.1861  0.6123
  755SOL    HW2 2265   2.535   1.305   0.245 -1.9564  1.7257  1.0551
  756SOL     OW 2266   1.868   2.033   2.723  0.4437 -0.2224 -0.3546
  756SOL    HW1 2267   1.801   1.992   2.790  0.2206  3.0713  0.5583
  756SOL    HW2 2268   1.964   1.999   2.742 -2.0294 -1.6607  0.5800
  757SOL     OW 2269   2.052   0.018   0.748  0.3680  0.1151  0.1432
  757SOL    HW1 2270   1.980   0.025   0.819 -0.0648 -3.5038 -0.2736
  757SOL    HW2 2271   2.029   0.075   0.668  0.8936  0.5571 -0.3612
  758SOL     OW 2272   1.296   2.595   0.792  0.0935 -0.3984 -0.3697
  758SOL    HW1 2273   1.232   2.530   0.838  2.0035  0.3559 -0.8573
  758SOL    HW2 2274   1.379   2.553   0.743  2.9938 -3.9616  1.3423
  759SOL     OW 2275   2.618   0.459   1.171  0.4774  0.3171 -0.0942
  759SOL    HW1 2276   2.540   0.502   1.120 -0.5932  0.1745  3.3747
  759SOL    HW2 2277   2.587   0.412   1.258  1.5429  0.1273  4.0031
  760SOL     OW 2278   2.186   1.110   1.339 -0.7195 -0.5432  0.6755
  760SOL    HW1 2279   2.215   1.110   1.240  1.0434 -0.9635 -2.1286
  760SOL    HW2 2280   2.262   1.133   1.401 -3.1938 -0.4877  1.6375
  761SOL     OW 2281   0.464   0.808   0.687 -0.1508 -0.3838  0.7595
  761SOL    HW1 2282   0.494   0.903   0.703 -0.1316  1.2315 -0.7804
  761SOL    HW2 2283   0.483   0.743   0.769 -1.3278 -2.7382 -0.4701
  762SOL     OW 2284   2.122   1.730   1.240 -0.1126  0.3579  0.3322
  762SOL    HW1 2285   2.047   1.720   1.172 -0.4284  1.2902  0.2792
  762SOL    HW2 2286   2.088   1.736   1.336  0.7815  1.8660 -3.5995
  763SOL     OW 2287   1.238   1.451   1.618  0.3784 -0.1496  0.2660
  763SOL    HW1 2288   1.229   1.437   1.516 -0.0733 -0.0832 -2.1458
  763SOL    HW2 2289   1.295   1.531   1.644 -0.6397  0.5739  1.8983
  764SOL     OW 2290   0.196   1.862   2.147  0.0978  0.3772 -0.0762
  764SOL    HW1 2291   0.131   1.802   2.099 -0.8084 -0.0513 -0.1098
  764SOL    HW2 2292   0.198   1.838   2.248 -1.5080  0.3769 -1.6183
  765SOL     OW 2293   1.568   2.211   1.431 -0.4632  0.5312 -0.2280
  765SOL    HW1 2294   1.566   2.128   1.498 -0.9716 -4.5392  0.4856
  765SOL    HW2 2295   1.658   2.261   1.433 -4.0956 -3.6933  2.1424
  766SOL     OW 2296   0.326   2.617   2.343 -0.0696 -0.4674  0.0728
  766SOL    HW1 2297   0.242   2.632   2.404  0.0603  3.0937 -1.0043
  766SOL    HW2 2298   0.322   2.675   2.262 -0.5591 -2.6791  3.0433
  767SOL     OW 2299   1.336   0.793   2.293  0.5009  0.1098 -0.5735
  767SOL    HW1 2300   1.335   0.719   2.222 -0.2129 -1.5372 -0.2519
  767SOL    HW2 2301   1.250   0.849   2.287 -0.8298 -1.0548  0.3820
  768SOL     OW 2302   1.311   2.452   3.044 -0.2353  0.7329  0.1687
  768SOL    HW1 2303   1.395   2.399   3.053 -2.4124  0.3657  1.7874
  768SOL    HW2 2304   1.258   2.470   0.023 -1.1595  0.3800 -1.9914
  769SOL     OW 2305   0.075   2.778   1.396  0.2640 -0.2576 -0.2554
  769SOL    HW1 2306   0.014   2.815   1.321  0.2987  2.2817 -1.7956
  769SOL    HW2 2307   0.168   2.766   1.357 -4.5053  0.9981  1.9843
  770SOL     OW 2308   1.391   0.477   2.720  0.3750 -0.0444  0.4338
  770SOL    HW1 2309   1.464   0.525   2.670 -0.2669 -2.6384  0.1416
  770SOL    HW2 2310   1.296   0.508   2.676 -3.7973  1.4589 -2.8328
  771SOL     OW 2311   0.307   0.115   2.563  0.2176 -0.2276  0.3749
  771SOL    HW1 2312   0.280   0.018   2.542  0.1886  1.7345 -0.2420
  771SOL    HW2 2313   0.299   0.180   2.484 -0.1396 -0.6581  2.9891
  772SOL     OW 2314   2.359   3.087   1.866 -0.5624 -0.4212  0.3372
  772SOL    HW1 2315   2.421   0.042   1.806  3.5744  1.6534  0.0242
  772SOL    HW2 2316   2.396   2.993   1.873 -0.2325 -0.9580  1.5158
  773SOL     OW 2317   1.103   2.370   1.963  0.0484 -0.2627 -0.7343
  773SOL    HW1 2318   1.131   2.439   2.035  1.0411  0.5011  1.8394
  773SOL    HW2 2319   1.011   2.396   1.926 -0.4537 -1.3345  1.9953
  774SOL     OW 2320   1.153   0.305   1.906  0.4351 -0.1450 -0.1539
  774SOL    HW1 2321   1.240   0.349   1.865 -0.3284  1.7359 -0.5112
  774SOL    HW2 2322   1.076   0.373   1.915 -2.6414  0.5204 -0.0791
  775SOL     OW 2323   2.111   2.860   3.105 -0.5502 -0.6025 -0.5562
  775SOL    HW1 2324   2.021   2.868   0.048  1.0237  2.1427 -2.3469
  775SOL    HW2 2325   2.139   2.953   3.065 -0.0272  1.6456  1.2349
  776SOL     OW 2326   2.000   0.581   2.260 -0.3861 -0.0592  0.2865
  776SOL    HW1 2327   1.951   0.665   2.285 -1.3728 -1.2000  1.1308
  776SOL    HW2 2328   2.033   0.581   2.162  0.7858  0.6331 -0.4473
  777SOL     OW 2329   2.349   1.164   2.396  0.7470  0.2525  0.1264
  777SOL    HW1 2330   2.417   1.141   2.470 -0.4885  0.5212 -0.0758
  777SOL    HW2 2331   2.390   1.168   2.303  0.5362  0.9663  1.9501
  778SOL     OW 2332   1.888   0.822   2.303 -0.0600 -0.3263  0.4266
  778SOL    HW1 2333   1.844   0.894   2.243 -0.5770  3.0015 -0.0782
  778SOL    HW2 2334   1.877   0.848   2.398  1.5622 -1.0647 -1.6119
  779SOL     OW 2335   0.130   0.027   3.077  0.1447  0.0411  0.1921
  779SOL    HW1 2336   0.148   3.086   0.059 -1.3770 -0.5254 -1.8938
  779SOL    HW2 2337   0.070   0.110   3.093  3.0607  1.6978  0.4034
  780SOL     OW 2338   2.290   0.421   3.084  0.2602 -0.4551  0.3434
  780SOL    HW1 2339   2.332   0.378   3.001 -1.8792  0.2823 -0.6689
  780SOL    HW2 2340   2.301   0.523   3.090  0.1668  2.0653  0.9372
  781SOL     OW 2341   0.399   2.864   1.487 -0.4228 -0.1399  0.2393
  781SOL    HW1 2342   0.401   2.958   1.450  0.9476  0.0029 -1.0769
  781SOL    HW2 2343   0.391   2.803   1.402  2.0175 -1.4532  1.8054
  782SOL     OW 2344   1.964   2.419   0.378 -0.2913  0.3067 -0.6812
  782SOL    HW1 2345   1.910   2.479   0.440  0.9818 -1.4567  3.1880
  782SOL    HW2 2346   2.001   2.467   0.298 -0.8868 -0.8265 -1.6258
  783SOL     OW 2347   0.766   1.594   1.690  0.2668 -0.0303  0.0735
  783SOL    HW1 2348   0.769   1.533   1.608  1.1209 -1.6449 -2.9349
  783SOL    HW2 2349   0.686   1.581   1.751 -0.4397 -0.0255 -0.1193
  784SOL     OW 2350   1.324   0.550   2.146 -0.3184  0.4103  0.1303
  784SOL    HW1 2351   1.403   0.572   2.085  2.4976 -1.0602  0.2264
  784SOL    HW2 2352   1.328   0.452   2.169  1.1000 -3.8574 -0.2296
  785SOL     OW 2353   2.654   0.283   0.955 -0.0329 -0.3509 -0.4726
  785SOL    HW1 2354   2.666   0.351   1.033  0.5408  1.3843 -2.0748
  785SOL    HW2 2355   2.661   0.184   0.979  1.9672 -0.5672 -2.0232
  786SOL     OW 2356   1.518   2.695   1.362 -0.0594 -0.2418 -0.8732
  786SOL    HW1 2357   1.556   2.671   1.456  1.0907 -0.3472  1.4232
  786SOL    HW2 2358   1.472   2.620   1.322  1.3578 -0.4677  1.5655
  787SOL     OW 2359   1.581   0.071   1.345 -0.6485 -0.1096 -0.4963
  787SOL    HW1 2360   1.587   3.086   1.296 -1.1865 -2.5858  0.4648
  787SOL    HW2 2361   1.681   0.099   1.360  1.0169  0.4401 -1.4771
  788SOL     OW 2362   2.945   1.129   0.148  0.0822 -0.3904 -0.2015
  788SOL    HW1 2363   3.024   1.073   0.109  2.2245  3.1461  0.0792
  788SOL    HW2 2364   2.876   1.080   0.207 -0.1723 -0.7869 -0.7985
  789SOL     OW 2365   0.355   1.721   1.737  0.5465 -0.6651  0.2225
  789SOL    HW1 2366   0.366   1.795   1.807  0.5728  1.8723  1.9817
  789SOL    HW2 2367   0.391   1.633   1.774 -0.6434  0.3228  1.2005
  790SOL     OW 2368   0.322   0.602   2.560  0.0036  0.1299 -0.1267
  790SOL    HW1 2369   0.322   0.674   2.631 -1.4647 -0.2363 -2.9044
  790SOL    HW2 2370   0.236   0.546   2.553 -0.9249 -0.6765 -0.1808
  791SOL     OW 2371   2.176   0.721   0.700  0.0029 -0.4379  0.5713
  791SOL    HW1 2372   2.113   0.649   0.673  0.2394  0.4033 -1.6322
  791SOL    HW2 2373   2.139   0.815   0.685  0.6136 -3.7925 -0.9380
  792SOL     OW 2374   1.283   2.775   1.543  0.1138 -0.4335 -0.1325
  792SOL    HW1 2375   1.278   2.699   1.613  1.4662  0.5188  0.5207
  792SOL    HW2 2376   1.364   2.758   1.484  0.4289  1.1856  0.5903
  793SOL     OW 2377   0.343   0.052   0.980 -0.3327  0.0601  0.1377
  793SOL    HW1 2378   0.285   0.005   1.048  0.6378  1.8173  2.9312
  793SOL    HW2 2379   0.423   3.103   0.952 -1.9578 -1.4788  0.9520
  794SOL     OW 2380   0.430   0.732   2.354 -0.8302  0.0478 -0.3242
  794SOL    HW1 2381   0.403   0.701   2.448 -1.0076 -0.0345 -2.6057
  794SOL    HW2 2382   0.366   0.694   2.283  0.3422  0.3756 -0.4442
  795SOL     OW 2383   0.628   2.366   2.528 -0.2472  0.7044  0.6167
  795SOL    HW1 2384   0.590   2.271   2.517  0.4810  0.2555  1.5981
  795SOL    HW2 2385   0.724   2.374   2.484  3.1825 -0.2407  0.9986
  796SOL     OW 2386   2.185   0.532   2.474 -0.2070 -0.5156 -0.1813
  796SOL    HW1 2387   2.119   0.542   2.548 -0.2665 -2.0626  0.7857
  796SOL    HW2 2388   2.127   0.526   2.384 -0.2665 -1.2614 -0.8548
  797SOL     OW 2389   2.380   2.600   2.522  0.1382 -0.2889  0.8713
  797SOL    HW1 2390   2.468   2.601   2.576 -0.3405 -2.2290 -0.8559
  797SOL    HW2 2391   2.313   2.664   2.561 -0.2212 -0.2175  0.2330
  798SOL     OW 2392   0.281   0.357   2.118 -0.0798  0.7468 -0.5363
  798SOL    HW1 2393   0.370   0.340   2.070 -0.7454  1.4885  0.6705
  798SOL    HW2 2394   0.204   0.300   2.077 -0.4286  0.4450  0.2974
  799SOL     OW 2395   0.742   2.460   2.177  0.3017  0.2471  0.0488
  799SOL    HW1 2396   0.795   2.433   2.091  1.3400 -2.5341 -1.5014
  799SOL    HW2 2397   0.725   2.561   2.187 -0.5178 -0.5843 -1.7946
  800SOL     OW 2398   3.058   2.223   0.177 -0.4304 -0.9974 -0.5029
  800SOL    HW1 2399   3.054   2.128   0.211  1.9191  2.5464 -1.1598
  800SOL    HW2 2400   3.103   2.286   0.248  0.5404 -0.8397 -0.0525
  801SOL     OW 2401   1.783   1.543   0.864  0.1697  0.0878 -0.1250
  801SOL    HW1 2402   1.847   1.490   0.811  1.0891  0.9530  0.1905
  801SOL    HW2 2403   1.739   1.615   0.801 -2.7302  0.4273  0.0253
  802SOL     OW 2404   0.308   0.458   0.511  0.0100  0.0395 -0.0184
  802SOL    HW1 2405   0.383   0.458   0.584  4.1967  1.9368  1.3194
  802SOL    HW2 2406   0.230   0.405   0.543  1.6241 -3.6497 -0.2249
  803SOL     OW 2407   1.441   1.325   1.762 -0.6911  0.2460  0.2689
  803SOL    HW1 2408   1.533   1.353   1.736  1.8910  1.3330  2.4052
  803SOL    HW2 2409   1.371   1.364   1.700  2.1067  0.9699 -2.1659
  804SOL     OW 2410   1.908   1.983   0.773  0.2590  0.0782 -0.1743
  804SOL    HW1 2411   2.010   1.962   0.769  0.7904  0.4455 -1.0374
  804SOL    HW2 2412   1.852   1.894   0.785 -0.7663  1.7993  0.0823
  805SOL     OW 2413   3.007   1.909   2.777  0.0491  0.2663 -0.3266
  805SOL    HW1 2414   3.040   1.969   2.705 -0.3197 -1.6568  0.1975
  805SOL    HW2 2415   2.957   1.824   2.746 -2.2415 -3.0920  2.0121
  806SOL     OW 2416   0.551   2.495   0.369 -0.0054  0.2211 -0.5961
  806SOL    HW1 2417   0.584   2.403   0.403  1.7784  1.4337  0.5510
  806SOL    HW2 2418   0.513   2.547   0.444  2.5750 -1.6147 -2.2510
  807SOL     OW 2419   2.183   1.518   2.594 -0.2962 -0.6248  0.6047
  807SOL    HW1 2420   2.267   1.475   2.634  1.0809  1.5333  3.0113
  807SOL    HW2 2421   2.132   1.573   2.663  0.7715  3.7312 -0.4521
  808SOL     OW 2422   1.552   2.046   1.192 -0.2660 -0.7354 -0.0872
  808SOL    HW1 2423   1.498   1.965   1.229 -1.4965 -0.4790 -0.1789
  808SOL    HW2 2424   1.551   2.118   1.272 -1.3003 -0.1247  3.9684
  809SOL     OW 2425   0.186   0.714   0.239  0.2751 -0.1837  0.3007
  809SOL    HW1 2426   0.217   0.715   0.334 -2.3753 -0.2204 -1.0693
  809SOL    HW2 2427   0.266   0.700   0.175 -0.5964  0.5605  1.2242
  810SOL     OW 2428   1.276   1.621   0.002 -0.3485  0.4349  0.8298
  810SOL    HW1 2429   1.232   1.529   0.011  1.6934  1.0620 -1.9791
  810SOL    HW2 2430   1.355   1.629   0.061 -1.6859 -1.0024  0.5751
  811SOL     OW 2431   1.995   2.277   0.806  0.2137 -0.2192  0.1700
  811SOL    HW1 2432   1.964   2.188   0.843  1.5353  1.0541  2.3893
  811SOL    HW2 2433   1.919   2.338   0.786  1.7106  0.6844 -1.0309
  812SOL     OW 2434   1.389   2.998   1.070  0.9012  0.3126  0.6528
  812SOL    HW1 2435   1.450   2.964   1.143 -0.5049  1.6755 -3.1200
  812SOL    HW2 2436   1.292   2.976   1.094  3.1265 -2.4448  0.0651
  813SOL     OW 2437   0.598   0.027   1.932 -0.2316  0.2725 -0.2869
  813SOL    HW1 2438   0.688   0.064   1.907 -4.0362  4.8276  1.3740
  813SOL    HW2 2439   0.608   3.039   1.975  0.7888 -2.0918 -3.6201
  814SOL     OW 2440   1.141   2.468   2.224 -0.4372  0.2526  0.4076
  814SOL    HW1 2441   1.131   2.367   2.247  2.2466  1.5670  0.3718
  814SOL    HW2 2442   1.210   2.509   2.281  0.5776  2.4125 -3.9025
  815SOL     OW 2443   0.521   0.019   2.694  0.4687 -0.3320 -0.6441
  815SOL    HW1 2444   0.520   3.098   2.796 -0.2325 -4.0915  0.5687
  815SOL    HW2 2445   0.427   0.064   2.666 -3.3037 -0.9577 -0.1969
  816SOL     OW 2446   2.076   0.754   0.122  0.7776  0.3696  0.2686
  816SOL    HW1 2447   2.046   0.750   0.225 -1.2915 -2.4383  1.7485
  816SOL    HW2 2448   2.006   0.729   0.056  2.8565 -0.4376 -1.9114
  817SOL     OW 2449   2.950   2.512   2.217 -0.2206  0.3814  0.1272
  817SOL    HW1 2450   2.876   2.580   2.184 -2.7597  0.5007  3.6164
  817SOL    HW2 2451   2.936   2.496   2.314  1.2795 -0.6875 -4.2483
  818SOL     OW 2452   0.895   1.245   0.464 -0.0019  0.1917  0.1338
  818SOL    HW1 2453   0.976   1.242   0.527  1.5517 -0.6944  1.6281
  818SOL    HW2 2454   0.806   1.277   0.507 -1.1950 -4.1143  1.6577
  819SOL     OW 2455   1.553   1.105   2.650  0.4176  0.2062  0.9899
  819SOL    HW1 2456   1.629   1.113   2.582  2.6667  0.8048  2.8835
  819SOL    HW2 2457   1.568   1.174   2.722 -1.8032 -4.2184  2.0275
  820SOL     OW 2458   0.561   1.458   0.020 -0.2437  0.2404  0.0142
  820SOL    HW1 2459   0.532   1.555   0.033  1.3659 -1.2974  0.3103
  820SOL    HW2 2460   0.520   1.395   0.093  1.0436 -1.0830 -1.2948
  821SOL     OW 2461   0.559   3.003   0.912  0.5284 -0.0284 -0.4133
  821SOL    HW1 2462   0.602   3.034   0.828 -2.0476 -2.5187  0.0674
  821SOL    HW2 2463   0.577   2.904   0.917  1.4747 -0.1364 -0.3460
  822SOL     OW 2464   2.368   2.570   2.913  0.0906 -0.0650  0.3699
  822SOL    HW1 2465   2.432   2.575   2.987 -3.4577 -0.1804  0.1801
  822SOL    HW2 2466   2.423   2.570   2.826 -1.6925  1.4073 -0.0521
  823SOL     OW 2467   1.110   0.074   2.585 -0.2723 -0.3382 -0.2342
  823SOL    HW1 2468   1.202   0.117   2.572  1.1024 -2.3157  0.4270
  823SOL    HW2 2469   1.080   0.044   2.493 -1.4770  0.5014 -1.5481
  824SOL     OW 2470   2.829   2.609   1.864 -0.5820  0.3594 -0.7924
  824SOL    HW1 2471   2.895   2.693   1.854  2.7881  1.1697 -1.2678
  824SOL    HW2 2472   2.784   2.608   1.955  1.3541 -0.0765 -4.5748
  825SOL     OW 2473   0.021   2.479   2.657 -0.0453 -0.4990  0.0234
  825SOL    HW1 2474   0.069   2.567   2.625  2.0506  2.2054  1.3853
  825SOL    HW2 2475   0.062   2.394   2.616 -1.6074 -0.6503 -0.0334
  826SOL     OW 2476   1.693   0.453   2.923 -0.0925 -0.0902 -0.4774
  826SOL    HW1 2477   1.702   0.431   3.023  0.7009  0.3317  0.0401
  826SOL    HW2 2478   1.737   0.377   2.870  0.0737  0.9269  1.7380
  827SOL     OW 2479   2.985   1.728   1.800 -0.7907  0.4369 -0.1860
  827SOL    HW1 2480   2.987   1.830   1.813 -2.2769  1.1958 -0.2270
  827SOL    HW2 2481   2.903   1.689   1.846  3.0942 -1.5971 -0.2137
  828SOL     OW 2482   3.085   0.172   1.216 -0.0384  0.1990 -0.6350
  828SOL    HW1 2483   0.069   0.148   1.256  1.2863  0.3919  0.6158
  828SOL    HW2 2484   3.013   0.149   1.283  0.0171 -0.2718 -0.6030
  829SOL     OW 2485   0.843   2.141   2.357 -0.5961  0.1372  0.4400
  829SOL    HW1 2486   0.852   2.090   2.443 -0.6363  1.7967 -0.1519
  829SOL    HW2 2487   0.756   2.187   2.361  1.9400 -0.5397 -1.0208
  830SOL     OW 2488   0.463   0.749   1.608 -0.1026 -0.2144  0.2130
  830SOL    HW1 2489   0.526   0.821   1.647  2.8492  0.2004  1.0017
  830SOL    HW2 2490   0.498   0.657   1.626 -1.0664  3.7983  1.9487
  831SOL     OW 2491   2.544   1.742   2.842 -0.2850  0.4784  0.6279
  831SOL    HW1 2492   2.624   1.758   2.783 -2.4823 -1.6524  1.9907
  831SOL    HW2 2493   2.565   1.761   2.937  2.2110  1.8503  1.6720
  832SOL     OW 2494   1.819   2.435   2.892 -0.4492  0.9677  0.1849
  832SOL    HW1 2495   1.887   2.357   2.883 -3.4617  0.0600  0.3329
  832SOL    HW2 2496   1.836   2.510   2.825  1.0098  1.6678 -0.1991
  833SOL     OW 2497   0.526   0.319   1.958  0.0596 -0.1026 -0.1939
  833SOL    HW1 2498   0.559   0.224   1.949  0.3171  0.9703  1.1718
  833SOL    HW2 2499   0.577   0.379   2.015 -3.1534 -3.5519 -4.0942
  834SOL     OW 2500   3.087   0.449   1.309 -0.0927 -0.1326 -0.4982
  834SOL    HW1 2501   3.088   0.386   1.231  0.1913  0.7541 -1.3629
  834SOL    HW2 2502   3.005   0.513   1.298  0.3457  0.7668  0.7878
  835SOL     OW 2503   2.671   0.530   0.519 -0.1710 -0.2543  0.0388
  835SOL    HW1 2504   2.569   0.513   0.507 -0.9529 -0.8990 -1.4484
  835SOL    HW2 2505   2.714   0.523   0.426  0.0412 -2.5043 -3.4448
  836SOL     OW 2506   1.018   2.096   0.474  0.2158  0.6361  0.3653
  836SOL    HW1 2507   1.051   1.997   0.484  1.9196 -2.5379 -2.7032
  836SOL    HW2 2508   1.097   2.162   0.461  1.1650 -0.3230 -0.9247
  837SOL     OW 2509   1.973   1.840   0.451 -0.2342 -0.5962 -0.1720
  837SOL    HW1 2510   2.019   1.754   0.476 -2.5607 -1.2917  0.9195
  837SOL    HW2 2511   2.026   1.924   0.477 -1.1708 -0.1080 -2.1908
  838SOL     OW 2512   1.734   0.980   2.151 -0.3176 -0.0564  0.2284
  838SOL    HW1 2513   1.721   1.056   2.084  2.0721 -1.0768 -1.1399
  838SOL    HW2 2514   1.644   0.941   2.183  0.6378 -0.4636 -3.3476
  839SOL     OW 2515   0.959   1.398   2.529 -0.1480  0.3408  0.3653
  839SOL    HW1 2516   0.893   1.360   2.591 -0.1002 -1.5261 -0.8153
  839SOL    HW2 2517   0.977   1.344   2.445 -0.4058  0.8121  1.4185
  840SOL     OW 2518   0.837   1.379   0.228  0.0967 -0.6811  0.6218
  840SOL    HW1 2519   0.878   1.333   0.309 -0.8395  1.4991 -1.6084
  840SOL    HW2 2520   0.795   1.309   0.169  1.1229 -1.9684  0.7011
  841SOL     OW 2521   1.670   2.322   0.293 -0.0811  0.1398  0.0305
  841SOL    HW1 2522   1.729   2.276   0.360  0.2892  4.1858  1.2609
  841SOL    HW2 2523   1.718   2.323   0.204 -2.0145 -1.5268  3.7572
  842SOL     OW 2524   0.363   0.641   0.015 -0.0782  0.3733 -0.4679
  842SOL    HW1 2525   0.358   0.581   3.038  2.1848  1.5145 -0.1793
  842SOL    HW2 2526   0.450   0.636   0.069 -0.7332  0.9791  0.5056
  843SOL     OW 2527   0.647   0.461   1.017 -0.1893 -0.4977  0.2883
  843SOL    HW1 2528   0.741   0.438   1.048 -0.2409 -1.0504  1.1887
  843SOL    HW2 2529   0.609   0.375   0.976 -0.7051 -1.6422  2.8817
  844SOL     OW 2530   1.819   2.781   2.221 -0.2522  0.6682  0.1375
  844SOL    HW1 2531   1.915   2.744   2.214  5.1004 -0.0645 -0.6488
  844SOL    HW2 2532   1.813   2.878   2.188 -1.1028 -1.7292 -3.2349
  845SOL     OW 2533   0.243   2.577   1.872 -0.3785  0.0645 -0.7536
  845SOL    HW1 2534   0.186   2.561   1.954 -0.4322 -1.4721  0.6404
  845SOL    HW2 2535   0.184   2.597   1.795  0.0071 -1.7276  1.0922
  846SOL     OW 2536   1.805   1.407   2.424  0.2323  0.5212 -0.1257
  846SOL    HW1 2537   1.740   1.476   2.377 -0.8460  0.8202 -0.6044
  846SOL    HW2 2538   1.871   1.377   2.353 -0.9637  0.7687  0.2500
  847SOL     OW 2539   0.255   0.631   2.178  0.2008  0.4281  0.1703
  847SOL    HW1 2540   0.270   0.533   2.164  0.1169 -4.1525  2.0541
  847SOL    HW2 2541   0.248   0.691   2.097 -1.1177  0.8579  0.4909
  848SOL     OW 2542   2.574   2.790   2.970 -0.1178 -0.9463 -0.2637
  848SOL    HW1 2543   2.654   2.812   3.032  0.8061 -0.3161  0.8102
  848SOL    HW2 2544   2.612   2.770   2.876  2.4111 -0.5047 -1.6430
  849SOL     OW 2545   0.342   2.669   0.566  0.5645 -0.8087 -0.3317
  849SOL    HW1 2546   0.422   2.627   0.622  0.1535  2.2706  2.8651
  849SOL    HW2 2547   0.296   2.746   0.621 -0.4758  0.2960 -0.7986
  850SOL     OW 2548   0.914   2.234   0.802  0.0201  0.2810  0.4530
  850SOL    HW1 2549   1.001   2.277   0.837 -0.8297 -1.8178  1.0293
  850SOL    HW2 2550   0.936   2.137   0.777  1.7337 -1.7404  0.5932
  851SOL     OW 2551   1.815   0.314   2.702  0.1329  0.2072 -0.1440
  851SOL    HW1 2552   1.837   0.401   2.658 -2.0670 -2.0995  2.4496
  851SOL    HW2 2553   1.887   0.246   2.692  1.8536  0.4942  0.5299
  852SOL     OW 2554   1.736   2.818   2.670  0.0283 -0.2412  0.0526
  852SOL    HW1 2555   1.675   2.787   2.597  0.3872  0.4645  1.6278
  852SOL    HW2 2556   1.689   2.883   2.733  0.7933 -0.2902  1.0721
  853SOL     OW 2557   2.760   2.733   0.380 -0.5024 -0.6405  0.1652
  853SOL    HW1 2558   2.843   2.727   0.318  1.8614  1.0111 -0.5988
  853SOL    HW2 2559   2.700   2.804   0.345 -0.2455 -0.4275  1.1059
  854SOL     OW 2560   1.608   0.480   2.352  0.2190 -0.5284  0.3540
  854SOL    HW1 2561   1.703   0.456   2.369 -0.9682 -1.1677  1.0217
  854SOL    HW2 2562   1.571   0.544   2.421  0.5189 -0.4247 -0.0330
  855SOL     OW 2563   0.255   2.417   0.527  0.3594  0.2866 -0.0064
  855SOL    HW1 2564   0.267   2.373   0.622  0.6022 -0.7059  3.3576
  855SOL    HW2 2565   0.270   2.520   0.538  1.3517  1.8453  0.3691
  856SOL     OW 2566   0.329   2.858   2.663 -0.8171  0.4654 -0.0019
  856SOL    HW1 2567   0.412   2.799   2.678  5.2582 -2.1304 -0.2859
  856SOL    HW2 2568   0.315   2.931   2.733 -1.6271 -0.8480 -1.7118
  857SOL     OW 2569   1.160   3.024   1.457  0.1396 -0.7158  0.0171
  857SOL    HW1 2570   1.203   2.931   1.476  2.5737  0.0894  2.7978
  857SOL    HW2 2571   1.070   3.038   1.503  0.6642  3.0625 -0.0266
  858SOL     OW 2572   2.768   2.006   1.691  0.9581 -0.5781 -0.7202
  858SOL    HW1 2573   2.815   1.988   1.778  0.7779 -3.1989 -1.7767
  858SOL    HW2 2574   2.690   1.945   1.676 -0.1213  1.3297  0.9975
  859SOL     OW 2575   2.146   2.220   2.104 -0.1067  0.1824  0.2259
  859SOL    HW1 2576   2.059   2.200   2.148  3.3399  0.1256 -1.4802
  859SOL    HW2 2577   2.162   2.165   2.018  2.9724  1.5939  1.3328
  860SOL     OW 2578   1.370   0.361   0.487 -0.5169  0.6686 -0.3162
  860SOL    HW1 2579   1.458   0.411   0.458  1.4303 -0.0295 -0.6047
  860SOL    HW2 2580   1.380   0.266   0.459  0.7901  3.5478 -0.7833
  861SOL     OW 2581   2.913   0.875   0.837  0.0662 -1.0100  0.3195
  861SOL    HW1 2582   2.842   0.831   0.783 -0.7630  2.5478  1.5819
  861SOL    HW2 2583   3.005   0.841   0.824 -0.4942  1.0830 -2.3430
  862SOL     OW 2584   1.184   0.347   2.417 -0.6710  0.1526  0.1464
  862SOL    HW1 2585   1.223   0.338   2.323  1.0296  0.1546 -2.7624
  862SOL    HW2 2586   1.085   0.322   2.411  3.0431 -2.8783  1.6336
  863SOL     OW 2587   0.518   0.564   1.247  0.0047  0.1057  0.4088
  863SOL    HW1 2588   0.479   0.525   1.163  2.0483  2.4391  1.5474
  863SOL    HW2 2589   0.464   0.648   1.266 -1.3645  0.5444 -0.0480
  864SOL     OW 2590   3.092   2.934   2.059  0.2807 -0.6949 -0.4041
  864SOL    HW1 2591   0.040   2.907   2.140  0.5006  0.3102  0.3894
  864SOL    HW2 2592   0.032   3.007   2.008  1.2490 -1.4381  0.5504
  865SOL     OW 2593   0.726   1.284   2.668  0.0882 -0.3929  0.1577
  865SOL    HW1 2594   0.663   1.339   2.725 -0.4671  0.8753  0.4739
  865SOL    HW2 2595   0.674   1.220   2.608  0.7230 -1.6406 -1.7937
  866SOL     OW 2596   3.066   2.978   0.361  0.2446  0.2449  0.2949
  866SOL    HW1 2597   0.042   2.992   0.310 -1.7458  0.9406  0.6505
  866SOL    HW2 2598   3.032   2.880   0.363 -1.4145 -2.0126  2.4495
  867SOL     OW 2599   0.006   2.936   2.910 -0.1274 -0.0859 -0.7346
  867SOL    HW1 2600   0.071   2.857   2.906  0.5500 -0.3174  1.1839
  867SOL    HW2 2601   0.047   3.010   2.969  0.0971  1.1387 -1.3902
  868SOL     OW 2602   1.502   0.858   2.724  0.2223 -0.5532 -0.7231
  868SOL    HW1 2603   1.534   0.953   2.701  0.9414  3.0058  1.4166
  868SOL    HW2 2604   1.441   0.874   2.804  1.7207  0.9624 -1.4968
  869SOL     OW 2605   0.255   1.734   0.449  0.5756  0.3721 -0.1303
  869SOL    HW1 2606   0.337   1.696   0.503 -0.4447 -1.3582 -2.9048
  869SOL    HW2 2607   0.172   1.674   0.444 -3.7231  0.0731 -0.7873
  870SOL     OW 2608   2.289   1.853   0.391  0.0239  1.0853 -0.2423
  870SOL    HW1 2609   2.297   1.953   0.401  0.0362 -0.6852  2.8953
  870SOL    HW2 2610   2.249   1.820   0.305 -0.6528 -2.6710 -1.4835
  871SOL     OW 2611   0.535   1.245   0.984  0.6411 -0.7298  0.2536
  871SOL    HW1 2612   0.492   1.155   0.997 -0.1496  1.6160  0.5653
  871SOL    HW2 2613   0.634   1.236   0.998  2.1783  2.4821 -0.3971
  872SOL     OW 2614   1.341   1.676   1.743  0.7617 -0.5048 -0.4801
  872SOL    HW1 2615   1.270   1.753   1.753 -1.1291 -0.1227 -0.2522
  872SOL    HW2 2616   1.368   1.655   1.838 -1.4706  0.4946 -2.1612
  873SOL     OW 2617   0.887   2.081   2.088  0.1300 -0.9146  0.4130
  873SOL    HW1 2618   0.860   2.126   2.176 -1.2964  0.7843  0.7176
  873SOL    HW2 2619   0.887   2.144   2.009  1.7857 -0.5176  1.6212
  874SOL     OW 2620   1.072   2.594   1.312  0.0844  0.2658  0.5863
  874SOL    HW1 2621   1.130   2.620   1.392  1.5404  0.7972 -0.3876
  874SOL    HW2 2622   1.124   2.626   1.225  1.0574  1.4424 -3.1661
  875SOL     OW 2623   2.943   0.356   0.877 -0.5273  0.3093  0.0714
  875SOL    HW1 2624   2.977   0.263   0.903 -1.7936  2.6376  2.2339
  875SOL    HW2 2625   2.856   0.347   0.822  2.4307  1.5634 -2.1769
  876SOL     OW 2626   0.831   0.613   0.282 -0.0832 -0.2701  0.2968
  876SOL    HW1 2627   0.780   0.674   0.349 -2.5967  0.7369  1.8147
  876SOL    HW2 2628   0.888   0.658   0.212 -0.4768 -2.4872 -0.7249
  877SOL     OW 2629   2.931   0.817   1.125 -0.2601  0.3858  0.3996
  877SOL    HW1 2630   2.904   0.872   1.043 -0.3046  1.0609 -0.8708
  877SOL    HW2 2631   2.938   0.719   1.102  0.1558 -0.8396  4.6570
  878SOL     OW 2632   2.554   2.140   0.599  0.0371  0.3424  0.1859
  878SOL    HW1 2633   2.627   2.080   0.641  0.6093 -1.3087  0.6520
  878SOL    HW2 2634   2.533   2.214   0.665  0.2606 -1.2534  1.7907
  879SOL     OW 2635   2.485   1.473   1.138 -0.6405  0.4473  0.1124
  879SOL    HW1 2636   2.410   1.481   1.205  1.3213  1.0649 -1.2154
  879SOL    HW2 2637   2.525   1.378   1.126  0.9464 -2.6609  0.6642
  880SOL     OW 2638   1.595   2.580   0.979 -0.8252 -0.4194 -0.0740
  880SOL    HW1 2639   1.568   2.678   0.969  2.1644 -1.8188 -1.1124
  880SOL    HW2 2640   1.528   2.536   1.045  0.9784  0.0590  0.9054
  881SOL     OW 2641   1.008   2.294   0.245 -0.2180 -0.3306  0.5138
  881SOL    HW1 2642   0.989   2.235   0.325 -0.4900 -3.5933  1.1165
  881SOL    HW2 2643   0.927   2.357   0.227 -1.9865  2.6934  0.5929
  882SOL     OW 2644   1.468   0.808   1.250 -0.2722 -0.1856 -0.6762
  882SOL    HW1 2645   1.377   0.839   1.217 -1.3213  1.4020  0.1160
  882SOL    HW2 2646   1.473   0.817   1.350  0.3087  0.8335  0.6517
  883SOL     OW 2647   1.250   0.282   2.170 -0.3837 -0.0369  0.0619
  883SOL    HW1 2648   1.224   0.282   2.071  0.1524 -3.7053 -0.0412
  883SOL    HW2 2649   1.298   0.196   2.194  1.1424  1.2775  1.5588
  884SOL     OW 2650   2.514   0.581   0.210  0.0273 -0.1778 -0.3359
  884SOL    HW1 2651   2.476   0.543   0.300  0.5989 -2.0318  2.3178
  884SOL    HW2 2652   2.556   0.674   0.214 -1.0114 -1.5744  3.4790
  885SOL     OW 2653   1.113   1.407   0.037 -0.4890  0.4396  0.3920
  885SOL    HW1 2654   1.059   1.331   3.102  0.9457  0.5027  1.7821
  885SOL    HW2 2655   1.058   1.480   0.083  0.8898  1.7058 -1.8460
  886SOL     OW 2656   1.466   1.404   2.544 -0.0681  0.2563 -0.0592
  886SOL    HW1 2657   1.520   1.485   2.515  0.5847 -0.6323 -2.0881
  886SOL    HW2 2658   1.514   1.341   2.610  1.6537 -0.8373  1.0788
  887SOL     OW 2659   1.356   0.355   1.632 -0.4950 -0.1995 -0.0316
  887SOL    HW1 2660   1.363   0.262   1.593 -3.6859  0.2942  0.6850
  887SOL    HW2 2661   1.392   0.365   1.727  1.5228  0.3781  0.0113
  888SOL     OW 2662   2.605   0.639   1.899 -0.4097  0.5490 -0.2179
  888SOL    HW1 2663   2.641   0.548   1.931  1.5601  2.7594 -0.7425
  888SOL    HW2 2664   2.665   0.713   1.930  0.5775  0.5170 -1.5165
  889SOL     OW 2665   0.253   2.782   0.998 -0.6105  0.4158 -0.8201
  889SOL    HW1 2666   0.184   2.711   1.009  1.5390  0.7813 -0.8637
  889SOL    HW2 2667   0.326   2.746   0.939 -0.9862 -0.0218  1.0666
  890SOL     OW 2668   2.785   2.268   0.187 -0.2832  0.1953 -0.3538
  890SOL    HW1 2669   2.763   2.294   0.282  1.0385 -0.3607  1.4115
  890SOL    HW2 2670   2.885   2.261   0.171  0.7674  2.2943 -0.5913
  891SOL     OW 2671   0.887   1.621   2.914 -0.0949 -0.3950  0.2343
  891SOL    HW1 2672   0.951   1.563   2.863  1.8856 -2.6650 -1.8756
  891SOL    HW2 2673   0.888   1.589   3.011  1.9129  1.6863 -0.1747
  892SOL     OW 2674   3.027   0.114   0.955 -0.1248  0.0631 -0.4910
  892SOL    HW1 2675   3.049   0.125   1.055  1.3789 -1.1640 -2.1028
  892SOL    HW2 2676   3.001   0.017   0.946  0.2217  1.0155 -0.2571
  893SOL     OW 2677   1.152   2.949   1.163 -0.1371 -0.4213 -0.5304
  893SOL    HW1 2678   1.169   2.979   1.262 -1.5443  1.0453  4.0698
  893SOL    HW2 2679   1.055   2.966   1.135 -0.1622  0.9236 -0.7329
  894SOL     OW 2680   2.718   0.752   0.670 -0.4928 -0.1726  0.1995
  894SOL    HW1 2681   2.629   0.786   0.694  1.1313 -1.6902  0.1173
  894SOL    HW2 2682   2.711   0.661   0.627  1.0858  1.9530 -1.1065
  895SOL     OW 2683   2.442   2.419   2.228  0.1034  0.2143  0.1444
  895SOL    HW1 2684   2.351   2.394   2.264 -0.7616  0.2994 -0.1724
  895SOL    HW2 2685   2.457   2.518   2.253 -1.2434 -0.7158  0.1259
  896SOL     OW 2686   1.081   0.096   1.754  0.1839 -0.0579 -0.0558
  896SOL    HW1 2687   1.110   3.105   1.770  0.6006 -0.8465  1.9909
  896SOL    HW2 2688   1.119   0.153   1.830 -2.4588 -1.3351  0.8588
  897SOL     OW 2689   0.779   1.856   1.860 -0.2029 -0.1318  0.2916
  897SOL    HW1 2690   0.763   1.798   1.775  0.0441  0.7873 -1.1938
  897SOL    HW2 2691   0.736   1.945   1.840 -1.7330 -0.1986  1.5039
  898SOL     OW 2692   1.998   2.661   1.740 -0.2344  0.1214  0.2847
  898SOL    HW1 2693   2.034   2.726   1.666  0.8605  1.7814 -0.9501
  898SOL    HW2 2694   2.072   2.596   1.768  0.0299  0.6042  1.7099
  899SOL     OW 2695   0.949   0.905   1.076  0.2738  0.0636  0.1551
  899SOL    HW1 2696   0.976   1.005   1.084  0.9741  2.4092  2.7187
  899SOL    HW2 2697   0.845   0.897   1.055 -0.8671  1.3193 -1.0891
  900SOL     OW 2698   2.001   2.239   2.811  0.2539  0.3998 -0.4093
  900SOL    HW1 2699   1.939   2.166   2.776 -1.5479  2.3465  0.6842
  900SOL    HW2 2700   2.054   2.277   2.729 -1.2707  2.2005 -2.4358
  901SOL     OW 2701   0.842   2.251   2.656 -0.1113  0.0102  0.2382
  901SOL    HW1 2702   0.856   2.282   2.754  1.2490 -0.8550  0.0722
  901SOL    HW2 2703   0.863   2.330   2.593  0.0804  0.2067 -0.0853
  902SOL     OW 2704   2.234   1.328   0.148  0.5721 -0.1079 -0.0992
  902SOL    HW1 2705   2.282   1.412   0.104  2.6672  0.6873  0.5511
  902SOL    HW2 2706   2.252   1.245   0.098  0.3756  0.0831  3.3720
  903SOL     OW 2707   2.015   0.785   0.412 -0.0563 -0.3182  0.0563
  903SOL    HW1 2708   2.080   0.858   0.438 -0.7341 -2.4585 -0.4852
  903SOL    HW2 2709   1.927   0.830   0.394 -0.8738  0.4621 -2.0161
  904SOL     OW 2710   0.770   0.933   2.902 -0.5649 -0.2321  0.2316
  904SOL    HW1 2711   0.673   0.958   2.868 -1.1878  0.2125  1.1568
  904SOL    HW2 2712   0.839   0.982   2.850 -2.2963  2.1458  1.1378
  905SOL     OW 2713   2.294   0.280   1.051  0.4846 -0.6332  0.2321
  905SOL    HW1 2714   2.216   0.301   1.114  0.4159  0.7738 -2.4674
  905SOL    HW2 2715   2.344   0.363   1.017  1.5215  0.3600 -1.3632
  906SOL     OW 2716   2.764   2.478   1.442 -0.5096  0.1699 -0.4491
  906SOL    HW1 2717   2.733   2.387   1.474  0.3285  1.2805 -0.9962
  906SOL    HW2 2718   2.824   2.475   1.363  0.4052 -0.9392  1.5533
  907SOL     OW 2719   1.216   0.532   0.291  0.6438 -0.1477 -0.2575
  907SOL    HW1 2720   1.273   0.575   0.223  1.2751 -1.3214  0.9299
  907SOL    HW2 2721   1.282   0.485   0.349  0.2907 -0.1228 -1.5835
  908SOL     OW 2722   2.290   2.936   1.546 -0.8769  0.2922  0.1059
  908SOL    HW1 2723   2.356   2.906   1.612  1.1378 -2.2946 -1.0657
  908SOL    HW2 2724   2.324   3.025   1.508  2.1639  0.1208  0.5483
  909SOL     OW 2725   2.814   0.833   1.517 -0.0255 -0.1029 -0.2743
  909SOL    HW1 2726   2.794   0.810   1.417 -1.9097 -0.0196 -0.1704
  909SOL    HW2 2727   2.731   0.875   1.562  0.2949  0.6277 -0.3129
  910SOL     OW 2728   1.478   2.766   2.207  0.1761  0.2192 -0.3694
  910SOL    HW1 2729   1.532   2.700   2.156  0.9877  1.0683  0.0551
  910SOL    HW2 2730   1.425   2.825   2.140 -1.4981  0.2951  0.2961
  911SOL     OW 2731   2.396   0.548   2.299  0.7063 -0.0175  0.2874
  911SOL    HW1 2732   2.383   0.636   2.247 -3.3423  0.4709 -1.3199
  911SOL    HW2 2733   2.332   0.556   2.380  1.2637  1.6148  0.9663
  912SOL     OW 2734   2.633   1.189   1.411  0.0374 -0.2860 -0.4907
  912SOL    HW1 2735   2.699   1.266   1.436  1.1659 -1.1137  1.1619
  912SOL    HW2 2736   2.659   1.156   1.320  0.1247  0.7361 -0.0181
  913SOL     OW 2737   2.520   2.214   1.334  0.4350 -0.0671 -0.2060
  913SOL    HW1 2738   2.581   2.196   1.255  1.7282  2.4448 -1.4383
  913SOL    HW2 2739   2.444   2.148   1.339 -0.1117 -1.9641  2.6278
  914SOL     OW 2740   1.975   1.187   1.469 -0.4004 -0.7034  0.0521
  914SOL    HW1 2741   2.048   1.148   1.406  0.7582 -0.7607 -1.6095
  914SOL    HW2 2742   1.901   1.123   1.497 -1.9114 -1.3640  2.1867
  915SOL     OW 2743   1.052   0.928   1.359 -0.7263  0.0108  0.1260
  915SOL    HW1 2744   1.074   0.928   1.461  2.6765  2.1670  0.0471
  915SOL    HW2 2745   0.959   0.891   1.336 -0.2599 -1.0963 -0.3888
  916SOL     OW 2746   2.760   2.842   1.650 -0.0067  0.3277 -0.1932
  916SOL    HW1 2747   2.796   2.758   1.697  1.3995 -0.5540  2.4508
  916SOL    HW2 2748   2.814   2.917   1.690  0.9904 -2.0159 -1.1520
  917SOL     OW 2749   2.510   2.132   0.211  0.2054 -0.3113 -0.5380
  917SOL    HW1 2750   2.459   2.161   0.125  2.3248 -0.7160 -0.3026
  917SOL    HW2 2751   2.601   2.171   0.221 -2.1927 -0.0010  0.6730
  918SOL     OW 2752   1.955   2.644   2.703 -0.5991 -0.0631 -0.4266
  918SOL    HW1 2753   1.882   2.715   2.689  0.0842  0.1272  2.0384
  918SOL    HW2 2754   2.020   2.674   2.783  0.7410 -1.0575  3.7645
  919SOL     OW 2755   1.552   1.990   1.568 -0.2131 -0.8341 -0.4736
  919SOL    HW1 2756   1.494   1.997   1.647  3.2094 -2.2366 -3.6956
  919SOL    HW2 2757   1.500   1.956   1.493  0.4312 -0.5590  0.4590
  920SOL     OW 2758   2.736   0.106   2.561 -0.2328 -0.2232  0.1225
  920SOL    HW1 2759   2.774   0.026   2.515  1.3238  2.0055  0.7381
  920SOL    HW2 2760   2.762   0.105   2.658  2.2592 -0.4177 -2.4043
  921SOL     OW 2761   2.991   0.666   2.076  0.5934  0.0279 -0.1173
  921SOL    HW1 2762   3.005   0.583   2.026 -1.8114  0.0258  0.4053
  921SOL    HW2 2763   3.011   0.651   2.175 -0.1576  2.7077 -0.0132
  922SOL     OW 2764   2.086   2.068   0.520  1.2106 -0.3495  0.0093
  922SOL    HW1 2765   2.174   2.107   0.479  0.1400 -2.7732 -0.9644
  922SOL    HW2 2766   2.104   2.058   0.622  0.7076  2.4325 -0.6357
  923SOL     OW 2767   0.459   2.144   3.106 -0.1954  0.0187  0.0651
  923SOL    HW1 2768   0.507   2.073   3.047 -1.2624  0.2847  0.9787
  923SOL    HW2 2769   0.496   2.239   3.082 -1.1981  2.9066  0.2558
  924SOL     OW 2770   0.848   0.342   0.360 -0.3912  0.4097 -0.2645
  924SOL    HW1 2771   0.775   0.352   0.431  0.9443  2.7381 -1.7540
  924SOL    HW2 2772   0.868   0.435   0.322 -1.5484  0.6916 -0.9364
  925SOL     OW 2773   2.559   1.077   0.752 -0.5058  0.1909  0.0700
  925SOL    HW1 2774   2.463   1.094   0.789  4.3188  1.7949 -1.1345
  925SOL    HW2 2775   2.552   1.058   0.653 -1.5263 -0.3885 -0.5208
  926SOL     OW 2776   0.138   1.092   1.037  0.7497 -0.1659 -0.3564
  926SOL    HW1 2777   0.080   1.096   1.115  1.9385 -0.2008 -1.7460
  926SOL    HW2 2778   0.167   0.995   1.013 -0.7388 -1.5639  1.5799
  927SOL     OW 2779   3.038   1.065   2.830 -0.3333 -0.4766 -0.1072
  927SOL    HW1 2780   3.071   0.984   2.786 -1.5148  2.8769  1.0979
  927SOL    HW2 2781   0.004   1.127   2.865  0.4708  0.5155  1.0853
  928SOL     OW 2782   2.904   0.437   2.363  0.0638  0.5853 -0.6852
  928SOL    HW1 2783   2.932   0.377   2.287  2.6537  2.3137  2.9305
  928SOL    HW2 2784   2.799   0.436   2.375 -1.9405  1.3741 -0.3866
  929SOL     OW 2785   3.025   2.933   1.231  0.1567  0.1718  0.3697
  929SOL    HW1 2786   2.949   2.973   1.283  1.7058 -2.3756  1.1050
  929SOL    HW2 2787   3.006   2.936   1.132 -0.3328 -2.0645  2.3948
  930SOL     OW 2788   2.029   1.343   1.669  0.0194  0.1868 -0.0224
  930SOL    HW1 2789   2.048   1.444   1.654 -1.4772 -1.5615 -0.4385
  930SOL    HW2 2790   2.021   1.289   1.583  1.0324 -0.0480  1.2182
  931SOL     OW 2791   1.644   1.433   0.547  0.2042  0.4575  0.3101
  931SOL    HW1 2792   1.729   1.468   0.507  0.7632 -0.4184  0.0688
  931SOL    HW2 2793   1.562   1.494   0.558 -2.6260 -1.3491 -0.5420
  932SOL     OW 2794   2.682   1.376   0.870 -0.2421 -0.0433 -0.1824
  932SOL    HW1 2795   2.736   1.294   0.847 -0.3537  0.3587  1.4432
  932SOL    HW2 2796   2.741   1.451   0.900  0.9641 -0.5765 -1.9032
  933SOL     OW 2797   2.235   1.487   1.275  0.0493  0.0374 -0.1626
  933SOL    HW1 2798   2.160   1.424   1.262 -0.6362  1.0958  1.6546
  933SOL    HW2 2799   2.210   1.583   1.249 -1.9694  4.6704 -0.8060
  934SOL     OW 2800   1.690   2.924   1.725 -0.2504 -0.1582 -0.6870
  934SOL    HW1 2801   1.614   2.987   1.748 -0.7204 -0.6210  2.8130
  934SOL    HW2 2802   1.654   2.838   1.686  0.7682 -1.1612  1.3211
  935SOL     OW 2803   3.074   1.657   0.801 -0.2358 -0.6640  0.7663
  935SOL    HW1 2804   3.097   1.603   0.717 -0.9141 -0.3630  1.2245
  935SOL    HW2 2805   0.054   1.701   0.840  0.3540  2.0336  3.6510
  936SOL     OW 2806   0.418   1.034   0.475  0.0787 -0.1255 -0.1301
  936SOL    HW1 2807   0.369   1.010   0.391  0.6908  3.0869 -1.7717
  936SOL    HW2 2808   0.519   1.042   0.461  0.9144  0.9943  0.1443
  937SOL     OW 2809   2.254   2.935   1.067 -0.1402  0.0950  0.0629
  937SOL    HW1 2810   2.201   2.858   1.108  2.3549 -1.1996  0.2400
  937SOL    HW2 2811   2.245   2.946   0.966 -0.2960  1.3082 -0.1990
  938SOL     OW 2812   2.756   2.101   0.956  0.1785 -0.1024  0.0132
  938SOL    HW1 2813   2.779   2.039   1.034  0.6978  1.0299 -0.0524
  938SOL    HW2 2814   2.697   2.178   0.992  0.2272  2.1754 -0.8908
  939SOL     OW 2815   0.759   2.018   0.483  0.2834  0.6228 -0.1765
  939SOL    HW1 2816   0.724   1.928   0.438  0.1190 -0.0646  1.1508
  939SOL    HW2 2817   0.858   2.037   0.477  0.9691 -1.0196  0.2054
  940SOL     OW 2818   2.823   0.116   0.007  0.4086  0.1737  0.1109
  940SOL    HW1 2819   2.913   0.162   3.095  1.0192  1.3875  1.4242
  940SOL    HW2 2820   2.834   0.048   0.085  0.7961 -0.1725  0.0429
  941SOL     OW 2821   1.094   0.174   3.009  0.0803  0.0737 -0.2394
  941SOL    HW1 2822   1.175   0.117   2.988 -1.5008 -1.0313 -0.6312
  941SOL    HW2 2823   1.128   0.254   3.057 -1.5910 -0.0825 -0.3796
  942SOL     OW 2824   1.145   1.384   1.056 -0.4806 -0.5547  0.3414
  942SOL    HW1 2825   1.224   1.452   1.046 -0.9223  1.2148 -2.4528
  942SOL    HW2 2826   1.177   1.292   1.023  0.0935 -1.5949 -0.5168
  943SOL     OW 2827   1.770   1.031   1.562 -0.6310  0.3027 -0.3071
  943SOL    HW1 2828   1.764   1.007   1.663  1.7129  0.2525  1.3007
  943SOL    HW2 2829   1.756   0.952   1.496 -0.1171  0.4440 -1.5913
  944SOL     OW 2830   1.519   0.618   1.962  0.1276  0.0464  0.7249
  944SOL    HW1 2831   1.491   0.697   1.908  0.7086 -1.3082 -0.5696
  944SOL    HW2 2832   1.618   0.631   1.973 -1.5374 -0.9793  1.8066
  945SOL     OW 2833   3.036   0.132   0.510  0.2041  0.3983  0.0401
  945SOL    HW1 2834   2.991   0.217   0.478 -1.6852  0.4951 -0.6298
  945SOL    HW2 2835   3.103   0.096   0.443 -2.1335 -1.7286 -0.8945
  946SOL     OW 2836   0.048   0.309   1.516 -0.7439  0.3659 -0.1487
  946SOL    HW1 2837   0.024   0.371   1.437 -0.0964 -0.2207 -0.8598
  946SOL    HW2 2838   3.066   0.262   1.547  0.2876  0.6738 -0.4929
  947SOL     OW 2839   0.671   3.054   0.393  0.5224 -0.3395  0.1950
  947SOL    HW1 2840   0.586   3.034   0.338  0.8251 -1.3775 -0.0356
  947SOL    HW2 2841   0.721   0.027   0.352  1.0363  0.4055 -0.3752
  948SOL     OW 2842   2.532   1.156   1.790 -0.3342 -0.3774  0.1234
  948SOL    HW1 2843   2.469   1.237   1.803 -2.7147  1.2467  1.3533
  948SOL    HW2 2844   2.577   1.150   1.883 -0.2511 -1.6390  0.0929
  949SOL     OW 2845   0.509   0.830   2.747  0.2254  0.7097 -0.1572
  949SOL    HW1 2846   0.569   0.755   2.714  1.9233 -0.7022  0.0621
  949SOL    HW2 2847   0.416   0.795   2.764 -0.9006  0.4580  1.0604
  950SOL     OW 2848   0.896   0.390   1.044  0.1193 -0.0638 -0.1571
  950SOL    HW1 2849   0.938   0.300   1.072 -1.4999 -2.9404 -0.8198
  950SOL    HW2 2850   0.945   0.432   0.969 -0.5948 -0.8981 -0.5260
  951SOL     OW 2851   1.062   1.883   2.054 -0.1948  0.3114  0.1191
  951SOL    HW1 2852   1.122   1.964   2.062  2.0938  0.8959  0.5823
  951SOL    HW2 2853   0.964   1.912   2.071 -0.4303  0.6228  2.2081
  952SOL     OW 2854   0.886   1.613   0.098 -0.0145 -0.6550  0.5458
  952SOL    HW1 2855   0.860   1.523   0.140  1.1790 -3.3859 -0.2637
  952SOL    HW2 2856   0.820   1.691   0.112 -1.5577  2.8998  1.2542
  953SOL     OW 2857   2.112   2.959   2.340 -1.0523 -0.2822  0.1322
  953SOL    HW1 2858   2.125   2.885   2.270  0.4468 -1.0440  1.8652
  953SOL    HW2 2859   2.182   3.036   2.330  1.4621  1.0457  1.4026
  954SOL     OW 2860   1.615   1.190   0.690  0.0330 -0.1106 -0.0547
  954SOL    HW1 2861   1.602   1.121   0.620 -0.2993  1.3554  1.5825
  954SOL    HW2 2862   1.633   1.280   0.650 -1.0887 -1.4020  0.3788
  955SOL     OW 2863   0.298   2.347   2.308  0.4547 -0.2180 -0.3031
  955SOL    HW1 2864   0.380   2.312   2.258 -0.6053 -1.6104 -1.4825
  955SOL    HW2 2865   0.301   2.450   2.312  0.6397  0.3506 -0.9646
  956SOL     OW 2866   1.644   0.350   1.619  0.1920  0.2248 -0.2017
  956SOL    HW1 2867   1.551   0.382   1.606 -0.1716 -0.5486 -2.3960
  956SOL    HW2 2868   1.702   0.419   1.671  0.1652  3.9103  1.4581
  957SOL     OW 2869   1.701   1.926   2.906  0.4994  0.1006 -0.4170
  957SOL    HW1 2870   1.615   1.970   2.875 -0.1853  0.8189  0.2982
  957SOL    HW2 2871   1.716   1.927   3.010 -1.7565  1.3706 -0.3396
  958SOL     OW 2872   1.249   2.271   1.760 -0.0345 -0.5307 -0.3581
  958SOL    HW1 2873   1.195   2.310   1.838 -0.1608 -0.2638 -1.6485
  958SOL    HW2 2874   1.296   2.186   1.782  2.6057  0.3570  0.6504
  959SOL     OW 2875   2.146   2.131   3.016 -0.6114 -0.3709  0.1134
  959SOL    HW1 2876   2.170   2.199   3.090 -0.7494  1.5892  0.6337
  959SOL    HW2 2877   2.105   2.174   2.932  0.3032 -0.0070  2.8176
  960SOL     OW 2878   2.990   0.350   2.785 -0.1726  0.1298  0.1344
  960SOL    HW1 2879   2.995   0.257   2.742 -0.4420  0.0536  0.3975
  960SOL    HW2 2880   2.968   0.430   2.726  1.7635 -5.7371  1.2410
  961SOL     OW 2881   0.933   1.111   2.763 -0.1806 -0.1159  0.5246
  961SOL    HW1 2882   0.869   1.183   2.732 -1.5117 -0.3781  0.9744
  961SOL    HW2 2883   0.961   1.051   2.688  0.2066 -0.5284  0.9126
  962SOL     OW 2884   1.193   1.220   2.780 -0.2015 -0.2869 -0.0705
  962SOL    HW1 2885   1.105   1.175   2.808 -0.8379  0.3404  1.5807
  962SOL    HW2 2886   1.242   1.166   2.709 -2.1165 -0.8308  0.9292
  963SOL     OW 2887   2.274   2.321   0.065 -0.2735 -0.4907  0.4762
  963SOL    HW1 2888   2.370   2.317   0.026  1.8079  0.2890 -0.1188
  963SOL    HW2 2889   2.263   2.419   0.107  2.2481  2.3194  1.4792
  964SOL     OW 2890   1.381   2.529   1.152 -0.6343 -0.5097  0.4857
  964SOL    HW1 2891   1.353   2.476   1.235 -1.5729  0.0184  2.2752
  964SOL    HW2 2892   1.305   2.586   1.110 -0.6574 -0.0509 -0.4106
  965SOL     OW 2893   1.278   1.513   0.765  0.4122 -0.0688  0.0265
  965SOL    HW1 2894   1.333   1.552   0.694  0.1523  0.2059  2.2438
  965SOL    HW2 2895   1.187   1.568   0.769 -3.8021  3.8677  0.3397
  966SOL     OW 2896   0.243   1.404   3.049  0.0581 -0.0353 -0.4294
  966SOL    HW1 2897   0.296   1.478   2.998  0.4261 -0.0277  4.1255
  966SOL    HW2 2898   0.232   1.432   0.042 -2.2390 -0.1190  2.5310
  967SOL     OW 2899   1.879   0.231   1.868  0.3058 -0.1286  0.5799
  967SOL    HW1 2900   1.965   0.247   1.919  1.0672 -1.1881  1.2685
  967SOL    HW2 2901   1.907   0.163   1.794  1.1404 -2.5714  0.4223
  968SOL     OW 2902   1.574   0.992   0.508  0.2819 -0.5824  0.3098
  968SOL    HW1 2903   1.508   1.033   0.440  0.6314 -0.9820 -1.3361
  968SOL    HW2 2904   1.643   0.934   0.464 -3.8222 -0.0156  0.7914
  969SOL     OW 2905   0.281   1.348   2.353  0.6775  0.0281  0.0321
  969SOL    HW1 2906   0.182   1.342   2.322 -2.1601 -0.3504 -0.4533
  969SOL    HW2 2907   0.345   1.405   2.295  5.2616  1.3980  2.2816
  970SOL     OW 2908   2.062   1.326   1.143 -0.6436 -0.0844  0.0566
  970SOL    HW1 2909   2.008   1.244   1.121  2.2648  1.8867 -0.4037
  970SOL    HW2 2910   2.109   1.351   1.054  2.1548  1.1878 -0.7567
  971SOL     OW 2911   0.404   3.101   1.292  0.1811  0.6154 -0.1869
  971SOL    HW1 2912   0.367   0.076   1.339 -2.7176 -0.1402  0.3496
  971SOL    HW2 2913   0.330   3.048   1.241 -1.7756 -2.0704 -2.4795
  972SOL     OW 2914   0.260   0.751   2.788 -0.4474 -0.4449  0.5015
  972SOL    HW1 2915   0.280   0.658   2.829 -0.0395  1.5097 -2.9390
  972SOL    HW2 2916   0.232   0.815   2.860  0.9772 -0.8616 -3.7527
  973SOL     OW 2917   0.214   0.830   0.996 -0.1717  0.2100  0.2523
  973SOL    HW1 2918   0.221   0.765   1.075  0.9791  1.1523 -0.4194
  973SOL    HW2 2919   0.126   0.811   0.946 -1.3334  1.8310  0.9601
  974SOL     OW 2920   2.099   0.605   2.024  0.1646  0.0764  0.2592
  974SOL    HW1 2921   2.036   0.670   1.981  1.5701 -0.7570  0.8981
  974SOL    HW2 2922   2.191   0.636   2.001 -0.6674 -0.5938 -0.1336
  975SOL     OW 2923   2.689   0.111   0.412  0.5445 -0.1715 -0.1020
  975SOL    HW1 2924   2.620   0.136   0.487  0.5365  0.5356  0.7994
  975SOL    HW2 2925   2.779   0.084   0.450 -1.3837  0.6019  2.4988
  976SOL     OW 2926   0.163   1.330   1.689 -0.5703 -0.2049 -0.2317
  976SOL    HW1 2927   0.200   1.366   1.600  1.0080 -0.2988  3.1877
  976SOL    HW2 2928   0.142   1.404   1.759  0.5414 -0.1613  0.7910
  977SOL     OW 2929   1.112   2.748   0.166 -0.5671  0.3531  0.2104
  977SOL    HW1 2930   1.194   2.809   0.181  0.6344  0.2024  1.0586
  977SOL    HW2 2931   1.154   2.653   0.165  1.7687 -1.9007  0.2193
  978SOL     OW 2932   0.466   1.280   0.200  0.9342  0.2044  0.3303
  978SOL    HW1 2933   0.539   1.228   0.241  0.8790 -1.8797  3.5137
  978SOL    HW2 2934   0.382   1.275   0.262 -1.7051  0.7831  1.7200
  979SOL     OW 2935   1.752   1.759   1.444  0.0876  0.4096 -0.1944
  979SOL    HW1 2936   1.708   1.746   1.533  2.1830  1.7465 -0.5098
  979SOL    HW2 2937   1.730   1.681   1.379  2.7231 -1.4494 -3.7252
  980SOL     OW 2938   0.546   1.528   1.843 -0.1294  0.6739  0.2036
  980SOL    HW1 2939   0.584   1.566   1.933  0.9334  1.2792  0.0314
  980SOL    HW2 2940   0.503   1.434   1.847  1.1224  1.5256 -0.7078
  981SOL     OW 2941   0.210   1.484   0.195 -0.6551  0.4011 -0.1905
  981SOL    HW1 2942   0.242   1.579   0.225  0.2011  1.1148 -1.2960
  981SOL    HW2 2943   0.108   1.479   0.202 -0.6568 -1.7659  1.8429
  982SOL     OW 2944   2.293   2.794   1.994 -0.2640 -0.3054 -0.4077
  982SOL    HW1 2945   2.311   2.791   1.895 -1.4480  0.0105  2.4228
  982SOL    HW2 2946   2.371   2.840   2.046  3.2199  1.2564 -0.0737
  983SOL     OW 2947   1.109   0.613   1.281  0.1519 -0.1154 -0.0298
  983SOL    HW1 2948   1.095   0.626   1.181 -1.6757 -4.7201 -0.1692
  983SOL    HW2 2949   1.054   0.681   1.334  0.9960  1.6167  1.9419
  984SOL     OW 2950   1.187   2.979   2.720 -0.4985 -0.3573 -0.4736
  984SOL    HW1 2951   1.234   3.020   2.806 -1.1761  0.5350  2.5560
  984SOL    HW2 2952   1.157   3.055   2.662  1.2523 -1.9768  1.4059
  985SOL     OW 2953   1.842   2.059   1.623 -0.5543 -0.0751  0.4596
  985SOL    HW1 2954   1.750   2.016   1.629 -0.2592 -1.0535 -0.0513
  985SOL    HW2 2955   1.856   2.113   1.543  1.5585 -2.1157  3.5407
  986SOL     OW 2956   2.462   0.134   2.508  0.3269  0.0428 -0.0036
  986SOL    HW1 2957   2.559   0.108   2.534  1.1191  1.6603 -1.1498
  986SOL    HW2 2958   2.453   0.231   2.529 -2.6365 -1.2663 -0.7727
  987SOL     OW 2959   2.643   0.780   2.270  0.0051  0.1495  0.5853
  987SOL    HW1 2960   2.674   0.708   2.334 -0.3596 -0.3461 -0.7820
  987SOL    HW2 2961   2.551   0.811   2.291 -0.5970  0.1902  1.9606
  988SOL     OW 2962   2.279   0.761   2.679 -0.2059  0.2557  0.2654
  988SOL    HW1 2963   2.226   0.740   2.765  0.2997  1.5207 -0.6030
  988SOL    HW2 2964   2.221   0.812   2.610 -0.3652  3.9000 -3.3439
  989SOL     OW 2965   2.321   1.737   2.058  0.1183 -0.2381 -0.5983
  989SOL    HW1 2966   2.363   1.764   2.147 -0.2185 -0.5211  1.5074
  989SOL    HW2 2967   2.379   1.767   1.978 -4.1485 -2.5283  0.5333
  990SOL     OW 2968   0.369   1.270   2.758 -0.2032 -0.7243  0.3828
  990SOL    HW1 2969   0.274   1.275   2.795  0.7719 -0.0806  1.3166
  990SOL    HW2 2970   0.428   1.351   2.785 -2.1794  0.9187  0.8402
  991SOL     OW 2971   0.478   1.961   2.624  0.1992  0.3291  0.2736
  991SOL    HW1 2972   0.445   1.873   2.665 -0.5558 -0.6362  1.4447
  991SOL    HW2 2973   0.418   2.038   2.650  0.3226 -0.3923 -0.9261
  992SOL     OW 2974   2.542   2.081   1.927  0.4008 -0.0228  0.4685
  992SOL    HW1 2975   2.462   2.133   1.885 -0.4412 -0.5594 -2.7902
  992SOL    HW2 2976   2.598   2.143   1.989  1.2133  3.5548  1.3946
  993SOL     OW 2977   0.327   0.024   0.630 -0.1550 -0.1848  0.4742
  993SOL    HW1 2978   0.309   0.051   0.728  0.8327  2.3060  1.4097
  993SOL    HW2 2979   0.274   3.044   0.611 -0.8411  1.6561 -4.3872
  994SOL     OW 2980   0.209   1.737   1.503  0.0653  0.2625 -0.0184
  994SOL    HW1 2981   0.190   1.828   1.467 -0.9736 -2.2211  2.5260
  994SOL    HW2 2982   0.274   1.739   1.586  1.9172  0.9765  0.2708
  995SOL     OW 2983   2.039   1.679   2.776  0.3768  0.1709  0.1688
  995SOL    HW1 2984   1.947   1.663   2.815 -1.8979 -0.7885  1.5795
  995SOL    HW2 2985   2.068   1.777   2.780  1.1249 -0.0411 -2.1502
  996SOL     OW 2986   2.070   1.103   2.701 -0.1570 -0.6947  0.2640
  996SOL    HW1 2987   2.109   1.084   2.796  1.8533 -3.2486  0.0080
  996SOL    HW2 2988   2.048   1.200   2.697  2.5853 -1.5066  0.2359
  997SOL     OW 2989   1.501   0.850   1.814 -0.1962  0.1970 -0.0498
  997SOL    HW1 2990   1.420   0.912   1.827 -1.2619  0.6651 -0.2054
  997SOL    HW2 2991   1.498   0.809   1.721 -0.2179  0.1436  3.5419
  998SOL     OW 2992   2.324   2.092   0.950 -0.0369 -0.1444 -0.2707
  998SOL    HW1 2993   2.403   2.157   0.964 -1.5761 -0.5394 -1.2995
  998SOL    HW2 2994   2.336   2.010   1.015 -1.2080 -1.7721  0.5155
  999SOL     OW 2995   2.464   2.369   0.742  0.7326 -0.4680  0.2694
  999SOL    HW1 2996   2.376   2.345   0.693  1.0248 -0.0898 -2.3674
  999SOL    HW2 2997   2.475   2.468   0.729 -2.1827 -0.9373  0.9837
 1000SOL     OW 2998   0.857   0.029   3.070 -0.2401  0.2706 -1.3415
 1000SOL    HW1 2999   0.816   0.078   0.046  0.7770  0.5208  1.5947
 1000SOL    HW2 3000   0.934   0.086   3.048 -0.5194  0.1786  1.5976
   3.10584   3.10584   3.10584
