1000 SPC/Fw water molecules t= 124.00000 step= 124000
 3000
    1SOL     OW    1   2.209   2.168   0.973 -0.0095 -0.4719 -0.0004
    1SOL    HW1    2   2.268   2.115   0.911 -0.9685  0.7065  1.3452
    1SOL    HW2    3   2.156   2.103   1.029 -1.5319  1.7143  1.3750
    2SOL     OW    4   1.394   1.815   2.349 -1.0556  0.1176  0.2010
    2SOL    HW1    5   1.305   1.823   2.393 -0.0629  0.6733 -0.9644
    2SOL    HW2    6   1.398   1.725   2.296  1.8397 -0.7226  0.7518
    3SOL     OW    7   1.513   2.411   2.302 -0.0326 -0.1905  0.3383
    3SOL    HW1    8   1.415   2.406   2.318  2.7665 -1.2481 -1.1198
    3SOL    HW2    9   1.555   2.323   2.336 -1.3475 -1.8782 -0.1032
    4SOL     OW   10   1.219   2.393   2.056  0.4082 -0.2551  0.4699
    4SOL    HW1   11   1.170   2.305   2.028 -0.6689 -1.1940 -1.4029
    4SOL    HW2   12   1.306   2.390   2.011 -1.0666  2.2270 -0.5814
    5SOL     OW   13   0.616   0.779   1.780 -0.0616  0.4261 -0.0493
    5SOL    HW1   14   0.622   0.878   1.804 -0.4355 -1.4410 -0.7225
    5SOL    HW2   15   0.522   0.767   1.746  0.3795 -2.0499 -0.1133
    6SOL     OW   16   2.192   0.948   0.151 -0.1008  0.1332 -0.5425
    6SOL    HW1   17   2.097   0.917   0.137  0.1524 -1.8127 -0.5726
    6SOL    HW2   18   2.251   0.866   0.186  0.8931 -1.0537  0.9169
    7SOL     OW   19   0.664   0.267   1.540 -0.9247 -0.2426 -0.3481
    7SOL    HW1   20   0.753   0.258   1.596  2.1941 -2.3661 -0.4134
    7SOL    HW2   21   0.634   0.176   1.510  0.4416 -1.0744 -1.7231
    8SOL     OW   22   1.527   0.030   1.589 -0.6543  0.0700 -0.3528
    8SOL    HW1   23   1.529   3.018   1.625 -1.2170 -1.5893 -1.7223
    8SOL    HW2   24   1.463   0.079   1.649 -2.0316  3.9478  0.1734
    9SOL     OW   25   0.568   0.660   0.586 -0.0132  0.5242 -0.4314
    9SOL    HW1   26   0.627   0.732   0.633 -0.4244  1.9473  1.2902
    9SOL    HW2   27   0.495   0.701   0.526  1.5445 -0.6063  0.1637
   10SOL     OW   28   0.650   2.373   2.420  0.2691  0.1017  0.4217
   10SOL    HW1   29   0.609   2.343   2.511 -2.2296 -1.6260  1.0639
   10SOL    HW2   30   0.580   2.418   2.363  0.5270  1.1234  0.1646
   11SOL     OW   31   0.368   1.919   3.057  0.3676 -0.0849  0.3309
   11SOL    HW1   32   0.444   1.858   3.083 -2.2575  1.3993  1.5944
   11SOL    HW2   33   0.299   1.934   0.044  0.2876  0.0112  1.6124
   12SOL     OW   34   0.335   0.044   1.371  0.2947  0.0378  0.0227
   12SOL    HW1   35   0.427   0.033   1.417 -0.1646  0.5974  0.6702
   12SOL    HW2   36   0.309   3.045   1.322  2.1392  1.0288  1.6566
   13SOL     OW   37   0.774   2.539   0.062  0.1683  0.2752 -0.1895
   13SOL    HW1   38   0.866   2.504   0.033 -1.7614 -0.3085 -2.1356
   13SOL    HW2   39   0.770   2.642   0.063 -0.0153  3.2790  0.6079
   14SOL     OW   40   1.573   1.738   0.953 -0.2696  0.3257  0.1117
   14SOL    HW1   41   1.614   1.690   1.033 -1.0379 -2.3347  1.5391
   14SOL    HW2   42   1.510   1.816   0.987 -0.9635  0.5996 -0.5473
   15SOL     OW   43   2.773   1.159   2.207  0.2960  0.2912 -0.2637
   15SOL    HW1   44   2.853   1.103   2.245  1.1846 -1.2747 -1.3070
   15SOL    HW2   45   2.783   1.259   2.228 -3.1290  0.4864  0.8350
   16SOL     OW   46   1.349   2.878   2.907  0.6309  0.1296  0.2516
   16SOL    HW1   47   1.314   2.785   2.881 -1.2303  0.5160  2.1466
   16SOL    HW2   48   1.315   2.949   2.845 -0.2929 -2.9213  1.7003
   17SOL     OW   49   0.625   2.374   2.085 -0.1516 -0.6355 -0.3230
   17SOL    HW1   50   0.679   2.309   2.141  0.9494 -1.0844  3.0103
   17SOL    HW2   51   0.533   2.328   2.082  1.0862 -1.7769  0.3572
   18SOL     OW   52   1.682   0.791   0.392 -0.1900  0.0654 -0.1258
   18SOL    HW1   53   1.684   0.894   0.398 -1.1202  3.4762  2.0433
   18SOL    HW2   54   1.711   0.757   0.302 -1.1886 -1.6544  1.5955
   19SOL     OW   55   2.474   1.898   2.741  0.0287  0.2115  0.1799
   19SOL    HW1   56   2.455   1.933   2.832  0.5801  4.0565 -3.7861
   19SOL    HW2   57   2.535   1.815   2.744 -4.2243 -0.4838 -1.9076
   20SOL     OW   58   2.497   2.195   2.415  0.3765 -0.2266  0.5983
   20SOL    HW1   59   2.487   2.290   2.375 -2.3919  3.0551 -0.3827
   20SOL    HW2   60   2.595   2.163   2.418  1.6911  1.0597  0.0838
   21SOL     OW   61   0.699   2.086   0.081 -0.1646 -0.1944 -0.2187
   21SOL    HW1   62   0.631   2.129   0.148 -2.3039  1.5755 -0.3587
   21SOL    HW2   63   0.673   1.989   0.081  0.4179  2.7734  0.5887
   22SOL     OW   64   2.232   2.811   1.094 -0.3156  0.4986  0.4784
   22SOL    HW1   65   2.288   2.894   1.083 -1.3312 -3.4729 -0.9074
   22SOL    HW2   66   2.195   2.790   1.187  0.8677  0.8222 -0.5400
   23SOL     OW   67   0.350   1.446   1.408  0.2848 -0.1041 -0.1396
   23SOL    HW1   68   0.336   1.551   1.414 -0.7634  1.8814  1.0393
   23SOL    HW2   69   0.436   1.407   1.440  0.2615 -0.2435 -0.4201
   24SOL     OW   70   2.006   2.030   1.592 -0.5193  0.0067 -0.3503
   24SOL    HW1   71   1.928   1.970   1.610 -2.1837 -1.1896  1.2608
   24SOL    HW2   72   2.035   2.074   1.679  0.4572 -0.0083  0.3606
   25SOL     OW   73   1.917   0.248   2.401  0.7065  0.2979 -0.7836
   25SOL    HW1   74   1.846   0.323   2.403  0.0287 -1.7276  1.2075
   25SOL    HW2   75   1.882   0.162   2.365  1.6580  0.5815  1.7628
   26SOL     OW   76   1.525   2.890   0.998 -0.5060 -0.0170 -0.1746
   26SOL    HW1   77   1.621   2.904   0.965 -0.8247 -1.3197 -0.3875
   26SOL    HW2   78   1.491   2.965   1.057  1.8826 -3.2629 -0.2241
   27SOL     OW   79   1.241   1.827   0.003  0.3239 -0.4563 -0.3584
   27SOL    HW1   80   1.283   1.800   0.094  0.8358 -1.3275 -3.7992
   27SOL    HW2   81   1.141   1.792   0.000 -1.6597 -1.5202 -0.0924
   28SOL     OW   82   2.802   1.912   1.330  0.1963 -0.8589 -0.1918
   28SOL    HW1   83   2.767   1.831   1.377 -0.4523 -0.7981  1.1419
   28SOL    HW2   84   2.897   1.940   1.355  1.7093  0.8545  0.6540
   29SOL     OW   85   2.262   2.570   1.960  0.2935  0.6577  0.1897
   29SOL    HW1   86   2.263   2.475   1.996  1.0447  1.7898 -0.2571
   29SOL    HW2   87   2.323   2.624   2.024 -1.6287 -2.7527  1.6120
   30SOL     OW   88   0.939   2.665   1.142 -0.0367  0.8000  0.1123
   30SOL    HW1   89   1.037   2.658   1.109  2.9954  0.6920 -0.8100
   30SOL    HW2   90   0.884   2.697   1.060 -2.3497 -3.3128  0.0040
   31SOL     OW   91   3.023   2.195   2.082  0.4012 -0.0667 -0.1900
   31SOL    HW1   92   3.064   2.103   2.077 -1.8589  2.1574  0.7538
   31SOL    HW2   93   3.050   2.254   2.000 -0.4293 -1.6107 -0.3740
   32SOL     OW   94   1.508   1.250   2.071 -0.3649 -0.5318 -0.6989
   32SOL    HW1   95   1.536   1.156   2.043 -1.1687  1.9613 -0.0563
   32SOL    HW2   96   1.422   1.279   2.019 -0.6442  3.1804  3.1602
   33SOL     OW   97   0.318   2.945   2.409  0.3737 -0.4893 -0.0760
   33SOL    HW1   98   0.253   2.891   2.464 -1.4553 -0.4102 -2.1210
   33SOL    HW2   99   0.415   2.946   2.445  0.2725 -2.2380 -0.2958
   34SOL     OW  100   1.749   0.037   1.421 -0.6993 -0.0302  0.0621
   34SOL    HW1  101   1.673   0.051   1.489 -0.5212  1.9295  2.1224
   34SOL    HW2  102   1.839   0.051   1.466 -4.1328 -2.3948 -0.0837
   35SOL     OW  103   2.068   0.559   1.118  0.3644  0.5108  0.5227
   35SOL    HW1  104   2.089   0.606   1.205  2.0259 -0.0874 -3.0530
   35SOL    HW2  105   1.999   0.614   1.064  0.5467  3.8562 -3.9402
   36SOL     OW  106   2.424   2.848   2.386  0.0849  0.5500  0.0949
   36SOL    HW1  107   2.408   2.798   2.474 -0.8457  1.0023  0.8533
   36SOL    HW2  108   2.481   2.935   2.403 -0.7977  0.2912  0.6079
   37SOL     OW  109   1.348   2.227   2.921  0.2577 -0.2084 -0.2425
   37SOL    HW1  110   1.322   2.234   3.019  2.2891  0.2751 -2.1943
   37SOL    HW2  111   1.300   2.148   2.877 -1.0526 -1.5056 -1.7108
   38SOL     OW  112   3.038   0.790   2.652  0.0436  0.4411 -0.4525
   38SOL    HW1  113   2.947   0.757   2.619 -1.7246  2.7198  0.2858
   38SOL    HW2  114   3.053   0.752   2.746  0.6639  0.3949 -0.3338
   39SOL     OW  115   2.017   2.020   2.199  0.1435  0.0640  0.5689
   39SOL    HW1  116   2.038   1.975   2.108 -0.3256  2.8898  0.1597
   39SOL    HW2  117   2.044   2.117   2.203  1.7397  0.8952 -0.7568
   40SOL     OW  118   0.375   0.214   2.939 -0.8057  0.2681 -0.0823
   40SOL    HW1  119   0.382   0.179   3.036  1.3937 -0.7242  0.0500
   40SOL    HW2  120   0.378   0.135   2.878 -0.4649  1.3054  3.2975
   41SOL     OW  121   1.381   0.927   1.456 -0.0180  0.1510  0.3699
   41SOL    HW1  122   1.482   0.933   1.418  2.5752  0.5584 -1.0171
   41SOL    HW2  123   1.370   0.958   1.552 -2.1814  2.7514 -1.0044
   42SOL     OW  124   0.206   0.239   1.968 -0.1619 -1.2423  0.3370
   42SOL    HW1  125   0.158   0.329   1.977 -1.8180  2.0120 -0.6500
   42SOL    HW2  126   0.302   0.256   1.946 -3.1981 -0.8828 -0.3540
   43SOL     OW  127   1.617   1.585   2.039  0.4648 -0.4366 -0.5574
   43SOL    HW1  128   1.545   1.592   2.110  1.6331 -1.2535 -1.8160
   43SOL    HW2  129   1.671   1.497   2.038 -0.9921 -0.1580  0.2991
   44SOL     OW  130   2.911   2.766   2.646  0.3165  0.2367  0.5494
   44SOL    HW1  131   2.941   2.864   2.649 -0.8415 -0.4297 -0.8030
   44SOL    HW2  132   2.856   2.735   2.729 -0.8784 -1.6598  3.4830
   45SOL     OW  133   0.509   2.403   1.272 -0.2748 -0.5040 -0.3802
   45SOL    HW1  134   0.533   2.318   1.223  0.4764 -0.9883 -0.2578
   45SOL    HW2  135   0.570   2.415   1.351  2.8479  0.9781 -0.5590
   46SOL     OW  136   2.492   2.456   1.766 -0.0505 -0.5021 -0.3444
   46SOL    HW1  137   2.425   2.528   1.786  2.5238 -1.1814 -1.7900
   46SOL    HW2  138   2.446   2.378   1.736  2.5031  0.4827  0.7270
   47SOL     OW  139   1.722   1.597   1.665 -0.1982  0.6267 -0.0766
   47SOL    HW1  140   1.627   1.584   1.705  0.4425 -2.1717  2.5780
   47SOL    HW2  141   1.790   1.547   1.720  1.9436 -0.4141 -0.1094
   48SOL     OW  142   0.378   2.024   0.441  0.1314  0.1185 -0.1278
   48SOL    HW1  143   0.380   2.026   0.544 -1.3339  0.2237 -1.3823
   48SOL    HW2  144   0.281   2.017   0.412  0.5593  3.5100  1.1444
   49SOL     OW  145   2.929   1.250   1.947  0.4341 -0.3205  0.0568
   49SOL    HW1  146   2.989   1.283   2.019 -0.6367  3.0242  0.1103
   49SOL    HW2  147   2.842   1.214   1.982 -2.1361  1.9154 -1.6308
   50SOL     OW  148   2.044   0.983   0.646 -0.1426  0.1953  0.1154
   50SOL    HW1  149   2.113   0.940   0.588  0.5934 -0.8325  2.1726
   50SOL    HW2  150   1.951   0.941   0.636 -3.1694  0.6786 -1.2542
   51SOL     OW  151   1.155   0.661   0.608 -0.4354 -0.2686 -0.9894
   51SOL    HW1  152   1.066   0.674   0.660 -1.1023 -0.8583  0.0951
   51SOL    HW2  153   1.220   0.621   0.672 -0.6500  2.2863 -0.1352
   52SOL     OW  154   1.302   1.065   0.325 -0.4743  0.0822  0.0968
   52SOL    HW1  155   1.295   0.964   0.308 -0.2078 -0.3888  0.6468
   52SOL    HW2  156   1.363   1.089   0.401 -2.0008  0.7843  0.8701
   53SOL     OW  157   1.151   2.344   2.723 -0.2929  0.1529 -0.3328
   53SOL    HW1  158   1.182   2.271   2.656  2.2474 -0.5487 -0.1899
   53SOL    HW2  159   1.224   2.356   2.793 -0.5167  0.3257 -0.3360
   54SOL     OW  160   1.528   0.845   1.776  0.4205  0.0131  0.1893
   54SOL    HW1  161   1.472   0.931   1.757  0.5140  0.7368 -4.1539
   54SOL    HW2  162   1.570   0.806   1.696  2.4643 -1.6082 -0.1415
   55SOL     OW  163   2.220   2.926   0.501  0.0510 -0.6569 -0.2400
   55SOL    HW1  164   2.167   2.945   0.418  0.6303  0.3678 -2.6452
   55SOL    HW2  165   2.250   2.826   0.502  1.3300 -2.2245  1.0620
   56SOL     OW  166   1.149   2.735   1.597  0.1266  0.2158 -0.3187
   56SOL    HW1  167   1.119   2.764   1.691 -0.0570  0.2922 -1.6304
   56SOL    HW2  168   1.082   2.766   1.530  2.0821 -1.1743 -0.7183
   57SOL     OW  169   1.835   0.720   2.966 -0.2186  0.1842 -0.5671
   57SOL    HW1  170   1.819   0.785   2.893 -0.0921  0.6698  1.3085
   57SOL    HW2  171   1.864   0.630   2.920  1.1891 -2.4367  2.1021
   58SOL     OW  172   3.030   1.285   1.695 -0.0189  0.2455 -0.1138
   58SOL    HW1  173   2.998   1.270   1.790 -1.7213 -3.3636  1.2647
   58SOL    HW2  174   2.954   1.301   1.629  2.4041  1.8486 -0.6577
   59SOL     OW  175   0.479   2.545   2.307  0.2627  0.3955 -0.0522
   59SOL    HW1  176   0.412   2.505   2.248  0.5200  1.2382 -0.2098
   59SOL    HW2  177   0.503   2.635   2.268 -3.3391  0.2268  0.3131
   60SOL     OW  178   2.638   2.608   0.929  0.1530  0.0885  0.1329
   60SOL    HW1  179   2.554   2.573   0.977 -0.5803 -4.1448 -0.3903
   60SOL    HW2  180   2.639   2.586   0.832  1.5583  1.8918  2.4731
   61SOL     OW  181   1.068   2.313   0.360  0.0218 -0.2590  0.3000
   61SOL    HW1  182   1.168   2.324   0.340 -1.5976  0.4889  3.4943
   61SOL    HW2  183   1.031   2.222   0.333 -2.6658 -1.3871  1.5972
   62SOL     OW  184   2.035   2.708   3.017 -0.0193 -0.3490 -0.0621
   62SOL    HW1  185   2.119   2.684   2.964  1.5661  3.6978  2.4148
   62SOL    HW2  186   1.947   2.706   2.964 -0.0167  1.5327 -0.4568
   63SOL     OW  187   1.945   0.198   2.934 -0.2655 -0.4299 -0.2650
   63SOL    HW1  188   1.895   0.111   2.925  2.2223  1.3755 -2.3240
   63SOL    HW2  189   2.044   0.174   2.950 -0.7323 -1.5536 -1.2066
   64SOL     OW  190   0.943   0.980   2.591  0.1573 -0.0511 -0.9195
   64SOL    HW1  191   1.005   0.911   2.549  0.3664 -2.1605 -3.0549
   64SOL    HW2  192   0.849   0.948   2.565  1.4893  0.7091 -2.9975
   65SOL     OW  193   1.425   2.697   0.610 -0.2959  0.0424 -0.6565
   65SOL    HW1  194   1.464   2.658   0.527 -0.8933  1.6833  1.9708
   65SOL    HW2  195   1.483   2.675   0.693 -1.9837  0.5825  1.6198
   66SOL     OW  196   0.373   1.629   1.700  0.6397 -0.2179 -0.0632
   66SOL    HW1  197   0.381   1.571   1.776  0.8646 -0.2650 -4.4458
   66SOL    HW2  198   0.287   1.612   1.645 -1.2235 -0.1556  0.1046
   67SOL     OW  199   2.234   2.991   2.107  0.7997 -0.2322  0.7461
   67SOL    HW1  200   2.226   2.950   2.017  0.4078 -0.6431 -0.9897
   67SOL    HW2  201   2.320   3.045   2.118  0.9247  0.1626 -0.1533
   68SOL     OW  202   0.839   0.855   1.541 -0.0064  0.0974  0.1365
   68SOL    HW1  203   0.831   0.760   1.508 -0.6459 -1.1590  0.9177
   68SOL    HW2  204   0.775   0.862   1.616 -0.3367 -1.1777  0.1691
   69SOL     OW  205   1.988   2.985   0.321 -0.0531  0.1357 -0.2831
   69SOL    HW1  206   1.930   2.925   0.377 -0.1652 -2.2608 -0.5508
   69SOL    HW2  207   1.971   3.082   0.343  0.1140 -2.0611 -1.7742
   70SOL     OW  208   2.822   0.899   2.927 -0.3705  0.2259  0.3198
   70SOL    HW1  209   2.862   0.991   2.962 -3.9641  1.7152 -1.1380
   70SOL    HW2  210   2.757   0.868   2.999 -0.5967 -0.5354 -0.6013
   71SOL     OW  211   2.779   1.649   2.988  0.1813  0.3235  0.4230
   71SOL    HW1  212   2.732   1.667   2.897  2.8766  0.3556  0.2178
   71SOL    HW2  213   2.880   1.638   2.984 -0.2398 -1.3942  1.9779
   72SOL     OW  214   2.896   1.863   0.373  0.4468 -0.4958 -0.3007
   72SOL    HW1  215   2.857   1.783   0.424  0.7662 -0.3401 -1.4200
   72SOL    HW2  216   2.957   1.922   0.433 -0.0469 -0.2764  0.5406
   73SOL     OW  217   0.953   1.008   0.430  0.3999  0.2876 -0.5207
   73SOL    HW1  218   0.922   1.108   0.429 -0.5917  3.8958  0.9096
   73SOL    HW2  219   0.916   0.961   0.344 -0.4735  0.5932 -1.6820
   74SOL     OW  220   0.210   1.979   1.924 -0.6773 -0.5090  0.6375
   74SOL    HW1  221   0.213   2.080   1.949  0.8305  1.0058  1.6795
   74SOL    HW2  222   0.304   1.956   1.888  2.4105  0.9641 -2.0370
   75SOL     OW  223   1.782   1.186   1.545 -0.1462  0.0178 -0.4476
   75SOL    HW1  224   1.758   1.088   1.530 -1.4057  2.3567  0.9699
   75SOL    HW2  225   1.718   1.225   1.619 -0.0170  3.9391 -0.3080
   76SOL     OW  226   1.970   2.239   1.239 -0.1773  0.0443 -0.1403
   76SOL    HW1  227   2.040   2.168   1.221  2.3085  2.1687  0.7925
   76SOL    HW2  228   2.012   2.332   1.249 -1.6502 -0.2369  1.8253
   77SOL     OW  229   2.761   1.560   1.675  0.2081 -0.1528 -0.5325
   77SOL    HW1  230   2.706   1.554   1.761  0.2182 -0.8335  0.7141
   77SOL    HW2  231   2.856   1.592   1.694 -0.0305  2.2139  1.2329
   78SOL     OW  232   1.497   0.437   0.516  0.3209  0.2522 -0.1512
   78SOL    HW1  233   1.498   0.393   0.609  0.5410  0.0529 -0.8362
   78SOL    HW2  234   1.597   0.442   0.481 -0.5319 -1.6292  1.1413
   79SOL     OW  235   2.410   1.640   1.520 -0.2083 -0.1095 -0.0224
   79SOL    HW1  236   2.339   1.691   1.574  0.2261 -1.8337  2.5228
   79SOL    HW2  237   2.412   1.543   1.554 -1.7360 -0.7227  2.5835
   80SOL     OW  238   0.738   0.561   1.444  0.2935  0.0351  0.1909
   80SOL    HW1  239   0.701   0.472   1.466 -1.2393  4.4764  1.7338
   80SOL    HW2  240   0.756   0.565   1.347  0.7180 -1.6397  1.0337
   81SOL     OW  241   0.742   2.905   0.980  0.1390  0.0149 -0.0557
   81SOL    HW1  242   0.838   2.925   1.020  1.6742 -0.5494 -1.1097
   81SOL    HW2  243   0.739   2.939   0.886 -0.9300  1.5978  0.9268
   82SOL     OW  244   1.561   2.954   1.930  0.4203  0.0004 -0.0837
   82SOL    HW1  245   1.522   2.925   1.837 -0.9838 -3.4189 -2.5942
   82SOL    HW2  246   1.490   2.976   1.998  0.6041 -0.1321 -0.9136
   83SOL     OW  247   1.382   1.814   0.719  0.0753  0.2052 -0.5662
   83SOL    HW1  248   1.480   1.832   0.724 -0.0920  0.1853  1.1286
   83SOL    HW2  249   1.330   1.871   0.650 -2.5381 -1.3456  0.9772
   84SOL     OW  250   0.092   1.308   2.940  0.3205 -0.5922 -0.3081
   84SOL    HW1  251   0.127   1.225   2.891  0.2441 -0.8931 -2.1238
   84SOL    HW2  252   3.071   1.306   2.927 -2.4541  2.1489  0.2286
   85SOL     OW  253   0.277   2.325   0.936  0.2786  0.0243  0.5056
   85SOL    HW1  254   0.288   2.342   0.835  0.7266  1.2140  0.6278
   85SOL    HW2  255   0.344   2.384   0.981 -0.2360 -2.8255  0.7600
   86SOL     OW  256   2.167   2.442   1.591  0.5981  0.1745  0.2143
   86SOL    HW1  257   2.237   2.510   1.555  2.3603 -0.4094 -0.4223
   86SOL    HW2  258   2.122   2.483   1.669 -0.1269  0.2096 -0.9518
   87SOL     OW  259   3.030   2.022   0.557  0.2455 -0.1566  0.2966
   87SOL    HW1  260   0.009   2.102   0.567  0.2643  0.2114 -0.6158
   87SOL    HW2  261   3.055   1.940   0.610 -0.7345 -2.0753 -1.2838
   88SOL     OW  262   0.880   0.788   1.004 -0.1344 -0.2606  0.2241
   88SOL    HW1  263   0.818   0.849   1.062  0.6795 -0.3822  1.1874
   88SOL    HW2  264   0.974   0.831   0.997 -0.7582 -0.1420 -0.1721
   89SOL     OW  265   1.006   3.058   1.895 -0.4804  0.1218  0.1600
   89SOL    HW1  266   0.911   3.077   1.925  2.5820  0.1097 -3.0606
   89SOL    HW2  267   1.078   0.023   1.954  1.2008 -2.0797  0.8589
   90SOL     OW  268   0.233   2.123   1.370 -0.0028  0.1393 -0.0089
   90SOL    HW1  269   0.287   2.092   1.294 -1.3161  1.8348  2.3997
   90SOL    HW2  270   0.288   2.174   1.441  0.2290  2.1172  0.8538
   91SOL     OW  271   1.391   2.073   1.363  0.2934 -0.0479  0.0534
   91SOL    HW1  272   1.387   2.018   1.450 -0.4095  0.6438  2.4189
   91SOL    HW2  273   1.473   2.068   1.305 -0.4511  0.4822  3.0131
   92SOL     OW  274   2.572   2.842   1.545  0.2809 -0.0884 -0.3455
   92SOL    HW1  275   2.558   2.902   1.462  0.4839 -0.9656  1.7050
   92SOL    HW2  276   2.646   2.775   1.532 -2.0994  0.0693 -0.8870
   93SOL     OW  277   0.100   1.017   2.873 -0.5970  0.3532  0.0157
   93SOL    HW1  278   0.087   0.987   2.970  0.6102 -1.0241  0.0784
   93SOL    HW2  279   0.198   1.007   2.843  0.3650  0.3322  1.0151
   94SOL     OW  280   2.746   2.395   1.873 -0.1974 -0.3943 -0.1250
   94SOL    HW1  281   2.744   2.409   1.978  1.8226 -0.3548  3.4606
   94SOL    HW2  282   2.665   2.442   1.838  3.7419 -0.9842  3.3957
   95SOL     OW  283   1.214   0.612   2.025  0.0852 -0.2509  0.2905
   95SOL    HW1  284   1.217   0.668   2.111  0.4229  1.8435  1.1350
   95SOL    HW2  285   1.131   0.631   1.975  1.2832 -0.2441 -1.0357
   96SOL     OW  286   2.586   0.639   1.711 -0.0439 -0.2808  0.1837
   96SOL    HW1  287   2.597   0.578   1.627  0.4267  0.0239 -2.2292
   96SOL    HW2  288   2.571   0.585   1.795 -2.9288 -3.6152  1.1600
   97SOL     OW  289   2.096   0.334   1.738  0.6778 -0.1624 -0.1459
   97SOL    HW1  290   2.061   0.423   1.768  2.3652 -1.0785  2.3985
   97SOL    HW2  291   2.127   0.345   1.643  1.2208 -1.7786  0.8301
   98SOL     OW  292   2.038   2.506   1.219 -0.2659 -0.3181  0.1266
   98SOL    HW1  293   2.034   2.530   1.122  0.2380 -0.4052  3.3158
   98SOL    HW2  294   2.090   2.573   1.274 -1.0968  1.0470 -0.2969
   99SOL     OW  295   2.729   0.415   2.029  0.4493  0.5749  0.2439
   99SOL    HW1  296   2.749   0.385   2.124  0.0032  0.7628 -1.0537
   99SOL    HW2  297   2.812   0.469   2.002  1.4480  3.9671 -1.0254
  100SOL     OW  298   2.274   1.724   1.752  0.0345  0.3475  0.5728
  100SOL    HW1  299   2.202   1.714   1.828 -3.0532  1.3671  1.7876
  100SOL    HW2  300   2.364   1.760   1.780 -0.6848  0.5369 -2.7959
  101SOL     OW  301   1.686   0.118   0.732  0.3739  0.2357  0.1089
  101SOL    HW1  302   1.786   0.115   0.759  1.1143  0.4443  0.2220
  101SOL    HW2  303   1.627   0.035   0.756 -0.9059 -2.3036 -0.8156
  102SOL     OW  304   0.535   0.771   1.249 -0.1614  0.2873  0.5743
  102SOL    HW1  305   0.541   0.671   1.283  1.1647 -0.0121 -0.3986
  102SOL    HW2  306   0.618   0.781   1.188  0.9894 -1.0803 -2.1886
  103SOL     OW  307   2.680   0.430   3.018 -0.5959  0.1611 -0.0154
  103SOL    HW1  308   2.728   0.341   3.004 -1.1313  0.2365  0.6062
  103SOL    HW2  309   2.670   0.453   0.035 -1.1523  0.3711  3.3200
  104SOL     OW  310   2.766   0.219   1.615  0.4013  0.2667  0.2870
  104SOL    HW1  311   2.806   0.125   1.626  0.8263 -2.1930 -0.1209
  104SOL    HW2  312   2.834   0.295   1.638  0.6671 -0.6547 -2.0793
  105SOL     OW  313   1.734   0.884   2.288  0.6883 -0.0167  0.2118
  105SOL    HW1  314   1.769   0.789   2.312 -1.2188 -0.5527 -0.6047
  105SOL    HW2  315   1.805   0.943   2.248 -0.2428 -1.1888 -1.8737
  106SOL     OW  316   1.829   2.927   0.849 -0.2561  0.2674 -0.2361
  106SOL    HW1  317   1.834   2.966   0.949 -1.1444  3.2548  1.1393
  106SOL    HW2  318   1.905   2.956   0.790 -2.7491 -0.1973 -0.3974
  107SOL     OW  319   0.735   1.065   0.846  0.1860  0.2036  0.8655
  107SOL    HW1  320   0.713   1.163   0.857 -0.9444 -0.8881 -0.9890
  107SOL    HW2  321   0.670   1.000   0.892 -0.9108 -0.6729  4.5407
  108SOL     OW  322   2.781   0.350   2.299 -0.2594  0.0481  0.2853
  108SOL    HW1  323   2.835   0.268   2.298 -2.6616  3.0204 -2.8437
  108SOL    HW2  324   2.709   0.351   2.365  1.6063  1.6349 -0.0388
  109SOL     OW  325   2.021   0.318   0.125  0.2412  0.1748 -0.1575
  109SOL    HW1  326   1.982   0.264   0.048  1.2438 -3.2493  1.1230
  109SOL    HW2  327   2.010   0.419   0.121  0.4438 -1.9982  0.6941
  110SOL     OW  328   0.086   2.161   2.747 -0.3579  0.3724  0.0669
  110SOL    HW1  329   0.114   2.239   2.688  0.7718 -0.0054 -3.3417
  110SOL    HW2  330   0.025   2.196   2.822 -3.2620 -1.4369 -0.1230
  111SOL     OW  331   2.114   0.290   2.022  0.1592  0.2600  0.2991
  111SOL    HW1  332   2.178   0.283   1.942  0.9865  0.8698  1.6252
  111SOL    HW2  333   2.166   0.302   2.110 -2.2460 -2.0249 -1.2446
  112SOL     OW  334   2.483   3.070   0.557  0.0147 -0.3459 -0.3539
  112SOL    HW1  335   2.436   0.045   0.626 -2.7741  0.5766 -1.5391
  112SOL    HW2  336   2.415   3.020   0.504  0.9710  3.3757  2.8114
  113SOL     OW  337   2.361   2.160   1.696 -0.1258 -0.0704  0.3610
  113SOL    HW1  338   2.320   2.175   1.604  1.8076  1.1416  0.3382
  113SOL    HW2  339   2.283   2.139   1.761  0.1503 -0.3253  0.5497
  114SOL     OW  340   2.853   0.603   0.678  0.1390  0.4196 -0.3046
  114SOL    HW1  341   2.877   0.643   0.590  1.1600 -0.3759  0.9986
  114SOL    HW2  342   2.918   0.527   0.700  4.3507 -0.5895  0.4706
  115SOL     OW  343   2.736   1.741   0.167 -0.3068 -0.3658  0.3361
  115SOL    HW1  344   2.818   1.784   0.210  2.3563  1.2399 -0.9324
  115SOL    HW2  345   2.759   1.712   0.072 -1.7294  0.4516 -0.3744
  116SOL     OW  346   2.991   1.607   2.026  0.4200 -0.3386 -0.1995
  116SOL    HW1  347   2.896   1.583   2.044 -0.4300  0.6652 -1.4002
  116SOL    HW2  348   3.007   1.608   1.925  0.8361 -0.1544 -0.9535
  117SOL     OW  349   2.732   0.060   0.485 -0.2209 -0.2513  0.0221
  117SOL    HW1  350   2.639   0.026   0.509 -0.6776  2.5667 -1.4579
  117SOL    HW2  351   2.732   0.104   0.394  0.0055 -0.8675  2.2071
  118SOL     OW  352   0.503   2.615   1.572 -0.8464  0.2159 -0.4636
  118SOL    HW1  353   0.433   2.599   1.501  1.4536  0.6825  1.8100
  118SOL    HW2  354   0.586   2.557   1.555  2.5280  0.8931  0.6533
  119SOL     OW  355   1.745   2.313   1.093  0.7432 -0.4099  0.0038
  119SOL    HW1  356   1.828   2.299   1.150 -0.0115 -0.4550  1.0885
  119SOL    HW2  357   1.739   2.407   1.070  1.3276 -2.8417 -1.5936
  120SOL     OW  358   0.511   1.897   2.349  0.2884 -0.6701  0.0598
  120SOL    HW1  359   0.602   1.854   2.344  0.1081  1.1534  0.9508
  120SOL    HW2  360   0.497   1.955   2.432 -0.5159  0.2585  0.6026
  121SOL     OW  361   2.854   1.556   0.951  0.0517 -0.0090 -0.0410
  121SOL    HW1  362   2.844   1.592   1.046  1.0624  0.6061 -0.3850
  121SOL    HW2  363   2.816   1.462   0.941  0.4023  0.3515  0.9486
  122SOL     OW  364   2.036   1.511   2.498  0.0577 -0.2462 -0.0691
  122SOL    HW1  365   1.946   1.560   2.480 -2.4813  0.1989 -0.7746
  122SOL    HW2  366   2.115   1.576   2.512  4.0448 -2.0324  1.2197
  123SOL     OW  367   2.775   0.216   0.689 -0.2159  0.1934  0.0552
  123SOL    HW1  368   2.875   0.246   0.686 -0.8537  1.2440  1.7952
  123SOL    HW2  369   2.757   0.140   0.624  0.6898 -2.5573 -1.5893
  124SOL     OW  370   1.261   1.104   2.628 -0.2214 -0.0630 -0.2062
  124SOL    HW1  371   1.236   1.164   2.704 -0.0353 -0.3416 -2.6928
  124SOL    HW2  372   1.360   1.130   2.604  0.7119  2.2275  2.0890
  125SOL     OW  373   0.304   1.600   2.599  0.1987 -0.0077  0.6648
  125SOL    HW1  374   0.305   1.635   2.693 -2.3059  2.7510  1.5455
  125SOL    HW2  375   0.390   1.553   2.567 -0.8805 -1.5635  2.9597
  126SOL     OW  376   2.714   2.043   0.268 -0.0814  0.2509  0.1835
  126SOL    HW1  377   2.763   2.135   0.276  1.7320 -0.2382  0.2810
  126SOL    HW2  378   2.770   1.968   0.312  0.1573 -2.0954 -2.4697
  127SOL     OW  379   0.711   1.651   0.881 -0.0147  0.3990 -0.0148
  127SOL    HW1  380   0.659   1.668   0.963  0.0343  0.6552 -0.8299
  127SOL    HW2  381   0.666   1.680   0.790 -1.5071 -3.1173 -0.0902
  128SOL     OW  382   1.370   0.640   0.110  0.1811 -0.4320  0.2741
  128SOL    HW1  383   1.332   0.668   0.203  0.4279 -1.3312  1.7851
  128SOL    HW2  384   1.465   0.674   0.103 -1.0858  0.0524  0.4606
  129SOL     OW  385   2.269   1.779   1.203 -0.4605 -0.4869 -0.3389
  129SOL    HW1  386   2.343   1.847   1.226 -0.0933 -0.9357 -0.1944
  129SOL    HW2  387   2.193   1.829   1.153 -1.5314  0.2749 -0.7144
  130SOL     OW  388   1.659   1.385   0.533  0.1373  0.3562  0.2409
  130SOL    HW1  389   1.660   1.487   0.515  0.1477 -0.2682  0.8453
  130SOL    HW2  390   1.682   1.367   0.634  1.5275 -0.7832  2.6268
  131SOL     OW  391   3.003   1.061   2.584  0.6119 -0.0930  0.0234
  131SOL    HW1  392   3.015   0.977   2.632  0.1075  1.9533 -0.8196
  131SOL    HW2  393   2.906   1.087   2.579 -0.7425  2.0662  0.8520
  132SOL     OW  394   2.116   1.533   1.616  0.0537 -0.2259 -0.2674
  132SOL    HW1  395   2.099   1.573   1.526 -0.8215  1.2929  1.3288
  132SOL    HW2  396   2.198   1.580   1.666  1.4762  0.7172 -1.5407
  133SOL     OW  397   0.280   1.492   3.041 -0.3689 -0.3490  0.6352
  133SOL    HW1  398   0.195   1.449   3.019  4.4432  0.9925  2.9957
  133SOL    HW2  399   0.281   1.522   0.051  1.8918  0.4494 -0.9879
  134SOL     OW  400   2.813   1.339   0.049 -0.2678  0.5233  0.2991
  134SOL    HW1  401   2.870   1.295   3.059  2.8517  1.7752  0.6538
  134SOL    HW2  402   2.810   1.436   0.037 -0.4915 -3.1063 -0.4907
  135SOL     OW  403   2.535   1.057   0.208 -0.1221  0.7935 -0.3307
  135SOL    HW1  404   2.467   1.056   0.130 -1.9300  1.4238 -2.2507
  135SOL    HW2  405   2.550   1.151   0.244 -0.5089  0.3353 -1.1281
  136SOL     OW  406   2.053   1.251   1.528  0.0528  0.3162 -0.1098
  136SOL    HW1  407   2.094   1.323   1.587  1.2546 -0.8038 -1.4881
  136SOL    HW2  408   1.964   1.219   1.561  2.1663  2.1842 -0.1684
  137SOL     OW  409   2.407   2.105   0.310 -0.2766  0.0758  0.2768
  137SOL    HW1  410   2.324   2.061   0.277  1.3797  0.0885  0.8584
  137SOL    HW2  411   2.486   2.039   0.320  0.8358  0.8934  0.8198
  138SOL     OW  412   1.365   0.213   1.756  0.0073 -0.1175 -0.4405
  138SOL    HW1  413   1.360   0.241   1.852  1.9248  2.9397 -1.1219
  138SOL    HW2  414   1.409   0.284   1.699 -0.9135 -2.1017  1.3604
  139SOL     OW  415   2.431   0.195   2.958  0.0415 -0.2365  0.1600
  139SOL    HW1  416   2.487   0.278   2.956 -0.1101 -0.8847 -0.9356
  139SOL    HW2  417   2.450   0.143   3.044  1.0688 -0.7567  1.5460
  140SOL     OW  418   1.471   1.984   2.688  0.1474 -0.3661  0.0693
  140SOL    HW1  419   1.511   1.915   2.623 -1.0735 -1.4308  1.6954
  140SOL    HW2  420   1.411   1.938   2.760 -0.1005  0.1631  0.4367
  141SOL     OW  421   0.919   0.977   2.041  0.7087  0.0554  0.6120
  141SOL    HW1  422   0.877   0.975   2.137 -1.8314  0.6845  1.1102
  141SOL    HW2  423   0.941   0.888   2.002 -1.6420 -0.5669  1.1918
  142SOL     OW  424   2.173   2.620   0.146  0.2959 -0.1240  0.4294
  142SOL    HW1  425   2.124   2.672   0.070 -1.1710  1.0969 -3.8205
  142SOL    HW2  426   2.222   2.543   0.095 -0.9281 -2.4472 -1.0073
  143SOL     OW  427   0.879   1.997   2.970 -0.1291 -0.3166 -0.1381
  143SOL    HW1  428   0.907   2.053   2.889 -0.9702 -0.6236  2.0859
  143SOL    HW2  429   0.821   2.054   3.033  0.4819  1.9954 -2.3954
  144SOL     OW  430   1.103   2.609   0.295  0.7748  0.0362 -0.4491
  144SOL    HW1  431   1.055   2.562   0.217  1.1704  0.8660 -0.0410
  144SOL    HW2  432   1.063   2.585   0.389  0.5719 -0.2720 -1.4971
  145SOL     OW  433   2.316   1.721   3.028 -0.2134  0.4423  0.5942
  145SOL    HW1  434   2.387   1.762   0.004  0.5910  1.6880 -1.0355
  145SOL    HW2  435   2.238   1.788   3.026 -2.1415 -2.0478 -1.5564
  146SOL     OW  436   2.464   2.813   2.834 -0.0022 -0.0533  0.1389
  146SOL    HW1  437   2.406   2.874   2.775  1.3509  0.1212  1.0897
  146SOL    HW2  438   2.537   2.870   2.879 -1.4450  1.6941 -1.8328
  147SOL     OW  439   2.688   1.990   1.091  0.5844  0.2578  0.0163
  147SOL    HW1  440   2.751   2.032   1.023 -0.0404  1.8694  1.6920
  147SOL    HW2  441   2.746   1.968   1.173  0.4266 -0.0617  3.9793
  148SOL     OW  442   1.757   0.001   2.905  0.0426 -0.3234  0.2644
  148SOL    HW1  443   1.696   3.010   2.874  2.1721  0.0889 -0.7145
  148SOL    HW2  444   1.743   0.016   3.007  1.0182 -0.5587  2.0515
  149SOL     OW  445   1.122   1.471   2.698  0.2000  0.0075  0.3255
  149SOL    HW1  446   1.197   1.467   2.766  0.3261  2.0098  1.6724
  149SOL    HW2  447   1.113   1.385   2.646 -1.0434 -0.5010 -1.5025
  150SOL     OW  448   0.664   2.103   0.704 -0.3094 -0.0420 -0.2764
  150SOL    HW1  449   0.721   2.165   0.765  1.3865  2.8746 -0.0190
  150SOL    HW2  450   0.722   2.025   0.675 -2.3133  0.7655  1.0470
  151SOL     OW  451   0.636   1.812   0.008 -0.1025  0.7079 -0.0224
  151SOL    HW1  452   0.595   1.758   0.082  2.5766 -1.1110 -0.9237
  151SOL    HW2  453   0.716   1.769   3.049 -0.0662  0.9591 -1.4086
  152SOL     OW  454   2.611   1.293   0.377  0.3240  0.6437  0.0624
  152SOL    HW1  455   2.552   1.258   0.452 -1.6236 -1.2545  1.3160
  152SOL    HW2  456   2.563   1.377   0.334 -1.3437 -0.3222 -1.0756
  153SOL     OW  457   2.148   2.425   0.516  0.0266 -0.0994 -0.0548
  153SOL    HW1  458   2.113   2.345   0.467  0.7991 -0.4225 -1.3622
  153SOL    HW2  459   2.072   2.478   0.561 -1.5765  0.2087  2.8228
  154SOL     OW  460   0.776   2.989   0.706 -0.5813  0.1948 -0.3686
  154SOL    HW1  461   0.798   3.075   0.655 -2.6148  0.1612  2.1599
  154SOL    HW2  462   0.818   2.911   0.655  1.7038 -2.0547  1.9932
  155SOL     OW  463   0.402   1.987   0.703  0.1994  0.2086  0.2863
  155SOL    HW1  464   0.496   2.024   0.687  0.8060 -2.5105 -1.8888
  155SOL    HW2  465   0.362   2.029   0.787  1.8696 -1.1494 -0.7357
  156SOL     OW  466   2.308   2.440   0.032  0.4596 -0.9201  0.5853
  156SOL    HW1  467   2.381   2.494   3.070  0.8184  0.5573 -1.1403
  156SOL    HW2  468   2.338   2.414   0.121  0.5202  0.5881  0.2803
  157SOL     OW  469   0.966   1.938   1.541 -0.1421  0.2917 -0.0329
  157SOL    HW1  470   0.972   2.031   1.504  0.6404 -2.3797  1.5350
  157SOL    HW2  471   1.043   1.922   1.610  4.1698 -0.3801 -0.3134
  158SOL     OW  472   1.745   0.522   0.164  0.2581 -0.0546 -0.7799
  158SOL    HW1  473   1.688   0.599   0.137  1.5117 -2.2405  0.5134
  158SOL    HW2  474   1.723   0.433   0.122 -1.7555 -1.3497  3.2377
  159SOL     OW  475   1.100   0.637   0.015  0.3675  0.3995  0.3080
  159SOL    HW1  476   1.196   0.677   0.009 -0.7245  0.9672  0.5843
  159SOL    HW2  477   1.064   0.629   0.114 -0.1433 -0.8307  3.0555
  160SOL     OW  478   1.263   1.475   0.081  0.1870  0.1053  0.8684
  160SOL    HW1  479   1.190   1.523   0.127  0.0798 -2.6324 -1.0021
  160SOL    HW2  480   1.262   1.379   0.115  2.4615 -0.9678  0.4425
  161SOL     OW  481   0.114   2.041   2.475 -0.0360  0.3172 -0.0012
  161SOL    HW1  482   0.113   2.031   2.578 -0.3882 -0.6628  0.7307
  161SOL    HW2  483   0.158   1.955   2.434 -0.2101 -2.8812 -3.7198
  162SOL     OW  484   0.606   2.564   0.873  0.3447 -0.1675  0.5057
  162SOL    HW1  485   0.621   2.664   0.865 -0.8020 -1.1076 -0.5341
  162SOL    HW2  486   0.534   2.560   0.947  0.2495  2.0578 -0.7257
  163SOL     OW  487   2.926   0.676   0.057 -0.0903  0.0096 -0.2915
  163SOL    HW1  488   2.946   0.625   3.055 -0.4480  0.5608  2.0184
  163SOL    HW2  489   2.911   0.778   0.046 -0.3839  1.1172 -1.3966
  164SOL     OW  490   0.390   0.014   2.723  0.4320  0.0674  0.6588
  164SOL    HW1  491   0.304   3.039   2.746  3.6028 -0.8366 -2.9682
  164SOL    HW2  492   0.465   3.034   2.692 -0.4192  0.4012  1.8655
  165SOL     OW  493   2.070   0.465   1.487  0.4230  0.1902  0.2902
  165SOL    HW1  494   2.070   0.407   1.404  0.7003  1.2599  1.9113
  165SOL    HW2  495   2.146   0.530   1.490  2.3280 -0.1167 -1.0868
  166SOL     OW  496   1.942   2.878   1.428 -0.4403  0.0988  0.3419
  166SOL    HW1  497   1.857   2.887   1.378  1.2820  0.5247  1.1143
  166SOL    HW2  498   1.932   2.804   1.499  1.1814 -1.5072 -0.2351
  167SOL     OW  499   1.056   0.371   1.863 -0.9099 -0.0035  0.1339
  167SOL    HW1  500   1.016   0.368   1.956  1.2433 -2.0688  0.5565
  167SOL    HW2  501   1.157   0.353   1.865 -0.1261 -1.4311 -2.7559
  168SOL     OW  502   2.478   0.496   1.959 -0.5155  0.1696  0.1403
  168SOL    HW1  503   2.573   0.468   1.993 -1.5223 -0.3325 -0.2953
  168SOL    HW2  504   2.437   0.429   1.895  2.5204  2.2025  2.8950
  169SOL     OW  505   0.266   1.602   0.221  0.5897 -0.5773 -0.0059
  169SOL    HW1  506   0.220   1.693   0.234 -0.8333  0.6349 -2.6091
  169SOL    HW2  507   0.216   1.523   0.271 -0.8782  1.2949 -0.0784
  170SOL     OW  508   0.123   1.586   1.554 -0.4298 -0.3149 -0.3607
  170SOL    HW1  509   0.165   1.654   1.486  0.9546  3.9749 -0.4938
  170SOL    HW2  510   0.034   1.558   1.513  2.5873  1.4235  2.1503
  171SOL     OW  511   0.906   2.415   2.403  0.1257 -0.1193  0.4633
  171SOL    HW1  512   0.802   2.405   2.412 -0.3712  1.3303  4.1370
  171SOL    HW2  513   0.957   2.327   2.397 -0.5193  0.1595  0.6110
  172SOL     OW  514   0.705   2.449   1.488  0.0109 -0.0557 -0.2674
  172SOL    HW1  515   0.746   2.390   1.561  0.1409  1.3674  2.7152
  172SOL    HW2  516   0.768   2.466   1.415  0.6637 -0.7275 -0.3552
  173SOL     OW  517   1.515   2.311   0.938 -0.4323  0.0296 -0.2569
  173SOL    HW1  518   1.582   2.284   1.009 -2.1536  0.8964 -1.7258
  173SOL    HW2  519   1.430   2.359   0.985 -0.7097 -0.6753  1.3038
  174SOL     OW  520   1.310   0.081   0.648  0.0719 -0.1636  0.4895
  174SOL    HW1  521   1.344   0.098   0.745  0.3734 -0.6183  0.8658
  174SOL    HW2  522   1.390   0.064   0.582 -1.0981  0.5597  1.8288
  175SOL     OW  523   1.074   1.274   0.240 -0.0325  0.1170 -0.1995
  175SOL    HW1  524   1.067   1.366   0.281  1.8670  2.5977 -1.4239
  175SOL    HW2  525   1.144   1.213   0.279 -2.9078  1.8886  0.1755
  176SOL     OW  526   1.461   0.701   0.499 -0.7577  0.4183  0.2981
  176SOL    HW1  527   1.548   0.742   0.462 -0.6518 -3.1838  0.6395
  176SOL    HW2  528   1.464   0.599   0.492  0.1849 -2.7499 -1.4363
  177SOL     OW  529   1.346   0.675   1.324  0.3147 -0.0494  0.5261
  177SOL    HW1  530   1.293   0.614   1.390 -4.5823 -1.6379  0.3669
  177SOL    HW2  531   1.349   0.771   1.359  2.9510 -0.7873 -0.5610
  178SOL     OW  532   2.628   1.680   2.760  0.1851  0.5047 -0.5385
  178SOL    HW1  533   2.622   1.646   2.664  2.4842  0.7858  3.0411
  178SOL    HW2  534   2.562   1.631   2.820  1.3495  0.2868  0.4334
  179SOL     OW  535   0.530   2.472   3.047 -0.0831  0.7117 -0.3290
  179SOL    HW1  536   0.490   2.561   3.025  0.4641 -1.6862  0.3964
  179SOL    HW2  537   0.620   2.493   0.011  0.9867 -2.0894 -0.5515
  180SOL     OW  538   1.912   1.518   1.832 -0.2165 -0.6085 -0.7775
  180SOL    HW1  539   1.996   1.483   1.785  0.2981  1.0486 -0.9247
  180SOL    HW2  540   1.894   1.452   1.909  0.6542  2.4395 -2.2300
  181SOL     OW  541   1.162   1.384   2.318  0.0158 -0.4114 -0.3830
  181SOL    HW1  542   1.166   1.411   2.221 -2.6639 -1.3921  0.2549
  181SOL    HW2  543   1.150   1.283   2.335  0.3866  1.3580 -3.0162
  182SOL     OW  544   3.006   1.010   2.307  0.9875  0.0220  0.2015
  182SOL    HW1  545   0.010   1.044   2.268 -1.1649 -3.6426  1.5445
  182SOL    HW2  546   3.008   1.023   2.409  0.5826  3.3923 -0.1073
  183SOL     OW  547   1.515   0.515   2.238  0.2534  0.1518 -0.6864
  183SOL    HW1  548   1.498   0.612   2.241 -0.3094  1.0336 -1.4964
  183SOL    HW2  549   1.566   0.489   2.322  1.9157 -1.1204  2.8104
  184SOL     OW  550   0.080   0.622   1.572 -0.5199  0.1852  0.1641
  184SOL    HW1  551   0.174   0.618   1.534 -0.0606 -2.0856 -0.1968
  184SOL    HW2  552   0.028   0.696   1.520  0.4744 -1.3489 -0.5890
  185SOL     OW  553   2.333   1.604   1.023  0.4188  1.1362 -0.2713
  185SOL    HW1  554   2.309   1.662   1.103  0.3409 -0.4279 -1.0005
  185SOL    HW2  555   2.350   1.654   0.938  0.5272 -2.9900  3.8084
  186SOL     OW  556   0.646   1.705   2.743 -0.0017  0.2489  0.2476
  186SOL    HW1  557   0.598   1.793   2.729  0.6194  1.8433  0.4269
  186SOL    HW2  558   0.590   1.644   2.799  0.0021  0.8633 -0.7260
  187SOL     OW  559   2.438   2.023   2.997  0.2422 -0.2211  0.0787
  187SOL    HW1  560   2.502   2.098   3.024  1.6098  1.3950  0.2288
  187SOL    HW2  561   2.447   1.944   3.067  0.1497  1.4606  2.9665
  188SOL     OW  562   0.712   2.289   0.488  0.2637 -0.6439 -0.5131
  188SOL    HW1  563   0.708   2.231   0.571 -1.1716 -0.2164 -2.1129
  188SOL    HW2  564   0.687   2.244   0.403 -2.2041 -0.3539  0.6501
  189SOL     OW  565   2.421   0.705   2.977  0.1311  0.1895  0.2076
  189SOL    HW1  566   2.386   0.717   3.071  1.2586  0.2237  2.4528
  189SOL    HW2  567   2.384   0.774   2.907 -0.4810 -0.8762  1.2623
  190SOL     OW  568   1.245   2.048   2.168 -0.1499  0.3726 -0.0449
  190SOL    HW1  569   1.184   2.115   2.208  1.0726  0.3869  0.8230
  190SOL    HW2  570   1.346   2.060   2.195 -1.4514  0.7922  1.7173
  191SOL     OW  571   2.218   0.935   1.117  0.0008 -0.5072  0.5909
  191SOL    HW1  572   2.311   0.974   1.103  1.4385 -2.2966  1.1801
  191SOL    HW2  573   2.181   0.895   1.028  0.4004 -1.2773  2.8024
  192SOL     OW  574   1.846   0.210   1.726 -0.5327 -0.2499  0.4668
  192SOL    HW1  575   1.938   0.243   1.749  0.9353 -1.4031 -0.7982
  192SOL    HW2  576   1.811   0.160   1.809 -2.0041 -0.9102 -2.5632
  193SOL     OW  577   3.061   0.505   0.829  0.2478 -0.2719 -0.2830
  193SOL    HW1  578   3.032   0.462   0.917  0.3049  0.1611 -1.9100
  193SOL    HW2  579   0.071   0.544   0.839 -1.4491 -0.7214 -0.6778
  194SOL     OW  580   1.387   2.398   1.711 -0.3376  0.6555  0.1199
  194SOL    HW1  581   1.300   2.420   1.660 -2.6097 -0.4231 -0.9277
  194SOL    HW2  582   1.452   2.339   1.657 -0.7880 -1.6226 -1.2198
  195SOL     OW  583   2.598   0.632   0.702  0.0445 -0.5280 -0.5336
  195SOL    HW1  584   2.562   0.537   0.707 -0.6605  0.5364 -1.5866
  195SOL    HW2  585   2.699   0.628   0.693 -0.0195 -0.4231  1.4502
  196SOL     OW  586   1.143   1.944   1.765  0.7411  0.6002  0.4033
  196SOL    HW1  587   1.175   2.035   1.794  0.7309 -2.1107 -1.4798
  196SOL    HW2  588   1.218   1.874   1.780 -0.5015 -2.0223 -0.4479
  197SOL     OW  589   0.150   0.177   2.665 -0.1445 -0.9419 -0.3863
  197SOL    HW1  590   0.227   0.120   2.701 -2.3544  0.8724 -3.0233
  197SOL    HW2  591   0.164   0.281   2.656  0.2738  1.5397 -0.1695
  198SOL     OW  592   1.121   0.924   0.620  0.0796 -0.1587 -0.2311
  198SOL    HW1  593   1.147   0.828   0.600 -4.8344 -2.5430  0.5639
  198SOL    HW2  594   1.061   0.956   0.547 -0.3930 -0.4686  1.8374
  199SOL     OW  595   2.449   0.895   1.782  0.3874  0.8691 -0.2901
  199SOL    HW1  596   2.503   0.974   1.817  2.5408 -0.0929 -1.1183
  199SOL    HW2  597   2.502   0.825   1.733 -0.0038  1.5808 -0.7877
  200SOL     OW  598   2.456   2.724   2.123 -0.4165  0.1892  0.5692
  200SOL    HW1  599   2.466   2.806   2.180 -1.4696  2.2466 -1.4365
  200SOL    HW2  600   2.552   2.688   2.103 -1.9402  1.4760 -1.4759
  201SOL     OW  601   2.577   0.407   1.543  0.0380 -0.2616 -0.0724
  201SOL    HW1  602   2.641   0.330   1.553 -0.6172  2.4851  2.3486
  201SOL    HW2  603   2.494   0.377   1.494  2.4656 -1.1976  0.1326
  202SOL     OW  604   2.283   3.068   0.165 -0.1902 -0.1369  0.1276
  202SOL    HW1  605   2.334   2.997   0.214 -0.7523 -0.1213 -1.3608
  202SOL    HW2  606   2.197   3.015   0.141  3.3558  2.4228  2.2487
  203SOL     OW  607   1.062   2.172   2.375 -0.0470  0.7059 -0.0147
  203SOL    HW1  608   0.989   2.105   2.353  1.0247  0.6616 -0.7642
  203SOL    HW2  609   1.124   2.133   2.449 -0.9939 -6.3471  0.7100
  204SOL     OW  610   1.138   1.602   2.451 -0.6775 -0.1416 -0.2706
  204SOL    HW1  611   1.075   1.573   2.528 -0.1723 -0.5322  0.3237
  204SOL    HW2  612   1.157   1.520   2.393  0.8252 -0.1224 -1.8721
  205SOL     OW  613   0.749   1.235   1.276  0.2009 -0.9249  0.1809
  205SOL    HW1  614   0.807   1.156   1.304 -0.4908 -1.4022 -3.1027
  205SOL    HW2  615   0.782   1.284   1.195 -0.1878 -0.9393  2.5982
  206SOL     OW  616   0.447   0.419   2.787 -0.5709  0.4935  0.0459
  206SOL    HW1  617   0.376   0.435   2.717  0.6643  0.3806  0.4480
  206SOL    HW2  618   0.424   0.345   2.855  0.5549 -0.3109 -1.9609
  207SOL     OW  619   1.804   2.580   2.475 -0.1245  0.4526  0.0221
  207SOL    HW1  620   1.849   2.663   2.519 -1.5256 -2.7057  0.7604
  207SOL    HW2  621   1.702   2.599   2.457 -0.5854  1.7066  0.1029
  208SOL     OW  622   0.869   2.440   1.259 -0.4631 -0.1153  0.0547
  208SOL    HW1  623   0.903   2.532   1.216  1.9478 -0.7948 -1.5032
  208SOL    HW2  624   0.839   2.381   1.180  1.0576  1.2107  1.5063
  209SOL     OW  625   1.494   1.246   2.549  0.1776 -0.3241 -0.2606
  209SOL    HW1  626   1.547   1.216   2.468  1.3009  1.4499  0.2948
  209SOL    HW2  627   1.546   1.219   2.631 -0.1288 -2.7628 -2.3692
  210SOL     OW  628   1.868   1.160   0.789  0.7649  0.1489  0.1765
  210SOL    HW1  629   1.913   1.153   0.881  1.9960  1.8119  1.0389
  210SOL    HW2  630   1.916   1.094   0.726 -1.5800  0.5897 -1.3355
  211SOL     OW  631   0.911   2.493   0.483  0.0063 -0.1007  0.1499
  211SOL    HW1  632   0.829   2.431   0.479  0.8947  0.3373 -0.7402
  211SOL    HW2  633   0.993   2.439   0.460  1.8297 -0.0748 -1.1026
  212SOL     OW  634   1.828   1.730   0.335 -0.4514  0.6114 -0.3046
  212SOL    HW1  635   1.756   1.771   0.272  2.5613 -2.4426 -0.0543
  212SOL    HW2  636   1.896   1.802   0.365  0.4066 -1.3944 -1.4062
  213SOL     OW  637   1.889   0.463   2.849 -0.4937 -0.3429  0.1226
  213SOL    HW1  638   1.913   0.373   2.887 -0.9395  1.9022 -2.6812
  213SOL    HW2  639   1.789   0.471   2.820  1.0270  1.0892  1.3392
  214SOL     OW  640   1.171   1.556   2.062 -0.0937  0.4513  0.0662
  214SOL    HW1  641   1.075   1.524   2.045  1.0655 -0.7830  1.7919
  214SOL    HW2  642   1.171   1.655   2.060  1.1075 -0.9620  0.6694
  215SOL     OW  643   0.864   1.720   0.225 -0.8178 -0.3939 -0.7980
  215SOL    HW1  644   0.915   1.736   0.139  1.3959 -1.4927  1.7102
  215SOL    HW2  645   0.774   1.673   0.217 -0.6285 -1.4072 -0.5560
  216SOL     OW  646   0.166   2.763   2.559 -0.2040  0.3729 -0.1373
  216SOL    HW1  647   0.230   2.690   2.586  0.3154  2.9431  1.0578
  216SOL    HW2  648   0.115   2.732   2.474 -3.0663 -2.8684 -4.3650
  217SOL     OW  649   2.426   0.762   0.938  0.0697 -0.5638 -0.6688
  217SOL    HW1  650   2.500   0.737   0.878 -0.3145 -2.2981  1.2955
  217SOL    HW2  651   2.446   0.765   1.038  0.7655 -1.0774 -1.2784
  218SOL     OW  652   1.849   1.538   2.289 -0.4666  0.2745 -0.6486
  218SOL    HW1  653   1.809   1.516   2.200  1.1491  0.5207 -0.2154
  218SOL    HW2  654   1.850   1.638   2.304  1.1692  1.3358 -0.7758
  219SOL     OW  655   2.079   1.632   0.208 -0.3878  0.2700  0.5539
  219SOL    HW1  656   2.068   1.574   0.126 -1.7279 -1.6545 -2.3048
  219SOL    HW2  657   1.992   1.668   0.239  1.2640 -1.6115  0.2492
  220SOL     OW  658   1.455   1.160   0.543 -0.1298 -0.2154 -0.1607
  220SOL    HW1  659   1.423   1.128   0.632 -1.4536 -1.0046  0.9374
  220SOL    HW2  660   1.511   1.247   0.557  0.6032  0.7142  1.8179
  221SOL     OW  661   0.651   0.570   2.878  0.2496  0.5976  0.5185
  221SOL    HW1  662   0.616   0.588   2.972 -0.0619 -2.3785  2.1094
  221SOL    HW2  663   0.594   0.493   2.839  1.4993  0.6428  0.1193
  222SOL     OW  664   1.415   1.260   0.169 -0.4065 -0.3794 -0.1588
  222SOL    HW1  665   1.453   1.335   0.228  0.7446  1.7923  1.3885
  222SOL    HW2  666   1.364   1.200   0.236  0.3054  0.9761 -0.5871
  223SOL     OW  667   1.161   0.185   0.139  0.2637 -0.1788  0.5186
  223SOL    HW1  668   1.084   0.169   0.200  4.7395 -0.9746 -3.0233
  223SOL    HW2  669   1.246   0.215   0.185 -1.8287  1.8802 -1.5883
  224SOL     OW  670   2.053   0.026   1.519 -0.0693  0.2111  0.0581
  224SOL    HW1  671   2.016   3.075   1.609 -2.0951 -0.1174  1.7698
  224SOL    HW2  672   2.037   3.039   1.442 -1.6139 -1.1169 -3.7463
  225SOL     OW  673   0.202   2.648   1.144 -0.2451 -0.2378  0.1625
  225SOL    HW1  674   0.188   2.650   1.244 -3.2985  1.3887 -0.2948
  225SOL    HW2  675   0.126   2.684   1.092 -1.4231  1.6141 -3.0281
  226SOL     OW  676   1.317   1.479   2.906  0.1351 -0.1381 -0.5110
  226SOL    HW1  677   1.351   1.569   2.884  0.3630 -4.3860 -0.4302
  226SOL    HW2  678   1.286   1.474   3.004  0.4470  0.7571  0.8313
  227SOL     OW  679   1.129   1.485   1.009  0.3229 -0.0554  0.2135
  227SOL    HW1  680   1.159   1.571   0.960  1.0971  1.1720 -0.8054
  227SOL    HW2  681   1.204   1.444   1.068 -1.1474 -1.6761  1.0605
  228SOL     OW  682   0.199   1.522   0.689 -0.0518 -0.4528 -0.5222
  228SOL    HW1  683   0.284   1.466   0.695 -0.4186 -2.1536  2.1582
  228SOL    HW2  684   0.218   1.621   0.668  0.0530  2.5914 -0.6158
  229SOL     OW  685   1.455   0.276   2.953 -0.1802  0.4092 -0.8569
  229SOL    HW1  686   1.473   0.269   2.854  1.1679  0.0019 -0.9572
  229SOL    HW2  687   1.369   0.329   2.967 -1.2605 -2.0667  1.1237
  230SOL     OW  688   1.565   0.910   2.615  0.7999 -0.7822  0.2373
  230SOL    HW1  689   1.662   0.882   2.606  0.5218  0.8704 -1.8583
  230SOL    HW2  690   1.562   0.991   2.681  0.6936  1.4944  0.2076
  231SOL     OW  691   1.167   1.874   2.463 -0.1830 -0.1444  0.3311
  231SOL    HW1  692   1.107   1.914   2.537  0.1625 -0.6211  2.1559
  231SOL    HW2  693   1.172   1.769   2.472  1.0741  1.1522 -0.1476
  232SOL     OW  694   2.380   2.232   0.556  0.2896  0.4995 -0.2866
  232SOL    HW1  695   2.287   2.278   0.540 -2.8587  0.3868  0.3147
  232SOL    HW2  696   2.394   2.171   0.474 -2.3653  0.4932 -0.8478
  233SOL     OW  697   2.282   2.636   0.398 -0.5254  0.0508  0.2486
  233SOL    HW1  698   2.236   2.636   0.309 -1.3609 -1.3771  2.6300
  233SOL    HW2  699   2.250   2.556   0.456 -0.2402 -1.8575 -1.0087
  234SOL     OW  700   0.806   0.567   2.679  0.0074  0.0697  0.4178
  234SOL    HW1  701   0.739   0.566   2.757  0.4382  3.2420  0.1156
  234SOL    HW2  702   0.888   0.617   2.714  0.6610  0.9841  0.5838
  235SOL     OW  703   2.853   0.434   2.707  0.2340 -0.0591 -0.2619
  235SOL    HW1  704   2.762   0.383   2.696  1.9231 -3.8139 -1.5114
  235SOL    HW2  705   2.859   0.513   2.642 -0.4428 -0.1232  2.0301
  236SOL     OW  706   2.022   2.532   1.801 -0.2846  0.2108  0.5358
  236SOL    HW1  707   1.948   2.469   1.825 -1.0720 -0.0142 -1.1901
  236SOL    HW2  708   2.091   2.531   1.873 -1.1721 -0.2824 -2.0989
  237SOL     OW  709   0.639   1.555   1.980  0.0190  0.3499 -0.0594
  237SOL    HW1  710   0.614   1.649   2.016 -0.8384 -0.3489  1.3505
  237SOL    HW2  711   0.669   1.493   2.060  1.0134 -1.2898  1.5384
  238SOL     OW  712   1.626   0.435   2.745  0.0164  0.0849 -0.0110
  238SOL    HW1  713   1.578   0.469   2.827  2.1097 -0.3045 -0.4443
  238SOL    HW2  714   1.621   0.335   2.742 -2.1194  2.6030  0.4364
  239SOL     OW  715   0.366   2.253   1.549  0.3742  0.1941  0.4111
  239SOL    HW1  716   0.312   2.302   1.624  1.8164 -0.2099  1.6508
  239SOL    HW2  717   0.449   2.216   1.591 -2.5536  1.8706 -1.9420
  240SOL     OW  718   2.638   2.306   0.639 -0.2397  0.3627 -0.3149
  240SOL    HW1  719   2.610   2.400   0.660 -2.7598 -1.0033 -0.4370
  240SOL    HW2  720   2.554   2.264   0.594  0.1209 -0.4551  1.9597
  241SOL     OW  721   2.552   1.080   0.759  0.0876 -0.3351  0.2358
  241SOL    HW1  722   2.499   1.101   0.841 -1.1981  0.6274 -2.0386
  241SOL    HW2  723   2.533   1.152   0.685 -0.7120  0.2940 -4.9263
  242SOL     OW  724   2.222   2.585   2.330 -0.0645 -0.0345  0.2604
  242SOL    HW1  725   2.138   2.554   2.278 -3.0666 -1.0062 -1.8730
  242SOL    HW2  726   2.276   2.650   2.267  2.8196  3.4880 -3.4055
  243SOL     OW  727   0.922   2.408   1.652  0.2159  0.1897 -0.1292
  243SOL    HW1  728   0.923   2.493   1.710  1.1782 -0.6957 -0.3090
  243SOL    HW2  729   1.011   2.393   1.607 -1.5594 -1.2086  1.9211
  244SOL     OW  730   1.603   0.168   2.731 -0.4152  0.6085 -0.0207
  244SOL    HW1  731   1.679   0.121   2.774  0.3352  1.9363 -0.7637
  244SOL    HW2  732   1.541   0.096   2.684 -0.3562 -0.9351 -3.1471
  245SOL     OW  733   1.182   0.099   1.334 -0.4709  0.0295  0.4811
  245SOL    HW1  734   1.084   0.125   1.321 -0.9216 -1.1148 -0.1985
  245SOL    HW2  735   1.191   0.006   1.361  0.0038  2.5483  1.1707
  246SOL     OW  736   1.721   2.375   0.237 -0.5244  0.4092 -0.2208
  246SOL    HW1  737   1.823   2.392   0.241  2.9282 -0.4153 -0.4640
  246SOL    HW2  738   1.677   2.427   0.157  0.2719  1.6486 -1.2877
  247SOL     OW  739   1.306   0.530   2.490  0.1432 -0.1557 -0.5075
  247SOL    HW1  740   1.265   0.542   2.399 -0.5280 -2.9422  2.0844
  247SOL    HW2  741   1.317   0.427   2.504  0.1932 -0.4086 -1.5955
  248SOL     OW  742   0.553   2.133   1.676 -0.8400 -0.8237  1.1686
  248SOL    HW1  743   0.628   2.180   1.729 -0.3199  1.7767 -1.4916
  248SOL    HW2  744   0.506   2.056   1.724  0.2432 -0.5976  0.5327
  249SOL     OW  745   2.164   0.249   0.514 -0.3880  0.1233 -0.3285
  249SOL    HW1  746   2.230   0.241   0.436 -3.3639 -0.0782 -0.3417
  249SOL    HW2  747   2.074   0.213   0.484 -1.5518 -0.6328 -1.1454
  250SOL     OW  748   0.111   0.440   0.393 -0.6742 -0.5596 -0.1601
  250SOL    HW1  749   0.194   0.484   0.353 -2.4870  1.3410 -0.0401
  250SOL    HW2  750   0.026   0.469   0.349  0.8022  0.4387  0.2909
  251SOL     OW  751   1.441   0.607   2.918  0.2865 -0.5949  0.4652
  251SOL    HW1  752   1.395   0.596   3.012 -1.4709  0.7342  2.4943
  251SOL    HW2  753   1.385   0.650   2.841 -0.8344  1.4871 -0.5320
  252SOL     OW  754   1.701   1.845   2.068  0.3446  0.3541 -0.4788
  252SOL    HW1  755   1.787   1.877   2.025 -0.3279 -1.2323  3.0080
  252SOL    HW2  756   1.675   1.747   2.049  1.5990  1.2922 -0.7222
  253SOL     OW  757   2.541   2.471   1.443 -0.0786 -0.3642  0.3181
  253SOL    HW1  758   2.622   2.459   1.501 -2.3023  1.2302 -0.4732
  253SOL    HW2  759   2.512   2.379   1.416  0.6319  1.3026 -0.7253
  254SOL     OW  760   2.892   1.084   1.127 -0.1377 -0.8890  0.3275
  254SOL    HW1  761   2.935   1.099   1.216 -0.1911  0.2774  1.1073
  254SOL    HW2  762   2.928   0.998   1.089  1.0357  1.3523  0.2604
  255SOL     OW  763   1.100   0.358   1.012 -0.1279  0.3483 -0.3231
  255SOL    HW1  764   1.034   0.330   1.086 -3.1657 -1.1526  0.8156
  255SOL    HW2  765   1.152   0.443   1.036 -3.1121 -1.9859 -1.3946
  256SOL     OW  766   1.783   2.173   1.421  0.6138 -0.1445 -0.3266
  256SOL    HW1  767   1.757   2.076   1.418 -0.7204  0.6129  1.9289
  256SOL    HW2  768   1.858   2.204   1.357 -2.4503  1.2844  2.2545
  257SOL     OW  769   0.548   2.931   2.541 -0.4283  0.3406  0.5457
  257SOL    HW1  770   0.571   2.852   2.599  2.6028  0.8992 -0.2944
  257SOL    HW2  771   0.600   2.919   2.454  0.0502  0.0932 -1.0325
  258SOL     OW  772   0.976   2.101   0.237  0.2573  0.1962  0.2940
  258SOL    HW1  773   0.886   2.079   0.189  2.3600 -2.3488  0.8657
  258SOL    HW2  774   0.988   2.037   0.312  0.5992 -0.9025 -1.9985
  259SOL     OW  775   1.249   3.001   2.663  0.2796 -0.3956  0.5665
  259SOL    HW1  776   1.149   3.011   2.638 -1.2847 -0.1708  0.4321
  259SOL    HW2  777   1.307   3.021   2.583 -2.2378 -0.9293 -3.6901
  260SOL     OW  778   1.862   0.709   1.015 -0.3120 -0.0967 -0.6832
  260SOL    HW1  779   1.845   0.713   1.118 -1.1866 -0.5157  1.9377
  260SOL    HW2  780   1.796   0.769   0.966 -0.3448 -0.2197 -0.3454
  261SOL     OW  781   0.612   0.287   2.401 -0.0583  0.4814  0.2625
  261SOL    HW1  782   0.510   0.297   2.397  1.9126  1.6416  1.8051
  261SOL    HW2  783   0.657   0.378   2.378  1.8568 -0.1811 -0.6163
  262SOL     OW  784   0.251   2.244   1.954 -0.4331  0.3819 -0.2080
  262SOL    HW1  785   0.311   2.276   2.028 -1.0910  0.1814 -1.6495
  262SOL    HW2  786   0.245   2.315   1.876  2.1399  1.2394 -0.4575
  263SOL     OW  787   2.989   1.524   2.463 -0.5310 -0.6632 -0.2876
  263SOL    HW1  788   3.083   1.494   2.426  3.3828 -0.2436  0.1016
  263SOL    HW2  789   2.959   1.617   2.425 -1.4291 -0.0360 -2.0660
  264SOL     OW  790   0.998   1.067   0.839 -0.5487  0.3914 -0.5786
  264SOL    HW1  791   0.901   1.046   0.844  1.4910 -0.8841  2.3378
  264SOL    HW2  792   1.039   1.023   0.755 -0.9715  1.7936 -4.4773
  265SOL     OW  793   1.345   2.427   1.108  0.6666  0.0933 -0.3424
  265SOL    HW1  794   1.348   2.383   1.202  0.6402 -1.3217  2.4607
  265SOL    HW2  795   1.383   2.519   1.112 -1.1832 -1.7963 -0.0174
  266SOL     OW  796   1.640   0.935   1.375  0.0042  0.2290  0.1734
  266SOL    HW1  797   1.673   0.854   1.428 -0.9894 -0.6466 -1.6970
  266SOL    HW2  798   1.689   0.948   1.279  0.8933 -0.2680 -2.6042
  267SOL     OW  799   2.365   1.082   3.062 -0.1595  0.5760  0.0236
  267SOL    HW1  800   2.395   1.005   3.005 -0.8047 -0.2489  2.4282
  267SOL    HW2  801   2.300   1.040   0.050 -0.7970 -2.0775 -0.2606
  268SOL     OW  802   1.268   0.289   0.412  0.0911 -0.2527  0.3670
  268SOL    HW1  803   1.276   0.206   0.466 -0.8443  1.6559 -3.1557
  268SOL    HW2  804   1.358   0.342   0.413 -1.9601  0.0597 -0.9585
  269SOL     OW  805   2.816   0.646   2.546  0.1054  0.2278  0.0284
  269SOL    HW1  806   2.813   0.642   2.448 -3.3132  0.1403  1.7711
  269SOL    HW2  807   2.719   0.644   2.583 -1.1844 -0.3368  0.3561
  270SOL     OW  808   0.349   1.160   2.724  0.4112 -0.3791  0.1789
  270SOL    HW1  809   0.385   1.077   2.768 -0.3502  0.7803  1.5920
  270SOL    HW2  810   0.343   1.241   2.783  0.1621  0.2850 -1.3156
  271SOL     OW  811   2.829   0.992   0.151  0.5380  0.1492 -0.6338
  271SOL    HW1  812   2.743   0.942   0.155  0.6394  1.3972 -1.2409
  271SOL    HW2  813   2.812   1.084   0.196  0.4619 -1.3360  0.1327
  272SOL     OW  814   2.699   2.563   2.465  0.1503  0.5329  0.1620
  272SOL    HW1  815   2.758   2.627   2.416  2.1664  0.7522  1.5675
  272SOL    HW2  816   2.739   2.469   2.475  3.1007 -2.7043 -1.2786
  273SOL     OW  817   2.979   3.019   2.720  0.6151 -0.7563  0.1999
  273SOL    HW1  818   2.947   0.024   2.683  3.1443 -0.7727 -1.5479
  273SOL    HW2  819   2.971   3.022   2.822 -1.9470  1.1330  0.2867
  274SOL     OW  820   0.765   2.345   0.825  0.1265 -0.2061 -0.3968
  274SOL    HW1  821   0.710   2.429   0.849 -0.2228  1.3876 -0.4651
  274SOL    HW2  822   0.863   2.370   0.822 -0.9895  2.2469  0.4905
  275SOL     OW  823   2.218   0.850   0.489 -0.2664 -0.0763  0.0502
  275SOL    HW1  824   2.175   0.761   0.469 -0.0589  0.8117 -0.4477
  275SOL    HW2  825   2.307   0.840   0.541 -1.7801  0.7781  0.9654
  276SOL     OW  826   2.849   1.349   1.505  0.0023 -0.4579 -0.0230
  276SOL    HW1  827   2.767   1.312   1.460  4.3759  1.8596  1.4309
  276SOL    HW2  828   2.829   1.428   1.560  0.8336 -2.9289 -0.3420
  277SOL     OW  829   1.968   0.128   1.069 -0.1231  0.5384 -0.6888
  277SOL    HW1  830   1.901   0.051   1.073  0.6028  2.2449 -2.5223
  277SOL    HW2  831   1.916   0.218   1.075 -0.1078 -1.3616 -1.2086
  278SOL     OW  832   1.545   2.628   2.443 -0.1483  0.7180  0.0703
  278SOL    HW1  833   1.536   2.536   2.400  1.3216  2.3093 -0.5314
  278SOL    HW2  834   1.453   2.671   2.465 -2.2091  1.3706  1.6631
  279SOL     OW  835   1.613   2.048   1.175 -0.0852  0.0631 -0.1367
  279SOL    HW1  836   1.628   1.994   1.258 -1.2571  2.4870 -3.6939
  279SOL    HW2  837   1.666   2.134   1.184 -2.7660 -1.2531 -0.5619
  280SOL     OW  838   0.330   1.394   1.006 -0.3816 -0.2575 -0.4209
  280SOL    HW1  839   0.297   1.491   1.007 -1.6385 -0.3999  1.1495
  280SOL    HW2  840   0.419   1.389   1.064 -2.0308 -1.1645  2.0271
  281SOL     OW  841   2.747   1.260   2.725  0.1660 -0.0697  0.0406
  281SOL    HW1  842   2.655   1.247   2.765  2.5203  3.2776  0.5075
  281SOL    HW2  843   2.780   1.354   2.742 -1.0943 -0.8687 -1.5293
  282SOL     OW  844   0.529   1.629   0.192  0.6763  0.4041 -0.6558
  282SOL    HW1  845   0.437   1.627   0.232 -0.3934 -1.0841 -0.1304
  282SOL    HW2  846   0.586   1.554   0.223 -0.4551  3.0374 -0.6195
  283SOL     OW  847   2.022   2.360   0.133  0.0570 -0.0565  0.1447
  283SOL    HW1  848   2.111   2.402   0.111  2.4941 -0.5040  0.8448
  283SOL    HW2  849   1.962   2.336   0.051 -1.3517 -0.5924 -2.4640
  284SOL     OW  850   1.226   2.851   1.072  0.1287  0.2993  0.2046
  284SOL    HW1  851   1.297   2.921   1.057 -2.2993  1.5467  1.6555
  284SOL    HW2  852   1.208   2.800   0.986  0.4314 -0.3842  1.3700
  285SOL     OW  853   2.212   1.162   2.738  0.3165  0.2881  0.0101
  285SOL    HW1  854   2.177   1.198   2.647  2.1090  1.8674  1.2420
  285SOL    HW2  855   2.132   1.138   2.793 -0.4454 -0.9333  1.3830
  286SOL     OW  856   2.009   2.569   0.933  0.1672  0.0638  0.1309
  286SOL    HW1  857   2.029   2.479   0.887  2.9623 -1.2209 -0.5549
  286SOL    HW2  858   2.051   2.646   0.884 -2.9715  0.5276 -1.2236
  287SOL     OW  859   1.327   0.228   0.930  0.1260 -0.2163  0.0731
  287SOL    HW1  860   1.350   0.162   1.003 -0.1668 -4.5216  2.3242
  287SOL    HW2  861   1.237   0.273   0.956 -3.1617  0.9217 -1.9067
  288SOL     OW  862   0.743   2.421   2.837 -0.1018 -0.0507  0.1678
  288SOL    HW1  863   0.817   2.491   2.829  0.0206 -0.5817  3.4665
  288SOL    HW2  864   0.693   2.431   2.924  0.1869 -0.1559 -0.7135
  289SOL     OW  865   0.021   1.414   0.860  0.7303 -0.1187 -0.1278
  289SOL    HW1  866   3.025   1.463   0.885 -1.5833  0.6618 -2.2656
  289SOL    HW2  867   0.084   1.472   0.802  0.0241  1.0018 -0.5318
  290SOL     OW  868   1.415   1.931   1.036  0.1343 -0.7273 -0.4852
  290SOL    HW1  869   1.488   1.992   1.087  3.0115  2.2253  1.4148
  290SOL    HW2  870   1.348   1.891   1.100 -2.7664 -1.3900 -0.6035
  291SOL     OW  871   1.391   2.953   0.249 -0.4902 -0.2778  0.4814
  291SOL    HW1  872   1.367   2.850   0.239  0.6616 -2.3819  0.3182
  291SOL    HW2  873   1.372   3.011   0.167  1.2664  1.7772 -2.6228
  292SOL     OW  874   0.460   0.365   1.967 -0.1808  0.1923 -0.3643
  292SOL    HW1  875   0.421   0.430   2.033  1.5722  2.5574  3.8114
  292SOL    HW2  876   0.561   0.357   1.974  0.6390 -1.6755 -0.9212
  293SOL     OW  877   2.471   1.963   1.238 -0.5475  0.3631 -0.6773
  293SOL    HW1  878   2.558   1.975   1.184 -1.3454 -1.5329  0.6090
  293SOL    HW2  879   2.474   2.022   1.322  0.8678 -1.0595 -1.3395
  294SOL     OW  880   0.912   0.228   2.334  0.7229  0.9076  0.1380
  294SOL    HW1  881   0.911   0.283   2.419  1.9062  0.4949 -2.1357
  294SOL    HW2  882   0.837   0.157   2.329  0.6061  3.9937 -1.3712
  295SOL     OW  883   1.760   1.595   1.404 -0.1837 -0.0692  0.7920
  295SOL    HW1  884   1.817   1.517   1.382  1.5699  1.0807 -0.0273
  295SOL    HW2  885   1.739   1.592   1.501  1.7695  0.6809 -4.2115
  296SOL     OW  886   2.468   1.846   0.128  0.0313  0.0496 -0.4734
  296SOL    HW1  887   2.409   1.810   0.198  1.4132  1.2222 -2.9389
  296SOL    HW2  888   2.566   1.824   0.142  0.2173  2.6782 -1.0037
  297SOL     OW  889   2.666   0.206   0.267  0.2473  0.6686 -0.2090
  297SOL    HW1  890   2.578   0.198   0.209 -3.2687  1.9271  0.6392
  297SOL    HW2  891   2.657   0.286   0.330 -0.3831 -0.5762  0.5245
  298SOL     OW  892   0.776   3.028   2.958  0.3909  0.1047  0.4683
  298SOL    HW1  893   0.771   3.060   2.861  0.3547 -2.6443  0.9103
  298SOL    HW2  894   0.763   0.018   3.027 -0.7093  0.2400 -2.0239
  299SOL     OW  895   0.688   2.175   2.255  0.4121  0.3576 -0.3180
  299SOL    HW1  896   0.744   2.095   2.293  2.0811 -1.6199 -0.3954
  299SOL    HW2  897   0.689   2.260   2.320 -1.2650  2.9299 -0.2460
  300SOL     OW  898   2.756   3.007   2.417  0.5760 -0.7492  0.2600
  300SOL    HW1  899   2.829   3.077   2.400 -1.0017 -1.0104 -1.3764
  300SOL    HW2  900   2.781   2.914   2.394  2.4003  2.2055 -0.2527
  301SOL     OW  901   1.120   0.589   1.722  0.0624 -0.2053  0.0305
  301SOL    HW1  902   1.172   0.541   1.647  0.5774 -0.8882 -1.4221
  301SOL    HW2  903   1.088   0.513   1.789 -1.5191 -0.6610  2.7987
  302SOL     OW  904   3.028   2.225   2.967  0.0700 -0.1800 -0.2437
  302SOL    HW1  905   3.080   2.215   3.058  2.3765  0.9983  1.4080
  302SOL    HW2  906   2.994   2.323   2.954 -0.2524  2.4780 -0.6666
  303SOL     OW  907   2.335   2.680   1.576 -0.1326  0.3598 -0.4193
  303SOL    HW1  908   2.417   2.653   1.524 -0.0120  1.3198 -1.2782
  303SOL    HW2  909   2.360   2.761   1.634  0.8667  1.5840 -2.2551
  304SOL     OW  910   2.797   0.815   1.589  0.2330  0.1362  0.1425
  304SOL    HW1  911   2.739   0.748   1.641  1.5266  0.0916 -1.4205
  304SOL    HW2  912   2.862   0.861   1.646 -0.9417 -0.7182 -0.9394
  305SOL     OW  913   0.943   1.776   0.887  0.7430 -0.0341  0.2322
  305SOL    HW1  914   0.917   1.848   0.955  1.4913 -0.6535  2.2626
  305SOL    HW2  915   0.867   1.712   0.864 -1.1566 -3.9928 -0.7458
  306SOL     OW  916   0.373   1.492   1.950  0.0011  0.1560  0.0366
  306SOL    HW1  917   0.311   1.561   1.992 -1.4741 -0.6664 -1.8850
  306SOL    HW2  918   0.473   1.516   1.950  2.6346 -1.7581  0.7432
  307SOL     OW  919   0.913   0.234   1.660  0.1917  0.0484 -0.5481
  307SOL    HW1  920   0.972   0.273   1.738  2.1164 -3.1745 -0.0317
  307SOL    HW2  921   0.923   0.137   1.650 -1.8966  2.9139 -1.3370
  308SOL     OW  922   2.985   0.850   1.036  0.2890 -0.5847 -0.4616
  308SOL    HW1  923   3.071   0.804   1.074 -2.1349 -1.7713  0.0879
  308SOL    HW2  924   3.005   0.866   0.940  0.5447 -2.2570  3.2446
  309SOL     OW  925   2.637   1.090   1.230 -0.2035  0.2775  0.2621
  309SOL    HW1  926   2.632   1.181   1.277  0.2663  0.3646 -0.2044
  309SOL    HW2  927   2.726   1.077   1.176 -0.6890  0.4207 -0.8354
  310SOL     OW  928   0.247   1.825   2.385 -0.6141 -0.5631 -0.3249
  310SOL    HW1  929   0.258   1.752   2.453 -1.4985  0.8914  0.7399
  310SOL    HW2  930   0.341   1.859   2.360  1.6148  0.4967 -1.2564
  311SOL     OW  931   2.750   2.679   2.155  0.2454 -0.1036 -0.1083
  311SOL    HW1  932   2.768   2.728   2.071  0.1169 -0.5128  1.3730
  311SOL    HW2  933   2.795   2.726   2.234 -0.4212 -0.2690 -1.3430
  312SOL     OW  934   2.081   2.139   2.893 -0.2449  0.1695 -0.2464
  312SOL    HW1  935   2.019   2.205   2.938 -1.9011  0.7472  4.2243
  312SOL    HW2  936   2.168   2.187   2.873 -2.3279  0.2522 -2.0354
  313SOL     OW  937   2.971   2.996   0.640  0.5628  0.6782  0.2452
  313SOL    HW1  938   2.913   3.036   0.566  0.7169 -3.9314  2.2977
  313SOL    HW2  939   3.064   3.032   0.625  0.1852 -0.9620 -0.6938
  314SOL     OW  940   1.921   1.133   0.130  0.0842 -0.2049  0.1454
  314SOL    HW1  941   1.861   1.191   0.192 -0.7179  1.7940 -2.1437
  314SOL    HW2  942   2.003   1.185   0.096 -0.0170  3.3748 -2.5775
  315SOL     OW  943   1.505   3.084   2.521 -0.2112  0.0270 -0.3758
  315SOL    HW1  944   1.483   0.032   2.429 -1.8584 -0.0301  2.1415
  315SOL    HW2  945   1.542   2.984   2.519  1.5439 -3.0585  1.7769
  316SOL     OW  946   3.016   1.408   0.448  0.3691 -0.0006 -0.1132
  316SOL    HW1  947   0.034   1.397   0.435 -0.0073 -2.8669  0.7962
  316SOL    HW2  948   2.971   1.339   0.392  2.4207  2.7310  1.2965
  317SOL     OW  949   0.544   2.784   2.996  0.2248  0.3712 -0.4917
  317SOL    HW1  950   0.524   2.874   2.956  2.1271  3.2214 -0.3006
  317SOL    HW2  951   0.616   2.801   3.067 -1.6324 -0.4190 -0.7540
  318SOL     OW  952   2.425   2.320   1.080  0.5342 -0.0408  0.4470
  318SOL    HW1  953   2.365   2.256   1.029  0.5397  1.7530 -2.0684
  318SOL    HW2  954   2.382   2.412   1.057 -3.3740  0.7979  0.1572
  319SOL     OW  955   1.227   1.993   2.848 -0.0302 -0.2664 -0.0698
  319SOL    HW1  956   1.171   1.953   2.772 -0.4040  0.2489 -2.5666
  319SOL    HW2  957   1.209   1.946   2.937  1.7654  0.8655 -0.2139
  320SOL     OW  958   0.570   2.090   1.153 -0.0283 -0.1220  0.0215
  320SOL    HW1  959   0.630   2.159   1.110 -1.9815  0.2321  2.1416
  320SOL    HW2  960   0.584   2.093   1.253 -2.2579  0.4984  0.5786
  321SOL     OW  961   1.316   2.730   2.497  0.1944 -0.0428 -0.1233
  321SOL    HW1  962   1.280   2.824   2.468  0.1420  2.0715 -0.8321
  321SOL    HW2  963   1.240   2.663   2.492 -0.1271 -0.9266  0.2450
  322SOL     OW  964   2.485   1.777   1.947 -0.4601 -0.3411 -0.3243
  322SOL    HW1  965   2.445   1.787   2.040  0.5230  0.4744  0.1572
  322SOL    HW2  966   2.565   1.846   1.941  2.2672  2.8566  3.5705
  323SOL     OW  967   2.754   0.672   1.106 -0.9842 -0.3282 -0.0089
  323SOL    HW1  968   2.741   0.615   1.021 -0.5647  0.0865 -1.0196
  323SOL    HW2  969   2.833   0.734   1.099 -2.8282 -1.5805  0.6096
  324SOL     OW  970   2.538   3.062   2.534  0.4400 -0.3221 -0.2585
  324SOL    HW1  971   2.556   3.080   2.637 -1.1252 -0.0973  1.6688
  324SOL    HW2  972   2.628   3.044   2.488 -0.9162 -0.4486  1.5078
  325SOL     OW  973   1.036   0.608   2.401  0.3717 -0.2450 -0.0788
  325SOL    HW1  974   0.994   0.527   2.443  1.2843  1.6485 -0.8259
  325SOL    HW2  975   0.990   0.638   2.318 -0.5158 -0.7132  1.4825
  326SOL     OW  976   1.917   2.795   2.137  0.0203 -0.2817  0.5720
  326SOL    HW1  977   1.965   2.840   2.215  0.6755 -1.4336  1.1896
  326SOL    HW2  978   1.879   2.865   2.071  0.5110 -0.1701  0.0246
  327SOL     OW  979   2.186   0.099   2.964 -0.5102 -0.2501 -0.5271
  327SOL    HW1  980   2.275   0.146   2.950 -1.0685  0.8077  0.2677
  327SOL    HW2  981   2.194   0.020   3.027  0.6208 -0.1772 -2.3565
  328SOL     OW  982   0.054   1.393   2.146  0.7806 -0.3570  0.0568
  328SOL    HW1  983   3.081   1.471   2.111 -1.2641 -0.5693 -0.8042
  328SOL    HW2  984   0.106   1.425   2.226  0.3431  2.2539 -0.4001
  329SOL     OW  985   1.810   0.382   1.525 -0.1271  0.0582 -0.4179
  329SOL    HW1  986   1.815   0.318   1.604 -0.3302  0.1400 -0.6463
  329SOL    HW2  987   1.907   0.410   1.510  3.8639 -0.6537 -0.4100
  330SOL     OW  988   0.242   1.163   0.868 -0.1199  0.5634 -0.2902
  330SOL    HW1  989   0.151   1.185   0.820 -1.9502  1.6475 -1.0015
  330SOL    HW2  990   0.276   1.247   0.923  1.1358  3.1199  0.0097
  331SOL     OW  991   0.192   1.688   2.018 -0.4721 -0.2027 -0.3377
  331SOL    HW1  992   0.103   1.644   2.018  2.0504  1.3459  2.1747
  331SOL    HW2  993   0.196   1.790   2.015  0.4101  1.0663  0.5029
  332SOL     OW  994   2.783   2.684   1.517  0.5332 -0.2898 -0.4818
  332SOL    HW1  995   2.813   2.688   1.421  0.9257  3.5737 -1.1923
  332SOL    HW2  996   2.777   2.590   1.551  0.7767  3.0782 -0.9946
  333SOL     OW  997   2.244   0.081   0.962  0.5552 -0.2504  0.3115
  333SOL    HW1  998   2.154   0.105   1.007  1.6168  0.2025 -2.1639
  333SOL    HW2  999   2.287   3.082   1.005  0.0341  0.1403  0.5567
  334SOL     OW 1000   0.600   1.755   0.648 -0.1917 -0.2002  0.4048
  334SOL    HW1 1001   0.621   1.696   0.564 -0.9054 -2.9864 -5.4540
  334SOL    HW2 1002   0.510   1.807   0.635 -1.2386  1.4226  1.9919
  335SOL     OW 1003   0.170   2.540   2.953  0.2456  0.2730  0.6247
  335SOL    HW1 1004   0.114   2.539   2.868  1.5607  3.4972  1.4556
  335SOL    HW2 1005   0.229   2.457   2.954 -0.1199  1.0381 -1.1083
  336SOL     OW 1006   0.066   2.700   2.322 -0.1043  0.0211 -0.3955
  336SOL    HW1 1007   0.116   2.774   2.274 -1.0733 -2.4722 -0.3385
  336SOL    HW2 1008   0.053   2.622   2.261 -0.3290  0.7092  1.9882
  337SOL     OW 1009   1.926   2.547   2.250 -0.2804  0.5044 -0.2943
  337SOL    HW1 1010   1.927   2.636   2.207 -0.3201 -0.6033  2.7163
  337SOL    HW2 1011   1.877   2.559   2.338 -0.1158  0.7519 -1.9528
  338SOL     OW 1012   0.592   3.022   0.265  0.2038  0.6903  0.3339
  338SOL    HW1 1013   0.647   0.002   0.214 -3.0648 -1.6389 -0.5453
  338SOL    HW2 1014   0.503   3.066   0.283  0.0359  1.4408 -0.0731
  339SOL     OW 1015   0.357   1.254   2.063 -0.2409  0.4977 -0.3674
  339SOL    HW1 1016   0.369   1.344   2.016 -0.8260  0.1320 -0.3209
  339SOL    HW2 1017   0.283   1.208   2.017  3.6076  0.2088  1.1795
  340SOL     OW 1018   1.745   2.901   0.462  0.4517  0.0052 -0.3644
  340SOL    HW1 1019   1.756   2.837   0.539 -0.7707  0.2629 -3.0139
  340SOL    HW2 1020   1.650   2.938   0.472  0.0761 -1.9441  1.4661
  341SOL     OW 1021   2.229   1.197   0.732 -0.1669 -0.0846  0.0392
  341SOL    HW1 1022   2.171   1.113   0.734 -0.1918  1.4007  0.6997
  341SOL    HW2 1023   2.254   1.226   0.827 -1.2588 -0.6194 -1.0862
  342SOL     OW 1024   2.530   0.060   0.086 -0.3424 -0.0567 -0.2397
  342SOL    HW1 1025   2.450   0.011   0.119  0.6256 -2.3382 -0.5230
  342SOL    HW2 1026   2.608   0.000   0.102 -0.5655  0.3902 -0.7615
  343SOL     OW 1027   1.260   2.192   1.849  0.2617 -0.0975 -0.3885
  343SOL    HW1 1028   1.286   2.285   1.811  1.5273  0.2950 -0.9071
  343SOL    HW2 1029   1.336   2.180   1.915 -1.3869 -0.1073  0.5369
  344SOL     OW 1030   2.636   2.869   0.978  0.2573  0.1942  0.3237
  344SOL    HW1 1031   2.635   2.768   0.975 -0.6255  2.0027 -0.8181
  344SOL    HW2 1032   2.726   2.912   0.955 -0.6622 -0.3390 -0.8819
  345SOL     OW 1033   2.645   2.142   0.012 -0.4564  0.0371  0.3468
  345SOL    HW1 1034   2.662   2.244   0.022  1.2708 -0.2057 -3.3609
  345SOL    HW2 1035   2.661   2.081   0.098  1.0849 -1.0179  3.3421
  346SOL     OW 1036   2.356   2.059   0.775 -0.2978 -0.8370  0.7219
  346SOL    HW1 1037   2.354   2.127   0.698 -0.8664  1.4696  2.5976
  346SOL    HW2 1038   2.450   2.024   0.784 -1.9052 -1.9833  0.6361
  347SOL     OW 1039   1.443   1.892   1.545 -0.5452  0.0125  0.5930
  347SOL    HW1 1040   1.482   1.951   1.617 -0.6786 -1.5366 -0.0600
  347SOL    HW2 1041   1.399   1.812   1.591 -1.9405 -0.6405  0.8695
  348SOL     OW 1042   0.640   1.657   2.313  0.1954 -0.3098 -0.0170
  348SOL    HW1 1043   0.610   1.585   2.383 -0.4831  0.2016 -0.1153
  348SOL    HW2 1044   0.737   1.663   2.307 -1.9918  0.9273  1.1150
  349SOL     OW 1045   2.527   1.418   0.918  0.2780  0.0909 -0.6581
  349SOL    HW1 1046   2.542   1.451   0.824 -0.4256 -3.4699  2.3987
  349SOL    HW2 1047   2.490   1.487   0.984  1.5641  0.8288 -0.3281
  350SOL     OW 1048   2.965   2.382   0.766 -0.4110 -0.4949 -0.2346
  350SOL    HW1 1049   2.913   2.433   0.840  0.0965 -0.3488 -0.7997
  350SOL    HW2 1050   2.949   2.430   0.675 -1.9465 -0.7787 -2.1484
  351SOL     OW 1051   0.372   2.961   1.934 -0.4768 -0.4870  0.1196
  351SOL    HW1 1052   0.285   2.993   1.891 -1.0815 -0.7526 -2.0716
  351SOL    HW2 1053   0.454   3.011   1.894 -1.3712 -0.4845 -0.4237
  352SOL     OW 1054   0.891   1.449   1.142  0.2012 -0.1805 -0.2459
  352SOL    HW1 1055   0.828   1.524   1.164  1.2293 -2.9716  0.7708
  352SOL    HW2 1056   0.957   1.479   1.071 -0.6054 -1.7464 -0.6669
  353SOL     OW 1057   1.429   1.501   2.592 -0.7684  0.2501  0.8435
  353SOL    HW1 1058   1.332   1.521   2.569  0.0527 -0.8830  1.9295
  353SOL    HW2 1059   1.452   1.403   2.576  1.8926 -0.9684  0.7363
  354SOL     OW 1060   1.548   2.901   1.348  0.1206 -0.8236 -0.1553
  354SOL    HW1 1061   1.447   2.895   1.338  2.6979 -1.1635 -0.0495
  354SOL    HW2 1062   1.589   2.966   1.413  0.8743 -0.9015 -0.9648
  355SOL     OW 1063   2.163   1.445   0.626  0.2880 -0.3236 -0.1135
  355SOL    HW1 1064   2.179   1.350   0.661 -1.6013  2.8162 -1.8704
  355SOL    HW2 1065   2.132   1.441   0.531  1.0576  1.1327  0.7166
  356SOL     OW 1066   2.612   1.763   2.240 -0.5026 -0.1021  0.0629
  356SOL    HW1 1067   2.518   1.804   2.235 -1.0902  1.2263 -0.5835
  356SOL    HW2 1068   2.670   1.824   2.300  1.0192  0.5160  2.8633
  357SOL     OW 1069   0.670   2.892   1.403 -0.2906 -0.3783 -0.4256
  357SOL    HW1 1070   0.664   2.820   1.329  4.4041  0.3457 -0.0009
  357SOL    HW2 1071   0.754   2.949   1.391 -0.4128  0.6013 -0.1377
  358SOL     OW 1072   2.389   1.367   1.902  0.3570  0.3245  0.1013
  358SOL    HW1 1073   2.474   1.428   1.906  0.0634  0.6820  0.1071
  358SOL    HW2 1074   2.394   1.280   1.950  2.5626 -0.5949 -3.1840
  359SOL     OW 1075   2.271   2.936   2.703  0.0025  0.1745  0.2636
  359SOL    HW1 1076   2.279   2.838   2.678  0.2285 -0.1346 -0.3849
  359SOL    HW2 1077   2.256   2.999   2.626 -1.1282 -0.0338  0.4840
  360SOL     OW 1078   0.678   0.427   0.970 -0.3517 -0.7643 -0.4549
  360SOL    HW1 1079   0.708   0.337   0.933  0.8223  0.5160 -0.3855
  360SOL    HW2 1080   0.601   0.419   1.041 -0.1322  0.3299  0.0400
  361SOL     OW 1081   1.812   2.985   1.099  0.0987 -0.2551  0.3599
  361SOL    HW1 1082   1.753   3.056   1.143  0.7466 -1.9300 -0.3998
  361SOL    HW2 1083   1.816   2.892   1.144 -1.3214  0.9058 -1.9723
  362SOL     OW 1084   1.210   1.073   1.034  0.0894  0.3760  0.5061
  362SOL    HW1 1085   1.298   1.110   0.997 -0.9111 -3.5039 -0.8417
  362SOL    HW2 1086   1.132   1.089   0.972 -2.3175 -1.6360  1.7928
  363SOL     OW 1087   2.310   1.509   2.699  0.2030 -0.3680 -0.2018
  363SOL    HW1 1088   2.386   1.529   2.768  3.1927 -0.1067  0.3194
  363SOL    HW2 1089   2.344   1.471   2.613 -0.3084  0.6571  2.9560
  364SOL     OW 1090   0.041   0.035   1.044 -0.4417  0.6982 -0.6077
  364SOL    HW1 1091   0.093   0.120   1.056 -4.0573 -1.3480  2.2156
  364SOL    HW2 1092   3.029   0.042   1.082  1.1137  4.4520  0.4642
  365SOL     OW 1093   0.147   2.944   2.748  0.0084  0.4315 -0.2681
  365SOL    HW1 1094   0.183   2.873   2.678 -0.8818 -0.7022 -0.1704
  365SOL    HW2 1095   0.056   2.988   2.721 -0.5821 -3.6908  0.7816
  366SOL     OW 1096   2.303   2.265   2.909 -0.4000 -0.3841  0.4915
  366SOL    HW1 1097   2.343   2.180   2.947 -1.7179  1.5125 -1.3130
  366SOL    HW2 1098   2.284   2.329   2.986  3.2443 -2.5610 -2.0309
  367SOL     OW 1099   2.534   2.548   3.023  0.0155  0.7556  0.7753
  367SOL    HW1 1100   2.552   2.550   2.924 -0.5355 -1.3726  0.4441
  367SOL    HW2 1101   2.613   2.506   3.072  0.4646 -0.7829  1.4235
  368SOL     OW 1102   0.197   1.648   1.016 -0.6311  0.2515  0.6012
  368SOL    HW1 1103   0.175   1.740   0.988  2.1745 -2.5940  1.2443
  368SOL    HW2 1104   0.123   1.604   1.068  2.1425  0.5386  0.2059
  369SOL     OW 1105   0.602   2.712   2.734 -0.0420  0.4892 -0.1018
  369SOL    HW1 1106   0.596   2.718   2.840  0.1385 -1.0298  4.2622
  369SOL    HW2 1107   0.682   2.655   2.708  0.3910 -0.6224  0.2166
  370SOL     OW 1108   3.021   0.821   0.745  0.8075 -0.5198 -0.4029
  370SOL    HW1 1109   0.023   0.813   0.695 -1.9886  0.0847 -0.2439
  370SOL    HW2 1110   2.976   0.728   0.758 -0.4145  1.3630  1.6615
  371SOL     OW 1111   1.800   2.226   0.837 -0.6881  0.7715  0.1219
  371SOL    HW1 1112   1.783   2.258   0.931 -0.4378  1.1877 -0.4976
  371SOL    HW2 1113   1.779   2.126   0.833  0.3157  0.1230  2.3434
  372SOL     OW 1114   0.403   0.756   2.843  0.0911  0.1219 -0.5685
  372SOL    HW1 1115   0.477   0.684   2.837 -0.4549 -2.1928  2.4539
  372SOL    HW2 1116   0.329   0.731   2.907 -0.2636  1.0786 -0.6422
  373SOL     OW 1117   3.066   1.928   1.020  0.4081  0.0617  0.0956
  373SOL    HW1 1118   3.000   2.004   1.020 -0.6753 -0.5285 -1.6224
  373SOL    HW2 1119   3.067   1.874   1.105  0.9502 -0.1788  2.0590
  374SOL     OW 1120   0.154   2.569   0.132 -0.2394 -0.1198  0.2678
  374SOL    HW1 1121   0.225   2.500   0.165  0.2743  0.2832  2.3819
  374SOL    HW2 1122   0.161   2.570   0.029 -0.2424  2.8727 -2.4854
  375SOL     OW 1123   0.183   0.189   0.376 -0.0072 -0.4052 -0.0433
  375SOL    HW1 1124   0.163   0.292   0.383  1.3838 -1.2653 -1.4281
  375SOL    HW2 1125   0.114   0.140   0.322  1.3956  1.7758  0.3091
  376SOL     OW 1126   0.027   2.592   1.647  0.0694 -0.2431  0.6083
  376SOL    HW1 1127   3.040   2.589   1.573 -1.1190 -1.2760  0.0189
  376SOL    HW2 1128   0.041   2.691   1.681 -0.8985  2.1491  2.9244
  377SOL     OW 1129   1.832   2.499   2.782  0.1663 -0.0937  0.3108
  377SOL    HW1 1130   1.824   2.585   2.839  0.9312 -0.3883  0.7713
  377SOL    HW2 1131   1.775   2.503   2.699  0.2790  1.3631 -0.8542
  378SOL     OW 1132   0.509   0.308   0.329 -0.1596 -0.4733  0.1893
  378SOL    HW1 1133   0.595   0.311   0.274 -0.5257 -1.1498  2.6821
  378SOL    HW2 1134   0.528   0.320   0.429  0.6880 -3.4354  0.9515
  379SOL     OW 1135   0.727   1.587   0.481  0.1189  0.0459 -0.3384
  379SOL    HW1 1136   0.737   1.547   0.384 -0.7266 -0.7677 -1.4140
  379SOL    HW2 1137   0.807   1.565   0.535 -3.3808  1.6524 -0.7360
  380SOL     OW 1138   0.315   1.714   1.360  0.0866 -0.2143  0.7706
  380SOL    HW1 1139   0.405   1.743   1.398 -0.4580 -0.3995 -0.2359
  380SOL    HW2 1140   0.285   1.768   1.278 -0.7678  0.1158 -0.9015
  381SOL     OW 1141   0.546   1.045   2.079  0.8629 -0.0495  0.4866
  381SOL    HW1 1142   0.575   1.044   1.979 -0.7474 -0.5761 -2.2446
  381SOL    HW2 1143   0.501   1.139   2.100 -0.7445  1.7766  1.7043
  382SOL     OW 1144   2.151   1.918   0.631 -0.3788 -0.3950  0.2064
  382SOL    HW1 1145   2.184   1.991   0.691 -0.4050  0.9897 -0.4836
  382SOL    HW2 1146   2.224   1.854   0.603  0.5757 -0.4711 -0.1155
  383SOL     OW 1147   2.837   1.770   2.430 -0.1034 -0.1506  0.9652
  383SOL    HW1 1148   2.846   1.815   2.521  1.5899 -1.3155 -3.1666
  383SOL    HW2 1149   2.916   1.806   2.366  0.1463  1.2667 -2.1432
  384SOL     OW 1150   0.436   2.087   2.522  0.2044 -0.5277 -0.0822
  384SOL    HW1 1151   0.338   2.117   2.527 -2.3209  1.3654  0.8749
  384SOL    HW2 1152   0.503   2.158   2.555 -2.2146 -1.6174 -0.9777
  385SOL     OW 1153   2.593   1.943   0.830  0.4725 -0.3312  0.1042
  385SOL    HW1 1154   2.607   1.939   0.935  1.0157  0.2137  1.6226
  385SOL    HW2 1155   2.670   1.984   0.782 -0.5375  1.0372  1.4275
  386SOL     OW 1156   1.726   1.018   1.136 -0.3698 -0.2841  0.1587
  386SOL    HW1 1157   1.796   1.090   1.158  0.7166  3.4456 -1.6541
  386SOL    HW2 1158   1.719   0.998   1.035 -0.7195 -1.0379  1.7534
  387SOL     OW 1159   0.371   0.867   1.656 -0.1517 -0.3447 -0.5068
  387SOL    HW1 1160   0.372   0.959   1.705  1.7112  2.9439  2.6349
  387SOL    HW2 1161   0.378   0.886   1.558  1.7720  0.6443  4.1440
  388SOL     OW 1162   2.299   0.936   2.207  0.6035  0.1975 -0.1344
  388SOL    HW1 1163   2.290   0.980   2.304 -2.3456  2.5939 -1.0845
  388SOL    HW2 1164   2.215   0.886   2.189 -0.9745 -1.0404  0.3730
  389SOL     OW 1165   2.074   1.220   2.060 -0.1567  0.0382 -0.4682
  389SOL    HW1 1166   2.107   1.227   1.964 -0.8310  0.5680 -0.4760
  389SOL    HW2 1167   2.120   1.289   2.120 -0.1200  2.9433  2.5711
  390SOL     OW 1168   1.731   2.860   0.173  0.0503 -0.1834 -0.7699
  390SOL    HW1 1169   1.746   2.888   0.270 -0.8729  1.6525  2.7841
  390SOL    HW2 1170   1.633   2.828   0.167 -0.5055  1.7096 -1.2182
  391SOL     OW 1171   2.039   1.986   1.110 -0.2988  0.0122  0.3225
  391SOL    HW1 1172   1.958   1.957   1.051  0.9549 -0.7793 -1.6783
  391SOL    HW2 1173   2.010   1.961   1.204 -2.8508 -0.0953  2.4685
  392SOL     OW 1174   3.070   2.756   1.367  0.6801 -0.1094  0.3615
  392SOL    HW1 1175   2.992   2.799   1.318  0.4726 -3.1602  0.5035
  392SOL    HW2 1176   3.054   2.657   1.357  4.0329  0.0690  3.3318
  393SOL     OW 1177   2.097   1.902   3.022 -0.1894  0.0528 -0.3394
  393SOL    HW1 1178   2.101   1.984   2.962  1.1129 -3.0110  0.4164
  393SOL    HW2 1179   2.003   1.863   3.024 -2.8449 -1.0794  0.3541
  394SOL     OW 1180   0.230   0.450   2.601  0.2823 -0.5700 -0.1130
  394SOL    HW1 1181   0.271   0.410   2.519 -1.7118 -0.6505  2.9727
  394SOL    HW2 1182   0.207   0.550   2.586 -1.5812  0.6526  0.8071
  395SOL     OW 1183   0.890   0.670   0.744 -0.0390 -0.2478 -0.3823
  395SOL    HW1 1184   0.894   0.698   0.844  1.6349  0.3789  0.6298
  395SOL    HW2 1185   0.833   0.746   0.696 -0.0840  2.6099  1.5954
  396SOL     OW 1186   1.115   1.014   3.041 -0.1010 -0.2136  0.7733
  396SOL    HW1 1187   1.142   0.962   2.958 -2.0181 -0.5316 -1.0098
  396SOL    HW2 1188   1.159   0.979   0.045 -1.1183 -0.7508  0.8082
  397SOL     OW 1189   0.415   0.789   2.135 -0.0743  0.3432 -0.2049
  397SOL    HW1 1190   0.456   0.883   2.136 -1.1818 -0.0009 -1.5367
  397SOL    HW2 1191   0.330   0.788   2.082  1.6336 -0.6293  2.9151
  398SOL     OW 1192   0.923   0.151   0.301 -0.4998 -0.7621 -0.0540
  398SOL    HW1 1193   0.935   0.146   0.402  0.1105 -0.1591  2.1590
  398SOL    HW2 1194   0.914   0.058   0.268 -0.3016  0.4817 -1.4649
  399SOL     OW 1195   1.982   2.938   1.735 -0.2861  0.1083 -0.5762
  399SOL    HW1 1196   2.073   2.922   1.776  0.0898 -2.8195  0.2858
  399SOL    HW2 1197   1.905   2.930   1.802 -2.1510 -1.1829  0.9596
  400SOL     OW 1198   0.553   1.818   2.051  0.1627 -0.5593 -0.0105
  400SOL    HW1 1199   0.496   1.819   2.141 -2.8206  0.7518  1.6899
  400SOL    HW2 1200   0.621   1.891   2.058 -1.1211 -3.0811 -0.0145
  401SOL     OW 1201   0.613   0.602   2.493 -0.2886  0.1779 -0.3415
  401SOL    HW1 1202   0.674   0.577   2.569 -0.6654  1.8061  1.6053
  401SOL    HW2 1203   0.528   0.641   2.531 -0.7194  2.0472  0.4133
  402SOL     OW 1204   2.889   2.220   1.408 -0.2962  0.1281 -0.0288
  402SOL    HW1 1205   2.874   2.141   1.470  1.3487  2.6961  1.7910
  402SOL    HW2 1206   2.980   2.208   1.360  0.5267 -0.1692  0.2788
  403SOL     OW 1207   0.351   1.094   1.796 -0.0274 -0.2696  0.3207
  403SOL    HW1 1208   0.308   1.166   1.736  0.7713  0.7761 -0.2635
  403SOL    HW2 1209   0.434   1.135   1.835 -2.7768 -2.0753 -1.5877
  404SOL     OW 1210   2.907   2.842   1.717 -0.0546  0.0675 -0.0355
  404SOL    HW1 1211   3.009   2.835   1.719  0.5257 -0.5999 -1.6355
  404SOL    HW2 1212   2.865   2.790   1.643 -2.2275 -0.2399  0.5438
  405SOL     OW 1213   0.434   0.411   1.683 -0.7439 -0.3419  0.5648
  405SOL    HW1 1214   0.437   0.393   1.780 -0.1573  1.4729 -2.9116
  405SOL    HW2 1215   0.515   0.371   1.634  0.4632 -0.2189 -2.6190
  406SOL     OW 1216   1.839   2.173   2.516  0.0739  0.5647 -0.1596
  406SOL    HW1 1217   1.906   2.249   2.500  0.5131 -0.9608 -1.9842
  406SOL    HW2 1218   1.895   2.093   2.556 -0.2556 -3.1373  1.2918
  407SOL     OW 1219   1.410   1.559   2.230 -0.0101  0.2437  0.4220
  407SOL    HW1 1220   1.326   1.564   2.164 -1.1725 -1.1376 -0.7319
  407SOL    HW2 1221   1.415   1.465   2.270 -1.6923 -2.0389 -1.6821
  408SOL     OW 1222   0.658   0.259   2.660  0.0128 -0.2594  0.6195
  408SOL    HW1 1223   0.653   0.265   2.560  0.2017  1.9349  2.8232
  408SOL    HW2 1224   0.571   0.299   2.698 -0.8417 -1.2313 -0.5291
  409SOL     OW 1225   0.171   1.957   0.149 -0.2649 -0.2349 -0.2438
  409SOL    HW1 1226   0.120   1.910   0.225 -1.1290 -1.2418  1.1561
  409SOL    HW2 1227   0.150   2.060   0.135  0.6245  2.6017 -1.3517
  410SOL     OW 1228   2.643   1.580   0.399 -0.0741 -0.1553 -0.2656
  410SOL    HW1 1229   2.737   1.591   0.444 -1.4822 -0.1690 -0.5397
  410SOL    HW2 1230   2.648   1.625   0.307 -1.6611  2.1101 -0.7281
  411SOL     OW 1231   2.731   0.457   0.936  0.4309  0.2057  0.2835
  411SOL    HW1 1232   2.709   0.364   0.964  1.1550  0.4243 -0.6384
  411SOL    HW2 1233   2.661   0.501   0.873 -0.6531  3.4403 -2.9381
  412SOL     OW 1234   1.153   1.073   1.319  0.2039  0.1717 -0.7041
  412SOL    HW1 1235   1.171   1.079   1.220 -1.6483  1.5390 -1.2192
  412SOL    HW2 1236   1.232   1.018   1.355  1.0474 -1.5446 -2.1464
  413SOL     OW 1237   0.639   2.762   1.173 -0.5655  0.1661 -0.3557
  413SOL    HW1 1238   0.540   2.739   1.159  0.1359 -1.0985  0.1145
  413SOL    HW2 1239   0.671   2.832   1.103  0.1080  0.5744 -2.2998
  414SOL     OW 1240   2.914   1.473   2.723  0.1473  0.3908 -0.3105
  414SOL    HW1 1241   2.943   1.488   2.624  0.8499  2.2519 -0.2376
  414SOL    HW2 1242   2.951   1.544   2.788 -1.3530  1.3289  0.3517
  415SOL     OW 1243   0.351   2.097   2.841 -0.2436 -0.1848 -0.4733
  415SOL    HW1 1244   0.359   2.051   2.933 -1.3923  1.2726  1.2860
  415SOL    HW2 1245   0.254   2.090   2.813  3.0786 -2.1688 -1.1992
  416SOL     OW 1246   1.498   0.005   0.470 -0.1400 -0.3675 -0.2361
  416SOL    HW1 1247   1.590   0.048   0.455  0.0261 -0.8777 -1.5461
  416SOL    HW2 1248   1.461   3.053   0.386 -0.6934  0.6297  3.0202
  417SOL     OW 1249   0.447   1.000   0.743 -0.1628  0.3533  0.2388
  417SOL    HW1 1250   0.474   0.921   0.804 -1.6204  0.4463  1.2217
  417SOL    HW2 1251   0.377   1.059   0.786 -0.5238  1.2672 -0.9692
  418SOL     OW 1252   2.333   1.091   1.990 -0.7030  0.2605 -0.2037
  418SOL    HW1 1253   2.272   1.054   1.914  1.1197  2.5554 -1.2278
  418SOL    HW2 1254   2.321   1.044   2.076  0.0004  0.2581  0.3660
  419SOL     OW 1255   3.036   0.272   0.645  0.3910 -0.0183  0.3703
  419SOL    HW1 1256   0.017   0.193   0.656  1.3972 -1.0230  0.3770
  419SOL    HW2 1257   0.003   0.355   0.677  0.6776  1.3682  2.5532
  420SOL     OW 1258   0.395   1.358   0.681  0.1394  0.1867  0.3648
  420SOL    HW1 1259   0.473   1.322   0.632 -3.1032  1.4245  0.5534
  420SOL    HW2 1260   0.415   1.366   0.779 -0.2042 -4.0272 -0.0788
  421SOL     OW 1261   1.037   2.395   0.745  0.0218 -0.1839 -0.0348
  421SOL    HW1 1262   0.985   2.443   0.674 -0.0866  1.1818  1.1296
  421SOL    HW2 1263   1.101   2.325   0.707  2.2572  1.0507 -0.8863
  422SOL     OW 1264   0.092   0.861   1.388 -0.0948  0.0409  0.3467
  422SOL    HW1 1265   0.024   0.932   1.419 -1.3126  1.7028  0.6547
  422SOL    HW2 1266   0.091   0.845   1.288 -0.1180 -2.0111  0.1976
  423SOL     OW 1267   1.182   1.344   1.370 -0.7467  0.2850 -0.2295
  423SOL    HW1 1268   1.171   1.242   1.369 -2.7091  2.4641  2.3189
  423SOL    HW2 1269   1.234   1.384   1.289  1.2142 -1.1997 -1.6906
  424SOL     OW 1270   1.983   1.163   2.882 -0.2028 -0.1255  0.1096
  424SOL    HW1 1271   2.028   1.194   2.966  0.0934  3.2328  0.4894
  424SOL    HW2 1272   1.900   1.224   2.864 -3.2432  0.6417  2.1092
  425SOL     OW 1273   0.084   0.486   2.004 -0.1646 -0.7352  0.2662
  425SOL    HW1 1274   0.132   0.576   1.999 -0.5504 -0.3431 -1.1852
  425SOL    HW2 1275   3.071   0.501   1.974 -4.1581  0.3403  1.0127
  426SOL     OW 1276   2.798   2.688   2.881 -0.3018  0.5229  0.1035
  426SOL    HW1 1277   2.866   2.693   2.954  0.6383  2.5202  2.3086
  426SOL    HW2 1278   2.796   2.600   2.831  0.8056  1.6344 -0.3995
  427SOL     OW 1279   0.917   0.661   2.162 -0.1905 -0.4720  0.2875
  427SOL    HW1 1280   0.823   0.677   2.195  1.2439  1.5018 -1.6510
  427SOL    HW2 1281   0.926   0.688   2.064  0.9892 -0.8616 -0.0526
  428SOL     OW 1282   2.349   0.914   1.513 -0.0030 -0.6150  0.3788
  428SOL    HW1 1283   2.446   0.908   1.487 -0.6940  1.7951 -0.8767
  428SOL    HW2 1284   2.309   0.998   1.480 -1.8997  0.8009  1.3319
  429SOL     OW 1285   2.548   2.551   0.396  0.1242 -0.2798  0.1699
  429SOL    HW1 1286   2.594   2.556   0.488  1.6346  2.3463 -2.0917
  429SOL    HW2 1287   2.451   2.588   0.402 -0.5104  2.5523  0.9621
  430SOL     OW 1288   1.640   1.813   2.460  0.1708 -0.1620  0.3090
  430SOL    HW1 1289   1.549   1.812   2.410 -0.7632  0.3583 -1.4129
  430SOL    HW2 1290   1.628   1.763   2.550 -0.0183  2.1928  1.2895
  431SOL     OW 1291   3.050   1.735   1.230  0.5167  0.5175 -0.1218
  431SOL    HW1 1292   3.041   1.644   1.270  1.1302  1.4911  2.7621
  431SOL    HW2 1293   3.034   1.810   1.296 -3.2614  0.1048  0.3435
  432SOL     OW 1294   1.650   2.855   2.546  0.8698  0.8115 -0.3957
  432SOL    HW1 1295   1.612   2.772   2.498 -1.6796  0.3048  1.2473
  432SOL    HW2 1296   1.748   2.855   2.542 -1.2950 -0.6030  0.0826
  433SOL     OW 1297   1.829   0.025   2.261  0.3545  0.3229 -0.1901
  433SOL    HW1 1298   1.896   3.037   2.292 -0.8246 -0.6017  0.8929
  433SOL    HW2 1299   1.737   3.070   2.254 -3.2187  0.9154  2.2904
  434SOL     OW 1300   0.321   2.573   2.081 -0.0093 -0.4042  0.0390
  434SOL    HW1 1301   0.224   2.540   2.086 -0.7510  0.8597 -0.7857
  434SOL    HW2 1302   0.342   2.581   1.982  1.0023 -1.9272 -0.0628
  435SOL     OW 1303   2.999   2.485   3.061 -0.8167  0.4743  0.4899
  435SOL    HW1 1304   0.019   2.479   3.051  1.0522 -0.0910  0.8730
  435SOL    HW2 1305   2.972   2.575   0.006  1.2865 -0.7208 -1.6083
  436SOL     OW 1306   0.729   0.534   1.756  0.3479 -0.4997  0.5662
  436SOL    HW1 1307   0.753   0.504   1.660 -2.0530  0.5906  0.6248
  436SOL    HW2 1308   0.704   0.631   1.759  2.1019 -0.0110 -0.4953
  437SOL     OW 1309   0.391   2.603   2.557  0.4318  0.2446 -0.1161
  437SOL    HW1 1310   0.405   2.573   2.464 -0.3931 -0.1598  3.2549
  437SOL    HW2 1311   0.480   2.612   2.605 -0.2485 -1.0886 -0.9799
  438SOL     OW 1312   0.536   1.742   1.503 -0.7764  0.2166  0.4975
  438SOL    HW1 1313   0.631   1.704   1.490  1.8383  0.2182 -1.1115
  438SOL    HW2 1314   0.484   1.700   1.580  1.2784 -0.9650  2.2389
  439SOL     OW 1315   2.375   0.921   2.822  0.3060 -0.7602  0.5005
  439SOL    HW1 1316   2.470   0.944   2.799 -0.6886 -0.9622  2.4944
  439SOL    HW2 1317   2.309   0.995   2.788 -1.2132 -0.2716 -0.6163
  440SOL     OW 1318   0.540   0.644   0.036  0.6043  0.4105 -0.0296
  440SOL    HW1 1319   0.568   0.601   0.124  1.7288 -0.4819 -0.1399
  440SOL    HW2 1320   0.580   0.734   0.047 -0.3619 -1.5722  0.0788
  441SOL     OW 1321   0.915   2.170   1.387 -0.0417 -0.2714  0.5814
  441SOL    HW1 1322   0.816   2.150   1.408 -0.0664 -2.2026  0.5552
  441SOL    HW2 1323   0.924   2.270   1.367 -0.3046 -0.0088 -1.1287
  442SOL     OW 1324   2.783   1.709   0.738  0.2461 -0.2291  0.2440
  442SOL    HW1 1325   2.706   1.775   0.763 -0.7772  2.5728  1.1128
  442SOL    HW2 1326   2.810   1.659   0.824 -1.3933  2.2370 -0.8292
  443SOL     OW 1327   2.729   2.059   2.439 -0.0265  0.1013  0.6430
  443SOL    HW1 1328   2.825   2.078   2.411  0.7083 -1.6430 -0.2590
  443SOL    HW2 1329   2.728   1.991   2.519  2.4647  2.0801 -1.6595
  444SOL     OW 1330   1.536   1.320   2.999 -0.2036 -0.4761 -0.1656
  444SOL    HW1 1331   1.490   1.377   2.932 -1.1313 -2.2482  2.9072
  444SOL    HW2 1332   1.485   1.306   0.000 -0.7277  1.8308  0.7641
  445SOL     OW 1333   2.664   0.106   1.929  0.5775  0.2007 -0.2065
  445SOL    HW1 1334   2.666   0.091   1.832 -0.4381  0.5986  1.7800
  445SOL    HW2 1335   2.710   0.188   1.957 -0.0921 -4.3867 -0.2183
  446SOL     OW 1336   0.311   0.970   1.055 -0.7405 -0.2787 -0.1321
  446SOL    HW1 1337   0.370   1.009   1.122 -0.5816  0.8937 -1.1130
  446SOL    HW2 1338   0.278   1.035   0.984  0.0941 -0.8082  0.0796
  447SOL     OW 1339   1.201   1.712   0.899  0.0573  0.1089  0.3192
  447SOL    HW1 1340   1.106   1.743   0.882  2.3206  0.8929 -1.8308
  447SOL    HW2 1341   1.274   1.759   0.843  1.2434 -0.7298 -0.3208
  448SOL     OW 1342   1.348   1.060   1.714  0.4592  0.0556 -0.5159
  448SOL    HW1 1343   1.328   1.141   1.775 -1.0390  1.2560  3.9885
  448SOL    HW2 1344   1.268   0.995   1.717 -0.6826  0.8474  0.9285
  449SOL     OW 1345   2.733   2.143   2.099 -0.2235  0.0702 -0.5473
  449SOL    HW1 1346   2.730   2.239   2.081 -0.5404  0.1636  2.5982
  449SOL    HW2 1347   2.827   2.113   2.126 -0.5872 -0.2866 -0.3302
  450SOL     OW 1348   3.082   1.919   1.714 -0.3159  0.2765  0.2196
  450SOL    HW1 1349   3.009   1.991   1.717  3.1738 -1.2127  0.5350
  450SOL    HW2 1350   0.072   1.943   1.782  0.8564  0.4456 -0.8355
  451SOL     OW 1351   2.085   0.856   0.895  0.4588 -0.7054  0.1901
  451SOL    HW1 1352   2.002   0.794   0.910 -0.6465 -0.0433  0.1746
  451SOL    HW2 1353   2.090   0.896   0.801 -1.1505 -0.2594 -0.2228
  452SOL     OW 1354   0.672   1.338   0.897  0.1349 -0.5063  0.3827
  452SOL    HW1 1355   0.748   1.405   0.878 -0.3965  0.5036  3.2364
  452SOL    HW2 1356   0.633   1.357   0.989 -1.0089  1.7530  0.0938
  453SOL     OW 1357   1.187   2.052   0.871  0.3468  0.5958  0.0538
  453SOL    HW1 1358   1.195   2.092   0.779  0.9971  0.8019  1.5236
  453SOL    HW2 1359   1.279   2.026   0.917  3.4104  1.4211 -0.2439
  454SOL     OW 1360   0.567   1.502   2.942  0.2224  0.2978 -0.3798
  454SOL    HW1 1361   0.641   1.489   3.008 -0.5534 -0.4452 -1.6285
  454SOL    HW2 1362   0.479   1.475   2.986 -1.9451 -2.6605 -0.1713
  455SOL     OW 1363   1.420   0.809   0.757  0.4814  0.0352  0.5146
  455SOL    HW1 1364   1.421   0.724   0.810 -0.5012  1.4938 -1.7392
  455SOL    HW2 1365   1.437   0.784   0.659  1.2881 -1.5783 -3.2712
  456SOL     OW 1366   2.041   2.329   0.824  0.6234  0.1701  0.2538
  456SOL    HW1 1367   1.948   2.283   0.814  0.0516 -0.0547 -3.8514
  456SOL    HW2 1368   2.107   2.262   0.866 -1.2359 -0.3317  1.1220
  457SOL     OW 1369   1.611   2.876   2.812 -0.2722 -0.1775  0.6078
  457SOL    HW1 1370   1.512   2.871   2.839 -1.0190 -0.1283  0.7720
  457SOL    HW2 1371   1.617   2.892   2.709  1.2838 -0.2826  1.6214
  458SOL     OW 1372   2.344   0.501   0.373  0.1233  0.6122 -0.6603
  458SOL    HW1 1373   2.344   0.405   0.347 -0.0365  2.3744  1.9039
  458SOL    HW2 1374   2.248   0.536   0.388 -1.7054  2.5530  2.0613
  459SOL     OW 1375   3.003   0.776   2.131 -1.0475 -0.5050  0.2257
  459SOL    HW1 1376   2.992   0.854   2.197  2.2091  1.1794  1.9529
  459SOL    HW2 1377   2.947   0.792   2.049 -1.2069 -2.3065  3.0168
  460SOL     OW 1378   0.307   1.146   0.092 -0.4542  0.1163  0.6901
  460SOL    HW1 1379   0.296   1.220   0.023 -2.1465  0.1185  2.0795
  460SOL    HW2 1380   0.259   1.060   0.063 -1.7482 -0.6933  1.3318
  461SOL     OW 1381   2.817   2.773   0.601 -0.3402  0.1429 -0.2156
  461SOL    HW1 1382   2.895   2.838   0.620  2.3860 -0.1695 -0.3145
  461SOL    HW2 1383   2.728   2.813   0.623  1.0733 -3.0626 -0.3309
  462SOL     OW 1384   0.128   0.115   1.539  0.0194 -0.3525 -0.5189
  462SOL    HW1 1385   0.143   0.212   1.569  0.7422 -0.9956  0.8319
  462SOL    HW2 1386   0.197   0.076   1.471 -0.3070 -0.4073 -0.7213
  463SOL     OW 1387   2.015   2.280   2.216 -0.3991  0.2750 -0.0152
  463SOL    HW1 1388   1.933   2.220   2.241  0.0537  1.3783  3.0701
  463SOL    HW2 1389   1.986   2.373   2.229  1.7999  0.0562 -0.1212
  464SOL     OW 1390   0.886   3.057   1.365  0.1456  0.3459 -0.4030
  464SOL    HW1 1391   0.815   0.044   1.345 -1.5470 -2.0005  0.0493
  464SOL    HW2 1392   0.904   3.060   1.465  1.0569  0.1649 -0.3774
  465SOL     OW 1393   0.576   3.049   1.799 -0.1849  0.1543  0.1486
  465SOL    HW1 1394   0.615   2.970   1.745 -2.5898 -1.7169 -1.0986
  465SOL    HW2 1395   0.638   3.071   1.875  0.0216 -1.1584  0.6108
  466SOL     OW 1396   1.245   2.387   2.332 -0.3575  0.1822  0.0843
  466SOL    HW1 1397   1.178   2.320   2.369 -3.5877 -0.0364  0.5713
  466SOL    HW2 1398   1.226   2.411   2.237  0.9249  1.5391  2.4541
  467SOL     OW 1399   0.357   1.934   1.155  0.5281  0.4937 -0.7726
  467SOL    HW1 1400   0.311   1.967   1.072 -0.0604  1.1697  2.3324
  467SOL    HW2 1401   0.440   1.988   1.162 -4.0980  0.9489  2.4512
  468SOL     OW 1402   2.571   1.615   2.518 -0.1508  0.2096 -0.0523
  468SOL    HW1 1403   2.638   1.640   2.448 -3.2623 -1.8039  1.0065
  468SOL    HW2 1404   2.503   1.553   2.475  1.0372 -3.4650 -0.1293
  469SOL     OW 1405   1.237   1.932   0.489 -0.6575  0.1787 -0.0695
  469SOL    HW1 1406   1.280   2.001   0.427 -0.7757  0.5630 -0.4888
  469SOL    HW2 1407   1.142   1.918   0.468 -0.0581  1.5617  1.7870
  470SOL     OW 1408   2.574   1.297   1.376 -0.6706 -0.2997  0.1987
  470SOL    HW1 1409   2.547   1.376   1.318  0.2035  1.8534  0.1907
  470SOL    HW2 1410   2.525   1.307   1.463  1.8420  2.9410  1.2783
  471SOL     OW 1411   0.313   2.316   3.001 -0.2949  0.0716 -0.4720
  471SOL    HW1 1412   0.323   2.247   2.930 -0.8959  0.3891  1.0003
  471SOL    HW2 1413   0.403   2.361   3.027  0.2868 -1.2921  1.3605
  472SOL     OW 1414   2.981   1.900   2.031 -0.2943 -0.2152 -0.1889
  472SOL    HW1 1415   2.975   1.800   2.036 -1.4609 -0.2070 -2.4685
  472SOL    HW2 1416   2.905   1.931   1.970  0.5094 -0.9027 -1.6957
  473SOL     OW 1417   0.858   2.758   0.510 -0.2227 -0.5180  0.4081
  473SOL    HW1 1418   0.879   2.659   0.498 -0.1817 -1.6237  0.3628
  473SOL    HW2 1419   0.908   2.818   0.442  2.5735 -0.4764 -1.5279
  474SOL     OW 1420   2.857   0.023   1.106 -0.4795 -0.0621 -0.2386
  474SOL    HW1 1421   2.786   0.060   1.045  1.6141  0.0374  0.8667
  474SOL    HW2 1422   2.830   0.053   1.201  1.2922 -0.6493 -0.8556
  475SOL     OW 1423   1.832   2.980   1.949  0.2076 -0.5523  0.2169
  475SOL    HW1 1424   1.729   2.971   1.947  1.9170 -1.3721 -0.6413
  475SOL    HW2 1425   1.856   3.078   1.974 -0.5834 -2.2130 -1.6492
  476SOL     OW 1426   0.500   0.561   0.817 -0.2487 -0.0057 -0.2423
  476SOL    HW1 1427   0.532   0.576   0.719 -1.6545 -2.2180 -1.3221
  476SOL    HW2 1428   0.567   0.507   0.874 -1.0594 -1.8991 -0.1539
  477SOL     OW 1429   0.771   2.246   1.074 -0.2698 -0.7723 -0.2086
  477SOL    HW1 1430   0.737   2.274   0.981  2.0508  0.4882  2.1346
  477SOL    HW2 1431   0.847   2.176   1.061  0.1012  0.0591 -1.3053
  478SOL     OW 1432   0.156   2.285   2.358  0.2302 -0.4969 -0.2379
  478SOL    HW1 1433   0.150   2.186   2.389 -0.3321  0.8752  0.4862
  478SOL    HW2 1434   0.149   2.347   2.440 -0.0142 -0.7957 -0.1904
  479SOL     OW 1435   0.124   0.819   1.769 -0.2973  0.0869  0.1461
  479SOL    HW1 1436   0.224   0.837   1.762  1.1357  1.4057  1.3312
  479SOL    HW2 1437   0.093   0.733   1.719  1.0152  0.7960 -0.2131
  480SOL     OW 1438   2.734   2.398   0.068  0.5985 -0.0381  0.6384
  480SOL    HW1 1439   2.735   2.360   0.161  1.0204  0.3065 -2.5511
  480SOL    HW2 1440   2.826   2.434   0.053 -1.6567  1.2552 -0.7849
  481SOL     OW 1441   1.515   1.985   2.185 -0.3635  0.1928  0.4429
  481SOL    HW1 1442   1.585   1.925   2.142 -4.7308  0.8045  0.1151
  481SOL    HW2 1443   1.472   1.940   2.264 -0.6038  0.2687  0.9478
  482SOL     OW 1444   1.621   2.205   2.716  0.0785  0.1823  0.3980
  482SOL    HW1 1445   1.564   2.121   2.702 -1.1183 -2.4360 -0.7524
  482SOL    HW2 1446   1.705   2.201   2.651  0.8615  2.3882 -2.8191
  483SOL     OW 1447   0.795   2.024   2.609  0.2335 -0.5300 -0.1992
  483SOL    HW1 1448   0.723   1.993   2.676 -1.9293 -1.9607  0.1680
  483SOL    HW2 1449   0.818   2.116   2.642  2.4880  0.5968 -1.7248
  484SOL     OW 1450   3.012   0.414   1.075  0.0987 -0.0787 -0.3087
  484SOL    HW1 1451   2.922   0.453   1.063  1.5174  1.0289 -0.0459
  484SOL    HW2 1452   3.017   0.344   1.148 -1.4301 -0.4675  1.4498
  485SOL     OW 1453   2.114   0.612   0.457  0.2566 -0.1652  0.0981
  485SOL    HW1 1454   2.047   0.578   0.527  1.0047 -0.7225  2.0814
  485SOL    HW2 1455   2.063   0.638   0.377  1.3885 -2.1277  4.4407
  486SOL     OW 1456   1.920   2.836   2.519  0.1868  0.3554  0.2956
  486SOL    HW1 1457   1.981   2.900   2.461  0.7823  2.3778 -1.8469
  486SOL    HW2 1458   1.946   2.845   2.620  1.0707  0.2407  1.6479
  487SOL     OW 1459   1.475   1.467   0.834 -0.0681 -0.2857  0.2655
  487SOL    HW1 1460   1.575   1.447   0.808 -1.3696 -2.1862 -1.2816
  487SOL    HW2 1461   1.459   1.544   0.905  2.1697  0.9384 -0.1123
  488SOL     OW 1462   2.389   1.400   0.234  0.6355  0.2420 -0.0121
  488SOL    HW1 1463   2.335   1.314   0.251 -2.5982  0.9280  0.5855
  488SOL    HW2 1464   2.438   1.391   0.144 -1.8560  0.3294 -2.7971
  489SOL     OW 1465   2.350   0.174   0.710  0.3816 -0.3509  0.3226
  489SOL    HW1 1466   2.293   0.191   0.627 -3.6322 -0.4902  0.2328
  489SOL    HW2 1467   2.296   0.153   0.794 -1.5090  0.2914 -1.1955
  490SOL     OW 1468   1.492   2.746   0.038  0.1363 -0.5164 -0.0133
  490SOL    HW1 1469   1.428   2.724   0.115 -0.8763 -0.7176 -0.4282
  490SOL    HW2 1470   1.440   2.797   3.049 -2.2557  2.2215  1.6875
  491SOL     OW 1471   0.763   0.863   0.601  0.0245  0.5594 -0.0437
  491SOL    HW1 1472   0.725   0.926   0.669  2.8832 -0.3803 -1.2864
  491SOL    HW2 1473   0.801   0.917   0.526 -1.5723 -1.7570 -0.1049
  492SOL     OW 1474   1.666   0.295   0.042  0.1291  0.0094 -0.0312
  492SOL    HW1 1475   1.688   0.200   0.068  0.2461  0.9879 -0.0126
  492SOL    HW2 1476   1.581   0.299   3.062 -2.6538 -0.8554  1.4940
  493SOL     OW 1477   1.883   2.310   2.995 -0.1755 -1.0277 -0.1948
  493SOL    HW1 1478   1.795   2.252   2.991 -4.8354  0.4887 -2.0436
  493SOL    HW2 1479   1.870   2.386   2.927  0.5900 -0.4489 -2.4062
  494SOL     OW 1480   0.581   1.185   0.569 -0.4303 -0.2213  0.0261
  494SOL    HW1 1481   0.544   1.125   0.643 -2.9005  0.5890 -1.8708
  494SOL    HW2 1482   0.534   1.158   0.481 -1.0149 -0.8560  0.1808
  495SOL     OW 1483   2.838   2.843   1.225 -0.3082  0.2541  0.3977
  495SOL    HW1 1484   2.821   2.933   1.179  2.9679 -2.7620  2.0464
  495SOL    HW2 1485   2.760   2.782   1.213  2.1119 -0.5761  2.2574
  496SOL     OW 1486   2.376   0.312   1.775 -0.1299 -0.2115  0.2883
  496SOL    HW1 1487   2.423   0.309   1.686 -0.7845  1.0047  1.6628
  496SOL    HW2 1488   2.277   0.334   1.764 -0.7295  0.8101 -0.4189
  497SOL     OW 1489   1.882   1.789   2.739 -0.0283 -0.3233 -0.3536
  497SOL    HW1 1490   1.789   1.785   2.697 -0.1928 -0.0992  1.3962
  497SOL    HW2 1491   1.940   1.868   2.707  1.2670 -1.1187 -2.4759
  498SOL     OW 1492   0.815   1.907   0.642 -0.2748  0.5380  0.4145
  498SOL    HW1 1493   0.734   1.844   0.649 -2.2518  0.9223  0.5626
  498SOL    HW2 1494   0.889   1.870   0.702 -0.8920  1.2854  0.4864
  499SOL     OW 1495   0.499   1.725   1.088  0.3238  0.3124 -0.2572
  499SOL    HW1 1496   0.437   1.798   1.111 -3.0824 -4.0999 -0.4963
  499SOL    HW2 1497   0.445   1.639   1.089 -1.9427  0.4390 -1.1229
  500SOL     OW 1498   1.345   2.308   0.312 -0.3421  0.4474 -0.5710
  500SOL    HW1 1499   1.329   2.274   0.217 -0.0077 -0.8370  1.4257
  500SOL    HW2 1500   1.404   2.244   0.368  0.5026 -2.0299  0.2182
  501SOL     OW 1501   2.357   2.578   0.991 -0.2069 -0.1483  0.2438
  501SOL    HW1 1502   2.293   2.649   1.032  0.6083  3.1874 -1.7304
  501SOL    HW2 1503   2.324   2.552   0.897 -3.2825 -1.0683 -0.5470
  502SOL     OW 1504   0.367   0.914   1.396  0.7076  0.1277  0.3835
  502SOL    HW1 1505   0.433   0.857   1.341 -1.0900  2.7364  3.8567
  502SOL    HW2 1506   0.272   0.874   1.381 -3.9378 -1.6206 -0.1950
  503SOL     OW 1507   2.219   0.683   1.565  0.1686 -0.3761 -0.1807
  503SOL    HW1 1508   2.182   0.655   1.657  1.8192 -0.4963  0.3810
  503SOL    HW2 1509   2.284   0.763   1.568  0.4031 -3.3217  3.7029
  504SOL     OW 1510   1.467   0.616   1.885  0.5754 -0.6505 -0.0582
  504SOL    HW1 1511   1.374   0.632   1.926  2.3900 -2.6158 -0.1711
  504SOL    HW2 1512   1.490   0.704   1.833  0.1515 -0.0621 -0.6961
  505SOL     OW 1513   1.158   0.215   2.722 -0.1075 -0.4111  0.0565
  505SOL    HW1 1514   1.145   0.115   2.734 -1.1861  4.0921 -0.4083
  505SOL    HW2 1515   1.164   0.264   2.812  1.6293  2.3563 -2.1704
  506SOL     OW 1516   0.360   0.609   1.517 -0.2672 -0.6837  0.1439
  506SOL    HW1 1517   0.371   0.693   1.574  1.2558 -0.7017 -0.7575
  506SOL    HW2 1518   0.387   0.530   1.570  2.1711  0.8079 -0.8875
  507SOL     OW 1519   1.452   0.008   3.079 -0.1687 -0.2148 -0.0085
  507SOL    HW1 1520   1.424   3.023   3.008  0.3122 -0.5487  1.3173
  507SOL    HW2 1521   1.462   0.103   3.043  3.7645  1.4720  0.2146
  508SOL     OW 1522   2.565   0.638   2.648 -0.0561 -0.0365  0.4528
  508SOL    HW1 1523   2.501   0.585   2.703  1.3025 -1.6660 -0.7545
  508SOL    HW2 1524   2.517   0.660   2.557  0.7736 -0.3213  1.3225
  509SOL     OW 1525   0.935   1.470   1.995 -0.3659  0.0823 -0.3103
  509SOL    HW1 1526   0.875   1.430   2.069  3.2065 -1.0099 -0.8722
  509SOL    HW2 1527   0.894   1.536   1.924  0.5616  0.4142 -2.8228
  510SOL     OW 1528   0.003   1.193   0.706 -0.1571  0.2863  0.0357
  510SOL    HW1 1529   3.080   1.282   0.763  1.3818  1.2524  3.2945
  510SOL    HW2 1530   3.003   1.130   0.723 -0.7992 -1.3026  0.9681
  511SOL     OW 1531   1.715   1.615   1.149 -0.2342  0.0417  0.0019
  511SOL    HW1 1532   1.726   1.622   1.246  1.4896  1.0131 -2.1871
  511SOL    HW2 1533   1.762   1.538   1.106  0.6759  1.3092  0.4935
  512SOL     OW 1534   0.891   1.183   0.047 -0.3332 -0.4710 -0.0888
  512SOL    HW1 1535   0.964   1.194   0.124  0.3040 -1.7226  2.8135
  512SOL    HW2 1536   0.913   1.116   3.059  0.5919 -2.0700  0.4481
  513SOL     OW 1537   0.290   2.423   0.550  0.7755 -0.0609 -0.4788
  513SOL    HW1 1538   0.254   2.505   0.596  0.3859 -1.3893 -0.3100
  513SOL    HW2 1539   0.390   2.418   0.560 -3.1284 -0.1624 -2.5436
  514SOL     OW 1540   2.976   2.116   2.349  0.3911  0.2037 -0.1586
  514SOL    HW1 1541   3.063   2.089   2.394  1.8067  0.3662 -0.2211
  514SOL    HW2 1542   2.992   2.164   2.258  1.0727  1.5172 -2.8297
  515SOL     OW 1543   2.346   0.716   0.173 -0.5404  0.3497 -0.1268
  515SOL    HW1 1544   2.420   0.751   0.223 -0.9811 -1.6484 -2.2959
  515SOL    HW2 1545   2.305   0.635   0.222  0.3841 -0.5990  2.3263
  516SOL     OW 1546   2.570   2.868   0.702  0.6820  0.0699 -0.0255
  516SOL    HW1 1547   2.563   2.879   0.802  0.5352 -1.3034 -3.9209
  516SOL    HW2 1548   2.548   2.951   0.652  0.1571  3.9474 -1.9089
  517SOL     OW 1549   1.451   1.737   2.934 -0.2518 -0.3408  0.3612
  517SOL    HW1 1550   1.541   1.730   2.988 -0.2814 -0.5404  0.5555
  517SOL    HW2 1551   1.385   1.775   3.005 -0.9042 -2.7318 -0.8210
  518SOL     OW 1552   1.149   0.861   1.689 -0.0206 -0.1383  0.0284
  518SOL    HW1 1553   1.087   0.902   1.616 -0.9853 -1.1862 -1.7463
  518SOL    HW2 1554   1.149   0.759   1.693 -0.0442  1.5354  4.5199
  519SOL     OW 1555   2.876   1.621   0.505  0.0635  0.4070 -0.6383
  519SOL    HW1 1556   2.857   1.639   0.603  1.9831  1.0473  2.1074
  519SOL    HW2 1557   2.950   1.548   0.501  1.2246 -1.3434  2.7832
  520SOL     OW 1558   2.087   2.137   1.828  0.7814 -0.3725 -0.3967
  520SOL    HW1 1559   2.137   2.197   1.897  0.8562  2.1180 -0.4625
  520SOL    HW2 1560   2.041   2.056   1.878 -0.8548 -1.7418  2.1010
  521SOL     OW 1561   0.984   3.016   2.590 -0.0715 -0.0036  0.3096
  521SOL    HW1 1562   0.901   3.076   2.605  2.5231 -0.0362 -0.2626
  521SOL    HW2 1563   0.977   2.968   2.500  1.7142  2.1722 -0.6291
  522SOL     OW 1564   2.498   0.419   2.268  0.1816  0.7747 -0.3853
  522SOL    HW1 1565   2.481   0.422   2.168 -0.7381 -0.1774 -0.4918
  522SOL    HW2 1566   2.475   0.328   2.311  0.4668  0.6941  0.5521
  523SOL     OW 1567   1.665   2.287   1.643  0.1957 -0.0527  0.5898
  523SOL    HW1 1568   1.691   2.251   1.550  4.5372  0.3822 -2.7172
  523SOL    HW2 1569   1.749   2.311   1.697 -1.6662  1.5707 -1.1002
  524SOL     OW 1570   1.709   2.122   2.952 -0.1176  0.3040  0.3426
  524SOL    HW1 1571   1.663   2.139   2.861 -0.2368  3.0782  0.4950
  524SOL    HW2 1572   1.722   2.021   2.960  3.6022 -2.3105 -1.0960
  525SOL     OW 1573   0.267   0.658   3.060  0.1566 -0.1250 -0.5004
  525SOL    HW1 1574   0.369   0.640   3.074  3.6315  0.3805  0.7482
  525SOL    HW2 1575   0.214   0.573   3.070  0.0284  2.0169 -1.4246
  526SOL     OW 1576   1.098   2.981   0.650  0.0397 -0.5272 -0.4556
  526SOL    HW1 1577   1.183   3.037   0.634  2.4721  0.9461  0.7754
  526SOL    HW2 1578   1.113   2.899   0.704  0.5533  0.3846  1.7885
  527SOL     OW 1579   2.364   1.763   0.824 -0.3073 -0.0607 -0.4897
  527SOL    HW1 1580   2.447   1.817   0.845  0.4515 -0.2311  1.4536
  527SOL    HW2 1581   2.352   1.754   0.720  3.1211 -0.7891 -0.4428
  528SOL     OW 1582   0.786   0.996   2.265  0.1874 -0.5356  0.4413
  528SOL    HW1 1583   0.776   0.920   2.330 -1.5825 -0.0505 -0.1484
  528SOL    HW2 1584   0.703   0.997   2.208  0.3713  2.4479 -0.7061
  529SOL     OW 1585   1.566   1.716   2.701  0.6873 -1.0639  0.0536
  529SOL    HW1 1586   1.520   1.734   2.788 -0.0992  1.4989 -0.6218
  529SOL    HW2 1587   1.518   1.639   2.647  1.7862 -0.4343  0.6098
  530SOL     OW 1588   1.618   1.136   2.315 -0.2674 -0.3667  0.2500
  530SOL    HW1 1589   1.599   1.180   2.224 -1.1630 -0.2102  1.3993
  530SOL    HW2 1590   1.649   1.042   2.308  1.9088  1.9133 -0.5543
  531SOL     OW 1591   0.589   2.263   2.668 -0.2921 -0.0103 -1.0108
  531SOL    HW1 1592   0.584   2.174   2.726 -1.1411 -2.9141  4.3635
  531SOL    HW2 1593   0.637   2.328   2.732  2.0180  0.5746  1.3732
  532SOL     OW 1594   2.498   0.870   0.591  0.0502 -0.4846  0.0354
  532SOL    HW1 1595   2.499   0.965   0.624 -0.2074  0.0471  0.8303
  532SOL    HW2 1596   2.527   0.804   0.665 -0.8406 -0.9952 -0.5082
  533SOL     OW 1597   0.144   0.363   1.616 -0.2745  0.0671 -0.2720
  533SOL    HW1 1598   0.244   0.368   1.636 -0.1738 -1.9916 -0.1904
  533SOL    HW2 1599   0.107   0.455   1.588 -1.8264  0.5830 -1.6404
  534SOL     OW 1600   0.676   0.127   0.065  0.0699  0.0694  0.1603
  534SOL    HW1 1601   0.573   0.115   0.048 -0.6680  1.5874 -0.3615
  534SOL    HW2 1602   0.696   0.218   0.103  1.1134 -3.8053  0.0919
  535SOL     OW 1603   0.241   2.981   0.096  0.3819 -0.2274  0.1288
  535SOL    HW1 1604   0.192   2.926   0.017 -1.5152  0.3202  1.1420
  535SOL    HW2 1605   0.210   2.942   0.185 -2.0747 -0.9302  0.8755
  536SOL     OW 1606   0.720   1.643   1.224  0.1932  0.3843 -0.4417
  536SOL    HW1 1607   0.654   1.692   1.165 -1.5278  0.9360 -1.3887
  536SOL    HW2 1608   0.740   1.690   1.313  0.3368 -3.2327 -1.3280
  537SOL     OW 1609   0.897   2.638   1.817 -0.1201 -0.0847  0.0590
  537SOL    HW1 1610   0.983   2.683   1.847  1.1339  0.0991  0.6727
  537SOL    HW2 1611   0.827   2.643   1.890 -3.1467  2.7257  0.7921
  538SOL     OW 1612   3.035   1.679   2.895 -0.3266 -0.5530  0.1855
  538SOL    HW1 1613   3.049   1.781   2.918  1.1605  0.7802  2.4794
  538SOL    HW2 1614   0.034   1.639   2.853 -3.4337  1.4203  1.0610
  539SOL     OW 1615   2.640   0.904   2.716  0.1645  0.7866  0.0787
  539SOL    HW1 1616   2.614   0.806   2.704  0.4924  2.9163 -0.5317
  539SOL    HW2 1617   2.728   0.913   2.771  4.3409 -1.0664 -1.5311
  540SOL     OW 1618   1.674   0.472   2.450  0.0106  0.5635 -0.1331
  540SOL    HW1 1619   1.648   0.501   2.548 -1.0176  1.9123 -1.0030
  540SOL    HW2 1620   1.743   0.536   2.412  1.9245  1.2425  1.9359
  541SOL     OW 1621   0.759   0.062   1.987 -0.0422  0.3494 -0.5256
  541SOL    HW1 1622   0.709   0.066   2.075  0.1757 -1.0828  0.5701
  541SOL    HW2 1623   0.763   0.161   1.954 -0.3333  0.5316  0.3780
  542SOL     OW 1624   1.778   2.709   2.954  0.7143  0.4972 -0.5165
  542SOL    HW1 1625   1.762   2.719   3.055 -0.5748 -1.7158 -0.1672
  542SOL    HW2 1626   1.704   2.758   2.903  1.3331  2.8025  1.4755
  543SOL     OW 1627   0.959   0.112   0.568  0.4864  0.7916 -0.2859
  543SOL    HW1 1628   0.957   0.181   0.640 -0.1413 -1.3730 -3.6145
  543SOL    HW2 1629   1.025   0.036   0.596  1.8604  2.1410 -0.9004
  544SOL     OW 1630   2.609   1.538   1.898  0.0427  0.2097 -0.6056
  544SOL    HW1 1631   2.672   1.527   1.984  3.0166 -0.2739 -0.8082
  544SOL    HW2 1632   2.556   1.625   1.900  2.9023  1.0940 -2.4780
  545SOL     OW 1633   2.091   1.648   1.369  0.0147 -1.0219 -0.1137
  545SOL    HW1 1634   2.164   1.702   1.322  2.0605  2.5835 -0.6143
  545SOL    HW2 1635   2.076   1.555   1.327 -0.5353  0.6212 -0.0680
  546SOL     OW 1636   0.057   0.113   2.142  0.2093  0.4992 -0.0098
  546SOL    HW1 1637   0.127   0.160   2.079  2.0698  0.4000 -0.8667
  546SOL    HW2 1638   0.095   0.026   2.161  0.6069  1.6075 -0.7310
  547SOL     OW 1639   1.224   0.583   1.094 -0.2172  0.2087  0.5975
  547SOL    HW1 1640   1.262   0.623   1.181  2.5160 -3.0087  1.7146
  547SOL    HW2 1641   1.196   0.655   1.030 -0.4546  0.3231  2.8407
  548SOL     OW 1642   1.516   2.419   2.814  0.4069  0.3684  0.6941
  548SOL    HW1 1643   1.439   2.375   2.868  2.3353 -0.5378 -0.9098
  548SOL    HW2 1644   1.583   2.345   2.786  2.6057 -0.6605  0.6616
  549SOL     OW 1645   2.277   0.255   0.243 -0.3256 -0.2615  0.1517
  549SOL    HW1 1646   2.206   0.302   0.191  0.5158  2.2800  0.8887
  549SOL    HW2 1647   2.284   0.157   0.213  0.9132  0.0937  1.0750
  550SOL     OW 1648   2.781   2.079   0.671 -0.6166 -0.1497  0.1120
  550SOL    HW1 1649   2.738   2.175   0.662  0.2104  2.3609  0.2337
  550SOL    HW2 1650   2.867   2.069   0.612 -1.3558  2.0615 -0.9334
  551SOL     OW 1651   1.230   2.961   2.369  0.4459 -0.1338  0.8513
  551SOL    HW1 1652   1.285   2.936   2.284 -1.2468 -0.0225  0.9744
  551SOL    HW2 1653   1.201   3.061   2.366  1.2158  0.8317  0.0208
  552SOL     OW 1654   2.874   2.420   2.767 -0.1126  0.1612  0.6419
  552SOL    HW1 1655   2.843   2.420   2.669  2.1509  1.0484 -0.6083
  552SOL    HW2 1656   2.842   2.335   2.812  0.1824  2.2920  0.2641
  553SOL     OW 1657   0.194   2.901   0.938 -0.0344 -0.1829 -0.1499
  553SOL    HW1 1658   0.137   2.966   0.992  2.3502 -0.2521  0.1133
  553SOL    HW2 1659   0.144   2.829   0.884  2.4429  0.6149 -0.5213
  554SOL     OW 1660   2.217   2.213   1.470  0.1043 -0.4863 -0.1859
  554SOL    HW1 1661   2.138   2.153   1.474  0.3795 -0.1260 -1.6508
  554SOL    HW2 1662   2.193   2.312   1.501  2.2808  0.8466  0.7217
  555SOL     OW 1663   1.516   2.169   1.992 -0.0877 -0.3113 -0.1736
  555SOL    HW1 1664   1.511   2.089   2.054  0.6692  0.3511 -0.6683
  555SOL    HW2 1665   1.568   2.242   2.034 -1.7525  1.4247 -0.3002
  556SOL     OW 1666   1.358   1.442   1.183  0.2934 -0.2475 -0.5290
  556SOL    HW1 1667   1.427   1.366   1.197  0.7644 -0.1827  0.6081
  556SOL    HW2 1668   1.404   1.523   1.230 -1.5169  1.4263  1.8906
  557SOL     OW 1669   1.879   2.707   1.631 -0.0215  0.0311 -0.7545
  557SOL    HW1 1670   1.937   2.624   1.651  0.1778 -0.5937  0.8209
  557SOL    HW2 1671   1.902   2.781   1.699 -0.7786 -0.6825 -2.3359
  558SOL     OW 1672   0.142   0.031   1.793 -0.1548  0.4753 -0.1966
  558SOL    HW1 1673   0.126   0.110   1.860  0.7179 -1.2253  0.7855
  558SOL    HW2 1674   0.150   0.066   1.697 -0.0336 -2.2022 -0.6324
  559SOL     OW 1675   2.041   3.014   0.708  0.3367  0.2303  0.0877
  559SOL    HW1 1676   2.045   0.021   0.752  3.0256 -1.0905 -0.2320
  559SOL    HW2 1677   2.084   3.001   0.617 -0.4684  0.6770  0.0856
  560SOL     OW 1678   1.745   2.741   0.675  0.0584 -0.4818 -0.1111
  560SOL    HW1 1679   1.781   2.813   0.731 -1.3554 -0.5860 -1.0375
  560SOL    HW2 1680   1.705   2.670   0.737  0.0824 -1.1353 -1.0075
  561SOL     OW 1681   0.809   0.130   0.910 -0.2105  0.3244  0.0993
  561SOL    HW1 1682   0.893   0.175   0.864 -1.2859  2.1320 -0.5330
  561SOL    HW2 1683   0.794   0.031   0.887  0.9480 -0.7454 -1.7090
  562SOL     OW 1684   0.502   1.279   2.294  0.1178  0.0958  0.1404
  562SOL    HW1 1685   0.428   1.270   2.218 -3.4712 -1.5821 -0.3956
  562SOL    HW2 1686   0.514   1.192   2.340 -1.0434  1.4417 -1.5307
  563SOL     OW 1687   1.613   2.177   2.371 -0.0645 -0.1602 -0.4286
  563SOL    HW1 1688   1.601   2.095   2.309 -0.8628  0.6127 -2.8140
  563SOL    HW2 1689   1.685   2.158   2.438  0.1951 -2.4397 -2.1168
  564SOL     OW 1690   2.862   1.047   0.732 -0.5308  0.4540  0.2450
  564SOL    HW1 1691   2.887   0.957   0.768  0.6104  0.0830 -0.5009
  564SOL    HW2 1692   2.768   1.072   0.763  1.5953 -0.3982  1.8127
  565SOL     OW 1693   0.673   0.878   0.002  0.4054 -0.3799 -0.0249
  565SOL    HW1 1694   0.716   0.888   2.991 -0.9059  0.8201 -2.9630
  565SOL    HW2 1695   0.656   0.975   0.037 -1.5828  1.5278 -1.6147
  566SOL     OW 1696   2.334   0.334   2.657  0.0715 -0.3015 -0.3967
  566SOL    HW1 1697   2.242   0.293   2.651 -1.2631  2.2588 -1.7916
  566SOL    HW2 1698   2.367   0.367   2.752  1.7858 -0.2707  2.0968
  567SOL     OW 1699   1.169   0.813   0.947 -0.5309  0.6184 -0.1241
  567SOL    HW1 1700   1.232   0.824   0.868 -0.3520 -1.4890  0.7226
  567SOL    HW2 1701   1.179   0.892   1.008  0.5831 -1.9688 -0.0526
  568SOL     OW 1702   1.751   1.866   2.963 -0.1337  0.0465  0.1511
  568SOL    HW1 1703   1.711   1.791   3.022  2.0832 -0.1230 -0.0052
  568SOL    HW2 1704   1.796   1.828   2.879  1.3178  0.3656 -1.7048
  569SOL     OW 1705   2.124   1.261   0.024 -0.5615 -0.0252 -0.1417
  569SOL    HW1 1706   2.110   1.354   3.068  1.3069  0.7144 -0.0409
  569SOL    HW2 1707   2.195   1.205   3.066 -0.6927 -1.6644 -0.0368
  570SOL     OW 1708   0.220   2.457   1.760 -0.1635  0.3650  0.4141
  570SOL    HW1 1709   0.286   2.526   1.781 -1.6444 -1.5927 -0.6194
  570SOL    HW2 1710   0.141   2.496   1.707  0.6874  0.1318 -0.6809
  571SOL     OW 1711   3.013   1.638   1.737  0.0191  0.1813  0.2342
  571SOL    HW1 1712   3.015   1.738   1.728 -1.2790  1.6663 -0.9830
  571SOL    HW2 1713   0.012   1.607   1.691  1.6545 -0.6284  0.2190
  572SOL     OW 1714   1.684   1.967   0.533 -0.7648 -0.2929  0.4614
  572SOL    HW1 1715   1.705   1.922   0.620  3.4407  1.8491  1.8411
  572SOL    HW2 1716   1.765   2.029   0.518  1.0681 -2.6603  0.0716
  573SOL     OW 1717   1.865   2.147   0.442 -0.0327  0.0519 -0.2124
  573SOL    HW1 1718   1.940   2.185   0.385 -2.4882 -0.9321 -0.2109
  573SOL    HW2 1719   1.784   2.216   0.433 -2.8396  0.9859 -1.9949
  574SOL     OW 1720   0.690   0.181   1.153  0.1716 -0.1561 -0.1356
  574SOL    HW1 1721   0.613   0.253   1.163 -1.2064  3.0801 -1.1982
  574SOL    HW2 1722   0.706   0.160   1.051  1.4121 -2.3791 -1.8690
  575SOL     OW 1723   0.704   1.028   1.872  0.8248 -0.6765 -0.1259
  575SOL    HW1 1724   0.716   1.113   1.823  0.7512  0.1551 -0.0510
  575SOL    HW2 1725   0.789   1.009   1.927 -0.2351  0.8678  1.1469
  576SOL     OW 1726   2.535   3.020   1.333 -0.0249 -0.4168 -0.0596
  576SOL    HW1 1727   2.623   3.067   1.307  0.2557  0.8490  0.2822
  576SOL    HW2 1728   2.502   3.059   1.420  1.1955  0.8788  0.0646
  577SOL     OW 1729   1.125   1.138   2.403 -0.0933  0.2933  0.1214
  577SOL    HW1 1730   1.064   1.059   2.376 -1.5291 -1.0117  2.8799
  577SOL    HW2 1731   1.173   1.125   2.497 -1.6940  0.6172 -0.4182
  578SOL     OW 1732   2.120   1.254   2.500  0.2387  0.4616  0.0339
  578SOL    HW1 1733   2.041   1.205   2.457 -1.9487  0.5903  0.5938
  578SOL    HW2 1734   2.116   1.356   2.494 -0.7436 -0.7386  3.5055
  579SOL     OW 1735   1.595   2.018   1.724 -0.5520 -0.3270  0.4026
  579SOL    HW1 1736   1.571   2.016   1.824 -1.5515 -2.3671  2.3589
  579SOL    HW2 1737   1.633   2.108   1.685  0.9137  0.7405  1.6443
  580SOL     OW 1738   1.337   1.698   0.236  0.1102  0.2032 -0.3589
  580SOL    HW1 1739   1.387   1.607   0.244  0.0001  1.2788  1.7146
  580SOL    HW2 1740   1.301   1.724   0.330  0.2695  0.9637  0.7746
  581SOL     OW 1741   1.264   0.998   2.102 -0.0640  0.3880  0.3698
  581SOL    HW1 1742   1.181   1.053   2.089  2.9405 -1.6184 -1.6201
  581SOL    HW2 1743   1.243   0.925   2.167 -1.0935  1.4971  0.7922
  582SOL     OW 1744   0.755   1.242   1.718  0.3726  0.1316 -0.0474
  582SOL    HW1 1745   0.783   1.336   1.743  2.9168  0.1839 -0.3835
  582SOL    HW2 1746   0.707   1.249   1.632  2.0277 -2.0792  2.0935
  583SOL     OW 1747   1.058   1.214   1.975 -0.2416 -1.0247 -0.4260
  583SOL    HW1 1748   0.997   1.135   1.999 -1.7522  0.3279 -0.7319
  583SOL    HW2 1749   1.005   1.300   1.955  0.0901  1.8563 -1.1820
  584SOL     OW 1750   2.565   2.577   0.659  0.1954  0.4150  0.1396
  584SOL    HW1 1751   2.471   2.546   0.685 -0.5818  1.2084 -1.3737
  584SOL    HW2 1752   2.570   2.677   0.662 -3.0936 -0.3953 -1.0622
  585SOL     OW 1753   2.070   0.221   2.676 -0.0044  0.4642 -0.3422
  585SOL    HW1 1754   2.001   0.244   2.601 -1.8018  0.8711 -4.2837
  585SOL    HW2 1755   2.025   0.200   2.764 -2.1426 -0.7750  4.1056
  586SOL     OW 1756   0.093   2.250   0.599  0.3187  0.5852 -0.6977
  586SOL    HW1 1757   0.035   2.296   0.669 -4.3025 -0.1195 -2.6184
  586SOL    HW2 1758   0.172   2.303   0.558 -1.4507  3.4608 -1.2632
  587SOL     OW 1759   1.647   1.689   0.051  0.1082 -0.2720 -0.5249
  587SOL    HW1 1760   1.614   1.740   0.133  3.0579 -1.7662  0.2862
  587SOL    HW2 1761   1.675   1.593   0.078 -0.9555  1.2770 -1.2078
  588SOL     OW 1762   0.213   0.230   1.205 -0.4678  0.4455 -0.0491
  588SOL    HW1 1763   0.268   0.151   1.248  1.3991 -0.6194 -0.7955
  588SOL    HW2 1764   0.125   0.249   1.254 -0.3375 -2.3719  1.4568
  589SOL     OW 1765   1.311   0.538   0.779 -0.2766  0.7998 -0.2265
  589SOL    HW1 1766   1.370   0.485   0.714  0.7556  2.4264  0.7082
  589SOL    HW2 1767   1.313   0.484   0.869 -0.7047 -0.8676 -0.8580
  590SOL     OW 1768   1.168   1.217   2.867 -0.1259  0.0822  0.2475
  590SOL    HW1 1769   1.252   1.270   2.882  0.7612  0.5834 -0.0921
  590SOL    HW2 1770   1.156   1.161   2.951  0.2786 -0.7798  1.2300
  591SOL     OW 1771   2.490   2.448   2.345 -0.4617 -0.1112 -0.1226
  591SOL    HW1 1772   2.568   2.479   2.403  2.8154 -0.9315  1.8306
  591SOL    HW2 1773   2.413   2.513   2.350 -1.4301  1.0696 -0.7410
  592SOL     OW 1774   1.986   1.891   1.367  0.4185  0.0529 -0.1935
  592SOL    HW1 1775   2.028   1.933   1.449 -0.5752 -1.0608 -1.7397
  592SOL    HW2 1776   2.009   1.797   1.360  0.6563  2.3697 -1.1830
  593SOL     OW 1777   0.989   0.410   1.462  0.8881 -0.8199  0.8336
  593SOL    HW1 1778   0.964   0.352   1.538  1.6602 -1.8339  0.7382
  593SOL    HW2 1779   0.930   0.495   1.456  0.0078 -0.2972 -0.3549
  594SOL     OW 1780   2.522   1.005   2.481 -0.2546  0.2093  0.3474
  594SOL    HW1 1781   2.553   0.945   2.558  1.9557  1.4809  2.9578
  594SOL    HW2 1782   2.563   0.966   2.394  1.1389 -0.8859 -0.3540
  595SOL     OW 1783   0.311   0.022   0.808  0.6461  0.5061  0.2656
  595SOL    HW1 1784   0.273   3.026   0.860 -0.9636 -4.3378  4.0410
  595SOL    HW2 1785   0.389   3.072   0.754 -0.1561  0.9267  0.2863
  596SOL     OW 1786   0.061   1.394   1.152 -0.3848  0.0253  0.6154
  596SOL    HW1 1787   0.107   1.312   1.194  1.5257  0.1317 -2.7302
  596SOL    HW2 1788   0.074   1.383   1.053  0.1771 -0.9832  1.4155
  597SOL     OW 1789   1.630   1.640   0.474  0.1166  0.1763 -0.0356
  597SOL    HW1 1790   1.626   1.701   0.557 -0.5616  1.9931  0.7703
  597SOL    HW2 1791   1.712   1.657   0.417 -1.1207 -0.2438 -0.4264
  598SOL     OW 1792   0.094   2.860   1.710  0.6807 -0.1112  0.1292
  598SOL    HW1 1793   0.173   2.843   1.648 -1.7465 -1.1814 -0.4086
  598SOL    HW2 1794   0.098   2.954   1.752  0.0687  0.8190 -0.5803
  599SOL     OW 1795   2.463   1.258   2.779 -0.3909  0.2994 -0.1989
  599SOL    HW1 1796   2.366   1.229   2.790 -1.6707 -0.5880 -2.3847
  599SOL    HW2 1797   2.477   1.358   2.770 -1.5686  0.9734 -1.0102
  600SOL     OW 1798   0.636   1.102   0.110 -0.2191 -0.0195  0.4338
  600SOL    HW1 1799   0.730   1.141   0.090  0.4974 -0.1031 -2.8120
  600SOL    HW2 1800   0.595   1.151   0.187 -2.5669 -0.6697 -1.1825
  601SOL     OW 1801   0.518   0.818   0.920  0.1840 -0.7821 -0.0761
  601SOL    HW1 1802   0.534   0.725   0.888 -0.6607  0.4300  0.2935
  601SOL    HW2 1803   0.451   0.835   0.999  0.3891 -0.4131  0.1057
  602SOL     OW 1804   1.491   2.518   0.375 -0.4007  0.0159  0.1273
  602SOL    HW1 1805   1.420   2.444   0.362  1.1428 -0.3880  0.5103
  602SOL    HW2 1806   1.582   2.478   0.352  1.7538 -1.9537 -0.9575
  603SOL     OW 1807   0.721   2.612   2.048  0.4542  0.5916 -1.0293
  603SOL    HW1 1808   0.662   2.695   2.044 -0.9648 -0.3270 -0.0753
  603SOL    HW2 1809   0.668   2.525   2.043  1.5194  0.0225  0.9676
  604SOL     OW 1810   0.350   0.343   2.387 -0.0758 -0.3803 -0.0201
  604SOL    HW1 1811   0.270   0.280   2.386  0.4023  0.9797  0.6652
  604SOL    HW2 1812   0.354   0.413   2.310 -0.5154  2.7203 -1.2502
  605SOL     OW 1813   3.001   1.137   1.384 -0.6105 -0.3366 -1.1535
  605SOL    HW1 1814   0.014   1.167   1.361 -0.6381 -0.2197  2.0926
  605SOL    HW2 1815   2.958   1.215   1.442  0.9052  1.1181 -1.6197
  606SOL     OW 1816   0.885   1.646   2.606  0.3707 -0.2676  0.0838
  606SOL    HW1 1817   0.800   1.673   2.652 -0.1003  1.4588 -0.6912
  606SOL    HW2 1818   0.874   1.573   2.536  0.0671 -0.1947  0.3249
  607SOL     OW 1819   0.367   3.075   0.387  0.0521  0.1330  0.1656
  607SOL    HW1 1820   0.426   3.081   0.469  1.9343 -1.1660  3.0311
  607SOL    HW2 1821   0.308   0.077   0.391 -2.6346 -0.1855  0.0923
  608SOL     OW 1822   2.151   1.734   2.267  0.6148 -0.0232  0.4502
  608SOL    HW1 1823   2.053   1.740   2.253  1.6736 -1.5160 -0.9514
  608SOL    HW2 1824   2.178   1.716   2.364  1.4138 -1.5172  1.2997
  609SOL     OW 1825   2.588   0.278   1.224  0.3739 -1.0067  0.1624
  609SOL    HW1 1826   2.552   0.303   1.130  0.9253 -0.0658  0.0617
  609SOL    HW2 1827   2.507   0.272   1.285  0.9493 -0.5520  1.5589
  610SOL     OW 1828   0.439   2.709   0.562  0.0338  0.9676 -0.5014
  610SOL    HW1 1829   0.500   2.730   0.483  0.8608  0.7587  0.2129
  610SOL    HW2 1830   0.474   2.626   0.606 -0.1465  1.1035 -0.4710
  611SOL     OW 1831   1.576   1.029   0.150  0.4363  0.7036 -0.2844
  611SOL    HW1 1832   1.617   1.023   0.244  2.5845 -0.9788  1.3934
  611SOL    HW2 1833   1.517   1.113   0.143 -1.6350  2.0544 -0.1413
  612SOL     OW 1834   0.736   2.262   1.844  0.0036  0.1921  0.3184
  612SOL    HW1 1835   0.701   2.320   1.922 -1.2981 -1.9745  2.4272
  612SOL    HW2 1836   0.808   2.302   1.784  1.0929 -0.0897  0.8289
  613SOL     OW 1837   0.543   2.450   0.619 -0.4094 -0.1781  0.0306
  613SOL    HW1 1838   0.586   2.489   0.704  1.8964 -0.4188  1.4040
  613SOL    HW2 1839   0.599   2.392   0.562 -5.3470  1.5207 -0.0244
  614SOL     OW 1840   2.181   2.725   1.347 -0.2475 -0.1099 -0.2809
  614SOL    HW1 1841   2.269   2.707   1.393 -0.4158  1.1343 -0.7177
  614SOL    HW2 1842   2.119   2.779   1.407 -1.3107  0.2118  2.4785
  615SOL     OW 1843   1.663   1.054   0.395  0.4302  0.4257  0.1021
  615SOL    HW1 1844   1.586   1.078   0.456 -1.9258  0.9176 -2.0553
  615SOL    HW2 1845   1.731   1.132   0.386  3.6854  0.8640 -2.0211
  616SOL     OW 1846   1.978   0.613   0.238 -0.6932 -0.3773  0.1271
  616SOL    HW1 1847   1.997   0.708   0.206  2.7131 -0.6021 -0.1130
  616SOL    HW2 1848   1.887   0.584   0.204  2.0621 -2.9045  2.5290
  617SOL     OW 1849   1.017   0.716   2.838 -0.0792 -0.6343 -0.2685
  617SOL    HW1 1850   1.076   0.797   2.816  1.7247  0.1939  2.1572
  617SOL    HW2 1851   1.048   0.685   2.930  0.3691 -0.1841 -0.3074
  618SOL     OW 1852   0.492   2.780   2.114  0.1204 -0.2716  0.1856
  618SOL    HW1 1853   0.448   2.827   2.041  1.0562  0.0752  1.0809
  618SOL    HW2 1854   0.434   2.700   2.139 -1.7873  1.6179  0.6556
  619SOL     OW 1855   3.026   1.499   1.359  0.2230  0.2982  0.7276
  619SOL    HW1 1856   3.060   1.449   1.272  4.2702 -1.2788 -0.5618
  619SOL    HW2 1857   2.947   1.445   1.391  1.1479  0.4393  0.4499
  620SOL     OW 1858   0.171   0.914   0.033 -0.7068 -0.5708 -0.7020
  620SOL    HW1 1859   0.188   0.824   3.075  1.5304  0.5686  2.1996
  620SOL    HW2 1860   0.103   0.917   0.112 -0.1107 -0.4460 -2.5717
  621SOL     OW 1861   2.228   2.267   2.025 -0.0968  0.0197  0.0066
  621SOL    HW1 1862   2.311   2.223   2.066  1.5091  2.1580  1.2178
  621SOL    HW2 1863   2.163   2.292   2.097  0.3278 -1.4968 -0.2706
  622SOL     OW 1864   0.924   0.377   2.115 -1.0218 -0.0351 -0.0195
  622SOL    HW1 1865   0.911   0.330   2.203  0.1178  3.4066  0.6906
  622SOL    HW2 1866   0.955   0.474   2.138  1.3034  0.7589  1.1253
  623SOL     OW 1867   1.151   0.815   2.540 -0.3603  0.1346 -0.1833
  623SOL    HW1 1868   1.132   0.712   2.542 -2.2796 -0.6356 -0.3996
  623SOL    HW2 1869   1.250   0.825   2.566 -0.2812  1.0653 -1.1859
  624SOL     OW 1870   2.606   0.832   0.348  0.1981  0.1165 -0.5879
  624SOL    HW1 1871   2.579   0.917   0.303 -1.8960  1.5524  1.0297
  624SOL    HW2 1872   2.555   0.834   0.437  0.3390  2.0888  1.1482
  625SOL     OW 1873   1.045   1.332   0.798  0.4133 -0.0545  0.1884
  625SOL    HW1 1874   1.054   1.384   0.884  2.1089 -3.7563  0.2711
  625SOL    HW2 1875   1.043   1.234   0.826  1.1210 -0.3970 -0.1678
  626SOL     OW 1876   1.818   0.962   2.813  0.3199 -0.0697 -0.3152
  626SOL    HW1 1877   1.834   0.902   2.730 -1.2954  2.3778  0.2679
  626SOL    HW2 1878   1.894   1.028   2.824 -0.8059 -1.0767  0.3532
  627SOL     OW 1879   0.998   2.852   2.812 -0.1446 -0.0571  0.0846
  627SOL    HW1 1880   0.990   2.906   2.723 -0.9874 -2.2865 -0.8258
  627SOL    HW2 1881   0.918   2.887   2.869 -3.4913  2.0975 -1.5077
  628SOL     OW 1882   2.200   0.312   2.286  0.2081 -0.3340 -0.3718
  628SOL    HW1 1883   2.277   0.277   2.341  1.1257  2.7999 -1.2665
  628SOL    HW2 1884   2.108   0.290   2.327 -1.4096 -3.5791  0.7215
  629SOL     OW 1885   0.876   0.470   3.042  0.1383 -0.3085  0.3009
  629SOL    HW1 1886   0.796   0.485   2.979 -3.6515 -0.3896 -1.1053
  629SOL    HW2 1887   0.947   0.539   3.040 -0.5468 -3.3678  2.1742
  630SOL     OW 1888   0.933   0.355   2.560 -0.1310 -0.1246 -0.5972
  630SOL    HW1 1889   1.020   0.329   2.603  2.0736  0.5440  0.4623
  630SOL    HW2 1890   0.878   0.420   2.624  1.1500 -0.2641  1.7060
  631SOL     OW 1891   2.440   1.251   0.595  0.2411  0.2272 -0.0128
  631SOL    HW1 1892   2.355   1.228   0.643  1.0942 -0.9866 -0.4121
  631SOL    HW2 1893   2.452   1.353   0.591  0.5826 -0.4697 -0.5634
  632SOL     OW 1894   1.838   0.704   1.345  0.1071 -0.0280 -0.5178
  632SOL    HW1 1895   1.932   0.733   1.332 -1.1932 -0.7569 -1.9110
  632SOL    HW2 1896   1.828   0.608   1.328 -2.5299  0.8529  0.5332
  633SOL     OW 1897   1.079   1.546   0.300  0.1013  0.3098 -0.6680
  633SOL    HW1 1898   0.998   1.583   0.250  0.7073 -1.4522 -1.8733
  633SOL    HW2 1899   1.131   1.605   0.371 -1.2789  0.1987  1.8437
  634SOL     OW 1900   2.326   0.075   1.547  0.3495 -0.0537 -0.1876
  634SOL    HW1 1901   2.223   0.079   1.553  0.5381 -0.3559 -2.3234
  634SOL    HW2 1902   2.362   0.058   1.641 -1.4231 -3.4727 -0.2863
  635SOL     OW 1903   1.657   0.532   0.802  0.1153 -0.5716  0.0869
  635SOL    HW1 1904   1.615   0.590   0.878 -0.0531 -0.7375  1.6868
  635SOL    HW2 1905   1.595   0.448   0.793 -1.7586 -0.3420 -1.6594
  636SOL     OW 1906   0.807   1.253   0.452  0.7375  0.0024  0.0948
  636SOL    HW1 1907   0.718   1.228   0.506 -0.8559 -0.9016  1.2761
  636SOL    HW2 1908   0.862   1.317   0.499 -2.5448 -1.3569 -1.6521
  637SOL     OW 1909   2.760   2.159   2.837  1.1312  0.2054  0.0084
  637SOL    HW1 1910   2.738   2.137   2.933  0.5514  0.7881 -0.3175
  637SOL    HW2 1911   2.678   2.182   2.781 -0.3861  1.5695  1.1779
  638SOL     OW 1912   1.362   2.644   2.766  0.2919 -0.3041  0.4038
  638SOL    HW1 1913   1.362   2.691   2.677  0.8861 -1.0447 -1.1741
  638SOL    HW2 1914   1.434   2.567   2.762  0.5860 -0.3867 -0.3903
  639SOL     OW 1915   1.432   1.654   1.326  0.0331  0.4157  0.2097
  639SOL    HW1 1916   1.365   1.696   1.260  0.9468 -0.0838 -0.1466
  639SOL    HW2 1917   1.473   1.726   1.387  1.4370 -1.8858 -2.2285
  640SOL     OW 1918   2.416   2.874   0.289  0.3122  0.4157  0.0935
  640SOL    HW1 1919   2.346   2.801   0.299  1.3272  1.2878 -0.4019
  640SOL    HW2 1920   2.497   2.831   0.242 -0.7318 -1.3563  1.0263
  641SOL     OW 1921   2.971   3.036   2.999 -0.3206 -0.4485 -0.0972
  641SOL    HW1 1922   3.038   0.010   3.051  1.4289 -2.6526  1.6674
  641SOL    HW2 1923   2.947   2.951   3.046  0.6135  0.9662  0.0146
  642SOL     OW 1924   2.845   0.647   1.387 -0.2532 -0.2501  0.0761
  642SOL    HW1 1925   2.799   0.649   1.294  1.9301 -0.1194 -0.1454
  642SOL    HW2 1926   2.803   0.702   1.464 -2.3593 -2.4188  0.5966
  643SOL     OW 1927   1.104   1.831   2.087 -0.1668  0.1618 -0.2268
  643SOL    HW1 1928   1.045   1.846   2.008 -0.2880  1.3628  0.1588
  643SOL    HW2 1929   1.164   1.917   2.102 -0.9061  5.6428  0.3049
  644SOL     OW 1930   1.718   2.364   0.610 -0.4411 -0.1320 -0.4610
  644SOL    HW1 1931   1.735   2.311   0.698 -4.7632  1.5528  0.2336
  644SOL    HW2 1932   1.795   2.434   0.596  4.3712  4.0893  0.0044
  645SOL     OW 1933   1.825   1.931   0.959  0.4950 -0.3053 -0.7037
  645SOL    HW1 1934   1.862   1.886   0.877 -1.0421  2.5630  0.3018
  645SOL    HW2 1935   1.739   1.878   0.991 -1.9131 -0.6372 -0.0564
  646SOL     OW 1936   1.026   2.469   0.028 -0.0699  0.9113  0.3425
  646SOL    HW1 1937   1.061   2.527   3.036 -0.0837  1.6357 -1.5107
  646SOL    HW2 1938   1.073   2.380   0.041  1.7206 -0.3123 -1.2360
  647SOL     OW 1939   0.398   2.661   1.813 -0.1874 -0.2317  0.0109
  647SOL    HW1 1940   0.348   2.748   1.812 -0.8896 -0.7170 -0.6255
  647SOL    HW2 1941   0.440   2.644   1.723  0.8986  0.3719 -0.9229
  648SOL     OW 1942   1.515   0.633   1.012 -0.6176  0.1149 -0.1564
  648SOL    HW1 1943   1.484   0.548   1.056  1.6419  1.4521 -2.2409
  648SOL    HW2 1944   1.498   0.716   1.069 -2.1886  3.1157  1.2606
  649SOL     OW 1945   1.606   2.100   0.160  0.0338  0.2970 -0.5214
  649SOL    HW1 1946   1.630   2.177   0.222  0.3841  0.3699 -2.1181
  649SOL    HW2 1947   1.636   2.119   0.062  0.4740 -0.3785 -0.1420
  650SOL     OW 1948   2.089   1.684   1.947  0.6614  0.2512  0.4312
  650SOL    HW1 1949   2.105   1.639   2.037  1.8545 -3.6453  0.7275
  650SOL    HW2 1950   2.029   1.623   1.888 -0.0701 -0.0022 -0.7584
  651SOL     OW 1951   1.610   2.512   0.036  0.2477 -0.2060  0.3886
  651SOL    HW1 1952   1.565   2.603   0.040  1.6672 -1.3997  1.3936
  651SOL    HW2 1953   1.621   2.475   3.027  0.3663  2.0598  4.1989
  652SOL     OW 1954   0.507   2.188   0.259 -0.1071  0.1740 -0.2864
  652SOL    HW1 1955   0.457   2.138   0.332  0.8656  2.6653  1.8165
  652SOL    HW2 1956   0.449   2.262   0.223  1.5396  2.6069  0.2138
  653SOL     OW 1957   2.480   2.240   1.334  0.2735 -0.0418 -0.2081
  653SOL    HW1 1958   2.455   2.250   1.237  3.3221 -3.5369 -1.2460
  653SOL    HW2 1959   2.392   2.225   1.385 -1.4867  1.2455  0.0501
  654SOL     OW 1960   2.670   2.610   1.245 -0.6244 -0.1205  0.1378
  654SOL    HW1 1961   2.613   2.586   1.330  0.0525 -0.4552  1.8321
  654SOL    HW2 1962   2.644   2.564   1.160  3.2237  3.3356 -0.4686
  655SOL     OW 1963   0.033   2.297   1.255  0.2931 -0.6669  0.6703
  655SOL    HW1 1964   0.096   2.229   1.296  1.2047  1.8463 -1.3223
  655SOL    HW2 1965   0.018   2.270   1.157  0.5712 -1.6935 -1.1118
  656SOL     OW 1966   2.888   2.761   2.377  0.1030 -0.4201  0.5852
  656SOL    HW1 1967   2.987   2.755   2.345  1.3241  0.2401 -0.2703
  656SOL    HW2 1968   2.891   2.754   2.482  1.5163  1.2185  1.3611
  657SOL     OW 1969   3.055   0.899   0.230  0.0924 -0.2065  0.5675
  657SOL    HW1 1970   2.963   0.929   0.192 -1.0603 -1.8179  2.3576
  657SOL    HW2 1971   3.055   0.873   0.327 -0.0036  3.1212 -0.7609
  658SOL     OW 1972   1.702   1.780   0.722  0.0449  0.2595 -0.1955
  658SOL    HW1 1973   1.799   1.750   0.735  0.7498  0.0463 -1.2252
  658SOL    HW2 1974   1.645   1.764   0.808  1.0297 -0.4139  0.9756
  659SOL     OW 1975   1.488   0.438   1.241  0.5568 -0.4970 -0.3992
  659SOL    HW1 1976   1.436   0.527   1.268  0.2939  6.0267  1.5100
  659SOL    HW2 1977   1.478   0.366   1.308  0.2986  2.0231 -0.2485
  660SOL     OW 1978   1.751   1.439   0.055 -0.2099  0.3460  0.1419
  660SOL    HW1 1979   1.790   1.397   0.140 -1.7501  2.7203  0.1744
  660SOL    HW2 1980   1.701   1.374   3.078  0.1201  1.5795  0.2887
  661SOL     OW 1981   0.097   2.217   0.113  0.5459  0.0849  0.8845
  661SOL    HW1 1982   0.185   2.247   0.079 -2.3982  1.6072  3.5880
  661SOL    HW2 1983   0.057   2.291   0.169  2.5345 -0.8372  1.4730
  662SOL     OW 1984   0.170   0.739   2.023  0.1146  0.3410 -0.0260
  662SOL    HW1 1985   0.099   0.766   2.093  0.1115  1.0747  1.0360
  662SOL    HW2 1986   0.151   0.779   1.927 -0.8603 -2.7068 -3.5285
  663SOL     OW 1987   1.725   1.381   0.784 -0.2972  0.2921 -0.4900
  663SOL    HW1 1988   1.775   1.290   0.778 -3.2212  1.0540  1.0950
  663SOL    HW2 1989   1.753   1.436   0.866  0.1375 -0.5476  3.2888
  664SOL     OW 1990   0.786   0.569   1.175  0.6729  0.5717 -0.4810
  664SOL    HW1 1991   0.812   0.659   1.137  0.0854  0.3032 -1.3356
  664SOL    HW2 1992   0.757   0.502   1.099 -1.1380 -0.7151 -0.4362
  665SOL     OW 1993   0.938   2.974   0.148  0.0311 -0.2762 -0.0691
  665SOL    HW1 1994   1.006   2.967   0.224  2.7383  1.1191  3.9080
  665SOL    HW2 1995   0.977   3.001   0.061  1.8005  1.2503 -2.2957
  666SOL     OW 1996   2.969   0.217   2.581 -0.0247 -0.6097  0.0699
  666SOL    HW1 1997   3.068   0.220   2.603  0.8033 -0.7262 -0.0280
  666SOL    HW2 1998   2.926   0.297   2.621  3.1392 -1.8401 -0.2090
  667SOL     OW 1999   2.372   1.873   2.176  0.5403 -0.6027  0.5245
  667SOL    HW1 2000   2.375   1.975   2.164  0.4799 -1.1923 -0.0753
  667SOL    HW2 2001   2.287   1.840   2.218 -0.0876 -3.5962 -1.9179
  668SOL     OW 2002   0.562   1.463   2.501  0.3373 -0.2384 -0.3375
  668SOL    HW1 2003   0.604   1.412   2.580 -1.1081 -3.7284 -0.4192
  668SOL    HW2 2004   0.545   1.400   2.424 -0.8986  0.6344 -1.4539
  669SOL     OW 2005   2.299   2.670   2.584  0.3116 -0.2115 -0.3288
  669SOL    HW1 2006   2.260   2.646   2.492  1.0514  1.4562  1.8590
  669SOL    HW2 2007   2.281   2.594   2.649 -1.6461  3.2375 -2.3275
  670SOL     OW 2008   2.269   1.054   2.437  0.5433 -0.4585  0.3518
  670SOL    HW1 2009   2.366   1.048   2.462 -0.3506  1.8217  1.0750
  670SOL    HW2 2010   2.219   1.134   2.481 -1.9567  1.9656  0.1033
  671SOL     OW 2011   2.540   1.344   0.016 -0.4539 -0.0602  0.3325
  671SOL    HW1 2012   2.487   1.262   3.079  1.3326  0.0728  4.2455
  671SOL    HW2 2013   2.641   1.339   0.030 -0.0875 -0.8222  1.5078
  672SOL     OW 2014   2.620   1.264   2.481  0.1669 -0.0991  0.1878
  672SOL    HW1 2015   2.662   1.285   2.569 -2.3260  0.5069 -0.6975
  672SOL    HW2 2016   2.592   1.166   2.476  0.0115  0.9995  2.3319
  673SOL     OW 2017   2.597   0.911   1.437 -0.3231 -0.3182 -0.3856
  673SOL    HW1 2018   2.622   0.961   1.356  1.3680 -1.4616  0.8589
  673SOL    HW2 2019   2.677   0.899   1.498  2.4683  3.0546 -4.3253
  674SOL     OW 2020   1.962   1.899   1.920 -0.0973  0.0928  0.2462
  674SOL    HW1 2021   2.004   1.804   1.939 -0.2161 -0.7941  1.5103
  674SOL    HW2 2022   1.900   1.892   1.839  0.0072  0.8122 -0.1552
  675SOL     OW 2023   0.235   0.606   0.816 -0.3254 -0.5897  0.5911
  675SOL    HW1 2024   0.227   0.699   0.768  1.6657  0.8136 -1.8900
  675SOL    HW2 2025   0.338   0.584   0.822 -0.7019 -2.4986  0.2228
  676SOL     OW 2026   2.016   1.150   1.006  0.0022 -0.4784 -0.5554
  676SOL    HW1 2027   2.101   1.209   1.018  2.7233  3.3443 -1.6080
  676SOL    HW2 2028   2.045   1.052   1.005  0.5043 -1.4621  1.6149
  677SOL     OW 2029   2.104   1.447   2.210 -0.0392  0.0501  0.4613
  677SOL    HW1 2030   2.015   1.473   2.246  1.8062 -1.3609 -2.3897
  677SOL    HW2 2031   2.178   1.510   2.242  1.7612  2.0470  0.2058
  678SOL     OW 2032   3.044   1.843   0.766 -0.7423  0.2191  0.0464
  678SOL    HW1 2033   3.049   1.874   0.864 -0.2404  0.0419  0.8725
  678SOL    HW2 2034   2.956   1.801   0.740 -2.7510  0.6766  0.2915
  679SOL     OW 2035   2.860   2.769   0.302  0.1945 -0.6962 -0.1129
  679SOL    HW1 2036   2.867   2.868   0.323 -1.5021  0.2800 -0.3334
  679SOL    HW2 2037   2.805   2.721   0.370  0.8178 -0.2141 -1.7926
  680SOL     OW 2038   2.993   2.507   1.359  0.0526 -0.2476 -0.0238
  680SOL    HW1 2039   3.052   2.443   1.310 -3.6344  2.2826  0.6459
  680SOL    HW2 2040   2.896   2.481   1.357  1.0839  4.1757 -0.8013
  681SOL     OW 2041   0.509   1.086   1.232  0.1701 -0.4057  0.2714
  681SOL    HW1 2042   0.555   1.179   1.247 -0.4018  3.1336 -1.7181
  681SOL    HW2 2043   0.492   1.042   1.320 -0.9513 -0.6332 -3.7460
  682SOL     OW 2044   1.740   2.583   1.031 -0.4055  0.4912  0.0757
  682SOL    HW1 2045   1.833   2.589   0.992  0.8259 -0.9191  2.3446
  682SOL    HW2 2046   1.734   2.645   1.112  2.8627  1.0804  0.0509
  683SOL     OW 2047   2.275   1.264   0.984  0.1636 -0.1025  0.0227
  683SOL    HW1 2048   2.349   1.335   0.964  1.9947 -0.0288  1.3175
  683SOL    HW2 2049   2.307   1.182   1.036 -1.4299 -1.1298 -0.4724
  684SOL     OW 2050   0.750   2.031   2.011 -0.8331 -0.2995  0.8227
  684SOL    HW1 2051   0.738   2.104   1.941  1.9224  1.0898 -2.1312
  684SOL    HW2 2052   0.750   2.068   2.108  1.2474  3.8087 -0.2947
  685SOL     OW 2053   2.330   1.671   0.283 -0.1876 -0.4055 -0.3812
  685SOL    HW1 2054   2.365   1.579   0.275  1.6692 -1.0825 -3.1023
  685SOL    HW2 2055   2.231   1.672   0.256 -1.9886  2.7066  0.9638
  686SOL     OW 2056   3.004   0.579   0.290  0.9416 -0.1893 -0.6388
  686SOL    HW1 2057   2.987   0.603   0.193  2.5985 -0.3755  0.9973
  686SOL    HW2 2058   2.938   0.632   0.353 -1.4644  1.2066  1.6648
  687SOL     OW 2059   1.062   2.920   0.389 -0.0889  0.5446  0.5076
  687SOL    HW1 2060   1.086   2.927   0.488  2.3428 -1.7882 -1.2370
  687SOL    HW2 2061   1.123   2.853   0.341  0.1134 -1.7265  1.1071
  688SOL     OW 2062   1.874   1.802   2.345 -0.3688 -0.2733 -0.0536
  688SOL    HW1 2063   1.786   1.808   2.391 -1.6589  0.1277  0.5214
  688SOL    HW2 2064   1.901   1.894   2.298 -2.7854  3.6424 -0.8929
  689SOL     OW 2065   2.630   0.999   2.040  0.2004 -0.0796  0.6468
  689SOL    HW1 2066   2.543   1.044   2.010  0.5879  2.8167  0.5937
  689SOL    HW2 2067   2.668   1.060   2.110 -2.2108 -2.5888 -1.3328
  690SOL     OW 2068   1.693   0.881   0.869 -0.1330  0.0657 -0.1011
  690SOL    HW1 2069   1.596   0.864   0.854  2.7893  1.3609  0.0172
  690SOL    HW2 2070   1.739   0.869   0.781 -0.7552  0.1379 -0.3125
  691SOL     OW 2071   0.947   1.473   1.406  0.3193  0.1250 -0.4189
  691SOL    HW1 2072   1.037   1.424   1.418 -1.0717  0.5565  0.3247
  691SOL    HW2 2073   0.914   1.478   1.310  1.5738 -0.5621 -0.1374
  692SOL     OW 2074   1.556   0.254   2.109 -0.1469 -0.1046 -0.5928
  692SOL    HW1 2075   1.557   0.339   2.169  0.2810  1.8253 -0.1188
  692SOL    HW2 2076   1.631   0.248   2.041  1.8962 -2.4775  1.7731
  693SOL     OW 2077   0.445   1.014   2.935  0.3016 -0.2396 -0.1670
  693SOL    HW1 2078   0.460   1.034   3.034  0.7180 -0.7234 -2.3871
  693SOL    HW2 2079   0.497   0.931   2.908 -1.4090  0.3610  1.7426
  694SOL     OW 2080   2.298   2.554   0.727  0.2148  0.0857  0.0636
  694SOL    HW1 2081   2.264   2.649   0.739  1.0938  0.1000  2.1810
  694SOL    HW2 2082   2.241   2.499   0.663 -1.7354 -2.0507  2.6951
  695SOL     OW 2083   1.593   1.110   2.789 -0.3625 -0.5497  0.0003
  695SOL    HW1 2084   1.589   1.180   2.867 -0.6081 -0.0472 -2.1712
  695SOL    HW2 2085   1.678   1.055   2.797  0.3125  0.7373 -1.0786
  696SOL     OW 2086   1.432   0.227   1.398  0.3454 -0.1726 -0.2089
  696SOL    HW1 2087   1.338   0.187   1.377 -0.2594 -1.8390 -0.3236
  696SOL    HW2 2088   1.465   0.188   1.485 -0.9178  3.2492 -1.0458
  697SOL     OW 2089   1.291   0.365   2.013  0.6938  0.9563 -0.2541
  697SOL    HW1 2090   1.258   0.459   2.032  0.7356  0.3325 -0.4988
  697SOL    HW2 2091   1.385   0.349   2.051  1.2789  1.5799  2.0917
  698SOL     OW 2092   1.900   1.130   2.393  0.6807 -0.2491 -0.0702
  698SOL    HW1 2093   1.799   1.147   2.394  2.1063 -0.8860  2.1177
  698SOL    HW2 2094   1.928   1.077   2.308 -0.3599 -2.5137 -2.1891
  699SOL     OW 2095   1.508   1.229   1.218 -0.1014  0.4271  0.6612
  699SOL    HW1 2096   1.536   1.150   1.279  0.1367 -0.9405  1.4373
  699SOL    HW2 2097   1.480   1.200   1.126 -0.2772  0.7715  0.0442
  700SOL     OW 2098   1.698   0.024   0.078  0.0212  0.0567  0.2203
  700SOL    HW1 2099   1.722   3.020   0.128  0.9388 -2.0036 -1.5301
  700SOL    HW2 2100   1.607   0.016   0.039  1.7070 -0.5333  2.2675
  701SOL     OW 2101   0.562   0.016   1.517 -0.4073 -0.0322  0.0691
  701SOL    HW1 2102   0.611   3.020   1.483 -1.1394  2.1542  3.2911
  701SOL    HW2 2103   0.520   3.081   1.611 -0.9464  0.1175  2.3398
  702SOL     OW 2104   1.448   2.668   1.164  0.5537  0.9702 -0.2064
  702SOL    HW1 2105   1.504   2.643   1.247 -1.6483  0.8983  0.7695
  702SOL    HW2 2106   1.493   2.738   1.105  1.7421 -0.7567  0.9987
  703SOL     OW 2107   2.452   0.097   2.096 -0.1782 -0.3239 -0.3521
  703SOL    HW1 2108   2.400   0.176   2.065 -0.6252 -1.8308 -1.9499
  703SOL    HW2 2109   2.532   0.074   2.038 -1.3181 -1.2061  1.3085
  704SOL     OW 2110   1.245   1.773   1.158  0.1671 -0.7600  0.0547
  704SOL    HW1 2111   1.229   1.731   1.066 -1.9601  0.2649 -2.7497
  704SOL    HW2 2112   1.165   1.827   1.198 -1.3986  1.4302 -1.5077
  705SOL     OW 2113   2.750   1.568   2.138  0.4764 -0.1321  0.5027
  705SOL    HW1 2114   2.704   1.648   2.183 -1.3267 -0.4509 -2.2214
  705SOL    HW2 2115   2.751   1.490   2.205 -1.7508 -1.5702  2.6430
  706SOL     OW 2116   1.540   2.989   0.755  0.3257 -0.2466  0.3251
  706SOL    HW1 2117   1.513   2.922   0.826 -3.1176 -1.1688  1.6308
  706SOL    HW2 2118   1.502   2.975   0.663  1.3806 -2.4686  0.0525
  707SOL     OW 2119   1.108   2.538   2.526  0.4752  0.1731 -0.0491
  707SOL    HW1 2120   1.032   2.502   2.466 -0.0455  0.9907  0.3516
  707SOL    HW2 2121   1.133   2.472   2.602 -2.6479  0.1596  1.3418
  708SOL     OW 2122   0.286   2.524   1.390  0.4220 -0.5226 -0.0978
  708SOL    HW1 2123   0.213   2.474   1.447  0.5687 -0.0451  1.8037
  708SOL    HW2 2124   0.349   2.465   1.334 -1.4107  1.6313  3.1835
  709SOL     OW 2125   2.030   0.770   2.041  0.3810  0.3714 -0.5125
  709SOL    HW1 2126   2.114   0.747   1.987 -0.3172  0.5235 -2.0148
  709SOL    HW2 2127   1.987   0.685   2.077 -1.1398  0.6478 -1.1376
  710SOL     OW 2128   2.953   0.425   1.612 -0.2085 -0.2886  0.6860
  710SOL    HW1 2129   2.942   0.484   1.531  1.7525  0.9716  0.7375
  710SOL    HW2 2130   3.027   0.359   1.599 -1.8332  4.9369  0.5007
  711SOL     OW 2131   3.060   2.426   0.273  0.3568  0.0632  0.6165
  711SOL    HW1 2132   3.031   2.456   0.366  1.4528  1.4834  1.4598
  711SOL    HW2 2133   0.036   2.498   0.231 -1.4695 -0.4119  1.4988
  712SOL     OW 2134   0.188   2.420   2.600 -0.6632  0.5143  0.0279
  712SOL    HW1 2135   0.280   2.468   2.592  1.1036 -1.9092 -0.7285
  712SOL    HW2 2136   0.117   2.481   2.648  2.3941 -1.5956  0.6786
  713SOL     OW 2137   1.944   0.871   0.107 -0.1739 -0.2386 -0.2179
  713SOL    HW1 2138   1.889   0.958   0.111 -0.5029  0.8762 -1.8176
  713SOL    HW2 2139   1.920   0.817   0.023 -2.4684  2.4086  0.3712
  714SOL     OW 2140   1.472   2.128   0.468 -0.2519  0.6004 -0.0569
  714SOL    HW1 2141   1.544   2.058   0.487  0.1467 -2.5111 -1.0670
  714SOL    HW2 2142   1.466   2.196   0.544  1.3544 -2.5667  0.7691
  715SOL     OW 2143   0.130   0.070   0.628 -0.4809 -0.3821  0.1019
  715SOL    HW1 2144   0.161   0.140   0.561  0.4028 -2.4682 -0.2734
  715SOL    HW2 2145   0.188   0.063   0.713  1.3699 -1.3058  0.8922
  716SOL     OW 2146   0.707   0.066   2.293  0.3289 -0.0753 -0.1308
  716SOL    HW1 2147   0.671   0.143   2.359 -3.2597  0.8858  3.7315
  716SOL    HW2 2148   0.669   3.057   2.316  1.0598 -0.0683 -0.6692
  717SOL     OW 2149   0.200   0.385   0.000 -0.6599  0.2879 -0.3723
  717SOL    HW1 2150   0.273   0.333   3.034  1.0197  0.7005  2.7758
  717SOL    HW2 2151   0.104   0.350   3.066 -3.4131 -0.2030 -1.9430
  718SOL     OW 2152   1.067   0.459   0.452  0.0308 -0.0159 -0.4145
  718SOL    HW1 2153   1.109   0.537   0.506  1.0360  2.1974  1.8823
  718SOL    HW2 2154   1.137   0.386   0.440  0.5945  0.6548 -1.1030
  719SOL     OW 2155   2.557   2.276   2.684  0.1079  0.5738 -0.7688
  719SOL    HW1 2156   2.540   2.368   2.725  0.2005 -2.4225 -2.0924
  719SOL    HW2 2157   2.500   2.254   2.598 -2.8270  1.4236 -0.5294
  720SOL     OW 2158   1.678   0.535   2.038  0.6471  0.2765  0.1908
  720SOL    HW1 2159   1.624   0.528   2.126  2.5014  2.0283 -2.6154
  720SOL    HW2 2160   1.617   0.566   1.963 -0.9526 -1.2137  2.5338
  721SOL     OW 2161   2.688   0.170   0.945 -0.4950  0.2985 -0.3387
  721SOL    HW1 2162   2.583   0.172   0.950 -0.4971  0.4139  0.4786
  721SOL    HW2 2163   2.721   0.188   0.849 -1.0112  0.8492  0.6226
  722SOL     OW 2164   1.305   2.163   2.524 -0.2279 -0.0443  0.0684
  722SOL    HW1 2165   1.394   2.191   2.495 -1.5976 -3.0563 -0.1635
  722SOL    HW2 2166   1.316   2.103   2.607 -3.1776 -1.0074  0.4818
  723SOL     OW 2167   0.958   0.320   0.784 -0.7143 -0.3931  0.3364
  723SOL    HW1 2168   0.917   0.401   0.739  1.3816 -2.1283 -1.6734
  723SOL    HW2 2169   0.999   0.329   0.879  0.1645  1.1791  1.2404
  724SOL     OW 2170   0.851   1.989   2.350 -0.5704 -0.0941  0.0171
  724SOL    HW1 2171   0.812   2.000   2.445  0.1609  1.8602  1.5085
  724SOL    HW2 2172   0.881   1.889   2.342  3.4263 -0.8037 -0.6536
  725SOL     OW 2173   0.147   0.755   1.146  0.6124 -0.5876  0.2184
  725SOL    HW1 2174   0.214   0.823   1.116 -0.4492 -2.9039 -0.8158
  725SOL    HW2 2175   0.200   0.673   1.179  3.1810  0.0214 -0.7700
  726SOL     OW 2176   1.704   0.159   0.466  0.0633  0.3523  0.2218
  726SOL    HW1 2177   1.711   0.263   0.468 -1.3046  3.6041 -0.0180
  726SOL    HW2 2178   1.701   0.126   0.562 -0.1090 -2.9727 -1.5058
  727SOL     OW 2179   1.921   1.019   2.156 -0.3600  0.3829 -0.0882
  727SOL    HW1 2180   1.974   1.101   2.126  2.4408 -0.3916  0.5051
  727SOL    HW2 2181   1.951   0.941   2.098 -2.0621 -0.1009 -3.3424
  728SOL     OW 2182   1.603   2.590   1.696  0.4384 -0.4317 -0.4393
  728SOL    HW1 2183   1.695   2.616   1.668 -2.4011 -0.0409  0.7585
  728SOL    HW2 2184   1.599   2.494   1.706 -1.0670  2.9923 -0.8761
  729SOL     OW 2185   1.526   0.438   1.656  0.6579 -0.0206 -0.4268
  729SOL    HW1 2186   1.609   0.458   1.597 -2.6299 -0.0189  0.4844
  729SOL    HW2 2187   1.528   0.487   1.745 -1.6808 -0.0441  2.2920
  730SOL     OW 2188   0.830   1.708   1.494 -0.3213  0.6019  0.0958
  730SOL    HW1 2189   0.873   1.803   1.498  1.0687  0.2945 -1.8803
  730SOL    HW2 2190   0.903   1.637   1.480  1.9115 -2.1550 -1.0238
  731SOL     OW 2191   0.410   0.104   0.107 -0.2950  0.3985 -0.0606
  731SOL    HW1 2192   0.400   0.143   0.198  0.4384 -1.7367 -3.7118
  731SOL    HW2 2193   0.356   0.018   0.110 -1.4567  0.7523 -0.3851
  732SOL     OW 2194   0.386   0.718   0.410  0.1723  0.1887  0.1905
  732SOL    HW1 2195   0.390   0.633   0.352 -0.2394  0.2439  0.7317
  732SOL    HW2 2196   0.398   0.798   0.344 -0.9541  2.0806 -1.8392
  733SOL     OW 2197   1.515   1.540   1.811 -0.1232  0.6638 -0.3631
  733SOL    HW1 2198   1.561   1.575   1.897 -0.8466 -1.6786 -0.7445
  733SOL    HW2 2199   1.491   1.443   1.812 -0.7430  1.2661 -1.8887
  734SOL     OW 2200   3.015   2.447   1.916 -0.0360  0.4796 -0.6100
  734SOL    HW1 2201   3.045   2.484   1.824  0.3533  0.2765  0.9812
  734SOL    HW2 2202   2.931   2.399   1.909  2.8633  2.5522  0.6539
  735SOL     OW 2203   1.228   2.748   0.810  0.1876 -0.5401 -0.1406
  735SOL    HW1 2204   1.197   2.664   0.865  0.2199  0.0571  1.1174
  735SOL    HW2 2205   1.281   2.731   0.726  0.2672 -0.8742  0.3919
  736SOL     OW 2206   1.220   0.905   2.804  0.4050 -0.0011  0.5133
  736SOL    HW1 2207   1.292   0.831   2.787 -1.2558  0.4776  0.3819
  736SOL    HW2 2208   1.230   0.988   2.749 -1.0223  1.0731 -0.3078
  737SOL     OW 2209   0.179   1.084   0.515  0.6158 -0.2252  0.2452
  737SOL    HW1 2210   0.131   1.138   0.586 -2.5172 -1.0015  1.4025
  737SOL    HW2 2211   0.120   1.017   0.473 -0.0773  1.1059  1.1997
  738SOL     OW 2212   0.325   2.824   1.544 -0.3907 -1.1662 -0.0324
  738SOL    HW1 2213   0.401   2.758   1.557 -0.5733  1.9543 -0.7327
  738SOL    HW2 2214   0.309   2.835   1.443 -0.4813  1.5469  0.3835
  739SOL     OW 2215   1.338   2.687   0.238 -0.3204 -0.0455  0.2415
  739SOL    HW1 2216   1.404   2.645   0.302 -0.4405  0.3212  0.2268
  739SOL    HW2 2217   1.241   2.647   0.257  1.8090 -1.3902  1.6954
  740SOL     OW 2218   1.738   2.756   1.261 -0.1233  0.1770 -0.1106
  740SOL    HW1 2219   1.658   2.814   1.291 -0.9708  2.7516  2.8758
  740SOL    HW2 2220   1.746   2.670   1.316  2.5998 -1.4557 -1.5352
  741SOL     OW 2221   2.102   0.409   0.726  0.7275  0.5215 -0.6068
  741SOL    HW1 2222   2.167   0.458   0.795  0.1717  2.9555 -0.2659
  741SOL    HW2 2223   2.153   0.377   0.643 -1.3362  1.4252  0.6840
  742SOL     OW 2224   0.937   2.644   2.223  0.2201 -0.7537 -0.6138
  742SOL    HW1 2225   0.850   2.620   2.171  2.5203 -0.3667  0.1201
  742SOL    HW2 2226   0.949   2.577   2.298 -0.5139 -2.0281 -1.8117
  743SOL     OW 2227   2.190   1.000   1.757 -0.1309  0.1628 -0.0193
  743SOL    HW1 2228   2.287   0.970   1.738  3.3158  0.0714  0.5620
  743SOL    HW2 2229   2.143   0.994   1.667  0.2199 -1.2076 -4.0045
  744SOL     OW 2230   2.293   0.519   0.945 -0.7868 -0.1091  0.1299
  744SOL    HW1 2231   2.330   0.615   0.940 -0.4258  0.7877 -3.0950
  744SOL    HW2 2232   2.241   0.516   1.034  0.6684  0.5286 -0.2577
  745SOL     OW 2233   2.158   1.287   1.811  0.3291 -0.2062 -0.3247
  745SOL    HW1 2234   2.250   1.313   1.843  2.2449  1.3639 -3.1055
  745SOL    HW2 2235   2.153   1.185   1.783 -1.7746 -2.0242 -1.0923
  746SOL     OW 2236   1.285   1.432   0.656  0.1804  0.4052  0.0588
  746SOL    HW1 2237   1.367   1.444   0.710 -1.3031  1.7873 -1.0904
  746SOL    HW2 2238   1.203   1.429   0.713  2.3783  0.1378  1.2545
  747SOL     OW 2239   2.054   1.397   1.303 -0.2959 -0.4386 -0.4738
  747SOL    HW1 2240   1.967   1.361   1.259 -0.7695  1.2962  0.6217
  747SOL    HW2 2241   2.075   1.344   1.386  0.7180 -0.8647 -0.5527
  748SOL     OW 2242   0.091   2.823   0.256  0.8154  0.2643 -0.1605
  748SOL    HW1 2243   0.153   2.833   0.334 -0.3228 -1.9777 -3.2363
  748SOL    HW2 2244   0.096   2.734   0.214  1.0262  0.5155  1.9190
  749SOL     OW 2245   0.346   0.532   2.214 -0.1437  0.0582  0.0597
  749SOL    HW1 2246   0.375   0.630   2.211  0.3922 -1.4466  0.0091
  749SOL    HW2 2247   0.251   0.526   2.178 -2.3416 -0.9375 -2.2568
  750SOL     OW 2248   1.727   2.671   1.981 -0.5383  0.6010 -0.0536
  750SOL    HW1 2249   1.675   2.731   1.918  0.4176 -1.1317 -1.1018
  750SOL    HW2 2250   1.801   2.715   2.037  1.9948 -0.0837 -1.0056
  751SOL     OW 2251   2.616   0.438   0.433 -0.2121  0.6796 -0.2101
  751SOL    HW1 2252   2.537   0.499   0.424 -0.7168  0.2066  1.8076
  751SOL    HW2 2253   2.629   0.431   0.536 -2.9929 -0.0166  0.4304
  752SOL     OW 2254   0.232   2.047   0.920  0.2703 -0.2639 -0.4823
  752SOL    HW1 2255   0.151   2.020   0.873  3.4694  4.6447  1.2175
  752SOL    HW2 2256   0.239   2.147   0.922  0.7557 -0.0715 -1.4454
  753SOL     OW 2257   0.953   0.259   1.232  0.3543  0.3820  0.6908
  753SOL    HW1 2258   0.852   0.234   1.210 -2.6730 -2.9782  0.3764
  753SOL    HW2 2259   0.966   0.317   1.312 -0.0980  0.3326 -1.5310
  754SOL     OW 2260   0.670   2.883   2.312 -0.1313 -0.4067 -0.2154
  754SOL    HW1 2261   0.638   2.836   2.227 -0.2408 -0.8881  0.6303
  754SOL    HW2 2262   0.770   2.887   2.320 -1.6298 -0.5144  0.0073
  755SOL     OW 2263   2.247   1.160   0.334 -0.0596 -0.1014 -0.0669
  755SOL    HW1 2264   2.284   1.112   0.414 -2.0081  1.3364 -1.1154
  755SOL    HW2 2265   2.216   1.097   0.259  2.0532  0.9255  1.3523
  756SOL     OW 2266   2.312   1.968   2.540 -0.1219  0.2610 -0.0657
  756SOL    HW1 2267   2.377   1.940   2.613  3.0114  0.8130 -0.3875
  756SOL    HW2 2268   2.355   2.042   2.480  1.1362 -0.4542  0.8228
  757SOL     OW 2269   1.513   0.312   0.768  0.2167 -0.2302 -0.3321
  757SOL    HW1 2270   1.444   0.272   0.830  1.4808  0.8111  1.4299
  757SOL    HW2 2271   1.585   0.243   0.759 -2.5794 -0.3850  1.5121
  758SOL     OW 2272   1.562   2.605   0.819 -0.5570 -0.3498 -0.0582
  758SOL    HW1 2273   1.603   2.622   0.912 -1.2625  3.1293  1.1117
  758SOL    HW2 2274   1.513   2.516   0.821 -1.2540 -3.3235  0.5071
  759SOL     OW 2275   2.523   0.769   1.191 -0.8221 -0.8039  0.1387
  759SOL    HW1 2276   2.503   0.799   1.284 -0.2653 -0.5242  0.9899
  759SOL    HW2 2277   2.610   0.716   1.177 -0.6647 -1.0939  1.3115
  760SOL     OW 2278   2.442   1.043   1.034  0.0378 -0.5701 -0.0096
  760SOL    HW1 2279   2.514   1.052   1.113 -0.7796 -1.1999  2.7415
  760SOL    HW2 2280   2.452   0.959   0.979 -0.2898 -0.1330  0.1464
  761SOL     OW 2281   0.182   0.405   0.653  0.0828  0.6477  0.5999
  761SOL    HW1 2282   0.185   0.486   0.720  1.6761  0.3867 -2.3425
  761SOL    HW2 2283   0.173   0.425   0.553 -0.6724 -0.8932 -0.1511
  762SOL     OW 2284   1.703   1.935   1.390  0.1449  0.6672 -0.3098
  762SOL    HW1 2285   1.800   1.917   1.365 -1.4017 -0.6186 -0.7668
  762SOL    HW2 2286   1.671   1.854   1.448  1.7601 -3.5653 -0.4808
  763SOL     OW 2287   1.308   1.259   1.877  0.4418 -0.1682 -0.1015
  763SOL    HW1 2288   1.292   1.349   1.824  1.4608  2.6806 -2.2295
  763SOL    HW2 2289   1.220   1.231   1.929 -2.4733 -3.2210  0.2290
  764SOL     OW 2290   3.064   1.797   2.284 -0.1302 -0.5185 -0.0746
  764SOL    HW1 2291   3.054   1.840   2.195  0.7652 -1.6013 -2.1876
  764SOL    HW2 2292   0.075   1.771   2.300  1.3378 -0.9199 -1.3063
  765SOL     OW 2293   1.530   2.509   1.404 -0.2721  0.4710  0.5027
  765SOL    HW1 2294   1.621   2.467   1.375  1.4340 -0.1275 -0.2555
  765SOL    HW2 2295   1.544   2.531   1.500 -1.1492  1.0197 -1.3105
  766SOL     OW 2296   0.006   2.573   2.751  0.1373  0.0056 -0.5425
  766SOL    HW1 2297   3.071   2.658   2.695  1.2657  2.1585  2.2269
  766SOL    HW2 2298   3.001   2.526   2.760  1.0684  2.2615  2.3010
  767SOL     OW 2299   1.232   0.760   2.259  0.4345  0.1228 -0.0804
  767SOL    HW1 2300   1.327   0.776   2.299  3.2061 -0.6990  1.0405
  767SOL    HW2 2301   1.165   0.728   2.327 -0.3418  1.2468  2.2164
  768SOL     OW 2302   1.370   2.000   0.219  0.1022  0.3474 -0.6845
  768SOL    HW1 2303   1.459   2.037   0.187 -0.3385  0.3035 -1.3130
  768SOL    HW2 2304   1.369   1.899   0.215  0.8495  1.3003 -0.6465
  769SOL     OW 2305   0.418   2.531   1.057 -0.2556 -0.1548  0.4015
  769SOL    HW1 2306   0.454   2.487   1.140 -2.7100  2.3847 -0.5297
  769SOL    HW2 2307   0.327   2.579   1.079 -0.8112  1.0671 -0.4649
  770SOL     OW 2308   1.622   0.773   0.088 -0.9378  0.2889 -0.1554
  770SOL    HW1 2309   1.684   0.769   0.006 -2.5374  1.1179  0.7088
  770SOL    HW2 2310   1.610   0.874   0.107  2.1318  0.1591  1.6495
  771SOL     OW 2311   0.218   2.934   2.150  0.3415  0.4076  0.5182
  771SOL    HW1 2312   0.263   2.944   2.241 -0.7523 -0.1620  0.0079
  771SOL    HW2 2313   0.287   2.947   2.074  0.8915  0.6419  0.8753
  772SOL     OW 2314   2.069   2.965   2.338 -0.1631  0.3221 -0.3907
  772SOL    HW1 2315   2.129   2.975   2.259 -2.6950 -1.0082  3.8598
  772SOL    HW2 2316   2.094   3.033   2.408  0.4497  1.0904 -1.2047
  773SOL     OW 2317   0.889   1.834   1.862  0.4007 -0.0887  0.0902
  773SOL    HW1 2318   0.963   1.882   1.816  0.1289 -1.5923  2.8629
  773SOL    HW2 2319   0.820   1.893   1.912 -3.1336 -0.3620 -0.6434
  774SOL     OW 2320   1.194   0.120   2.057 -0.6980 -0.3291 -0.2572
  774SOL    HW1 2321   1.237   0.210   2.034 -1.3854  1.6794  0.0617
  774SOL    HW2 2322   1.181   0.134   2.156  1.5266  1.8103 -0.9688
  775SOL     OW 2323   2.061   2.950   0.069  0.0498 -0.8904  0.0120
  775SOL    HW1 2324   2.053   2.860   0.023 -3.4877 -0.9508  0.2685
  775SOL    HW2 2325   2.021   2.952   0.165 -0.3656 -0.8833  2.3272
  776SOL     OW 2326   2.649   0.836   2.270  0.1105  0.5770  0.4814
  776SOL    HW1 2327   2.701   0.751   2.256  0.8042  2.5954 -0.9075
  776SOL    HW2 2328   2.616   0.879   2.183 -2.6677 -0.9508  1.0855
  777SOL     OW 2329   2.449   2.145   2.156  0.0895  0.3969  0.2308
  777SOL    HW1 2330   2.469   2.158   2.256 -2.9978  0.3213  1.1251
  777SOL    HW2 2331   2.530   2.133   2.101 -1.2459  2.5232 -1.8058
  778SOL     OW 2332   1.834   0.879   2.560  0.9305  0.5460 -0.2482
  778SOL    HW1 2333   1.797   0.901   2.465  3.1054  1.5044 -0.7437
  778SOL    HW2 2334   1.936   0.873   2.552  0.0196 -0.5036 -0.2089
  779SOL     OW 2335   3.058   0.177   0.165  0.4905  0.5365  0.9095
  779SOL    HW1 2336   3.072   0.227   0.082 -2.0037 -0.6700  1.0173
  779SOL    HW2 2337   3.027   0.239   0.239  0.0681 -2.5510  2.4085
  780SOL     OW 2338   2.645   0.793   0.029 -0.0793  0.3931  0.4694
  780SOL    HW1 2339   2.656   0.729   0.109  2.1512  1.4197 -1.3922
  780SOL    HW2 2340   2.572   0.753   3.045 -0.1053 -0.1025 -5.2403
  781SOL     OW 2341   0.225   2.898   1.304 -0.4838  0.2151 -0.5032
  781SOL    HW1 2342   0.217   2.862   1.205  3.1270 -0.2742 -4.7895
  781SOL    HW2 2343   0.142   2.870   1.352  0.1145 -0.5931 -2.9948
  782SOL     OW 2344   1.890   2.548   0.542 -0.0419 -0.1503 -0.3688
  782SOL    HW1 2345   1.882   2.571   0.443 -1.2356 -0.1992 -0.4686
  782SOL    HW2 2346   1.848   2.626   0.589  0.7205  1.6009 -2.1087
  783SOL     OW 2347   0.654   1.376   1.491 -0.1686  0.1226  0.3955
  783SOL    HW1 2348   0.698   1.461   1.518 -1.3633 -1.3081  0.8837
  783SOL    HW2 2349   0.697   1.324   1.418 -0.7013 -1.5998  1.5455
  784SOL     OW 2350   1.387   0.718   2.682 -0.8245 -0.0213 -0.0402
  784SOL    HW1 2351   1.366   0.642   2.614 -1.1083  0.9343  0.5121
  784SOL    HW2 2352   1.476   0.767   2.665  1.8022  0.8203  0.6061
  785SOL     OW 2353   2.108   0.299   1.269 -0.6481  0.4536 -0.6240
  785SOL    HW1 2354   2.075   0.376   1.207 -1.0385 -0.7947 -0.0500
  785SOL    HW2 2355   2.096   0.207   1.223 -1.6017 -0.6669  0.2825
  786SOL     OW 2356   1.212   2.732   2.068 -0.2481  0.0296  0.7266
  786SOL    HW1 2357   1.286   2.677   2.027 -1.9372 -0.7977  2.2578
  786SOL    HW2 2358   1.160   2.668   2.128  0.7911 -1.8376  0.0950
  787SOL     OW 2359   1.620   0.133   1.168 -0.3792  0.3812 -0.2856
  787SOL    HW1 2360   1.660   0.121   1.264  0.0198  0.8659 -1.4627
  787SOL    HW2 2361   1.643   0.225   1.135 -1.8964 -1.3554 -0.8916
  788SOL     OW 2362   2.971   1.012   0.475 -0.2789  0.4321 -0.0630
  788SOL    HW1 2363   2.954   1.093   0.413 -2.2208  1.1170  2.7624
  788SOL    HW2 2364   2.926   1.029   0.563 -2.3511  0.5689  0.9062
  789SOL     OW 2365   0.648   2.065   1.430 -0.7133 -0.0658 -0.0353
  789SOL    HW1 2366   0.654   1.965   1.417 -0.2362 -2.0775  1.9067
  789SOL    HW2 2367   0.616   2.082   1.528 -1.1397  1.0479  0.4340
  790SOL     OW 2368   0.653   0.720   2.241 -0.1068  0.6334  0.0567
  790SOL    HW1 2369   0.650   0.688   2.338 -0.1367  0.4838  0.0176
  790SOL    HW2 2370   0.560   0.739   2.206  2.6755 -1.9293 -0.5276
  791SOL     OW 2371   1.886   0.555   0.663 -0.1061  0.2819 -0.2407
  791SOL    HW1 2372   1.803   0.530   0.718 -1.4342  1.4643  0.9809
  791SOL    HW2 2373   1.967   0.518   0.715 -1.1751  2.1731  0.6876
  792SOL     OW 2374   1.105   2.813   1.855 -0.1269  0.3219  0.0952
  792SOL    HW1 2375   1.052   2.899   1.866 -2.4585 -2.7488 -0.1643
  792SOL    HW2 2376   1.150   2.783   1.940 -2.0844  1.0742 -1.6639
  793SOL     OW 2377   0.520   0.010   0.628 -0.2572  0.2605 -0.2095
  793SOL    HW1 2378   0.538   0.106   0.619  0.5743 -0.1770 -2.6303
  793SOL    HW2 2379   0.598   3.042   0.668 -0.4134 -0.2335  1.4672
  794SOL     OW 2380   0.251   1.303   1.644  0.2194 -0.2317  0.6672
  794SOL    HW1 2381   0.162   1.313   1.692  0.6750  1.8695  0.1189
  794SOL    HW2 2382   0.271   1.383   1.587 -0.7550  3.5218 -1.5293
  795SOL     OW 2383   0.380   2.265   2.214 -0.0725 -0.0486  0.2579
  795SOL    HW1 2384   0.291   2.286   2.257  0.1094 -0.2093 -0.9927
  795SOL    HW2 2385   0.415   2.182   2.257 -0.7441 -1.0307  0.7584
  796SOL     OW 2386   2.288   0.721   1.923  0.5282  0.1436  0.3659
  796SOL    HW1 2387   2.358   0.645   1.935 -1.4918  2.2312 -2.2427
  796SOL    HW2 2388   2.332   0.793   1.861  2.4376  1.0846 -1.9271
  797SOL     OW 2389   2.579   2.582   2.709  0.0062  0.3531  0.0381
  797SOL    HW1 2390   2.551   2.668   2.752 -2.5864 -0.2447  0.6142
  797SOL    HW2 2391   2.616   2.602   2.615  0.3796  3.1279 -3.2597
  798SOL     OW 2392   2.876   3.017   2.075  1.1939  0.2574  0.0081
  798SOL    HW1 2393   2.970   3.004   2.053 -0.4173 -0.0088 -0.0956
  798SOL    HW2 2394   2.862   0.021   2.118  1.3079 -0.9714 -1.7794
  799SOL     OW 2395   0.046   2.497   2.154 -0.5834 -0.7146  0.4368
  799SOL    HW1 2396   0.085   2.410   2.189 -0.6055  0.2543  1.2303
  799SOL    HW2 2397   3.078   2.478   2.069 -0.0705 -1.2903  1.0773
  800SOL     OW 2398   2.997   1.931   3.015  0.0662  0.7598 -0.0453
  800SOL    HW1 2399   2.973   2.022   2.979  1.6167 -0.4086 -0.3370
  800SOL    HW2 2400   3.035   1.947   0.024  0.0132  1.4786  2.4233
  801SOL     OW 2401   1.776   1.293   1.286 -0.8774  0.0712  0.6967
  801SOL    HW1 2402   1.691   1.275   1.233 -0.8673 -0.5197  1.9212
  801SOL    HW2 2403   1.771   1.259   1.381  1.9751  2.2107 -3.5758
  802SOL     OW 2404   0.202   1.378   0.424  0.6198  0.3679  0.1286
  802SOL    HW1 2405   0.214   1.433   0.503 -2.0258  0.3401  0.0544
  802SOL    HW2 2406   0.212   1.284   0.452 -0.1417 -0.8642  0.2072
  803SOL     OW 2407   1.151   1.527   1.751  0.1841 -0.1390 -0.6958
  803SOL    HW1 2408   1.090   1.488   1.682  0.2675  1.6294 -1.5792
  803SOL    HW2 2409   1.113   1.516   1.847 -0.4304  0.3641 -0.4640
  804SOL     OW 2410   1.867   1.451   0.999 -0.2301  0.1251  0.6937
  804SOL    HW1 2411   1.870   1.356   1.032  0.3543  0.3037 -1.2827
  804SOL    HW2 2412   1.953   1.462   0.942  2.5561  0.6549 -0.3560
  805SOL     OW 2413   2.937   1.164   2.921 -0.3137 -0.0902 -0.1936
  805SOL    HW1 2414   2.897   1.192   2.835  1.3319 -1.3987  2.1061
  805SOL    HW2 2415   3.014   1.098   2.903  0.0537 -0.1314  0.9947
  806SOL     OW 2416   0.353   2.407   0.221 -0.1841  0.2181 -0.3369
  806SOL    HW1 2417   0.439   2.456   0.216  0.6146 -1.0385 -1.0951
  806SOL    HW2 2418   0.320   2.411   0.314 -2.6627 -0.7054 -0.4599
  807SOL     OW 2419   2.461   1.530   2.913 -0.1490 -0.3540 -0.1234
  807SOL    HW1 2420   2.467   1.456   2.988 -0.2075 -1.8688 -1.1197
  807SOL    HW2 2421   2.396   1.603   2.941 -1.4208  1.4378 -0.6385
  808SOL     OW 2422   1.118   2.033   1.264  0.4567 -0.5271 -0.0079
  808SOL    HW1 2423   1.056   2.088   1.325  1.8925  2.9400  0.0497
  808SOL    HW2 2424   1.215   2.045   1.297  1.9549 -1.7603  1.8055
  809SOL     OW 2425   2.851   0.765   0.419 -0.1501  0.4617 -0.6248
  809SOL    HW1 2426   2.893   0.856   0.437  0.0462  0.0154 -0.9032
  809SOL    HW2 2427   2.750   0.777   0.385 -1.4971  1.3700 -0.2344
  810SOL     OW 2428   0.953   1.460   0.564  0.1288  0.2057  0.5219
  810SOL    HW1 2429   0.967   1.396   0.643 -0.2388 -3.0573 -0.0374
  810SOL    HW2 2430   1.043   1.501   0.538  2.7813  0.6743 -3.1646
  811SOL     OW 2431   1.822   2.545   1.422 -0.0509 -0.0451 -0.0924
  811SOL    HW1 2432   1.890   2.471   1.405  1.4563 -1.4885  0.3687
  811SOL    HW2 2433   1.845   2.610   1.497  0.0215  3.1264  0.1302
  812SOL     OW 2434   1.459   2.825   1.713  0.4447 -0.7054  0.3823
  812SOL    HW1 2435   1.491   2.728   1.725 -0.6750 -0.7910 -3.8686
  812SOL    HW2 2436   1.368   2.812   1.664  0.6801 -0.6959 -1.9102
  813SOL     OW 2437   0.736   2.846   1.701 -0.1016  0.3897  0.1332
  813SOL    HW1 2438   0.793   2.778   1.749  1.2324 -2.1361 -0.5655
  813SOL    HW2 2439   0.696   2.795   1.619  1.6518 -1.6579 -3.0215
  814SOL     OW 2440   0.950   2.878   2.358 -0.0737 -0.1774  0.0687
  814SOL    HW1 2441   1.029   2.928   2.315  1.0363  0.0839 -0.5638
  814SOL    HW2 2442   0.948   2.782   2.323 -2.3635 -2.6628  0.2402
  815SOL     OW 2443   0.739   3.081   2.679 -0.5542  0.2459 -0.1317
  815SOL    HW1 2444   0.657   3.036   2.638 -0.9427  0.8338 -1.4415
  815SOL    HW2 2445   0.729   0.098   2.685 -0.8235 -0.2965 -1.2940
  816SOL     OW 2446   2.461   0.454   2.861  0.6427 -0.2932  0.4095
  816SOL    HW1 2447   2.559   0.455   2.895  2.4391  2.1287 -0.8367
  816SOL    HW2 2448   2.420   0.538   2.900  1.4793 -2.5024 -1.6562
  817SOL     OW 2449   2.221   2.849   1.873 -0.2421 -0.3559  0.2262
  817SOL    HW1 2450   2.317   2.847   1.835  1.5803 -1.8902 -1.3318
  817SOL    HW2 2451   2.195   2.758   1.908 -1.1810 -1.8216  1.8948
  818SOL     OW 2452   1.013   0.648   0.265 -0.2157  0.2973 -0.0563
  818SOL    HW1 2453   0.930   0.712   0.255 -2.1060  0.6894 -0.0400
  818SOL    HW2 2454   0.990   0.580   0.336 -1.5485  1.6061 -0.9480
  819SOL     OW 2455   2.031   1.571   2.794 -0.8982  0.3737  0.0060
  819SOL    HW1 2456   2.129   1.565   2.760 -0.8258  0.4065  1.6625
  819SOL    HW2 2457   1.989   1.653   2.760  0.7490 -3.9229 -1.0500
  820SOL     OW 2458   0.165   1.459   2.390 -0.4550 -0.5219  0.3144
  820SOL    HW1 2459   0.183   1.359   2.410 -1.2319 -2.8962  1.5106
  820SOL    HW2 2460   0.201   1.522   2.461 -0.3972  0.1808  0.9151
  821SOL     OW 2461   0.142   2.618   0.641  0.6682 -0.3724  0.0404
  821SOL    HW1 2462   0.155   2.710   0.593 -0.5755 -0.0149 -1.9672
  821SOL    HW2 2463   0.095   2.629   0.729 -0.3137  2.1243 -2.8832
  822SOL     OW 2464   2.250   2.652   2.884 -0.3396  0.6631 -0.2737
  822SOL    HW1 2465   2.251   2.590   2.808 -0.8851  2.1461  0.0880
  822SOL    HW2 2466   2.327   2.723   2.879 -1.4120  0.3497  0.9970
  823SOL     OW 2467   1.527   0.034   2.248  0.1971  0.1747  0.1527
  823SOL    HW1 2468   1.540   0.118   2.195  0.1487 -0.4185  1.1102
  823SOL    HW2 2469   1.478   3.051   2.192  1.6762  1.2948  1.1233
  824SOL     OW 2470   2.693   2.423   2.135 -0.4177  0.4564 -1.0148
  824SOL    HW1 2471   2.723   2.522   2.148  1.4619  0.4454 -2.3432
  824SOL    HW2 2472   2.616   2.409   2.205 -1.8186  0.0830  2.3171
  825SOL     OW 2473   2.808   2.313   2.527  0.1614 -0.2716 -0.1478
  825SOL    HW1 2474   2.734   2.265   2.578  1.1810  2.5668  0.3602
  825SOL    HW2 2475   2.881   2.244   2.508 -1.2903 -1.9389 -0.6813
  826SOL     OW 2476   1.978   0.512   2.545 -0.1968  0.1649  0.5165
  826SOL    HW1 2477   2.080   0.522   2.520 -2.2857 -1.1464 -0.1066
  826SOL    HW2 2478   1.968   0.478   2.636 -2.7702  2.2481 -1.9527
  827SOL     OW 2479   2.846   2.043   1.596 -0.0304 -0.4964  0.1088
  827SOL    HW1 2480   2.762   2.073   1.650 -1.1831  1.0563  1.2100
  827SOL    HW2 2481   2.817   1.958   1.546 -1.3290 -0.6122  1.3931
  828SOL     OW 2482   2.787   0.068   1.352 -0.5877  0.2595  0.0508
  828SOL    HW1 2483   2.864   0.025   1.406 -2.0609  0.3861  1.7848
  828SOL    HW2 2484   2.767   0.156   1.399 -0.9964  1.8706 -3.0583
  829SOL     OW 2485   1.008   1.866   2.676  0.3948  0.2193 -0.1830
  829SOL    HW1 2486   0.934   1.925   2.640  1.5000 -0.0643  0.9350
  829SOL    HW2 2487   0.981   1.769   2.667  0.6516 -2.3795 -1.9642
  830SOL     OW 2488   0.731   0.943   1.154  0.0603  0.1121  0.0189
  830SOL    HW1 2489   0.805   0.970   1.224  2.1408  2.5837 -0.6295
  830SOL    HW2 2490   0.642   0.997   1.171 -2.7279 -0.8534  1.7929
  831SOL     OW 2491   2.778   1.919   2.671  0.0767  0.0943 -0.3922
  831SOL    HW1 2492   2.761   1.829   2.717  0.7909 -0.4207  1.9639
  831SOL    HW2 2493   2.772   2.001   2.732 -1.2697 -0.0613  0.3164
  832SOL     OW 2494   2.016   2.384   2.520  0.2242 -0.1582 -0.2824
  832SOL    HW1 2495   2.074   2.389   2.440  1.0354  1.1318  0.1567
  832SOL    HW2 2496   1.950   2.459   2.525  1.4839  1.3736  0.5055
  833SOL     OW 2497   0.725   0.339   1.949 -0.1023  0.1320 -0.1969
  833SOL    HW1 2498   0.726   0.407   1.868 -0.8746  2.2924 -0.6741
  833SOL    HW2 2499   0.806   0.342   2.006 -0.8379  0.6558 -1.5454
  834SOL     OW 2500   3.047   0.247   1.297  0.2764  0.6957  0.2663
  834SOL    HW1 2501   2.957   0.296   1.325 -2.1112 -1.3399  4.2761
  834SOL    HW2 2502   3.057   0.168   1.362 -1.1605  0.3722 -0.0425
  835SOL     OW 2503   2.714   0.517   0.181  0.9303 -0.2985  0.0537
  835SOL    HW1 2504   2.681   0.484   0.270  1.7899  0.8020 -2.1541
  835SOL    HW2 2505   2.795   0.578   0.177 -1.5418  0.2632  0.0534
  836SOL     OW 2506   1.603   1.861   0.264 -0.0618  0.1848 -0.3228
  836SOL    HW1 2507   1.612   1.960   0.237 -1.5016 -1.3790 -0.8345
  836SOL    HW2 2508   1.612   1.855   0.368  0.6908  1.4446 -0.5805
  837SOL     OW 2509   1.959   1.770   0.777 -0.0590  0.0712  0.1306
  837SOL    HW1 2510   1.996   1.683   0.820 -0.9245  0.4965  0.6445
  837SOL    HW2 2511   2.028   1.830   0.729  1.0722 -0.0832 -1.6872
  838SOL     OW 2512   1.465   0.824   2.354 -0.0482 -0.4976 -0.0329
  838SOL    HW1 2513   1.498   0.868   2.441  1.1487  1.0944 -0.5890
  838SOL    HW2 2514   1.512   0.858   2.274 -0.3634 -0.6131  1.5675
  839SOL     OW 2515   0.733   1.388   2.190  0.6991  0.4835 -0.5960
  839SOL    HW1 2516   0.636   1.360   2.220 -0.6051 -0.6808 -1.6955
  839SOL    HW2 2517   0.786   1.403   2.278 -0.9760  0.1485  0.3056
  840SOL     OW 2518   1.208   1.664   0.507  0.0880 -0.5733  0.7064
  840SOL    HW1 2519   1.217   1.760   0.523  0.2499 -2.5410  1.1558
  840SOL    HW2 2520   1.256   1.616   0.582  0.8681  0.6897  0.8642
  841SOL     OW 2521   1.466   2.308   0.672 -0.0387 -0.0938 -0.7625
  841SOL    HW1 2522   1.533   2.376   0.637 -1.0435  1.0612  0.5018
  841SOL    HW2 2523   1.478   2.298   0.772  0.5085  0.3759  0.9254
  842SOL     OW 2524   0.335   0.504   0.242 -0.5272  0.0808 -0.3745
  842SOL    HW1 2525   0.394   0.429   0.267 -2.0915  1.4248 -1.5132
  842SOL    HW2 2526   0.291   0.482   0.150  0.0011 -0.8273 -2.1794
  843SOL     OW 2527   0.559   0.322   0.590 -0.7010 -0.5364 -0.1912
  843SOL    HW1 2528   0.512   0.352   0.677 -0.7442  1.5850 -1.3600
  843SOL    HW2 2529   0.650   0.370   0.593 -0.7308  0.4521  2.1358
  844SOL     OW 2530   2.613   0.308   2.672  0.3331 -0.1741 -0.0713
  844SOL    HW1 2531   2.515   0.331   2.671  1.5969 -1.4747  0.4772
  844SOL    HW2 2532   2.629   0.228   2.731 -1.2837  0.7550  0.6840
  845SOL     OW 2533   2.759   2.419   1.575  0.6672  0.3891 -0.7364
  845SOL    HW1 2534   2.789   2.401   1.673  2.0431 -2.1316  2.2159
  845SOL    HW2 2535   2.787   2.341   1.517  0.5780  1.0275  0.9023
  846SOL     OW 2536   2.372   1.412   2.472 -0.3392 -1.1167 -0.1684
  846SOL    HW1 2537   2.451   1.349   2.450  2.6646  3.3626  0.6352
  846SOL    HW2 2538   2.284   1.374   2.425 -2.1098  0.2931 -1.9434
  847SOL     OW 2539   0.958   0.711   1.894 -0.4417 -0.0888 -0.4216
  847SOL    HW1 2540   0.864   0.676   1.863 -2.5430 -0.5623 -0.8262
  847SOL    HW2 2541   1.010   0.710   1.807 -1.0203 -1.8642  1.1411
  848SOL     OW 2542   2.599   0.051   2.791 -0.3072  0.2632  0.0334
  848SOL    HW1 2543   2.645   3.060   2.850 -0.3411 -2.5839 -0.8773
  848SOL    HW2 2544   2.535   0.111   2.837  1.7754 -1.4759 -2.2917
  849SOL     OW 2545   0.115   2.818   2.985  0.2987  0.0978  0.2841
  849SOL    HW1 2546   0.107   2.866   2.896  1.6672 -0.0239  2.0300
  849SOL    HW2 2547   0.157   2.725   2.972 -0.5662  1.9955  3.3979
  850SOL     OW 2548   1.143   2.549   0.963 -0.6000 -0.2807  0.2080
  850SOL    HW1 2549   1.197   2.495   1.032 -2.9264 -1.1122 -1.3613
  850SOL    HW2 2550   1.114   2.486   0.887  1.0463  2.2155 -0.0790
  851SOL     OW 2551   2.216   0.555   2.420 -0.5914 -0.1021 -0.5676
  851SOL    HW1 2552   2.300   0.618   2.415  3.5923 -0.0409  1.1190
  851SOL    HW2 2553   2.228   0.476   2.363 -1.2147  0.1263  1.0179
  852SOL     OW 2554   1.323   0.259   2.512 -0.4594 -0.0760  0.5294
  852SOL    HW1 2555   1.419   0.236   2.529 -1.0867  1.7588  1.8511
  852SOL    HW2 2556   1.265   0.237   2.592  0.8077 -0.8882 -0.6529
  853SOL     OW 2557   2.948   2.743   0.033  0.4901  0.2133 -0.4255
  853SOL    HW1 2558   2.909   2.748   0.128  0.5131 -0.2024 -0.9666
  853SOL    HW2 2559   3.048   2.765   0.041  2.4280 -1.4870  0.8288
  854SOL     OW 2560   2.083   0.855   2.501  0.1680  0.0415 -0.1085
  854SOL    HW1 2561   2.147   0.928   2.511 -1.3241  0.3565  0.6909
  854SOL    HW2 2562   2.118   0.783   2.435 -1.1977 -1.3189  1.1314
  855SOL     OW 2563   0.605   2.515   0.274 -0.4972 -0.0848 -0.9170
  855SOL    HW1 2564   0.612   2.614   0.299 -0.7185  4.2989  0.6052
  855SOL    HW2 2565   0.677   2.490   0.207  2.7617 -0.1534 -1.5138
  856SOL     OW 2566   0.207   0.109   2.405 -0.0671  0.6035 -0.4189
  856SOL    HW1 2567   0.170   0.104   2.504 -0.1492 -1.1282  3.3014
  856SOL    HW2 2568   0.253   0.017   2.391  2.0219 -0.3263  0.8176
  857SOL     OW 2569   1.015   2.816   1.402 -0.3412 -0.5618 -0.0056
  857SOL    HW1 2570   0.974   2.907   1.381  0.9715  1.1035  0.0470
  857SOL    HW2 2571   0.970   2.740   1.352  1.7865  2.2395  0.0924
  858SOL     OW 2572   2.624   2.181   1.744  0.3118 -0.4417  0.4735
  858SOL    HW1 2573   2.523   2.189   1.724 -1.9018 -0.5979 -0.2531
  858SOL    HW2 2574   2.664   2.263   1.793 -0.3632  1.2220  2.0773
  859SOL     OW 2575   1.840   2.322   1.841  0.3951 -0.3042 -0.2178
  859SOL    HW1 2576   1.920   2.264   1.856  1.8204  1.3691 -0.2865
  859SOL    HW2 2577   1.761   2.300   1.903  1.4924 -0.2399 -0.4825
  860SOL     OW 2578   1.960   0.184   0.360 -0.0781 -0.7976  0.5404
  860SOL    HW1 2579   1.998   0.225   0.282  0.2574 -4.2731  1.6225
  860SOL    HW2 2580   1.857   0.186   0.367 -1.9034 -1.3868 -0.7422
  861SOL     OW 2581   2.551   0.368   0.710 -0.0278  0.0352 -0.8443
  861SOL    HW1 2582   2.631   0.310   0.681  0.2733 -2.5454 -0.0485
  861SOL    HW2 2583   2.473   0.304   0.729 -2.0291 -1.4130 -1.4974
  862SOL     OW 2584   0.895   2.626   2.713  0.5953 -0.3440  0.2821
  862SOL    HW1 2585   0.950   2.697   2.762  4.3744  0.7390  1.0535
  862SOL    HW2 2586   0.948   2.589   2.638 -2.7501 -0.4558  1.4803
  863SOL     OW 2587   0.462   0.519   1.256  0.4224 -0.0073 -0.0622
  863SOL    HW1 2588   0.411   0.523   1.342  0.0079  1.4023  2.4641
  863SOL    HW2 2589   0.436   0.441   1.192 -1.1179 -1.6284 -3.4564
  864SOL     OW 2590   2.950   3.075   1.562  0.1581  0.0198  0.3538
  864SOL    HW1 2591   3.040   0.032   1.577  1.1003 -1.6868 -1.8498
  864SOL    HW2 2592   2.944   2.988   1.620  1.8852 -0.1253  0.4113
  865SOL     OW 2593   0.688   1.350   2.708 -0.5081  0.8635  0.7802
  865SOL    HW1 2594   0.780   1.302   2.713  0.5257  0.8455  0.0140
  865SOL    HW2 2595   0.671   1.402   2.793 -0.5887  1.1678 -0.4376
  866SOL     OW 2596   2.798   0.172   3.070  0.3135  0.6195 -0.7723
  866SOL    HW1 2597   2.744   0.170   0.073 -1.2074 -0.1778  0.6875
  866SOL    HW2 2598   2.821   0.079   3.039 -0.9010 -2.0301 -3.7576
  867SOL     OW 2599   2.705   2.936   2.921 -0.2180 -0.1877 -0.0754
  867SOL    HW1 2600   2.747   2.963   3.011  0.0032  4.1158  1.0046
  867SOL    HW2 2601   2.737   2.849   2.889  0.9879 -0.6697  0.2892
  868SOL     OW 2602   1.249   0.783   0.338  0.3995  0.0052 -0.0532
  868SOL    HW1 2603   1.158   0.735   0.334  0.4453 -1.3506  0.4416
  868SOL    HW2 2604   1.308   0.750   0.416  1.0270  0.3700  2.1239
  869SOL     OW 2605   2.574   1.480   0.659  0.1212  0.1310  0.7077
  869SOL    HW1 2606   2.588   1.526   0.573 -1.9012 -2.3559  1.5211
  869SOL    HW2 2607   2.649   1.418   0.678 -0.3333  3.2582 -1.2288
  870SOL     OW 2608   2.328   1.701   0.570 -0.2252  0.0737  0.3726
  870SOL    HW1 2609   2.359   1.697   0.471  4.4133 -1.9471 -1.9467
  870SOL    HW2 2610   2.319   1.603   0.601 -0.1617 -2.0454  1.5457
  871SOL     OW 2611   1.283   1.136   0.749 -0.1545  0.4766 -0.2423
  871SOL    HW1 2612   1.250   1.044   0.717  0.0105 -0.0419  2.4278
  871SOL    HW2 2613   1.237   1.209   0.707  1.2123 -2.5603  2.2258
  872SOL     OW 2614   1.333   1.713   1.729 -0.4834  0.5552 -0.1123
  872SOL    HW1 2615   1.258   1.647   1.712 -0.4024  1.5883  0.7256
  872SOL    HW2 2616   1.426   1.673   1.755 -1.5709  1.4795  0.4683
  873SOL     OW 2617   0.946   1.755   2.287  0.0477  0.0039 -0.0145
  873SOL    HW1 2618   1.014   1.785   2.212  2.3410  0.9820  0.3256
  873SOL    HW2 2619   0.986   1.684   2.345 -1.9890 -0.9532 -3.5669
  874SOL     OW 2620   0.979   2.007   1.039 -0.0273  0.7640 -0.3679
  874SOL    HW1 2621   1.047   2.038   0.969  0.8212 -0.1959  2.0496
  874SOL    HW2 2622   1.025   2.022   1.131 -0.1062  0.3720  2.1625
  875SOL     OW 2623   1.809   0.350   1.018  0.1061  0.2189  0.8321
  875SOL    HW1 2624   1.809   0.438   1.075  0.8712  0.5543  1.2042
  875SOL    HW2 2625   1.790   0.378   0.921  2.7451  0.3420 -1.2570
  876SOL     OW 2626   0.627   0.595   0.313 -0.7793 -0.3712 -0.4549
  876SOL    HW1 2627   0.617   0.592   0.416 -0.4503 -0.8492  1.6213
  876SOL    HW2 2628   0.686   0.512   0.287  1.5701  1.0154  0.4550
  877SOL     OW 2629   2.810   0.388   1.335 -0.3152 -0.1190 -0.0982
  877SOL    HW1 2630   2.724   0.349   1.289 -4.4253 -1.7694 -0.2668
  877SOL    HW2 2631   2.801   0.484   1.366 -1.7279  0.7226  1.1497
  878SOL     OW 2632   2.095   2.231   0.350 -0.2782  0.7622 -0.0117
  878SOL    HW1 2633   2.068   2.291   0.270  1.7071 -1.1485  0.1844
  878SOL    HW2 2634   2.154   2.156   0.314  1.6603 -0.2017  1.6687
  879SOL     OW 2635   2.682   1.681   1.458  0.3775  0.1398  0.8612
  879SOL    HW1 2636   2.580   1.682   1.456 -1.4885  2.8066 -0.0589
  879SOL    HW2 2637   2.708   1.644   1.545  1.4672 -0.4930 -1.0047
  880SOL     OW 2638   1.267   2.886   1.329 -0.4669  0.9457  0.3834
  880SOL    HW1 2639   1.243   2.861   1.232 -3.0752 -0.5588 -2.4141
  880SOL    HW2 2640   1.194   2.842   1.387 -2.2428 -0.4053  1.5645
  881SOL     OW 2641   1.206   2.159   0.074  0.2804  0.3325 -0.0770
  881SOL    HW1 2642   1.115   2.145   0.116  1.4173  0.1328 -0.2696
  881SOL    HW2 2643   1.274   2.095   0.118  1.9281 -0.1415 -2.9650
  882SOL     OW 2644   2.030   0.589   1.743 -0.1842  0.4907 -0.2661
  882SOL    HW1 2645   1.963   0.658   1.768  0.5602 -2.4367 -3.0322
  882SOL    HW2 2646   2.031   0.560   1.647 -1.4336  0.4534 -0.7857
  883SOL     OW 2647   1.170   0.140   2.331 -0.2549  0.2650  0.0300
  883SOL    HW1 2648   1.232   0.198   2.390 -0.0238 -1.0921 -1.7747
  883SOL    HW2 2649   1.077   0.175   2.332  2.9462 -1.2341  0.4356
  884SOL     OW 2650   2.914   0.320   0.382  0.0945  0.3572 -0.0399
  884SOL    HW1 2651   2.970   0.302   0.471  0.1973 -0.1064 -0.0399
  884SOL    HW2 2652   2.903   0.421   0.359  0.4021  3.3559  2.4082
  885SOL     OW 2653   0.798   1.417   3.080 -0.2519 -0.1708 -0.2076
  885SOL    HW1 2654   0.860   1.457   3.000  0.8669 -0.2520 -4.1123
  885SOL    HW2 2655   0.830   1.324   0.013  2.0073  1.1287  3.7591
  886SOL     OW 2656   1.834   1.384   2.837  0.0754  0.2751 -0.0076
  886SOL    HW1 2657   1.757   1.444   2.800 -1.2643  3.4718 -1.1053
  886SOL    HW2 2658   1.923   1.429   2.818 -0.1344 -2.8693 -2.8005
  887SOL     OW 2659   1.253   0.486   1.530 -0.2433 -0.0853 -0.6298
  887SOL    HW1 2660   1.191   0.426   1.478  5.1723  2.4043 -0.0784
  887SOL    HW2 2661   1.341   0.446   1.554  0.9751  1.2151  0.0173
  888SOL     OW 2662   2.926   0.551   1.871 -0.7001 -0.0449 -0.1556
  888SOL    HW1 2663   2.864   0.630   1.880  0.1446  2.4791  1.2972
  888SOL    HW2 2664   2.924   0.514   1.776 -2.5722 -1.1499 -0.1886
  889SOL     OW 2665   3.004   2.540   0.512  0.0314  0.0695  0.0495
  889SOL    HW1 2666   2.936   2.614   0.523  0.5122 -0.4070 -1.6997
  889SOL    HW2 2667   0.014   2.558   0.546  0.4595  0.6130 -1.7668
  890SOL     OW 2668   2.600   2.714   0.154  0.0556 -0.1991  0.6607
  890SOL    HW1 2669   2.621   2.634   0.213  1.4431  3.6959 -1.3033
  890SOL    HW2 2670   2.568   2.686   0.061  2.4479  0.0101 -0.5076
  891SOL     OW 2671   0.925   1.545   2.865  0.3611 -0.2067  0.0815
  891SOL    HW1 2672   1.004   1.518   2.806  1.5906 -0.5471 -1.6603
  891SOL    HW2 2673   0.855   1.585   2.804 -1.7902 -1.6524 -0.5234
  892SOL     OW 2674   2.888   2.960   0.897  0.7024 -0.3094 -0.2421
  892SOL    HW1 2675   2.922   3.001   0.811 -0.6337 -0.7488  2.0927
  892SOL    HW2 2676   2.901   3.025   0.973  1.0617  3.8048 -0.6673
  893SOL     OW 2677   1.000   2.994   1.087  0.1540 -0.2259 -0.3878
  893SOL    HW1 2678   0.978   3.040   1.171  0.4641 -0.8631 -0.6375
  893SOL    HW2 2679   1.096   2.957   1.085 -1.7228 -1.1419 -2.2342
  894SOL     OW 2680   2.818   1.369   0.683  0.5150  0.0968  0.0317
  894SOL    HW1 2681   2.855   1.338   0.771 -0.6639  1.0268 -1.0530
  894SOL    HW2 2682   2.878   1.424   0.620 -0.2956 -0.8321 -1.5410
  895SOL     OW 2683   2.488   2.801   1.784 -0.2056 -0.1060  0.2738
  895SOL    HW1 2684   2.566   2.828   1.845 -0.3324  0.8317  0.8143
  895SOL    HW2 2685   2.516   2.832   1.692 -2.2801  3.2745 -0.1441
  896SOL     OW 2686   0.916   3.051   1.632 -0.6823  0.1980 -0.0978
  896SOL    HW1 2687   0.854   2.973   1.648  0.4293  3.6986  0.8802
  896SOL    HW2 2688   0.971   3.070   1.716 -2.6275 -0.7925  0.4449
  897SOL     OW 2689   0.770   1.538   1.739  0.0578  0.0624 -0.1402
  897SOL    HW1 2690   0.790   1.627   1.689 -0.1915  0.2671  1.6595
  897SOL    HW2 2691   0.702   1.544   1.817 -0.0284  1.7432 -1.3908
  898SOL     OW 2692   1.433   2.539   1.981 -0.7963 -0.0159  0.4096
  898SOL    HW1 2693   1.418   2.533   1.885 -2.6476  0.4471  5.1322
  898SOL    HW2 2694   1.518   2.494   2.011 -0.0929 -1.9084  1.6049
  899SOL     OW 2695   0.815   0.459   0.561  0.2532  0.1943  0.0844
  899SOL    HW1 2696   0.819   0.558   0.572 -1.8199 -0.6720 -1.6939
  899SOL    HW2 2697   0.883   0.432   0.493 -0.3217  0.4203 -1.9936
  900SOL     OW 2698   1.657   2.408   2.071  0.3465 -0.3243  0.4652
  900SOL    HW1 2699   1.688   2.498   2.037 -2.5127  2.8304 -1.8895
  900SOL    HW2 2700   1.612   2.406   2.161  1.7072  0.8588  0.8117
  901SOL     OW 2701   0.915   2.215   2.777 -0.1292 -0.0317  0.9953
  901SOL    HW1 2702   1.014   2.253   2.780 -0.2721 -0.8906 -0.5183
  901SOL    HW2 2703   0.849   2.288   2.798 -0.5294  2.0024 -0.9436
  902SOL     OW 2704   1.810   1.312   0.337 -0.0550  0.0293 -0.7158
  902SOL    HW1 2705   1.907   1.330   0.345 -1.4489 -0.0567 -0.2944
  902SOL    HW2 2706   1.753   1.349   0.410 -0.2537 -2.6134  0.1299
  903SOL     OW 2707   1.813   0.828   0.636 -0.2363  0.1054 -0.1925
  903SOL    HW1 2708   1.817   0.724   0.649 -1.9285 -3.2403  0.8349
  903SOL    HW2 2709   1.746   0.836   0.558 -1.6516  0.4219  1.5689
  904SOL     OW 2710   0.792   0.908   2.851 -0.0152  0.0358 -0.0093
  904SOL    HW1 2711   0.798   0.969   2.766  0.8781  0.6666  2.2359
  904SOL    HW2 2712   0.869   0.839   2.846  1.1524 -2.1305 -0.7995
  905SOL     OW 2713   1.960   0.195   0.802 -0.1496 -0.0923  0.4179
  905SOL    HW1 2714   1.968   0.178   0.903 -0.8821  0.3610  0.9388
  905SOL    HW2 2715   2.007   0.280   0.777 -3.0550 -1.8567 -0.0181
  906SOL     OW 2716   0.018   2.265   0.982  0.2124 -0.0824  0.4280
  906SOL    HW1 2717   3.056   2.333   0.915 -1.9263  1.2270 -0.9094
  906SOL    HW2 2718   0.122   2.276   0.971  2.1525 -2.4416  0.0337
  907SOL     OW 2719   0.799   0.815   0.261  0.1840 -0.1867  0.0066
  907SOL    HW1 2720   0.724   0.748   0.287  0.1025 -1.6512 -2.1908
  907SOL    HW2 2721   0.776   0.859   0.171 -2.5480  1.7036  0.6668
  908SOL     OW 2722   2.163   2.776   0.822  0.3714 -0.1919  0.5091
  908SOL    HW1 2723   2.177   2.788   0.922  1.7651 -2.5509 -1.1566
  908SOL    HW2 2724   2.131   2.864   0.772  0.2528 -0.5517  1.5498
  909SOL     OW 2725   2.288   1.190   1.440  0.2637 -0.6939  0.3227
  909SOL    HW1 2726   2.309   1.226   1.351 -0.5138  0.4075 -0.5150
  909SOL    HW2 2727   2.197   1.222   1.471 -0.0402 -1.2243 -1.6269
  910SOL     OW 2728   1.352   2.988   2.091 -0.1315 -0.0014 -0.0517
  910SOL    HW1 2729   1.293   2.906   2.074  1.8200 -0.3407 -1.9677
  910SOL    HW2 2730   1.294   3.069   2.064 -2.6390  1.7827 -1.6993
  911SOL     OW 2731   2.806   0.611   2.271 -0.0288 -0.2388  0.5990
  911SOL    HW1 2732   2.902   0.640   2.253  1.4981  1.0900 -2.0603
  911SOL    HW2 2733   2.803   0.510   2.280 -0.3510  2.1510  3.3801
  912SOL     OW 2734   0.185   1.198   1.336  0.0598 -0.2734 -0.1925
  912SOL    HW1 2735   0.233   1.128   1.284 -1.3404  2.4895 -0.9691
  912SOL    HW2 2736   0.250   1.274   1.369  0.2037  3.3251  0.5682
  913SOL     OW 2737   2.792   2.326   1.176 -0.2416 -0.3689 -0.3375
  913SOL    HW1 2738   2.821   2.282   1.261 -0.9479  0.5838 -2.5461
  913SOL    HW2 2739   2.713   2.276   1.141  1.4444  1.6905  0.7673
  914SOL     OW 2740   1.682   0.735   1.582 -0.6102 -0.2784 -0.3670
  914SOL    HW1 2741   1.728   0.701   1.500 -4.4058  2.7778  4.4678
  914SOL    HW2 2742   1.754   0.768   1.653  1.5693  0.6911  3.2784
  915SOL     OW 2743   1.748   0.457   1.266  0.4702  0.2369  0.4524
  915SOL    HW1 2744   1.763   0.419   1.360  0.8243 -1.8279  0.3344
  915SOL    HW2 2745   1.647   0.444   1.244 -0.8098  0.0196 -0.2734
  916SOL     OW 2746   2.890   2.509   0.984  0.2258  0.1096  0.3121
  916SOL    HW1 2747   2.810   2.564   0.966 -0.9656  1.9054 -1.2852
  916SOL    HW2 2748   2.870   2.443   1.059 -0.5672  0.5554  1.1686
  917SOL     OW 2749   2.174   2.003   0.182  0.4105  0.0904  0.5390
  917SOL    HW1 2750   2.144   1.925   0.233  2.3517  2.4359 -1.3541
  917SOL    HW2 2751   2.167   1.984   0.081  1.0948  2.2246  0.4338
  918SOL     OW 2752   1.982   2.951   2.773  0.1282 -0.1172  0.0179
  918SOL    HW1 2753   1.918   2.989   2.843 -2.4930  1.2367  0.8872
  918SOL    HW2 2754   2.077   2.974   2.786 -1.7876 -1.3824 -0.0606
  919SOL     OW 2755   1.327   2.343   1.375 -0.0043  0.4449  0.0324
  919SOL    HW1 2756   1.347   2.240   1.381  0.7518 -0.5497 -1.1116
  919SOL    HW2 2757   1.409   2.402   1.372 -1.0215 -1.6184  1.4728
  920SOL     OW 2758   2.930   0.114   2.312  0.0643 -0.2946 -0.4027
  920SOL    HW1 2759   2.944   0.151   2.409  2.3263  2.0666  0.2949
  920SOL    HW2 2760   3.008   0.139   2.251  0.3248  2.8923  1.7637
  921SOL     OW 2761   2.970   0.965   1.735 -0.4723  0.5742  0.2924
  921SOL    HW1 2762   2.983   1.062   1.721 -2.7431  0.4375 -1.6518
  921SOL    HW2 2763   3.058   0.916   1.754 -0.3696 -2.0273 -0.9711
  922SOL     OW 2764   2.001   1.922   0.416 -0.3922 -0.1442  0.3870
  922SOL    HW1 2765   2.054   1.917   0.504 -1.3398 -0.8418  0.1453
  922SOL    HW2 2766   1.931   2.002   0.419 -1.9037  0.5700 -0.1500
  923SOL     OW 2767   0.976   1.756   3.059 -0.1039  0.0461 -0.0215
  923SOL    HW1 2768   0.978   1.688   2.982  1.0875  0.0835 -0.4779
  923SOL    HW2 2769   0.965   1.856   3.030 -1.0611  1.0904  0.3777
  924SOL     OW 2770   0.762   0.366   0.187  0.6130  0.5402 -0.4439
  924SOL    HW1 2771   0.837   0.312   0.234  2.3789 -0.5220  3.6914
  924SOL    HW2 2772   0.802   0.405   0.101 -0.5921  0.7360  2.2875
  925SOL     OW 2773   2.426   0.292   1.001 -0.6436  0.0054 -0.0460
  925SOL    HW1 2774   2.379   0.373   0.965 -0.4145 -3.3988 -1.0240
  925SOL    HW2 2775   2.373   0.205   0.989 -1.5659  2.2206  0.2932
  926SOL     OW 2776   0.438   0.345   1.064 -0.3756  0.1027 -0.3926
  926SOL    HW1 2777   0.414   0.339   0.964 -0.7541  0.4185 -0.8822
  926SOL    HW2 2778   0.360   0.310   1.125  1.2819 -2.1090 -1.5950
  927SOL     OW 2779   0.143   1.217   2.514 -0.2759  0.1532  0.0751
  927SOL    HW1 2780   0.218   1.191   2.582  2.4141  1.8971  1.0316
  927SOL    HW2 2781   0.052   1.193   2.546 -2.0738  0.1620  1.1756
  928SOL     OW 2782   2.956   0.619   2.876  0.0527  0.0079  0.4130
  928SOL    HW1 2783   2.898   0.702   2.880 -0.1730 -2.0745  2.9994
  928SOL    HW2 2784   2.904   0.543   2.826  1.2140  0.7018 -0.0992
  929SOL     OW 2785   2.365   0.305   1.412  0.1236 -0.3258  0.1863
  929SOL    HW1 2786   2.286   0.334   1.358 -1.6020 -0.9054  0.0327
  929SOL    HW2 2787   2.342   0.207   1.432  1.2053  0.8059 -0.0932
  930SOL     OW 2788   1.827   0.736   1.878  0.2743 -0.5904 -0.6946
  930SOL    HW1 2789   1.760   0.695   1.942  1.5226  0.2982 -0.3136
  930SOL    HW2 2790   1.914   0.757   1.929 -3.2797 -1.5432 -0.7199
  931SOL     OW 2791   2.068   1.363   0.368 -0.3141 -1.2546 -0.1413
  931SOL    HW1 2792   2.140   1.293   0.364  0.7127 -0.4852  3.1820
  931SOL    HW2 2793   2.067   1.433   0.295  0.5734 -0.4075  0.0406
  932SOL     OW 2794   2.802   1.279   0.945  0.2212  0.4198 -0.6833
  932SOL    HW1 2795   2.702   1.305   0.960 -0.2529  1.7103  0.8283
  932SOL    HW2 2796   2.844   1.223   1.019  0.6732 -1.0219 -0.0425
  933SOL     OW 2797   2.743   1.577   1.196  0.4466 -0.3901 -0.1016
  933SOL    HW1 2798   2.753   1.647   1.268 -1.7135 -1.2567 -0.3107
  933SOL    HW2 2799   2.642   1.547   1.197 -2.5898 -1.8696  0.9160
  934SOL     OW 2800   1.851   0.637   2.337 -0.0085 -0.1555 -0.1856
  934SOL    HW1 2801   1.899   0.582   2.264  0.2545  0.3029 -1.0615
  934SOL    HW2 2802   1.900   0.623   2.422  2.0145  2.4229 -0.4987
  935SOL     OW 2803   0.193   1.790   0.621  0.4027  0.2318  0.0859
  935SOL    HW1 2804   0.114   1.785   0.683  4.4808 -0.4738 -2.3508
  935SOL    HW2 2805   0.266   1.855   0.655  3.8661  0.7550  1.4128
  936SOL     OW 2806   0.225   0.805   0.632  0.7437 -0.3169  0.3025
  936SOL    HW1 2807   0.275   0.892   0.654 -1.4372  2.1379  2.0394
  936SOL    HW2 2808   0.268   0.772   0.548 -0.6308 -0.0673 -0.8966
  937SOL     OW 2809   2.414   3.014   1.081 -0.3647  0.2817 -0.1658
  937SOL    HW1 2810   2.498   2.989   1.026  1.5488 -0.5511 -1.3872
  937SOL    HW2 2811   2.433   3.012   1.181  0.3527  2.0735  1.0752
  938SOL     OW 2812   2.810   2.308   0.304 -0.4256  0.1270  0.1426
  938SOL    HW1 2813   2.902   2.345   0.281 -2.1512  2.4637 -2.6148
  938SOL    HW2 2814   2.774   2.356   0.383  0.4589  0.3792 -0.1375
  939SOL     OW 2815   0.968   1.901   0.413  0.5950 -0.4398 -0.0841
  939SOL    HW1 2816   0.927   1.830   0.358  0.6678 -0.3365  1.8593
  939SOL    HW2 2817   0.906   1.923   0.493 -1.2571 -1.6241 -0.2333
  940SOL     OW 2818   3.050   0.291   2.993 -0.3138 -0.2809  0.2704
  940SOL    HW1 2819   2.959   0.252   3.013 -2.3311  1.3742  1.9857
  940SOL    HW2 2820   3.048   0.376   2.937 -0.5124 -0.7587 -0.7425
  941SOL     OW 2821   1.180   0.341   2.988  0.0179 -0.5324  0.2070
  941SOL    HW1 2822   1.148   0.434   3.011 -0.2391 -2.1499 -2.8917
  941SOL    HW2 2823   1.173   0.269   3.066  2.8939 -2.1834  1.9245
  942SOL     OW 2824   0.899   1.019   1.342 -0.1835 -0.3891 -0.3263
  942SOL    HW1 2825   0.995   1.050   1.359 -0.9682 -0.6246 -0.8777
  942SOL    HW2 2826   0.873   0.940   1.403 -0.4314  0.5303  0.0496
  943SOL     OW 2827   1.533   0.989   1.989 -0.2157  0.1408  0.1435
  943SOL    HW1 2828   1.540   0.920   1.913 -1.2495  0.5178 -2.1249
  943SOL    HW2 2829   1.443   0.985   2.033  0.2581  3.1544  1.2590
  944SOL     OW 2830   1.850   0.936   1.710 -0.1498  0.1649  0.3538
  944SOL    HW1 2831   1.838   0.858   1.775  2.4809  2.0084 -1.2895
  944SOL    HW2 2832   1.866   1.028   1.746  0.3968  0.9600  0.1163
  945SOL     OW 2833   2.976   3.028   0.280 -0.8906 -0.6078  0.1055
  945SOL    HW1 2834   3.054   2.960   0.270  0.1569 -1.2097 -1.3916
  945SOL    HW2 2835   3.006   0.034   0.239  1.1035  1.1729 -0.5278
  946SOL     OW 2836   2.822   0.842   1.920  0.0351 -0.3253  0.2729
  946SOL    HW1 2837   2.883   0.901   1.860  2.4896 -1.3997 -0.6523
  946SOL    HW2 2838   2.770   0.899   1.988 -0.4646  1.0649  0.7947
  947SOL     OW 2839   0.613   2.793   0.386  0.3249  0.7387  0.1421
  947SOL    HW1 2840   0.708   2.788   0.421  0.1229  2.0258  1.7041
  947SOL    HW2 2841   0.595   2.880   0.343  1.6578 -0.4513 -0.0255
  948SOL     OW 2842   2.399   1.377   1.602 -0.2211 -0.2181 -0.1857
  948SOL    HW1 2843   2.415   1.356   1.701 -0.8239 -2.2787  0.1737
  948SOL    HW2 2844   2.332   1.305   1.570  0.0314  1.0494  0.4039
  949SOL     OW 2845   0.470   1.047   2.490  0.4978  0.3283  0.4871
  949SOL    HW1 2846   0.444   1.101   2.574 -0.0591  0.4171  0.4699
  949SOL    HW2 2847   0.435   0.953   2.499  1.8274  0.7022  1.0555
  950SOL     OW 2848   0.438   2.805   0.823 -0.3842  0.1817  0.4564
  950SOL    HW1 2849   0.354   2.839   0.873 -0.6555 -0.7752  1.1565
  950SOL    HW2 2850   0.423   2.797   0.723 -2.7564  1.5522  0.0700
  951SOL     OW 2851   0.877   1.371   2.409  0.0494 -0.3380 -0.0844
  951SOL    HW1 2852   0.971   1.348   2.381  0.5405 -1.5570  1.2399
  951SOL    HW2 2853   0.862   1.314   2.491  2.0339 -0.9259 -1.7749
  952SOL     OW 2854   0.731   1.431   0.267  0.2767 -0.6288 -0.1341
  952SOL    HW1 2855   0.759   1.422   0.170  0.2544 -0.5384  3.3456
  952SOL    HW2 2856   0.760   1.354   0.325 -1.6265 -0.0785 -0.7473
  953SOL     OW 2857   2.430   0.205   2.433  0.5175  0.3740 -0.1401
  953SOL    HW1 2858   2.420   0.279   2.499  2.3201 -0.3189 -0.2413
  953SOL    HW2 2859   2.477   0.125   2.479 -2.0812 -2.1569 -0.7611
  954SOL     OW 2860   1.456   1.180   0.953  0.1419  0.2641  0.2599
  954SOL    HW1 2861   1.442   1.120   0.872 -0.3343  0.0706 -1.2370
  954SOL    HW2 2862   1.471   1.271   0.920  1.4655 -3.1207 -1.2515
  955SOL     OW 2863   0.598   1.993   2.822  0.0013 -0.3981  0.4462
  955SOL    HW1 2864   0.637   1.973   2.915  0.6665  0.5496 -1.0652
  955SOL    HW2 2865   0.497   1.998   2.818 -0.5950  4.4884  3.1712
  956SOL     OW 2866   1.944   0.524   2.100 -0.5096  0.0506 -0.4558
  956SOL    HW1 2867   2.001   0.447   2.074 -2.1559  0.8808  1.3336
  956SOL    HW2 2868   1.845   0.509   2.083  0.4660  0.9771 -2.3214
  957SOL     OW 2869   2.025   1.991   2.649  0.1567 -0.3309 -0.1780
  957SOL    HW1 2870   2.109   1.958   2.600  0.9593 -0.1369 -1.1663
  957SOL    HW2 2871   2.046   2.035   2.738 -0.9966  0.3606 -2.4820
  958SOL     OW 2872   1.420   1.429   1.499  0.0410 -0.0042  0.2308
  958SOL    HW1 2873   1.325   1.399   1.492  4.9274  1.2620  0.0671
  958SOL    HW2 2874   1.443   1.507   1.437 -1.0842  1.2759  2.0449
  959SOL     OW 2875   2.236   2.446   2.707  0.2648 -0.2165  0.1866
  959SOL    HW1 2876   2.257   2.370   2.775 -0.6718 -0.8332  0.6255
  959SOL    HW2 2877   2.149   2.421   2.660  2.0795 -3.2061 -1.2830
  960SOL     OW 2878   0.157   0.699   2.504 -0.1567 -0.0282  0.2628
  960SOL    HW1 2879   0.108   0.694   2.416  0.7265  0.5064 -1.4374
  960SOL    HW2 2880   0.086   0.734   2.570 -0.3731 -2.5057  1.9718
  961SOL     OW 2881   0.690   0.899   2.522  0.5682  0.0104 -1.1244
  961SOL    HW1 2882   0.668   0.803   2.547  0.2802 -2.5168  0.2601
  961SOL    HW2 2883   0.608   0.956   2.510 -1.4327  0.2352 -3.5944
  962SOL     OW 2884   0.934   1.230   2.710  0.1254  0.6862  0.4246
  962SOL    HW1 2885   0.999   1.238   2.786  0.0257  0.6462 -3.3047
  962SOL    HW2 2886   0.950   1.143   2.662  1.4141 -1.6706  1.6326
  963SOL     OW 2887   2.420   2.359   0.245  0.1357  0.5354 -0.3304
  963SOL    HW1 2888   2.474   2.410   0.315 -1.3591 -0.1385 -2.1641
  963SOL    HW2 2889   2.416   2.260   0.263 -0.7133  1.1897 -0.2370
  964SOL     OW 2890   1.173   2.461   1.568 -0.2802  0.6482  0.3283
  964SOL    HW1 2891   1.199   2.420   1.475 -0.7551  1.3229 -3.1735
  964SOL    HW2 2892   1.168   2.564   1.564  0.1881  0.5364 -0.7380
  965SOL     OW 2893   1.449   1.465   0.342  0.3180  0.1589 -0.5836
  965SOL    HW1 2894   1.525   1.522   0.382  2.8732  1.1675 -0.7083
  965SOL    HW2 2895   1.380   1.444   0.420 -1.8006  2.2886  0.0664
  966SOL     OW 2896   0.093   1.789   0.353 -0.0519 -0.1945 -0.2954
  966SOL    HW1 2897   0.143   1.778   0.444 -0.6869 -0.4529  1.7448
  966SOL    HW2 2898   3.079   1.755   0.359 -2.2907  0.9053  0.9298
  967SOL     OW 2899   1.881   0.145   2.025  0.3850 -0.2179  0.1276
  967SOL    HW1 2900   1.960   0.210   2.024 -3.1359 -4.4656 -2.3680
  967SOL    HW2 2901   1.864   0.118   2.122  0.5076 -2.1353 -1.6610
  968SOL     OW 2902   1.754   0.432   0.433  0.6748 -0.3317 -0.0776
  968SOL    HW1 2903   1.773   0.488   0.350 -0.7612 -0.2199  1.3940
  968SOL    HW2 2904   1.809   0.461   0.516  0.8394 -0.8297  1.0311
  969SOL     OW 2905   0.155   1.101   2.220 -0.4320 -0.0930  0.5179
  969SOL    HW1 2906   0.159   1.185   2.166 -2.1752  1.3548  0.0810
  969SOL    HW2 2907   0.172   1.115   2.319  2.2966 -3.0446  0.7700
  970SOL     OW 2908   2.454   1.533   1.286  0.0145 -0.0481 -0.2387
  970SOL    HW1 2909   2.392   1.538   1.204 -0.2687  0.8185  0.2640
  970SOL    HW2 2910   2.408   1.572   1.369 -2.9224 -2.0478 -0.3080
  971SOL     OW 2911   3.078   2.690   0.886  0.1354  0.0451  1.3487
  971SOL    HW1 2912   3.010   2.617   0.914 -2.2708 -0.4241  0.7681
  971SOL    HW2 2913   3.018   2.764   0.854 -1.8319 -3.0017 -0.0665
  972SOL     OW 2914   0.408   0.793   2.553 -0.0287  0.3504  0.0959
  972SOL    HW1 2915   0.409   0.813   2.653 -1.7674 -0.7970  2.0545
  972SOL    HW2 2916   0.316   0.769   2.527  4.1498  0.5740  0.1073
  973SOL     OW 2917   0.375   0.288   0.810 -0.9603  0.5760 -0.4583
  973SOL    HW1 2918   0.354   0.187   0.830  0.2410 -0.3901 -1.1192
  973SOL    HW2 2919   0.302   0.315   0.746  2.1910 -0.7383 -0.5376
  974SOL     OW 2920   2.110   0.735   1.330 -0.0090 -0.2608  0.3080
  974SOL    HW1 2921   2.149   0.733   1.424 -1.7248 -0.1751 -1.1273
  974SOL    HW2 2922   2.159   0.800   1.266  1.1970 -0.1704  0.2127
  975SOL     OW 2923   2.742   2.967   0.130 -0.2307  0.5317 -0.0670
  975SOL    HW1 2924   2.802   2.994   0.207  0.8594  3.5324  0.8529
  975SOL    HW2 2925   2.704   2.873   0.142 -1.3277 -1.7680 -0.2204
  976SOL     OW 2926   0.516   1.439   1.175 -0.0859 -0.2888 -0.5029
  976SOL    HW1 2927   0.456   1.437   1.260  1.1367  0.3755 -0.2939
  976SOL    HW2 2928   0.584   1.512   1.182  0.2589  1.9823  1.2763
  977SOL     OW 2929   1.220   2.211   0.638  1.0069  0.1757 -0.3628
  977SOL    HW1 2930   1.219   2.181   0.540 -2.3068 -0.0363 -1.2732
  977SOL    HW2 2931   1.307   2.263   0.660  1.6732  1.1605  1.2252
  978SOL     OW 2932   0.413   0.882   0.190  0.1512  0.0802  0.1374
  978SOL    HW1 2933   0.371   0.819   0.121  0.3481  2.3156  1.3347
  978SOL    HW2 2934   0.374   0.974   0.188 -0.7020  1.7108  0.8633
  979SOL     OW 2935   2.102   1.526   0.885  0.3220 -0.0373  0.5362
  979SOL    HW1 2936   2.130   1.481   0.798  0.0654 -0.6055 -1.2440
  979SOL    HW2 2937   2.179   1.547   0.948 -1.6221 -0.7620  1.8849
  980SOL     OW 2938   0.443   1.899   1.774 -0.1050 -0.0643 -0.0379
  980SOL    HW1 2939   0.409   1.816   1.722  1.2353 -0.8272 -3.3131
  980SOL    HW2 2940   0.521   1.859   1.830 -0.2338 -1.7218 -0.7172
  981SOL     OW 2941   2.851   1.230   0.291 -0.2364 -0.2392 -0.5645
  981SOL    HW1 2942   2.761   1.251   0.338  0.0813  0.7410 -0.0637
  981SOL    HW2 2943   2.854   1.277   0.200 -0.7702 -1.9088  0.6582
  982SOL     OW 2944   2.721   2.848   1.918 -0.3128 -0.3460  0.3292
  982SOL    HW1 2945   2.737   2.922   1.986  0.2320 -0.6275 -0.7073
  982SOL    HW2 2946   2.795   2.847   1.845  1.8412 -1.7000  2.0408
  983SOL     OW 2947   1.375   3.079   1.110  0.6249 -0.1710 -0.6275
  983SOL    HW1 2948   1.302   0.001   1.180 -2.0603  1.9358 -1.3632
  983SOL    HW2 2949   1.461   0.041   1.139 -0.4761  1.2242  1.4905
  984SOL     OW 2950   1.114   2.627   2.931  0.0290  0.0938  0.1854
  984SOL    HW1 2951   1.072   2.709   2.894 -0.9117 -0.7421 -0.4044
  984SOL    HW2 2952   1.197   2.596   2.883 -0.7079 -1.0249 -1.8903
  985SOL     OW 2953   1.802   1.852   1.706 -0.1743 -0.1710 -0.6252
  985SOL    HW1 2954   1.717   1.907   1.708  0.0963 -2.6004  0.0413
  985SOL    HW2 2955   1.791   1.751   1.690  1.0690  1.1923 -2.2777
  986SOL     OW 2956   2.210   0.048   2.515 -0.7361  0.2310  0.7602
  986SOL    HW1 2957   2.285   0.088   2.452  1.8730  0.5631  0.8350
  986SOL    HW2 2958   2.170   0.119   2.579  0.2949 -0.8883  0.5652
  987SOL     OW 2959   2.796   1.401   2.333  0.6164  0.0307  0.2252
  987SOL    HW1 2960   2.725   1.360   2.396 -1.2114  1.6587  2.2236
  987SOL    HW2 2961   2.870   1.445   2.390 -0.1944  2.6674 -0.8211
  988SOL     OW 2962   2.477   0.660   2.399 -0.4299  0.2449  0.2866
  988SOL    HW1 2963   2.482   0.564   2.353 -0.2725 -1.9643  0.5276
  988SOL    HW2 2964   2.517   0.731   2.340  0.1673 -3.8135 -0.7842
  989SOL     OW 2965   1.781   1.345   2.033  0.4758  0.2678  0.3339
  989SOL    HW1 2966   1.694   1.297   2.056  1.0408 -0.4478  1.1128
  989SOL    HW2 2967   1.858   1.292   2.064 -1.6985  0.3608  0.3975
  990SOL     OW 2968   0.426   1.150   0.339  0.3151 -0.6975 -0.5203
  990SOL    HW1 2969   0.362   1.105   0.402  2.4134  0.3810 -0.1776
  990SOL    HW2 2970   0.380   1.184   0.259  0.8296  1.3737  1.5192
  991SOL     OW 2971   0.347   1.703   2.854 -0.0075 -0.1823 -0.6460
  991SOL    HW1 2972   0.328   1.780   2.921  0.8037 -0.5836  1.8921
  991SOL    HW2 2973   0.357   1.614   2.898  1.6162 -1.7745 -0.2129
  992SOL     OW 2974   2.681   1.949   1.892  0.4460 -0.6039  0.4448
  992SOL    HW1 2975   2.669   2.007   1.976 -0.6569 -0.2236  1.9057
  992SOL    HW2 2976   2.651   2.004   1.815  4.6357 -1.2111  2.9952
  993SOL     OW 2977   0.214   2.842   0.509 -0.0107 -0.2777 -0.4113
  993SOL    HW1 2978   0.247   2.939   0.498 -0.6480 -0.2016  0.4984
  993SOL    HW2 2979   0.297   2.781   0.508 -0.5393  0.0163 -0.9830
  994SOL     OW 2980   3.082   1.972   1.425 -1.0071  0.0395 -0.0164
  994SOL    HW1 2981   0.011   1.946   1.526 -1.8477  0.4380  1.7579
  994SOL    HW2 2982   0.075   2.035   1.401 -1.6154 -0.1775 -0.4533
  995SOL     OW 2983   2.218   1.712   2.526  0.3817 -0.3418 -0.4540
  995SOL    HW1 2984   2.249   1.808   2.533 -0.3726 -0.0840  1.9863
  995SOL    HW2 2985   2.271   1.653   2.585 -1.3332  0.5222 -1.2219
  996SOL     OW 2986   2.030   1.504   3.065 -0.6230 -0.3374  0.2149
  996SOL    HW1 2987   1.928   1.498   3.081 -1.4714  1.3459 -0.0352
  996SOL    HW2 2988   2.053   1.550   2.974 -1.6933 -1.7481 -1.2123
  997SOL     OW 2989   1.553   1.261   1.674 -0.0787  0.1884  0.3058
  997SOL    HW1 2990   1.505   1.183   1.722  0.1540 -1.5214 -0.7449
  997SOL    HW2 2991   1.491   1.328   1.634  0.3504  1.6980  2.9206
  998SOL     OW 2992   2.879   2.107   0.923  0.5878  0.2881  0.4231
  998SOL    HW1 2993   2.922   2.196   0.947 -1.2963 -1.4041 -1.4923
  998SOL    HW2 2994   2.856   2.098   0.825 -0.6863  1.2076 -0.8014
  999SOL     OW 2995   1.916   2.656   0.285 -0.5414 -0.3486  0.0587
  999SOL    HW1 2996   1.855   2.718   0.233 -1.8061 -0.0209 -0.7256
  999SOL    HW2 2997   2.010   2.661   0.249  2.0499 -0.0784 -2.1165
 1000SOL     OW 2998   0.722   2.813   0.112  0.2316  0.0096 -0.2687
 1000SOL    HW1 2999   0.807   2.869   0.114 -1.3676 -0.9885  0.7161
 1000SOL    HW2 3000   0.659   2.861   0.179 -0.7347 -2.5014  2.0146
   3.08417   3.08417   3.08417
