1000 SPC/Fw water molecules t= 206.00000 step= 206000
 3000
    1SOL     OW    1   2.967   3.104   0.850 -0.1405 -0.0342 -0.1360
    1SOL    HW1    2   2.932   3.017   0.815 -0.2035  2.9031 -0.1410
    1SOL    HW2    3   3.058   3.116   0.811 -3.0230 -1.2679 -0.6739
    2SOL     OW    4   1.926   1.590   2.131 -0.3567  0.1952 -0.4651
    2SOL    HW1    5   1.916   1.660   2.203  0.7423 -0.2083  0.1560
    2SOL    HW2    6   1.897   1.493   2.165  0.0621 -2.7067 -0.2837
    3SOL     OW    7   2.076   2.603   2.266 -0.4583 -0.1707  0.0542
    3SOL    HW1    8   2.050   2.621   2.172  2.1225  1.6374  1.8773
    3SOL    HW2    9   2.151   2.536   2.283  0.6746 -1.4441 -1.5697
    4SOL     OW   10   1.974   1.801   2.372 -0.0906  0.1455  0.5579
    4SOL    HW1   11   2.055   1.820   2.315  2.4746  1.7044 -0.5129
    4SOL    HW2   12   2.002   1.734   2.443 -0.5516 -1.2413  0.9340
    5SOL     OW   13   1.361   0.626   1.768  0.7535 -0.4524 -0.4140
    5SOL    HW1   14   1.289   0.667   1.716  3.2095  0.5992  1.8597
    5SOL    HW2   15   1.372   0.532   1.738 -0.2838 -0.0834  1.8133
    6SOL     OW   16   2.639   0.770   2.782  0.0815  0.2440 -0.4730
    6SOL    HW1   17   2.697   0.722   2.708 -1.4384 -1.2525 -3.3793
    6SOL    HW2   18   2.599   0.703   2.851 -0.1395 -0.5110  0.4474
    7SOL     OW   19   0.724   1.352   1.392 -0.5305  0.2345  0.0883
    7SOL    HW1   20   0.771   1.444   1.395  1.4994  1.4691 -0.1066
    7SOL    HW2   21   0.644   1.351   1.331  2.1340 -0.2561  4.1858
    8SOL     OW   22   1.309   0.548   0.877 -0.1473  0.3342 -0.3518
    8SOL    HW1   23   1.222   0.513   0.832 -1.1387  0.0275 -0.6009
    8SOL    HW2   24   1.353   0.469   0.925  0.5887  0.7226  0.1510
    9SOL     OW   25   1.043   0.729   2.709 -0.6805 -0.0306  0.5697
    9SOL    HW1   26   1.115   0.670   2.751 -0.6678 -1.5281 -0.4239
    9SOL    HW2   27   1.077   0.761   2.617 -0.3750 -0.2586 -3.6388
   10SOL     OW   28   0.152   2.589   0.193 -0.4752  0.0324 -0.0425
   10SOL    HW1   29   0.220   2.522   0.159 -1.5231  3.1492 -0.0726
   10SOL    HW2   30   0.161   2.679   0.146 -1.9597 -0.0625 -1.2947
   11SOL     OW   31   0.672   1.292   3.068 -0.0080  0.1451 -0.2631
   11SOL    HW1   32   0.639   1.249   2.986  4.5785  0.9182  2.3705
   11SOL    HW2   33   0.603   1.293   0.028  1.1580  0.5589 -1.1929
   12SOL     OW   34   0.480   0.326   1.427 -0.3322  0.0074 -0.0641
   12SOL    HW1   35   0.457   0.263   1.356  0.8128 -0.5077  0.0730
   12SOL    HW2   36   0.520   0.275   1.506  0.5821 -0.6169 -1.7239
   13SOL     OW   37   0.978   0.183   0.329  0.6137  0.1234 -0.4471
   13SOL    HW1   38   1.046   0.142   0.261 -0.3735  0.6061  1.9615
   13SOL    HW2   39   0.929   0.109   0.376  4.1663 -0.5385 -1.0859
   14SOL     OW   40   1.261   2.389   1.396 -0.0142  0.6718 -0.1658
   14SOL    HW1   41   1.182   2.433   1.352  1.9956 -0.8515 -0.2932
   14SOL    HW2   42   1.265   2.386   1.500  0.4938  0.9538 -1.1775
   15SOL     OW   43   2.692   0.969   1.918  0.4075  0.2166 -0.1891
   15SOL    HW1   44   2.713   0.878   1.959 -2.4538 -1.4880 -0.2178
   15SOL    HW2   45   2.705   0.956   1.818 -1.9972  1.3235 -1.4058
   16SOL     OW   46   1.269   2.817   0.051 -0.3351  0.8210  0.2751
   16SOL    HW1   47   1.291   2.855   0.146 -1.5461  0.5299 -2.0039
   16SOL    HW2   48   1.242   2.717   0.058 -2.3653 -3.9975  2.7173
   17SOL     OW   49   0.792   0.121   1.321  0.2001 -0.0578  0.4609
   17SOL    HW1   50   0.760   0.090   1.413  1.1171  1.5604  2.3432
   17SOL    HW2   51   0.785   0.223   1.310  1.1727  0.6130 -1.5758
   18SOL     OW   52   1.189   0.717   0.123  0.2426  0.4979 -0.0949
   18SOL    HW1   53   1.127   0.795   0.139 -0.8919 -3.6462 -0.8264
   18SOL    HW2   54   1.277   0.750   0.087 -1.4107  0.2639 -1.1269
   19SOL     OW   55   2.093   1.609   3.024  0.4390 -0.0180  0.3594
   19SOL    HW1   56   2.041   1.700   3.029  2.0318 -1.2151 -1.2472
   19SOL    HW2   57   2.033   1.543   3.072 -0.4340  3.3237 -0.5841
   20SOL     OW   58   1.887   1.731   1.561  0.0848 -0.8034 -0.1375
   20SOL    HW1   59   1.949   1.690   1.632  0.2818  0.7607 -3.3495
   20SOL    HW2   60   1.816   1.661   1.536 -0.0823  0.7681 -0.5508
   21SOL     OW   61   0.839   1.178   0.154  0.1984 -0.7307 -0.0411
   21SOL    HW1   62   0.878   1.222   0.242  0.6135 -2.6943  0.2972
   21SOL    HW2   63   0.785   1.238   0.092  2.7505 -1.8864  2.3087
   22SOL     OW   64   2.341   3.054   1.227 -0.7165  0.1772  0.4204
   22SOL    HW1   65   2.251   3.083   1.182 -1.2038 -0.4925  0.2847
   22SOL    HW2   66   2.381   2.968   1.192  1.5329  2.8030 -0.4243
   23SOL     OW   67   3.088   0.813   1.730 -0.1528  0.1818  0.5590
   23SOL    HW1   68   0.019   0.749   1.672 -1.1150  1.6140 -0.1415
   23SOL    HW2   69   3.076   0.897   1.677  2.1636 -0.2189  2.4562
   24SOL     OW   70   2.133   2.568   1.161  0.2686 -0.1700  0.1487
   24SOL    HW1   71   2.192   2.608   1.086  0.7599 -1.6974  3.2506
   24SOL    HW2   72   2.046   2.533   1.120  1.1919 -0.4505 -3.2805
   25SOL     OW   73   1.933   2.943   2.847  0.3645 -0.2253  0.0294
   25SOL    HW1   74   1.845   2.998   2.836  2.2946  1.3597 -1.2429
   25SOL    HW2   75   1.964   2.900   2.759  0.2027  1.1475 -1.6670
   26SOL     OW   76   1.492   2.589   0.163  0.8275  0.3916 -0.1137
   26SOL    HW1   77   1.526   2.499   0.198  0.3294  0.1052 -0.6166
   26SOL    HW2   78   1.393   2.579   0.140  3.6132 -0.9533 -1.3297
   27SOL     OW   79   0.640   1.773   2.546  0.0346  0.0750 -0.1306
   27SOL    HW1   80   0.543   1.791   2.539  0.5145 -2.7725  0.5866
   27SOL    HW2   81   0.660   1.676   2.521  0.2903 -0.7608 -0.5967
   28SOL     OW   82   3.092   1.279   1.612 -0.4671 -0.1081  0.3507
   28SOL    HW1   83   3.050   1.347   1.546  0.2034 -1.5816  0.9879
   28SOL    HW2   84   0.073   1.302   1.626 -1.6237 -1.1445 -1.0726
   29SOL     OW   85   2.686   2.196   2.229  0.2136  1.1207  0.1825
   29SOL    HW1   86   2.745   2.109   2.235  0.0519  0.7415 -0.5670
   29SOL    HW2   87   2.719   2.253   2.152  0.4249 -0.7319  1.0722
   30SOL     OW   88   1.373   2.950   0.285  0.1594  0.5414 -0.3725
   30SOL    HW1   89   1.391   3.012   0.207 -0.1983 -0.1306 -0.9862
   30SOL    HW2   90   1.330   3.007   0.360 -0.1645  1.0047 -2.1282
   31SOL     OW   91   2.634   2.610   1.894  0.0397  0.0073 -0.1840
   31SOL    HW1   92   2.574   2.688   1.910  0.4457 -1.5258  0.7988
   31SOL    HW2   93   2.677   2.577   1.979 -1.0039  1.6029  1.2964
   32SOL     OW   94   1.198   1.015   1.586 -0.0772 -0.3152  0.6226
   32SOL    HW1   95   1.225   1.105   1.627 -1.2824  0.5838 -1.7917
   32SOL    HW2   96   1.103   1.003   1.555 -0.1789 -0.6326  0.4900
   33SOL     OW   97   0.011   2.734   2.623  0.5990  0.0628 -0.0402
   33SOL    HW1   98   0.048   2.733   2.530 -2.8794  1.9572  1.9247
   33SOL    HW2   99   3.035   2.774   2.623 -1.0518  1.1479 -0.0532
   34SOL     OW  100   1.942   0.308   0.920  0.2101  0.4613  0.7548
   34SOL    HW1  101   2.011   0.294   0.844 -0.2892 -0.1899 -2.0652
   34SOL    HW2  102   1.921   0.213   0.962  2.3162  0.2110  3.0261
   35SOL     OW  103   2.317   0.137   0.725 -0.1846 -0.4569 -0.3368
   35SOL    HW1  104   2.341   0.036   0.712  0.4081 -1.4463 -0.9246
   35SOL    HW2  105   2.367   0.188   0.652 -1.0369 -3.4904 -0.6844
   36SOL     OW  106   2.043   2.825   2.613  0.5250 -0.3702  0.1691
   36SOL    HW1  107   2.115   2.829   2.541 -0.4542 -0.3427 -1.7498
   36SOL    HW2  108   1.960   2.779   2.573  2.2164 -2.9354 -1.0208
   37SOL     OW  109   1.070   2.542   2.561  0.0489  0.2328 -0.1035
   37SOL    HW1  110   1.024   2.566   2.649 -1.2351 -0.7843 -1.3176
   37SOL    HW2  111   1.169   2.556   2.562 -1.3892 -4.5518 -1.7459
   38SOL     OW  112   2.758   0.314   2.630  0.4831  0.2801 -0.3046
   38SOL    HW1  113   2.682   0.317   2.702 -2.7284 -0.5047 -2.0378
   38SOL    HW2  114   2.840   0.275   2.673  1.5446  2.1417 -0.1836
   39SOL     OW  115   2.094   1.674   1.716 -0.2446  0.3727 -0.2222
   39SOL    HW1  116   2.125   1.776   1.719  0.1269  1.9285  0.0788
   39SOL    HW2  117   2.173   1.613   1.708 -2.2817  1.3338  2.3938
   40SOL     OW  118   0.320   3.036   2.673 -0.2055 -0.1096 -0.4121
   40SOL    HW1  119   0.326   0.013   2.645  0.2931 -2.2040  2.4903
   40SOL    HW2  120   0.253   3.028   2.748  0.2141  1.1545 -0.8471
   41SOL     OW  121   1.734   0.451   0.846 -0.6030 -0.3648  0.2856
   41SOL    HW1  122   1.721   0.535   0.899  0.4058 -1.6082 -1.3621
   41SOL    HW2  123   1.824   0.403   0.862  1.2589 -3.4783  0.8306
   42SOL     OW  124   0.669   0.553   1.409 -0.2086 -0.0746  0.1776
   42SOL    HW1  125   0.587   0.493   1.405 -0.1213 -0.1134  1.2451
   42SOL    HW2  126   0.670   0.615   1.496 -0.0628  0.7470 -0.5795
   43SOL     OW  127   2.675   1.426   2.183  0.2282  0.0397  0.2116
   43SOL    HW1  128   2.708   1.365   2.111 -1.0174 -1.2342 -0.9820
   43SOL    HW2  129   2.611   1.383   2.251 -1.2436  0.1458 -0.6036
   44SOL     OW  130   2.837   2.851   0.292  0.5462 -0.4502 -0.1722
   44SOL    HW1  131   2.794   2.931   0.347  1.3638  1.5386  0.8455
   44SOL    HW2  132   2.936   2.850   0.316  0.0128 -2.1462  1.3207
   45SOL     OW  133   3.043   2.409   2.011  0.3393 -0.1374 -0.3332
   45SOL    HW1  134   3.057   2.495   1.961 -0.8055 -1.2630  0.3595
   45SOL    HW2  135   3.073   2.330   1.952  1.1526 -1.5182 -1.1003
   46SOL     OW  136   2.279   2.063   2.386  0.1952  0.5517  0.2903
   46SOL    HW1  137   2.179   2.069   2.406 -2.0615 -1.0299  0.7718
   46SOL    HW2  138   2.318   2.121   2.461 -0.6250  1.5552 -0.2001
   47SOL     OW  139   1.979   2.160   1.658  0.2356  0.3592 -0.2359
   47SOL    HW1  140   1.996   2.107   1.746  0.0387  0.8631  2.4148
   47SOL    HW2  141   1.915   2.105   1.597  1.7807  1.4357 -3.4321
   48SOL     OW  142   0.647   1.706   0.437  0.0937  0.0021  0.8568
   48SOL    HW1  143   0.577   1.666   0.375 -1.2291  0.5858  2.0951
   48SOL    HW2  144   0.742   1.670   0.417 -2.5038  0.4582  0.2920
   49SOL     OW  145   2.422   0.326   2.587  0.6346  0.1046  0.1123
   49SOL    HW1  146   2.479   0.338   2.669 -3.5421  0.1944 -2.3482
   49SOL    HW2  147   2.434   0.408   2.528 -0.0052 -0.3392  0.6990
   50SOL     OW  148   2.369   0.972   0.411  0.4659  0.0451 -0.7610
   50SOL    HW1  149   2.424   0.899   0.453  1.0665  2.1493 -1.7367
   50SOL    HW2  150   2.359   0.952   0.314  0.3853  0.4459  3.3761
   51SOL     OW  151   1.982   0.696   1.146 -0.0138 -0.2848 -0.4394
   51SOL    HW1  152   1.911   0.624   1.157  0.2233  0.8813  2.9481
   51SOL    HW2  153   2.072   0.671   1.184  1.5682 -0.4690  3.2974
   52SOL     OW  154   1.189   1.265   3.110  0.4653  0.7141 -0.1052
   52SOL    HW1  155   1.259   1.209   0.041  2.0552 -0.4711 -1.5196
   52SOL    HW2  156   1.126   1.310   0.058  1.0690 -1.4726  1.5967
   53SOL     OW  157   1.011   1.581   2.165  0.3068 -0.0869 -0.3066
   53SOL    HW1  158   0.989   1.671   2.204 -0.6426  0.8331  0.0476
   53SOL    HW2  159   0.924   1.524   2.169  0.7776  1.6121  0.3220
   54SOL     OW  160   2.231   0.270   1.188 -0.2393 -0.2656  0.1796
   54SOL    HW1  161   2.171   0.188   1.178 -0.1283 -0.9270  0.5828
   54SOL    HW2  162   2.283   0.288   1.104  1.5940 -0.4505 -0.9737
   55SOL     OW  163   2.620   2.852   0.578 -0.4669 -0.5519  0.2878
   55SOL    HW1  164   2.663   2.767   0.543 -0.1127  2.0385  0.6613
   55SOL    HW2  165   2.646   2.928   0.510 -0.2188  0.7645 -1.4228
   56SOL     OW  166   0.945   2.742   1.488 -1.1895  0.2442  0.0118
   56SOL    HW1  167   0.887   2.755   1.409  2.7701 -1.0163  0.9519
   56SOL    HW2  168   1.020   2.808   1.490  0.8700  0.3886  0.1297
   57SOL     OW  169   1.537   1.300   0.394 -0.2784 -0.4063  0.0215
   57SOL    HW1  170   1.482   1.271   0.473 -2.4480 -3.5825 -1.0588
   57SOL    HW2  171   1.609   1.373   0.420  2.4060  0.4921  0.5376
   58SOL     OW  172   3.073   0.523   2.376 -0.2357 -0.3818  0.3003
   58SOL    HW1  173   3.016   0.603   2.346 -1.1307 -1.8217 -1.1954
   58SOL    HW2  174   3.017   0.437   2.395 -2.7680 -0.3119 -1.6323
   59SOL     OW  175   0.935   2.850   2.807  0.3632  0.1354  0.6083
   59SOL    HW1  176   0.995   2.875   2.887  1.2894 -0.4946 -2.2026
   59SOL    HW2  177   0.909   2.755   2.819  5.2736  1.8078  1.3503
   60SOL     OW  178   2.239   2.673   0.586 -0.1362 -0.6502  0.1185
   60SOL    HW1  179   2.334   2.648   0.610  0.8330 -0.2358  0.5434
   60SOL    HW2  180   2.229   2.738   0.507 -3.5782  2.8810  0.8860
   61SOL     OW  181   1.228   2.263   0.756  0.8291 -0.2119 -0.0061
   61SOL    HW1  182   1.184   2.306   0.673 -2.3161 -0.5549 -2.7863
   61SOL    HW2  183   1.266   2.334   0.817  0.0907 -0.8745 -1.3071
   62SOL     OW  184   2.502   2.233   2.941  0.2873 -0.1190  0.5890
   62SOL    HW1  185   2.524   2.133   2.928 -0.7114 -0.3149 -0.5005
   62SOL    HW2  186   2.587   2.288   2.928 -0.6629  0.1492  2.4934
   63SOL     OW  187   2.315   0.790   2.672 -0.6063 -0.1929  0.4411
   63SOL    HW1  188   2.287   0.749   2.584 -1.6616 -0.6244 -1.3704
   63SOL    HW2  189   2.410   0.761   2.698  0.0575  1.4068  0.9783
   64SOL     OW  190   1.243   0.662   2.918 -0.1755  0.0700 -0.1414
   64SOL    HW1  191   1.225   0.715   3.005 -1.1185 -4.4661  2.2356
   64SOL    HW2  192   1.339   0.645   2.916 -3.3686  0.6000  0.6400
   65SOL     OW  193   0.996   1.909   0.559 -0.2755 -0.5754 -0.0384
   65SOL    HW1  194   0.918   1.848   0.526 -0.1168  0.7314 -0.6686
   65SOL    HW2  195   1.077   1.897   0.500 -1.4308 -1.2374  1.8443
   66SOL     OW  196   0.264   1.070   1.932  0.0789  0.0578 -0.5432
   66SOL    HW1  197   0.299   1.160   1.972  1.5058 -1.7257 -0.8928
   66SOL    HW2  198   0.333   1.015   1.885 -0.0455  1.1982  0.6184
   67SOL     OW  199   2.256   3.048   2.502 -0.1228  0.2539 -0.3030
   67SOL    HW1  200   2.345   3.091   2.481 -0.2056  2.0504  1.3413
   67SOL    HW2  201   2.222   2.986   2.432 -0.2150  0.5359  2.2422
   68SOL     OW  202   0.709   1.989   1.235 -0.0821  0.3909  0.1314
   68SOL    HW1  203   0.756   1.963   1.146 -0.2138  1.7684  1.0103
   68SOL    HW2  204   0.618   1.943   1.242 -1.3871 -1.3913  0.1030
   69SOL     OW  205   1.154   2.588   0.410  0.1882  0.6146 -0.3659
   69SOL    HW1  206   1.063   2.606   0.450  0.6509 -1.4056 -1.4304
   69SOL    HW2  207   1.222   2.662   0.428  0.2599 -1.4712 -1.0216
   70SOL     OW  208   2.862   1.174   2.782  0.7567  0.2125 -0.2825
   70SOL    HW1  209   2.914   1.162   2.871 -0.1163 -0.8996 -2.0981
   70SOL    HW2  210   2.900   1.113   2.708  0.7779  0.5564 -0.8036
   71SOL     OW  211   2.838   1.425   2.686 -0.1539  0.5770 -0.3177
   71SOL    HW1  212   2.836   1.326   2.712 -0.5070 -1.2500 -1.8683
   71SOL    HW2  213   2.847   1.433   2.584 -0.7286 -1.0596 -0.2584
   72SOL     OW  214   2.946   2.209   0.288  0.2224 -0.2323  0.0219
   72SOL    HW1  215   2.872   2.137   0.284 -0.6409 -0.6114  0.6435
   72SOL    HW2  216   3.033   2.164   0.305 -0.6792 -1.5658  2.5389
   73SOL     OW  217   0.948   1.305   0.362 -0.3917 -0.3824  0.1714
   73SOL    HW1  218   1.011   1.249   0.417 -1.1594  0.3717  1.4688
   73SOL    HW2  219   0.976   1.401   0.382  1.6965  0.2966  1.7550
   74SOL     OW  220   2.972   0.602   2.979 -0.4631  0.0738 -0.2013
   74SOL    HW1  221   2.926   0.520   3.017  0.2292 -2.0556 -1.5990
   74SOL    HW2  222   2.985   0.597   2.878  1.5080  0.6647  0.4365
   75SOL     OW  223   2.047   1.511   1.911 -0.2806  0.1703 -0.0059
   75SOL    HW1  224   2.050   1.572   1.831 -1.4151 -0.1151  1.0521
   75SOL    HW2  225   2.015   1.558   2.001 -1.6650 -0.2607  2.9151
   76SOL     OW  226   2.128   2.817   1.520 -0.3895  0.2513 -0.4465
   76SOL    HW1  227   2.192   2.744   1.551 -4.1716  2.3364 -1.0933
   76SOL    HW2  228   2.035   2.781   1.536  1.0082  0.5344  0.5497
   77SOL     OW  229   2.684   0.292   1.208  0.4051  0.0432 -0.6634
   77SOL    HW1  230   2.758   0.287   1.137 -1.0212 -1.0002  0.9704
   77SOL    HW2  231   2.629   0.204   1.206 -0.6875 -1.0798  0.8609
   78SOL     OW  232   1.425   0.817   0.051  0.0227  0.7317  0.0776
   78SOL    HW1  233   1.480   0.736   0.016 -1.0210 -0.3820  0.4253
   78SOL    HW2  234   1.419   0.888   3.100  1.8656 -4.5335 -0.0323
   79SOL     OW  235   0.609   1.837   1.947 -0.2338 -0.6533 -0.2358
   79SOL    HW1  236   0.616   1.935   1.914  0.2549 -0.7734 -0.2348
   79SOL    HW2  237   0.695   1.789   1.926 -1.6080 -1.3836  0.4623
   80SOL     OW  238   1.585   0.873   1.168  0.1510 -0.1042  0.1250
   80SOL    HW1  239   1.572   0.819   1.256  2.5380 -0.3635  0.6934
   80SOL    HW2  240   1.496   0.856   1.114 -1.1995  0.1824 -1.8162
   81SOL     OW  241   0.457   0.150   0.966 -0.1908  0.2205  0.1619
   81SOL    HW1  242   0.411   0.116   0.880  2.6079 -1.3594 -1.5357
   81SOL    HW2  243   0.562   0.134   0.961  4.2873 -0.0268 -0.3136
   82SOL     OW  244   1.697   2.837   1.786 -0.0781 -0.1681 -0.0575
   82SOL    HW1  245   1.604   2.795   1.784  0.2185 -1.5496 -0.5125
   82SOL    HW2  246   1.725   2.851   1.884  0.4239  0.8461 -0.0113
   83SOL     OW  247   0.644   2.846   1.170  0.2486 -0.1309 -0.4281
   83SOL    HW1  248   0.574   2.815   1.096 -2.1413  0.1731 -1.5568
   83SOL    HW2  249   0.701   2.772   1.205 -1.0350  4.7467 -0.2563
   84SOL     OW  250   0.405   1.213   2.660  0.0468 -0.2705  0.6645
   84SOL    HW1  251   0.390   1.296   2.716  2.3728 -0.9542  1.0878
   84SOL    HW2  252   0.343   1.214   2.579 -1.2170  1.4055 -0.0610
   85SOL     OW  253   0.147   2.261   1.643  0.1444  0.0810  0.0526
   85SOL    HW1  254   0.211   2.333   1.664 -0.6252  1.5970 -1.4753
   85SOL    HW2  255   0.081   2.283   1.567 -0.9682  0.2538  2.2870
   86SOL     OW  256   2.778   2.635   1.633 -0.4935 -0.3465 -0.2446
   86SOL    HW1  257   2.814   2.551   1.588  1.3932  0.4985  0.9303
   86SOL    HW2  258   2.742   2.616   1.725  1.6991 -0.4920 -2.1729
   87SOL     OW  259   2.771   2.332   2.933 -0.0494  0.6875 -0.5495
   87SOL    HW1  260   2.818   2.388   3.004  0.8364  0.3465 -2.2211
   87SOL    HW2  261   2.806   2.355   2.844  1.8866 -1.6856 -1.3324
   88SOL     OW  262   0.464   1.781   1.269  0.0232 -0.3273 -0.2191
   88SOL    HW1  263   0.485   1.737   1.355  0.6698  1.0592 -1.7558
   88SOL    HW2  264   0.373   1.756   1.234  3.1235 -1.3878  1.0459
   89SOL     OW  265   0.981   0.042   1.908  0.4275  0.4064  0.3907
   89SOL    HW1  266   0.991   0.053   1.809  0.1016 -2.9665  1.9638
   89SOL    HW2  267   1.018   3.067   1.937  1.8571 -0.4273  0.9230
   90SOL     OW  268   0.191   1.895   1.890  0.3580 -0.1527 -0.5470
   90SOL    HW1  269   0.095   1.863   1.891  1.1051 -0.9922  0.7978
   90SOL    HW2  270   0.200   1.961   1.967  0.8480 -0.3168  0.4903
   91SOL     OW  271   1.033   1.567   0.791  0.1587 -0.0508 -0.0844
   91SOL    HW1  272   1.028   1.536   0.694  0.4782  1.5839 -1.7410
   91SOL    HW2  273   1.041   1.671   0.793 -0.2902  0.8896 -1.9976
   92SOL     OW  274   2.569   0.070   1.142 -0.5732  0.0718  0.8021
   92SOL    HW1  275   2.473   0.029   1.154 -1.5978  0.5456  1.1787
   92SOL    HW2  276   2.599   0.045   1.045  1.3324  0.2915 -1.4801
   93SOL     OW  277   2.563   1.511   3.079 -0.1187  0.2364  0.4594
   93SOL    HW1  278   2.597   1.424   0.002 -0.9077  0.0003  0.3425
   93SOL    HW2  279   2.578   1.516   2.980 -1.2194 -1.6061  0.3424
   94SOL     OW  280   2.890   2.491   2.627  0.1512  0.2617  0.7842
   94SOL    HW1  281   2.891   2.388   2.633  0.9592 -0.5371  0.8042
   94SOL    HW2  282   2.815   2.537   2.676  2.1074 -1.4069 -1.9765
   95SOL     OW  283   1.693   0.435   1.519 -0.3337 -0.3390  0.9407
   95SOL    HW1  284   1.712   0.516   1.583  1.6102 -1.9196  2.2488
   95SOL    HW2  285   1.764   0.418   1.444  0.4214 -3.5769 -2.1328
   96SOL     OW  286   3.022   2.764   1.689 -0.2375  0.1116  0.0344
   96SOL    HW1  287   2.939   2.711   1.664 -0.7794 -0.5503  0.8040
   96SOL    HW2  288   2.991   2.859   1.694  2.3113 -0.6242 -0.0084
   97SOL     OW  289   2.311   0.067   1.479  0.2560 -0.4824 -0.0249
   97SOL    HW1  290   2.324   0.006   1.399 -0.6843  0.0947 -0.0359
   97SOL    HW2  291   2.282   0.164   1.446  0.0462 -0.3240 -1.4038
   98SOL     OW  292   1.570   2.208   1.633  0.0851 -0.0260  0.0427
   98SOL    HW1  293   1.631   2.254   1.569  0.1393 -3.6346 -0.1380
   98SOL    HW2  294   1.591   2.107   1.637 -1.3147  0.4131  1.8014
   99SOL     OW  295   0.175   2.810   1.701 -0.0930 -0.2253 -0.1456
   99SOL    HW1  296   0.229   2.818   1.615  0.4519 -2.1734  0.4606
   99SOL    HW2  297   0.082   2.773   1.689  0.7379  3.1310  2.0201
  100SOL     OW  298   0.074   1.042   2.457 -0.3553 -0.3600  0.2957
  100SOL    HW1  299   0.073   1.004   2.361  0.1215  1.1151  0.2869
  100SOL    HW2  300   0.147   1.115   2.455  3.0805 -0.7995 -0.3576
  101SOL     OW  301   2.078   0.651   0.167 -0.1652 -0.1124  0.4509
  101SOL    HW1  302   2.024   0.585   0.121  1.7303 -0.0821 -0.8947
  101SOL    HW2  303   2.013   0.716   0.219 -2.6665 -1.6251 -1.4238
  102SOL     OW  304   0.237   0.586   1.154 -0.6715  0.3852 -0.1967
  102SOL    HW1  305   0.302   0.546   1.080  0.4563 -0.6267 -0.7138
  102SOL    HW2  306   0.195   0.668   1.116 -2.1274 -0.4676  0.5873
  103SOL     OW  307   2.582   0.775   2.254 -0.0213  0.2795  0.1726
  103SOL    HW1  308   2.529   0.863   2.265 -0.0621 -1.9515  2.8604
  103SOL    HW2  309   2.644   0.784   2.172  2.1272 -1.2005 -1.6693
  104SOL     OW  310   0.378   0.174   2.582 -0.5751 -0.0832 -0.3326
  104SOL    HW1  311   0.473   0.197   2.550  2.6349  0.0786 -0.3818
  104SOL    HW2  312   0.336   0.236   2.654 -1.8582  1.8728 -3.2937
  105SOL     OW  313   2.046   1.160   1.500 -0.0957 -0.4780 -0.3572
  105SOL    HW1  314   2.007   1.068   1.491  0.4488  2.7125  0.8928
  105SOL    HW2  315   1.970   1.225   1.538 -3.2772  1.1701 -1.4292
  106SOL     OW  316   1.035   2.951   0.264  0.2847  0.0021  0.0161
  106SOL    HW1  317   1.044   2.918   0.359  0.0417 -0.8000  1.8571
  106SOL    HW2  318   0.942   2.940   0.218 -0.3417 -0.7015  0.8537
  107SOL     OW  319   0.492   1.718   1.541 -0.0534 -0.3882  0.7567
  107SOL    HW1  320   0.452   1.735   1.629  0.2014  0.3046 -2.4928
  107SOL    HW2  321   0.594   1.719   1.530 -1.6911 -1.1705 -1.1365
  108SOL     OW  322   0.187   3.091   2.258  0.4187 -0.1245  0.1636
  108SOL    HW1  323   0.234   3.021   2.322  1.7904 -0.1483  2.9878
  108SOL    HW2  324   0.250   0.053   2.247 -0.2794 -1.3469 -1.9288
  109SOL     OW  325   2.105   0.277   0.174  0.1188 -0.2033  0.3422
  109SOL    HW1  326   2.053   0.269   0.089 -0.5468 -0.1982 -1.6477
  109SOL    HW2  327   2.160   0.198   0.196 -0.5152  1.8402 -0.9519
  110SOL     OW  328   0.394   2.635   2.516 -0.1158  0.4318  0.3743
  110SOL    HW1  329   0.469   2.641   2.450 -0.0727  0.2841 -1.6448
  110SOL    HW2  330   0.422   2.634   2.612  0.0091 -0.8797 -0.4367
  111SOL     OW  331   1.457   2.756   2.124  0.1015  0.0118 -0.5292
  111SOL    HW1  332   1.357   2.730   2.127 -4.2219 -0.7933 -1.1292
  111SOL    HW2  333   1.490   2.852   2.138  2.7010  1.9008 -0.8763
  112SOL     OW  334   1.960   2.177   2.585  0.2890  0.4266  0.3017
  112SOL    HW1  335   2.050   2.129   2.614  0.4236  0.6879  0.0046
  112SOL    HW2  336   1.895   2.108   2.553 -0.1040  0.1241 -2.5737
  113SOL     OW  337   2.201   2.912   1.921 -0.7817  0.3969 -0.2365
  113SOL    HW1  338   2.139   2.831   1.928 -2.9824  2.6561 -0.6362
  113SOL    HW2  339   2.187   2.964   1.833  0.2059 -1.1513  0.7835
  114SOL     OW  340   2.919   0.999   0.882 -0.2173 -0.1607 -0.2431
  114SOL    HW1  341   2.964   1.064   0.950  0.7434  0.8853  1.3002
  114SOL    HW2  342   2.911   1.024   0.780  0.9666  0.2668 -0.6440
  115SOL     OW  343   0.235   1.723   2.885  0.1626  0.4024 -0.6699
  115SOL    HW1  344   0.311   1.794   2.892  0.0220  4.5574 -0.6498
  115SOL    HW2  345   0.153   1.749   2.830  0.9759  1.7543 -0.6887
  116SOL     OW  346   0.347   1.324   2.025  0.3962  0.1775 -0.1567
  116SOL    HW1  347   0.390   1.392   1.963 -0.5471 -1.7120  1.3183
  116SOL    HW2  348   0.263   1.365   2.060  1.1522 -1.4193  0.0401
  117SOL     OW  349   2.715   3.056   0.434  0.1400  0.7208  0.2189
  117SOL    HW1  350   2.750   0.001   0.507  0.6517 -1.5930 -1.7227
  117SOL    HW2  351   2.686   3.112   0.356  0.9011  0.0271 -1.4631
  118SOL     OW  352   1.304   1.847   1.795 -0.9731 -0.1109  0.0642
  118SOL    HW1  353   1.207   1.825   1.812  0.3064 -0.6897  1.8884
  118SOL    HW2  354   1.342   1.898   1.878  0.7935  1.7474  3.1581
  119SOL     OW  355   1.216   2.149   0.308  0.5771 -0.2041 -0.2961
  119SOL    HW1  356   1.231   2.052   0.335 -0.4268 -0.1285  0.3476
  119SOL    HW2  357   1.156   2.206   0.372 -1.3259  0.3114  1.3213
  120SOL     OW  358   0.239   1.261   2.415 -0.1273  0.1780 -0.3665
  120SOL    HW1  359   0.198   1.355   2.402  1.1742  0.3621 -4.5673
  120SOL    HW2  360   0.311   1.242   2.345 -2.4069  1.2818  2.5490
  121SOL     OW  361   2.294   2.698   0.980 -0.0719 -0.2681 -0.0554
  121SOL    HW1  362   2.266   2.771   0.913  0.4515 -1.2003 -1.6289
  121SOL    HW2  363   2.360   2.731   1.053  0.3475 -0.7292  0.0121
  122SOL     OW  364   2.267   2.038   1.973  0.0602  0.0611 -0.2449
  122SOL    HW1  365   2.322   2.013   2.058  1.2130  0.6983 -0.2771
  122SOL    HW2  366   2.270   2.138   1.955 -0.6695 -0.2659 -2.8470
  123SOL     OW  367   3.035   3.112   0.515 -0.5892  0.6142  0.1582
  123SOL    HW1  368   3.004   0.061   0.444 -0.9739 -1.9348 -0.0138
  123SOL    HW2  369   3.070   3.027   0.467 -0.5794 -1.7783 -2.2483
  124SOL     OW  370   1.784   0.806   2.372  0.0527 -0.4916 -0.2064
  124SOL    HW1  371   1.693   0.837   2.348  0.8495 -1.3970  0.4018
  124SOL    HW2  372   1.834   0.778   2.285 -1.2543 -0.7034 -3.0129
  125SOL     OW  373   0.397   1.334   0.497 -0.3873  0.2579  0.2127
  125SOL    HW1  374   0.491   1.365   0.466  0.3499  2.1957  0.1464
  125SOL    HW2  375   0.412   1.276   0.581  0.3145 -2.0942 -1.6819
  126SOL     OW  376   2.396   1.635   0.597 -0.1329 -0.3266 -0.0222
  126SOL    HW1  377   2.383   1.542   0.544 -0.4961 -3.2426  1.3518
  126SOL    HW2  378   2.426   1.608   0.693 -1.1067 -1.5494 -0.6791
  127SOL     OW  379   0.319   2.030   1.633  0.0638 -0.0211  0.2226
  127SOL    HW1  380   0.286   1.966   1.705 -0.1710  3.1314  1.0813
  127SOL    HW2  381   0.259   2.116   1.632 -0.1219  0.1492 -0.8283
  128SOL     OW  382   0.869   0.563   2.521 -0.3801 -0.4801  0.0006
  128SOL    HW1  383   0.856   0.600   2.427  0.3810  0.3240  1.8769
  128SOL    HW2  384   0.869   0.635   2.589 -0.6133 -0.8893 -1.1653
  129SOL     OW  385   2.372   1.329   1.215 -0.2423  0.0624 -0.3053
  129SOL    HW1  386   2.421   1.243   1.203  2.1511  1.9234 -0.1221
  129SOL    HW2  387   2.310   1.332   1.293  0.2857  1.5271 -1.9576
  130SOL     OW  388   2.340   1.467   1.595  0.5828  0.0050  0.3645
  130SOL    HW1  389   2.408   1.400   1.628 -0.3222  1.8874  1.5832
  130SOL    HW2  390   2.387   1.553   1.562  1.5326  1.0265  0.6806
  131SOL     OW  391   2.655   1.030   2.868 -0.3350  0.4415  0.2177
  131SOL    HW1  392   2.731   1.083   2.827 -0.9224  1.1257  0.4363
  131SOL    HW2  393   2.636   0.935   2.823  1.1807 -1.7664 -1.7042
  132SOL     OW  394   2.452   2.428   2.229  0.0581 -0.0070 -0.2747
  132SOL    HW1  395   2.499   2.355   2.171  2.0988 -0.1792 -0.9825
  132SOL    HW2  396   2.502   2.516   2.218 -0.4153 -0.4431  2.0213
  133SOL     OW  397   0.492   1.165   0.701  0.0458 -0.3566  0.1216
  133SOL    HW1  398   0.461   1.250   0.749 -0.7366 -0.4901  1.0269
  133SOL    HW2  399   0.548   1.107   0.767  0.5472 -3.5670  0.9634
  134SOL     OW  400   0.229   1.205   0.162 -0.1361 -0.1941 -0.0529
  134SOL    HW1  401   0.221   1.273   0.233  0.1376 -1.5946  0.0967
  134SOL    HW2  402   0.192   1.236   0.075 -1.1062 -1.4008  0.2049
  135SOL     OW  403   2.123   1.593   1.223 -0.4558  0.1145  0.1260
  135SOL    HW1  404   2.198   1.562   1.284  0.4932 -1.5131  0.8920
  135SOL    HW2  405   2.046   1.527   1.209  1.7841  1.3838 -1.1501
  136SOL     OW  406   2.288   1.077   0.766 -0.1215 -0.1335  0.1079
  136SOL    HW1  407   2.254   1.038   0.682  3.4721  2.8186  3.7345
  136SOL    HW2  408   2.214   1.120   0.824  1.3594  2.5632 -0.2153
  137SOL     OW  409   2.731   1.797   0.879 -0.0695 -0.0794 -0.0592
  137SOL    HW1  410   2.641   1.829   0.910  3.1478 -1.5947 -0.3620
  137SOL    HW2  411   2.780   1.769   0.963  0.4026 -0.8652 -0.8786
  138SOL     OW  412   1.806   0.621   1.709 -0.0617 -0.1494 -0.2715
  138SOL    HW1  413   1.782   0.563   1.790 -4.8560  0.2339  2.8243
  138SOL    HW2  414   1.908   0.629   1.695  1.4868  1.2125  2.3597
  139SOL     OW  415   2.298   2.870   2.750  0.2468  0.0881  0.4609
  139SOL    HW1  416   2.298   2.955   2.802 -0.7105 -0.7114 -1.9647
  139SOL    HW2  417   2.215   2.873   2.689  1.3372 -0.8585 -1.7132
  140SOL     OW  418   1.655   1.785   2.093  0.1053 -0.6581 -0.5200
  140SOL    HW1  419   1.555   1.784   2.073  3.5193 -1.5610  0.5039
  140SOL    HW2  420   1.679   1.750   2.187  2.8576  0.6075  1.6377
  141SOL     OW  421   1.857   1.877   1.203  0.2996 -0.0863  0.1098
  141SOL    HW1  422   1.957   1.859   1.223  3.9551  0.0835 -2.6401
  141SOL    HW2  423   1.786   1.816   1.235  3.1880  2.0097  0.4963
  142SOL     OW  424   3.081   0.661   0.127  0.0384  0.0570 -0.4155
  142SOL    HW1  425   3.021   0.649   0.045  1.5302 -1.8457 -0.3530
  142SOL    HW2  426   3.023   0.672   0.213  0.5158 -0.0886 -0.4481
  143SOL     OW  427   0.336   2.088   2.741  0.6333 -0.1951  0.0475
  143SOL    HW1  428   0.367   2.034   2.819  0.1768  0.7006 -0.8745
  143SOL    HW2  429   0.387   2.180   2.733  1.5127  1.7536 -1.0878
  144SOL     OW  430   1.084   2.906   1.966 -0.3110  0.2178  0.1255
  144SOL    HW1  431   1.171   2.936   1.926  0.4403 -2.8413  1.9904
  144SOL    HW2  432   1.110   2.832   2.027 -2.9189 -0.3357  1.2955
  145SOL     OW  433   2.072   1.493   0.465  0.1577  0.1968 -0.0337
  145SOL    HW1  434   2.005   1.476   0.389 -0.2938 -1.1860  3.5641
  145SOL    HW2  435   2.164   1.463   0.439 -2.8872 -1.2552  1.7728
  146SOL     OW  436   2.575   0.013   2.857 -0.5147  0.1469  0.1680
  146SOL    HW1  437   2.575   3.112   2.755  0.8669 -1.5586 -0.6273
  146SOL    HW2  438   2.662   3.097   2.889 -1.5307  2.1470  0.7560
  147SOL     OW  439   2.952   2.424   1.019  0.2222 -0.2579  0.0100
  147SOL    HW1  440   2.899   2.448   1.107  0.8771  0.0311 -1.5399
  147SOL    HW2  441   2.897   2.374   0.948 -2.1623 -1.8822  0.9461
  148SOL     OW  442   1.698   3.078   2.911 -0.0794 -0.2247  0.1088
  148SOL    HW1  443   1.739   3.077   3.004 -1.8596  1.1524 -2.7235
  148SOL    HW2  444   1.614   3.018   2.909  4.2021 -2.4313  1.4451
  149SOL     OW  445   1.195   0.373   2.474 -0.0108 -0.0935  0.4405
  149SOL    HW1  446   1.249   0.396   2.556 -0.4858  1.3101  0.4296
  149SOL    HW2  447   1.098   0.350   2.492  0.2073 -1.4235  0.5074
  150SOL     OW  448   0.863   2.671   0.432  0.6733  0.0246 -0.0107
  150SOL    HW1  449   0.792   2.598   0.427  0.4950 -1.0039 -1.5821
  150SOL    HW2  450   0.859   2.726   0.521  0.6637  0.4399  0.5947
  151SOL     OW  451   2.890   1.791   0.149  0.3329  0.2636 -0.0739
  151SOL    HW1  452   2.829   1.773   0.070  1.6938  0.9577 -1.7306
  151SOL    HW2  453   2.953   1.871   0.126 -0.2680 -1.7764  2.1853
  152SOL     OW  454   0.178   1.143   0.887  0.2523 -0.2996 -0.2472
  152SOL    HW1  455   0.186   1.057   0.842 -2.6674  2.6187 -0.5371
  152SOL    HW2  456   0.169   1.212   0.811 -2.1441  2.2039  0.6226
  153SOL     OW  457   2.318   2.868   0.393  0.3835 -0.3459  0.5044
  153SOL    HW1  458   2.312   2.972   0.405 -2.7060  2.1186  1.5078
  153SOL    HW2  459   2.241   2.837   0.334 -1.4813  2.1989  2.0471
  154SOL     OW  460   0.782   0.345   1.756  0.2779 -0.6816  0.2453
  154SOL    HW1  461   0.803   0.441   1.744 -1.3164 -1.3011 -0.9005
  154SOL    HW2  462   0.768   0.331   1.858 -0.4782 -0.8889  0.7518
  155SOL     OW  463   3.092   2.036   1.318 -0.3315  0.1919  0.4618
  155SOL    HW1  464   0.063   1.985   1.338  1.9079 -0.0967 -0.9604
  155SOL    HW2  465   3.023   1.964   1.307 -0.4883 -1.2033  1.5726
  156SOL     OW  466   2.074   2.039   0.151 -0.1788 -0.2698 -0.2051
  156SOL    HW1  467   2.133   2.044   0.235 -1.6106  2.1021  3.1883
  156SOL    HW2  468   2.100   2.107   0.080 -0.4843 -0.5527 -1.1978
  157SOL     OW  469   1.113   2.630   0.845 -0.5309 -0.0938  0.4281
  157SOL    HW1  470   1.011   2.625   0.848 -1.7021 -0.7916  0.2918
  157SOL    HW2  471   1.134   2.725   0.812  2.0276  1.8667  0.0508
  158SOL     OW  472   2.461   0.553   2.391 -0.6146 -0.5361 -0.8840
  158SOL    HW1  473   2.367   0.591   2.408 -0.6070  0.8822  1.6489
  158SOL    HW2  474   2.519   0.614   2.335 -0.4217 -4.3016  0.2200
  159SOL     OW  475   0.635   0.436   2.935 -0.4161  0.0171  0.6297
  159SOL    HW1  476   0.724   0.482   2.927 -0.3234 -1.0850  2.4618
  159SOL    HW2  477   0.568   0.501   2.968  0.0320  0.8265 -2.4775
  160SOL     OW  478   0.774   2.146   0.199  0.4592 -0.0176  0.0730
  160SOL    HW1  479   0.757   2.227   0.138  2.5445  0.6323  3.4648
  160SOL    HW2  480   0.864   2.095   0.180  1.7226 -0.8917 -0.0037
  161SOL     OW  481   3.080   2.117   2.930 -0.0527 -0.0021  0.2823
  161SOL    HW1  482   3.117   2.114   2.832  2.9366 -1.8401 -1.7830
  161SOL    HW2  483   3.060   2.216   2.952 -1.0753 -3.1051  1.7183
  162SOL     OW  484   0.515   2.762   0.940  0.1607  0.1189 -0.2982
  162SOL    HW1  485   0.520   2.665   0.976  1.3613 -1.5018  1.1004
  162SOL    HW2  486   0.425   2.777   0.889 -2.3585 -1.6828 -2.8337
  163SOL     OW  487   2.253   0.636   2.980 -0.4751  0.1502  0.3512
  163SOL    HW1  488   2.157   0.655   2.948  3.8115  0.3460 -1.6558
  163SOL    HW2  489   2.263   0.679   3.071  0.6462 -1.5959 -2.4991
  164SOL     OW  490   2.974   2.069   0.689 -0.4810 -0.1832 -0.3163
  164SOL    HW1  491   3.031   1.992   0.709  0.3558 -2.2976 -0.1197
  164SOL    HW2  492   2.937   2.109   0.776 -1.5424 -1.2430 -1.2593
  165SOL     OW  493   2.969   3.058   1.629  0.2134  0.1224 -0.3735
  165SOL    HW1  494   3.049   3.062   1.563  2.9927  0.4270 -2.6391
  165SOL    HW2  495   2.885   3.017   1.589  0.6752 -0.9006  0.1835
  166SOL     OW  496   2.124   0.313   0.727 -0.0896  0.3186 -0.6270
  166SOL    HW1  497   2.175   0.400   0.760  1.8738  2.4202 -0.0318
  166SOL    HW2  498   2.198   0.240   0.722 -0.2116 -1.9421  1.6715
  167SOL     OW  499   0.415   0.471   0.965  0.1939 -0.2092  0.0065
  167SOL    HW1  500   0.504   0.503   1.005 -2.1436 -0.6743  0.4973
  167SOL    HW2  501   0.424   0.373   0.941 -0.6857  3.2525 -1.4319
  168SOL     OW  502   2.244   3.024   2.170 -0.7006  0.0199  0.2104
  168SOL    HW1  503   2.238   2.945   2.233  2.7560  1.0838 -1.5341
  168SOL    HW2  504   2.237   3.003   2.071 -0.1320  2.3921  1.6749
  169SOL     OW  505   0.161   1.368   0.705  0.1684 -0.3773 -0.5067
  169SOL    HW1  506   0.217   1.373   0.623  0.6735 -2.7513  0.4343
  169SOL    HW2  507   0.161   1.455   0.753 -3.5976 -2.7696 -1.2237
  170SOL     OW  508   2.750   0.833   1.238  0.2948 -0.0740  0.1197
  170SOL    HW1  509   2.789   0.750   1.199 -1.0324  1.5653 -0.9812
  170SOL    HW2  510   2.669   0.812   1.301  0.9642 -0.3482 -2.1937
  171SOL     OW  511   1.264   2.515   1.839  0.1084  0.0670 -0.0566
  171SOL    HW1  512   1.306   2.438   1.782  1.6628 -0.4167  1.0397
  171SOL    HW2  513   1.172   2.535   1.806 -0.2136 -0.8610  1.0815
  172SOL     OW  514   0.360   2.499   1.261 -0.1994 -0.1361  0.0260
  172SOL    HW1  515   0.338   2.491   1.358  1.0122  0.7519  0.6599
  172SOL    HW2  516   0.305   2.575   1.224  0.0389  2.2570  0.4678
  173SOL     OW  517   1.410   0.040   0.116 -0.6519 -0.0173 -0.5885
  173SOL    HW1  518   1.418   0.100   0.031 -0.6434  1.3641 -2.6345
  173SOL    HW2  519   1.460   0.076   0.199  3.1457 -2.0570  0.2269
  174SOL     OW  520   1.197   2.373   2.934 -0.2520 -0.0001 -0.1092
  174SOL    HW1  521   1.218   2.337   3.027 -1.6323  0.5859  0.0222
  174SOL    HW2  522   1.096   2.372   2.927  0.7648 -0.8899 -0.2687
  175SOL     OW  523   1.776   3.079   0.061  0.7181  0.1892  0.1657
  175SOL    HW1  524   1.793   3.093   0.158 -0.8546 -0.5719 -1.1656
  175SOL    HW2  525   1.706   3.008   0.049  1.2806 -2.6873 -0.5607
  176SOL     OW  526   1.376   0.197   3.017 -0.8368  0.1419 -0.5066
  176SOL    HW1  527   1.360   0.291   3.057  1.4846  3.3173 -1.7094
  176SOL    HW2  528   1.294   0.152   2.979  0.7390 -0.5665  1.8584
  177SOL     OW  529   0.892   1.383   0.962  0.1335  0.3391 -0.2796
  177SOL    HW1  530   0.950   1.358   1.042  2.5469  1.4111  0.4104
  177SOL    HW2  531   0.934   1.460   0.905 -0.6791  0.9465 -0.3357
  178SOL     OW  532   2.757   1.717   2.187 -0.0033  0.5089 -0.4834
  178SOL    HW1  533   2.835   1.674   2.135 -0.3527 -1.0753  2.5837
  178SOL    HW2  534   2.709   1.643   2.236  0.7440  1.4909  0.4251
  179SOL     OW  535   0.533   2.651   2.764 -0.0736 -0.0555  0.2359
  179SOL    HW1  536   0.566   2.745   2.726  0.7572  1.3039  1.1272
  179SOL    HW2  537   0.587   2.583   2.707  3.0082 -1.1257 -1.1367
  180SOL     OW  538   1.808   1.894   1.883  0.1479 -0.1073 -0.4149
  180SOL    HW1  539   1.871   1.956   1.939  2.9084 -1.1383  2.5434
  180SOL    HW2  540   1.749   1.842   1.946  0.1345  1.3949  1.5596
  181SOL     OW  541   1.123   1.137   2.402  0.4571 -0.1829  0.3154
  181SOL    HW1  542   1.165   1.139   2.494  1.0555  2.7641  0.5557
  181SOL    HW2  543   1.109   1.234   2.365 -1.7792  1.1816  0.5042
  182SOL     OW  544   0.018   0.366   2.639 -0.2979 -0.6133 -0.2048
  182SOL    HW1  545   0.060   0.329   2.552  3.4110  0.2165 -2.4117
  182SOL    HW2  546   0.100   0.370   2.704  2.4604 -0.4454  1.0649
  183SOL     OW  547   1.171   0.430   2.796  0.1850 -0.0169  0.4533
  183SOL    HW1  548   1.186   0.503   2.867  1.1745  1.7096 -1.3097
  183SOL    HW2  549   1.255   0.413   2.744 -0.4325 -1.6535  0.1613
  184SOL     OW  550   0.963   1.253   1.467  0.7503  0.6305 -0.2072
  184SOL    HW1  551   0.969   1.148   1.469 -0.1661  0.0984 -2.3221
  184SOL    HW2  552   0.877   1.282   1.426  0.2730  1.2365 -1.1386
  185SOL     OW  553   2.954   1.260   1.296 -0.4055 -0.1124  0.2037
  185SOL    HW1  554   3.014   1.339   1.328  2.3814  0.0892 -0.4401
  185SOL    HW2  555   2.854   1.289   1.299 -1.7737  0.8974 -2.3832
  186SOL     OW  556   0.786   1.448   2.746 -0.3098  0.3456 -0.0504
  186SOL    HW1  557   0.814   1.508   2.671  0.8562 -4.1276  1.6425
  186SOL    HW2  558   0.750   1.505   2.822 -1.4560 -0.4310  2.5564
  187SOL     OW  559   2.607   1.500   0.294 -0.0298 -0.5372  0.4866
  187SOL    HW1  560   2.616   1.434   0.219  1.2530  2.4346 -0.9305
  187SOL    HW2  561   2.692   1.520   0.344  0.3722  0.1337  0.0505
  188SOL     OW  562   0.196   2.304   0.782  0.4210 -0.4707  0.5029
  188SOL    HW1  563   0.245   2.218   0.806  1.0522 -0.2852  1.9503
  188SOL    HW2  564   0.153   2.296   0.690  1.7871  0.7668  1.0533
  189SOL     OW  565   2.615   1.036   0.040  0.3280 -0.4289  0.2693
  189SOL    HW1  566   2.631   1.063   3.061 -3.4022  0.9737  1.4945
  189SOL    HW2  567   2.646   0.942   0.059 -0.6493  1.8265  1.8865
  190SOL     OW  568   1.131   1.405   2.332 -0.1702 -0.3236 -0.0073
  190SOL    HW1  569   1.229   1.412   2.307 -0.4516 -1.7718 -1.4624
  190SOL    HW2  570   1.075   1.464   2.271  0.6831  1.2382  3.8128
  191SOL     OW  571   2.261   0.395   1.806  0.6608 -0.4891 -0.6384
  191SOL    HW1  572   2.314   0.402   1.723 -1.1148  0.3756  2.9639
  191SOL    HW2  573   2.245   0.294   1.823 -1.0871 -1.5058 -2.1419
  192SOL     OW  574   2.032   0.328   1.604  0.0626  0.4512  0.0925
  192SOL    HW1  575   1.988   0.240   1.620 -1.0116  4.4023 -2.4885
  192SOL    HW2  576   2.000   0.394   1.673  0.7905  0.0875  1.4900
  193SOL     OW  577   0.738   0.442   0.549 -0.1158 -0.0325 -0.3261
  193SOL    HW1  578   0.757   0.491   0.634 -0.0201 -3.8389  0.4799
  193SOL    HW2  579   0.763   0.496   0.467 -1.2681 -0.7042  2.4184
  194SOL     OW  580   1.251   2.971   1.109  0.2295  0.2095  0.4479
  194SOL    HW1  581   1.244   3.027   1.189  0.7282 -1.1805 -0.7373
  194SOL    HW2  582   1.169   2.991   1.046 -1.2033 -1.0953  0.1689
  195SOL     OW  583   2.574   0.797   0.509 -0.6838 -0.0535 -0.6393
  195SOL    HW1  584   2.633   0.761   0.433  1.6459  0.3936 -1.0262
  195SOL    HW2  585   2.623   0.814   0.596 -0.1038  0.3436  3.0327
  196SOL     OW  586   1.484   1.652   1.719  0.2884 -0.3715 -0.5328
  196SOL    HW1  587   1.538   1.638   1.808 -0.2815  0.0079  2.2870
  196SOL    HW2  588   1.428   1.737   1.729 -0.8394  0.3230 -0.3540
  197SOL     OW  589   3.085   2.887   0.369 -0.1126 -0.3726 -0.3174
  197SOL    HW1  590   0.051   2.931   0.332  1.3024  0.7566  1.2831
  197SOL    HW2  591   3.117   2.797   0.401 -0.4067  2.6879 -3.0296
  198SOL     OW  592   0.941   1.159   0.760 -0.0537 -0.1188 -0.2649
  198SOL    HW1  593   0.945   1.237   0.828 -1.1944  0.6759  0.2485
  198SOL    HW2  594   0.846   1.151   0.715 -1.5490  2.0515 -1.8529
  199SOL     OW  595   2.855   0.666   1.791 -0.2529  0.4776 -0.1729
  199SOL    HW1  596   2.820   0.666   1.886 -0.6294 -0.5429 -1.9760
  199SOL    HW2  597   2.949   0.704   1.778  1.6075 -3.1636 -1.6550
  200SOL     OW  598   2.177   1.994   2.705  0.2594  0.2923 -0.5731
  200SOL    HW1  599   2.256   1.938   2.687 -0.1497  3.1067  1.2600
  200SOL    HW2  600   2.183   2.017   2.803  0.1058  0.4072 -0.3038
  201SOL     OW  601   2.440   3.013   0.733 -0.2223  0.2294  0.3903
  201SOL    HW1  602   2.505   2.953   0.680 -0.5776 -2.5306  1.6837
  201SOL    HW2  603   2.362   2.958   0.748  1.3946  1.5929 -3.1137
  202SOL     OW  604   2.732   0.784   0.028 -0.1667 -0.3817  0.5502
  202SOL    HW1  605   2.674   0.703   0.025  0.0833 -0.2133  3.2166
  202SOL    HW2  606   2.817   0.773   3.094 -0.8111 -1.0871  1.6736
  203SOL     OW  607   1.415   1.425   2.318 -0.2608  0.1801  0.2689
  203SOL    HW1  608   1.457   1.408   2.226  1.4125 -0.6317 -0.0610
  203SOL    HW2  609   1.443   1.351   2.374  0.4400 -0.6609  0.1047
  204SOL     OW  610   0.948   1.797   2.307 -0.0650  0.2258 -0.0406
  204SOL    HW1  611   0.898   1.884   2.293  2.0445 -1.7870 -1.5753
  204SOL    HW2  612   1.009   1.802   2.388  0.9058  1.0963  0.9785
  205SOL     OW  613   1.410   1.914   1.559  0.0624 -0.5270 -0.4128
  205SOL    HW1  614   1.372   1.908   1.653  0.1491  0.9201  0.1530
  205SOL    HW2  615   1.510   1.916   1.567 -0.7258 -1.2014  0.7996
  206SOL     OW  616   3.033   0.608   2.692 -0.3705 -0.4126  0.1153
  206SOL    HW1  617   3.059   0.514   2.661 -1.6242 -1.7159 -0.0512
  206SOL    HW2  618   3.106   0.671   2.657 -1.3099 -4.0401  0.0853
  207SOL     OW  619   1.782   2.767   2.507  0.1541  0.3106  0.5637
  207SOL    HW1  620   1.809   2.691   2.439  0.7863 -0.1843 -2.1975
  207SOL    HW2  621   1.723   2.727   2.584 -1.7501 -1.7265  0.4009
  208SOL     OW  622   0.516   2.315   1.763  0.7240  0.2832 -0.2169
  208SOL    HW1  623   0.540   2.247   1.692  1.4359  0.0862 -1.3523
  208SOL    HW2  624   0.457   2.388   1.727  0.0154  1.0682 -0.4730
  209SOL     OW  625   1.792   0.695   2.834 -0.6804 -0.0384  0.5907
  209SOL    HW1  626   1.805   0.794   2.856 -0.6053 -2.3895  0.4038
  209SOL    HW2  627   1.792   0.677   2.733 -1.7718 -2.6152 -0.9290
  210SOL     OW  628   2.661   0.778   0.768  0.0416  0.1229 -0.3845
  210SOL    HW1  629   2.740   0.745   0.818 -1.9995  3.0647 -0.3361
  210SOL    HW2  630   2.577   0.747   0.815  1.3483 -0.4284 -2.5890
  211SOL     OW  631   0.856   0.580   0.763 -0.6595 -0.2636  0.2963
  211SOL    HW1  632   0.801   0.664   0.757 -0.0931 -0.7115  1.8265
  211SOL    HW2  633   0.838   0.537   0.855 -2.1058 -1.6247 -0.9894
  212SOL     OW  634   1.165   1.645   0.501  0.1453  0.2463  0.5727
  212SOL    HW1  635   1.212   1.734   0.495 -0.7163  0.4054 -0.2180
  212SOL    HW2  636   1.221   1.576   0.461 -1.2107  2.7011 -0.4375
  213SOL     OW  637   1.311   3.011   1.862  0.3899 -0.0587 -0.0818
  213SOL    HW1  638   1.282   3.062   1.776  3.7733  1.2077  2.0543
  213SOL    HW2  639   1.359   3.077   1.923  0.7068 -0.8416 -0.4622
  214SOL     OW  640   1.499   1.171   2.470  0.5354 -0.0344  0.3384
  214SOL    HW1  641   1.411   1.136   2.508  1.4623 -0.0113  0.1709
  214SOL    HW2  642   1.574   1.120   2.516  0.5068 -1.7407 -0.5021
  215SOL     OW  643   0.227   1.741   1.136 -0.0313 -0.5464 -0.4104
  215SOL    HW1  644   0.193   1.652   1.159  2.0423  2.9977 -3.1218
  215SOL    HW2  645   0.198   1.766   1.041  2.3851  0.4525 -1.9117
  216SOL     OW  646   0.575   2.919   2.303  0.1270  0.5990  0.4359
  216SOL    HW1  647   0.604   2.933   2.205 -0.4118  0.1732 -3.0698
  216SOL    HW2  648   0.615   2.989   2.367  1.4021 -0.1799 -2.6738
  217SOL     OW  649   2.366   0.960   0.127  0.2788 -0.0803  0.8183
  217SOL    HW1  650   2.403   0.867   0.160 -1.2647 -3.2281  0.4131
  217SOL    HW2  651   2.437   1.018   0.089 -1.1254 -0.9446  1.2663
  218SOL     OW  652   2.168   1.825   2.196 -0.2247 -0.0637  1.0496
  218SOL    HW1  653   2.247   1.758   2.201 -0.7093 -0.0183  2.4290
  218SOL    HW2  654   2.128   1.818   2.106 -1.0575  0.9784  3.0404
  219SOL     OW  655   1.578   1.022   0.339 -0.0650  0.3238 -0.0443
  219SOL    HW1  656   1.559   1.121   0.333 -0.6692 -0.3518 -2.3668
  219SOL    HW2  657   1.639   0.997   0.420 -0.6512 -3.1822  1.4385
  220SOL     OW  658   1.419   1.764   1.136  0.0811  0.3672 -0.2824
  220SOL    HW1  659   1.417   1.869   1.121  1.1127  0.1646 -1.5459
  220SOL    HW2  660   1.362   1.713   1.070  2.9487 -0.1963  2.3455
  221SOL     OW  661   0.294   0.437   3.004 -0.3219 -0.1772 -0.0551
  221SOL    HW1  662   0.234   0.410   3.083  1.3668 -1.5001  1.9610
  221SOL    HW2  663   0.306   0.542   3.009  0.8953  3.5800 -1.2250
  222SOL     OW  664   1.329   2.301   1.680 -0.4361 -0.0407  0.0535
  222SOL    HW1  665   1.265   2.218   1.676 -1.7593 -2.6143 -0.9954
  222SOL    HW2  666   1.426   2.272   1.655 -0.4439  0.3817  0.5674
  223SOL     OW  667   1.428   2.485   2.836 -0.0565  0.1131 -0.5471
  223SOL    HW1  668   1.490   2.523   2.907 -0.3353  0.6117 -1.1440
  223SOL    HW2  669   1.346   2.439   2.876  0.3383  4.0153 -0.8017
  224SOL     OW  670   2.767   1.304   0.957 -0.3674  0.2286 -0.4334
  224SOL    HW1  671   2.738   1.206   0.972 -1.0105  1.3923  1.4182
  224SOL    HW2  672   2.744   1.334   0.862  0.2756  1.3244  1.0081
  225SOL     OW  673   1.441   1.087   1.401 -0.7349  0.0544 -0.0969
  225SOL    HW1  674   1.357   1.086   1.455  0.8589  0.0723 -0.5943
  225SOL    HW2  675   1.493   1.004   1.418 -3.5767 -0.1005 -1.4238
  226SOL     OW  676   1.452   2.093   3.044 -0.3080  0.4357  0.3123
  226SOL    HW1  677   1.482   2.057   0.019 -0.5486 -1.1521  3.2453
  226SOL    HW2  678   1.534   2.114   2.989  0.7775  1.6882  1.1585
  227SOL     OW  679   1.089   2.143   1.307 -0.4419  0.0568 -0.1502
  227SOL    HW1  680   1.183   2.137   1.352  1.1248 -0.2532  1.6051
  227SOL    HW2  681   1.086   2.197   1.220  0.3466  1.1613  0.3556
  228SOL     OW  682   0.397   1.975   1.036  0.0567 -0.2154  0.0287
  228SOL    HW1  683   0.390   2.064   1.082 -0.1253  1.1770 -1.4908
  228SOL    HW2  684   0.377   1.897   1.096  2.6416  3.3798  1.1947
  229SOL     OW  685   2.134   0.868   0.011  0.3498  0.3308  0.4196
  229SOL    HW1  686   2.218   0.918   0.043  0.2601  1.2311 -2.1331
  229SOL    HW2  687   2.112   0.788   0.064 -0.1288  1.1954  1.0653
  230SOL     OW  688   1.016   0.877   2.090 -0.3435 -0.7434 -0.6355
  230SOL    HW1  689   1.027   0.959   2.032 -0.9641  1.5801 -0.2525
  230SOL    HW2  690   1.076   0.882   2.172 -2.9195  0.2237 -1.2083
  231SOL     OW  691   1.393   1.763   2.092  0.5118  0.1450 -0.1644
  231SOL    HW1  692   1.343   1.683   2.040 -0.1848 -1.0914 -2.3554
  231SOL    HW2  693   1.407   1.729   2.188  2.6531 -0.1989 -0.4196
  232SOL     OW  694   2.078   2.291   1.456 -0.2740 -0.1520  0.2530
  232SOL    HW1  695   2.043   2.252   1.541  1.9186  2.0278  0.8058
  232SOL    HW2  696   2.029   2.380   1.432 -0.2267  2.2119 -2.3414
  233SOL     OW  697   1.842   2.314   2.787 -0.3695 -0.0229  0.4615
  233SOL    HW1  698   1.887   2.269   2.704 -1.6867 -1.7739 -1.6676
  233SOL    HW2  699   1.913   2.370   2.837 -1.0892 -0.7865  1.4290
  234SOL     OW  700   1.037   2.936   3.052  0.2449 -0.2723  0.1346
  234SOL    HW1  701   1.119   2.916   3.109  1.5124 -1.2952 -0.9862
  234SOL    HW2  702   1.031   3.032   3.024  0.5172 -0.8322 -0.1526
  235SOL     OW  703   2.495   3.031   3.105  0.2289 -0.8392  0.1404
  235SOL    HW1  704   2.524   3.075   3.020  0.5745 -1.6642  2.1336
  235SOL    HW2  705   2.513   2.927   3.098 -1.5277 -4.9083 -0.1065
  236SOL     OW  706   2.400   2.379   2.509  0.5318 -0.4899 -0.0844
  236SOL    HW1  707   2.403   2.400   2.406  1.3445  1.5975  0.1241
  236SOL    HW2  708   2.493   2.344   2.531  1.1144  3.1255 -0.9378
  237SOL     OW  709   1.348   1.221   1.697  0.1625  0.2531 -0.4797
  237SOL    HW1  710   1.428   1.175   1.734 -0.5501  0.1394 -0.0954
  237SOL    HW2  711   1.370   1.313   1.659  0.2314 -3.5774 -1.7381
  238SOL     OW  712   2.049   0.430   2.106 -0.1590 -0.6401  0.1166
  238SOL    HW1  713   2.138   0.451   2.055 -0.2829  0.9685 -1.8973
  238SOL    HW2  714   2.070   0.413   2.207 -0.2630  0.5404  2.2743
  239SOL     OW  715   0.469   1.541   2.282 -0.1098  0.2196 -0.2178
  239SOL    HW1  716   0.422   1.468   2.228 -1.0917 -0.8347 -0.9527
  239SOL    HW2  717   0.463   1.633   2.234 -1.1363  1.6261 -0.0767
  240SOL     OW  718   2.919   2.848   0.789  0.7954 -0.2793  0.8198
  240SOL    HW1  719   3.010   2.806   0.770  1.5756  0.2342 -1.6652
  240SOL    HW2  720   2.849   2.775   0.783  0.5433 -1.2255 -0.2526
  241SOL     OW  721   1.620   2.179   0.927  0.0189  0.2967  0.3277
  241SOL    HW1  722   1.680   2.098   0.939 -2.6026 -0.1124 -0.8009
  241SOL    HW2  723   1.629   2.227   0.835 -0.6508  1.5204 -0.9701
  242SOL     OW  724   1.208   1.676   3.047 -0.2467 -0.3525 -0.2571
  242SOL    HW1  725   1.308   1.666   3.025  0.7639 -2.8367 -0.2124
  242SOL    HW2  726   1.155   1.667   2.961 -0.0672 -1.1391 -1.9429
  243SOL     OW  727   1.029   2.720   2.366  0.1699  0.4328 -0.1500
  243SOL    HW1  728   0.964   2.693   2.295 -0.2964  2.4411  0.7794
  243SOL    HW2  729   1.007   2.664   2.450  0.6686 -1.3013 -1.2560
  244SOL     OW  730   1.855   0.116   2.538  0.1251 -0.4066 -0.2354
  244SOL    HW1  731   1.957   0.134   2.529  2.1294  1.0110  0.8299
  244SOL    HW2  732   1.826   0.124   2.640  1.3955 -0.7202  1.6322
  245SOL     OW  733   1.387   2.707   0.494 -0.2049  0.3040  0.6641
  245SOL    HW1  734   1.436   2.628   0.547  2.8068  0.3452  1.0926
  245SOL    HW2  735   1.455   2.743   0.426 -1.8049  0.2266  1.3996
  246SOL     OW  736   1.034   0.114   3.029 -0.5505  0.4723  0.2150
  246SOL    HW1  737   0.944   0.156   3.049  1.2281 -0.7382 -1.4860
  246SOL    HW2  738   1.081   0.098   3.116 -2.0019  2.0310 -1.3387
  247SOL     OW  739   0.239   0.724   2.083  0.1135  0.0558 -0.3877
  247SOL    HW1  740   0.231   0.729   1.984  2.0244 -1.2531  1.5797
  247SOL    HW2  741   0.294   0.642   2.117  2.5840  0.6557  0.8614
  248SOL     OW  742   0.818   1.078   2.016 -0.0591  0.3662  0.5877
  248SOL    HW1  743   0.814   0.987   2.062 -0.1741 -0.5945 -0.9285
  248SOL    HW2  744   0.795   1.150   2.082  1.2801 -1.1365  0.3663
  249SOL     OW  745   2.197   0.470   0.351  0.0397  0.2861  0.1231
  249SOL    HW1  746   2.178   0.540   0.280  1.3246 -0.0362 -3.3500
  249SOL    HW2  747   2.188   0.377   0.312 -1.4216  1.4313  0.0628
  250SOL     OW  748   0.794   3.111   0.412  0.7581  0.1222  0.4850
  250SOL    HW1  749   0.700   0.000   0.451  0.5210  1.0710 -1.8670
  250SOL    HW2  750   0.786   3.042   0.333 -3.0582  1.7715  0.8380
  251SOL     OW  751   1.462   2.930   2.908  0.1690  0.1135  0.2970
  251SOL    HW1  752   1.403   2.916   2.990 -0.4250  0.7647 -0.4026
  251SOL    HW2  753   1.417   2.934   2.817 -2.5107 -0.9014 -1.5716
  252SOL     OW  754   1.945   1.333   2.259  0.0720  0.2167  0.0752
  252SOL    HW1  755   1.937   1.326   2.366  0.8438 -2.2893  3.2767
  252SOL    HW2  756   1.907   1.251   2.214  0.2928 -0.4672 -2.5857
  253SOL     OW  757   2.723   2.585   2.144 -0.2423 -0.8079 -0.3419
  253SOL    HW1  758   2.807   2.541   2.182 -0.5255 -0.8952 -2.5017
  253SOL    HW2  759   2.718   2.681   2.176  1.8025 -0.5168 -1.7751
  254SOL     OW  760   1.143   2.119   1.649 -0.1457 -0.6468  0.2967
  254SOL    HW1  761   1.056   2.167   1.626 -0.0020 -1.3721  1.1089
  254SOL    HW2  762   1.135   2.020   1.633  2.7639 -0.8765 -0.9522
  255SOL     OW  763   1.039   0.941   0.878  0.0026  0.0328 -0.2368
  255SOL    HW1  764   1.139   0.951   0.903  1.6551  0.9641  0.6842
  255SOL    HW2  765   1.007   1.023   0.824 -1.9176 -1.2861  0.3405
  256SOL     OW  766   1.690   2.061   2.144  0.0787  0.2007 -0.6645
  256SOL    HW1  767   1.673   2.122   2.069  2.3153 -3.3650  1.5197
  256SOL    HW2  768   1.686   1.962   2.116  0.5845 -0.4311 -3.4562
  257SOL     OW  769   0.311   2.734   2.937 -0.2687 -0.2302  0.0545
  257SOL    HW1  770   0.392   2.771   2.880  1.9671  1.5325 -2.4680
  257SOL    HW2  771   0.290   2.634   2.909 -1.5312  1.1582 -0.9780
  258SOL     OW  772   0.805   0.095   2.107  0.0119 -0.0653 -0.3985
  258SOL    HW1  773   0.843   0.157   2.173 -0.8841 -1.7585 -0.9436
  258SOL    HW2  774   0.878   0.063   2.042 -1.9871  0.6773  0.5553
  259SOL     OW  775   1.029   0.227   2.227 -0.4691  0.4612  0.5702
  259SOL    HW1  776   1.105   0.162   2.253 -1.3645 -0.6370  1.2531
  259SOL    HW2  777   0.980   0.251   2.313  0.4880 -1.8989  1.5679
  260SOL     OW  778   1.686   0.718   0.966 -0.0801  0.1547 -0.4642
  260SOL    HW1  779   1.644   0.780   1.036 -1.4184 -1.6048 -0.5281
  260SOL    HW2  780   1.741   0.776   0.902  1.8644 -1.3468 -0.2503
  261SOL     OW  781   0.260   0.306   2.784 -0.2180 -0.0315 -0.9149
  261SOL    HW1  782   0.237   0.216   2.826 -1.1400  1.2040  1.9653
  261SOL    HW2  783   0.285   0.366   2.864 -0.7733  2.4572 -0.3462
  262SOL     OW  784   2.741   2.852   2.223  0.4996 -0.6873 -0.4519
  262SOL    HW1  785   2.814   2.888   2.163 -2.3787  1.3666  0.0627
  262SOL    HW2  786   2.672   2.931   2.241 -3.2987  0.2233 -0.1508
  263SOL     OW  787   0.016   2.008   2.264 -0.0645 -0.0883 -0.1165
  263SOL    HW1  788   3.034   1.987   2.256 -0.1979 -0.1290  0.3280
  263SOL    HW2  789   0.030   2.068   2.348 -1.8634 -1.5460 -0.4060
  264SOL     OW  790   0.903   1.051   1.104  0.0274 -0.4495 -0.3337
  264SOL    HW1  791   0.964   1.128   1.134  0.0013  1.5298 -2.4839
  264SOL    HW2  792   0.950   1.009   1.021  2.6339 -1.5368  0.0189
  265SOL     OW  793   0.531   2.022   0.104  0.0179  0.4755 -0.2379
  265SOL    HW1  794   0.454   2.011   0.172 -1.5596 -2.7092 -0.8065
  265SOL    HW2  795   0.601   2.086   0.139  0.2180 -0.4307  0.0456
  266SOL     OW  796   1.138   0.905   0.422 -0.1450  0.7173  0.0191
  266SOL    HW1  797   1.227   0.870   0.382  3.8483  1.4862  1.0723
  266SOL    HW2  798   1.107   0.845   0.501 -0.0361 -0.7015  1.7893
  267SOL     OW  799   2.907   1.308   0.067  0.3631  0.1287  0.1440
  267SOL    HW1  800   2.943   1.297   0.164 -1.8234  1.5656  2.3667
  267SOL    HW2  801   2.951   1.238   0.005  2.4885  1.2414  3.5554
  268SOL     OW  802   2.318   0.117   2.860 -0.4452 -0.1990  0.3202
  268SOL    HW1  803   2.397   0.060   2.888 -1.0684  1.6359 -0.5896
  268SOL    HW2  804   2.232   0.071   2.890  3.0054  1.4812 -1.9529
  269SOL     OW  805   1.816   0.606   2.576  0.1812  0.5439  0.2654
  269SOL    HW1  806   1.743   0.534   2.567 -1.2244 -0.7395  1.8621
  269SOL    HW2  807   1.798   0.681   2.512 -3.2330 -2.9018  0.7483
  270SOL     OW  808   0.861   0.852   2.867  0.6844  0.0179  0.1627
  270SOL    HW1  809   0.926   0.807   2.809 -3.5183 -2.5334  4.9711
  270SOL    HW2  810   0.829   0.785   2.938 -0.6680 -0.7703  0.7143
  271SOL     OW  811   2.708   1.103   0.387  0.0003  0.6876  0.1573
  271SOL    HW1  812   2.638   1.033   0.377  0.6405 -1.8275  2.1859
  271SOL    HW2  813   2.775   1.092   0.313 -1.2299  1.4872  3.3663
  272SOL     OW  814   2.911   1.639   2.830 -0.2264  0.2915 -0.3220
  272SOL    HW1  815   2.892   1.575   2.756 -0.4188  0.3187  0.1653
  272SOL    HW2  816   3.002   1.688   2.825  1.8613  0.8446 -1.8104
  273SOL     OW  817   2.309   0.016   0.412 -0.2715 -0.0193  0.0495
  273SOL    HW1  818   2.363   0.091   0.455  2.1924  2.7195  0.1874
  273SOL    HW2  819   2.303   0.030   0.311 -0.1843 -1.2139 -0.3394
  274SOL     OW  820   0.519   2.510   1.022 -0.5715  0.8991 -0.1127
  274SOL    HW1  821   0.602   2.454   1.041 -3.1896  0.2940 -0.9729
  274SOL    HW2  822   0.458   2.520   1.104 -0.7420  2.1433 -2.0894
  275SOL     OW  823   2.360   1.453   0.421 -0.5300  0.3736  0.0462
  275SOL    HW1  824   2.400   1.484   0.334 -1.1399 -0.9759  0.6330
  275SOL    HW2  825   2.421   1.380   0.465 -0.1308 -1.7663  0.2393
  276SOL     OW  826   3.025   1.238   2.345 -0.1778 -0.3212  0.1056
  276SOL    HW1  827   3.087   1.177   2.404  1.3356  1.0675 -0.4512
  276SOL    HW2  828   2.935   1.193   2.338  1.0591  2.2227  1.7857
  277SOL     OW  829   2.026   2.797   1.277  0.2694 -0.0723  0.0479
  277SOL    HW1  830   2.070   2.739   1.206  1.0637 -1.0423 -0.5532
  277SOL    HW2  831   2.078   2.816   1.362 -1.6798 -0.1889 -0.9721
  278SOL     OW  832   1.202   3.088   2.207  0.2503  0.4017  0.3158
  278SOL    HW1  833   1.148   3.021   2.150 -1.7912 -2.4736 -0.5353
  278SOL    HW2  834   1.267   0.016   2.143 -2.7253 -1.3725  0.2242
  279SOL     OW  835   1.645   1.827   0.517  0.2936 -0.3592  0.0260
  279SOL    HW1  836   1.609   1.857   0.610 -0.4272 -0.8456 -0.1677
  279SOL    HW2  837   1.738   1.858   0.502 -2.7154  1.0479  0.2525
  280SOL     OW  838   0.294   1.624   0.792  0.0281 -0.7649  0.0740
  280SOL    HW1  839   0.331   1.677   0.717 -3.0205 -1.2533  0.0569
  280SOL    HW2  840   0.233   1.681   0.843  1.1306 -1.2937 -2.6755
  281SOL     OW  841   2.856   0.300   2.364  0.3025 -0.6050  0.1770
  281SOL    HW1  842   2.871   0.206   2.320 -0.2671 -2.5663  0.7302
  281SOL    HW2  843   2.825   0.298   2.461  1.2607  0.1075 -0.5923
  282SOL     OW  844   0.413   0.800   0.548 -0.4164  0.1647 -0.1346
  282SOL    HW1  845   0.434   0.781   0.647  2.1586  1.2947 -0.2629
  282SOL    HW2  846   0.377   0.715   0.507  1.6669  1.8107  0.2827
  283SOL     OW  847   1.805   1.754   0.144  0.2732  0.2940  0.1240
  283SOL    HW1  848   1.810   1.832   0.208 -0.0420 -0.2966  1.5933
  283SOL    HW2  849   1.876   1.769   0.070 -0.4972 -0.0276 -2.0304
  284SOL     OW  850   1.379   0.851   0.334  0.1821 -0.1610 -0.2910
  284SOL    HW1  851   1.401   0.837   0.234 -0.0535  4.9805  2.2784
  284SOL    HW2  852   1.440   0.923   0.373  1.4509  1.4565  1.6688
  285SOL     OW  853   2.208   0.670   2.411  0.1669 -0.4468 -0.1616
  285SOL    HW1  854   2.179   0.734   2.339  2.3554 -2.2345 -0.1656
  285SOL    HW2  855   2.132   0.636   2.466  1.7917 -0.0641 -1.8218
  286SOL     OW  856   1.576   2.754   1.295 -0.3404 -0.0940 -0.4925
  286SOL    HW1  857   1.497   2.728   1.243  2.7245 -1.8148 -0.1835
  286SOL    HW2  858   1.637   2.818   1.250 -1.3999 -0.4339  2.4561
  287SOL     OW  859   1.289   0.999   0.975  0.0980 -0.0786 -0.7827
  287SOL    HW1  860   1.312   0.910   1.022  0.6382 -0.2565  1.4193
  287SOL    HW2  861   1.310   1.080   1.034 -0.6707 -1.5598 -0.3308
  288SOL     OW  862   0.729   2.665   0.131  0.1100 -0.2868  0.0859
  288SOL    HW1  863   0.812   2.668   0.072  0.0441 -1.6106 -0.0972
  288SOL    HW2  864   0.736   2.597   0.207  1.1291  0.9570  0.4940
  289SOL     OW  865   0.453   1.486   1.838  0.2895 -0.3906  0.0340
  289SOL    HW1  866   0.551   1.488   1.872  3.7180  0.4854  0.7078
  289SOL    HW2  867   0.421   1.579   1.814  0.8014  1.4758 -2.0220
  290SOL     OW  868   1.675   2.375   1.101  0.6465  0.0755  0.4035
  290SOL    HW1  869   1.645   2.295   1.050 -0.1133 -2.8916 -0.0258
  290SOL    HW2  870   1.602   2.440   1.124 -0.1335 -0.2741 -2.3374
  291SOL     OW  871   1.847   2.555   3.099 -0.1309  0.4961  0.1338
  291SOL    HW1  872   1.908   2.624   3.056 -3.2817  0.4414  1.8368
  291SOL    HW2  873   1.894   2.507   0.055 -0.9328  1.3476  0.1521
  292SOL     OW  874   0.955   0.636   1.688  0.0864  0.4214 -0.4037
  292SOL    HW1  875   0.981   0.624   1.786 -1.8397 -2.0311  0.3295
  292SOL    HW2  876   1.026   0.691   1.638  0.1169  2.7651 -5.1283
  293SOL     OW  877   1.954   2.668   0.810  0.3134 -0.2422  0.2185
  293SOL    HW1  878   1.950   2.599   0.886  0.3026 -1.1847 -0.7367
  293SOL    HW2  879   2.031   2.730   0.824 -0.3777  0.8969 -0.3314
  294SOL     OW  880   0.473   0.797   2.479  0.1577 -0.3025 -0.2433
  294SOL    HW1  881   0.486   0.890   2.517 -1.4038 -2.7081 -0.8637
  294SOL    HW2  882   0.521   0.724   2.532  0.0612  0.7212 -0.5781
  295SOL     OW  883   1.461   1.655   0.858  0.0506  0.1255  0.0527
  295SOL    HW1  884   1.492   1.572   0.810 -2.5104 -0.8336  1.6263
  295SOL    HW2  885   1.367   1.653   0.876  2.0660  1.5892 -1.2635
  296SOL     OW  886   2.297   2.043   0.330  0.2445  0.3065 -0.3921
  296SOL    HW1  887   2.391   2.086   0.318  2.9021 -1.2711  1.2097
  296SOL    HW2  888   2.292   1.944   0.326  0.4248  2.3607  0.8825
  297SOL     OW  889   2.269   0.017   0.133 -0.5945  0.3984 -0.0198
  297SOL    HW1  890   2.352   3.089   0.090  3.0958 -1.6496 -0.9724
  297SOL    HW2  891   2.186   0.007   0.078 -2.0082 -0.2899  1.3980
  298SOL     OW  892   1.316   2.153   2.786  0.2133  0.1753 -0.1955
  298SOL    HW1  893   1.264   2.244   2.805 -0.8415  1.9371 -1.1419
  298SOL    HW2  894   1.346   2.103   2.871  1.4961 -0.9718 -0.4345
  299SOL     OW  895   1.356   2.554   2.564 -0.0223 -0.0330 -0.1398
  299SOL    HW1  896   1.395   2.645   2.552 -1.4065 -0.8039  1.6601
  299SOL    HW2  897   1.389   2.516   2.652  1.7909  0.3551  2.4210
  300SOL     OW  898   2.178   0.177   2.584 -0.4239  0.0583  0.0631
  300SOL    HW1  899   2.262   0.236   2.593 -1.8798 -0.5003 -2.0038
  300SOL    HW2  900   2.202   0.081   2.555 -0.1725 -1.6822  0.8573
  301SOL     OW  901   1.418   1.030   2.051  0.0942 -0.2840  0.0225
  301SOL    HW1  902   1.469   1.063   2.134  0.1617  0.3144  1.2874
  301SOL    HW2  903   1.461   0.951   1.998 -1.8872  0.6276 -0.5573
  302SOL     OW  904   2.610   2.310   0.095 -0.0306 -0.6936 -0.0725
  302SOL    HW1  905   2.642   2.400   0.122  1.1561 -2.0828 -0.6482
  302SOL    HW2  906   2.662   2.278   0.015 -0.3305  0.1414 -1.0197
  303SOL     OW  907   2.890   2.547   2.367 -0.5962  0.3746 -0.6972
  303SOL    HW1  908   2.980   2.542   2.320 -0.3876 -1.0899  0.7772
  303SOL    HW2  909   2.897   2.504   2.462  0.0164 -1.4676  3.4143
  304SOL     OW  910   2.867   0.628   1.505 -0.1027  0.1975  0.2977
  304SOL    HW1  911   2.883   0.633   1.609 -0.4146  0.3811  2.5309
  304SOL    HW2  912   2.796   0.562   1.482  3.2476 -1.1581  0.5180
  305SOL     OW  913   0.654   2.081   1.846  0.1417 -0.3941 -0.1121
  305SOL    HW1  914   0.571   2.134   1.875 -0.3748 -1.3084  0.3571
  305SOL    HW2  915   0.709   2.123   1.769  2.5552  2.5680  0.3230
  306SOL     OW  916   2.750   0.948   1.653 -0.5528  0.3478 -0.1537
  306SOL    HW1  917   2.720   0.851   1.624 -1.0935 -1.2540 -1.2346
  306SOL    HW2  918   2.844   0.971   1.623 -2.0825  0.0841 -1.9024
  307SOL     OW  919   1.507   0.808   1.905 -0.0273  0.2636 -0.1809
  307SOL    HW1  920   1.580   0.751   1.958  1.8834 -0.4116 -1.4161
  307SOL    HW2  921   1.455   0.749   1.843 -0.8307  0.6217  0.9127
  308SOL     OW  922   2.837   1.639   1.078 -0.6569  0.4917  0.3204
  308SOL    HW1  923   2.890   1.559   1.038  0.0387  1.1062  1.5835
  308SOL    HW2  924   2.756   1.608   1.119  1.4359 -1.5720 -0.5845
  309SOL     OW  925   2.621   1.451   1.133  0.1598  0.5428  0.2782
  309SOL    HW1  926   2.518   1.438   1.130  0.6377  0.2124  1.4718
  309SOL    HW2  927   2.662   1.395   1.061 -1.6849  0.3507  1.3061
  310SOL     OW  928   2.780   1.923   2.552  0.1408 -0.1636 -0.4326
  310SOL    HW1  929   2.696   1.862   2.576  0.9858 -0.3075  4.1120
  310SOL    HW2  930   2.810   1.959   2.641  0.0586  1.9466 -0.8982
  311SOL     OW  931   3.056   2.829   3.105 -0.4808  0.3946  0.6855
  311SOL    HW1  932   2.959   2.822   0.014  1.2820 -2.0979  2.1139
  311SOL    HW2  933   3.065   2.792   3.008 -0.7276 -0.0416  0.4694
  312SOL     OW  934   1.999   1.807   0.810  0.2053 -0.2186 -0.3309
  312SOL    HW1  935   2.045   1.800   0.721 -1.1038  1.2362 -0.1215
  312SOL    HW2  936   1.982   1.712   0.845  2.3694  1.3866  0.1264
  313SOL     OW  937   2.607   0.051   0.874  0.0115  0.1449  0.1364
  313SOL    HW1  938   2.541   3.112   0.813  0.0212 -0.8435 -0.3937
  313SOL    HW2  939   2.694   0.064   0.829 -1.6182 -0.8383 -0.0426
  314SOL     OW  940   1.340   1.484   0.305  0.6515 -0.2182  0.0610
  314SOL    HW1  941   1.394   1.405   0.330 -2.0310  2.4486  2.1558
  314SOL    HW2  942   1.390   1.548   0.243  1.4616  1.5498 -0.4872
  315SOL     OW  943   1.485   2.440   2.332  0.6498 -0.1817 -0.0683
  315SOL    HW1  944   1.439   2.495   2.401  2.3048 -1.1073 -1.0460
  315SOL    HW2  945   1.434   2.427   2.243 -0.0643 -2.0706 -0.4701
  316SOL     OW  946   3.039   0.899   0.466 -0.4757 -0.2074 -0.0980
  316SOL    HW1  947   2.973   0.965   0.510 -0.5837  2.5103  1.6209
  316SOL    HW2  948   0.016   0.937   0.484  2.3168  1.5131  2.9537
  317SOL     OW  949   0.461   3.056   0.329  0.6823  0.1181  0.6430
  317SOL    HW1  950   0.478   3.078   0.427  2.4294 -1.9640 -0.6507
  317SOL    HW2  951   0.486   2.963   0.303 -1.3275  2.5047  2.1343
  318SOL     OW  952   2.587   2.261   0.582 -0.3265 -0.3778 -0.0049
  318SOL    HW1  953   2.539   2.209   0.658 -0.0297  3.4515 -0.8503
  318SOL    HW2  954   2.564   2.230   0.491 -1.6066  1.9974  0.8784
  319SOL     OW  955   0.949   1.250   2.819  0.4605 -0.2282  0.2182
  319SOL    HW1  956   0.914   1.236   2.913  0.4744 -0.6506  2.4091
  319SOL    HW2  957   0.898   1.326   2.773 -2.1666  0.3837  1.8159
  320SOL     OW  958   0.773   2.371   1.859  0.3133  0.2833  0.1084
  320SOL    HW1  959   0.675   2.366   1.824 -2.0897  0.4789  0.2813
  320SOL    HW2  960   0.840   2.356   1.780 -0.1154  0.8897 -0.1861
  321SOL     OW  961   1.797   2.252   0.016 -0.1689  0.1603  0.5176
  321SOL    HW1  962   1.831   2.340   3.102 -0.0236  1.7576  0.5053
  321SOL    HW2  963   1.757   2.197   3.056 -0.9987 -1.4466  0.4739
  322SOL     OW  964   3.054   1.367   2.102  0.3852  0.0267  0.4888
  322SOL    HW1  965   3.048   1.316   2.188  0.4985 -2.1260  1.7271
  322SOL    HW2  966   3.024   1.310   2.019 -3.1121 -1.3304 -3.1716
  323SOL     OW  967   2.512   1.252   0.512  0.2585 -0.2942 -0.4583
  323SOL    HW1  968   2.441   1.183   0.525 -1.2758  1.3346  1.9510
  323SOL    HW2  969   2.592   1.210   0.465 -2.6277 -1.3758  0.0666
  324SOL     OW  970   0.108   2.874   2.830  0.2671 -0.6248  0.1602
  324SOL    HW1  971   0.067   2.821   2.751  0.6427 -0.6339  1.2018
  324SOL    HW2  972   0.184   2.816   2.872  0.6620 -0.9645  0.9363
  325SOL     OW  973   1.440   0.341   2.363  0.3312 -0.5099 -0.0950
  325SOL    HW1  974   1.467   0.248   2.342  1.6588  0.9143 -0.6574
  325SOL    HW2  975   1.346   0.358   2.400 -0.9820  0.6173  0.9874
  326SOL     OW  976   2.368   2.619   1.562 -0.2755  0.7165  0.0268
  326SOL    HW1  977   2.391   2.557   1.642 -0.9742  0.4698  1.7171
  326SOL    HW2  978   2.329   2.563   1.489  0.3462  0.5680  1.4032
  327SOL     OW  979   1.739   0.213   2.812  0.4670  0.4912 -0.1574
  327SOL    HW1  980   1.731   0.115   2.852 -1.1862 -3.1860  2.4517
  327SOL    HW2  981   1.833   0.244   2.807 -1.0321 -2.2056 -1.2900
  328SOL     OW  982   2.948   0.765   2.269  0.5179 -0.0956  0.7541
  328SOL    HW1  983   3.037   0.805   2.246 -4.5605 -0.5218  0.3868
  328SOL    HW2  984   2.893   0.819   2.337 -1.7236 -0.4188 -0.0456
  329SOL     OW  985   1.411   0.068   2.045 -0.6650 -0.4591  0.1173
  329SOL    HW1  986   1.350   0.138   2.001  0.3894  0.1157  1.4767
  329SOL    HW2  987   1.509   0.086   2.031 -0.7505  0.6629  3.0148
  330SOL     OW  988   2.955   1.811   1.267 -0.6864 -0.7672 -0.2952
  330SOL    HW1  989   2.939   1.755   1.184 -0.4616  2.1630 -0.6299
  330SOL    HW2  990   3.007   1.764   1.337 -2.6766  4.2682 -1.4268
  331SOL     OW  991   0.705   1.519   2.461 -0.4015  0.1651 -0.2575
  331SOL    HW1  992   0.670   1.537   2.368 -0.2911 -0.5702 -0.8787
  331SOL    HW2  993   0.711   1.418   2.467  1.3628 -0.5595  1.1995
  332SOL     OW  994   0.337   2.899   1.486 -0.0874  0.1133  0.1893
  332SOL    HW1  995   0.409   2.951   1.438  2.2139 -0.9793  0.5394
  332SOL    HW2  996   0.255   2.958   1.496 -2.9828  0.8354  1.1463
  333SOL     OW  997   2.596   2.705   1.445  0.4302 -0.1847  0.1041
  333SOL    HW1  998   2.672   2.666   1.500 -0.4607  1.3321 -2.1735
  333SOL    HW2  999   2.510   2.679   1.495 -0.1761 -0.1824  1.1132
  334SOL     OW 1000   0.846   1.903   1.020  0.3082 -0.2363  0.5447
  334SOL    HW1 1001   0.945   1.908   1.029  1.7897  0.2733  1.7234
  334SOL    HW2 1002   0.806   1.903   0.924 -1.9520 -1.2468  0.0142
  335SOL     OW 1003   0.265   2.262   3.021  0.3372 -0.0398 -0.0466
  335SOL    HW1 1004   0.170   2.236   3.039  2.8214  1.6110  0.7309
  335SOL    HW2 1005   0.315   2.180   2.994 -0.0856  0.1122  2.1668
  336SOL     OW 1006   0.373   0.106   1.764 -0.9488  0.5213 -0.0735
  336SOL    HW1 1007   0.276   0.129   1.738  0.3244  1.3091 -0.7784
  336SOL    HW2 1008   0.437   0.149   1.695 -0.2893 -0.3625 -4.7149
  337SOL     OW 1009   2.645   1.936   2.929  0.0148  0.1919  0.1688
  337SOL    HW1 1010   2.565   1.933   2.991  0.5186  1.5295  3.0067
  337SOL    HW2 1011   2.704   1.857   2.945 -3.0708  1.8060  0.0340
  338SOL     OW 1012   1.082   1.672   1.244 -0.3896  0.0781 -0.2275
  338SOL    HW1 1013   1.163   1.684   1.306 -1.1780  0.8750  0.3249
  338SOL    HW2 1014   1.067   1.764   1.194 -1.0825  2.2261 -1.6890
  339SOL     OW 1015   3.113   0.478   1.881 -0.2341 -0.3428 -0.1084
  339SOL    HW1 1016   3.018   0.444   1.868  0.0501  1.3038  3.2605
  339SOL    HW2 1017   0.028   0.446   1.971 -1.7630  1.5903 -0.0588
  340SOL     OW 1018   1.695   2.626   0.376  0.2455  0.2149 -0.5449
  340SOL    HW1 1019   1.703   2.539   0.326  2.0238  2.7506  1.1287
  340SOL    HW2 1020   1.741   2.614   0.468  2.7655 -3.2048 -1.2167
  341SOL     OW 1021   1.912   1.408   1.116 -0.2010  0.2540  0.3228
  341SOL    HW1 1022   1.961   1.320   1.138 -2.3074 -0.2732 -0.3057
  341SOL    HW2 1023   1.821   1.410   1.156 -1.8912 -1.1996 -0.4639
  342SOL     OW 1024   0.085   2.250   0.540  0.5740 -0.0384  0.1152
  342SOL    HW1 1025   0.002   2.200   0.578  1.6553  1.3070  0.2717
  342SOL    HW2 1026   0.112   2.212   0.451 -2.3622 -0.3322  1.3572
  343SOL     OW 1027   1.409   2.475   1.165  0.1519 -0.1414 -0.2773
  343SOL    HW1 1028   1.384   2.566   1.202  1.9044  0.0999  2.9317
  343SOL    HW2 1029   1.375   2.400   1.222  1.2009  2.1875 -0.4352
  344SOL     OW 1030   2.188   2.852   0.798  0.3557 -0.3620  0.3713
  344SOL    HW1 1031   2.117   2.923   0.787  1.0894 -0.2199  4.7395
  344SOL    HW2 1032   2.201   2.789   0.717  1.0669 -1.4335 -2.6541
  345SOL     OW 1033   2.851   2.041   2.811 -0.0545 -0.8466  0.0976
  345SOL    HW1 1034   2.764   2.022   2.858 -0.7779 -1.4852  1.6332
  345SOL    HW2 1035   2.929   2.054   2.877  1.0192  0.1986  0.6790
  346SOL     OW 1036   0.114   1.787   0.884  0.1980 -0.0454  0.6429
  346SOL    HW1 1037   0.042   1.731   0.833 -2.3439 -1.2069 -0.8409
  346SOL    HW2 1038   0.090   1.883   0.907  1.7925 -1.9921 -1.6652
  347SOL     OW 1039   1.910   2.499   1.380  0.0036 -0.2676  0.6622
  347SOL    HW1 1040   1.873   2.562   1.456 -3.8443 -0.8088  1.4665
  347SOL    HW2 1041   1.952   2.551   1.304  1.2020  1.0225  1.0902
  348SOL     OW 1042   1.044   1.724   2.811 -0.0488 -0.0138 -0.4797
  348SOL    HW1 1043   1.028   1.647   2.748 -2.8659  1.2659  0.2885
  348SOL    HW2 1044   1.042   1.818   2.766  1.5107  2.6484  1.0016
  349SOL     OW 1045   2.396   1.308   1.957 -0.4678 -0.0672  0.0344
  349SOL    HW1 1046   2.301   1.277   1.939 -0.2089 -1.4577 -0.4073
  349SOL    HW2 1047   2.411   1.407   1.945  0.2908 -1.6557  0.6700
  350SOL     OW 1048   0.091   2.520   1.435 -0.0885 -0.3366 -0.3339
  350SOL    HW1 1049   0.111   2.603   1.378  0.0982  0.8824 -3.0674
  350SOL    HW2 1050   0.096   2.441   1.373 -0.8839 -1.0212  1.0975
  351SOL     OW 1051   0.375   0.486   2.612  0.3476  0.3237  0.1633
  351SOL    HW1 1052   0.301   0.529   2.558 -0.7872  0.0326 -0.1824
  351SOL    HW2 1053   0.334   0.418   2.678  0.7341  0.0205  3.0008
  352SOL     OW 1054   0.920   2.465   1.533  0.6710  0.7276 -0.2118
  352SOL    HW1 1055   0.955   2.561   1.524  0.9546  0.6004  1.9777
  352SOL    HW2 1056   0.816   2.459   1.521 -0.3195 -1.8180  0.7682
  353SOL     OW 1057   0.981   1.578   2.534 -0.5167  0.1654 -0.5244
  353SOL    HW1 1058   0.895   1.607   2.491 -2.8697  1.5062 -2.2379
  353SOL    HW2 1059   1.026   1.504   2.482  1.4607 -2.4387 -0.2312
  354SOL     OW 1060   1.643   0.904   0.571  0.0561 -1.1677  0.1912
  354SOL    HW1 1061   1.658   0.804   0.576 -0.8719  0.5458  1.1517
  354SOL    HW2 1062   1.561   0.931   0.623  0.3429 -1.5565  2.1301
  355SOL     OW 1063   2.744   0.684   0.336 -0.0946  0.2249  0.4892
  355SOL    HW1 1064   2.727   0.732   0.250  0.7141 -0.7946  0.9219
  355SOL    HW2 1065   2.845   0.671   0.348 -0.6644 -2.0903  0.2093
  356SOL     OW 1066   2.646   1.091   2.533  0.7253 -0.1564 -0.6465
  356SOL    HW1 1067   2.686   1.001   2.520 -0.6249  2.3709  0.5254
  356SOL    HW2 1068   2.564   1.090   2.595 -0.6252  0.4249  0.5927
  357SOL     OW 1069   0.764   2.795   1.673  0.0701 -0.1381 -0.2183
  357SOL    HW1 1070   0.848   2.770   1.619 -0.4329  0.8879 -0.0808
  357SOL    HW2 1071   0.786   2.781   1.772  0.4846 -1.7790  2.2696
  358SOL     OW 1072   2.119   1.259   1.942  0.8568  0.0696  0.2007
  358SOL    HW1 1073   2.095   1.361   1.930 -0.6418  1.3086 -1.5199
  358SOL    HW2 1074   2.141   1.211   1.855  0.8418 -2.0812  0.8773
  359SOL     OW 1075   2.129   2.250   3.090  0.5652  0.2980  0.1224
  359SOL    HW1 1076   2.065   2.293   3.024 -1.2320  1.5352  0.3415
  359SOL    HW2 1077   2.221   2.292   3.089  1.1987 -5.9996  1.9537
  360SOL     OW 1078   2.250   0.551   0.802 -0.1300 -0.1993  0.0131
  360SOL    HW1 1079   2.326   0.608   0.845  1.4664  3.0228 -2.5303
  360SOL    HW2 1080   2.205   0.598   0.723 -1.6550  0.2525 -0.7325
  361SOL     OW 1081   1.852   0.054   0.968 -0.4283 -0.1971  0.3338
  361SOL    HW1 1082   1.886   3.109   0.899  0.1089  1.5242  2.6765
  361SOL    HW2 1083   1.750   0.067   0.967 -0.5192 -0.3242 -0.4161
  362SOL     OW 1084   1.361   1.214   0.570  0.0868  0.0107  0.3111
  362SOL    HW1 1085   1.263   1.223   0.546  3.2991 -1.9954 -2.1485
  362SOL    HW2 1086   1.378   1.137   0.632 -1.3485 -0.8213 -0.6923
  363SOL     OW 1087   2.523   1.611   2.437  0.7173 -0.3145  0.1605
  363SOL    HW1 1088   2.600   1.556   2.412 -2.9098  0.7601 -1.1858
  363SOL    HW2 1089   2.536   1.670   2.512 -0.6223 -3.7869  1.5537
  364SOL     OW 1090   1.241   0.628   1.309 -0.5059  0.2261  0.0195
  364SOL    HW1 1091   1.313   0.565   1.348 -0.0893 -2.0101 -2.5283
  364SOL    HW2 1092   1.155   0.582   1.280  0.6805 -0.4214  0.8684
  365SOL     OW 1093   0.306   3.095   0.757 -0.3472 -0.1128 -0.4687
  365SOL    HW1 1094   0.216   3.115   0.726  4.7194 -0.0424 -1.0504
  365SOL    HW2 1095   0.323   2.997   0.770 -2.3954  1.3924 -2.0385
  366SOL     OW 1096   2.845   1.524   0.443  0.1789  0.0049  0.5291
  366SOL    HW1 1097   2.800   1.553   0.530 -1.5671  0.6485 -0.9331
  366SOL    HW2 1098   2.919   1.596   0.430 -0.3696 -0.3517  2.0964
  367SOL     OW 1099   3.058   2.357   3.009 -0.1188  0.3285 -0.3201
  367SOL    HW1 1100   3.045   2.432   2.947 -2.4997  0.9979  1.2515
  367SOL    HW2 1101   3.061   2.404   3.104 -1.4515  3.6691  0.2043
  368SOL     OW 1102   0.071   2.308   1.020 -0.5164  0.4213  0.1559
  368SOL    HW1 1103   0.087   2.322   0.921 -1.0640  1.8277  2.7388
  368SOL    HW2 1104   3.096   2.343   1.041  3.2846 -0.4704 -0.1559
  369SOL     OW 1105   0.496   0.182   0.221 -0.1609  0.5403 -0.7458
  369SOL    HW1 1106   0.497   0.080   0.234 -1.7658 -1.6602  3.4298
  369SOL    HW2 1107   0.597   0.209   0.218  1.7248 -2.0473 -1.8794
  370SOL     OW 1108   0.359   0.978   1.420  0.2842 -0.1092  0.4460
  370SOL    HW1 1109   0.449   0.948   1.442 -1.9517  2.7431 -1.4716
  370SOL    HW2 1110   0.334   1.043   1.494  1.5026 -1.6730  1.3243
  371SOL     OW 1111   2.055   2.305   0.860 -0.2043  0.4400 -0.3085
  371SOL    HW1 1112   2.057   2.218   0.911 -0.4187 -3.2414  2.6056
  371SOL    HW2 1113   2.044   2.291   0.761 -0.0331  2.6081  0.3489
  372SOL     OW 1114   2.943   1.022   2.571  0.3988 -0.6788  0.4774
  372SOL    HW1 1115   2.866   0.979   2.516  2.0966 -2.1323  1.4771
  372SOL    HW2 1116   3.031   1.016   2.517 -0.6410 -2.1198 -1.1965
  373SOL     OW 1117   2.788   1.623   0.706 -0.0912 -0.0690 -0.4116
  373SOL    HW1 1118   2.770   1.693   0.780  0.9141  2.0831  0.0008
  373SOL    HW2 1119   2.734   1.535   0.730 -2.6561 -2.8031  0.2481
  374SOL     OW 1120   0.464   2.325   0.302 -0.4723  0.3278 -0.0390
  374SOL    HW1 1121   0.458   2.221   0.299  0.3185 -2.4423  0.3037
  374SOL    HW2 1122   0.407   2.370   0.230 -1.6322  0.6967  0.6181
  375SOL     OW 1123   0.746   0.306   0.245  0.1781  0.5850  0.4058
  375SOL    HW1 1124   0.830   0.258   0.274 -4.3515  2.0649 -0.1901
  375SOL    HW2 1125   0.762   0.407   0.230  2.1554 -0.1471 -0.8756
  376SOL     OW 1126   0.408   3.113   2.003  0.0310  0.2507  0.1947
  376SOL    HW1 1127   0.393   0.052   1.920  1.8109  0.0399  0.2943
  376SOL    HW2 1128   0.392   3.017   1.971 -0.7249 -1.8967  0.4751
  377SOL     OW 1129   1.102   2.286   2.438  0.5459 -0.6922  0.4587
  377SOL    HW1 1130   1.146   2.208   2.476 -3.5959  0.0684  1.1686
  377SOL    HW2 1131   1.110   2.368   2.496 -0.3732  0.3120 -3.0883
  378SOL     OW 1132   1.050   0.801   0.637 -0.0209  0.5825 -0.5204
  378SOL    HW1 1133   1.030   0.857   0.719  2.5153  0.0291 -0.3782
  378SOL    HW2 1134   1.129   0.745   0.664 -0.7499  1.2781 -1.9952
  379SOL     OW 1135   0.818   1.699   2.961  0.4974  0.0230 -0.2959
  379SOL    HW1 1136   0.819   1.637   3.040  3.5032 -0.6266 -1.6433
  379SOL    HW2 1137   0.915   1.699   2.926  0.7782  0.9592 -1.5366
  380SOL     OW 1138   2.982   1.943   1.660 -0.4489 -0.1416 -0.5619
  380SOL    HW1 1139   2.912   1.936   1.738 -0.7125  2.3082  1.6138
  380SOL    HW2 1140   2.987   2.034   1.619  0.4261 -0.7372 -2.0179
  381SOL     OW 1141   0.019   0.982   1.940  0.2932  0.0583 -0.2266
  381SOL    HW1 1142   0.114   1.023   1.939  2.8561  0.0373  0.4331
  381SOL    HW2 1143   3.118   0.912   1.868  0.5959  1.0475 -0.1363
  382SOL     OW 1144   2.361   2.407   3.107 -0.1143  0.1378  0.1640
  382SOL    HW1 1145   2.358   2.485   3.041 -0.0225  0.3654 -0.3932
  382SOL    HW2 1146   2.450   2.359   3.101  1.1851  0.3642  1.1004
  383SOL     OW 1147   2.447   2.012   2.161  0.3273 -0.4760  0.0831
  383SOL    HW1 1148   2.528   2.074   2.177  2.1598  0.5182  0.3512
  383SOL    HW2 1149   2.366   2.034   2.217 -1.5548  0.3170  0.1901
  384SOL     OW 1150   1.076   2.267   2.138  0.4021 -0.2703  0.3169
  384SOL    HW1 1151   1.106   2.268   2.233 -0.6798 -0.0806 -0.9087
  384SOL    HW2 1152   0.982   2.309   2.129 -0.8144 -2.0656  2.2873
  385SOL     OW 1153   2.686   2.100   1.045 -0.1363 -0.7166  0.1101
  385SOL    HW1 1154   2.601   2.159   1.047  0.8999 -0.9898 -0.6779
  385SOL    HW2 1155   2.683   2.047   1.133 -1.8404  1.9923 -0.4820
  386SOL     OW 1156   2.017   0.520   2.874 -0.3477 -0.1891 -0.1062
  386SOL    HW1 1157   1.955   0.594   2.837  0.0607  1.2977 -0.4507
  386SOL    HW2 1158   1.975   0.481   2.962 -3.1754  2.0440  0.9447
  387SOL     OW 1159   0.438   0.384   1.918 -0.1324  0.5010 -0.4497
  387SOL    HW1 1160   0.394   0.387   1.826  1.2484  0.5362  0.2704
  387SOL    HW2 1161   0.377   0.419   1.991  1.5043 -0.6070  0.3874
  388SOL     OW 1162   2.770   1.224   1.739  0.0476  0.6972  0.3483
  388SOL    HW1 1163   2.731   1.135   1.712 -1.2657 -0.6687 -0.9510
  388SOL    HW2 1164   2.842   1.214   1.809 -4.1800 -0.6974  0.4528
  389SOL     OW 1165   1.499   0.765   2.291 -0.5744  0.3050 -0.0977
  389SOL    HW1 1166   1.527   0.860   2.266 -0.1559 -1.0122  0.3536
  389SOL    HW2 1167   1.411   0.734   2.243 -3.2341  0.4190  0.7407
  390SOL     OW 1168   1.955   2.248   0.596  0.1885 -0.5035  0.3453
  390SOL    HW1 1169   2.041   2.198   0.572 -0.2569 -2.0802  1.3613
  390SOL    HW2 1170   1.950   2.335   0.549 -0.9516 -2.1222  2.0836
  391SOL     OW 1171   1.787   2.893   1.179  0.1489 -0.0614  0.5041
  391SOL    HW1 1172   1.792   2.887   1.075 -1.8806 -1.8123 -1.3094
  391SOL    HW2 1173   1.866   2.845   1.216  1.1673  2.1829  0.0636
  392SOL     OW 1174   2.792   2.506   1.240  0.6642  0.6297  0.1239
  392SOL    HW1 1175   2.787   2.608   1.231  1.0813 -0.7006  2.6051
  392SOL    HW2 1176   2.703   2.456   1.221 -1.1152 -0.3085 -1.3871
  393SOL     OW 1177   1.812   1.647   2.780 -0.1175  0.1157  0.1807
  393SOL    HW1 1178   1.876   1.732   2.781  0.8208 -0.5275  0.7644
  393SOL    HW2 1179   1.791   1.619   2.876 -0.9230 -0.6456 -0.2530
  394SOL     OW 1180   0.254   2.830   0.066 -0.2442 -0.1829  0.4068
  394SOL    HW1 1181   0.282   2.803   3.089 -1.4710  4.2133  0.2664
  394SOL    HW2 1182   0.158   2.859   0.074  1.5363  2.3498  0.1504
  395SOL     OW 1183   1.336   1.206   1.161  0.1333  0.2875  0.1301
  395SOL    HW1 1184   1.386   1.171   1.243  0.9252  0.5345 -0.9950
  395SOL    HW2 1185   1.379   1.291   1.127 -1.0771 -1.6965 -2.3961
  396SOL     OW 1186   2.094   0.838   2.828 -0.4357  0.3601 -0.5410
  396SOL    HW1 1187   2.138   0.877   2.910 -1.9683 -1.5666 -2.1329
  396SOL    HW2 1188   2.167   0.805   2.765  3.3704 -0.6163 -0.9506
  397SOL     OW 1189   0.111   0.811   2.615 -0.2232 -0.0643 -0.0921
  397SOL    HW1 1190   0.117   0.895   2.553  2.1249  0.9132  1.3861
  397SOL    HW2 1191   0.176   0.832   2.686 -1.7396  0.4648 -2.8762
  398SOL     OW 1192   1.355   0.423   0.024 -0.3184 -0.1101  0.1726
  398SOL    HW1 1193   1.414   0.492   3.094  0.0599 -0.0464 -0.0085
  398SOL    HW2 1194   1.252   0.441   0.021 -1.2773 -0.5908  0.9018
  399SOL     OW 1195   1.938   0.091   1.698  0.1978 -0.0008 -0.0266
  399SOL    HW1 1196   2.014   0.032   1.699 -2.1515  0.1497 -1.8162
  399SOL    HW2 1197   1.848   0.045   1.689 -2.0373 -0.3887  1.3415
  400SOL     OW 1198   0.154   1.755   2.476 -0.0487  0.0557 -0.4021
  400SOL    HW1 1199   0.154   1.759   2.375  0.4573 -1.3422 -1.7891
  400SOL    HW2 1200   0.054   1.752   2.506 -0.6364  1.5345 -0.0806
  401SOL     OW 1201   0.793   0.280   3.101 -0.4825 -0.4281  0.1068
  401SOL    HW1 1202   0.776   0.299   0.084  0.6402  1.6111 -1.4445
  401SOL    HW2 1203   0.748   0.354   3.043 -0.2756 -0.9956 -1.6621
  402SOL     OW 1204   0.638   2.458   1.496  0.2566 -0.8084 -0.5866
  402SOL    HW1 1205   0.593   2.370   1.528 -0.9813 -1.0754  1.8136
  402SOL    HW2 1206   0.599   2.550   1.526 -1.1805  2.3931 -0.5532
  403SOL     OW 1207   0.317   1.490   1.443 -0.1285  0.4175  0.4082
  403SOL    HW1 1208   0.287   1.419   1.515  0.2188 -1.6057 -1.2731
  403SOL    HW2 1209   0.380   1.557   1.488  0.5132  0.3873  1.8553
  404SOL     OW 1210   3.049   2.694   1.953 -0.3433 -0.2952 -0.2656
  404SOL    HW1 1211   3.034   2.711   1.857 -0.4214  0.2491 -0.9196
  404SOL    HW2 1212   3.012   2.774   2.006  1.5515  1.5535  0.3448
  405SOL     OW 1213   2.689   0.423   2.144  0.3933  0.0815 -0.2629
  405SOL    HW1 1214   2.592   0.397   2.169 -1.8665  0.0250 -1.6005
  405SOL    HW2 1215   2.756   0.399   2.214 -0.1495 -3.1287  0.0566
  406SOL     OW 1216   1.957   2.402   0.200 -0.6259 -0.6270  0.5672
  406SOL    HW1 1217   1.999   2.439   0.284  1.3699  0.2198 -0.2268
  406SOL    HW2 1218   1.975   2.307   0.175 -0.2523  1.0596 -0.3320
  407SOL     OW 1219   1.777   1.968   0.946  0.1199 -0.1944 -0.0151
  407SOL    HW1 1220   1.826   1.895   0.892  1.9041 -3.6518  1.0522
  407SOL    HW2 1221   1.812   1.969   1.044  0.3583 -2.0809  0.4098
  408SOL     OW 1222   0.611   0.502   2.186 -0.1790 -0.4506 -0.2670
  408SOL    HW1 1223   0.691   0.559   2.214 -0.2787 -1.2938  1.9910
  408SOL    HW2 1224   0.637   0.433   2.116  2.1148  0.5614  0.9485
  409SOL     OW 1225   2.519   1.869   0.652  0.4973 -0.1028 -0.1683
  409SOL    HW1 1226   2.619   1.868   0.633  0.1432  1.2144 -0.2267
  409SOL    HW2 1227   2.474   1.781   0.631  1.7400 -1.5216 -0.7991
  410SOL     OW 1228   2.468   1.532   0.864  0.6482  0.1066  0.2754
  410SOL    HW1 1229   2.391   1.473   0.897 -1.8763 -1.3171  1.4447
  410SOL    HW2 1230   2.481   1.606   0.931 -1.7508 -0.2253 -0.0454
  411SOL     OW 1231   2.990   0.661   0.393 -0.1432  0.3597 -0.0959
  411SOL    HW1 1232   3.057   0.584   0.412  0.3720 -1.1013  1.2124
  411SOL    HW2 1233   3.014   0.747   0.440  0.9684  0.1023 -1.4682
  412SOL     OW 1234   1.872   0.505   0.035 -0.1123  0.3168  0.5389
  412SOL    HW1 1235   1.813   0.423   0.048 -0.9495 -0.5668  3.4590
  412SOL    HW2 1236   1.809   0.579   0.016  0.3624 -0.5823 -0.9356
  413SOL     OW 1237   0.825   0.879   1.292  0.6873 -0.3851 -0.2774
  413SOL    HW1 1238   0.729   0.873   1.324  1.0348 -2.1399 -1.1971
  413SOL    HW2 1239   0.844   0.962   1.234 -0.5671  1.5518  0.4014
  414SOL     OW 1240   0.097   1.311   2.988 -0.2404 -0.0757  0.1842
  414SOL    HW1 1241   0.035   1.378   3.031  1.8234 -1.6152  1.1656
  414SOL    HW2 1242   0.159   1.351   2.917 -2.0277  0.4852  1.7271
  415SOL     OW 1243   0.093   1.699   0.008  0.7293  0.0258 -0.2721
  415SOL    HW1 1244   0.135   1.709   3.034 -0.0730  0.3288  1.7856
  415SOL    HW2 1245   0.027   1.624   3.117  0.9889  1.1397  1.1471
  416SOL     OW 1246   1.761   0.923   0.161 -0.1504 -0.1766  0.4535
  416SOL    HW1 1247   1.829   0.879   0.221 -0.4526 -2.1511  0.4781
  416SOL    HW2 1248   1.679   0.953   0.211  2.7148 -1.3403 -3.5387
  417SOL     OW 1249   0.143   0.828   1.016  0.0296  0.4055  0.1275
  417SOL    HW1 1250   0.135   0.903   1.086  0.8740  1.0971 -0.0190
  417SOL    HW2 1251   0.158   0.877   0.925  1.0124  0.0124 -1.0143
  418SOL     OW 1252   2.220   1.126   2.553 -0.5314  0.1908 -0.1492
  418SOL    HW1 1253   2.142   1.159   2.606 -0.1694 -3.1307 -0.1875
  418SOL    HW2 1254   2.288   1.084   2.618  0.6666 -1.0426 -0.4766
  419SOL     OW 1255   0.389   0.407   0.196 -0.2938 -0.1499  0.2342
  419SOL    HW1 1256   0.432   0.309   0.191  1.5810 -3.1823  0.8072
  419SOL    HW2 1257   0.297   0.416   0.152 -0.4170  0.7175 -0.5099
  420SOL     OW 1258   0.450   1.411   0.797  0.1638  0.4258 -0.2977
  420SOL    HW1 1259   0.520   1.412   0.868  1.1066 -3.0056  0.6963
  420SOL    HW2 1260   0.397   1.499   0.792 -0.8565 -0.2920  2.6953
  421SOL     OW 1261   0.386   2.009   0.333 -0.2944  0.0292 -0.0778
  421SOL    HW1 1262   0.297   1.969   0.360 -0.5319 -1.7693 -1.1781
  421SOL    HW2 1263   0.445   2.034   0.415  0.0813 -1.5812 -0.8824
  422SOL     OW 1264   2.662   0.412   1.437 -0.4648 -0.0990 -0.1791
  422SOL    HW1 1265   2.665   0.360   1.348  0.5836  0.3380 -0.1109
  422SOL    HW2 1266   2.717   0.360   1.505 -0.3955  1.0526 -1.7776
  423SOL     OW 1267   2.020   1.554   0.910  0.2179  0.3802 -0.2153
  423SOL    HW1 1268   1.970   1.520   0.989  0.1901  0.4477  0.8819
  423SOL    HW2 1269   2.112   1.526   0.921 -0.7240  0.3147  0.1419
  424SOL     OW 1270   1.870   1.262   0.248 -0.7578 -0.5881 -0.5126
  424SOL    HW1 1271   1.954   1.249   0.192 -0.7634  0.8869 -1.5727
  424SOL    HW2 1272   1.852   1.365   0.257 -2.5420  1.6790 -3.4341
  425SOL     OW 1273   0.313   2.847   1.931 -0.1942  0.2138 -0.0643
  425SOL    HW1 1274   0.266   2.796   2.006  1.4693  3.0210 -2.0458
  425SOL    HW2 1275   0.270   2.824   1.841 -1.6019  1.3926 -0.4808
  426SOL     OW 1276   2.700   2.651   2.765  0.4692 -0.1140 -0.5397
  426SOL    HW1 1277   2.697   2.697   2.673  1.0944 -1.7342  1.3532
  426SOL    HW2 1278   2.617   2.661   2.822 -0.3233  1.0765 -0.5571
  427SOL     OW 1279   0.723   0.902   2.198  0.2047  0.3973 -0.1334
  427SOL    HW1 1280   0.623   0.884   2.187 -2.2333 -1.9815  0.7698
  427SOL    HW2 1281   0.757   0.950   2.281  0.3939  0.5368 -1.7555
  428SOL     OW 1282   2.125   0.817   2.204  0.7547 -0.2191  0.5185
  428SOL    HW1 1283   2.190   0.796   2.129  1.9118 -1.0982  1.6208
  428SOL    HW2 1284   2.100   0.913   2.182  2.6573 -3.4968 -0.2326
  429SOL     OW 1285   2.447   0.236   0.514 -0.6590  0.7374  0.5480
  429SOL    HW1 1286   2.542   0.227   0.548 -2.6484  3.3083 -4.2502
  429SOL    HW2 1287   2.421   0.335   0.504 -1.7039 -0.5560 -1.9749
  430SOL     OW 1288   1.827   1.095   2.163  0.4644  0.4787 -0.0880
  430SOL    HW1 1289   1.920   1.078   2.131 -0.1616  0.3524  2.5852
  430SOL    HW2 1290   1.773   1.134   2.088  0.8640 -1.8359  1.5552
  431SOL     OW 1291   2.986   2.169   1.524  0.2035  0.2930  0.2820
  431SOL    HW1 1292   3.016   2.142   1.433  1.8192  0.9861  0.9896
  431SOL    HW2 1293   2.986   2.271   1.531  0.0941  0.0751 -1.7614
  432SOL     OW 1294   1.487   2.795   2.536  0.2404  0.5237  0.5446
  432SOL    HW1 1295   1.586   2.809   2.521  1.1177  2.1754 -2.0307
  432SOL    HW2 1296   1.432   2.873   2.498  1.1246  1.6922 -0.3354
  433SOL     OW 1297   1.498   3.075   1.437 -0.4398 -0.3223 -0.0322
  433SOL    HW1 1298   1.539   3.086   1.345 -1.2733 -1.3492  1.4422
  433SOL    HW2 1299   1.448   2.986   1.445 -1.0098  0.5059  0.5171
  434SOL     OW 1300   0.013   2.444   2.283 -0.0412  0.1553  0.5218
  434SOL    HW1 1301   3.099   2.414   2.189 -1.2337  1.2553 -0.8323
  434SOL    HW2 1302   0.112   2.470   2.278 -1.0358 -0.1331  0.8893
  435SOL     OW 1303   0.238   1.635   0.233  0.0692  0.2294  0.3055
  435SOL    HW1 1304   0.333   1.631   0.196  1.0858 -0.7776 -0.0024
  435SOL    HW2 1305   0.173   1.674   0.162 -0.9440  0.0516  2.2092
  436SOL     OW 1306   0.401   1.126   1.651 -0.4720 -0.0829 -0.0430
  436SOL    HW1 1307   0.493   1.167   1.645  3.3016 -0.0023 -0.6449
  436SOL    HW2 1308   0.406   1.031   1.692 -0.1976  0.0535 -0.7177
  437SOL     OW 1309   0.881   0.546   2.936 -0.2283 -0.7899  0.4697
  437SOL    HW1 1310   0.949   0.569   2.859  0.1798  1.2474  1.2271
  437SOL    HW2 1311   0.935   0.527   3.024  0.4096 -2.1217  2.7887
  438SOL     OW 1312   0.758   2.001   1.492 -0.1153  0.2068 -0.2161
  438SOL    HW1 1313   0.764   2.016   1.392 -0.3962 -0.0592  1.3468
  438SOL    HW2 1314   0.752   1.898   1.512  0.4905 -3.6089 -1.8995
  439SOL     OW 1315   1.850   1.449   3.006  0.4009 -0.2399  0.5025
  439SOL    HW1 1316   1.920   1.379   2.985 -2.1882  1.8994  0.0210
  439SOL    HW2 1317   1.770   1.412   3.061 -0.0816  0.1216 -1.3470
  440SOL     OW 1318   1.394   0.621   0.472 -0.1249  0.4053 -0.0605
  440SOL    HW1 1319   1.374   0.702   0.414  2.6931 -2.3533  0.9421
  440SOL    HW2 1320   1.389   0.526   0.423  0.3591 -3.0903 -0.3724
  441SOL     OW 1321   0.520   2.691   1.578  0.1729 -0.8692 -0.2475
  441SOL    HW1 1322   0.600   2.729   1.631  2.2823 -0.7560 -0.0084
  441SOL    HW2 1323   0.453   2.766   1.557  1.8036 -1.0464  1.2575
  442SOL     OW 1324   2.299   2.429   0.948 -0.4203  0.7376  0.5599
  442SOL    HW1 1325   2.212   2.380   0.931  0.3640 -0.6836  0.0658
  442SOL    HW2 1326   2.285   2.530   0.947  0.3782 -1.5217 -2.3923
  443SOL     OW 1327   2.542   1.307   2.405 -0.3476 -0.1772 -0.1584
  443SOL    HW1 1328   2.446   1.297   2.377 -2.0456  0.9420  2.0010
  443SOL    HW2 1329   2.577   1.222   2.456  1.0563  0.0089 -0.8508
  444SOL     OW 1330   1.400   0.703   2.530  0.4395  0.1611 -0.0217
  444SOL    HW1 1331   1.455   0.725   2.444  1.4151 -2.0564 -1.0031
  444SOL    HW2 1332   1.300   0.725   2.506  1.6137  1.5747 -3.5072
  445SOL     OW 1333   2.428   2.447   1.790  0.2136 -0.2497  0.3048
  445SOL    HW1 1334   2.480   2.365   1.774 -0.4668  1.4153 -0.4354
  445SOL    HW2 1335   2.489   2.509   1.839 -1.0436  0.2808 -2.9461
  446SOL     OW 1336   3.015   1.709   0.404 -0.2399 -0.1403  0.0687
  446SOL    HW1 1337   2.965   1.721   0.313 -0.9008  1.9904 -0.1271
  446SOL    HW2 1338   3.092   1.774   0.407 -2.7425  2.9413 -1.3112
  447SOL     OW 1339   1.082   2.548   1.276  0.1757 -0.1803 -0.0141
  447SOL    HW1 1340   1.164   2.610   1.269 -2.0431 -1.8801  0.9285
  447SOL    HW2 1341   0.994   2.599   1.257  0.3469  2.8658  1.7370
  448SOL     OW 1342   1.634   1.571   1.939  0.0990  0.8465 -0.0001
  448SOL    HW1 1343   1.656   1.664   1.982 -0.0364  4.1255 -0.6628
  448SOL    HW2 1344   1.603   1.496   2.001 -0.3152 -1.2306  1.5519
  449SOL     OW 1345   0.447   2.218   2.474 -1.0368  0.3390 -0.5153
  449SOL    HW1 1346   0.395   2.133   2.490 -0.2964  0.0504  0.1264
  449SOL    HW2 1347   0.499   2.239   2.561  1.8804 -1.0384  0.4576
  450SOL     OW 1348   2.989   1.724   2.504  0.1280  0.5541 -0.1749
  450SOL    HW1 1349   2.958   1.637   2.468  0.8749 -1.3822  1.4790
  450SOL    HW2 1350   2.922   1.798   2.489 -0.8093 -0.7760 -1.4121
  451SOL     OW 1351   2.510   0.580   1.186 -0.1416 -0.3288 -0.5557
  451SOL    HW1 1352   2.579   0.508   1.212  1.7394  0.3057  0.6220
  451SOL    HW2 1353   2.527   0.661   1.251  2.2105 -2.1382  1.6361
  452SOL     OW 1354   1.074   2.330   1.110  0.4975  0.4862  0.3633
  452SOL    HW1 1355   1.064   2.398   1.182  0.2903  0.6597  2.8744
  452SOL    HW2 1356   1.027   2.360   1.022 -1.0750  0.3968 -3.4948
  453SOL     OW 1357   1.229   2.035   0.918 -0.3952 -0.2621 -0.0186
  453SOL    HW1 1358   1.314   2.053   0.969 -1.4349  0.4345 -0.8270
  453SOL    HW2 1359   1.196   2.121   0.876  0.6505  0.4971 -1.9951
  454SOL     OW 1360   3.013   1.287   0.772  0.2049  0.4534 -0.3153
  454SOL    HW1 1361   3.021   1.217   0.852  1.6397 -1.9012  3.4658
  454SOL    HW2 1362   3.102   1.322   0.746  1.0928  0.6271 -2.1129
  455SOL     OW 1363   0.663   0.901   0.409  0.0759 -0.1519  0.1505
  455SOL    HW1 1364   0.673   0.916   0.310  1.3463 -2.6380  0.6495
  455SOL    HW2 1365   0.574   0.860   0.429 -0.0955  1.1185 -3.4262
  456SOL     OW 1366   1.917   2.474   1.020 -0.5004 -0.3267  0.3177
  456SOL    HW1 1367   1.819   2.442   1.034 -0.3239  0.8768 -3.4259
  456SOL    HW2 1368   1.966   2.402   0.971 -2.9026  0.3179  2.0283
  457SOL     OW 1369   1.586   2.584   3.021  0.9473  0.2529  0.4723
  457SOL    HW1 1370   1.683   2.560   3.035  0.8629  2.1540  0.1092
  457SOL    HW2 1371   1.535   2.604   3.107 -0.5519  0.7709  0.9773
  458SOL     OW 1372   2.568   0.313   2.828  0.3202 -0.4751  0.0795
  458SOL    HW1 1373   2.476   0.274   2.847  0.3073  1.1829 -1.3968
  458SOL    HW2 1374   2.641   0.264   2.882 -0.1023 -1.3429  1.4171
  459SOL     OW 1375   2.234   0.130   1.841  0.1764 -0.1211 -0.2098
  459SOL    HW1 1376   2.202   0.127   1.935  0.3238  0.3863  1.6483
  459SOL    HW2 1377   2.204   0.048   1.787  1.2811 -2.2986 -0.8515
  460SOL     OW 1378   2.792   0.593   2.585 -0.8898  0.0331 -0.1547
  460SOL    HW1 1379   2.874   0.582   2.650  0.6616  0.2980  2.9398
  460SOL    HW2 1380   2.757   0.501   2.567 -1.2781  1.8237 -0.2802
  461SOL     OW 1381   0.018   2.027   1.006  0.4118 -0.6854 -0.1007
  461SOL    HW1 1382   3.082   2.006   1.091 -0.9906  0.1926  1.1110
  461SOL    HW2 1383   0.031   2.125   0.997 -0.1143  2.5243 -2.1492
  462SOL     OW 1384   0.045   0.124   0.713 -0.4787 -0.2007 -0.6718
  462SOL    HW1 1385   3.116   0.090   0.632  0.9253  1.0868  1.2615
  462SOL    HW2 1386   3.111   0.192   0.766  0.7100 -1.1915 -0.4828
  463SOL     OW 1387   2.280   1.493   0.093 -0.2013 -0.7421  0.2508
  463SOL    HW1 1388   2.219   1.562   0.053 -3.4642 -0.9755 -0.2141
  463SOL    HW2 1389   2.370   1.497   0.048 -0.2646 -0.1230 -0.7780
  464SOL     OW 1390   0.755   3.113   1.069 -0.3185  0.5165 -0.0861
  464SOL    HW1 1391   0.716   3.025   1.093  1.0246  2.4597 -0.7551
  464SOL    HW2 1392   0.765   0.052   1.147  0.6310 -0.4386 -1.0883
  465SOL     OW 1393   1.048   0.488   1.156 -0.1996 -0.3627 -0.3422
  465SOL    HW1 1394   1.042   0.583   1.117 -0.5283 -0.8205 -0.2151
  465SOL    HW2 1395   0.969   0.454   1.214  0.6283 -1.4474 -2.3625
  466SOL     OW 1396   1.639   2.572   2.153  0.5854 -0.0485  0.7671
  466SOL    HW1 1397   1.566   2.646   2.142  0.5999  1.3071  3.2805
  466SOL    HW2 1398   1.611   2.518   2.234  0.5293 -0.0567  0.9399
  467SOL     OW 1399   0.821   2.794   1.963 -0.0190 -0.4100  0.0873
  467SOL    HW1 1400   0.758   2.871   1.992  1.6032  0.1399 -1.0654
  467SOL    HW2 1401   0.914   2.823   1.983  0.2711 -0.7090  0.1127
  468SOL     OW 1402   0.162   1.475   2.184  0.4397 -0.2225 -0.0925
  468SOL    HW1 1403   0.072   1.444   2.152  2.3096  1.0104  1.5637
  468SOL    HW2 1404   0.161   1.577   2.195 -3.0973  0.7977  1.9503
  469SOL     OW 1405   1.137   1.814   0.785 -0.6187  0.1385  0.4881
  469SOL    HW1 1406   1.096   1.835   0.692 -2.9670 -2.0742  0.1863
  469SOL    HW2 1407   1.151   1.904   0.833 -0.6483  0.7723 -0.1568
  470SOL     OW 1408   2.094   1.083   2.142 -0.1690 -0.7805 -0.4544
  470SOL    HW1 1409   2.102   1.142   2.056 -0.8637  1.6422 -0.7377
  470SOL    HW2 1410   2.099   1.140   2.227 -0.1238 -3.4198  0.6774
  471SOL     OW 1411   0.357   2.466   0.080  0.2489 -0.2486 -0.4345
  471SOL    HW1 1412   0.289   2.410   0.024 -1.2395 -2.4223  0.5517
  471SOL    HW2 1413   0.427   2.501   0.017 -0.1246  1.4382 -1.2839
  472SOL     OW 1414   3.045   2.984   2.345 -0.0532  0.5985 -0.5172
  472SOL    HW1 1415   3.028   2.885   2.369  1.1420  0.7502 -1.1629
  472SOL    HW2 1416   0.021   3.005   2.323 -3.3761  0.4817  0.1115
  473SOL     OW 1417   0.698   0.015   3.063 -0.3540  0.4926  0.2621
  473SOL    HW1 1418   0.719   3.096   2.969 -0.1484 -1.3113 -1.6891
  473SOL    HW2 1419   0.711   0.114   3.072 -1.3113 -0.7258  1.5625
  474SOL     OW 1420   1.567   0.272   0.737  0.2667  0.3736 -0.8594
  474SOL    HW1 1421   1.624   0.260   0.654 -1.4081 -1.6095  1.2037
  474SOL    HW2 1422   1.625   0.326   0.804  0.0691 -1.0071 -1.8545
  475SOL     OW 1423   1.368   0.226   1.478 -0.5549  0.1427  0.0148
  475SOL    HW1 1424   1.301   0.255   1.408  0.4792 -2.6495 -0.5205
  475SOL    HW2 1425   1.429   0.150   1.450  0.1249  0.2000  0.8494
  476SOL     OW 1426   0.238   1.244   1.127 -0.2120 -0.0928  0.5745
  476SOL    HW1 1427   0.225   1.162   1.180  0.5123 -0.2757 -1.8691
  476SOL    HW2 1428   0.254   1.231   1.028  0.6911 -2.4446  1.4272
  477SOL     OW 1429   0.593   1.831   0.904 -0.2442 -0.0103 -0.3172
  477SOL    HW1 1430   0.637   1.772   0.977  0.5252 -0.9805  0.5176
  477SOL    HW2 1431   0.511   1.876   0.949 -1.1902  3.1757  1.5698
  478SOL     OW 1432   0.081   2.746   2.348  0.6344  0.5820  0.3722
  478SOL    HW1 1433   0.120   2.653   2.325  0.4007 -1.1032 -0.9036
  478SOL    HW2 1434   0.152   2.818   2.360  0.5282 -0.2685  0.1150
  479SOL     OW 1435   0.028   0.448   1.256 -0.2652 -0.2216 -0.0214
  479SOL    HW1 1436   3.091   0.529   1.269  1.0156 -3.8255 -0.3834
  479SOL    HW2 1437   0.116   0.475   1.216 -0.6208  1.5975 -2.4505
  480SOL     OW 1438   2.790   2.545   3.113 -0.0980 -0.6550 -0.0681
  480SOL    HW1 1439   2.871   2.512   0.046 -3.1171 -1.0631  1.4398
  480SOL    HW2 1440   2.807   2.639   3.083 -0.1332 -3.1867  1.5659
  481SOL     OW 1441   2.240   1.906   1.729  0.6449  0.4341  0.1084
  481SOL    HW1 1442   2.213   1.961   1.650 -0.0363 -1.2395  1.4934
  481SOL    HW2 1443   2.258   1.959   1.814 -0.6685  0.9954  2.2032
  482SOL     OW 1444   1.729   1.680   2.345 -0.1881 -0.2183 -0.0096
  482SOL    HW1 1445   1.685   1.651   2.431 -0.3480  1.1707 -0.9635
  482SOL    HW2 1446   1.824   1.717   2.369  2.3590 -0.0232  1.3600
  483SOL     OW 1447   0.856   1.265   1.841  0.1092 -0.5294  0.2699
  483SOL    HW1 1448   0.933   1.288   1.781 -0.9355  3.3874 -1.8427
  483SOL    HW2 1449   0.869   1.181   1.894  3.0955  2.6675 -2.1210
  484SOL     OW 1450   0.290   0.503   1.425  0.2058 -0.2605 -0.0129
  484SOL    HW1 1451   0.354   0.425   1.427 -0.9453  0.4230 -2.0235
  484SOL    HW2 1452   0.286   0.541   1.333 -2.8724 -0.1619  1.5566
  485SOL     OW 1453   2.144   1.282   0.176  0.2270 -0.6393  0.1928
  485SOL    HW1 1454   2.200   1.217   0.228 -0.1122  1.3725 -1.9348
  485SOL    HW2 1455   2.200   1.368   0.161  2.5759 -0.5900  0.8839
  486SOL     OW 1456   1.242   0.013   1.635 -0.6854  0.2714 -0.0599
  486SOL    HW1 1457   1.154   0.063   1.633  0.4560 -1.5383  0.8675
  486SOL    HW2 1458   1.299   0.044   1.553  0.8387  0.0896 -1.6920
  487SOL     OW 1459   0.869   2.204   1.640  0.2645  0.3818  0.0270
  487SOL    HW1 1460   0.918   2.289   1.609  0.1809  2.2200  0.5935
  487SOL    HW2 1461   0.836   2.143   1.561 -1.8036 -1.0109 -3.3482
  488SOL     OW 1462   2.593   1.514   2.818  0.3401  0.0244 -0.9482
  488SOL    HW1 1463   2.686   1.526   2.779  1.7748  0.4792 -0.5167
  488SOL    HW2 1464   2.530   1.485   2.747 -0.8397  0.5212  0.8839
  489SOL     OW 1465   1.971   3.039   0.750  0.6469 -0.3220 -0.1209
  489SOL    HW1 1466   1.901   2.969   0.722 -1.1957  0.8591 -1.1224
  489SOL    HW2 1467   1.998   3.103   0.670  1.8114  2.1175 -2.3465
  490SOL     OW 1468   0.709   2.291   3.081  0.1454  0.6549 -0.1175
  490SOL    HW1 1469   0.700   2.220   3.005  2.7679 -0.6983 -0.4677
  490SOL    HW2 1470   0.637   2.365   3.071 -0.7213  0.4812  3.4455
  491SOL     OW 1471   0.651   1.169   1.576 -0.4983  0.1586  0.3891
  491SOL    HW1 1472   0.694   1.221   1.507  0.2597 -1.8907  2.7228
  491SOL    HW2 1473   0.680   1.201   1.668 -0.0410 -0.8204  3.2136
  492SOL     OW 1474   1.025   0.666   1.937  0.2769 -0.4933 -0.4705
  492SOL    HW1 1475   1.031   0.586   1.996  1.9388  1.0399  1.2988
  492SOL    HW2 1476   1.017   0.749   1.995 -0.5244 -1.0983 -0.3500
  493SOL     OW 1477   2.105   2.044   0.911 -0.2242 -0.6672  0.1777
  493SOL    HW1 1478   2.075   1.952   0.876  1.4936  1.5180  1.9803
  493SOL    HW2 1479   2.146   2.035   1.004  0.6343  0.0393  2.1247
  494SOL     OW 1480   0.620   1.395   1.012 -0.1065  0.0172  0.1495
  494SOL    HW1 1481   0.720   1.365   1.017  2.0543 -1.4849  2.5615
  494SOL    HW2 1482   0.572   1.392   1.104 -0.1207  0.0035  1.5594
  495SOL     OW 1483   2.442   2.484   0.711 -0.6636  0.5205  0.3148
  495SOL    HW1 1484   2.445   2.409   0.639 -0.2964  1.3468  0.8305
  495SOL    HW2 1485   2.413   2.450   0.803  0.2178  0.8293  0.4626
  496SOL     OW 1486   2.766   3.011   1.251 -0.3894 -0.7304 -0.4015
  496SOL    HW1 1487   2.688   3.078   1.235  0.1267  2.2796  0.0192
  496SOL    HW2 1488   2.771   2.988   1.353 -0.7769 -1.5116  3.6321
  497SOL     OW 1489   2.289   1.227   2.326  0.1192 -0.0766 -0.4439
  497SOL    HW1 1490   2.252   1.321   2.300 -1.4829  2.1773 -0.2559
  497SOL    HW2 1491   2.243   1.194   2.415 -4.0576 -1.8401  1.9891
  498SOL     OW 1492   0.415   2.220   1.216 -0.7729 -0.3387 -0.3720
  498SOL    HW1 1493   0.396   2.317   1.184 -2.9303  0.7359 -1.2076
  498SOL    HW2 1494   0.459   2.212   1.304  1.4154  0.7722 -0.8885
  499SOL     OW 1495   1.312   2.388   2.083 -0.3653  0.0382  0.3402
  499SOL    HW1 1496   1.219   2.343   2.094 -2.1339  2.8665  0.9228
  499SOL    HW2 1497   1.325   2.438   1.997 -0.4729  0.3220 -0.2543
  500SOL     OW 1498   0.683   1.990   0.427  0.1187 -0.1504 -0.2571
  500SOL    HW1 1499   0.727   2.018   0.340  1.9788  0.8431 -0.3756
  500SOL    HW2 1500   0.667   1.889   0.431  1.5011  0.9401 -0.0784
  501SOL     OW 1501   2.024   0.092   1.165 -0.2915 -0.1120 -0.4040
  501SOL    HW1 1502   1.968   0.092   1.078  0.2203 -1.0351 -0.4875
  501SOL    HW2 1503   1.983   0.039   1.242 -2.8624 -1.1133  1.2555
  502SOL     OW 1504   2.809   0.285   1.634 -0.7772  0.0838 -0.3670
  502SOL    HW1 1505   2.894   0.317   1.589 -0.5952  2.2328 -2.5436
  502SOL    HW2 1506   2.812   0.306   1.731  0.5851 -1.2087 -3.5577
  503SOL     OW 1507   2.499   1.248   1.710  0.2030  0.0350 -0.1374
  503SOL    HW1 1508   2.451   1.238   1.802 -2.5483 -2.8030  1.1278
  503SOL    HW2 1509   2.599   1.233   1.723  0.1918 -1.3916  0.6212
  504SOL     OW 1510   1.551   1.040   1.775 -0.2493 -0.2603  0.1646
  504SOL    HW1 1511   1.503   0.958   1.809  1.9891 -3.6348 -0.0894
  504SOL    HW2 1512   1.620   1.006   1.710  0.8309  0.6843  0.2944
  505SOL     OW 1513   0.693   3.098   1.551  0.2028  0.1957 -0.2553
  505SOL    HW1 1514   0.614   3.064   1.498  0.4314  2.3602 -3.0349
  505SOL    HW2 1515   0.720   3.028   1.621  4.5222  0.8490 -0.5054
  506SOL     OW 1516   0.123   0.202   0.311 -0.3852  1.0474  0.3493
  506SOL    HW1 1517   0.136   0.284   0.251 -2.4920 -1.4870  0.7234
  506SOL    HW2 1518   0.168   0.205   0.404  1.2927 -2.5928 -2.8338
  507SOL     OW 1519   2.430   0.729   0.234  0.0960 -0.5202  0.4986
  507SOL    HW1 1520   2.480   0.662   0.176  2.9498 -1.0845 -0.1248
  507SOL    HW2 1521   2.417   0.700   0.329 -2.3613  4.0282 -0.5221
  508SOL     OW 1522   1.297   0.275   1.947 -0.2625 -0.2133 -0.4091
  508SOL    HW1 1523   1.199   0.304   1.961  0.5723  1.6194  0.0723
  508SOL    HW2 1524   1.318   0.317   1.852 -1.4731 -1.8948  0.4393
  509SOL     OW 1525   1.644   1.745   1.299  0.1210  0.3794 -0.1397
  509SOL    HW1 1526   1.618   1.711   1.390 -1.8577  1.0289  1.6617
  509SOL    HW2 1527   1.559   1.748   1.244 -0.8520 -3.0591  2.9745
  510SOL     OW 1528   2.503   1.148   1.432  0.2365  0.1045  0.3803
  510SOL    HW1 1529   2.506   1.174   1.530  3.6131 -2.8647 -0.7527
  510SOL    HW2 1530   2.428   1.080   1.419  1.8605  0.1537 -1.9708
  511SOL     OW 1531   1.844   2.063   1.442  0.2385 -0.4825  0.9385
  511SOL    HW1 1532   1.849   1.979   1.382  0.1228  1.4899  0.7595
  511SOL    HW2 1533   1.808   2.147   1.394  1.9842  1.1242  0.8970
  512SOL     OW 1534   0.168   1.392   0.363 -0.1440  0.8199 -0.0840
  512SOL    HW1 1535   0.242   1.352   0.421  0.0100 -1.3073  1.0449
  512SOL    HW2 1536   0.187   1.487   0.328 -2.8775  0.3551  0.6314
  513SOL     OW 1537   3.101   1.965   0.042  0.1166 -0.5418  0.0412
  513SOL    HW1 1538   3.088   2.027   3.075 -0.1629  1.4634 -1.4115
  513SOL    HW2 1539   0.041   1.885   0.017  0.9355  1.1524 -2.4677
  514SOL     OW 1540   2.859   1.970   2.294  0.7228 -0.0490  0.0110
  514SOL    HW1 1541   2.836   1.972   2.392 -1.6612  1.4336 -1.7448
  514SOL    HW2 1542   2.819   1.890   2.244 -0.0695  3.1751  1.7338
  515SOL     OW 1543   2.074   1.206   0.871 -0.0528 -0.6314  0.0656
  515SOL    HW1 1544   2.047   1.243   0.777  0.3703  0.1678  0.2770
  515SOL    HW2 1545   1.997   1.176   0.929  3.5583  2.2976  3.1905
  516SOL     OW 1546   2.134   2.723   0.245 -0.0057  0.1744  0.0890
  516SOL    HW1 1547   2.031   2.738   0.229  0.4129 -1.5054 -2.3433
  516SOL    HW2 1548   2.151   2.628   0.277  0.5930 -0.7359 -0.5852
  517SOL     OW 1549   1.022   1.923   2.628 -0.3185  0.6242  0.0412
  517SOL    HW1 1550   1.095   1.881   2.568  2.5401 -0.3490  0.9859
  517SOL    HW2 1551   0.940   1.953   2.575 -0.6823  0.6085  0.1819
  518SOL     OW 1552   0.357   0.198   2.194 -0.2546 -0.1619  0.1166
  518SOL    HW1 1553   0.389   0.295   2.191  0.5073  0.9448 -0.9786
  518SOL    HW2 1554   0.382   0.136   2.113 -1.4403 -2.2731 -0.8919
  519SOL     OW 1555   0.502   1.261   0.175 -0.1994  0.2584 -0.7305
  519SOL    HW1 1556   0.417   1.220   0.156  2.1243  0.6621  0.3284
  519SOL    HW2 1557   0.522   1.249   0.272 -0.7041 -0.4157 -0.9504
  520SOL     OW 1558   2.833   2.035   1.893 -0.1123 -0.1416  0.5382
  520SOL    HW1 1559   2.770   1.964   1.929  1.5938 -0.2138 -2.0637
  520SOL    HW2 1560   2.794   2.130   1.900  0.4979  1.9553  2.3798
  521SOL     OW 1561   0.688   2.517   2.596 -0.0032  0.5314 -0.1684
  521SOL    HW1 1562   0.746   2.435   2.588 -1.2387 -0.1650  0.1710
  521SOL    HW2 1563   0.694   2.569   2.508 -0.3851 -0.6007 -0.8543
  522SOL     OW 1564   1.662   0.116   2.017  0.3347 -0.7819 -0.4361
  522SOL    HW1 1565   1.703   0.136   1.925  0.5900 -1.0338 -4.5005
  522SOL    HW2 1566   1.730   0.116   2.094 -2.9332  0.1321 -2.6272
  523SOL     OW 1567   1.969   2.038   2.029  0.2065 -0.7787 -0.1582
  523SOL    HW1 1568   2.068   2.019   2.045  1.6221  1.3986  0.8518
  523SOL    HW2 1569   1.937   2.103   2.096 -0.5364 -0.4885 -2.3686
  524SOL     OW 1570   0.741   2.956   0.193 -0.4703 -0.1285 -0.5386
  524SOL    HW1 1571   0.727   2.853   0.185 -3.3010 -1.1938  0.7566
  524SOL    HW2 1572   0.726   3.005   0.109 -1.2852 -3.0550  0.3469
  525SOL     OW 1573   0.278   0.621   0.372 -0.5297  0.0692  0.4062
  525SOL    HW1 1574   0.334   0.544   0.334 -2.4794  0.4707  0.8254
  525SOL    HW2 1575   0.195   0.578   0.407  1.0401  2.2488 -3.6165
  526SOL     OW 1576   0.833   2.799   0.682  0.4239  0.4598  0.0851
  526SOL    HW1 1577   0.822   2.755   0.773  1.3334 -0.7187 -2.7433
  526SOL    HW2 1578   0.739   2.831   0.648 -1.7302  0.4092  0.8331
  527SOL     OW 1579   2.221   1.775   1.036  0.7725 -0.4230 -0.1355
  527SOL    HW1 1580   2.176   1.765   0.944 -1.9280  1.0516 -4.5218
  527SOL    HW2 1581   2.184   1.708   1.103 -1.1525  2.1685 -2.4123
  528SOL     OW 1582   2.878   2.851   2.596  0.5163  0.3614  0.2062
  528SOL    HW1 1583   2.815   2.796   2.538  2.0949 -2.2635 -1.7787
  528SOL    HW2 1584   2.826   2.915   2.659 -1.4903  2.0809 -0.6161
  529SOL     OW 1585   1.445   1.692   2.346 -0.1387  0.3071 -0.7351
  529SOL    HW1 1586   1.393   1.608   2.361  0.2530 -0.5708 -3.3515
  529SOL    HW2 1587   1.543   1.676   2.365  0.0646 -0.2192 -1.7083
  530SOL     OW 1588   1.530   1.199   2.932 -0.6219  0.0521  0.0522
  530SOL    HW1 1589   1.495   1.288   2.887 -1.1334 -0.5672 -1.3750
  530SOL    HW2 1590   1.460   1.126   2.937  0.7933  1.1868 -0.3994
  531SOL     OW 1591   0.563   1.146   2.873  0.2173 -0.2069  0.2614
  531SOL    HW1 1592   0.514   1.195   2.799 -1.9079 -0.9767 -3.2707
  531SOL    HW2 1593   0.576   1.046   2.845  1.1216 -1.1968  0.5090
  532SOL     OW 1594   1.648   1.546   0.481  1.0132  0.7756 -0.2363
  532SOL    HW1 1595   1.586   1.508   0.555  1.5803  1.6152  2.7677
  532SOL    HW2 1596   1.654   1.647   0.478  0.8117  1.5479  1.0925
  533SOL     OW 1597   0.611   0.257   2.490 -0.4703 -0.5483  0.0994
  533SOL    HW1 1598   0.639   0.330   2.425 -0.2822 -0.7421 -0.6877
  533SOL    HW2 1599   0.666   0.257   2.574 -3.4034  2.1412 -1.6805
  534SOL     OW 1600   0.547   2.539   3.027 -0.3356 -0.4029  0.0375
  534SOL    HW1 1601   0.552   2.574   2.932 -1.8913  0.3584 -0.1931
  534SOL    HW2 1602   0.609   2.589   3.091  3.4203  1.7309 -0.6025
  535SOL     OW 1603   0.179   3.068   0.274 -0.2389 -0.2544 -0.4350
  535SOL    HW1 1604   0.282   3.074   0.287 -2.7148  0.6745 -1.8740
  535SOL    HW2 1605   0.142   0.044   0.299  1.6103  2.3022  4.1899
  536SOL     OW 1606   0.045   0.901   2.211 -0.2978 -0.3160  0.1370
  536SOL    HW1 1607   0.011   0.932   2.117  1.2590 -1.6216  0.6053
  536SOL    HW2 1608   0.126   0.841   2.187  1.9147  0.4667  1.8098
  537SOL     OW 1609   1.038   0.061   1.358  0.0315 -0.0243 -0.6412
  537SOL    HW1 1610   0.943   0.087   1.322  1.2659 -0.3996 -0.7797
  537SOL    HW2 1611   1.114   0.104   1.305 -0.0740 -0.8435  1.0444
  538SOL     OW 1612   0.141   1.838   0.406 -0.2328  0.2409 -0.0400
  538SOL    HW1 1613   0.187   1.758   0.367 -2.9711  0.4081  3.3279
  538SOL    HW2 1614   0.195   1.878   0.487  0.7366 -3.4386  2.0265
  539SOL     OW 1615   2.639   1.175   2.075 -0.1593  0.4167  0.6035
  539SOL    HW1 1616   2.565   1.235   2.040  1.3297  0.5174 -0.8194
  539SOL    HW2 1617   2.672   1.106   2.006  0.6214  2.7682  0.0096
  540SOL     OW 1618   1.583   1.020   2.266 -0.0091  0.3292  0.4235
  540SOL    HW1 1619   1.547   1.073   2.345  1.6581  0.1166 -2.7312
  540SOL    HW2 1620   1.677   1.046   2.236 -0.1941 -0.6711  0.4427
  541SOL     OW 1621   0.829   0.968   1.757  0.4246  0.3414  0.6156
  541SOL    HW1 1622   0.818   1.010   1.854  2.3567  1.1501  0.9152
  541SOL    HW2 1623   0.784   0.880   1.747  3.1108 -0.1435 -0.2650
  542SOL     OW 1624   1.834   0.189   2.217 -0.2054 -0.1713 -0.1582
  542SOL    HW1 1625   1.904   0.205   2.289 -1.9283  1.6369 -0.9272
  542SOL    HW2 1626   1.767   0.261   2.225  3.0922  0.5288  1.4675
  543SOL     OW 1627   1.173   0.335   0.445 -0.5419 -0.2529 -0.3246
  543SOL    HW1 1628   1.104   0.281   0.396  0.8964  2.9190  2.0523
  543SOL    HW2 1629   1.244   0.373   0.384  0.7577 -1.0394 -1.1382
  544SOL     OW 1630   2.646   1.895   2.021  0.0635  0.5007 -0.3099
  544SOL    HW1 1631   2.698   1.846   2.094 -2.7320  0.5539 -1.2186
  544SOL    HW2 1632   2.560   1.934   2.062  2.8397  2.2805  2.3114
  545SOL     OW 1633   2.003   2.341   2.080 -0.2747  0.2829 -0.1781
  545SOL    HW1 1634   1.987   2.341   2.180 -0.6671 -3.2792  0.5213
  545SOL    HW2 1635   1.927   2.391   2.030 -2.8167  0.7732 -1.8165
  546SOL     OW 1636   0.206   0.032   2.931  0.2601 -0.0919 -0.2084
  546SOL    HW1 1637   0.294   3.105   2.959  1.0260 -1.2165 -1.0025
  546SOL    HW2 1638   0.137   3.117   2.998 -0.4303 -1.4373  0.6795
  547SOL     OW 1639   1.896   0.804   0.344 -0.3051 -0.0474  0.2455
  547SOL    HW1 1640   1.890   0.716   0.397 -1.2110 -0.2420  0.5541
  547SOL    HW2 1641   1.958   0.867   0.392 -1.8534  1.8807 -1.5765
  548SOL     OW 1642   2.352   1.633   2.217  0.3821 -0.0201 -0.1758
  548SOL    HW1 1643   2.284   1.564   2.250 -0.7619 -0.6571 -0.3373
  548SOL    HW2 1644   2.437   1.638   2.274 -2.1565  2.0475  0.0269
  549SOL     OW 1645   1.971   0.333   0.508  0.3131  0.1400  0.3162
  549SOL    HW1 1646   2.019   0.364   0.424 -2.8150  0.2587  0.2180
  549SOL    HW2 1647   2.035   0.321   0.586  1.7169 -1.9065 -1.4420
  550SOL     OW 1648   2.429   2.207   1.031 -0.7662  0.1491 -0.4219
  550SOL    HW1 1649   2.387   2.150   1.104 -0.2673  1.0919 -0.0143
  550SOL    HW2 1650   2.377   2.293   1.001 -0.7470 -0.0710  0.8869
  551SOL     OW 1651   1.132   2.932   1.446 -0.3260 -0.5605 -0.0365
  551SOL    HW1 1652   1.075   3.016   1.422 -2.3822  3.5563 -0.2985
  551SOL    HW2 1653   1.206   2.952   1.506 -2.8127 -2.3216 -0.4730
  552SOL     OW 1654   2.906   2.235   2.629 -0.1719  0.0328  0.2581
  552SOL    HW1 1655   2.910   2.165   2.699  5.6943 -0.7794  0.2441
  552SOL    HW2 1656   2.968   2.209   2.551 -1.6852 -2.4799 -0.4836
  553SOL     OW 1657   0.524   0.028   0.590  0.4210 -0.0465 -0.1003
  553SOL    HW1 1658   0.524   0.132   0.575  0.7040  1.2361  2.2606
  553SOL    HW2 1659   0.468   0.002   0.671 -0.2878 -0.1581 -0.5966
  554SOL     OW 1660   2.203   2.290   1.906  0.5713  0.5176  0.1678
  554SOL    HW1 1661   2.128   2.305   1.973  0.8102  1.0199 -1.4175
  554SOL    HW2 1662   2.242   2.376   1.867 -0.6005  0.5090 -1.2675
  555SOL     OW 1663   1.387   2.093   1.906  0.3459  0.1184  0.2244
  555SOL    HW1 1664   1.318   2.140   1.841 -4.9661 -0.0198 -2.6528
  555SOL    HW2 1665   1.338   2.072   1.991 -0.7452  1.2503  0.0060
  556SOL     OW 1666   1.323   1.489   1.578  0.0262 -0.2950 -0.0790
  556SOL    HW1 1667   1.309   1.548   1.495  0.6745  0.9606  0.3991
  556SOL    HW2 1668   1.378   1.542   1.649 -1.4513 -3.3878 -0.7580
  557SOL     OW 1669   1.927   2.326   2.365 -0.2014 -0.2047 -0.0914
  557SOL    HW1 1670   1.962   2.295   2.456 -2.7115 -0.7514 -0.8051
  557SOL    HW2 1671   1.831   2.366   2.376 -2.0975 -0.3300  2.1243
  558SOL     OW 1672   0.649   2.996   2.074  0.1600 -0.5574  0.0853
  558SOL    HW1 1673   0.559   3.045   2.052  0.6968  2.1664  1.4992
  558SOL    HW2 1674   0.716   3.070   2.109 -0.1758  2.5001  0.2829
  559SOL     OW 1675   2.467   2.815   1.160 -0.0348 -0.1733  0.2540
  559SOL    HW1 1676   2.494   2.765   1.241 -2.4010  0.8398  2.1427
  559SOL    HW2 1677   2.551   2.809   1.097  0.6854 -0.9991  0.4461
  560SOL     OW 1678   1.116   2.320   0.492 -0.0489 -0.0830 -0.4970
  560SOL    HW1 1679   1.148   2.409   0.452 -1.1841  0.3072 -2.0579
  560SOL    HW2 1680   1.028   2.337   0.542  1.5692 -1.0961  0.4681
  561SOL     OW 1681   1.075   0.483   0.056  0.5425 -0.6694 -0.1975
  561SOL    HW1 1682   0.990   0.447   0.095  1.0441  2.8883  0.6180
  561SOL    HW2 1683   1.110   0.567   0.096 -2.0022 -0.1407 -0.4482
  562SOL     OW 1684   0.748   0.309   2.734  0.5681  0.4662  0.1314
  562SOL    HW1 1685   0.689   0.352   2.809 -0.4944  0.5724  2.3006
  562SOL    HW2 1686   0.834   0.270   2.770 -0.0933  1.7152 -0.6488
  563SOL     OW 1687   1.457   1.661   2.971 -0.1753 -0.1812  0.3673
  563SOL    HW1 1688   1.517   1.631   3.046  0.6833 -1.5267 -2.3618
  563SOL    HW2 1689   1.490   1.741   2.915  1.3826  2.1799  0.8764
  564SOL     OW 1690   2.463   1.005   0.972  1.0116  0.2468  0.0333
  564SOL    HW1 1691   2.554   1.033   0.995 -1.7767 -0.9481 -1.5059
  564SOL    HW2 1692   2.435   1.055   0.885  2.6290 -0.3373 -2.9615
  565SOL     OW 1693   0.992   0.241   2.786  0.2733  0.3681 -0.1855
  565SOL    HW1 1694   1.014   0.196   2.872  0.6764 -0.4153 -0.1111
  565SOL    HW2 1695   1.046   0.327   2.778  0.3938 -0.8565 -0.8106
  566SOL     OW 1696   1.539   0.102   2.360  0.0159  0.1142  0.1304
  566SOL    HW1 1697   1.469   0.029   2.373 -0.7371 -0.9694 -2.2890
  566SOL    HW2 1698   1.631   0.054   2.373 -1.4142 -1.0393 -2.0104
  567SOL     OW 1699   1.975   1.392   0.688  0.3997  0.2736  0.3634
  567SOL    HW1 1700   2.004   1.426   0.598 -1.5827 -0.7735  2.6424
  567SOL    HW2 1701   1.998   1.461   0.761  2.8790  0.1966 -0.0935
  568SOL     OW 1702   1.898   1.972   0.522 -0.3072 -0.0718  0.3437
  568SOL    HW1 1703   1.982   1.919   0.532 -2.7787 -1.3005 -0.4035
  568SOL    HW2 1704   1.909   2.066   0.559  1.0465 -0.6462  0.2179
  569SOL     OW 1705   2.056   1.285   2.969 -0.4349 -0.5230  0.1878
  569SOL    HW1 1706   2.028   1.224   3.042 -1.7683 -1.3013 -1.7340
  569SOL    HW2 1707   2.134   1.338   3.003 -0.9081  4.1018 -0.7264
  570SOL     OW 1708   0.311   2.515   1.628  0.1320 -0.2684 -0.4934
  570SOL    HW1 1709   0.221   2.560   1.603 -0.4243  1.8846  1.4569
  570SOL    HW2 1710   0.385   2.582   1.618 -2.1382 -0.8077 -2.1738
  571SOL     OW 1711   0.093   0.426   2.134  0.0399 -0.1855  0.1882
  571SOL    HW1 1712   0.186   0.459   2.166  3.0676  1.7267 -0.8573
  571SOL    HW2 1713   0.026   0.466   2.197  1.4756 -0.0031  1.3124
  572SOL     OW 1714   1.198   1.592   0.995 -0.4237  0.4123 -0.8693
  572SOL    HW1 1715   1.141   1.613   1.077  1.7616  0.8762  0.8055
  572SOL    HW2 1716   1.138   1.575   0.915  1.2343  1.3766  2.3461
  573SOL     OW 1717   1.021   2.076   0.132 -0.1881  0.2044  0.6041
  573SOL    HW1 1718   1.078   2.056   0.046  3.2741 -2.3092 -2.6555
  573SOL    HW2 1719   1.072   2.128   0.198  0.5241 -3.8271 -1.7791
  574SOL     OW 1720   1.056   2.981   0.600 -0.0430 -0.9487 -0.3005
  574SOL    HW1 1721   0.987   2.916   0.623  0.3109  2.6105 -2.3016
  574SOL    HW2 1722   1.063   3.056   0.666  2.4052 -0.0991  0.2972
  575SOL     OW 1723   3.003   1.030   1.555 -1.0256 -0.1356  0.2865
  575SOL    HW1 1724   3.004   1.018   1.458  1.7666  1.2317  3.0385
  575SOL    HW2 1725   3.034   1.126   1.580 -0.2532 -1.8547 -3.6868
  576SOL     OW 1726   1.851   3.117   1.364  0.0586  0.1688 -0.1620
  576SOL    HW1 1727   1.823   3.105   1.466 -2.1057 -0.7246  3.1014
  576SOL    HW2 1728   1.832   3.029   1.320  2.4189  3.0918  2.5041
  577SOL     OW 1729   0.392   0.865   1.779 -0.0492 -0.1578 -0.3153
  577SOL    HW1 1730   0.465   0.827   1.726  1.2992  4.0487 -0.3707
  577SOL    HW2 1731   0.323   0.794   1.814  1.5270  1.4237  1.0890
  578SOL     OW 1732   2.097   0.321   2.349 -0.2292 -0.1071 -0.3446
  578SOL    HW1 1733   2.171   0.271   2.396  1.2328  0.2975 -0.4035
  578SOL    HW2 1734   2.059   0.396   2.413  0.1809  0.5760  0.0483
  579SOL     OW 1735   2.544   2.211   1.775  0.5339 -0.0134  0.0035
  579SOL    HW1 1736   2.620   2.178   1.712  1.6928 -0.8010 -1.6049
  579SOL    HW2 1737   2.479   2.130   1.784 -0.7626  1.0451  0.2466
  580SOL     OW 1738   2.002   1.191   2.721 -0.4183 -0.0889  0.4797
  580SOL    HW1 1739   2.024   1.219   2.819 -2.1113 -0.8622  3.8330
  580SOL    HW2 1740   1.965   1.096   2.720 -0.0849  4.3938  0.9580
  581SOL     OW 1741   1.354   0.988   2.967 -0.4339  0.6044  0.3618
  581SOL    HW1 1742   1.252   0.998   2.984 -0.9065 -0.5865  2.5729
  581SOL    HW2 1743   1.375   0.953   2.876 -1.8789 -0.2472  1.8950
  582SOL     OW 1744   1.091   1.363   1.664 -0.0193  0.7489  0.0555
  582SOL    HW1 1745   1.045   1.320   1.579 -3.0628 -2.1111 -1.6307
  582SOL    HW2 1746   1.183   1.394   1.634  1.9193 -0.9177  0.2088
  583SOL     OW 1747   1.596   1.316   1.426 -0.1287 -0.2123  0.5431
  583SOL    HW1 1748   1.560   1.221   1.414  1.5408  0.6648 -1.6556
  583SOL    HW2 1749   1.637   1.366   1.345 -0.5438 -3.1019 -0.4403
  584SOL     OW 1750   1.761   2.616   0.633 -0.1900 -0.3001  0.0475
  584SOL    HW1 1751   1.676   2.601   0.687  1.2083  0.0481  1.4862
  584SOL    HW2 1752   1.842   2.615   0.691 -3.5216  1.3144 -0.9539
  585SOL     OW 1753   2.008   2.724   2.978 -0.3691 -0.1277  0.0906
  585SOL    HW1 1754   1.972   2.798   2.921  3.0831 -2.0164  3.1691
  585SOL    HW2 1755   2.079   2.768   3.037 -1.5957  0.0618 -0.2592
  586SOL     OW 1756   2.830   2.236   0.855  0.3808  0.1604  0.3971
  586SOL    HW1 1757   2.757   2.279   0.802 -0.1706 -2.9242  3.1475
  586SOL    HW2 1758   2.797   2.180   0.933 -0.5605 -1.0027 -0.5855
  587SOL     OW 1759   0.896   1.800   0.165  0.0672 -0.0391 -0.0481
  587SOL    HW1 1760   0.949   1.879   0.127  0.9249 -0.1960  1.1747
  587SOL    HW2 1761   0.845   1.755   0.093  1.7316  2.0375  0.5674
  588SOL     OW 1762   0.754   0.179   0.880 -0.5674  0.0650 -0.3151
  588SOL    HW1 1763   0.762   0.083   0.916 -1.1370 -3.9659 -2.9171
  588SOL    HW2 1764   0.781   0.179   0.781  0.2788 -0.3197 -1.6485
  589SOL     OW 1765   1.317   0.728   0.699 -0.1219  0.0571 -0.1137
  589SOL    HW1 1766   1.350   0.681   0.612 -1.2075  0.3535  0.2482
  589SOL    HW2 1767   1.318   0.660   0.777 -1.4679 -0.9786  0.6154
  590SOL     OW 1768   1.658   2.835   0.032  0.3586  0.3769 -0.0830
  590SOL    HW1 1769   1.654   2.789   3.062 -0.2985 -0.9755  2.4121
  590SOL    HW2 1770   1.598   2.792   0.103  0.3379 -0.3682  1.8177
  591SOL     OW 1771   0.145   2.487   2.615 -0.4992  0.2964  0.5454
  591SOL    HW1 1772   0.214   2.503   2.543  1.8169 -0.4105 -0.9122
  591SOL    HW2 1773   0.082   2.567   2.627 -0.5268  1.5443 -1.1804
  592SOL     OW 1774   2.916   1.570   2.031  0.3096  0.4759 -0.2989
  592SOL    HW1 1775   2.844   1.550   1.962 -0.1911  0.4431  0.6783
  592SOL    HW2 1776   2.974   1.485   2.051  1.7328 -1.9894  0.0252
  593SOL     OW 1777   1.648   1.564   1.530  0.6898 -0.1113 -0.5071
  593SOL    HW1 1778   1.618   1.471   1.507 -0.8638 -0.3080  1.2818
  593SOL    HW2 1779   1.583   1.603   1.602  0.5706 -0.2062 -1.5946
  594SOL     OW 1780   2.643   1.313   0.105 -0.0226 -0.2575 -0.3179
  594SOL    HW1 1781   2.747   1.325   0.102  0.5576  0.8133  0.9906
  594SOL    HW2 1782   2.630   1.216   0.133  0.9095  1.0588  2.0545
  595SOL     OW 1783   0.824   0.671   0.432  0.0410 -0.2656 -0.9871
  595SOL    HW1 1784   0.783   0.762   0.449 -0.7836  2.3019  2.3290
  595SOL    HW2 1785   0.903   0.649   0.494 -0.2363 -1.8204  1.3181
  596SOL     OW 1786   3.108   1.469   1.406  0.5927 -0.1611  0.9592
  596SOL    HW1 1787   0.046   1.487   1.321  0.1301  2.1519 -2.5077
  596SOL    HW2 1788   0.014   1.540   1.475 -1.9980  0.8355  0.3405
  597SOL     OW 1789   1.105   1.930   1.127  0.1351  0.1736  0.6662
  597SOL    HW1 1790   1.095   1.996   1.203 -0.7264  0.8336  0.0106
  597SOL    HW2 1791   1.157   1.971   1.048  0.3841  2.0115  0.9836
  598SOL     OW 1792   0.091   0.007   1.908 -0.6348  1.0682 -0.0172
  598SOL    HW1 1793   0.161   0.023   1.981 -1.3717 -0.5939  2.5841
  598SOL    HW2 1794   0.081   3.027   1.896 -0.7145 -0.7744 -2.2845
  599SOL     OW 1795   0.288   1.427   2.817 -0.2028  0.8212  0.4092
  599SOL    HW1 1796   0.323   1.476   2.895 -1.4741 -2.3701 -0.2644
  599SOL    HW2 1797   0.296   1.486   2.731  2.3882  1.0687 -1.5815
  600SOL     OW 1798   0.599   0.841   2.812 -0.3143 -0.0031 -0.3259
  600SOL    HW1 1799   0.603   0.756   2.758  0.0722  2.3457  1.2348
  600SOL    HW2 1800   0.688   0.862   2.846 -3.7720 -2.2383 -0.8896
  601SOL     OW 1801   0.683   0.714   1.678  0.3363  0.3126 -1.0514
  601SOL    HW1 1802   0.782   0.687   1.677  1.9492  1.4682  0.7611
  601SOL    HW2 1803   0.639   0.674   1.763  0.3340 -0.4618  2.7299
  602SOL     OW 1804   0.443   3.024   3.025 -0.3393  0.7207  0.3241
  602SOL    HW1 1805   0.537   3.060   3.048  2.8437 -0.5434 -2.0818
  602SOL    HW2 1806   0.406   2.972   3.106  1.2986 -1.4261  2.4435
  603SOL     OW 1807   1.686   2.591   2.708  0.0311  0.3460 -0.0999
  603SOL    HW1 1808   1.732   2.514   2.759 -0.6400  1.1135  1.1028
  603SOL    HW2 1809   1.612   2.634   2.767 -0.4326 -1.4758 -0.1374
  604SOL     OW 1810   0.242   2.492   2.869  0.1315  0.1401  0.5921
  604SOL    HW1 1811   0.261   2.402   2.920  2.9457  0.2437 -0.0607
  604SOL    HW2 1812   0.221   2.479   2.769  1.5522  0.3399 -0.8206
  605SOL     OW 1813   2.321   0.947   1.392 -0.0430  0.4847  0.1721
  605SOL    HW1 1814   2.294   0.986   1.299 -2.2398  1.1434 -1.9833
  605SOL    HW2 1815   2.256   0.870   1.406 -0.1711  0.1976 -0.7196
  606SOL     OW 1816   0.843   1.062   2.655 -0.4415  0.3771  0.0766
  606SOL    HW1 1817   0.889   1.139   2.706 -1.6426  0.5569  0.9586
  606SOL    HW2 1818   0.833   0.982   2.713  0.3591  1.1221  0.3032
  607SOL     OW 1819   0.624   0.532   1.121 -0.5623 -0.3888  0.3895
  607SOL    HW1 1820   0.641   0.560   1.218 -1.2900  3.1755  2.4172
  607SOL    HW2 1821   0.707   0.499   1.077 -1.5045  0.6473  1.3562
  608SOL     OW 1822   3.047   1.796   1.938  0.3891  0.2239 -0.5443
  608SOL    HW1 1823   3.031   1.698   1.959 -0.7853 -1.6038  0.5381
  608SOL    HW2 1824   2.962   1.850   1.933  0.7724  1.0634  3.3276
  609SOL     OW 1825   2.447   0.542   0.530  0.5179 -0.0577  0.3409
  609SOL    HW1 1826   2.365   0.547   0.465 -0.6824 -1.4825 -0.6163
  609SOL    HW2 1827   2.475   0.638   0.557 -0.0985 -0.1617  3.1116
  610SOL     OW 1828   0.193   2.732   1.261  0.0106 -0.3840  0.1213
  610SOL    HW1 1829   0.218   2.822   1.296 -2.3891  0.3176 -3.4625
  610SOL    HW2 1830   0.124   2.740   1.189  2.3640  0.3043 -2.4121
  611SOL     OW 1831   1.560   2.005   0.153 -0.3019 -0.0124  0.0020
  611SOL    HW1 1832   1.652   2.019   0.203  3.0441 -1.8114  0.7417
  611SOL    HW2 1833   1.517   1.923   0.194  1.1839 -0.5171 -0.0176
  612SOL     OW 1834   0.676   0.306   2.014  1.1400 -0.2287 -0.0188
  612SOL    HW1 1835   0.710   0.213   2.036 -3.3071 -1.0205 -0.4987
  612SOL    HW2 1836   0.581   0.308   1.969 -2.6768  3.5274 -1.6136
  613SOL     OW 1837   0.346   2.093   0.807 -0.1046 -0.2228 -0.1867
  613SOL    HW1 1838   0.358   2.040   0.890  0.1538  0.3092 -0.3770
  613SOL    HW2 1839   0.440   2.144   0.791 -1.1052  1.2288 -0.5583
  614SOL     OW 1840   1.652   0.285   1.749 -0.0832  0.3240 -0.4160
  614SOL    HW1 1841   1.727   0.314   1.814  3.4148 -1.5065 -1.5177
  614SOL    HW2 1842   1.674   0.320   1.655  0.3360 -0.8251  1.2682
  615SOL     OW 1843   1.525   1.430   0.717  0.0563  0.5182  0.4358
  615SOL    HW1 1844   1.614   1.377   0.722 -3.0233  1.2847  0.8157
  615SOL    HW2 1845   1.446   1.363   0.700 -1.0238  1.3119  0.5401
  616SOL     OW 1846   1.862   1.553   0.312 -0.4947  0.1388  0.0610
  616SOL    HW1 1847   1.796   1.541   0.389 -2.5036  1.9591 -2.3524
  616SOL    HW2 1848   1.840   1.636   0.259 -1.2940 -1.5142 -0.1244
  617SOL     OW 1849   1.709   0.714   3.092  0.3482  0.3086 -0.2000
  617SOL    HW1 1850   1.729   0.799   0.031 -0.8092  0.0335  1.0607
  617SOL    HW2 1851   1.738   0.729   2.996  1.4952  1.7045 -0.6358
  618SOL     OW 1852   0.571   0.627   1.923  0.1308  0.6563 -0.6596
  618SOL    HW1 1853   0.587   0.674   2.011 -0.5817 -2.1214  0.9661
  618SOL    HW2 1854   0.532   0.532   1.935  0.8417 -0.8787  0.2272
  619SOL     OW 1855   3.079   1.743   1.490  0.2228  0.6518 -0.4073
  619SOL    HW1 1856   3.044   1.807   1.561  2.4736 -3.5625  1.1353
  619SOL    HW2 1857   0.060   1.766   1.471  1.9701 -1.3666 -0.6456
  620SOL     OW 1858   2.573   2.911   2.626  0.1798 -0.6698 -0.2168
  620SOL    HW1 1859   2.594   2.860   2.541 -2.5074  1.4788 -0.0308
  620SOL    HW2 1860   2.470   2.906   2.643 -2.7355  0.8445 -2.0375
  621SOL     OW 1861   2.442   1.964   0.015 -0.5392  0.2292  0.2741
  621SOL    HW1 1862   2.463   1.879   0.065  1.5650  1.7389 -0.8035
  621SOL    HW2 1863   2.433   2.044   0.080 -0.5936  1.0642  0.0047
  622SOL     OW 1864   1.393   0.458   2.646 -0.0067  0.2071 -0.3262
  622SOL    HW1 1865   1.466   0.455   2.717 -0.1819 -0.0484 -0.8162
  622SOL    HW2 1866   1.407   0.542   2.588 -0.5071  1.0940  1.0119
  623SOL     OW 1867   0.779   1.723   1.539  0.3338  0.4122  0.4966
  623SOL    HW1 1868   0.801   1.674   1.451  1.6893  0.7443 -0.4347
  623SOL    HW2 1869   0.853   1.703   1.606  0.9202  1.1802 -1.5519
  624SOL     OW 1870   2.871   0.059   0.123 -0.0263  0.3669 -0.5090
  624SOL    HW1 1871   2.921   0.077   0.034 -0.0054  0.7174  1.8304
  624SOL    HW2 1872   2.906   0.125   0.196  1.6666  1.9410  1.6320
  625SOL     OW 1873   0.794   2.077   0.648 -0.0264  0.2381  0.2964
  625SOL    HW1 1874   0.880   2.021   0.656  2.7101 -2.2022 -0.5532
  625SOL    HW2 1875   0.758   2.064   0.550  0.7858  1.4549 -7.0381
  626SOL     OW 1876   2.718   0.832   2.481 -0.1931 -0.1375 -0.0621
  626SOL    HW1 1877   2.749   0.753   2.541 -0.4389 -0.2397  1.2073
  626SOL    HW2 1878   2.667   0.788   2.405  0.5085 -2.9426  0.9261
  627SOL     OW 1879   1.208   1.979   3.046 -0.0803 -0.0894 -0.2484
  627SOL    HW1 1880   1.297   2.019   3.073  0.2039  0.0384 -1.3920
  627SOL    HW2 1881   1.203   1.879   3.049  0.6725  3.7752 -1.3042
  628SOL     OW 1882   2.980   2.640   2.861 -0.8994  0.3848  0.2492
  628SOL    HW1 1883   3.033   2.665   2.778 -0.2602  2.3588 -3.4430
  628SOL    HW2 1884   2.878   2.645   2.841  1.8991 -2.4160  0.6824
  629SOL     OW 1885   0.766   3.061   2.810  0.3484  0.1001  0.0094
  629SOL    HW1 1886   0.839   2.986   2.808 -0.2123  0.9183 -0.8994
  629SOL    HW2 1887   0.781   0.015   2.740  0.4543  0.1896  2.6002
  630SOL     OW 1888   1.045   0.348   1.964  0.1045 -0.0582  0.4899
  630SOL    HW1 1889   0.979   0.285   1.917  0.0905  2.2436 -0.2316
  630SOL    HW2 1890   1.050   0.329   2.064  0.5131  0.3880 -1.8012
  631SOL     OW 1891   2.078   0.966   0.449 -0.8183 -0.2927 -0.3333
  631SOL    HW1 1892   2.176   0.972   0.428 -2.6717  1.1227  2.2865
  631SOL    HW2 1893   2.028   1.049   0.454  0.2566 -2.5753  0.4069
  632SOL     OW 1894   2.570   0.077   1.620  0.2681  0.0605  0.1784
  632SOL    HW1 1895   2.478   0.092   1.579 -3.6452  1.0492 -1.1081
  632SOL    HW2 1896   2.628   0.162   1.614  0.6005 -0.0550  1.7187
  633SOL     OW 1897   1.094   1.162   0.534 -0.0519 -0.0478  0.0346
  633SOL    HW1 1898   1.041   1.146   0.616 -1.6144 -3.9168  0.1828
  633SOL    HW2 1899   1.111   1.070   0.495 -0.2063  0.6393 -0.1270
  634SOL     OW 1900   2.678   2.720   2.464 -0.4225 -0.4565  0.0203
  634SOL    HW1 1901   2.733   2.634   2.447 -1.3987  0.7426 -0.0092
  634SOL    HW2 1902   2.682   2.784   2.382  0.9268  3.7045 -0.0286
  635SOL     OW 1903   1.888   0.592   0.503  0.1923 -0.5878 -0.3200
  635SOL    HW1 1904   1.914   0.496   0.526 -0.5955  0.4308  2.1900
  635SOL    HW2 1905   1.793   0.610   0.537 -0.5789 -2.3794 -0.2954
  636SOL     OW 1906   0.728   1.101   0.585  0.2944 -0.5433  0.7622
  636SOL    HW1 1907   0.657   1.141   0.643  1.8875  0.3929  0.2209
  636SOL    HW2 1908   0.692   1.026   0.519 -1.7026 -0.3489 -1.5418
  637SOL     OW 1909   2.539   2.133   0.291  0.2662 -0.1948  0.0306
  637SOL    HW1 1910   2.611   2.070   0.330  0.8619  2.4415  2.9658
  637SOL    HW2 1911   2.569   2.191   0.211 -1.3785  0.3804 -0.0039
  638SOL     OW 1912   1.706   2.451   2.468 -0.3263  0.2978 -0.4670
  638SOL    HW1 1913   1.618   2.450   2.422 -1.1924  2.3532 -1.2994
  638SOL    HW2 1914   1.699   2.488   2.563 -0.8066 -0.8470  0.6420
  639SOL     OW 1915   1.373   2.068   0.613 -0.1605  0.5382 -1.1624
  639SOL    HW1 1916   1.321   2.145   0.656  0.9430  0.3610 -1.3033
  639SOL    HW2 1917   1.406   2.011   0.689 -1.5560  1.2908 -1.6618
  640SOL     OW 1918   2.022   0.049   0.503  0.1846 -0.4693 -0.4216
  640SOL    HW1 1919   2.117   0.031   0.477 -1.8724 -0.9010  3.2423
  640SOL    HW2 1920   1.997   0.145   0.484  1.3239 -0.6346 -0.5468
  641SOL     OW 1921   2.868   0.402   0.004 -0.5043 -0.0427  0.0314
  641SOL    HW1 1922   2.803   0.387   0.075  1.5583 -0.0048 -0.8397
  641SOL    HW2 1923   2.913   0.315   3.096 -1.7809  0.4021  0.5653
  642SOL     OW 1924   0.474   0.916   1.154  0.1782 -0.3944  0.0240
  642SOL    HW1 1925   0.421   0.831   1.124 -0.1706 -0.2271  0.1931
  642SOL    HW2 1926   0.447   0.945   1.244  1.8730 -1.8771 -1.5432
  643SOL     OW 1927   0.690   1.253   2.345  0.1740  0.0440  0.4159
  643SOL    HW1 1928   0.733   1.161   2.361 -1.6469 -1.9592 -0.4427
  643SOL    HW2 1929   0.590   1.236   2.340 -1.2802  2.4569 -1.2046
  644SOL     OW 1930   1.501   2.245   0.474  0.0939  0.0293  0.0613
  644SOL    HW1 1931   1.446   2.177   0.526  1.4016  0.5613 -2.0435
  644SOL    HW2 1932   1.440   2.289   0.407  1.1260 -1.8862 -0.1420
  645SOL     OW 1933   1.260   1.900   0.418 -0.1829 -0.0776 -0.6475
  645SOL    HW1 1934   1.328   1.854   0.362  0.1170 -0.0561  1.8084
  645SOL    HW2 1935   1.298   1.959   0.486 -0.7636 -2.2849  1.7307
  646SOL     OW 1936   3.113   1.815   2.723  0.1271 -0.0174 -0.4118
  646SOL    HW1 1937   3.039   1.786   2.654  2.1294  0.2181  2.2995
  646SOL    HW2 1938   0.017   1.911   2.715 -1.1098 -0.0609  1.0730
  647SOL     OW 1939   0.835   0.452   0.989  0.0138  0.3554 -0.4801
  647SOL    HW1 1940   0.806   0.358   0.961 -2.1706 -0.6104  0.0412
  647SOL    HW2 1941   0.915   0.450   1.046 -1.9307 -0.8267  0.2801
  648SOL     OW 1942   1.589   0.495   1.114 -0.1638 -0.0116 -0.5902
  648SOL    HW1 1943   1.593   0.587   1.074 -0.7490 -1.2132  1.6415
  648SOL    HW2 1944   1.682   0.451   1.132  2.2114 -1.6154 -0.5047
  649SOL     OW 1945   0.910   1.636   0.383 -0.1027 -0.1089  0.2722
  649SOL    HW1 1946   0.907   1.695   0.293  1.4616  0.1938 -1.7365
  649SOL    HW2 1947   0.998   1.654   0.435  1.1078  0.7223  1.9569
  650SOL     OW 1948   2.403   1.592   1.955  0.3454  0.2187 -0.2400
  650SOL    HW1 1949   2.406   1.603   2.055  0.0581  2.0206 -2.4034
  650SOL    HW2 1950   2.368   1.674   1.906 -0.0848 -3.0894 -3.2410
  651SOL     OW 1951   1.661   2.132   2.882 -0.1915  0.0465  0.3603
  651SOL    HW1 1952   1.713   2.215   2.842  0.6898  2.3184 -1.3495
  651SOL    HW2 1953   1.655   2.065   2.802  0.2606  1.0585 -1.4435
  652SOL     OW 1954   2.548   1.775   0.229  0.2829 -0.1932  0.3934
  652SOL    HW1 1955   2.580   1.677   0.234  3.3965 -0.3548  2.2035
  652SOL    HW2 1956   2.615   1.841   0.268 -1.6870 -0.3330  0.2812
  653SOL     OW 1957   0.213   0.273   0.557 -0.2745 -0.7415  0.1171
  653SOL    HW1 1958   0.311   0.292   0.581 -0.0209  0.5729 -0.1243
  653SOL    HW2 1959   0.162   0.238   0.640 -0.0006 -0.3948  0.2558
  654SOL     OW 1960   2.655   3.100   2.235  0.2857  0.1250 -0.0250
  654SOL    HW1 1961   2.740   0.040   2.233  0.0722  1.7929 -1.0998
  654SOL    HW2 1962   2.582   0.011   2.166 -0.3364 -3.2156 -3.1371
  655SOL     OW 1963   0.816   2.671   0.929  0.1877 -0.2316  0.5680
  655SOL    HW1 1964   0.721   2.708   0.914 -0.4599 -1.0679 -0.0825
  655SOL    HW2 1965   0.807   2.572   0.951 -1.6274  0.8277  1.1190
  656SOL     OW 1966   3.044   3.064   2.815 -0.2787 -0.1804 -0.6248
  656SOL    HW1 1967   3.059   3.097   2.720  0.2059  1.3823 -2.6625
  656SOL    HW2 1968   3.113   2.997   2.846  0.8785  0.1158  1.9741
  657SOL     OW 1969   3.032   1.124   2.989  0.3066 -0.0162  0.3116
  657SOL    HW1 1970   3.110   1.195   2.979 -0.2094 -0.9792 -0.3462
  657SOL    HW2 1971   3.062   1.027   2.964 -1.4216 -4.5851  2.2968
  658SOL     OW 1972   2.465   1.918   1.442 -0.3652  0.7807  0.2380
  658SOL    HW1 1973   2.374   1.962   1.433  0.2435 -3.5299 -1.2586
  658SOL    HW2 1974   2.453   1.825   1.483  0.8225 -1.0538  1.1980
  659SOL     OW 1975   1.875   2.763   0.215 -0.1707  0.5014  0.1393
  659SOL    HW1 1976   1.799   2.721   0.267 -0.2426 -1.3512 -0.0508
  659SOL    HW2 1977   1.849   2.806   0.130 -0.2256 -3.4533  2.0853
  660SOL     OW 1978   1.677   1.028   2.620 -0.5220  0.5075 -1.1532
  660SOL    HW1 1979   1.712   1.055   2.714 -0.4266  3.4429  1.5246
  660SOL    HW2 1980   1.754   1.021   2.556  1.5786 -0.8766 -2.8805
  661SOL     OW 1981   0.089   2.290   1.302 -0.3310  0.1711 -0.4279
  661SOL    HW1 1982   0.095   2.309   1.203 -4.3623  0.0333 -1.3102
  661SOL    HW2 1983   0.067   2.192   1.310 -1.0074 -0.0036 -1.9254
  662SOL     OW 1984   0.504   0.603   0.012  0.2909 -0.1526 -0.3226
  662SOL    HW1 1985   0.441   0.680   0.036 -0.7378  0.3316 -1.9642
  662SOL    HW2 1986   0.487   0.530   0.084 -0.2458 -0.1961 -0.3618
  663SOL     OW 1987   2.222   2.036   1.443  0.3542 -0.4736  0.0313
  663SOL    HW1 1988   2.169   2.129   1.439 -1.5366  0.1973 -3.3809
  663SOL    HW2 1989   2.170   1.958   1.404  3.2465 -1.5274 -0.0867
  664SOL     OW 1990   0.837   1.612   1.321 -0.2325  0.3772 -0.3305
  664SOL    HW1 1991   0.768   1.622   1.251  2.6847 -3.7305  3.9196
  664SOL    HW2 1992   0.932   1.630   1.288  0.9100 -2.3036  1.1568
  665SOL     OW 1993   1.794   2.783   2.046  0.1477  0.4164  0.5777
  665SOL    HW1 1994   1.783   2.875   2.089  1.3509  0.7689  0.9850
  665SOL    HW2 1995   1.722   2.717   2.076 -1.5011  1.4735 -0.6607
  666SOL     OW 1996   2.765   2.849   0.044 -0.7776  0.2553  0.0395
  666SOL    HW1 1997   2.671   2.822   0.060  0.4076 -0.7282 -0.1456
  666SOL    HW2 1998   2.815   2.858   0.134 -4.5028  0.6075 -0.2063
  667SOL     OW 1999   2.746   1.454   1.594 -0.1465  0.1473 -0.3827
  667SOL    HW1 2000   2.728   1.438   1.494 -0.8339 -0.4217 -1.6676
  667SOL    HW2 2001   2.772   1.373   1.653 -0.5917 -1.8326  5.6456
  668SOL     OW 2002   0.187   0.597   2.460 -0.0015 -0.0102 -0.2063
  668SOL    HW1 2003   0.185   0.687   2.508 -2.6066 -0.0952  0.1195
  668SOL    HW2 2004   0.089   0.566   2.439 -1.6026 -1.2831  0.6413
  669SOL     OW 2005   2.316   1.831   2.542  0.4066  0.0668  0.0302
  669SOL    HW1 2006   2.298   1.894   2.465 -2.1729 -0.3695 -0.0914
  669SOL    HW2 2007   2.246   1.761   2.551  0.4024 -1.6978 -1.7802
  670SOL     OW 2008   2.725   1.549   1.853  0.1884 -0.0992 -0.0348
  670SOL    HW1 2009   2.633   1.586   1.885 -4.3590 -1.4862 -0.7087
  670SOL    HW2 2010   2.722   1.531   1.749 -2.8102  0.5912  2.8687
  671SOL     OW 2011   3.065   1.633   0.715  0.0560  0.3118 -0.7479
  671SOL    HW1 2012   3.090   1.659   0.625  0.9859 -2.1592 -0.3351
  671SOL    HW2 2013   2.966   1.627   0.731  2.6238 -2.2320  1.7967
  672SOL     OW 2014   2.325   0.826   2.003  0.5593  0.5304 -0.4599
  672SOL    HW1 2015   2.319   0.849   1.906  0.2742 -0.2696  2.5379
  672SOL    HW2 2016   2.356   0.903   2.062  1.8652  0.5932  1.1638
  673SOL     OW 2017   2.469   2.841   1.922  0.4289 -0.4720 -0.2599
  673SOL    HW1 2018   2.504   2.917   1.866 -1.8601 -0.8720 -0.6446
  673SOL    HW2 2019   2.373   2.854   1.949 -1.5390 -2.1184  1.3076
  674SOL     OW 2020   1.873   2.655   1.619  0.1450  0.2627  0.3339
  674SOL    HW1 2021   1.813   2.717   1.672  1.0023 -0.0178 -0.8227
  674SOL    HW2 2022   1.903   2.571   1.666 -1.5973  1.1973 -0.4556
  675SOL     OW 2023   0.697   0.802   0.765 -0.7675  0.2922 -0.0269
  675SOL    HW1 2024   0.690   0.872   0.838  0.2299 -1.6774  1.5984
  675SOL    HW2 2025   0.731   0.854   0.682  1.2287 -0.1511 -3.5773
  676SOL     OW 2026   1.681   1.218   0.717 -0.1350  0.0951 -0.1286
  676SOL    HW1 2027   1.642   1.129   0.723  0.2557  1.2197  0.1338
  676SOL    HW2 2028   1.764   1.219   0.659 -2.2693 -1.1286 -2.6766
  677SOL     OW 2029   2.886   1.469   2.409  0.4732  0.3300  0.0443
  677SOL    HW1 2030   2.824   1.472   2.329  0.9229 -2.6143 -1.0612
  677SOL    HW2 2031   2.959   1.401   2.393 -2.7272 -1.1399 -0.8956
  678SOL     OW 2032   2.665   1.927   1.254 -0.3782  0.2457 -0.5105
  678SOL    HW1 2033   2.737   1.862   1.281  0.0294  0.2811 -0.1383
  678SOL    HW2 2034   2.590   1.948   1.319  0.3494  1.4055 -0.3023
  679SOL     OW 2035   2.088   2.488   0.436  0.2746 -0.2267 -0.3827
  679SOL    HW1 2036   2.174   2.463   0.385  1.1246 -0.2259 -0.6748
  679SOL    HW2 2037   2.120   2.541   0.518  0.4565  0.2655  0.1530
  680SOL     OW 2038   2.761   2.298   1.973 -1.1522  0.2592  0.4926
  680SOL    HW1 2039   2.852   2.342   1.989  2.7764 -0.7066  0.5493
  680SOL    HW2 2040   2.716   2.336   1.889 -0.9123  0.2885  2.0724
  681SOL     OW 2041   0.247   1.343   1.674  0.3179 -0.2492 -0.4827
  681SOL    HW1 2042   0.266   1.248   1.655  0.1033  3.3248  0.7994
  681SOL    HW2 2043   0.315   1.393   1.731  1.5613  1.2831 -1.8571
  682SOL     OW 2044   1.256   2.856   0.709 -0.3311  0.1787 -0.0109
  682SOL    HW1 2045   1.174   2.902   0.665 -0.5623  2.1338 -2.0224
  682SOL    HW2 2046   1.320   2.814   0.640  0.3999 -1.0714 -1.1548
  683SOL     OW 2047   2.239   1.395   0.977 -0.5442  0.0751 -0.2144
  683SOL    HW1 2048   2.290   1.361   1.059  1.9085  0.6163  2.8853
  683SOL    HW2 2049   2.177   1.324   0.948  1.3076  0.9303 -0.9876
  684SOL     OW 2050   0.615   2.209   2.214 -0.0882  0.2203 -0.0052
  684SOL    HW1 2051   0.560   2.222   2.302 -0.2851 -0.9791  2.3101
  684SOL    HW2 2052   0.558   2.202   2.132  0.5660  0.7841  0.9913
  685SOL     OW 2053   1.588   1.603   0.074 -0.2167  0.0367 -0.4896
  685SOL    HW1 2054   1.681   1.643   0.065  0.2166 -2.1364  0.8959
  685SOL    HW2 2055   1.597   1.503   0.090 -0.1433 -1.0700  0.3154
  686SOL     OW 2056   3.021   0.689   1.297 -0.3556 -0.9591 -0.0718
  686SOL    HW1 2057   2.970   0.688   1.388 -1.1255  0.9309  0.2353
  686SOL    HW2 2058   3.032   0.788   1.270 -0.8282  2.6299  0.7707
  687SOL     OW 2059   0.930   2.372   2.939  0.3431 -0.5630  0.1806
  687SOL    HW1 2060   0.874   2.350   3.023  0.7148  1.5362 -1.8682
  687SOL    HW2 2061   0.935   2.296   2.873 -2.0157 -1.3136  0.0758
  688SOL     OW 2062   0.187   2.113   2.059  0.4374 -0.3979  0.1070
  688SOL    HW1 2063   0.116   2.149   1.997 -0.7940  1.7535 -0.3996
  688SOL    HW2 2064   0.151   2.120   2.153 -0.0856  1.1477 -1.1453
  689SOL     OW 2065   1.901   0.889   1.948 -0.2953 -0.1667 -0.4115
  689SOL    HW1 2066   1.800   0.887   1.957  0.1856  1.9253  1.3600
  689SOL    HW2 2067   1.947   0.859   2.031 -1.8177 -0.9260 -2.8532
  690SOL     OW 2068   2.435   0.730   0.905 -0.0141  0.0509  0.7082
  690SOL    HW1 2069   2.455   0.680   0.993 -2.2167  0.6972  2.8145
  690SOL    HW2 2070   2.427   0.830   0.927 -2.1720 -0.8897 -1.2882
  691SOL     OW 2071   0.859   1.708   1.915  0.2758 -0.1099  0.2913
  691SOL    HW1 2072   0.912   1.768   1.976  0.9988 -0.9261 -1.1733
  691SOL    HW2 2073   0.920   1.649   1.856  0.5488 -0.0509 -2.0144
  692SOL     OW 2074   2.256   0.340   1.471  0.4122  0.1033  0.1111
  692SOL    HW1 2075   2.168   0.332   1.526 -2.1335  0.2535  0.8524
  692SOL    HW2 2076   2.242   0.328   1.373  0.2609 -2.7245  1.9692
  693SOL     OW 2077   0.415   1.152   2.230 -0.4212 -0.7249  0.3884
  693SOL    HW1 2078   0.430   1.054   2.208  1.3600  0.1447  0.1345
  693SOL    HW2 2079   0.390   1.206   2.141  1.2863  3.6593 -1.3808
  694SOL     OW 2080   1.605   3.094   1.203 -0.0858 -0.3952  0.0781
  694SOL    HW1 2081   1.596   0.019   1.109  0.0988  1.1684 -4.3455
  694SOL    HW2 2082   1.662   3.008   1.200 -0.7889  1.3643 -1.8563
  695SOL     OW 2083   1.166   1.054   1.928  0.3322  0.4156 -0.1683
  695SOL    HW1 2084   1.153   1.005   1.839 -1.0829 -0.0538  0.6511
  695SOL    HW2 2085   1.261   1.038   1.959 -2.3299 -2.0268 -3.1266
  696SOL     OW 2086   1.273   0.006   0.479 -0.2456 -0.3206 -0.0941
  696SOL    HW1 2087   1.277   0.091   0.541 -1.0610  3.5764 -0.1235
  696SOL    HW2 2088   1.186   3.070   0.500  1.5202 -1.3864 -1.4888
  697SOL     OW 2089   1.118   0.502   0.694 -0.1392  0.0802  0.2347
  697SOL    HW1 2090   1.028   0.548   0.710  1.2009 -0.5988 -0.8198
  697SOL    HW2 2091   1.126   0.452   0.605 -0.1300 -2.9126  2.7012
  698SOL     OW 2092   1.265   1.124   2.628  0.3076 -0.3076 -0.8136
  698SOL    HW1 2093   1.237   1.194   2.698  0.4704 -1.2417 -0.5526
  698SOL    HW2 2094   1.311   1.050   2.682 -1.9127  1.1846  1.3276
  699SOL     OW 2095   1.693   1.483   1.243  0.2649  0.0544  0.2768
  699SOL    HW1 2096   1.692   1.574   1.293  0.6906 -1.3028 -1.1155
  699SOL    HW2 2097   1.622   1.474   1.170 -1.5247  1.8569  0.4564
  700SOL     OW 2098   1.500   0.145   0.359  0.5867 -0.3662  0.5775
  700SOL    HW1 2099   1.438   0.102   0.427  0.1979  0.3819 -0.9496
  700SOL    HW2 2100   1.593   0.152   0.400  1.7576 -2.3462  1.2001
  701SOL     OW 2101   2.923   0.079   2.254  0.3244 -0.3861 -0.5383
  701SOL    HW1 2102   3.008   0.114   2.204  1.5777 -0.2005  0.1495
  701SOL    HW2 2103   2.947   3.117   2.318  0.4793 -2.2289  3.0276
  702SOL     OW 2104   1.157   0.060   0.166  0.5091  0.0609  0.1741
  702SOL    HW1 2105   1.257   0.058   0.140  1.1995  0.6493 -1.0902
  702SOL    HW2 2106   1.127   3.080   0.192  2.0185 -0.7740 -0.5131
  703SOL     OW 2107   2.388   2.656   2.513 -0.2600  0.0758  0.1535
  703SOL    HW1 2108   2.372   2.558   2.518  1.7651 -2.4560  0.6440
  703SOL    HW2 2109   2.475   2.681   2.477 -1.7532 -0.4767  0.1818
  704SOL     OW 2110   0.714   2.211   1.064 -1.0313  0.2177 -0.3167
  704SOL    HW1 2111   0.653   2.193   0.986  1.3890  2.2101 -0.7409
  704SOL    HW2 2112   0.715   2.137   1.135 -0.2973  0.4375 -0.6534
  705SOL     OW 2113   2.827   0.308   1.906 -0.1105 -0.5339 -0.6533
  705SOL    HW1 2114   2.849   0.209   1.906 -0.5287  1.7326 -0.9431
  705SOL    HW2 2115   2.791   0.332   1.998  0.2549 -1.1797  2.9538
  706SOL     OW 2116   1.732   0.178   0.548  0.2942 -0.0197  0.6565
  706SOL    HW1 2117   1.753   0.089   0.502  0.7672 -2.8996 -0.1650
  706SOL    HW2 2118   1.804   0.245   0.549 -2.4082  0.1260  1.3390
  707SOL     OW 2119   1.293   1.998   2.140 -0.0941  0.1494 -0.3503
  707SOL    HW1 2120   1.353   1.918   2.141 -0.4368 -0.8595  1.0703
  707SOL    HW2 2121   1.297   2.051   2.231 -1.5999 -1.9482 -0.1365
  708SOL     OW 2122   3.116   2.193   1.857  0.2783  0.2725 -0.1323
  708SOL    HW1 2123   3.046   2.126   1.825 -0.5996 -0.5545  0.2445
  708SOL    HW2 2124   0.062   2.227   1.786 -0.3281  1.0190  0.2790
  709SOL     OW 2125   1.877   0.345   1.871  0.0760  0.0352  0.1563
  709SOL    HW1 2126   1.937   0.280   1.824 -0.8169  1.3831  1.4708
  709SOL    HW2 2127   1.928   0.395   1.947  1.7172 -0.5578  2.8470
  710SOL     OW 2128   2.443   0.475   1.594 -0.6030  0.0454  0.2696
  710SOL    HW1 2129   2.362   0.441   1.540 -1.7677  2.5627  2.1480
  710SOL    HW2 2130   2.530   0.464   1.542 -0.7050 -0.4709 -0.2828
  711SOL     OW 2131   0.284   1.921   0.611  0.5314 -0.0082 -0.8881
  711SOL    HW1 2132   0.290   2.009   0.668  1.1482  1.3472 -0.7831
  711SOL    HW2 2133   0.366   1.868   0.626 -1.7229 -0.3217 -0.0683
  712SOL     OW 2134   0.649   2.648   2.355 -0.2666 -0.0414  0.3015
  712SOL    HW1 2135   0.721   2.624   2.288 -1.6886  1.6851  0.6382
  712SOL    HW2 2136   0.627   2.751   2.336 -1.0353  0.0710 -2.0052
  713SOL     OW 2137   1.928   1.047   3.067 -0.2547  0.8878 -0.2779
  713SOL    HW1 2138   1.875   1.024   0.035  1.5199 -0.2194  1.0745
  713SOL    HW2 2139   2.013   0.992   3.066  0.2952  1.0761 -0.4312
  714SOL     OW 2140   0.652   1.658   1.112  0.0810  0.0323 -0.0615
  714SOL    HW1 2141   0.619   1.574   1.067 -1.3573 -0.7397  1.6181
  714SOL    HW2 2142   0.580   1.690   1.178 -1.4437 -0.3201 -0.0047
  715SOL     OW 2143   2.169   3.028   2.961  0.2316  0.1489 -0.0711
  715SOL    HW1 2144   2.196   2.951   3.026  2.2801 -0.0399 -0.0909
  715SOL    HW2 2145   2.075   3.012   2.917  2.2841  1.9099  1.3337
  716SOL     OW 2146   0.108   0.181   1.700  0.1082 -0.4930 -0.5951
  716SOL    HW1 2147   0.013   0.217   1.676 -1.9960  0.8285 -2.1294
  716SOL    HW2 2148   0.099   0.106   1.773 -0.6852 -1.0262  0.3782
  717SOL     OW 2149   0.254   0.712   0.119  0.4677 -0.1531  0.3571
  717SOL    HW1 2150   0.154   0.706   0.108 -0.6713 -0.3778  0.7218
  717SOL    HW2 2151   0.280   0.692   0.218  1.3656 -0.9345  0.0128
  718SOL     OW 2152   1.428   0.903   2.717 -0.6111 -0.1931  0.2618
  718SOL    HW1 2153   1.420   0.815   2.662  1.6171  2.1909  0.3238
  718SOL    HW2 2154   1.521   0.943   2.714  2.3725  2.5181  0.5609
  719SOL     OW 2155   2.752   1.723   3.039 -0.4359  0.2183 -0.4856
  719SOL    HW1 2156   2.687   1.650   3.062 -0.2145  3.6125  2.2656
  719SOL    HW2 2157   2.816   1.688   2.965  0.5314  1.5980  1.5833
  720SOL     OW 2158   1.348   0.751   1.064  0.3168 -0.2015  0.0727
  720SOL    HW1 2159   1.340   0.679   0.988  1.5257  0.3773 -0.4822
  720SOL    HW2 2160   1.293   0.721   1.143  1.8834 -0.4567 -0.4971
  721SOL     OW 2161   2.934   0.994   0.220 -0.2253  0.4032  0.3909
  721SOL    HW1 2162   2.968   1.023   0.130  0.1426 -0.4476 -1.6655
  721SOL    HW2 2163   3.002   0.939   0.272  1.4329 -2.9535  2.7910
  722SOL     OW 2164   1.095   0.936   3.035  0.4955 -0.0128  0.2295
  722SOL    HW1 2165   1.059   0.945   0.013  0.0629 -3.7105  0.5709
  722SOL    HW2 2166   1.024   0.895   2.978  0.9523  0.3845  0.3603
  723SOL     OW 2167   0.202   0.954   0.504 -0.2108  0.8702  0.2154
  723SOL    HW1 2168   0.223   1.035   0.442  1.9594 -1.4124  1.0746
  723SOL    HW2 2169   0.287   0.895   0.506  1.3225  0.1755  0.2835
  724SOL     OW 2170   0.997   2.116   1.926 -0.4014  0.1405  0.1876
  724SOL    HW1 2171   1.030   2.169   2.002 -1.9882 -0.2951 -2.0244
  724SOL    HW2 2172   0.915   2.159   1.875  0.0095 -0.9856  1.0858
  725SOL     OW 2173   2.542   0.751   1.388  0.3971 -0.1888  0.3924
  725SOL    HW1 2174   2.467   0.820   1.384 -0.9457 -2.8555 -2.7044
  725SOL    HW2 2175   2.555   0.725   1.485 -0.2657 -0.2309  1.1542
  726SOL     OW 2176   1.761   2.906   0.642  0.2469  0.4200 -0.6477
  726SOL    HW1 2177   1.763   2.802   0.664 -0.2693 -0.7067 -1.6763
  726SOL    HW2 2178   1.702   2.909   0.560 -0.0170  0.2202  1.5558
  727SOL     OW 2179   1.228   0.927   2.260 -0.0908 -0.1664 -0.1720
  727SOL    HW1 2180   1.207   1.012   2.314 -0.1354 -1.5798 -0.5849
  727SOL    HW2 2181   1.289   0.949   2.181 -0.4418  3.6954 -0.3246
  728SOL     OW 2182   1.295   2.733   1.222  0.3294 -0.3387 -0.2211
  728SOL    HW1 2183   1.290   2.761   1.322 -1.2096  1.9322  1.0042
  728SOL    HW2 2184   1.274   2.813   1.162  1.8392  1.5712 -1.0563
  729SOL     OW 2185   1.860   0.939   1.221  0.5447  0.3159  0.1216
  729SOL    HW1 2186   1.761   0.944   1.218  2.3996  0.6131  1.1804
  729SOL    HW2 2187   1.905   0.860   1.176 -1.8096  0.5919  1.8753
  730SOL     OW 2188   0.815   2.031   2.246  0.3531 -0.1613  0.0198
  730SOL    HW1 2189   0.883   2.043   2.176 -0.3560 -1.7389  0.2187
  730SOL    HW2 2190   0.731   2.088   2.231 -1.6988 -2.0412 -0.3416
  731SOL     OW 2191   0.534   0.275   0.507 -0.5055  0.1095  0.3572
  731SOL    HW1 2192   0.509   0.274   0.411 -1.4078  0.6919  0.4677
  731SOL    HW2 2193   0.606   0.347   0.527 -0.1561  0.0225  1.8969
  732SOL     OW 2194   0.760   0.723   0.013  0.8372 -0.4453  0.3789
  732SOL    HW1 2195   0.665   0.690   0.006  2.8921  0.6148 -0.2835
  732SOL    HW2 2196   0.755   0.805   0.075 -0.0092  3.5380  1.5579
  733SOL     OW 2197   0.898   2.405   0.914  0.0873  0.4750  0.5618
  733SOL    HW1 2198   0.914   2.384   0.812  2.2482  1.0001 -2.8052
  733SOL    HW2 2199   0.856   2.330   0.967  1.1919  0.3457 -0.6697
  734SOL     OW 2200   0.080   2.085   2.678 -0.1696 -0.2244 -0.0226
  734SOL    HW1 2201   0.072   2.134   2.591  2.1795 -0.2038  0.7648
  734SOL    HW2 2202   0.178   2.070   2.699  1.2171  0.9541 -0.0189
  735SOL     OW 2203   1.024   3.024   0.961 -0.2938 -0.4315 -0.2238
  735SOL    HW1 2204   0.939   3.029   1.021 -1.4885  1.9014  1.7581
  735SOL    HW2 2205   1.027   3.099   0.884  3.2463  2.7859 -1.4475
  736SOL     OW 2206   1.766   0.249   0.024  0.4807 -0.0112  0.2647
  736SOL    HW1 2207   1.763   0.162   0.075 -1.3121  1.0366 -0.1039
  736SOL    HW2 2208   1.706   0.245   3.059  2.8685  3.2532 -0.6867
  737SOL     OW 2209   2.980   0.193   0.357 -0.3150  0.4193 -0.0481
  737SOL    HW1 2210   3.080   0.213   0.348  0.1726 -0.3625  0.9168
  737SOL    HW2 2211   2.917   0.280   0.361 -2.5439  4.1557 -2.4294
  738SOL     OW 2212   2.655   2.781   0.914 -0.1903  0.4992 -0.0759
  738SOL    HW1 2213   2.633   2.868   0.862 -0.8267  1.1444 -1.1500
  738SOL    HW2 2214   2.674   2.704   0.848  0.3985  1.0420 -1.0192
  739SOL     OW 2215   1.621   2.367   0.270  0.2778 -0.3281  0.9053
  739SOL    HW1 2216   1.605   2.293   0.338 -1.2296  1.8769 -1.0607
  739SOL    HW2 2217   1.676   2.344   0.191 -1.5606 -0.4966  1.8721
  740SOL     OW 2218   1.566   0.067   0.915 -0.6706  0.2085  0.3642
  740SOL    HW1 2219   1.525   3.093   0.912 -2.2966  2.3244  0.6419
  740SOL    HW2 2220   1.541   0.120   0.833 -0.4063 -0.3563  0.7246
  741SOL     OW 2221   2.167   0.674   0.563 -0.3067 -0.4054  0.1766
  741SOL    HW1 2222   2.104   0.753   0.556  0.5947  1.1192  0.5359
  741SOL    HW2 2223   2.154   0.603   0.492  0.8722  3.0966 -0.0363
  742SOL     OW 2224   1.314   2.075   2.514 -0.0249  0.4570  0.2368
  742SOL    HW1 2225   1.355   2.111   2.599 -0.7159 -1.0299 -3.5746
  742SOL    HW2 2226   1.368   2.100   2.429  2.8371  0.3311 -0.4286
  743SOL     OW 2227   2.105   0.605   1.724 -0.8848 -0.4903 -0.5340
  743SOL    HW1 2228   2.154   0.694   1.759  3.0870  2.8004  1.1871
  743SOL    HW2 2229   2.163   0.528   1.760 -1.9163 -0.9234  0.0394
  744SOL     OW 2230   2.407   0.267   0.949  0.2516  0.4343 -0.7695
  744SOL    HW1 2231   2.358   0.230   0.866  2.1258  0.0082  1.4799
  744SOL    HW2 2232   2.492   0.225   0.966  1.8153  0.1917 -2.4125
  745SOL     OW 2233   1.833   1.287   1.585 -1.0728 -0.1469  0.3619
  745SOL    HW1 2234   1.828   1.350   1.667  2.7271 -0.1670  1.4853
  745SOL    HW2 2235   1.749   1.288   1.537  1.5633 -0.8637  0.2405
  746SOL     OW 2236   1.501   1.426   1.073  0.7037 -0.6939  0.3757
  746SOL    HW1 2237   1.483   1.488   0.992  0.5614  0.1461  0.6639
  746SOL    HW2 2238   1.563   1.348   1.052 -0.1850  2.8829  1.4997
  747SOL     OW 2239   2.018   1.147   1.144 -0.3608  0.1410  0.3978
  747SOL    HW1 2240   2.057   1.181   1.230  1.8637  1.6506 -4.9353
  747SOL    HW2 2241   1.961   1.067   1.153  2.0415  1.7308 -0.8493
  748SOL     OW 2242   0.349   2.521   0.784 -0.5069 -0.8096  0.1531
  748SOL    HW1 2243   0.375   2.498   0.885  1.2043 -4.1314  3.1904
  748SOL    HW2 2244   0.281   2.446   0.763 -2.1333  1.3072  0.5564
  749SOL     OW 2245   0.006   0.028   2.575  0.1956  0.1120 -0.3839
  749SOL    HW1 2246   0.043   0.119   2.539 -3.6140  0.5605 -0.0164
  749SOL    HW2 2247   3.117   3.074   2.501  1.0092  0.1384  1.6605
  750SOL     OW 2248   2.669   0.470   0.875  0.1327  0.4595 -0.9663
  750SOL    HW1 2249   2.728   0.533   0.931  0.5905  2.7493 -0.4465
  750SOL    HW2 2250   2.585   0.451   0.932  1.2834 -0.0260  0.1590
  751SOL     OW 2251   2.793   0.412   0.404 -0.3665 -0.3603  0.4845
  751SOL    HW1 2252   2.762   0.504   0.364 -0.4622  4.1692  1.3558
  751SOL    HW2 2253   2.730   0.392   0.485  0.4287  0.9446 -0.0911
  752SOL     OW 2254   0.267   2.818   0.842 -0.1976  0.1961  0.5685
  752SOL    HW1 2255   0.199   2.859   0.901  2.2481  1.5554 -1.6387
  752SOL    HW2 2256   0.236   2.737   0.788 -0.7900  1.3919  1.8897
  753SOL     OW 2257   1.311   0.570   2.077 -0.3060  0.0219  0.3933
  753SOL    HW1 2258   1.325   0.474   2.061  2.4254  1.9440 -0.3256
  753SOL    HW2 2259   1.309   0.618   1.984  0.9457  1.2364 -2.9138
  754SOL     OW 2260   1.764   2.417   1.952 -0.4739 -0.4588 -0.1228
  754SOL    HW1 2261   1.732   2.474   2.030  1.7473 -2.6898 -1.2218
  754SOL    HW2 2262   1.697   2.335   1.950 -0.4442 -1.9117  2.0156
  755SOL     OW 2263   2.877   1.113   0.596 -0.3125 -0.6695 -0.2971
  755SOL    HW1 2264   2.910   1.200   0.639 -0.6996 -0.4446  0.7524
  755SOL    HW2 2265   2.816   1.134   0.513  0.0631  1.9136  0.0790
  756SOL     OW 2266   1.466   1.459   2.806 -0.0713 -0.5312 -0.3800
  756SOL    HW1 2267   1.453   1.548   2.861  0.9517  0.4602  0.5870
  756SOL    HW2 2268   1.382   1.412   2.773 -3.1000 -1.2720 -1.9016
  757SOL     OW 2269   1.606   2.868   0.402 -0.1404 -0.7519  0.5266
  757SOL    HW1 2270   1.526   2.897   0.351  0.4832  1.3999  0.4769
  757SOL    HW2 2271   1.637   2.773   0.385 -0.4795  2.0126  1.7970
  758SOL     OW 2272   0.367   0.106   1.226  0.2744 -0.6347  0.1304
  758SOL    HW1 2273   0.265   0.091   1.242  1.0808 -1.2290 -1.3315
  758SOL    HW2 2274   0.382   0.136   1.130 -2.5491 -1.3967 -0.5036
  759SOL     OW 2275   0.141   1.004   1.233  0.4430 -0.0745 -0.2758
  759SOL    HW1 2276   0.205   0.973   1.309 -0.2147 -0.4371 -1.7249
  759SOL    HW2 2277   0.047   1.007   1.279 -1.4855 -1.5904  2.3926
  760SOL     OW 2278   2.261   1.046   1.140 -0.2904  0.2304  0.3336
  760SOL    HW1 2279   2.182   1.089   1.090 -1.4305 -0.0199  2.1778
  760SOL    HW2 2280   2.343   1.028   1.072  1.4739 -0.2149  2.2692
  761SOL     OW 2281   1.406   1.002   0.711 -0.2607  0.5019 -0.8270
  761SOL    HW1 2282   1.365   0.910   0.687  0.7336  1.9548  0.9687
  761SOL    HW2 2283   1.383   1.024   0.806 -0.2897 -0.7904 -0.3797
  762SOL     OW 2284   2.272   2.444   1.355 -0.2556  0.7978 -0.0280
  762SOL    HW1 2285   2.226   2.360   1.382  0.1602  0.6956  0.3847
  762SOL    HW2 2286   2.224   2.485   1.278 -0.9143  1.5656  0.1219
  763SOL     OW 2287   1.509   1.349   2.083  0.6603 -0.4968 -0.0921
  763SOL    HW1 2288   1.572   1.285   2.033  1.3572 -3.8481 -0.1948
  763SOL    HW2 2289   1.419   1.356   2.029 -1.6123 -1.5131 -2.6686
  764SOL     OW 2290   0.378   1.895   2.547  0.2625 -0.1434 -0.6356
  764SOL    HW1 2291   0.300   1.832   2.537 -1.8397  3.5128 -0.7221
  764SOL    HW2 2292   0.358   1.963   2.623  0.1042  0.9838  0.4793
  765SOL     OW 2293   0.823   2.662   1.216  0.6544  0.1965 -0.0314
  765SOL    HW1 2294   0.844   2.692   1.119  0.4027  4.0676 -0.8436
  765SOL    HW2 2295   0.779   2.571   1.223 -0.5456 -1.6084  0.9439
  766SOL     OW 2296   0.836   2.295   2.546  0.0137 -0.3414  0.0099
  766SOL    HW1 2297   0.915   2.296   2.481  0.9430 -1.3129 -0.9539
  766SOL    HW2 2298   0.797   2.199   2.552 -0.9285 -2.5311 -0.7170
  767SOL     OW 2299   1.674   0.392   2.487 -0.2808  0.1305 -0.5976
  767SOL    HW1 2300   1.583   0.387   2.443 -0.1859 -0.7827  1.8696
  767SOL    HW2 2301   1.728   0.303   2.483  1.1423 -0.8978  0.3769
  768SOL     OW 2302   1.280   2.266   0.078  0.3856 -0.1324 -0.9043
  768SOL    HW1 2303   1.262   2.240   0.175 -2.4505  1.2888 -1.8253
  768SOL    HW2 2304   1.361   2.222   0.032 -2.0897  0.1450  1.3124
  769SOL     OW 2305   3.056   2.696   1.113 -0.2956  0.3500  0.2204
  769SOL    HW1 2306   2.969   2.710   1.160  0.6197  1.0980  2.3113
  769SOL    HW2 2307   3.053   2.623   1.045 -0.2936 -0.2338  0.9279
  770SOL     OW 2308   0.574   2.908   2.698  0.0108 -0.4623  0.0538
  770SOL    HW1 2309   0.492   2.951   2.659  0.5555  0.5811 -0.2584
  770SOL    HW2 2310   0.631   2.974   2.746  0.4168 -1.0721  0.3396
  771SOL     OW 2311   0.898   2.580   2.767  0.0843  0.0362  0.1340
  771SOL    HW1 2312   0.901   2.519   2.849 -1.9929 -0.5286 -0.2768
  771SOL    HW2 2313   0.803   2.585   2.728 -1.0975 -1.6861  3.4713
  772SOL     OW 2314   2.604   3.095   1.870  0.0544  0.2980 -0.5250
  772SOL    HW1 2315   2.540   0.018   1.940  1.3325  0.2105  1.0023
  772SOL    HW2 2316   2.590   0.022   1.775 -1.4355  1.2919 -2.1805
  773SOL     OW 2317   1.205   2.685   2.124  0.0341  0.1567  0.1100
  773SOL    HW1 2318   1.235   2.592   2.101  0.3026 -0.3844  0.1635
  773SOL    HW2 2319   1.177   2.694   2.221  0.9807 -2.3701 -0.3863
  774SOL     OW 2320   1.577   0.386   2.113 -0.2404 -0.4309  0.4047
  774SOL    HW1 2321   1.557   0.381   2.211 -0.5829  1.2085 -1.4559
  774SOL    HW2 2322   1.551   0.305   2.052 -2.5659  0.7785 -2.8576
  775SOL     OW 2323   2.242   2.836   0.009  0.3023  0.0960  0.2477
  775SOL    HW1 2324   2.210   2.814   0.104 -1.3865  3.6187 -0.4548
  775SOL    HW2 2325   2.333   2.794   3.116  0.3115  0.8778  0.6559
  776SOL     OW 2326   2.154   0.880   1.787  0.0733  0.1804 -0.4691
  776SOL    HW1 2327   2.063   0.867   1.833 -1.7214 -0.9554  2.1044
  776SOL    HW2 2328   2.160   0.969   1.738  0.4919 -0.2112 -0.1372
  777SOL     OW 2329   2.791   1.125   2.306 -0.1897  0.3655  0.1255
  777SOL    HW1 2330   2.736   1.119   2.392 -0.3682  2.2506  1.7065
  777SOL    HW2 2331   2.739   1.170   2.225  1.3310  0.2423  1.2539
  778SOL     OW 2332   2.278   0.542   2.024 -0.2285  0.0219 -0.0522
  778SOL    HW1 2333   2.315   0.635   2.018 -0.8700 -0.8676 -0.2061
  778SOL    HW2 2334   2.288   0.489   1.937  1.4060  2.0753  2.2696
  779SOL     OW 2335   3.040   0.215   3.072  0.2977  0.5540 -0.3206
  779SOL    HW1 2336   3.031   0.208   2.973  2.5717  0.1525  2.2876
  779SOL    HW2 2337   3.090   0.134   3.106 -0.7338 -0.0921 -0.2996
  780SOL     OW 2338   2.068   0.114   2.067 -0.4333 -0.1346 -0.0650
  780SOL    HW1 2339   2.002   0.188   2.083  1.3594 -2.4837  0.0190
  780SOL    HW2 2340   2.075   0.049   2.148  2.4305  0.8308  1.2927
  781SOL     OW 2341   0.254   0.407   1.705 -0.4232 -0.4843  0.3080
  781SOL    HW1 2342   0.183   0.336   1.697  0.3550 -1.3703 -2.4428
  781SOL    HW2 2343   0.283   0.444   1.614  0.8546  1.4756  0.9061
  782SOL     OW 2344   1.828   1.996   0.258  0.0036  0.2214  0.1775
  782SOL    HW1 2345   1.897   2.045   0.204  1.4369 -1.6600  1.7287
  782SOL    HW2 2346   1.863   1.999   0.353  0.1540 -1.0299 -1.7141
  783SOL     OW 2347   1.037   1.608   1.751  0.2802  0.2902  0.4323
  783SOL    HW1 2348   1.046   1.519   1.702 -2.0025 -2.4215  0.2156
  783SOL    HW2 2349   1.099   1.601   1.833  0.6621 -0.0962  0.7336
  784SOL     OW 2350   1.911   0.664   2.161 -0.2706  0.2602 -0.5992
  784SOL    HW1 2351   1.945   0.567   2.136  1.8326 -2.1332  0.3667
  784SOL    HW2 2352   1.991   0.721   2.188  1.2059  0.7575  0.7369
  785SOL     OW 2353   3.030   0.338   0.808  0.0147  0.1625 -0.6211
  785SOL    HW1 2354   2.994   0.359   0.901  0.0235  0.1042  4.7158
  785SOL    HW2 2355   2.993   0.410   0.748  1.5215  0.6269 -0.2292
  786SOL     OW 2356   1.795   3.062   0.352  0.3623  0.0630  0.1055
  786SOL    HW1 2357   1.890   3.043   0.382 -0.6651 -2.6536 -1.0106
  786SOL    HW2 2358   1.734   2.978   0.361  1.7034  1.2376  1.4926
  787SOL     OW 2359   1.075   0.094   0.754  0.3250 -0.0412  0.2101
  787SOL    HW1 2360   1.152   0.159   0.760 -1.4057 -0.2763  0.1221
  787SOL    HW2 2361   0.995   0.144   0.715  0.5918  2.3011 -0.3783
  788SOL     OW 2362   0.197   1.872   1.399  0.1573  0.0484 -0.0684
  788SOL    HW1 2363   0.281   1.894   1.449 -0.4099  1.2280  0.8407
  788SOL    HW2 2364   0.214   1.827   1.307 -0.6005  1.2605  0.6289
  789SOL     OW 2365   2.787   0.663   2.032 -0.2210 -0.0257 -0.5656
  789SOL    HW1 2366   2.746   0.573   2.044  1.0382  1.8377 -1.5143
  789SOL    HW2 2367   2.829   0.714   2.114  2.9711  1.1240 -0.1079
  790SOL     OW 2368   0.602   0.617   2.666  0.1068  0.0580 -0.0411
  790SOL    HW1 2369   0.675   0.548   2.672 -2.3351  2.0574 -1.4894
  790SOL    HW2 2370   0.517   0.568   2.644  2.4848 -1.5559 -2.5970
  791SOL     OW 2371   2.500   0.586   2.905  0.7987  0.3589 -0.1624
  791SOL    HW1 2372   2.402   0.595   2.933  1.3094  0.4665  1.4190
  791SOL    HW2 2373   2.510   0.507   2.836 -0.6628 -1.5596 -2.2022
  792SOL     OW 2374   1.468   0.525   1.383  0.0270  0.0845 -0.0174
  792SOL    HW1 2375   1.526   0.504   1.298  1.2852 -0.4701 -1.7823
  792SOL    HW2 2376   1.517   0.480   1.460  0.5847 -2.2005  1.8737
  793SOL     OW 2377   0.106   0.026   1.468 -0.2029 -0.1639  0.1656
  793SOL    HW1 2378   0.129   0.100   1.545 -0.2870  1.4894  1.2832
  793SOL    HW2 2379   0.088   0.063   1.374  1.2490 -2.1100 -0.4677
  794SOL     OW 2380   3.105   0.170   2.103  0.4258  0.2389  0.6384
  794SOL    HW1 2381   0.041   0.258   2.089  0.2724  1.6475 -1.9623
  794SOL    HW2 2382   3.096   0.130   2.008  1.4374  0.7003 -2.7481
  795SOL     OW 2383   0.559   2.275   2.708  0.6273  0.1410  0.4632
  795SOL    HW1 2384   0.620   2.207   2.761 -0.0822  1.2726  5.8182
  795SOL    HW2 2385   0.606   2.362   2.693 -0.8315 -1.1241  0.6810
  796SOL     OW 2386   2.062   0.519   2.589 -0.0047  0.4512 -0.1606
  796SOL    HW1 2387   1.966   0.553   2.579 -2.1076  0.3363 -2.6955
  796SOL    HW2 2388   2.085   0.502   2.687  0.3759  2.2818 -0.9029
  797SOL     OW 2389   2.233   2.054   2.961  0.4443 -0.1745  0.1270
  797SOL    HW1 2390   2.203   2.143   2.996  1.1346  1.9927 -0.9126
  797SOL    HW2 2391   2.313   2.025   3.013  1.1429  3.0234  0.7783
  798SOL     OW 2392   0.077   0.652   1.527 -0.4264  0.6216  0.6057
  798SOL    HW1 2393   0.165   0.623   1.491 -0.8185  2.4418 -0.9269
  798SOL    HW2 2394   0.016   0.679   1.448 -0.5698 -1.8525 -0.1979
  799SOL     OW 2395   0.587   0.198   1.625  0.0726  0.2085 -0.6607
  799SOL    HW1 2396   0.650   0.267   1.666 -0.7843  1.4446  0.0123
  799SOL    HW2 2397   0.633   0.110   1.617  0.0765  2.2499 -0.6801
  800SOL     OW 2398   3.022   2.472   0.129  0.1411  0.1945 -0.0279
  800SOL    HW1 2399   3.003   2.418   0.215  0.9579  2.7196  1.3447
  800SOL    HW2 2400   3.107   2.526   0.150 -0.8347  0.0494 -1.0359
  801SOL     OW 2401   1.564   1.884   0.750  0.4299 -0.4349 -0.1109
  801SOL    HW1 2402   1.641   1.927   0.801 -0.7128 -0.7047 -0.0744
  801SOL    HW2 2403   1.521   1.802   0.804 -0.8421 -1.0800  1.3355
  802SOL     OW 2404   0.834   0.554   0.200  0.2135 -0.0938  0.7963
  802SOL    HW1 2405   0.833   0.607   0.287 -1.5876 -1.0591 -0.0894
  802SOL    HW2 2406   0.820   0.624   0.123 -0.9822  0.1545 -1.8792
  803SOL     OW 2407   1.270   1.313   1.937  0.4691 -0.0933 -0.1373
  803SOL    HW1 2408   1.240   1.223   1.971 -1.5280  1.6371 -4.7811
  803SOL    HW2 2409   1.283   1.302   1.839 -0.4014 -0.8066  3.3223
  804SOL     OW 2410   1.727   2.297   1.364  0.0596 -0.0388  0.0553
  804SOL    HW1 2411   1.799   2.368   1.393  0.5579 -0.9608 -1.5033
  804SOL    HW2 2412   1.702   2.304   1.264 -0.4798 -0.3255  2.4260
  805SOL     OW 2413   0.029   2.269   2.479  0.6487 -0.4648  0.8385
  805SOL    HW1 2414   0.002   2.327   2.399  0.7086 -0.2191  0.9116
  805SOL    HW2 2415   0.066   2.332   2.551 -0.7770  1.2976 -0.5933
  806SOL     OW 2416   0.597   2.544   0.369 -0.3061 -0.4834  0.1542
  806SOL    HW1 2417   0.535   2.621   0.339 -0.9172  0.2138  1.6707
  806SOL    HW2 2418   0.547   2.454   0.370  0.1257 -0.5050  0.8092
  807SOL     OW 2419   2.429   1.044   2.707 -0.4724  0.1304 -0.4072
  807SOL    HW1 2420   2.504   1.064   2.780 -1.4699  2.4975  3.5300
  807SOL    HW2 2421   2.399   0.948   2.713  0.5853  0.4875 -2.6416
  808SOL     OW 2422   1.434   2.050   1.111 -0.3645  0.2196  1.2059
  808SOL    HW1 2423   1.517   2.081   1.061  2.8920  1.5544 -1.5639
  808SOL    HW2 2424   1.437   2.083   1.209  1.5318 -0.0624 -0.5080
  809SOL     OW 2425   0.078   0.501   0.512  0.3361  0.0090 -0.6319
  809SOL    HW1 2426   0.021   0.529   0.589 -0.1429  0.6572  2.4876
  809SOL    HW2 2427   0.120   0.413   0.542  0.3272 -0.1750 -2.0194
  810SOL     OW 2428   1.077   1.527   0.128  0.1723  0.0666 -0.2585
  810SOL    HW1 2429   1.137   1.518   0.210  1.1020  0.2413  2.0000
  810SOL    HW2 2430   1.121   1.581   0.050  0.8208  2.8884 -0.0651
  811SOL     OW 2431   1.407   2.789   1.506 -0.4875  0.0082 -0.3048
  811SOL    HW1 2432   1.482   2.760   1.446  0.9150  2.0804 -1.8669
  811SOL    HW2 2433   1.426   2.766   1.608 -0.5053 -3.2158  0.1968
  812SOL     OW 2434   1.281   0.229   0.671 -0.7172  0.0224  0.3164
  812SOL    HW1 2435   1.263   0.295   0.595  0.6919  0.8622  0.6523
  812SOL    HW2 2436   1.377   0.245   0.706  2.1778  2.2620  0.2531
  813SOL     OW 2437   1.337   3.019   2.439  0.2806 -0.2192  0.1931
  813SOL    HW1 2438   1.263   3.007   2.510  0.7303  1.7653  4.2035
  813SOL    HW2 2439   1.298   3.010   2.346  1.8081  2.2123  1.5326
  814SOL     OW 2440   1.420   2.769   1.780 -0.0935 -0.0924 -0.0314
  814SOL    HW1 2441   1.380   2.688   1.827  2.6270  0.5284 -1.5867
  814SOL    HW2 2442   1.377   2.851   1.817 -1.8147 -0.2391  2.0427
  815SOL     OW 2443   0.029   3.103   0.042 -0.3065 -0.4331 -0.7101
  815SOL    HW1 2444   0.083   3.086   0.127 -0.1671 -0.6414 -0.3067
  815SOL    HW2 2445   3.091   3.018   0.023  0.9032 -0.5610 -1.4852
  816SOL     OW 2446   2.386   1.412   2.652  0.5005  0.2986 -0.1592
  816SOL    HW1 2447   2.341   1.328   2.687  0.2189  0.1848 -2.2313
  816SOL    HW2 2448   2.390   1.411   2.551 -1.2160 -0.8297  1.0803
  817SOL     OW 2449   2.641   2.258   2.493  0.2300 -0.1203  0.4263
  817SOL    HW1 2450   2.664   2.253   2.393  0.5486 -2.0341  1.5907
  817SOL    HW2 2451   2.720   2.239   2.553  0.5972 -1.4148 -1.2432
  818SOL     OW 2452   1.002   0.949   0.172  0.1323 -0.3025  0.9389
  818SOL    HW1 2453   1.047   0.929   0.260 -1.3617 -0.1891 -1.9266
  818SOL    HW2 2454   0.937   1.027   0.172  2.5467 -2.9797  0.9313
  819SOL     OW 2455   1.622   1.335   0.066  0.1763 -0.6899 -0.1747
  819SOL    HW1 2456   1.588   1.283   3.101 -2.1489  0.6279  1.4126
  819SOL    HW2 2457   1.630   1.271   0.143  0.0075  0.1114 -1.0900
  820SOL     OW 2458   0.197   0.912   0.769 -0.4361 -0.0282 -0.0533
  820SOL    HW1 2459   0.291   0.864   0.785  1.2486 -1.2148 -0.5620
  820SOL    HW2 2460   0.182   0.941   0.675  1.9976  1.3714  2.1661
  821SOL     OW 2461   0.527   3.024   1.348  0.0317 -0.0971 -0.3105
  821SOL    HW1 2462   0.468   3.097   1.301 -2.1994  0.7285  0.3883
  821SOL    HW2 2463   0.564   2.953   1.287 -1.2158 -0.8539  2.1155
  822SOL     OW 2464   1.931   1.896   2.779  0.4805  0.2378  0.5065
  822SOL    HW1 2465   1.851   1.930   2.726 -0.5395  0.9172  0.8243
  822SOL    HW2 2466   2.016   1.924   2.730 -1.6175 -1.0992 -0.5613
  823SOL     OW 2467   0.835   0.637   2.254 -0.5200  0.1929 -0.2743
  823SOL    HW1 2468   0.929   0.609   2.235 -1.1362  2.9495  0.5015
  823SOL    HW2 2469   0.823   0.740   2.264  0.3372  0.1181  0.0197
  824SOL     OW 2470   2.697   2.970   1.518 -0.0571  0.1309 -0.5561
  824SOL    HW1 2471   2.655   3.049   1.562  1.3979 -1.0290 -1.1526
  824SOL    HW2 2472   2.623   2.904   1.500  0.4570  0.5858 -0.2998
  825SOL     OW 2473   0.336   1.565   2.579  0.2840 -0.2932  0.9289
  825SOL    HW1 2474   0.399   1.571   2.503 -2.0777 -2.0069  0.0353
  825SOL    HW2 2475   0.257   1.625   2.556 -1.8305  1.6774  1.2219
  826SOL     OW 2476   1.609   0.456   2.803 -0.2203 -0.3223 -0.0468
  826SOL    HW1 2477   1.673   0.509   2.745  0.2004 -1.0170  0.3220
  826SOL    HW2 2478   1.632   0.357   2.793  1.1357  1.8483 -1.2404
  827SOL     OW 2479   0.275   2.493   2.296  0.2240 -0.2035 -0.1664
  827SOL    HW1 2480   0.341   2.428   2.256 -1.2471  0.5672  0.3630
  827SOL    HW2 2481   0.319   2.538   2.377 -0.4612 -2.8457  0.0823
  828SOL     OW 2482   0.083   0.110   1.219  0.0561 -0.1258 -1.0671
  828SOL    HW1 2483   0.104   0.208   1.200  1.4546 -1.2619  0.7178
  828SOL    HW2 2484   3.116   0.085   1.170  1.7491 -0.2179  1.8167
  829SOL     OW 2485   1.218   1.571   1.980  0.5598 -0.4614  0.1329
  829SOL    HW1 2486   1.248   1.477   1.966 -1.3648  3.6833  3.1418
  829SOL    HW2 2487   1.139   1.580   2.045 -1.4673 -2.2460 -1.7665
  830SOL     OW 2488   0.949   0.970   1.516  0.4714  0.0754 -1.1641
  830SOL    HW1 2489   0.909   0.908   1.448  0.6538 -0.9356 -0.4592
  830SOL    HW2 2490   0.896   0.975   1.605 -0.6242  1.5200  0.0807
  831SOL     OW 2491   2.739   1.950   0.323 -0.0329  0.4088 -0.5529
  831SOL    HW1 2492   2.807   1.900   0.260  0.8558  0.5254  0.2138
  831SOL    HW2 2493   2.741   1.910   0.417  0.8235 -1.8752 -0.2067
  832SOL     OW 2494   1.196   2.573   0.130 -0.0805 -0.4117  0.0276
  832SOL    HW1 2495   1.163   2.568   0.225  1.6511  2.1815  0.2112
  832SOL    HW2 2496   1.175   2.485   0.084 -0.5061 -1.9912  0.1934
  833SOL     OW 2497   3.078   0.391   1.539  0.3221  0.2489 -0.0027
  833SOL    HW1 2498   3.095   0.382   1.439 -1.1130  0.8040 -0.3668
  833SOL    HW2 2499   0.014   0.472   1.571 -1.2161  0.7416  0.7435
  834SOL     OW 2500   3.015   0.743   0.909  0.1005 -0.3024 -0.2499
  834SOL    HW1 2501   3.108   0.762   0.950  3.3421  0.7135  1.2207
  834SOL    HW2 2502   2.979   0.838   0.893 -0.6845  0.5884  1.2189
  835SOL     OW 2503   2.628   0.340   0.202  0.7483  0.0088 -0.1610
  835SOL    HW1 2504   2.701   0.340   0.273 -1.5516  1.5701 -0.0812
  835SOL    HW2 2505   2.598   0.240   0.188  1.9292  0.0345 -3.3296
  836SOL     OW 2506   0.725   2.095   2.839 -0.0022 -0.2920 -0.1570
  836SOL    HW1 2507   0.675   2.008   2.847  1.5882  1.5265 -0.5261
  836SOL    HW2 2508   0.829   2.075   2.857  0.4293 -0.7847 -0.3462
  837SOL     OW 2509   1.475   1.776   0.272  0.0025 -0.5235  0.1279
  837SOL    HW1 2510   1.539   1.799   0.348 -2.1852  0.6589  3.5944
  837SOL    HW2 2511   1.527   1.726   0.200 -2.5804  1.5369  2.0362
  838SOL     OW 2512   2.444   1.033   2.211  0.5983  0.4575 -0.4026
  838SOL    HW1 2513   2.375   1.088   2.268  0.9115  1.5631  2.3809
  838SOL    HW2 2514   2.518   1.090   2.170  2.7937  1.9511 -0.4768
  839SOL     OW 2515   0.876   1.026   2.383  0.2525  0.3068  0.5109
  839SOL    HW1 2516   0.980   1.047   2.385  4.4014  0.8932 -0.3530
  839SOL    HW2 2517   0.832   1.026   2.477 -0.8345 -0.0109  3.6063
  840SOL     OW 2518   0.662   0.937   0.148  0.2929 -0.3073 -0.2266
  840SOL    HW1 2519   0.563   0.955   0.128  1.4992 -0.7313  0.6549
  840SOL    HW2 2520   0.723   1.010   0.111 -0.6110 -1.9619 -0.0955
  841SOL     OW 2521   0.895   2.321   0.628 -0.0287 -0.6966  0.4057
  841SOL    HW1 2522   0.820   2.349   0.562 -3.3638  0.3997  0.8232
  841SOL    HW2 2523   0.877   2.223   0.643  0.0103  0.9770 -0.8181
  842SOL     OW 2524   0.462   0.702   0.784 -0.1289  0.3220 -0.0482
  842SOL    HW1 2525   0.560   0.731   0.790  1.3337 -0.0451 -0.7500
  842SOL    HW2 2526   0.449   0.610   0.814  2.3404  1.3024  2.4231
  843SOL     OW 2527   0.626   0.893   1.501  0.3315 -0.4721  0.0575
  843SOL    HW1 2528   0.663   0.828   1.570 -0.7374 -0.3951 -0.8474
  843SOL    HW2 2529   0.640   0.992   1.524  0.3363  1.7203 -3.4949
  844SOL     OW 2530   2.061   2.436   2.882  0.1207  0.4857  0.0521
  844SOL    HW1 2531   2.049   2.533   2.905  1.6551 -1.7116 -2.4215
  844SOL    HW2 2532   2.143   2.430   2.819  1.0110 -0.9725  0.4690
  845SOL     OW 2533   2.160   3.051   1.666 -0.3185 -0.0703 -0.5251
  845SOL    HW1 2534   2.214   3.088   1.587 -1.4336  0.4872  0.5341
  845SOL    HW2 2535   2.130   2.959   1.637  0.7903  1.2913 -2.7002
  846SOL     OW 2536   1.946   0.953   2.622  0.0487  0.0890  0.2061
  846SOL    HW1 2537   1.988   0.930   2.530  0.9007 -0.1720  1.8395
  846SOL    HW2 2538   2.004   0.904   2.686 -1.3112  0.9662 -1.2680
  847SOL     OW 2539   2.875   0.007   1.875  0.5287  0.0113  0.1040
  847SOL    HW1 2540   2.771   3.112   1.877 -4.2030  1.2790  1.2510
  847SOL    HW2 2541   2.918   3.117   1.783  1.0715 -0.3468  0.1168
  848SOL     OW 2542   2.509   2.713   0.007 -0.3345  0.0919 -0.3420
  848SOL    HW1 2543   2.504   2.657   3.042 -2.8194  1.4126  1.8903
  848SOL    HW2 2544   2.517   2.655   0.087  0.4484 -0.5513  1.5422
  849SOL     OW 2545   0.591   2.871   0.597  0.3043 -0.2331  0.6010
  849SOL    HW1 2546   0.511   2.812   0.576 -0.7595  0.9179  1.2071
  849SOL    HW2 2547   0.564   2.969   0.596  0.2281  3.5741 -1.3224
  850SOL     OW 2548   0.602   2.208   0.797 -0.0354 -0.6876  0.1725
  850SOL    HW1 2549   0.612   2.306   0.762 -0.7930  0.7438  1.8249
  850SOL    HW2 2550   0.663   2.139   0.747  2.4308  2.0343  1.2502
  851SOL     OW 2551   2.013   0.242   2.804 -0.2125 -0.3098 -0.3011
  851SOL    HW1 2552   2.042   0.337   2.839  0.3016  1.7540  1.0740
  851SOL    HW2 2553   2.082   0.200   2.738  0.1822 -0.1465  0.0440
  852SOL     OW 2554   1.686   1.979   2.662 -0.4025  0.6161  0.2059
  852SOL    HW1 2555   1.597   1.930   2.666 -0.2806 -0.9374 -0.0581
  852SOL    HW2 2556   1.707   2.012   2.569 -2.7045 -0.5797  1.9094
  853SOL     OW 2557   0.068   2.063   0.306  0.1639 -0.6520 -0.0097
  853SOL    HW1 2558   0.059   2.024   0.213  1.2242 -1.2677 -0.4806
  853SOL    HW2 2559   0.092   1.987   0.366  0.0351  1.8417  1.1316
  854SOL     OW 2560   1.668   0.618   2.001  0.1940  0.0098  0.1711
  854SOL    HW1 2561   1.627   0.534   2.045  2.6642  0.3349 -1.4822
  854SOL    HW2 2562   1.755   0.641   2.047 -1.9888 -0.2218  0.1632
  855SOL     OW 2563   0.076   2.666   0.454 -0.1787  0.4732 -0.5310
  855SOL    HW1 2564   0.160   2.664   0.512  0.6565  0.9058  2.0243
  855SOL    HW2 2565   0.092   2.598   0.380  1.0203 -0.3982  1.3333
  856SOL     OW 2566   0.319   2.946   2.417 -0.1392  0.6135  0.4025
  856SOL    HW1 2567   0.324   2.954   2.522 -1.9470 -0.5895 -0.5430
  856SOL    HW2 2568   0.415   2.923   2.376  1.5067  0.1871 -1.1884
  857SOL     OW 2569   0.984   0.125   1.615 -0.3261 -0.1031  0.0777
  857SOL    HW1 2570   0.909   0.190   1.622  0.4952 -0.7991 -0.8440
  857SOL    HW2 2571   1.015   0.100   1.522 -0.7643 -0.0204  0.8398
  858SOL     OW 2572   0.442   2.196   1.998  0.0654  0.1398 -0.0448
  858SOL    HW1 2573   0.346   2.171   2.023 -0.2493  1.7535  0.1521
  858SOL    HW2 2574   0.440   2.252   1.912 -1.4883 -0.5537  0.4098
  859SOL     OW 2575   2.019   2.685   1.983 -0.1760 -0.3161  0.1508
  859SOL    HW1 2576   1.927   2.706   2.019 -2.3007 -1.0923 -1.0435
  859SOL    HW2 2577   2.016   2.628   1.899  1.9830  0.2992  2.7172
  860SOL     OW 2578   1.639   0.621   0.617  0.1771 -0.0602  0.2826
  860SOL    HW1 2579   1.550   0.615   0.564  1.0673 -0.6461 -2.2355
  860SOL    HW2 2580   1.644   0.562   0.701 -2.0234 -1.7979  0.7270
  861SOL     OW 2581   2.962   0.590   0.684 -0.1337 -0.7704  0.0083
  861SOL    HW1 2582   3.001   0.649   0.757  0.8644  0.0773 -0.8214
  861SOL    HW2 2583   2.898   0.639   0.629 -0.6620 -2.7957 -0.3867
  862SOL     OW 2584   2.160   0.720   1.450  0.0601  0.1504 -0.2744
  862SOL    HW1 2585   2.172   0.658   1.370 -1.3081  0.5278  0.4805
  862SOL    HW2 2586   2.164   0.663   1.538 -1.3402 -1.6683  0.3861
  863SOL     OW 2587   0.661   1.051   0.948 -0.4514  0.2845 -0.1662
  863SOL    HW1 2588   0.594   1.009   1.010  1.7123 -0.7565 -1.2987
  863SOL    HW2 2589   0.741   1.076   1.003 -1.0184 -1.2731  1.5760
  864SOL     OW 2590   2.936   2.926   2.067 -0.0812 -0.7488 -0.3133
  864SOL    HW1 2591   2.981   2.960   2.152 -0.8660  1.1131 -0.3937
  864SOL    HW2 2592   2.924   3.009   2.005  0.4148  2.7440  0.8461
  865SOL     OW 2593   1.095   0.566   2.235 -0.0985  0.1708 -0.5446
  865SOL    HW1 2594   1.104   0.467   2.254 -0.7656  0.1341 -2.0031
  865SOL    HW2 2595   1.178   0.594   2.178 -0.0164  3.5544 -1.2524
  866SOL     OW 2596   2.487   2.670   0.302  0.0416 -0.2383 -0.0827
  866SOL    HW1 2597   2.443   2.759   0.332 -0.3972 -0.1887 -1.3963
  866SOL    HW2 2598   2.546   2.640   0.380 -1.4260 -1.0309  1.0462
  867SOL     OW 2599   2.748   2.638   0.432  0.1270  0.4550  0.3479
  867SOL    HW1 2600   2.760   2.539   0.405  2.1476  1.5242 -1.2085
  867SOL    HW2 2601   2.799   2.700   0.366 -1.5203 -0.2881 -0.8965
  868SOL     OW 2602   1.726   1.019   2.877  0.0888 -0.0214  0.0784
  868SOL    HW1 2603   1.812   1.025   2.931 -0.4041 -0.3735 -0.3496
  868SOL    HW2 2604   1.653   1.087   2.910 -1.9131  1.6914  1.2278
  869SOL     OW 2605   2.751   2.372   0.409  0.1751  0.4153 -0.3625
  869SOL    HW1 2606   2.702   2.343   0.492 -0.1776 -0.8407 -1.1001
  869SOL    HW2 2607   2.822   2.310   0.372 -0.8587  2.7055 -0.8649
  870SOL     OW 2608   2.454   2.132   0.775  0.1112 -0.2194 -0.6744
  870SOL    HW1 2609   2.421   2.136   0.874  0.7455  1.9079 -0.7512
  870SOL    HW2 2610   2.452   2.040   0.730  0.1829  2.0474  0.8474
  871SOL     OW 2611   0.455   1.396   1.230  0.8380 -0.2502  0.2779
  871SOL    HW1 2612   0.385   1.332   1.190 -0.8597  0.5475  0.6659
  871SOL    HW2 2613   0.412   1.442   1.310  2.1031 -1.8705 -1.4956
  872SOL     OW 2614   1.228   1.816   2.493  0.4299  0.2398  0.5358
  872SOL    HW1 2615   1.267   1.906   2.508 -1.1360 -2.8603 -0.3098
  872SOL    HW2 2616   1.282   1.762   2.428  4.3255  3.5356  0.4814
  873SOL     OW 2617   0.856   2.626   2.199 -0.3271  0.0441 -0.2203
  873SOL    HW1 2618   0.829   2.687   2.125  1.5230 -2.0013  1.6715
  873SOL    HW2 2619   0.863   2.530   2.167 -1.2488  3.7019 -1.7389
  874SOL     OW 2620   0.846   0.381   1.324 -0.2613 -0.1461  0.7017
  874SOL    HW1 2621   0.775   0.455   1.340 -2.5169  1.3809  0.4135
  874SOL    HW2 2622   0.917   0.386   1.396  0.1867 -0.3820 -3.1239
  875SOL     OW 2623   2.971   0.323   1.088 -0.0169 -0.0779 -0.6116
  875SOL    HW1 2624   3.033   0.367   1.160 -2.0946  3.3953  0.0207
  875SOL    HW2 2625   2.958   0.223   1.109  0.9309  1.9723 -0.6503
  876SOL     OW 2626   0.391   0.935   0.149 -0.1128 -0.3455 -0.3666
  876SOL    HW1 2627   0.341   0.846   0.132 -2.0841  0.2009  1.0329
  876SOL    HW2 2628   0.330   1.017   0.149  1.4842  0.5720  1.9276
  877SOL     OW 2629   1.192   0.750   1.568  0.2326  0.1323 -0.1012
  877SOL    HW1 2630   1.214   0.736   1.474 -2.9728  1.4158 -0.2208
  877SOL    HW2 2631   1.198   0.854   1.585  1.6284  0.6372 -0.9118
  878SOL     OW 2632   2.188   2.123   0.564 -0.6880  0.4639  0.0303
  878SOL    HW1 2633   2.225   2.071   0.480 -0.2711  0.9410  0.2029
  878SOL    HW2 2634   2.261   2.144   0.629 -0.1895  1.7578 -0.4194
  879SOL     OW 2635   2.753   1.746   1.545 -0.0115 -0.0944 -0.3123
  879SOL    HW1 2636   2.830   1.811   1.520 -1.1270 -1.7989 -1.4237
  879SOL    HW2 2637   2.781   1.648   1.556  0.8981 -1.0664 -0.7972
  880SOL     OW 2638   1.501   2.499   0.644  0.1355 -0.4842 -0.4462
  880SOL    HW1 2639   1.444   2.475   0.725 -0.5016 -3.1964  1.9372
  880SOL    HW2 2640   1.545   2.418   0.603  0.0843  0.5002 -2.2435
  881SOL     OW 2641   0.623   2.484   0.698 -0.1470 -0.2055  0.1426
  881SOL    HW1 2642   0.673   2.562   0.654 -0.1108  3.3965 -1.5527
  881SOL    HW2 2643   0.545   2.517   0.760  1.1005 -0.4374  1.9273
  882SOL     OW 2644   2.046   0.834   0.906 -0.2676 -0.4295  0.4079
  882SOL    HW1 2645   2.139   0.818   0.887 -1.3967  0.0537 -2.8901
  882SOL    HW2 2646   2.018   0.778   0.986 -0.5385 -2.3479 -1.1699
  883SOL     OW 2647   1.724   0.890   1.637  0.1849 -0.0674 -0.1380
  883SOL    HW1 2648   1.732   0.802   1.692  1.7662 -1.2203  0.3665
  883SOL    HW2 2649   1.796   0.883   1.568 -1.9472  0.5278 -0.2522
  884SOL     OW 2650   2.567   0.579   0.042 -0.3180  0.5743  0.0865
  884SOL    HW1 2651   2.571   0.488   0.093 -2.9551  0.4699  1.1017
  884SOL    HW2 2652   2.544   0.569   3.059  2.3588  0.9954 -1.0226
  885SOL     OW 2653   1.223   1.293   2.831 -0.6446  0.8988 -0.2135
  885SOL    HW1 2654   1.232   1.278   2.936 -0.1548 -1.2357 -1.1424
  885SOL    HW2 2655   1.121   1.298   2.807 -1.9662 -0.9371 -2.5002
  886SOL     OW 2656   1.417   1.872   2.743 -0.0057  0.0366  0.3511
  886SOL    HW1 2657   1.343   1.822   2.695  0.4422 -1.0425 -1.4334
  886SOL    HW2 2658   1.381   1.962   2.774  0.3414 -0.6450  1.6427
  887SOL     OW 2659   1.209   0.257   1.232  0.2271 -0.1301 -0.0336
  887SOL    HW1 2660   1.281   0.277   1.167 -1.9190  1.0084 -0.9094
  887SOL    HW2 2661   1.142   0.330   1.225  0.1790 -3.1536  0.2329
  888SOL     OW 2662   2.619   0.706   1.650 -0.1874  0.3949 -0.5693
  888SOL    HW1 2663   2.706   0.692   1.700  1.9565  0.9642 -0.7694
  888SOL    HW2 2664   2.558   0.628   1.676 -0.6253  0.1132  0.5752
  889SOL     OW 2665   0.033   2.673   0.735  0.1630  0.5183  0.1100
  889SOL    HW1 2666   0.065   2.675   0.642 -0.0355  1.2284  3.9246
  889SOL    HW2 2667   3.087   2.598   0.748  3.5083 -2.4805  0.0124
  890SOL     OW 2668   1.682   2.282   0.672 -0.5219  0.2138  0.2521
  890SOL    HW1 2669   1.789   2.287   0.666  3.7160 -1.0061 -0.2947
  890SOL    HW2 2670   1.644   2.230   0.594  1.7275 -0.9113 -1.6366
  891SOL     OW 2671   0.318   0.890   2.774 -0.0776 -0.7496 -0.0826
  891SOL    HW1 2672   0.291   0.971   2.819 -0.3983 -0.8266 -1.3884
  891SOL    HW2 2673   0.422   0.887   2.781  0.0261  1.0975 -1.4720
  892SOL     OW 2674   2.951   2.456   1.510  0.2213 -0.2734  0.1567
  892SOL    HW1 2675   3.045   2.487   1.479 -0.8107 -2.5310  3.1484
  892SOL    HW2 2676   2.881   2.451   1.431 -1.4057  0.0882 -1.4273
  893SOL     OW 2677   1.416   0.279   1.048  0.5460  0.5470 -0.0218
  893SOL    HW1 2678   1.441   0.185   1.016  2.1239 -0.5672 -2.5891
  893SOL    HW2 2679   1.499   0.337   1.045  0.8571 -0.5702  0.6242
  894SOL     OW 2680   2.658   0.407   0.628  0.4320 -0.2854  0.5521
  894SOL    HW1 2681   2.682   0.427   0.727 -0.5644 -0.4865  4.1471
  894SOL    HW2 2682   2.577   0.462   0.599 -0.6292 -1.3245 -2.0431
  895SOL     OW 2683   1.896   1.372   2.523  0.0715  0.4375 -0.2915
  895SOL    HW1 2684   1.801   1.381   2.562  0.0640 -0.1606 -0.4556
  895SOL    HW2 2685   1.952   1.299   2.574 -0.9183 -1.5535  0.1599
  896SOL     OW 2686   1.403   0.363   1.700  0.1169  0.2044  0.3047
  896SOL    HW1 2687   1.495   0.343   1.724 -4.2539 -0.6733 -2.1957
  896SOL    HW2 2688   1.377   0.313   1.616 -0.7661 -0.7962  1.2977
  897SOL     OW 2689   0.708   1.478   1.925 -0.4700 -0.2402 -0.3111
  897SOL    HW1 2690   0.760   1.401   1.894 -1.4624  1.4136  2.0981
  897SOL    HW2 2691   0.744   1.573   1.906 -0.0086  3.7784  1.2064
  898SOL     OW 2692   2.216   2.812   2.365 -0.3272  0.5018 -0.1181
  898SOL    HW1 2693   2.154   2.756   2.314  0.5849  1.9173  0.7943
  898SOL    HW2 2694   2.289   2.755   2.411  0.9833 -1.4767 -1.6869
  899SOL     OW 2695   1.060   1.273   1.165 -0.5475 -0.0802 -0.0772
  899SOL    HW1 2696   1.159   1.258   1.170 -3.9699  3.8536 -0.4004
  899SOL    HW2 2697   1.028   1.306   1.256  1.9539 -1.3658 -0.5271
  900SOL     OW 2698   0.998   2.093   2.834  0.4127 -0.0135 -0.2066
  900SOL    HW1 2699   1.085   2.095   2.885 -0.0920  0.0298 -2.8983
  900SOL    HW2 2700   1.011   2.063   2.734 -1.2144 -2.5646 -0.7639
  901SOL     OW 2701   0.779   2.004   2.513 -0.3880  0.4298 -0.2285
  901SOL    HW1 2702   0.779   2.004   2.413 -0.4571  0.3493  1.7266
  901SOL    HW2 2703   0.714   1.931   2.547 -0.9077 -0.7317  0.6182
  902SOL     OW 2704   2.320   1.781   0.388  0.2296  0.7410  0.7111
  902SOL    HW1 2705   2.405   1.785   0.337  1.5327  1.7159 -3.7628
  902SOL    HW2 2706   2.334   1.723   0.470 -1.6070  0.2353 -1.2785
  903SOL     OW 2707   2.095   1.750   0.557 -0.3339  0.7074  0.4472
  903SOL    HW1 2708   2.056   1.674   0.499  1.9548  1.5460  1.5155
  903SOL    HW2 2709   2.180   1.791   0.509  0.7526  1.0408 -2.3474
  904SOL     OW 2710   1.150   0.750   2.435 -0.9403 -0.2842  0.4891
  904SOL    HW1 2711   1.169   0.821   2.361  1.0930 -0.7344  1.9989
  904SOL    HW2 2712   1.116   0.662   2.394 -0.7551  0.9317 -1.1331
  905SOL     OW 2713   2.766   0.116   0.646  0.6511 -0.4242 -0.3884
  905SOL    HW1 2714   2.768   0.216   0.657 -0.8679 -2.0124  0.2427
  905SOL    HW2 2715   2.856   0.084   0.679  2.8373 -0.5344  0.6330
  906SOL     OW 2716   2.787   1.891   0.570 -0.3546 -0.2672  0.6413
  906SOL    HW1 2717   2.802   1.812   0.634 -1.3268 -0.8094 -0.1480
  906SOL    HW2 2718   2.835   1.971   0.610 -0.6489 -0.5770  3.4448
  907SOL     OW 2719   1.388   0.401   0.305  0.2351  0.3650  0.4857
  907SOL    HW1 2720   1.415   0.305   0.319 -2.5336  4.4260 -0.1589
  907SOL    HW2 2721   1.386   0.413   0.202  0.1764 -1.1855 -4.1713
  908SOL     OW 2722   1.897   0.306   1.371 -0.4701  0.0818 -0.5122
  908SOL    HW1 2723   1.884   0.207   1.357  2.8566 -2.7385  0.5480
  908SOL    HW2 2724   1.970   0.322   1.444  1.0245  2.0084 -0.5296
  909SOL     OW 2725   2.855   0.587   1.041 -0.5006 -0.3063  0.5380
  909SOL    HW1 2726   2.918   0.661   1.003 -0.9597  0.8304 -1.4399
  909SOL    HW2 2727   2.907   0.511   1.085 -3.9259 -0.8284 -0.1583
  910SOL     OW 2728   1.102   2.913   2.562  0.6263 -0.4297  0.1110
  910SOL    HW1 2729   1.034   2.895   2.636 -1.2052  0.7871 -0.1324
  910SOL    HW2 2730   1.099   2.841   2.489 -0.5917 -0.2548 -0.0401
  911SOL     OW 2731   2.228   1.128   1.706 -0.1080 -0.3439 -0.1508
  911SOL    HW1 2732   2.322   1.173   1.693  1.3844 -1.6935  0.5484
  911SOL    HW2 2733   2.171   1.121   1.618 -0.3915  0.5669 -0.5797
  912SOL     OW 2734   2.687   2.092   1.587  0.3937  0.5446  0.2817
  912SOL    HW1 2735   2.630   2.013   1.555 -3.5521  1.8984  1.9273
  912SOL    HW2 2736   2.788   2.082   1.570  0.8871 -1.5448 -0.4078
  913SOL     OW 2737   2.545   2.364   1.223 -0.3314  0.1142  0.0833
  913SOL    HW1 2738   2.512   2.306   1.143 -2.5680 -1.1404 -3.6324
  913SOL    HW2 2739   2.462   2.388   1.277  0.5974 -0.0547  1.1290
  914SOL     OW 2740   2.082   1.814   1.372 -0.6680  0.3653  0.0733
  914SOL    HW1 2741   2.111   1.727   1.324  0.5402 -2.5552 -0.5771
  914SOL    HW2 2742   2.020   1.803   1.451  1.7317  0.2397 -1.8227
  915SOL     OW 2743   1.298   1.711   1.387  0.6920 -0.5002 -0.1590
  915SOL    HW1 2744   1.345   1.775   1.453 -0.0066  0.8653 -0.6019
  915SOL    HW2 2745   1.350   1.721   1.296 -0.8439  0.4028  0.5684
  916SOL     OW 2746   2.788   2.758   1.147  0.2842 -0.0024 -0.1329
  916SOL    HW1 2747   2.741   2.742   1.062 -0.6452  2.0619  3.3459
  916SOL    HW2 2748   2.770   2.847   1.193 -0.4210  1.2197  0.4137
  917SOL     OW 2749   2.561   1.790   2.653  0.3035  0.6392 -0.3519
  917SOL    HW1 2750   2.472   1.825   2.613 -1.1262  2.5041  0.8136
  917SOL    HW2 2751   2.555   1.801   2.751  0.3285 -1.9905 -2.7007
  918SOL     OW 2752   1.790   2.019   2.408  0.3268  0.1033  0.2447
  918SOL    HW1 2753   1.755   2.056   2.319  1.8829 -0.7631 -2.0211
  918SOL    HW2 2754   1.850   1.941   2.392 -1.2308  3.2473  5.0923
  919SOL     OW 2755   1.628   2.195   1.916  0.5136  0.5086 -0.0274
  919SOL    HW1 2756   1.526   2.179   1.921  1.0330  1.9610 -1.3560
  919SOL    HW2 2757   1.665   2.170   1.827  1.7464 -0.0434  0.1842
  920SOL     OW 2758   2.978   0.232   2.804 -0.7217 -0.2230 -0.2081
  920SOL    HW1 2759   3.036   0.287   2.739  1.3574 -0.0122 -0.2698
  920SOL    HW2 2760   2.973   0.131   2.785  1.0067 -0.0563  0.2093
  921SOL     OW 2761   2.464   0.060   2.430  0.1845  0.2438 -0.5927
  921SOL    HW1 2762   2.530   0.028   2.362 -0.3330  2.5810  1.5863
  921SOL    HW2 2763   2.456   0.158   2.426  0.1125 -0.4024  0.8922
  922SOL     OW 2764   2.491   1.803   1.046 -0.0443 -0.5782  0.1785
  922SOL    HW1 2765   2.533   1.860   1.114  2.3118  0.0044 -2.2032
  922SOL    HW2 2766   2.388   1.816   1.041  0.4985  1.5941 -0.7176
  923SOL     OW 2767   0.494   1.779   0.641 -0.0519 -0.2108  0.7839
  923SOL    HW1 2768   0.557   1.720   0.582  2.0767 -1.2767  0.0138
  923SOL    HW2 2769   0.537   1.800   0.730 -2.2026  1.3580 -0.8302
  924SOL     OW 2770   1.492   0.598   2.998  0.0712  0.4014  0.2545
  924SOL    HW1 2771   1.579   0.618   3.049  0.5953 -0.6815  3.4265
  924SOL    HW2 2772   1.514   0.551   2.910  1.9620 -0.7095 -2.1770
  925SOL     OW 2773   2.645   1.406   0.725  0.0890  0.2091  0.1630
  925SOL    HW1 2774   2.578   1.468   0.774 -2.7008  0.3383 -0.7112
  925SOL    HW2 2775   2.596   1.343   0.660  0.0397  0.0150  0.4552
  926SOL     OW 2776   2.709   1.039   1.043  0.3220 -0.4324  0.1683
  926SOL    HW1 2777   2.705   0.971   1.116 -2.4151  0.1097 -3.5973
  926SOL    HW2 2778   2.793   1.035   0.990 -0.5929 -0.2625  0.9376
  927SOL     OW 2779   0.659   1.325   0.433  0.2944 -0.0339 -0.1878
  927SOL    HW1 2780   0.715   1.255   0.480  1.2504 -0.9568  1.5088
  927SOL    HW2 2781   0.723   1.383   0.385 -1.5833 -1.3901 -0.3007
  928SOL     OW 2782   0.130   0.223   2.445 -0.4396 -0.0851  0.4200
  928SOL    HW1 2783   0.231   0.211   2.463  1.5755  4.4766 -0.0682
  928SOL    HW2 2784   0.104   0.192   2.352  1.3696  0.3005 -3.7187
  929SOL     OW 2785   2.958   0.039   1.115  0.1407 -0.1228  0.8531
  929SOL    HW1 2786   2.960   0.026   1.015  0.3705 -0.5370 -1.3643
  929SOL    HW2 2787   2.901   3.085   1.160  2.4366 -1.2544 -0.5051
  930SOL     OW 2788   1.955   2.425   1.768 -0.2823 -0.7218  0.2378
  930SOL    HW1 2789   1.883   2.421   1.837  1.3918 -1.8631 -2.0512
  930SOL    HW2 2790   1.977   2.333   1.737 -0.4622 -0.5553 -1.6567
  931SOL     OW 2791   1.665   1.211   0.994  0.0446  0.1938  0.3958
  931SOL    HW1 2792   1.698   1.122   1.026  0.2976  4.5831 -0.1963
  931SOL    HW2 2793   1.678   1.226   0.891  0.1451 -1.5139 -1.0974
  932SOL     OW 2794   2.979   0.984   1.288 -0.0583  0.1413 -0.2874
  932SOL    HW1 2795   2.895   0.926   1.287  2.4030  0.6474  1.1234
  932SOL    HW2 2796   2.952   1.081   1.295  0.5797  0.0908 -2.7816
  933SOL     OW 2797   2.492   1.690   1.591 -0.2315  0.0803  0.0342
  933SOL    HW1 2798   2.445   1.745   1.661  0.8742 -2.0609 -1.0518
  933SOL    HW2 2799   2.588   1.720   1.574 -0.2643  0.0909 -0.3006
  934SOL     OW 2800   1.859   0.447   1.144  0.1742 -0.9939  0.0356
  934SOL    HW1 2801   1.875   0.387   1.223  1.3242  0.7011 -0.1219
  934SOL    HW2 2802   1.900   0.415   1.060 -1.7383  2.1164  2.2823
  935SOL     OW 2803   0.099   1.483   1.168 -0.4436 -0.4750  0.0223
  935SOL    HW1 2804   0.028   1.470   1.095 -0.0830  0.5277 -1.0978
  935SOL    HW2 2805   0.165   1.408   1.160 -2.2805  0.5128  0.9763
  936SOL     OW 2806   3.059   1.168   1.032 -1.1839 -0.4856  0.2574
  936SOL    HW1 2807   3.026   1.207   1.120 -1.4442 -1.5562  2.8262
  936SOL    HW2 2808   0.041   1.183   1.020 -3.6315  0.2458 -0.3810
  937SOL     OW 2809   1.706   2.896   0.917  0.7644 -0.1744  0.0030
  937SOL    HW1 2810   1.608   2.889   0.926  0.4663 -0.1860 -2.2457
  937SOL    HW2 2811   1.722   2.923   0.819  1.2089  0.7461 -1.4840
  938SOL     OW 2812   2.685   2.594   0.721  0.2872 -0.1765  1.0510
  938SOL    HW1 2813   2.725   2.591   0.625  2.3094 -1.2310 -2.2275
  938SOL    HW2 2814   2.586   2.567   0.723 -0.0730  0.4361 -0.9844
  939SOL     OW 2815   0.412   1.951   2.967  0.5696 -0.3640  0.0344
  939SOL    HW1 2816   0.488   1.896   2.931  1.5840 -2.0531 -0.4479
  939SOL    HW2 2817   0.436   1.982   3.061 -0.7229 -1.9352  0.8780
  940SOL     OW 2818   2.821   3.074   2.974  0.1371 -0.0201  0.2898
  940SOL    HW1 2819   2.914   3.069   2.940 -2.5459 -0.4083  1.4663
  940SOL    HW2 2820   2.799   3.017   3.055 -2.1164 -2.0279  0.3340
  941SOL     OW 2821   0.937   2.671   3.087  0.2479 -0.4655 -0.0984
  941SOL    HW1 2822   0.966   2.586   3.037  1.7497 -0.8993 -2.3952
  941SOL    HW2 2823   0.992   2.752   3.066 -1.4657 -0.7142  1.7196
  942SOL     OW 2824   1.659   1.923   1.630  0.6073 -0.3492 -0.3260
  942SOL    HW1 2825   1.686   1.882   1.718 -2.1655 -0.5282 -0.2707
  942SOL    HW2 2826   1.737   1.924   1.569  1.4238  0.7085 -1.7217
  943SOL     OW 2827   2.186   1.355   1.401 -0.5395  0.0821 -0.1302
  943SOL    HW1 2828   2.229   1.407   1.475 -0.9894  0.3524 -2.4831
  943SOL    HW2 2829   2.131   1.273   1.435 -1.0945 -0.5403  1.0637
  944SOL     OW 2830   1.947   0.903   1.481  0.3807  0.3394  0.1879
  944SOL    HW1 2831   1.915   0.915   1.385  0.6212  2.4404  0.5549
  944SOL    HW2 2832   2.025   0.837   1.482  0.9874 -2.4195  0.5669
  945SOL     OW 2833   0.061   2.924   0.992 -0.8023 -0.2053  0.0008
  945SOL    HW1 2834   3.104   2.867   1.029  0.8753 -1.8937 -0.1958
  945SOL    HW2 2835   0.063   3.016   1.036  0.5122 -1.1443  0.2789
  946SOL     OW 2836   0.217   0.661   1.818  0.2376  0.1900 -0.6943
  946SOL    HW1 2837   0.119   0.641   1.817 -0.4536  1.4610 -1.3927
  946SOL    HW2 2838   0.259   0.575   1.787  1.7066  1.9503  1.0621
  947SOL     OW 2839   0.379   2.655   0.559  0.0298  0.3340  0.1960
  947SOL    HW1 2840   0.429   2.602   0.494 -2.3748  3.2699  2.4544
  947SOL    HW2 2841   0.367   2.606   0.644 -2.0067  1.8098  0.3560
  948SOL     OW 2842   3.004   1.204   1.873  0.1637 -0.6325 -0.2501
  948SOL    HW1 2843   3.036   1.234   1.779 -1.4301  2.3971  0.3707
  948SOL    HW2 2844   3.047   1.120   1.915  2.0359 -1.6238  0.4317
  949SOL     OW 2845   0.435   0.884   2.223 -0.2532  0.1158  0.4233
  949SOL    HW1 2846   0.440   0.857   2.321 -0.2353  1.2248 -4.0507
  949SOL    HW2 2847   0.354   0.846   2.177 -0.2057 -1.4905 -2.3212
  950SOL     OW 2848   0.991   0.743   1.080 -0.2937 -0.4666  0.7611
  950SOL    HW1 2849   0.950   0.795   1.161 -1.2022  2.4175 -0.5020
  950SOL    HW2 2850   1.010   0.811   1.008 -0.4156 -2.5708 -1.4545
  951SOL     OW 2851   1.034   1.878   2.043  0.5889  0.0667  0.1177
  951SOL    HW1 2852   1.114   1.891   2.103  1.3470  2.1731 -0.2642
  951SOL    HW2 2853   1.012   1.960   1.989  2.5595  3.4745  2.1484
  952SOL     OW 2854   0.628   1.817   2.837  0.4269 -0.4213  0.2225
  952SOL    HW1 2855   0.708   1.769   2.880  3.5135  1.9267  0.7226
  952SOL    HW2 2856   0.627   1.802   2.737  0.6272  2.7059  1.5133
  953SOL     OW 2857   1.631   2.991   2.160  0.4627  0.6372  0.3095
  953SOL    HW1 2858   1.687   2.996   2.246 -1.3203 -1.1056  0.1179
  953SOL    HW2 2859   1.634   3.079   2.108  0.3868  1.2104 -2.3902
  954SOL     OW 2860   1.881   1.193   0.519  0.2014  0.1398 -0.3515
  954SOL    HW1 2861   1.923   1.267   0.577 -0.2524 -1.6336  3.3462
  954SOL    HW2 2862   1.885   1.210   0.419  2.0858 -1.1094  0.4437
  955SOL     OW 2863   0.838   2.382   2.128  0.1671 -0.1588  0.5188
  955SOL    HW1 2864   0.757   2.354   2.184 -1.5894 -0.9861 -0.2740
  955SOL    HW2 2865   0.811   2.373   2.029 -0.4315  0.4434 -1.2484
  956SOL     OW 2866   1.552   0.803   1.421 -0.3594  0.1953 -0.1240
  956SOL    HW1 2867   1.508   0.712   1.427 -1.6258 -0.7551  2.0720
  956SOL    HW2 2868   1.611   0.820   1.505  0.2266  1.0330  0.6582
  957SOL     OW 2869   2.178   1.484   2.319 -0.3984  0.4423  0.5037
  957SOL    HW1 2870   2.149   1.534   2.401 -2.0020 -0.8821 -1.0427
  957SOL    HW2 2871   2.094   1.444   2.270 -2.1630 -1.0269  2.3624
  958SOL     OW 2872   1.323   2.478   0.890 -0.1573 -0.0245 -0.9038
  958SOL    HW1 2873   1.236   2.528   0.892 -2.9051  0.5997  1.9260
  958SOL    HW2 2874   1.378   2.495   0.973  2.5512 -0.1466  0.4028
  959SOL     OW 2875   1.638   1.595   2.587 -0.4907  0.7482  0.3750
  959SOL    HW1 2876   1.570   1.538   2.640 -0.9756  3.5353 -0.2654
  959SOL    HW2 2877   1.714   1.618   2.654  1.1031 -0.4882  1.9763
  960SOL     OW 2878   0.103   0.421   0.092 -0.4434 -0.6689 -0.4365
  960SOL    HW1 2879   0.073   0.513   0.118 -1.4616  1.2270  0.7535
  960SOL    HW2 2880   0.028   0.369   0.048  1.9191  2.7079  0.8672
  961SOL     OW 2881   0.347   0.515   2.212  0.4189 -0.6184 -0.2970
  961SOL    HW1 2882   0.447   0.507   2.219 -2.3367  2.5124  2.4049
  961SOL    HW2 2883   0.315   0.547   2.306  0.9864 -0.1204  0.9884
  962SOL     OW 2884   0.786   1.526   0.067  0.1549  0.1747 -0.3323
  962SOL    HW1 2885   0.882   1.528   0.096 -2.5138  5.0306 -1.1304
  962SOL    HW2 2886   0.762   1.468   3.106 -0.0308  1.2167 -2.1903
  963SOL     OW 2887   1.976   1.866   3.061 -0.1565 -0.1221 -0.3535
  963SOL    HW1 2888   1.955   1.923   2.980 -0.5804 -1.4009  1.6689
  963SOL    HW2 2889   2.025   1.924   0.011 -0.7213  0.1184 -2.7476
  964SOL     OW 2890   1.424   2.959   0.892 -0.2734 -0.2679 -0.3591
  964SOL    HW1 2891   1.366   2.915   0.819 -0.3043  2.3770  0.2627
  964SOL    HW2 2892   1.361   2.986   0.969 -2.7183 -1.8278 -1.2049
  965SOL     OW 2893   0.698   2.437   1.211 -0.0470  0.3763 -1.1953
  965SOL    HW1 2894   0.675   2.415   1.308  0.7465 -1.6677  0.4005
  965SOL    HW2 2895   0.738   2.352   1.170  3.8259  1.4106 -1.3547
  966SOL     OW 2896   3.029   1.503   3.050 -0.1776 -0.3506 -0.4535
  966SOL    HW1 2897   2.991   1.527   2.958 -1.2371 -1.6631 -2.0360
  966SOL    HW2 2898   2.966   1.437   3.094 -0.3945 -2.8737 -2.5486
  967SOL     OW 2899   1.721   3.040   1.593 -0.1225 -0.4292 -0.2295
  967SOL    HW1 2900   1.648   3.054   1.528  0.3999  1.6729  2.5493
  967SOL    HW2 2901   1.698   2.973   1.662 -0.2667 -0.9418  1.5800
  968SOL     OW 2902   1.808   0.911   0.834 -0.5310 -0.2906  0.0924
  968SOL    HW1 2903   1.789   0.927   0.740  0.4502 -1.0224  3.1405
  968SOL    HW2 2904   1.910   0.916   0.848  2.2972 -1.3424 -0.1175
  969SOL     OW 2905   0.467   1.797   2.161  0.3015 -0.1598  0.5324
  969SOL    HW1 2906   0.487   1.800   2.057 -0.6568 -0.5636  2.3623
  969SOL    HW2 2907   0.527   1.868   2.206 -1.3486  0.0043 -0.7304
  970SOL     OW 2908   2.706   1.339   1.361  0.4211  0.7267  0.7001
  970SOL    HW1 2909   2.655   1.251   1.368 -0.7755 -1.5225  1.4978
  970SOL    HW2 2910   2.664   1.394   1.283  0.0908 -0.3699 -1.6892
  971SOL     OW 2911   1.052   0.448   1.486  0.3806 -0.2507  0.3646
  971SOL    HW1 2912   1.021   0.521   1.548 -1.0240 -0.5798  2.5395
  971SOL    HW2 2913   1.152   0.443   1.475  2.2419  1.5480 -0.1185
  972SOL     OW 2914   0.914   0.299   2.471 -0.0588  0.1322 -0.0370
  972SOL    HW1 2915   0.871   0.217   2.515 -2.0046 -0.4988 -1.8677
  972SOL    HW2 2916   0.877   0.385   2.513  0.6028 -0.5085  0.4138
  973SOL     OW 2917   3.035   1.471   0.981  0.0194  0.1975 -0.4708
  973SOL    HW1 2918   2.989   1.382   0.950 -0.3206  1.5000  0.4347
  973SOL    HW2 2919   3.073   1.519   0.903  2.2574  1.9911 -0.7660
  974SOL     OW 2920   1.703   1.204   1.930  0.5957 -0.4740  0.0093
  974SOL    HW1 2921   1.751   1.274   1.874 -0.4428  0.2619 -0.8043
  974SOL    HW2 2922   1.660   1.132   1.866  2.0654 -2.7933  0.6954
  975SOL     OW 2923   2.617   0.067   0.179  0.1582  0.1332  0.2862
  975SOL    HW1 2924   2.567   3.112   0.121 -1.8303  1.0673  1.4466
  975SOL    HW2 2925   2.716   0.060   0.153 -1.7717  1.5591 -2.1668
  976SOL     OW 2926   0.393   1.765   1.769 -0.3755  0.6437  0.4401
  976SOL    HW1 2927   0.474   1.808   1.807 -0.1212 -0.7254 -0.8702
  976SOL    HW2 2928   0.310   1.806   1.813 -1.7753  1.3351  1.6593
  977SOL     OW 2929   0.481   2.753   0.211 -0.1661  0.2854 -0.4044
  977SOL    HW1 2930   0.559   2.713   0.156  0.0061  1.4419  0.8573
  977SOL    HW2 2931   0.400   2.762   0.151  2.2376  1.4281 -2.7185
  978SOL     OW 2932   0.514   1.557   0.201 -0.2780 -0.5311  0.1828
  978SOL    HW1 2933   0.489   1.461   0.207  0.2197 -0.8672 -0.2144
  978SOL    HW2 2934   0.606   1.577   0.166  0.8036 -0.5730  0.2607
  979SOL     OW 2935   1.407   2.109   1.377  0.1325 -0.1917 -0.1781
  979SOL    HW1 2936   1.385   2.207   1.399  1.5352  0.8421 -1.4881
  979SOL    HW2 2937   1.388   2.047   1.457  0.4077 -0.0487  0.9346
  980SOL     OW 2938   0.783   1.447   2.186  0.0522 -0.3008  0.4178
  980SOL    HW1 2939   0.724   1.466   2.107 -0.1037 -0.8137 -0.0080
  980SOL    HW2 2940   0.739   1.376   2.247 -2.3560  0.5002  0.6635
  981SOL     OW 2941   2.984   1.341   0.320  0.0828 -0.2768  0.0339
  981SOL    HW1 2942   3.078   1.351   0.344  0.0292 -1.4630 -1.6090
  981SOL    HW2 2943   2.922   1.396   0.381 -0.9975 -0.2228 -1.2345
  982SOL     OW 2944   2.437   2.652   2.827  0.7150  0.3689 -0.1691
  982SOL    HW1 2945   2.374   2.570   2.806  0.1085  0.2453  1.1776
  982SOL    HW2 2946   2.403   2.745   2.798  4.7212  0.8378  1.9731
  983SOL     OW 2947   2.237   0.561   1.230  0.1593  0.3013 -0.0184
  983SOL    HW1 2948   2.336   0.583   1.218  0.1901  1.0711  0.4515
  983SOL    HW2 2949   2.231   0.461   1.213  2.0101  0.5841 -0.3934
  984SOL     OW 2950   0.917   0.053   2.603 -0.0395  0.3451  0.2925
  984SOL    HW1 2951   0.961   0.133   2.653 -0.4466  1.6401  0.9631
  984SOL    HW2 2952   0.987   0.011   2.545 -0.9363 -1.4053  0.7198
  985SOL     OW 2953   1.466   2.158   2.324 -0.5052  0.1603 -0.1197
  985SOL    HW1 2954   1.478   2.258   2.334 -0.1420 -1.2424  2.8735
  985SOL    HW2 2955   1.552   2.116   2.283 -0.3451  0.4796  1.2200
  986SOL     OW 2956   1.754   3.001   2.401  0.5450  0.4071 -0.4493
  986SOL    HW1 2957   1.791   3.078   2.458  1.1564 -2.8391 -0.5753
  986SOL    HW2 2958   1.785   2.914   2.444  0.0785  0.4319 -0.3826
  987SOL     OW 2959   2.443   0.096   2.064  0.6284 -0.4551  0.2497
  987SOL    HW1 2960   2.432   0.184   2.113 -0.0332  0.0496 -0.9956
  987SOL    HW2 2961   2.365   0.035   2.082  1.0185 -0.2497 -1.1157
  988SOL     OW 2962   2.441   0.360   2.188  0.6222  0.6393  0.1501
  988SOL    HW1 2963   2.473   0.416   2.267 -1.0561 -2.2684  0.3547
  988SOL    HW2 2964   2.393   0.418   2.116  0.6800 -0.7262  0.9424
  989SOL     OW 2965   2.304   2.376   2.774 -0.1556 -0.3085  0.7335
  989SOL    HW1 2966   2.332   2.376   2.674  2.8190 -0.2641 -2.2109
  989SOL    HW2 2967   2.365   2.310   2.821 -1.1553 -1.4558 -1.9320
  990SOL     OW 2968   3.083   0.863   2.927  0.2198 -0.1610 -0.3596
  990SOL    HW1 2969   3.040   0.782   2.962 -2.9730 -1.3141 -1.4092
  990SOL    HW2 2970   0.013   0.842   2.845 -1.0586  0.6911  4.2751
  991SOL     OW 2971   0.600   1.047   2.562  0.4784 -0.3679 -0.4625
  991SOL    HW1 2972   0.529   1.112   2.598  1.9727 -1.7256  0.1596
  991SOL    HW2 2973   0.698   1.059   2.593  2.0491  1.6788  0.5561
  992SOL     OW 2974   0.163   1.737   2.197  0.0998  0.1137 -0.1816
  992SOL    HW1 2975   0.255   1.775   2.186 -1.3830 -1.4690  1.4475
  992SOL    HW2 2976   0.098   1.787   2.138  0.6962  3.0267  0.2572
  993SOL     OW 2977   0.842   0.189   0.628 -0.1431  0.1700  1.0072
  993SOL    HW1 2978   0.802   0.282   0.607  0.3811 -0.8905  0.0368
  993SOL    HW2 2979   0.827   0.121   0.553  2.9806  0.7420  1.4647
  994SOL     OW 2980   0.544   2.158   1.545 -0.2191  0.2370  0.6884
  994SOL    HW1 2981   0.465   2.097   1.563 -0.9363  0.1197 -2.9140
  994SOL    HW2 2982   0.630   2.106   1.520 -2.1116 -1.8785 -0.6443
  995SOL     OW 2983   2.186   1.651   2.750  0.7499 -0.4407 -0.4597
  995SOL    HW1 2984   2.283   1.624   2.751 -1.5640 -0.3394 -4.2217
  995SOL    HW2 2985   2.147   1.626   2.842 -0.2867 -0.8146  1.4407
  996SOL     OW 2986   2.054   1.607   2.531 -0.5048  0.3075 -0.0284
  996SOL    HW1 2987   1.980   1.536   2.534  0.4480 -2.1594  0.1059
  996SOL    HW2 2988   2.079   1.633   2.625 -1.9809 -0.8871 -1.1534
  997SOL     OW 2989   1.816   1.413   1.822  0.0825  0.5952 -0.2122
  997SOL    HW1 2990   1.910   1.440   1.851 -1.4927 -0.9294 -1.7909
  997SOL    HW2 2991   1.748   1.478   1.858 -0.2080 -1.4328  0.7747
  998SOL     OW 2992   2.286   2.030   1.185 -0.0022  0.3264  0.6631
  998SOL    HW1 2993   2.271   2.037   1.283  3.5193  0.5509 -0.9073
  998SOL    HW2 2994   2.267   1.931   1.156 -1.2682 -1.1607  0.1732
  999SOL     OW 2995   2.307   2.474   0.243 -0.1676 -0.0649 -0.3511
  999SOL    HW1 2996   2.378   2.546   0.265  1.0688  0.3343  0.2397
  999SOL    HW2 2997   2.309   2.448   0.145 -0.0729  0.2913  0.7079
 1000SOL     OW 2998   0.689   3.106   2.462 -0.4480 -0.1595 -0.3355
 1000SOL    HW1 2999   0.634   0.073   2.473 -1.9686  2.2301  2.0493
 1000SOL    HW2 3000   0.759   3.092   2.541  3.0148  0.8847 -0.5255
   3.11776   3.11776   3.11776
