1000 SPC/Fw water molecules t= 102.00000 step= 102000
 3000
    1SOL     OW    1   2.080   2.487   0.636  0.4267  0.7263  0.0879
    1SOL    HW1    2   1.980   2.478   0.652 -3.6206  0.3444  1.4843
    1SOL    HW2    3   2.130   2.531   0.717  2.1576  0.4645  1.9161
    2SOL     OW    4   1.239   1.279   2.264 -0.1557  0.0241 -0.3584
    2SOL    HW1    5   1.157   1.313   2.309 -1.0573  2.0605 -1.9849
    2SOL    HW2    6   1.219   1.280   2.166 -0.6660 -0.6029  1.9265
    3SOL     OW    7   1.510   2.416   2.471  0.0557 -0.0012  0.3295
    3SOL    HW1    8   1.560   2.454   2.389 -1.1730  1.7088  1.0721
    3SOL    HW2    9   1.409   2.428   2.468  0.2149 -3.4627  1.3731
    4SOL     OW   10   1.317   2.150   2.237 -0.0388  0.2965 -0.1687
    4SOL    HW1   11   1.394   2.137   2.303  0.9570 -2.0850 -0.6886
    4SOL    HW2   12   1.335   2.216   2.162 -2.3804 -0.8456  0.8773
    5SOL     OW   13   0.581   0.818   1.640 -0.6031 -0.3676 -0.2562
    5SOL    HW1   14   0.652   0.841   1.708  0.6577 -0.4459  2.6943
    5SOL    HW2   15   0.541   0.728   1.669 -1.3855 -1.3844  1.5902
    6SOL     OW   16   2.047   0.826   2.871  0.5682  0.2386 -0.2316
    6SOL    HW1   17   1.991   0.884   2.817 -0.5454 -0.3880  3.5825
    6SOL    HW2   18   2.091   0.755   2.817 -1.6414  1.7000 -2.1511
    7SOL     OW   19   0.699   0.224   1.589 -0.1076  0.2824 -0.0754
    7SOL    HW1   20   0.778   0.214   1.652 -1.0703 -0.1798 -2.6168
    7SOL    HW2   21   0.690   0.324   1.558 -0.5116  0.2932 -0.7050
    8SOL     OW   22   1.820   2.993   1.879 -0.4880 -0.3839 -0.1097
    8SOL    HW1   23   1.914   3.018   1.852 -0.2964 -0.3909 -1.2519
    8SOL    HW2   24   1.808   2.892   1.887 -1.1690  1.4096 -2.6653
    9SOL     OW   25   0.172   0.648   0.495  0.2199  0.2648 -0.1096
    9SOL    HW1   26   0.141   0.551   0.521  0.7165 -1.4101 -2.2293
    9SOL    HW2   27   0.206   0.699   0.577  0.9103  0.3975  0.7951
   10SOL     OW   28   0.717   2.125   2.539 -0.3337 -0.5912 -0.2449
   10SOL    HW1   29   0.638   2.185   2.530 -0.0636  0.7306 -0.7174
   10SOL    HW2   30   0.783   2.162   2.610 -2.8231  3.4328 -0.7836
   11SOL     OW   31   0.833   1.699   0.181  0.0642  0.0036 -0.5597
   11SOL    HW1   32   0.925   1.662   0.168  0.4583 -2.7563 -0.4548
   11SOL    HW2   33   0.763   1.631   0.207 -0.8969  0.0443  0.2204
   12SOL     OW   34   0.168   2.860   1.405  0.2788  0.5531  0.1200
   12SOL    HW1   35   0.106   2.907   1.470 -0.0775  1.8449  0.8404
   12SOL    HW2   36   0.128   2.861   1.313 -0.0863  0.0560 -0.8832
   13SOL     OW   37   0.780   2.940   0.425 -0.2676 -0.5693 -0.6286
   13SOL    HW1   38   0.790   2.846   0.464  1.7114 -2.0385  0.5153
   13SOL    HW2   39   0.824   2.965   0.338 -0.8078 -0.2100  0.3874
   14SOL     OW   40   1.871   1.830   0.697 -0.2566 -0.1851 -0.0285
   14SOL    HW1   41   1.886   1.895   0.621  3.7984 -0.6121  0.3260
   14SOL    HW2   42   1.963   1.798   0.729 -1.5193  0.3184 -0.4108
   15SOL     OW   43   2.934   1.578   2.513 -0.0902 -0.9094  0.4403
   15SOL    HW1   44   2.891   1.531   2.593  0.2679  0.0614  1.4595
   15SOL    HW2   45   2.961   1.670   2.549 -0.3081  2.0790 -2.8609
   16SOL     OW   46   1.413   0.290   2.672 -0.0239  0.1143 -0.1743
   16SOL    HW1   47   1.390   0.374   2.625  0.1851 -2.1762 -0.8243
   16SOL    HW2   48   1.339   0.220   2.667 -3.1002 -1.6302  0.1767
   17SOL     OW   49   0.318   2.231   2.163  0.3800  0.6518 -0.0590
   17SOL    HW1   50   0.346   2.155   2.227 -0.2325 -0.0425  1.3633
   17SOL    HW2   51   0.214   2.238   2.152 -0.2113 -2.6038  0.0345
   18SOL     OW   52   1.309   1.243   0.271  0.0575  0.5382  0.0311
   18SOL    HW1   53   1.408   1.240   0.306  0.6954 -0.9636 -0.7901
   18SOL    HW2   54   1.259   1.154   0.302  0.7983 -2.4051  2.5137
   19SOL     OW   55   2.487   1.592   2.427  0.3251  0.4065 -0.6905
   19SOL    HW1   56   2.557   1.662   2.436 -0.5384 -1.6222 -1.7302
   19SOL    HW2   57   2.413   1.606   2.494  1.1913 -0.1982  1.1743
   20SOL     OW   58   2.570   2.074   2.447 -0.2617 -0.0473 -0.2511
   20SOL    HW1   59   2.547   2.086   2.350 -0.0521 -0.0320 -1.6166
   20SOL    HW2   60   2.542   2.155   2.503 -1.9248 -0.2569  1.5269
   21SOL     OW   61   1.021   2.408   0.170 -0.3199  0.3977  0.6726
   21SOL    HW1   62   0.970   2.477   0.115 -2.7034 -1.1500  1.0987
   21SOL    HW2   63   1.037   2.323   0.115 -0.6171 -1.9397 -0.7923
   22SOL     OW   64   2.219   2.431   1.352  0.5355  1.0105  0.0604
   22SOL    HW1   65   2.199   2.525   1.377  2.2756 -1.2168 -0.0239
   22SOL    HW2   66   2.311   2.426   1.316  0.2405  0.4229  1.2236
   23SOL     OW   67   0.203   1.072   1.675 -0.1260  0.0553  0.1928
   23SOL    HW1   68   0.207   1.153   1.745 -1.7142 -1.0825  0.9019
   23SOL    HW2   69   0.249   0.989   1.715 -1.4357 -2.0748  1.6948
   24SOL     OW   70   2.291   1.829   1.996 -0.2215 -0.0091  0.4216
   24SOL    HW1   71   2.210   1.784   2.032  2.6295  1.2733  2.3437
   24SOL    HW2   72   2.378   1.790   2.038 -1.0989  0.8555 -1.8729
   25SOL     OW   73   1.851   0.565   2.560  0.2280 -0.1396 -0.1638
   25SOL    HW1   74   1.829   0.523   2.467 -1.8921  0.4546  1.7289
   25SOL    HW2   75   1.803   0.509   2.630  0.5065 -1.6756 -0.5153
   26SOL     OW   76   1.235   0.282   0.561  0.3196 -0.4473 -0.0780
   26SOL    HW1   77   1.334   0.272   0.578 -0.7272 -0.9537  1.4489
   26SOL    HW2   78   1.211   0.359   0.496 -1.7080  0.0439  0.1391
   27SOL     OW   79   1.020   1.807   0.518 -0.1899 -0.0211 -0.0813
   27SOL    HW1   80   1.007   1.906   0.496  1.5575 -0.6603 -1.4840
   27SOL    HW2   81   0.940   1.769   0.567 -1.6661 -1.7689 -0.2165
   28SOL     OW   82   2.649   1.795   1.232 -0.5102 -0.1015 -0.5757
   28SOL    HW1   83   2.622   1.734   1.309 -0.3850  0.6998 -2.6964
   28SOL    HW2   84   2.573   1.839   1.188  0.6631 -0.1255  0.2652
   29SOL     OW   85   2.349   2.730   1.900 -0.2256 -0.1741 -0.2830
   29SOL    HW1   86   2.326   2.829   1.886  1.6929 -1.0441 -0.8464
   29SOL    HW2   87   2.451   2.713   1.907  0.0069  0.7202 -0.5369
   30SOL     OW   88   0.877   2.831   1.247  0.4247  0.0783  0.4783
   30SOL    HW1   89   0.938   2.819   1.165  0.0284 -2.2184  1.3361
   30SOL    HW2   90   0.915   2.901   1.308 -1.8345  1.8285  0.6222
   31SOL     OW   91   2.861   2.171   1.942 -0.4763 -0.5592  0.2227
   31SOL    HW1   92   2.962   2.196   1.932  2.2405  0.0903 -0.7707
   31SOL    HW2   93   2.820   2.229   2.021 -1.8080  1.8960  2.8078
   32SOL     OW   94   1.480   1.397   1.823 -0.1950  0.2987 -0.5325
   32SOL    HW1   95   1.392   1.439   1.794 -1.8383 -0.8343  0.4709
   32SOL    HW2   96   1.544   1.407   1.752 -0.1814 -3.1180  1.1441
   33SOL     OW   97   0.261   0.117   2.692  0.3483 -0.8519 -0.1821
   33SOL    HW1   98   0.308   0.033   2.660  0.6994  2.1814  1.2854
   33SOL    HW2   99   0.300   0.128   2.785 -0.6146 -2.0083  0.7846
   34SOL     OW  100   2.094   0.092   1.060  0.1683  0.2145  0.0241
   34SOL    HW1  101   2.120   0.185   1.105 -1.5494  0.1166 -2.0491
   34SOL    HW2  102   2.180   0.033   1.047  0.4271 -0.8898 -0.5583
   35SOL     OW  103   2.426   0.007   1.467  0.1398  0.0421 -0.0689
   35SOL    HW1  104   2.470   3.068   1.559  0.0194 -2.8030  1.3987
   35SOL    HW2  105   2.354   3.031   1.439  0.9222  0.0153 -1.0348
   36SOL     OW  106   2.585   2.902   2.540  0.3524 -0.1233  0.0389
   36SOL    HW1  107   2.518   2.905   2.616  1.2852 -0.5837 -0.0810
   36SOL    HW2  108   2.670   2.856   2.564 -1.6131  3.2190  3.1405
   37SOL     OW  109   1.097   2.813   0.056 -0.0579  0.2085  0.3713
   37SOL    HW1  110   1.161   2.884   0.016 -1.6463 -1.2176  1.6938
   37SOL    HW2  111   1.152   2.730   0.064  0.1326 -1.4766  1.5970
   38SOL     OW  112   2.659   1.175   2.837 -0.1502 -0.7096 -0.1466
   38SOL    HW1  113   2.687   1.097   2.891 -1.8221  1.3050 -2.4922
   38SOL    HW2  114   2.577   1.219   2.878 -0.3009  0.3478  1.9223
   39SOL     OW  115   2.358   2.105   2.005 -0.0373 -0.0639 -0.1146
   39SOL    HW1  116   2.333   2.007   1.989  0.4118  3.0832 -1.1646
   39SOL    HW2  117   2.273   2.154   2.032 -1.2196 -1.6846 -0.2045
   40SOL     OW  118   0.570   0.336   2.639 -0.0778 -0.2343  0.1092
   40SOL    HW1  119   0.580   0.251   2.696  1.0813 -1.2739  0.7231
   40SOL    HW2  120   0.599   0.321   2.543  1.1633 -0.7558  2.7503
   41SOL     OW  121   1.472   1.172   1.402  0.3544 -0.1962 -0.3696
   41SOL    HW1  122   1.562   1.168   1.453  0.6253 -2.1613 -1.2433
   41SOL    HW2  123   1.391   1.166   1.469 -1.4497  0.9604  2.3938
   42SOL     OW  124   0.248   0.259   1.973  0.0422 -0.2830 -0.7492
   42SOL    HW1  125   0.281   0.286   1.875  0.3546 -1.0839 -1.5569
   42SOL    HW2  126   0.191   0.332   2.009 -0.1573 -2.3617 -0.8280
   43SOL     OW  127   1.648   1.436   2.053 -0.3704  0.1550  0.1995
   43SOL    HW1  128   1.606   1.427   2.142  1.4060 -0.3580 -1.1766
   43SOL    HW2  129   1.580   1.438   1.979  1.4727 -2.6127  2.9850
   44SOL     OW  130   0.204   3.013   2.941  0.0610  0.7266  0.1958
   44SOL    HW1  131   0.129   3.006   2.874  2.0249  1.2823 -0.4652
   44SOL    HW2  132   0.194   2.937   3.004 -1.5817  2.2142 -1.3624
   45SOL     OW  133   0.740   1.958   1.179 -0.0576  0.3313 -0.6982
   45SOL    HW1  134   0.711   2.052   1.191  0.1235  0.3925 -2.1438
   45SOL    HW2  135   0.668   1.892   1.209  0.3528  2.8030 -0.4796
   46SOL     OW  136   2.618   2.702   1.905  0.1889  0.2047 -0.1426
   46SOL    HW1  137   2.678   2.787   1.901 -1.2957  1.5614  1.7713
   46SOL    HW2  138   2.668   2.620   1.867  2.6007  3.0637 -1.1709
   47SOL     OW  139   1.077   1.744   1.320 -0.1421 -0.0134  0.0529
   47SOL    HW1  140   1.070   1.847   1.308 -1.6589 -2.4873 -1.8433
   47SOL    HW2  141   1.007   1.713   1.389 -2.2726  2.5037  0.0222
   48SOL     OW  142   0.192   2.649   0.242 -0.4720  0.1402  0.3354
   48SOL    HW1  143   0.117   2.664   0.312 -2.1746 -0.3538  1.3636
   48SOL    HW2  144   0.281   2.666   0.281 -1.2264  0.1395 -2.1779
   49SOL     OW  145   2.889   1.539   1.978  0.5237 -0.4183 -0.3396
   49SOL    HW1  146   2.876   1.559   2.074  0.4617  1.6560 -0.4994
   49SOL    HW2  147   2.802   1.495   1.939 -1.7782 -0.0352 -2.2442
   50SOL     OW  148   1.954   0.936   0.540  0.2832  0.2895  0.2137
   50SOL    HW1  149   1.955   0.861   0.473 -0.8870 -0.6349  3.5490
   50SOL    HW2  150   1.878   0.924   0.609 -0.1595  0.3093 -1.6860
   51SOL     OW  151   1.117   0.778   0.971 -0.1621 -0.5451 -0.1248
   51SOL    HW1  152   1.129   0.755   1.069  1.4813 -1.5708  0.5544
   51SOL    HW2  153   1.060   0.862   0.968  1.3854  0.3966  0.4996
   52SOL     OW  154   1.158   1.337   0.070  0.0608 -0.2539  0.2288
   52SOL    HW1  155   1.213   1.299   0.146 -3.0947  0.2212 -1.3081
   52SOL    HW2  156   1.125   1.435   0.087 -0.7744 -0.4674 -0.8602
   53SOL     OW  157   1.036   2.390   2.644 -0.2501 -0.0432  0.1797
   53SOL    HW1  158   0.957   2.343   2.684  0.9024  0.4217  0.5882
   53SOL    HW2  159   1.107   2.417   2.717 -0.0709  2.5616  1.0891
   54SOL     OW  160   1.613   0.610   1.594 -0.2701 -0.1108  0.0969
   54SOL    HW1  161   1.686   0.540   1.594 -1.3805 -0.1325  1.6181
   54SOL    HW2  162   1.549   0.594   1.518 -0.7067  0.0130 -2.0398
   55SOL     OW  163   2.598   2.686   0.316  0.2870 -0.2065 -0.0972
   55SOL    HW1  164   2.516   2.646   0.360 -2.2036 -3.5816  0.6551
   55SOL    HW2  165   2.618   2.774   0.359 -3.8044  1.8189 -2.2646
   56SOL     OW  166   0.631   2.464   1.937 -0.0963 -0.1213  0.1974
   56SOL    HW1  167   0.535   2.463   1.978 -2.0426 -0.3380  2.2059
   56SOL    HW2  168   0.634   2.413   1.851 -0.9221  0.7975  2.3221
   57SOL     OW  169   1.827   0.815   2.468 -0.2335 -0.1171  0.1262
   57SOL    HW1  170   1.854   0.726   2.510 -1.0003 -1.1200  1.9033
   57SOL    HW2  171   1.725   0.821   2.463  1.6175 -0.0475 -0.6445
   58SOL     OW  172   2.928   1.045   1.826 -0.1561 -0.0550 -0.0041
   58SOL    HW1  173   2.962   1.116   1.758  0.6313  2.2413  0.8795
   58SOL    HW2  174   2.851   1.079   1.880 -0.4504 -0.6027  0.8760
   59SOL     OW  175   0.623   2.866   2.282 -0.1045 -0.1881  0.3225
   59SOL    HW1  176   0.711   2.812   2.272  0.7414 -3.7541 -0.7923
   59SOL    HW2  177   0.540   2.808   2.279 -2.1119  2.1787  0.7004
   60SOL     OW  178   2.653   2.152   0.514  0.8521  0.5145  0.0825
   60SOL    HW1  179   2.674   2.054   0.484 -0.0787 -2.0987  0.3121
   60SOL    HW2  180   2.696   2.221   0.455 -0.1477  2.4854 -0.5450
   61SOL     OW  181   0.702   2.370   0.346 -0.4134 -0.0334  0.4716
   61SOL    HW1  182   0.699   2.426   0.261 -0.1728 -1.6050  0.8125
   61SOL    HW2  183   0.777   2.404   0.409 -2.0880  1.6904  0.0856
   62SOL     OW  184   2.056   2.539   2.766  0.5316  0.3365 -0.0112
   62SOL    HW1  185   2.016   2.531   2.674  1.5066 -0.5406  3.1896
   62SOL    HW2  186   2.111   2.625   2.769  0.0161  1.2652  1.7551
   63SOL     OW  187   1.989   0.387   0.025  0.1159 -0.0011 -0.0747
   63SOL    HW1  188   2.024   0.419   3.021 -1.9257 -0.8357 -3.4207
   63SOL    HW2  189   1.889   0.364   0.015 -2.9884 -1.3515  1.6885
   64SOL     OW  190   0.766   1.001   2.587 -0.2345 -0.1357 -0.5984
   64SOL    HW1  191   0.842   1.019   2.649 -0.9697  0.8356 -2.5587
   64SOL    HW2  192   0.707   0.932   2.634  0.8227  1.8113  0.3729
   65SOL     OW  193   1.465   3.002   0.438  0.0157  0.3911 -0.3617
   65SOL    HW1  194   1.517   2.941   0.500 -1.1703 -0.5316  0.1624
   65SOL    HW2  195   1.370   2.968   0.439  2.8142 -0.6440 -2.3535
   66SOL     OW  196   0.339   1.383   1.662 -0.3415  0.0703 -0.7724
   66SOL    HW1  197   0.313   1.367   1.762  2.3865  0.8580 -0.7044
   66SOL    HW2  198   0.441   1.373   1.641  2.9365  1.4739 -2.5928
   67SOL     OW  199   2.173   2.908   2.221 -0.1509  0.0203  0.0862
   67SOL    HW1  200   2.141   2.844   2.150  0.1927 -0.4889  1.5616
   67SOL    HW2  201   2.277   2.926   2.214  3.7472  2.3021 -1.8246
   68SOL     OW  202   0.861   0.680   1.634  0.2612  0.4676 -0.5262
   68SOL    HW1  203   0.884   0.763   1.580  0.6797  1.9905  1.4898
   68SOL    HW2  204   0.806   0.619   1.578 -1.4077  0.3546 -1.4217
   69SOL     OW  205   2.096   2.906   0.450 -0.2207 -0.3413 -0.1162
   69SOL    HW1  206   2.125   2.966   0.526 -2.4097 -0.9334  0.8611
   69SOL    HW2  207   2.101   2.958   0.364 -0.6451 -1.8260 -0.1129
   70SOL     OW  208   2.439   0.715   2.709  0.7753  0.5545 -0.0677
   70SOL    HW1  209   2.515   0.780   2.683 -2.8377 -2.4354  0.5856
   70SOL    HW2  210   2.480   0.629   2.738 -0.4310  4.3394 -2.6947
   71SOL     OW  211   2.823   2.020   0.181  0.0886 -0.2688  0.0241
   71SOL    HW1  212   2.921   1.983   0.185  1.5897  0.3291 -0.9191
   71SOL    HW2  213   2.798   2.022   0.083 -0.2062 -0.5105  1.4584
   72SOL     OW  214   3.013   1.676   0.490 -0.2539  0.5681 -0.6004
   72SOL    HW1  215   2.936   1.732   0.526 -0.9783  0.9557 -0.8425
   72SOL    HW2  216   3.073   1.645   0.563  1.4228  0.2161 -0.2958
   73SOL     OW  217   0.773   0.889   0.581  0.4083 -0.0489 -0.6729
   73SOL    HW1  218   0.743   0.894   0.677  0.6506  0.5145 -0.6846
   73SOL    HW2  219   0.787   0.795   0.552 -0.1853 -0.8327  0.2985
   74SOL     OW  220   0.169   1.931   2.009 -0.2752 -0.3979 -0.6156
   74SOL    HW1  221   0.186   1.875   2.090  1.5090  0.7241  0.9379
   74SOL    HW2  222   0.254   1.963   1.972 -0.9994 -0.7607 -1.5871
   75SOL     OW  223   1.737   1.633   1.241  0.1267  0.3131 -0.0381
   75SOL    HW1  224   1.785   1.620   1.152  3.8744 -1.3505 -1.0964
   75SOL    HW2  225   1.760   1.555   1.303  2.1355 -0.2348  1.9089
   76SOL     OW  226   1.958   2.153   0.922  0.0942  0.2550 -0.2276
   76SOL    HW1  227   2.023   2.185   0.994  0.2109 -0.4843  0.5854
   76SOL    HW2  228   1.954   2.051   0.918  0.9821 -0.5233 -0.6986
   77SOL     OW  229   2.462   1.605   1.808  0.1895 -0.0231 -0.0931
   77SOL    HW1  230   2.503   1.647   1.894 -0.1611 -1.6721  2.6875
   77SOL    HW2  231   2.399   1.667   1.758  1.2831  1.4038 -0.0810
   78SOL     OW  232   1.401   1.062   0.519 -0.1240  0.2486  0.3526
   78SOL    HW1  233   1.333   1.027   0.452  1.8532 -0.7264  0.3587
   78SOL    HW2  234   1.472   0.987   0.537 -0.9354 -2.1985  0.0622
   79SOL     OW  235   2.034   1.714   1.593  0.0763 -0.2171 -0.0387
   79SOL    HW1  236   2.021   1.810   1.554 -1.5070  1.2800  1.2484
   79SOL    HW2  237   2.125   1.704   1.642 -0.6336 -1.2850  1.0668
   80SOL     OW  238   1.114   0.372   1.323  0.1698 -0.0744 -0.2684
   80SOL    HW1  239   1.063   0.362   1.405  1.5120  0.0457 -3.8171
   80SOL    HW2  240   1.168   0.287   1.306 -0.6638 -1.0116  0.6301
   81SOL     OW  241   0.484   2.136   0.596 -0.0217  0.1073 -0.1851
   81SOL    HW1  242   0.486   2.082   0.685 -0.6005 -0.1306 -1.1360
   81SOL    HW2  243   0.540   2.095   0.521 -0.9462  0.6274  1.3345
   82SOL     OW  244   1.215   0.052   1.634 -0.2140 -0.6885  0.0581
   82SOL    HW1  245   1.166   0.040   1.722 -1.4208  2.2442 -1.3481
   82SOL    HW2  246   1.305   0.100   1.643  1.0004  0.0465  1.1100
   83SOL     OW  247   0.798   1.734   0.651  0.6133 -0.0059  0.4036
   83SOL    HW1  248   0.748   1.780   0.733 -1.3498  1.2925  0.3765
   83SOL    HW2  249   0.721   1.705   0.587 -0.0837 -2.0701  0.3125
   84SOL     OW  250   2.703   1.275   0.100 -0.1591  0.1893  0.2206
   84SOL    HW1  251   2.614   1.233   0.076 -1.0963 -0.3109 -1.0257
   84SOL    HW2  252   2.737   1.333   0.022  1.1493  1.6731 -1.3013
   85SOL     OW  253   0.186   2.409   1.204  0.4729 -0.2493  0.0384
   85SOL    HW1  254   0.089   2.387   1.222  0.1708 -1.0011  1.0649
   85SOL    HW2  255   0.237   2.342   1.142 -0.2652  1.5204 -2.6062
   86SOL     OW  256   2.013   2.716   0.972 -0.2570  0.5201  0.5504
   86SOL    HW1  257   1.969   2.655   1.037 -1.3048  2.0777 -0.9874
   86SOL    HW2  258   2.099   2.678   0.929  1.5292 -1.7136 -0.9969
   87SOL     OW  259   0.084   1.679   0.713 -0.0929 -0.0643  0.0439
   87SOL    HW1  260   0.053   1.719   0.803  0.7959  0.8898  0.7927
   87SOL    HW2  261   0.115   1.584   0.720 -1.0589  0.2511  0.5790
   88SOL     OW  262   0.708   0.466   1.488 -0.8781  0.2028 -0.1483
   88SOL    HW1  263   0.657   0.443   1.403 -1.9381 -3.1529 -0.2960
   88SOL    HW2  264   0.806   0.461   1.474  0.3544 -2.2011  1.9012
   89SOL     OW  265   0.853   2.595   1.992 -0.2980 -0.3970  0.5015
   89SOL    HW1  266   0.862   2.680   1.930  1.4192  0.0031 -0.5729
   89SOL    HW2  267   0.765   2.547   1.976  1.6146  0.8147  0.3455
   90SOL     OW  268   0.063   1.859   1.175 -0.3928  0.2311  0.1562
   90SOL    HW1  269   0.095   1.804   1.259 -1.8691  1.6781  0.0491
   90SOL    HW2  270   0.045   1.953   1.199  0.9338 -2.9378 -1.8195
   91SOL     OW  271   1.085   2.171   1.081 -0.7263  0.1076  0.4754
   91SOL    HW1  272   1.126   2.165   0.992 -0.8766 -1.1419  2.5018
   91SOL    HW2  273   0.982   2.175   1.084  1.0574 -3.9976 -0.0830
   92SOL     OW  274   2.818   2.866   1.514 -0.3488  0.3880  0.5624
   92SOL    HW1  275   2.801   2.878   1.417 -1.3564 -1.5350  0.4686
   92SOL    HW2  276   2.907   2.919   1.534 -1.3661 -1.1048  2.1157
   93SOL     OW  277   3.015   1.413   2.914  0.0330 -0.1242 -0.6746
   93SOL    HW1  278   3.079   1.365   2.849 -0.8401 -2.9305 -0.2650
   93SOL    HW2  279   3.045   1.398   3.011 -0.2060  1.5988  0.5908
   94SOL     OW  280   2.964   2.646   2.176 -0.5244  0.2886  0.6049
   94SOL    HW1  281   2.973   2.705   2.092  0.0391  1.7682  1.4949
   94SOL    HW2  282   2.905   2.700   2.239  1.3723  0.0401 -1.9634
   95SOL     OW  283   1.507   0.593   1.860 -0.7664 -0.1085  0.4220
   95SOL    HW1  284   1.459   0.505   1.871  2.3015  0.8697  2.4105
   95SOL    HW2  285   1.545   0.603   1.765  0.0583  0.4500  1.8349
   96SOL     OW  286   2.577   0.180   2.009 -0.6037 -0.6918 -0.2183
   96SOL    HW1  287   2.563   0.246   1.929 -1.1846  2.0420 -0.7516
   96SOL    HW2  288   2.624   0.226   2.087 -1.0092  2.0669  1.4812
   97SOL     OW  289   2.227   2.886   1.500  0.3002  0.1949  0.0076
   97SOL    HW1  290   2.297   2.828   1.551  0.5116 -2.6706  1.7703
   97SOL    HW2  291   2.161   2.925   1.561  3.0873 -0.5266 -1.6926
   98SOL     OW  292   2.186   2.848   1.230 -0.3395 -0.3883 -0.0280
   98SOL    HW1  293   2.206   2.845   1.330  0.2151 -0.2012  2.5550
   98SOL    HW2  294   2.094   2.814   1.206  1.0244  4.2390 -1.5394
   99SOL     OW  295   2.916   0.173   2.107 -0.3566 -0.2570  0.4336
   99SOL    HW1  296   2.967   0.086   2.097  1.7065 -0.5719  0.6920
   99SOL    HW2  297   2.903   0.210   2.015 -0.9715  0.5055  2.0448
  100SOL     OW  298   2.095   1.414   1.664 -0.1145  0.5317  0.0672
  100SOL    HW1  299   2.039   1.493   1.678  0.8496 -1.9481 -2.7193
  100SOL    HW2  300   2.111   1.353   1.746 -0.2681  0.0330  1.5018
  101SOL     OW  301   1.556   0.275   0.495 -0.5648 -0.2372  0.3462
  101SOL    HW1  302   1.625   0.331   0.543  0.1615  1.9963 -1.1663
  101SOL    HW2  303   1.597   0.226   0.419 -0.2959  1.3460  0.6767
  102SOL     OW  304   0.637   0.737   1.340  0.1101 -0.2489  0.1609
  102SOL    HW1  305   0.570   0.663   1.311 -1.4898 -0.8681  0.0805
  102SOL    HW2  306   0.631   0.759   1.439  1.2794  0.3832  0.8740
  103SOL     OW  307   2.313   0.112   2.793 -0.2309  0.1479 -0.1124
  103SOL    HW1  308   2.388   0.178   2.811 -0.4412 -1.2225 -1.0297
  103SOL    HW2  309   2.232   0.131   2.849  2.2461 -1.6866 -1.7772
  104SOL     OW  310   2.710   0.032   1.851 -0.3377 -0.2094 -0.0040
  104SOL    HW1  311   2.807   0.063   1.851 -2.3763  1.3061 -0.5879
  104SOL    HW2  312   2.659   0.073   1.927 -0.4578 -2.6934 -2.5818
  105SOL     OW  313   1.578   0.974   2.148 -0.1613  0.4334 -0.4168
  105SOL    HW1  314   1.546   0.949   2.058 -0.4671  1.8911  1.8919
  105SOL    HW2  315   1.678   0.957   2.147  0.9513 -1.8176 -3.4323
  106SOL     OW  316   1.684   0.474   0.838  0.1469  0.0617 -0.1518
  106SOL    HW1  317   1.778   0.435   0.847 -4.0502  1.6317  0.3577
  106SOL    HW2  318   1.622   0.410   0.890  2.4028 -0.5334 -0.0850
  107SOL     OW  319   0.768   1.191   0.942 -0.2742  0.4776  0.2578
  107SOL    HW1  320   0.701   1.194   1.018  1.7814  2.3505 -0.3706
  107SOL    HW2  321   0.843   1.253   0.956  0.0977 -1.8430 -0.2016
  108SOL     OW  322   3.049   0.716   2.462 -0.5287  0.2554 -0.3005
  108SOL    HW1  323   0.019   0.630   2.479  1.2091 -0.2913 -0.6621
  108SOL    HW2  324   2.998   0.717   2.376 -0.6844  4.0410  3.1232
  109SOL     OW  325   1.741   0.137   0.289  0.0104  0.3968 -0.5604
  109SOL    HW1  326   1.728   0.058   0.221 -0.8165 -2.4344 -1.6948
  109SOL    HW2  327   1.841   0.164   0.301 -0.0349  2.0449  2.1786
  110SOL     OW  328   3.029   1.922   2.871 -0.6697  0.4091 -0.3965
  110SOL    HW1  329   3.029   2.005   2.931 -0.7027 -1.1979 -0.4357
  110SOL    HW2  330   0.005   1.848   2.906  0.2501  0.7463  0.5592
  111SOL     OW  331   2.198   0.181   2.264 -0.0628 -0.8950 -0.0005
  111SOL    HW1  332   2.240   0.116   2.198  2.5296 -2.7859  0.3797
  111SOL    HW2  333   2.243   0.182   2.356 -2.3990  2.5682 -2.5692
  112SOL     OW  334   2.336   3.044   1.092  0.1349 -0.4278  0.1657
  112SOL    HW1  335   2.398   3.006   1.020 -1.9902  0.9558  3.0666
  112SOL    HW2  336   2.274   2.976   1.130  1.1040  0.2146  1.1218
  113SOL     OW  337   2.541   2.448   2.035  0.5028 -0.1190 -0.1241
  113SOL    HW1  338   2.516   2.466   1.939 -0.7948 -0.7241 -0.7221
  113SOL    HW2  339   2.453   2.433   2.089  2.9258 -1.9608  1.5117
  114SOL     OW  340   2.912   0.141   0.595 -0.4078 -0.1840 -0.1347
  114SOL    HW1  341   2.875   0.221   0.545  2.0135 -1.9185 -1.2790
  114SOL    HW2  342   2.848   0.061   0.581  1.9117  0.5679  0.6105
  115SOL     OW  343   2.793   1.691   0.063  0.0082  0.1749 -0.1587
  115SOL    HW1  344   2.860   1.739   0.121 -0.1586 -1.6206 -2.2577
  115SOL    HW2  345   2.732   1.634   0.123  1.0366  1.7559  1.6433
  116SOL     OW  346   0.069   1.495   2.001  0.2214 -0.2111  0.5594
  116SOL    HW1  347   0.137   1.534   1.938  1.4238 -1.2425  2.5010
  116SOL    HW2  348   3.060   1.510   1.976  3.7969  0.9327  0.6925
  117SOL     OW  349   2.513   2.907   0.921 -0.0529  0.3404  0.2786
  117SOL    HW1  350   2.582   2.849   0.961 -3.5904  2.2756 -2.7848
  117SOL    HW2  351   2.432   2.854   0.895  1.5037  2.1507 -1.2822
  118SOL     OW  352   0.366   2.276   1.745  0.3547  0.2027 -0.3262
  118SOL    HW1  353   0.277   2.237   1.700 -1.8669  0.8909  0.9384
  118SOL    HW2  354   0.432   2.272   1.674 -2.0174 -1.1726  4.1991
  119SOL     OW  355   1.377   2.113   1.209  0.0395 -0.0019  0.2299
  119SOL    HW1  356   1.280   2.130   1.182 -1.8442  0.9963 -0.4938
  119SOL    HW2  357   1.384   2.015   1.234 -1.3563  1.0026  0.5384
  120SOL     OW  358   0.522   1.784   1.844  0.4344  0.6460  0.1916
  120SOL    HW1  359   0.457   1.708   1.869 -2.1327 -0.0970  1.2363
  120SOL    HW2  360   0.475   1.874   1.844  3.4639 -0.8195 -1.7886
  121SOL     OW  361   2.518   1.476   0.988  0.0181  0.0927 -0.3335
  121SOL    HW1  362   2.570   1.473   1.077  0.3498  0.5089 -1.8464
  121SOL    HW2  363   2.577   1.532   0.929  0.2842 -0.3743  0.5666
  122SOL     OW  364   2.086   1.683   2.361  0.0899  0.2297 -0.4936
  122SOL    HW1  365   2.102   1.720   2.453 -1.4551 -0.2617 -1.0851
  122SOL    HW2  366   2.101   1.580   2.360 -1.0500  0.6049 -0.8387
  123SOL     OW  367   2.777   2.869   0.722  0.0912 -0.6370  0.6049
  123SOL    HW1  368   2.765   2.768   0.716 -2.0146 -0.0807  0.5727
  123SOL    HW2  369   2.758   2.888   0.817  2.4370 -0.0874 -1.5293
  124SOL     OW  370   1.407   1.242   2.717  0.0737  0.4556 -0.3743
  124SOL    HW1  371   1.389   1.223   2.822  1.0290 -0.9402  2.1511
  124SOL    HW2  372   1.475   1.319   2.701 -0.0199 -0.2706  3.0818
  125SOL     OW  373   0.277   1.530   2.804  0.7071 -1.0473 -0.2912
  125SOL    HW1  374   0.252   1.600   2.730 -0.1046 -1.2438 -2.0658
  125SOL    HW2  375   0.228   1.443   2.779 -1.3553 -0.2449 -0.4716
  126SOL     OW  376   2.966   2.119   0.515 -0.1674  0.3677 -0.0517
  126SOL    HW1  377   3.008   2.216   0.519 -0.0670  1.6835 -0.8225
  126SOL    HW2  378   2.893   2.103   0.444 -2.1355  1.6939 -0.6403
  127SOL     OW  379   0.380   1.675   0.959  0.3645  0.5617  0.0947
  127SOL    HW1  380   0.338   1.634   0.877 -0.9638 -0.7803  0.9234
  127SOL    HW2  381   0.361   1.775   0.973  0.1987  0.0787  1.5334
  128SOL     OW  382   1.444   1.003   0.078 -0.3415 -0.1816 -0.3248
  128SOL    HW1  383   1.522   1.042   0.136 -1.1462 -0.7560  3.2147
  128SOL    HW2  384   1.421   0.909   0.107  0.3061  0.8775  1.3914
  129SOL     OW  385   2.278   1.715   1.333 -0.1412 -0.2948  0.2804
  129SOL    HW1  386   2.234   1.809   1.340 -1.4712  2.3143 -0.5370
  129SOL    HW2  387   2.362   1.719   1.382 -1.5583  1.1638  0.9627
  130SOL     OW  388   1.885   1.287   0.282  0.2844 -0.2187  0.0978
  130SOL    HW1  389   1.978   1.300   0.246 -0.4343 -0.6793  0.0443
  130SOL    HW2  390   1.889   1.260   0.379 -0.7372  0.0694 -0.4465
  131SOL     OW  391   2.802   1.229   2.622  0.3667 -0.4089 -0.5342
  131SOL    HW1  392   2.754   1.198   2.709 -4.0213  1.4802  1.8494
  131SOL    HW2  393   2.807   1.333   2.625 -1.3238  1.2124 -1.0159
  132SOL     OW  394   1.784   1.640   1.694  0.1698  0.4690  0.2330
  132SOL    HW1  395   1.718   1.714   1.673 -0.5043 -0.3710 -1.2511
  132SOL    HW2  396   1.871   1.664   1.651 -0.2138  0.3452  0.6067
  133SOL     OW  397   0.333   1.135   2.908 -0.2952 -0.8049  0.0118
  133SOL    HW1  398   0.272   1.158   2.987  2.2372 -1.4803  0.6978
  133SOL    HW2  399   0.427   1.153   2.929  1.6822 -1.5584  0.2431
  134SOL     OW  400   2.630   1.045   0.507  0.0402 -0.7104  0.1325
  134SOL    HW1  401   2.541   1.073   0.548  0.6850 -0.2934 -0.3948
  134SOL    HW2  402   2.683   1.118   0.466 -0.5199  0.3074  1.2673
  135SOL     OW  403   2.634   0.925   0.244  0.2984  0.2951 -0.2598
  135SOL    HW1  404   2.640   0.993   0.317  1.7689  0.0666  1.3009
  135SOL    HW2  405   2.533   0.898   0.234 -1.8763 -3.0655  0.3511
  136SOL     OW  406   1.684   1.894   1.298  0.0661  0.4552 -0.5800
  136SOL    HW1  407   1.664   1.938   1.212 -0.2459 -2.6287  4.4683
  136SOL    HW2  408   1.732   1.805   1.277  1.7346  1.5576  0.4502
  137SOL     OW  409   2.578   2.112   0.821  0.0237  0.0055 -0.1683
  137SOL    HW1  410   2.633   2.144   0.744  1.7611  0.9206  1.2198
  137SOL    HW2  411   2.631   2.073   0.897 -1.8579  2.9335  0.0382
  138SOL     OW  412   2.089   0.028   1.747 -0.2129 -0.4496  0.2287
  138SOL    HW1  413   2.072   0.043   1.648  1.6559 -1.1318 -1.0061
  138SOL    HW2  414   2.078   0.122   1.789  1.4996  1.6717 -0.7058
  139SOL     OW  415   2.551   0.367   0.024 -0.7424  0.2501 -0.2628
  139SOL    HW1  416   2.565   0.265   0.034 -0.6256 -1.6941  1.2064
  139SOL    HW2  417   2.572   0.397   3.018  0.7931  0.6019  2.0243
  140SOL     OW  418   1.089   1.827   2.520 -0.0113 -0.7385 -0.7502
  140SOL    HW1  419   1.166   1.754   2.521  0.1020 -1.6862  0.5056
  140SOL    HW2  420   1.002   1.781   2.540  2.4969 -1.3797 -0.5815
  141SOL     OW  421   0.630   0.884   1.979  0.1431  0.4023  0.1539
  141SOL    HW1  422   0.601   0.839   2.063 -2.7861 -0.7824 -2.8025
  141SOL    HW2  423   0.664   0.980   1.993 -2.5777  0.9874 -3.2966
  142SOL     OW  424   2.126   2.717   3.070 -0.2324  0.2061  0.1524
  142SOL    HW1  425   2.218   2.741   3.033 -0.2395  0.8499  0.1623
  142SOL    HW2  426   2.137   2.634   0.045  1.9841 -0.6677 -1.3371
  143SOL     OW  427   1.092   2.049   0.176 -0.1122  0.3265 -0.3721
  143SOL    HW1  428   1.102   2.124   0.104  0.1976 -1.9937 -1.1682
  143SOL    HW2  429   0.993   2.029   0.183 -2.0023 -2.4371 -1.3337
  144SOL     OW  430   1.131   2.637   0.292 -0.3130 -0.5271 -0.0459
  144SOL    HW1  431   1.088   2.555   0.247 -0.6734  2.7850 -2.0090
  144SOL    HW2  432   1.222   2.606   0.326 -1.5666  0.8954 -0.8391
  145SOL     OW  433   2.073   1.746   2.625  0.2641  0.5761  0.0354
  145SOL    HW1  434   2.079   1.832   2.683  2.4617  1.0799  0.4873
  145SOL    HW2  435   2.003   1.681   2.659  4.5374 -0.5937  0.6972
  146SOL     OW  436   2.579   2.590   3.078 -0.5957  0.1163  0.0489
  146SOL    HW1  437   2.505   2.642   3.028  1.2500 -0.7393 -0.9561
  146SOL    HW2  438   2.534   2.538   0.066  0.8224  4.3093 -2.9145
  147SOL     OW  439   3.015   1.336   1.288  0.1248  0.0509  1.4133
  147SOL    HW1  440   2.967   1.404   1.237  0.6427 -1.2804  2.6254
  147SOL    HW2  441   2.953   1.276   1.341  1.0319  0.8492  2.7389
  148SOL     OW  442   1.710   2.989   0.134 -0.2058 -0.8580  0.1114
  148SOL    HW1  443   1.767   2.907   0.131  0.9960 -1.1920 -1.8384
  148SOL    HW2  444   1.608   2.984   0.124 -3.2770  0.1210  0.8684
  149SOL     OW  445   0.502   1.778   2.874  0.5460  0.6604  0.3055
  149SOL    HW1  446   0.573   1.738   2.931 -2.6288  0.4537 -3.4600
  149SOL    HW2  447   0.539   1.818   2.786  0.0528  1.7392 -2.1325
  150SOL     OW  448   0.248   2.352   0.577  0.6733 -0.0052 -0.0083
  150SOL    HW1  449   0.292   2.401   0.499  0.5735 -0.5407 -1.8420
  150SOL    HW2  450   0.292   2.261   0.592  0.0755 -0.4301  0.3690
  151SOL     OW  451   0.504   1.519   0.312  0.0177  0.0803  0.4816
  151SOL    HW1  452   0.456   1.433   0.277 -0.4137 -1.7608  0.6613
  151SOL    HW2  453   0.474   1.594   0.249 -0.3879 -1.3432 -3.9391
  152SOL     OW  454   2.796   1.798   0.551  0.4101 -0.6457 -0.8711
  152SOL    HW1  455   2.751   1.848   0.473  1.6441  2.3226  0.2357
  152SOL    HW2  456   2.800   1.859   0.634  1.7315 -2.0364 -1.7379
  153SOL     OW  457   2.133   2.581   0.388  0.1674  0.6575  0.6651
  153SOL    HW1  458   2.088   2.672   0.391  0.5091  1.0216  0.8738
  153SOL    HW2  459   2.115   2.528   0.474  3.1191  0.0891  1.4416
  154SOL     OW  460   0.918   2.834   0.792 -0.7776 -0.4407 -0.4310
  154SOL    HW1  461   0.875   2.926   0.795 -0.0125 -1.8707 -0.8452
  154SOL    HW2  462   0.878   2.772   0.859 -0.6155  1.1184  0.4197
  155SOL     OW  463   0.253   1.917   0.957 -0.1565 -0.1429 -0.0272
  155SOL    HW1  464   0.191   1.890   1.032 -2.8432 -0.8120 -0.8253
  155SOL    HW2  465   0.214   1.987   0.897 -0.3151 -1.7349  3.7377
  156SOL     OW  466   2.470   2.405   0.166 -0.2432 -0.1269 -0.6845
  156SOL    HW1  467   2.482   2.311   0.136 -0.0525  0.8894  2.3901
  156SOL    HW2  468   2.526   2.418   0.251 -0.6792  2.1368  0.9363
  157SOL     OW  469   0.830   1.719   1.493  0.3196  0.3107 -0.7095
  157SOL    HW1  470   0.748   1.685   1.543  0.7018  1.8862 -1.5519
  157SOL    HW2  471   0.829   1.687   1.396  0.9896 -0.9258  0.8878
  158SOL     OW  472   1.404   0.719   0.075  0.0570 -0.1908 -0.3021
  158SOL    HW1  473   1.373   0.668   3.082 -0.4026  2.2759  0.5235
  158SOL    HW2  474   1.496   0.682   0.106  2.1206 -0.5793  1.0221
  159SOL     OW  475   1.235   0.976   2.829  0.0130  0.2189 -0.6445
  159SOL    HW1  476   1.288   0.949   2.749 -1.5182  0.4132 -0.1666
  159SOL    HW2  477   1.282   1.047   2.884  1.3635 -0.5072  1.2950
  160SOL     OW  478   1.165   1.406   0.461 -0.3123  0.4456 -0.5886
  160SOL    HW1  479   1.181   1.492   0.422 -0.4078 -1.8536  2.1565
  160SOL    HW2  480   1.197   1.332   0.398  0.9680  1.4398  0.8707
  161SOL     OW  481   0.104   2.164   2.662 -0.2043  0.5359 -0.0401
  161SOL    HW1  482   0.003   2.174   2.657  0.9311  2.4421  3.0948
  161SOL    HW2  483   0.136   2.162   2.758  2.9451 -1.4089 -2.4023
  162SOL     OW  484   0.327   2.252   1.025 -0.1881  0.0071 -0.5087
  162SOL    HW1  485   0.277   2.212   0.946  2.9230 -0.2512 -0.2866
  162SOL    HW2  486   0.347   2.182   1.101  1.1691 -2.3465  1.2670
  163SOL     OW  487   0.013   0.732   2.874 -0.0313 -0.1774  0.0225
  163SOL    HW1  488   0.055   0.646   2.835 -0.2652 -1.8476  1.4110
  163SOL    HW2  489   0.018   0.726   2.971 -1.2519 -0.2922 -1.7694
  164SOL     OW  490   0.455   3.022   2.620  0.0011 -0.0326 -0.3381
  164SOL    HW1  491   0.497   3.067   2.700  0.4359  0.6420  1.1529
  164SOL    HW2  492   0.529   3.022   2.549  0.3668  1.0764 -1.5777
  165SOL     OW  493   2.056   0.296   1.860  0.3352  0.5637  0.4639
  165SOL    HW1  494   2.102   0.327   1.945 -1.5159  1.6919 -0.9613
  165SOL    HW2  495   2.013   0.374   1.813  2.1540  3.7316 -2.8121
  166SOL     OW  496   2.020   2.629   1.437 -0.3376  0.6329  0.3635
  166SOL    HW1  497   2.043   2.556   1.503  0.0524  0.7986  1.1286
  166SOL    HW2  498   2.003   2.723   1.478  0.2567  2.3304 -0.2075
  167SOL     OW  499   1.127   0.483   1.981 -0.1069 -0.4645  0.4360
  167SOL    HW1  500   1.203   0.418   1.961  2.4687  0.4424 -1.0530
  167SOL    HW2  501   1.146   0.523   2.074  2.3613  0.3160 -2.1200
  168SOL     OW  502   2.374   0.012   2.121  0.0737 -0.1551  0.0232
  168SOL    HW1  503   2.434   0.075   2.068  2.0705  0.1787 -1.9423
  168SOL    HW2  504   2.434   3.026   2.159  3.4457 -0.1842  0.0185
  169SOL     OW  505   3.050   1.337   0.125  0.4095  0.6712 -0.5418
  169SOL    HW1  506   3.036   1.359   0.221  2.4298  1.4851  0.2922
  169SOL    HW2  507   2.990   1.258   0.099  2.5915  0.5768 -2.1568
  170SOL     OW  508   2.953   1.459   1.710 -0.5430 -0.7495 -0.3595
  170SOL    HW1  509   2.911   1.536   1.658  3.0340 -0.4996  1.4929
  170SOL    HW2  510   2.928   1.470   1.806 -0.0985  0.8441 -0.7000
  171SOL     OW  511   0.999   2.237   2.186  0.3292 -0.1199 -0.2221
  171SOL    HW1  512   0.913   2.290   2.191 -3.9746 -0.2645 -0.4389
  171SOL    HW2  513   0.980   2.150   2.243  0.0590 -2.4387 -0.2459
  172SOL     OW  514   0.746   2.323   2.158  0.1769 -0.0046  0.0047
  172SOL    HW1  515   0.724   2.383   2.075  0.2308  0.3385 -0.0986
  172SOL    HW2  516   0.742   2.375   2.244 -1.6470  0.1456  2.9897
  173SOL     OW  517   1.184   2.554   0.867 -0.2722 -0.3177 -0.3963
  173SOL    HW1  518   1.114   2.570   0.936  0.2760 -0.7586  1.8894
  173SOL    HW2  519   1.241   2.637   0.847 -1.3039  1.7485  0.8633
  174SOL     OW  520   1.839   0.359   0.515 -0.1951  0.3110 -0.3798
  174SOL    HW1  521   1.886   0.383   0.604 -2.0609  1.1015  0.0462
  174SOL    HW2  522   1.884   0.278   0.464  2.3618 -1.9961 -1.4617
  175SOL     OW  523   1.174   1.659   0.348 -0.3883 -0.5717 -0.3552
  175SOL    HW1  524   1.264   1.708   0.360  1.4221  0.3492 -1.1481
  175SOL    HW2  525   1.102   1.718   0.389  0.8472  3.8059  0.7777
  176SOL     OW  526   1.207   1.478   0.721  0.4436  0.5938  0.2277
  176SOL    HW1  527   1.228   1.574   0.720 -0.9222 -0.1569 -1.3282
  176SOL    HW2  528   1.179   1.440   0.629 -0.0685 -3.3356  0.9795
  177SOL     OW  529   1.133   0.624   1.233  0.1299  0.3602 -0.1492
  177SOL    HW1  530   1.128   0.528   1.262 -0.4309 -1.7234  0.4031
  177SOL    HW2  531   1.203   0.671   1.287  2.7302  0.6591 -0.3292
  178SOL     OW  532   2.688   1.554   0.283  0.4364  0.3630  0.0217
  178SOL    HW1  533   2.617   1.496   0.321 -4.3203  0.5183 -0.6868
  178SOL    HW2  534   2.782   1.523   0.303 -0.4419 -0.6018 -0.8226
  179SOL     OW  535   0.520   2.318   0.020  0.0322  0.3763 -0.3137
  179SOL    HW1  536   0.502   2.233   0.075  2.0837 -1.2647 -0.6290
  179SOL    HW2  537   0.569   2.387   0.070 -0.6068 -2.9152 -0.3621
  180SOL     OW  538   1.637   1.454   1.565  0.0503 -0.0134  0.0418
  180SOL    HW1  539   1.694   1.518   1.623  2.2695 -0.5550  1.7539
  180SOL    HW2  540   1.565   1.516   1.528  0.4237 -0.3099  3.8901
  181SOL     OW  541   0.971   1.072   2.258 -0.2981  0.6704  0.0758
  181SOL    HW1  542   0.948   1.131   2.181 -1.2826 -1.6381  1.8103
  181SOL    HW2  543   1.030   0.992   2.229 -0.1274  0.6199 -1.2837
  182SOL     OW  544   2.831   0.976   2.164 -0.4596  0.2035 -0.3014
  182SOL    HW1  545   2.797   1.009   2.256  0.0762  1.1780 -1.2520
  182SOL    HW2  546   2.754   0.969   2.095  1.4664 -1.8844 -0.6197
  183SOL     OW  547   1.650   0.624   2.114 -0.5299  0.1370 -0.0118
  183SOL    HW1  548   1.708   0.698   2.082 -0.6332 -0.1398  0.5398
  183SOL    HW2  549   1.619   0.569   2.036 -0.1269 -1.3275 -3.9491
  184SOL     OW  550   0.173   0.423   1.621  0.4979 -0.6080  0.3496
  184SOL    HW1  551   0.258   0.397   1.675 -3.0383 -1.3845  0.0357
  184SOL    HW2  552   0.193   0.410   1.526  0.6228 -2.2265  2.6804
  185SOL     OW  553   2.364   1.837   0.555  0.1563  0.0531  0.2444
  185SOL    HW1  554   2.407   1.757   0.515 -2.5879  0.2797  0.3815
  185SOL    HW2  555   2.292   1.874   0.494  2.2034  3.1611 -2.0783
  186SOL     OW  556   0.504   1.967   3.079 -0.6373 -0.1936 -0.6943
  186SOL    HW1  557   0.485   1.893   3.011 -1.1316 -2.3471  2.9492
  186SOL    HW2  558   0.603   1.992   3.074  1.9392 -0.1098 -0.0138
  187SOL     OW  559   2.383   1.758   3.033 -0.3590 -0.5105 -0.1101
  187SOL    HW1  560   2.419   1.690   2.968 -0.7080  0.7981  4.0463
  187SOL    HW2  561   2.458   1.814   3.075  1.3151  1.9354 -0.2526
  188SOL     OW  562   1.002   2.601   0.675  0.4652 -0.4455 -0.4773
  188SOL    HW1  563   1.074   2.568   0.740  0.3820 -0.4200 -0.3980
  188SOL    HW2  564   0.946   2.678   0.716  0.9315  1.7168 -0.0019
  189SOL     OW  565   2.054   0.922   2.562  0.3093 -0.2974  0.1102
  189SOL    HW1  566   1.968   0.888   2.525 -0.8402 -0.5695  0.6810
  189SOL    HW2  567   2.044   0.997   2.628 -0.3599 -2.4203  2.7185
  190SOL     OW  568   0.872   2.019   2.343  0.2064 -0.6653  0.1428
  190SOL    HW1  569   0.797   2.056   2.408  0.6746 -2.3745  0.9248
  190SOL    HW2  570   0.953   1.968   2.385 -2.1168 -0.6543  0.1443
  191SOL     OW  571   2.421   0.824   1.651 -0.3311 -0.4210 -0.2822
  191SOL    HW1  572   2.420   0.730   1.614 -0.7558  2.3086  1.6272
  191SOL    HW2  573   2.473   0.880   1.584 -2.9917 -1.1680 -0.0945
  192SOL     OW  574   2.205   0.387   2.082 -0.5827 -0.2283 -0.1738
  192SOL    HW1  575   2.301   0.413   2.074 -3.1321 -0.8980 -0.2299
  192SOL    HW2  576   2.194   0.328   2.166 -2.7382 -2.3555 -0.8639
  193SOL     OW  577   0.395   0.356   0.647  0.3010  0.0903  0.3063
  193SOL    HW1  578   0.428   0.272   0.598 -0.7929  0.1788  0.6173
  193SOL    HW2  579   0.354   0.343   0.739 -1.4464 -0.8137 -0.6422
  194SOL     OW  580   1.234   2.389   1.608  0.2220  0.4677 -0.0859
  194SOL    HW1  581   1.141   2.390   1.654  0.3665 -1.5919 -4.1963
  194SOL    HW2  582   1.269   2.295   1.606 -0.5768  2.2115 -0.3400
  195SOL     OW  583   2.519   0.752   0.796 -0.1599 -0.5624  0.7468
  195SOL    HW1  584   2.465   0.762   0.879  1.6010 -1.9250 -1.7843
  195SOL    HW2  585   2.616   0.782   0.808 -0.1712  0.1887  0.4714
  196SOL     OW  586   1.134   1.783   1.821 -0.2489  0.0496  0.3233
  196SOL    HW1  587   1.096   1.808   1.732  1.7516 -0.7992  0.7256
  196SOL    HW2  588   1.083   1.824   1.902  0.1828 -1.9987 -0.4803
  197SOL     OW  589   0.257   0.643   2.258 -0.4302 -0.5707 -0.3297
  197SOL    HW1  590   0.253   0.732   2.314 -1.1099  1.5780  2.4155
  197SOL    HW2  591   0.220   0.572   2.319 -0.3433 -0.5138 -1.3448
  198SOL     OW  592   1.639   1.268   0.703 -0.8697  0.3200  0.4196
  198SOL    HW1  593   1.539   1.252   0.711  1.2164 -0.6056 -1.1563
  198SOL    HW2  594   1.668   1.360   0.739 -0.1938 -0.4870  0.2146
  199SOL     OW  595   2.461   0.501   2.157  0.2821  0.6890  0.1975
  199SOL    HW1  596   2.522   0.428   2.199  0.4835  0.0604  0.3246
  199SOL    HW2  597   2.456   0.587   2.215 -0.4319  0.4990  0.1407
  200SOL     OW  598   2.358   2.437   2.413  0.1301 -0.2464 -0.8735
  200SOL    HW1  599   2.456   2.459   2.434 -0.9730  0.0025 -2.8731
  200SOL    HW2  600   2.308   2.397   2.492  0.1826 -0.5831 -1.7369
  201SOL     OW  601   2.085   0.182   1.490 -0.0108  0.0518 -0.5237
  201SOL    HW1  602   2.001   0.240   1.504 -0.8009  0.3505 -0.7587
  201SOL    HW2  603   2.107   0.170   1.391 -1.1826  0.5539  0.3361
  202SOL     OW  604   2.140   3.054   0.241 -0.0870  0.3037 -0.3601
  202SOL    HW1  605   2.228   0.017   0.239 -1.7370 -2.5163  0.6524
  202SOL    HW2  606   2.102   3.036   0.147  0.1541 -1.1697  1.1412
  203SOL     OW  607   0.640   1.855   2.631  0.0416  0.4449  0.5290
  203SOL    HW1  608   0.550   1.843   2.585 -1.3886  0.7209 -1.9723
  203SOL    HW2  609   0.676   1.955   2.619  0.8371  0.6842  0.8332
  204SOL     OW  610   0.898   1.317   2.674 -0.5800  0.0301  0.1141
  204SOL    HW1  611   0.827   1.384   2.710 -1.1777  0.8874  0.1167
  204SOL    HW2  612   0.874   1.220   2.695 -1.0949 -2.4039  1.7673
  205SOL     OW  613   1.004   0.873   1.514  0.0102 -0.5261 -0.4630
  205SOL    HW1  614   1.081   0.837   1.571  1.3577  2.2571 -1.7462
  205SOL    HW2  615   1.028   0.898   1.417 -1.4569  1.3764  2.2514
  206SOL     OW  616   0.575   0.586   2.529 -0.8064 -0.1715  0.1083
  206SOL    HW1  617   0.631   0.591   2.440  0.6134  1.4092 -0.8127
  206SOL    HW2  618   0.587   0.497   2.580 -0.7322 -1.0040  0.8827
  207SOL     OW  619   1.944   2.395   1.974 -0.3738  0.1025 -0.5160
  207SOL    HW1  620   1.894   2.485   1.983  0.0014  0.3795 -0.6333
  207SOL    HW2  621   1.892   2.334   1.911  0.7584  1.4723 -0.1508
  208SOL     OW  622   0.985   2.548   1.044 -0.7956 -0.3693 -0.3010
  208SOL    HW1  623   0.923   2.631   1.041  0.1119 -0.3255  0.3531
  208SOL    HW2  624   0.932   2.461   1.038  0.7550  0.0134  2.8973
  209SOL     OW  625   1.163   1.653   2.866  0.3800 -0.1529 -0.0185
  209SOL    HW1  626   1.252   1.694   2.888 -2.0331  1.1567  1.3536
  209SOL    HW2  627   1.168   1.551   2.852  3.0289 -1.3754 -1.6150
  210SOL     OW  628   2.163   0.661   0.861 -0.3961 -0.5624  0.0888
  210SOL    HW1  629   2.234   0.714   0.916 -0.5937  0.2416  0.3001
  210SOL    HW2  630   2.179   0.680   0.763 -1.4568  0.0667  1.4491
  211SOL     OW  631   0.916   2.680   0.437 -0.0286  0.0883 -0.4610
  211SOL    HW1  632   0.951   2.643   0.529  2.3238  0.0872  0.8579
  211SOL    HW2  633   0.988   2.665   0.369 -0.3368 -1.0385  1.6939
  212SOL     OW  634   2.137   1.980   0.294  0.3786  0.5488 -0.1232
  212SOL    HW1  635   2.141   1.891   0.243  0.8464 -0.2336  0.7339
  212SOL    HW2  636   2.231   2.015   0.295 -4.2333 -1.6628 -0.6231
  213SOL     OW  637   1.774   0.675   2.918 -0.5449 -0.0544  0.5825
  213SOL    HW1  638   1.754   0.716   3.012 -0.6131 -0.0101  2.3078
  213SOL    HW2  639   1.875   0.686   2.900  0.1209  1.3967  0.2348
  214SOL     OW  640   1.012   1.891   2.046  0.1563 -0.5685 -0.0220
  214SOL    HW1  641   0.914   1.915   2.033  0.5932 -1.6140 -0.1102
  214SOL    HW2  642   1.060   1.940   2.121  1.0087 -0.4157  1.2368
  215SOL     OW  643   0.545   1.627   0.566 -0.1310  0.1620 -0.2125
  215SOL    HW1  644   0.549   1.578   0.474 -2.3800 -1.9578 -1.4177
  215SOL    HW2  645   0.450   1.662   0.590 -2.4204  0.1764  0.5104
  216SOL     OW  646   0.093   0.029   2.348  0.0772  0.3036 -0.5939
  216SOL    HW1  647   0.145   3.032   2.359  0.0170  1.9565  2.7307
  216SOL    HW2  648   0.098   0.059   2.247  2.1917  1.1020 -1.5561
  217SOL     OW  649   2.369   0.658   1.287  0.0311 -0.8727 -0.4621
  217SOL    HW1  650   2.278   0.609   1.269 -1.7958  0.0074 -0.5900
  217SOL    HW2  651   2.403   0.633   1.379 -0.4464 -2.3339  2.0020
  218SOL     OW  652   1.435   1.800   2.079 -0.3627  0.2326 -0.0021
  218SOL    HW1  653   1.436   1.823   1.985 -1.0595 -1.2458  2.7870
  218SOL    HW2  654   1.351   1.834   2.121 -0.6326 -2.2185 -1.9637
  219SOL     OW  655   1.951   1.523   3.035 -0.7904  0.2830  0.5812
  219SOL    HW1  656   2.025   1.466   2.995  1.0532  0.2955  0.2045
  219SOL    HW2  657   1.968   1.617   3.019  0.8901  0.8904 -0.0307
  220SOL     OW  658   2.038   0.770   0.339  0.4391 -0.2248 -0.3863
  220SOL    HW1  659   1.994   0.843   0.282 -2.1591 -0.7110  1.5839
  220SOL    HW2  660   2.000   0.679   0.321  0.2836 -0.8494  1.3391
  221SOL     OW  661   0.084   0.504   2.753  0.6280  0.5113 -0.1588
  221SOL    HW1  662   0.170   0.515   2.698 -0.1091 -1.0550 -1.9281
  221SOL    HW2  663   0.063   0.404   2.756 -0.3746  1.5075 -1.5139
  222SOL     OW  664   1.612   1.849   0.479  0.0834  0.2089 -0.4373
  222SOL    HW1  665   1.666   1.765   0.489 -0.3466 -1.1571  1.5423
  222SOL    HW2  666   1.673   1.933   0.468 -0.9213  1.3296 -1.1595
  223SOL     OW  667   1.138   0.051   0.205  0.2723 -0.2285  0.0512
  223SOL    HW1  668   1.233   0.073   0.223 -1.0991  0.4126 -2.1474
  223SOL    HW2  669   1.108   0.112   0.130 -0.0896  1.8554 -2.3235
  224SOL     OW  670   1.792   3.005   1.404  0.0015  0.3896 -0.3235
  224SOL    HW1  671   1.776   2.921   1.349 -0.2371  2.9122 -1.6144
  224SOL    HW2  672   1.805   3.082   1.340 -1.4011  0.3302 -2.2659
  225SOL     OW  673   0.678   2.212   1.188  0.2623  0.2998 -0.3968
  225SOL    HW1  674   0.708   2.265   1.268 -0.5425  0.8821 -0.5278
  225SOL    HW2  675   0.736   2.238   1.110  1.6360  1.1343  1.2260
  226SOL     OW  676   1.082   1.591   0.103  0.0039  0.4101  0.2700
  226SOL    HW1  677   1.108   1.656   0.030 -0.1444  2.3709 -0.1836
  226SOL    HW2  678   1.140   1.609   0.188 -1.5819 -1.7683 -0.8147
  227SOL     OW  679   1.273   1.565   1.384 -0.2365  0.5935 -0.0490
  227SOL    HW1  680   1.317   1.529   1.298  0.9918 -2.0912 -0.0583
  227SOL    HW2  681   1.194   1.626   1.363 -0.0354  1.4119 -2.1849
  228SOL     OW  682   0.338   1.797   0.615  0.4841  0.6587 -0.3239
  228SOL    HW1  683   0.251   1.747   0.626 -1.7036 -1.0261 -2.5438
  228SOL    HW2  684   0.327   1.890   0.577  0.1017 -3.4684  0.3528
  229SOL     OW  685   1.926   0.248   2.672  0.1450 -0.2620 -0.2568
  229SOL    HW1  686   1.955   0.206   2.579 -1.5458  1.2759 -0.3368
  229SOL    HW2  687   1.836   0.299   2.664 -0.8233  3.3660  1.1145
  230SOL     OW  688   1.727   1.231   2.579 -0.1182  0.0515 -0.0046
  230SOL    HW1  689   1.808   1.174   2.607  2.7007 -1.2760  0.2420
  230SOL    HW2  690   1.697   1.307   2.644 -1.0635  0.8868 -2.7377
  231SOL     OW  691   0.851   1.712   2.563 -0.2362 -0.2411 -0.4012
  231SOL    HW1  692   0.853   1.659   2.472  1.2185  0.8873  1.2734
  231SOL    HW2  693   0.759   1.754   2.582 -2.0170 -0.5875 -3.6518
  232SOL     OW  694   2.432   2.310   0.427 -0.2595 -0.7568  0.5190
  232SOL    HW1  695   2.502   2.266   0.489  1.7290 -0.4890 -2.4867
  232SOL    HW2  696   2.379   2.247   0.372 -1.6796  1.7259  0.6248
  233SOL     OW  697   2.712   2.478   0.453 -0.2462 -0.2799  0.0626
  233SOL    HW1  698   2.774   2.401   0.425  0.2203 -3.0113  1.4551
  233SOL    HW2  699   2.712   2.554   0.385 -1.7126  2.6408  0.9881
  234SOL     OW  700   0.674   0.477   2.881 -0.6959  0.2900 -0.3787
  234SOL    HW1  701   0.659   0.413   2.804  0.1738  0.3802 -0.8006
  234SOL    HW2  702   0.760   0.526   2.856  0.9575 -1.3820 -0.2051
  235SOL     OW  703   2.576   0.228   2.815 -0.2064 -0.0470  0.1949
  235SOL    HW1  704   2.603   0.147   2.872 -1.7743  2.0282  0.8514
  235SOL    HW2  705   2.648   0.254   2.746 -0.6806  1.7126  0.0413
  236SOL     OW  706   2.065   2.252   1.145  0.1672  0.1048 -0.1413
  236SOL    HW1  707   2.062   2.209   1.238 -1.0593 -2.5349  0.6733
  236SOL    HW2  708   2.157   2.283   1.110  0.5244  2.4192  0.5942
  237SOL     OW  709   0.736   1.800   2.223  0.3300  0.0161  0.7330
  237SOL    HW1  710   0.732   1.832   2.124  0.9750 -0.4988  1.6109
  237SOL    HW2  711   0.787   1.867   2.278 -2.0012 -2.0305 -1.4421
  238SOL     OW  712   1.241   0.069   2.655 -0.0793  0.1969 -0.0458
  238SOL    HW1  713   1.296   0.006   2.708 -0.3574  0.2327 -1.2306
  238SOL    HW2  714   1.174   0.022   2.590 -3.8678 -2.5393 -4.0040
  239SOL     OW  715   0.401   2.037   1.915 -0.2127 -0.6920  0.5141
  239SOL    HW1  716   0.471   2.054   1.986  0.9595 -1.7725 -1.0468
  239SOL    HW2  717   0.390   2.115   1.850  0.5294 -0.3503  0.0371
  240SOL     OW  718   2.410   2.576   0.456 -0.1359  0.0924 -0.0133
  240SOL    HW1  719   2.309   2.590   0.456 -0.1276  0.1503 -0.6179
  240SOL    HW2  720   2.429   2.472   0.450  1.1422  1.3870  1.1655
  241SOL     OW  721   2.332   0.806   1.002  0.2076  0.2759  0.3576
  241SOL    HW1  722   2.344   0.772   1.097 -1.7504  0.4850 -2.2326
  241SOL    HW2  723   2.356   0.906   0.989  1.8406 -0.4472 -0.5084
  242SOL     OW  724   2.312   2.418   2.164 -0.0599 -0.1248  0.5385
  242SOL    HW1  725   2.249   2.341   2.140  2.9795 -0.1035  2.2775
  242SOL    HW2  726   2.326   2.426   2.267  2.3227 -0.7589  2.2012
  243SOL     OW  727   0.796   2.351   1.415  0.3170  0.0719 -0.3514
  243SOL    HW1  728   0.898   2.339   1.418  3.1667  4.0778  1.9014
  243SOL    HW2  729   0.777   2.451   1.391 -0.8205  3.4476 -2.7227
  244SOL     OW  730   2.065   0.409   2.836  0.3254 -0.0900  0.4452
  244SOL    HW1  731   2.007   0.351   2.768 -0.7243 -1.4745 -1.0963
  244SOL    HW2  732   2.115   0.487   2.788 -0.2653  2.9466  1.5504
  245SOL     OW  733   1.465   0.106   1.350 -0.3230 -0.0991  0.3929
  245SOL    HW1  734   1.365   0.094   1.333 -2.0249  0.0884 -0.2494
  245SOL    HW2  735   1.517   0.052   1.277  1.0778  2.3556 -1.1039
  246SOL     OW  736   1.858   2.750   0.007 -0.3691  0.3790  0.2828
  246SOL    HW1  737   1.961   2.744   0.031  2.1440  0.1970 -1.0369
  246SOL    HW2  738   1.841   2.780   2.997 -2.2495  2.4360  1.9574
  247SOL     OW  739   1.192   0.589   2.216 -0.3603 -0.3589  0.3061
  247SOL    HW1  740   1.137   0.554   2.291  0.0036  0.0109 -0.3365
  247SOL    HW2  741   1.286   0.601   2.254  0.9191 -0.0555 -0.7139
  248SOL     OW  742   0.608   1.643   1.635 -0.2738 -0.4717 -0.2971
  248SOL    HW1  743   0.592   1.707   1.714  1.9272  1.2114 -1.1397
  248SOL    HW2  744   0.601   1.545   1.665 -0.1001  0.4299 -0.4783
  249SOL     OW  745   2.296   0.297   0.631  0.5663 -0.2018  0.0344
  249SOL    HW1  746   2.265   0.338   0.541 -0.0676 -1.1602 -2.3121
  249SOL    HW2  747   2.248   0.334   0.711 -1.1437 -2.6801  0.5672
  250SOL     OW  748   2.874   0.488   2.852  0.0626  0.6464 -0.2183
  250SOL    HW1  749   2.903   0.480   2.949 -0.4992  2.9681 -2.6516
  250SOL    HW2  750   2.943   0.534   2.794 -0.8086  0.6100 -0.0612
  251SOL     OW  751   1.273   0.602   2.914 -1.0314 -0.1435  0.7269
  251SOL    HW1  752   1.340   0.608   2.836  0.9047 -0.7038 -2.4690
  251SOL    HW2  753   1.218   0.691   2.923  0.3274  0.8075  0.4534
  252SOL     OW  754   1.861   2.057   1.876  0.0991 -0.5649 -0.4491
  252SOL    HW1  755   1.762   2.076   1.898  0.9618  0.3980 -3.2743
  252SOL    HW2  756   1.919   2.037   1.956 -1.5901  0.4366 -1.4662
  253SOL     OW  757   2.552   2.206   1.171  0.4905 -0.0663  0.2038
  253SOL    HW1  758   2.628   2.153   1.123  0.6035 -2.9201  1.7352
  253SOL    HW2  759   2.588   2.293   1.207  2.8494 -2.7357  1.9369
  254SOL     OW  760   2.688   1.204   1.003 -0.2006  0.1645  0.2448
  254SOL    HW1  761   2.683   1.265   1.087 -1.2814  0.6756  2.0400
  254SOL    HW2  762   2.734   1.244   0.921 -0.2952 -0.6738 -1.5691
  255SOL     OW  763   1.213   0.206   1.007 -0.0312  0.0656 -0.2354
  255SOL    HW1  764   1.165   0.179   0.922  3.6765 -0.0519 -0.1314
  255SOL    HW2  765   1.200   0.306   1.024  1.7374  0.8160  0.6063
  256SOL     OW  766   1.584   2.257   1.303 -0.1708 -0.2634  0.2021
  256SOL    HW1  767   1.562   2.350   1.345  0.5831 -0.2496  0.2246
  256SOL    HW2  768   1.504   2.204   1.270  0.0932  2.0901 -0.8638
  257SOL     OW  769   0.730   2.920   2.578 -0.4979  0.3114 -0.5037
  257SOL    HW1  770   0.774   2.973   2.657 -1.7252  1.9639  1.8609
  257SOL    HW2  771   0.794   2.922   2.502  1.1115  2.8307  0.8303
  258SOL     OW  772   0.877   2.381   0.612 -0.0777 -0.5470  0.7166
  258SOL    HW1  773   0.917   2.455   0.677  0.9954 -0.9514  0.3742
  258SOL    HW2  774   0.773   2.369   0.623 -1.0116 -2.8622  1.9460
  259SOL     OW  775   1.638   2.966   2.811  0.4810 -0.0018  0.1171
  259SOL    HW1  776   1.673   3.040   2.754 -0.7509  1.4116 -2.5457
  259SOL    HW2  777   1.706   2.888   2.808 -0.2386 -1.1842  1.7268
  260SOL     OW  778   2.326   0.215   1.640  0.0327 -0.3220 -0.4400
  260SOL    HW1  779   2.228   0.226   1.620  1.4141 -2.2717 -2.8913
  260SOL    HW2  780   2.366   0.170   1.562 -2.7760  1.2577  0.3205
  261SOL     OW  781   0.718   0.583   2.296 -0.4295 -0.2742  0.2933
  261SOL    HW1  782   0.639   0.634   2.253  2.0516  3.5915 -1.0916
  261SOL    HW2  783   0.799   0.607   2.242 -2.3908 -0.2989  3.1087
  262SOL     OW  784   0.513   2.306   2.485 -0.0838  0.2107  0.2530
  262SOL    HW1  785   0.437   2.287   2.424  0.4989 -1.3776 -0.3092
  262SOL    HW2  786   0.577   2.382   2.461  2.3048 -3.2422  0.0909
  263SOL     OW  787   0.224   1.701   2.592  0.9562  0.0538 -0.0919
  263SOL    HW1  788   0.155   1.778   2.613 -0.0372  1.8533  0.5159
  263SOL    HW2  789   0.185   1.648   2.511  1.3478 -2.0378 -2.5138
  264SOL     OW  790   1.381   1.239   0.730  0.1471 -0.4563 -0.4246
  264SOL    HW1  791   1.381   1.188   0.642  0.1115  2.2746 -0.1309
  264SOL    HW2  792   1.308   1.314   0.736 -1.2384  1.2402 -2.0768
  265SOL     OW  793   1.581   2.789   0.567  0.1830  0.0325 -0.3859
  265SOL    HW1  794   1.513   2.720   0.596  2.3096 -0.2441  0.0968
  265SOL    HW2  795   1.649   2.800   0.636 -0.7129 -0.8331 -4.5932
  266SOL     OW  796   1.537   0.852   1.336  0.1239 -0.2624 -0.0482
  266SOL    HW1  797   1.460   0.896   1.287 -0.4615  0.6713 -2.3061
  266SOL    HW2  798   1.627   0.887   1.310 -1.9800 -0.0161 -0.9608
  267SOL     OW  799   2.399   1.223   2.622  0.3869 -0.0376 -0.5958
  267SOL    HW1  800   2.458   1.203   2.543 -0.4165  0.0806  1.7457
  267SOL    HW2  801   2.315   1.279   2.601  2.8573 -2.1824  1.8816
  268SOL     OW  802   1.275   0.249   0.019 -0.3971  0.2051 -0.0946
  268SOL    HW1  803   1.331   0.283   0.100  0.9021 -0.4517  1.0964
  268SOL    HW2  804   1.207   0.322   3.079 -1.2496  1.0037  0.3229
  269SOL     OW  805   2.893   0.764   2.672 -0.0207  0.2055 -0.7099
  269SOL    HW1  806   2.930   0.734   2.580 -0.6274  0.1959 -2.8210
  269SOL    HW2  807   2.963   0.751   2.746  1.0376 -0.6151 -0.2290
  270SOL     OW  808   0.196   1.310   0.011 -0.0299 -0.3424  0.2773
  270SOL    HW1  809   0.119   1.310   0.076 -1.6180  0.4705 -0.3880
  270SOL    HW2  810   0.216   1.401   3.060 -2.5230 -0.5102  0.4383
  271SOL     OW  811   2.433   0.935   3.021 -0.1175  0.4644 -0.7055
  271SOL    HW1  812   2.405   0.957   2.929  1.2926  0.4434  2.2343
  271SOL    HW2  813   2.507   0.867   3.018 -1.1298  4.5774 -1.2046
  272SOL     OW  814   2.934   2.407   2.302  0.4220  0.1136  0.3702
  272SOL    HW1  815   2.947   2.495   2.252 -0.5014  1.2247 -0.3038
  272SOL    HW2  816   2.969   2.411   2.396  0.5427 -0.2062  0.0219
  273SOL     OW  817   0.103   0.132   0.205 -0.3110  0.0041 -0.5290
  273SOL    HW1  818   0.049   0.215   0.229  0.1707  1.2087  1.5026
  273SOL    HW2  819   0.190   0.122   0.254  1.4707 -1.8552  0.7959
  274SOL     OW  820   0.904   2.079   0.856 -0.1413  0.6888  0.0464
  274SOL    HW1  821   0.837   2.001   0.856  0.6517 -1.3016 -1.1389
  274SOL    HW2  822   1.005   2.056   0.856 -1.7516  0.5950 -0.1830
  275SOL     OW  823   2.211   0.765   0.620  0.8212  0.3664  0.3717
  275SOL    HW1  824   2.164   0.783   0.528 -3.0034 -0.5557 -1.9398
  275SOL    HW2  825   2.303   0.796   0.623 -3.3645 -2.0504 -0.2068
  276SOL     OW  826   2.479   1.330   1.372  0.3832  0.0728 -0.2808
  276SOL    HW1  827   2.431   1.244   1.349  1.0842 -0.2455  1.1567
  276SOL    HW2  828   2.417   1.389   1.428  0.4435  1.6769  0.9284
  277SOL     OW  829   2.596   0.038   0.782 -0.1542  0.2257 -0.1416
  277SOL    HW1  830   2.564   3.047   0.839  1.9547  4.2809 -1.6002
  277SOL    HW2  831   2.648   0.110   0.831  0.9266  1.1512 -0.2477
  278SOL     OW  832   1.581   2.952   2.212 -0.2053  0.4928 -0.5058
  278SOL    HW1  833   1.550   2.861   2.183 -0.8060  1.2841 -0.5320
  278SOL    HW2  834   1.606   2.958   2.313  3.3382  1.9265 -0.4834
  279SOL     OW  835   1.488   2.542   1.103 -0.0769 -0.5008 -0.3229
  279SOL    HW1  836   1.554   2.618   1.082  1.1318 -2.6051  0.7226
  279SOL    HW2  837   1.530   2.452   1.080 -0.6503  0.9633  0.7648
  280SOL     OW  838   0.613   0.991   0.791  0.1081  0.0374  0.6843
  280SOL    HW1  839   0.532   1.045   0.770 -0.9362 -0.5181 -3.5280
  280SOL    HW2  840   0.682   1.055   0.831  0.0428 -0.5678 -1.3176
  281SOL     OW  841   2.414   1.347   2.864  0.6126 -0.7066  0.3128
  281SOL    HW1  842   2.415   1.305   2.771 -0.3101 -0.8812 -1.9088
  281SOL    HW2  843   2.461   1.436   2.869  0.1625 -0.7672  1.2451
  282SOL     OW  844   0.363   1.285   0.223 -0.3503 -0.1916  0.3602
  282SOL    HW1  845   0.298   1.290   0.141 -1.8590  1.0378 -2.3860
  282SOL    HW2  846   0.449   1.232   0.207  4.0198 -0.7671 -1.4307
  283SOL     OW  847   1.836   2.789   2.815  0.3615  0.2748  0.4008
  283SOL    HW1  848   1.898   2.850   2.764 -2.8677 -0.8887  2.3003
  283SOL    HW2  849   1.848   2.692   2.784 -0.0815 -1.3071 -2.5607
  284SOL     OW  850   1.013   0.212   0.385 -0.1907  0.7866  0.2285
  284SOL    HW1  851   1.041   0.134   0.323  1.1823 -0.9860 -0.3272
  284SOL    HW2  852   1.089   0.233   0.449 -1.0100  0.7237 -0.4889
  285SOL     OW  853   2.175   1.357   2.531  0.7917  0.3266 -0.6072
  285SOL    HW1  854   2.148   1.340   2.433 -1.3212 -1.2342  0.0205
  285SOL    HW2  855   2.093   1.367   2.589  1.9699 -1.2425 -2.1322
  286SOL     OW  856   1.741   2.505   0.900 -0.0575 -0.0812  0.0832
  286SOL    HW1  857   1.778   2.442   0.968  0.3387  0.8673 -2.3616
  286SOL    HW2  858   1.752   2.467   0.807  0.2166 -0.7256  0.0278
  287SOL     OW  859   1.484   0.793   1.005 -0.5613  0.1527 -0.2106
  287SOL    HW1  860   1.515   0.882   1.038  1.8836  0.4657  0.9747
  287SOL    HW2  861   1.415   0.801   0.938  3.1957 -1.2458  0.7985
  288SOL     OW  862   0.714   2.653   2.641  0.0692  0.1622 -0.2229
  288SOL    HW1  863   0.629   2.601   2.656  2.1271  1.9613  2.1150
  288SOL    HW2  864   0.692   2.748   2.614  1.3327 -3.7903 -0.2310
  289SOL     OW  865   0.118   1.459   0.970 -0.0273 -0.1089 -0.1777
  289SOL    HW1  866   0.143   1.385   1.038 -0.6700  2.2354  0.3743
  289SOL    HW2  867   0.019   1.477   0.980  0.8824 -0.6440 -0.7040
  290SOL     OW  868   1.360   2.375   0.780  0.3173  0.2138  0.2307
  290SOL    HW1  869   1.287   2.448   0.814 -1.7692  4.6697 -0.3121
  290SOL    HW2  870   1.318   2.317   0.705 -2.2072  2.8177  0.4355
  291SOL     OW  871   1.404   0.113   0.259 -0.1660  0.0417 -0.6975
  291SOL    HW1  872   1.448   0.069   0.334  0.1184 -1.1464  2.0606
  291SOL    HW2  873   1.404   0.217   0.269 -1.4295  0.8356  0.7684
  292SOL     OW  874   0.478   0.437   2.223 -0.1920 -0.0414  0.3634
  292SOL    HW1  875   0.454   0.339   2.242  0.8032  2.2657 -0.3234
  292SOL    HW2  876   0.397   0.501   2.218 -3.1750 -0.0225  2.0982
  293SOL     OW  877   2.750   1.700   0.974  0.4343 -0.3251 -0.0334
  293SOL    HW1  878   2.665   1.708   0.913  2.1292 -0.3311  0.1992
  293SOL    HW2  879   2.725   1.753   1.057  1.1475 -1.3240  0.0111
  294SOL     OW  880   0.902   0.128   2.177 -0.5981  0.0048 -0.1160
  294SOL    HW1  881   0.812   0.098   2.221 -1.1457 -2.6586 -1.7733
  294SOL    HW2  882   0.940   0.050   2.119  1.7429  0.2606  1.4364
  295SOL     OW  883   1.236   1.783   0.856 -0.0262 -0.2248  0.9068
  295SOL    HW1  884   1.287   1.762   0.937 -0.3732  1.5543 -2.1644
  295SOL    HW2  885   1.134   1.792   0.877 -2.1548  0.6694 -1.8887
  296SOL     OW  886   2.477   1.748   0.286  0.2905  0.5175  1.0487
  296SOL    HW1  887   2.389   1.748   0.235  0.5690 -1.1348  1.5637
  296SOL    HW2  888   2.508   1.651   0.296 -0.4258  1.0295 -0.0289
  297SOL     OW  889   2.607   0.114   0.066  0.2797  0.3863  0.0076
  297SOL    HW1  890   2.683   0.111   0.128  0.1188  0.0572 -2.2748
  297SOL    HW2  891   2.618   0.043   3.076 -0.2451  0.2948  1.2995
  298SOL     OW  892   1.008   0.314   2.771  0.1536  0.3356 -0.4403
  298SOL    HW1  893   0.976   0.275   2.687  0.5684  0.2861  2.3251
  298SOL    HW2  894   0.991   0.415   2.774  0.1179  1.0887  1.3772
  299SOL     OW  895   0.671   2.506   2.375  0.4022  0.2218 -0.1378
  299SOL    HW1  896   0.592   2.538   2.324  1.1795  0.8302  1.6345
  299SOL    HW2  897   0.729   2.582   2.404  1.1114 -2.2168 -0.3711
  300SOL     OW  898   2.828   0.049   2.324 -0.2280  0.1400  0.5893
  300SOL    HW1  899   2.725   0.041   2.339  1.1046  2.8312 -0.6122
  300SOL    HW2  900   2.849   0.121   2.251  0.7259  0.4028  1.2027
  301SOL     OW  901   1.488   0.193   1.730 -0.7745 -0.5532  0.0727
  301SOL    HW1  902   1.449   0.265   1.671  0.8681  0.8303 -0.8916
  301SOL    HW2  903   1.578   0.164   1.686 -0.5765  0.1576 -1.5156
  302SOL     OW  904   0.158   2.385   0.142  0.2074  0.7108  0.5847
  302SOL    HW1  905   0.168   2.473   0.191 -0.8270 -3.0465 -1.9404
  302SOL    HW2  906   0.214   2.395   0.058  1.6995  0.9206  0.7200
  303SOL     OW  907   2.092   2.176   1.434 -0.3133 -0.5048  0.4968
  303SOL    HW1  908   2.020   2.176   1.509 -1.7143 -2.2064 -3.0718
  303SOL    HW2  909   2.136   2.270   1.427 -0.1423 -1.7799 -0.1984
  304SOL     OW  910   2.780   0.879   1.382  0.4034 -0.1240 -0.1468
  304SOL    HW1  911   2.764   0.838   1.290  0.4163 -0.5358  1.5616
  304SOL    HW2  912   2.826   0.810   1.446 -1.0205 -1.7398 -1.2058
  305SOL     OW  913   0.550   1.421   0.808  0.2404  0.2230  0.0236
  305SOL    HW1  914   0.638   1.377   0.832 -2.5297  0.6417 -1.5240
  305SOL    HW2  915   0.572   1.510   0.758 -1.7413 -1.2010 -1.0961
  306SOL     OW  916   0.468   1.409   2.561 -0.0007  0.9405  0.1383
  306SOL    HW1  917   0.384   1.423   2.620 -1.9606 -0.6126  0.0300
  306SOL    HW2  918   0.493   1.309   2.564 -0.4500  2.0844 -1.4547
  307SOL     OW  919   1.049   3.014   1.428  0.1325 -0.4042  0.0288
  307SOL    HW1  920   1.109   3.055   1.500  2.1393 -1.6593  1.3072
  307SOL    HW2  921   1.073   2.923   1.392  0.6903  0.9358  1.4484
  308SOL     OW  922   0.130   0.767   1.086  0.6379 -0.0235  0.2545
  308SOL    HW1  923   0.061   0.830   1.034 -1.7494 -0.9027 -1.0559
  308SOL    HW2  924   0.180   0.707   1.018 -0.4596 -2.8303 -0.1144
  309SOL     OW  925   2.392   1.106   0.994 -0.0679  0.4097  0.1720
  309SOL    HW1  926   2.313   1.166   0.970  1.6036  1.0859  2.6214
  309SOL    HW2  927   2.486   1.132   0.964  2.3042  0.1144  0.4908
  310SOL     OW  928   0.365   1.916   2.582 -0.1371 -0.4048 -0.0749
  310SOL    HW1  929   0.328   1.825   2.604  1.3918  0.4203  1.6744
  310SOL    HW2  930   0.294   1.977   2.540 -0.5184  0.4048  0.6366
  311SOL     OW  931   2.642   2.528   2.465  0.2105  0.9072 -0.0272
  311SOL    HW1  932   2.636   2.574   2.376 -1.4963 -2.3303 -0.1360
  311SOL    HW2  933   2.690   2.583   2.538 -0.3578  0.2351  1.4053
  312SOL     OW  934   2.218   1.942   2.942 -0.0628 -0.1469 -0.2301
  312SOL    HW1  935   2.288   1.875   2.979  1.9920 -4.0247  2.0346
  312SOL    HW2  936   2.261   2.008   2.875  0.2607 -0.4352 -3.5440
  313SOL     OW  937   0.249   0.045   0.449  0.0270  0.2760 -0.3450
  313SOL    HW1  938   0.342   0.087   0.461  0.0162 -0.0601 -2.4475
  313SOL    HW2  939   0.198   0.081   0.530  0.1963 -0.7951 -0.0949
  314SOL     OW  940   1.986   1.130   2.727 -0.0473 -0.0227 -0.3396
  314SOL    HW1  941   1.925   1.118   2.806  2.1030 -0.5242 -0.7377
  314SOL    HW2  942   2.003   1.228   2.711  1.8247 -2.5742  2.2258
  315SOL     OW  943   1.571   0.125   2.516  0.1263 -0.0869  0.8131
  315SOL    HW1  944   1.527   0.199   2.573 -3.0355 -1.3791 -0.7430
  315SOL    HW2  945   1.620   0.171   2.438  0.7912  0.8642  0.2182
  316SOL     OW  946   3.029   1.177   0.724  0.3330 -0.0660 -0.4454
  316SOL    HW1  947   2.978   1.089   0.700 -1.3187 -1.4297 -1.6619
  316SOL    HW2  948   0.027   1.160   0.775 -3.0208  2.7222  0.0079
  317SOL     OW  949   0.401   2.747   2.985  1.4756  0.0987  0.1996
  317SOL    HW1  950   0.303   2.727   3.011  0.9708 -0.5705 -2.8114
  317SOL    HW2  951   0.448   2.815   3.043  1.9961  1.7809 -0.9963
  318SOL     OW  952   2.549   2.557   0.944  0.0258 -0.1095  0.1922
  318SOL    HW1  953   2.532   2.596   0.852 -1.8610  0.4037 -1.3823
  318SOL    HW2  954   2.483   2.607   1.008  0.5751  1.7988  0.0642
  319SOL     OW  955   1.006   1.940   2.915  0.2422  0.2439 -0.4406
  319SOL    HW1  956   1.084   1.954   2.851 -1.2668 -0.7474 -0.6958
  319SOL    HW2  957   0.943   1.861   2.881  1.0924  0.3352 -0.6050
  320SOL     OW  958   0.538   1.810   1.261 -0.0799  0.1772 -0.0357
  320SOL    HW1  959   0.539   1.717   1.212 -0.8085 -4.5881  0.3217
  320SOL    HW2  960   0.481   1.804   1.341  0.0062  1.8330 -0.6750
  321SOL     OW  961   1.127   2.616   1.935  0.1578 -0.2717 -0.5787
  321SOL    HW1  962   1.039   2.609   1.982  1.2755 -0.7783 -0.7828
  321SOL    HW2  963   1.155   2.713   1.925  3.7877 -0.0516 -1.5065
  322SOL     OW  964   2.507   1.708   2.117  0.6327  0.4859 -0.5716
  322SOL    HW1  965   2.503   1.645   2.196  0.5601  2.6211 -0.4578
  322SOL    HW2  966   2.599   1.758   2.127  0.8945 -1.7843  0.4921
  323SOL     OW  967   2.814   0.436   0.721 -0.2212 -0.5207 -0.1202
  323SOL    HW1  968   2.749   0.516   0.703 -1.6823  1.4792 -1.4191
  323SOL    HW2  969   2.894   0.470   0.780  0.8738  2.4807  0.6074
  324SOL     OW  970   2.792   2.725   2.651 -0.3308  0.3456 -0.2104
  324SOL    HW1  971   2.820   2.688   2.739  1.3760  1.0769 -1.9210
  324SOL    HW2  972   2.876   2.737   2.591  3.4499  0.3891 -0.2626
  325SOL     OW  973   0.897   0.189   2.564  0.1548 -0.3588 -0.0346
  325SOL    HW1  974   0.969   0.141   2.510 -0.0050 -2.0779  1.5058
  325SOL    HW2  975   0.821   0.230   2.503 -1.2829 -0.5729 -1.0938
  326SOL     OW  976   2.309   2.525   1.744 -0.2112 -0.1427 -0.0016
  326SOL    HW1  977   2.308   2.608   1.800 -0.6951 -2.7159 -0.8983
  326SOL    HW2  978   2.226   2.515   1.688  0.1901 -0.1747  0.1637
  327SOL     OW  979   1.991   0.193   0.342  0.1236  0.1236  0.6609
  327SOL    HW1  980   2.059   0.268   0.345 -0.8542 -1.3857  0.3665
  327SOL    HW2  981   2.036   0.100   0.328 -0.9171  0.4044 -1.6508
  328SOL     OW  982   0.217   1.282   1.892 -0.4071  0.6309  0.7563
  328SOL    HW1  983   0.287   1.250   1.955 -1.4835  1.7325 -3.4280
  328SOL    HW2  984   0.157   1.348   1.942 -0.2535  0.9073  0.2171
  329SOL     OW  985   2.067   0.591   1.700 -0.2559 -0.1946 -0.3235
  329SOL    HW1  986   1.983   0.569   1.751 -0.3060 -1.1542 -1.0186
  329SOL    HW2  987   2.127   0.647   1.757 -1.4986 -0.8961 -1.6782
  330SOL     OW  988   0.139   1.132   0.909  0.0027 -0.1216 -0.3486
  330SOL    HW1  989   0.078   1.055   0.928  1.0311  0.4651  0.5528
  330SOL    HW2  990   0.149   1.185   0.995  1.6821  2.2499  1.1198
  331SOL     OW  991   0.592   1.435   2.023 -0.1016 -0.3547 -0.4422
  331SOL    HW1  992   0.691   1.422   2.019  2.2182 -0.3949  1.3187
  331SOL    HW2  993   0.570   1.482   2.111 -0.3569 -0.0914 -1.1293
  332SOL     OW  994   0.254   2.638   1.627 -0.1424  0.1071 -0.8622
  332SOL    HW1  995   0.232   2.724   1.584  1.2628 -2.3483  0.1952
  332SOL    HW2  996   0.274   2.561   1.568  0.1145 -1.4393  2.0483
  333SOL     OW  997   2.443   0.195   1.065  0.1624  0.0261  0.1972
  333SOL    HW1  998   2.420   0.197   0.969  0.9899 -0.1899  0.4559
  333SOL    HW2  999   2.400   0.110   1.100  0.0596  2.2380 -4.5431
  334SOL     OW 1000   0.285   1.488   0.766  0.2597 -0.0667  0.2136
  334SOL    HW1 1001   0.379   1.455   0.788  0.9539  3.9527 -0.9078
  334SOL    HW2 1002   0.218   1.469   0.840  0.1145 -0.2534  0.8971
  335SOL     OW 1003   0.103   2.590   2.939 -0.5984 -0.2166  0.2174
  335SOL    HW1 1004   0.107   2.632   2.844  1.9468 -0.4087  1.0927
  335SOL    HW2 1005   0.166   2.513   2.943 -0.4215  4.3484  0.8322
  336SOL     OW 1006   2.902   2.849   2.351 -0.1796  0.3581  0.2471
  336SOL    HW1 1007   2.979   2.858   2.412 -0.7218 -2.1891 -1.2632
  336SOL    HW2 1008   2.885   2.936   2.305  0.6302 -3.1253  1.7601
  337SOL     OW 1009   2.021   2.468   1.655  0.1924  0.0213 -0.5724
  337SOL    HW1 1010   1.988   2.369   1.658  0.3875 -1.0617 -1.6186
  337SOL    HW2 1011   2.001   2.509   1.744  0.3263  2.7089 -3.3767
  338SOL     OW 1012   0.811   3.084   3.027 -0.0057 -0.5657 -0.0844
  338SOL    HW1 1013   0.715   0.013   3.056 -1.9031 -2.8545  1.4418
  338SOL    HW2 1014   0.879   0.070   3.062  2.3433  0.9766  0.8542
  339SOL     OW 1015   0.430   1.231   2.061 -0.3706  0.1061 -0.5072
  339SOL    HW1 1016   0.444   1.208   2.159  2.3559  0.3443  1.7142
  339SOL    HW2 1017   0.511   1.287   2.023 -0.6386 -0.2411 -0.3274
  340SOL     OW 1018   1.695   0.041   0.940 -0.4149 -0.1820  0.0849
  340SOL    HW1 1019   1.775   3.062   0.942 -0.1068 -1.8770 -2.4100
  340SOL    HW2 1020   1.652   0.044   0.850  0.4960 -1.4826  0.5993
  341SOL     OW 1021   1.755   1.163   0.932 -0.3161  0.1940  0.7026
  341SOL    HW1 1022   1.810   1.224   0.996 -1.3537  0.6285  0.9299
  341SOL    HW2 1023   1.732   1.203   0.839  0.6951 -1.3592 -1.7622
  342SOL     OW 1024   2.387   2.829   0.149 -0.6340  0.4269 -0.3028
  342SOL    HW1 1025   2.325   2.862   0.220 -1.8956 -3.3393  0.9071
  342SOL    HW2 1026   2.454   2.760   0.182 -0.6687  0.0417 -3.4777
  343SOL     OW 1027   0.873   2.152   1.617 -0.5930  0.3125  0.4831
  343SOL    HW1 1028   0.858   2.185   1.713  1.9029 -0.5803 -1.7462
  343SOL    HW2 1029   0.866   2.223   1.546 -1.7910 -3.2612  0.5274
  344SOL     OW 1030   2.524   2.542   1.382 -0.6936 -0.1492  0.5637
  344SOL    HW1 1031   2.523   2.629   1.435 -1.6247 -2.1164 -0.7856
  344SOL    HW2 1032   2.492   2.462   1.440 -2.3137 -2.4223 -0.9021
  345SOL     OW 1033   2.606   1.900   3.084 -0.1013  0.4847  0.1095
  345SOL    HW1 1034   2.645   1.933   2.996  3.5667 -2.7548 -0.3675
  345SOL    HW2 1035   2.655   1.816   0.033  0.6021 -1.4409  3.4986
  346SOL     OW 1036   2.254   1.990   0.780 -0.0044 -0.0991 -0.2339
  346SOL    HW1 1037   2.323   1.960   0.709  0.0508  1.3266 -0.4165
  346SOL    HW2 1038   2.205   2.070   0.748 -0.8392 -0.1501 -1.2350
  347SOL     OW 1039   1.740   1.910   0.907  0.3843  0.6671  0.1879
  347SOL    HW1 1040   1.780   1.863   0.828  3.3521  1.0773 -1.8124
  347SOL    HW2 1041   1.704   2.004   0.889  0.8352  0.8549 -0.6246
  348SOL     OW 1042   0.488   1.726   2.287  0.5205  0.2270 -0.0169
  348SOL    HW1 1043   0.466   1.631   2.323 -1.1843 -0.0614 -0.2398
  348SOL    HW2 1044   0.589   1.729   2.264  1.4157 -1.0521  0.9763
  349SOL     OW 1045   2.082   1.537   0.639  0.1612 -0.0037  0.3444
  349SOL    HW1 1046   2.102   1.619   0.692  1.3116 -2.4151 -1.3055
  349SOL    HW2 1047   2.049   1.452   0.688 -2.4179  1.0043 -1.3332
  350SOL     OW 1048   2.802   2.581   0.714 -0.3484 -0.0067  1.1090
  350SOL    HW1 1049   2.779   2.509   0.783 -0.3766  0.9407 -1.7602
  350SOL    HW2 1050   2.807   2.543   0.617  0.9429  1.0906 -3.6309
  351SOL     OW 1051   0.443   2.904   1.487 -0.1000 -0.6331 -0.3453
  351SOL    HW1 1052   0.506   2.868   1.421  0.1589  2.1622  1.3566
  351SOL    HW2 1053   0.343   2.890   1.456 -0.3688 -0.0255 -0.9198
  352SOL     OW 1054   0.516   1.323   1.222  0.0707  0.9465  0.1745
  352SOL    HW1 1055   0.427   1.321   1.269  1.5590 -1.1906  0.6072
  352SOL    HW2 1056   0.579   1.265   1.272 -1.1130 -0.7523  2.2774
  353SOL     OW 1057   1.178   1.393   2.773  0.0461 -0.0076  0.6106
  353SOL    HW1 1058   1.085   1.360   2.751  0.7836  0.3119  2.7533
  353SOL    HW2 1059   1.251   1.333   2.738 -0.4892 -1.4669 -1.6086
  354SOL     OW 1060   1.612   2.778   1.667 -0.1451 -0.3320  0.3445
  354SOL    HW1 1061   1.512   2.802   1.654 -0.4657 -1.7030 -2.8529
  354SOL    HW2 1062   1.653   2.765   1.572 -0.4141  0.7234  0.7598
  355SOL     OW 1063   2.391   1.171   0.574  0.0438  0.5679 -0.3785
  355SOL    HW1 1064   2.423   1.250   0.626 -0.6340 -0.6276 -4.1432
  355SOL    HW2 1065   2.361   1.196   0.482 -0.0416 -1.2336 -0.3697
  356SOL     OW 1066   2.854   1.705   1.604  0.2082 -0.0161  0.3670
  356SOL    HW1 1067   2.770   1.757   1.610  1.0407 -2.0783 -0.8960
  356SOL    HW2 1068   2.926   1.773   1.584 -2.4804  3.4994  2.1222
  357SOL     OW 1069   0.455   2.651   1.277  0.1676  0.1327 -0.1152
  357SOL    HW1 1070   0.394   2.600   1.342 -1.2984 -1.0952 -0.4069
  357SOL    HW2 1071   0.411   2.649   1.185  1.5564 -0.8358 -1.3005
  358SOL     OW 1072   2.691   1.431   1.835 -0.3089 -0.1236 -0.0613
  358SOL    HW1 1073   2.732   1.411   1.740  1.1866 -2.7489 -0.7217
  358SOL    HW2 1074   2.602   1.482   1.822  1.1242  0.0734 -2.0336
  359SOL     OW 1075   2.214   2.760   2.691  0.4306  0.0581  0.5536
  359SOL    HW1 1076   2.211   2.726   2.591  0.5359 -0.8280 -1.1376
  359SOL    HW2 1077   2.149   2.839   2.700 -2.6940  2.4504  0.5981
  360SOL     OW 1078   0.655   0.398   0.763 -0.0469 -0.6464  0.0348
  360SOL    HW1 1079   0.672   0.486   0.809  0.1749  0.8685 -1.6297
  360SOL    HW2 1080   0.569   0.405   0.708 -0.2421  0.2502  2.5895
  361SOL     OW 1081   1.923   0.320   0.774 -0.7545 -0.0053 -0.1794
  361SOL    HW1 1082   1.942   0.224   0.746 -1.0527  1.2014  0.7383
  361SOL    HW2 1083   2.007   0.360   0.818 -0.5855  1.1023 -1.2745
  362SOL     OW 1084   1.867   1.319   1.134  0.1207 -0.9020  0.2747
  362SOL    HW1 1085   1.881   1.416   1.106 -0.5358 -0.0701 -0.4329
  362SOL    HW2 1086   1.949   1.288   1.186 -2.3866 -1.3543 -1.3871
  363SOL     OW 1087   2.223   1.451   2.119  0.0899 -0.0912 -0.2900
  363SOL    HW1 1088   2.314   1.483   2.153  1.6324  2.5813 -1.6902
  363SOL    HW2 1089   2.193   1.484   2.028 -1.1427 -1.5321  0.3519
  364SOL     OW 1090   0.394   3.064   1.165  0.0467 -0.1591 -0.1879
  364SOL    HW1 1091   0.360   0.056   1.226  1.4707  2.6235  1.4903
  364SOL    HW2 1092   0.329   3.051   1.089 -0.5029  1.7492  1.8228
  365SOL     OW 1093   0.568   0.083   2.832 -0.4305  0.2697 -0.0998
  365SOL    HW1 1094   0.509   0.100   2.915 -1.1370 -0.0365  0.7649
  365SOL    HW2 1095   0.665   0.053   2.854 -0.2373  4.1285 -1.6428
  366SOL     OW 1096   2.049   2.377   2.984  0.3629 -0.2965  0.7417
  366SOL    HW1 1097   2.041   2.444   2.910 -0.2332 -2.6544  0.3703
  366SOL    HW2 1098   2.088   2.417   3.070  1.5041 -1.2694  1.2928
  367SOL     OW 1099   2.753   2.400   3.022  0.5937  0.3856  0.1071
  367SOL    HW1 1100   2.697   2.482   3.051  0.5585 -0.9650  1.3788
  367SOL    HW2 1101   2.807   2.365   0.017 -0.7548 -0.2672  0.9331
  368SOL     OW 1102   0.142   1.237   1.154 -0.5533 -0.6179  0.2418
  368SOL    HW1 1103   0.065   1.285   1.200 -4.3872  0.9905 -2.2859
  368SOL    HW2 1104   0.209   1.197   1.224 -0.6779  1.0837  0.0257
  369SOL     OW 1105   0.862   2.908   0.165  0.3824 -0.9832 -0.1296
  369SOL    HW1 1106   0.950   2.876   0.139  0.9680 -0.3071  1.0270
  369SOL    HW2 1107   0.820   2.970   0.095  0.3534  1.3721 -1.5380
  370SOL     OW 1108   2.744   0.681   0.351  0.2479 -0.1153  0.0070
  370SOL    HW1 1109   2.840   0.670   0.375 -1.9807  0.4303  3.1364
  370SOL    HW2 1110   2.721   0.779   0.340  0.1453  2.3882  2.0640
  371SOL     OW 1111   1.814   2.425   0.641 -0.0518 -0.3488  0.1255
  371SOL    HW1 1112   1.780   2.342   0.694 -1.0040 -2.0378  2.4373
  371SOL    HW2 1113   1.774   2.430   0.549  0.7162 -0.0461  1.7694
  372SOL     OW 1114   3.083   1.014   2.854 -0.2723 -0.4274  0.6548
  372SOL    HW1 1115   0.008   0.915   2.866 -0.3724  1.6705  0.9958
  372SOL    HW2 1116   3.081   1.038   2.751 -1.9453  1.4396 -0.4253
  373SOL     OW 1117   2.826   1.568   1.330  0.1000 -0.2437 -0.2089
  373SOL    HW1 1118   2.830   1.559   1.429 -1.7944  0.0696 -0.9667
  373SOL    HW2 1119   2.846   1.661   1.297 -2.5215 -1.6087 -2.0736
  374SOL     OW 1120   0.615   2.767   0.242 -0.1136 -0.3927  0.0057
  374SOL    HW1 1121   0.543   2.827   0.200  1.3099  0.5405  0.5126
  374SOL    HW2 1122   0.700   2.824   0.255 -2.8541  1.0933  2.0935
  375SOL     OW 1123   0.356   0.141   3.022 -0.0010  0.5165 -0.6876
  375SOL    HW1 1124   0.334   0.238   3.039  0.0560 -3.7803 -0.1459
  375SOL    HW2 1125   0.283   0.074   3.047  1.7759 -0.0118  0.5534
  376SOL     OW 1126   0.143   2.212   1.620 -0.2048  0.1783 -0.0338
  376SOL    HW1 1127   0.043   2.199   1.608  0.8800 -1.7124  1.2475
  376SOL    HW2 1128   0.185   2.212   1.528  1.3267 -0.7260  1.6019
  377SOL     OW 1129   1.665   2.454   2.712  0.4001 -0.4012  0.0576
  377SOL    HW1 1130   1.679   2.396   2.796 -0.7948 -0.3820  0.6092
  377SOL    HW2 1131   1.611   2.399   2.641 -2.2628 -3.0919 -0.7568
  378SOL     OW 1132   0.641   0.468   0.060  0.1976  0.0165  0.1191
  378SOL    HW1 1133   0.645   0.446   3.045  1.3664  2.1134 -0.3635
  378SOL    HW2 1134   0.693   0.553   0.069 -3.9565 -2.2348 -0.6902
  379SOL     OW 1135   0.612   1.039   0.439  0.0919  0.4407  0.0636
  379SOL    HW1 1136   0.678   0.985   0.493  0.6107  4.9142 -0.3753
  379SOL    HW2 1137   0.622   1.138   0.477  0.6115  1.1839 -1.9981
  380SOL     OW 1138   0.062   1.813   1.802 -0.2673  0.0149  0.1037
  380SOL    HW1 1139   0.104   1.721   1.801  1.0442 -0.3613 -0.0857
  380SOL    HW2 1140   0.103   1.873   1.870  0.7392 -1.8050  1.4235
  381SOL     OW 1141   0.389   1.003   1.911  0.2611 -0.4014  0.3401
  381SOL    HW1 1142   0.370   1.090   1.967  1.2449 -0.9177  0.9147
  381SOL    HW2 1143   0.480   0.959   1.927  0.6228 -0.7620  1.2658
  382SOL     OW 1144   2.391   2.051   0.300 -0.3862  0.0917 -0.3252
  382SOL    HW1 1145   2.472   2.011   0.354  4.7431  0.2039  1.8455
  382SOL    HW2 1146   2.426   2.090   0.212  1.3100 -1.0944  1.3034
  383SOL     OW 1147   2.743   1.974   2.859 -0.3276  0.2378  0.8636
  383SOL    HW1 1148   2.840   1.946   2.866 -1.8781  1.9054 -1.2693
  383SOL    HW2 1149   2.733   2.068   2.823 -0.2306 -0.0255  0.3036
  384SOL     OW 1150   0.324   2.351   2.705 -0.3329 -0.0493  0.6818
  384SOL    HW1 1151   0.232   2.336   2.670 -1.7660  1.1028  0.8137
  384SOL    HW2 1152   0.391   2.273   2.674  2.2225 -0.0206 -1.7389
  385SOL     OW 1153   2.926   1.481   1.008  0.4348 -0.7107 -0.1228
  385SOL    HW1 1154   2.868   1.562   1.000  3.6896 -0.2481  0.0136
  385SOL    HW2 1155   2.898   1.404   0.944  0.1802  1.7763 -2.4449
  386SOL     OW 1156   2.060   1.515   1.340 -0.0895 -0.1103  0.3794
  386SOL    HW1 1157   2.017   1.545   1.428  0.2333 -0.6134 -0.0628
  386SOL    HW2 1158   2.142   1.571   1.320  2.6592  1.9236  0.7072
  387SOL     OW 1159   2.736   1.192   1.962  0.2183 -0.1361  0.3006
  387SOL    HW1 1160   2.670   1.116   1.944  0.6036 -2.0497  1.1978
  387SOL    HW2 1161   2.716   1.280   1.908  0.0096  2.6347 -2.0719
  388SOL     OW 1162   2.718   1.310   2.211 -0.4791 -0.2803  0.3046
  388SOL    HW1 1163   2.734   1.235   2.279 -0.6405  2.3476 -1.1281
  388SOL    HW2 1164   2.740   1.274   2.116  1.8347  1.6003 -1.0012
  389SOL     OW 1165   2.081   1.257   1.896  0.4523 -0.4713  0.1630
  389SOL    HW1 1166   2.013   1.246   1.969  0.9375  0.4792 -1.1508
  389SOL    HW2 1167   2.171   1.219   1.931 -1.0309 -0.2081  0.4647
  390SOL     OW 1168   1.866   2.731   0.500 -0.2554 -0.0081  0.3039
  390SOL    HW1 1169   1.944   2.791   0.480 -1.5645  2.7924 -0.5892
  390SOL    HW2 1170   1.845   2.731   0.603  0.4815 -2.6469 -1.0766
  391SOL     OW 1171   2.462   1.918   1.027  0.0495  0.1354 -0.3444
  391SOL    HW1 1172   2.380   1.926   1.086  0.4508 -1.0509  1.0324
  391SOL    HW2 1173   2.471   1.987   0.958  1.4221 -1.2205  1.9445
  392SOL     OW 1174   3.016   2.663   1.099 -0.5881 -0.1406  0.0779
  392SOL    HW1 1175   3.022   2.688   1.003 -0.5359  1.0157 -0.3391
  392SOL    HW2 1176   3.046   2.742   1.155 -2.1210 -0.4532  1.4111
  393SOL     OW 1177   1.798   2.077   2.752 -0.1219  0.4264 -0.0881
  393SOL    HW1 1178   1.895   2.082   2.788  3.7557 -1.7050  0.3562
  393SOL    HW2 1179   1.766   1.979   2.746 -1.7169  0.2460  1.6433
  394SOL     OW 1180   0.204   0.250   2.455  0.4787 -0.2219  0.3435
  394SOL    HW1 1181   0.150   0.170   2.429  0.1492  2.1090  0.2138
  394SOL    HW2 1182   0.238   0.236   2.550  0.2488  4.2143 -2.0099
  395SOL     OW 1183   0.727   0.617   0.920 -0.0222 -0.2128 -0.3221
  395SOL    HW1 1184   0.819   0.579   0.916 -1.8847  0.9053 -0.0034
  395SOL    HW2 1185   0.718   0.661   1.014 -1.1463 -1.8092  4.8430
  396SOL     OW 1186   1.200   1.021   0.345 -0.1854  0.1837 -0.2678
  396SOL    HW1 1187   1.132   1.009   0.423  1.5413 -1.7519  0.5458
  396SOL    HW2 1188   1.177   0.954   0.271 -0.7915  1.5082  0.0190
  397SOL     OW 1189   0.157   0.914   2.027  0.2893  0.2488  0.2529
  397SOL    HW1 1190   0.234   0.948   1.971  1.9735  1.5862  1.3621
  397SOL    HW2 1191   0.085   0.871   1.970 -0.1978  0.0201  0.7150
  398SOL     OW 1192   0.894   0.396   0.603 -0.2509 -0.0991 -0.5249
  398SOL    HW1 1193   0.805   0.361   0.648  0.0144 -1.6433  1.2446
  398SOL    HW2 1194   0.927   0.331   0.532  0.4532 -0.5648 -0.5234
  399SOL     OW 1195   1.936   2.852   1.582  0.0449 -0.0066 -0.0090
  399SOL    HW1 1196   1.898   2.831   1.673 -1.3263 -0.6713  0.9289
  399SOL    HW2 1197   1.889   2.927   1.530  1.4710 -0.6066 -2.4658
  400SOL     OW 1198   1.061   1.634   2.137 -0.5773  0.2301 -0.3874
  400SOL    HW1 1199   1.060   1.723   2.097  3.0604 -1.2492  4.3150
  400SOL    HW2 1200   1.150   1.613   2.179 -0.9868  0.7362  0.6932
  401SOL     OW 1201   0.594   0.804   2.695 -1.0407  0.0410  0.2070
  401SOL    HW1 1202   0.587   0.718   2.648 -0.4583  1.6896  1.7859
  401SOL    HW2 1203   0.502   0.854   2.686  1.0725  0.8138 -1.3088
  402SOL     OW 1204   2.824   1.990   1.281  0.2691 -0.3580  0.0781
  402SOL    HW1 1205   2.817   2.025   1.371  1.7785 -2.7179 -1.3433
  402SOL    HW2 1206   2.772   1.904   1.264 -0.1066  0.9423  2.2312
  403SOL     OW 1207   3.058   0.791   1.869 -0.3527 -0.1326 -0.3965
  403SOL    HW1 1208   0.019   0.748   1.789  0.3082  0.3367  0.7187
  403SOL    HW2 1209   3.007   0.875   1.841 -0.6947  0.0291  0.6367
  404SOL     OW 1210   0.015   2.578   1.756 -0.4598 -0.4813 -0.0406
  404SOL    HW1 1211   0.108   2.601   1.714  1.6674  0.1584  0.4058
  404SOL    HW2 1212   3.026   2.608   1.697 -0.1209  1.2282  0.8824
  405SOL     OW 1213   0.629   0.400   1.966 -0.4119  0.0778  0.3656
  405SOL    HW1 1214   0.727   0.369   1.971  2.3659  0.5729  1.3927
  405SOL    HW2 1215   0.585   0.420   2.058 -0.6558  4.4368 -1.5781
  406SOL     OW 1216   1.694   2.074   2.273  0.3226 -0.1631  0.9674
  406SOL    HW1 1217   1.766   2.144   2.255  2.2510  0.2233 -0.7089
  406SOL    HW2 1218   1.707   1.986   2.218  1.7363 -1.6412  0.3291
  407SOL     OW 1219   1.256   1.602   2.525 -0.1247 -0.1259  0.0228
  407SOL    HW1 1220   1.269   1.581   2.422 -0.1606  1.1446 -1.5834
  407SOL    HW2 1221   1.214   1.520   2.572  1.8706  0.0185 -0.1036
  408SOL     OW 1222   1.038   0.044   2.387 -0.4414 -0.2307 -0.3048
  408SOL    HW1 1223   1.008   0.090   2.302 -1.6195  2.1393 -1.8770
  408SOL    HW2 1224   1.073   3.036   2.372  3.1938  1.9122  0.0586
  409SOL     OW 1225   0.475   2.093   0.228 -0.2964 -0.4379 -0.3208
  409SOL    HW1 1226   0.485   2.043   0.144  1.4276  2.1381  1.5344
  409SOL    HW2 1227   0.554   2.082   0.295 -0.4339 -1.7077  3.2089
  410SOL     OW 1228   2.753   1.239   0.367  0.7829  0.1902 -0.2143
  410SOL    HW1 1229   2.817   1.311   0.404 -0.0352  0.3060  1.5191
  410SOL    HW2 1230   2.741   1.238   0.265 -0.8631  0.1348 -1.2969
  411SOL     OW 1231   2.793   0.207   0.888  0.3647 -0.4301 -0.3077
  411SOL    HW1 1232   2.746   0.255   0.964 -0.0634 -1.3294  0.2910
  411SOL    HW2 1233   2.837   0.274   0.829  1.7669  0.1495 -0.5437
  412SOL     OW 1234   1.358   1.015   1.207 -0.0861 -0.3746 -0.0822
  412SOL    HW1 1235   1.389   1.039   1.109 -0.4846 -0.3979  0.0278
  412SOL    HW2 1236   1.388   1.084   1.273 -1.4011  0.5572  0.7675
  413SOL     OW 1237   0.743   2.606   1.335  0.5257 -0.3486 -0.3604
  413SOL    HW1 1238   0.791   2.671   1.272  0.9373  2.9410 -0.9303
  413SOL    HW2 1239   0.643   2.630   1.341 -0.8267  0.8394  1.4303
  414SOL     OW 1240   2.759   1.486   2.702  0.1950 -0.2840 -0.1958
  414SOL    HW1 1241   2.738   1.583   2.695 -0.2392 -2.6221 -0.8925
  414SOL    HW2 1242   2.733   1.453   2.793  1.4349  1.4709  1.6208
  415SOL     OW 1243   0.292   2.409   2.980  0.2604 -0.1348 -0.5525
  415SOL    HW1 1244   0.307   2.386   2.881  1.6323  0.0449  0.1079
  415SOL    HW2 1245   0.377   2.374   3.031  2.0620 -0.7401 -0.9531
  416SOL     OW 1246   1.746   3.015   0.503  0.8407  0.0994 -0.0371
  416SOL    HW1 1247   1.725   3.079   0.429 -0.8636 -1.6905  2.6090
  416SOL    HW2 1248   1.757   2.921   0.468  1.5651 -0.2955 -0.2349
  417SOL     OW 1249   0.298   0.599   0.916 -0.0914 -0.1335  0.4068
  417SOL    HW1 1250   0.360   0.664   0.864  0.8101  1.2579  1.7197
  417SOL    HW2 1251   0.333   0.501   0.924  0.1740 -1.1129 -1.3773
  418SOL     OW 1252   2.447   0.572   1.536  0.8235 -0.4614  0.5497
  418SOL    HW1 1253   2.545   0.581   1.565 -3.5187 -0.2540 -0.8891
  418SOL    HW2 1254   2.403   0.504   1.595 -0.0973  0.2773  1.7310
  419SOL     OW 1255   3.006   0.302   0.297 -0.2043  0.2871  0.4129
  419SOL    HW1 1256   3.040   0.382   0.240 -1.2544 -1.9488  1.4369
  419SOL    HW2 1257   2.922   0.327   0.349 -1.1017  2.1557  1.0397
  420SOL     OW 1258   0.323   1.280   1.407  0.4667  0.5163  0.1871
  420SOL    HW1 1259   0.322   1.312   1.504 -0.8141  1.4897 -0.4611
  420SOL    HW2 1260   0.289   1.183   1.412 -0.8707 -1.1200  1.5832
  421SOL     OW 1261   1.341   2.803   0.811 -0.0241 -0.4858 -0.1550
  421SOL    HW1 1262   1.394   2.751   0.744 -1.8621  0.7872 -1.0094
  421SOL    HW2 1263   1.278   2.865   0.765 -0.1757 -1.8143  1.3070
  422SOL     OW 1264   0.197   0.442   1.338  0.6550  0.0095  0.1719
  422SOL    HW1 1265   0.126   0.483   1.275  2.9765  0.9796 -0.8529
  422SOL    HW2 1266   0.281   0.492   1.326  1.0557  0.9759  0.0779
  423SOL     OW 1267   1.102   0.993   1.284  0.6170 -0.2427 -0.3856
  423SOL    HW1 1268   1.200   0.986   1.267 -2.2107  0.3789  1.0661
  423SOL    HW2 1269   1.044   0.970   1.200 -0.8342 -0.9908 -3.2364
  424SOL     OW 1270   1.980   1.401   2.721  0.5810  0.1126  0.2386
  424SOL    HW1 1271   2.029   1.406   2.813  1.7940 -0.4189  1.4967
  424SOL    HW2 1272   1.920   1.480   2.691  0.3222 -1.8814 -0.3237
  425SOL     OW 1273   0.115   0.503   2.075 -0.2589 -0.9012 -0.0987
  425SOL    HW1 1274   0.179   0.566   2.123 -1.1499 -1.7855 -3.4611
  425SOL    HW2 1275   0.029   0.489   2.129 -0.6056 -0.0867  1.7650
  426SOL     OW 1276   0.152   2.817   0.021  0.3559  0.6088 -0.5026
  426SOL    HW1 1277   0.138   2.751   3.031 -1.3187 -1.8491 -0.0428
  426SOL    HW2 1278   0.166   2.768   0.112 -0.8094 -2.0583 -3.2278
  427SOL     OW 1279   1.130   0.901   2.521 -0.2447  0.3954 -0.1119
  427SOL    HW1 1280   1.224   0.936   2.541  1.5093  1.2039  0.1498
  427SOL    HW2 1281   1.067   0.965   2.470 -0.1400  0.7446 -1.8641
  428SOL     OW 1282   2.530   1.134   1.687 -0.0002 -0.2119  0.2962
  428SOL    HW1 1283   2.525   1.064   1.611  0.3469 -1.5055  0.9115
  428SOL    HW2 1284   2.591   1.210   1.665  1.5964  3.9296  0.9459
  429SOL     OW 1285   2.540   2.643   0.684  0.2377 -0.1726  0.6812
  429SOL    HW1 1286   2.635   2.610   0.686  0.5486 -1.2758 -0.4755
  429SOL    HW2 1287   2.495   2.625   0.594  0.0297 -1.5708 -0.7465
  430SOL     OW 1288   1.007   1.311   2.399 -0.3077 -0.0379  0.0497
  430SOL    HW1 1289   0.988   1.223   2.351 -2.2184 -2.6052  0.7103
  430SOL    HW2 1290   0.965   1.306   2.492  1.6668 -0.4393 -0.0449
  431SOL     OW 1291   2.705   1.410   1.555 -0.4196  0.5552  0.0746
  431SOL    HW1 1292   2.661   1.391   1.466  1.1476  2.2848  1.3445
  431SOL    HW2 1293   2.795   1.364   1.552  0.3373 -1.6910 -0.4049
  432SOL     OW 1294   1.268   2.627   2.298  0.2209  0.2784  0.1266
  432SOL    HW1 1295   1.347   2.646   2.233  0.5314 -0.3877  0.4645
  432SOL    HW2 1296   1.248   2.529   2.298  2.6892 -1.7133 -1.0014
  433SOL     OW 1297   1.981   0.158   2.392  0.2619  0.3765  0.2725
  433SOL    HW1 1298   2.046   0.160   2.308  0.0171 -0.1836 -1.5285
  433SOL    HW2 1299   1.888   0.185   2.359  3.0121  0.8304  1.3672
  434SOL     OW 1300   0.446   2.619   2.238  0.5413  0.1792  0.2313
  434SOL    HW1 1301   0.377   2.569   2.291  3.7544  0.3034  0.4667
  434SOL    HW2 1302   0.415   2.654   2.146 -0.1890  1.1694  1.1605
  435SOL     OW 1303   3.052   2.632   0.382  0.4079  0.0007  0.2750
  435SOL    HW1 1304   3.019   2.716   0.431 -1.3423  1.7773 -1.3967
  435SOL    HW2 1305   2.993   2.619   0.297 -1.2629  0.6152 -2.1526
  436SOL     OW 1306   0.860   0.744   1.898  0.7281  0.4013 -0.5374
  436SOL    HW1 1307   0.773   0.791   1.930  0.9197 -0.8359 -0.9147
  436SOL    HW2 1308   0.844   0.724   1.803 -0.7266  0.5434  3.3669
  437SOL     OW 1309   0.192   2.862   2.388  0.3580  0.6030  0.2829
  437SOL    HW1 1310   0.276   2.836   2.438  1.7325  1.9461 -3.4374
  437SOL    HW2 1311   0.166   2.787   2.324 -2.0860 -0.7887  1.3096
  438SOL     OW 1312   0.616   1.387   1.663  0.1947 -0.1405  0.5312
  438SOL    HW1 1313   0.673   1.418   1.581  1.9328  1.4781 -1.4365
  438SOL    HW2 1314   0.648   1.298   1.703 -1.0325  0.9241 -0.1640
  439SOL     OW 1315   2.138   1.088   2.160  0.3158  0.4809 -0.1519
  439SOL    HW1 1316   2.094   1.169   2.205 -0.3980  0.1828 -1.2033
  439SOL    HW2 1317   2.237   1.097   2.156 -2.9203  2.1593 -0.2966
  440SOL     OW 1318   0.207   0.911   0.195  0.4607 -0.0150 -0.1674
  440SOL    HW1 1319   0.239   0.853   0.118 -2.0503 -0.5628  0.5926
  440SOL    HW2 1320   0.265   0.897   0.279 -0.9625 -1.2858 -0.5172
  441SOL     OW 1321   1.069   2.369   1.395  0.1233 -0.6058  0.0063
  441SOL    HW1 1322   1.124   2.375   1.481 -0.3066 -1.5406 -1.3180
  441SOL    HW2 1323   1.120   2.395   1.316 -1.4393  1.8217  2.7902
  442SOL     OW 1324   2.496   1.389   0.697  0.3071  0.0614 -0.4219
  442SOL    HW1 1325   2.483   1.396   0.800 -0.3464 -0.8575  1.5783
  442SOL    HW2 1326   2.558   1.460   0.662 -0.6930 -2.1963 -2.7067
  443SOL     OW 1327   2.680   1.822   2.424 -0.0045 -0.2149  0.5068
  443SOL    HW1 1328   2.639   1.914   2.441  1.9218  0.0048 -0.4662
  443SOL    HW2 1329   2.704   1.809   2.324  3.1890  3.2221 -0.5757
  444SOL     OW 1330   1.643   1.271   2.965  0.4150  0.2084  0.3236
  444SOL    HW1 1331   1.664   1.338   3.040 -1.7256  1.1944 -0.0980
  444SOL    HW2 1332   1.555   1.220   2.978  1.0368  0.8200  2.4127
  445SOL     OW 1333   2.611   2.652   2.202 -0.1516 -0.4586  0.8619
  445SOL    HW1 1334   2.591   2.570   2.144  0.7412 -1.2931 -1.5591
  445SOL    HW2 1335   2.658   2.719   2.140  1.0700  1.0394 -1.1891
  446SOL     OW 1336   0.216   1.029   1.377 -0.0475 -0.9794  0.2200
  446SOL    HW1 1337   0.217   1.021   1.480  0.0819  1.2073  1.0460
  446SOL    HW2 1338   0.166   0.952   1.337 -3.5318 -0.7212  1.0341
  447SOL     OW 1339   0.845   1.461   0.730 -0.5295  0.7362 -0.5356
  447SOL    HW1 1340   0.894   1.452   0.820  2.0902  0.8634  3.0400
  447SOL    HW2 1341   0.834   1.557   0.718 -0.0419  0.1459 -0.5204
  448SOL     OW 1342   1.193   1.137   1.543  0.4700 -0.0835  0.3917
  448SOL    HW1 1343   1.208   1.100   1.636  0.4374 -1.4540  0.6544
  448SOL    HW2 1344   1.171   1.063   1.475 -0.4892 -0.4104 -1.3731
  449SOL     OW 1345   0.021   2.047   2.250  0.0280  0.3573 -0.1668
  449SOL    HW1 1346   0.051   2.132   2.202  1.0137 -3.2360  0.4744
  449SOL    HW2 1347   0.045   1.968   2.195  2.0389 -2.3549  1.4760
  450SOL     OW 1348   2.917   1.884   1.984 -0.1355 -0.4219  0.0793
  450SOL    HW1 1349   2.934   1.975   1.945  0.9655 -0.8450 -0.8951
  450SOL    HW2 1350   2.983   1.820   1.943 -2.1228  1.7121 -0.1389
  451SOL     OW 1351   2.211   0.866   1.289 -0.1247 -0.3045 -0.2084
  451SOL    HW1 1352   2.119   0.841   1.322  0.1540  2.3768 -0.9678
  451SOL    HW2 1353   2.276   0.786   1.292  0.7087  0.1245 -0.2481
  452SOL     OW 1354   0.473   1.082   1.039  0.0937 -0.1330 -0.6429
  452SOL    HW1 1355   0.424   1.169   1.055 -2.1055  2.8513 -1.2589
  452SOL    HW2 1356   0.467   1.042   0.947 -1.8499  1.8500 -1.0563
  453SOL     OW 1357   0.789   1.647   1.214  0.6221 -0.3857 -0.4621
  453SOL    HW1 1358   0.705   1.601   1.173 -0.1001  0.3827 -1.1855
  453SOL    HW2 1359   0.830   1.714   1.144  1.9314  1.1214  0.2128
  454SOL     OW 1360   0.413   1.694   0.130 -0.1768  0.0837 -0.1646
  454SOL    HW1 1361   0.442   1.774   0.076  0.1860 -1.7430 -0.1045
  454SOL    HW2 1362   0.428   1.614   0.073 -0.3642  1.1921  2.7927
  455SOL     OW 1363   1.805   0.956   0.755 -0.5957 -0.6427 -0.0626
  455SOL    HW1 1364   1.778   0.872   0.806 -1.4455  0.3930 -0.3897
  455SOL    HW2 1365   1.820   1.029   0.825  0.8026 -3.0311 -0.9850
  456SOL     OW 1366   2.213   2.592   0.837  0.3284 -0.2768  0.3293
  456SOL    HW1 1367   2.250   2.672   0.786  1.5282  2.6619  1.7697
  456SOL    HW2 1368   2.281   2.545   0.895 -2.0352 -1.4029 -0.5538
  457SOL     OW 1369   2.037   2.948   2.707 -0.3434 -0.0787  0.1255
  457SOL    HW1 1370   2.045   3.046   2.736  0.3906 -0.2848  1.4374
  457SOL    HW2 1371   2.038   2.944   2.601 -0.2522  0.9038 -2.0860
  458SOL     OW 1372   2.177   0.386   0.406  0.0188 -0.2359  0.6402
  458SOL    HW1 1373   2.253   0.411   0.344 -2.6628  0.0638 -0.9928
  458SOL    HW2 1374   2.113   0.459   0.411  1.2659 -0.4310 -0.0027
  459SOL     OW 1375   0.035   1.141   2.300  0.5128  0.4115 -0.1809
  459SOL    HW1 1376   3.030   1.127   2.255  0.2646 -1.1639 -2.0741
  459SOL    HW2 1377   0.077   1.226   2.267  0.7318 -0.2561  1.4748
  460SOL     OW 1378   0.349   0.805   3.029  0.1503  0.2355  0.3470
  460SOL    HW1 1379   0.284   0.870   2.982 -3.3148  1.5723 -1.3880
  460SOL    HW2 1380   0.367   0.717   2.974  3.1376 -0.7602 -1.0424
  461SOL     OW 1381   2.770   2.387   0.879  0.3533  0.1950 -0.3215
  461SOL    HW1 1382   2.674   2.412   0.907 -3.0469 -0.6597 -1.4107
  461SOL    HW2 1383   2.803   2.300   0.921  0.2135 -0.4929  0.5731
  462SOL     OW 1384   0.420   0.320   1.747 -0.2398  0.4053  0.9597
  462SOL    HW1 1385   0.508   0.349   1.790  0.6758 -0.0311 -0.5015
  462SOL    HW2 1386   0.432   0.310   1.647 -0.2211 -0.3747 -3.1931
  463SOL     OW 1387   2.142   2.229   2.099 -0.4977 -0.0815 -0.1126
  463SOL    HW1 1388   2.084   2.145   2.114 -2.7376 -2.0897  1.4750
  463SOL    HW2 1389   2.083   2.298   2.058  0.3994 -1.8468  1.1500
  464SOL     OW 1390   0.469   0.110   1.514  0.1445  0.0922 -0.0746
  464SOL    HW1 1391   0.565   0.132   1.528 -1.5632  0.3135 -0.3215
  464SOL    HW2 1392   0.462   0.007   1.511  0.0952  1.8326 -0.9916
  465SOL     OW 1393   0.766   0.071   1.377 -0.3739 -0.1727  0.4101
  465SOL    HW1 1394   0.853   0.028   1.413  0.3739  0.9352  1.1665
  465SOL    HW2 1395   0.739   0.145   1.445  0.2570  0.1994  2.5671
  466SOL     OW 1396   1.396   1.907   1.840 -0.0605 -0.2779  0.2239
  466SOL    HW1 1397   1.443   1.908   1.751 -0.0159 -0.7728  1.0164
  466SOL    HW2 1398   1.311   1.854   1.828  0.9947 -1.3413  1.7385
  467SOL     OW 1399   0.153   1.740   1.406  0.0129  0.0165  0.1249
  467SOL    HW1 1400   0.128   1.643   1.394  2.8291  0.3797  0.5419
  467SOL    HW2 1401   0.248   1.748   1.455  2.6504 -1.8788  0.7955
  468SOL     OW 1402   2.434   1.994   2.729 -0.1685 -0.4472  0.9448
  468SOL    HW1 1403   2.508   1.930   2.752 -1.3101  0.3918 -0.8161
  468SOL    HW2 1404   2.431   1.998   2.625  0.4131 -2.1919 -1.8739
  469SOL     OW 1405   1.276   2.220   0.595  0.4885  0.8853  0.4278
  469SOL    HW1 1406   1.359   2.168   0.554  1.6196  0.0685 -1.6716
  469SOL    HW2 1407   1.219   2.256   0.518  1.1170  0.8519 -1.8899
  470SOL     OW 1408   2.290   1.589   1.084  0.3136 -0.4237  0.2811
  470SOL    HW1 1409   2.295   1.647   1.171 -0.3334  2.7480  0.6751
  470SOL    HW2 1410   2.378   1.553   1.056 -1.9596  1.2725  0.2599
  471SOL     OW 1411   0.402   2.470   0.391  0.5008  0.0973 -0.1348
  471SOL    HW1 1412   0.411   2.569   0.417 -1.1077  0.0532  2.6573
  471SOL    HW2 1413   0.485   2.431   0.347  0.1388 -3.7262 -0.2406
  472SOL     OW 1414   2.762   1.781   2.168 -0.9794  0.3699 -0.3308
  472SOL    HW1 1415   2.805   1.701   2.217  1.9281  1.5950 -1.4885
  472SOL    HW2 1416   2.830   1.818   2.095  1.2547  2.3200  1.3255
  473SOL     OW 1417   1.115   0.106   0.770 -0.3092 -0.1416  0.4156
  473SOL    HW1 1418   1.141   0.183   0.709  1.6265  0.2369  1.4098
  473SOL    HW2 1419   1.137   0.018   0.723  1.1454 -0.0273  0.9916
  474SOL     OW 1420   2.900   3.049   1.011  0.0931 -0.0887 -0.2733
  474SOL    HW1 1421   2.864   0.043   0.957 -2.9279  0.4574 -1.5801
  474SOL    HW2 1422   2.974   3.000   0.962 -1.3570  0.0660 -1.0975
  475SOL     OW 1423   1.712   2.483   1.779  0.0303  0.3058  0.2927
  475SOL    HW1 1424   1.755   2.511   1.692  1.4141  2.2606 -2.8724
  475SOL    HW2 1425   1.610   2.467   1.770  0.2414  0.7315 -3.3483
  476SOL     OW 1426   0.391   0.337   0.928 -0.3334 -0.7750 -0.0877
  476SOL    HW1 1427   0.468   0.279   0.959  3.2786 -0.6317 -2.3644
  476SOL    HW2 1428   0.305   0.292   0.951  1.7744  1.5386  0.7528
  477SOL     OW 1429   0.825   2.305   0.976  0.1269  0.1806 -0.2961
  477SOL    HW1 1430   0.765   2.375   0.934  1.4158  0.1250  0.3556
  477SOL    HW2 1431   0.856   2.231   0.912 -1.3360 -0.7379  1.5866
  478SOL     OW 1432   0.470   2.571   2.748  0.0090  0.5068 -0.1786
  478SOL    HW1 1433   0.408   2.486   2.735 -0.3883 -1.2897  0.8207
  478SOL    HW2 1434   0.436   2.631   2.823  1.3185 -1.2826 -2.8018
  479SOL     OW 1435   0.290   0.668   1.924  0.2514  0.5247  0.0177
  479SOL    HW1 1436   0.211   0.603   1.925 -4.7266 -1.6715 -0.2800
  479SOL    HW2 1437   0.271   0.739   1.994 -0.1556  0.2593  0.1226
  480SOL     OW 1438   2.989   2.121   3.054  0.4846 -0.2499 -0.3549
  480SOL    HW1 1439   2.965   2.218   3.062  0.4111  0.7437  1.4516
  480SOL    HW2 1440   3.081   2.114   0.011 -1.9773  0.6717 -0.6657
  481SOL     OW 1441   1.567   2.424   2.167  0.4645  0.1614 -0.3519
  481SOL    HW1 1442   1.648   2.362   2.179 -1.5549  0.6369  0.4776
  481SOL    HW2 1443   1.523   2.405   2.076 -0.8653 -2.3927 -1.4722
  482SOL     OW 1444   1.461   2.040   2.730 -0.2480  0.0933 -0.0179
  482SOL    HW1 1445   1.541   2.019   2.791 -0.5333  0.5536  0.8692
  482SOL    HW2 1446   1.494   2.079   2.641 -0.3698  1.0034 -1.3243
  483SOL     OW 1447   0.910   2.607   2.851  0.4218  0.0633 -0.3216
  483SOL    HW1 1448   0.835   2.649   2.790 -2.0877  3.5295  1.7669
  483SOL    HW2 1449   0.998   2.583   2.806  3.6395  0.8421  1.0684
  484SOL     OW 1450   0.057   0.110   0.730  0.1531  0.2456 -0.0563
  484SOL    HW1 1451   3.060   0.135   0.674 -0.7792  1.2750 -1.3949
  484SOL    HW2 1452   0.045   0.018   0.767 -1.5832 -2.4235 -1.5210
  485SOL     OW 1453   1.599   0.884   0.581  0.0196 -0.0297  0.0318
  485SOL    HW1 1454   1.659   0.935   0.643  2.5572 -0.5343 -0.0153
  485SOL    HW2 1455   1.585   0.790   0.613 -3.7881 -0.2395 -0.3996
  486SOL     OW 1456   1.905   2.652   2.132 -0.0612 -0.2500  0.7709
  486SOL    HW1 1457   2.007   2.632   2.111 -0.4572 -0.9873  0.0148
  486SOL    HW2 1458   1.886   2.672   2.230 -0.8385 -0.8972 -1.8180
  487SOL     OW 1459   1.716   2.212   0.820 -0.2839 -0.1870 -0.2938
  487SOL    HW1 1460   1.638   2.223   0.882 -2.9044 -0.4443 -0.7116
  487SOL    HW2 1461   1.811   2.200   0.858  3.0513 -0.8638  0.6961
  488SOL     OW 1462   1.794   0.879   0.060 -0.1571 -0.0710 -0.3327
  488SOL    HW1 1463   1.742   0.869   0.149 -0.5374 -1.7369 -1.1163
  488SOL    HW2 1464   1.891   0.845   0.072  0.3479  1.2300 -1.1123
  489SOL     OW 1465   2.450   0.091   0.564  0.0642  0.7016  0.3368
  489SOL    HW1 1466   2.513   0.058   0.637 -0.9301  2.5422  2.1960
  489SOL    HW2 1467   2.407   0.180   0.590  0.8584  0.7075 -0.3104
  490SOL     OW 1468   1.552   2.803   3.017 -0.4316  0.1585 -0.3057
  490SOL    HW1 1469   1.520   2.873   3.083 -0.0465  0.3711  2.8338
  490SOL    HW2 1470   1.603   2.858   2.940  2.4426  0.1650 -3.2312
  491SOL     OW 1471   0.893   0.393   1.163 -0.0173 -0.1761  0.4749
  491SOL    HW1 1472   0.919   0.397   1.062 -1.0748  0.7396 -0.8286
  491SOL    HW2 1473   0.972   0.380   1.225  0.7378  0.4679 -0.8533
  492SOL     OW 1474   1.598   0.556   0.145  0.1133  0.3465  0.3659
  492SOL    HW1 1475   1.647   0.485   0.094  0.3037 -0.6073 -1.0229
  492SOL    HW2 1476   1.633   0.567   0.239 -0.4712  0.1880 -0.4488
  493SOL     OW 1477   2.038   2.118   2.863  0.4091 -0.0155 -0.4445
  493SOL    HW1 1478   2.036   2.206   2.914 -2.9971 -0.7015  0.4726
  493SOL    HW2 1479   2.098   2.052   2.907 -2.7207  1.7203  0.6979
  494SOL     OW 1480   0.370   1.094   0.774 -0.1849 -0.4217  0.2313
  494SOL    HW1 1481   0.361   1.177   0.716 -0.3386  1.5542  2.0660
  494SOL    HW2 1482   0.280   1.068   0.811 -1.8762 -0.2961  0.5504
  495SOL     OW 1483   0.005   2.994   1.586 -0.3230  0.5366 -0.0430
  495SOL    HW1 1484   3.077   3.084   1.540  0.4984 -3.1192 -2.1311
  495SOL    HW2 1485   0.062   3.005   1.668  0.4091  1.0073 -1.1207
  496SOL     OW 1486   2.804   2.885   1.787  0.5362  0.2966  0.3906
  496SOL    HW1 1487   2.790   2.884   1.684  0.8499  0.3310 -2.4444
  496SOL    HW2 1488   2.773   2.974   1.823  1.2035  0.2080 -3.8010
  497SOL     OW 1489   1.449   1.721   2.700  1.0407  0.2376 -0.1310
  497SOL    HW1 1490   1.415   1.803   2.749  2.3676 -2.6847  1.4792
  497SOL    HW2 1491   1.376   1.673   2.649 -1.1822  0.5602 -1.1988
  498SOL     OW 1492   0.480   1.942   0.804  0.7629  0.0838  0.4627
  498SOL    HW1 1493   0.452   1.866   0.740 -0.1082 -0.4189  0.0798
  498SOL    HW2 1494   0.412   1.964   0.877  0.9392  1.7864 -0.9471
  499SOL     OW 1495   0.139   1.491   1.356  0.4298  0.4854 -0.2813
  499SOL    HW1 1496   0.218   1.425   1.362  2.0118  1.7645  0.3269
  499SOL    HW2 1497   0.054   1.438   1.331 -1.2006 -4.3370 -1.9190
  500SOL     OW 1498   1.378   2.538   0.336 -0.5375 -0.1867 -0.2595
  500SOL    HW1 1499   1.390   2.439   0.317  0.9120 -0.6138 -0.4142
  500SOL    HW2 1500   1.431   2.593   0.274 -3.7235 -0.1248  3.3127
  501SOL     OW 1501   2.303   2.271   1.029  0.0029 -0.1793 -0.1931
  501SOL    HW1 1502   2.395   2.248   1.057 -1.9346  0.4642 -0.6737
  501SOL    HW2 1503   2.301   2.274   0.925  0.5279 -0.6018  2.9385
  502SOL     OW 1504   0.105   0.684   1.645  0.0449 -0.5170  0.0576
  502SOL    HW1 1505   0.138   0.722   1.553 -0.5700  1.8266  0.5557
  502SOL    HW2 1506   0.119   0.586   1.651 -0.8775  1.6289 -1.8809
  503SOL     OW 1507   2.516   2.998   1.697 -0.2675  0.0522 -0.0272
  503SOL    HW1 1508   2.443   2.968   1.762 -1.2267  0.1656  3.3813
  503SOL    HW2 1509   2.584   3.060   1.741  2.6083  1.5570  1.1410
  504SOL     OW 1510   1.832   0.785   2.006  0.5940 -0.1253  0.0113
  504SOL    HW1 1511   1.801   0.848   1.929  2.0298  1.9766 -0.8642
  504SOL    HW2 1512   1.917   0.825   2.045 -1.1092 -1.8213 -0.8801
  505SOL     OW 1513   1.139   2.862   2.366  0.1333  0.1773 -0.3096
  505SOL    HW1 1514   1.106   2.878   2.461  1.4519 -2.0363 -1.5875
  505SOL    HW2 1515   1.178   2.767   2.364 -0.9282  1.5110  0.9893
  506SOL     OW 1516   0.498   0.603   1.775 -0.7906  0.2927 -0.0783
  506SOL    HW1 1517   0.557   0.564   1.846  0.1863 -1.5505 -2.8732
  506SOL    HW2 1518   0.425   0.655   1.825  3.4903  0.6036 -0.3351
  507SOL     OW 1519   1.754   0.103   3.014 -0.1662  0.5288 -0.2899
  507SOL    HW1 1520   1.657   0.115   2.990 -0.5700 -1.0307  1.8049
  507SOL    HW2 1521   1.762   0.014   3.069  1.2521 -3.1334 -1.2638
  508SOL     OW 1522   2.355   0.470   2.483  0.0722 -0.0186 -0.0440
  508SOL    HW1 1523   2.406   0.526   2.415  3.8910  0.8943 -0.8772
  508SOL    HW2 1524   2.263   0.514   2.492 -1.5876  1.4235  0.0310
  509SOL     OW 1525   0.861   1.512   2.001 -0.2421 -0.4319 -0.5390
  509SOL    HW1 1526   0.933   1.570   2.044  1.0732  0.2765  0.2674
  509SOL    HW2 1527   0.881   1.500   1.900 -0.0500  0.5919 -0.0208
  510SOL     OW 1528   3.026   0.932   0.945  0.1084 -0.3939 -0.2092
  510SOL    HW1 1529   3.050   0.865   0.871  0.6435 -0.7962 -0.9521
  510SOL    HW2 1530   2.929   0.957   0.940 -0.0240  0.0794 -1.6419
  511SOL     OW 1531   1.710   1.592   0.747 -0.2671  0.2703  0.0867
  511SOL    HW1 1532   1.625   1.644   0.730  4.7237  1.7334 -1.5898
  511SOL    HW2 1533   1.787   1.647   0.709 -0.4047  0.4662  0.0002
  512SOL     OW 1534   0.749   1.422   0.275 -0.0984 -0.3231 -0.4883
  512SOL    HW1 1535   0.657   1.461   0.305 -0.0539  0.7239  0.9935
  512SOL    HW2 1536   0.796   1.376   0.355  1.2757 -0.5357 -0.6774
  513SOL     OW 1537   0.232   2.566   0.786 -0.4684  1.1429  0.3383
  513SOL    HW1 1538   0.298   2.639   0.760 -1.8041 -0.9314 -1.4370
  513SOL    HW2 1539   0.233   2.493   0.713  3.3514 -0.2858 -4.4994
  514SOL     OW 1540   0.118   2.067   0.104  0.3282  0.1133 -0.5369
  514SOL    HW1 1541   0.165   2.118   0.178 -1.7107 -0.1615 -0.8926
  514SOL    HW2 1542   0.135   1.967   0.114  0.5958 -0.5732  0.2796
  515SOL     OW 1543   2.299   0.693   0.272 -0.4274 -0.0516  0.1265
  515SOL    HW1 1544   2.209   0.682   0.318  0.7455  2.1377 -0.6464
  515SOL    HW2 1545   2.325   0.790   0.261  0.8265  1.5098  1.0135
  516SOL     OW 1546   2.385   2.690   1.106 -0.0299  0.1214  0.2420
  516SOL    HW1 1547   2.436   2.671   1.193  0.3946 -1.1654  1.3482
  516SOL    HW2 1548   2.317   2.763   1.127 -0.7777  0.7988 -0.0712
  517SOL     OW 1549   1.395   1.722   3.020  0.5533  0.0068  0.1351
  517SOL    HW1 1550   1.397   1.642   3.084 -2.3736  3.2545  1.2003
  517SOL    HW2 1551   1.326   1.790   3.052 -3.1002  0.5604  2.0133
  518SOL     OW 1552   1.337   0.380   1.569 -0.3350 -0.2349  0.2099
  518SOL    HW1 1553   1.298   0.392   1.474 -1.1729  1.4952  1.5313
  518SOL    HW2 1554   1.279   0.438   1.629 -2.0793  1.3173 -2.3137
  519SOL     OW 1555   2.892   1.968   0.790 -0.1242 -0.0047  0.6314
  519SOL    HW1 1556   2.961   1.930   0.854 -3.3324 -0.8782 -0.3142
  519SOL    HW2 1557   2.934   2.017   0.710 -2.3501  0.3026  1.8388
  520SOL     OW 1558   2.417   2.259   1.777  0.3299 -0.2773 -0.3050
  520SOL    HW1 1559   2.424   2.213   1.868 -2.0144  0.1195 -0.0066
  520SOL    HW2 1560   2.351   2.339   1.782 -1.2994 -3.0700 -0.7242
  521SOL     OW 1561   1.072   2.853   2.615 -0.1349  0.5555 -0.2394
  521SOL    HW1 1562   1.023   2.890   2.698  1.2887 -0.5557  1.1387
  521SOL    HW2 1563   1.039   2.765   2.581  0.0596 -3.3190 -1.2318
  522SOL     OW 1564   2.622   0.292   2.274 -0.6382  0.2022 -0.0161
  522SOL    HW1 1565   2.674   0.360   2.333 -1.2685  2.3456 -0.2849
  522SOL    HW2 1566   2.596   0.212   2.329 -3.1447 -3.6248  0.4989
  523SOL     OW 1567   1.401   2.175   1.607  0.0605  0.0648 -0.1337
  523SOL    HW1 1568   1.505   2.176   1.625  0.0044  0.4408 -0.3546
  523SOL    HW2 1569   1.378   2.085   1.572  0.9467  1.9906 -0.1818
  524SOL     OW 1570   1.877   1.951   0.095 -0.3093  0.4351  0.0748
  524SOL    HW1 1571   1.782   1.937   0.123 -0.4390  1.1837  1.0461
  524SOL    HW2 1572   1.932   2.007   0.161 -1.1210  1.0620 -0.3069
  525SOL     OW 1573   3.028   0.794   0.449 -0.4959 -0.3005  0.0574
  525SOL    HW1 1574   3.018   0.866   0.372  1.3337  2.8209 -1.7912
  525SOL    HW2 1575   0.030   0.748   0.444  0.9287 -1.5854  3.2083
  526SOL     OW 1576   1.047   2.915   1.053  0.0188 -0.5226 -0.0236
  526SOL    HW1 1577   1.146   2.909   1.054 -0.5511  1.0111 -0.8289
  526SOL    HW2 1578   1.018   2.972   0.975  0.6492  4.0481  0.7457
  527SOL     OW 1579   2.709   1.525   0.583 -0.0882 -0.2208 -0.3570
  527SOL    HW1 1580   2.717   1.625   0.596 -2.7322 -1.1855  0.5247
  527SOL    HW2 1581   2.757   1.495   0.499 -1.1350 -0.4298 -2.4732
  528SOL     OW 1582   0.528   0.755   2.190 -0.0303 -0.6690 -0.2163
  528SOL    HW1 1583   0.577   0.815   2.259  0.7558  2.2922  0.1892
  528SOL    HW2 1584   0.432   0.729   2.219 -3.6088  0.2391 -0.6661
  529SOL     OW 1585   0.897   1.707   2.842  0.2577 -0.1767  0.3887
  529SOL    HW1 1586   0.994   1.683   2.870  1.2019  0.7585  0.5237
  529SOL    HW2 1587   0.894   1.706   2.741 -0.3112  1.5487  0.2905
  530SOL     OW 1588   1.492   1.395   2.301  0.0139 -0.4674 -0.3237
  530SOL    HW1 1589   1.397   1.364   2.294 -1.7362 -2.6027  2.6576
  530SOL    HW2 1590   1.546   1.314   2.320 -1.1605  0.8688  0.2908
  531SOL     OW 1591   0.616   2.335   2.851 -0.4127 -0.0344  0.7988
  531SOL    HW1 1592   0.593   2.307   2.950  0.5991  0.2615  1.5075
  531SOL    HW2 1593   0.574   2.427   2.824  0.4465 -0.0394  0.0197
  532SOL     OW 1594   2.370   0.944   0.200 -0.2824  0.7410  0.4330
  532SOL    HW1 1595   2.381   0.948   0.100 -1.4171 -0.6454  1.5710
  532SOL    HW2 1596   2.359   1.036   0.240  0.7778 -2.3827 -0.2166
  533SOL     OW 1597   3.028   0.268   1.677 -0.2764  0.5185 -0.1097
  533SOL    HW1 1598   0.027   0.323   1.672  3.7500  1.5412  2.4135
  533SOL    HW2 1599   2.957   0.298   1.746 -0.8100  1.3915  2.0163
  534SOL     OW 1600   1.511   0.234   2.938 -0.4239  0.5265  0.3321
  534SOL    HW1 1601   1.439   0.223   3.009 -0.6131  0.9503 -0.0703
  534SOL    HW2 1602   1.468   0.257   2.849  0.0619  0.3948 -0.3086
  535SOL     OW 1603   0.857   0.242   0.152 -0.0513  0.0721 -0.1950
  535SOL    HW1 1604   0.905   0.247   0.242  0.8137 -1.1576  0.6821
  535SOL    HW2 1605   0.843   0.334   0.107 -1.7055 -1.0916 -2.2683
  536SOL     OW 1606   0.370   1.587   2.005 -0.4233  0.3019 -0.2307
  536SOL    HW1 1607   0.352   1.618   2.101  0.0639  1.5645 -0.0820
  536SOL    HW2 1608   0.442   1.519   1.993 -1.9793  1.8372 -0.9027
  537SOL     OW 1609   0.364   2.442   1.940  0.1444  0.3262  0.0588
  537SOL    HW1 1610   0.361   2.392   1.850  0.2345 -0.6390  0.0138
  537SOL    HW2 1611   0.331   2.380   2.009 -0.8366  1.0657 -0.1017
  538SOL     OW 1612   2.996   1.793   0.221  0.6849  0.4924  0.0791
  538SOL    HW1 1613   3.084   1.781   0.177 -2.5238 -1.2237  1.1004
  538SOL    HW2 1614   2.999   1.765   0.322 -2.2161 -3.4009  1.0459
  539SOL     OW 1615   2.599   0.507   2.808 -0.1759 -0.2348 -0.4370
  539SOL    HW1 1616   2.571   0.407   2.803  1.3158  1.5282  1.1251
  539SOL    HW2 1617   2.702   0.515   2.822  0.8849  0.9408  1.0506
  540SOL     OW 1618   1.499   0.768   2.513  0.5405 -0.1508  0.7547
  540SOL    HW1 1619   1.481   0.694   2.581 -0.4379  2.0108 -0.0716
  540SOL    HW2 1620   1.450   0.854   2.546  0.2436  0.1974  0.4476
  541SOL     OW 1621   0.905   0.204   1.755 -0.1182  0.5360 -0.2415
  541SOL    HW1 1622   0.866   0.110   1.768 -2.4535 -0.8772 -0.4610
  541SOL    HW2 1623   0.877   0.260   1.837 -1.2073 -2.1182  2.0613
  542SOL     OW 1624   1.869   2.542   2.566  0.2084 -0.3560 -0.2917
  542SOL    HW1 1625   1.796   2.506   2.629  1.7791 -0.6269 -2.1461
  542SOL    HW2 1626   1.835   2.624   2.517  1.0636  0.0228 -3.2976
  543SOL     OW 1627   0.548   2.971   0.845  0.0249 -0.0256  0.3459
  543SOL    HW1 1628   0.586   2.938   0.936  2.8956 -1.1960  0.8423
  543SOL    HW2 1629   0.560   3.076   0.843 -1.1607  3.5841 -0.3716
  544SOL     OW 1630   2.849   1.537   2.263 -0.3808 -0.4690  0.1181
  544SOL    HW1 1631   2.800   1.446   2.260 -1.2139 -1.0975 -5.5886
  544SOL    HW2 1632   2.876   1.552   2.359 -1.6550 -0.0433  0.0285
  545SOL     OW 1633   2.011   1.908   1.387 -0.4227  0.0082 -0.6743
  545SOL    HW1 1634   2.038   2.001   1.419  1.9952  0.6458 -0.6632
  545SOL    HW2 1635   1.999   1.907   1.290  1.0304  0.5035  4.7032
  546SOL     OW 1636   0.376   0.176   2.227 -0.2181 -0.3582  0.4304
  546SOL    HW1 1637   0.332   0.180   2.138 -0.6753  2.0588  1.6741
  546SOL    HW2 1638   0.304   0.187   2.300 -0.1669 -2.2672  0.3409
  547SOL     OW 1639   1.245   0.519   0.957  0.3431 -0.1488 -0.4087
  547SOL    HW1 1640   1.211   0.547   1.047 -1.3253 -0.9037 -0.4308
  547SOL    HW2 1641   1.300   0.598   0.913 -0.0431  1.2961  0.2419
  548SOL     OW 1642   1.221   2.488   2.813  0.3782  0.0008  0.5629
  548SOL    HW1 1643   1.225   2.510   2.912 -1.6361 -1.4768  2.0607
  548SOL    HW2 1644   1.307   2.514   2.770  1.4645 -2.0329  0.9196
  549SOL     OW 1645   2.196   0.635   2.733 -0.2577 -0.5204  0.0636
  549SOL    HW1 1646   2.297   0.663   2.733  1.1412 -0.6471 -2.6265
  549SOL    HW2 1647   2.166   0.650   2.635  0.5744  2.3643  1.5341
  550SOL     OW 1648   2.652   1.922   0.375 -0.1620 -0.1037 -0.3304
  550SOL    HW1 1649   2.588   1.850   0.342  0.9578  0.0680 -0.0312
  550SOL    HW2 1650   2.694   1.971   0.297 -0.2524  2.1460 -0.9243
  551SOL     OW 1651   1.170   2.888   1.958  0.5061 -0.0495  0.2925
  551SOL    HW1 1652   1.157   2.980   1.914 -0.3764  3.1141  0.5443
  551SOL    HW2 1653   1.229   2.904   2.036 -1.9902  2.1314 -2.3245
  552SOL     OW 1654   2.944   2.218   2.639 -0.7576 -0.0731  0.2131
  552SOL    HW1 1655   2.914   2.163   2.561  0.3250 -0.8842  3.1266
  552SOL    HW2 1656   2.886   2.202   2.720 -0.2807 -0.3143 -3.7707
  553SOL     OW 1657   0.277   2.639   1.076  0.1358 -0.2121 -0.4151
  553SOL    HW1 1658   0.302   2.588   0.987  0.6584  0.1339  0.2882
  553SOL    HW2 1659   0.231   2.580   1.148 -1.0733 -1.0150 -0.6190
  554SOL     OW 1660   2.294   1.806   1.713 -0.4803  0.2001 -0.3458
  554SOL    HW1 1661   2.254   1.826   1.805  1.2643 -3.0372  0.7461
  554SOL    HW2 1662   2.296   1.895   1.670  0.7173 -1.5050  1.8258
  555SOL     OW 1663   1.602   2.105   1.925  0.0072 -0.1825 -0.1333
  555SOL    HW1 1664   1.545   2.023   1.929 -0.0702  0.0893 -1.8467
  555SOL    HW2 1665   1.539   2.186   1.924  0.6995  1.3873 -1.0744
  556SOL     OW 1666   1.437   1.704   1.066 -0.2527 -0.0950 -0.3827
  556SOL    HW1 1667   1.419   1.603   1.061 -2.5588  0.1575  4.7661
  556SOL    HW2 1668   1.531   1.721   1.036  0.3222  0.1739 -0.2505
  557SOL     OW 1669   1.365   2.868   1.552  0.0294  0.1475  0.1209
  557SOL    HW1 1670   1.318   2.945   1.595  2.2009  1.2633 -2.2157
  557SOL    HW2 1671   1.296   2.807   1.502 -2.1574 -2.6383 -2.3532
  558SOL     OW 1672   0.506   0.048   1.865 -0.0059  0.3540  0.4479
  558SOL    HW1 1673   0.507   0.069   1.966  1.8055 -2.4403  1.0235
  558SOL    HW2 1674   0.476   0.123   1.804 -1.7420 -0.1670 -0.7048
  559SOL     OW 1675   2.219   3.057   0.621 -0.1086  0.0675 -0.4137
  559SOL    HW1 1676   2.306   0.018   0.602 -0.8826  0.1010  0.2940
  559SOL    HW2 1677   2.151   0.036   0.662 -0.9008  1.8927  2.7596
  560SOL     OW 1678   1.409   2.592   0.607 -0.6351 -0.5020 -0.0758
  560SOL    HW1 1679   1.389   2.569   0.511 -0.2777  0.2960  1.6937
  560SOL    HW2 1680   1.418   2.507   0.666 -4.0788 -1.6297 -1.9995
  561SOL     OW 1681   1.030   0.583   0.179  0.6004 -0.0414 -0.0207
  561SOL    HW1 1682   1.058   0.541   0.092  1.4666  2.4162  0.2889
  561SOL    HW2 1683   0.936   0.618   0.168  5.2109 -0.2561  4.0223
  562SOL     OW 1684   0.413   1.165   2.319 -0.1449 -0.3775 -0.1861
  562SOL    HW1 1685   0.357   1.075   2.309 -0.5395 -2.3361  0.8472
  562SOL    HW2 1686   0.470   1.167   2.402 -1.3383  1.5815 -1.6177
  563SOL     OW 1687   1.507   2.127   2.466  0.1052  0.5669  0.3324
  563SOL    HW1 1688   1.523   2.228   2.455  1.2050  2.0587  0.7881
  563SOL    HW2 1689   1.579   2.075   2.422 -0.2540  0.3023  0.4639
  564SOL     OW 1690   2.758   0.899   0.851  0.1353 -0.4498  0.0307
  564SOL    HW1 1691   2.703   0.972   0.895  1.0481 -0.5666 -0.2348
  564SOL    HW2 1692   2.793   0.919   0.754 -1.4919 -0.3159 -0.0195
  565SOL     OW 1693   0.577   0.964   2.977  0.4768  0.2350 -0.1351
  565SOL    HW1 1694   0.633   0.918   2.905 -0.6284 -1.5356  1.1562
  565SOL    HW2 1695   0.515   0.892   3.019  0.2213 -1.6563 -0.1362
  566SOL     OW 1696   2.404   2.956   2.737 -0.0526 -0.2907 -0.6502
  566SOL    HW1 1697   2.367   3.053   2.749  0.9351  0.0845 -0.1625
  566SOL    HW2 1698   2.334   2.884   2.715 -0.5442 -0.0434  0.6229
  567SOL     OW 1699   1.484   1.088   0.966  0.0933  0.4742 -0.4222
  567SOL    HW1 1700   1.441   1.134   0.889  0.5801 -3.1720 -0.8857
  567SOL    HW2 1701   1.578   1.115   0.976 -4.6451 -1.2177  1.3849
  568SOL     OW 1702   1.708   1.810   2.716 -0.6562  0.0349 -0.1497
  568SOL    HW1 1703   1.624   1.794   2.659 -0.3933 -0.5116  0.6790
  568SOL    HW2 1704   1.696   1.824   2.815  1.9381  2.3905  1.9349
  569SOL     OW 1705   2.148   1.354   2.924 -0.0130 -0.2488 -0.2043
  569SOL    HW1 1706   2.137   1.259   2.962 -2.8927  0.9762  2.7182
  569SOL    HW2 1707   2.245   1.362   2.902 -2.7246  0.5962  0.8662
  570SOL     OW 1708   0.032   2.315   1.859 -0.2288 -0.1599  0.4583
  570SOL    HW1 1709   0.016   2.412   1.821 -0.4120  2.3631  0.2562
  570SOL    HW2 1710   0.078   2.261   1.786  0.3736  0.1565 -2.8346
  571SOL     OW 1711   2.621   1.864   1.642  0.6228  0.2664  0.3752
  571SOL    HW1 1712   2.627   1.954   1.603  1.1412 -2.4484  0.7875
  571SOL    HW2 1713   2.612   1.872   1.745 -1.7186 -1.1479 -2.4238
  572SOL     OW 1714   1.611   1.984   0.154  0.0097 -0.2563 -0.4856
  572SOL    HW1 1715   1.537   1.940   0.209  1.9785 -0.5445 -1.5785
  572SOL    HW2 1716   1.637   2.071   0.192 -0.0238 -1.7201 -2.4208
  573SOL     OW 1717   1.558   2.320   0.465  0.1184  0.5643 -0.4007
  573SOL    HW1 1718   1.509   2.305   0.380  2.4137  0.6161  2.0580
  573SOL    HW2 1719   1.630   2.386   0.450 -1.0052 -1.7922 -1.5755
  574SOL     OW 1720   1.221   0.104   1.281 -0.9502 -0.3469  0.0864
  574SOL    HW1 1721   1.141   0.041   1.312 -1.2524 -0.6054 -0.3122
  574SOL    HW2 1722   1.219   0.120   1.181 -0.6477  1.0401  1.9453
  575SOL     OW 1723   0.668   1.133   1.734  0.4346 -0.3210 -0.7048
  575SOL    HW1 1724   0.749   1.108   1.677  3.9852 -0.8156 -0.4987
  575SOL    HW2 1725   0.586   1.072   1.728 -1.5220  5.3058  1.0148
  576SOL     OW 1726   2.512   0.337   1.782  0.1655  0.2255 -0.5844
  576SOL    HW1 1727   2.423   0.293   1.755 -0.0037 -1.4257 -0.1574
  576SOL    HW2 1728   2.581   0.319   1.708  1.0956 -0.9302 -0.2309
  577SOL     OW 1729   1.360   1.011   2.561 -0.2854 -0.8735 -0.0969
  577SOL    HW1 1730   1.394   1.097   2.610  2.8151 -1.1719 -1.1480
  577SOL    HW2 1731   1.366   1.027   2.458 -1.5824  0.1146 -2.4932
  578SOL     OW 1732   2.089   1.317   2.293 -0.4739  0.1216  0.3176
  578SOL    HW1 1733   1.989   1.338   2.279 -0.3721  0.4292  1.6843
  578SOL    HW2 1734   2.147   1.377   2.233 -1.4840 -2.6363  2.5618
  579SOL     OW 1735   1.331   1.935   1.536  0.1095 -0.2925  0.3102
  579SOL    HW1 1736   1.233   1.931   1.561 -0.4181 -0.8389 -0.3217
  579SOL    HW2 1737   1.341   1.899   1.436  1.1199  2.3014 -0.6005
  580SOL     OW 1738   1.411   2.292   0.232 -0.2418 -0.4217 -0.0014
  580SOL    HW1 1739   1.428   2.282   0.132 -1.2238 -0.4632  1.3825
  580SOL    HW2 1740   1.372   2.204   0.258 -0.5913  0.9821 -0.7498
  581SOL     OW 1741   1.112   0.852   1.915  0.1931 -0.1606 -0.2855
  581SOL    HW1 1742   1.031   0.789   1.919 -0.1158 -1.6669 -0.0820
  581SOL    HW2 1743   1.141   0.880   2.011  1.2249  1.5695  0.5518
  582SOL     OW 1744   0.888   1.115   1.582 -0.0715 -0.5246 -0.6338
  582SOL    HW1 1745   0.979   1.158   1.607 -0.1275  2.7771  1.2974
  582SOL    HW2 1746   0.907   1.019   1.567  0.0636  0.6229 -0.4583
  583SOL     OW 1747   0.962   1.262   2.075 -0.4015 -0.2189  0.4134
  583SOL    HW1 1748   1.053   1.250   2.042 -1.7368  2.7281  1.4546
  583SOL    HW2 1749   0.930   1.357   2.051  3.6011  0.1747 -1.0897
  584SOL     OW 1750   2.371   2.304   0.767  0.0508 -0.0049 -0.0320
  584SOL    HW1 1751   2.443   2.229   0.783 -1.8094 -1.7555 -1.3118
  584SOL    HW2 1752   2.399   2.375   0.699 -0.6877  3.6079 -0.2836
  585SOL     OW 1753   1.991   0.095   2.874  0.0148  0.0976 -0.5118
  585SOL    HW1 1754   1.906   0.106   2.936 -0.9675  0.1258  0.7560
  585SOL    HW2 1755   1.985   0.154   2.795  0.7542 -1.2173  0.2334
  586SOL     OW 1756   3.043   2.282   0.827  0.1971  0.0876  0.1456
  586SOL    HW1 1757   3.018   2.311   0.733  0.0088 -1.4351  2.6832
  586SOL    HW2 1758   3.040   2.360   0.893  0.1081  1.6299 -0.7047
  587SOL     OW 1759   1.626   1.863   2.968 -0.0538  0.4640 -0.5043
  587SOL    HW1 1760   1.633   1.891   3.063 -1.2361 -4.3442 -1.6998
  587SOL    HW2 1761   1.535   1.814   2.950 -2.1681 -2.3163  1.9306
  588SOL     OW 1762   0.126   0.246   0.952 -0.6767  0.0053 -0.6057
  588SOL    HW1 1763   0.114   0.187   1.036 -1.6452 -3.0600  0.2207
  588SOL    HW2 1764   0.077   0.199   0.876  1.2446  3.1474  0.5812
  589SOL     OW 1765   1.325   0.779   0.813  0.0556 -0.1216 -0.5515
  589SOL    HW1 1766   1.237   0.773   0.868 -3.5445 -0.5819  0.3994
  589SOL    HW2 1767   1.298   0.809   0.721 -0.7172  1.0776 -1.5494
  590SOL     OW 1768   1.337   1.190   2.985  0.0442  0.2832 -0.0430
  590SOL    HW1 1769   1.271   1.248   3.035  1.1703 -0.1877  0.1237
  590SOL    HW2 1770   1.362   1.116   3.053  2.0872 -2.9310  0.6127
  591SOL     OW 1771   2.563   2.320   2.611 -0.1622  0.3524  0.5402
  591SOL    HW1 1772   2.473   2.349   2.648 -0.0390 -0.3256  0.4405
  591SOL    HW2 1773   2.602   2.394   2.553 -1.2812  0.2155  1.2699
  592SOL     OW 1774   1.672   2.125   1.544  0.0959 -0.1800 -0.0103
  592SOL    HW1 1775   1.643   2.142   1.446  0.4069 -0.0384 -0.9913
  592SOL    HW2 1776   1.674   2.024   1.559 -2.6513  1.7680  1.9594
  593SOL     OW 1777   0.621   0.142   0.900 -0.3386 -0.3846  0.1772
  593SOL    HW1 1778   0.658   0.142   0.997  2.2134 -3.3861  2.1524
  593SOL    HW2 1779   0.637   0.228   0.843 -1.4602  1.2409  3.5368
  594SOL     OW 1780   2.651   0.715   2.425  0.1040  0.3948 -0.2503
  594SOL    HW1 1781   2.639   0.797   2.480  0.2461 -1.1713 -0.4019
  594SOL    HW2 1782   2.563   0.690   2.384  1.4538  0.6719  0.1669
  595SOL     OW 1783   0.774   2.700   0.975  0.6944 -0.0858 -0.6525
  595SOL    HW1 1784   0.730   2.615   0.938 -0.1866  1.5051  0.4410
  595SOL    HW2 1785   0.707   2.758   1.023 -2.6969  1.5706  1.1447
  596SOL     OW 1786   0.019   0.801   1.334 -0.3515 -0.1528 -0.4824
  596SOL    HW1 1787   3.042   0.877   1.327  2.7566 -1.4924 -2.0554
  596SOL    HW2 1788   0.063   0.767   1.244 -0.6866  0.0764  3.2115
  597SOL     OW 1789   1.432   1.812   0.283  0.4413 -0.2705  0.3391
  597SOL    HW1 1790   1.470   1.730   0.242 -1.6498  0.4285 -1.4000
  597SOL    HW2 1791   1.488   1.842   0.361 -1.6947 -0.8564  1.5046
  598SOL     OW 1792   0.340   2.944   1.761 -0.1745  0.2908 -0.0818
  598SOL    HW1 1793   0.377   2.887   1.691  1.2755  3.0080  0.9720
  598SOL    HW2 1794   0.401   3.020   1.786 -1.9877 -3.3687  1.5236
  599SOL     OW 1795   2.485   1.620   2.828  0.3669 -0.5195  0.0751
  599SOL    HW1 1796   2.419   1.596   2.756  2.2131 -0.6324 -0.3677
  599SOL    HW2 1797   2.559   1.679   2.790  0.3677  1.0227 -2.8568
  600SOL     OW 1798   0.903   1.172   0.157  0.1455  0.0636  0.1442
  600SOL    HW1 1799   0.895   1.262   0.204 -0.6712  1.9159  1.0106
  600SOL    HW2 1800   0.921   1.189   0.059 -0.2052 -0.1805  2.8437
  601SOL     OW 1801   0.510   0.746   0.800  0.0400  0.5684  0.4275
  601SOL    HW1 1802   0.545   0.840   0.786  2.4167  2.4742 -0.3249
  601SOL    HW2 1803   0.588   0.686   0.834  2.8593 -1.7669 -0.1168
  602SOL     OW 1804   1.580   0.035   0.689 -0.3567 -0.1026 -0.0729
  602SOL    HW1 1805   1.631   3.056   0.628 -0.7879 -0.6847 -0.6027
  602SOL    HW2 1806   1.531   0.105   0.634 -1.8218  1.5714  0.2217
  603SOL     OW 1807   0.881   2.749   2.229 -0.2387 -0.5834  0.2063
  603SOL    HW1 1808   0.943   2.717   2.304 -2.2510  1.6640 -1.6918
  603SOL    HW2 1809   0.875   2.682   2.154  1.3169 -0.2416 -1.3710
  604SOL     OW 1810   2.979   0.086   2.529  0.2172  0.0724  0.1703
  604SOL    HW1 1811   3.068   0.070   2.477 -0.7505 -2.0222  1.7012
  604SOL    HW2 1812   2.906   0.067   2.466 -0.2184 -2.7626  2.3967
  605SOL     OW 1813   2.667   1.389   1.205 -0.2001 -0.4915 -0.0969
  605SOL    HW1 1814   2.599   1.347   1.271 -1.5375  2.1572 -0.6422
  605SOL    HW2 1815   2.726   1.456   1.248  0.8924 -0.7551 -1.4235
  606SOL     OW 1816   0.705   1.483   2.750  0.5867  0.1977 -0.4097
  606SOL    HW1 1817   0.673   1.543   2.827 -0.2623  2.0740  0.2965
  606SOL    HW2 1818   0.631   1.474   2.679 -0.3730  0.2567 -0.9870
  607SOL     OW 1819   0.495   0.174   0.468  0.3304  0.3728 -0.1541
  607SOL    HW1 1820   0.578   0.123   0.493 -1.9156  1.0045  1.8536
  607SOL    HW2 1821   0.510   0.235   0.387  0.1256 -0.7398 -0.4440
  608SOL     OW 1822   1.833   1.621   1.995  0.2191 -0.3356 -0.0272
  608SOL    HW1 1823   1.768   1.543   2.012  1.8063 -1.1346  0.0213
  608SOL    HW2 1824   1.851   1.643   1.896  1.9072  0.0128 -2.0789
  609SOL     OW 1825   2.713   0.322   1.160 -0.8023  0.4781 -0.0504
  609SOL    HW1 1826   2.653   0.242   1.182 -0.2190  2.0106 -0.0800
  609SOL    HW2 1827   2.663   0.413   1.170 -0.2118  1.1209 -0.9010
  610SOL     OW 1828   0.460   2.738   0.716  0.7253 -0.0127  0.1908
  610SOL    HW1 1829   0.546   2.682   0.718  1.2263  1.5284  1.3460
  610SOL    HW2 1830   0.483   2.827   0.761  0.3406 -1.0030  2.2744
  611SOL     OW 1831   1.545   0.969   2.874 -0.1929 -0.2502  0.5261
  611SOL    HW1 1832   1.642   0.997   2.851 -1.4247 -0.2506  2.4175
  611SOL    HW2 1833   1.538   0.989   2.973  1.9009  1.8813 -0.1192
  612SOL     OW 1834   0.592   2.093   2.099 -0.2772  0.0560  0.3620
  612SOL    HW1 1835   0.536   2.062   2.180  4.2848  0.2056 -1.4772
  612SOL    HW2 1836   0.647   2.172   2.126  0.0317 -0.3908 -0.5558
  613SOL     OW 1837   0.614   2.407   0.646 -0.0399 -0.0676  0.0384
  613SOL    HW1 1838   0.543   2.345   0.605 -1.0271 -0.3737 -0.9624
  613SOL    HW2 1839   0.613   2.498   0.594 -0.6359  1.2984 -2.1082
  614SOL     OW 1840   2.435   2.722   1.578  0.3347 -0.5583  0.3207
  614SOL    HW1 1841   2.434   2.631   1.618 -0.1380  1.5338 -0.3108
  614SOL    HW2 1842   2.492   2.790   1.631 -0.9800 -0.4136  0.5754
  615SOL     OW 1843   1.658   1.126   0.216 -0.4643  0.1930 -0.3396
  615SOL    HW1 1844   1.603   1.191   0.270  0.2473  0.4329  1.3794
  615SOL    HW2 1845   1.754   1.159   0.207  0.0697  0.6150  0.9923
  616SOL     OW 1846   1.663   0.857   0.301  0.8313  0.1954  0.5140
  616SOL    HW1 1847   1.667   0.842   0.402  0.3071  0.3900  1.7550
  616SOL    HW2 1848   1.660   0.956   0.276 -0.3009 -0.2517 -0.7166
  617SOL     OW 1849   0.954   1.069   2.785 -0.0705 -0.1588 -0.0187
  617SOL    HW1 1850   1.052   1.045   2.784 -0.4049 -0.7104 -1.3673
  617SOL    HW2 1851   0.945   1.135   2.861 -1.6218 -1.3921 -2.1629
  618SOL     OW 1852   0.776   3.049   1.849 -0.0289 -0.0289 -0.0596
  618SOL    HW1 1853   0.799   3.015   1.946 -0.3238  0.5669  0.7589
  618SOL    HW2 1854   0.677   3.065   1.834  1.1032  2.3819 -0.7667
  619SOL     OW 1855   2.841   1.187   1.440  0.0194 -0.2431  0.3351
  619SOL    HW1 1856   2.922   1.172   1.500  1.1754  0.4264  1.1317
  619SOL    HW2 1857   2.805   1.104   1.399 -0.2823  4.2818  0.0617
  620SOL     OW 1858   2.325   1.021   2.806  1.1391  0.1019 -0.1434
  620SOL    HW1 1859   2.365   1.086   2.736  0.1416 -0.1571 -0.8120
  620SOL    HW2 1860   2.244   0.971   2.767 -0.9748 -0.6213 -0.9639
  621SOL     OW 1861   2.449   2.310   1.510  0.5144 -0.3696 -0.5943
  621SOL    HW1 1862   2.422   2.217   1.472 -0.6319  1.3365 -0.5998
  621SOL    HW2 1863   2.452   2.310   1.612  2.8650 -0.2813 -1.1793
  622SOL     OW 1864   0.959   0.682   2.504 -0.0714  0.0887  0.1750
  622SOL    HW1 1865   0.888   0.727   2.450 -1.1314  1.0985  2.7456
  622SOL    HW2 1866   1.042   0.743   2.497 -0.2008 -0.5161  1.0394
  623SOL     OW 1867   1.057   0.404   2.477 -0.6226  0.3162 -0.5935
  623SOL    HW1 1868   1.004   0.325   2.508  0.0318  0.5660  0.9053
  623SOL    HW2 1869   1.001   0.486   2.454  1.2901 -0.7601 -1.0411
  624SOL     OW 1870   2.053   0.836   0.044 -0.0165 -0.2246  0.4860
  624SOL    HW1 1871   2.054   0.838   3.028 -0.1871 -0.5045  0.9385
  624SOL    HW2 1872   2.138   0.797   0.076  0.4427  3.2425 -1.1596
  625SOL     OW 1873   1.009   1.419   0.959 -0.0928 -0.0107  0.2902
  625SOL    HW1 1874   1.106   1.423   0.930  0.7938  0.9950 -1.3377
  625SOL    HW2 1875   1.009   1.383   1.054  0.9885  1.7700 -0.8644
  626SOL     OW 1876   1.639   1.172   2.346 -0.3283 -0.4710 -0.0369
  626SOL    HW1 1877   1.664   1.087   2.298  0.0767 -0.6648  1.2505
  626SOL    HW2 1878   1.685   1.178   2.436  1.7741 -0.3688 -1.2629
  627SOL     OW 1879   0.874   3.070   2.765  0.1511 -0.8655 -0.4854
  627SOL    HW1 1880   0.924   0.061   2.723 -0.0932  2.0331 -1.3550
  627SOL    HW2 1881   0.869   3.077   2.872  0.8723  1.0150  0.1075
  628SOL     OW 1882   2.333   0.190   2.524 -0.1898  0.2264 -0.6604
  628SOL    HW1 1883   2.295   0.189   2.616  0.4735  1.4569  0.9377
  628SOL    HW2 1884   2.354   0.284   2.495 -0.0998 -3.2728  1.4975
  629SOL     OW 1885   0.917   0.584   2.777 -0.0983  0.1043 -0.0803
  629SOL    HW1 1886   0.911   0.600   2.675 -0.0608 -1.0959  0.5937
  629SOL    HW2 1887   0.972   0.662   2.811 -2.0622  0.6264  1.6738
  630SOL     OW 1888   1.233   0.171   2.125  0.5710 -0.0904 -0.1831
  630SOL    HW1 1889   1.163   0.210   2.186 -1.4167 -3.1063  1.6576
  630SOL    HW2 1890   1.258   0.084   2.160 -0.7191  2.1077 -0.3179
  631SOL     OW 1891   2.863   0.950   0.600  0.4939  0.3084  0.1857
  631SOL    HW1 1892   2.773   0.960   0.552  2.4828 -1.5989 -0.2885
  631SOL    HW2 1893   2.924   0.889   0.547 -0.9175  0.7595  1.2566
  632SOL     OW 1894   1.958   0.820   1.413  0.1998  0.3983  0.3488
  632SOL    HW1 1895   1.973   0.861   1.505 -2.1482 -1.8883  3.6201
  632SOL    HW2 1896   1.954   0.717   1.421 -1.7960 -2.8597  0.4351
  633SOL     OW 1897   0.906   1.329   0.502  0.1477 -0.1463 -0.0214
  633SOL    HW1 1898   0.878   1.349   0.597 -2.5127  1.5984  1.6429
  633SOL    HW2 1899   1.007   1.341   0.489  1.4759 -3.5605 -0.3902
  634SOL     OW 1900   1.928   2.988   0.938 -0.0139  0.5097  0.2034
  634SOL    HW1 1901   1.969   3.068   0.985  0.2348  1.6581 -1.8461
  634SOL    HW2 1902   1.965   2.899   0.973 -0.6864  0.3412  0.2356
  635SOL     OW 1903   1.672   0.653   1.167 -0.0536 -0.6680  0.5935
  635SOL    HW1 1904   1.587   0.687   1.120 -0.7291  1.0953 -0.7495
  635SOL    HW2 1905   1.736   0.724   1.203  1.6645 -6.0299 -1.1252
  636SOL     OW 1906   1.000   1.022   0.530  0.2330  0.0486  0.5659
  636SOL    HW1 1907   0.986   1.104   0.470  0.3534  1.6610  1.9991
  636SOL    HW2 1908   0.909   0.985   0.563 -0.9833 -1.7916  0.1892
  637SOL     OW 1909   2.467   2.141   0.041 -0.1643 -0.6414 -0.0398
  637SOL    HW1 1910   2.520   2.059   0.029 -0.4638  1.4672  0.7352
  637SOL    HW2 1911   2.439   2.180   3.040  0.8433 -2.0989 -0.9857
  638SOL     OW 1912   1.397   2.741   2.543 -0.3346  0.1896 -0.3573
  638SOL    HW1 1913   1.355   2.690   2.464  1.6206 -0.6656  0.4236
  638SOL    HW2 1914   1.433   2.676   2.615 -0.1755  0.8439 -1.1085
  639SOL     OW 1915   0.996   1.990   1.262  0.1287 -0.0979  0.0433
  639SOL    HW1 1916   0.895   1.972   1.232 -1.6967 -0.8375  1.2793
  639SOL    HW2 1917   1.038   2.052   1.193 -0.5100  1.4346 -1.6100
  640SOL     OW 1918   2.518   3.001   0.374  0.1773  0.4170 -0.5604
  640SOL    HW1 1919   2.501   3.023   0.275 -0.9379 -0.0639 -1.0728
  640SOL    HW2 1920   2.469   3.070   0.435  0.9253  3.6992  1.5692
  641SOL     OW 1921   0.531   0.358   0.276  0.7122 -0.7040 -0.1134
  641SOL    HW1 1922   0.439   0.405   0.282 -3.0322 -0.5921  0.2581
  641SOL    HW2 1923   0.584   0.407   0.207  0.1546 -1.8804 -0.0931
  642SOL     OW 1924   2.800   0.712   1.157  0.1512  0.1971 -0.0475
  642SOL    HW1 1925   2.719   0.654   1.140  0.4807  0.2927 -0.5571
  642SOL    HW2 1926   2.822   0.763   1.075 -0.4823  1.5523  0.3863
  643SOL     OW 1927   0.713   1.899   1.974  0.3478 -0.2603  0.1999
  643SOL    HW1 1928   0.658   1.836   1.913 -0.8632 -0.8628 -2.5568
  643SOL    HW2 1929   0.650   1.968   2.022 -0.3570  2.2519  0.1909
  644SOL     OW 1930   1.658   2.583   0.127  0.1514 -0.0499  0.5867
  644SOL    HW1 1931   1.709   2.631   0.052 -0.5474 -0.4107 -1.8632
  644SOL    HW2 1932   1.621   2.654   0.193 -1.5289  0.4606  1.4493
  645SOL     OW 1933   2.068   2.190   0.686 -0.0739  0.1115 -0.1731
  645SOL    HW1 1934   2.079   2.284   0.642  2.7200  0.4430  0.8999
  645SOL    HW2 1935   2.027   2.198   0.780  1.0401  1.6528  0.1166
  646SOL     OW 1936   1.171   2.910   0.346  0.3246  0.3172  0.7345
  646SOL    HW1 1937   1.115   2.828   0.308 -1.4760 -2.1197  0.4745
  646SOL    HW2 1938   1.143   2.996   0.300 -0.6974 -1.9062 -0.2547
  647SOL     OW 1939   0.293   2.705   2.001 -0.1051 -0.3708  0.3380
  647SOL    HW1 1940   0.324   2.774   1.932  1.0670  2.0957 -3.1575
  647SOL    HW2 1941   0.296   2.612   1.959 -1.4797 -0.8290 -2.3307
  648SOL     OW 1942   1.782   0.915   1.247  0.3434  0.3162  0.2867
  648SOL    HW1 1943   1.815   0.962   1.164 -4.3280 -0.6668  0.3927
  648SOL    HW2 1944   1.857   0.885   1.308 -2.4585 -0.3217 -1.6691
  649SOL     OW 1945   1.467   2.620   2.791 -0.1117 -0.1690 -0.0249
  649SOL    HW1 1946   1.539   2.553   2.788  1.4014 -0.1607  1.5729
  649SOL    HW2 1947   1.469   2.685   2.867 -0.8780  1.8218 -3.1175
  650SOL     OW 1948   2.364   1.481   1.573 -0.4484 -0.2381  0.1988
  650SOL    HW1 1949   2.419   1.515   1.650 -1.8648 -1.8397  1.1556
  650SOL    HW2 1950   2.280   1.439   1.608  0.6149 -0.0777  1.3335
  651SOL     OW 1951   1.374   2.201   3.022  0.0979  0.4754 -0.2409
  651SOL    HW1 1952   1.437   2.275   3.050 -1.0776  1.5668  1.2449
  651SOL    HW2 1953   1.390   2.167   2.926 -1.2191  1.3466 -3.1933
  652SOL     OW 1954   0.873   2.589   0.021  0.3594 -0.6356 -0.4045
  652SOL    HW1 1955   0.922   2.671   0.055  0.5968 -2.9104 -0.7658
  652SOL    HW2 1956   0.870   2.589   3.008 -1.0617  1.5775  1.5922
  653SOL     OW 1957   2.419   2.079   1.367  0.0436  0.1559 -0.2363
  653SOL    HW1 1958   2.464   2.129   1.290  0.4702  0.4689  0.0999
  653SOL    HW2 1959   2.326   2.051   1.340 -1.6109 -1.5801  1.0067
  654SOL     OW 1960   2.908   2.606   1.581 -0.1978 -0.3718  0.4441
  654SOL    HW1 1961   2.870   2.689   1.546  1.5517 -1.3474  0.0742
  654SOL    HW2 1962   2.950   2.548   1.506  1.0320 -0.5274 -0.4373
  655SOL     OW 1963   3.039   2.138   1.203  0.0879 -0.2780 -0.2205
  655SOL    HW1 1964   2.956   2.075   1.214 -0.3229 -3.5598 -0.6154
  655SOL    HW2 1965   3.012   2.229   1.175  0.9736  0.3389  0.6275
  656SOL     OW 1966   0.091   2.697   2.701  0.4395 -0.4012  0.2219
  656SOL    HW1 1967   0.174   2.699   2.643 -0.5666 -0.7433  0.5670
  656SOL    HW2 1968   0.048   2.792   2.702 -0.5664  0.3756  0.8999
  657SOL     OW 1969   3.046   0.962   0.228  0.3055 -0.1683  0.4134
  657SOL    HW1 1970   3.011   1.018   0.149  0.4491  1.2716  0.7155
  657SOL    HW2 1971   0.055   0.943   0.218 -1.0988 -1.1996 -0.0070
  658SOL     OW 1972   2.110   1.771   0.802 -0.0157 -0.2846  0.1347
  658SOL    HW1 1973   2.162   1.696   0.844 -3.7708 -1.8686 -2.1232
  658SOL    HW2 1974   2.157   1.864   0.811  1.3806  1.1726 -0.6369
  659SOL     OW 1975   1.391   0.650   1.406 -0.1772  0.3351 -0.5524
  659SOL    HW1 1976   1.453   0.728   1.374  2.0729 -1.2402 -0.7558
  659SOL    HW2 1977   1.413   0.559   1.363  0.3958  3.2323  1.0391
  660SOL     OW 1978   1.466   1.567   0.150  0.5287 -0.0125  0.0491
  660SOL    HW1 1979   1.515   1.495   0.101  1.9448 -2.7302 -0.6541
  660SOL    HW2 1980   1.447   1.537   0.247  0.9509 -0.8668  0.4299
  661SOL     OW 1981   0.142   2.054   0.544 -0.0241  0.0626  0.0393
  661SOL    HW1 1982   0.197   2.093   0.465 -0.4848 -0.2111 -1.7447
  661SOL    HW2 1983   0.046   2.077   0.524 -3.0800 -1.5839 -2.5923
  662SOL     OW 1984   2.912   0.583   2.005  0.2775 -0.4035  0.3590
  662SOL    HW1 1985   2.915   0.620   2.102 -2.0319 -0.1389  1.4598
  662SOL    HW2 1986   2.973   0.642   1.949  1.0379  1.4185  3.5386
  663SOL     OW 1987   2.092   1.473   0.961  0.0550  0.0330  0.1338
  663SOL    HW1 1988   2.101   1.373   0.959  0.4278 -0.1728 -1.0768
  663SOL    HW2 1989   2.173   1.521   1.002 -1.8263  0.3309  1.4906
  664SOL     OW 1990   0.633   0.420   1.234  0.3690 -0.1352 -0.1189
  664SOL    HW1 1991   0.735   0.434   1.216 -1.9272  0.1895 -0.8252
  664SOL    HW2 1992   0.612   0.325   1.214  3.5149  1.2061 -0.4323
  665SOL     OW 1993   1.245   2.971   2.997  0.0784  0.1771 -0.0011
  665SOL    HW1 1994   1.281   2.948   2.904  3.9577 -1.3000 -1.6859
  665SOL    HW2 1995   1.176   3.040   2.983  3.1450 -1.9077 -1.7807
  666SOL     OW 1996   0.101   0.479   2.398 -0.1778  0.2164  0.0736
  666SOL    HW1 1997   0.147   0.396   2.437  2.6950 -1.3946 -0.3836
  666SOL    HW2 1998   0.011   0.441   2.359  1.0398 -1.4006 -2.4530
  667SOL     OW 1999   2.065   1.731   2.104  0.4927 -0.8497  0.7388
  667SOL    HW1 2000   2.077   1.725   2.209  0.3196 -2.5003  1.5688
  667SOL    HW2 2001   1.980   1.679   2.078  0.6916 -0.5871  1.7942
  668SOL     OW 2002   0.067   1.679   2.939  0.1689  0.4190  0.0474
  668SOL    HW1 2003   0.135   1.610   2.908 -0.1510 -1.3157  0.0976
  668SOL    HW2 2004   3.063   1.635   2.966 -1.6602 -0.3575 -0.0918
  669SOL     OW 2005   2.217   2.677   2.438  0.1133  0.2978  0.9559
  669SOL    HW1 2006   2.265   2.592   2.413  1.2666  0.6672 -3.1088
  669SOL    HW2 2007   2.196   2.740   2.361 -2.5974  0.8655  3.5825
  670SOL     OW 2008   2.482   1.050   2.404  0.3347 -0.1029  0.4503
  670SOL    HW1 2009   2.444   1.075   2.308  2.1266  1.6108 -0.6189
  670SOL    HW2 2010   2.410   0.992   2.452 -0.3707 -1.2086 -2.1023
  671SOL     OW 2011   2.392   1.226   0.260 -0.4610  0.2416 -0.6297
  671SOL    HW1 2012   2.417   1.212   0.162 -0.0865 -0.4247 -0.4122
  671SOL    HW2 2013   2.454   1.292   0.308  0.0449 -0.0092  2.1664
  672SOL     OW 2014   2.745   1.100   2.397 -0.4317  0.1121 -0.2511
  672SOL    HW1 2015   2.771   1.137   2.489  1.8217 -2.3112  1.0230
  672SOL    HW2 2016   2.651   1.057   2.401  3.1834 -1.8388 -2.4949
  673SOL     OW 2017   2.541   0.976   1.471  0.0845  0.3255  0.0952
  673SOL    HW1 2018   2.505   1.045   1.401  0.8240  1.5623 -1.8009
  673SOL    HW2 2019   2.622   0.927   1.430  0.4601  0.5712 -1.1507
  674SOL     OW 2020   1.642   1.843   1.566 -0.1868 -0.4069 -0.4801
  674SOL    HW1 2021   1.679   1.851   1.471 -0.9985  2.0073 -1.1750
  674SOL    HW2 2022   1.548   1.805   1.563  0.2943  0.0351  0.1966
  675SOL     OW 2023   3.032   0.522   0.884  0.5080  0.5276 -0.0217
  675SOL    HW1 2024   3.072   0.617   0.857  1.6204  2.9776  1.9505
  675SOL    HW2 2025   0.020   0.447   0.885  3.0855 -0.7240  0.4814
  676SOL     OW 2026   2.038   0.941   1.089 -0.0318 -0.4687 -0.5126
  676SOL    HW1 2027   2.111   0.925   1.159 -1.6908 -0.2615 -0.2048
  676SOL    HW2 2028   1.992   0.855   1.067  1.6670 -0.6487 -0.1243
  677SOL     OW 2029   1.698   1.802   2.152  0.2742 -0.1843  0.1575
  677SOL    HW1 2030   1.600   1.801   2.128  1.4402  1.1511 -0.2941
  677SOL    HW2 2031   1.750   1.733   2.098 -0.3205  1.3678  0.1840
  678SOL     OW 2032   3.039   1.790   0.943  0.1839 -0.3040  0.7598
  678SOL    HW1 2033   0.010   1.823   1.022 -2.1375  2.1473  0.6267
  678SOL    HW2 2034   2.970   1.719   0.984 -3.5758 -3.9086  1.8655
  679SOL     OW 2035   2.988   2.892   0.512  0.0081 -0.5215  0.2384
  679SOL    HW1 2036   2.953   2.984   0.476 -0.2937  1.3063  2.5432
  679SOL    HW2 2037   2.932   2.861   0.590  1.5275  0.8277 -0.3556
  680SOL     OW 2038   0.190   2.160   1.354  0.0568 -0.1917 -0.2538
  680SOL    HW1 2039   0.266   2.091   1.330 -0.7069 -1.9104 -0.6424
  680SOL    HW2 2040   0.101   2.146   1.304  4.5741 -0.4426 -0.6646
  681SOL     OW 2041   0.841   0.710   1.163 -0.0858  0.4800  0.2582
  681SOL    HW1 2042   0.774   0.716   1.242  0.8793  0.1521 -0.6264
  681SOL    HW2 2043   0.916   0.647   1.183  3.1335  0.8250 -0.0731
  682SOL     OW 2044   1.761   2.762   0.765  0.0343 -0.2368  0.2222
  682SOL    HW1 2045   1.820   2.811   0.834 -1.8813  0.3125  2.8574
  682SOL    HW2 2046   1.744   2.673   0.807  0.0406  0.8458  1.9912
  683SOL     OW 2047   2.078   1.252   1.277  0.0144 -0.0094  0.4740
  683SOL    HW1 2048   2.088   1.353   1.271 -2.4741  1.2116 -0.5510
  683SOL    HW2 2049   2.169   1.205   1.285 -0.7631  0.2933  2.0795
  684SOL     OW 2050   0.148   1.551   1.760  0.3109 -0.3904 -0.6424
  684SOL    HW1 2051   0.213   1.519   1.691 -0.4216  0.0717  2.0622
  684SOL    HW2 2052   0.053   1.506   1.751 -0.0529 -0.7603 -2.1323
  685SOL     OW 2053   2.231   1.749   0.170 -0.1247 -0.3014  0.6335
  685SOL    HW1 2054   2.151   1.687   0.164 -0.2915  2.1236  0.2310
  685SOL    HW2 2055   2.267   1.752   0.079 -1.9480  0.0383 -0.3584
  686SOL     OW 2056   2.807   0.369   0.463 -0.2233 -0.0102  0.6319
  686SOL    HW1 2057   2.707   0.357   0.434 -1.6325  0.4237  0.4786
  686SOL    HW2 2058   2.809   0.399   0.560 -0.6039 -1.9989 -1.0054
  687SOL     OW 2059   1.436   2.992   0.086  0.2234  0.8036 -0.4439
  687SOL    HW1 2060   1.431   3.069   0.157  0.3459  1.3472  0.5280
  687SOL    HW2 2061   1.353   2.990   0.029  1.9894 -1.2973  0.6477
  688SOL     OW 2062   2.007   1.990   2.114 -0.1278  0.0926  0.0512
  688SOL    HW1 2063   2.013   1.891   2.096  0.4192 -2.5074 -1.7050
  688SOL    HW2 2064   2.016   2.014   2.214  2.6351  0.5512  0.3861
  689SOL     OW 2065   2.653   0.896   1.977 -0.4927  0.4396  0.0385
  689SOL    HW1 2066   2.557   0.874   1.996 -1.2872  0.7470  0.4627
  689SOL    HW2 2067   2.683   0.838   1.901 -0.8499  0.0871  2.9565
  690SOL     OW 2068   2.129   1.173   0.959  0.4132  0.1432  0.2867
  690SOL    HW1 2069   2.134   1.149   0.860 -0.5802 -0.4403 -1.9381
  690SOL    HW2 2070   2.103   1.092   1.011  0.4402  0.7378 -2.3921
  691SOL     OW 2071   1.122   1.291   1.212 -0.3945 -0.1311  0.4503
  691SOL    HW1 2072   1.130   1.201   1.261  0.1690  0.5284  1.1798
  691SOL    HW2 2073   1.033   1.333   1.229 -0.4065  0.5274 -0.7860
  692SOL     OW 2074   1.731   0.258   2.312 -0.2241 -0.0784  0.0970
  692SOL    HW1 2075   1.709   0.216   2.219  2.4963 -2.1314 -0.5919
  692SOL    HW2 2076   1.775   0.350   2.304 -1.7182  3.8385 -1.1198
  693SOL     OW 2077   0.149   1.298   2.772  0.5242 -0.2127 -0.5319
  693SOL    HW1 2078   0.205   1.227   2.823 -0.7186  3.8533 -0.7962
  693SOL    HW2 2079   0.102   1.253   2.694 -1.0926  0.5386  0.2247
  694SOL     OW 2080   2.295   2.799   0.699 -0.0578  0.3029  0.2808
  694SOL    HW1 2081   2.392   2.775   0.670  1.1143 -0.8159 -1.6862
  694SOL    HW2 2082   2.253   2.873   0.645  1.1754 -4.0928 -1.8008
  695SOL     OW 2083   1.572   1.457   2.678  0.4664  0.3447 -0.3853
  695SOL    HW1 2084   1.664   1.490   2.663 -1.2554  0.0336  0.4450
  695SOL    HW2 2085   1.498   1.528   2.687  0.8571  0.6312 -0.0359
  696SOL     OW 2086   1.754   0.382   1.593  0.0024  0.1815 -0.1715
  696SOL    HW1 2087   1.773   0.402   1.691 -1.0762 -1.5383 -2.0507
  696SOL    HW2 2088   1.718   0.289   1.578 -0.3014 -1.4705  0.2724
  697SOL     OW 2089   1.695   0.324   1.895 -0.0289 -0.1688 -0.3624
  697SOL    HW1 2090   1.731   0.257   1.962 -0.7359  1.1538 -0.5354
  697SOL    HW2 2091   1.610   0.292   1.852 -1.5942  0.9216 -1.8269
  698SOL     OW 2092   1.836   1.416   2.316 -0.0005 -0.1296 -0.2407
  698SOL    HW1 2093   1.770   1.355   2.359  0.6024 -1.3549  1.1484
  698SOL    HW2 2094   1.815   1.515   2.321  0.7833  1.0749 -1.1253
  699SOL     OW 2095   1.876   1.206   0.538 -0.4413  0.6866 -0.3195
  699SOL    HW1 2096   1.788   1.223   0.587  0.9379 -0.4351  0.2839
  699SOL    HW2 2097   1.922   1.116   0.564 -1.2154 -0.0887 -2.9303
  700SOL     OW 2098   1.560   2.777   0.297  0.3889 -0.5162  0.5777
  700SOL    HW1 2099   1.606   2.756   0.384 -1.8831 -0.6217 -0.5731
  700SOL    HW2 2100   1.488   2.847   0.318 -0.6922 -1.5598 -0.4864
  701SOL     OW 2101   0.315   0.184   1.314  0.3593 -0.2291  0.1257
  701SOL    HW1 2102   0.269   0.276   1.327 -0.6932 -0.1207  1.7110
  701SOL    HW2 2103   0.368   0.157   1.396 -0.6796  1.1724 -0.7915
  702SOL     OW 2104   1.723   2.821   1.234  0.0366  0.1426  0.2599
  702SOL    HW1 2105   1.789   2.758   1.189 -0.1831  1.0089 -0.6745
  702SOL    HW2 2106   1.649   2.776   1.291 -3.8999 -0.1959 -0.7611
  703SOL     OW 2107   2.479   2.882   2.292 -0.3067 -0.6384 -0.2808
  703SOL    HW1 2108   2.508   2.915   2.388 -1.3645 -1.7507  2.3685
  703SOL    HW2 2109   2.518   2.789   2.279 -0.5754  1.3628 -0.1786
  704SOL     OW 2110   1.475   2.230   0.960  0.3039  0.2573 -0.0572
  704SOL    HW1 2111   1.419   2.216   1.048 -0.8864  1.0298  3.5076
  704SOL    HW2 2112   1.428   2.297   0.901 -1.5129  0.8353  1.0684
  705SOL     OW 2113   0.207   1.769   2.229  0.1976  0.1492 -0.1484
  705SOL    HW1 2114   0.309   1.775   2.252  0.8377 -0.7905  1.0210
  705SOL    HW2 2115   0.164   1.687   2.272 -0.2260  0.8141 -2.6259
  706SOL     OW 2116   1.707   0.332   0.078  0.0818 -0.0647  0.2983
  706SOL    HW1 2117   1.696   0.261   0.004  1.3969  1.2299 -0.1792
  706SOL    HW2 2118   1.702   0.277   0.164  1.2480  0.7953 -1.3225
  707SOL     OW 2119   1.484   2.687   2.147  0.0889  0.0154  0.1041
  707SOL    HW1 2120   1.529   2.597   2.167  1.3844  1.4374 -1.3095
  707SOL    HW2 2121   1.509   2.716   2.050  0.8984 -0.7785  1.2470
  708SOL     OW 2122   0.636   1.991   1.560  0.0753  0.0695  0.3659
  708SOL    HW1 2123   0.664   1.900   1.528 -2.1171  1.6269 -0.2859
  708SOL    HW2 2124   0.723   2.047   1.569 -0.7514  1.5727  1.1745
  709SOL     OW 2125   2.603   0.596   1.886 -0.1009  0.0282  0.2097
  709SOL    HW1 2126   2.697   0.594   1.919  1.5218  0.7490 -1.2718
  709SOL    HW2 2127   2.557   0.506   1.894  0.1851 -0.2632  0.5051
  710SOL     OW 2128   3.015   0.148   1.431 -0.0314 -0.4001  0.4388
  710SOL    HW1 2129   3.001   0.210   1.355  2.3892  0.2378  0.0963
  710SOL    HW2 2130   3.023   0.207   1.516  0.3662  0.4859  2.3984
  711SOL     OW 2131   3.063   2.399   0.528 -0.0067  0.2860  0.4320
  711SOL    HW1 2132   0.075   2.388   0.557 -0.8283  0.4285 -2.5037
  711SOL    HW2 2133   3.047   2.489   0.479 -1.9788  2.1760 -1.7936
  712SOL     OW 2134   0.360   2.779   2.585  0.6997  0.5275 -0.0802
  712SOL    HW1 2135   0.410   2.866   2.598 -3.4670  2.0724  1.9470
  712SOL    HW2 2136   0.417   2.704   2.622 -0.0406  1.4808 -3.0344
  713SOL     OW 2137   1.948   0.524   0.264 -0.4129  0.2616  0.2522
  713SOL    HW1 2138   1.963   0.484   0.168 -0.5595  0.9441 -3.4877
  713SOL    HW2 2139   1.852   0.505   0.301 -0.8521 -2.8315 -0.9050
  714SOL     OW 2140   1.718   2.090   0.438  0.0888 -0.1449 -0.2906
  714SOL    HW1 2141   1.663   2.169   0.469 -2.4739  2.3508  1.7258
  714SOL    HW2 2142   1.814   2.105   0.464 -3.4351  0.4275  0.7343
  715SOL     OW 2143   0.060   0.473   0.151 -0.4234  0.3610 -0.1849
  715SOL    HW1 2144   0.019   0.552   0.105  0.8067 -1.7370 -1.1076
  715SOL    HW2 2145   0.147   0.486   0.207  3.1391  0.6794 -1.1850
  716SOL     OW 2146   0.914   2.963   2.073 -0.7327  0.1705 -0.3382
  716SOL    HW1 2147   0.991   2.932   2.014 -0.3466 -1.1480 -2.2682
  716SOL    HW2 2148   0.888   2.888   2.139 -1.6198 -2.2051  0.9636
  717SOL     OW 2149   0.309   0.594   2.613 -0.2999  0.3805 -0.0562
  717SOL    HW1 2150   0.402   0.594   2.580 -1.8671  2.5618 -1.1526
  717SOL    HW2 2151   0.261   0.678   2.583  0.6845 -1.7175 -2.1685
  718SOL     OW 2152   1.110   0.774   0.507  0.4394 -0.0627  0.0461
  718SOL    HW1 2153   1.109   0.874   0.522  1.9189 -2.0903  2.4554
  718SOL    HW2 2154   1.019   0.728   0.502  1.0354 -0.5983 -0.7106
  719SOL     OW 2155   2.416   2.220   2.879 -0.0644  0.2382 -0.8186
  719SOL    HW1 2156   2.439   2.146   2.813  1.7227 -0.0946 -0.1959
  719SOL    HW2 2157   2.416   2.308   2.828  0.9719 -3.1797  0.4229
  720SOL     OW 2158   1.486   0.872   1.859  0.5743 -0.0718 -0.1561
  720SOL    HW1 2159   1.547   0.891   1.782 -0.5181 -3.3047 -0.4072
  720SOL    HW2 2160   1.487   0.772   1.878 -0.5802  2.6386  0.6647
  721SOL     OW 2161   0.051   2.901   1.160  0.2037  0.0771 -0.2062
  721SOL    HW1 2162   0.052   3.002   1.151  1.0832 -3.2575 -2.6011
  721SOL    HW2 2163   0.119   2.854   1.098  2.4065 -0.2050  0.2238
  722SOL     OW 2164   1.182   1.992   2.722 -0.4982 -0.6539 -0.0709
  722SOL    HW1 2165   1.282   2.022   2.724 -1.7184  1.8201 -2.5840
  722SOL    HW2 2166   1.158   1.948   2.638  2.3889  0.5024  2.6419
  723SOL     OW 2167   1.547   0.628   0.638  0.0741  0.1595  0.1916
  723SOL    HW1 2168   1.456   0.645   0.690  0.1388 -0.2357  1.2450
  723SOL    HW2 2169   1.610   0.580   0.700 -0.4558  0.0422 -0.4833
  724SOL     OW 2170   0.433   2.086   2.804  0.3778  0.6135  0.1202
  724SOL    HW1 2171   0.428   2.017   2.731  0.8899  0.0075 -0.4114
  724SOL    HW2 2172   0.512   2.066   2.863 -1.1829 -0.1368  0.5446
  725SOL     OW 2173   3.038   0.529   1.186 -0.8377 -0.4673 -0.0104
  725SOL    HW1 2174   2.999   0.611   1.236 -3.2569 -1.3966  0.3077
  725SOL    HW2 2175   2.996   0.522   1.095 -2.9692 -1.3155  0.8576
  726SOL     OW 2176   1.934   0.034   0.693 -0.0332  0.3214  0.5671
  726SOL    HW1 2177   1.869   0.008   0.619  0.7043  1.8030 -1.1534
  726SOL    HW2 2178   1.935   3.059   0.771  1.0963 -0.2894  2.3786
  727SOL     OW 2179   1.812   1.216   2.035 -0.0734  0.3146 -0.2570
  727SOL    HW1 2180   1.758   1.299   2.043  0.1809  0.1362 -0.0968
  727SOL    HW2 2181   1.791   1.163   2.122 -0.8841 -1.4200  0.5020
  728SOL     OW 2182   1.550   2.713   1.395  0.3995  0.0231 -0.3560
  728SOL    HW1 2183   1.482   2.788   1.411 -1.1158  2.5965  2.4826
  728SOL    HW2 2184   1.507   2.621   1.373  0.1351 -1.2027 -2.2881
  729SOL     OW 2185   1.818   0.515   2.296  0.0951  0.3863 -0.0365
  729SOL    HW1 2186   1.904   0.552   2.259 -1.2952 -1.3226  2.7930
  729SOL    HW2 2187   1.746   0.547   2.228  1.6048 -1.3202 -0.0638
  730SOL     OW 2188   0.586   1.010   1.281 -0.0107  0.2156  0.2328
  730SOL    HW1 2189   0.598   0.910   1.301 -0.5023  0.8855  1.0975
  730SOL    HW2 2190   0.522   1.019   1.198  2.2492 -0.3906 -3.8877
  731SOL     OW 2191   0.598   0.117   0.080 -0.1937  0.0939  0.5626
  731SOL    HW1 2192   0.679   0.160   0.115 -1.4932 -2.0046 -1.7600
  731SOL    HW2 2193   0.523   0.184   0.087  0.2275 -0.7728 -1.2003
  732SOL     OW 2194   0.579   0.756   0.299  0.0199  0.1604 -0.5512
  732SOL    HW1 2195   0.542   0.706   0.382 -1.6057 -1.7503  1.4058
  732SOL    HW2 2196   0.613   0.852   0.310  2.3648  1.2030  1.3373
  733SOL     OW 2197   1.308   1.602   2.241 -0.3949  0.2814 -0.1665
  733SOL    HW1 2198   1.361   1.668   2.192 -0.9644 -3.4593  0.2425
  733SOL    HW2 2199   1.381   1.535   2.278 -0.0838 -0.8681 -2.1070
  734SOL     OW 2200   0.060   2.278   2.136 -0.0006  0.5720 -0.2553
  734SOL    HW1 2201   0.057   2.306   2.039 -1.4204 -0.1047 -1.9755
  734SOL    HW2 2202   3.083   2.337   2.190  0.4177 -2.0756 -4.2223
  735SOL     OW 2203   1.583   0.279   0.988 -0.1435  0.8059 -0.4889
  735SOL    HW1 2204   1.625   0.181   0.976  2.0111 -0.0204  0.8039
  735SOL    HW2 2205   1.485   0.289   0.964 -0.4868  0.7142 -2.9413
  736SOL     OW 2206   0.959   1.263   2.980  0.2031  0.2228  0.8041
  736SOL    HW1 2207   0.902   1.345   2.993 -1.9128 -2.7572  0.4744
  736SOL    HW2 2208   1.050   1.284   3.021  0.7874 -0.2593 -0.9438
  737SOL     OW 2209   0.034   0.771   0.751 -0.1112  0.2198 -0.6709
  737SOL    HW1 2210   0.130   0.806   0.746  4.3763  0.9877  0.0980
  737SOL    HW2 2211   3.073   0.762   0.662 -0.8065 -0.7131 -0.1444
  738SOL     OW 2212   0.549   2.253   1.497  0.0500 -0.2584  0.4238
  738SOL    HW1 2213   0.639   2.295   1.480 -3.7286  1.5790  1.6458
  738SOL    HW2 2214   0.568   2.155   1.513  2.4637  0.3965 -0.4027
  739SOL     OW 2215   1.329   2.600   0.018 -0.0740  0.3532 -0.2745
  739SOL    HW1 2216   1.385   2.517   3.077 -0.3046 -2.5835 -2.6282
  739SOL    HW2 2217   1.388   2.680   0.009 -0.0879 -0.5677 -0.3457
  740SOL     OW 2218   1.910   2.609   1.191 -0.7320 -0.1466 -0.4972
  740SOL    HW1 2219   1.941   2.619   1.291  0.7271 -2.2177  0.7800
  740SOL    HW2 2220   1.876   2.514   1.167 -1.7488  0.7264  0.5807
  741SOL     OW 2221   2.164   0.399   0.874  0.0162 -0.2654 -0.1103
  741SOL    HW1 2222   2.141   0.499   0.886  1.6362  2.2462  2.9319
  741SOL    HW2 2223   2.167   0.347   0.960 -1.2112  1.1474 -1.8476
  742SOL     OW 2224   1.230   2.394   2.421  0.1281 -0.1926  0.2184
  742SOL    HW1 2225   1.259   2.305   2.387 -0.2993  3.1585  1.1190
  742SOL    HW2 2226   1.153   2.378   2.486  1.2683 -1.2220 -0.6409
  743SOL     OW 2227   2.400   0.784   2.028 -0.2976 -0.2436  0.6142
  743SOL    HW1 2228   2.322   0.780   1.965  2.9008  0.3930  2.2195
  743SOL    HW2 2229   2.451   0.696   2.037 -3.3543  4.4521 -0.3624
  744SOL     OW 2230   1.954   0.682   1.045  0.4893 -0.8036  0.0272
  744SOL    HW1 2231   2.007   0.674   0.958 -1.4937  3.8371 -0.1162
  744SOL    HW2 2232   1.852   0.691   1.033  0.0354 -1.8308  0.0654
  745SOL     OW 2233   2.329   1.108   1.887 -0.0433 -0.4762 -0.0834
  745SOL    HW1 2234   2.416   1.106   1.831  0.3753  0.9344  0.1082
  745SOL    HW2 2235   2.285   1.018   1.876 -1.2430  1.5496 -0.1424
  746SOL     OW 2236   1.401   1.738   0.651  0.0483  0.0192 -0.0812
  746SOL    HW1 2237   1.422   1.822   0.605 -1.8482 -1.5791 -1.3035
  746SOL    HW2 2238   1.342   1.755   0.735 -1.5011 -0.9183  3.2804
  747SOL     OW 2239   1.993   1.873   1.067 -0.1515 -0.3924 -0.3559
  747SOL    HW1 2240   1.902   1.890   1.027  1.3731 -1.2576  1.3390
  747SOL    HW2 2241   2.034   1.792   1.018  0.4480 -0.5238 -1.7300
  748SOL     OW 2242   0.403   2.718   0.435 -0.2863  0.1592  0.0878
  748SOL    HW1 2243   0.425   2.728   0.530 -0.1298  1.8023 -1.1315
  748SOL    HW2 2244   0.423   2.810   0.391  3.1099  2.4021 -1.5837
  749SOL     OW 2245   0.232   0.965   2.286 -0.4092 -0.3763 -0.6530
  749SOL    HW1 2246   0.211   0.936   2.191 -2.3030 -1.8516  0.8190
  749SOL    HW2 2247   0.155   1.027   2.310 -0.7433 -0.2207  1.4005
  750SOL     OW 2248   1.550   2.820   1.918 -0.5483 -0.1233  0.1398
  750SOL    HW1 2249   1.606   2.803   1.833  0.2460  1.2517 -0.8128
  750SOL    HW2 2250   1.558   2.917   1.948 -2.7819  2.5379 -0.1570
  751SOL     OW 2251   2.739   0.585   0.089 -0.6214 -0.0882 -0.0142
  751SOL    HW1 2252   2.734   0.623   0.183  2.2381 -1.3867 -1.9479
  751SOL    HW2 2253   2.678   0.505   0.080 -0.3756  1.3522  0.1616
  752SOL     OW 2254   0.176   2.119   0.799  0.4232 -0.0535 -0.8547
  752SOL    HW1 2255   0.169   2.076   0.707 -0.5049  1.2537  3.0990
  752SOL    HW2 2256   0.093   2.180   0.818 -2.6499 -0.0178 -0.4427
  753SOL     OW 2257   0.857   3.078   0.875 -0.0330  0.0390 -0.4288
  753SOL    HW1 2258   0.936   0.053   0.855  0.1670  1.2126  3.1660
  753SOL    HW2 2259   0.771   0.042   0.895 -1.5906 -2.5532  1.3848
  754SOL     OW 2260   0.614   0.048   2.318 -0.1033 -0.3263 -0.0317
  754SOL    HW1 2261   0.521   0.071   2.291  1.7604 -2.3136  3.1617
  754SOL    HW2 2262   0.623   3.035   2.322  2.1679  0.7443 -1.0152
  755SOL     OW 2263   1.833   1.062   2.946  0.1823 -0.5890  0.0036
  755SOL    HW1 2264   1.776   1.144   2.964  1.2956 -0.9112 -0.7584
  755SOL    HW2 2265   1.802   0.987   3.007 -0.7556  3.1002 -2.5359
  756SOL     OW 2266   2.181   2.249   2.643  0.0623  0.3289 -0.1994
  756SOL    HW1 2267   2.226   2.174   2.593 -1.4595  0.8583 -2.3404
  756SOL    HW2 2268   2.149   2.217   2.738  0.0939  1.1369 -1.0678
  757SOL     OW 2269   1.695   0.544   0.405 -0.1722  0.1684 -0.2263
  757SOL    HW1 2270   1.629   0.567   0.480 -1.1739  0.2279  0.5230
  757SOL    HW2 2271   1.740   0.457   0.431  0.9865  1.2887  0.8750
  758SOL     OW 2272   1.784   0.381   1.159 -0.3528  0.3053  0.3608
  758SOL    HW1 2273   1.715   0.345   1.095  2.1899 -1.3510 -0.9583
  758SOL    HW2 2274   1.766   0.478   1.172 -0.4653  1.1502  1.0846
  759SOL     OW 2275   2.564   0.547   1.164 -0.1413 -0.1142 -0.1483
  759SOL    HW1 2276   2.492   0.601   1.210  0.9003  1.5522  1.9122
  759SOL    HW2 2277   2.545   0.527   1.064  1.5515  1.5433 -0.2907
  760SOL     OW 2278   2.334   1.107   1.283 -0.2602 -0.0910  0.3129
  760SOL    HW1 2279   2.361   1.106   1.183  0.7236  1.0711 -0.7524
  760SOL    HW2 2280   2.268   1.031   1.301  1.9479 -0.4975  0.5261
  761SOL     OW 2281   0.306   0.570   0.246 -0.3255  0.2740  0.1964
  761SOL    HW1 2282   0.356   0.629   0.183 -1.6803 -2.2790 -2.8328
  761SOL    HW2 2283   0.287   0.613   0.336  1.7547 -1.8023 -0.9559
  762SOL     OW 2284   1.413   1.839   1.302 -0.6214 -0.1683  0.9244
  762SOL    HW1 2285   1.510   1.853   1.328  0.3872  0.2905  1.4996
  762SOL    HW2 2286   1.403   1.778   1.222  2.0642  0.0787 -0.5964
  763SOL     OW 2287   1.218   1.251   1.984 -1.0333 -0.3569  0.3855
  763SOL    HW1 2288   1.254   1.329   1.929  1.7543 -2.6682  1.4112
  763SOL    HW2 2289   1.256   1.170   1.940  3.3379  0.1523  0.6737
  764SOL     OW 2290   3.013   1.830   2.601  0.0291  1.0179  0.8036
  764SOL    HW1 2291   2.970   1.903   2.537 -0.3631  0.4706  0.5972
  764SOL    HW2 2292   3.016   1.868   2.697 -0.2260 -1.2451 -0.3225
  765SOL     OW 2293   1.228   2.548   1.207 -0.0154  0.2563  0.5087
  765SOL    HW1 2294   1.316   2.567   1.158 -0.9808 -1.8971  1.4339
  765SOL    HW2 2295   1.146   2.541   1.143 -2.6349 -0.3965 -1.9962
  766SOL     OW 2296   3.076   2.471   2.560 -0.2849  0.7835 -0.5194
  766SOL    HW1 2297   0.011   2.556   2.612 -2.3547 -0.4943  1.2596
  766SOL    HW2 2298   3.053   2.391   2.623 -1.9401 -3.6981  0.5829
  767SOL     OW 2299   1.173   0.878   2.191  0.5499  0.3556  0.1714
  767SOL    HW1 2300   1.236   0.946   2.235 -1.2205  2.0370 -2.3462
  767SOL    HW2 2301   1.202   0.782   2.207 -0.4064  1.2720  1.5802
  768SOL     OW 2302   1.092   2.193   3.046  0.3082 -0.2568  0.7445
  768SOL    HW1 2303   1.188   2.217   3.036 -2.4004  0.4116  0.7112
  768SOL    HW2 2304   1.060   2.116   2.981 -1.3485 -1.2767 -0.4001
  769SOL     OW 2305   0.433   2.067   1.270  0.0320 -0.2434 -0.1808
  769SOL    HW1 2306   0.488   1.990   1.296 -2.2913  3.7699 -0.9939
  769SOL    HW2 2307   0.501   2.137   1.234  0.8877  1.9021 -1.3285
  770SOL     OW 2308   1.533   0.711   2.789 -0.3717 -0.3631  0.2372
  770SOL    HW1 2309   1.604   0.659   2.835  0.1087  1.2269  1.5740
  770SOL    HW2 2310   1.535   0.810   2.822  0.5951  1.4700 -2.4136
  771SOL     OW 2311   0.079   0.060   2.074 -0.6351  0.4436  0.2929
  771SOL    HW1 2312   0.049   3.084   2.002 -2.7765 -1.9163  0.3783
  771SOL    HW2 2313   0.149   0.119   2.032  0.5190 -1.3393 -1.1477
  772SOL     OW 2314   2.163   2.640   2.090 -0.0908  0.3321  0.8608
  772SOL    HW1 2315   2.215   2.561   2.127  1.5722  1.1450  0.9572
  772SOL    HW2 2316   2.207   2.667   2.000  0.1045 -2.1375 -2.6746
  773SOL     OW 2317   1.039   1.876   1.582  0.4782  0.4439 -0.8623
  773SOL    HW1 2318   0.960   1.840   1.536  0.2481 -1.6130  0.9945
  773SOL    HW2 2319   1.025   1.974   1.601  0.0133 -2.2030  0.8810
  774SOL     OW 2320   1.092   0.080   1.898 -0.0662 -0.5240  0.0520
  774SOL    HW1 2321   1.148   0.115   1.979 -1.7407 -1.5671  2.9134
  774SOL    HW2 2322   1.048   0.153   1.845  1.3789 -0.2882  0.8815
  775SOL     OW 2323   2.049   2.992   3.080  0.6946  0.1390  0.0843
  775SOL    HW1 2324   2.050   3.059   3.002  1.1050 -2.4049  2.2034
  775SOL    HW2 2325   2.053   2.895   3.053 -0.1593 -1.8597  0.7206
  776SOL     OW 2326   2.866   0.706   2.262 -0.1748 -0.0766  0.3408
  776SOL    HW1 2327   2.781   0.709   2.314  3.0018  1.6390  0.0893
  776SOL    HW2 2328   2.873   0.796   2.220  0.8970 -0.6765  2.0544
  777SOL     OW 2329   2.568   2.078   2.161 -0.0872 -0.0593 -0.5429
  777SOL    HW1 2330   2.481   2.086   2.109 -1.6201  0.6104 -0.0799
  777SOL    HW2 2331   2.621   2.161   2.151 -0.7529 -4.1052 -0.4868
  778SOL     OW 2332   1.867   0.989   2.250  0.3688  0.1902 -0.0497
  778SOL    HW1 2333   1.847   0.923   2.326 -2.2348 -0.6638 -0.2061
  778SOL    HW2 2334   1.958   1.036   2.250 -1.1888 -0.4528 -2.6324
  779SOL     OW 2335   2.552   0.299   0.360 -0.2472  0.2692 -0.6058
  779SOL    HW1 2336   2.523   0.232   0.428 -1.1514 -0.3383 -0.4454
  779SOL    HW2 2337   2.475   0.348   0.316  1.3791 -2.4082  0.4464
  780SOL     OW 2338   2.372   0.438   0.213 -0.4704  0.4278  0.6780
  780SOL    HW1 2339   2.436   0.425   0.135  1.1907 -1.4597  0.2387
  780SOL    HW2 2340   2.357   0.538   0.239 -1.8793 -0.5102  1.7443
  781SOL     OW 2341   0.340   2.452   1.427 -0.1434  0.7430  0.3786
  781SOL    HW1 2342   0.402   2.376   1.446 -0.7894  0.0732  2.2762
  781SOL    HW2 2343   0.282   2.438   1.344 -1.6216 -0.9629 -1.3123
  782SOL     OW 2344   2.184   2.492   0.142 -0.6393  0.2231  0.1092
  782SOL    HW1 2345   2.169   2.528   0.237 -2.4443  1.0935  2.1799
  782SOL    HW2 2346   2.274   2.451   0.139  3.2320  1.3172 -1.3915
  783SOL     OW 2347   0.736   1.219   1.396  0.4295 -0.0998 -0.4591
  783SOL    HW1 2348   0.688   1.136   1.370 -1.6604  0.2982 -0.0547
  783SOL    HW2 2349   0.781   1.186   1.484 -0.4373  1.7304 -0.2121
  784SOL     OW 2350   1.348   0.488   2.515  0.1751 -0.2054  0.0211
  784SOL    HW1 2351   1.252   0.453   2.504 -0.2052 -1.3003 -1.3601
  784SOL    HW2 2352   1.368   0.553   2.437  1.6233 -0.6532  0.8538
  785SOL     OW 2353   2.197   0.333   1.156  0.9292  0.1834  0.1482
  785SOL    HW1 2354   2.291   0.347   1.127 -1.1847  3.0296  0.4584
  785SOL    HW2 2355   2.163   0.408   1.213  0.0778  1.5495  1.8403
  786SOL     OW 2356   1.184   2.155   1.829 -0.1682 -0.0881 -0.3584
  786SOL    HW1 2357   1.185   2.086   1.900  2.0890  1.2313 -3.6929
  786SOL    HW2 2358   1.278   2.169   1.793 -0.8566  0.1057  0.0324
  787SOL     OW 2359   1.448   0.390   1.277  0.1138 -0.0418 -0.0621
  787SOL    HW1 2360   1.524   0.409   1.210 -0.3959  0.2381 -0.0485
  787SOL    HW2 2361   1.451   0.291   1.303  1.4814  3.3129  1.3514
  788SOL     OW 2362   0.288   0.822   0.682  0.2224  0.2648  0.2267
  788SOL    HW1 2363   0.371   0.809   0.738 -0.6918  0.6223 -0.0120
  788SOL    HW2 2364   0.313   0.873   0.599 -0.2334 -2.5247  1.7060
  789SOL     OW 2365   0.417   1.808   1.511  0.9072 -0.6156  0.5697
  789SOL    HW1 2366   0.431   1.895   1.564 -1.2630 -1.9966  0.1281
  789SOL    HW2 2367   0.482   1.736   1.543  3.0055 -0.6350  0.0968
  790SOL     OW 2368   0.922   0.640   2.138  0.0509  0.5385  0.2934
  790SOL    HW1 2369   1.018   0.658   2.135  0.5988 -2.1331  0.6831
  790SOL    HW2 2370   0.875   0.653   2.048 -0.2381  1.2771 -1.2564
  791SOL     OW 2371   1.723   0.749   0.898 -0.5185  0.2167 -0.0926
  791SOL    HW1 2372   1.635   0.777   0.942  2.8364  2.0410  1.5621
  791SOL    HW2 2373   1.716   0.648   0.882 -0.9899  1.1893  1.2440
  792SOL     OW 2374   1.207   2.374   2.088 -0.4507  0.4302 -0.3773
  792SOL    HW1 2375   1.162   2.458   2.056  0.9948 -3.1078  1.9236
  792SOL    HW2 2376   1.143   2.321   2.152 -1.2460 -2.5004 -1.0722
  793SOL     OW 2377   0.770   0.623   0.536 -0.3293  0.2074  0.0929
  793SOL    HW1 2378   0.683   0.600   0.498  1.9653  4.1219  1.0905
  793SOL    HW2 2379   0.820   0.537   0.550  0.5174 -0.2846  2.4071
  794SOL     OW 2380   0.714   1.122   2.104 -0.1969 -0.3957  0.1978
  794SOL    HW1 2381   0.705   1.183   2.184  0.1597 -0.3277 -0.6885
  794SOL    HW2 2382   0.798   1.156   2.056 -1.3329 -1.3627  1.1589
  795SOL     OW 2383   0.203   2.057   2.434 -0.1405 -0.2511 -0.0214
  795SOL    HW1 2384   0.139   2.058   2.355 -1.5539 -1.9973  0.2070
  795SOL    HW2 2385   0.171   2.112   2.515  1.2162 -0.4723  0.4768
  796SOL     OW 2386   2.403   0.717   2.295  0.3296  0.7572 -0.3494
  796SOL    HW1 2387   2.364   0.774   2.366 -0.2453  1.0827 -1.2162
  796SOL    HW2 2388   2.395   0.763   2.206  1.4296 -0.1241  2.4499
  797SOL     OW 2389   2.719   2.225   2.811 -0.0149  0.1045  0.1581
  797SOL    HW1 2390   2.649   2.270   2.752 -1.8899  0.8323 -0.3684
  797SOL    HW2 2391   2.742   2.289   2.888  1.6771 -0.5618  0.1350
  798SOL     OW 2392   0.138   2.667   2.218 -0.0183  0.1981 -0.8282
  798SOL    HW1 2393   0.043   2.636   2.186 -0.4823  0.5453 -2.2239
  798SOL    HW2 2394   0.191   2.694   2.133 -1.0030 -0.1205 -2.9118
  799SOL     OW 2395   0.227   2.482   2.390 -0.2695 -0.3184 -0.0070
  799SOL    HW1 2396   0.162   2.435   2.456 -1.1334  2.3159  1.9012
  799SOL    HW2 2397   0.188   2.557   2.333 -1.3204 -0.4120 -0.6442
  800SOL     OW 2398   0.236   2.168   0.323  0.0751  0.0941  0.0079
  800SOL    HW1 2399   0.216   2.266   0.287 -0.7279  0.5477 -1.1113
  800SOL    HW2 2400   0.310   2.129   0.267 -1.6553  1.2036  1.2271
  801SOL     OW 2401   1.858   1.581   0.996  0.0191  0.2379 -0.4978
  801SOL    HW1 2402   1.799   1.595   0.912 -0.0955 -1.1546 -0.5416
  801SOL    HW2 2403   1.936   1.521   0.969  1.9699  1.8494 -1.8396
  802SOL     OW 2404   0.016   1.285   0.510 -0.0046 -0.2909  0.0536
  802SOL    HW1 2405   0.117   1.265   0.501  1.8031 -1.1137  0.1380
  802SOL    HW2 2406   3.060   1.254   0.596  2.3107 -0.3251 -0.4033
  803SOL     OW 2407   1.180   1.926   2.267 -0.4881  0.0587 -0.1132
  803SOL    HW1 2408   1.224   2.017   2.254  2.1747  1.0003  2.3258
  803SOL    HW2 2409   1.173   1.909   2.370 -0.0610  0.8755 -0.0458
  804SOL     OW 2410   1.488   1.561   0.427  0.2990  0.5025 -0.4639
  804SOL    HW1 2411   1.588   1.556   0.427 -0.1195  2.0411  1.3700
  804SOL    HW2 2412   1.455   1.615   0.504  0.3207  1.0907 -1.7693
  805SOL     OW 2413   2.465   1.203   0.002  0.0439  0.3202 -0.4959
  805SOL    HW1 2414   2.440   1.266   3.012  0.1325  1.2158  0.5209
  805SOL    HW2 2415   2.461   1.102   3.070 -0.8240  1.5017  0.7904
  806SOL     OW 2416   0.666   2.668   0.533  0.6190  0.4835  0.2234
  806SOL    HW1 2417   0.756   2.677   0.498 -0.8504  1.5959  4.7490
  806SOL    HW2 2418   0.596   2.678   0.460 -1.3498 -0.3482  0.5136
  807SOL     OW 2419   2.294   1.598   2.613  0.4237  0.1915  0.4338
  807SOL    HW1 2420   2.215   1.664   2.622 -0.6889  2.5513  1.0205
  807SOL    HW2 2421   2.259   1.503   2.600 -3.9147 -0.6474  4.7328
  808SOL     OW 2422   1.044   1.714   1.036  0.4159 -0.0494  0.3077
  808SOL    HW1 2423   1.023   1.615   1.022  0.1330 -1.6273 -1.1115
  808SOL    HW2 2424   1.058   1.738   1.135 -0.5876  0.8464  1.0513
  809SOL     OW 2425   2.674   0.624   0.605  0.3039  0.1497  0.2125
  809SOL    HW1 2426   2.609   0.692   0.649 -1.9634  2.8378 -1.4624
  809SOL    HW2 2427   2.664   0.631   0.503  0.1537  1.4055  0.4502
  810SOL     OW 2428   0.595   1.253   0.599 -0.0407  0.3875  0.2818
  810SOL    HW1 2429   0.539   1.284   0.676  1.0326  1.8034 -0.8576
  810SOL    HW2 2430   0.681   1.309   0.592  0.0550 -0.3553  1.6399
  811SOL     OW 2431   1.796   2.337   1.108 -0.0354 -0.1661  0.0794
  811SOL    HW1 2432   1.891   2.292   1.118  3.3418  1.0531  1.0058
  811SOL    HW2 2433   1.733   2.300   1.179  1.9534 -0.7617  0.1898
  812SOL     OW 2434   0.991   2.437   1.749 -0.1932 -0.0799  0.4304
  812SOL    HW1 2435   1.036   2.505   1.811  0.0377  1.2077 -1.2508
  812SOL    HW2 2436   0.978   2.348   1.790  2.3341  1.4818 -0.5541
  813SOL     OW 2437   0.892   2.761   1.793 -0.2647  0.2864  0.2632
  813SOL    HW1 2438   0.854   2.849   1.820 -0.5468  1.3060  1.3175
  813SOL    HW2 2439   0.917   2.749   1.694  0.7838 -0.9216 -1.4446
  814SOL     OW 2440   0.948   2.619   2.541  0.0262 -0.1887 -0.0521
  814SOL    HW1 2441   0.992   2.529   2.574  1.6071 -1.3350  2.0353
  814SOL    HW2 2442   0.856   2.628   2.580 -1.2382 -2.6718  0.0778
  815SOL     OW 2443   0.676   0.299   2.406 -0.3185 -0.5132 -0.3013
  815SOL    HW1 2444   0.660   0.214   2.359 -0.4790  1.1528  3.1331
  815SOL    HW2 2445   0.659   0.380   2.347 -0.2774 -0.3446  0.0120
  816SOL     OW 2446   2.223   0.267   0.068 -0.2744 -0.1937 -0.3289
  816SOL    HW1 2447   2.135   0.305   0.046  2.3815  0.6379  1.5940
  816SOL    HW2 2448   2.273   0.333   0.133  0.9743  1.9342 -0.5101
  817SOL     OW 2449   2.293   2.979   1.882 -0.0268 -0.3866 -0.5828
  817SOL    HW1 2450   2.323   3.023   1.970  0.3513  1.8435  0.9425
  817SOL    HW2 2451   2.221   3.037   1.836 -1.1483  2.8574  0.4912
  818SOL     OW 2452   1.172   0.820   0.153 -0.2190  0.7469 -0.3535
  818SOL    HW1 2453   1.260   0.777   0.119  0.0722  0.3970 -0.0043
  818SOL    HW2 2454   1.105   0.754   0.183  1.5535 -0.1065  2.2485
  819SOL     OW 2455   1.808   1.694   2.374 -0.0508  0.2099  0.6809
  819SOL    HW1 2456   1.763   1.737   2.292  1.4673  0.8239 -0.3099
  819SOL    HW2 2457   1.912   1.714   2.378  3.0604  2.4074  2.4520
  820SOL     OW 2458   0.158   1.800   0.087 -0.0687 -0.0098  0.1233
  820SOL    HW1 2459   0.144   1.778   3.076 -3.6396 -0.5732 -2.6733
  820SOL    HW2 2460   0.236   1.751   0.129 -0.7091 -0.1400  1.7483
  821SOL     OW 2461   0.021   2.950   0.840 -0.1430 -0.2174  0.5680
  821SOL    HW1 2462   3.067   2.863   0.822  0.9524  2.4453 -0.8925
  821SOL    HW2 2463   0.110   2.939   0.884 -2.1787 -1.0958 -1.1075
  822SOL     OW 2464   2.350   2.435   2.730  0.1296 -0.0716  0.3508
  822SOL    HW1 2465   2.269   2.383   2.713  2.5168 -0.7113  3.1991
  822SOL    HW2 2466   2.334   2.521   2.777  3.3841 -2.5496 -2.2316
  823SOL     OW 2467   1.292   2.999   2.183 -0.6494 -0.6049  0.4362
  823SOL    HW1 2468   1.392   2.998   2.209 -0.3493  0.5109  2.5799
  823SOL    HW2 2469   1.237   2.957   2.257 -0.6838  0.7973 -0.4682
  824SOL     OW 2470   2.732   2.277   2.146 -0.2566 -0.0378  0.3464
  824SOL    HW1 2471   2.788   2.323   2.220  0.6609  3.6271 -2.0381
  824SOL    HW2 2472   2.696   2.351   2.088  0.0284 -0.5119 -1.2736
  825SOL     OW 2473   2.892   2.047   2.442  0.2422  0.0542  0.2654
  825SOL    HW1 2474   2.803   2.024   2.404  0.6415 -2.4026  1.1120
  825SOL    HW2 2475   2.964   2.068   2.370  1.9413  2.0873 -1.0056
  826SOL     OW 2476   2.320   0.887   2.521  0.6321  0.4267  0.4862
  826SOL    HW1 2477   2.351   0.840   2.606 -0.8660  0.2718  1.1113
  826SOL    HW2 2478   2.219   0.875   2.518 -2.6350  0.9044  0.2889
  827SOL     OW 2479   2.673   2.078   1.494 -0.2676 -0.5788 -0.1760
  827SOL    HW1 2480   2.668   2.175   1.521  0.2352 -0.9138  1.4871
  827SOL    HW2 2481   2.584   2.061   1.451 -2.5766  1.2339  0.1772
  828SOL     OW 2482   2.964   0.068   1.840  0.4385  0.1416  0.1532
  828SOL    HW1 2483   3.040   0.002   1.843 -1.0099  1.4819 -0.6637
  828SOL    HW2 2484   2.987   0.148   1.782  1.3431  1.1478 -3.0711
  829SOL     OW 2485   0.856   2.193   2.767 -0.1299  0.0169 -0.6901
  829SOL    HW1 2486   0.876   2.098   2.798 -0.5024 -0.8423 -2.0163
  829SOL    HW2 2487   0.765   2.223   2.803  1.2660  2.1462 -0.6302
  830SOL     OW 2488   0.911   0.952   1.083  0.1633  0.2914  0.3404
  830SOL    HW1 2489   0.872   0.862   1.101 -2.0290  1.4217 -0.9929
  830SOL    HW2 2490   0.840   1.008   1.037 -1.3837 -0.2381  1.9450
  831SOL     OW 2491   2.770   1.458   2.980  0.4272  0.1555  0.0249
  831SOL    HW1 2492   2.786   1.554   3.016 -0.7903 -0.2258 -1.9656
  831SOL    HW2 2493   2.858   1.419   2.947  0.9611 -0.4329 -0.2756
  832SOL     OW 2494   1.836   2.324   2.213 -0.3474 -0.2399 -0.6081
  832SOL    HW1 2495   1.876   2.332   2.309  0.7037  1.4286  1.0762
  832SOL    HW2 2496   1.881   2.378   2.143 -0.4672  1.2152  0.2551
  833SOL     OW 2497   0.891   0.337   1.993 -0.4420 -0.2709 -0.1142
  833SOL    HW1 2498   0.974   0.399   1.997  0.1539  2.6446  1.3773
  833SOL    HW2 2499   0.892   0.276   2.073 -0.4207  0.6037 -1.2923
  834SOL     OW 2500   0.082   0.084   1.177 -0.2177 -0.0520  0.1405
  834SOL    HW1 2501   3.080   0.123   1.201 -0.9328  0.3828 -0.8137
  834SOL    HW2 2502   0.157   0.134   1.229 -0.4403  2.5382  2.5042
  835SOL     OW 2503   2.617   0.735   2.975  0.1908  0.3360 -0.1087
  835SOL    HW1 2504   2.679   0.675   3.035 -1.9547 -1.9356  2.0575
  835SOL    HW2 2505   2.564   0.684   2.902 -1.4566 -0.7774 -0.8893
  836SOL     OW 2506   1.320   2.081   0.331 -0.1806 -0.0844 -0.4451
  836SOL    HW1 2507   1.371   1.998   0.314 -0.8057  1.6470  0.7977
  836SOL    HW2 2508   1.219   2.062   0.321  2.7702 -1.0862 -1.1242
  837SOL     OW 2509   1.781   1.610   0.452  0.0360 -0.2074  0.4038
  837SOL    HW1 2510   1.875   1.604   0.494  0.0783  2.4803 -0.7889
  837SOL    HW2 2511   1.796   1.650   0.358  0.2530  0.1470 -0.4228
  838SOL     OW 2512   1.357   1.042   2.291  1.1087 -0.4337 -0.3138
  838SOL    HW1 2513   1.434   1.016   2.238 -1.3298  0.8429  0.5086
  838SOL    HW2 2514   1.337   1.140   2.274  1.4180  0.4736  0.6859
  839SOL     OW 2515   0.846   1.553   2.344  0.4112 -0.2183 -0.7026
  839SOL    HW1 2516   0.920   1.494   2.370 -1.9440  0.0099 -1.7757
  839SOL    HW2 2517   0.852   1.583   2.245 -0.5307 -0.3836  2.5181
  840SOL     OW 2518   0.956   2.062   0.506 -0.4614  0.0044 -0.1050
  840SOL    HW1 2519   0.911   2.088   0.593 -0.1347 -0.1546 -1.0169
  840SOL    HW2 2520   1.028   2.130   0.474  0.5606 -0.9941 -0.9493
  841SOL     OW 2521   1.767   2.488   0.392  0.2396 -0.0897  0.0249
  841SOL    HW1 2522   1.823   2.573   0.412 -0.3868 -0.8255 -0.5912
  841SOL    HW2 2523   1.737   2.488   0.294  1.2201 -1.9263  1.5217
  842SOL     OW 2524   0.418   0.600   2.865  0.5498 -0.1274 -0.1403
  842SOL    HW1 2525   0.514   0.565   2.866 -1.5771 -0.9421  2.8473
  842SOL    HW2 2526   0.370   0.590   2.778 -0.4377 -3.7789  4.8300
  843SOL     OW 2527   0.960   0.464   0.875 -0.0327 -0.1973  0.2057
  843SOL    HW1 2528   0.949   0.433   0.776  0.7169 -0.3566  1.7327
  843SOL    HW2 2529   1.051   0.516   0.889  3.2296  0.0278 -1.3215
  844SOL     OW 2530   2.635   3.026   2.920  0.1147  0.0609  0.5644
  844SOL    HW1 2531   2.579   2.995   2.841  0.9162 -0.2969  0.0336
  844SOL    HW2 2532   2.726   3.009   2.892 -3.8825  2.4105  2.1521
  845SOL     OW 2533   2.966   2.138   1.540  0.1294 -0.1006  0.2618
  845SOL    HW1 2534   2.867   2.126   1.552  1.9790 -1.7418 -0.5372
  845SOL    HW2 2535   3.009   2.046   1.542  3.6161  1.7281 -0.3503
  846SOL     OW 2536   2.475   1.397   2.245  0.2969 -0.0453 -0.4720
  846SOL    HW1 2537   2.483   1.471   2.319  0.0996 -0.1826 -2.1453
  846SOL    HW2 2538   2.573   1.374   2.217  2.1135 -0.4296 -0.8400
  847SOL     OW 2539   1.184   0.551   1.714 -0.4001  0.1131  0.1444
  847SOL    HW1 2540   1.140   0.538   1.806 -1.5567  1.3031 -2.4394
  847SOL    HW2 2541   1.196   0.652   1.679  0.5945  0.8296 -1.1042
  848SOL     OW 2542   2.397   2.760   2.975 -0.1823 -0.1640 -0.6805
  848SOL    HW1 2543   2.408   2.818   3.059  0.5927 -0.0457 -0.4995
  848SOL    HW2 2544   2.426   2.806   2.888  0.3048 -0.1767 -0.5087
  849SOL     OW 2545   0.458   2.952   0.122 -0.4060  0.7223  0.5365
  849SOL    HW1 2546   0.513   3.035   0.091 -0.9875  2.4598 -0.5533
  849SOL    HW2 2547   0.361   2.975   0.120  0.2592 -0.9369 -2.2855
  850SOL     OW 2548   1.318   2.906   1.088 -0.0293  0.0736 -0.0338
  850SOL    HW1 2549   1.394   2.956   1.129 -2.1994 -1.6431  0.7828
  850SOL    HW2 2550   1.329   2.879   0.991  1.7902  1.6597  1.7567
  851SOL     OW 2551   2.741   0.455   2.442  0.0165 -0.4893 -0.7524
  851SOL    HW1 2552   2.698   0.545   2.469 -0.7189  2.6019  3.0394
  851SOL    HW2 2553   2.757   0.396   2.524  1.5395 -2.0746  0.9780
  852SOL     OW 2554   1.425   0.639   2.281 -0.1260 -0.8650  0.1005
  852SOL    HW1 2555   1.485   0.701   2.340 -0.7347  0.8285  1.1848
  852SOL    HW2 2556   1.483   0.610   2.202  2.9818  0.6743  0.8368
  853SOL     OW 2557   0.100   2.932   0.331 -0.3452  0.3494  0.1913
  853SOL    HW1 2558   0.053   2.907   0.417 -1.8779  0.6281 -1.9572
  853SOL    HW2 2559   0.152   3.021   0.343 -1.5631  2.0860 -1.6665
  854SOL     OW 2560   2.392   1.158   2.168 -0.4897 -0.8339  0.4842
  854SOL    HW1 2561   2.432   1.247   2.205  1.2509  1.2686 -0.1804
  854SOL    HW2 2562   2.394   1.154   2.064 -0.2247 -2.1363 -1.4484
  855SOL     OW 2563   0.646   2.527   0.140 -0.1618 -0.0068  0.0670
  855SOL    HW1 2564   0.603   2.608   0.179  0.4669  1.0374  0.5212
  855SOL    HW2 2565   0.729   2.544   0.077  0.8445 -1.7380 -1.6233
  856SOL     OW 2566   3.066   2.980   2.760 -0.0662 -0.3240 -0.3448
  856SOL    HW1 2567   3.031   3.044   2.686 -0.2858  0.0580 -1.7410
  856SOL    HW2 2568   2.997   2.962   2.834  0.3299 -0.4616 -0.3298
  857SOL     OW 2569   0.932   2.653   1.540  0.0176  0.1979 -0.5324
  857SOL    HW1 2570   0.862   2.636   1.473  0.7959 -0.1039 -0.2988
  857SOL    HW2 2571   0.942   2.577   1.608  2.7361  0.6406 -0.5301
  858SOL     OW 2572   2.698   2.235   1.731  0.0035 -0.1411 -0.4224
  858SOL    HW1 2573   2.750   2.205   1.808 -1.4367 -0.2981 -2.9473
  858SOL    HW2 2574   2.600   2.216   1.743  0.0960  3.3225 -1.3684
  859SOL     OW 2575   1.916   2.212   1.645 -0.0216 -0.1685 -0.1757
  859SOL    HW1 2576   1.822   2.214   1.605 -1.8832 -1.7858 -0.0153
  859SOL    HW2 2577   1.915   2.149   1.731 -1.3441 -1.2490  1.7047
  860SOL     OW 2578   2.371   0.086   0.185 -0.1395 -0.5722 -0.2079
  860SOL    HW1 2579   2.466   0.121   0.175 -0.2724  0.5172  2.1569
  860SOL    HW2 2580   2.316   0.154   0.131  0.2867  0.9410  0.9376
  861SOL     OW 2581   2.737   3.040   0.520 -0.0971 -0.1384  0.2708
  861SOL    HW1 2582   2.734   2.989   0.603  0.1094 -0.0096 -0.3382
  861SOL    HW2 2583   2.649   3.024   0.473 -1.4327  1.2486  2.7574
  862SOL     OW 2584   1.581   2.945   2.498  0.4892 -0.0968 -0.4032
  862SOL    HW1 2585   1.495   2.887   2.520 -1.0731 -1.5006 -0.0309
  862SOL    HW2 2586   1.564   3.044   2.500 -1.8782 -2.4925 -1.3228
  863SOL     OW 2587   0.413   0.587   1.195 -0.0763  0.6494  0.4284
  863SOL    HW1 2588   0.360   0.597   1.106 -0.3479 -0.8442 -1.1443
  863SOL    HW2 2589   0.489   0.524   1.181 -2.1532  1.7646 -0.6977
  864SOL     OW 2590   0.090   2.971   1.870 -0.6784  0.6223 -0.3007
  864SOL    HW1 2591   0.181   2.958   1.830 -1.3723 -1.1897 -0.6770
  864SOL    HW2 2592   0.050   2.880   1.898 -0.0703 -2.1829  0.3276
  865SOL     OW 2593   0.574   1.276   2.949 -0.1065  0.3837  0.3327
  865SOL    HW1 2594   0.631   1.332   3.013  1.1799  1.0006  0.9617
  865SOL    HW2 2595   0.638   1.204   2.911  1.4946 -1.0179 -1.1100
  866SOL     OW 2596   3.044   0.739   0.049  0.0706 -0.3886 -0.2330
  866SOL    HW1 2597   3.035   0.825   0.108  0.0143  1.0475  0.6071
  866SOL    HW2 2598   2.965   0.671   0.057 -1.1205 -1.7612  0.1560
  867SOL     OW 2599   2.936   2.946   2.993  0.5650 -0.0455  0.3913
  867SOL    HW1 2600   2.960   2.948   0.005 -0.8640  0.8322  0.3174
  867SOL    HW2 2601   2.904   2.852   2.965 -0.2511 -3.2182  0.2980
  868SOL     OW 2602   1.412   0.372   0.223  0.3166 -0.2678 -0.4296
  868SOL    HW1 2603   1.366   0.422   0.299 -0.2550  1.4951 -2.1255
  868SOL    HW2 2604   1.485   0.434   0.190  1.9392  0.9856  0.5269
  869SOL     OW 2605   2.500   1.412   0.389 -0.2977 -0.1840  0.1985
  869SOL    HW1 2606   2.423   1.470   0.421  1.9525 -1.6006 -0.3506
  869SOL    HW2 2607   2.559   1.373   0.463  0.0807 -0.1803 -0.4480
  870SOL     OW 2608   2.271   1.531   0.450 -0.2387 -0.0464  0.7281
  870SOL    HW1 2609   2.207   1.523   0.533  2.4874  1.5134 -0.7557
  870SOL    HW2 2610   2.218   1.562   0.370  0.7197 -2.1232  1.0411
  871SOL     OW 2611   1.339   1.443   1.128 -0.0311  0.4242 -0.7737
  871SOL    HW1 2612   1.265   1.375   1.129  0.9839  2.4359 -0.8182
  871SOL    HW2 2613   1.426   1.401   1.166 -3.0767  1.3762  0.1966
  872SOL     OW 2614   1.266   1.550   1.779  0.2627 -0.5635  0.4414
  872SOL    HW1 2615   1.210   1.510   1.705  0.2330 -0.5154 -0.0117
  872SOL    HW2 2616   1.219   1.632   1.811  2.0526  0.2968  1.1922
  873SOL     OW 2617   0.566   1.466   2.320  0.3593 -0.6043  0.2599
  873SOL    HW1 2618   0.534   1.448   2.411  1.7933  1.4446 -2.2418
  873SOL    HW2 2619   0.660   1.500   2.318  0.5029 -2.4766 -1.1129
  874SOL     OW 2620   0.862   1.372   1.201  0.2365 -0.2849 -0.2374
  874SOL    HW1 2621   0.821   1.465   1.210  1.4389 -1.1227  0.6505
  874SOL    HW2 2622   0.830   1.311   1.279 -0.9765 -0.2560  2.9588
  875SOL     OW 2623   2.110   0.578   1.250 -0.6010 -0.2792  0.0495
  875SOL    HW1 2624   2.068   0.627   1.173 -2.3664 -0.4926 -0.1029
  875SOL    HW2 2625   2.033   0.566   1.322 -1.9377  0.2810  1.0798
  876SOL     OW 2626   1.056   0.788   2.910  0.3231  0.1775  0.2424
  876SOL    HW1 2627   0.973   0.812   2.965 -0.4203  0.0515 -0.7610
  876SOL    HW2 2628   1.110   0.869   2.876  2.0645 -1.3225  2.3273
  877SOL     OW 2629   2.970   0.259   1.184  0.4702 -0.9067  0.4199
  877SOL    HW1 2630   2.868   0.269   1.166 -2.0800  1.4517  0.4872
  877SOL    HW2 2631   3.008   0.352   1.204  0.0479  0.7358  0.9623
  878SOL     OW 2632   1.578   2.367   3.080 -0.0941  0.3792  0.8039
  878SOL    HW1 2633   1.614   2.449   0.050  0.3130  1.7689  3.7237
  878SOL    HW2 2634   1.660   2.329   3.031 -1.0544 -0.1703  0.0694
  879SOL     OW 2635   2.278   2.054   1.638  0.3448 -0.2566  0.5520
  879SOL    HW1 2636   2.218   2.094   1.563  2.3327 -0.0682 -1.6864
  879SOL    HW2 2637   2.331   2.126   1.683  0.7363 -1.1563 -1.6952
  880SOL     OW 2638   1.158   2.748   1.391 -0.0832 -0.0080 -0.4598
  880SOL    HW1 2639   1.081   2.694   1.438 -2.7323 -2.4973  1.4931
  880SOL    HW2 2640   1.205   2.682   1.329  0.9240 -0.0044 -2.3360
  881SOL     OW 2641   1.179   1.837   0.018  0.0331  0.0865  0.1883
  881SOL    HW1 2642   1.176   1.905   0.098  0.2376 -0.4949  1.3797
  881SOL    HW2 2643   1.112   1.865   3.031  1.6375 -0.7377  0.0577
  882SOL     OW 2644   2.095   0.829   2.073 -0.0045 -0.5735 -0.2595
  882SOL    HW1 2645   2.109   0.924   2.100  1.1787  0.2259 -3.9048
  882SOL    HW2 2646   2.110   0.823   1.973 -0.2355  0.2581 -0.1867
  883SOL     OW 2647   1.348   0.312   1.925  0.6076 -0.2485 -0.1313
  883SOL    HW1 2648   1.395   0.244   1.865 -3.2790 -2.0294  1.1902
  883SOL    HW2 2649   1.326   0.268   2.013 -1.0253 -0.0233 -0.6372
  884SOL     OW 2650   3.049   0.128   3.047 -0.0662 -0.5029  0.0977
  884SOL    HW1 2651   0.024   0.119   0.040  0.6916 -1.7297 -2.0270
  884SOL    HW2 2652   3.011   0.039   3.015 -1.8756 -0.8426  0.0954
  885SOL     OW 2653   0.684   2.117   0.389 -0.2802 -0.1762  0.2386
  885SOL    HW1 2654   0.762   2.087   0.446 -0.8472  0.1466 -1.6628
  885SOL    HW2 2655   0.692   2.212   0.358  0.3141 -3.0010  0.8778
  886SOL     OW 2656   1.819   1.599   2.635 -0.2003 -0.0346  0.0877
  886SOL    HW1 2657   1.816   1.623   2.537  0.5806 -1.1796 -0.7893
  886SOL    HW2 2658   1.777   1.677   2.691  0.2636 -0.9708  1.8907
  887SOL     OW 2659   1.853   0.540   1.835  0.7125  0.2229  0.0325
  887SOL    HW1 2660   1.865   0.619   1.896  1.0112 -1.2836 -2.3753
  887SOL    HW2 2661   1.782   0.472   1.873 -1.3728  0.1751  3.0559
  888SOL     OW 2662   2.712   0.619   1.629  1.0310 -0.0830 -0.5012
  888SOL    HW1 2663   2.663   0.638   1.715  0.8915  0.1879 -2.5329
  888SOL    HW2 2664   2.796   0.679   1.623  0.2872  1.9635  2.5727
  889SOL     OW 2665   3.044   2.660   0.834 -0.0874 -0.3182 -0.3564
  889SOL    HW1 2666   2.965   2.622   0.785  3.1317  1.0017  0.5444
  889SOL    HW2 2667   0.043   2.608   0.811  0.7016 -0.3516 -0.2303
  890SOL     OW 2668   2.898   2.635   2.899  0.6467  0.4721 -0.4047
  890SOL    HW1 2669   2.839   2.550   2.910 -0.4904  0.6469 -1.0338
  890SOL    HW2 2670   2.994   2.606   2.922 -2.3997 -2.6975  0.6674
  891SOL     OW 2671   0.697   1.665   3.009  0.4548  0.2634 -0.0257
  891SOL    HW1 2672   0.726   1.707   0.011  2.6798  0.1092 -1.5228
  891SOL    HW2 2673   0.766   1.668   2.933  0.9077 -2.7722 -0.2144
  892SOL     OW 2674   0.266   2.880   0.951 -0.0665  0.2513  0.4766
  892SOL    HW1 2675   0.334   2.896   0.878  1.8660  1.4157 -0.9782
  892SOL    HW2 2676   0.282   2.794   1.000 -0.6514 -0.3693 -2.4328
  893SOL     OW 2677   0.649   2.905   1.105  0.3904  0.1348  0.1421
  893SOL    HW1 2678   0.573   2.963   1.147 -0.4800 -0.0045 -1.2331
  893SOL    HW2 2679   0.731   2.885   1.160 -1.8524  1.3285 -2.9079
  894SOL     OW 2680   2.828   1.343   0.801  0.3604  0.1159  0.2261
  894SOL    HW1 2681   2.910   1.287   0.774  1.2839  0.0698 -0.5944
  894SOL    HW2 2682   2.793   1.396   0.718  1.6919 -1.7572  1.8349
  895SOL     OW 2683   2.708   2.490   1.723  0.4224 -0.0625  0.0196
  895SOL    HW1 2684   2.711   2.384   1.728  3.7400 -3.0340  1.4039
  895SOL    HW2 2685   2.771   2.526   1.655 -1.9906 -2.2319 -0.2420
  896SOL     OW 2686   0.995   0.410   1.560  0.1483  0.1407  0.2111
  896SOL    HW1 2687   0.949   0.347   1.627 -2.1024  0.5114  0.4913
  896SOL    HW2 2688   1.055   0.478   1.614  0.4437  1.2689 -0.1331
  897SOL     OW 2689   0.933   1.493   1.741 -0.2811 -0.0644 -0.1229
  897SOL    HW1 2690   1.002   1.468   1.666  0.2236 -1.8496 -4.0713
  897SOL    HW2 2691   0.891   1.581   1.717  1.6738 -0.8780 -0.8151
  898SOL     OW 2692   1.435   2.515   1.745  0.0836  0.2934 -0.0503
  898SOL    HW1 2693   1.356   2.464   1.698 -0.5987  0.7267 -1.7155
  898SOL    HW2 2694   1.428   2.619   1.735  0.5009  0.3426  1.6772
  899SOL     OW 2695   0.784   0.698   0.134  0.3683  0.9571 -0.4893
  899SOL    HW1 2696   0.709   0.718   0.198 -1.5801  2.7436  1.6942
  899SOL    HW2 2697   0.832   0.781   0.111 -1.1539 -1.0376  1.1101
  900SOL     OW 2698   1.424   2.310   1.946  0.1061  0.9837 -0.1555
  900SOL    HW1 2699   1.330   2.315   1.986  0.1650 -0.3409 -0.0299
  900SOL    HW2 2700   1.432   2.376   1.869  1.5641  0.1858 -3.2205
  901SOL     OW 2701   1.073   2.296   0.435  0.5687 -0.5967 -0.4591
  901SOL    HW1 2702   1.015   2.347   0.507 -2.2090  1.0259 -1.5960
  901SOL    HW2 2703   1.050   2.333   0.343 -0.1731  0.4370  0.2379
  902SOL     OW 2704   1.737   1.432   0.078 -0.0753 -0.2876 -0.0981
  902SOL    HW1 2705   1.814   1.468   0.017 -2.1224 -0.0944  0.6789
  902SOL    HW2 2706   1.773   1.392   0.170  0.3741 -2.3444  2.5007
  903SOL     OW 2707   2.155   1.298   0.166  0.7532 -0.0731  0.1284
  903SOL    HW1 2708   2.243   1.288   0.218 -1.3688 -0.5290  0.7003
  903SOL    HW2 2709   2.156   1.231   0.090 -1.0340  1.6754  0.0906
  904SOL     OW 2710   0.752   1.414   0.017 -0.4527  0.5304  0.1505
  904SOL    HW1 2711   0.718   1.502   3.072  0.6332 -0.1993  1.8893
  904SOL    HW2 2712   0.756   1.406   0.121  0.3067 -1.8022  0.0247
  905SOL     OW 2713   1.871   0.133   1.239  0.3364  0.3803 -0.1927
  905SOL    HW1 2714   1.962   0.118   1.192 -0.6098 -1.0384  2.4242
  905SOL    HW2 2715   1.830   0.220   1.206  1.1972 -1.5270 -1.0935
  906SOL     OW 2716   2.952   2.407   1.156  0.5683 -0.0182 -0.1167
  906SOL    HW1 2717   2.980   2.505   1.140 -1.4658 -0.3476 -0.8411
  906SOL    HW2 2718   2.852   2.408   1.165  0.3678 -2.4079 -0.2312
  907SOL     OW 2719   0.922   0.912   0.083 -0.5811  0.0412  0.0179
  907SOL    HW1 2720   0.901   1.004   0.123 -1.7268 -0.3467  0.2357
  907SOL    HW2 2721   1.024   0.900   0.071 -0.9893  1.2751  1.6941
  908SOL     OW 2722   1.558   3.029   1.145 -0.0725 -0.0812 -0.0484
  908SOL    HW1 2723   1.584   3.068   1.053  0.5841 -1.5749 -0.4590
  908SOL    HW2 2724   1.626   2.959   1.166  0.4998 -0.4524  2.1423
  909SOL     OW 2725   2.009   1.200   1.531  0.3763  0.1615 -0.4084
  909SOL    HW1 2726   2.034   1.291   1.575  0.4794  1.5387  1.3051
  909SOL    HW2 2727   2.013   1.208   1.429 -1.1012 -0.3399  0.5345
  910SOL     OW 2728   1.693   0.085   2.068  0.1963 -0.5031  0.0632
  910SOL    HW1 2729   1.656   0.016   2.131  1.4085  1.9338  1.6076
  910SOL    HW2 2730   1.715   0.045   1.979 -0.7081  1.8189 -0.0089
  911SOL     OW 2731   2.645   0.887   2.665  0.1866  0.0201  0.0215
  911SOL    HW1 2732   2.662   0.987   2.643 -0.9260 -0.2247  0.3385
  911SOL    HW2 2733   2.731   0.841   2.675 -0.1467  0.3392  0.9171
  912SOL     OW 2734   3.023   1.212   1.636 -0.3758 -0.6951 -0.6111
  912SOL    HW1 2735   3.026   1.314   1.650  0.5503  0.0535  0.1135
  912SOL    HW2 2736   0.032   1.175   1.627  0.1302  0.5411  0.1881
  913SOL     OW 2737   2.999   2.393   1.431 -0.5670  0.1908  0.3298
  913SOL    HW1 2738   3.000   2.306   1.480  0.4650 -0.2418 -3.5517
  913SOL    HW2 2739   2.990   2.388   1.329 -1.1120 -0.2129 -1.6708
  914SOL     OW 2740   1.645   0.924   1.629  0.2814  0.3328  0.1100
  914SOL    HW1 2741   1.640   0.832   1.584  0.9570 -3.1736  0.3718
  914SOL    HW2 2742   1.650   0.994   1.553 -1.5172 -3.5918 -1.7705
  915SOL     OW 2743   1.956   0.538   1.465 -0.1866 -0.0641  0.0414
  915SOL    HW1 2744   2.002   0.539   1.552 -0.2814  0.0897  0.2127
  915SOL    HW2 2745   1.862   0.503   1.475 -0.5094  0.3138  3.3622
  916SOL     OW 2746   2.673   2.460   1.170  0.1759 -0.2728  0.0077
  916SOL    HW1 2747   2.641   2.512   1.254 -0.3740  0.8604  2.3858
  916SOL    HW2 2748   2.650   2.513   1.085 -0.4924  0.3318  1.9348
  917SOL     OW 2749   1.782   2.300   2.905  0.3140 -0.1445 -0.0348
  917SOL    HW1 2750   1.872   2.335   2.940 -3.2300 -0.1771 -0.8762
  917SOL    HW2 2751   1.787   2.222   2.841 -0.7645  0.8054  0.9638
  918SOL     OW 2752   1.787   2.779   2.440 -0.3869  0.8018  0.0789
  918SOL    HW1 2753   1.864   2.840   2.415 -3.6673 -1.1267  0.5183
  918SOL    HW2 2754   1.707   2.834   2.477 -1.1238  0.8916  1.8932
  919SOL     OW 2755   1.426   2.474   1.390  0.4809  0.5460 -0.2558
  919SOL    HW1 2756   1.359   2.512   1.326  0.0006  0.8779  0.4434
  919SOL    HW2 2757   1.378   2.435   1.471  0.0701  1.7628 -0.7035
  920SOL     OW 2758   2.963   0.395   2.273  0.3796 -0.2468  0.6132
  920SOL    HW1 2759   2.927   0.316   2.216 -2.9078 -1.2814 -0.7145
  920SOL    HW2 2760   2.879   0.432   2.313  2.7919 -0.7081 -0.3663
  921SOL     OW 2761   2.931   0.774   1.607  0.0547  0.0408  0.4666
  921SOL    HW1 2762   2.905   0.863   1.642 -0.1247  0.4406  0.6944
  921SOL    HW2 2763   3.029   0.769   1.589 -1.6112  2.0205  0.3173
  922SOL     OW 2764   1.971   2.005   0.517  1.1197  0.5243  0.2125
  922SOL    HW1 2765   2.023   1.984   0.431  1.5204  1.5773  0.0912
  922SOL    HW2 2766   2.024   2.064   0.579 -0.8578 -1.5271 -0.5276
  923SOL     OW 2767   0.787   1.972   0.195 -0.0645  0.0134 -0.3187
  923SOL    HW1 2768   0.807   1.876   0.224 -0.8368 -0.4650  2.3164
  923SOL    HW2 2769   0.734   2.029   0.257 -0.7839  1.6248  0.3744
  924SOL     OW 2770   1.085   0.426   3.045  0.4895  0.4745 -0.5826
  924SOL    HW1 2771   1.043   0.365   2.978 -0.4209  4.7472  2.5236
  924SOL    HW2 2772   1.128   0.507   3.003  1.5457  0.3862 -0.4970
  925SOL     OW 2773   2.488   0.494   0.912 -0.3484 -0.3245  0.3327
  925SOL    HW1 2774   2.511   0.553   0.836  0.5747 -1.5089  2.7816
  925SOL    HW2 2775   2.399   0.448   0.895 -0.6512 -0.4487  0.5319
  926SOL     OW 2776   0.618   0.152   1.164  0.4943  0.2209 -0.8174
  926SOL    HW1 2777   0.524   0.115   1.151 -0.6056  0.2833  2.6299
  926SOL    HW2 2778   0.670   0.107   1.237  1.3599  0.3330 -0.1735
  927SOL     OW 2779   0.111   1.569   2.377  0.1389 -0.6415  0.2086
  927SOL    HW1 2780   0.020   1.578   2.425  1.3318  2.1611  0.1480
  927SOL    HW2 2781   0.140   1.482   2.334  2.1346  3.7503  2.5437
  928SOL     OW 2782   2.803   0.280   2.641 -0.1074 -0.2593  0.7134
  928SOL    HW1 2783   2.848   0.338   2.710  1.3705 -1.8461  0.2223
  928SOL    HW2 2784   2.867   0.209   2.616 -0.9002 -0.2891  2.4244
  929SOL     OW 2785   2.626   0.164   1.396 -0.4547  0.4055  0.1515
  929SOL    HW1 2786   2.703   0.112   1.354 -1.2351  1.7571  1.5788
  929SOL    HW2 2787   2.552   0.106   1.424  2.7530  2.1810  1.9198
  930SOL     OW 2788   1.775   0.991   1.858  0.1382 -0.3384 -0.0078
  930SOL    HW1 2789   1.710   1.002   1.776 -1.2356  2.0280 -2.0900
  930SOL    HW2 2790   1.784   1.081   1.904  0.4644  2.5138  0.3843
  931SOL     OW 2791   2.110   1.112   3.061  0.2446  0.1125  0.4906
  931SOL    HW1 2792   2.170   1.028   3.061  0.4446 -0.8469 -2.8132
  931SOL    HW2 2793   2.014   1.089   3.049  1.8605 -0.6611  1.5455
  932SOL     OW 2794   2.119   1.080   0.719 -0.1960 -0.3678 -0.3104
  932SOL    HW1 2795   2.190   1.119   0.656  2.1153 -1.4755  0.2220
  932SOL    HW2 2796   2.084   0.991   0.692  1.4934 -1.3945  1.1179
  933SOL     OW 2797   2.536   1.746   0.829  0.3910  0.0328  0.1226
  933SOL    HW1 2798   2.493   1.763   0.736 -4.3374  1.2813 -4.4028
  933SOL    HW2 2799   2.494   1.810   0.898  0.4297  0.0650  1.5276
  934SOL     OW 2800   2.128   0.613   2.445  0.0224  0.3187  0.0914
  934SOL    HW1 2801   2.118   0.615   2.345  0.9621  0.2964  4.3301
  934SOL    HW2 2802   2.035   0.604   2.487 -0.1266 -0.6661 -2.9438
  935SOL     OW 2803   0.308   1.291   0.513 -0.3923 -0.0446 -0.4931
  935SOL    HW1 2804   0.389   1.329   0.560 -2.1313 -0.4264  1.5088
  935SOL    HW2 2805   0.326   1.298   0.414  2.4637  2.0835  2.9841
  936SOL     OW 2806   0.084   0.380   0.524 -0.3368 -0.0040  0.3762
  936SOL    HW1 2807   0.022   0.350   0.445  1.5557  1.6061  1.0266
  936SOL    HW2 2808   0.072   0.327   0.608  0.9872  0.3321 -0.6386
  937SOL     OW 2809   2.829   3.034   1.277 -0.3944  0.2651  0.0740
  937SOL    HW1 2810   2.834   3.037   1.177 -1.0658 -2.5363  0.9232
  937SOL    HW2 2811   2.905   3.083   1.318  3.6173 -3.7429  0.0917
  938SOL     OW 2812   2.982   2.379   0.081 -0.4392  0.5911  0.2912
  938SOL    HW1 2813   2.970   2.479   0.072  1.0150 -2.0277 -0.7978
  938SOL    HW2 2814   3.071   2.360   0.120 -2.5688  0.0936 -1.3788
  939SOL     OW 2815   0.724   1.882   0.864  0.3937 -0.4503 -0.1144
  939SOL    HW1 2816   0.714   1.857   0.963 -1.6880  0.0189  3.1600
  939SOL    HW2 2817   0.632   1.913   0.825 -3.3094  1.4426 -0.4770
  940SOL     OW 2818   0.041   0.249   2.815  0.2769 -0.2455  0.1646
  940SOL    HW1 2819   0.017   0.208   2.907 -1.5716  0.2404  2.2879
  940SOL    HW2 2820   0.102   0.185   2.768 -1.5287  0.7898  1.4299
  941SOL     OW 2821   1.684   0.406   2.724  0.0589  0.1073 -0.2916
  941SOL    HW1 2822   1.603   0.342   2.709 -0.4968 -2.4900  1.6844
  941SOL    HW2 2823   1.713   0.408   2.823  1.2964 -2.1833  0.1904
  942SOL     OW 2824   1.255   0.815   1.604 -0.5358  0.2452 -0.6470
  942SOL    HW1 2825   1.302   0.859   1.684 -0.0465  1.3108  0.5936
  942SOL    HW2 2826   1.313   0.762   1.538 -0.6564  1.1884 -0.6530
  943SOL     OW 2827   1.250   1.042   1.797  0.2412  0.0064  0.3556
  943SOL    HW1 2828   1.344   1.010   1.808 -2.1669  1.2107 -1.6178
  943SOL    HW2 2829   1.186   0.972   1.840 -0.2284 -0.9120  1.9152
  944SOL     OW 2830   1.996   0.966   1.681 -0.0212  0.5935  0.5682
  944SOL    HW1 2831   1.921   0.981   1.747 -1.5136 -0.5321 -0.8285
  944SOL    HW2 2832   1.999   1.047   1.619 -2.3296 -2.3377  2.0397
  945SOL     OW 2833   2.808   0.109   0.236 -0.1207  0.1133 -0.0713
  945SOL    HW1 2834   2.762   0.120   0.320 -1.3329 -2.0956  0.4641
  945SOL    HW2 2835   2.884   0.178   0.228  1.0812  1.0692  2.6013
  946SOL     OW 2836   2.838   0.334   1.867  0.2839  0.4050 -0.4087
  946SOL    HW1 2837   2.862   0.427   1.903  0.6309  2.0548  0.0262
  946SOL    HW2 2838   2.770   0.341   1.790  0.6579  1.7799 -0.6959
  947SOL     OW 2839   1.150   2.950   0.657 -0.3709 -0.5897 -0.2342
  947SOL    HW1 2840   1.179   2.936   0.556 -0.8942 -1.1299 -2.7653
  947SOL    HW2 2841   1.076   2.882   0.680  1.3053 -0.7703  1.1362
  948SOL     OW 2842   2.526   1.707   1.447  0.1458  0.0009  0.3815
  948SOL    HW1 2843   2.549   1.763   1.528 -0.5836 -0.4506 -3.6153
  948SOL    HW2 2844   2.512   1.609   1.472  0.9037 -1.6568  0.3367
  949SOL     OW 2845   0.422   1.495   3.051  0.6248  0.1562  0.4300
  949SOL    HW1 2846   0.386   1.530   2.959  0.4978 -0.6941 -1.7847
  949SOL    HW2 2847   0.463   1.404   3.039  1.0588  0.7175 -0.8310
  950SOL     OW 2848   0.642   2.482   0.884 -0.1252  0.5852  0.0315
  950SOL    HW1 2849   0.635   2.457   0.783  1.4264  0.4150 -5.3427
  950SOL    HW2 2850   0.582   2.427   0.943  1.1396  1.7165 -2.8060
  951SOL     OW 2851   0.775   0.885   2.349  0.1747 -0.3544  0.4317
  951SOL    HW1 2852   0.773   0.930   2.441  0.2317 -3.0874 -1.2930
  951SOL    HW2 2853   0.816   0.951   2.282  1.7871  2.0979  0.0569
  952SOL     OW 2854   0.342   0.982   0.467  0.3241  0.2010  0.8250
  952SOL    HW1 2855   0.444   0.996   0.466  2.3234 -2.0365 -3.1260
  952SOL    HW2 2856   0.295   1.070   0.441 -3.1922  4.1705 -0.3272
  953SOL     OW 2857   2.551   0.084   2.414 -0.2779 -0.2623  0.2966
  953SOL    HW1 2858   2.469   0.131   2.453  0.6238  1.7758 -0.7181
  953SOL    HW2 2859   2.580   0.007   2.474  0.8470  0.9017 -0.8319
  954SOL     OW 2860   1.545   1.279   0.401  0.3529 -0.1139  0.0694
  954SOL    HW1 2861   1.527   1.379   0.418 -2.1024 -1.9439 -0.3043
  954SOL    HW2 2862   1.520   1.223   0.484 -0.6341  2.3092 -0.3675
  955SOL     OW 2863   0.745   2.071   3.037 -0.1946  0.2705  0.1955
  955SOL    HW1 2864   0.790   2.028   0.029 -1.2244 -0.2943  1.4976
  955SOL    HW2 2865   0.795   2.159   3.006 -0.2151  0.9774 -1.0508
  956SOL     OW 2866   2.054   0.586   2.187 -0.1979 -0.2472  0.0493
  956SOL    HW1 2867   2.114   0.525   2.132 -1.6355 -0.4214  0.9148
  956SOL    HW2 2868   2.066   0.682   2.150 -0.4806  2.5342  2.4683
  957SOL     OW 2869   1.978   2.312   2.452 -0.1492  0.3217 -0.6382
  957SOL    HW1 2870   1.937   2.399   2.488  1.0200  1.8968 -1.1867
  957SOL    HW2 2871   2.063   2.297   2.504  1.1536  2.8867 -1.6059
  958SOL     OW 2872   1.578   1.311   1.200 -0.3156 -0.2741  0.2865
  958SOL    HW1 2873   1.678   1.298   1.184  1.9535  0.0762  1.6631
  958SOL    HW2 2874   1.552   1.252   1.283  0.8383 -0.0886  1.7131
  959SOL     OW 2875   2.016   2.042   2.390  0.1626  0.1796 -0.2075
  959SOL    HW1 2876   1.972   2.131   2.422 -0.5745  1.5359  0.5152
  959SOL    HW2 2877   1.969   1.964   2.434 -1.7138 -2.0643  1.3576
  960SOL     OW 2878   0.182   0.817   2.545  0.1650 -0.6561  0.3067
  960SOL    HW1 2879   0.214   0.883   2.475 -0.4829 -0.5427 -0.1044
  960SOL    HW2 2880   0.086   0.788   2.521 -0.9171 -0.3860 -2.8070
  961SOL     OW 2881   0.352   0.977   2.684  0.6788 -0.1884 -0.0873
  961SOL    HW1 2882   0.277   0.903   2.666 -0.4694 -0.6670  1.6927
  961SOL    HW2 2883   0.344   1.019   2.779  0.3862  3.5723  3.1972
  962SOL     OW 2884   0.522   1.148   2.557  0.0336  0.9386  0.1994
  962SOL    HW1 2885   0.452   1.089   2.603 -2.5152 -0.5903  2.8008
  962SOL    HW2 2886   0.618   1.113   2.574 -1.8401  0.0218  0.6798
  963SOL     OW 2887   2.826   2.265   0.300 -0.0317 -0.6906  0.1175
  963SOL    HW1 2888   2.890   2.316   0.240 -0.2850 -2.0420 -1.0710
  963SOL    HW2 2889   2.819   2.175   0.249  2.3020 -2.7206 -2.2069
  964SOL     OW 2890   0.927   2.203   1.885 -0.3559 -0.4080  0.0533
  964SOL    HW1 2891   1.025   2.185   1.865 -1.9607 -1.0361  1.1622
  964SOL    HW2 2892   0.904   2.206   1.986 -1.0709 -0.1435  1.4478
  965SOL     OW 2893   1.834   1.687   0.191 -0.1662  0.6281 -0.0638
  965SOL    HW1 2894   1.852   1.770   0.125  0.1362 -1.4947 -1.5923
  965SOL    HW2 2895   1.787   1.617   0.139 -2.0120  2.7141  0.8684
  966SOL     OW 2896   2.917   1.444   0.421  0.4572 -0.1947  0.3924
  966SOL    HW1 2897   2.986   1.375   0.452 -0.0333 -3.6986 -1.4588
  966SOL    HW2 2898   2.961   1.535   0.422 -2.1166 -2.1489 -2.6880
  967SOL     OW 2899   1.841   2.725   1.881  0.2633 -0.0306 -0.1706
  967SOL    HW1 2900   1.762   2.671   1.839 -1.9277  0.0797 -0.9020
  967SOL    HW2 2901   1.860   2.692   1.975 -0.3829 -1.1575 -1.9339
  968SOL     OW 2902   1.198   0.522   0.396 -0.0312 -0.3491 -0.1002
  968SOL    HW1 2903   1.145   0.544   0.314 -0.4788 -2.2097  1.6434
  968SOL    HW2 2904   1.208   0.606   0.451  2.9563 -0.0913  0.0369
  969SOL     OW 2905   0.170   1.364   2.215 -0.1695 -0.2363 -0.4867
  969SOL    HW1 2906   0.268   1.346   2.199  1.7409 -1.5524  0.0866
  969SOL    HW2 2907   0.122   1.421   2.141 -1.2607 -1.9550  0.9663
  970SOL     OW 2908   2.227   2.009   1.157  0.2188 -0.4053 -0.0935
  970SOL    HW1 2909   2.137   1.969   1.133  1.2680 -0.7234  2.1144
  970SOL    HW2 2910   2.250   2.097   1.111 -1.2940 -0.2277  0.1653
  971SOL     OW 2911   2.751   2.794   0.997  0.3838 -0.3656  0.3478
  971SOL    HW1 2912   2.804   2.722   1.040 -2.0393  0.1600 -1.9030
  971SOL    HW2 2913   2.776   2.883   1.034 -1.0858 -2.5779 -1.4574
  972SOL     OW 2914   0.004   1.152   2.594 -0.1618  0.4388  0.1324
  972SOL    HW1 2915   0.037   1.125   2.498  2.2153  0.3079 -0.6609
  972SOL    HW2 2916   2.994   1.180   2.605 -0.5373 -0.6553  1.8008
  973SOL     OW 2917   0.489   0.615   0.519  0.1941 -0.0254 -0.0816
  973SOL    HW1 2918   0.497   0.633   0.619  1.4004  3.3993  0.2467
  973SOL    HW2 2919   0.433   0.532   0.503  0.6697 -0.3973 -1.1216
  974SOL     OW 2920   2.201   0.848   1.812  0.2549 -0.3911 -0.4881
  974SOL    HW1 2921   2.118   0.898   1.765 -2.5514  3.9834  0.2018
  974SOL    HW2 2922   2.282   0.845   1.754 -0.5436  1.0683  3.2600
  975SOL     OW 2923   2.932   2.928   0.182 -0.1102  0.4258 -0.4392
  975SOL    HW1 2924   2.883   3.010   0.204 -0.2617 -3.9146  0.8269
  975SOL    HW2 2925   3.026   2.927   0.218 -1.9824 -0.7365 -3.7465
  976SOL     OW 2926   0.550   1.563   1.117 -0.1550  0.1646  0.1217
  976SOL    HW1 2927   0.525   1.468   1.139 -1.7312  0.5150 -0.4419
  976SOL    HW2 2928   0.480   1.612   1.056 -1.2174  2.4480  0.8148
  977SOL     OW 2929   1.184   2.082   0.827 -0.2909 -0.0472  0.2631
  977SOL    HW1 2930   1.222   1.987   0.821  3.0841  1.8265 -1.0446
  977SOL    HW2 2931   1.234   2.143   0.765 -1.0193 -0.1511  1.2485
  978SOL     OW 2932   0.588   1.137   0.170  0.4435 -0.4267 -0.5018
  978SOL    HW1 2933   0.618   1.077   0.246  0.7625  1.3827  0.7517
  978SOL    HW2 2934   0.607   1.096   0.078  0.5410  1.2101 -1.3459
  979SOL     OW 2935   2.068   1.564   0.233 -0.1222  0.2905  0.1582
  979SOL    HW1 2936   2.085   1.471   0.195 -0.3041 -0.0030  0.0816
  979SOL    HW2 2937   1.976   1.598   0.196 -0.0989  2.1133 -0.9281
  980SOL     OW 2938   0.441   2.012   2.299  0.2930 -0.1103  0.6435
  980SOL    HW1 2939   0.474   1.915   2.316 -0.6613 -4.2155  1.1461
  980SOL    HW2 2940   0.354   2.022   2.355 -2.3633 -1.5155  1.3281
  981SOL     OW 2941   2.729   0.979   3.057 -0.1300 -0.1318 -0.3246
  981SOL    HW1 2942   2.728   0.893   3.007  1.1258 -1.0505  1.2944
  981SOL    HW2 2943   2.702   0.971   0.068  0.9442 -2.3291 -1.0885
  982SOL     OW 2944   3.004   2.768   1.925 -0.7901  0.1827  0.5999
  982SOL    HW1 2945   2.928   2.815   1.875 -1.4880 -1.4161 -0.8469
  982SOL    HW2 2946   3.038   2.684   1.878 -0.6158 -0.3983  1.4003
  983SOL     OW 2947   1.677   0.118   1.542  0.3404 -0.8302 -0.2575
  983SOL    HW1 2948   1.594   0.133   1.482 -0.7059  0.3849 -2.1435
  983SOL    HW2 2949   1.731   0.032   1.504  1.5851 -0.4712  1.8161
  984SOL     OW 2950   1.354   2.920   2.762  0.0199  0.1886  0.2169
  984SOL    HW1 2951   1.456   2.923   2.771 -0.7361  0.3735  0.7362
  984SOL    HW2 2952   1.318   2.844   2.699 -0.6926 -2.4435 -0.3523
  985SOL     OW 2953   1.443   1.652   1.584  0.4905  0.2503  0.5283
  985SOL    HW1 2954   1.378   1.637   1.507  0.1163  0.4320  0.9926
  985SOL    HW2 2955   1.403   1.623   1.672 -2.3559  0.6190  1.4880
  986SOL     OW 2956   1.989   2.957   2.420  0.5438  0.1369 -0.1519
  986SOL    HW1 2957   2.050   2.933   2.346 -4.1142  0.3656 -0.3742
  986SOL    HW2 2958   1.970   3.059   2.416 -3.7710 -0.2196 -0.6482
  987SOL     OW 2959   2.686   1.744   2.686 -0.1784  0.4486 -0.4461
  987SOL    HW1 2960   2.701   1.826   2.747  1.4942  1.8550 -0.9035
  987SOL    HW2 2961   2.704   1.760   2.583  0.6784  0.8280 -0.2768
  988SOL     OW 2962   2.708   0.319   1.600 -0.3267 -0.0401 -0.5617
  988SOL    HW1 2963   2.726   0.418   1.572 -2.7438  3.0741 -1.4381
  988SOL    HW2 2964   2.671   0.263   1.522  1.2735 -0.6195  0.8144
  989SOL     OW 2965   1.722   1.180   1.511 -0.3856  0.2050 -0.0442
  989SOL    HW1 2966   1.688   1.274   1.530 -0.8908 -1.0951 -0.9132
  989SOL    HW2 2967   1.827   1.173   1.518  0.9950  0.6266 -1.0155
  990SOL     OW 2968   2.983   1.107   0.011  0.5189  0.1668 -0.0332
  990SOL    HW1 2969   2.888   1.074   3.076 -1.8853  1.1321  0.0748
  990SOL    HW2 2970   3.047   1.071   3.028 -1.0694 -1.8721  1.1878
  991SOL     OW 2971   0.199   2.144   2.914 -1.0020 -0.2646  0.4743
  991SOL    HW1 2972   0.206   2.139   3.013  0.0731  2.3397 -3.5345
  991SOL    HW2 2973   0.291   2.124   2.872  2.4854  0.9404  0.0583
  992SOL     OW 2974   2.655   1.939   1.914 -0.0325 -0.4118 -0.1241
  992SOL    HW1 2975   2.593   1.965   1.988  1.3517 -2.7803 -1.5249
  992SOL    HW2 2976   2.750   1.908   1.948  2.7709  0.4759 -0.8786
  993SOL     OW 2977   0.744   0.079   0.557  0.0395  0.6456 -0.2721
  993SOL    HW1 2978   0.752   0.001   0.492  0.7990  1.0211  2.0910
  993SOL    HW2 2979   0.781   0.051   0.646 -0.5828 -1.0326  2.6514
  994SOL     OW 2980   3.069   1.894   1.568 -0.3713 -0.2779 -0.6042
  994SOL    HW1 2981   0.018   1.880   1.666  0.3768 -2.8598 -1.3707
  994SOL    HW2 2982   0.045   1.846   1.502 -0.3235 -0.4190  1.2866
  995SOL     OW 2983   2.259   2.037   2.498  0.0971 -0.0912  0.2882
  995SOL    HW1 2984   2.332   1.977   2.471 -0.2041 -0.8278 -0.4968
  995SOL    HW2 2985   2.168   2.029   2.449 -0.9801 -0.4699  0.4954
  996SOL     OW 2986   1.999   1.771   2.944  0.3622 -0.4281 -0.0345
  996SOL    HW1 2987   1.929   1.841   2.958  0.8757 -0.2295  2.0676
  996SOL    HW2 2988   2.086   1.821   2.973 -0.7385 -1.4702  1.5577
  997SOL     OW 2989   1.164   1.391   1.573  0.6887  0.4984  0.7028
  997SOL    HW1 2990   1.171   1.292   1.547  1.1964  1.0391 -0.8237
  997SOL    HW2 2991   1.187   1.451   1.491  0.1940 -0.4595 -1.3055
  998SOL     OW 2992   2.764   2.077   1.010  0.0219 -0.1171 -0.3224
  998SOL    HW1 2993   2.810   2.041   0.929  1.0849 -2.7255  2.4193
  998SOL    HW2 2994   2.770   2.010   1.086  0.6096  0.0002  1.0380
  999SOL     OW 2995   2.878   2.661   0.183 -0.2615  0.7645  0.1735
  999SOL    HW1 2996   2.777   2.657   0.167 -0.3944  0.1176 -0.7293
  999SOL    HW2 2997   2.909   2.756   0.188 -3.5160 -0.1321 -0.5325
 1000SOL     OW 2998   1.096   0.108   2.980 -0.2614  0.2465  0.0874
 1000SOL    HW1 2999   1.176   0.147   3.024 -1.0707 -1.4512  1.3594
 1000SOL    HW2 3000   1.066   0.164   2.900 -1.5013 -0.6591 -2.9471
   3.08634   3.08634   3.08634
