1000 SPC/Fw water molecules t= 438.00000 step= 438000
 3000
    1SOL     OW    1   0.031   0.113   1.374  0.1133  0.0854 -0.4439
    1SOL    HW1    2   0.105   0.145   1.313  1.8286  0.1474  1.3347
    1SOL    HW2    3   0.060   0.032   1.429  1.2783  1.0340  1.1427
    2SOL     OW    4   2.827   3.127   3.062 -0.1686 -0.2892 -0.3110
    2SOL    HW1    5   2.862   3.093   0.020  0.6928  3.3845 -2.0811
    2SOL    HW2    6   2.755   3.065   3.030  1.6552  1.4527  3.5572
    3SOL     OW    7   1.334   2.729   3.092 -0.2076  0.0527 -0.1875
    3SOL    HW1    8   1.297   2.632   3.107 -0.5807  1.2703 -2.4673
    3SOL    HW2    9   1.414   2.752   0.019 -0.4481  2.5751  0.2859
    4SOL     OW   10   1.171   2.789   2.394  0.5380 -0.2302 -0.3949
    4SOL    HW1   11   1.241   2.723   2.419  0.0355  2.1801  2.1795
    4SOL    HW2   12   1.077   2.778   2.446  0.0623  0.8065  2.0936
    5SOL     OW   13   2.470   0.327   1.650 -0.2405  0.2984  0.6117
    5SOL    HW1   14   2.521   0.273   1.720  2.0108  0.6858 -1.6799
    5SOL    HW2   15   2.374   0.303   1.639 -1.5635  0.6416 -0.9160
    6SOL     OW   16   2.847   2.392   0.755  0.3201 -0.3654 -0.1916
    6SOL    HW1   17   2.805   2.460   0.818 -1.6101 -2.0680  1.3768
    6SOL    HW2   18   2.863   2.303   0.800  1.1223  1.3028 -0.6347
    7SOL     OW   19   1.508   1.954   0.606 -0.5657  0.2887  0.3503
    7SOL    HW1   20   1.448   1.930   0.533  1.5114  1.5409  5.2578
    7SOL    HW2   21   1.465   1.935   0.697  2.5178  0.6040  0.5758
    8SOL     OW   22   0.296   1.326   0.947 -0.3692  0.4778 -0.2207
    8SOL    HW1   23   0.206   1.285   0.923  1.2670  0.9119  1.0828
    8SOL    HW2   24   0.340   1.383   0.869  3.0957  0.1662 -2.3781
    9SOL     OW   25   3.059   2.833   1.538  0.1491  0.1543  0.6298
    9SOL    HW1   26   2.970   2.832   1.583 -1.8292 -0.9482 -1.7966
    9SOL    HW2   27   0.004   2.828   1.605 -3.0175 -2.3451 -2.1030
   10SOL     OW   28   1.119   2.363   0.522  0.3203  0.0732  0.2720
   10SOL    HW1   29   1.201   2.369   0.583  3.7698 -2.2621 -1.7702
   10SOL    HW2   30   1.075   2.455   0.526 -0.0601  1.5883  0.6452
   11SOL     OW   31   1.826   1.699   1.135  0.1780 -0.1593 -0.5238
   11SOL    HW1   32   1.777   1.719   1.046 -0.1272 -1.5342 -0.5417
   11SOL    HW2   33   1.761   1.648   1.199 -0.6798 -1.1665  0.4193
   12SOL     OW   34   0.305   0.953   1.936  0.1039  0.6168 -0.3412
   12SOL    HW1   35   0.301   0.943   1.836 -0.2656 -1.2990  0.3595
   12SOL    HW2   36   0.277   0.866   1.988 -0.9605 -0.6281 -2.4169
   13SOL     OW   37   2.338   3.026   3.123 -0.1214  0.2503  0.2507
   13SOL    HW1   38   2.345   2.929   3.100  3.7772  1.2556  1.9843
   13SOL    HW2   39   2.251   3.073   3.095 -0.4683 -0.9424  0.3231
   14SOL     OW   40   1.431   1.952   0.131  0.2853 -0.6804 -0.3166
   14SOL    HW1   41   1.420   1.914   0.227  1.4320 -1.6305 -0.0058
   14SOL    HW2   42   1.431   2.054   0.134  0.1764 -0.2274 -3.6684
   15SOL     OW   43   2.972   2.631   1.844 -0.1991  0.0916 -0.4443
   15SOL    HW1   44   3.048   2.595   1.789 -1.9556 -2.5271  0.3960
   15SOL    HW2   45   2.929   2.709   1.793 -0.5551 -0.1627 -1.2963
   16SOL     OW   46   3.021   0.570   0.786 -0.1217  0.3567  0.4587
   16SOL    HW1   47   3.030   0.516   0.701 -0.3082 -1.0447  0.3818
   16SOL    HW2   48   2.960   0.527   0.857 -2.7380  1.1136  2.2227
   17SOL     OW   49   0.849   0.416   0.774  0.1078 -0.1754 -0.3857
   17SOL    HW1   50   0.881   0.515   0.774 -2.3493  1.2585 -0.7042
   17SOL    HW2   51   0.875   0.366   0.684 -0.5155  0.1870 -2.4991
   18SOL     OW   52   1.026   0.055   0.838  0.2113 -0.1596  0.6659
   18SOL    HW1   53   0.988   0.040   0.741 -0.2814  1.0647 -1.2466
   18SOL    HW2   54   0.970   0.002   0.904 -1.2314 -2.7718 -0.2989
   19SOL     OW   55   1.809   1.174   0.805  0.0363  0.1205  0.1914
   19SOL    HW1   56   1.714   1.171   0.836  0.2082 -0.0941  0.6513
   19SOL    HW2   57   1.835   1.106   0.734 -1.4335 -0.0953  0.1553
   20SOL     OW   58   2.157   1.817   2.836  0.6766  0.0851  0.4144
   20SOL    HW1   59   2.254   1.830   2.866 -0.6109  2.6478  0.1424
   20SOL    HW2   60   2.140   1.822   2.737 -0.4597 -4.2023 -0.1236
   21SOL     OW   61   1.376   2.954   0.410  0.1895 -0.5638  0.1063
   21SOL    HW1   62   1.336   2.990   0.322  1.9811  0.0997  1.7768
   21SOL    HW2   63   1.462   2.999   0.441 -3.1175 -0.0098  0.9647
   22SOL     OW   64   2.923   0.923   0.587  0.3542  0.5251 -0.6223
   22SOL    HW1   65   2.867   0.999   0.630  0.2422  2.3236 -0.9140
   22SOL    HW2   66   2.857   0.847   0.565 -1.3466  1.1495  0.9925
   23SOL     OW   67   0.760   0.159   1.864 -0.1717 -0.1417  0.1940
   23SOL    HW1   68   0.860   0.175   1.853 -2.1950  2.2133 -2.1652
   23SOL    HW2   69   0.708   0.239   1.826 -0.7418 -0.3667  0.7278
   24SOL     OW   70   1.736   2.437   0.573 -0.0346  0.3170  0.5374
   24SOL    HW1   71   1.833   2.436   0.603  1.4922  3.4026  0.3283
   24SOL    HW2   72   1.686   2.348   0.603 -3.4997  0.2946  1.8071
   25SOL     OW   73   1.819   0.024   2.161  0.1820  0.3741 -0.3476
   25SOL    HW1   74   1.796   3.095   2.081 -1.2780 -2.3823  2.1884
   25SOL    HW2   75   1.847   3.099   2.242 -1.9875 -1.9136 -1.2892
   26SOL     OW   76   1.657   2.732   2.679 -0.2987 -0.1964 -0.0462
   26SOL    HW1   77   1.655   2.803   2.753  0.6121 -0.0818 -2.0019
   26SOL    HW2   78   1.589   2.657   2.692 -0.0486 -0.4115  1.3436
   27SOL     OW   79   1.447   0.487   1.078  0.3469 -0.3102  0.4197
   27SOL    HW1   80   1.541   0.480   1.117 -0.8041  2.8859  1.8340
   27SOL    HW2   81   1.391   0.408   1.106 -2.1321 -0.5280  2.5570
   28SOL     OW   82   0.561   1.671   0.845 -0.2185 -0.3785 -0.7391
   28SOL    HW1   83   0.616   1.636   0.922 -1.5533  1.3868 -0.2936
   28SOL    HW2   84   0.513   1.758   0.873  0.3772  2.6274  3.4294
   29SOL     OW   85   2.483   0.666   1.285  0.4868  0.2907 -0.5328
   29SOL    HW1   86   2.459   0.678   1.188 -1.7541  0.5544 -2.3309
   29SOL    HW2   87   2.469   0.570   1.316  0.5570 -0.7361 -2.0620
   30SOL     OW   88   1.625   2.527   1.514 -0.3349 -0.1788  0.2510
   30SOL    HW1   89   1.694   2.455   1.499 -0.2051  0.0112 -4.2050
   30SOL    HW2   90   1.576   2.551   1.427 -1.2204 -3.4998 -1.3179
   31SOL     OW   91   1.967   2.904   1.553  0.3226  0.2835  0.3580
   31SOL    HW1   92   1.881   2.851   1.575  0.1575 -0.9993 -1.0243
   31SOL    HW2   93   2.013   2.880   1.464  2.0355  1.0067  0.6814
   32SOL     OW   94   1.993   1.701   2.029 -0.2219  0.3235  0.1020
   32SOL    HW1   95   1.984   1.608   1.992 -2.1506  1.6726 -2.4733
   32SOL    HW2   96   2.052   1.762   1.973 -0.7819 -0.5283 -0.3660
   33SOL     OW   97   2.448   0.014   2.460  0.5781 -0.2962 -0.0536
   33SOL    HW1   98   2.356   0.021   2.510 -1.4698  0.5272  1.8944
   33SOL    HW2   99   2.443   3.066   2.391  0.3283 -3.1120 -0.9203
   34SOL     OW  100   2.129   0.438   0.651  0.5022 -0.0348 -0.4991
   34SOL    HW1  101   2.116   0.443   0.553  1.3140 -0.4779  2.4510
   34SOL    HW2  102   2.057   0.386   0.702 -0.3779  0.5006 -0.4810
   35SOL     OW  103   0.282   2.050   2.042  0.0141  1.1005  0.3575
   35SOL    HW1  104   0.275   2.146   2.073  2.4374  0.1179 -2.8069
   35SOL    HW2  105   0.201   2.008   1.996  1.6580  1.1826  0.4451
   36SOL     OW  106   2.485   1.867   2.777 -0.2482  0.2628 -0.0805
   36SOL    HW1  107   2.497   1.786   2.841  0.8651 -3.5916  2.2082
   36SOL    HW2  108   2.568   1.933   2.780  2.0457  0.3787 -2.3527
   37SOL     OW  109   1.460   0.002   1.736  0.6835  0.2554  0.1632
   37SOL    HW1  110   1.468   0.064   1.816 -2.0860 -0.6682 -0.4037
   37SOL    HW2  111   1.458   3.036   1.773 -1.5776 -3.5828 -0.5657
   38SOL     OW  112   0.955   0.640   2.509  0.5462 -0.0714 -0.0797
   38SOL    HW1  113   1.032   0.701   2.526 -1.5652  0.1273 -0.6976
   38SOL    HW2  114   0.962   0.548   2.559 -0.7879 -0.0852 -0.0891
   39SOL     OW  115   1.760   0.862   1.606  0.5500 -1.2145 -0.2005
   39SOL    HW1  116   1.838   0.929   1.597 -1.4295  0.6981  1.5679
   39SOL    HW2  117   1.696   0.861   1.527  0.4830  1.4367  2.2944
   40SOL     OW  118   1.053   2.466   0.881 -0.2115  0.0110 -0.4707
   40SOL    HW1  119   1.129   2.409   0.839  2.4719 -0.3472  2.0960
   40SOL    HW2  120   1.068   2.566   0.878  0.0522  0.0794 -1.4502
   41SOL     OW  121   2.384   2.108   1.201 -0.5798  0.1670 -0.0820
   41SOL    HW1  122   2.403   2.205   1.228 -0.1031  1.0374 -2.7963
   41SOL    HW2  123   2.297   2.106   1.145  1.1070 -0.4049  1.1022
   42SOL     OW  124   2.735   0.193   0.393  0.5156  0.2009  0.0877
   42SOL    HW1  125   2.672   0.236   0.462  1.8657 -1.7370  1.9226
   42SOL    HW2  126   2.710   0.216   0.297  0.5873 -1.2960 -0.3800
   43SOL     OW  127   0.909   1.122   2.581 -0.1644 -0.0477 -0.5851
   43SOL    HW1  128   0.876   1.075   2.668 -1.1906 -0.8357  0.8502
   43SOL    HW2  129   0.871   1.217   2.576 -1.3346 -0.6918 -0.5973
   44SOL     OW  130   1.828   2.672   1.614 -0.1424  0.4728 -0.2486
   44SOL    HW1  131   1.752   2.629   1.563 -0.3194  0.3785  1.0298
   44SOL    HW2  132   1.915   2.621   1.606 -2.2275  1.7551 -0.5017
   45SOL     OW  133   0.809   2.595   2.865 -0.1101 -0.2985  0.0351
   45SOL    HW1  134   0.765   2.665   2.927  0.7262  1.3957  1.7427
   45SOL    HW2  135   0.913   2.605   2.858  0.6798  1.3961  0.3230
   46SOL     OW  136   0.503   2.677   1.984  0.6093  0.3719 -0.3861
   46SOL    HW1  137   0.433   2.745   2.008  0.8357 -2.1102 -0.3000
   46SOL    HW2  138   0.562   2.722   1.911 -0.5890  0.4232  0.4991
   47SOL     OW  139   0.579   1.990   0.505 -0.0743  0.1657 -0.3122
   47SOL    HW1  140   0.604   1.891   0.512 -0.3142 -1.1752 -1.7221
   47SOL    HW2  141   0.492   2.008   0.553 -1.2138  1.0902 -0.1373
   48SOL     OW  142   0.691   2.941   1.154 -0.0015  0.0905 -0.6778
   48SOL    HW1  143   0.635   2.990   1.221 -0.9274 -1.9758 -1.2670
   48SOL    HW2  144   0.709   2.843   1.174 -2.3229 -0.0235  1.0187
   49SOL     OW  145   3.097   2.919   2.721 -0.1761  0.4485  0.1283
   49SOL    HW1  146   3.044   2.900   2.637 -0.5416  2.9883  1.2317
   49SOL    HW2  147   3.077   3.010   2.759  0.5986 -0.3783  1.4074
   50SOL     OW  148   1.477   1.180   0.515  0.1313  0.0419  0.3167
   50SOL    HW1  149   1.386   1.149   0.480 -4.7162  2.4748 -0.0010
   50SOL    HW2  150   1.548   1.109   0.500  0.1995  1.5158  1.6833
   51SOL     OW  151   2.150   0.011   0.464 -0.1815 -0.0730  0.1842
   51SOL    HW1  152   2.078   3.080   0.420 -1.5668 -1.5997 -1.6541
   51SOL    HW2  153   2.110   0.084   0.530  0.2479  0.5359 -1.2743
   52SOL     OW  154   0.632   1.750   0.593 -0.4191 -0.2325  0.4776
   52SOL    HW1  155   0.598   1.737   0.690 -0.5440  1.2324  3.2920
   52SOL    HW2  156   0.729   1.713   0.593  0.1677 -1.4060  0.8547
   53SOL     OW  157   0.308   1.210   2.853  0.2779  0.4213  0.3699
   53SOL    HW1  158   0.222   1.157   2.850 -0.1895  1.2380  1.3240
   53SOL    HW2  159   0.341   1.214   2.946  1.2359  2.1651 -2.7529
   54SOL     OW  160   2.544   2.056   0.117 -0.3132 -0.3479 -0.7514
   54SOL    HW1  161   2.592   2.080   0.208  0.4881  0.5971  1.7164
   54SOL    HW2  162   2.479   1.982   0.127  2.1522  4.7700 -0.1409
   55SOL     OW  163   2.488   2.385   1.269  0.7491  0.0546 -0.2327
   55SOL    HW1  164   2.515   2.398   1.368 -1.7624 -1.4410  1.6173
   55SOL    HW2  165   2.400   2.439   1.248  0.6625 -2.8140 -2.2714
   56SOL     OW  166   1.615   0.070   1.516 -0.8783 -0.4068 -0.1454
   56SOL    HW1  167   1.548   0.036   1.587  2.8949 -1.3087 -1.2314
   56SOL    HW2  168   1.710   0.079   1.554  2.0940  0.8195 -0.5592
   57SOL     OW  169   1.695   1.761   0.927 -0.6407 -0.7008  0.4609
   57SOL    HW1  170   1.666   1.861   0.938 -1.9846  2.5060 -3.1162
   57SOL    HW2  171   1.694   1.740   0.831 -0.0042 -2.5520  4.5086
   58SOL     OW  172   2.645   0.258   1.845  0.1837 -0.7227 -0.2348
   58SOL    HW1  173   2.676   0.341   1.896  0.8069  0.3850 -1.2538
   58SOL    HW2  174   2.718   0.212   1.790  1.2629  3.5980  1.7680
   59SOL     OW  175   1.086   2.559   2.246 -0.0706 -0.1889 -0.2700
   59SOL    HW1  176   1.126   2.646   2.273 -1.1573 -4.2504  0.3179
   59SOL    HW2  177   0.989   2.566   2.219  3.2617  2.7190 -0.9530
   60SOL     OW  178   0.950   0.098   2.769 -0.0206 -0.2233  0.5518
   60SOL    HW1  179   0.894   0.079   2.691  1.9770 -0.7573 -0.6538
   60SOL    HW2  180   0.902   0.140   2.849  1.0435 -1.0827  0.1021
   61SOL     OW  181   0.764   2.074   0.688  0.2370 -0.1694 -0.6205
   61SOL    HW1  182   0.830   2.128   0.627  0.6680 -0.1858  2.2666
   61SOL    HW2  183   0.698   2.025   0.628  0.5187  1.1074  1.1115
   62SOL     OW  184   1.133   1.683   2.023 -0.2272 -0.2168  0.0542
   62SOL    HW1  185   1.075   1.610   1.975 -1.1485 -0.9377  1.3924
   62SOL    HW2  186   1.072   1.756   2.063  0.4024  0.1625 -0.2412
   63SOL     OW  187   0.888   1.711   0.953 -0.0099  0.1292  0.0359
   63SOL    HW1  188   0.908   1.717   1.055  2.2726 -2.0131 -0.6082
   63SOL    HW2  189   0.878   1.618   0.923 -1.3687  1.8058  2.7231
   64SOL     OW  190   1.448   1.512   2.973 -0.3680  0.0350  0.6607
   64SOL    HW1  191   1.347   1.527   2.950 -1.0852  0.2163  2.3989
   64SOL    HW2  192   1.457   1.416   3.006 -0.5645  0.0119  0.2644
   65SOL     OW  193   1.661   2.162   2.444 -0.5395  0.5409 -0.2004
   65SOL    HW1  194   1.645   2.064   2.405 -0.0935 -1.4906  0.1653
   65SOL    HW2  195   1.758   2.165   2.480  0.0688 -1.1305  1.2014
   66SOL     OW  196   0.146   0.907   1.060 -0.3201  0.7479  0.3379
   66SOL    HW1  197   0.247   0.920   1.068  0.2321  2.4264 -1.7632
   66SOL    HW2  198   0.120   0.848   0.981 -0.4683 -0.4644  1.9258
   67SOL     OW  199   2.337   2.455   0.409  0.0691  0.9025 -0.1249
   67SOL    HW1  200   2.285   2.398   0.480  1.1642 -0.0125  2.7794
   67SOL    HW2  201   2.298   2.440   0.318  1.0268 -0.8942 -0.6014
   68SOL     OW  202   2.625   2.459   1.506 -0.3921 -0.2379 -0.6252
   68SOL    HW1  203   2.700   2.520   1.469 -3.3907  1.9962 -0.2174
   68SOL    HW2  204   2.603   2.477   1.603  0.0792  0.2102 -0.8389
   69SOL     OW  205   2.697   2.642   2.788  0.3414  0.7105  0.4658
   69SOL    HW1  206   2.790   2.629   2.751 -0.1837  0.4530 -1.6870
   69SOL    HW2  207   2.632   2.687   2.720  0.5317  0.3069  1.4160
   70SOL     OW  208   0.511   1.402   2.783 -0.0814  0.0202 -0.6588
   70SOL    HW1  209   0.545   1.400   2.690  2.1648  1.0575  0.6044
   70SOL    HW2  210   0.428   1.341   2.794 -1.5483 -1.5614  0.9526
   71SOL     OW  211   0.947   1.293   2.090 -0.7383  0.2224  1.0827
   71SOL    HW1  212   0.858   1.259   2.055 -1.3457  0.8405 -1.9821
   71SOL    HW2  213   0.981   1.357   2.017 -1.2052  1.0323 -1.1429
   72SOL     OW  214   2.471   1.422   1.952 -0.2808  0.0995 -0.2674
   72SOL    HW1  215   2.460   1.425   2.056  0.9439  0.3107  0.9905
   72SOL    HW2  216   2.570   1.430   1.929  0.2233  0.0156  0.1220
   73SOL     OW  217   0.568   1.950   2.974  0.0119 -0.5351  0.0265
   73SOL    HW1  218   0.519   1.957   2.886  1.8291  0.9900  4.0206
   73SOL    HW2  219   0.635   1.874   2.982 -1.1740  2.3205 -2.2390
   74SOL     OW  220   1.491   2.871   1.829 -0.1866  0.1224 -0.1669
   74SOL    HW1  221   1.429   2.837   1.900 -0.8916  0.5362 -0.1031
   74SOL    HW2  222   1.584   2.823   1.830  2.5444 -2.0960  1.0810
   75SOL     OW  223   0.970   2.836   0.714  0.2281  0.1369 -0.5290
   75SOL    HW1  224   1.000   2.798   0.802  0.6714  2.1643 -0.3077
   75SOL    HW2  225   1.051   2.869   0.659  1.6743 -0.4165 -1.0619
   76SOL     OW  226   0.191   1.680   2.821 -0.1105  0.1552  0.2031
   76SOL    HW1  227   0.269   1.651   2.880  1.9064  0.5384  0.3914
   76SOL    HW2  228   0.107   1.627   2.846 -1.2311 -1.0210 -2.1649
   77SOL     OW  229   0.432   2.385   1.306  0.3039 -0.0965 -0.1642
   77SOL    HW1  230   0.426   2.476   1.263 -2.3079  2.0778  2.2728
   77SOL    HW2  231   0.491   2.393   1.389 -1.6517  0.2467 -0.2397
   78SOL     OW  232   2.518   1.183   0.318  0.4187 -0.5567  0.0737
   78SOL    HW1  233   2.557   1.194   0.225  3.3313 -2.1071 -0.1156
   78SOL    HW2  234   2.566   1.242   0.390  1.7787  0.1273  0.6855
   79SOL     OW  235   0.690   1.643   0.066  0.2335 -0.3889 -0.6688
   79SOL    HW1  236   0.620   1.570   0.072  0.6373 -1.5865 -3.0768
   79SOL    HW2  237   0.713   1.673   3.102  1.3643 -2.2102 -0.8997
   80SOL     OW  238   1.668   1.672   1.587 -0.3401 -0.3755  0.1744
   80SOL    HW1  239   1.715   1.659   1.677 -0.0454  0.3441 -2.0158
   80SOL    HW2  240   1.569   1.657   1.602 -0.4269  0.1881 -1.9217
   81SOL     OW  241   2.257   0.967   2.221 -0.7563 -0.1751  0.8937
   81SOL    HW1  242   2.216   0.889   2.173  1.4603  0.8198 -1.9243
   81SOL    HW2  243   2.191   1.034   2.257 -2.4429  0.4217 -0.3136
   82SOL     OW  244   1.411   1.582   1.541 -0.1200  0.1698  0.0388
   82SOL    HW1  245   1.400   1.598   1.441  0.9369 -1.3018  0.1521
   82SOL    HW2  246   1.330   1.531   1.578 -0.4926  0.0479 -0.3660
   83SOL     OW  247   0.208   0.343   3.109  0.5003 -0.4025 -0.4793
   83SOL    HW1  248   0.177   0.249   3.124  1.5656  1.0909 -2.4025
   83SOL    HW2  249   0.306   0.357   0.010  0.4027 -0.2468 -1.2111
   84SOL     OW  250   0.654   1.190   0.340 -0.0409  0.5742  0.2177
   84SOL    HW1  251   0.658   1.151   0.248  0.5604 -0.3828  3.0191
   84SOL    HW2  252   0.577   1.253   0.342 -0.4148 -2.2168 -0.4683
   85SOL     OW  253   2.404   1.822   1.722 -0.3435 -0.4049  0.5405
   85SOL    HW1  254   2.395   1.752   1.649  2.4456  0.8953 -1.8504
   85SOL    HW2  255   2.448   1.911   1.688 -0.0188  0.5840  1.3583
   86SOL     OW  256   0.475   0.595   1.154 -0.4965 -0.2161 -0.2042
   86SOL    HW1  257   0.565   0.641   1.153 -0.9543  1.0146  1.4067
   86SOL    HW2  258   0.483   0.512   1.215 -0.7820 -0.8500  2.1192
   87SOL     OW  259   2.685   2.288   2.626 -0.8462  0.5385 -0.5957
   87SOL    HW1  260   2.770   2.321   2.577  0.9465 -0.4822  1.0761
   87SOL    HW2  261   2.611   2.361   2.630  3.2959 -1.6653 -1.4584
   88SOL     OW  262   0.169   2.946   0.058 -0.7459 -0.0705  0.3381
   88SOL    HW1  263   0.228   2.872   0.095 -1.2172  2.8525  1.2470
   88SOL    HW2  264   0.216   3.035   0.068 -2.4834  0.6221 -0.6223
   89SOL     OW  265   1.625   0.011   0.097  0.5212  0.1100 -0.1823
   89SOL    HW1  266   1.563   3.118   0.018 -0.3588 -0.8770 -2.8562
   89SOL    HW2  267   1.583   0.099   0.137 -0.0671  1.9461 -0.8164
   90SOL     OW  268   2.995   1.491   2.283 -0.4135 -0.2639 -0.7190
   90SOL    HW1  269   2.977   1.495   2.383  0.0936 -0.4939  0.1654
   90SOL    HW2  270   2.995   1.394   2.254 -1.8126  0.5695  0.2587
   91SOL     OW  271   2.103   2.919   1.298  0.6466  0.2398  0.1317
   91SOL    HW1  272   2.185   2.977   1.290  2.2676 -3.1888  0.2253
   91SOL    HW2  273   2.036   2.962   1.238 -0.2705 -1.3069 -1.7716
   92SOL     OW  274   1.969   1.393   0.810  0.5428  0.3367  0.5408
   92SOL    HW1  275   1.911   1.310   0.818  1.3068 -1.7103 -1.3029
   92SOL    HW2  276   2.062   1.368   0.771  1.3727  1.5897  0.5129
   93SOL     OW  277   0.262   1.444   0.426  0.1654  0.7756  0.6052
   93SOL    HW1  278   0.287   1.539   0.458 -0.3840 -0.3447  1.6215
   93SOL    HW2  279   0.178   1.447   0.369 -0.5039 -0.6711 -0.2778
   94SOL     OW  280   1.103   2.539   1.529  0.1552 -0.0510 -0.3420
   94SOL    HW1  281   1.169   2.594   1.578 -0.0906  0.0003 -2.3587
   94SOL    HW2  282   1.043   2.483   1.591  1.0487 -1.0483  0.8775
   95SOL     OW  283   0.165   0.667   0.561 -0.4863  0.3356  0.5352
   95SOL    HW1  284   0.260   0.687   0.517  2.1390 -0.1522  1.8177
   95SOL    HW2  285   0.153   0.719   0.651  0.9698  3.0977 -0.8105
   96SOL     OW  286   0.275   3.071   1.633 -0.2265 -0.3147  0.1927
   96SOL    HW1  287   0.359   3.068   1.573  2.2709 -2.5572 -0.1465
   96SOL    HW2  288   0.235   2.977   1.642 -1.5089  0.1396 -0.5757
   97SOL     OW  289   2.312   0.572   0.786 -0.1594  0.5416  0.2364
   97SOL    HW1  290   2.244   0.523   0.730  0.1273  2.8510  2.1506
   97SOL    HW2  291   2.408   0.578   0.761 -0.0736  0.6915  1.7448
   98SOL     OW  292   2.813   2.235   1.672  0.1894 -0.2000  0.2041
   98SOL    HW1  293   2.822   2.286   1.759  0.2838  1.9718  0.7536
   98SOL    HW2  294   2.766   2.288   1.597  3.0836 -3.4510  2.5423
   99SOL     OW  295   3.002   0.344   1.368 -0.0390 -0.4077  0.6003
   99SOL    HW1  296   3.063   0.265   1.395 -0.8195  2.2069 -0.5564
   99SOL    HW2  297   2.987   0.399   1.454  0.5623  0.1143 -1.1329
  100SOL     OW  298   2.144   0.526   2.621  0.3993 -1.1396  0.8234
  100SOL    HW1  299   2.142   0.630   2.603  0.6564  0.7501  1.0612
  100SOL    HW2  300   2.098   0.471   2.554 -0.1120 -1.1316  1.4602
  101SOL     OW  301   0.636   3.085   2.463  0.0809  0.2004 -0.5439
  101SOL    HW1  302   0.605   3.035   2.378 -4.8714  0.9641  1.1871
  101SOL    HW2  303   0.659   3.016   2.534  1.7126  0.0930  1.6382
  102SOL     OW  304   0.744   0.414   1.539  0.2758  0.3355  0.2848
  102SOL    HW1  305   0.719   0.339   1.471 -2.5803 -2.5595 -1.1717
  102SOL    HW2  306   0.731   0.506   1.495 -0.5130  2.0375 -0.2153
  103SOL     OW  307   1.188   0.763   2.547  0.2850 -0.2154 -0.2085
  103SOL    HW1  308   1.264   0.704   2.518 -1.0694 -1.2801  1.3568
  103SOL    HW2  309   1.192   0.854   2.496 -0.1925  2.8347 -1.3152
  104SOL     OW  310   0.296   0.286   1.881  0.7089 -0.4288  0.3576
  104SOL    HW1  311   0.393   0.317   1.863  0.0139 -2.5334  0.0253
  104SOL    HW2  312   0.290   0.250   1.972 -0.2252  2.2779 -0.3071
  105SOL     OW  313   2.514   2.048   1.620  0.2185  0.3678 -0.4891
  105SOL    HW1  314   2.606   2.047   1.582 -4.7766  2.1257  0.0599
  105SOL    HW2  315   2.515   2.080   1.719 -0.0539 -2.2025  1.0793
  106SOL     OW  316   1.194   2.991   0.590 -0.3164 -0.0703 -0.1676
  106SOL    HW1  317   1.248   2.965   0.502  0.2024 -1.1205 -0.4989
  106SOL    HW2  318   1.247   3.059   0.644  1.3002 -0.5050 -1.8441
  107SOL     OW  319   2.582   1.909   1.233 -0.5655  0.0630  0.3492
  107SOL    HW1  320   2.500   1.965   1.246 -0.7892 -2.0294 -0.8608
  107SOL    HW2  321   2.600   1.895   1.133 -0.7416 -0.5891 -0.4852
  108SOL     OW  322   0.016   2.234   0.563 -0.6881 -0.3300  0.1014
  108SOL    HW1  323   0.078   2.187   0.499 -0.9683  0.7537 -1.3050
  108SOL    HW2  324   0.036   2.217   0.662 -0.8652  0.9556  1.1507
  109SOL     OW  325   1.596   3.026   0.695  0.2035 -0.3465 -0.0217
  109SOL    HW1  326   1.607   2.942   0.638  1.1886  0.8446 -1.2048
  109SOL    HW2  327   1.682   3.076   0.680 -1.2564 -0.3112 -1.5959
  110SOL     OW  328   1.615   1.467   0.970 -0.6497  0.6186  0.3672
  110SOL    HW1  329   1.693   1.524   0.992  0.9036 -1.8060  0.7150
  110SOL    HW2  330   1.549   1.534   0.929  2.3118 -0.6335 -0.3711
  111SOL     OW  331   1.654   2.472   1.934 -0.1503 -0.3265 -0.2838
  111SOL    HW1  332   1.555   2.461   1.917  1.6040 -1.4993 -0.2712
  111SOL    HW2  333   1.709   2.388   1.902 -1.5085 -0.5894  0.2955
  112SOL     OW  334   2.080   2.218   2.730  0.3603 -0.7065 -0.1278
  112SOL    HW1  335   2.150   2.150   2.735  1.0459 -0.2246  0.5671
  112SOL    HW2  336   2.095   2.297   2.792 -1.9149 -2.3889 -1.9137
  113SOL     OW  337   2.028   2.016   1.848 -0.4439  0.5738 -0.1716
  113SOL    HW1  338   2.106   1.958   1.886 -0.6480 -0.8545 -0.5461
  113SOL    HW2  339   2.029   2.012   1.744 -1.8676 -1.3977  0.4754
  114SOL     OW  340   0.227   1.083   1.434 -0.0647  0.7026 -0.9371
  114SOL    HW1  341   0.128   1.088   1.416 -0.0052  1.2562  2.1839
  114SOL    HW2  342   0.260   1.177   1.447  0.2943 -1.6974 -1.6468
  115SOL     OW  343   2.939   0.764   2.875  0.1832  0.5649 -0.0390
  115SOL    HW1  344   2.984   0.813   2.797  0.8177  0.5897  0.5936
  115SOL    HW2  345   2.840   0.767   2.859 -0.2771  1.0313 -0.2305
  116SOL     OW  346   2.767   0.296   2.741 -0.0337 -0.6760  0.1562
  116SOL    HW1  347   2.838   0.356   2.790  2.9098  1.6292  0.6449
  116SOL    HW2  348   2.707   0.354   2.679 -3.4388 -1.4737  0.2825
  117SOL     OW  349   2.643   2.795   0.271 -0.0356 -0.5067  0.0451
  117SOL    HW1  350   2.733   2.747   0.279  0.1718  0.3050 -1.1215
  117SOL    HW2  351   2.581   2.734   0.223  2.6086  1.7881  1.5427
  118SOL     OW  352   0.429   2.200   2.363  0.0747 -0.5093 -0.5796
  118SOL    HW1  353   0.406   2.276   2.431 -0.7551  0.9183 -3.7888
  118SOL    HW2  354   0.459   2.241   2.275 -1.0985 -0.0583  1.9823
  119SOL     OW  355   0.767   2.788   0.291  0.5470  0.3651  0.3258
  119SOL    HW1  356   0.740   2.725   0.368  0.5122  1.6937 -1.0054
  119SOL    HW2  357   0.850   2.842   0.313  1.1772 -0.3537 -2.3371
  120SOL     OW  358   1.474   0.798   0.424  0.2143  0.0218  0.0964
  120SOL    HW1  359   1.449   0.723   0.488 -1.6271  0.4835  0.1292
  120SOL    HW2  360   1.560   0.848   0.458  3.2192  1.8486  1.6052
  121SOL     OW  361   1.916   0.338   0.815  0.8491 -0.0836  0.1992
  121SOL    HW1  362   1.917   0.354   0.917  1.1248  1.1777  1.6097
  121SOL    HW2  363   1.823   0.322   0.767  0.4034 -0.0722  1.5221
  122SOL     OW  364   2.071   1.399   2.331 -0.3791 -0.1933 -1.0258
  122SOL    HW1  365   1.995   1.466   2.350  0.9205 -1.9699  0.5100
  122SOL    HW2  366   2.101   1.428   2.241  1.3970 -1.2806 -0.0366
  123SOL     OW  367   1.110   0.936   0.931 -0.2529 -0.8189  0.0572
  123SOL    HW1  368   1.152   0.843   0.936 -0.9802 -1.0304  0.9644
  123SOL    HW2  369   1.055   0.958   1.011  0.5693  0.7668  0.6889
  124SOL     OW  370   0.719   0.632   2.855  0.6392 -0.1730 -0.2259
  124SOL    HW1  371   0.707   0.615   2.752  1.0013  0.0328  0.6392
  124SOL    HW2  372   0.814   0.630   2.887 -2.2414 -0.2943  0.2240
  125SOL     OW  373   0.916   0.280   0.180  0.1225  0.1664  0.3588
  125SOL    HW1  374   1.000   0.252   0.233 -1.4645  1.4095 -3.2417
  125SOL    HW2  375   0.827   0.261   0.231 -2.4494 -1.3823  0.3320
  126SOL     OW  376   0.393   1.679   0.469 -0.2014  0.0220  0.4367
  126SOL    HW1  377   0.326   1.753   0.485  1.8383 -1.1288  1.3187
  126SOL    HW2  378   0.484   1.703   0.505  1.0421  1.7204 -1.5698
  127SOL     OW  379   0.892   2.676   1.773 -0.4050 -0.8291  0.2435
  127SOL    HW1  380   0.798   2.719   1.766 -1.6296 -0.1997 -0.2858
  127SOL    HW2  381   0.971   2.740   1.785 -0.1892 -0.7888 -0.2856
  128SOL     OW  382   1.074   1.778   0.396 -0.3172 -0.6859 -0.0950
  128SOL    HW1  383   1.079   1.707   0.325 -1.0607  1.1716  1.7251
  128SOL    HW2  384   1.027   1.865   0.371 -2.4161 -1.1835  1.9351
  129SOL     OW  385   1.738   1.492   2.048 -0.3959  0.6446  0.1141
  129SOL    HW1  386   1.723   1.587   2.013 -0.1315 -0.3652 -2.4232
  129SOL    HW2  387   1.821   1.449   2.011 -2.4885 -2.9064  2.6182
  130SOL     OW  388   2.029   1.975   1.565 -0.3452  0.4292  0.1218
  130SOL    HW1  389   2.122   1.999   1.526 -0.2016  1.7277  0.6845
  130SOL    HW2  390   1.984   1.905   1.509  0.1437 -1.8714  1.2758
  131SOL     OW  391   0.236   2.349   2.031  0.7369 -0.7136  0.3690
  131SOL    HW1  392   0.210   2.397   2.119 -1.3746  0.8976 -0.2873
  131SOL    HW2  393   0.150   2.313   1.985 -2.7982  2.1056 -2.2824
  132SOL     OW  394   2.686   1.764   0.755 -0.3825 -0.1373 -0.0855
  132SOL    HW1  395   2.713   1.666   0.736 -0.7658 -2.3640 -0.7883
  132SOL    HW2  396   2.761   1.821   0.722 -1.8938  2.6302 -1.2687
  133SOL     OW  397   0.659   0.945   1.750  0.6551 -0.3043 -0.4594
  133SOL    HW1  398   0.681   1.047   1.744 -1.2835  1.1471  2.1500
  133SOL    HW2  399   0.723   0.890   1.806  0.1394  2.2858  0.5126
  134SOL     OW  400   2.643   1.300   0.552  0.4799 -0.1871 -0.0754
  134SOL    HW1  401   2.724   1.308   0.488  2.0473 -0.6950 -2.0713
  134SOL    HW2  402   2.572   1.374   0.535 -1.5566 -0.9481 -1.1439
  135SOL     OW  403   1.690   1.155   2.879 -0.3386 -0.6572  0.1736
  135SOL    HW1  404   1.737   1.215   2.946 -3.5358 -1.6382  1.0581
  135SOL    HW2  405   1.757   1.087   2.844  2.5043  2.0185  0.6189
  136SOL     OW  406   2.733   1.448   1.165  0.5924 -0.3180 -0.3159
  136SOL    HW1  407   2.640   1.471   1.201  0.7650 -0.4092  0.0684
  136SOL    HW2  408   2.782   1.386   1.226  0.4471 -0.0211  0.9391
  137SOL     OW  409   2.372   1.854   0.495 -0.1159 -0.3922 -0.6320
  137SOL    HW1  410   2.325   1.776   0.536 -0.7102  3.4646  0.5487
  137SOL    HW2  411   2.470   1.844   0.500  0.3841  2.8953  0.1602
  138SOL     OW  412   2.738   0.762   0.485 -0.4285  1.0856 -0.4647
  138SOL    HW1  413   2.738   0.675   0.432 -2.7683 -1.7259  0.2486
  138SOL    HW2  414   2.701   0.838   0.428  1.1032  1.3494 -1.3709
  139SOL     OW  415   2.974   3.126   2.827 -0.3117 -0.4341  0.1997
  139SOL    HW1  416   2.937   0.026   2.921  0.2446  0.1832 -0.2921
  139SOL    HW2  417   2.920   0.034   2.749  1.3772  1.4138  2.4266
  140SOL     OW  418   0.705   1.197   1.754  0.2886 -0.3927  0.4538
  140SOL    HW1  419   0.688   1.215   1.852  0.5308  1.2978 -2.5696
  140SOL    HW2  420   0.687   1.288   1.710  0.5784  0.0430 -1.8905
  141SOL     OW  421   1.186   1.627   0.955  0.3167 -0.6540  0.2300
  141SOL    HW1  422   1.134   1.564   1.016 -0.9433  0.9500 -1.7682
  141SOL    HW2  423   1.139   1.716   0.933  2.7395 -0.3839 -1.2373
  142SOL     OW  424   1.500   1.002   1.099 -0.0278  0.4903 -0.5646
  142SOL    HW1  425   1.549   0.911   1.077  0.3356 -2.3696 -0.2616
  142SOL    HW2  426   1.531   1.084   1.046  0.2347  0.0844 -0.2532
  143SOL     OW  427   0.782   1.028   2.790  0.5269 -0.3485  0.0221
  143SOL    HW1  428   0.734   1.112   2.829  2.9739  0.5795  0.8846
  143SOL    HW2  429   0.711   0.956   2.770 -0.8916  0.0034 -0.9872
  144SOL     OW  430   2.530   3.057   0.206 -0.4133  0.2810  0.3170
  144SOL    HW1  431   2.575   2.969   0.238  1.8897  1.1985  1.8744
  144SOL    HW2  432   2.455   3.047   0.138  0.0339 -0.8500 -1.0679
  145SOL     OW  433   2.358   0.213   2.781  0.6365 -0.3467 -0.2518
  145SOL    HW1  434   2.317   0.234   2.872  0.3574  2.6650  2.2899
  145SOL    HW2  435   2.380   0.303   2.737 -1.3259 -2.3677 -0.5533
  146SOL     OW  436   3.111   3.059   0.358  0.1877  0.2078  0.2288
  146SOL    HW1  437   3.078   3.044   0.264  1.8987 -1.2929 -1.2153
  146SOL    HW2  438   3.033   3.069   0.418 -0.3223 -0.5044  0.9778
  147SOL     OW  439   1.343   1.240   3.012 -0.1497  0.3183 -0.3718
  147SOL    HW1  440   1.400   1.157   2.991  0.1011 -1.9222  1.4063
  147SOL    HW2  441   1.267   1.248   2.944 -1.1019 -1.4428  3.5685
  148SOL     OW  442   1.269   3.054   0.143 -0.3815  0.2028 -0.1472
  148SOL    HW1  443   1.216   3.126   0.199 -0.5606  1.1724  3.9112
  148SOL    HW2  444   1.224   3.037   0.055  1.0667  0.6462 -1.1532
  149SOL     OW  445   1.627   0.615   2.228 -0.0579 -0.1231 -0.0565
  149SOL    HW1  446   1.728   0.610   2.250 -0.3419  0.5147 -0.5352
  149SOL    HW2  447   1.604   0.712   2.226  2.5740 -0.2582 -2.5520
  150SOL     OW  448   1.883   3.100   2.796  0.0625  0.3838  0.7586
  150SOL    HW1  449   1.862   0.027   2.871  0.4456 -4.2447 -3.1633
  150SOL    HW2  450   1.972   3.053   2.811 -0.0876 -1.7124  2.1857
  151SOL     OW  451   0.463   1.367   0.276  0.4531  0.3946 -0.6429
  151SOL    HW1  452   0.450   1.417   0.184  0.8486 -0.6789  0.7391
  151SOL    HW2  453   0.381   1.358   0.334  0.9203  0.0616 -1.1640
  152SOL     OW  454   0.496   0.379   1.310 -0.2165 -0.3957 -0.4203
  152SOL    HW1  455   0.456   0.437   1.390 -4.0182  0.1818  3.2280
  152SOL    HW2  456   0.565   0.313   1.347  0.6942 -1.5538  1.2210
  153SOL     OW  457   2.499   2.976   1.995  0.2750  0.0290  0.5791
  153SOL    HW1  458   2.458   3.065   1.961 -2.5982  1.1707  0.6426
  153SOL    HW2  459   2.483   2.966   2.093  1.7975  2.6679 -2.1230
  154SOL     OW  460   2.143   3.028   2.193 -0.2061  0.0006 -0.2360
  154SOL    HW1  461   2.160   3.129   2.181 -0.7755  2.0748 -0.4430
  154SOL    HW2  462   2.116   2.983   2.106  0.7501 -1.1561 -1.2628
  155SOL     OW  463   0.461   1.040   0.663  0.0201  0.1021  0.3233
  155SOL    HW1  464   0.403   1.119   0.634  0.7967  2.5290 -0.1098
  155SOL    HW2  465   0.523   1.065   0.738 -1.5991  0.7694 -1.5286
  156SOL     OW  466   2.254   1.640   0.582 -0.2634 -0.1004  0.3212
  156SOL    HW1  467   2.329   1.571   0.593  1.2542 -1.2571 -0.9827
  156SOL    HW2  468   2.170   1.588   0.549 -1.3452 -0.1583 -1.0232
  157SOL     OW  469   1.075   0.213   3.080  0.4400  0.0467  0.0182
  157SOL    HW1  470   1.053   0.118   3.048 -3.4547  0.3504 -1.2831
  157SOL    HW2  471   1.021   0.239   0.033  2.0685 -0.6923  0.5356
  158SOL     OW  472   1.620   1.188   1.362 -0.2488 -0.0408  0.0679
  158SOL    HW1  473   1.648   1.255   1.437  3.2271  0.3946  1.3218
  158SOL    HW2  474   1.704   1.163   1.305  1.5489  1.0887 -0.8817
  159SOL     OW  475   2.982   0.288   0.261  0.1580 -0.2329  0.1504
  159SOL    HW1  476   3.077   0.282   0.298 -1.6869 -2.5717 -0.5340
  159SOL    HW2  477   2.921   0.230   0.310 -1.7765 -1.1298 -3.5134
  160SOL     OW  478   2.512   2.133   1.897  0.0662 -0.3086 -0.0200
  160SOL    HW1  479   2.522   2.123   1.996  3.9423 -1.7375 -3.1737
  160SOL    HW2  480   2.432   2.189   1.869 -1.7159  1.1543  1.9425
  161SOL     OW  481   0.513   0.758   2.999 -0.4123  0.1563  0.2553
  161SOL    HW1  482   0.589   0.701   2.956  0.1076 -1.3951 -0.3179
  161SOL    HW2  483   0.424   0.741   2.954 -2.4580 -0.5935 -1.6124
  162SOL     OW  484   0.593   0.371   1.785  0.1090  0.2228 -0.0041
  162SOL    HW1  485   0.587   0.459   1.838  1.5654 -0.4763 -0.8401
  162SOL    HW2  486   0.607   0.396   1.686  1.2775  2.0134  2.3411
  163SOL     OW  487   2.605   0.215   2.350 -0.1059 -0.0196 -0.5514
  163SOL    HW1  488   2.534   0.143   2.384 -0.5110 -3.2211  1.7155
  163SOL    HW2  489   2.693   0.166   2.334  1.0906  0.1475 -0.5560
  164SOL     OW  490   2.357   1.848   0.212 -0.2094 -0.0639 -0.0852
  164SOL    HW1  491   2.265   1.887   0.182 -0.1215  1.7634  4.1085
  164SOL    HW2  492   2.369   1.881   0.312 -0.2694  1.1122  1.8173
  165SOL     OW  493   0.297   0.050   1.003  0.0778  0.5942  0.2966
  165SOL    HW1  494   0.271   0.099   0.915  0.3522 -0.5424  0.6461
  165SOL    HW2  495   0.384   0.087   1.032 -1.3250 -2.1549 -0.9587
  166SOL     OW  496   2.720   0.243   3.028  0.0270  0.6199 -0.2326
  166SOL    HW1  497   2.659   0.247   2.947 -2.6908 -2.8244  1.9318
  166SOL    HW2  498   2.759   0.145   3.034  2.0749  2.0997 -1.1103
  167SOL     OW  499   2.409   0.766   0.236  0.3338 -0.1160 -0.1705
  167SOL    HW1  500   2.324   0.815   0.260  1.5281  0.8398 -0.9291
  167SOL    HW2  501   2.388   0.699   0.163  2.0734 -1.3775 -2.6733
  168SOL     OW  502   1.544   2.974   2.277  0.2244  0.3519 -0.1170
  168SOL    HW1  503   1.560   2.993   2.380 -0.0617  0.7087  0.6779
  168SOL    HW2  504   1.452   2.936   2.251 -3.1649  1.4884  1.6931
  169SOL     OW  505   0.344   2.061   0.626 -0.1927 -0.1647 -0.0310
  169SOL    HW1  506   0.276   1.988   0.626  0.5523  1.6227 -2.2302
  169SOL    HW2  507   0.348   2.111   0.716 -1.0730  1.0467  1.5205
  170SOL     OW  508   0.249   0.354   1.461 -0.2323 -0.0082  0.2288
  170SOL    HW1  509   0.254   0.279   1.537  1.3851  1.3897 -0.7201
  170SOL    HW2  510   0.236   0.312   1.366 -2.0940 -1.7751 -1.6591
  171SOL     OW  511   2.714   1.370   2.445  0.4523  0.0979 -0.2743
  171SOL    HW1  512   2.703   1.332   2.352 -0.5437 -0.1277 -0.6517
  171SOL    HW2  513   2.634   1.430   2.458  0.9350 -1.1862 -1.1221
  172SOL     OW  514   0.656   1.710   1.225 -0.3396 -0.3757 -0.0477
  172SOL    HW1  515   0.657   1.652   1.145  1.0404  2.0059  2.4915
  172SOL    HW2  516   0.751   1.735   1.238 -1.2319  1.0042  1.0373
  173SOL     OW  517   2.020   2.219   3.129 -0.3553  0.3652  0.0236
  173SOL    HW1  518   1.999   2.124   3.099  1.7509 -0.1124  0.2495
  173SOL    HW2  519   1.970   2.240   0.088 -0.4691  1.4435  0.2879
  174SOL     OW  520   1.854   0.712   2.968  0.2557  0.3247 -0.1152
  174SOL    HW1  521   1.800   0.664   2.890 -0.3968 -3.3907 -1.6128
  174SOL    HW2  522   1.807   0.718   3.054  1.2277  0.0985 -3.9935
  175SOL     OW  523   0.618   1.834   1.876  0.1244 -0.0796  0.5974
  175SOL    HW1  524   0.698   1.888   1.903  0.8123  1.8294 -1.3056
  175SOL    HW2  525   0.557   1.837   1.960 -2.2795  0.2409  0.7110
  176SOL     OW  526   0.644   0.222   0.329 -0.1960 -0.2851  0.0486
  176SOL    HW1  527   0.664   0.210   0.427  0.0165  0.0616  0.4720
  176SOL    HW2  528   0.556   0.167   0.305 -1.5084  0.1867  0.3548
  177SOL     OW  529   3.084   1.595   0.284  0.3267  0.2735  0.1448
  177SOL    HW1  530   3.000   1.540   0.252 -0.3216 -3.7180 -1.5128
  177SOL    HW2  531   3.073   1.622   0.383  0.1606 -1.2398  0.4096
  178SOL     OW  532   2.967   2.141   2.353 -0.2354  0.3206 -0.6058
  178SOL    HW1  533   3.006   2.140   2.448  3.5619 -0.2833 -0.7733
  178SOL    HW2  534   3.022   2.085   2.288 -0.1921  0.2257 -1.5528
  179SOL     OW  535   2.586   3.022   2.977 -0.2188 -0.1141  0.3863
  179SOL    HW1  536   2.589   3.081   2.893 -0.0507  0.6842 -0.0918
  179SOL    HW2  537   2.502   3.040   3.036 -0.2751  0.2146  1.4079
  180SOL     OW  538   2.578   0.689   0.739 -0.4182  0.5087 -0.1982
  180SOL    HW1  539   2.521   0.756   0.693  0.5235 -4.0850  2.5880
  180SOL    HW2  540   2.640   0.650   0.668 -1.9594 -1.7900  1.0026
  181SOL     OW  541   0.130   0.084   2.451 -0.1360  0.0890 -0.1556
  181SOL    HW1  542   0.122   0.115   2.355  0.8800 -0.2221 -0.8476
  181SOL    HW2  543   0.135   3.109   2.444 -1.4405 -1.5531 -1.4056
  182SOL     OW  544   2.475   2.453   2.655 -0.3000  0.7550 -0.3769
  182SOL    HW1  545   2.450   2.476   2.754 -2.4215  0.4118  2.2625
  182SOL    HW2  546   2.411   2.492   2.588  2.0707 -0.9673 -1.9382
  183SOL     OW  547   2.715   1.015   1.841 -1.1335  0.4727 -0.3110
  183SOL    HW1  548   2.693   0.976   1.932  1.3531  0.5921 -2.1524
  183SOL    HW2  549   2.817   1.010   1.830  0.8387 -0.7975  0.3616
  184SOL     OW  550   2.752   1.500   0.743  0.3099 -0.2526 -0.0771
  184SOL    HW1  551   2.713   1.416   0.776  1.2638  2.7239 -0.7197
  184SOL    HW2  552   2.849   1.486   0.723 -1.2116 -0.2289  1.4684
  185SOL     OW  553   3.073   0.340   0.623 -0.3011 -0.2224  0.0609
  185SOL    HW1  554   0.007   0.320   0.542  0.6434 -0.1499 -3.7373
  185SOL    HW2  555   3.119   0.333   0.715  0.1283  1.7565 -0.8545
  186SOL     OW  556   2.240   2.538   2.519  0.2751  0.0797  0.4773
  186SOL    HW1  557   2.185   2.577   2.595 -1.2805  0.5157 -1.3135
  186SOL    HW2  558   2.180   2.477   2.462  1.6795 -0.4725  0.7261
  187SOL     OW  559   0.414   1.466   0.729 -0.1801  0.3997 -0.4684
  187SOL    HW1  560   0.476   1.443   0.648  1.1906 -0.2502 -1.8181
  187SOL    HW2  561   0.460   1.546   0.769 -0.9086 -1.9100 -0.3008
  188SOL     OW  562   1.792   1.849   0.603 -0.6869 -0.9331 -0.0877
  188SOL    HW1  563   1.794   1.749   0.617 -0.0536  1.1991  0.6094
  188SOL    HW2  564   1.698   1.880   0.594  2.8798 -1.6177 -0.3167
  189SOL     OW  565   3.092   1.551   2.891 -0.3933  0.1406  0.4565
  189SOL    HW1  566   3.089   1.467   2.833  0.2132 -2.4355  0.8424
  189SOL    HW2  567   3.043   1.532   2.982 -1.7025  1.1808 -2.0091
  190SOL     OW  568   2.567   0.457   2.201  0.5940  0.2785  0.2350
  190SOL    HW1  569   2.484   0.512   2.229 -0.5681  0.8377  0.6211
  190SOL    HW2  570   2.571   0.367   2.248  0.2383 -1.9056  0.5510
  191SOL     OW  571   1.131   0.859   2.244 -0.5508 -0.2604  0.4983
  191SOL    HW1  572   1.105   0.945   2.288  2.1922  2.9456  1.7511
  191SOL    HW2  573   1.121   0.871   2.142 -0.9816  1.8428 -2.1302
  192SOL     OW  574   1.530   1.483   2.258 -0.0089  0.2908  0.2136
  192SOL    HW1  575   1.598   1.478   2.188 -4.2445  0.8981  4.5509
  192SOL    HW2  576   1.439   1.485   2.218 -1.2467  0.0509  1.9175
  193SOL     OW  577   1.406   2.822   1.170 -0.1803 -0.3442  0.0016
  193SOL    HW1  578   1.444   2.904   1.221 -1.3883  1.9046 -1.1699
  193SOL    HW2  579   1.393   2.840   1.069  0.8105  0.4432 -0.6691
  194SOL     OW  580   1.380   1.756   1.925 -0.0463 -0.0578 -0.4977
  194SOL    HW1  581   1.425   1.665   1.915 -1.2259 -2.2607 -0.3146
  194SOL    HW2  582   1.285   1.746   1.961 -0.0983 -2.2527 -0.7914
  195SOL     OW  583   2.066   0.136   0.714  0.4304 -0.1417 -0.0523
  195SOL    HW1  584   2.137   0.102   0.777  0.7416 -0.1236  1.5229
  195SOL    HW2  585   2.016   0.219   0.753  0.2617  0.6893  1.2603
  196SOL     OW  586   1.222   1.504   2.539 -0.2287  0.0811  0.5413
  196SOL    HW1  587   1.137   1.528   2.590  0.6118 -0.1656 -1.1780
  196SOL    HW2  588   1.249   1.407   2.564  0.1129 -2.8155  0.8933
  197SOL     OW  589   0.331   0.115   2.095 -0.2457 -0.3988 -0.3068
  197SOL    HW1  590   0.433   0.107   2.082  1.7315  0.5350  1.0714
  197SOL    HW2  591   0.277   0.040   2.057 -0.6718 -0.0362  3.2475
  198SOL     OW  592   3.116   1.123   1.056 -0.0526  0.0512  0.6297
  198SOL    HW1  593   0.026   1.030   1.052 -0.2665 -1.6470  2.8386
  198SOL    HW2  594   3.114   1.163   0.962  0.6671 -0.4703 -2.1676
  199SOL     OW  595   0.413   2.174   0.867  0.1783 -0.2413  0.3478
  199SOL    HW1  596   0.509   2.209   0.856 -0.4007  1.0709 -0.7824
  199SOL    HW2  597   0.386   2.185   0.968 -0.7141  0.7025 -2.0074
  200SOL     OW  598   2.565   1.643   2.932  0.0624 -0.9067 -0.3447
  200SOL    HW1  599   2.561   1.624   3.032  1.0694 -2.4674 -1.5598
  200SOL    HW2  600   2.622   1.575   2.878 -2.0200  1.7514  1.1320
  201SOL     OW  601   0.702   2.107   1.334 -0.3936 -0.6534 -0.6114
  201SOL    HW1  602   0.675   2.028   1.394 -0.2867 -0.1519 -0.1352
  201SOL    HW2  603   0.666   2.092   1.239 -0.1794  0.1348 -1.7761
  202SOL     OW  604   1.088   2.298   0.048  0.0126 -0.0970 -0.1284
  202SOL    HW1  605   1.016   2.354   0.098 -1.4299  0.3028  1.8933
  202SOL    HW2  606   1.150   2.360   3.125 -0.8408 -1.9301 -2.9673
  203SOL     OW  607   1.778   0.287   2.160 -0.3662  0.1493  0.5086
  203SOL    HW1  608   1.793   0.182   2.152 -1.3282 -1.3999  1.5125
  203SOL    HW2  609   1.726   0.319   2.078  1.7678 -2.7192 -1.8051
  204SOL     OW  610   0.251   1.362   1.422 -0.0931 -0.2063  0.3684
  204SOL    HW1  611   0.205   1.346   1.329 -1.7814  3.9062 -0.5767
  204SOL    HW2  612   0.348   1.394   1.404  1.4947  0.9465  0.3228
  205SOL     OW  613   2.667   1.397   2.752 -0.2803  0.1940  0.3598
  205SOL    HW1  614   2.722   1.381   2.669 -0.2393  1.1294  0.9922
  205SOL    HW2  615   2.584   1.339   2.741  2.2817  0.3456 -0.6225
  206SOL     OW  616   0.074   1.788   2.465 -0.3540 -0.6593 -0.2514
  206SOL    HW1  617   3.108   1.817   2.497  1.0763 -0.0349  0.3622
  206SOL    HW2  618   0.086   1.790   2.363  0.9653 -1.4062 -0.4101
  207SOL     OW  619   0.713   3.015   1.750 -0.2989  0.1243  0.1626
  207SOL    HW1  620   0.798   2.971   1.778 -1.5325  1.2320 -0.3720
  207SOL    HW2  621   0.701   3.110   1.784 -1.2922  0.0120 -1.6674
  208SOL     OW  622   0.597   2.358   1.518 -0.7622 -0.2889  0.2207
  208SOL    HW1  623   0.561   2.297   1.589  3.1059  0.9116 -0.6138
  208SOL    HW2  624   0.663   2.305   1.456  0.1584 -4.2079 -2.4163
  209SOL     OW  625   1.044   2.744   2.796  0.4444  0.1039 -0.2501
  209SOL    HW1  626   1.002   2.734   2.703  2.9430 -1.1366 -1.2850
  209SOL    HW2  627   1.070   2.841   2.796 -0.6611 -0.7446 -0.2265
  210SOL     OW  628   2.756   1.475   1.971  0.1844  0.4807  0.2050
  210SOL    HW1  629   2.849   1.429   1.963  0.4054  1.0097  2.2643
  210SOL    HW2  630   2.758   1.578   1.986  0.2352  3.2836  1.4195
  211SOL     OW  631   1.087   3.123   2.073  0.1807  0.0603 -0.0907
  211SOL    HW1  632   1.044   0.037   2.154 -0.4125 -0.1593 -1.7271
  211SOL    HW2  633   1.127   0.065   2.013  0.0352  1.3441  1.2088
  212SOL     OW  634   1.399   2.399   1.900 -0.1098 -0.2718  0.1438
  212SOL    HW1  635   1.372   2.460   1.978 -1.3178  2.1482  0.2332
  212SOL    HW2  636   1.364   2.304   1.913 -0.4481  0.2878 -0.4206
  213SOL     OW  637   2.466   0.790   1.753  0.3671 -0.4145 -0.0947
  213SOL    HW1  638   2.443   0.874   1.809  0.7468 -0.6606  1.4888
  213SOL    HW2  639   2.464   0.811   1.656 -0.6498  0.3649 -0.5398
  214SOL     OW  640   0.891   1.836   1.599  0.5378  0.0403  0.6298
  214SOL    HW1  641   0.975   1.839   1.540  1.0311 -2.0153  2.1481
  214SOL    HW2  642   0.907   1.907   1.677  2.3967  1.9060  1.0094
  215SOL     OW  643   2.656   2.272   1.080 -0.3399  0.0912 -0.5452
  215SOL    HW1  644   2.590   2.203   1.048  1.2059  0.6611  2.5835
  215SOL    HW2  645   2.608   2.340   1.144 -1.1702  3.3931 -1.5619
  216SOL     OW  646   0.016   0.788   1.313  0.3903  0.0743  0.3156
  216SOL    HW1  647   0.096   0.724   1.334  3.7699 -0.7101 -2.6662
  216SOL    HW2  648   0.041   0.836   1.227 -2.3472 -0.8788  1.7262
  217SOL     OW  649   2.118   0.317   1.370  0.1118 -0.7723  0.2765
  217SOL    HW1  650   2.193   0.301   1.306 -0.0318  1.4349  4.0494
  217SOL    HW2  651   2.034   0.263   1.340 -0.9204  0.4038 -2.4754
  218SOL     OW  652   1.619   2.478   1.080  0.1562 -0.3503 -0.5037
  218SOL    HW1  653   1.678   2.560   1.058 -0.4342  1.7643  0.6047
  218SOL    HW2  654   1.581   2.487   1.174 -2.7819  1.3018  0.0716
  219SOL     OW  655   1.476   2.222   0.169  0.3997 -0.1404  0.2564
  219SOL    HW1  656   1.511   2.285   0.097  3.4281  1.4147 -0.4535
  219SOL    HW2  657   1.385   2.253   0.202 -0.0584 -0.2953  1.0909
  220SOL     OW  658   1.705   2.416   2.897  0.4461  0.1413 -0.0073
  220SOL    HW1  659   1.632   2.467   2.852 -0.1969 -1.4394  0.3584
  220SOL    HW2  660   1.735   2.340   2.837 -3.0540  1.9120  0.1153
  221SOL     OW  661   0.144   2.360   1.281 -0.5192  0.5304 -0.3894
  221SOL    HW1  662   0.242   2.356   1.297 -2.4536 -0.0761 -2.6457
  221SOL    HW2  663   0.103   2.263   1.273 -1.0535 -2.3556 -0.9476
  222SOL     OW  664   2.003   2.621   0.931 -0.1655 -0.6600 -0.1646
  222SOL    HW1  665   1.935   2.691   0.963 -0.2898 -0.9203 -0.1656
  222SOL    HW2  666   2.094   2.663   0.928  2.6403  1.0281  1.1928
  223SOL     OW  667   0.566   2.543   2.232  0.3245 -0.3996 -0.6140
  223SOL    HW1  668   0.606   2.463   2.178  0.1466  1.7758 -0.0646
  223SOL    HW2  669   0.534   2.612   2.168  0.1422  1.5452 -0.3986
  224SOL     OW  670   2.845   2.290   1.375 -0.1145  0.3060 -0.2076
  224SOL    HW1  671   2.754   2.315   1.352  2.7187 -0.2480  0.2349
  224SOL    HW2  672   2.871   2.201   1.332 -0.5074  0.8088 -1.2638
  225SOL     OW  673   2.205   2.325   0.595 -0.1548  0.3123 -0.1313
  225SOL    HW1  674   2.250   2.346   0.685 -1.9362 -1.2326 -2.7180
  225SOL    HW2  675   2.209   2.224   0.589  1.4885  1.2270  2.8658
  226SOL     OW  676   1.335   2.564   0.302  0.2245 -0.5709  0.4875
  226SOL    HW1  677   1.334   2.464   0.319 -2.1514  2.2588 -0.6071
  226SOL    HW2  678   1.375   2.612   0.384 -0.5741 -0.6470  2.1581
  227SOL     OW  679   1.879   0.804   0.904  0.1890 -0.4832  0.2417
  227SOL    HW1  680   1.849   0.896   0.879  1.0393 -0.1772 -1.4134
  227SOL    HW2  681   1.975   0.801   0.928 -2.4075  2.2220  1.9970
  228SOL     OW  682   1.194   0.568   2.288  0.4608 -0.2891 -0.0536
  228SOL    HW1  683   1.149   0.657   2.268  0.5178  0.4300  0.4528
  228SOL    HW2  684   1.127   0.495   2.303  0.7272 -2.5154  1.9054
  229SOL     OW  685   0.099   1.006   2.837 -0.2123  0.0495  0.0477
  229SOL    HW1  686   0.020   1.033   2.778 -1.5824 -0.0806 -0.2796
  229SOL    HW2  687   0.059   0.988   2.931 -0.4549  0.0697 -2.4386
  230SOL     OW  688   0.653   1.239   1.228 -0.8654 -0.0749 -0.3762
  230SOL    HW1  689   0.661   1.137   1.219  0.4060 -2.7235 -0.2821
  230SOL    HW2  690   0.741   1.287   1.263  2.1763  0.1713 -0.5599
  231SOL     OW  691   2.681   3.010   2.544 -0.2708 -0.3725  0.1341
  231SOL    HW1  692   2.761   3.066   2.539 -0.7256 -1.2302  1.3095
  231SOL    HW2  693   2.597   3.065   2.533  1.0883 -0.1047 -1.3727
  232SOL     OW  694   0.509   2.358   0.165  0.2002  0.6258 -0.2602
  232SOL    HW1  695   0.492   2.342   0.264 -1.8788 -0.4751  0.8190
  232SOL    HW2  696   0.529   2.271   0.117 -0.4390  0.0262 -0.5691
  233SOL     OW  697   1.072   2.291   2.346  0.2040  0.5275 -0.0259
  233SOL    HW1  698   1.053   2.384   2.316  2.3317  0.8798  1.6777
  233SOL    HW2  699   1.155   2.292   2.409  1.2213  0.4216 -1.1981
  234SOL     OW  700   1.298   1.477   2.098  0.0275 -0.3176 -0.0893
  234SOL    HW1  701   1.288   1.444   2.001 -0.9810 -0.6564  0.4578
  234SOL    HW2  702   1.249   1.565   2.107 -0.4215 -0.1924 -0.3470
  235SOL     OW  703   0.927   1.999   1.810  0.9674 -0.0427 -0.3015
  235SOL    HW1  704   1.007   2.059   1.806 -4.2384 -2.1808  3.4745
  235SOL    HW2  705   0.923   1.955   1.903  1.6698  0.0779  0.5805
  236SOL     OW  706   1.586   2.954   2.552  0.6597 -0.3450 -0.1806
  236SOL    HW1  707   1.664   3.021   2.580  1.4689  1.9346 -2.0378
  236SOL    HW2  708   1.603   2.858   2.575  1.2265 -0.0983 -0.8184
  237SOL     OW  709   1.351   0.239   1.165  0.1738  0.7999 -0.1892
  237SOL    HW1  710   1.279   0.165   1.175 -2.4138  0.7262 -3.1085
  237SOL    HW2  711   1.395   0.262   1.258 -1.0052  0.6072  0.2735
  238SOL     OW  712   1.371   0.651   2.889  0.0526  0.2346 -0.3876
  238SOL    HW1  713   1.417   0.714   2.823 -2.2884 -0.8157 -1.7165
  238SOL    HW2  714   1.281   0.612   2.851 -3.3812 -2.8240 -1.0580
  239SOL     OW  715   0.022   0.832   2.442  0.8534  0.0159 -0.1675
  239SOL    HW1  716   3.123   0.913   2.386  2.1961  1.3003  1.3441
  239SOL    HW2  717   0.103   0.851   2.502  1.0480 -1.4346  1.3337
  240SOL     OW  718   2.206   2.899   0.649  0.5254  0.2902 -0.0271
  240SOL    HW1  719   2.166   2.976   0.593  2.4453  0.2435 -1.7244
  240SOL    HW2  720   2.267   2.843   0.592 -1.1168 -2.7266  1.3858
  241SOL     OW  721   1.314   1.327   1.082  0.1327 -0.4534  0.4997
  241SOL    HW1  722   1.302   1.308   0.983  4.2391 -0.0491  1.5384
  241SOL    HW2  723   1.377   1.260   1.129  0.4981 -2.3800  3.0914
  242SOL     OW  724   0.647   0.779   0.906 -0.0103  0.2857 -0.4822
  242SOL    HW1  725   0.663   0.880   0.892 -0.2435  1.4850 -3.1866
  242SOL    HW2  726   0.619   0.732   0.819  0.3957 -1.0678 -2.6077
  243SOL     OW  727   0.330   0.607   0.916 -0.5380 -0.4563 -0.1255
  243SOL    HW1  728   0.384   0.605   1.007  0.4401 -2.2335  1.7131
  243SOL    HW2  729   0.399   0.630   0.845 -1.1337  0.0973 -0.3796
  244SOL     OW  730   1.127   0.139   0.290 -0.5520 -0.2806 -0.3194
  244SOL    HW1  731   1.086   0.062   0.347  4.3480 -0.6414  0.0337
  244SOL    HW2  732   1.214   0.170   0.330 -2.3063 -0.3038  0.9875
  245SOL     OW  733   2.177   0.912   0.294 -0.2831  0.7859  0.0119
  245SOL    HW1  734   2.108   0.885   0.223  0.7614 -1.6519  3.1831
  245SOL    HW2  735   2.205   1.012   0.283  0.6646  3.9677 -0.9033
  246SOL     OW  736   3.097   0.817   1.579 -0.1828  0.8729  0.1616
  246SOL    HW1  737   0.058   0.844   1.616 -0.3594 -0.7226 -0.9622
  246SOL    HW2  738   3.098   0.811   1.475  0.1569 -0.6732  2.2862
  247SOL     OW  739   0.586   3.031   2.197  0.1435 -0.5003 -0.4302
  247SOL    HW1  740   0.614   3.121   2.163 -0.3455 -5.9358  2.0480
  247SOL    HW2  741   0.642   2.963   2.147 -2.1271  3.4723  0.4178
  248SOL     OW  742   0.600   1.268   2.540 -0.2516  0.1865 -0.4226
  248SOL    HW1  743   0.693   1.311   2.551 -4.4993  1.5496 -1.2054
  248SOL    HW2  744   0.594   1.206   2.457 -1.3121  1.4426  1.9354
  249SOL     OW  745   0.716   2.937   2.912 -0.1683 -0.4773 -0.1657
  249SOL    HW1  746   0.627   2.985   2.909 -0.8925 -1.7119 -1.9961
  249SOL    HW2  747   0.734   2.875   2.990 -1.8578 -1.8448  2.5506
  250SOL     OW  748   0.436   0.321   2.432 -0.7294  0.3797 -0.2150
  250SOL    HW1  749   0.432   0.250   2.503  2.0440 -0.7693  1.8059
  250SOL    HW2  750   0.347   0.347   2.392 -0.5988  1.6175  0.0819
  251SOL     OW  751   2.983   1.628   1.103 -0.1218  0.2833  0.0227
  251SOL    HW1  752   2.901   1.572   1.124  0.4597 -0.2721 -1.7275
  251SOL    HW2  753   3.026   1.658   1.191 -1.5967 -0.3062 -0.1943
  252SOL     OW  754   1.803   2.951   1.941  0.3506 -0.3228  0.7539
  252SOL    HW1  755   1.761   2.874   1.888  0.5672  2.2311  0.4665
  252SOL    HW2  756   1.898   2.932   1.959 -2.3766  0.9802 -2.3791
  253SOL     OW  757   1.980   1.603   2.828 -0.1629 -0.1531 -0.0493
  253SOL    HW1  758   1.904   1.621   2.890 -1.8450 -0.1783 -2.5091
  253SOL    HW2  759   2.058   1.659   2.859 -1.1066 -0.6876 -0.7496
  254SOL     OW  760   0.706   1.582   1.880 -0.2875 -0.0288  0.0151
  254SOL    HW1  761   0.689   1.684   1.861 -0.7205  2.1626  0.3178
  254SOL    HW2  762   0.671   1.544   1.967 -0.0756 -0.4625  1.6438
  255SOL     OW  763   0.764   0.013   1.516  0.1706  0.2019 -0.0603
  255SOL    HW1  764   0.855   0.058   1.527  3.4028  1.0496 -0.2482
  255SOL    HW2  765   0.739   3.090   1.599 -0.6711  2.3271  3.1317
  256SOL     OW  766   0.154   2.226   0.818  0.1690 -0.3023  0.6438
  256SOL    HW1  767   0.253   2.232   0.844 -0.9650 -1.5957  0.1511
  256SOL    HW2  768   0.104   2.195   0.903 -3.2357 -1.3643  0.3883
  257SOL     OW  769   0.079   2.510   2.496 -0.3837  0.3503 -0.4897
  257SOL    HW1  770   0.058   2.492   2.591 -0.2470 -0.1345 -1.4917
  257SOL    HW2  771   0.181   2.505   2.490 -1.4661  0.0932 -0.4178
  258SOL     OW  772   1.461   1.968   2.070  0.2983 -0.8459 -0.1968
  258SOL    HW1  773   1.438   1.890   2.009 -1.4634 -1.2497  2.3892
  258SOL    HW2  774   1.408   2.048   2.033 -0.0061  2.2956 -0.5895
  259SOL     OW  775   1.022   1.673   2.307 -0.1304  0.0732  0.1192
  259SOL    HW1  776   1.124   1.673   2.307  1.7651  1.4263  1.3063
  259SOL    HW2  777   0.991   1.734   2.386 -0.7802 -1.0897  0.4911
  260SOL     OW  778   2.455   1.140   2.159 -0.1887 -0.3381  0.6695
  260SOL    HW1  779   2.381   1.080   2.191  0.5890  1.9843 -1.2518
  260SOL    HW2  780   2.515   1.082   2.097  0.2220  0.7988  2.3785
  261SOL     OW  781   1.168   0.914   0.670  0.2837 -0.3632  0.2219
  261SOL    HW1  782   1.149   0.945   0.766 -1.9293  0.0276 -4.4707
  261SOL    HW2  783   1.072   0.901   0.632 -4.7175  2.3479  0.5910
  262SOL     OW  784   2.313   2.152   2.548  0.1687  0.3989  0.4539
  262SOL    HW1  785   2.332   2.250   2.533  0.6305  0.5204  0.8044
  262SOL    HW2  786   2.319   2.125   2.646  1.2923 -2.8450  1.0570
  263SOL     OW  787   1.032   2.109   1.064 -0.1215  0.3035 -0.1545
  263SOL    HW1  788   0.998   2.204   1.069 -0.0248  0.3753  1.2660
  263SOL    HW2  789   0.962   2.057   1.012 -0.2809  1.6959 -0.3516
  264SOL     OW  790   0.405   2.393   0.410 -0.1701 -0.0393  0.0510
  264SOL    HW1  791   0.412   2.386   0.510  2.0866  1.9027 -3.6449
  264SOL    HW2  792   0.326   2.335   0.384 -3.1868  0.8969 -1.5654
  265SOL     OW  793   1.260   1.439   0.297  0.3983  0.3288  0.0417
  265SOL    HW1  794   1.301   1.358   0.254 -1.3137  2.0251 -1.2592
  265SOL    HW2  795   1.215   1.408   0.383 -0.5578 -0.2701  0.4453
  266SOL     OW  796   0.590   2.016   2.521 -0.2937  0.2628 -0.1962
  266SOL    HW1  797   0.673   2.079   2.527  2.4741  1.4669  2.9367
  266SOL    HW2  798   0.530   2.033   2.444  0.1744 -0.1331  1.9628
  267SOL     OW  799   2.070   1.110   2.330 -0.0146 -0.1615 -0.1118
  267SOL    HW1  800   1.992   1.069   2.381 -1.9212  2.5318  0.1487
  267SOL    HW2  801   2.070   1.215   2.347  0.8758  1.6436 -0.8769
  268SOL     OW  802   0.880   1.359   0.403 -0.3898 -0.5512  0.2061
  268SOL    HW1  803   0.809   1.293   0.366  0.8300 -0.2732  1.3782
  268SOL    HW2  804   0.888   1.443   0.347 -1.1842  0.0062 -0.7205
  269SOL     OW  805   2.492   1.784   2.492 -0.1670  0.2172  0.0513
  269SOL    HW1  806   2.473   1.785   2.596  0.3714  0.2548  2.0073
  269SOL    HW2  807   2.592   1.805   2.476  0.0583  0.3918 -0.8572
  270SOL     OW  808   0.782   2.114   3.008  0.5118  0.2028  0.2248
  270SOL    HW1  809   0.697   2.060   2.990  0.6764  1.8751 -0.1875
  270SOL    HW2  810   0.763   2.204   3.059 -0.0388  1.7390 -0.3906
  271SOL     OW  811   0.450   0.411   0.114  0.2718 -0.2014 -0.5718
  271SOL    HW1  812   0.513   0.414   0.041 -2.6557  0.7546  0.6696
  271SOL    HW2  813   0.487   0.347   0.188  0.0846 -0.7790  0.9742
  272SOL     OW  814   2.882   3.122   0.489 -0.2942  0.0788  0.4255
  272SOL    HW1  815   2.921   0.028   0.577 -0.8393 -0.1249 -0.3158
  272SOL    HW2  816   2.815   0.067   0.459 -1.4785  1.0860  1.3026
  273SOL     OW  817   0.181   3.080   1.927 -0.4761 -0.4339  0.3939
  273SOL    HW1  818   0.204   3.064   1.827  2.4162 -0.0461  1.5510
  273SOL    HW2  819   0.197   2.991   1.977 -0.6987  1.4762 -1.0217
  274SOL     OW  820   3.042   0.555   1.210  0.5951  0.1731  0.0891
  274SOL    HW1  821   3.027   0.463   1.261  0.5164 -6.1412  0.9602
  274SOL    HW2  822   3.076   0.629   1.273  1.1092  1.1198  3.3762
  275SOL     OW  823   0.691   1.473   1.021  0.4735 -0.4164  0.5111
  275SOL    HW1  824   0.754   1.475   0.941 -1.4961  2.6419 -1.7868
  275SOL    HW2  825   0.639   1.382   1.032 -0.6108 -0.2094 -0.7304
  276SOL     OW  826   0.678   1.239   2.028 -0.3387 -0.0058 -0.1923
  276SOL    HW1  827   0.628   1.310   2.077  1.2844  0.5218 -0.6984
  276SOL    HW2  828   0.635   1.146   2.041 -1.0339  1.0293  0.0380
  277SOL     OW  829   1.254   2.120   1.988  0.6745  0.1436  0.2132
  277SOL    HW1  830   1.189   2.106   2.065 -1.0449 -2.7897  1.0719
  277SOL    HW2  831   1.198   2.143   1.903 -0.0211  0.5610  1.2127
  278SOL     OW  832   2.433   2.668   2.345  0.1404 -0.3646 -0.1562
  278SOL    HW1  833   2.367   2.637   2.421  1.9635  0.7839  0.9879
  278SOL    HW2  834   2.415   2.617   2.257 -0.5862 -1.8553  1.2611
  279SOL     OW  835   1.252   1.848   3.091  0.6776 -0.4259  0.5942
  279SOL    HW1  836   1.321   1.909   3.129 -1.8337 -0.6158 -5.1394
  279SOL    HW2  837   1.157   1.890   3.099  0.9232  2.5110  0.6530
  280SOL     OW  838   1.363   0.227   0.416  0.3610 -0.3023 -0.4794
  280SOL    HW1  839   1.402   0.157   0.474 -0.4654  3.3450 -0.1476
  280SOL    HW2  840   1.414   0.231   0.328  0.5867  0.1450 -0.2573
  281SOL     OW  841   0.438   0.524   1.543 -0.0081 -0.2753  0.0789
  281SOL    HW1  842   0.423   0.614   1.596  2.1068  1.0190  0.6696
  281SOL    HW2  843   0.351   0.471   1.552 -0.8413  1.1513 -1.8821
  282SOL     OW  844   0.297   2.429   0.683  0.5032  0.2639 -0.0487
  282SOL    HW1  845   0.250   2.342   0.703  0.4785 -1.1479 -0.4964
  282SOL    HW2  846   0.226   2.498   0.650  1.0601  1.0703  0.6258
  283SOL     OW  847   1.521   1.907   1.765  0.1749 -0.5214 -0.3730
  283SOL    HW1  848   1.444   1.852   1.806  3.3262  0.1948  0.1826
  283SOL    HW2  849   1.563   1.967   1.843 -3.6522  1.0420 -0.4468
  284SOL     OW  850   2.638   2.797   1.451 -0.2740 -0.3237 -0.3773
  284SOL    HW1  851   2.641   2.874   1.384  1.2124 -0.2256 -1.3851
  284SOL    HW2  852   2.699   2.721   1.434  0.3138  1.4357  0.6902
  285SOL     OW  853   0.350   2.672   0.412 -0.2630  0.0022 -0.1302
  285SOL    HW1  854   0.262   2.690   0.457  2.3483 -0.3164 -0.3493
  285SOL    HW2  855   0.375   2.570   0.417  1.8221 -2.9336  0.5254
  286SOL     OW  856   0.462   2.658   1.207  0.1126 -0.2266  0.4840
  286SOL    HW1  857   0.444   2.717   1.288  0.6960  0.9794  0.5629
  286SOL    HW2  858   0.380   2.662   1.150 -2.5664  0.8014  0.2837
  287SOL     OW  859   0.610   1.425   0.524 -0.2658  0.0755  0.0122
  287SOL    HW1  860   0.570   1.403   0.433 -0.5159  1.8476 -1.8792
  287SOL    HW2  861   0.709   1.432   0.527 -0.6322 -1.9020  1.1615
  288SOL     OW  862   1.768   2.169   2.802  0.4628  0.4776 -0.3260
  288SOL    HW1  863   1.751   2.074   2.772 -2.2759  1.9559 -0.3242
  288SOL    HW2  864   1.852   2.208   2.767 -0.6191  0.1566  0.7665
  289SOL     OW  865   2.494   1.636   0.086 -0.2712  0.0986  0.5811
  289SOL    HW1  866   2.436   1.718   0.087  0.6905  1.0361  1.6894
  289SOL    HW2  867   2.429   1.557   0.090  0.4088  2.4006 -2.6062
  290SOL     OW  868   1.353   1.615   1.251  0.3903 -0.1842 -0.4899
  290SOL    HW1  869   1.259   1.615   1.289 -1.0207  1.9295  1.8407
  290SOL    HW2  870   1.351   1.552   1.170 -1.4881 -3.2526 -1.2905
  291SOL     OW  871   1.341   1.201   0.136 -0.5944 -0.0306 -0.1362
  291SOL    HW1  872   1.295   1.118   0.167 -0.3340  2.7382  0.5753
  291SOL    HW2  873   1.320   1.216   0.035  0.5522 -2.8812  1.4480
  292SOL     OW  874   1.492   1.577   0.350  0.2191 -0.1660 -0.4545
  292SOL    HW1  875   1.407   1.518   0.344  0.1345  0.7244  0.5379
  292SOL    HW2  876   1.539   1.572   0.263 -4.7314 -0.7784 -0.4799
  293SOL     OW  877   1.217   3.003   0.922  0.5235 -0.6485 -0.1290
  293SOL    HW1  878   1.177   2.911   0.914  0.3683 -2.5021  0.9118
  293SOL    HW2  879   1.148   3.074   0.887  0.8503  2.6050 -0.1077
  294SOL     OW  880   2.114   0.981   2.679  0.1413 -1.3377 -0.2060
  294SOL    HW1  881   2.135   1.074   2.647 -0.8838 -0.6785 -0.6644
  294SOL    HW2  882   2.023   0.973   2.728  1.0432  1.0752  2.7958
  295SOL     OW  883   1.830   1.754   2.999  0.1997  0.0939 -0.1343
  295SOL    HW1  884   1.765   1.773   3.075  0.6590 -1.4761 -2.0599
  295SOL    HW2  885   1.807   1.814   2.921 -0.1814 -1.5418  2.1086
  296SOL     OW  886   1.108   0.926   1.408 -0.2082  0.4532  0.1961
  296SOL    HW1  887   1.051   0.841   1.444  0.3056  0.1834  0.9750
  296SOL    HW2  888   1.198   0.930   1.457  1.5451  1.9922  1.4999
  297SOL     OW  889   3.103   0.603   2.060 -0.0586 -0.1386  0.7925
  297SOL    HW1  890   3.097   0.531   1.989  1.7889  0.5568  1.7460
  297SOL    HW2  891   3.111   0.567   2.156 -3.0303  0.6507 -2.8389
  298SOL     OW  892   1.469   1.888   1.209 -0.2381 -0.1005 -0.4962
  298SOL    HW1  893   1.493   1.909   1.305 -0.0851  0.7584 -0.5035
  298SOL    HW2  894   1.450   1.785   1.202  2.0374 -1.0466  0.2561
  299SOL     OW  895   1.189   0.123   2.555  0.3103 -0.6684  0.0971
  299SOL    HW1  896   1.251   0.041   2.563  3.0124  0.1105  0.0431
  299SOL    HW2  897   1.110   0.116   2.615 -1.3600 -0.3278 -0.5982
  300SOL     OW  898   2.653   2.145   0.349  0.4138 -0.3987 -0.2153
  300SOL    HW1  899   2.746   2.161   0.393  1.2588  1.5092  2.9482
  300SOL    HW2  900   2.603   2.236   0.366 -0.9821  0.2792  0.7883
  301SOL     OW  901   2.177   0.769   2.522 -0.1451  0.6227 -0.3422
  301SOL    HW1  902   2.272   0.768   2.475  3.3038 -2.2906 -0.9529
  301SOL    HW2  903   2.158   0.849   2.579 -0.0523 -2.1650 -0.8854
  302SOL     OW  904   2.455   2.274   3.120  0.1680  0.0827  0.4311
  302SOL    HW1  905   2.487   2.190   0.044 -2.1001 -1.0811 -0.7796
  302SOL    HW2  906   2.536   2.330   3.090  0.4173 -1.2683 -0.5140
  303SOL     OW  907   3.035   2.430   3.018 -0.2279 -0.7682  0.0739
  303SOL    HW1  908   3.075   2.481   2.942  0.2007 -1.1713 -0.5881
  303SOL    HW2  909   2.973   2.354   2.986 -2.0014 -1.7610  0.3195
  304SOL     OW  910   0.033   1.643   0.908  0.1589 -0.6837  0.0703
  304SOL    HW1  911   3.094   1.624   0.978  1.5504 -2.1840 -0.9837
  304SOL    HW2  912   0.090   1.725   0.943 -0.6327  0.7788  1.6014
  305SOL     OW  913   2.894   0.650   1.596 -0.7915 -0.0904  0.0506
  305SOL    HW1  914   2.974   0.710   1.588 -0.2980 -3.8363  2.5114
  305SOL    HW2  915   2.823   0.673   1.521 -2.4317  1.8834 -1.5301
  306SOL     OW  916   1.416   1.615   0.838  0.0622 -0.0676 -0.0968
  306SOL    HW1  917   1.333   1.611   0.899  1.2474 -0.0341 -0.0061
  306SOL    HW2  918   1.443   1.712   0.837 -1.3099 -0.6878 -1.1298
  307SOL     OW  919   0.288   0.179   0.745  0.4575  0.0664 -0.6847
  307SOL    HW1  920   0.280   0.147   0.644  1.2941  0.3172 -0.0629
  307SOL    HW2  921   0.374   0.239   0.755 -0.6352  0.0031  2.7977
  308SOL     OW  922   0.097   1.044   2.183  0.3987 -0.1855 -0.0467
  308SOL    HW1  923   0.163   1.094   2.246  1.3461  0.3266  1.5470
  308SOL    HW2  924   0.126   1.063   2.089 -0.4965 -1.3906 -0.2065
  309SOL     OW  925   2.752   1.825   2.437 -0.2268 -0.5326  0.4206
  309SOL    HW1  926   2.751   1.923   2.412 -0.3029 -1.2430  0.3927
  309SOL    HW2  927   2.825   1.808   2.504  0.3550  2.5530 -2.3002
  310SOL     OW  928   2.486   0.583   0.050  0.4806  0.6712  0.2804
  310SOL    HW1  929   2.574   0.604   0.094 -1.7873  0.1493 -1.7296
  310SOL    HW2  930   2.488   0.613   3.085  0.9784 -2.2877  0.8150
  311SOL     OW  931   1.883   0.964   2.833 -0.6501  0.2101  0.0573
  311SOL    HW1  932   1.948   1.000   2.905 -1.6007  0.1201  0.5656
  311SOL    HW2  933   1.857   0.866   2.853  0.0521 -2.1867  2.0458
  312SOL     OW  934   1.485   2.215   2.678 -0.0447 -0.1882 -0.3671
  312SOL    HW1  935   1.541   2.189   2.601 -1.2097  0.5432  1.2410
  312SOL    HW2  936   1.487   2.141   2.748 -0.9101 -1.7724  1.2640
  313SOL     OW  937   0.288   0.493   0.332  0.6103  0.0200  0.0332
  313SOL    HW1  938   0.341   0.459   0.251  0.6480  0.8849 -1.3943
  313SOL    HW2  939   0.216   0.555   0.295  3.7005  1.2251  1.1328
  314SOL     OW  940   0.650   1.861   1.465 -0.1734 -0.2119 -0.1707
  314SOL    HW1  941   0.630   1.811   1.375 -1.7688  0.3214 -2.1355
  314SOL    HW2  942   0.748   1.853   1.498  1.6581 -0.6706  1.3396
  315SOL     OW  943   0.671   1.811   2.214  0.7849 -0.1631  0.2469
  315SOL    HW1  944   0.578   1.839   2.185 -0.7793 -3.1912  2.5850
  315SOL    HW2  945   0.656   1.738   2.287  0.6301 -1.2915 -0.5081
  316SOL     OW  946   0.539   2.477   0.735  0.1394  0.4106 -0.0831
  316SOL    HW1  947   0.439   2.457   0.725 -1.5028 -0.1856 -0.3655
  316SOL    HW2  948   0.555   2.556   0.796 -0.0052 -2.1060 -1.0287
  317SOL     OW  949   2.339   0.249   1.194 -0.3018  0.1383  0.0909
  317SOL    HW1  950   2.411   0.270   1.265  2.9835 -0.9182  0.3982
  317SOL    HW2  951   2.353   0.306   1.110  1.9008  1.2393 -0.6243
  318SOL     OW  952   1.895   3.043   0.337  0.5296 -0.5291  0.7759
  318SOL    HW1  953   1.847   0.005   0.351  1.3796  6.5495  0.0445
  318SOL    HW2  954   1.958   3.050   0.258 -2.2829  1.3608  2.4756
  319SOL     OW  955   1.696   0.626   2.753  0.2295  0.3057 -0.1682
  319SOL    HW1  956   1.636   0.702   2.718 -0.1419  0.3074 -0.3120
  319SOL    HW2  957   1.677   0.542   2.696 -0.4786 -2.3678 -0.0919
  320SOL     OW  958   2.981   2.077   1.839  0.0100 -0.0332 -0.6792
  320SOL    HW1  959   2.947   2.104   1.747 -1.4836 -2.8810  0.3575
  320SOL    HW2  960   2.904   2.076   1.902  2.5109  2.2794  0.0444
  321SOL     OW  961   0.476   2.383   2.975 -0.0667  0.1624 -0.3292
  321SOL    HW1  962   0.565   2.382   3.022 -1.2767 -1.0330 -0.4434
  321SOL    HW2  963   0.396   2.386   3.040 -1.1175  0.9199 -2.3567
  322SOL     OW  964   2.431   0.782   2.363 -0.3433 -0.4320  0.1459
  322SOL    HW1  965   2.399   0.858   2.304  1.5791 -0.0762 -1.0640
  322SOL    HW2  966   2.419   0.693   2.308 -0.2891 -1.4749 -1.5211
  323SOL     OW  967   2.436   1.140   0.749 -0.1449  0.0631  0.2110
  323SOL    HW1  968   2.523   1.177   0.786 -0.7175 -0.6757  0.6094
  323SOL    HW2  969   2.455   1.054   0.694 -0.7381 -0.2696 -1.2917
  324SOL     OW  970   0.145   0.412   1.032  0.0873 -0.6469 -0.2129
  324SOL    HW1  971   0.219   0.465   0.978  4.6811  2.8122  1.3896
  324SOL    HW2  972   0.106   0.477   1.099  0.2296 -1.1643  0.5744
  325SOL     OW  973   2.655   0.085   1.512 -0.4217 -0.2939 -0.4868
  325SOL    HW1  974   2.709   0.056   1.592  1.3205 -0.9141 -1.0478
  325SOL    HW2  975   2.686   0.180   1.486  0.0299 -1.3965 -1.5025
  326SOL     OW  976   1.679   2.869   0.017 -0.4304  0.2939 -0.0222
  326SOL    HW1  977   1.637   2.787   0.063  1.5825 -2.0933  1.0097
  326SOL    HW2  978   1.658   2.956   0.056 -0.5077  1.1988 -1.6696
  327SOL     OW  979   1.823   1.950   0.329 -0.0878 -0.0535  0.2868
  327SOL    HW1  980   1.731   1.999   0.332 -0.2458  2.4075 -1.7074
  327SOL    HW2  981   1.865   1.929   0.423  1.7319 -0.0907  2.0252
  328SOL     OW  982   3.057   1.994   2.147  0.8857  0.7611 -0.1320
  328SOL    HW1  983   3.068   1.893   2.139 -0.2727  0.8395  0.0028
  328SOL    HW2  984   2.969   2.026   2.105 -0.3942  2.3404  1.2898
  329SOL     OW  985   0.013   2.115   1.304  0.7520  0.4153  0.1585
  329SOL    HW1  986   3.040   2.102   1.316 -0.6465 -1.8490 -2.7876
  329SOL    HW2  987   0.059   2.077   1.387 -1.2285 -0.5942 -3.6148
  330SOL     OW  988   2.589   0.904   2.536 -0.0446  0.1531 -0.2137
  330SOL    HW1  989   2.525   0.857   2.467 -0.4968  3.6584 -0.3852
  330SOL    HW2  990   2.668   0.942   2.486  2.1243  3.4196 -1.7546
  331SOL     OW  991   2.409   2.086   0.881  0.5551 -0.5288  0.0137
  331SOL    HW1  992   2.320   2.086   0.924  3.6719 -3.8326 -1.4198
  331SOL    HW2  993   2.416   2.150   0.803  0.6254 -0.4276  1.5158
  332SOL     OW  994   0.433   3.008   0.825 -0.2998 -0.1735 -0.2100
  332SOL    HW1  995   0.515   3.048   0.780  1.9372 -3.7323 -0.5119
  332SOL    HW2  996   0.392   3.062   0.901 -0.9001  1.4096 -0.6154
  333SOL     OW  997   2.252   1.905   2.429 -0.2785  0.3751  0.0081
  333SOL    HW1  998   2.266   1.994   2.480 -0.3296  1.5248  1.3065
  333SOL    HW2  999   2.330   1.841   2.452  0.2426 -0.0503  3.0866
  334SOL     OW 1000   0.670   1.063   0.864 -0.2546 -0.2452 -0.3100
  334SOL    HW1 1001   0.749   1.116   0.826  0.5062  1.8282 -2.9331
  334SOL    HW2 1002   0.622   1.111   0.944 -1.3684 -0.6020  3.7319
  335SOL     OW 1003   0.013   1.707   2.193 -0.1453 -0.5729  0.3668
  335SOL    HW1 1004   3.091   1.632   2.237  2.6512  1.2428  0.8708
  335SOL    HW2 1005   0.029   1.691   2.089 -0.3512 -0.9451  0.1472
  336SOL     OW 1006   2.425   2.924   2.260  0.0037 -0.5517  0.3550
  336SOL    HW1 1007   2.428   2.825   2.290  1.5830 -0.9044 -1.1360
  336SOL    HW2 1008   2.332   2.961   2.263  2.7475  1.2175  0.1210
  337SOL     OW 1009   0.961   0.662   0.760 -0.0332 -0.7756 -0.1700
  337SOL    HW1 1010   0.900   0.742   0.736  1.6977 -1.1680 -2.4576
  337SOL    HW2 1011   1.033   0.680   0.833 -0.3209  2.2221 -0.1550
  338SOL     OW 1012   1.602   2.016   0.995 -0.2809  0.1498  0.1097
  338SOL    HW1 1013   1.541   1.981   1.066  0.8926  0.0541  0.8482
  338SOL    HW2 1014   1.662   2.088   1.035  2.2352  2.0359  0.1131
  339SOL     OW 1015   0.404   1.691   1.103  0.4809  0.0819 -0.6504
  339SOL    HW1 1016   0.475   1.749   1.147 -1.9269  2.3632  1.1472
  339SOL    HW2 1017   0.409   1.694   0.999  2.2526  0.4620 -0.4738
  340SOL     OW 1018   0.924   2.962   1.911 -0.0420  0.2713 -0.3937
  340SOL    HW1 1019   0.981   2.893   1.863 -4.6955 -0.4617  0.3198
  340SOL    HW2 1020   0.971   3.034   1.964 -0.0341  0.2907 -2.5914
  341SOL     OW 1021   2.219   1.675   0.847  0.0296  0.0955  0.0118
  341SOL    HW1 1022   2.224   1.569   0.871 -2.6024 -2.2293  1.6098
  341SOL    HW2 1023   2.232   1.694   0.748 -3.3469 -2.8379  0.4514
  342SOL     OW 1024   2.261   1.171   0.215  0.1823  0.0071 -0.0211
  342SOL    HW1 1025   2.349   1.161   0.267  2.0285  1.6482  1.5924
  342SOL    HW2 1026   2.262   1.130   0.117 -2.3838 -1.9615 -2.4707
  343SOL     OW 1027   2.139   0.105   1.032 -0.1242 -0.6841 -0.1427
  343SOL    HW1 1028   2.190   0.172   1.084 -1.8265  1.4969  2.1286
  343SOL    HW2 1029   2.197   0.065   0.954  1.6884 -0.4445  0.8291
  344SOL     OW 1030   2.606   0.206   0.157  0.1081  0.0863  0.5260
  344SOL    HW1 1031   2.631   0.229   0.059 -0.3897  0.1785 -0.8234
  344SOL    HW2 1032   2.591   0.108   0.169 -1.3205  1.0451 -2.1365
  345SOL     OW 1033   0.852   2.588   2.101 -0.0092 -0.1889 -0.0073
  345SOL    HW1 1034   0.877   2.595   2.002 -0.6837  2.7757  0.7359
  345SOL    HW2 1035   0.782   2.513   2.117 -3.9269  0.5158  2.6124
  346SOL     OW 1036   2.298   2.398   0.843 -0.0217 -0.5160 -0.3101
  346SOL    HW1 1037   2.262   2.388   0.940  1.1710 -0.8013 -0.2132
  346SOL    HW2 1038   2.340   2.484   0.822 -2.2059 -2.9014  0.0263
  347SOL     OW 1039   2.322   3.089   1.272  0.2149  0.6208  0.0892
  347SOL    HW1 1040   2.388   3.046   1.203  1.9182  0.4572  0.2835
  347SOL    HW2 1041   2.318   0.058   1.255  1.4915  0.4271  1.2000
  348SOL     OW 1042   0.750   0.650   1.403  0.1421 -0.3635 -0.1763
  348SOL    HW1 1043   0.682   0.723   1.433 -3.0608 -0.7297 -0.0556
  348SOL    HW2 1044   0.770   0.664   1.306 -1.6537  1.1002  3.4629
  349SOL     OW 1045   2.404   0.455   2.657 -0.0404  0.0800 -0.3640
  349SOL    HW1 1046   2.322   0.473   2.600  0.6367 -1.6161  2.2158
  349SOL    HW2 1047   2.489   0.454   2.602 -0.3085 -0.7904 -0.9538
  350SOL     OW 1048   2.223   2.258   2.976 -0.4278  0.4816  0.1099
  350SOL    HW1 1049   2.141   2.256   3.034 -1.1431 -0.9181  0.8284
  350SOL    HW2 1050   2.310   2.274   3.027 -0.2705  0.0516  2.7137
  351SOL     OW 1051   1.211   0.430   0.506 -0.6227  0.4411 -0.0308
  351SOL    HW1 1052   1.280   0.502   0.520  0.0196 -1.4090  3.4236
  351SOL    HW2 1053   1.268   0.349   0.480  3.0685  2.4845  0.1180
  352SOL     OW 1054   1.453   1.986   2.842  0.0935 -0.0347 -0.5488
  352SOL    HW1 1055   1.409   1.930   2.769 -2.0036 -0.5157 -1.6488
  352SOL    HW2 1056   1.535   1.941   2.880 -2.4781  1.2463  3.0806
  353SOL     OW 1057   0.731   1.282   2.881 -0.1192  0.7383 -0.4677
  353SOL    HW1 1058   0.656   1.343   2.857  1.2918 -3.5399 -0.1594
  353SOL    HW2 1059   0.790   1.326   2.951  0.5457 -0.4037 -1.2998
  354SOL     OW 1060   0.542   2.528   2.748  0.1676  0.1527 -0.2994
  354SOL    HW1 1061   0.487   2.484   2.823 -0.4523  0.9622  0.7340
  354SOL    HW2 1062   0.627   2.570   2.788  3.7912  0.4311  2.4631
  355SOL     OW 1063   2.407   2.896   1.581  0.0872  0.6010  0.0088
  355SOL    HW1 1064   2.382   2.996   1.562 -1.4825 -3.4675  3.3161
  355SOL    HW2 1065   2.500   2.872   1.551 -0.2952 -1.1187 -1.1236
  356SOL     OW 1066   2.659   1.211   1.444  0.3008  0.0266  0.2270
  356SOL    HW1 1067   2.597   1.224   1.362 -2.2643  0.7977  0.2027
  356SOL    HW2 1068   2.732   1.146   1.425  1.4981 -2.1439 -0.4437
  357SOL     OW 1069   2.738   0.300   1.316 -0.1567 -0.2020 -0.0732
  357SOL    HW1 1070   2.834   0.307   1.348 -1.8969  0.4055 -0.6551
  357SOL    HW2 1071   2.738   0.235   1.241  1.7138 -1.5801  2.4557
  358SOL     OW 1072   0.287   1.566   1.765 -0.4696 -0.0115  0.0310
  358SOL    HW1 1073   0.379   1.597   1.727  1.4141  0.5838 -1.3939
  358SOL    HW2 1074   0.279   1.576   1.863 -0.5359  2.9347 -2.2644
  359SOL     OW 1075   2.903   2.847   2.528 -0.7906 -0.5889 -0.5102
  359SOL    HW1 1076   2.827   2.919   2.546 -2.1168  3.4286 -1.5035
  359SOL    HW2 1077   2.935   2.853   2.433 -0.2497 -0.8816  1.5873
  360SOL     OW 1078   1.174   0.549   1.586  0.0635 -0.0794  0.4508
  360SOL    HW1 1079   1.118   0.488   1.527  5.6676  1.7589 -2.8456
  360SOL    HW2 1080   1.236   0.492   1.643  0.3692  0.1415  1.2070
  361SOL     OW 1081   2.251   2.726   0.891  0.1822  0.0837 -0.2853
  361SOL    HW1 1082   2.230   2.781   0.807  0.1827  1.2562  0.5304
  361SOL    HW2 1083   2.348   2.733   0.917 -2.4793  2.1864  0.3839
  362SOL     OW 1084   0.992   0.027   0.527  0.6793  0.5700  0.0669
  362SOL    HW1 1085   0.908   3.111   0.498  1.8117 -1.2322  0.6602
  362SOL    HW2 1086   1.061   3.088   0.557  2.4957 -0.8015 -0.8702
  363SOL     OW 1087   1.113   1.559   0.706  0.0887  0.5720  0.4218
  363SOL    HW1 1088   1.165   1.487   0.650  2.9285 -3.6106 -0.9290
  363SOL    HW2 1089   1.166   1.577   0.792  0.9301  2.1387  1.1628
  364SOL     OW 1090   0.431   0.730   1.684  0.0345 -0.1222  0.8550
  364SOL    HW1 1091   0.422   0.706   1.780 -1.5735 -2.5160  0.5089
  364SOL    HW2 1092   0.508   0.791   1.659 -0.3850  1.7787  2.3579
  365SOL     OW 1093   2.896   0.908   1.034  0.1521 -0.1550  0.4717
  365SOL    HW1 1094   2.933   0.986   1.090 -1.5494 -1.0343  0.0548
  365SOL    HW2 1095   2.925   0.905   0.934  0.7221  0.0563 -4.1079
  366SOL     OW 1096   2.510   1.545   0.566 -0.0062 -0.0876  0.0325
  366SOL    HW1 1097   2.551   1.590   0.649  1.3357  0.3293 -0.6670
  366SOL    HW2 1098   2.553   1.577   0.478  1.2527  0.5712  0.9430
  367SOL     OW 1099   2.149   2.104   2.122 -0.1882  0.0001  0.0505
  367SOL    HW1 1100   2.230   2.045   2.136  0.6544  4.0963  0.1273
  367SOL    HW2 1101   2.092   2.062   2.049  1.6968  1.9060 -1.5540
  368SOL     OW 1102   2.531   1.830   0.948 -0.5488  0.2741  0.2234
  368SOL    HW1 1103   2.592   1.802   0.868 -0.2694 -2.0765  0.4101
  368SOL    HW2 1104   2.469   1.911   0.924 -3.0163 -0.4528  0.2159
  369SOL     OW 1105   2.074   2.684   2.753  0.6251  0.1447  0.8348
  369SOL    HW1 1106   2.006   2.704   2.679 -0.1272  1.4992  0.1188
  369SOL    HW2 1107   2.142   2.759   2.762  0.2875  2.0147  1.7892
  370SOL     OW 1108   0.228   0.237   1.216 -0.3017  0.5446  0.0230
  370SOL    HW1 1109   0.201   0.305   1.139  0.1590  2.7862 -0.9114
  370SOL    HW2 1110   0.289   0.166   1.174  1.9375 -1.4673 -0.9904
  371SOL     OW 1111   0.682   2.076   0.258 -0.1524  0.3284  0.3156
  371SOL    HW1 1112   0.631   2.062   0.172 -0.8982  0.7026  2.1277
  371SOL    HW2 1113   0.649   2.014   0.335 -1.9024 -2.9522  3.5268
  372SOL     OW 1114   0.990   1.069   3.120  0.3466  0.0187  0.5992
  372SOL    HW1 1115   1.053   1.028   0.063  2.4259 -1.7691  0.6438
  372SOL    HW2 1116   0.981   0.996   3.046  0.9394 -0.7907 -4.1645
  373SOL     OW 1117   1.400   2.622   2.478 -0.3734 -0.3784 -0.1966
  373SOL    HW1 1118   1.424   2.620   2.577 -2.0694  2.6455 -1.7193
  373SOL    HW2 1119   1.428   2.537   2.430  0.7301 -0.5406  1.4704
  374SOL     OW 1120   0.484   2.109   0.052 -0.4387  0.6527 -1.2369
  374SOL    HW1 1121   0.511   2.038   3.111  0.2946 -2.1648  0.8154
  374SOL    HW2 1122   0.390   2.079   0.083 -3.6995 -0.3374 -1.0185
  375SOL     OW 1123   0.851   0.794   2.010  0.4603  0.2240  0.3515
  375SOL    HW1 1124   0.949   0.814   2.013  1.6905 -0.6301  0.8672
  375SOL    HW2 1125   0.839   0.698   1.981  0.6834 -0.4623  2.4025
  376SOL     OW 1126   0.504   2.209   1.745 -0.4833 -0.2729 -0.3057
  376SOL    HW1 1127   0.440   2.127   1.746 -0.2969 -1.3276 -0.2331
  376SOL    HW2 1128   0.462   2.299   1.772 -0.5797  0.4560 -1.9055
  377SOL     OW 1129   2.945   1.491   2.545  0.2878 -0.2240 -0.4817
  377SOL    HW1 1130   2.863   1.436   2.519 -3.9000  0.4606 -1.1657
  377SOL    HW2 1131   3.003   1.443   2.610  0.1371  0.1967  0.1187
  378SOL     OW 1132   1.480   3.122   2.997 -0.1137  0.0071  0.3794
  378SOL    HW1 1133   1.538   3.055   2.945  1.9528 -0.5742 -3.5185
  378SOL    HW2 1134   1.381   3.106   2.988  1.8340 -2.1409  1.5072
  379SOL     OW 1135   1.860   0.609   0.724  0.1331  0.3363 -0.4147
  379SOL    HW1 1136   1.862   0.683   0.796 -1.2827  0.5119  0.6606
  379SOL    HW2 1137   1.951   0.569   0.703 -1.5979  0.9635  1.3328
  380SOL     OW 1138   0.359   1.997   1.344 -0.1789 -0.4189  0.3961
  380SOL    HW1 1139   0.277   1.984   1.408 -0.8433  1.0310  2.6314
  380SOL    HW2 1140   0.447   1.954   1.379  3.0970  0.6865 -1.1956
  381SOL     OW 1141   2.463   1.510   2.484 -0.1580  0.0341 -0.0464
  381SOL    HW1 1142   2.473   1.608   2.467  0.5898  0.1774  2.5667
  381SOL    HW2 1143   2.389   1.489   2.551 -2.0554 -2.2732 -0.8641
  382SOL     OW 1144   0.142   0.290   2.656 -0.2667 -0.7267  0.2228
  382SOL    HW1 1145   0.141   0.220   2.585 -2.1116  2.7486  2.0588
  382SOL    HW2 1146   0.238   0.310   2.689 -3.4428  0.1633 -0.4631
  383SOL     OW 1147   1.818   1.315   3.062 -0.6017 -0.1607  0.2190
  383SOL    HW1 1148   1.880   1.390   3.091 -0.5873 -1.3045 -1.5558
  383SOL    HW2 1149   1.734   1.308   3.116 -0.4048  0.6374 -0.5891
  384SOL     OW 1150   1.118   2.145   1.452  0.4790 -0.2344 -0.0842
  384SOL    HW1 1151   1.053   2.206   1.403 -1.2435  0.2802 -2.8647
  384SOL    HW2 1152   1.209   2.201   1.463  1.0327  2.2785  0.9580
  385SOL     OW 1153   1.746   2.755   0.990 -0.5489 -0.4038 -0.0329
  385SOL    HW1 1154   1.718   2.848   1.017  0.0916 -1.9919  0.7588
  385SOL    HW2 1155   1.709   2.736   0.896  2.5708  2.3389 -0.6004
  386SOL     OW 1156   1.756   2.231   1.088 -0.4381 -0.3298  0.1214
  386SOL    HW1 1157   1.843   2.233   1.031 -1.6557 -1.0737 -2.3690
  386SOL    HW2 1158   1.706   2.320   1.088  3.2167 -2.5192 -0.4020
  387SOL     OW 1159   2.885   2.044   1.276  0.1619  0.4290  0.0265
  387SOL    HW1 1160   2.879   1.976   1.203  0.3681 -1.8293 -0.3191
  387SOL    HW2 1161   2.810   2.031   1.342  1.7132  0.4380  2.1064
  388SOL     OW 1162   2.853   0.991   1.481 -0.0661  0.5710  0.0740
  388SOL    HW1 1163   2.827   0.904   1.432  2.5096  0.0584 -0.7692
  388SOL    HW2 1164   2.897   0.982   1.578 -1.1025  0.0849  2.0103
  389SOL     OW 1165   1.975   0.630   0.228  0.4959 -0.1774  0.4157
  389SOL    HW1 1166   1.996   0.705   0.161  2.8628  1.8155 -0.4701
  389SOL    HW2 1167   1.882   0.636   0.267  2.6394 -0.3983 -1.0895
  390SOL     OW 1168   1.315   1.816   2.678 -0.5116  0.2175 -0.2907
  390SOL    HW1 1169   1.276   1.794   2.585 -0.5511 -1.4843 -2.7251
  390SOL    HW2 1170   1.405   1.766   2.683 -2.0931 -3.0342  0.0649
  391SOL     OW 1171   1.014   2.039   3.109  0.2642 -0.0635 -0.2022
  391SOL    HW1 1172   1.044   2.124   0.025 -3.3042 -2.3582  1.0604
  391SOL    HW2 1173   0.928   2.052   3.056  1.2559 -0.1006  1.0589
  392SOL     OW 1174   0.184   2.841   1.714  0.2911  0.2679  0.3349
  392SOL    HW1 1175   0.242   2.764   1.679 -1.4523  0.6004 -0.4113
  392SOL    HW2 1176   0.167   2.838   1.814  3.0104  3.6862  1.9883
  393SOL     OW 1177   1.539   2.665   0.134 -0.1851  0.0964  0.2640
  393SOL    HW1 1178   1.626   2.607   0.143 -0.7632 -2.9464  0.3307
  393SOL    HW2 1179   1.464   2.637   0.195  0.8734  0.1388  1.8153
  394SOL     OW 1180   0.368   0.611   2.281 -0.9610  0.0121  0.1318
  394SOL    HW1 1181   0.354   0.631   2.380 -1.7427  0.0102 -0.4534
  394SOL    HW2 1182   0.323   0.524   2.259  0.5389  0.6423  0.2456
  395SOL     OW 1183   0.479   1.143   1.050  0.0658 -0.0935  0.3112
  395SOL    HW1 1184   0.525   1.200   1.116  3.5597 -3.1421 -2.4899
  395SOL    HW2 1185   0.393   1.196   1.021  1.3822 -0.4329 -0.5431
  396SOL     OW 1186   1.540   1.167   2.300 -0.6036 -0.0249 -0.1726
  396SOL    HW1 1187   1.521   1.267   2.313  2.4378  0.2194  1.4381
  396SOL    HW2 1188   1.519   1.146   2.203  1.1001  0.1529  3.2916
  397SOL     OW 1189   0.834   0.029   0.128 -0.3391 -0.2420 -0.1917
  397SOL    HW1 1190   0.868   3.109   0.045 -0.3739 -0.6246  1.7170
  397SOL    HW2 1191   0.847   0.127   0.116 -1.1793 -0.5459 -0.4240
  398SOL     OW 1192   0.828   2.147   2.737 -0.0949  0.1077 -0.1367
  398SOL    HW1 1193   0.819   2.122   2.839 -0.2093  0.2541  2.3249
  398SOL    HW2 1194   0.891   2.083   2.697  3.0021  4.0099  0.6824
  399SOL     OW 1195   2.220   1.375   2.570 -0.2796  0.0869 -0.4070
  399SOL    HW1 1196   2.127   1.382   2.616  0.4229 -0.4491  0.1006
  399SOL    HW2 1197   2.207   1.386   2.469  3.1691 -0.9247 -1.4867
  400SOL     OW 1198   1.954   1.397   1.458 -0.0392  0.4894 -0.4761
  400SOL    HW1 1199   1.979   1.305   1.421  0.4440 -1.6815 -0.2829
  400SOL    HW2 1200   1.953   1.464   1.380 -0.1616 -1.6041  0.0963
  401SOL     OW 1201   1.052   1.449   1.096  0.8513 -0.2511  0.1864
  401SOL    HW1 1202   1.142   1.403   1.100 -2.4377  0.7612  1.2761
  401SOL    HW2 1203   0.997   1.426   1.180 -0.9386  2.3181 -0.0155
  402SOL     OW 1204   0.030   2.504   1.699  0.0141 -0.7762  0.8815
  402SOL    HW1 1205   3.121   2.475   1.606 -1.1075 -1.3808 -0.9506
  402SOL    HW2 1206   0.121   2.548   1.682  1.1688 -2.7396  0.4954
  403SOL     OW 1207   0.254   1.211   2.348 -0.2066  0.0395 -0.4864
  403SOL    HW1 1208   0.224   1.230   2.446  0.0348  0.0836  0.8958
  403SOL    HW2 1209   0.337   1.153   2.336  2.4359  1.2641  0.2970
  404SOL     OW 1210   2.239   1.752   1.344  0.0920  0.2585  0.4436
  404SOL    HW1 1211   2.222   1.848   1.379  0.4551  0.2877 -0.3997
  404SOL    HW2 1212   2.292   1.749   1.261 -0.6583  0.2014  1.3739
  405SOL     OW 1213   2.649   0.425   2.520  0.0770 -0.4861 -0.6300
  405SOL    HW1 1214   2.679   0.506   2.467  1.0433  2.8513 -1.0322
  405SOL    HW2 1215   2.634   0.341   2.459  1.1371 -0.0583 -2.8607
  406SOL     OW 1216   0.986   1.361   0.013 -0.3052 -0.6316 -0.3819
  406SOL    HW1 1217   0.939   1.414   0.082  0.5190  0.5964  1.1390
  406SOL    HW2 1218   0.976   1.259   0.019  2.5950 -4.4477  0.3051
  407SOL     OW 1219   1.913   2.550   3.053  0.4170  0.3664  0.2278
  407SOL    HW1 1220   1.875   2.479   2.991  0.5993  3.4551  1.5667
  407SOL    HW2 1221   1.947   2.632   3.000  1.5590  0.5321 -0.4460
  408SOL     OW 1222   0.434   3.112   0.083  0.9157  0.6169 -0.1457
  408SOL    HW1 1223   0.493   3.041   0.131 -1.5412 -0.7083  1.2298
  408SOL    HW2 1224   0.450   3.112   3.114 -0.6512  0.1456 -2.1223
  409SOL     OW 1225   2.331   1.725   1.085 -0.1382 -0.3500  0.6560
  409SOL    HW1 1226   2.278   1.710   0.999  2.8131  3.6304 -1.8850
  409SOL    HW2 1227   2.424   1.766   1.056  0.6457  1.2282  1.3096
  410SOL     OW 1228   2.303   2.071   2.800  0.5956 -1.2015  0.0804
  410SOL    HW1 1229   2.381   2.009   2.815 -3.2342  3.2604  2.0945
  410SOL    HW2 1230   2.297   2.147   2.869 -0.1114  0.1871  1.2400
  411SOL     OW 1231   0.083   1.208   0.791 -0.3502  0.4383 -0.4985
  411SOL    HW1 1232   0.047   1.114   0.795 -0.8676  0.6435 -0.3607
  411SOL    HW2 1233   0.150   1.224   0.716 -1.1638  0.8396  3.5724
  412SOL     OW 1234   1.461   2.700   0.533 -0.2490 -0.0653  0.4670
  412SOL    HW1 1235   1.557   2.689   0.497  0.1239 -0.7185  0.7706
  412SOL    HW2 1236   1.416   2.787   0.500  0.8754  0.6424 -0.5443
  413SOL     OW 1237   1.833   0.380   2.398 -0.7772 -0.3451 -0.2939
  413SOL    HW1 1238   1.757   0.419   2.452  0.8458 -1.2007  0.7989
  413SOL    HW2 1239   1.802   0.338   2.308 -1.1354 -0.9886 -0.2269
  414SOL     OW 1240   2.867   0.471   0.440 -0.0847  0.4654 -0.3906
  414SOL    HW1 1241   2.891   0.381   0.389  0.0290 -1.3057  1.2520
  414SOL    HW2 1242   2.863   0.465   0.537  1.0025  0.5204 -3.3598
  415SOL     OW 1243   0.853   1.548   1.514 -0.2716 -0.0645 -0.2943
  415SOL    HW1 1244   0.863   1.641   1.558 -0.5595  0.3507  0.5980
  415SOL    HW2 1245   0.762   1.515   1.524  3.0118 -0.0414  0.5380
  416SOL     OW 1246   0.511   3.103   2.923  0.2540  0.0713 -0.2501
  416SOL    HW1 1247   0.543   0.056   2.873 -1.2815 -0.8819 -0.2937
  416SOL    HW2 1248   0.422   3.067   2.882  0.0594  0.1356  0.3485
  417SOL     OW 1249   2.499   3.000   1.086 -0.0329  0.3316 -0.2471
  417SOL    HW1 1250   2.499   2.909   1.042  0.5288  0.9364 -0.5637
  417SOL    HW2 1251   2.572   3.002   1.164  1.6568  2.2874  3.2305
  418SOL     OW 1252   0.693   0.617   2.575 -0.1284 -0.3322 -0.4016
  418SOL    HW1 1253   0.686   0.552   2.498 -2.3949  0.3321  2.3223
  418SOL    HW2 1254   0.786   0.664   2.574  2.8679  1.2424 -1.4500
  419SOL     OW 1255   0.145   1.340   1.173 -0.3381 -0.5248 -0.3698
  419SOL    HW1 1256   0.219   1.364   1.107 -0.3665 -0.6765  1.4169
  419SOL    HW2 1257   0.091   1.265   1.141  0.0811  4.0164 -0.3962
  420SOL     OW 1258   0.641   2.001   1.088 -0.0196  0.1487 -0.0266
  420SOL    HW1 1259   0.741   1.990   1.053  2.6867 -0.7556  0.1709
  420SOL    HW2 1260   0.571   2.006   1.016  0.2122  1.4642 -0.2358
  421SOL     OW 1261   2.060   2.339   2.012  0.5539 -0.4724 -0.4379
  421SOL    HW1 1262   1.965   2.327   1.985  0.1280  0.8090  3.1121
  421SOL    HW2 1263   2.097   2.252   2.054 -0.2649 -0.5633  0.4945
  422SOL     OW 1264   0.018   0.544   2.654  0.2359 -0.0380  0.1424
  422SOL    HW1 1265   0.067   0.453   2.672 -0.6801 -2.0191 -0.1578
  422SOL    HW2 1266   3.053   0.548   2.694  1.7271  0.0699  1.6957
  423SOL     OW 1267   1.278   2.219   1.086 -0.1000  0.0260 -0.2437
  423SOL    HW1 1268   1.182   2.185   1.071 -0.0260  1.6081  3.1290
  423SOL    HW2 1269   1.293   2.226   1.191  0.6991 -0.8727 -0.3830
  424SOL     OW 1270   0.636   1.448   1.665 -0.2404 -0.4281  0.0167
  424SOL    HW1 1271   0.575   1.522   1.620  1.3221  2.5161  0.7147
  424SOL    HW2 1272   0.678   1.485   1.755  2.5149 -1.0164  0.8519
  425SOL     OW 1273   3.089   2.651   2.097 -0.7217 -0.1031 -0.2489
  425SOL    HW1 1274   3.094   2.567   2.152 -1.6909  0.1829  0.6943
  425SOL    HW2 1275   3.036   2.644   2.008 -0.8039 -1.1644 -3.1002
  426SOL     OW 1276   1.829   0.010   0.656 -0.2891  0.0410 -0.2692
  426SOL    HW1 1277   1.832   3.044   0.622  1.0429 -1.3685 -1.1605
  426SOL    HW2 1278   1.920   0.051   0.667  0.2426 -0.1883 -0.0337
  427SOL     OW 1279   0.959   0.627   2.978  0.5468 -0.1293 -0.0927
  427SOL    HW1 1280   0.971   0.606   3.080 -2.1598 -2.4016 -0.8585
  427SOL    HW2 1281   0.973   0.728   2.956  0.7250  0.5398  0.9672
  428SOL     OW 1282   1.793   1.159   0.232  0.4743 -0.1065  0.0527
  428SOL    HW1 1283   1.713   1.220   0.212  0.3916 -0.7045  3.0378
  428SOL    HW2 1284   1.840   1.135   0.150 -0.7690  1.5286  2.0949
  429SOL     OW 1285   0.053   2.852   0.519 -0.5716 -0.1832 -0.1554
  429SOL    HW1 1286   0.133   2.892   0.569  0.2923 -1.0520  0.7788
  429SOL    HW2 1287   0.016   2.916   0.447 -0.2974  1.6716 -0.8034
  430SOL     OW 1288   0.369   2.884   2.185  0.1232  0.2100  0.5726
  430SOL    HW1 1289   0.386   2.797   2.240 -1.1944 -0.9533 -1.0761
  430SOL    HW2 1290   0.447   2.953   2.185  1.1490  1.0274  0.0555
  431SOL     OW 1291   2.420   1.086   1.287 -0.2921 -0.1709 -0.0796
  431SOL    HW1 1292   2.391   1.183   1.283  1.8961 -0.4744  0.1043
  431SOL    HW2 1293   2.391   1.043   1.374  2.9653  1.4299 -0.0818
  432SOL     OW 1294   2.059   2.618   2.053  0.1605 -0.0105  0.1889
  432SOL    HW1 1295   1.958   2.634   2.074  0.6518 -0.3806 -0.4163
  432SOL    HW2 1296   2.081   2.520   2.036 -0.7212  1.9719  1.1232
  433SOL     OW 1297   1.299   2.396   0.732 -0.1497 -0.2225  0.2568
  433SOL    HW1 1298   1.357   2.334   0.795 -0.8716  1.9708 -0.4814
  433SOL    HW2 1299   1.322   2.493   0.761 -2.2358  0.8844  1.2052
  434SOL     OW 1300   0.120   2.175   2.242  0.1568  0.4655 -0.5096
  434SOL    HW1 1301   0.178   2.131   2.311 -1.8964  0.3560 -3.0921
  434SOL    HW2 1302   0.058   2.105   2.194  3.6796 -2.6050 -2.8885
  435SOL     OW 1303   0.337   0.809   0.264 -0.3263  0.1485 -0.9578
  435SOL    HW1 1304   0.264   0.754   0.222  1.1718  2.0694 -0.4237
  435SOL    HW2 1305   0.390   0.862   0.193  0.4555  1.7628  1.1637
  436SOL     OW 1306   0.296   2.607   1.665  0.3738 -0.3965 -0.2588
  436SOL    HW1 1307   0.331   2.556   1.746  0.1348  0.9586  2.0755
  436SOL    HW2 1308   0.373   2.622   1.595 -0.0840  2.7338  0.6855
  437SOL     OW 1309   1.606   2.197   1.585  0.4241 -0.3430  0.2187
  437SOL    HW1 1310   1.671   2.208   1.664 -0.3027  0.3592 -0.4033
  437SOL    HW2 1311   1.661   2.176   1.504  1.8428 -0.5889  1.9894
  438SOL     OW 1312   0.197   1.844   0.561 -0.4659  0.0594  0.1679
  438SOL    HW1 1313   0.177   1.761   0.619 -1.5068  1.1575 -0.6020
  438SOL    HW2 1314   0.112   1.882   0.516  1.4031  0.7747 -0.4351
  439SOL     OW 1315   0.098   0.736   0.824  0.4680  0.2156  0.2778
  439SOL    HW1 1316   0.184   0.685   0.856  2.8795  0.8164  2.2499
  439SOL    HW2 1317   0.018   0.674   0.827 -2.2556 -0.0880  0.0900
  440SOL     OW 1318   0.174   2.809   2.609  0.9744 -0.3546  0.1479
  440SOL    HW1 1319   0.082   2.846   2.648 -4.3057  1.8231  1.2342
  440SOL    HW2 1320   0.159   2.713   2.579 -2.6664  0.5508 -0.7408
  441SOL     OW 1321   2.867   0.165   0.714 -0.4033 -0.2905 -0.1218
  441SOL    HW1 1322   2.936   0.235   0.681  2.0948 -1.8191  1.0524
  441SOL    HW2 1323   2.785   0.201   0.764  1.6409 -0.4554  0.4278
  442SOL     OW 1324   1.250   2.256   2.556 -0.1494  0.1506 -0.1767
  442SOL    HW1 1325   1.176   2.254   2.626 -1.0373  1.3278 -0.0223
  442SOL    HW2 1326   1.348   2.255   2.594  0.8654  0.3945 -0.4253
  443SOL     OW 1327   0.712   1.116   0.039  0.2670  0.3491  0.6288
  443SOL    HW1 1328   0.663   1.161   3.091  0.0120  2.4214  0.3182
  443SOL    HW2 1329   0.810   1.090   0.023 -0.9387  0.4609  0.4538
  444SOL     OW 1330   1.553   1.491   2.555  0.7531 -0.2018  0.0958
  444SOL    HW1 1331   1.532   1.499   2.457 -1.5846 -0.9231  1.3443
  444SOL    HW2 1332   1.492   1.421   2.595  0.2749 -2.1024  3.3286
  445SOL     OW 1333   0.171   2.933   1.093  0.0704 -1.2521 -0.6776
  445SOL    HW1 1334   0.217   3.023   1.075 -2.0258  3.8147  0.6702
  445SOL    HW2 1335   0.069   2.938   1.089 -3.8658  0.6832  1.7148
  446SOL     OW 1336   2.282   0.523   1.064  0.2527  0.2716 -0.1683
  446SOL    HW1 1337   2.310   0.557   0.970 -0.0358  2.6041 -0.9312
  446SOL    HW2 1338   2.187   0.544   1.080 -1.6051  0.9048  0.1980
  447SOL     OW 1339   0.256   0.606   2.872  0.2091  0.3691 -0.0708
  447SOL    HW1 1340   0.185   0.619   2.945  4.4196 -0.8647  1.8257
  447SOL    HW2 1341   0.256   0.688   2.815 -2.0455  0.1656  1.4486
  448SOL     OW 1342   1.448   1.908   1.499  0.1245  0.0175  0.7100
  448SOL    HW1 1343   1.511   1.985   1.480 -1.5671  0.7913 -0.6941
  448SOL    HW2 1344   1.468   1.881   1.596 -1.6236  1.9881 -0.7232
  449SOL     OW 1345   0.917   1.452   0.868 -0.0973  0.0790  0.2118
  449SOL    HW1 1346   0.957   1.413   0.957 -0.2536 -0.6201 -1.1571
  449SOL    HW2 1347   0.994   1.492   0.811  0.2785 -1.1232 -1.5804
  450SOL     OW 1348   2.820   2.092   2.059  0.2631 -0.1528 -0.2238
  450SOL    HW1 1349   2.823   2.190   2.083  1.6566  0.7737 -0.0284
  450SOL    HW2 1350   2.725   2.069   2.087 -1.1447 -0.1275  0.5171
  451SOL     OW 1351   2.396   1.272   2.757 -0.0060 -0.0803  0.3394
  451SOL    HW1 1352   2.370   1.276   2.857  1.4892 -1.9328  3.0783
  451SOL    HW2 1353   2.332   1.307   2.691  1.8440 -0.1888  0.0415
  452SOL     OW 1354   1.571   0.858   1.389 -0.2075  0.3380 -0.1561
  452SOL    HW1 1355   1.488   0.805   1.415  2.9549  0.8772 -2.5955
  452SOL    HW2 1356   1.557   0.955   1.366  2.8622 -0.2114 -0.3911
  453SOL     OW 1357   1.954   1.044   1.606  0.1880  0.1620  0.2670
  453SOL    HW1 1358   1.983   1.131   1.651  1.8147 -0.0497  2.1808
  453SOL    HW2 1359   1.989   1.030   1.510 -0.2459 -1.0673 -0.8463
  454SOL     OW 1360   3.050   1.020   0.116 -0.6353 -0.8670  0.1121
  454SOL    HW1 1361   3.089   0.970   0.037 -0.3025 -0.5812 -1.6238
  454SOL    HW2 1362   3.074   0.969   0.200  0.0239  0.8420 -0.4633
  455SOL     OW 1363   2.465   1.554   1.250 -0.3395  0.0474 -0.2641
  455SOL    HW1 1364   2.432   1.620   1.181  1.3969 -1.1947 -0.0945
  455SOL    HW2 1365   2.515   1.598   1.329 -1.9939  0.4105 -1.5206
  456SOL     OW 1366   0.728   0.221   1.357  0.6272  0.2289 -0.2441
  456SOL    HW1 1367   0.732   0.129   1.407 -1.2942 -1.7639  1.5430
  456SOL    HW2 1368   0.768   0.208   1.264  2.3561 -2.2719  1.4883
  457SOL     OW 1369   1.668   3.025   1.096  0.3654  0.0702 -0.3348
  457SOL    HW1 1370   1.621   3.047   1.188 -1.6736 -2.1893 -0.5130
  457SOL    HW2 1371   1.592   3.008   1.029  1.6292  1.0240  0.2275
  458SOL     OW 1372   2.513   0.311   0.545 -0.3007 -0.1624 -0.4279
  458SOL    HW1 1373   2.456   0.391   0.522 -0.8938 -2.3362  0.6115
  458SOL    HW2 1374   2.475   0.228   0.506 -0.6273  0.3795  2.7689
  459SOL     OW 1375   1.736   0.819   0.111 -0.6862 -0.1632  0.4256
  459SOL    HW1 1376   1.730   0.747   0.179 -0.7498  2.1085 -2.3956
  459SOL    HW2 1377   1.644   0.834   0.066  0.3852 -0.5545 -0.6215
  460SOL     OW 1378   0.027   2.588   2.828  0.0416 -0.1173  0.1320
  460SOL    HW1 1379   3.090   2.604   2.748 -1.2260 -0.0940 -0.5870
  460SOL    HW2 1380   0.069   2.675   2.866  0.0400  0.6470  0.3686
  461SOL     OW 1381   0.503   1.785   0.229 -0.1988  0.1060 -0.1736
  461SOL    HW1 1382   0.460   1.707   0.281  1.6671 -1.0988  2.4164
  461SOL    HW2 1383   0.592   1.754   0.194 -1.1346  2.4469  0.2050
  462SOL     OW 1384   1.980   2.441   0.720 -0.6167  0.1747  0.2281
  462SOL    HW1 1385   2.059   2.387   0.690 -3.7329 -1.9166  1.0359
  462SOL    HW2 1386   2.007   2.507   0.794  0.5356  1.8823  0.7852
  463SOL     OW 1387   0.006   0.609   0.368  0.3249  0.2633 -0.2160
  463SOL    HW1 1388   0.062   0.638   0.448 -1.3614  3.9391  1.6735
  463SOL    HW2 1389   3.067   0.536   0.392 -0.6465 -0.2496  1.2595
  464SOL     OW 1390   0.671   2.556   0.463 -0.3472  0.2723  0.5652
  464SOL    HW1 1391   0.611   2.551   0.541  0.8174  1.4604 -0.7540
  464SOL    HW2 1392   0.701   2.469   0.424 -0.7561  1.4678 -0.6800
  465SOL     OW 1393   2.366   0.538   0.446  0.0081 -0.0354  0.6371
  465SOL    HW1 1394   2.275   0.518   0.403 -3.9336  0.2378 -2.4119
  465SOL    HW2 1395   2.424   0.593   0.381  2.1686  0.7831  0.2630
  466SOL     OW 1396   2.136   0.237   0.188  0.0307 -0.3668 -0.0634
  466SOL    HW1 1397   2.223   0.266   0.150 -1.5091 -1.0928  1.2226
  466SOL    HW2 1398   2.118   0.136   0.174  1.6738  0.2113  0.4345
  467SOL     OW 1399   1.097   0.432   2.056 -0.1371 -0.6545  0.6066
  467SOL    HW1 1400   1.054   0.403   2.147  0.9256 -2.9545  1.7431
  467SOL    HW2 1401   1.185   0.474   2.072 -2.9671  0.4460  2.2285
  468SOL     OW 1402   2.884   0.750   2.007 -0.6236  0.1410 -0.2192
  468SOL    HW1 1403   2.969   0.697   2.030  0.2161  0.7537 -0.9220
  468SOL    HW2 1404   2.866   0.737   1.909  1.9203 -0.5655  2.6602
  469SOL     OW 1405   0.736   2.579   2.447 -0.3366 -0.1418  0.0027
  469SOL    HW1 1406   0.707   2.502   2.508  0.8387 -0.7898  2.5805
  469SOL    HW2 1407   0.668   2.587   2.369  1.2794  0.7129  0.4652
  470SOL     OW 1408   1.990   1.430   1.979  0.4317  0.3215  0.2421
  470SOL    HW1 1409   2.079   1.445   1.922  1.3348 -1.3411 -0.6760
  470SOL    HW2 1410   1.978   1.331   2.001  1.1155 -0.0481 -1.7726
  471SOL     OW 1411   2.771   0.979   0.062  0.6020  0.1779  0.1327
  471SOL    HW1 1412   2.719   0.960   0.148 -0.2907  0.0822 -0.6244
  471SOL    HW2 1413   2.870   0.964   0.068  0.1428  1.2334  0.8467
  472SOL     OW 1414   0.562   2.864   0.516 -0.8322  0.2989  0.5587
  472SOL    HW1 1415   0.618   2.827   0.594 -1.0141  1.4174  0.6593
  472SOL    HW2 1416   0.498   2.797   0.478 -3.0285 -2.8612  0.8121
  473SOL     OW 1417   0.926   2.753   2.536 -0.0743 -0.0293  0.4231
  473SOL    HW1 1418   0.868   2.675   2.504 -1.3893  1.4860 -1.5534
  473SOL    HW2 1419   0.865   2.824   2.577  0.7410  1.8083  1.2255
  474SOL     OW 1420   1.386   0.159   2.193 -0.2961 -0.4133 -0.0392
  474SOL    HW1 1421   1.459   0.191   2.260  1.1385  1.3531  0.1321
  474SOL    HW2 1422   1.355   0.066   2.218  1.2760  2.5947  1.6547
  475SOL     OW 1423   0.899   2.444   0.168  0.4729  0.9471 -0.2150
  475SOL    HW1 1424   0.950   2.523   0.205  0.5075 -1.7904  3.2409
  475SOL    HW2 1425   0.840   2.395   0.236  2.8626  0.1256 -2.3510
  476SOL     OW 1426   0.618   0.431   0.929  0.3974  0.1690 -0.4094
  476SOL    HW1 1427   0.633   0.485   1.016 -1.1192  1.2297  3.0439
  476SOL    HW2 1428   0.700   0.423   0.868  1.2402 -3.9281 -2.0127
  477SOL     OW 1429   1.877   1.835   1.379 -0.7405  0.2048  0.0891
  477SOL    HW1 1430   1.812   1.783   1.434 -0.8296  1.1427 -1.8943
  477SOL    HW2 1431   1.864   1.796   1.282 -3.7179  1.0550 -2.5528
  478SOL     OW 1432   0.283   0.842   2.705 -0.3021  0.5240 -0.2347
  478SOL    HW1 1433   0.370   0.882   2.674 -0.4721 -1.7464  2.7335
  478SOL    HW2 1434   0.233   0.904   2.766 -0.9136 -2.4206  0.6258
  479SOL     OW 1435   0.632   0.041   0.695 -0.1534 -0.0936 -0.5542
  479SOL    HW1 1436   0.697   0.037   0.617  1.1484  1.2873 -0.3728
  479SOL    HW2 1437   0.605   0.137   0.712 -0.4170  2.6679  1.2712
  480SOL     OW 1438   2.532   2.618   0.084  1.4742  0.3796 -0.1672
  480SOL    HW1 1439   2.552   2.656   3.122  1.4997 -1.0531  0.3472
  480SOL    HW2 1440   2.546   2.515   0.084 -0.8127 -1.2038  2.0010
  481SOL     OW 1441   2.820   0.676   1.116 -0.2466 -0.0929  0.1550
  481SOL    HW1 1442   2.855   0.765   1.079  1.1845  2.1705 -1.8367
  481SOL    HW2 1443   2.902   0.615   1.140 -0.0406 -2.3829  1.5964
  482SOL     OW 1444   1.405   2.544   1.655  0.0386 -0.1284  0.3137
  482SOL    HW1 1445   1.499   2.546   1.620 -1.8636 -3.2176 -0.6427
  482SOL    HW2 1446   1.398   2.494   1.742  0.1554  1.2392 -3.1316
  483SOL     OW 1447   0.498   1.454   0.010 -0.0398  1.0598  0.2068
  483SOL    HW1 1448   0.470   1.524   3.069 -0.1620 -0.1998  2.1409
  483SOL    HW2 1449   0.442   1.369   0.003 -1.0535 -2.9109  1.8681
  484SOL     OW 1450   1.323   1.710   2.392 -0.1107  0.9593 -0.9471
  484SOL    HW1 1451   1.317   1.623   2.451  0.6964  0.0792  2.3381
  484SOL    HW2 1452   1.416   1.732   2.358 -2.0824 -0.6057 -0.2292
  485SOL     OW 1453   0.282   0.368   2.208 -0.0935  0.2660  0.4555
  485SOL    HW1 1454   0.188   0.351   2.189  1.0226  0.7011 -2.0524
  485SOL    HW2 1455   0.332   0.283   2.205 -1.5780  0.0205  2.9548
  486SOL     OW 1456   1.374   0.042   0.675 -0.4113  0.2722 -0.2312
  486SOL    HW1 1457   1.388   0.121   0.744  1.9582  3.3615  3.5668
  486SOL    HW2 1458   1.455   3.111   0.679 -1.6990 -0.3416  0.3601
  487SOL     OW 1459   1.484   2.936   0.921 -0.4044  0.4317  0.2525
  487SOL    HW1 1460   1.385   2.963   0.904 -2.8765 -1.5572  0.9316
  487SOL    HW2 1461   1.539   2.949   0.833  2.3784 -0.2526 -1.3613
  488SOL     OW 1462   2.153   0.762   0.882  0.3577  0.4204 -0.2690
  488SOL    HW1 1463   2.177   0.841   0.827 -1.1418 -2.0282  0.2393
  488SOL    HW2 1464   2.216   0.687   0.859 -1.4931 -0.1564 -1.9821
  489SOL     OW 1465   1.116   2.955   1.389  0.4500 -0.1273 -0.2379
  489SOL    HW1 1466   1.200   2.909   1.430  1.6462 -0.4699 -2.1420
  489SOL    HW2 1467   1.036   2.894   1.403 -2.0052  3.2816  1.9093
  490SOL     OW 1468   0.844   0.828   0.292  0.2408 -0.2501  0.1097
  490SOL    HW1 1469   0.780   0.885   0.348 -1.8992  0.7600 -0.0790
  490SOL    HW2 1470   0.908   0.779   0.355 -2.6331  0.6501 -2.6451
  491SOL     OW 1471   1.056   2.748   0.032 -0.3231 -0.1491  0.3922
  491SOL    HW1 1472   1.047   2.687   0.113 -0.5381  0.4201 -1.5062
  491SOL    HW2 1473   1.145   2.735   3.108  0.7852  0.7657 -1.5491
  492SOL     OW 1474   1.164   1.231   2.240  0.1183 -0.4076  0.5915
  492SOL    HW1 1475   1.236   1.299   2.220  2.2460 -1.3138  0.3648
  492SOL    HW2 1476   1.079   1.255   2.186  1.6452 -0.0938 -1.0362
  493SOL     OW 1477   3.021   2.167   0.243  0.1767 -0.3186 -0.4102
  493SOL    HW1 1478   3.069   2.245   0.202 -2.2032  0.8472 -0.6046
  493SOL    HW2 1479   2.948   2.139   0.174 -4.7668 -0.0364  1.1689
  494SOL     OW 1480   2.011   1.507   0.478 -0.4654 -0.5930 -0.4360
  494SOL    HW1 1481   1.938   1.544   0.539  1.5942  1.3156  1.9841
  494SOL    HW2 1482   2.019   1.408   0.479 -1.1701  3.1622 -0.8623
  495SOL     OW 1483   0.509   1.071   2.316  0.3160  0.2862  0.5725
  495SOL    HW1 1484   0.527   1.075   2.212  1.7034  3.1808  0.3847
  495SOL    HW2 1485   0.581   1.018   2.363 -2.8895 -2.4660  1.3091
  496SOL     OW 1486   2.926   3.071   2.159 -0.8625 -0.5124  0.5178
  496SOL    HW1 1487   2.992   3.115   2.096 -0.7961 -2.3268 -0.9483
  496SOL    HW2 1488   2.968   3.004   2.224 -0.1435 -0.5946 -0.4224
  497SOL     OW 1489   2.460   0.914   0.583 -0.1190 -0.1050  0.1858
  497SOL    HW1 1490   2.508   0.902   0.493  1.2124 -0.0831  3.1350
  497SOL    HW2 1491   2.360   0.893   0.575  0.1915 -1.5934 -3.0915
  498SOL     OW 1492   2.872   2.791   3.117 -0.3134 -0.6501  0.0511
  498SOL    HW1 1493   2.770   2.785   3.091 -0.0667  0.1598 -1.7043
  498SOL    HW2 1494   2.925   2.826   3.040  0.1112  1.0455 -0.5944
  499SOL     OW 1495   1.592   2.637   0.758  0.2001 -0.2046 -0.4573
  499SOL    HW1 1496   1.541   2.673   0.677 -1.3337 -0.2987 -1.0324
  499SOL    HW2 1497   1.665   2.573   0.735  0.8260  1.4117  0.7647
  500SOL     OW 1498   1.522   0.793   2.643  0.2769  0.2963  0.1750
  500SOL    HW1 1499   1.486   0.727   2.573  1.7453 -0.0114 -0.7214
  500SOL    HW2 1500   1.530   0.882   2.594 -1.0664  1.3513 -2.7551
  501SOL     OW 1501   1.005   0.368   1.455  0.2282 -0.3557  0.2768
  501SOL    HW1 1502   1.026   0.269   1.442 -1.0372  0.0645  0.3373
  501SOL    HW2 1503   0.919   0.375   1.506  2.1253  3.0684 -1.4610
  502SOL     OW 1504   3.072   0.091   1.965 -0.6995 -0.4409  0.0914
  502SOL    HW1 1505   0.029   0.037   1.951  1.1914 -0.6979 -0.0270
  502SOL    HW2 1506   3.045   0.127   1.870  1.0917  2.4254 -0.7061
  503SOL     OW 1507   1.516   2.414   2.332 -0.0693 -0.1242  0.7082
  503SOL    HW1 1508   1.606   2.435   2.292 -0.4603  0.9127 -1.5496
  503SOL    HW2 1509   1.521   2.314   2.362 -1.1088  0.4045  0.5927
  504SOL     OW 1510   2.036   0.261   1.870  0.1304  0.2032  0.3763
  504SOL    HW1 1511   2.099   0.264   1.788  1.5852  1.0921 -1.3095
  504SOL    HW2 1512   1.955   0.202   1.852 -0.5213 -0.7749 -2.4131
  505SOL     OW 1513   2.542   1.129   1.663  0.1652 -0.3850  0.2155
  505SOL    HW1 1514   2.591   1.156   1.576  1.6988  0.4403 -3.7274
  505SOL    HW2 1515   2.610   1.085   1.724 -0.1892 -0.9296  0.9644
  506SOL     OW 1516   0.287   1.350   2.114  0.6020 -0.3878  0.0959
  506SOL    HW1 1517   0.272   1.310   2.205 -1.9157  1.1136 -2.9578
  506SOL    HW2 1518   0.255   1.289   2.043  0.0973 -0.5406  1.5380
  507SOL     OW 1519   0.133   2.948   1.403  0.4248  0.2835 -0.3014
  507SOL    HW1 1520   0.128   2.939   1.304 -1.0588  0.0142  1.1555
  507SOL    HW2 1521   0.070   2.886   1.450  1.5897  0.5115 -0.8716
  508SOL     OW 1522   1.352   0.711   1.433  0.3935  0.4414 -0.3413
  508SOL    HW1 1523   1.316   0.709   1.338 -0.4561 -0.2955 -0.0301
  508SOL    HW2 1524   1.301   0.653   1.498  1.6188 -0.3860  0.6724
  509SOL     OW 1525   1.370   2.277   1.535 -0.2049  0.1933  0.1476
  509SOL    HW1 1526   1.462   2.244   1.560  1.1236  0.1028  1.2291
  509SOL    HW2 1527   1.357   2.368   1.574 -0.7918 -3.9963  1.5062
  510SOL     OW 1528   2.960   1.504   3.094  0.5391  0.2463  0.1655
  510SOL    HW1 1529   2.907   1.434   3.041 -0.2514  2.9083  1.3202
  510SOL    HW2 1530   3.017   1.464   0.040 -1.4066  1.6861  1.1157
  511SOL     OW 1531   0.505   1.451   1.353 -0.2238  0.0630  0.3105
  511SOL    HW1 1532   0.543   1.359   1.327 -0.8864 -1.0882  0.9381
  511SOL    HW2 1533   0.545   1.529   1.307  0.2207  0.1493  0.5581
  512SOL     OW 1534   3.079   2.436   0.392  0.5460  0.8460  0.4214
  512SOL    HW1 1535   3.105   2.353   0.443  1.0864  1.8025 -1.3211
  512SOL    HW2 1536   3.099   2.413   0.295  1.0587  1.6231  0.0870
  513SOL     OW 1537   0.747   1.709   2.903  0.5887  0.1645  0.0773
  513SOL    HW1 1538   0.834   1.661   2.915 -0.0773 -0.4172  1.9573
  513SOL    HW2 1539   0.718   1.716   2.808 -0.4082  0.1076  1.0937
  514SOL     OW 1540   0.104   2.339   2.724  0.0712 -0.0432 -0.9336
  514SOL    HW1 1541   0.193   2.303   2.759  1.2853  1.2088  3.0679
  514SOL    HW2 1542   0.068   2.418   2.781 -0.6630  2.4558  0.7735
  515SOL     OW 1543   1.577   1.336   1.808 -0.2871  0.2253 -0.4797
  515SOL    HW1 1544   1.634   1.366   1.895 -0.1262  0.3143  1.2424
  515SOL    HW2 1545   1.629   1.358   1.722  1.0831  0.8380 -0.4210
  516SOL     OW 1546   1.792   2.539   0.191  0.2083 -0.2303 -0.6182
  516SOL    HW1 1547   1.852   2.569   0.115  0.9487  0.4674 -0.1203
  516SOL    HW2 1548   1.830   2.449   0.222  1.7445 -0.6778  0.9107
  517SOL     OW 1549   0.890   1.691   0.584 -0.6240  0.2456 -0.7907
  517SOL    HW1 1550   0.955   1.721   0.511 -0.4108 -1.6287  0.1472
  517SOL    HW2 1551   0.943   1.627   0.646  1.4204 -2.2655 -0.7883
  518SOL     OW 1552   2.265   2.279   1.793 -0.3591  0.1615 -0.0845
  518SOL    HW1 1553   2.285   2.377   1.813 -1.8182  0.3518 -0.4105
  518SOL    HW2 1554   2.203   2.243   1.862 -2.1338  2.0774  0.5450
  519SOL     OW 1555   2.117   2.390   1.071  0.0736 -0.6212  0.8409
  519SOL    HW1 1556   2.148   2.434   1.155  1.1351  0.2951  1.8890
  519SOL    HW2 1557   2.081   2.456   1.004  0.6439 -0.2397 -0.1825
  520SOL     OW 1558   2.871   2.414   2.474  0.0604  0.2449 -0.3293
  520SOL    HW1 1559   2.793   2.440   2.414 -1.0948  0.4580 -2.7284
  520SOL    HW2 1560   2.948   2.367   2.420  1.5944 -1.4983  0.5128
  521SOL     OW 1561   2.916   1.137   2.483  0.6628  0.1080 -0.5009
  521SOL    HW1 1562   2.967   1.202   2.428 -1.5770  0.4914  0.5240
  521SOL    HW2 1563   2.861   1.072   2.424 -1.6577  0.4627 -0.5419
  522SOL     OW 1564   0.666   0.448   2.071  0.1659  0.4095 -0.3094
  522SOL    HW1 1565   0.758   0.473   2.033  2.0798  1.0251 -1.2303
  522SOL    HW2 1566   0.596   0.514   2.045  4.1811 -1.7877 -3.5159
  523SOL     OW 1567   0.397   1.881   0.891 -0.2751 -0.4002 -0.1795
  523SOL    HW1 1568   0.415   1.977   0.863  1.5937 -1.3399 -1.1321
  523SOL    HW2 1569   0.310   1.871   0.948 -0.4084 -0.7971 -0.6014
  524SOL     OW 1570   1.759   2.868   0.535  0.0811 -0.0275  0.1728
  524SOL    HW1 1571   1.792   2.922   0.456 -3.7506  1.2895 -0.7725
  524SOL    HW2 1572   1.747   2.771   0.512 -2.5232  1.7287 -2.1175
  525SOL     OW 1573   2.001   1.012   1.350 -0.6555  0.4471  0.4178
  525SOL    HW1 1574   2.075   0.965   1.296  1.2984  0.8012 -0.9889
  525SOL    HW2 1575   1.939   1.059   1.283  1.4071  1.6040 -0.9578
  526SOL     OW 1576   0.952   2.586   0.531 -0.1045 -0.1474  0.0162
  526SOL    HW1 1577   0.966   2.648   0.609 -1.5873 -1.5908 -2.9904
  526SOL    HW2 1578   0.853   2.571   0.515  1.9908  0.6338  0.4720
  527SOL     OW 1579   2.336   2.721   0.478  0.3582 -0.5596  0.4114
  527SOL    HW1 1580   2.423   2.732   0.525 -0.0604 -1.0130  2.2773
  527SOL    HW2 1581   2.316   2.624   0.469  4.3123 -0.8314  1.7686
  528SOL     OW 1582   1.702   0.614   0.301 -0.1760  0.3408  0.3567
  528SOL    HW1 1583   1.696   0.566   0.394 -0.2454 -2.2757  3.9494
  528SOL    HW2 1584   1.667   0.553   0.229  0.5152  0.6893 -0.0229
  529SOL     OW 1585   1.550   1.699   2.763 -0.2323  0.4371  0.1442
  529SOL    HW1 1586   1.526   1.645   2.848  1.5259 -2.2975  0.8779
  529SOL    HW2 1587   1.557   1.638   2.682 -1.1088 -2.0624 -2.9193
  530SOL     OW 1588   2.387   0.335   0.082  0.5501  0.5599  0.1485
  530SOL    HW1 1589   2.417   0.427   0.060  0.0266 -2.6694  0.0813
  530SOL    HW2 1590   2.462   0.269   0.101 -1.9304 -0.3067  0.3743
  531SOL     OW 1591   1.453   1.013   2.917  0.1887 -0.6409  0.2698
  531SOL    HW1 1592   1.545   1.053   2.891 -0.4940 -0.3639  0.3146
  531SOL    HW2 1593   1.456   0.937   2.987  0.5716  2.0974  0.1741
  532SOL     OW 1594   1.692   0.451   0.551 -0.1664  0.2444  0.8184
  532SOL    HW1 1595   1.686   0.358   0.597  1.7628  0.1194  1.3452
  532SOL    HW2 1596   1.749   0.513   0.607 -1.3408 -2.1632  0.4650
  533SOL     OW 1597   0.712   0.965   2.416  0.0543  0.0811  0.2978
  533SOL    HW1 1598   0.760   0.887   2.367 -0.6735 -0.9999  1.4761
  533SOL    HW2 1599   0.776   1.031   2.453 -0.0457 -0.6069  1.4011
  534SOL     OW 1600   1.607   0.174   2.426 -0.0119  0.4977  0.3210
  534SOL    HW1 1601   1.675   0.101   2.447  3.0869 -1.2354  0.5965
  534SOL    HW2 1602   1.653   0.260   2.450 -0.2122  0.5573  1.0632
  535SOL     OW 1603   0.271   3.079   2.774  0.4082 -0.1052  0.4350
  535SOL    HW1 1604   0.220   3.016   2.709  0.9133 -0.4332 -0.3313
  535SOL    HW2 1605   0.210   0.013   2.829 -1.6804 -0.2671  1.3241
  536SOL     OW 1606   0.526   0.286   0.709  0.4545  0.9581 -0.6455
  536SOL    HW1 1607   0.526   0.357   0.637  0.7713 -2.5785  0.8605
  536SOL    HW2 1608   0.564   0.316   0.799  0.8620  2.5075  0.7671
  537SOL     OW 1609   1.500   0.236   0.178 -0.1787  0.0952  0.3452
  537SOL    HW1 1610   1.585   0.293   0.173  0.9449 -0.0155  2.8896
  537SOL    HW2 1611   1.428   0.266   0.107 -0.2095  1.1652 -0.8320
  538SOL     OW 1612   2.869   2.231   2.951 -0.3392  0.0841  0.0979
  538SOL    HW1 1613   2.788   2.209   2.899  0.3767 -1.2295 -0.9273
  538SOL    HW2 1614   2.874   2.174   3.037  0.5459  0.1218  0.0142
  539SOL     OW 1615   2.073   1.929   0.193  0.5259  0.8661 -0.5056
  539SOL    HW1 1616   1.978   1.925   0.221  2.2835  0.3157 -0.8381
  539SOL    HW2 1617   2.078   1.939   0.091 -3.4432  0.4310  3.2574
  540SOL     OW 1618   0.607   2.642   1.520 -0.0801 -0.1960 -0.2569
  540SOL    HW1 1619   0.610   2.539   1.539  2.5706 -1.9309  1.1545
  540SOL    HW2 1620   0.645   2.659   1.428 -1.4518 -0.8712  1.7489
  541SOL     OW 1621   2.195   0.161   2.089  0.6817 -0.1507  0.3993
  541SOL    HW1 1622   2.281   0.161   2.035  1.6833  2.7872 -1.3674
  541SOL    HW2 1623   2.120   0.212   2.038 -2.5893 -0.3609  0.0628
  542SOL     OW 1624   0.280   0.631   2.552 -0.3552  0.1947  0.4720
  542SOL    HW1 1625   0.192   0.586   2.572  0.7511 -0.4313  1.7254
  542SOL    HW2 1626   0.285   0.717   2.608  1.0049  0.0272  0.7117
  543SOL     OW 1627   0.445   0.958   1.319  0.0103  0.4299  0.2986
  543SOL    HW1 1628   0.409   0.925   1.229  0.8377  1.5106  0.6468
  543SOL    HW2 1629   0.372   1.004   1.369 -0.8183  0.4397 -1.0197
  544SOL     OW 1630   2.615   0.790   0.988 -0.6452 -0.7568  0.5524
  544SOL    HW1 1631   2.673   0.731   1.048  1.8445  1.3271 -1.8428
  544SOL    HW2 1632   2.607   0.748   0.894 -2.4787 -0.1286  0.1745
  545SOL     OW 1633   1.645   2.197   0.702 -0.6898  0.4486  0.2367
  545SOL    HW1 1634   1.616   2.108   0.672  0.3915  2.6276  1.3423
  545SOL    HW2 1635   1.615   2.212   0.799  1.8641 -0.7775 -1.0388
  546SOL     OW 1636   2.180   2.879   1.738 -0.2510 -0.5329 -0.0729
  546SOL    HW1 1637   2.270   2.884   1.686  0.1004 -2.0089  2.5791
  546SOL    HW2 1638   2.101   2.883   1.674  1.5780 -1.0789 -0.0340
  547SOL     OW 1639   0.416   0.081   2.600  0.2901 -0.0116  0.2653
  547SOL    HW1 1640   0.361   0.011   2.657  1.4515 -0.4045 -1.6475
  547SOL    HW2 1641   0.478   0.034   2.532  0.4981  0.4263  0.2626
  548SOL     OW 1642   2.002   0.889   0.102 -0.3082 -0.0084  0.5085
  548SOL    HW1 1643   2.032   0.917   0.008  0.7863 -0.4894  0.5033
  548SOL    HW2 1644   1.900   0.883   0.118  0.3150  0.3486 -1.1076
  549SOL     OW 1645   3.097   0.869   0.364 -0.0241  0.3347 -0.1693
  549SOL    HW1 1646   3.082   0.767   0.360 -0.8756 -0.1129  0.0247
  549SOL    HW2 1647   3.055   0.912   0.448  0.3798  2.1532  0.8405
  550SOL     OW 1648   1.992   1.958   0.734  0.1219 -0.2552 -0.0845
  550SOL    HW1 1649   1.912   1.925   0.681  1.5643  0.3746  0.4427
  550SOL    HW2 1650   1.989   1.918   0.830  0.5768 -0.6675 -0.2974
  551SOL     OW 1651   1.407   0.217   0.871  0.3645 -0.4098  0.6017
  551SOL    HW1 1652   1.412   0.208   0.973 -0.0635 -0.0247 -0.5553
  551SOL    HW2 1653   1.324   0.271   0.847 -2.6295 -1.8992  0.4862
  552SOL     OW 1654   3.030   2.843   2.275  0.1819  0.0716 -0.7167
  552SOL    HW1 1655   3.115   2.873   2.319 -0.6924 -1.8683  1.8421
  552SOL    HW2 1656   3.048   2.767   2.207  1.4224 -0.9689 -2.0383
  553SOL     OW 1657   0.155   2.924   2.344  0.6451 -0.0026  0.2136
  553SOL    HW1 1658   0.189   2.889   2.435 -0.4047  1.2266 -0.6726
  553SOL    HW2 1659   0.211   2.893   2.265 -0.4347  0.8280 -1.8246
  554SOL     OW 1660   0.549   3.066   1.359  0.3684  0.7683  0.0469
  554SOL    HW1 1661   0.531   0.028   1.319  0.9128 -2.4316 -0.4745
  554SOL    HW2 1662   0.629   3.072   1.416 -0.7122  4.3515 -2.6462
  555SOL     OW 1663   2.658   2.486   2.281  0.3865 -0.5751 -0.0969
  555SOL    HW1 1664   2.620   2.566   2.334 -0.2637 -1.3082 -0.0838
  555SOL    HW2 1665   2.585   2.411   2.265 -0.8621 -1.2963 -0.2665
  556SOL     OW 1666   1.334   0.327   2.697 -0.3543 -0.1548 -0.0844
  556SOL    HW1 1667   1.275   0.381   2.757 -0.2433  2.1339 -0.8258
  556SOL    HW2 1668   1.285   0.250   2.646  3.6412  0.9637  0.4213
  557SOL     OW 1669   0.511   1.549   2.484  0.0014  0.4327 -1.0528
  557SOL    HW1 1670   0.419   1.552   2.529 -0.1441  0.2049 -1.8677
  557SOL    HW2 1671   0.525   1.453   2.453 -1.0068 -0.4431 -0.2255
  558SOL     OW 1672   2.280   0.912   2.892  0.5723  0.2677 -0.4703
  558SOL    HW1 1673   2.371   0.945   2.858  2.3022  0.0553  0.6091
  558SOL    HW2 1674   2.209   0.927   2.822 -0.4310 -0.1961  0.2260
  559SOL     OW 1675   2.557   2.036   2.177  0.4233 -0.3654 -0.0284
  559SOL    HW1 1676   2.600   2.046   2.269 -0.5230 -0.5387  0.2035
  559SOL    HW2 1677   2.499   1.954   2.171 -1.7528 -1.1034 -1.0908
  560SOL     OW 1678   2.633   0.883   2.099  0.2448  0.0229  0.0229
  560SOL    HW1 1679   2.544   0.845   2.069  1.9464  1.8074 -1.2625
  560SOL    HW2 1680   2.714   0.826   2.079 -4.3708  1.6135  0.0682
  561SOL     OW 1681   0.103   0.120   2.894  0.1538  0.1336  0.3558
  561SOL    HW1 1682   0.127   0.210   2.854 -0.0531  1.5092  1.8223
  561SOL    HW2 1683   0.004   0.096   2.872 -2.3816  1.9857  2.2170
  562SOL     OW 1684   0.935   1.015   1.652 -0.2123  0.0142  0.1330
  562SOL    HW1 1685   0.923   0.920   1.631  0.2878  2.4292 -2.1486
  562SOL    HW2 1686   0.853   1.063   1.687  0.0981  1.2516  1.0781
  563SOL     OW 1687   1.552   0.260   2.834 -0.5308 -0.3450 -0.7707
  563SOL    HW1 1688   1.569   0.165   2.869  4.4404 -1.7403  3.2973
  563SOL    HW2 1689   1.463   0.266   2.785  3.4100  0.4046 -1.9347
  564SOL     OW 1690   0.005   2.069   1.043  0.1540  0.4002  0.3873
  564SOL    HW1 1691   0.012   2.099   1.140 -2.0985 -0.7663 -0.3572
  564SOL    HW2 1692   3.038   2.042   1.027 -1.0984  0.7315  0.2117
  565SOL     OW 1693   0.777   2.235   1.829 -0.4872 -0.3158  0.7830
  565SOL    HW1 1694   0.680   2.221   1.794 -2.5269  1.3409 -1.8585
  565SOL    HW2 1695   0.830   2.147   1.821  0.5736 -1.1295  1.3349
  566SOL     OW 1696   1.331   2.510   2.136  0.3853  0.2407 -0.6888
  566SOL    HW1 1697   1.235   2.501   2.168 -0.6088  1.2766 -1.5263
  566SOL    HW2 1698   1.394   2.461   2.200  0.5262  0.1648 -0.6082
  567SOL     OW 1699   2.300   2.565   1.191  0.1454  0.5868  0.2673
  567SOL    HW1 1700   2.292   2.641   1.255  0.6862  0.5155 -3.3364
  567SOL    HW2 1701   2.352   2.594   1.111 -1.4888 -1.5820  3.4547
  568SOL     OW 1702   2.181   0.841   0.561 -0.4088  0.3363 -0.1336
  568SOL    HW1 1703   2.167   0.741   0.573 -1.2853 -0.1987  0.2377
  568SOL    HW2 1704   2.186   0.867   0.466  2.3470 -0.9833  1.1872
  569SOL     OW 1705   2.937   1.763   2.615 -0.0013 -0.0855 -0.0380
  569SOL    HW1 1706   2.927   1.789   2.718 -1.2484  1.4835  2.9450
  569SOL    HW2 1707   2.924   1.665   2.603  1.0698  1.4367  0.1771
  570SOL     OW 1708   2.925   0.037   1.239 -0.2447 -0.1504 -0.0839
  570SOL    HW1 1709   3.017   0.060   1.283 -0.7901 -0.0140  0.5763
  570SOL    HW2 1710   2.902   0.097   1.162 -1.6805 -0.7253 -0.7218
  571SOL     OW 1711   2.978   0.410   1.663  0.6220 -0.2505  0.1347
  571SOL    HW1 1712   3.019   0.404   1.754  1.8301 -1.4093 -2.2669
  571SOL    HW2 1713   2.939   0.505   1.649 -0.6214 -1.3913  0.6961
  572SOL     OW 1714   0.039   2.492   1.068  0.7361 -0.6859  0.1629
  572SOL    HW1 1715   0.000   2.419   1.012  1.0586 -1.0144 -2.3808
  572SOL    HW2 1716   0.077   2.458   1.156 -0.2788  1.3838  0.5327
  573SOL     OW 1717   0.963   0.538   0.117  0.0306  0.2158  0.2776
  573SOL    HW1 1718   0.880   0.598   0.108  1.4906 -3.2809 -0.3329
  573SOL    HW2 1719   0.933   0.443   0.138 -0.7571 -1.3231 -0.1097
  574SOL     OW 1720   2.630   2.765   3.002 -0.0187  1.0392 -0.2887
  574SOL    HW1 1721   2.670   2.723   2.918  2.7447  3.7297 -0.4864
  574SOL    HW2 1722   2.584   2.859   2.980 -1.9473  2.3679  1.6691
  575SOL     OW 1723   1.478   2.568   1.294 -0.5944 -0.0172  0.3488
  575SOL    HW1 1724   1.397   2.506   1.307 -2.1706 -0.4719 -3.5806
  575SOL    HW2 1725   1.440   2.661   1.272 -2.4714  0.4020 -1.7186
  576SOL     OW 1726   0.990   2.820   1.115  0.5688  0.2618  0.4847
  576SOL    HW1 1727   0.984   2.779   1.209  2.9229 -0.8209  0.6280
  576SOL    HW2 1728   0.980   2.919   1.115  1.5317 -0.2894 -0.6262
  577SOL     OW 1729   2.283   1.423   0.920 -0.0682  0.2978  0.4917
  577SOL    HW1 1730   2.255   1.350   0.848 -1.4562  3.4046  0.1352
  577SOL    HW2 1731   2.373   1.410   0.960  0.1631  4.0501 -0.1945
  578SOL     OW 1732   1.682   0.229   0.722 -0.2727  0.2406  0.6888
  578SOL    HW1 1733   1.726   0.138   0.713 -1.5362 -0.0310  1.1005
  578SOL    HW2 1734   1.587   0.216   0.757  2.8649  1.0520 -2.7105
  579SOL     OW 1735   2.415   0.636   2.874  0.1404 -0.6190 -0.7995
  579SOL    HW1 1736   2.432   0.565   2.803  0.1905  1.8290 -0.7937
  579SOL    HW2 1737   2.322   0.680   2.867 -1.3475 -2.4140  1.1500
  580SOL     OW 1738   1.695   0.941   2.026 -0.6644  0.5224  0.3784
  580SOL    HW1 1739   1.782   0.964   1.972  1.2463 -1.1644 -1.6906
  580SOL    HW2 1740   1.705   0.936   2.131 -1.0089 -2.7658 -3.0449
  581SOL     OW 1741   0.418   0.881   1.060  0.3166  0.2976 -0.1486
  581SOL    HW1 1742   0.451   0.976   1.036 -0.0048 -4.3426 -3.4690
  581SOL    HW2 1743   0.498   0.819   1.037  0.8461 -0.4799 -1.1763
  582SOL     OW 1744   2.800   0.017   1.726  0.3731  0.0291  0.2275
  582SOL    HW1 1745   2.790   3.091   1.812 -1.4680  1.0485  0.2622
  582SOL    HW2 1746   2.892   0.007   1.691 -1.1781  2.2308  0.4666
  583SOL     OW 1747   0.004   0.406   1.889 -0.2490 -0.1333 -0.4356
  583SOL    HW1 1748   0.035   0.324   1.945 -0.1531  1.5703  1.1386
  583SOL    HW2 1749   0.089   0.441   1.844 -1.0583 -1.0696  0.4678
  584SOL     OW 1750   1.250   2.146   2.962 -0.0876  0.5910  0.5354
  584SOL    HW1 1751   1.221   2.141   3.058  2.1351 -1.2329  0.8122
  584SOL    HW2 1752   1.314   2.069   2.948 -1.6278  1.9378  0.5859
  585SOL     OW 1753   0.060   2.823   2.974  0.0902 -0.7105 -0.4881
  585SOL    HW1 1754   0.096   2.900   3.027  0.9119 -1.5013 -0.5395
  585SOL    HW2 1755   0.010   2.850   2.890 -4.4415 -1.3731  1.9120
  586SOL     OW 1756   1.906   1.733   2.583  0.3056 -0.2222 -0.2656
  586SOL    HW1 1757   1.930   1.689   2.498 -0.6986 -0.0102  2.2936
  586SOL    HW2 1758   1.944   1.683   2.663 -0.4411 -1.0071 -1.2093
  587SOL     OW 1759   2.236   2.389   0.174 -0.7001  0.5634 -0.1612
  587SOL    HW1 1760   2.313   2.363   0.112 -0.7562 -0.2491 -0.7686
  587SOL    HW2 1761   2.205   2.304   0.218  2.4317 -0.7266 -0.9615
  588SOL     OW 1762   2.825   0.461   0.922 -0.6270  0.4759 -0.5108
  588SOL    HW1 1763   2.819   0.528   0.996  1.0517 -0.9236 -2.1010
  588SOL    HW2 1764   2.736   0.421   0.885 -2.5843 -3.9124 -0.9262
  589SOL     OW 1765   0.529   0.668   0.693 -0.0811  0.0561  0.0392
  589SOL    HW1 1766   0.507   0.745   0.631 -2.8818 -0.6360 -0.7588
  589SOL    HW2 1767   0.551   0.585   0.633  2.0381  2.1213 -1.0207
  590SOL     OW 1768   2.139   2.161   0.317 -0.2316 -0.4353 -0.5422
  590SOL    HW1 1769   2.187   2.145   0.409  0.5400  1.8075 -0.3347
  590SOL    HW2 1770   2.120   2.069   0.277  2.8524  1.5625 -1.9858
  591SOL     OW 1771   0.371   2.184   1.124  0.4835 -0.2999 -0.0002
  591SOL    HW1 1772   0.338   2.109   1.185  0.6337 -1.6695  0.7003
  591SOL    HW2 1773   0.393   2.267   1.180  2.2224  1.0974  0.7635
  592SOL     OW 1774   0.954   0.491   1.183  0.1570  0.0280 -0.4833
  592SOL    HW1 1775   0.984   0.446   1.270 -1.6829 -2.7882  0.7055
  592SOL    HW2 1776   1.006   0.448   1.109 -0.4968 -2.7240 -1.3297
  593SOL     OW 1777   0.897   1.335   1.327 -0.2740  0.3714 -0.1367
  593SOL    HW1 1778   0.979   1.274   1.347 -0.9964  0.5056 -1.6262
  593SOL    HW2 1779   0.884   1.402   1.396 -1.3807 -0.3722 -2.1831
  594SOL     OW 1780   0.953   2.149   0.517 -0.3484 -0.1974  0.3353
  594SOL    HW1 1781   0.990   2.061   0.490 -1.2642 -0.2934  0.5387
  594SOL    HW2 1782   1.031   2.213   0.537  2.0476  1.5366  0.4163
  595SOL     OW 1783   1.612   0.547   1.547 -0.1863  0.3695  0.0959
  595SOL    HW1 1784   1.702   0.571   1.587 -2.6594  1.9900  2.8699
  595SOL    HW2 1785   1.568   0.629   1.510  0.2512 -0.6059  3.0481
  596SOL     OW 1786   3.083   1.123   1.403 -0.0301 -0.4227  0.7347
  596SOL    HW1 1787   3.076   1.218   1.362 -1.7231  0.9905  0.6511
  596SOL    HW2 1788   2.988   1.084   1.417 -0.6258  0.6894 -1.3520
  597SOL     OW 1789   0.387   2.689   2.364 -0.0489 -0.4073  0.7259
  597SOL    HW1 1790   0.392   2.687   2.463  1.5246 -0.2846 -2.9556
  597SOL    HW2 1791   0.444   2.613   2.328 -0.0142 -0.8528  0.0241
  598SOL     OW 1792   2.620   1.876   1.885 -0.6137  0.3863 -0.6254
  598SOL    HW1 1793   2.610   1.979   1.902  1.4014  2.1698 -0.1999
  598SOL    HW2 1794   2.534   1.834   1.850  1.9109  1.0685 -0.3909
  599SOL     OW 1795   0.938   3.037   3.039  0.7800 -0.4689 -0.4060
  599SOL    HW1 1796   0.864   3.040   2.972  2.4679  1.1962  1.1704
  599SOL    HW2 1797   1.016   2.990   2.997 -2.6803  1.5117  1.3565
  600SOL     OW 1798   3.100   2.141   2.597  0.3698  0.3720  0.1775
  600SOL    HW1 1799   0.018   2.216   2.648  0.3149 -0.2136 -0.0492
  600SOL    HW2 1800   3.034   2.105   2.662  2.4757  1.2777  0.5660
  601SOL     OW 1801   0.620   0.853   1.513  0.1159 -0.1717 -0.3187
  601SOL    HW1 1802   0.565   0.897   1.445  3.4421  0.9004  1.9617
  601SOL    HW2 1803   0.638   0.911   1.588  0.2533  0.1076 -2.5801
  602SOL     OW 1804   0.701   2.791   0.734  0.4828 -0.3139 -0.1472
  602SOL    HW1 1805   0.801   2.807   0.757 -0.7532 -0.2244 -0.5627
  602SOL    HW2 1806   0.641   2.775   0.814 -1.9074 -1.4374  1.0314
  603SOL     OW 1807   0.384   0.430   2.736  0.3392 -0.7363  0.1653
  603SOL    HW1 1808   0.381   0.468   2.640  0.0853  2.3148  1.1192
  603SOL    HW2 1809   0.328   0.496   2.797 -3.6814 -1.8494 -1.5780
  604SOL     OW 1810   0.609   2.765   1.768 -0.7603 -0.4445  0.0013
  604SOL    HW1 1811   0.629   2.862   1.737 -1.1297  2.4093  0.9798
  604SOL    HW2 1812   0.607   2.709   1.681 -0.6179  0.9547  1.1454
  605SOL     OW 1813   1.434   0.844   2.203  0.3958  0.5237 -0.4009
  605SOL    HW1 1814   1.338   0.829   2.234  2.6667 -0.9989  2.2997
  605SOL    HW2 1815   1.439   0.927   2.147  1.2393  0.0763 -1.3008
  606SOL     OW 1816   2.317   2.842   2.814 -0.4291 -0.3987  0.3023
  606SOL    HW1 1817   2.313   2.795   2.906  1.2223 -2.4957  3.6776
  606SOL    HW2 1818   2.401   2.821   2.763 -1.0932  1.0260  3.0996
  607SOL     OW 1819   0.822   0.175   1.106 -0.3904 -0.3144 -0.0590
  607SOL    HW1 1820   0.905   0.217   1.065  1.1562  0.9523  1.8426
  607SOL    HW2 1821   0.810   0.086   1.051  0.4198  0.8254 -2.1810
  608SOL     OW 1822   0.247   1.581   2.570 -0.0082 -0.0242 -0.1280
  608SOL    HW1 1823   0.229   1.616   2.666  0.5900  0.7879  3.4327
  608SOL    HW2 1824   0.193   1.645   2.511  3.0511  0.3713 -0.2385
  609SOL     OW 1825   1.599   1.435   0.558  0.6527  0.6715  0.8030
  609SOL    HW1 1826   1.575   1.485   0.473  0.1329  0.6256 -1.9641
  609SOL    HW2 1827   1.567   1.337   0.556  0.5101  0.0963 -0.3090
  610SOL     OW 1828   0.043   0.228   0.865  0.3588  0.3246 -0.5137
  610SOL    HW1 1829   0.122   0.202   0.813  1.2414 -0.6576  2.0055
  610SOL    HW2 1830   0.074   0.300   0.932 -1.9978  3.4985  0.0550
  611SOL     OW 1831   1.373   1.351   0.736 -0.1753  0.3190  0.3729
  611SOL    HW1 1832   1.400   1.452   0.751  1.2477  1.8177  0.2486
  611SOL    HW2 1833   1.433   1.307   0.662  2.3369 -2.6697 -2.3312
  612SOL     OW 1834   2.106   1.621   0.243 -0.3155 -0.5222 -0.0669
  612SOL    HW1 1835   2.056   1.580   0.322  1.0857 -0.1063 -3.2927
  612SOL    HW2 1836   2.110   1.723   0.242 -4.0727  0.1271  0.1448
  613SOL     OW 1837   1.706   1.034   0.462  0.3712  0.0359  0.3314
  613SOL    HW1 1838   1.778   1.039   0.534 -2.1549  0.4002 -0.9587
  613SOL    HW2 1839   1.749   1.066   0.378 -0.5148 -3.0337  4.8943
  614SOL     OW 1840   2.862   0.158   2.321 -0.0291  0.4480 -0.3053
  614SOL    HW1 1841   2.875   0.074   2.262  3.6294  0.4582 -0.9829
  614SOL    HW2 1842   2.883   0.244   2.269 -0.5541 -0.2620  0.0488
  615SOL     OW 1843   0.864   1.968   0.916  0.5827  0.1861 -0.2030
  615SOL    HW1 1844   0.893   1.868   0.911 -1.7119  0.4378  0.0008
  615SOL    HW2 1845   0.833   2.000   0.822 -4.5620  0.0539  0.6752
  616SOL     OW 1846   1.735   1.302   2.646  0.3547 -0.2464  0.1414
  616SOL    HW1 1847   1.679   1.356   2.574 -0.5270  0.6239 -1.8263
  616SOL    HW2 1848   1.667   1.242   2.704 -4.4708 -1.3077  1.3236
  617SOL     OW 1849   1.319   0.353   0.003 -0.8521  0.2781  0.1660
  617SOL    HW1 1850   1.229   0.308   3.127 -0.8893 -1.2745 -0.5958
  617SOL    HW2 1851   1.357   0.381   3.045 -0.4675 -0.5212  2.1210
  618SOL     OW 1852   2.155   2.307   2.332  0.2780 -0.2878 -0.1535
  618SOL    HW1 1853   2.125   2.244   2.257  3.2377  0.4021  0.4963
  618SOL    HW2 1854   2.119   2.272   2.422 -0.4048 -0.0504 -0.6641
  619SOL     OW 1855   2.176   2.091   1.032 -0.0008  0.3851  0.4354
  619SOL    HW1 1856   2.093   2.147   1.058 -1.9310  0.0053 -0.3476
  619SOL    HW2 1857   2.149   1.995   1.008 -1.8483  0.4489 -2.2005
  620SOL     OW 1858   2.053   2.877   1.970  0.2255  0.1336  0.1367
  620SOL    HW1 1859   2.090   2.883   1.877 -0.1020  0.4645  0.9326
  620SOL    HW2 1860   2.066   2.781   2.003 -2.2389 -0.9654  1.2621
  621SOL     OW 1861   2.958   1.485   0.541 -0.0412 -0.6943 -0.7610
  621SOL    HW1 1862   3.054   1.472   0.582 -1.4362  0.6272  4.6610
  621SOL    HW2 1863   2.942   1.586   0.521  1.1086 -0.9927 -1.7526
  622SOL     OW 1864   1.230   1.659   2.894  0.5493  0.3944  0.1660
  622SOL    HW1 1865   1.240   1.707   2.802 -0.0621  1.6420 -1.5029
  622SOL    HW2 1866   1.249   1.721   2.972 -1.4730 -2.9277  0.8706
  623SOL     OW 1867   2.858   2.373   2.141  0.0027 -0.0651  0.0863
  623SOL    HW1 1868   2.776   2.421   2.181  0.6284 -0.5389 -1.1253
  623SOL    HW2 1869   2.944   2.396   2.189 -0.5523 -0.2803 -0.0381
  624SOL     OW 1870   0.771   2.304   0.369  0.1433 -0.4929 -0.6707
  624SOL    HW1 1871   0.841   2.264   0.431  0.1211 -0.5582 -1.3317
  624SOL    HW2 1872   0.720   2.226   0.327 -1.1016 -1.9784 -2.0593
  625SOL     OW 1873   0.445   1.857   2.077  0.6001  0.2670 -0.2597
  625SOL    HW1 1874   0.385   1.938   2.057 -1.4194 -2.3881 -1.5417
  625SOL    HW2 1875   0.390   1.774   2.096  0.0785 -2.3989 -0.4916
  626SOL     OW 1876   0.786   2.744   3.085  0.4314 -0.0368 -0.4138
  626SOL    HW1 1877   0.887   2.743   3.105  0.4287  3.1716  1.3371
  626SOL    HW2 1878   0.735   2.696   0.027 -0.1150 -1.8605  0.3328
  627SOL     OW 1879   1.541   1.580   0.083 -0.0617 -0.0965  0.1359
  627SOL    HW1 1880   1.510   1.549   3.116 -1.9582  0.1363 -1.2098
  627SOL    HW2 1881   1.588   1.671   0.070 -0.1532 -0.2973  0.4293
  628SOL     OW 1882   1.493   2.318   0.919  0.5008 -0.3083 -0.1751
  628SOL    HW1 1883   1.433   2.264   0.984  0.4217 -2.1979  0.7564
  628SOL    HW2 1884   1.521   2.403   0.966 -1.6092 -1.4807 -1.1379
  629SOL     OW 1885   0.206   0.187   1.660 -0.0104 -0.4302  0.9930
  629SOL    HW1 1886   0.225   0.090   1.644  0.6244  1.8303  2.2142
  629SOL    HW2 1887   0.232   0.219   1.754 -2.6310  0.7083 -1.6732
  630SOL     OW 1888   2.388   0.875   1.457 -0.0350  0.6745 -0.6786
  630SOL    HW1 1889   2.284   0.875   1.476 -0.3558 -0.4253  2.0793
  630SOL    HW2 1890   2.415   0.802   1.397  0.2044 -0.5962  2.7254
  631SOL     OW 1891   1.339   0.762   1.103  0.2846  0.4171 -0.1744
  631SOL    HW1 1892   1.371   0.858   1.094  2.2769 -1.2352 -0.3508
  631SOL    HW2 1893   1.415   0.698   1.095 -0.9050  1.9787  1.7648
  632SOL     OW 1894   2.992   0.910   2.202  0.1114 -0.6450  0.1297
  632SOL    HW1 1895   3.084   0.952   2.186 -1.8073 -0.6334 -2.2055
  632SOL    HW2 1896   2.958   0.863   2.119  0.6608  0.4686 -0.1164
  633SOL     OW 1897   1.480   0.823   3.100 -0.0603 -0.5583 -0.2766
  633SOL    HW1 1898   1.418   0.820   0.050  1.7108  1.2306  0.9775
  633SOL    HW2 1899   1.472   0.737   3.043 -2.3887  0.9318 -1.3133
  634SOL     OW 1900   0.637   2.618   0.133 -0.3465  0.2892  0.3123
  634SOL    HW1 1901   0.665   2.679   0.211 -0.1939  0.2287  1.4042
  634SOL    HW2 1902   0.606   2.521   0.159 -1.0304 -0.9144  1.5391
  635SOL     OW 1903   2.780   1.413   1.579  0.3189  0.2162 -0.3677
  635SOL    HW1 1904   2.750   1.332   1.519 -0.5150 -0.4999  1.3153
  635SOL    HW2 1905   2.700   1.449   1.634 -1.9969  0.5692 -1.5680
  636SOL     OW 1906   0.106   1.760   0.160 -0.7290  0.0465 -0.2868
  636SOL    HW1 1907   0.054   1.684   0.203  1.7114  1.7323  3.2941
  636SOL    HW2 1908   0.090   1.755   0.059  0.5592  0.0630 -1.6283
  637SOL     OW 1909   0.104   2.589   0.564 -0.1106  0.3139 -0.6620
  637SOL    HW1 1910   0.080   2.685   0.542 -1.5069  0.2867 -2.0350
  637SOL    HW2 1911   0.036   2.526   0.515  1.4463  0.6172  0.2015
  638SOL     OW 1912   3.037   3.004   0.102  0.0384 -0.5651  0.0442
  638SOL    HW1 1913   2.978   2.929   0.070  1.6212  3.0780 -2.4338
  638SOL    HW2 1914   0.004   2.978   0.084  0.8588  2.4976 -0.1680
  639SOL     OW 1915   1.543   0.480   2.988  0.1532  0.2322 -0.3059
  639SOL    HW1 1916   1.472   0.545   2.951 -0.8656 -1.2837  0.0543
  639SOL    HW2 1917   1.564   0.399   2.926  0.8648 -0.7048  0.7031
  640SOL     OW 1918   2.286   2.020   1.441  0.2766  0.2444  0.2176
  640SOL    HW1 1919   2.312   2.059   1.349 -1.7704  1.1003 -0.0481
  640SOL    HW2 1920   2.360   2.044   1.508 -1.4012 -0.6398 -0.9222
  641SOL     OW 1921   2.983   2.926   1.104 -0.2061 -0.4798 -0.0128
  641SOL    HW1 1922   2.967   3.013   1.156 -1.7607  1.1018  3.4113
  641SOL    HW2 1923   2.967   2.937   1.006  0.0580 -1.1940  0.3048
  642SOL     OW 1924   1.182   1.121   1.761 -0.2727 -0.1371 -0.1206
  642SOL    HW1 1925   1.096   1.099   1.714 -1.0403  2.7706 -3.9497
  642SOL    HW2 1926   1.256   1.064   1.711  1.5150 -0.5161 -4.4089
  643SOL     OW 1927   0.628   1.758   2.626 -0.0369  0.2244  0.1577
  643SOL    HW1 1928   0.580   1.685   2.574 -0.5683 -1.7836 -0.8460
  643SOL    HW2 1929   0.607   1.852   2.589  0.8957 -3.9150 -0.4082
  644SOL     OW 1930   1.925   2.955   2.352 -0.5948 -0.1717 -0.1708
  644SOL    HW1 1931   2.026   2.952   2.335  2.1030 -0.5885 -0.0312
  644SOL    HW2 1932   1.883   2.907   2.271  0.9174  0.1013  1.2155
  645SOL     OW 1933   1.305   0.741   1.845 -0.0208  0.3744 -0.5059
  645SOL    HW1 1934   1.283   0.703   1.753 -2.0880 -4.2075  0.4578
  645SOL    HW2 1935   1.373   0.811   1.842 -1.4673 -0.8360  0.9202
  646SOL     OW 1936   1.250   2.475   3.049  0.0842 -0.5947 -0.2178
  646SOL    HW1 1937   1.230   2.527   2.960 -2.2190 -0.1585  0.5236
  646SOL    HW2 1938   1.346   2.445   3.056  1.1464 -1.2594  1.0225
  647SOL     OW 1939   1.144   2.721   0.920 -0.4573 -0.2112 -0.5692
  647SOL    HW1 1940   1.106   2.734   1.016  0.7257  1.6936  0.3065
  647SOL    HW2 1941   1.236   2.677   0.924 -0.6614 -1.9346  0.1328
  648SOL     OW 1942   2.822   2.618   1.426 -0.1032  0.6078  0.0161
  648SOL    HW1 1943   2.900   2.586   1.479 -1.0174  1.8001 -2.1296
  648SOL    HW2 1944   2.866   2.639   1.336  0.9803 -2.6495  1.3497
  649SOL     OW 1945   0.711   2.349   2.587 -0.1391  0.4069 -0.9959
  649SOL    HW1 1946   0.745   2.266   2.636  3.0054 -0.1927 -0.9185
  649SOL    HW2 1947   0.646   2.397   2.653 -1.1713  0.5886  0.9443
  650SOL     OW 1948   2.701   2.039   2.774 -0.0420  0.0927  0.2276
  650SOL    HW1 1949   2.786   1.982   2.794  1.7563 -2.3971 -0.3674
  650SOL    HW2 1950   2.723   2.125   2.722 -3.6724  0.2454  0.8415
  651SOL     OW 1951   2.445   2.334   2.224 -0.3597  0.7006  0.2527
  651SOL    HW1 1952   2.392   2.262   2.279 -1.6227 -1.1338  0.7621
  651SOL    HW2 1953   2.385   2.414   2.208 -0.0453  1.8824  2.3757
  652SOL     OW 1954   2.758   2.533   1.001 -0.3162 -0.0141  0.0201
  652SOL    HW1 1955   2.847   2.566   1.038 -0.7277 -1.1620  1.6741
  652SOL    HW2 1956   2.745   2.431   1.018 -1.4056  0.6974  1.5726
  653SOL     OW 1957   2.715   1.301   0.941 -0.2660  0.1336 -0.2705
  653SOL    HW1 1958   2.703   1.213   0.990  0.2852  1.5033 -3.7190
  653SOL    HW2 1959   2.710   1.374   1.014 -0.5495 -1.9324  3.9528
  654SOL     OW 1960   1.116   0.424   2.885 -0.4070 -0.3827 -0.1573
  654SOL    HW1 1961   1.050   0.497   2.915  1.8398 -1.2968 -1.7947
  654SOL    HW2 1962   1.097   0.340   2.937  2.1714  0.3979  0.1351
  655SOL     OW 1963   1.008   0.287   0.964  0.1427  0.0137 -0.3864
  655SOL    HW1 1964   0.931   0.326   0.907 -3.7854 -0.4051  0.5249
  655SOL    HW2 1965   1.044   0.199   0.925  0.0837 -1.5289 -1.9610
  656SOL     OW 1966   0.402   2.463   1.857  0.0819  0.1970  0.5866
  656SOL    HW1 1967   0.347   2.421   1.931  2.6383 -1.3200 -0.1317
  656SOL    HW2 1968   0.445   2.549   1.893 -0.7437  0.7385  0.0306
  657SOL     OW 1969   2.608   0.927   0.327 -0.4056  0.1167 -0.6227
  657SOL    HW1 1970   2.545   0.858   0.289  2.6775  2.2181  0.7355
  657SOL    HW2 1971   2.562   1.017   0.336 -2.5506 -0.2217 -3.2252
  658SOL     OW 1972   1.732   2.120   1.352  0.1119 -0.0913  0.5824
  658SOL    HW1 1973   1.740   2.161   1.263 -0.3739 -2.6182  2.2965
  658SOL    HW2 1974   1.750   2.020   1.362 -0.7490  2.6571 -2.1283
  659SOL     OW 1975   2.898   1.814   0.056 -0.9786  0.8737  0.2964
  659SOL    HW1 1976   2.840   1.737   0.037 -1.9761  1.3901  0.5472
  659SOL    HW2 1977   2.954   1.801   0.142 -0.7260  1.5196  3.8145
  660SOL     OW 1978   0.945   0.305   0.544 -0.4299  0.7108 -0.0034
  660SOL    HW1 1979   0.956   0.205   0.542 -1.9587 -4.4315 -2.9279
  660SOL    HW2 1980   1.028   0.355   0.520 -3.4004 -1.2039  1.5911
  661SOL     OW 1981   1.854   0.202   0.322  0.4732  0.5170  0.1465
  661SOL    HW1 1982   1.854   0.276   0.390  1.0734 -3.5029 -0.5904
  661SOL    HW2 1983   1.871   0.235   0.224 -0.6792 -1.1157 -2.6441
  662SOL     OW 1984   0.743   3.064   0.455  0.3037  0.4393  0.3882
  662SOL    HW1 1985   0.698   3.120   0.378  0.7868  0.3826  0.3452
  662SOL    HW2 1986   0.677   2.989   0.486 -3.6517 -2.2958  5.2680
  663SOL     OW 1987   1.272   2.930   2.197  0.5607  0.6184  0.3685
  663SOL    HW1 1988   1.192   2.987   2.166  0.2911  0.7265  2.0593
  663SOL    HW2 1989   1.246   2.893   2.288 -2.4106 -0.2753 -0.8728
  664SOL     OW 1990   0.963   2.417   1.726 -0.3243 -0.1681 -0.5758
  664SOL    HW1 1991   0.883   2.355   1.751  1.9029  0.5795 -2.0353
  664SOL    HW2 1992   0.938   2.518   1.734 -2.1077 -3.2027 -1.4450
  665SOL     OW 1993   1.129   2.194   1.738  0.2305  0.5386  0.4266
  665SOL    HW1 1994   1.144   2.151   1.646  0.8103  2.8960 -0.8910
  665SOL    HW2 1995   1.094   2.288   1.724  0.5187 -1.7385  1.7348
  666SOL     OW 1996   0.707   2.878   2.641  0.6449  0.1335 -0.7930
  666SOL    HW1 1997   0.724   2.880   2.742 -3.4334  0.6762 -0.5831
  666SOL    HW2 1998   0.628   2.823   2.613  1.5017 -0.0364 -1.1298
  667SOL     OW 1999   2.047   1.275   1.686  0.8233 -0.0871  0.1447
  667SOL    HW1 2000   2.001   1.354   1.644  0.5987 -0.7909 -0.5674
  667SOL    HW2 2001   2.128   1.308   1.742 -0.1348 -1.1525 -0.4808
  668SOL     OW 2002   1.816   0.086   1.832  0.2013 -0.3637 -0.0898
  668SOL    HW1 2003   1.813   3.116   1.851 -0.9547 -0.1097 -1.7775
  668SOL    HW2 2004   1.727   0.128   1.860  1.1868  1.4808  1.0906
  669SOL     OW 2005   2.526   2.698   0.923 -0.1255  0.1350 -0.3972
  669SOL    HW1 2006   2.610   2.661   0.969  1.9217  1.8570 -1.3508
  669SOL    HW2 2007   2.546   2.724   0.827 -0.4165 -1.3310  0.7968
  670SOL     OW 2008   1.488   2.507   2.726  0.2102 -0.2248 -0.1592
  670SOL    HW1 2009   1.395   2.531   2.765  1.4724 -0.0591 -2.0393
  670SOL    HW2 2010   1.480   2.404   2.699 -1.2880 -0.0966  0.5023
  671SOL     OW 2011   0.680   0.963   0.447  0.2452  0.2328  0.1912
  671SOL    HW1 2012   0.688   1.063   0.417  0.9435  1.0636  1.6437
  671SOL    HW2 2013   0.601   0.956   0.511 -1.5361  1.5980  1.4207
  672SOL     OW 2014   2.743   1.067   2.936  0.1880  0.4540 -0.0291
  672SOL    HW1 2015   2.740   1.000   3.014 -1.4013 -0.8265 -1.0074
  672SOL    HW2 2016   2.662   1.062   2.875  0.0918  3.3280 -0.6682
  673SOL     OW 2017   0.140   1.985   1.501 -0.2911  0.0610  0.0745
  673SOL    HW1 2018   0.180   2.042   1.576  0.1602 -0.1886 -1.1729
  673SOL    HW2 2019   0.120   1.888   1.533 -1.3912 -1.2792  0.2930
  674SOL     OW 2020   0.800   2.249   2.352 -0.4958 -0.3629  0.3605
  674SOL    HW1 2021   0.896   2.242   2.387  0.3065 -0.9359  1.4978
  674SOL    HW2 2022   0.745   2.284   2.431  0.1195 -1.7884  1.0397
  675SOL     OW 2023   0.969   0.735   1.534  0.0410  0.0687  0.4836
  675SOL    HW1 2024   1.039   0.665   1.553  0.9154 -0.6493  0.8397
  675SOL    HW2 2025   0.881   0.690   1.510 -0.5913  1.0486  1.6253
  676SOL     OW 2026   1.927   0.145   1.313 -0.3103 -0.2492  0.1578
  676SOL    HW1 2027   1.932   0.076   1.240 -1.3596  2.2933 -1.1201
  676SOL    HW2 2028   1.899   0.113   1.411 -1.7020 -1.0905  1.3802
  677SOL     OW 2029   2.652   1.223   0.082  0.0558  0.3747  0.0193
  677SOL    HW1 2030   2.710   1.293   0.037  3.5594 -1.6058  2.7318
  677SOL    HW2 2031   2.701   1.132   0.071 -3.1724 -2.4591 -0.5839
  678SOL     OW 2032   2.300   1.352   1.287 -0.2693 -0.2860 -0.3711
  678SOL    HW1 2033   2.367   1.429   1.280  1.0910 -3.7479  0.3133
  678SOL    HW2 2034   2.217   1.366   1.228 -0.1955 -0.0814  0.2457
  679SOL     OW 2035   2.910   0.493   2.856 -0.8109 -0.3380 -0.9106
  679SOL    HW1 2036   2.882   0.591   2.865  0.0766  1.0927  2.1228
  679SOL    HW2 2037   2.907   0.456   2.948  0.5281 -1.8176  0.0843
  680SOL     OW 2038   0.596   1.516   2.104 -0.2826  0.4829  0.3530
  680SOL    HW1 2039   0.649   1.531   2.190 -1.3688 -1.0967  0.2507
  680SOL    HW2 2040   0.497   1.540   2.113  0.6782  0.4848  2.3059
  681SOL     OW 2041   2.766   2.028   1.516 -0.1129 -0.3564  0.0606
  681SOL    HW1 2042   2.812   2.102   1.570  0.0889  1.4811  0.6912
  681SOL    HW2 2043   2.817   1.939   1.520 -1.2981  1.4959 -2.5082
  682SOL     OW 2044   0.135   2.246   3.014  0.1434 -0.2845  0.0216
  682SOL    HW1 2045   0.161   2.234   3.112  1.8926 -0.6160 -0.5688
  682SOL    HW2 2046   0.072   2.323   3.012 -0.3666  0.8384  1.4894
  683SOL     OW 2047   2.854   2.127   0.911 -0.6061  0.2363  0.0441
  683SOL    HW1 2048   2.861   2.035   0.951 -2.2810  1.6505  0.9174
  683SOL    HW2 2049   2.811   2.185   0.981  0.7712  0.1078  0.0231
  684SOL     OW 2050   3.013   1.233   2.195  0.5099 -0.4566 -0.4329
  684SOL    HW1 2051   3.086   1.164   2.181 -0.0896 -0.0464 -1.1168
  684SOL    HW2 2052   2.917   1.196   2.187 -0.2294 -0.9463 -2.5247
  685SOL     OW 2053   1.489   0.614   0.817 -0.1307 -0.4809  0.2036
  685SOL    HW1 2054   1.462   0.545   0.890  0.0200  0.4279  1.5030
  685SOL    HW2 2055   1.556   0.579   0.751  0.7428  1.3573 -1.9793
  686SOL     OW 2056   0.513   0.446   0.486  0.4023  0.5968 -0.1769
  686SOL    HW1 2057   0.578   0.445   0.407  0.0369 -2.4481  0.6361
  686SOL    HW2 2058   0.420   0.471   0.459  1.3390 -0.6269  1.4960
  687SOL     OW 2059   0.454   1.987   2.732 -0.3374  0.4060  0.4181
  687SOL    HW1 2060   0.504   2.012   2.650 -1.1082 -0.3097 -0.1069
  687SOL    HW2 2061   0.362   1.953   2.718  0.7243  1.1643  2.6974
  688SOL     OW 2062   2.026   0.547   1.437 -0.2130 -0.6054  0.0931
  688SOL    HW1 2063   2.066   0.455   1.431 -1.3714  3.8542  0.8362
  688SOL    HW2 2064   1.984   0.576   1.350 -1.4306 -2.2335  0.2595
  689SOL     OW 2065   1.619   0.778   0.998 -0.6562  0.8048  0.4860
  689SOL    HW1 2066   1.709   0.764   0.954 -2.2452  2.4700  0.5348
  689SOL    HW2 2067   1.546   0.738   0.940  1.7919  1.2430  1.2954
  690SOL     OW 2068   2.972   1.319   1.225  0.1225  0.0678 -0.5704
  690SOL    HW1 2069   3.047   1.379   1.194  0.1167 -1.0008 -0.8473
  690SOL    HW2 2070   2.967   1.236   1.166 -0.8193 -1.6562  0.3500
  691SOL     OW 2071   3.068   1.772   1.319 -0.7790  0.1465  0.0793
  691SOL    HW1 2072   0.032   1.741   1.344  0.3328 -0.7832  0.1968
  691SOL    HW2 2073   3.017   1.798   1.403  1.9106 -1.6080  0.8598
  692SOL     OW 2074   1.268   0.202   1.687 -0.1553  0.1586  0.0559
  692SOL    HW1 2075   1.325   0.117   1.707 -1.9860  1.4249  0.6269
  692SOL    HW2 2076   1.323   0.287   1.675 -0.4262 -0.2115 -1.4008
  693SOL     OW 2077   0.835   1.473   2.274 -0.5623 -0.5580 -0.4710
  693SOL    HW1 2078   0.902   1.551   2.265  3.1624  1.6205 -0.2245
  693SOL    HW2 2079   0.864   1.391   2.218  0.6976 -3.8988  1.2753
  694SOL     OW 2080   1.803   1.582   0.654  0.4377  0.0755 -0.3557
  694SOL    HW1 2081   1.825   1.547   0.744 -1.1584  0.0441 -2.5670
  694SOL    HW2 2082   1.728   1.531   0.611 -0.6822  0.3988  2.8424
  695SOL     OW 2083   0.712   0.968   1.220 -0.2234 -0.1761 -0.4446
  695SOL    HW1 2084   0.762   0.881   1.202 -2.2690  2.5615 -1.0625
  695SOL    HW2 2085   0.614   0.942   1.237 -0.9325  0.4816 -0.6099
  696SOL     OW 2086   0.194   0.049   0.463  0.8075  0.5893 -0.5249
  696SOL    HW1 2087   0.122   0.009   0.396 -1.4139 -0.4189  0.5844
  696SOL    HW2 2088   0.246   3.100   0.510  1.9430 -4.1946  2.3857
  697SOL     OW 2089   1.971   0.612   1.167 -0.3482  0.1976 -0.4613
  697SOL    HW1 2090   1.877   0.646   1.174 -1.8556  0.2603  2.0408
  697SOL    HW2 2091   1.970   0.511   1.145 -0.7683  1.6773 -0.3729
  698SOL     OW 2092   1.313   1.329   1.842  0.1174 -0.3871  0.0228
  698SOL    HW1 2093   1.413   1.322   1.813 -1.0852  0.7554  0.6118
  698SOL    HW2 2094   1.264   1.246   1.806 -0.1292 -1.1252 -0.5736
  699SOL     OW 2095   0.020   0.256   2.156 -0.3891  0.0576 -0.0097
  699SOL    HW1 2096   3.117   0.182   2.098  0.2751  2.8567  1.1256
  699SOL    HW2 2097   3.067   0.307   2.181 -1.4646 -0.8402 -0.8713
  700SOL     OW 2098   1.391   2.628   0.939  0.1862  0.3671  0.1810
  700SOL    HW1 2099   1.477   2.640   0.887  1.8905  2.6267  0.3121
  700SOL    HW2 2100   1.412   2.619   1.034 -0.3117  1.6519 -1.4635
  701SOL     OW 2101   0.190   1.305   2.581  0.5952  0.2388  0.3836
  701SOL    HW1 2102   0.212   1.399   2.545  2.3095  2.0140  0.0460
  701SOL    HW2 2103   0.258   1.278   2.653  1.3911  0.1301 -0.0740
  702SOL     OW 2104   0.405   0.117   0.308 -0.7309 -0.0176  0.2459
  702SOL    HW1 2105   0.338   0.087   0.382  0.4957 -0.1101  0.8666
  702SOL    HW2 2106   0.399   0.058   0.224 -0.9868  0.0113  1.2013
  703SOL     OW 2107   1.806   3.115   2.545  0.3944 -0.2761 -0.2119
  703SOL    HW1 2108   1.845   0.007   2.639  0.0561 -3.5820  0.1375
  703SOL    HW2 2109   1.879   3.068   2.489  1.0222 -1.2826 -0.0338
  704SOL     OW 2110   2.629   1.852   0.445  0.0077  0.2091 -0.4232
  704SOL    HW1 2111   2.615   1.933   0.383 -4.3966 -0.0205  0.0550
  704SOL    HW2 2112   2.641   1.881   0.544 -0.0092  1.4879 -0.3814
  705SOL     OW 2113   2.697   2.093   2.406  0.3486  0.2605  0.1238
  705SOL    HW1 2114   2.677   2.172   2.474 -0.4466 -2.5262  1.9473
  705SOL    HW2 2115   2.793   2.106   2.361 -0.7490  1.6146 -1.2638
  706SOL     OW 2116   2.962   2.833   0.675  0.1814  0.1308 -0.1416
  706SOL    HW1 2117   2.900   2.754   0.656  2.0295  0.1790  3.6750
  706SOL    HW2 2118   3.049   2.832   0.623  0.0566  0.4198 -0.2786
  707SOL     OW 2119   0.991   2.936   0.296 -0.5009 -0.5778 -0.3318
  707SOL    HW1 2120   1.034   2.867   0.239 -1.3282  2.0969  2.3332
  707SOL    HW2 2121   0.968   3.017   0.238 -1.7528  0.0101 -2.5047
  708SOL     OW 2122   0.210   2.118   1.734 -0.2223  0.1365 -0.1639
  708SOL    HW1 2123   0.196   2.214   1.764 -0.4424 -0.8511  0.6129
  708SOL    HW2 2124   0.190   2.044   1.805  0.0672 -1.4831  1.7619
  709SOL     OW 2125   1.303   2.752   1.995  0.0140 -0.4056  0.0226
  709SOL    HW1 2126   1.315   2.672   2.056 -0.4604  0.9008  0.7634
  709SOL    HW2 2127   1.288   2.835   2.053  4.8364  0.9895 -2.6253
  710SOL     OW 2128   1.841   2.458   2.471  0.8011 -0.8414 -0.0356
  710SOL    HW1 2129   1.856   2.539   2.537 -0.2276  0.5063 -1.8307
  710SOL    HW2 2130   1.836   2.489   2.371  1.2481 -0.6675 -1.8060
  711SOL     OW 2131   1.233   2.537   2.781  0.5026  0.0561  0.2718
  711SOL    HW1 2132   1.174   2.627   2.774  0.6849  1.3233  0.0013
  711SOL    HW2 2133   1.168   2.458   2.770  0.7452  1.4921 -0.8486
  712SOL     OW 2134   1.084   2.324   2.801  0.3116 -0.0917  0.0505
  712SOL    HW1 2135   1.143   2.253   2.846 -2.4335  0.9654  0.2782
  712SOL    HW2 2136   0.986   2.296   2.806 -0.4649  1.3480 -1.6963
  713SOL     OW 2137   1.375   1.004   1.635  0.9453 -0.3224  0.2320
  713SOL    HW1 2138   1.459   0.966   1.677  0.2861 -0.5771  0.3235
  713SOL    HW2 2139   1.386   1.034   1.537  1.4374 -0.3669  1.6135
  714SOL     OW 2140   1.169   1.442   1.637  0.0262 -0.2290 -0.3002
  714SOL    HW1 2141   1.211   1.431   1.729  2.7596  0.4843 -2.3130
  714SOL    HW2 2142   1.139   1.354   1.597  0.5561  1.2614  0.6277
  715SOL     OW 2143   2.680   2.934   0.504 -0.1901 -0.1886  0.1277
  715SOL    HW1 2144   2.771   2.984   0.507 -0.2511 -0.6425 -0.9252
  715SOL    HW2 2145   2.679   2.884   0.414 -0.6500  1.1933 -3.4835
  716SOL     OW 2146   0.722   2.653   1.248 -0.2871  0.2998 -0.5978
  716SOL    HW1 2147   0.777   2.585   1.192  0.3646 -0.9527 -2.2294
  716SOL    HW2 2148   0.621   2.646   1.244  0.2648  2.0438 -0.6268
  717SOL     OW 2149   2.894   0.390   0.029 -0.3861 -0.2275  0.0894
  717SOL    HW1 2150   2.818   0.338   3.119  2.6136  0.9677 -0.3265
  717SOL    HW2 2151   2.925   0.352   0.118 -0.2189 -0.3789  0.6735
  718SOL     OW 2152   1.646   1.613   1.310  0.3296 -0.1468 -0.1343
  718SOL    HW1 2153   1.552   1.629   1.273 -1.2433  1.9112  0.4317
  718SOL    HW2 2154   1.648   1.664   1.400 -3.6136 -0.8901  1.1262
  719SOL     OW 2155   2.916   2.649   0.307  0.1337 -0.2980  0.4989
  719SOL    HW1 2156   2.948   2.681   0.217 -2.1611  1.0952  0.7240
  719SOL    HW2 2157   2.980   2.581   0.341 -0.3739  0.4811 -0.5090
  720SOL     OW 2158   1.170   0.662   0.928  0.1594  0.1595 -0.0308
  720SOL    HW1 2159   1.217   0.580   0.890 -1.2150 -1.1739  2.0151
  720SOL    HW2 2160   1.222   0.688   1.010 -0.0900  0.3312 -0.9549
  721SOL     OW 2161   1.926   0.342   1.097  0.3328 -0.3393  0.3027
  721SOL    HW1 2162   1.943   0.245   1.113 -0.9411  2.8463 -1.7843
  721SOL    HW2 2163   1.835   0.362   1.135 -0.7371 -1.3367 -1.3716
  722SOL     OW 2164   0.885   1.906   2.061  0.4231 -0.0323 -0.4848
  722SOL    HW1 2165   0.822   1.865   2.128  0.3228  0.0974  1.4706
  722SOL    HW2 2166   0.956   1.956   2.120  2.7419  0.6471  2.3306
  723SOL     OW 2167   1.054   0.090   1.543  0.2711  0.5956  0.2955
  723SOL    HW1 2168   1.056   3.124   1.509 -0.2374 -1.3056 -0.5347
  723SOL    HW2 2169   1.138   0.112   1.597 -2.0860  2.1705 -0.5292
  724SOL     OW 2170   1.765   2.018   1.962 -0.2794  0.4125 -0.8319
  724SOL    HW1 2171   1.749   1.971   2.053  3.0049 -0.3276  1.1866
  724SOL    HW2 2172   1.860   2.020   1.931 -1.6781 -1.4546  0.2895
  725SOL     OW 2173   1.333   2.800   1.509 -0.5267  0.1808  0.0834
  725SOL    HW1 2174   1.410   2.841   1.456 -1.1472 -0.2740 -2.0228
  725SOL    HW2 2175   1.365   2.730   1.577 -1.3745 -0.6318 -0.2929
  726SOL     OW 2176   1.604   3.092   0.381  0.0525 -0.2565 -0.1600
  726SOL    HW1 2177   1.609   3.063   0.281  0.2764 -0.5617  0.7132
  726SOL    HW2 2178   1.669   0.040   0.398 -0.7052  0.3177  0.4468
  727SOL     OW 2179   1.422   1.893   0.842  0.3801 -0.5159  0.0690
  727SOL    HW1 2180   1.328   1.898   0.878 -1.1845  0.7203  1.2391
  727SOL    HW2 2181   1.478   1.955   0.900 -1.8628 -0.3127 -0.3038
  728SOL     OW 2182   1.902   2.730   2.560 -0.3162 -0.0685  0.0987
  728SOL    HW1 2183   1.894   2.792   2.481 -0.7117 -1.0804  1.3429
  728SOL    HW2 2184   1.809   2.711   2.595  0.3546  3.2833 -0.6854
  729SOL     OW 2185   2.208   2.330   1.522 -0.2557  0.3199 -0.7765
  729SOL    HW1 2186   2.226   2.317   1.627 -0.4258 -0.7175  2.5730
  729SOL    HW2 2187   2.261   2.264   1.467 -0.0189 -0.5604 -0.8159
  730SOL     OW 2188   1.938   0.745   2.382  0.0905 -0.6350 -0.1094
  730SOL    HW1 2189   1.956   0.681   2.304  2.1346 -2.5159  0.8471
  730SOL    HW2 2190   2.027   0.762   2.437  2.1410  1.2530  3.6239
  731SOL     OW 2191   0.524   0.160   1.124 -0.5468  0.1936 -0.3125
  731SOL    HW1 2192   0.618   0.150   1.086  1.2179  0.5408  1.3367
  731SOL    HW2 2193   0.520   0.244   1.177 -0.6369  0.0859 -1.7052
  732SOL     OW 2194   1.929   3.059   1.154  0.0029 -0.0950  0.2385
  732SOL    HW1 2195   1.833   3.036   1.133 -0.9157  2.0312  1.8784
  732SOL    HW2 2196   1.981   3.089   1.071  0.8332 -0.2279 -2.7127
  733SOL     OW 2197   0.995   1.020   1.184  0.6272 -0.1917  0.3090
  733SOL    HW1 2198   0.894   0.991   1.186 -2.8923 -1.1319 -1.4591
  733SOL    HW2 2199   1.042   0.990   1.269 -1.2394  0.8460 -0.6182
  734SOL     OW 2200   2.597   2.386   0.425 -0.1862 -0.1646  0.0327
  734SOL    HW1 2201   2.494   2.403   0.421 -1.4516  0.8036 -0.2482
  734SOL    HW2 2202   2.649   2.456   0.480  3.2270  2.2615 -0.7935
  735SOL     OW 2203   0.670   0.446   3.068  0.3650 -0.6876 -0.2609
  735SOL    HW1 2204   0.660   0.477   2.972 -1.5124  1.9585  0.2918
  735SOL    HW2 2205   0.704   0.528   3.118 -1.6697  0.2372  0.9643
  736SOL     OW 2206   1.927   2.200   2.502 -0.1199  0.4434  0.0191
  736SOL    HW1 2207   1.887   2.290   2.475 -1.1247 -0.7398  0.8656
  736SOL    HW2 2208   1.977   2.202   2.592 -0.6634 -0.9641 -2.5577
  737SOL     OW 2209   1.251   2.415   1.328  0.1765 -0.0524  0.4133
  737SOL    HW1 2210   1.175   2.466   1.371  2.3803 -2.2594 -0.1133
  737SOL    HW2 2211   1.293   2.353   1.393 -0.3040 -0.6303 -3.5796
  738SOL     OW 2212   1.762   2.827   2.183 -0.1540 -0.3994  0.0323
  738SOL    HW1 2213   1.687   2.888   2.224  1.4517 -1.4859 -0.6052
  738SOL    HW2 2214   1.777   2.853   2.085  2.4662 -1.9427 -1.1703
  739SOL     OW 2215   1.105   2.039   2.195  0.9339  0.1937 -1.0313
  739SOL    HW1 2216   1.145   1.988   2.277 -0.7261  0.2342 -0.4544
  739SOL    HW2 2217   1.089   2.133   2.227  1.8198 -1.8278  0.2260
  740SOL     OW 2218   1.907   2.193   1.641  0.0387  0.0236 -0.2779
  740SOL    HW1 2219   1.948   2.103   1.614  0.6274  3.1142 -0.2645
  740SOL    HW2 2220   1.911   2.260   1.568  0.0509 -0.2858 -0.2138
  741SOL     OW 2221   2.002   1.957   3.033  0.1761  0.2175  0.1031
  741SOL    HW1 2222   1.948   1.866   3.029 -1.8780 -3.9811  3.0367
  741SOL    HW2 2223   2.043   1.971   2.941 -1.0141 -2.9088 -0.7684
  742SOL     OW 2224   0.969   0.886   2.929  0.3685  0.0065  0.3634
  742SOL    HW1 2225   0.896   0.941   2.884  0.7899 -3.4568 -1.5757
  742SOL    HW2 2226   1.062   0.904   2.892  1.8733 -1.2345  0.2898
  743SOL     OW 2227   2.497   1.034   2.773 -0.2469 -0.5128 -0.2976
  743SOL    HW1 2228   2.506   0.990   2.679 -0.1277 -1.1170 -1.4926
  743SOL    HW2 2229   2.468   1.133   2.759 -2.3036  3.5011  1.9400
  744SOL     OW 2230   2.372   2.519   1.884  0.5999 -0.9171 -0.6961
  744SOL    HW1 2231   2.374   2.619   1.879  0.4928 -0.9529  0.9765
  744SOL    HW2 2232   2.455   2.486   1.840 -2.7548  1.2681  1.5214
  745SOL     OW 2233   2.631   1.707   1.414 -0.4197  0.3130  0.3646
  745SOL    HW1 2234   2.608   1.784   1.354  0.7745 -3.0463  0.9126
  745SOL    HW2 2235   2.564   1.687   1.484 -0.1942 -1.1622  1.0357
  746SOL     OW 2236   2.871   1.885   1.004 -0.1265  0.2754  0.6062
  746SOL    HW1 2237   2.825   1.847   0.923 -0.5444  0.2719 -2.8795
  746SOL    HW2 2238   2.917   1.805   1.058  2.1198 -1.5748  1.5608
  747SOL     OW 2239   1.691   2.635   0.416 -0.0461 -0.4586  0.2862
  747SOL    HW1 2240   1.743   2.616   0.330  1.8426 -1.3046  0.3334
  747SOL    HW2 2241   1.699   2.549   0.474 -0.4541  2.4836  0.4533
  748SOL     OW 2242   0.936   1.979   0.259 -0.3310 -0.0255 -0.1040
  748SOL    HW1 2243   0.957   1.978   0.160  0.5677  1.6883  0.9530
  748SOL    HW2 2244   0.848   2.025   0.266  0.5740  0.1074 -2.0428
  749SOL     OW 2245   2.907   0.385   2.177  0.1622  0.1662 -0.6920
  749SOL    HW1 2246   2.903   0.464   2.243  1.9656  1.8683  0.4814
  749SOL    HW2 2247   2.861   0.408   2.091 -1.0904 -0.7179  3.8448
  750SOL     OW 2248   1.413   0.434   1.697 -0.2045  0.2747  0.6442
  750SOL    HW1 2249   1.419   0.446   1.797 -0.9632 -2.1413  2.0765
  750SOL    HW2 2250   1.504   0.458   1.652  2.6657  1.2641 -0.5532
  751SOL     OW 2251   2.319   2.573   2.139  0.1483 -0.2985  0.6088
  751SOL    HW1 2252   2.218   2.605   2.136 -1.7536  0.3376  1.1867
  751SOL    HW2 2253   2.346   2.536   2.046  0.7781 -1.0124 -1.5683
  752SOL     OW 2254   2.008   1.847   0.976 -0.1200 -0.4402 -0.1631
  752SOL    HW1 2255   1.947   1.783   1.024 -2.7299 -0.0687 -0.5800
  752SOL    HW2 2256   2.097   1.802   0.956  2.2205 -2.5213 -1.6498
  753SOL     OW 2257   1.443   1.013   2.501  0.3515 -0.4240 -0.2723
  753SOL    HW1 2258   1.492   1.067   2.423 -0.1374  2.0572 -0.5572
  753SOL    HW2 2259   1.343   1.027   2.492 -0.3520  1.0121 -0.6609
  754SOL     OW 2260   0.246   2.679   1.026  0.4126  0.3063 -0.7600
  754SOL    HW1 2261   0.215   2.773   1.059 -0.2339  0.7539  2.1891
  754SOL    HW2 2262   0.170   2.615   1.014 -0.5803 -1.0395 -0.8214
  755SOL     OW 2263   2.192   0.234   1.627  0.0177  0.2758 -0.4604
  755SOL    HW1 2264   2.233   0.143   1.608 -0.9508 -0.3322 -0.6206
  755SOL    HW2 2265   2.148   0.278   1.543 -2.1181  1.1989 -0.4281
  756SOL     OW 2266   1.423   1.249   2.650 -0.1796 -0.3440  0.5200
  756SOL    HW1 2267   1.345   1.234   2.713 -1.5635  1.1743 -0.9644
  756SOL    HW2 2268   1.465   1.161   2.616  1.4898  1.8328  0.0847
  757SOL     OW 2269   2.842   2.832   1.708  0.2103 -0.4810  0.0550
  757SOL    HW1 2270   2.799   2.894   1.780 -1.0705  1.1422 -0.4783
  757SOL    HW2 2271   2.782   2.824   1.626 -0.9514  0.9137 -0.7284
  758SOL     OW 2272   0.404   2.845   1.398 -0.7383 -0.1265  0.1838
  758SOL    HW1 2273   0.309   2.873   1.406 -0.0172  0.0130 -0.8553
  758SOL    HW2 2274   0.465   2.927   1.383  0.5475  0.1184 -2.2046
  759SOL     OW 2275   2.204   1.276   0.717 -0.4511  0.9998 -0.0471
  759SOL    HW1 2276   2.296   1.222   0.715 -0.5959 -1.9806 -0.0639
  759SOL    HW2 2277   2.130   1.208   0.718  2.2927 -0.4398  1.9754
  760SOL     OW 2278   1.495   0.180   1.943 -0.3879 -0.0878 -0.2251
  760SOL    HW1 2279   1.568   0.246   1.921  0.9530 -2.8866  0.0231
  760SOL    HW2 2280   1.458   0.194   2.039 -2.1166 -1.2256  2.4171
  761SOL     OW 2281   2.123   0.438   0.373  0.1292 -0.7073 -0.4687
  761SOL    HW1 2282   2.128   0.344   0.329  1.9345 -2.0515  2.2618
  761SOL    HW2 2283   2.075   0.507   0.318  1.9745  2.5923 -2.7856
  762SOL     OW 2284   2.293   2.752   3.082  0.2242 -0.4126  0.0967
  762SOL    HW1 2285   2.350   2.671   3.088 -0.6316  3.0065  0.1646
  762SOL    HW2 2286   2.213   2.749   0.018 -0.9379  3.3215 -1.9730
  763SOL     OW 2287   0.792   0.711   1.125  0.3427 -0.2350  0.2010
  763SOL    HW1 2288   0.853   0.627   1.131 -0.0293 -3.0363  0.5621
  763SOL    HW2 2289   0.762   0.730   1.028 -0.8869  0.3504  0.2668
  764SOL     OW 2290   2.296   2.520   2.875 -0.3870  0.2285  0.6637
  764SOL    HW1 2291   2.286   2.430   2.919 -0.0545 -0.4582  2.0205
  764SOL    HW2 2292   2.214   2.575   2.852  0.2515  0.5145 -0.5292
  765SOL     OW 2293   0.244   0.710   2.069  0.5657 -0.5699  0.2488
  765SOL    HW1 2294   0.154   0.667   2.041 -1.8141 -0.3631 -1.1839
  765SOL    HW2 2295   0.269   0.669   2.159  1.1024  0.2374  0.5874
  766SOL     OW 2296   2.811   1.334   2.955  0.1105  0.0347  0.5544
  766SOL    HW1 2297   2.762   1.361   2.865  1.3108  1.3890  1.6952
  766SOL    HW2 2298   2.803   1.234   2.971  0.9361 -0.4813 -0.4120
  767SOL     OW 2299   3.112   1.650   1.926  0.5695 -0.5361 -0.0464
  767SOL    HW1 2300   3.027   1.707   1.919  1.6136 -0.5102 -0.8545
  767SOL    HW2 2301   3.083   1.550   1.912 -3.3515  0.0790 -0.7698
  768SOL     OW 2302   1.090   0.941   0.224  0.6283  0.0291 -0.3060
  768SOL    HW1 2303   0.997   0.903   0.241 -0.4604  0.8975  0.1567
  768SOL    HW2 2304   1.160   0.870   0.222  0.3938  2.3424 -0.4830
  769SOL     OW 2305   1.672   2.959   2.882  0.4588 -0.2260  0.2309
  769SOL    HW1 2306   1.755   3.010   2.850  1.2029  1.9813  1.3734
  769SOL    HW2 2307   1.690   2.926   2.979  2.0822  1.4981 -1.5108
  770SOL     OW 2308   0.803   0.172   2.443  0.7632  0.1479  0.1053
  770SOL    HW1 2309   0.730   0.100   2.437 -1.8992 -0.2561  1.9655
  770SOL    HW2 2310   0.762   0.264   2.415 -0.2018  1.5108 -0.7218
  771SOL     OW 2311   0.877   2.343   1.031  0.1359  0.0398 -0.5000
  771SOL    HW1 2312   0.807   2.291   0.979  0.1599  1.4273 -1.5067
  771SOL    HW2 2313   0.939   2.399   0.980  0.5654 -1.6961  2.9420
  772SOL     OW 2314   0.135   0.664   0.144  0.3569 -0.3223  0.0653
  772SOL    HW1 2315   0.110   0.608   0.062 -0.2285  0.4280  3.0016
  772SOL    HW2 2316   0.070   0.651   0.223 -2.7430 -2.2374  1.5648
  773SOL     OW 2317   2.031   0.992   1.883 -0.5128 -0.5034 -0.4911
  773SOL    HW1 2318   2.087   0.911   1.896 -0.5664  2.7079  2.1302
  773SOL    HW2 2319   2.005   0.996   1.781 -0.9557  0.7751 -1.9738
  774SOL     OW 2320   0.854   0.913   0.677  0.5345 -0.1572 -0.3716
  774SOL    HW1 2321   0.807   0.928   0.589 -1.2556 -1.5926 -0.6552
  774SOL    HW2 2322   0.852   0.991   0.740 -0.1006 -1.6572  1.1219
  775SOL     OW 2323   1.820   0.075   3.050 -0.2250  0.0165  1.1329
  775SOL    HW1 2324   1.764   0.030   3.122  0.2535  3.8121 -1.1121
  775SOL    HW2 2325   1.886   0.141   3.090 -0.5172 -0.5774 -1.3149
  776SOL     OW 2326   2.223   0.334   2.315 -0.5194 -0.2211 -0.1008
  776SOL    HW1 2327   2.159   0.321   2.395 -0.3963  0.5079 -0.1930
  776SOL    HW2 2328   2.209   0.265   2.239  2.4370 -1.1771 -0.3227
  777SOL     OW 2329   0.901   1.549   0.212 -0.3444  0.2454  0.0723
  777SOL    HW1 2330   0.990   1.588   0.174  1.4568 -1.3036 -0.8862
  777SOL    HW2 2331   0.820   1.592   0.170  1.2135  0.0892 -0.7028
  778SOL     OW 2332   0.358   2.747   0.123  0.3899  0.0808 -0.1183
  778SOL    HW1 2333   0.340   2.726   0.223  0.3569 -0.0439 -3.8413
  778SOL    HW2 2334   0.454   2.722   0.105 -1.8595 -2.2323 -0.0757
  779SOL     OW 2335   0.348   1.202   3.127 -0.0116 -0.6601  0.1805
  779SOL    HW1 2336   0.286   1.241   0.073 -2.2334  1.7892  0.4447
  779SOL    HW2 2337   0.378   1.107   0.010 -0.4637  0.1055  0.0300
  780SOL     OW 2338   2.329   0.568   2.252  0.4407  0.1269  0.3707
  780SOL    HW1 2339   2.260   0.617   2.194 -0.3875  1.0403  0.6137
  780SOL    HW2 2340   2.290   0.477   2.282  0.0322  1.2138  1.0403
  781SOL     OW 2341   1.565   0.876   1.816 -0.2116  0.0510  0.2441
  781SOL    HW1 2342   1.609   0.880   1.911  0.3101  1.5267  3.7329
  781SOL    HW2 2343   1.639   0.883   1.745  0.7359 -1.3898  0.7550
  782SOL     OW 2344   1.848   1.869   2.181  0.5390  0.2268  0.1587
  782SOL    HW1 2345   1.892   1.900   2.266 -2.0009  0.4377  1.1220
  782SOL    HW2 2346   1.895   1.789   2.134 -0.5664 -1.7222  0.2782
  783SOL     OW 2347   1.262   3.105   1.213 -0.7123  0.2913  0.3091
  783SOL    HW1 2348   1.210   3.045   1.282 -0.6550  0.3149 -1.4785
  783SOL    HW2 2349   1.256   3.056   1.125  2.9183 -1.8629 -2.1776
  784SOL     OW 2350   1.865   1.030   2.522  0.3147  0.2318  0.1161
  784SOL    HW1 2351   1.872   0.952   2.589 -4.9568  0.9441  0.8392
  784SOL    HW2 2352   1.835   1.117   2.560  0.5726 -2.4570 -2.6970
  785SOL     OW 2353   1.911   0.344   0.086 -0.0021  0.0685  0.7352
  785SOL    HW1 2354   1.999   0.321   0.136  1.9157 -0.7486 -1.2176
  785SOL    HW2 2355   1.917   0.415   0.016 -2.4720 -1.2408 -0.0693
  786SOL     OW 2356   2.941   1.761   0.498  0.2241  0.1153 -0.0955
  786SOL    HW1 2357   3.004   1.822   0.443  1.9729  0.2919  1.0436
  786SOL    HW2 2358   2.882   1.822   0.561 -1.9943  1.8283 -1.7406
  787SOL     OW 2359   1.620   2.105   0.367  0.0819 -0.3513  0.0582
  787SOL    HW1 2360   1.551   2.071   0.436 -2.3916 -1.6980 -0.2870
  787SOL    HW2 2361   1.582   2.163   0.294 -0.1107  0.5982  2.2963
  788SOL     OW 2362   2.007   1.570   1.275  0.0480  0.1539 -0.3668
  788SOL    HW1 2363   2.074   1.638   1.313 -1.1745 -2.6575 -0.2898
  788SOL    HW2 2364   1.946   1.617   1.211  0.4255 -1.5241  0.6752
  789SOL     OW 2365   3.089   1.314   2.721  1.1010 -0.4499 -0.0167
  789SOL    HW1 2366   0.047   1.302   2.670  0.4947  1.4434 -1.0129
  789SOL    HW2 2367   3.031   1.229   2.736 -0.2364 -0.3491 -1.9403
  790SOL     OW 2368   0.536   0.221   2.774 -0.0739 -0.2768 -0.0240
  790SOL    HW1 2369   0.478   0.313   2.780 -1.2747  2.2528 -1.7295
  790SOL    HW2 2370   0.493   0.163   2.696 -1.4865 -0.1389 -2.5946
  791SOL     OW 2371   0.963   0.417   2.652 -0.4251 -0.4053 -0.4096
  791SOL    HW1 2372   1.024   0.420   2.733 -0.2475  0.5474  1.9585
  791SOL    HW2 2373   0.908   0.332   2.644 -0.9419 -0.1412 -0.6650
  792SOL     OW 2374   1.749   0.913   2.291 -0.6583  0.8575  0.3552
  792SOL    HW1 2375   1.794   0.835   2.338  0.7795 -2.0094 -0.2503
  792SOL    HW2 2376   1.744   0.992   2.357  0.0206 -1.8819  0.1660
  793SOL     OW 2377   2.731   0.716   1.402  0.3419 -0.0593  0.6495
  793SOL    HW1 2378   2.786   0.689   1.320  0.5622  0.6316 -2.6438
  793SOL    HW2 2379   2.630   0.706   1.392  0.5135 -1.7219  2.0514
  794SOL     OW 2380   0.458   0.623   1.953 -0.2183  0.7353 -0.1071
  794SOL    HW1 2381   0.524   0.673   2.011 -0.8700  0.8515  0.9557
  794SOL    HW2 2382   0.365   0.638   2.002  1.1110  2.1224  0.7610
  795SOL     OW 2383   2.810   1.393   0.340 -0.1848 -0.4852  0.0368
  795SOL    HW1 2384   2.746   1.472   0.333 -1.9419  1.6371 -0.5542
  795SOL    HW2 2385   2.879   1.400   0.420 -0.9465  0.8613 -1.8188
  796SOL     OW 2386   0.287   2.480   0.048 -0.4640 -0.0806 -0.1188
  796SOL    HW1 2387   0.301   2.581   0.030 -1.1263 -0.1479 -0.9507
  796SOL    HW2 2388   0.360   2.448   0.114  0.5077  0.7626  0.9023
  797SOL     OW 2389   2.099   2.620   0.105  0.6089  0.1392 -0.2000
  797SOL    HW1 2390   2.040   2.598   0.024 -0.0376 -0.6090  1.2470
  797SOL    HW2 2391   2.122   2.536   0.144 -1.2260  1.7474 -1.8498
  798SOL     OW 2392   0.220   0.928   1.665 -0.1876  0.5702 -0.4475
  798SOL    HW1 2393   0.283   0.847   1.643  0.0782 -1.1050 -2.5913
  798SOL    HW2 2394   0.204   0.995   1.589  0.4737 -2.6036 -2.5594
  799SOL     OW 2395   2.852   0.617   2.326  0.4713  0.0441 -0.2032
  799SOL    HW1 2396   2.936   0.666   2.321 -0.6665 -1.4110  2.2060
  799SOL    HW2 2397   2.782   0.664   2.270 -1.0344  1.1560 -0.1177
  800SOL     OW 2398   2.860   1.974   0.665  0.0281 -0.1545  0.0750
  800SOL    HW1 2399   2.864   2.053   0.604 -2.3496 -0.0338  3.7133
  800SOL    HW2 2400   2.864   2.009   0.760  1.2835  2.1269  1.2089
  801SOL     OW 2401   1.553   1.185   0.911 -1.1713 -0.0688 -0.1194
  801SOL    HW1 2402   1.480   1.195   0.838 -0.8624  1.0924 -2.4037
  801SOL    HW2 2403   1.576   1.276   0.946  1.1537 -2.5268  1.6414
  802SOL     OW 2404   1.130   1.870   1.438 -0.5971  0.2851 -0.3682
  802SOL    HW1 2405   1.233   1.876   1.439  3.7502  1.5175 -0.0811
  802SOL    HW2 2406   1.105   1.969   1.445  2.1310 -1.2486 -1.0048
  803SOL     OW 2407   3.114   1.922   0.348 -0.2209  0.4161 -0.3505
  803SOL    HW1 2408   0.038   1.873   0.277 -1.1566 -0.5895  0.7160
  803SOL    HW2 2409   3.092   2.013   0.314 -1.9957  0.9269  2.2870
  804SOL     OW 2410   0.936   2.748   1.384  0.8120  1.3077 -0.2818
  804SOL    HW1 2411   0.992   2.679   1.432 -1.4753  2.1248 -0.0299
  804SOL    HW2 2412   0.840   2.717   1.369  0.9421  0.5922 -1.6778
  805SOL     OW 2413   1.596   1.319   0.120 -0.2401  0.5293 -0.3793
  805SOL    HW1 2414   1.591   1.419   0.112 -0.0943 -0.8145  0.8643
  805SOL    HW2 2415   1.504   1.278   0.127 -0.4463  0.6830 -2.1404
  806SOL     OW 2416   1.515   3.047   1.313  0.3240  0.3874 -0.5543
  806SOL    HW1 2417   1.426   3.094   1.282 -0.6709  2.3025 -1.4967
  806SOL    HW2 2418   1.555   3.107   1.389 -0.5739  1.7511 -1.4311
  807SOL     OW 2419   2.138   3.024   2.772 -0.1545  0.0848  0.2583
  807SOL    HW1 2420   2.182   3.079   2.694 -0.6740 -0.9889 -0.3704
  807SOL    HW2 2421   2.207   2.954   2.798 -1.1018 -2.0771 -0.7245
  808SOL     OW 2422   0.164   1.289   0.173 -0.5934 -0.0223 -0.1266
  808SOL    HW1 2423   0.074   1.329   0.156 -0.4499  3.0257  0.6460
  808SOL    HW2 2424   0.160   1.195   0.216 -0.2973  1.1843 -0.2233
  809SOL     OW 2425   2.764   0.971   2.331  0.5388  0.3918  0.2074
  809SOL    HW1 2426   2.851   0.950   2.287 -1.5362  1.3428 -0.3664
  809SOL    HW2 2427   2.682   0.966   2.271 -0.0678 -0.0112  0.8330
  810SOL     OW 2428   2.436   0.088   1.927  0.1189  0.0223  0.0087
  810SOL    HW1 2429   2.526   0.141   1.913 -0.2159 -1.0220 -0.3798
  810SOL    HW2 2430   2.385   0.071   1.840 -2.8335  1.7485 -1.1671
  811SOL     OW 2431   2.614   2.518   1.758 -0.3356  0.2769 -0.1333
  811SOL    HW1 2432   2.588   2.614   1.783  0.2571 -0.2528 -1.0482
  811SOL    HW2 2433   2.695   2.481   1.805 -0.2647 -0.4925 -0.5262
  812SOL     OW 2434   1.660   0.447   0.090 -0.0590  0.1308  0.1298
  812SOL    HW1 2435   1.609   0.455   3.128  0.4746  0.1185 -2.7460
  812SOL    HW2 2436   1.754   0.406   0.077 -0.8639 -1.6013 -2.4545
  813SOL     OW 2437   1.928   0.489   1.886 -0.2528  0.4915  0.5904
  813SOL    HW1 2438   1.975   0.399   1.880  1.6090  1.7569 -1.5328
  813SOL    HW2 2439   1.921   0.536   1.796  1.6999 -0.7000  2.0480
  814SOL     OW 2440   1.666   1.385   1.549  0.4928  0.0106  0.0497
  814SOL    HW1 2441   1.762   1.405   1.520 -1.5091 -1.3305  1.2118
  814SOL    HW2 2442   1.616   1.472   1.544  3.0153 -1.2212  0.4692
  815SOL     OW 2443   0.400   0.816   0.510  0.3409  0.0426 -0.0174
  815SOL    HW1 2444   0.382   0.828   0.410  0.4475 -1.8747  0.9922
  815SOL    HW2 2445   0.390   0.910   0.553 -0.7743  2.1574 -0.2078
  816SOL     OW 2446   1.749   1.895   2.723 -0.0370  0.1503  0.0923
  816SOL    HW1 2447   1.815   1.860   2.656 -2.9304 -0.0470  1.1731
  816SOL    HW2 2448   1.681   1.823   2.741 -1.2699  1.0415 -1.7487
  817SOL     OW 2449   0.308   2.958   0.583 -0.4265  0.1720 -0.1304
  817SOL    HW1 2450   0.334   2.982   0.681 -1.0333 -0.4587 -0.2339
  817SOL    HW2 2451   0.396   2.934   0.531  0.9416 -0.4965 -0.0910
  818SOL     OW 2452   2.051   0.290   2.510  0.0376  0.3845  0.0033
  818SOL    HW1 2453   2.041   0.303   2.608  1.4613 -0.1265 -1.2266
  818SOL    HW2 2454   1.965   0.318   2.457 -1.6558 -2.1176 -1.1191
  819SOL     OW 2455   1.218   1.071   0.468 -0.3449  0.1077  0.2462
  819SOL    HW1 2456   1.173   1.047   0.379 -1.5504  2.4160 -3.2741
  819SOL    HW2 2457   1.217   0.995   0.540  1.2302 -0.5214  1.3973
  820SOL     OW 2458   2.227   1.072   0.932  0.2704 -0.1726 -0.0345
  820SOL    HW1 2459   2.248   1.008   1.004 -4.2695  0.4302  0.1546
  820SOL    HW2 2460   2.309   1.107   0.882  2.0588 -0.9073 -0.7101
  821SOL     OW 2461   2.442   0.081   0.433  0.2458  0.2319 -0.0186
  821SOL    HW1 2462   2.502   0.018   0.372 -3.9957  0.7842 -0.2687
  821SOL    HW2 2463   2.342   0.046   0.427  1.2419 -1.2452 -0.8850
  822SOL     OW 2464   0.445   2.762   2.639  0.1682  0.4691 -0.4499
  822SOL    HW1 2465   0.466   2.682   2.698 -2.8868 -0.0668 -0.7868
  822SOL    HW2 2466   0.350   2.802   2.659 -1.0215 -0.9968 -1.4887
  823SOL     OW 2467   0.011   2.298   1.898 -0.1603 -0.0848  0.1782
  823SOL    HW1 2468   3.077   2.216   1.878 -2.0039 -0.6507 -0.5636
  823SOL    HW2 2469   3.127   2.378   1.831 -0.9004  1.7642 -0.1115
  824SOL     OW 2470   0.755   2.857   2.085  0.1440  0.4291 -0.3101
  824SOL    HW1 2471   0.812   2.910   2.014  0.8237  1.9924 -0.8960
  824SOL    HW2 2472   0.795   2.764   2.104  1.2429 -0.0530  0.6405
  825SOL     OW 2473   1.373   1.854   0.374 -0.1389  0.0276  0.4502
  825SOL    HW1 2474   1.421   1.770   0.406 -0.3979 -1.6919 -2.3899
  825SOL    HW2 2475   1.272   1.846   0.366 -2.1741  0.4715  1.7339
  826SOL     OW 2476   1.229   2.998   2.987  0.2934  0.3043 -0.1447
  826SOL    HW1 2477   1.175   2.992   2.898 -1.2341  1.0907 -1.4902
  826SOL    HW2 2478   1.273   2.908   3.007 -2.2165 -0.0751  1.0800
  827SOL     OW 2479   0.236   1.649   1.323 -0.1218  0.3211 -0.6075
  827SOL    HW1 2480   0.269   1.645   1.225 -0.1004  1.1417  0.0430
  827SOL    HW2 2481   0.234   1.557   1.366  1.7748  2.2493 -0.2131
  828SOL     OW 2482   2.366   1.348   1.556 -0.2788  0.1908  0.0435
  828SOL    HW1 2483   2.330   1.326   1.465  1.4382  1.7209  0.8785
  828SOL    HW2 2484   2.425   1.271   1.594  2.5130 -1.6085 -0.6093
  829SOL     OW 2485   2.893   2.163   0.481 -0.1916  0.4889  0.4179
  829SOL    HW1 2486   2.960   2.207   0.546 -0.6344 -0.3308 -0.7950
  829SOL    HW2 2487   2.927   2.148   0.390  0.0305 -1.2257  1.3667
  830SOL     OW 2488   1.001   0.687   0.465 -0.2028 -0.5672 -0.1471
  830SOL    HW1 2489   1.082   0.632   0.436 -0.2163 -0.5805 -0.9320
  830SOL    HW2 2490   0.970   0.661   0.556  0.9472  0.2006 -1.7334
  831SOL     OW 2491   2.823   2.078   0.040 -0.2315  0.8449 -0.2624
  831SOL    HW1 2492   2.852   1.983   0.029 -0.9076  2.0749 -0.3795
  831SOL    HW2 2493   2.727   2.082   0.073  0.0131 -0.7050 -1.7887
  832SOL     OW 2494   1.071   2.631   0.285 -0.1990 -0.4430  0.0825
  832SOL    HW1 2495   1.015   2.624   0.370 -0.4090 -0.9663 -1.5433
  832SOL    HW2 2496   1.171   2.614   0.295  1.0877 -0.6935  1.4024
  833SOL     OW 2497   1.432   0.629   2.436 -0.5225  0.6084  0.1862
  833SOL    HW1 2498   1.360   0.570   2.401  1.4577 -0.2847  0.1322
  833SOL    HW2 2499   1.504   0.635   2.364  0.3339 -0.5824  0.7313
  834SOL     OW 2500   3.087   0.970   0.789  0.3475  0.1088  0.3194
  834SOL    HW1 2501   3.017   0.941   0.723  1.5034 -2.1192  0.0964
  834SOL    HW2 2502   0.011   0.887   0.818  1.2718  0.0277 -2.9673
  835SOL     OW 2503   2.739   0.487   1.995 -0.3101  0.4798 -0.3204
  835SOL    HW1 2504   2.740   0.566   1.927  0.4905  0.3027 -0.9442
  835SOL    HW2 2505   2.661   0.489   2.060  2.4481  1.1869  0.1581
  836SOL     OW 2506   0.689   2.270   0.839 -0.2042 -0.1735  0.1125
  836SOL    HW1 2507   0.681   2.360   0.790  3.1564  1.8417 -1.8696
  836SOL    HW2 2508   0.709   2.199   0.775 -0.1389  2.3737  0.2741
  837SOL     OW 2509   2.295   1.857   2.163  0.2410  0.0787 -0.9407
  837SOL    HW1 2510   2.367   1.786   2.155 -2.3233  2.7758  1.6030
  837SOL    HW2 2511   2.269   1.861   2.260 -1.1068 -1.3019 -0.6651
  838SOL     OW 2512   0.095   1.414   1.634 -0.0052  0.1038  0.4115
  838SOL    HW1 2513   0.130   1.382   1.541 -1.7715  1.5929  0.0755
  838SOL    HW2 2514   0.170   1.463   1.686  1.1150 -0.1770  2.0563
  839SOL     OW 2515   0.086   0.298   0.404  0.5148 -0.0740 -0.0481
  839SOL    HW1 2516   0.167   0.357   0.374  3.1316  2.1731 -1.2983
  839SOL    HW2 2517   0.119   0.209   0.444  1.4094  0.1557  1.8273
  840SOL     OW 2518   0.035   0.582   2.338 -0.5508  0.0298 -0.5170
  840SOL    HW1 2519   0.044   0.683   2.363 -0.6136 -0.7456  2.0368
  840SOL    HW2 2520   3.111   0.528   2.406 -0.1769  0.6588 -1.7661
  841SOL     OW 2521   0.374   2.252   2.761  0.6525  0.3568 -0.4095
  841SOL    HW1 2522   0.421   2.163   2.758 -0.2663  0.6189 -2.4601
  841SOL    HW2 2523   0.398   2.300   2.850 -0.4716  0.2719 -0.7869
  842SOL     OW 2524   0.823   3.059   0.957 -0.1900 -0.1157 -0.6201
  842SOL    HW1 2525   0.774   2.998   1.021 -2.1338  1.9289 -1.9325
  842SOL    HW2 2526   0.775   3.063   0.868 -1.3680 -1.7914 -1.2913
  843SOL     OW 2527   0.453   1.612   2.922  0.4595  0.0578 -0.1060
  843SOL    HW1 2528   0.527   1.682   2.916 -3.2739  1.9163 -1.7135
  843SOL    HW2 2529   0.490   1.529   2.875 -2.4633 -2.4990 -0.1293
  844SOL     OW 2530   0.979   2.025   2.509  0.0471 -0.0576 -0.0042
  844SOL    HW1 2531   0.939   2.059   2.425 -1.2386 -1.9800 -3.0401
  844SOL    HW2 2532   1.084   2.016   2.505 -0.2878  1.3431 -0.5358
  845SOL     OW 2533   2.537   2.783   2.615  0.0957 -0.0171 -0.9906
  845SOL    HW1 2534   2.599   2.863   2.614 -1.6815 -0.1595  1.8482
  845SOL    HW2 2535   2.506   2.749   2.523 -0.3547  0.7980  1.4252
  846SOL     OW 2536   1.980   1.523   0.039  0.2317  0.7697 -0.0476
  846SOL    HW1 2537   1.947   1.601   3.111  0.6628  3.5679  0.6920
  846SOL    HW2 2538   2.025   1.554   0.128 -2.2841  2.7720  2.3523
  847SOL     OW 2539   2.599   0.092   2.818 -0.1485 -1.1828 -0.4216
  847SOL    HW1 2540   2.671   0.160   2.782 -0.7497 -0.5305 -0.3647
  847SOL    HW2 2541   2.507   0.117   2.780  0.1250 -1.0470 -1.6045
  848SOL     OW 2542   3.117   0.850   3.054  0.3658  0.0175  0.3687
  848SOL    HW1 2543   3.050   0.818   2.984 -0.2960 -0.8822 -1.4279
  848SOL    HW2 2544   0.061   0.783   3.063 -1.3022 -1.1212  0.8982
  849SOL     OW 2545   1.584   0.437   2.554  0.2862  0.3243 -0.1246
  849SOL    HW1 2546   1.527   0.369   2.604  0.8081  0.0933 -0.0338
  849SOL    HW2 2547   1.526   0.500   2.500 -0.7297 -0.1390 -0.2565
  850SOL     OW 2548   0.181   1.024   0.303  0.5413 -0.0837  0.0515
  850SOL    HW1 2549   0.267   0.973   0.289 -4.4415  2.3046 -0.9307
  850SOL    HW2 2550   0.106   0.964   0.343  1.7920 -2.4909  0.3699
  851SOL     OW 2551   0.278   1.242   0.602  0.0298 -0.2198 -0.2409
  851SOL    HW1 2552   0.336   1.299   0.665 -0.4397  1.1853  2.2490
  851SOL    HW2 2553   0.272   1.292   0.516  1.3602 -0.2951 -0.2605
  852SOL     OW 2554   1.128   1.205   1.488 -0.2229  0.6180 -0.4940
  852SOL    HW1 2555   1.100   1.120   1.529  0.2766  0.3869  1.6545
  852SOL    HW2 2556   1.213   1.191   1.432 -1.5702 -2.3303  1.0008
  853SOL     OW 2557   2.304   1.435   0.113  0.3022 -0.2797 -0.4323
  853SOL    HW1 2558   2.288   1.341   0.151  0.8848  1.2475  2.9943
  853SOL    HW2 2559   2.229   1.501   0.133  1.7687 -0.5689  0.8227
  854SOL     OW 2560   1.464   1.108   2.064  0.4877 -0.0840  0.1299
  854SOL    HW1 2561   1.547   1.061   2.018  2.8808  0.9999 -0.6150
  854SOL    HW2 2562   1.409   1.145   1.991  1.2003 -2.2209  0.2936
  855SOL     OW 2563   0.360   2.412   2.554 -0.0189  0.2611  0.5060
  855SOL    HW1 2564   0.345   2.337   2.624  0.5731 -0.8984  0.8343
  855SOL    HW2 2565   0.445   2.465   2.576  1.2850  0.9087  0.9760
  856SOL     OW 2566   1.107   0.858   1.965 -0.4061  0.2449  0.1174
  856SOL    HW1 2567   1.123   0.949   1.919 -0.1529 -0.9716 -0.5587
  856SOL    HW2 2568   1.175   0.783   1.935 -0.2338 -3.3775  2.0877
  857SOL     OW 2569   1.147   1.056   2.446 -0.1408  0.3849  0.1791
  857SOL    HW1 2570   1.074   1.099   2.499  1.4706 -0.4336 -3.0350
  857SOL    HW2 2571   1.150   1.108   2.356 -1.4530  1.3103 -1.9701
  858SOL     OW 2572   2.978   1.039   1.743  0.6039 -1.2316  0.5183
  858SOL    HW1 2573   2.999   1.140   1.732 -2.5669  2.0181  2.0497
  858SOL    HW2 2574   3.067   0.995   1.766  3.0263  0.0720  0.2414
  859SOL     OW 2575   2.551   0.071   0.921 -0.3925  0.6599  0.9509
  859SOL    HW1 2576   2.553   0.038   0.820  2.7782  0.9458 -2.2250
  859SOL    HW2 2577   2.542   3.124   0.985 -0.2127  4.7650 -1.4760
  860SOL     OW 2578   1.674   0.431   1.208  0.0499  0.1701 -0.2222
  860SOL    HW1 2579   1.692   0.529   1.229 -1.3092  0.2380  0.9039
  860SOL    HW2 2580   1.646   0.377   1.294  0.5006  2.7505 -0.0520
  861SOL     OW 2581   1.714   0.689   1.226 -0.3511  0.6564  0.5065
  861SOL    HW1 2582   1.659   0.748   1.290  0.6740  1.3771 -0.2294
  861SOL    HW2 2583   1.676   0.697   1.128  1.8125  0.7788 -1.8893
  862SOL     OW 2584   1.289   3.007   2.580 -0.0807 -0.2301  0.1097
  862SOL    HW1 2585   1.241   2.948   2.510  0.7665  0.7229  0.1029
  862SOL    HW2 2586   1.391   2.989   2.570  1.8821  0.1826 -1.3442
  863SOL     OW 2587   2.683   3.052   1.267  0.4306  0.0810 -0.9846
  863SOL    HW1 2588   2.639   3.110   1.338  0.8533  1.0542  1.7961
  863SOL    HW2 2589   2.776   3.085   1.245  1.4288 -1.5142 -1.9106
  864SOL     OW 2590   2.763   2.983   1.941 -0.1062 -0.7336 -0.0385
  864SOL    HW1 2591   2.817   2.998   2.031  0.2956  1.1456  1.6572
  864SOL    HW2 2592   2.665   2.968   1.961  3.0177 -0.3453 -0.4759
  865SOL     OW 2593   1.177   1.186   2.796  0.5259  0.0275  0.5249
  865SOL    HW1 2594   1.180   1.087   2.805 -1.3090  3.1912 -0.5094
  865SOL    HW2 2595   1.081   1.221   2.795  1.0132  1.1432 -0.9624
  866SOL     OW 2596   2.256   3.100   0.818 -0.5695 -0.3124  0.6837
  866SOL    HW1 2597   2.230   3.015   0.757  0.2601 -0.6536 -1.1126
  866SOL    HW2 2598   2.343   0.012   0.787 -1.6360  1.3264 -1.5495
  867SOL     OW 2599   2.947   2.633   1.171 -0.9042  0.2560 -0.6070
  867SOL    HW1 2600   2.913   2.721   1.140  0.2933 -2.6063  4.0132
  867SOL    HW2 2601   3.044   2.612   1.131  2.1663  1.6556  1.3586
  868SOL     OW 2602   0.107   1.724   1.560  0.4552 -0.0262  0.4187
  868SOL    HW1 2603   0.183   1.723   1.490  2.5111  0.7749  0.4450
  868SOL    HW2 2604   0.117   1.650   1.626  0.8384 -0.0293 -0.1888
  869SOL     OW 2605   1.981   1.961   2.385  0.8583 -0.1992 -0.0584
  869SOL    HW1 2606   1.955   2.045   2.438  0.5182 -0.3423 -0.1844
  869SOL    HW2 2607   2.080   1.949   2.387 -1.3484  0.8020 -1.6297
  870SOL     OW 2608   1.302   0.694   0.634  0.2837  0.0397 -0.1904
  870SOL    HW1 2609   1.238   0.774   0.647 -2.9866  0.9535  1.1915
  870SOL    HW2 2610   1.346   0.672   0.722 -2.1944 -0.1811  0.2369
  871SOL     OW 2611   2.862   1.743   1.955  0.1692 -0.2471  0.3121
  871SOL    HW1 2612   2.768   1.775   1.932  0.5709 -0.9379 -0.4959
  871SOL    HW2 2613   2.871   1.728   2.054  0.9348  2.4874 -0.7009
  872SOL     OW 2614   0.996   1.556   2.954  0.2571  0.1801  0.2289
  872SOL    HW1 2615   1.091   1.588   2.942 -0.8517 -2.9908  1.4488
  872SOL    HW2 2616   0.999   1.479   3.024  2.4943 -0.8066  0.8913
  873SOL     OW 2617   0.984   1.502   1.866 -0.1834  0.4999 -0.6627
  873SOL    HW1 2618   0.887   1.535   1.881  2.0195  1.3894 -0.5129
  873SOL    HW2 2619   1.007   1.490   1.764  1.4453 -2.3805 -0.5435
  874SOL     OW 2620   1.369   1.089   1.362  0.4547 -0.0574  0.8743
  874SOL    HW1 2621   1.468   1.115   1.360 -0.1561 -1.6948 -0.3052
  874SOL    HW2 2622   1.338   1.083   1.267  1.7890 -2.0641 -0.9848
  875SOL     OW 2623   2.839   0.089   2.597  0.7859 -0.4253 -0.5058
  875SOL    HW1 2624   2.801   0.174   2.647 -2.7521  3.5952  2.1178
  875SOL    HW2 2625   2.891   0.121   2.517 -0.5045 -1.4872  1.0175
  876SOL     OW 2626   1.119   1.327   0.512 -0.4525 -0.0187 -0.3912
  876SOL    HW1 2627   1.024   1.333   0.478  0.6357 -0.0715  0.3526
  876SOL    HW2 2628   1.155   1.235   0.488 -0.3307 -1.1558 -0.4921
  877SOL     OW 2629   2.193   2.831   0.275  0.3344  0.1307  0.5996
  877SOL    HW1 2630   2.255   2.792   0.345  0.7048 -2.0249 -0.9620
  877SOL    HW2 2631   2.164   2.761   0.206 -1.5701  1.3997 -2.7846
  878SOL     OW 2632   1.873   2.263   0.258  0.2871 -0.8011 -0.4256
  878SOL    HW1 2633   1.961   2.226   0.298  0.1137  0.7342  0.6752
  878SOL    HW2 2634   1.789   2.220   0.299 -1.2411  0.7762  2.1891
  879SOL     OW 2635   0.089   1.900   1.876 -0.7151 -0.7412  0.3221
  879SOL    HW1 2636   0.067   1.802   1.861 -1.7676  0.2885  4.0337
  879SOL    HW2 2637   0.002   1.952   1.876  0.2596 -3.1729 -0.8597
  880SOL     OW 2638   0.168   1.859   1.024  0.6490 -0.5721 -0.0123
  880SOL    HW1 2639   0.210   1.811   1.104  1.1869 -0.7626 -0.3191
  880SOL    HW2 2640   0.110   1.945   1.034 -0.0827 -0.6008 -1.4106
  881SOL     OW 2641   1.025   0.117   2.308  0.2493 -0.2322 -0.8430
  881SOL    HW1 2642   1.108   0.117   2.366 -1.7427  1.5072 -0.4450
  881SOL    HW2 2643   0.943   0.122   2.367  1.8435  1.3423  1.1262
  882SOL     OW 2644   2.683   1.072   1.092  0.3655 -0.1443  0.1698
  882SOL    HW1 2645   2.715   0.992   1.035  0.4293  1.0961  0.8509
  882SOL    HW2 2646   2.624   1.034   1.168  0.7198  0.1700 -0.7940
  883SOL     OW 2647   1.675   0.385   1.910  0.3626  0.0402  0.0370
  883SOL    HW1 2648   1.620   0.468   1.923  1.0595 -0.1727 -0.2729
  883SOL    HW2 2649   1.773   0.413   1.907 -0.9075 -0.2285 -2.5181
  884SOL     OW 2650   3.064   0.150   1.702  0.0905 -0.3171  0.4009
  884SOL    HW1 2651   0.033   0.174   1.684 -0.3242 -0.8041 -2.7828
  884SOL    HW2 2652   3.011   0.221   1.653  0.8981  0.4298  2.9950
  885SOL     OW 2653   1.969   1.396   2.668 -0.2416 -1.1639  0.2888
  885SOL    HW1 2654   1.965   1.459   2.751  0.5724 -1.9799  1.6427
  885SOL    HW2 2655   1.883   1.344   2.657  1.7184  0.7749 -2.0018
  886SOL     OW 2656   2.220   0.292   3.003 -0.0968  0.0904  0.2859
  886SOL    HW1 2657   2.277   0.311   3.087  1.0208  1.1697  3.2546
  886SOL    HW2 2658   2.164   0.367   2.968  1.1720  0.1924  0.5059
  887SOL     OW 2659   1.111   2.818   1.779  0.0467  0.0141 -0.1168
  887SOL    HW1 2660   1.167   2.782   1.861 -3.7071 -0.0679  1.8716
  887SOL    HW2 2661   1.164   2.828   1.696 -1.2837  0.2865 -1.6407
  888SOL     OW 2662   2.201   1.836   1.908 -0.7861 -0.2843  0.1816
  888SOL    HW1 2663   2.233   1.849   2.006  1.6873 -0.8514  3.3544
  888SOL    HW2 2664   2.277   1.810   1.842  0.6789 -0.7191  1.3393
  889SOL     OW 2665   1.850   2.375   1.452 -0.0888 -0.3153 -0.4190
  889SOL    HW1 2666   1.908   2.458   1.451 -2.0109 -0.6900  2.6780
  889SOL    HW2 2667   1.870   2.313   1.377  2.0589  1.3613  1.3591
  890SOL     OW 2668   1.191   1.903   0.996  0.0634 -0.4597 -0.5514
  890SOL    HW1 2669   1.240   1.869   1.082 -1.5784  0.5723  0.5461
  890SOL    HW2 2670   1.135   1.986   1.016 -1.6637  0.8643 -0.0400
  891SOL     OW 2671   3.009   1.309   0.155 -0.0359 -0.0923  0.1501
  891SOL    HW1 2672   3.026   1.209   0.135  0.6609 -1.5588 -1.4409
  891SOL    HW2 2673   2.933   1.335   0.220  3.8311  1.6638  3.2361
  892SOL     OW 2674   2.250   1.266   3.005  0.6085  0.0045  0.5880
  892SOL    HW1 2675   2.301   1.188   3.041  0.8982  3.9470 -2.2275
  892SOL    HW2 2676   2.279   1.354   3.048 -1.0081 -0.0104  1.0924
  893SOL     OW 2677   2.067   2.548   1.456  0.3918 -0.2231 -0.7065
  893SOL    HW1 2678   2.131   2.630   1.447  3.2654  1.4460 -1.2839
  893SOL    HW2 2679   2.122   2.475   1.500  1.1173 -1.2547 -0.0634
  894SOL     OW 2680   2.631   0.299   0.799 -0.3189  0.0661 -0.2940
  894SOL    HW1 2681   2.599   0.297   0.700 -1.7823 -1.0246 -1.9981
  894SOL    HW2 2682   2.589   0.216   0.848 -0.3091 -2.1532 -0.1571
  895SOL     OW 2683   2.939   2.609   2.649  0.3176 -0.4893  0.1923
  895SOL    HW1 2684   2.919   2.695   2.597 -2.1129 -1.2612 -0.8038
  895SOL    HW2 2685   2.909   2.540   2.581 -1.9853  1.6982 -0.1411
  896SOL     OW 2686   2.215   0.084   2.584 -0.5815 -1.0033  0.1306
  896SOL    HW1 2687   2.132   0.128   2.548 -0.2143  1.0343 -1.9308
  896SOL    HW2 2688   2.273   0.156   2.633 -3.0612  0.4872  2.3846
  897SOL     OW 2689   0.312   1.615   2.133  0.3121 -0.1367  0.2670
  897SOL    HW1 2690   0.231   1.658   2.173 -0.8177 -0.7290  0.0940
  897SOL    HW2 2691   0.288   1.516   2.104 -2.2047 -2.2256 -1.0777
  898SOL     OW 2692   2.883   1.775   1.521 -0.0938 -0.1144  0.6440
  898SOL    HW1 2693   2.927   1.712   1.583  0.5735 -0.6226 -3.0730
  898SOL    HW2 2694   2.794   1.731   1.489 -2.7210 -0.5441  1.6706
  899SOL     OW 2695   1.885   0.058   1.567  0.3830 -0.1660  0.3372
  899SOL    HW1 2696   1.876   0.094   1.658  2.8598  1.8942 -1.3659
  899SOL    HW2 2697   1.901   3.087   1.562  0.2424  2.2752 -1.6843
  900SOL     OW 2698   1.331   0.809   0.205  0.1155 -0.2746  0.6756
  900SOL    HW1 2699   1.304   0.716   0.175 -2.7192 -2.8429 -0.0975
  900SOL    HW2 2700   1.397   0.803   0.284 -2.4044 -1.5228 -2.5306
  901SOL     OW 2701   1.234   0.903   2.819 -0.1205  0.4688 -0.7429
  901SOL    HW1 2702   1.320   0.943   2.858  0.8736 -0.7431 -0.5678
  901SOL    HW2 2703   1.250   0.871   2.723 -1.3015 -0.0748  2.1465
  902SOL     OW 2704   2.760   2.562   0.527  0.0887  0.2999 -0.4347
  902SOL    HW1 2705   2.813   2.593   0.446  2.1964 -0.5388 -1.9301
  902SOL    HW2 2706   2.814   2.493   0.584  0.5972  1.7722  1.4065
  903SOL     OW 2707   3.044   1.395   1.955  0.1444 -0.1019 -0.1155
  903SOL    HW1 2708   3.048   1.322   2.025  0.6394  3.1039  1.9864
  903SOL    HW2 2709   3.036   1.357   1.862 -2.5143  0.5760  3.0166
  904SOL     OW 2710   1.968   1.054   0.603  0.0830  0.4115 -0.1213
  904SOL    HW1 2711   2.040   0.983   0.607  1.4279  1.2776  1.8713
  904SOL    HW2 2712   1.984   1.121   0.527  0.6410 -1.2017  1.5933
  905SOL     OW 2713   2.257   2.730   1.404 -0.7862 -0.3392  0.3315
  905SOL    HW1 2714   2.214   2.810   1.361  3.4160 -0.3511  0.6941
  905SOL    HW2 2715   2.322   2.754   1.476  1.1138 -2.6461 -1.9816
  906SOL     OW 2716   1.546   2.422   3.121  0.4601  0.1787 -0.5180
  906SOL    HW1 2717   1.539   2.526   0.008 -0.8659 -0.1376  1.7301
  906SOL    HW2 2718   1.612   2.403   3.047 -1.3693 -0.2012 -0.3078
  907SOL     OW 2719   0.462   2.739   0.891  0.4469 -0.6552  0.0868
  907SOL    HW1 2720   0.380   2.697   0.923  4.1018 -1.2420  0.5605
  907SOL    HW2 2721   0.453   2.841   0.891 -0.4456  1.6958  4.2127
  908SOL     OW 2722   0.598   0.148   2.070  0.1581 -0.8064  0.2765
  908SOL    HW1 2723   0.580   0.235   2.120 -0.0364 -0.0617  0.8009
  908SOL    HW2 2724   0.656   0.168   1.991  1.8816  1.3773  0.4563
  909SOL     OW 2725   2.099   0.788   1.529 -0.3286 -0.5251 -0.0233
  909SOL    HW1 2726   2.100   0.686   1.498  1.6452 -1.1693 -1.4113
  909SOL    HW2 2727   2.022   0.839   1.479  0.6698 -0.1194  1.1774
  910SOL     OW 2728   1.221   0.600   0.098 -0.5177  0.1080 -0.8631
  910SOL    HW1 2729   1.122   0.583   0.118 -0.8090 -1.1116 -1.0780
  910SOL    HW2 2730   1.262   0.521   0.047  0.0976 -0.9381  0.3623
  911SOL     OW 2731   0.042   0.542   3.063  0.4462 -0.3328 -0.0579
  911SOL    HW1 2732   3.082   0.496   3.067  1.3417  1.0710 -1.0712
  911SOL    HW2 2733   0.112   0.468   3.060  1.7858  0.7261  0.0802
  912SOL     OW 2734   0.026   2.383   0.129  0.0262 -0.4220  0.0718
  912SOL    HW1 2735   0.114   2.430   0.129 -1.3883 -0.0484  0.7950
  912SOL    HW2 2736   3.106   2.412   0.045 -1.0207  1.2358 -3.0514
  913SOL     OW 2737   2.660   2.432   3.019  0.0352 -0.9832  0.1061
  913SOL    HW1 2738   2.750   2.387   3.007 -0.6938  0.1950 -0.5583
  913SOL    HW2 2739   2.660   2.521   2.970 -2.2404 -1.9905  1.5646
  914SOL     OW 2740   1.765   1.723   1.865 -0.1468  0.8119 -0.2085
  914SOL    HW1 2741   1.711   1.812   1.874  0.8585 -0.4030  1.1940
  914SOL    HW2 2742   1.855   1.722   1.914 -1.5607 -2.7244  2.7141
  915SOL     OW 2743   3.111   2.411   2.255  0.1679 -0.4117 -0.2903
  915SOL    HW1 2744   0.024   2.448   2.343  0.2642 -0.0452 -1.6404
  915SOL    HW2 2745   0.025   2.315   2.239 -0.4880  0.1985  0.2121
  916SOL     OW 2746   2.986   1.321   1.707 -0.0559 -0.1980  0.3212
  916SOL    HW1 2747   3.075   1.357   1.658  3.1165  2.2976 -0.6105
  916SOL    HW2 2748   2.901   1.352   1.659  4.0688 -3.3849  2.7410
  917SOL     OW 2749   2.140   0.016   3.016  0.6187  0.2455  0.0788
  917SOL    HW1 2750   2.147   3.102   2.923  0.4915 -0.1012 -1.7725
  917SOL    HW2 2751   2.168   0.114   3.014  3.5810 -1.7051  2.1327
  918SOL     OW 2752   1.751   2.546   2.196  0.3744 -0.7738 -0.0961
  918SOL    HW1 2753   1.706   2.517   2.108  2.0128 -0.5313  0.3100
  918SOL    HW2 2754   1.741   2.644   2.210  0.2929 -0.9132  0.5603
  919SOL     OW 2755   1.824   2.274   1.878 -0.1442 -0.2692 -0.6776
  919SOL    HW1 2756   1.866   2.234   1.798 -3.7226  1.1905  2.4813
  919SOL    HW2 2757   1.796   2.196   1.941 -1.1286  0.1893 -2.0181
  920SOL     OW 2758   0.510   0.936   0.076 -0.1712  1.1393 -0.1151
  920SOL    HW1 2759   0.567   1.017   0.087 -1.8678 -0.9547 -2.7746
  920SOL    HW2 2760   0.526   0.881   3.122 -0.4609 -0.5502 -0.0479
  921SOL     OW 2761   2.974   1.055   2.750 -0.0408 -0.2353 -0.0870
  921SOL    HW1 2762   2.896   1.070   2.816  0.7575  1.8772  1.4250
  921SOL    HW2 2763   2.948   1.079   2.652 -0.0553 -1.1562 -2.1564
  922SOL     OW 2764   0.284   1.972   0.170  0.3973  0.4185 -0.3139
  922SOL    HW1 2765   0.197   1.926   0.162  0.9814  1.2029  1.2048
  922SOL    HW2 2766   0.355   1.901   0.193 -1.4027  0.5533  0.9409
  923SOL     OW 2767   0.566   0.991   2.059 -1.0513  0.6197 -0.0975
  923SOL    HW1 2768   0.485   1.003   2.000  0.9631  0.7764 -0.7442
  923SOL    HW2 2769   0.594   0.892   2.070 -0.2567  2.3303  2.5262
  924SOL     OW 2770   1.098   3.001   2.748 -0.1759 -0.0372  1.1252
  924SOL    HW1 2771   1.173   3.007   2.678 -0.5075 -1.7661 -3.0970
  924SOL    HW2 2772   1.037   3.085   2.756 -1.8498  2.3711  0.7542
  925SOL     OW 2773   2.068   1.332   1.133 -0.1030 -0.1186  0.1866
  925SOL    HW1 2774   2.029   1.411   1.182 -2.7403  1.0301  0.6110
  925SOL    HW2 2775   2.100   1.355   1.041  0.9652  1.0827 -0.8253
  926SOL     OW 2776   1.946   0.576   2.143  0.1811  0.2940  0.2456
  926SOL    HW1 2777   1.926   0.551   2.046 -0.7669 -1.3967  1.4307
  926SOL    HW2 2778   1.909   0.498   2.195  0.3764  1.9217 -1.9073
  927SOL     OW 2779   2.806   2.400   1.896 -0.4310 -0.2523 -0.2231
  927SOL    HW1 2780   2.893   2.448   1.872  0.9939  2.9786 -1.6426
  927SOL    HW2 2781   2.806   2.373   1.992 -0.5570 -1.9080 -0.8948
  928SOL     OW 2782   0.553   0.857   2.625  0.1071  0.0215  0.3243
  928SOL    HW1 2783   0.596   0.762   2.631  0.2789 -0.8987  1.4121
  928SOL    HW2 2784   0.578   0.894   2.531 -1.8594 -1.0260 -0.7886
  929SOL     OW 2785   2.913   3.047   0.831 -0.1092 -0.2843  0.2419
  929SOL    HW1 2786   2.894   0.015   0.799  1.4164 -2.2628  2.4971
  929SOL    HW2 2787   2.937   2.986   0.752 -0.8794 -0.7407  0.8696
  930SOL     OW 2788   2.496   0.360   1.383 -0.1426  0.1296  0.3522
  930SOL    HW1 2789   2.488   0.339   1.484 -0.1921 -3.7696  1.9749
  930SOL    HW2 2790   2.593   0.373   1.352 -2.1032 -1.0360 -0.3940
  931SOL     OW 2791   2.380   1.055   3.119 -0.0807  0.0825  0.5070
  931SOL    HW1 2792   2.342   0.991   3.048 -1.4504  1.4920  1.8577
  931SOL    HW2 2793   2.484   1.052   3.121 -0.1519  2.6105 -1.9743
  932SOL     OW 2794   2.409   1.630   1.532 -0.1931 -0.3323 -0.2789
  932SOL    HW1 2795   2.417   1.542   1.580  0.1919  1.4675 -1.7481
  932SOL    HW2 2796   2.325   1.642   1.476 -0.4217  1.0891 -1.9896
  933SOL     OW 2797   3.069   2.420   1.461  0.2994  0.8257  0.2752
  933SOL    HW1 2798   0.021   2.410   1.397  1.0617  0.2051 -2.2981
  933SOL    HW2 2799   2.987   2.364   1.426 -2.6259 -0.6718 -1.0688
  934SOL     OW 2800   0.911   2.292   1.307 -0.0556 -0.3954 -0.6290
  934SOL    HW1 2801   0.922   2.322   1.212  0.5880  0.4549  1.0729
  934SOL    HW2 2802   0.840   2.218   1.323  1.1949 -0.0263  0.9889
  935SOL     OW 2803   2.516   1.687   2.160 -0.4044 -0.2397 -0.4222
  935SOL    HW1 2804   2.483   1.592   2.176  0.5894 -2.6820 -0.4834
  935SOL    HW2 2805   2.615   1.707   2.189  0.9092  1.6080 -1.8627
  936SOL     OW 2806   2.245   1.408   1.810 -0.5100  0.9077  0.7003
  936SOL    HW1 2807   2.286   1.403   1.717  0.8204  0.0646 -0.9413
  936SOL    HW2 2808   2.319   1.421   1.874 -2.5437 -3.7950 -0.9032
  937SOL     OW 2809   1.963   1.185   2.061  0.1951 -0.6796 -0.3725
  937SOL    HW1 2810   2.012   1.121   1.997 -4.0750  2.5731 -0.2412
  937SOL    HW2 2811   1.959   1.155   2.159 -1.1120  2.4379 -0.5597
  938SOL     OW 2812   0.735   2.395   3.063 -0.1659  0.1375 -0.6359
  938SOL    HW1 2813   0.775   2.439   0.014  0.2025 -0.7342 -0.1480
  938SOL    HW2 2814   0.771   2.435   2.979 -0.3417 -2.7783 -0.1400
  939SOL     OW 2815   2.682   0.769   2.836 -0.1273  0.8554  0.0018
  939SOL    HW1 2816   2.666   0.834   2.757 -1.4769  1.5534 -1.3801
  939SOL    HW2 2817   2.603   0.707   2.861 -0.0572  0.7867  0.3959
  940SOL     OW 2818   0.941   1.752   1.221 -0.4583 -0.2510 -0.0228
  940SOL    HW1 2819   0.988   1.684   1.280  0.2294 -0.4306 -0.7325
  940SOL    HW2 2820   0.960   1.845   1.258 -2.5286  1.0973  0.6293
  941SOL     OW 2821   0.658   2.327   2.104 -0.1337 -0.3589  0.4315
  941SOL    HW1 2822   0.710   2.274   2.177 -0.5467 -0.6924  0.8670
  941SOL    HW2 2823   0.699   2.323   2.008  0.1904  1.2714 -1.3269
  942SOL     OW 2824   0.051   2.015   2.894  0.4281  0.7847 -0.1268
  942SOL    HW1 2825   0.081   2.112   2.905 -1.6225  2.1544 -0.2076
  942SOL    HW2 2826   0.105   1.973   2.817 -0.8505 -0.0788 -2.0505
  943SOL     OW 2827   1.718   2.716   1.853 -0.7372  0.0395  0.0826
  943SOL    HW1 2828   1.680   2.631   1.900 -2.2137  2.6800 -1.4564
  943SOL    HW2 2829   1.769   2.686   1.769  0.6393 -0.8599  0.1232
  944SOL     OW 2830   1.146   1.634   0.136 -0.0654  0.1037  0.0919
  944SOL    HW1 2831   1.209   1.692   0.081  1.3822 -1.5030 -0.4920
  944SOL    HW2 2832   1.186   1.566   0.193 -0.9806  3.3197 -2.7224
  945SOL     OW 2833   2.588   2.724   0.663 -0.1714 -0.0957  0.4276
  945SOL    HW1 2834   2.653   2.653   0.627  3.5699  1.9941  0.6557
  945SOL    HW2 2835   2.620   2.816   0.628  0.2573 -1.6363  1.0291
  946SOL     OW 2836   0.991   1.543   2.683 -0.4642 -0.4046  0.5865
  946SOL    HW1 2837   0.982   1.527   2.782 -0.3642 -0.1098 -0.0526
  946SOL    HW2 2838   0.967   1.636   2.647  0.6860 -1.9442 -1.6772
  947SOL     OW 2839   2.707   0.674   1.795 -0.1051  0.7145 -0.5972
  947SOL    HW1 2840   2.615   0.723   1.775 -2.4736  1.5798 -1.1445
  947SOL    HW2 2841   2.773   0.687   1.721 -1.4583 -1.2338  0.3039
  948SOL     OW 2842   0.100   1.584   0.644 -0.2193  0.0689 -0.4776
  948SOL    HW1 2843   0.181   1.529   0.651  0.4876 -0.3837  0.2703
  948SOL    HW2 2844   0.061   1.610   0.736 -2.1530 -2.0623 -0.0486
  949SOL     OW 2845   0.824   0.751   2.281  0.1719  0.1374  0.1410
  949SOL    HW1 2846   0.859   0.772   2.188 -1.0905 -1.7725  0.7035
  949SOL    HW2 2847   0.883   0.688   2.333  0.4656 -1.7053 -1.6617
  950SOL     OW 2848   0.230   0.641   1.341 -0.4554  0.7619 -0.5885
  950SOL    HW1 2849   0.299   0.700   1.299 -2.7339  1.3115  0.6279
  950SOL    HW2 2850   0.270   0.561   1.391  0.3500 -0.3857 -1.5145
  951SOL     OW 2851   0.850   1.382   2.535  0.1545 -0.7401  0.3115
  951SOL    HW1 2852   0.904   1.447   2.594  1.1783 -0.8548 -0.5079
  951SOL    HW2 2853   0.849   1.409   2.436 -2.9426 -2.0732  1.8769
  952SOL     OW 2854   1.927   2.191   0.872  0.2571 -0.0632 -0.2426
  952SOL    HW1 2855   1.980   2.118   0.827 -2.4446  2.7227  0.2741
  952SOL    HW2 2856   1.866   2.240   0.809 -0.8216  0.3672  0.0001
  953SOL     OW 2857   0.727   0.687   0.089  1.1279 -0.2384 -0.1966
  953SOL    HW1 2858   0.772   0.749   0.158  1.9525 -0.6923  0.7120
  953SOL    HW2 2859   0.631   0.729   0.071 -1.6676  2.8761  3.5207
  954SOL     OW 2860   2.133   0.848   1.200 -0.8252 -0.2133  0.7760
  954SOL    HW1 2861   2.230   0.838   1.166  0.9695 -0.7989  0.4844
  954SOL    HW2 2862   2.067   0.779   1.158 -1.8987 -1.9592  1.6299
  955SOL     OW 2863   2.042   1.239   0.405 -0.0526 -0.5426  0.1369
  955SOL    HW1 2864   2.136   1.241   0.362  1.3214 -1.6768 -0.7641
  955SOL    HW2 2865   1.965   1.232   0.339  1.2367  1.7851 -0.7872
  956SOL     OW 2866   0.863   0.533   1.912  0.2321  0.1619  0.5775
  956SOL    HW1 2867   0.820   0.502   1.823 -1.0162 -1.3122 -2.0055
  956SOL    HW2 2868   0.953   0.487   1.937  1.1963 -2.5805  0.3096
  957SOL     OW 2869   1.535   0.302   1.406  0.1803  0.6364 -0.5242
  957SOL    HW1 2870   1.543   0.374   1.479 -0.5679  1.2504  0.8330
  957SOL    HW2 2871   1.569   0.208   1.439 -0.7708 -0.7599 -1.8179
  958SOL     OW 2872   0.258   2.146   0.378 -0.0133 -1.0642  0.1004
  958SOL    HW1 2873   0.274   2.089   0.297  0.9630  1.9357  1.9225
  958SOL    HW2 2874   0.309   2.122   0.461  0.4739  0.5622 -2.2994
  959SOL     OW 2875   2.375   1.065   1.877  0.2885  0.1535 -0.2400
  959SOL    HW1 2876   2.285   1.090   1.914  1.5870  0.4224 -3.0815
  959SOL    HW2 2877   2.409   1.129   1.806  0.2518 -3.1470  0.8980
  960SOL     OW 2878   2.913   1.907   2.861  0.2595  0.3643 -0.1861
  960SOL    HW1 2879   2.985   1.978   2.857  0.4785 -0.6135  2.6753
  960SOL    HW2 2880   2.920   1.855   2.948 -3.2031 -1.5660  0.0097
  961SOL     OW 2881   0.504   1.705   1.660 -0.1915 -0.1777  0.0594
  961SOL    HW1 2882   0.559   1.735   1.581 -1.9491 -1.6658 -1.6374
  961SOL    HW2 2883   0.527   1.757   1.747 -2.0722 -2.1069 -0.7241
  962SOL     OW 2884   0.892   1.179   0.751  0.4013  0.0822  0.3023
  962SOL    HW1 2885   0.972   1.182   0.688 -0.7548  3.3867 -1.4514
  962SOL    HW2 2886   0.866   1.275   0.762 -2.4307 -1.8310 -1.0241
  963SOL     OW 2887   1.238   1.992   2.430 -0.4781  0.1518  0.0921
  963SOL    HW1 2888   1.290   1.909   2.402  1.9613 -0.1694 -0.1609
  963SOL    HW2 2889   1.295   2.061   2.480  0.7779  0.5996 -2.5429
  964SOL     OW 2890   0.194   2.778   2.003  0.2416  0.6857  0.0010
  964SOL    HW1 2891   0.125   2.710   2.035  1.1414 -0.4488  0.6086
  964SOL    HW2 2892   0.255   2.807   2.082 -0.4178 -3.6694  2.4038
  965SOL     OW 2893   0.209   1.908   2.689 -0.2205  0.7149 -0.2622
  965SOL    HW1 2894   0.192   1.823   2.744  1.9005 -0.3640  2.1675
  965SOL    HW2 2895   0.163   1.896   2.601 -0.2000 -0.2951  1.4272
  966SOL     OW 2896   0.037   1.783   3.034  0.5205  0.4342  0.2386
  966SOL    HW1 2897   3.100   1.716   2.989 -1.5923 -0.2199  0.8071
  966SOL    HW2 2898   0.055   1.863   2.973  1.9009  0.9447  0.6252
  967SOL     OW 2899   2.083   3.093   0.143 -0.1724  0.4827  0.8399
  967SOL    HW1 2900   2.110   3.008   0.193 -2.3452  1.9483 -0.8749
  967SOL    HW2 2901   2.094   3.084   0.039 -0.6797  1.5118 -1.4783
  968SOL     OW 2902   2.529   3.103   0.671 -0.0575  0.3582  0.3683
  968SOL    HW1 2903   2.576   3.025   0.626  0.4659 -0.0601 -0.4331
  968SOL    HW2 2904   2.508   0.049   0.606 -1.5977  0.9084  1.5659
  969SOL     OW 2905   0.157   1.188   1.921 -0.3905 -0.2256  0.6912
  969SOL    HW1 2906   0.157   1.247   1.834 -0.2286  1.8801 -0.4510
  969SOL    HW2 2907   0.225   1.110   1.912 -0.3251  1.1844 -1.2168
  970SOL     OW 2908   1.690   1.815   0.112 -0.5787 -0.2743 -0.0032
  970SOL    HW1 2909   1.745   1.836   0.197 -0.7040  1.5482  0.3600
  970SOL    HW2 2910   1.607   1.872   0.113  0.9578  0.3712 -1.8129
  971SOL     OW 2911   2.372   0.030   1.520 -0.6240 -0.1391  0.0806
  971SOL    HW1 2912   2.465   0.074   1.514 -0.6761 -0.1617 -0.0434
  971SOL    HW2 2913   2.357   3.107   1.434 -0.5030 -1.2015  1.5421
  972SOL     OW 2914   2.926   0.195   1.018 -0.3543 -0.5148 -0.2054
  972SOL    HW1 2915   2.996   0.170   0.951  0.3350  2.3851  1.5876
  972SOL    HW2 2916   2.894   0.294   1.014  0.2674  0.0597  2.9432
  973SOL     OW 2917   0.669   0.402   2.359 -0.3710 -0.7892 -0.7285
  973SOL    HW1 2918   0.581   0.371   2.402  1.1999 -0.4125 -2.5039
  973SOL    HW2 2919   0.649   0.404   2.260  0.5429  0.3517  1.1421
  974SOL     OW 2920   2.726   1.239   2.178 -0.1172 -0.5254 -0.1769
  974SOL    HW1 2921   2.634   1.210   2.191  3.6186  0.2867 -1.7199
  974SOL    HW2 2922   2.732   1.307   2.105  0.8009  2.2836  0.7526
  975SOL     OW 2923   1.059   0.247   1.862  0.1428 -0.1870 -0.2691
  975SOL    HW1 2924   1.069   0.336   1.915 -1.1826 -0.3616 -0.3908
  975SOL    HW2 2925   1.132   0.233   1.793  2.7445  2.2419 -1.6909
  976SOL     OW 2926   1.128   1.606   1.394 -0.2698 -0.2331  0.4920
  976SOL    HW1 2927   1.134   1.705   1.431  0.7526 -0.6727 -0.2587
  976SOL    HW2 2928   1.111   1.540   1.469 -0.4711  0.8294  1.3443
  977SOL     OW 2929   0.628   2.991   0.191 -0.7991  0.5025  0.4303
  977SOL    HW1 2930   0.679   2.909   0.224 -1.6519 -0.8814  0.9382
  977SOL    HW2 2931   0.688   3.066   0.162  0.7377 -1.3644  3.8902
  978SOL     OW 2932   2.450   1.416   2.234  0.6211 -0.0019 -0.3804
  978SOL    HW1 2933   2.462   1.316   2.219 -1.1099 -1.8707  0.0470
  978SOL    HW2 2934   2.460   1.443   2.333  1.1366 -0.3178 -0.9469
  979SOL     OW 2935   1.478   0.570   1.995 -0.0684 -0.2526  0.6361
  979SOL    HW1 2936   1.389   0.612   1.980  1.0820  0.0703 -0.0903
  979SOL    HW2 2937   1.527   0.591   2.078  1.0228 -0.8388  1.4854
  980SOL     OW 2938   1.853   1.559   2.371  0.0963 -0.1186  0.1129
  980SOL    HW1 2939   1.818   1.551   2.274  0.7238  0.2967 -0.9797
  980SOL    HW2 2940   1.785   1.523   2.435  0.7435  1.0160 -0.4139
  981SOL     OW 2941   1.859   0.610   1.665  0.0317  0.7884  0.2284
  981SOL    HW1 2942   1.832   0.706   1.649  1.0456 -0.6345  1.0578
  981SOL    HW2 2943   1.930   0.585   1.596 -0.7779  1.8440  1.6390
  982SOL     OW 2944   0.774   0.252   2.908  0.1754 -0.0278 -0.3493
  982SOL    HW1 2945   0.761   0.325   2.977  1.8549 -1.4687 -0.1615
  982SOL    HW2 2946   0.688   0.247   2.852  2.0785  0.6231 -1.4611
  983SOL     OW 2947   2.701   0.648   0.199  0.3035 -0.1874  0.0623
  983SOL    HW1 2948   2.727   0.576   0.265  1.0795  0.2627  0.3538
  983SOL    HW2 2949   2.784   0.693   0.163 -0.1890 -1.8697  0.3160
  984SOL     OW 2950   0.963   0.392   2.288 -0.7924  0.1989  0.3995
  984SOL    HW1 2951   1.000   0.299   2.281  0.6121  2.6472  2.5480
  984SOL    HW2 2952   0.864   0.393   2.318 -1.7158 -0.1321  2.4147
  985SOL     OW 2953   1.608   1.913   2.302 -0.2511  0.1143 -0.1892
  985SOL    HW1 2954   1.558   1.938   2.217  2.8490  0.8616 -0.0913
  985SOL    HW2 2955   1.701   1.882   2.271  2.7411 -2.9171 -0.2133
  986SOL     OW 2956   2.527   2.770   1.820  0.2302  0.3890 -0.1653
  986SOL    HW1 2957   2.464   2.817   1.755  0.6985  0.9241  2.0794
  986SOL    HW2 2958   2.538   2.835   1.895 -2.5151 -1.3679  0.8595
  987SOL     OW 2959   1.854   1.172   1.199  0.2695  0.4901 -0.1872
  987SOL    HW1 2960   1.940   1.221   1.178  3.0053  0.7492  1.8217
  987SOL    HW2 2961   1.793   1.184   1.118  1.9005  1.0400 -0.8691
  988SOL     OW 2962   2.806   1.680   2.233  0.4737  0.4966  0.2279
  988SOL    HW1 2963   2.796   1.736   2.317  0.9196  1.9290  2.0053
  988SOL    HW2 2964   2.883   1.612   2.238 -0.1096  0.9977 -1.0615
  989SOL     OW 2965   1.227   2.270   0.298 -0.5499 -0.3497 -0.0647
  989SOL    HW1 2966   1.169   2.289   0.215  0.2134 -0.5287 -0.9451
  989SOL    HW2 2967   1.186   2.307   0.388 -2.1879  0.5690  1.5455
  990SOL     OW 2968   2.084   0.505   2.898 -0.2015 -0.2084  0.1457
  990SOL    HW1 2969   2.019   0.584   2.917 -2.4957  4.0592  2.4052
  990SOL    HW2 2970   2.126   0.508   2.804  0.9443 -0.6377  1.5152
  991SOL     OW 2971   1.188   0.382   0.796  0.2382 -0.1442  0.0134
  991SOL    HW1 2972   1.182   0.428   0.707 -0.5150  1.1491 -1.7804
  991SOL    HW2 2973   1.104   0.386   0.856 -0.7964 -0.0812  0.9236
  992SOL     OW 2974   2.386   0.892   1.099  0.3409  0.5955 -0.3351
  992SOL    HW1 2975   2.415   0.959   1.171 -0.2206 -1.4980  2.7623
  992SOL    HW2 2976   2.462   0.875   1.032  2.6885  1.4812 -2.2527
  993SOL     OW 2977   2.198   0.762   1.805 -0.0790 -0.2421  0.4850
  993SOL    HW1 2978   2.295   0.739   1.787 -0.8942  1.1362  1.2597
  993SOL    HW2 2979   2.151   0.775   1.712 -0.0564 -0.1768 -1.9940
  994SOL     OW 2980   0.890   1.768   2.556  0.5359  0.5135 -0.1998
  994SOL    HW1 2981   0.913   1.867   2.560  0.1305  1.7563  0.6589
  994SOL    HW2 2982   0.791   1.750   2.561  1.6118  2.1096  1.5822
  995SOL     OW 2983   2.017   1.109   3.009  0.2929 -0.1111  0.4325
  995SOL    HW1 2984   1.946   1.176   3.037  0.5023 -0.7793  1.4952
  995SOL    HW2 2985   2.107   1.154   3.012 -2.8086 -0.2831  1.8191
  996SOL     OW 2986   2.204   2.059   0.569 -0.0572  0.0406  0.2827
  996SOL    HW1 2987   2.135   2.018   0.635  1.1668 -0.4772  1.7863
  996SOL    HW2 2988   2.280   1.994   0.550 -2.6168  2.3810  2.2252
  997SOL     OW 2989   2.180   0.736   2.091 -0.1499  0.2788 -0.1955
  997SOL    HW1 2990   2.084   0.707   2.114  1.6537  2.9132  0.2208
  997SOL    HW2 2991   2.200   0.760   1.996  0.1921  0.6276  2.2673
  998SOL     OW 2992   2.808   1.114   0.728  0.0757 -0.5168  0.4802
  998SOL    HW1 2993   2.806   1.170   0.813  2.0579  1.7894  0.3868
  998SOL    HW2 2994   2.763   1.167   0.658  2.1898 -0.8343  1.6640
  999SOL     OW 2995   2.634   1.619   0.316 -0.9335  0.4026  0.7579
  999SOL    HW1 2996   2.597   1.619   0.221 -0.9657 -0.7064  0.0507
  999SOL    HW2 2997   2.617   1.708   0.357  0.9908 -2.3553 -2.5515
 1000SOL     OW 2998   0.595   0.724   2.148  0.3208 -0.0308  0.4092
 1000SOL    HW1 2999   0.674   0.739   2.212 -1.8699 -1.4932  0.4546
 1000SOL    HW2 3000   0.517   0.708   2.213 -2.8764 -2.2689  0.9296
   3.12949   3.12949   3.12949
