1000 SPC/Fw water molecules t= 150.00000 step= 150000
 3000
    1SOL     OW    1   2.347   2.875   0.662  0.5169  0.4260 -0.4806
    1SOL    HW1    2   2.440   2.901   0.644 -0.6217 -2.3063 -0.1795
    1SOL    HW2    3   2.343   2.771   0.668 -0.5718 -0.0555  0.2385
    2SOL     OW    4   1.382   1.889   2.254  0.0574  0.5571 -0.0043
    2SOL    HW1    5   1.373   1.990   2.242  1.6677  1.8608 -2.0818
    2SOL    HW2    6   1.433   1.862   2.339  1.6354 -0.9611  1.0181
    3SOL     OW    7   1.698   2.569   2.278 -0.1681  0.4036  0.0706
    3SOL    HW1    8   1.789   2.562   2.317  1.8297  0.9202  1.4165
    3SOL    HW2    9   1.701   2.595   2.176 -0.4232 -1.3132 -3.3490
    4SOL     OW   10   1.748   2.675   1.997  0.0499  0.5478  0.1481
    4SOL    HW1   11   1.776   2.594   1.944  0.2790  0.8015 -0.4696
    4SOL    HW2   12   1.823   2.744   1.990  0.2563  0.3403 -0.6813
    5SOL     OW   13   0.633   0.532   1.426 -0.5770  0.2110 -0.1816
    5SOL    HW1   14   0.676   0.540   1.330  3.4206  0.3883 -2.1341
    5SOL    HW2   15   0.545   0.479   1.424 -0.1001  1.6827 -2.5881
    6SOL     OW   16   2.440   0.961   2.976 -0.3793 -0.2622 -0.3186
    6SOL    HW1   17   2.398   0.934   3.067 -2.0447 -0.2067  0.7138
    6SOL    HW2   18   2.382   0.929   2.899 -0.6212 -0.6113  1.3792
    7SOL     OW   19   0.702   0.541   1.177 -0.8828  0.3822  0.2510
    7SOL    HW1   20   0.756   0.457   1.149 -2.3821 -0.8338 -0.3506
    7SOL    HW2   21   0.728   0.619   1.120  0.8218 -1.3911  0.6240
    8SOL     OW   22   1.399   2.385   1.677 -0.2390 -0.1592 -0.4460
    8SOL    HW1   23   1.312   2.361   1.728 -2.7047 -0.9330  1.1519
    8SOL    HW2   24   1.421   2.317   1.605 -2.9258  0.8187  1.1816
    9SOL     OW   25   0.645   1.223   0.082 -0.4236 -0.1560  0.4499
    9SOL    HW1   26   0.714   1.151   0.056 -0.3126 -0.3379 -0.9595
    9SOL    HW2   27   0.572   1.239   0.013  0.6462  2.2948 -2.1079
   10SOL     OW   28   0.451   2.705   2.861  0.3980 -0.1236  0.2132
   10SOL    HW1   29   0.441   2.611   2.896  0.6076  3.0600  2.3318
   10SOL    HW2   30   0.500   2.699   2.769  0.2978 -0.2179 -3.4239
   11SOL     OW   31   0.015   1.449   3.099  0.1618  0.4240  0.4032
   11SOL    HW1   32   3.091   1.542   0.021 -0.9541  0.4813  0.1300
   11SOL    HW2   33   3.087   1.416   3.006 -1.5102  1.1144 -3.4817
   12SOL     OW   34   0.686   3.001   1.515 -0.4034 -0.4896 -0.2312
   12SOL    HW1   35   0.586   2.976   1.501 -1.0074 -1.1748 -0.4714
   12SOL    HW2   36   0.709   3.096   1.474  1.4137 -0.6492 -4.2313
   13SOL     OW   37   0.681   2.825   0.472  0.1701 -0.4173  0.3737
   13SOL    HW1   38   0.676   2.731   0.512 -0.1645 -1.5085  2.6663
   13SOL    HW2   39   0.644   2.825   0.378 -1.2054 -0.9716  0.0512
   14SOL     OW   40   1.367   1.897   0.940  0.5724  0.6346  0.0488
   14SOL    HW1   41   1.343   1.978   0.882  3.3717 -2.3470  1.8938
   14SOL    HW2   42   1.410   1.930   1.027 -0.2964  2.6337 -1.8015
   15SOL     OW   43   2.473   0.813   2.405  0.2460 -0.1316  0.1577
   15SOL    HW1   44   2.511   0.807   2.498  0.0525  1.3361 -0.7982
   15SOL    HW2   45   2.395   0.882   2.407 -2.6949  0.2480 -1.7653
   16SOL     OW   46   1.538   2.998   0.167 -0.5875  0.1349  0.5566
   16SOL    HW1   47   1.638   3.010   0.185  3.9957 -3.0870 -1.8434
   16SOL    HW2   48   1.476   3.057   0.222 -2.5147 -0.5808  3.3751
   17SOL     OW   49   0.675   2.570   1.880 -0.2993 -0.4213  0.0988
   17SOL    HW1   50   0.628   2.604   1.964  1.6788  0.6115 -0.4637
   17SOL    HW2   51   0.755   2.627   1.852  1.3321 -0.3213 -1.6863
   18SOL     OW   52   1.844   0.907   0.113  0.1338 -0.4707 -0.0138
   18SOL    HW1   53   1.801   0.895   0.020 -0.2112 -0.3186 -1.1259
   18SOL    HW2   54   1.945   0.907   0.107  0.2747 -1.5512  0.5621
   19SOL     OW   55   2.438   2.147   2.756  0.3282 -0.1356  0.4424
   19SOL    HW1   56   2.412   2.121   2.847  1.5866  0.2652 -2.7075
   19SOL    HW2   57   2.521   2.101   2.723 -1.2849  0.3314 -0.1233
   20SOL     OW   58   1.745   1.582   2.191  0.1716 -0.0311  0.1265
   20SOL    HW1   59   1.820   1.521   2.154 -0.7619 -0.4816  2.7842
   20SOL    HW2   60   1.705   1.538   2.276  0.0683  0.0392  0.4477
   21SOL     OW   61   0.262   2.063   0.031 -0.1157 -0.3245  0.1955
   21SOL    HW1   62   0.344   2.020   0.079 -1.6963  1.6166  2.4129
   21SOL    HW2   63   0.278   2.069   3.036  0.7284 -0.2222 -0.6969
   22SOL     OW   64   2.401   2.957   1.407  0.6322 -0.1439 -0.2318
   22SOL    HW1   65   2.444   2.887   1.472  1.8853  0.6498 -1.9504
   22SOL    HW2   66   2.465   3.032   1.402 -0.6851 -0.2347 -0.2930
   23SOL     OW   67   0.016   1.388   1.586 -0.1891 -0.1709 -0.3818
   23SOL    HW1   68   0.054   1.316   1.643  2.1112  1.7897 -1.2276
   23SOL    HW2   69   0.085   1.450   1.552 -1.3609 -2.0540 -1.1200
   24SOL     OW   70   2.393   1.868   1.648 -0.6258  0.0914  0.4059
   24SOL    HW1   71   2.454   1.795   1.608  0.0587 -3.1796 -0.5246
   24SOL    HW2   72   2.295   1.847   1.652  2.2653 -1.7246  1.5340
   25SOL     OW   73   2.088   2.978   2.647  0.7037 -0.7612  0.2648
   25SOL    HW1   74   2.064   3.004   2.546  0.1589 -0.4205 -0.2179
   25SOL    HW2   75   2.026   2.904   2.667  0.6466 -0.0795 -0.0519
   26SOL     OW   76   1.298   2.967   0.514 -0.1591 -0.0852 -0.3798
   26SOL    HW1   77   1.216   2.972   0.450 -0.4439  1.4121 -1.6092
   26SOL    HW2   78   1.327   3.057   0.555  1.3518  0.8894  2.0346
   27SOL     OW   79   0.907   2.056   3.062 -0.4119 -0.4135 -0.1026
   27SOL    HW1   80   0.935   2.111   0.043 -0.1783  0.0669  2.4513
   27SOL    HW2   81   0.844   1.979   3.090  1.8030 -1.6580  0.7373
   28SOL     OW   82   2.906   1.653   1.257  0.4576 -0.0993 -0.2584
   28SOL    HW1   83   2.964   1.573   1.232  1.5758  1.1788  0.9134
   28SOL    HW2   84   2.906   1.723   1.186 -5.0268 -4.5281  3.1379
   29SOL     OW   85   2.492   2.242   2.128 -0.4765  0.3377 -0.6286
   29SOL    HW1   86   2.452   2.332   2.124 -0.8882  1.2720 -0.0395
   29SOL    HW2   87   2.554   2.243   2.206 -0.4330  0.5315  2.5548
   30SOL     OW   88   1.063   2.704   1.241 -0.2532  0.0867 -0.3208
   30SOL    HW1   89   1.117   2.784   1.286  0.8013  0.9643  3.6031
   30SOL    HW2   90   1.026   2.718   1.147 -1.3275  1.1190  1.9401
   31SOL     OW   91   2.916   2.225   2.097 -0.6486 -0.1829 -0.9954
   31SOL    HW1   92   2.837   2.175   2.055  0.2729  2.9986  0.8593
   31SOL    HW2   93   2.980   2.166   2.152 -1.0661 -2.0044  2.3141
   32SOL     OW   94   1.291   0.981   2.132 -0.1701  0.3134  0.0322
   32SOL    HW1   95   1.270   1.047   2.059 -1.9490 -2.8463 -0.0034
   32SOL    HW2   96   1.371   1.002   2.191 -2.0967  1.3588  0.3055
   33SOL     OW   97   0.615   3.068   2.692  0.3335  0.6002  0.2678
   33SOL    HW1   98   0.532   0.020   2.682  1.1696 -1.7112  0.4137
   33SOL    HW2   99   0.604   3.015   2.776  0.4092  0.9251 -1.8576
   34SOL     OW  100   1.576   0.033   1.210  0.0616  0.6508  0.1377
   34SOL    HW1  101   1.558   3.061   1.143  0.1924  2.5717 -1.0533
   34SOL    HW2  102   1.671   0.072   1.196  0.4435 -0.4651  2.3178
   35SOL     OW  103   2.040   0.517   1.042 -0.1725 -0.1193 -0.2707
   35SOL    HW1  104   2.044   0.430   0.988 -0.2685  0.1913 -0.6652
   35SOL    HW2  105   2.107   0.513   1.118  0.5605  0.2150 -0.7732
   36SOL     OW  106   2.113   2.827   2.138  0.5972 -0.3744 -0.0612
   36SOL    HW1  107   2.066   2.777   2.210  2.2958  1.4158 -2.4044
   36SOL    HW2  108   2.208   2.854   2.166 -1.2890 -0.1549 -2.5686
   37SOL     OW  109   1.225   2.295   2.408 -0.4889  0.0130 -0.0609
   37SOL    HW1  110   1.216   2.264   2.505  1.0658  0.9559  0.8979
   37SOL    HW2  111   1.273   2.226   2.348  0.6409  0.3295  1.5769
   38SOL     OW  112   2.400   0.249   2.881  0.1108 -0.0862 -0.2415
   38SOL    HW1  113   2.456   0.225   2.963  1.1036  2.5526  1.2720
   38SOL    HW2  114   2.423   0.344   2.853 -1.9532 -1.3543  2.6710
   39SOL     OW  115   1.803   2.090   2.359  0.0976  0.0126  0.1893
   39SOL    HW1  116   1.761   2.092   2.449 -1.4937  1.0814 -0.3277
   39SOL    HW2  117   1.795   1.997   2.315  2.5451 -0.3494 -2.4954
   40SOL     OW  118   0.289   0.005   2.866  0.5403 -0.0051 -0.3453
   40SOL    HW1  119   0.324   0.062   2.788  2.2998  0.4847 -1.4517
   40SOL    HW2  120   0.268   3.014   2.829 -0.9760 -1.1503 -2.1853
   41SOL     OW  121   1.614   0.932   1.476  0.3659  0.1663 -0.4124
   41SOL    HW1  122   1.637   0.872   1.398  1.1325  0.7021 -1.2227
   41SOL    HW2  123   1.631   0.890   1.569  2.2140  0.4975  0.3021
   42SOL     OW  124   0.458   0.229   1.595  0.2687  0.3567  0.0611
   42SOL    HW1  125   0.444   0.140   1.644  0.1342 -0.9275 -1.1729
   42SOL    HW2  126   0.550   0.267   1.602 -0.4190  1.5469 -0.1917
   43SOL     OW  127   1.636   0.707   1.940  0.1320 -0.4015 -0.1649
   43SOL    HW1  128   1.584   0.726   2.025 -0.5017 -3.5053 -2.0033
   43SOL    HW2  129   1.717   0.642   1.955  0.6344 -0.2790  1.7132
   44SOL     OW  130   0.085   2.626   2.535 -0.2870  0.0785  0.1221
   44SOL    HW1  131   0.136   2.711   2.523 -2.6799 -0.5714 -0.0531
   44SOL    HW2  132   3.089   2.629   2.502 -0.7625  0.4841  0.4597
   45SOL     OW  133   0.208   2.373   1.298  0.1354  0.9603 -0.0670
   45SOL    HW1  134   0.147   2.435   1.348 -0.7999  0.4869  1.0790
   45SOL    HW2  135   0.286   2.341   1.358  3.3679  1.6287 -0.1274
   46SOL     OW  136   2.289   2.290   1.911 -0.1086  0.5210  0.5964
   46SOL    HW1  137   2.310   2.370   1.971 -1.5532 -0.3854  2.3886
   46SOL    HW2  138   2.280   2.211   1.973 -1.2206 -1.6666 -2.0971
   47SOL     OW  139   1.914   2.064   1.687 -0.2551 -0.0191 -0.2640
   47SOL    HW1  140   1.907   2.126   1.767  1.9684 -1.0791  2.2254
   47SOL    HW2  141   1.822   2.018   1.670 -2.1796 -1.2442  1.0080
   48SOL     OW  142   0.414   2.017   0.459 -0.4629  0.2724  0.3497
   48SOL    HW1  143   0.380   1.925   0.497  0.4427 -0.3294  2.4331
   48SOL    HW2  144   0.483   2.049   0.526 -1.9282 -2.1940 -1.5230
   49SOL     OW  145   2.685   0.645   2.291  0.7233  0.2600 -0.1463
   49SOL    HW1  146   2.612   0.706   2.331 -1.6792  1.2095 -2.8225
   49SOL    HW2  147   2.658   0.624   2.194  0.3370  3.8108  1.8851
   50SOL     OW  148   2.105   0.746   0.922  0.1213 -0.1539  0.6399
   50SOL    HW1  149   2.067   0.653   0.946  1.1031 -1.3581  3.1708
   50SOL    HW2  150   2.174   0.773   0.992  0.3791 -0.2474 -2.3475
   51SOL     OW  151   1.258   0.684   0.924  0.2267 -0.1596 -0.2113
   51SOL    HW1  152   1.160   0.691   0.959 -0.7300  3.0812 -3.6430
   51SOL    HW2  153   1.307   0.767   0.954  0.6109  2.2441 -2.7630
   52SOL     OW  154   1.260   1.174   0.079 -0.0267  0.4220  0.3097
   52SOL    HW1  155   1.277   1.114   3.103 -1.2650  1.2138 -2.1848
   52SOL    HW2  156   1.195   1.134   0.147 -3.4010  2.0704  0.4067
   53SOL     OW  157   1.237   1.961   2.648  0.3171  0.3167  0.2447
   53SOL    HW1  158   1.170   1.914   2.706  2.1727 -0.2793 -3.0333
   53SOL    HW2  159   1.253   2.053   2.684  0.3612 -2.6396  1.3370
   54SOL     OW  160   1.917   0.688   1.669  0.0211  0.1724  0.4855
   54SOL    HW1  161   1.986   0.747   1.627 -1.1963  0.8606  0.3982
   54SOL    HW2  162   1.840   0.749   1.700  0.4981 -0.9610  0.7616
   55SOL     OW  163   1.960   2.851   0.784 -0.2423 -0.5548 -0.7379
   55SOL    HW1  164   1.975   2.892   0.692 -1.8737  0.3934 -0.2296
   55SOL    HW2  165   1.863   2.870   0.812  0.3699 -0.6625  1.2248
   56SOL     OW  166   0.864   2.565   1.359 -0.3041  0.1719 -0.1881
   56SOL    HW1  167   0.945   2.602   1.315 -1.6101 -1.5739 -0.5431
   56SOL    HW2  168   0.816   2.629   1.423  1.0664 -2.8974  1.4231
   57SOL     OW  169   2.091   1.030   0.278 -0.1788  0.3268 -0.1560
   57SOL    HW1  170   2.191   1.049   0.291 -0.1572 -1.3363 -1.2367
   57SOL    HW2  171   2.042   1.109   0.239 -0.6560  1.1802 -0.7427
   58SOL     OW  172   0.054   1.272   2.138 -0.0330 -0.2888 -0.7201
   58SOL    HW1  173   0.049   1.292   2.237 -0.4857  0.9549 -1.2625
   58SOL    HW2  174   3.072   1.294   2.085 -0.3693 -0.1170  0.0865
   59SOL     OW  175   0.839   2.433   2.493  0.4198  0.0635 -0.0168
   59SOL    HW1  176   0.922   2.498   2.485  1.8968  2.0656 -0.2102
   59SOL    HW2  177   0.759   2.462   2.433  0.4930 -2.4094 -1.2608
   60SOL     OW  178   2.595   2.915   1.008 -0.3176  0.3783 -0.2268
   60SOL    HW1  179   2.537   2.830   1.009 -2.2273 -1.6437 -0.0651
   60SOL    HW2  180   2.679   2.904   0.947  1.6406  1.7902  3.3754
   61SOL     OW  181   1.287   1.945   0.519  0.1812 -0.3791  0.1901
   61SOL    HW1  182   1.218   1.882   0.564 -3.2584  2.3983 -0.9328
   61SOL    HW2  183   1.370   1.945   0.570 -3.9640 -1.9041 -0.6644
   62SOL     OW  184   2.305   2.534   2.920  0.3325 -0.0888 -0.3358
   62SOL    HW1  185   2.405   2.524   2.905 -0.8403  0.1949  0.1654
   62SOL    HW2  186   2.289   2.564   3.016 -0.1627  2.3115 -1.3085
   63SOL     OW  187   1.905   0.347   0.509  0.4000 -0.0202  0.0765
   63SOL    HW1  188   1.819   0.399   0.483 -4.1201  0.3910 -3.7501
   63SOL    HW2  189   1.983   0.411   0.525  1.1852  0.5358  1.5732
   64SOL     OW  190   0.806   1.144   2.437  0.2741  0.3661  0.1186
   64SOL    HW1  191   0.872   1.141   2.357 -0.5505  0.8679 -0.8061
   64SOL    HW2  192   0.834   1.079   2.512 -0.5163 -2.6599  0.3720
   65SOL     OW  193   1.276   2.293   0.609  0.5296  0.6180 -0.6290
   65SOL    HW1  194   1.355   2.262   0.557 -0.0601 -1.8175  0.3244
   65SOL    HW2  195   1.272   2.233   0.691  0.1890  0.9054 -2.9162
   66SOL     OW  196   0.623   1.395   1.784 -0.4351 -0.1703  0.3752
   66SOL    HW1  197   0.678   1.397   1.868  1.0353 -2.7602 -0.5998
   66SOL    HW2  198   0.542   1.457   1.797  1.6938  2.6452 -1.2184
   67SOL     OW  199   2.322   0.049   2.403  0.1429 -0.6208  0.3613
   67SOL    HW1  200   2.356   3.076   2.347 -3.0692  0.7833 -0.6242
   67SOL    HW2  201   2.383   0.076   2.479  0.4291  0.1763  0.5578
   68SOL     OW  202   0.856   0.788   1.379  0.3407  0.1169  0.4476
   68SOL    HW1  203   0.823   0.817   1.474  0.7600 -1.0213  1.1723
   68SOL    HW2  204   0.923   0.716   1.379  0.9385  4.4645  0.6844
   69SOL     OW  205   1.658   2.668   0.404 -0.1245 -0.2143 -0.5550
   69SOL    HW1  206   1.667   2.770   0.391  1.7462  0.0071  1.0826
   69SOL    HW2  207   1.662   2.654   0.503 -0.3480  0.7291  2.2758
   70SOL     OW  208   2.966   0.966   2.452 -0.1708  0.4613 -0.0559
   70SOL    HW1  209   2.937   0.898   2.523 -1.3673  0.6885 -0.7197
   70SOL    HW2  210   2.938   0.941   2.358 -0.4660 -0.1558  0.4741
   71SOL     OW  211   2.814   1.614   3.100 -0.1093 -0.0090 -0.2005
   71SOL    HW1  212   2.769   1.536   3.047 -0.4820 -1.2524  2.3419
   71SOL    HW2  213   2.821   1.698   3.049 -0.8599 -3.0246  2.9426
   72SOL     OW  214   0.000   1.684   0.405  0.0248  0.0605 -0.4989
   72SOL    HW1  215   3.069   1.648   0.497  0.7769 -3.0282  1.1652
   72SOL    HW2  216   3.095   1.786   0.403 -2.1933 -2.5196  1.9034
   73SOL     OW  217   0.961   1.577   0.525  0.3847  0.4518  0.1313
   73SOL    HW1  218   0.956   1.527   0.612  2.0136 -1.0446 -0.3789
   73SOL    HW2  219   0.992   1.509   0.449 -2.7459 -4.2101  1.0888
   74SOL     OW  220   0.247   1.894   1.937 -0.6835 -0.7515  0.3262
   74SOL    HW1  221   0.153   1.932   1.948 -0.4353  0.7715 -0.3569
   74SOL    HW2  222   0.241   1.809   1.879 -0.1747 -1.6924  0.0422
   75SOL     OW  223   1.660   1.519   1.573  0.8223  0.0067  0.4127
   75SOL    HW1  224   1.591   1.444   1.582 -1.1974 -1.9489  1.2502
   75SOL    HW2  225   1.685   1.560   1.669 -0.4580  1.6338 -0.6142
   76SOL     OW  226   2.171   2.586   1.363  0.7293 -0.0178  0.4393
   76SOL    HW1  227   2.170   2.500   1.299 -1.5773 -2.4046  0.6183
   76SOL    HW2  228   2.163   2.558   1.462  0.2691 -2.1705 -0.4105
   77SOL     OW  229   2.734   1.268   1.329 -0.5637 -0.4746  0.2558
   77SOL    HW1  230   2.782   1.338   1.383 -2.7934 -0.2557 -0.5403
   77SOL    HW2  231   2.639   1.257   1.364 -0.3951 -1.4719  1.3518
   78SOL     OW  232   1.513   0.915   0.352  0.4229 -0.1029 -0.3107
   78SOL    HW1  233   1.490   1.005   0.313  0.2349  1.6293 -2.1674
   78SOL    HW2  234   1.462   0.891   0.437  1.7995 -0.8108  2.2716
   79SOL     OW  235   2.449   1.488   1.433  0.1695  0.0534 -0.5074
   79SOL    HW1  236   2.350   1.505   1.444 -1.5654  0.1247  1.4437
   79SOL    HW2  237   2.470   1.393   1.416  1.3205  3.1933  1.7660
   80SOL     OW  238   0.855   0.558   1.584 -0.4035 -0.2531 -0.2581
   80SOL    HW1  239   0.765   0.559   1.539 -1.3081  0.3160  0.7886
   80SOL    HW2  240   0.917   0.490   1.540 -1.4720  0.5013  3.0965
   81SOL     OW  241   1.037   2.881   0.834 -0.0843 -0.3833 -0.4020
   81SOL    HW1  242   1.131   2.858   0.818 -0.7870 -2.9452 -1.0009
   81SOL    HW2  243   1.032   2.943   0.919 -1.4989  1.9507 -1.5131
   82SOL     OW  244   1.406   3.032   1.708 -0.4357 -0.5729 -0.1640
   82SOL    HW1  245   1.483   2.974   1.678 -0.6623 -0.3820 -2.5768
   82SOL    HW2  246   1.313   2.996   1.682  0.1383  0.2153  3.6190
   83SOL     OW  247   1.283   2.140   0.850  0.0570 -0.1513 -0.0318
   83SOL    HW1  248   1.289   2.208   0.921 -0.9130  1.4878  1.6812
   83SOL    HW2  249   1.192   2.088   0.854 -0.5935 -0.2035 -1.2843
   84SOL     OW  250   0.338   1.810   2.804  0.3375  0.2406  0.2835
   84SOL    HW1  251   0.324   1.799   2.704  3.2920 -0.2781  1.8333
   84SOL    HW2  252   0.367   1.727   2.857  2.2653 -0.1526 -0.3703
   85SOL     OW  253   0.158   2.123   1.165  0.0713  0.6906 -0.3032
   85SOL    HW1  254   0.065   2.113   1.211  1.9520 -1.1387 -1.6065
   85SOL    HW2  255   0.193   2.218   1.180  1.5274  0.0995 -0.4043
   86SOL     OW  256   2.459   2.645   1.312 -0.4985 -0.4931 -0.1531
   86SOL    HW1  257   2.495   2.626   1.407 -0.5568  1.8523 -1.5383
   86SOL    HW2  258   2.363   2.679   1.322 -1.5810 -0.9440 -0.1951
   87SOL     OW  259   0.181   2.034   0.661 -0.0526  0.2112  0.6213
   87SOL    HW1  260   0.248   1.961   0.696 -2.9595  1.2654  1.9529
   87SOL    HW2  261   0.222   2.127   0.680 -0.6729  1.3579  0.7513
   88SOL     OW  262   0.840   1.137   1.391  0.2580 -0.2785 -0.1352
   88SOL    HW1  263   0.810   1.224   1.348 -1.2525 -2.6000  0.6249
   88SOL    HW2  264   0.874   1.075   1.320 -1.5197 -0.0110  0.8885
   89SOL     OW  265   1.026   2.849   2.086 -0.0266 -0.3850 -0.6323
   89SOL    HW1  266   0.949   2.856   2.023  2.0528 -2.1660 -0.3985
   89SOL    HW2  267   1.061   2.936   2.125 -0.7703 -1.5704 -0.8965
   90SOL     OW  268   2.992   1.991   1.562 -0.5553 -0.1297  0.8101
   90SOL    HW1  269   2.997   2.030   1.652 -2.6279  0.9173 -1.7531
   90SOL    HW2  270   2.910   1.929   1.549  0.6761  1.7984 -0.2618
   91SOL     OW  271   1.357   1.801   1.327  0.2688  0.3410 -0.0161
   91SOL    HW1  272   1.326   1.796   1.424  1.9669 -0.5883  0.9217
   91SOL    HW2  273   1.424   1.725   1.301 -2.0426 -0.5616 -1.3087
   92SOL     OW  274   2.497   2.778   1.608  0.2418 -0.6420 -0.2016
   92SOL    HW1  275   2.431   2.699   1.615  0.8665 -0.6362 -0.4581
   92SOL    HW2  276   2.592   2.741   1.610 -0.8685 -2.3529  0.1862
   93SOL     OW  277   2.844   1.370   2.799  0.2072  0.5746  0.2786
   93SOL    HW1  278   2.886   1.276   2.813  0.4942 -0.3493 -1.4816
   93SOL    HW2  279   2.771   1.388   2.871  0.9834  2.1699  4.3704
   94SOL     OW  280   2.671   2.854   2.141  0.3093  0.1286  0.1551
   94SOL    HW1  281   2.707   2.950   2.130 -0.7531  0.4253  0.2361
   94SOL    HW2  282   2.693   2.798   2.061 -0.5671  3.9608  2.2850
   95SOL     OW  283   1.368   0.550   1.823 -0.4921  0.2992 -0.0546
   95SOL    HW1  284   1.315   0.514   1.906  0.0838 -1.0250 -3.2031
   95SOL    HW2  285   1.370   0.651   1.829  3.2871 -1.1359  1.5889
   96SOL     OW  286   2.744   0.602   1.548  0.4812  0.1586 -0.0318
   96SOL    HW1  287   2.734   0.609   1.447 -1.5301 -0.0055 -1.0898
   96SOL    HW2  288   2.657   0.555   1.585 -0.1512 -1.4781 -1.2328
   97SOL     OW  289   1.981   0.447   1.605 -0.0086 -0.7707  0.0702
   97SOL    HW1  290   1.944   0.415   1.511 -0.6870  1.3220  0.3495
   97SOL    HW2  291   1.941   0.536   1.632  0.0647 -2.1102 -0.2497
   98SOL     OW  292   1.656   2.848   1.324 -0.1716 -0.1366 -0.5555
   98SOL    HW1  293   1.643   2.838   1.421  0.7337 -1.0087 -1.8954
   98SOL    HW2  294   1.736   2.910   1.302 -0.1569  0.5002  0.3440
   99SOL     OW  295   2.800   0.315   1.609  0.1221  0.7901  0.7364
   99SOL    HW1  296   2.772   0.376   1.683 -0.3700 -3.9673 -0.8155
   99SOL    HW2  297   2.817   0.373   1.525  0.9107  0.7484  1.5474
  100SOL     OW  298   2.628   1.243   1.838  0.0986 -0.4593 -0.0680
  100SOL    HW1  299   2.625   1.325   1.897  1.0963 -0.7534 -0.6029
  100SOL    HW2  300   2.722   1.240   1.798  1.0022  0.4365  1.9797
  101SOL     OW  301   1.363   0.488   0.784  0.0976  0.2403  0.2089
  101SOL    HW1  302   1.461   0.475   0.811 -0.2693 -1.1844  0.6546
  101SOL    HW2  303   1.319   0.569   0.832 -2.1136  0.1105 -0.1894
  102SOL     OW  304   0.491   0.975   1.275  0.1414  0.1301 -0.1768
  102SOL    HW1  305   0.444   1.046   1.335 -0.3419  0.2066  2.1128
  102SOL    HW2  306   0.524   0.908   1.340  0.2653  2.2102 -0.9892
  103SOL     OW  307   2.554   0.635   3.035  0.1910  0.0800 -0.5931
  103SOL    HW1  308   2.568   0.737   3.032 -1.3524  1.5484 -1.6074
  103SOL    HW2  309   2.573   0.590   0.017  0.4092  3.3857 -2.6821
  104SOL     OW  310   3.049   0.213   1.777  0.0565  0.1076 -0.1745
  104SOL    HW1  311   0.019   0.146   1.770 -0.4086 -0.9933 -3.1927
  104SOL    HW2  312   2.997   0.228   1.689  0.9892  0.4514  1.0190
  105SOL     OW  313   1.975   0.787   1.958  0.1798 -0.1906 -0.0671
  105SOL    HW1  314   1.976   0.778   1.856  0.4789  0.7244  0.9139
  105SOL    HW2  315   1.920   0.716   2.001  0.9533  3.2570 -1.3912
  106SOL     OW  316   1.635   0.150   0.879 -0.0061 -0.6462  0.7168
  106SOL    HW1  317   1.630   0.088   0.799  0.6763 -3.1830 -0.6854
  106SOL    HW2  318   1.547   0.159   0.929 -1.0308 -0.2937 -2.6967
  107SOL     OW  319   0.459   1.214   0.654  0.6221  0.2218 -0.1068
  107SOL    HW1  320   0.455   1.122   0.609 -0.9969  0.1054 -2.8084
  107SOL    HW2  321   0.418   1.210   0.747 -0.1118  0.1773  0.0804
  108SOL     OW  322   2.724   0.411   1.850 -0.3271  0.1890  0.3811
  108SOL    HW1  323   2.638   0.440   1.899  1.7598  0.3305  0.1285
  108SOL    HW2  324   2.778   0.346   1.909  0.9351  1.9886 -0.1715
  109SOL     OW  325   2.452   0.639   0.385 -0.0538  0.1190 -0.0974
  109SOL    HW1  326   2.450   0.732   0.420 -0.9228 -1.1798 -2.6085
  109SOL    HW2  327   2.441   0.571   0.460 -1.4613  1.2752  2.0426
  110SOL     OW  328   0.195   2.430   2.731 -0.2855 -0.0011 -0.0372
  110SOL    HW1  329   0.208   2.334   2.692 -1.1474  0.5711  1.7242
  110SOL    HW2  330   0.132   2.494   2.679 -5.0067 -0.0504  1.8744
  111SOL     OW  331   2.051   0.109   2.017  0.2097  0.0725 -0.3501
  111SOL    HW1  332   2.040   0.188   2.080  0.2708 -1.9447  0.0307
  111SOL    HW2  333   1.974   0.103   1.950  0.0234 -0.3909  1.2141
  112SOL     OW  334   2.308   2.733   0.216 -0.9023  0.2973 -0.5590
  112SOL    HW1  335   2.249   2.671   0.160 -1.7663  0.6302 -0.6137
  112SOL    HW2  336   2.358   2.797   0.155  1.5176  1.1947  3.7483
  113SOL     OW  337   2.312   2.221   1.413 -0.4428  0.3587  0.0388
  113SOL    HW1  338   2.413   2.224   1.393  0.7909 -0.6568 -1.1446
  113SOL    HW2  339   2.297   2.262   1.506  0.9170 -0.3637 -0.6357
  114SOL     OW  340   2.861   0.897   0.898  0.1651 -0.0391 -0.4696
  114SOL    HW1  341   2.805   0.866   0.815 -1.8567 -3.3842 -0.7942
  114SOL    HW2  342   2.959   0.867   0.893 -1.0020  0.7492 -0.0928
  115SOL     OW  343   3.039   1.686   0.123 -0.3336  0.0864  0.5565
  115SOL    HW1  344   3.058   1.664   0.223  3.2135  0.0180  3.4387
  115SOL    HW2  345   2.944   1.664   0.091  1.6208  0.8286  0.8646
  116SOL     OW  346   0.027   1.568   1.931  0.1369 -0.1261 -0.1932
  116SOL    HW1  347   3.073   1.482   1.924 -1.0444  0.9606 -0.6380
  116SOL    HW2  348   0.127   1.548   1.951 -0.5120  2.0200 -0.2007
  117SOL     OW  349   2.422   3.104   0.489  0.2620  0.1047 -0.4058
  117SOL    HW1  350   2.388   0.005   0.584  2.8961  1.0572  0.5703
  117SOL    HW2  351   2.500   3.036   0.487 -1.9225  0.6124 -1.0341
  118SOL     OW  352   0.248   2.108   1.590  0.4717 -0.3840  0.3410
  118SOL    HW1  353   0.145   2.128   1.585 -2.1372  0.4728 -0.1442
  118SOL    HW2  354   0.301   2.177   1.535  0.2232  0.8287  0.0099
  119SOL     OW  355   1.734   1.933   0.827  0.1174 -0.1327  0.1286
  119SOL    HW1  356   1.832   1.973   0.816  1.7638  1.1926  0.1293
  119SOL    HW2  357   1.743   1.841   0.881 -3.0157  0.9006 -0.3479
  120SOL     OW  358   2.927   1.854   2.451 -0.0246  0.1965 -0.4258
  120SOL    HW1  359   2.993   1.865   2.370  1.2165  0.6553 -0.5241
  120SOL    HW2  360   2.830   1.836   2.428  2.9974  0.3028  1.7795
  121SOL     OW  361   2.642   2.057   1.174  0.6295  0.1483 -0.2187
  121SOL    HW1  362   2.610   2.084   1.079 -1.2856  2.2854  0.3501
  121SOL    HW2  363   2.570   1.999   1.222 -0.7996 -1.1725 -0.7285
  122SOL     OW  364   2.138   1.374   2.422  0.1443 -0.4451 -0.4155
  122SOL    HW1  365   2.201   1.376   2.341 -1.0192 -0.1578 -2.3057
  122SOL    HW2  366   2.176   1.318   2.498 -3.5035 -1.3768 -2.7262
  123SOL     OW  367   0.057   2.982   0.723 -0.2974  0.5127  0.4060
  123SOL    HW1  368   0.009   2.966   0.810  0.4775  1.6756 -1.5085
  123SOL    HW2  369   0.142   2.924   0.724  4.7075  0.7455 -2.3718
  124SOL     OW  370   1.664   0.759   2.726  0.5414 -0.2447  0.6249
  124SOL    HW1  371   1.753   0.776   2.683  1.7953  1.1972  1.1208
  124SOL    HW2  372   1.583   0.777   2.666  3.2025  2.4550 -0.5673
  125SOL     OW  373   0.491   1.594   2.926  0.5126  0.3956 -0.2050
  125SOL    HW1  374   0.523   1.619   3.024 -0.0428  0.7213  0.2199
  125SOL    HW2  375   0.437   1.508   2.939  0.1004 -0.6993  3.1667
  126SOL     OW  376   2.766   1.993   0.058 -0.0807 -0.0290  0.0380
  126SOL    HW1  377   2.762   2.029   3.069  3.1973 -0.5692  3.2466
  126SOL    HW2  378   2.838   2.036   0.113  1.6846  0.1822  0.0732
  127SOL     OW  379   0.629   1.630   1.114 -0.1853  0.1355 -0.0484
  127SOL    HW1  380   0.728   1.613   1.116 -1.1527 -0.9270  1.1465
  127SOL    HW2  381   0.584   1.553   1.066 -2.4101  0.4476  1.7507
  128SOL     OW  382   1.211   0.903   0.281 -0.0383 -0.1830  0.1189
  128SOL    HW1  383   1.163   0.990   0.295 -1.3599 -1.0859 -0.7286
  128SOL    HW2  384   1.266   0.880   0.364 -0.3689 -2.3981  1.0909
  129SOL     OW  385   2.423   1.706   1.102 -0.0573 -0.6261 -0.1777
  129SOL    HW1  386   2.361   1.727   1.022  2.5100  2.4956 -1.9827
  129SOL    HW2  387   2.495   1.638   1.076  1.6587  1.1737  3.6615
  130SOL     OW  388   1.993   1.704   0.957  0.0000  0.4388  0.1169
  130SOL    HW1  389   2.048   1.628   0.910  0.5505  1.4446 -0.6202
  130SOL    HW2  390   1.903   1.671   0.985  0.9552 -0.0983  0.3776
  131SOL     OW  391   2.887   1.116   2.841 -0.0182  0.0648  0.2391
  131SOL    HW1  392   2.828   1.074   2.907  3.0510  0.0679 -1.3205
  131SOL    HW2  393   2.984   1.103   2.875  2.7572 -1.0737  0.1081
  132SOL     OW  394   2.517   1.790   2.002 -0.3855  0.0347 -0.0128
  132SOL    HW1  395   2.505   1.875   1.950  0.9458 -3.6251  0.0431
  132SOL    HW2  396   2.562   1.719   1.938  2.6456 -2.8485  0.3983
  133SOL     OW  397   3.058   0.871   0.025 -0.4000 -0.0960  0.1164
  133SOL    HW1  398   3.088   0.867   0.122  1.0192  1.0729  1.1169
  133SOL    HW2  399   3.076   0.965   3.091 -2.5457  0.3612  0.2500
  134SOL     OW  400   0.320   1.164   0.066 -0.3091  0.2848 -0.1070
  134SOL    HW1  401   0.360   1.069   0.064  0.7378 -2.0537  1.3949
  134SOL    HW2  402   0.222   1.160   0.091  3.3590 -2.0505 -0.8144
  135SOL     OW  403   2.055   1.716   0.641 -0.6525  0.6013 -0.4185
  135SOL    HW1  404   2.012   1.629   0.681 -2.4936 -0.9356  0.0125
  135SOL    HW2  405   2.158   1.715   0.641 -2.4614 -0.0896 -0.4199
  136SOL     OW  406   2.116   1.438   1.366 -0.0561  0.1241  0.0503
  136SOL    HW1  407   2.060   1.357   1.360 -1.3792  0.8125 -1.9879
  136SOL    HW2  408   2.152   1.465   1.272  0.9357 -2.6367  1.4208
  137SOL     OW  409   2.635   1.933   0.691  0.2606 -0.3947 -0.1711
  137SOL    HW1  410   2.636   2.010   0.756  0.7871 -1.1740  1.3364
  137SOL    HW2  411   2.562   1.936   0.616 -1.0178 -1.7319 -1.0668
  138SOL     OW  412   1.147   0.300   1.212  0.0606 -0.3019  0.4344
  138SOL    HW1  413   1.197   0.376   1.163  0.2110  1.3535  1.0893
  138SOL    HW2  414   1.202   0.211   1.230 -0.8470 -3.0839 -1.7290
  139SOL     OW  415   2.336   3.080   3.058  0.0298  0.0400  0.0852
  139SOL    HW1  416   2.280   3.081   2.972  1.6063  0.9137 -0.7603
  139SOL    HW2  417   2.415   0.040   3.069 -2.3524  1.2951 -0.0781
  140SOL     OW  418   1.523   2.126   2.880 -0.3361 -0.1551 -0.3272
  140SOL    HW1  419   1.473   2.060   2.823 -1.0954 -1.9830 -0.4975
  140SOL    HW2  420   1.626   2.114   2.880 -0.2606 -0.4728 -1.8725
  141SOL     OW  421   0.713   0.983   1.561  0.3838  0.2990  0.1101
  141SOL    HW1  422   0.648   1.055   1.596 -1.3673  1.8300  3.9482
  141SOL    HW2  423   0.789   1.022   1.501 -0.7386 -2.0625 -0.6370
  142SOL     OW  424   2.570   0.113   3.057  0.2536  0.0332 -0.0228
  142SOL    HW1  425   2.613   0.170   0.017 -1.6468 -1.5534 -0.3844
  142SOL    HW2  426   2.637   0.059   3.009 -0.6570  0.9225 -1.8833
  143SOL     OW  427   0.740   2.461   3.012  0.6837  0.1342  0.1684
  143SOL    HW1  428   0.823   2.521   3.001 -1.8654  1.4171 -2.3662
  143SOL    HW2  429   0.694   2.448   2.919  0.4471  0.4965 -4.2001
  144SOL     OW  430   1.199   2.659   2.825 -0.1860  0.2551  0.1222
  144SOL    HW1  431   1.266   2.704   2.889  1.9705  0.2605  0.2328
  144SOL    HW2  432   1.139   2.726   2.775  0.3425 -1.4020 -0.9758
  145SOL     OW  433   2.386   1.610   0.150  0.2908  0.2166  0.1476
  145SOL    HW1  434   2.436   1.699   0.164  0.8922  1.9924  1.8747
  145SOL    HW2  435   2.286   1.625   0.126  2.4903  1.3076 -0.2675
  146SOL     OW  436   2.846   2.771   3.062  0.5595 -0.7572 -0.4857
  146SOL    HW1  437   2.820   2.839   0.028  0.7799  1.4567  0.4731
  146SOL    HW2  438   2.886   2.688   3.104  0.2538  0.9728  0.6407
  147SOL     OW  439   2.610   2.448   1.168  0.1586 -0.2223  0.7364
  147SOL    HW1  440   2.553   2.520   1.210 -1.2272  1.3297 -1.4795
  147SOL    HW2  441   2.568   2.423   1.077 -3.1164  2.4016  0.9917
  148SOL     OW  442   1.697   0.312   0.233 -0.1801  0.3861  0.4588
  148SOL    HW1  443   1.779   0.325   0.172  0.1362 -1.6123 -3.9070
  148SOL    HW2  444   1.618   0.309   0.167  1.4714 -0.2886  1.3050
  149SOL     OW  445   1.152   1.442   2.672 -0.1843  0.0190 -0.5584
  149SOL    HW1  446   1.106   1.377   2.734  0.9538  0.0184 -0.5011
  149SOL    HW2  447   1.093   1.522   2.663  1.6739 -3.2408  0.5065
  150SOL     OW  448   0.754   2.549   0.492 -0.1704 -0.0298  0.0039
  150SOL    HW1  449   0.765   2.498   0.405 -0.1656  1.6144 -4.0201
  150SOL    HW2  450   0.829   2.523   0.559 -0.5226  0.4664 -0.8387
  151SOL     OW  451   0.620   1.705   0.056  0.2894  0.0383  0.6669
  151SOL    HW1  452   0.710   1.721   0.001 -0.8328  0.6288 -1.7259
  151SOL    HW2  453   0.573   1.791   0.084 -0.0741 -0.2849  0.1091
  152SOL     OW  454   2.965   1.020   0.556 -0.1260  0.0157  0.4916
  152SOL    HW1  455   2.885   1.058   0.599 -0.4701 -0.2688 -1.7131
  152SOL    HW2  456   3.044   1.027   0.616 -0.0038  1.9375 -1.3946
  153SOL     OW  457   2.400   2.521   0.362 -0.2851 -0.1431  0.3804
  153SOL    HW1  458   2.476   2.553   0.423  2.1968  1.1077 -0.5237
  153SOL    HW2  459   2.363   2.590   0.296  0.8265  2.0229 -0.3891
  154SOL     OW  460   0.687   3.042   0.989  0.0549 -0.2182  0.4228
  154SOL    HW1  461   0.681   0.016   1.055  2.7445 -0.9862  1.7981
  154SOL    HW2  462   0.666   3.073   0.892  2.1966 -0.2247 -2.2098
  155SOL     OW  463   0.223   1.972   0.951  0.2619  0.0562 -0.0369
  155SOL    HW1  464   0.157   1.978   0.879  2.1845 -3.0579  3.3172
  155SOL    HW2  465   0.217   2.047   1.024  1.1894  5.0465  3.1933
  156SOL     OW  466   2.607   2.264   3.068  0.4742 -0.6158  0.0145
  156SOL    HW1  467   2.665   2.198   3.020 -2.1534  0.7024  0.6826
  156SOL    HW2  468   2.659   2.307   0.040  0.1272  1.0934 -0.8057
  157SOL     OW  469   1.190   2.124   1.411  0.3905  0.0390 -0.1462
  157SOL    HW1  470   1.118   2.143   1.479  0.7016 -0.1725  0.3535
  157SOL    HW2  471   1.146   2.059   1.342 -2.0599 -0.2993 -0.2170
  158SOL     OW  472   1.726   0.589   0.005  0.1444  0.4017 -0.1732
  158SOL    HW1  473   1.789   0.516   0.039 -0.4333  0.4316  0.4326
  158SOL    HW2  474   1.775   0.652   3.051  0.0699 -0.6899 -0.4979
  159SOL     OW  475   1.210   0.616   2.680  0.1123 -0.5144  0.1120
  159SOL    HW1  476   1.117   0.607   2.722 -0.6470 -0.4195 -0.5868
  159SOL    HW2  477   1.227   0.535   2.623  1.0857  1.1022 -0.0194
  160SOL     OW  478   1.259   1.631   0.344 -0.3080  0.2859 -0.8935
  160SOL    HW1  479   1.214   1.711   0.302  0.8545  0.9289  0.6276
  160SOL    HW2  480   1.207   1.546   0.332 -3.3405 -1.1369  0.0276
  161SOL     OW  481   0.085   2.412   2.973  0.4553  0.5993 -0.7193
  161SOL    HW1  482   0.117   2.450   2.888 -0.6740 -3.1407  3.9580
  161SOL    HW2  483   0.153   2.403   3.049  0.0092 -0.0539  3.3413
  162SOL     OW  484   0.708   2.739   0.972 -0.2996 -0.1755  0.1094
  162SOL    HW1  485   0.806   2.706   0.986  3.2068 -2.4521  1.3874
  162SOL    HW2  486   0.697   2.846   0.976 -0.1393  3.7905  0.6643
  163SOL     OW  487   2.711   1.016   3.022  0.9129 -0.1152  0.1381
  163SOL    HW1  488   2.617   0.985   2.988 -0.4427  0.1774  0.2209
  163SOL    HW2  489   2.758   0.931   3.045 -1.1091 -0.7789 -3.4406
  164SOL     OW  490   0.231   2.845   2.812  0.2361  0.3585 -0.3188
  164SOL    HW1  491   0.316   2.793   2.846  1.0518  0.8690 -2.3870
  164SOL    HW2  492   0.147   2.787   2.828 -0.1774 -1.1220 -0.7335
  165SOL     OW  493   2.279   0.358   1.310 -0.0202  0.7545 -0.4032
  165SOL    HW1  494   2.208   0.420   1.352  0.4056  0.1844  0.3141
  165SOL    HW2  495   2.224   0.278   1.268 -1.8810 -0.9961 -0.6735
  166SOL     OW  496   1.925   0.294   1.374  0.0789 -0.1379  0.3356
  166SOL    HW1  497   1.995   0.236   1.326  0.8181 -0.9762  0.8422
  166SOL    HW2  498   1.861   0.238   1.439 -1.1190 -0.5771  1.2470
  167SOL     OW  499   0.976   0.447   2.000  0.2014  0.3149 -0.0717
  167SOL    HW1  500   0.963   0.532   1.952 -0.8236 -0.2492  3.4599
  167SOL    HW2  501   0.902   0.435   2.074 -1.0366  1.7363  0.5173
  168SOL     OW  502   2.459   0.463   1.942  0.0334 -0.2071 -0.2622
  168SOL    HW1  503   2.438   0.371   1.969 -0.0357  2.2004 -2.5417
  168SOL    HW2  504   2.374   0.518   1.946  1.3549  0.5276  1.3547
  169SOL     OW  505   0.303   1.385   0.434  0.3468 -0.0581 -0.2047
  169SOL    HW1  506   0.238   1.418   0.361  1.6885  1.7076  2.2466
  169SOL    HW2  507   0.283   1.289   0.468 -0.1103  2.0667 -0.7297
  170SOL     OW  508   0.125   1.181   1.736 -0.0931 -0.5252 -0.3653
  170SOL    HW1  509   0.100   1.103   1.684  0.0840  2.7429  4.8776
  170SOL    HW2  510   0.126   1.151   1.832  1.3858  0.7294 -3.6386
  171SOL     OW  511   1.079   2.001   1.942  0.1490 -0.1736  0.1988
  171SOL    HW1  512   1.110   2.075   1.880  0.2466  0.7198 -2.3361
  171SOL    HW2  513   1.047   1.921   1.884  0.3225 -3.8743 -3.0191
  172SOL     OW  514   0.415   2.307   1.469  0.2648 -0.1605 -0.1674
  172SOL    HW1  515   0.395   2.380   1.536 -0.1190 -0.8874  0.8247
  172SOL    HW2  516   0.501   2.333   1.416  0.6546 -2.3475 -0.4444
  173SOL     OW  517   1.304   2.864   0.778 -0.3671  0.6295 -0.1941
  173SOL    HW1  518   1.315   2.923   0.698  0.4479 -1.9902  2.5393
  173SOL    HW2  519   1.322   2.769   0.751 -0.8913 -0.5882  1.4536
  174SOL     OW  520   1.199   2.770   0.191 -0.4675  0.1676 -0.2379
  174SOL    HW1  521   1.301   2.763   0.213  2.0740 -2.4162  3.7623
  174SOL    HW2  522   1.170   2.672   0.185 -0.0415 -0.3216 -0.1954
  175SOL     OW  523   0.979   1.059   2.861 -0.1031 -0.4438 -0.0359
  175SOL    HW1  524   0.991   1.161   2.852 -0.8262  2.7413  1.6823
  175SOL    HW2  525   0.943   1.019   2.775  1.1970  2.1321 -0.4362
  176SOL     OW  526   1.771   0.854   0.369 -0.3586  0.1173 -0.3987
  176SOL    HW1  527   1.800   0.855   0.271 -0.9351  1.5495  1.0555
  176SOL    HW2  528   1.668   0.873   0.370 -3.5504  0.0089  1.0934
  177SOL     OW  529   1.293   1.012   0.787  0.3436  0.1472 -0.2757
  177SOL    HW1  530   1.206   0.962   0.802  0.3263 -0.8550  0.3674
  177SOL    HW2  531   1.371   0.971   0.843 -1.6222 -0.7585  0.0853
  178SOL     OW  532   2.686   1.508   2.622  0.7583 -0.0710  0.0580
  178SOL    HW1  533   2.751   1.460   2.685  0.3837  1.3164 -0.1480
  178SOL    HW2  534   2.716   1.516   2.526  0.5142 -0.9394 -0.3002
  179SOL     OW  535   0.801   2.690   0.109  0.1845  0.0822 -0.4552
  179SOL    HW1  536   0.843   2.677   0.018  2.9309 -1.2490  3.5557
  179SOL    HW2  537   0.780   2.602   0.156 -2.0008 -0.7676  1.1797
  180SOL     OW  538   1.892   1.621   1.452 -0.2190  0.0081 -0.0906
  180SOL    HW1  539   1.960   1.558   1.403  2.8213  2.0846 -1.1379
  180SOL    HW2  540   1.814   1.572   1.489 -2.1769 -0.8538 -0.7080
  181SOL     OW  541   1.079   1.292   2.248  0.0780 -0.1863  0.6004
  181SOL    HW1  542   1.044   1.207   2.206  0.8969  0.2841  1.1822
  181SOL    HW2  543   1.145   1.269   2.328  0.8521  0.3118 -2.9020
  182SOL     OW  544   0.137   0.964   2.429  0.1162 -0.0698 -0.2792
  182SOL    HW1  545   0.159   0.985   2.528  1.5136 -0.5947 -0.7990
  182SOL    HW2  546   0.037   0.963   2.418  2.3188  1.3333 -0.5082
  183SOL     OW  547   1.405   0.246   2.495 -0.3531  0.7368  0.1544
  183SOL    HW1  548   1.459   0.293   2.572  2.8058 -5.0015  0.8491
  183SOL    HW2  549   1.415   0.145   2.514 -1.7020  1.2112 -1.0164
  184SOL     OW  550   0.147   0.647   1.322  0.0572  0.5525  0.3488
  184SOL    HW1  551   0.153   0.679   1.418  1.5210 -1.3421 -1.4482
  184SOL    HW2  552   0.054   0.655   1.283 -1.4920 -1.7324 -1.4097
  185SOL     OW  553   2.564   1.514   0.963 -0.7507  0.3281  0.3484
  185SOL    HW1  554   2.626   1.574   0.904  0.1847  0.1209  0.5027
  185SOL    HW2  555   2.625   1.437   1.003  2.6396 -1.4623  0.6810
  186SOL     OW  556   0.179   2.148   2.658 -0.1458  0.1716 -0.2112
  186SOL    HW1  557   0.239   2.124   2.577 -1.4118 -0.3860 -0.2949
  186SOL    HW2  558   0.083   2.154   2.628 -0.1968 -1.4927  0.7722
  187SOL     OW  559   2.525   1.864   2.935 -0.2181  0.2547 -0.0174
  187SOL    HW1  560   2.550   1.815   3.025 -0.2615  0.1849  0.2215
  187SOL    HW2  561   2.466   1.940   2.954  1.4486  0.8549  0.8850
  188SOL     OW  562   0.781   2.229   0.343  0.2748  0.2993 -0.8096
  188SOL    HW1  563   0.783   2.188   0.436  0.0600  0.1138 -0.4948
  188SOL    HW2  564   0.752   2.162   0.274 -2.0228  0.9809  2.7450
  189SOL     OW  565   2.637   0.858   0.164 -0.1427 -0.0731  0.2448
  189SOL    HW1  566   2.668   0.880   0.260  0.3445  0.1437 -2.7346
  189SOL    HW2  567   2.714   0.831   0.106 -1.4811  0.0310  0.3608
  190SOL     OW  568   0.611   1.716   1.952 -0.2676 -0.1186 -0.7847
  190SOL    HW1  569   0.573   1.704   2.042  1.9964  1.6389  0.4695
  190SOL    HW2  570   0.709   1.683   1.944  0.3051 -2.0694  0.4585
  191SOL     OW  571   2.500   0.518   1.625  0.2488  0.2623  0.0549
  191SOL    HW1  572   2.503   0.509   1.725 -0.3363 -2.0967 -1.9404
  191SOL    HW2  573   2.508   0.429   1.573  0.3754  0.5172  0.0040
  192SOL     OW  574   2.155   0.189   1.630 -0.2672 -0.3742 -0.1036
  192SOL    HW1  575   2.156   0.283   1.588  2.7610 -0.4573 -0.1712
  192SOL    HW2  576   2.067   0.141   1.607  0.0450  0.7879 -0.9470
  193SOL     OW  577   0.088   0.589   0.595  0.2972  0.1501  0.1291
  193SOL    HW1  578   0.009   0.603   0.657 -0.8200  1.0241 -2.1490
  193SOL    HW2  579   0.140   0.510   0.634 -0.6822  0.6198  0.2843
  194SOL     OW  580   1.520   2.629   1.618  0.2637 -0.5653 -0.3255
  194SOL    HW1  581   1.609   2.590   1.586  1.8258 -2.0101  0.7677
  194SOL    HW2  582   1.473   2.565   1.683  0.4452 -0.0127  1.0425
  195SOL     OW  583   2.400   0.597   0.928 -0.1642  0.5535  0.2937
  195SOL    HW1  584   2.502   0.576   0.916 -0.2676 -0.8946 -2.8363
  195SOL    HW2  585   2.385   0.692   0.969 -0.8625  0.9072  1.2560
  196SOL     OW  586   1.595   2.236   1.989  0.6570 -0.0412 -0.1137
  196SOL    HW1  587   1.616   2.255   2.087 -1.1706 -1.2278 -0.3122
  196SOL    HW2  588   1.505   2.278   1.969 -0.5324  2.7572 -2.0218
  197SOL     OW  589   0.454   3.050   3.075  0.4829 -0.1506  0.1832
  197SOL    HW1  590   0.387   3.091   3.014  0.1678 -0.2986  0.8104
  197SOL    HW2  591   0.405   2.998   0.046 -2.6168 -0.3101  0.5178
  198SOL     OW  592   0.988   1.388   0.729 -0.0738  0.3428  0.1405
  198SOL    HW1  593   1.091   1.383   0.726  0.6956 -0.3016 -2.5247
  198SOL    HW2  594   0.939   1.299   0.709 -1.7793 -0.0902 -0.2041
  199SOL     OW  595   2.483   0.862   1.773 -0.0333 -0.4142  0.1705
  199SOL    HW1  596   2.562   0.798   1.789 -0.9826 -1.1799  1.0366
  199SOL    HW2  597   2.513   0.953   1.743  0.8348  2.7994  1.0106
  200SOL     OW  598   2.399   2.605   2.291  0.5187  0.6443  0.4624
  200SOL    HW1  599   2.381   2.703   2.317  0.0425 -0.4001 -2.5895
  200SOL    HW2  600   2.358   2.542   2.360  2.9498  1.4295 -0.0300
  201SOL     OW  601   2.772   0.228   1.270  0.2166  0.4688 -0.1697
  201SOL    HW1  602   2.805   0.134   1.292 -4.0170  1.0698 -1.0492
  201SOL    HW2  603   2.705   0.232   1.198  2.9321  0.2173  1.6930
  202SOL     OW  604   2.045   0.100   0.395 -0.1051 -0.0860  0.1658
  202SOL    HW1  605   2.133   0.102   0.350  2.6541 -0.0028  0.8833
  202SOL    HW2  606   2.009   0.193   0.427 -0.0174  0.1026 -0.0311
  203SOL     OW  607   1.344   1.843   1.996  0.2365 -0.0791 -0.2837
  203SOL    HW1  608   1.287   1.918   1.952 -2.0320  2.1137 -1.5040
  203SOL    HW2  609   1.333   1.840   2.098  0.4109  0.6784 -2.3942
  204SOL     OW  610   0.968   1.602   2.565  0.5803  0.3750 -0.6933
  204SOL    HW1  611   0.905   1.522   2.568  0.2419  2.3271 -1.2544
  204SOL    HW2  612   0.997   1.627   2.469 -1.4230  0.3660 -0.8783
  205SOL     OW  613   0.985   1.733   1.389  0.4069 -0.8568 -0.0129
  205SOL    HW1  614   1.017   1.640   1.364  1.0129  0.9711  1.3052
  205SOL    HW2  615   0.903   1.717   1.448 -1.0255 -1.2234 -0.0471
  206SOL     OW  616   2.876   0.552   2.959 -0.3674  0.3843  0.5403
  206SOL    HW1  617   2.858   0.553   2.863 -0.3218  0.1864  0.9218
  206SOL    HW2  618   2.818   0.485   3.005  2.6494  1.0240 -0.6479
  207SOL     OW  619   1.752   2.803   2.378 -0.1230 -0.5241 -0.9183
  207SOL    HW1  620   1.805   2.862   2.318 -1.0662 -0.1948 -0.2231
  207SOL    HW2  621   1.717   2.720   2.334  0.9654  0.7268  0.1486
  208SOL     OW  622   0.656   2.405   1.307 -0.2721 -0.2589  0.1422
  208SOL    HW1  623   0.739   2.455   1.316 -1.3911 -1.1531 -1.7572
  208SOL    HW2  624   0.601   2.433   1.227 -0.7130  0.8907  0.0568
  209SOL     OW  625   1.423   1.144   2.348 -0.7204  0.2705  0.6600
  209SOL    HW1  626   1.474   1.225   2.312  0.7713 -1.7815  0.0580
  209SOL    HW2  627   1.359   1.173   2.418  0.0606 -1.5355  1.0866
  210SOL     OW  628   1.845   0.982   1.164 -0.3247  0.6125 -0.6851
  210SOL    HW1  629   1.859   0.993   1.069  1.1775  0.3864  2.9588
  210SOL    HW2  630   1.749   0.955   1.180 -0.2294 -0.3545  3.7704
  211SOL     OW  631   0.975   2.898   0.583  0.6840  0.4492  0.1032
  211SOL    HW1  632   0.880   2.865   0.553 -1.6765 -1.8820  0.4120
  211SOL    HW2  633   0.992   2.879   0.682  1.2154 -1.4021  0.7963
  212SOL     OW  634   1.748   1.648   0.198  1.1013  0.3776 -0.2067
  212SOL    HW1  635   1.671   1.598   0.159 -2.0674  0.4892  0.5278
  212SOL    HW2  636   1.726   1.702   0.280  0.9082 -3.0644  0.1677
  213SOL     OW  637   1.553   0.377   2.710  0.1777  0.0779  0.1398
  213SOL    HW1  638   1.534   0.460   2.770 -1.7161 -1.6563  1.0993
  213SOL    HW2  639   1.651   0.354   2.702 -1.9922  0.1485 -2.2033
  214SOL     OW  640   1.063   1.448   1.990  0.2856 -0.1085  0.2015
  214SOL    HW1  641   1.075   1.405   2.077  1.3986  0.2841 -3.3797
  214SOL    HW2  642   1.145   1.501   1.962 -2.3920 -2.2638  2.5187
  215SOL     OW  643   0.938   1.885   0.334 -0.1714  0.2219 -0.0160
  215SOL    HW1  644   0.899   1.948   0.270 -0.4519  0.6493  1.8113
  215SOL    HW2  645   0.868   1.828   0.377 -0.5209  4.2414  1.0724
  216SOL     OW  646   0.301   2.872   2.207  0.2101  0.1939  0.5391
  216SOL    HW1  647   0.329   2.965   2.227  2.3073  1.4037 -0.4143
  216SOL    HW2  648   0.319   2.812   2.284  1.2848  2.4139  0.8984
  217SOL     OW  649   2.304   1.081   0.916  0.1769 -0.4821  0.3943
  217SOL    HW1  650   2.318   1.157   0.989  0.1012  1.0370  2.0534
  217SOL    HW2  651   2.262   1.116   0.832  1.8521 -2.7221  1.9470
  218SOL     OW  652   1.719   1.612   1.819 -0.0335 -0.5206 -0.6102
  218SOL    HW1  653   1.687   1.694   1.871  2.0051 -1.4748  0.7461
  218SOL    HW2  654   1.820   1.607   1.834 -1.8637  0.9443  3.0636
  219SOL     OW  655   1.968   1.523   0.101  0.2860 -0.3490  0.3321
  219SOL    HW1  656   1.934   1.486   0.010 -0.1476 -3.7396 -1.8291
  219SOL    HW2  657   1.893   1.577   0.144 -3.3095  0.3473  0.1775
  220SOL     OW  658   1.274   1.252   0.911 -0.1070 -0.2641  0.5003
  220SOL    HW1  659   1.281   1.330   0.843 -0.7819 -1.0097  2.4693
  220SOL    HW2  660   1.288   1.168   0.855  1.3410  0.1802  0.1275
  221SOL     OW  661   0.961   0.592   2.795 -0.0357  0.1025  0.0308
  221SOL    HW1  662   0.929   0.629   2.706 -0.6501 -1.8838  1.8323
  221SOL    HW2  663   0.881   0.570   2.849  0.7739 -0.1026 -1.2593
  222SOL     OW  664   1.097   1.392   0.324 -0.0581 -0.5683  0.0131
  222SOL    HW1  665   1.105   1.298   0.344 -0.0205 -0.9928 -0.8001
  222SOL    HW2  666   1.042   1.406   0.236  0.3275  1.5057 -1.3983
  223SOL     OW  667   0.986   2.882   2.891  0.0097  0.3193  0.8692
  223SOL    HW1  668   1.083   2.915   2.891  2.5435  1.3255 -2.9661
  223SOL    HW2  669   0.940   2.913   2.981  0.8018  1.8668 -1.6111
  224SOL     OW  670   2.504   0.309   1.464  0.5703 -0.4164  0.2201
  224SOL    HW1  671   2.411   0.329   1.435 -1.6118 -0.5541  2.7034
  224SOL    HW2  672   2.569   0.303   1.388 -0.4351  0.6862 -0.2885
  225SOL     OW  673   0.688   0.158   1.145 -0.5929  0.3063  0.1811
  225SOL    HW1  674   0.591   0.185   1.161 -0.9215 -2.0083 -3.0874
  225SOL    HW2  675   0.744   0.228   1.100  0.4490 -1.5148  0.8670
  226SOL     OW  676   1.478   1.728   2.868 -0.3347 -0.3785 -0.5623
  226SOL    HW1  677   1.472   1.654   2.794 -0.8255  2.1803 -0.7627
  226SOL    HW2  678   1.394   1.724   2.927 -1.1480  0.3087  0.3617
  227SOL     OW  679   1.031   1.466   1.323 -0.1849 -0.3917 -0.5002
  227SOL    HW1  680   1.034   1.462   1.221  2.0769  3.0669 -0.6337
  227SOL    HW2  681   1.120   1.440   1.370  0.3695 -1.9601  3.0047
  228SOL     OW  682   0.608   1.801   0.689  0.2101  0.4865 -0.0170
  228SOL    HW1  683   0.632   1.721   0.749  0.3767 -0.8906  2.2403
  228SOL    HW2  684   0.572   1.875   0.748  0.1558 -0.3287 -2.0315
  229SOL     OW  685   1.241   0.560   0.106 -0.2445 -0.0279  0.0276
  229SOL    HW1  686   1.176   0.610   0.049  0.7657  0.5407  1.7045
  229SOL    HW2  687   1.332   0.604   0.117  0.3583 -0.5044 -0.3396
  230SOL     OW  688   1.245   0.506   2.069 -0.4708  0.3625  0.0942
  230SOL    HW1  689   1.152   0.468   2.070 -2.7837  2.7436  1.1615
  230SOL    HW2  690   1.305   0.460   2.139  1.3540  0.5494  1.0837
  231SOL     OW  691   1.214   1.676   2.284  0.0112  0.1338  0.5768
  231SOL    HW1  692   1.254   1.765   2.261 -0.5854 -0.3952  1.0717
  231SOL    HW2  693   1.121   1.672   2.245 -4.1945 -0.2109 -1.5918
  232SOL     OW  694   2.326   2.043   0.911  0.9044 -0.0974 -0.1555
  232SOL    HW1  695   2.426   2.031   0.919 -0.1356 -3.2853  0.7293
  232SOL    HW2  696   2.274   1.953   0.905  0.9233 -0.5675 -0.1163
  233SOL     OW  697   2.623   2.801   0.246 -0.0758 -0.1027 -0.6659
  233SOL    HW1  698   2.693   2.871   0.231  0.3274 -2.0721 -2.6629
  233SOL    HW2  699   2.539   2.829   0.197  0.9580 -0.5837 -2.1087
  234SOL     OW  700   1.040   0.223   2.878 -0.1459 -0.5576  0.0675
  234SOL    HW1  701   1.075   0.129   2.865 -0.4289 -1.0801  1.1704
  234SOL    HW2  702   1.107   0.285   2.920  0.6117 -2.0396  0.0214
  235SOL     OW  703   2.472   0.153   2.606  0.2014 -0.0961  0.1876
  235SOL    HW1  704   2.425   0.152   2.700 -2.3709  2.3382  0.0629
  235SOL    HW2  705   2.541   0.229   2.602  3.4751 -0.6085  1.9168
  236SOL     OW  706   2.042   2.498   2.078  0.0655  0.4919  0.4350
  236SOL    HW1  707   2.017   2.492   2.180 -0.4488  1.5315  2.6372
  236SOL    HW2  708   2.003   2.421   2.020  2.9285 -0.5371 -0.5777
  237SOL     OW  709   0.855   1.478   2.283 -0.4752  0.0018 -0.3320
  237SOL    HW1  710   0.893   1.576   2.272  0.0802  3.0689 -0.6836
  237SOL    HW2  711   0.931   1.409   2.299 -2.2482  1.2866  0.7809
  238SOL     OW  712   1.625   0.017   2.340 -0.0493 -0.7025  0.0869
  238SOL    HW1  713   1.564   0.031   2.421  0.8095  0.6007 -0.4542
  238SOL    HW2  714   1.675   3.033   2.356  0.2532  0.6142  0.5001
  239SOL     OW  715   3.072   2.124   1.825 -0.3483 -0.0859 -0.0735
  239SOL    HW1  716   0.015   2.184   1.894 -1.1834  0.7110  0.5995
  239SOL    HW2  717   3.055   2.031   1.864 -0.1985 -1.9884 -3.3974
  240SOL     OW  718   3.002   2.659   0.764 -0.3715  0.1335  0.3936
  240SOL    HW1  719   2.925   2.607   0.810 -1.4524 -1.6061  1.8544
  240SOL    HW2  720   2.976   2.651   0.665  2.8023  0.0016 -1.2457
  241SOL     OW  721   2.115   1.472   0.873  0.0203  0.4212 -0.3041
  241SOL    HW1  722   2.207   1.434   0.846  1.2237 -0.5065 -1.3637
  241SOL    HW2  723   2.044   1.404   0.851  1.9498 -0.3120  0.5901
  242SOL     OW  724   1.868   2.002   2.684  0.3325 -0.1297  0.8696
  242SOL    HW1  725   1.959   2.035   2.673 -1.0037  0.6464 -0.8191
  242SOL    HW2  726   1.832   2.026   2.775  0.4145  1.4681 -1.3902
  243SOL     OW  727   0.686   2.447   1.645  0.0366 -0.2020  0.8165
  243SOL    HW1  728   0.674   2.481   1.742  0.6347 -0.0239  1.0295
  243SOL    HW2  729   0.636   2.510   1.580  0.2346  0.7788 -0.8127
  244SOL     OW  730   2.105   3.090   2.907 -0.4244 -0.4597  0.0187
  244SOL    HW1  731   2.101   0.088   2.897 -1.2251  1.5289 -1.4983
  244SOL    HW2  732   2.099   3.051   2.815  1.0384  4.5257  1.2683
  245SOL     OW  733   1.487   2.946   1.002 -0.1107 -0.5764  0.1465
  245SOL    HW1  734   1.469   2.893   1.090 -2.1463 -1.3528  1.1850
  245SOL    HW2  735   1.432   2.912   0.919  0.2194 -0.2687  0.7232
  246SOL     OW  736   1.618   2.381   0.298 -0.4074  0.5457 -0.7283
  246SOL    HW1  737   1.666   2.470   0.307  0.4590  1.4373 -3.2842
  246SOL    HW2  738   1.654   2.325   0.218  1.5103  1.0764  0.1664
  247SOL     OW  739   0.797   0.377   2.184 -0.2427 -0.0063  0.7074
  247SOL    HW1  740   0.701   0.384   2.144  1.1950 -0.6283 -1.7577
  247SOL    HW2  741   0.795   0.341   2.275  0.6137  2.2689 -1.1138
  248SOL     OW  742   0.329   1.743   1.709  0.3676  0.2396 -0.2930
  248SOL    HW1  743   0.427   1.768   1.687  0.7373  2.7822  0.2212
  248SOL    HW2  744   0.264   1.761   1.636  1.8690  1.0595 -1.2272
  249SOL     OW  745   2.370   0.395   0.521 -0.0658  0.4854 -0.3703
  249SOL    HW1  746   2.375   0.325   0.446 -1.0247  1.2702  3.1225
  249SOL    HW2  747   2.281   0.441   0.516  0.2536  1.9043 -0.0646
  250SOL     OW  748   0.404   0.328   0.524  0.1805 -0.0139  0.0855
  250SOL    HW1  749   0.482   0.390   0.522 -0.6345  0.3250 -0.9970
  250SOL    HW2  750   0.378   0.309   0.426 -0.9720  0.6126 -3.5450
  251SOL     OW  751   1.781   0.270   3.001 -0.1106  0.0152  0.0475
  251SOL    HW1  752   1.767   0.314   2.910 -0.3672  0.8321  0.2796
  251SOL    HW2  753   1.786   0.164   2.990 -1.1476 -3.2543 -1.3682
  252SOL     OW  754   1.618   1.771   2.016  0.1084  0.2683 -0.0162
  252SOL    HW1  755   1.657   1.710   2.089  0.8543 -1.8820  0.1305
  252SOL    HW2  756   1.523   1.795   2.030  4.0576  1.3911  2.0812
  253SOL     OW  757   2.653   2.336   1.699  0.4840  1.0201  0.1122
  253SOL    HW1  758   2.752   2.326   1.715 -1.6859  1.8870 -1.8526
  253SOL    HW2  759   2.603   2.241   1.695 -0.3261 -1.6789 -1.0346
  254SOL     OW  760   3.041   1.436   1.151 -0.0437  0.3415 -0.1796
  254SOL    HW1  761   3.013   1.337   1.166 -2.9609 -0.9162 -0.7637
  254SOL    HW2  762   0.034   1.451   1.182  1.3308  0.6953  0.0047
  255SOL     OW  763   1.061   0.615   1.348  0.1792  0.1497  0.1836
  255SOL    HW1  764   1.037   0.526   1.386  0.3992 -0.0348  2.5126
  255SOL    HW2  765   1.169   0.615   1.336  3.2773  1.4554 -1.6177
  256SOL     OW  766   2.087   2.546   1.628  0.6525 -0.2713 -0.3379
  256SOL    HW1  767   2.104   2.645   1.653 -2.2879  2.6622  0.1410
  256SOL    HW2  768   1.985   2.529   1.619  0.6261  0.4023 -0.2840
  257SOL     OW  769   0.589   2.658   2.622 -0.2344  0.4213 -0.2326
  257SOL    HW1  770   0.679   2.705   2.635  1.1551  1.1133  2.2800
  257SOL    HW2  771   0.593   2.564   2.661 -2.3944 -0.8925 -0.0566
  258SOL     OW  772   0.736   2.449   0.180 -0.1232  0.0439 -0.4479
  258SOL    HW1  773   0.726   2.365   0.237  1.4554  0.4024  2.5544
  258SOL    HW2  774   0.726   2.441   0.080 -0.1851  2.9361  1.6667
  259SOL     OW  775   0.899   0.072   2.035 -0.5551  0.4160  0.0994
  259SOL    HW1  776   0.954   0.138   1.979 -0.2820 -0.1326 -0.2036
  259SOL    HW2  777   0.864   3.100   1.978  2.0900 -1.0191 -0.6214
  260SOL     OW  778   1.789   0.710   0.952  0.5085  0.6005  0.0490
  260SOL    HW1  779   1.751   0.764   0.871 -0.5730  0.4933  0.2189
  260SOL    HW2  780   1.844   0.766   1.011 -3.6996  0.3694 -1.8855
  261SOL     OW  781   0.546   0.261   2.502 -0.5661  0.4105  0.0054
  261SOL    HW1  782   0.537   0.321   2.584  0.1368  1.3496 -0.5892
  261SOL    HW2  783   0.646   0.257   2.476  1.0234  1.7591  1.0155
  262SOL     OW  784   0.149   2.344   1.929 -0.5138 -0.2572  0.0061
  262SOL    HW1  785   0.135   2.415   1.998  0.1279  0.2181  0.3417
  262SOL    HW2  786   0.239   2.295   1.943  2.3358 -2.1685  1.4023
  263SOL     OW  787   2.779   1.686   2.148  0.1776 -0.5237  0.0442
  263SOL    HW1  788   2.732   1.767   2.185  1.6600 -1.3169 -3.7820
  263SOL    HW2  789   2.871   1.720   2.120  1.6172 -0.2024 -0.1364
  264SOL     OW  790   0.602   0.992   1.044 -0.3483 -0.2751 -0.6093
  264SOL    HW1  791   0.565   0.984   1.138  0.0999  0.3340 -2.1906
  264SOL    HW2  792   0.529   1.008   0.968 -3.6064  1.3982 -0.1503
  265SOL     OW  793   1.084   2.427   0.907 -0.3689 -0.6104  0.0124
  265SOL    HW1  794   1.028   2.351   0.943  0.6140  4.5544 -0.6312
  265SOL    HW2  795   1.182   2.425   0.938 -1.0172  1.4032  1.7733
  266SOL     OW  796   1.656   1.077   0.988 -0.0476  0.2062  0.3816
  266SOL    HW1  797   1.673   1.153   1.051  1.2102 -1.0593 -1.2197
  266SOL    HW2  798   1.692   1.103   0.898  1.4510  0.0474  2.3310
  267SOL     OW  799   2.667   1.204   0.095 -0.4275 -0.4954  0.1696
  267SOL    HW1  800   2.710   1.188   0.187 -0.6242 -0.8613  5.1416
  267SOL    HW2  801   2.694   1.128   0.025  2.0830 -1.0576 -2.0992
  268SOL     OW  802   1.254   0.392   0.323  0.2764 -0.6339  0.0605
  268SOL    HW1  803   1.268   0.468   0.394 -0.3431  3.4253 -1.0919
  268SOL    HW2  804   1.239   0.441   0.229 -1.6837  2.2393 -1.0579
  269SOL     OW  805   2.213   0.541   2.802 -0.4444  0.6075  0.3782
  269SOL    HW1  806   2.313   0.514   2.792  2.0434 -2.4241 -0.2038
  269SOL    HW2  807   2.187   0.592   2.890 -0.5190 -1.7417  1.2663
  270SOL     OW  808   0.213   0.741   3.033  0.7359  0.3171  0.2650
  270SOL    HW1  809   0.223   0.669   3.104  1.5726  0.1609 -1.2743
  270SOL    HW2  810   0.126   0.792   3.045  1.4930 -1.8458 -0.9541
  271SOL     OW  811   2.757   0.927   0.404  0.1285 -0.1071  0.1020
  271SOL    HW1  812   2.856   0.938   0.397 -3.1432 -2.0180  1.6896
  271SOL    HW2  813   2.716   1.014   0.421 -0.5233 -2.9056 -1.5006
  272SOL     OW  814   0.022   2.676   2.807  0.3273 -0.0197  0.1607
  272SOL    HW1  815   0.043   2.645   2.714  1.3652 -0.7674  0.8865
  272SOL    HW2  816   3.052   2.622   2.850  0.9033  3.4069 -1.7674
  273SOL     OW  817   2.814   2.969   0.151 -0.0204  0.2968 -0.0497
  273SOL    HW1  818   2.912   2.990   0.140 -1.9007  2.4122  0.5000
  273SOL    HW2  819   2.750   3.033   0.102 -0.8424  0.8017 -1.3575
  274SOL     OW  820   0.533   2.541   1.073  0.4151  0.3468 -0.1150
  274SOL    HW1  821   0.596   2.609   1.038 -0.6236 -0.7033  0.7225
  274SOL    HW2  822   0.518   2.469   1.003 -0.0665  0.3813  4.7192
  275SOL     OW  823   2.908   1.421   0.243  0.0493  0.0087  0.2353
  275SOL    HW1  824   2.951   1.453   0.155 -0.6915 -1.3143  1.8733
  275SOL    HW2  825   2.977   1.374   0.302  0.7106  2.9627 -1.2710
  276SOL     OW  826   2.882   1.227   1.743  0.0251 -0.7437 -0.5102
  276SOL    HW1  827   2.899   1.127   1.760  0.3566  1.5939  0.9516
  276SOL    HW2  828   2.943   1.271   1.672 -4.0629  2.0185  2.9043
  277SOL     OW  829   2.123   0.178   1.190  0.2353  0.7806  0.1467
  277SOL    HW1  830   2.160   0.084   1.171  0.6740 -0.3206 -0.4784
  277SOL    HW2  831   2.099   0.226   1.102 -1.5369 -0.8860  1.2159
  278SOL     OW  832   1.397   2.179   2.217  0.0218 -0.3045 -0.4557
  278SOL    HW1  833   1.486   2.198   2.253 -2.6236 -2.6897 -0.2982
  278SOL    HW2  834   1.373   2.243   2.143  1.2583  0.5043 -0.8650
  279SOL     OW  835   1.625   1.781   0.535  0.1513  0.2614 -0.2928
  279SOL    HW1  836   1.726   1.763   0.538  0.6269 -0.2747  0.9388
  279SOL    HW2  837   1.604   1.856   0.601 -0.2137  0.9652 -1.5798
  280SOL     OW  838   0.327   1.354   1.116 -0.0523  0.1444 -0.2279
  280SOL    HW1  839   0.368   1.425   1.061 -1.0791 -1.7755 -0.8622
  280SOL    HW2  840   0.270   1.389   1.188  0.3646 -2.6984  0.1612
  281SOL     OW  841   0.092   1.341   2.399 -0.0582 -0.0862  0.4634
  281SOL    HW1  842   0.191   1.360   2.430 -0.7582  0.5852 -0.5960
  281SOL    HW2  843   0.022   1.377   2.470 -2.7133  0.8297 -0.8787
  282SOL     OW  844   0.414   1.650   0.351  0.3956  0.3692  0.3632
  282SOL    HW1  845   0.330   1.596   0.327 -1.1372 -1.5119 -0.4013
  282SOL    HW2  846   0.473   1.603   0.422 -2.0368 -0.1250 -1.2265
  283SOL     OW  847   2.369   2.342   0.072 -0.4616 -0.3375  0.0701
  283SOL    HW1  848   2.380   2.426   0.129  0.8724  1.3545  1.3462
  283SOL    HW2  849   2.456   2.314   0.028 -1.6340  0.7518 -1.1588
  284SOL     OW  850   1.066   0.043   0.611  0.8602  0.2436 -0.0986
  284SOL    HW1  851   1.036   3.048   0.595 -0.5583  0.5145 -1.8690
  284SOL    HW2  852   1.032   0.105   0.533  0.0269 -1.7833  2.8859
  285SOL     OW  853   2.313   1.195   2.860 -0.3312 -0.0402 -0.2847
  285SOL    HW1  854   2.369   1.103   2.869 -0.5003 -0.4228  1.3670
  285SOL    HW2  855   2.372   1.277   2.889  2.9087  0.1566  1.0399
  286SOL     OW  856   1.850   2.311   0.990 -0.0527  0.1513  0.1596
  286SOL    HW1  857   1.841   2.360   1.076 -1.0414 -0.3281 -2.9380
  286SOL    HW2  858   1.770   2.242   0.978 -1.6554 -3.9837 -0.7439
  287SOL     OW  859   1.110   0.363   0.699 -0.2275  0.4710 -0.3432
  287SOL    HW1  860   1.123   0.298   0.624 -0.5048  2.0730  1.8687
  287SOL    HW2  861   1.204   0.386   0.736  0.1436  1.7239 -0.3686
  288SOL     OW  862   1.235   2.230   2.695  0.3583  0.2311  0.3341
  288SOL    HW1  863   1.149   2.244   2.745  2.2046  1.2321 -1.4411
  288SOL    HW2  864   1.296   2.304   2.725  1.5619  0.9483 -0.6295
  289SOL     OW  865   0.176   1.488   1.269 -0.1909 -0.6273  0.1246
  289SOL    HW1  866   0.175   1.593   1.259  1.5183  4.3479 -0.6685
  289SOL    HW2  867   0.192   1.465   1.367  0.9752 -0.1142 -0.8835
  290SOL     OW  868   1.617   2.139   0.978 -0.1343  0.0217 -0.9071
  290SOL    HW1  869   1.537   2.105   1.033 -2.9612  0.2745  0.8796
  290SOL    HW2  870   1.667   2.054   0.949 -1.8198 -0.3905  0.2856
  291SOL     OW  871   1.945   2.825   0.248 -0.3333 -0.2963 -0.5740
  291SOL    HW1  872   1.862   2.848   0.306 -0.3043 -1.5193 -0.7023
  291SOL    HW2  873   2.027   2.812   0.304 -4.1809  0.5426  0.8192
  292SOL     OW  874   0.747   0.303   1.659 -0.0979  0.2074  0.2557
  292SOL    HW1  875   0.796   0.389   1.638  1.7064  0.6337 -2.2559
  292SOL    HW2  876   0.742   0.297   1.761  1.8256  1.8311 -0.1891
  293SOL     OW  877   2.469   2.379   0.931 -0.2975  0.3121 -0.4908
  293SOL    HW1  878   2.510   2.442   0.861 -2.5713  2.2405 -0.4547
  293SOL    HW2  879   2.378   2.414   0.967  3.0586 -1.6194 -0.4187
  294SOL     OW  880   0.591   0.689   2.377 -0.5670  0.3859  0.4669
  294SOL    HW1  881   0.688   0.659   2.354  1.2669 -1.4503 -0.1917
  294SOL    HW2  882   0.558   0.641   2.462 -0.3314 -2.0550 -0.1839
  295SOL     OW  883   1.498   1.584   1.265  0.2660 -0.0740 -0.2794
  295SOL    HW1  884   1.584   1.638   1.274 -2.8846 -1.9976  1.2580
  295SOL    HW2  885   1.485   1.540   1.178  2.6735  0.0956  2.5639
  296SOL     OW  886   2.609   1.810   0.190 -0.3336 -0.0547 -0.4332
  296SOL    HW1  887   2.685   1.863   0.147  1.1799  0.7219  3.9321
  296SOL    HW2  888   2.556   1.878   0.243  2.6913  1.1158  2.6983
  297SOL     OW  889   2.234   0.119   0.165 -0.0663 -0.0561  0.6014
  297SOL    HW1  890   2.260   0.068   0.078  2.3495  2.6449 -0.5806
  297SOL    HW2  891   2.316   0.128   0.226 -0.8165  3.3040 -0.5269
  298SOL     OW  892   0.834   2.771   2.652 -0.2396  0.3944 -0.6101
  298SOL    HW1  893   0.909   2.710   2.614  2.8819 -1.6603  1.7512
  298SOL    HW2  894   0.868   2.826   2.734 -1.8090  0.7616 -1.9043
  299SOL     OW  895   0.936   2.024   2.166 -0.3002 -0.1331 -0.0508
  299SOL    HW1  896   1.001   2.000   2.090  0.4991  3.0391 -2.2470
  299SOL    HW2  897   0.985   2.062   2.248 -2.0257  0.2337 -1.8292
  300SOL     OW  898   2.783   0.229   2.825 -0.2116 -0.0070  0.0856
  300SOL    HW1  899   2.743   0.135   2.840 -0.8946 -0.9491 -0.8687
  300SOL    HW2  900   2.745   0.272   2.740 -0.4100 -0.0383 -0.3356
  301SOL     OW  901   0.941   0.968   1.933 -0.3093  0.0737 -0.3060
  301SOL    HW1  902   0.840   0.974   1.917 -1.1932  0.8751 -0.9314
  301SOL    HW2  903   0.992   0.912   1.864 -1.9655 -2.4382 -0.4558
  302SOL     OW  904   2.960   2.369   0.476 -0.5380  0.2869  0.4805
  302SOL    HW1  905   3.056   2.343   0.503  0.6947 -1.5101  2.3882
  302SOL    HW2  906   2.924   2.304   0.405  1.7632 -1.6754 -0.1644
  303SOL     OW  907   2.519   2.549   1.855  0.0341  0.1820 -0.0607
  303SOL    HW1  908   2.560   2.485   1.791  0.5201  1.0636 -0.0593
  303SOL    HW2  909   2.438   2.514   1.908 -1.1672 -0.9262  0.8513
  304SOL     OW  910   2.944   0.960   1.767  0.0108 -0.0200  0.2474
  304SOL    HW1  911   2.968   0.920   1.859 -1.6125 -2.1866 -0.0027
  304SOL    HW2  912   3.024   0.939   1.705  1.6160 -1.6802 -0.1003
  305SOL     OW  913   0.749   1.388   1.316 -0.5682 -0.3621  0.3818
  305SOL    HW1  914   0.844   1.412   1.292  0.1762  1.8083 -0.4020
  305SOL    HW2  915   0.685   1.366   1.242 -2.8381 -1.8741  1.7095
  306SOL     OW  916   0.283   1.425   2.017  0.4724  0.1962 -0.3384
  306SOL    HW1  917   0.217   1.354   2.057 -2.0494 -1.2864  0.6284
  306SOL    HW2  918   0.346   1.464   2.089 -1.0800  0.6610  0.8235
  307SOL     OW  919   0.912   0.657   1.831  0.7493  0.4736 -0.1927
  307SOL    HW1  920   0.885   0.617   1.742 -1.8066  0.0809  3.0812
  307SOL    HW2  921   0.996   0.711   1.813 -2.9685  0.0471 -1.2802
  308SOL     OW  922   2.960   1.179   1.208 -0.0693  0.2324  0.2861
  308SOL    HW1  923   2.886   1.234   1.252  0.9322  0.6887 -0.4303
  308SOL    HW2  924   2.921   1.093   1.169 -2.1484  0.4671  1.8364
  309SOL     OW  925   2.695   1.302   1.063 -0.5045 -0.5582  0.0838
  309SOL    HW1  926   2.721   1.275   1.160  0.2165 -1.3581  1.9046
  309SOL    HW2  927   2.724   1.237   0.991  0.1334  1.7013 -1.4720
  310SOL     OW  928   3.021   2.253   2.662  0.4578  0.1275  0.8030
  310SOL    HW1  929   3.009   2.197   2.749  0.9240  0.1484  1.6452
  310SOL    HW2  930   2.967   2.213   2.581 -0.7267 -1.2100  0.2686
  311SOL     OW  931   2.732   2.502   2.600  0.0078 -0.0853 -0.0287
  311SOL    HW1  932   2.808   2.540   2.543  1.0099  1.1210  1.3896
  311SOL    HW2  933   2.656   2.572   2.609  1.3158  0.7516  0.3385
  312SOL     OW  934   2.221   1.977   0.124  0.3634 -0.1712  0.3053
  312SOL    HW1  935   2.163   2.043   0.181  0.0491  1.7634 -0.4262
  312SOL    HW2  936   2.185   1.883   0.125  2.3115  0.9442  0.7535
  313SOL     OW  937   2.607   2.911   0.541 -0.3282 -0.6490  0.4910
  313SOL    HW1  938   2.647   2.911   0.632 -1.3435 -1.0130  0.4132
  313SOL    HW2  939   2.628   2.825   0.491 -2.4405  1.1943 -1.6293
  314SOL     OW  940   1.912   1.188   0.155  0.2154  0.3977 -0.2507
  314SOL    HW1  941   1.875   1.277   0.133  3.0241  0.1191  2.9332
  314SOL    HW2  942   1.856   1.112   0.120 -3.1622  1.6398 -0.8732
  315SOL     OW  943   1.346   2.843   2.036  0.1371 -0.8780 -0.1597
  315SOL    HW1  944   1.249   2.830   2.015  2.6153  1.8946  2.5121
  315SOL    HW2  945   1.377   2.939   2.022 -3.1539 -0.6035 -1.6236
  316SOL     OW  946   2.827   0.781   3.085  0.4244 -0.4506  0.0323
  316SOL    HW1  947   2.926   0.812   3.096  1.5309  0.2528 -2.3883
  316SOL    HW2  948   2.827   0.687   3.046 -1.9353 -2.7705 -0.8267
  317SOL     OW  949   0.570   2.784   0.237  0.2074 -0.1786  0.2775
  317SOL    HW1  950   0.499   2.822   0.178  0.3376  0.9325 -1.1349
  317SOL    HW2  951   0.650   2.741   0.188  2.8798 -0.8631  0.1472
  318SOL     OW  952   2.340   2.615   0.720  0.4612  0.4389  0.6234
  318SOL    HW1  953   2.266   2.544   0.733 -1.7217 -1.7455  0.8713
  318SOL    HW2  954   2.431   2.575   0.713 -1.7036 -1.2906  1.2821
  319SOL     OW  955   1.043   1.928   2.847 -0.9414 -0.2629 -0.0248
  319SOL    HW1  956   1.002   1.969   2.928  1.3903 -0.0987 -0.9176
  319SOL    HW2  957   0.964   1.900   2.790 -0.8688  2.8566 -1.9109
  320SOL     OW  958   0.410   2.081   1.819  0.4034 -0.1953  0.4264
  320SOL    HW1  959   0.361   2.004   1.864 -0.7853  2.0470  1.7102
  320SOL    HW2  960   0.363   2.099   1.727 -2.1252  0.3705  2.4112
  321SOL     OW  961   1.468   2.796   2.515  0.6585 -0.1079  0.2466
  321SOL    HW1  962   1.408   2.726   2.470 -0.5637 -1.6330  0.9809
  321SOL    HW2  963   1.539   2.749   2.574  1.3435 -4.0341  0.5789
  322SOL     OW  964   2.678   1.427   2.057  0.0961  0.0407 -0.5117
  322SOL    HW1  965   2.679   1.522   2.098 -2.1808  0.1590  0.7073
  322SOL    HW2  966   2.646   1.362   2.130  1.3189  2.5219 -1.9361
  323SOL     OW  967   2.332   0.830   1.044 -0.2019 -0.2535 -0.1505
  323SOL    HW1  968   2.309   0.905   0.983  0.4396  1.0637 -2.0590
  323SOL    HW2  969   2.377   0.860   1.128 -0.1744 -2.8059 -1.2352
  324SOL     OW  970   2.720   0.018   2.128  0.2305 -0.2613  0.5981
  324SOL    HW1  971   2.802   0.023   2.189 -1.9637 -2.1238 -0.7094
  324SOL    HW2  972   2.650   0.090   2.152 -4.3473  3.0957  0.5699
  325SOL     OW  973   1.117   0.856   2.558  0.3513 -0.0471 -0.0756
  325SOL    HW1  974   1.155   0.767   2.595  1.8360 -0.8056  0.1388
  325SOL    HW2  975   1.097   0.849   2.455 -2.6346 -0.0561  3.5010
  326SOL     OW  976   1.784   2.993   1.773  0.1425  0.1452  0.1016
  326SOL    HW1  977   1.762   3.083   1.819  0.6536 -0.0592 -1.8160
  326SOL    HW2  978   1.841   2.927   1.828  0.7003 -1.8885  3.8524
  327SOL     OW  979   2.311   0.358   0.072  0.0480  0.1294 -0.2692
  327SOL    HW1  980   2.409   0.362   0.097  2.7786  3.3857 -0.6202
  327SOL    HW2  981   2.270   0.269   0.098 -0.4105  1.1993  1.0843
  328SOL     OW  982   3.036   1.573   2.526  0.5741 -0.7761  0.4362
  328SOL    HW1  983   3.048   1.569   2.624 -1.6559 -0.8966 -0.1125
  328SOL    HW2  984   3.004   1.664   2.498  1.4782  2.6470  1.2743
  329SOL     OW  985   1.958   0.011   1.567 -0.3642 -0.5209 -0.1735
  329SOL    HW1  986   1.908   3.069   1.643  0.0111  0.7867  0.1291
  329SOL    HW2  987   2.020   3.052   1.516 -3.6827 -0.0497  0.4860
  330SOL     OW  988   0.330   1.125   0.925 -0.0510  0.0261  0.1762
  330SOL    HW1  989   0.282   1.037   0.939  0.8155  0.6739 -2.1268
  330SOL    HW2  990   0.306   1.196   0.996 -0.4636  0.9620 -1.0292
  331SOL     OW  991   0.131   1.741   2.407  0.3380  0.1781  0.0280
  331SOL    HW1  992   0.078   1.657   2.412  0.3679  1.2700  2.3003
  331SOL    HW2  993   0.213   1.744   2.465  2.0887 -2.4728 -0.5292
  332SOL     OW  994   0.024   2.753   1.557  0.0306 -0.0343  0.4995
  332SOL    HW1  995   0.010   2.783   1.654 -1.2477 -2.9947  0.5301
  332SOL    HW2  996   0.000   2.837   1.498 -0.5533  3.2604 -1.1332
  333SOL     OW  997   2.341   0.080   0.753  0.0678  0.2446  0.6731
  333SOL    HW1  998   2.271   0.014   0.782 -0.6005  1.5631 -1.4243
  333SOL    HW2  999   2.301   0.176   0.769  1.7078  4.0645  1.1372
  334SOL     OW 1000   0.581   2.155   0.631 -0.1467  0.0901 -0.2183
  334SOL    HW1 1001   0.681   2.161   0.649  1.2122  0.7480 -4.8363
  334SOL    HW2 1002   0.546   2.249   0.615  3.6288 -1.5007  0.9560
  335SOL     OW 1003   0.062   2.472   0.230 -0.4921  0.0521 -0.2420
  335SOL    HW1 1004   0.049   2.426   0.320  0.4834 -1.1672 -1.5285
  335SOL    HW2 1005   0.096   2.399   0.165  0.5393 -1.6613 -1.8405
  336SOL     OW 1006   0.080   0.017   2.168 -0.0405  1.1523  0.3613
  336SOL    HW1 1007   0.093   0.118   2.159  1.4430 -0.5450  0.0005
  336SOL    HW2 1008   0.148   3.071   2.103  2.8806 -2.1835 -1.8346
  337SOL     OW 1009   2.295   2.188   2.526 -0.6229  0.3538 -0.2696
  337SOL    HW1 1010   2.362   2.187   2.602  1.5570  2.0812  0.8617
  337SOL    HW2 1011   2.315   2.117   2.459 -2.6098  0.9566  1.8206
  338SOL     OW 1012   0.611   0.487   0.585 -0.0279  0.5721  0.3832
  338SOL    HW1 1013   0.634   0.579   0.622 -0.5641 -2.4247 -0.0828
  338SOL    HW2 1014   0.655   0.410   0.636 -0.0059  0.9017 -0.4157
  339SOL     OW 1015   0.248   0.780   1.990  0.1600  0.0473 -0.2580
  339SOL    HW1 1016   0.302   0.780   2.076 -0.5162 -2.7673  0.6933
  339SOL    HW2 1017   0.198   0.869   1.990 -0.4355  0.1859 -0.2853
  340SOL     OW 1018   1.754   2.946   0.396 -0.0564 -0.3038  0.3455
  340SOL    HW1 1019   1.839   2.957   0.453  0.8758 -1.4001 -0.8673
  340SOL    HW2 1020   1.693   3.028   0.395 -0.8888  1.8297  0.2542
  341SOL     OW 1021   1.950   1.001   0.874 -0.4868 -0.0343  0.1271
  341SOL    HW1 1022   1.953   1.017   0.772  1.9251  0.9091  0.1783
  341SOL    HW2 1023   2.038   0.950   0.897  1.1496 -2.5872  1.2215
  342SOL     OW 1024   2.443   2.872   0.058  0.0596  0.1232  0.3348
  342SOL    HW1 1025   2.396   2.955   0.022 -0.3411 -0.0251  0.1238
  342SOL    HW2 1026   2.504   2.823   3.097 -0.7264  0.4847  3.7990
  343SOL     OW 1027   1.461   1.996   1.738 -0.1215 -0.4022 -0.2596
  343SOL    HW1 1028   1.550   2.027   1.780  0.3034  4.7447 -1.1426
  343SOL    HW2 1029   1.458   1.895   1.726  0.0111 -0.7407 -1.6249
  344SOL     OW 1030   2.417   2.712   0.982 -0.8829  0.1708 -0.3597
  344SOL    HW1 1031   2.369   2.682   1.068 -2.6069 -1.5198 -0.5030
  344SOL    HW2 1032   2.371   2.678   0.900 -1.5408 -0.3354  0.8934
  345SOL     OW 1033   2.758   2.372   0.152  0.2987  0.0431  0.0673
  345SOL    HW1 1034   2.813   2.453   0.119 -1.9277 -2.6297  0.2729
  345SOL    HW2 1035   2.822   2.298   0.174 -0.2104  1.0544 -0.3071
  346SOL     OW 1036   2.701   1.688   0.796 -0.6171  0.0176  0.2907
  346SOL    HW1 1037   2.647   1.761   0.747 -0.2889  1.3634 -1.2266
  346SOL    HW2 1038   2.787   1.730   0.835  0.1378  1.1727  0.5118
  347SOL     OW 1039   1.686   2.012   1.893  0.1465 -0.0139 -0.3749
  347SOL    HW1 1040   1.643   2.096   1.936 -0.0545 -0.8187 -1.0721
  347SOL    HW2 1041   1.657   1.925   1.931 -0.5180  0.6498 -2.7440
  348SOL     OW 1042   0.612   1.686   2.681 -0.0682  0.2713 -0.0968
  348SOL    HW1 1043   0.698   1.729   2.719  2.0451  0.0114 -2.5022
  348SOL    HW2 1044   0.561   1.637   2.756  0.8962 -1.1659  1.1906
  349SOL     OW 1045   2.393   1.273   1.113 -0.5924 -0.1403 -0.0491
  349SOL    HW1 1046   2.324   1.345   1.119  2.5912 -1.9828 -0.3899
  349SOL    HW2 1047   2.484   1.319   1.081  2.0188  0.8875 -1.1088
  350SOL     OW 1048   2.881   2.523   1.200 -0.3080  0.4857  0.5010
  350SOL    HW1 1049   2.904   2.497   1.295  1.3718  0.8933 -3.5417
  350SOL    HW2 1050   2.780   2.501   1.188 -1.8328  0.8213 -0.3763
  351SOL     OW 1051   0.454   0.001   2.253  0.3871 -0.1696 -0.4517
  351SOL    HW1 1052   0.439   0.101   2.249  1.3591 -1.2421 -2.8191
  351SOL    HW2 1053   0.533   3.089   2.318 -0.4684  2.2272 -4.3497
  352SOL     OW 1054   0.880   1.611   0.979  0.0621 -0.6455  0.4082
  352SOL    HW1 1055   0.937   1.532   1.003  1.2886  0.4490 -0.9576
  352SOL    HW2 1056   0.793   1.583   0.929 -1.2286  0.1555  1.2301
  353SOL     OW 1057   1.401   1.524   2.408  0.2575 -0.6232  0.4166
  353SOL    HW1 1058   1.347   1.601   2.362 -1.7705  1.1931 -1.7863
  353SOL    HW2 1059   1.376   1.517   2.509 -1.8304  1.8303  0.7741
  354SOL     OW 1060   1.350   0.176   0.965  0.0279 -0.2209  0.2009
  354SOL    HW1 1061   1.339   0.126   1.056  0.1773 -1.2249  1.8147
  354SOL    HW2 1062   1.328   0.273   0.969  0.3595 -2.5879 -1.6478
  355SOL     OW 1063   2.677   1.220   0.501  0.0009 -0.6558 -0.2813
  355SOL    HW1 1064   2.582   1.200   0.527  1.5328 -0.7942 -0.0820
  355SOL    HW2 1065   2.712   1.298   0.558 -2.9340  1.0573  0.6709
  356SOL     OW 1066   2.437   1.697   2.252 -0.3140 -0.2446 -0.5552
  356SOL    HW1 1067   2.393   1.771   2.305 -0.6198  1.1643  2.1524
  356SOL    HW2 1068   2.457   1.726   2.155  1.4127  0.3283 -1.2038
  357SOL     OW 1069   0.495   2.630   1.558 -0.1829  0.5678 -0.1806
  357SOL    HW1 1070   0.412   2.650   1.510 -0.2099  1.1816  1.1077
  357SOL    HW2 1071   0.569   2.700   1.554  1.7869 -0.6572  1.0026
  358SOL     OW 1072   2.373   0.708   1.474  0.8099 -0.5445  0.0583
  358SOL    HW1 1073   2.441   0.649   1.513 -2.0533 -0.9133 -2.0899
  358SOL    HW2 1074   2.306   0.739   1.542  0.6596  2.3120  1.7370
  359SOL     OW 1075   2.163   2.609   2.695 -0.3749 -0.1966  0.2694
  359SOL    HW1 1076   2.077   2.661   2.714 -0.1675 -1.7759 -0.0731
  359SOL    HW2 1077   2.214   2.577   2.779  1.3682  0.2322 -0.1484
  360SOL     OW 1078   0.907   0.462   0.837  0.4507 -0.3792  0.3721
  360SOL    HW1 1079   0.899   0.566   0.837 -1.0663 -0.5510 -0.0463
  360SOL    HW2 1080   0.991   0.426   0.789  0.0896  0.2213 -1.0441
  361SOL     OW 1081   1.856   3.007   1.242  0.3377  0.4736  0.1719
  361SOL    HW1 1082   1.847   3.098   1.200  0.5427 -0.0886 -0.6247
  361SOL    HW2 1083   1.950   2.968   1.235  0.7756 -1.3936  0.1686
  362SOL     OW 1084   1.252   1.187   0.553 -0.0609  0.3736  0.1125
  362SOL    HW1 1085   1.343   1.229   0.533 -2.0693  0.8241 -1.6363
  362SOL    HW2 1086   1.253   1.126   0.635  2.2932 -0.3214  1.7025
  363SOL     OW 1087   2.093   1.604   2.573 -0.1720  0.3862  0.6306
  363SOL    HW1 1088   2.189   1.619   2.594  0.1802 -1.2025  0.9302
  363SOL    HW2 1089   2.080   1.521   2.513  0.2950 -1.2446 -1.3807
  364SOL     OW 1090   0.439   0.260   1.187  0.2495 -0.3352 -0.1497
  364SOL    HW1 1091   0.445   0.309   1.094  1.0381  0.1539  1.2894
  364SOL    HW2 1092   0.422   0.330   1.258  0.0223  0.1020 -1.7007
  365SOL     OW 1093   0.128   2.736   0.221 -0.0273  0.3168  0.5193
  365SOL    HW1 1094   0.127   2.639   0.246 -1.1426  0.0790  2.5913
  365SOL    HW2 1095   0.041   2.771   0.255  2.5796 -3.2767  1.5977
  366SOL     OW 1096   2.363   2.086   3.021 -0.0543  0.4513 -0.0118
  366SOL    HW1 1097   2.305   2.060   3.104 -1.2387  1.7590  1.0191
  366SOL    HW2 1098   2.429   2.157   3.039 -0.5635 -1.4762  0.6938
  367SOL     OW 1099   2.569   2.484   2.873  0.3590  0.3748  0.1948
  367SOL    HW1 1100   2.591   2.453   2.778  1.5679 -2.4844 -1.2353
  367SOL    HW2 1101   2.617   2.438   2.948 -0.2968  1.4186  0.9607
  368SOL     OW 1102   0.230   1.714   1.039 -0.0860 -0.1682  0.1715
  368SOL    HW1 1103   0.253   1.708   1.141  1.6989 -1.1982  1.1254
  368SOL    HW2 1104   0.219   1.815   1.018  2.1888  4.1495 -1.6521
  369SOL     OW 1105   0.939   2.621   2.995  0.2405 -0.1613  0.5690
  369SOL    HW1 1106   0.945   2.706   2.937 -0.8628  0.3192  1.6933
  369SOL    HW2 1107   1.029   2.578   3.002 -0.5529  3.0690  0.5633
  370SOL     OW 1108   0.180   0.830   0.566 -0.2554 -0.2956 -0.2307
  370SOL    HW1 1109   0.124   0.894   0.623 -0.9931  1.0065 -2.5764
  370SOL    HW2 1110   0.158   0.733   0.589 -0.8803  0.0619 -1.7325
  371SOL     OW 1111   2.017   2.635   0.928  0.1673  0.0440 -0.3352
  371SOL    HW1 1112   1.988   2.711   0.862  1.0711  2.5792  1.3930
  371SOL    HW2 1113   1.953   2.558   0.923  1.1135  2.1589  2.2080
  372SOL     OW 1114   0.180   1.040   2.713  0.2516 -0.3895  0.0207
  372SOL    HW1 1115   0.235   1.128   2.702  0.7764  0.8248 -0.7999
  372SOL    HW2 1116   0.224   0.971   2.766  0.1587  0.3635 -2.1047
  373SOL     OW 1117   3.023   2.078   0.735  0.4001 -0.5991  0.4118
  373SOL    HW1 1118   2.981   1.991   0.740  0.7543  2.2358 -1.6562
  373SOL    HW2 1119   0.016   2.073   0.712 -2.7246  1.2233  1.9939
  374SOL     OW 1120   0.122   2.328   0.487 -0.4767  0.2681 -0.0019
  374SOL    HW1 1121   0.186   2.285   0.420 -3.0207 -1.1995 -2.0484
  374SOL    HW2 1122   0.170   2.380   0.558  0.4183  1.1667 -0.1333
  375SOL     OW 1123   0.518   0.516   0.164  0.2707  0.3516 -0.0851
  375SOL    HW1 1124   0.564   0.582   0.222 -0.6379  0.6666  0.4594
  375SOL    HW2 1125   0.536   0.423   0.204  0.4027  0.3451 -2.7052
  376SOL     OW 1126   0.441   2.187   2.065 -0.1751  0.5697  0.0214
  376SOL    HW1 1127   0.432   2.145   1.972  0.7277 -2.1282 -1.8294
  376SOL    HW2 1128   0.536   2.182   2.100 -0.2518 -1.2668 -0.7538
  377SOL     OW 1129   1.852   2.548   2.779 -0.3048 -0.2637  0.2777
  377SOL    HW1 1130   1.753   2.519   2.784 -1.4124 -1.5445  1.4580
  377SOL    HW2 1131   1.914   2.482   2.724 -0.5442 -2.8027  0.7395
  378SOL     OW 1132   0.915   0.801   0.383  0.3713 -0.0195 -0.3396
  378SOL    HW1 1133   0.946   0.842   0.294  0.3731 -0.1536  0.6820
  378SOL    HW2 1134   0.978   0.725   0.414  1.4093  3.3990 -0.9719
  379SOL     OW 1135   0.747   1.744   0.454 -0.2245  0.6431 -0.4115
  379SOL    HW1 1136   0.687   1.764   0.537  0.4579  0.4316  0.8005
  379SOL    HW2 1137   0.831   1.691   0.489  3.0715  0.3102  0.0295
  380SOL     OW 1138   0.358   1.999   1.326  0.0895  0.0190  0.2097
  380SOL    HW1 1139   0.304   2.052   1.259 -1.5393  1.0055 -0.9026
  380SOL    HW2 1140   0.331   2.025   1.416 -0.0168 -3.6455 -1.9520
  381SOL     OW 1141   0.524   1.161   1.656  0.0188 -0.1164  0.1841
  381SOL    HW1 1142   0.563   1.246   1.702 -0.0986  1.6282  1.5764
  381SOL    HW2 1143   0.474   1.098   1.724  0.8067 -4.7810  0.6826
  382SOL     OW 1144   2.401   1.955   0.558  0.1986 -0.1601  0.1651
  382SOL    HW1 1145   2.415   2.044   0.603 -3.3326  0.7805 -0.6117
  382SOL    HW2 1146   2.400   1.968   0.458  0.1506  2.5686 -1.1475
  383SOL     OW 1147   2.746   1.931   2.247 -0.3814 -0.0114  0.2385
  383SOL    HW1 1148   2.756   1.951   2.145 -1.1596  1.4355 -1.9268
  383SOL    HW2 1149   2.659   1.966   2.286  2.9023 -0.9743 -1.6720
  384SOL     OW 1150   3.094   2.088   2.254 -0.2236  0.2996 -0.2705
  384SOL    HW1 1151   0.088   2.125   2.259  3.0239 -1.3886 -1.6169
  384SOL    HW2 1152   3.091   1.995   2.211 -0.3684  0.3298  0.8928
  385SOL     OW 1153   2.832   2.272   0.778  0.0463  0.4213  0.0395
  385SOL    HW1 1154   2.892   2.198   0.800 -1.2451  1.3633  0.6122
  385SOL    HW2 1155   2.820   2.295   0.681  1.2802 -2.3193  1.7401
  386SOL     OW 1156   1.652   0.826   0.714  0.2710 -0.0004 -0.0740
  386SOL    HW1 1157   1.691   0.916   0.695 -1.4995  0.7064  1.3091
  386SOL    HW2 1158   1.625   0.779   0.628  0.8569  0.5872  3.5885
  387SOL     OW 1159   0.461   0.605   1.905  0.2115  0.5882 -0.3488
  387SOL    HW1 1160   0.400   0.678   1.881  3.2690 -4.2001  0.2068
  387SOL    HW2 1161   0.553   0.643   1.933  1.3772  1.7720  0.0077
  388SOL     OW 1162   2.264   0.962   2.482  0.1837 -0.5130  0.7220
  388SOL    HW1 1163   2.256   1.062   2.501 -0.1678  0.0031 -0.5493
  388SOL    HW2 1164   2.172   0.922   2.470 -0.1913  1.5831  1.5152
  389SOL     OW 1165   2.013   1.154   2.045 -0.3521 -0.2032  0.3043
  389SOL    HW1 1166   2.003   1.159   1.945 -0.6154 -2.1770  1.1833
  389SOL    HW2 1167   2.065   1.071   2.070 -2.8702 -0.5818 -1.2301
  390SOL     OW 1168   1.891   2.410   0.369 -0.5990 -0.0921 -0.5062
  390SOL    HW1 1169   1.889   2.457   0.279 -0.1497  1.5427 -1.2509
  390SOL    HW2 1170   1.854   2.318   0.361  1.4936  1.2454 -0.3744
  391SOL     OW 1171   2.089   2.283   1.293  0.4837 -0.0581  0.1974
  391SOL    HW1 1172   2.040   2.215   1.236  1.9059  0.5185  0.4704
  391SOL    HW2 1173   2.189   2.256   1.306  1.4278  0.1299 -2.5970
  392SOL     OW 1174   3.013   2.755   1.181  0.0377  0.3234 -0.2315
  392SOL    HW1 1175   2.951   2.678   1.208 -1.3130  0.4895 -0.2204
  392SOL    HW2 1176   0.008   2.725   1.176  3.5231 -0.9057 -2.4235
  393SOL     OW 1177   2.141   1.722   0.033 -0.0370  1.0828 -0.5762
  393SOL    HW1 1178   2.078   1.639   0.050 -4.1127 -2.7816  0.9440
  393SOL    HW2 1179   2.135   1.759   3.039 -0.5852 -0.9078 -0.3839
  394SOL     OW 1180   3.024   0.318   2.756 -0.2582  0.3508 -0.0194
  394SOL    HW1 1181   3.071   0.341   2.839  0.4869  1.1994  0.7565
  394SOL    HW2 1182   2.930   0.285   2.786 -2.3758  1.8241  1.1518
  395SOL     OW 1183   1.023   0.932   0.874  0.3609 -0.3251 -0.4240
  395SOL    HW1 1184   0.939   0.993   0.872 -2.0487  1.3865 -0.5928
  395SOL    HW2 1185   0.997   0.835   0.889  1.0731  2.0832 -0.3194
  396SOL     OW 1186   1.339   0.758   2.882  0.0762 -0.4983  0.1572
  396SOL    HW1 1187   1.311   0.705   2.798  0.7080  3.0783 -0.5428
  396SOL    HW2 1188   1.426   0.718   2.913  1.7592 -0.4939  1.7024
  397SOL     OW 1189   0.244   0.477   2.590  0.0507 -0.8817 -0.0633
  397SOL    HW1 1190   0.208   0.547   2.522  1.6392  2.6493  0.0839
  397SOL    HW2 1191   0.196   0.386   2.575  0.6029 -0.1376  1.6392
  398SOL     OW 1192   0.899   0.044   0.233  0.0440 -0.6776 -0.5228
  398SOL    HW1 1193   0.880   0.142   0.233 -0.3567 -0.5879  1.0315
  398SOL    HW2 1194   0.874   3.099   0.149  0.8654 -1.7628 -1.7612
  399SOL     OW 1195   2.360   2.968   1.752 -0.3971  0.2546 -0.0192
  399SOL    HW1 1196   2.412   2.899   1.704 -0.4907  2.0927  1.5640
  399SOL    HW2 1197   2.395   3.064   1.726 -1.8585  3.5325  1.4634
  400SOL     OW 1198   0.405   1.799   2.507 -0.1261  0.7389  0.4364
  400SOL    HW1 1199   0.490   1.789   2.559 -3.3512  0.0138 -0.7692
  400SOL    HW2 1200   0.424   1.773   2.407  3.9909 -1.5119 -3.7926
  401SOL     OW 1201   0.941   0.331   2.656 -0.1210  0.6762  0.4766
  401SOL    HW1 1202   0.975   0.272   2.727  0.4933  1.3048  1.3361
  401SOL    HW2 1203   0.893   0.415   2.695 -1.0193 -1.0735  1.1260
  402SOL     OW 1204   2.954   2.349   1.680 -0.4897  0.2603 -0.1247
  402SOL    HW1 1205   3.003   2.272   1.723 -1.9217  0.7232 -0.0249
  402SOL    HW2 1206   2.945   2.427   1.746  3.0668  1.4945 -0.4406
  403SOL     OW 1207   0.662   1.008   1.986 -0.0643  0.0672  0.3938
  403SOL    HW1 1208   0.637   1.058   2.071 -0.6462  2.1890 -0.7730
  403SOL    HW2 1209   0.575   1.010   1.927  0.0602 -0.8524 -2.8067
  404SOL     OW 1210   3.094   2.495   1.488 -0.3564  0.4413 -0.0864
  404SOL    HW1 1211   3.085   2.599   1.501 -0.8812 -0.2485  1.2351
  404SOL    HW2 1212   3.031   2.437   1.541  1.1502  0.3767  0.4026
  405SOL     OW 1213   0.307   0.459   1.677  0.1963  0.5228 -0.5043
  405SOL    HW1 1214   0.345   0.496   1.760 -1.2005  2.0203  0.6129
  405SOL    HW2 1215   0.341   0.366   1.650 -1.7783 -1.3428 -1.6781
  406SOL     OW 1216   1.930   2.192   3.094 -0.1897 -0.1236 -0.1097
  406SOL    HW1 1217   1.968   2.161   0.076 -0.3323 -3.1910  1.4461
  406SOL    HW2 1218   1.984   2.269   3.056  0.6795  0.2342 -0.6069
  407SOL     OW 1219   1.647   1.076   1.893 -0.5088 -0.4611  0.1709
  407SOL    HW1 1220   1.549   1.103   1.866 -0.3947 -0.7566  0.7813
  407SOL    HW2 1221   1.676   1.126   1.977  1.5544 -0.5681  2.5840
  408SOL     OW 1222   0.737   0.133   2.879  0.8111 -0.1290  0.0392
  408SOL    HW1 1223   0.730   0.048   2.820  0.6542  0.0823  0.4756
  408SOL    HW2 1224   0.829   0.175   2.860 -0.8716  0.0283  2.1238
  409SOL     OW 1225   0.001   1.949   0.450 -0.4764 -0.3787  0.2333
  409SOL    HW1 1226   3.035   2.017   0.479 -0.2398 -2.5997 -2.2471
  409SOL    HW2 1227   0.084   1.955   0.509 -0.0769  2.5982  2.5857
  410SOL     OW 1228   2.680   1.557   0.324  0.7094  0.2841 -0.1285
  410SOL    HW1 1229   2.665   1.634   0.260  1.5005 -1.5698  0.9623
  410SOL    HW2 1230   2.747   1.486   0.284  0.5401 -0.6571 -1.0512
  411SOL     OW 1231   0.142   0.243   1.130  0.3569 -0.5901 -0.1153
  411SOL    HW1 1232   0.113   0.153   1.170 -0.7411 -4.3449  0.7684
  411SOL    HW2 1233   0.195   0.300   1.201 -1.9860  2.1006  2.8930
  412SOL     OW 1234   1.475   0.875   0.923 -0.2355 -0.1524 -0.7414
  412SOL    HW1 1235   1.515   0.947   0.977  0.2391 -0.1685  0.2734
  412SOL    HW2 1236   1.542   0.828   0.866  1.9499  0.8349  1.2210
  413SOL     OW 1237   0.751   0.128   1.417 -0.4312 -0.0367  0.1060
  413SOL    HW1 1238   0.781   0.206   1.473 -0.2951  0.8193 -0.3886
  413SOL    HW2 1239   0.761   0.144   1.313 -0.4759  1.6831 -0.4347
  414SOL     OW 1240   2.998   1.807   2.884 -0.0727 -0.0523  0.2094
  414SOL    HW1 1241   2.945   1.855   2.814 -2.6441 -0.0092 -1.3929
  414SOL    HW2 1242   3.042   1.867   2.958  0.6238  1.7657  1.2432
  415SOL     OW 1243   0.396   2.458   2.918  0.4882 -0.4814 -0.0859
  415SOL    HW1 1244   0.358   2.409   2.999 -1.6750  0.7298 -1.3907
  415SOL    HW2 1245   0.329   2.466   2.846 -0.0519  0.1472  0.4467
  416SOL     OW 1246   1.306   0.562   0.526 -0.7043  0.7706 -0.1153
  416SOL    HW1 1247   1.383   0.558   0.463  0.3503 -0.1018  2.4751
  416SOL    HW2 1248   1.322   0.508   0.612 -0.5184 -1.4945  0.3653
  417SOL     OW 1249   0.229   1.108   0.407  0.3240 -0.4469  0.2950
  417SOL    HW1 1250   0.302   1.094   0.338 -0.0913 -1.2403  1.8644
  417SOL    HW2 1251   0.260   1.071   0.496  0.3457 -1.1203 -0.7087
  418SOL     OW 1252   2.514   1.276   2.244 -0.0845 -0.2626  0.2315
  418SOL    HW1 1253   2.438   1.345   2.251 -1.6620 -2.8407 -0.6302
  418SOL    HW2 1254   2.538   1.235   2.331 -0.5304 -1.6830 -1.3980
  419SOL     OW 1255   0.259   0.515   2.861 -0.0539 -0.3890 -0.4782
  419SOL    HW1 1256   0.182   0.471   2.907 -0.7813 -1.3071  0.9133
  419SOL    HW2 1257   0.251   0.500   2.761 -1.4797 -0.1464 -0.4074
  420SOL     OW 1258   0.645   1.549   0.819  0.2889  0.7775  0.4870
  420SOL    HW1 1259   0.555   1.544   0.861 -0.3839 -1.5457 -1.9091
  420SOL    HW2 1260   0.670   1.454   0.797  1.4437  0.3196  0.1198
  421SOL     OW 1261   0.540   2.345   0.894 -0.6206 -0.4290  0.5019
  421SOL    HW1 1262   0.620   2.298   0.943  0.4846  1.7352  0.3626
  421SOL    HW2 1263   0.570   2.373   0.801  2.5224  0.9848 -1.8121
  422SOL     OW 1264   0.014   0.903   1.573 -0.2771  0.1886 -0.0088
  422SOL    HW1 1265   0.042   0.965   1.499  0.8492 -1.3396 -0.2626
  422SOL    HW2 1266   0.075   0.822   1.588  1.2391 -2.4867  0.9686
  423SOL     OW 1267   1.301   1.381   1.351 -0.2563  0.5368  0.1005
  423SOL    HW1 1268   1.333   1.313   1.421 -1.2255 -0.5657 -1.7717
  423SOL    HW2 1269   1.382   1.440   1.317 -3.6916  2.3632 -0.5351
  424SOL     OW 1270   2.086   0.979   3.060  0.1020 -0.1512  0.6107
  424SOL    HW1 1271   2.181   1.006   3.097  1.2430 -1.8448  0.0041
  424SOL    HW2 1272   2.055   1.055   2.997 -1.1287 -0.4042  1.8721
  425SOL     OW 1273   0.029   0.597   1.926 -0.5884 -0.6062 -0.1527
  425SOL    HW1 1274   0.106   0.661   1.927  0.8627  0.4209  0.6542
  425SOL    HW2 1275   3.095   0.595   1.830  0.2630  2.2808 -0.3674
  426SOL     OW 1276   2.503   2.664   2.586 -0.1614 -0.2181 -0.1709
  426SOL    HW1 1277   2.459   2.571   2.583 -0.2865 -0.1968 -0.2713
  426SOL    HW2 1278   2.445   2.728   2.534 -2.2635 -1.9795 -1.5546
  427SOL     OW 1279   1.088   0.845   2.292 -0.4967 -1.0548  0.2020
  427SOL    HW1 1280   1.165   0.877   2.233 -0.0390 -0.3612  0.1039
  427SOL    HW2 1281   1.015   0.916   2.286 -2.0731 -1.4879  0.2805
  428SOL     OW 1282   2.174   0.936   2.052  0.0828 -0.2399 -0.0731
  428SOL    HW1 1283   2.249   0.885   2.098 -1.3273 -0.0702  1.7743
  428SOL    HW2 1284   2.103   0.869   2.016 -3.3634  2.0233 -0.5574
  429SOL     OW 1285   3.095   2.875   0.473 -0.2699 -0.0445  0.6379
  429SOL    HW1 1286   0.006   2.905   0.571  1.0616  0.1058 -0.6038
  429SOL    HW2 1287   0.002   2.954   0.410  3.4245  1.2092 -0.0083
  430SOL     OW 1288   1.980   1.425   2.170 -0.0428 -0.9377  0.4443
  430SOL    HW1 1289   2.008   1.433   2.267 -0.1798  1.8250 -3.8632
  430SOL    HW2 1290   2.003   1.333   2.132  1.3546 -0.4598 -0.1615
  431SOL     OW 1291   0.273   1.743   1.309 -0.8744 -0.3374 -0.3533
  431SOL    HW1 1292   0.292   1.844   1.306  0.3108  3.9377 -0.4541
  431SOL    HW2 1293   0.357   1.691   1.337  0.0705 -1.8969  1.6012
  432SOL     OW 1294   1.748   0.241   2.183  0.1507 -0.6100  0.6902
  432SOL    HW1 1295   1.705   0.172   2.241  2.0641 -1.1823 -1.7810
  432SOL    HW2 1296   1.713   0.337   2.202  0.1302  0.6370 -1.7433
  433SOL     OW 1297   1.439   0.032   1.948 -0.2319 -0.1961  0.0411
  433SOL    HW1 1298   1.426   3.100   1.853  1.6840  1.4186 -0.3656
  433SOL    HW2 1299   1.512   0.104   1.938  0.9694 -0.9054  1.2288
  434SOL     OW 1300   0.447   2.557   2.330 -0.3044 -0.4185  0.6027
  434SOL    HW1 1301   0.487   2.634   2.380 -0.3144  0.5809 -2.3345
  434SOL    HW2 1302   0.349   2.551   2.352  1.6549  0.1531  2.3122
  435SOL     OW 1303   0.322   2.232   0.330 -0.0272  0.1065 -0.3974
  435SOL    HW1 1304   0.394   2.307   0.322  2.8518  0.5203  0.7640
  435SOL    HW2 1305   0.359   2.155   0.390 -0.0750 -0.0027 -0.4893
  436SOL     OW 1306   0.701   0.722   1.981  0.6463 -0.3394 -0.1370
  436SOL    HW1 1307   0.771   0.698   1.917 -1.0875  1.4779  2.1653
  436SOL    HW2 1308   0.694   0.824   1.986 -0.4890  3.5003  1.5692
  437SOL     OW 1309   0.474   2.827   2.453  0.1963  0.2808 -0.1520
  437SOL    HW1 1310   0.542   2.895   2.415  3.2721 -0.2814 -1.0920
  437SOL    HW2 1311   0.519   2.772   2.527 -0.2665 -2.0626 -0.5136
  438SOL     OW 1312   0.736   1.675   1.518 -0.0016 -0.1647 -0.3080
  438SOL    HW1 1313   0.685   1.738   1.579  4.4513 -0.4138 -2.0002
  438SOL    HW2 1314   0.782   1.599   1.573 -0.0494 -1.7895  0.3134
  439SOL     OW 1315   2.149   0.700   3.023 -0.3884 -0.5239  0.3327
  439SOL    HW1 1316   2.106   0.793   3.031  2.6924 -2.3529 -0.4577
  439SOL    HW2 1317   2.200   0.683   0.006 -0.0275  0.0134 -0.6871
  440SOL     OW 1318   0.839   0.305   0.248 -0.0788  0.2820 -0.6380
  440SOL    HW1 1319   0.750   0.328   0.290  1.2157  0.8200 -1.0017
  440SOL    HW2 1320   0.879   0.388   0.217 -0.0645 -1.8437  2.8552
  441SOL     OW 1321   0.975   2.354   1.485  0.1263 -0.2780 -0.4473
  441SOL    HW1 1322   0.919   2.440   1.463 -1.1789 -1.7165  1.2000
  441SOL    HW2 1323   0.917   2.268   1.463 -0.5224 -1.2395 -1.7636
  442SOL     OW 1324   3.024   1.534   0.642 -0.2394 -0.0483 -0.0717
  442SOL    HW1 1325   2.931   1.505   0.622  3.0358 -2.7891 -0.8163
  442SOL    HW2 1326   3.033   1.575   0.732  0.4430 -1.1444 -1.3290
  443SOL     OW 1327   2.616   1.961   2.620 -0.3473 -0.3613  0.4477
  443SOL    HW1 1328   2.582   1.999   2.529 -1.5044  2.9814  0.8969
  443SOL    HW2 1329   2.571   1.870   2.630 -0.2562  0.4815 -5.9662
  444SOL     OW 1330   1.775   0.842   2.955  0.6643 -0.5451 -0.0599
  444SOL    HW1 1331   1.843   0.901   2.909  0.1093  1.9533  0.9285
  444SOL    HW2 1332   1.716   0.792   2.882 -0.8062  0.3306 -0.4199
  445SOL     OW 1333   2.708   2.770   1.893  0.5776 -0.1837  0.2399
  445SOL    HW1 1334   2.748   2.815   1.811 -0.6902 -0.4621 -1.1484
  445SOL    HW2 1335   2.621   2.723   1.874  0.8429 -0.1238  1.1312
  446SOL     OW 1336   3.085   1.236   0.800 -0.9472  0.3102 -0.6579
  446SOL    HW1 1337   3.096   1.333   0.820 -1.5994  0.3314 -0.3019
  446SOL    HW2 1338   2.987   1.214   0.808  1.0180  0.2762  0.8476
  447SOL     OW 1339   1.053   1.954   1.228  0.0296 -1.2014 -0.1179
  447SOL    HW1 1340   1.040   1.862   1.272  0.4000 -0.6065 -0.6454
  447SOL    HW2 1341   1.030   1.948   1.125 -0.0693  1.0758 -0.5555
  448SOL     OW 1342   1.339   1.490   1.666  0.2568  0.4203 -0.3155
  448SOL    HW1 1343   1.397   1.406   1.667 -1.2825 -0.4849  1.0872
  448SOL    HW2 1344   1.241   1.477   1.636 -0.1836  3.0127 -2.7599
  449SOL     OW 1345   2.670   2.291   2.379  0.1522  0.0463  0.0314
  449SOL    HW1 1346   2.674   2.369   2.444  0.7342  2.1827  0.5401
  449SOL    HW2 1347   2.742   2.225   2.406 -1.8173 -2.0581  0.8363
  450SOL     OW 1348   3.047   1.824   1.896  0.1753  0.8811  0.0832
  450SOL    HW1 1349   2.952   1.825   1.858  3.1107 -1.2851 -0.5372
  450SOL    HW2 1350   3.083   1.728   1.916  0.1130 -0.0784 -0.2025
  451SOL     OW 1351   2.164   0.638   1.296 -0.0605  0.3473 -0.0063
  451SOL    HW1 1352   2.235   0.670   1.360 -0.1000  0.5340  0.2772
  451SOL    HW2 1353   2.090   0.712   1.294 -1.2108  1.8983  0.7274
  452SOL     OW 1354   0.696   1.283   0.775 -0.0812 -0.0502 -0.2869
  452SOL    HW1 1355   0.615   1.258   0.719 -1.2966 -0.0508  1.6988
  452SOL    HW2 1356   0.777   1.231   0.747 -1.9837 -1.0468  1.5897
  453SOL     OW 1357   1.543   2.008   0.654 -0.1542 -0.4287 -0.0479
  453SOL    HW1 1358   1.621   2.019   0.720  1.5866 -0.7488  0.0901
  453SOL    HW2 1359   1.526   2.099   0.617 -1.3199 -0.8017  3.0333
  454SOL     OW 1360   0.456   1.901   0.210 -0.0614 -0.0402 -0.0910
  454SOL    HW1 1361   0.442   1.799   0.238  0.0094 -1.9865  1.2039
  454SOL    HW2 1362   0.445   1.966   0.290  1.9903 -1.0183 -1.4276
  455SOL     OW 1363   1.086   1.134   0.359 -0.1898  0.0877 -0.3141
  455SOL    HW1 1364   0.989   1.127   0.381  1.7190  1.3416  1.2400
  455SOL    HW2 1365   1.146   1.151   0.444 -1.5903 -3.4684  0.8926
  456SOL     OW 1366   2.222   2.497   1.024  0.2346  0.3013 -0.4299
  456SOL    HW1 1367   2.166   2.414   1.005 -1.4049 -0.2466  0.3253
  456SOL    HW2 1368   2.170   2.582   0.996 -0.4913 -0.6326 -1.8688
  457SOL     OW 1369   1.671   3.031   2.928 -0.5997 -0.0235  0.4760
  457SOL    HW1 1370   1.711   3.046   3.020  0.4872 -0.6332  0.6252
  457SOL    HW2 1371   1.673   2.931   2.899  1.4909 -0.5057 -1.2210
  458SOL     OW 1372   2.551   1.175   0.810 -0.0257  0.3599  0.5261
  458SOL    HW1 1373   2.513   1.239   0.744 -0.2817  1.1748  2.1497
  458SOL    HW2 1374   2.479   1.128   0.869 -2.5986 -1.8577  0.7918
  459SOL     OW 1375   2.681   0.340   2.613  0.4838 -0.0590  0.1298
  459SOL    HW1 1376   2.666   0.437   2.635 -0.3445 -0.5521 -0.7386
  459SOL    HW2 1377   2.730   0.335   2.523  3.1537  0.1291  0.6054
  460SOL     OW 1378   2.591   0.872   2.662  0.0160  0.5629  0.2296
  460SOL    HW1 1379   2.516   0.895   2.726  0.6004 -0.9279  1.5419
  460SOL    HW2 1380   2.657   0.945   2.650 -1.2458 -1.9573  1.8170
  461SOL     OW 1381   2.831   2.514   0.916  0.2879 -0.3934 -0.2782
  461SOL    HW1 1382   2.857   2.521   1.017  1.6732  1.5438  0.0707
  461SOL    HW2 1383   2.855   2.421   0.882  1.4593  1.4853  0.3837
  462SOL     OW 1384   3.103   2.913   1.774 -0.0676 -0.1535 -0.7590
  462SOL    HW1 1385   0.046   2.999   1.742 -0.9120  0.0954  0.1799
  462SOL    HW2 1386   0.048   2.880   1.861  0.5110 -2.1738  2.6352
  463SOL     OW 1387   2.046   1.868   2.420 -0.0108  0.0628  0.4087
  463SOL    HW1 1388   2.066   1.790   2.480  0.2144 -1.4177 -2.4987
  463SOL    HW2 1389   1.950   1.867   2.382  0.4841 -2.4122  1.0720
  464SOL     OW 1390   0.746   2.741   1.547  0.2452  0.1180  0.0917
  464SOL    HW1 1391   0.811   2.709   1.617 -0.2724  1.1084 -1.2649
  464SOL    HW2 1392   0.750   2.845   1.543  0.5227 -0.4362 -1.2061
  465SOL     OW 1393   0.868   0.029   1.695  0.0017  0.1055 -0.5121
  465SOL    HW1 1394   0.808   3.085   1.630  0.4674  0.1966 -0.3072
  465SOL    HW2 1395   0.842   0.126   1.708 -0.2516  1.9134 -1.5935
  466SOL     OW 1396   1.489   2.619   1.981  0.1622 -0.2978  0.0012
  466SOL    HW1 1397   1.588   2.649   1.972  1.7506 -1.3816 -1.4425
  466SOL    HW2 1398   1.432   2.697   2.004 -0.4256  0.9162 -2.3750
  467SOL     OW 1399   0.637   1.974   1.255 -0.3463  0.2404 -0.4486
  467SOL    HW1 1400   0.631   1.877   1.242 -0.4107  1.2291 -0.3968
  467SOL    HW2 1401   0.558   2.006   1.308  0.3965 -0.6072 -0.1076
  468SOL     OW 1402   2.635   1.559   2.360  0.3700  0.7266 -0.3726
  468SOL    HW1 1403   2.713   1.567   2.294  0.6883 -1.7049 -0.3392
  468SOL    HW2 1404   2.562   1.624   2.336  2.0326 -0.3872 -0.0149
  469SOL     OW 1405   1.034   2.036   0.768 -0.1965  0.2710 -0.3340
  469SOL    HW1 1406   1.051   1.965   0.697 -0.2299  3.7929  3.5397
  469SOL    HW2 1407   0.979   1.981   0.837 -2.2498 -5.1088 -0.6024
  470SOL     OW 1408   2.158   1.130   1.591 -0.4677  0.0655  0.1287
  470SOL    HW1 1409   2.098   1.183   1.646  0.0776 -0.0528  1.2624
  470SOL    HW2 1410   2.256   1.158   1.605  0.0834 -0.3127 -0.1784
  471SOL     OW 1411   0.294   2.334   0.036  0.0543  0.0841  0.4269
  471SOL    HW1 1412   0.297   2.230   0.026 -1.0382 -2.8296  0.5604
  471SOL    HW2 1413   0.362   2.372   0.098 -1.4435 -4.5147  3.7610
  472SOL     OW 1414   2.767   2.049   1.990 -0.0129  0.3307 -0.3256
  472SOL    HW1 1415   2.813   1.992   1.920  1.4796  0.8589  2.2035
  472SOL    HW2 1416   2.668   2.046   1.970  0.1674  1.1838 -1.9198
  473SOL     OW 1417   1.145   3.031   0.296 -0.1995 -0.5950 -0.4657
  473SOL    HW1 1418   1.137   2.946   0.245 -0.1073 -2.7594  1.0853
  473SOL    HW2 1419   1.059   3.083   0.285  0.5892  0.1785 -1.4189
  474SOL     OW 1420   2.595   2.541   0.761 -0.0983  0.5086  0.1957
  474SOL    HW1 1421   2.623   2.484   0.685 -1.0951  0.1981  0.1543
  474SOL    HW2 1422   2.673   2.578   0.818 -0.7275 -0.6960  0.9775
  475SOL     OW 1423   2.125   2.827   1.690 -0.3371 -0.2686  0.1828
  475SOL    HW1 1424   2.111   2.874   1.600  0.5966 -1.5832  0.1759
  475SOL    HW2 1425   2.206   2.874   1.734 -1.1110 -1.9362 -0.2217
  476SOL     OW 1426   0.885   0.719   0.750  0.3381  0.2003  0.0986
  476SOL    HW1 1427   0.946   0.690   0.675  0.5392  0.3226  1.4162
  476SOL    HW2 1428   0.790   0.751   0.720  1.1099 -0.5259 -0.0734
  477SOL     OW 1429   0.477   1.989   0.834 -0.2423  0.2289 -0.0495
  477SOL    HW1 1430   0.388   2.002   0.879  0.8083 -1.4420 -1.5285
  477SOL    HW2 1431   0.509   2.071   0.775 -0.4681  0.3474 -1.4141
  478SOL     OW 1432   0.054   2.530   2.110  0.1485  0.5544 -0.0836
  478SOL    HW1 1433   3.059   2.520   2.139  1.0164 -1.4842  0.7175
  478SOL    HW2 1434   0.070   2.612   2.051  2.1550  2.3781 -1.1882
  479SOL     OW 1435   0.149   0.669   1.598 -0.2310 -0.1718 -0.7923
  479SOL    HW1 1436   0.058   0.628   1.614  0.3718 -2.5631 -1.6087
  479SOL    HW2 1437   0.220   0.594   1.606 -0.4307 -1.7176 -1.5512
  480SOL     OW 1438   2.973   2.541   0.065 -0.3450 -0.1651 -0.3402
  480SOL    HW1 1439   3.016   2.518   3.078 -1.3274 -1.1382 -0.9335
  480SOL    HW2 1440   3.042   2.538   0.144 -2.9203  1.1448  2.0175
  481SOL     OW 1441   1.815   1.854   2.250  0.6503 -0.5258  0.1943
  481SOL    HW1 1442   1.798   1.754   2.244  2.4438  2.1329 -1.4153
  481SOL    HW2 1443   1.843   1.895   2.158  1.9821  3.4602 -1.7099
  482SOL     OW 1444   1.656   2.263   0.062 -0.4897  0.0042  0.2902
  482SOL    HW1 1445   1.617   2.311   3.082  0.6417  0.0784 -0.4477
  482SOL    HW2 1446   1.751   2.228   0.040  0.7517  2.4056 -0.4624
  483SOL     OW 1447   0.419   1.818   2.152 -1.0264  0.0202 -0.1261
  483SOL    HW1 1448   0.500   1.882   2.169  1.6517  0.8151 -1.1860
  483SOL    HW2 1449   0.370   1.860   2.075 -0.4603  4.7144 -0.1903
  484SOL     OW 1450   3.006   0.540   1.130  0.3213 -0.4506 -0.2938
  484SOL    HW1 1451   2.968   0.483   1.057 -1.7615  2.5626  0.8221
  484SOL    HW2 1452   3.093   0.574   1.099 -2.9216 -1.8192  0.3227
  485SOL     OW 1453   2.173   1.146   0.694  0.1239  0.2855 -0.3731
  485SOL    HW1 1454   2.149   1.044   0.687  0.0187 -1.9005 -0.4436
  485SOL    HW2 1455   2.124   1.199   0.625  2.5833 -1.0351  0.2236
  486SOL     OW 1456   1.425   0.341   2.235 -0.0255 -0.1060  0.1193
  486SOL    HW1 1457   1.513   0.394   2.225 -0.7516  1.8728 -0.5275
  486SOL    HW2 1458   1.423   0.307   2.332  0.5553  0.3848 -0.1947
  487SOL     OW 1459   1.050   1.385   1.056  0.1737 -0.0019  0.1060
  487SOL    HW1 1460   0.982   1.306   1.052  0.4413 -2.8495 -0.7027
  487SOL    HW2 1461   1.138   1.353   1.025  0.3390  1.1877  1.7240
  488SOL     OW 1462   2.424   1.424   2.967 -0.5619  0.1745 -0.8636
  488SOL    HW1 1463   2.362   1.493   2.925 -2.6382 -1.0028 -0.0242
  488SOL    HW2 1464   2.409   1.419   3.069  0.2273  1.6845  2.0189
  489SOL     OW 1465   2.438   0.200   0.330  0.0641 -0.0932 -0.1959
  489SOL    HW1 1466   2.520   0.210   0.278 -0.7790 -0.0389 -0.0951
  489SOL    HW2 1467   2.434   0.122   0.396  1.0814  0.6291  0.1148
  490SOL     OW 1468   1.497   2.209   0.464  0.3540  0.1352 -0.1845
  490SOL    HW1 1469   1.517   2.119   0.427 -3.1605 -0.6190 -0.1477
  490SOL    HW2 1470   1.543   2.284   0.412 -3.2600 -1.5162  1.5014
  491SOL     OW 1471   0.903   1.118   0.676  0.0341  0.1078 -0.4951
  491SOL    HW1 1472   0.975   1.045   0.685 -0.5116 -3.0284  0.1730
  491SOL    HW2 1473   0.872   1.132   0.578  0.2684 -0.0956 -1.0335
  492SOL     OW 1474   1.490   0.325   0.048  0.3054  0.6705  0.1027
  492SOL    HW1 1475   1.562   0.322   3.077 -0.8884 -1.5823 -1.9809
  492SOL    HW2 1476   1.404   0.336   3.098 -1.1566  1.3290 -0.8932
  493SOL     OW 1477   2.038   2.138   0.237  0.5628  0.1672  0.4361
  493SOL    HW1 1478   2.086   2.218   0.280 -0.3475 -2.9156 -0.2828
  493SOL    HW2 1479   1.977   2.094   0.314  0.6048 -1.0956  1.3897
  494SOL     OW 1480   0.498   0.932   0.303 -0.2779  0.0086  0.2114
  494SOL    HW1 1481   0.543   1.022   0.310 -0.2593 -4.9873  0.9477
  494SOL    HW2 1482   0.465   0.909   0.209  1.3338  1.4085 -0.1883
  495SOL     OW 1483   2.992   2.866   0.941  0.2993 -0.0775  0.5771
  495SOL    HW1 1484   2.991   2.826   1.039 -0.0670  3.1712  1.3991
  495SOL    HW2 1485   3.013   2.786   0.877 -0.7199 -2.3598  1.3445
  496SOL     OW 1486   2.418   0.098   1.649 -0.5884 -0.3069 -0.1509
  496SOL    HW1 1487   2.471   0.167   1.593  0.7822  0.2438  1.5544
  496SOL    HW2 1488   2.318   0.120   1.658  1.5979  1.7703  0.6405
  497SOL     OW 1489   1.899   1.633   2.774  0.1937 -0.2563  0.5344
  497SOL    HW1 1490   1.979   1.626   2.712  2.0428  0.1661 -0.3873
  497SOL    HW2 1491   1.824   1.685   2.725 -1.0001 -3.5222 -0.5092
  498SOL     OW 1492   0.914   1.903   0.986  0.2490 -0.2681 -0.4201
  498SOL    HW1 1493   0.821   1.940   1.011 -0.1661 -0.3879  0.1320
  498SOL    HW2 1494   0.910   1.805   0.961 -3.2075  0.4124 -1.0546
  499SOL     OW 1495   0.790   2.167   1.384  0.4619 -0.9627 -0.1839
  499SOL    HW1 1496   0.750   2.087   1.339 -0.9347  1.7175  2.2147
  499SOL    HW2 1497   0.740   2.253   1.352 -1.4830  4.6081 -0.4597
  500SOL     OW 1498   1.006   2.158   0.180  0.8108 -0.2017  0.1035
  500SOL    HW1 1499   0.948   2.208   0.247  0.2769 -0.4077 -0.4109
  500SOL    HW2 1500   1.094   2.125   0.215 -0.4044 -2.3021  0.1344
  501SOL     OW 1501   2.802   3.063   1.376 -0.9416  0.2723  0.7140
  501SOL    HW1 1502   2.738   2.997   1.332  4.1850 -1.4646  1.3599
  501SOL    HW2 1503   2.754   0.007   1.450 -0.4923 -4.3982  0.0112
  502SOL     OW 1504   0.356   0.848   1.672  0.9987  0.6254 -0.4670
  502SOL    HW1 1505   0.266   0.805   1.673 -0.7643  0.4927  1.3614
  502SOL    HW2 1506   0.416   0.809   1.604 -4.5847  2.3465 -1.2450
  503SOL     OW 1507   2.078   0.884   1.567 -0.3767  0.4827  0.1835
  503SOL    HW1 1508   2.085   0.989   1.561 -0.2693  2.6015 -0.8170
  503SOL    HW2 1509   2.041   0.853   1.478  0.8302  2.1554  5.0950
  504SOL     OW 1510   1.258   0.758   1.980 -0.0234 -0.5148 -0.5684
  504SOL    HW1 1511   1.285   0.679   2.032 -1.1362  0.1591 -1.1964
  504SOL    HW2 1512   1.292   0.842   2.028 -0.6383  0.9855 -1.6050
  505SOL     OW 1513   0.657   3.036   2.436 -0.3504  0.0082 -0.1982
  505SOL    HW1 1514   0.747   3.053   2.390  2.6744  2.2410  0.2896
  505SOL    HW2 1515   0.666   3.040   2.535  1.0087 -2.0776  0.4164
  506SOL     OW 1516   0.281   0.412   1.354 -0.7104  0.0532  0.1034
  506SOL    HW1 1517   0.236   0.352   1.418  1.6265  1.0968 -2.7612
  506SOL    HW2 1518   0.216   0.487   1.327  0.8636  1.1292  1.8667
  507SOL     OW 1519   1.278   0.109   0.011  0.4282  0.1350 -0.1502
  507SOL    HW1 1520   1.371   0.122   0.052  1.4182 -0.7942  0.5189
  507SOL    HW2 1521   1.234   0.028   0.052  0.1824 -1.3879 -0.2488
  508SOL     OW 1522   1.935   0.211   2.568 -0.2464  0.3773 -0.2560
  508SOL    HW1 1523   2.025   0.251   2.533  2.1272  1.6412 -0.5693
  508SOL    HW2 1524   1.927   0.112   2.557 -1.0398 -1.1483 -1.8450
  509SOL     OW 1525   0.710   1.409   2.082  0.1065  0.4643 -0.0772
  509SOL    HW1 1526   0.765   1.455   2.153 -2.6334 -1.3161 -3.0791
  509SOL    HW2 1527   0.631   1.358   2.123  3.4209 -2.9749  1.4546
  510SOL     OW 1528   0.058   0.991   0.759  0.1446 -0.0539  0.1749
  510SOL    HW1 1529   0.043   1.090   0.777 -0.8589  0.1137 -0.3183
  510SOL    HW2 1530   0.092   0.948   0.848  2.3431  1.0827  0.1902
  511SOL     OW 1531   2.007   1.985   0.886  0.5336  0.0144 -0.4795
  511SOL    HW1 1532   2.038   1.997   0.795 -2.5743  2.9210  5.3093
  511SOL    HW2 1533   1.985   1.886   0.903  0.0703 -3.7884  0.9531
  512SOL     OW 1534   0.576   1.189   0.345 -0.3574  0.4471 -0.6583
  512SOL    HW1 1535   0.542   1.267   0.400  1.3886 -0.1081 -0.6900
  512SOL    HW2 1536   0.604   1.220   0.252 -0.5599 -0.0775  0.4658
  513SOL     OW 1537   0.558   2.410   0.624 -1.4147 -0.5754 -0.2001
  513SOL    HW1 1538   0.461   2.441   0.619  0.1575 -0.6606 -0.2082
  513SOL    HW2 1539   0.626   2.476   0.589 -4.8293 -0.7164 -0.5386
  514SOL     OW 1540   2.539   2.060   2.367  0.2990 -0.0188  0.2815
  514SOL    HW1 1541   2.449   2.040   2.314 -1.2988 -4.3716 -0.6800
  514SOL    HW2 1542   2.561   2.159   2.385 -0.7902 -1.3084 -0.6877
  515SOL     OW 1543   2.356   0.869   0.123 -0.3365 -0.0031  0.1212
  515SOL    HW1 1544   2.309   0.787   0.159 -0.1516  1.6904 -1.8496
  515SOL    HW2 1545   2.452   0.848   0.108 -2.0739 -0.6795  0.4415
  516SOL     OW 1546   1.900   0.190   0.751 -0.2364 -0.4334 -0.2674
  516SOL    HW1 1547   1.810   0.197   0.800 -1.0306  1.5614  1.0657
  516SOL    HW2 1548   1.884   0.239   0.661 -2.1308 -0.9104 -1.1465
  517SOL     OW 1549   1.516   1.836   0.089 -0.1756 -0.8109 -0.0483
  517SOL    HW1 1550   1.593   1.825   0.031 -4.1359 -1.9194  1.7718
  517SOL    HW2 1551   1.433   1.836   0.029 -0.9280  1.7640 -1.0074
  518SOL     OW 1552   1.123   0.813   1.771  0.3755  0.4684 -0.1301
  518SOL    HW1 1553   1.182   0.790   1.854  0.7070 -1.7441  0.2968
  518SOL    HW2 1554   1.184   0.850   1.696  4.0638  3.4077  2.1612
  519SOL     OW 1555   0.053   1.197   0.098 -0.3411  0.4704  0.4407
  519SOL    HW1 1556   0.040   1.294   0.070  2.5267 -1.5066  0.2291
  519SOL    HW2 1557   0.041   1.193   0.198 -2.0795 -2.9001  1.8768
  520SOL     OW 1558   1.982   2.258   1.880 -0.1339 -0.2680 -0.2194
  520SOL    HW1 1559   2.074   2.291   1.857 -2.7877 -2.0898  0.0776
  520SOL    HW2 1560   1.984   2.175   1.933  3.2949  1.4910  0.8330
  521SOL     OW 1561   1.034   2.617   2.512  0.3616  0.0024 -0.1197
  521SOL    HW1 1562   1.029   2.628   2.409  1.8869 -1.2019 -0.1792
  521SOL    HW2 1563   1.131   2.613   2.541  0.0525  0.6158 -1.0607
  522SOL     OW 1564   2.109   0.373   2.181 -0.6406 -0.3434  0.0403
  522SOL    HW1 1565   2.113   0.476   2.175  0.9213  2.4046  1.9633
  522SOL    HW2 1566   2.127   0.344   2.278 -1.8048 -0.8513  2.1729
  523SOL     OW 1567   1.782   1.996   1.325  0.2547 -0.0317  0.2236
  523SOL    HW1 1568   1.736   2.084   1.317  0.1484 -0.5705 -2.3557
  523SOL    HW2 1569   1.784   1.968   1.425 -0.0111  2.0872  0.6381
  524SOL     OW 1570   1.349   2.305   0.173 -0.1886 -0.5392  0.0405
  524SOL    HW1 1571   1.283   2.368   0.212  1.3568 -1.5746 -2.0774
  524SOL    HW2 1572   1.443   2.333   0.197  1.5017 -1.3446  1.4451
  525SOL     OW 1573   0.028   0.447   3.026 -0.6991  0.0258  0.0534
  525SOL    HW1 1574   3.047   0.505   3.015 -0.6296  0.1574  2.2581
  525SOL    HW2 1575   0.094   0.484   3.095 -0.5153  1.3621 -0.0639
  526SOL     OW 1576   1.163   2.683   0.543 -0.3573  0.0920 -0.1969
  526SOL    HW1 1577   1.078   2.730   0.515 -2.8045  0.5802  1.0268
  526SOL    HW2 1578   1.233   2.754   0.554 -2.0645 -0.6760  0.8945
  527SOL     OW 1579   2.740   1.506   0.605 -0.8484  0.0580 -0.2493
  527SOL    HW1 1580   2.729   1.584   0.669  1.4254 -0.6778 -2.9578
  527SOL    HW2 1581   2.699   1.528   0.515 -1.1607 -1.7986  1.2090
  528SOL     OW 1582   0.394   1.031   2.303  0.0484  0.3830 -0.0833
  528SOL    HW1 1583   0.306   1.002   2.341  2.3966  0.0586 -1.2971
  528SOL    HW2 1584   0.442   0.953   2.252  1.7349 -3.1262 -2.1634
  529SOL     OW 1585   1.413   1.535   2.685 -0.1293  0.2783 -0.6203
  529SOL    HW1 1586   1.470   1.446   2.688  0.5058 -1.1513  0.8326
  529SOL    HW2 1587   1.313   1.510   2.684  0.3944  0.4954  1.9723
  530SOL     OW 1588   1.806   1.042   2.332  0.5205  0.4345 -0.1566
  530SOL    HW1 1589   1.720   0.983   2.340 -5.1106 -0.3993  1.5504
  530SOL    HW2 1590   1.794   1.099   2.249  0.0013 -2.7218 -0.2704
  531SOL     OW 1591   0.514   2.182   2.710  0.1222 -0.3133  0.0865
  531SOL    HW1 1592   0.481   2.154   2.618  0.5821  0.5115  0.6070
  531SOL    HW2 1593   0.443   2.151   2.776 -0.6910 -0.5750 -1.6399
  532SOL     OW 1594   2.425   1.146   0.523  0.6523 -0.0014 -0.1643
  532SOL    HW1 1595   2.381   1.136   0.433  0.0870 -0.3483 -0.3570
  532SOL    HW2 1596   2.352   1.147   0.592 -0.6459 -1.3581 -1.9417
  533SOL     OW 1597   0.140   0.019   1.701  0.8752 -0.6093 -0.2414
  533SOL    HW1 1598   0.239   0.021   1.728 -0.5518 -0.2735  0.4192
  533SOL    HW2 1599   0.145   0.000   1.601  0.6542 -0.9647  2.9387
  534SOL     OW 1600   0.611   0.141   3.103 -0.0974  0.5653  0.0824
  534SOL    HW1 1601   0.661   0.151   3.012  0.3255 -1.5325 -1.8906
  534SOL    HW2 1602   0.554   0.055   3.099  0.0367 -0.8795 -0.9419
  535SOL     OW 1603   0.300   0.239   0.252  0.0267 -0.3895  0.1521
  535SOL    HW1 1604   0.213   0.283   0.262  4.5664  0.8058  0.7433
  535SOL    HW2 1605   0.291   0.137   0.260  0.3991  0.2684  1.4741
  536SOL     OW 1606   0.515   1.633   1.368 -0.0841 -0.3350 -0.2007
  536SOL    HW1 1607   0.589   1.640   1.437 -0.4718  1.1277  1.5365
  536SOL    HW2 1608   0.545   1.612   1.276 -1.5402  1.4579  1.1407
  537SOL     OW 1609   1.172   2.605   1.859 -0.0418 -0.1830  0.0332
  537SOL    HW1 1610   1.269   2.570   1.870  0.9912  2.2299  1.3175
  537SOL    HW2 1611   1.100   2.537   1.890 -0.2057 -1.0597 -1.2934
  538SOL     OW 1612   0.010   1.948   3.073  0.1494  0.1381 -0.0627
  538SOL    HW1 1613   3.076   1.884   0.039 -0.1452 -1.0274 -2.7144
  538SOL    HW2 1614   0.105   1.979   3.100 -0.3358 -1.0224  0.1646
  539SOL     OW 1615   2.753   1.108   2.610 -0.3238  0.5801 -0.1212
  539SOL    HW1 1616   2.815   1.101   2.691 -2.0053 -0.9952  2.1998
  539SOL    HW2 1617   2.802   1.115   2.524 -0.3117 -0.6561  1.6039
  540SOL     OW 1618   1.683   0.484   2.256  0.2837 -0.4798  0.1056
  540SOL    HW1 1619   1.632   0.574   2.247  0.8174  0.7544 -0.4125
  540SOL    HW2 1620   1.742   0.479   2.342 -0.1429  0.1360 -1.6994
  541SOL     OW 1621   0.566   0.392   2.052  0.2281 -0.4934 -0.6318
  541SOL    HW1 1622   0.498   0.338   2.100  1.0882 -1.2640 -1.7587
  541SOL    HW2 1623   0.527   0.457   1.983 -0.0606  0.8483  0.8913
  542SOL     OW 1624   1.987   2.820   3.071 -0.2239  0.1232  0.3149
  542SOL    HW1 1625   1.980   2.867   0.056 -2.1801 -0.6967 -1.0367
  542SOL    HW2 1626   1.966   2.885   2.996  0.8930 -1.1538 -2.0003
  543SOL     OW 1627   1.359   0.136   0.331  0.1484 -0.7714  0.1340
  543SOL    HW1 1628   1.326   0.235   0.332 -1.0855  1.3054  2.3734
  543SOL    HW2 1629   1.281   0.068   0.328 -1.0319  0.0547  0.9698
  544SOL     OW 1630   2.620   1.618   1.786  0.0873 -0.2827 -0.1565
  544SOL    HW1 1631   2.683   1.556   1.838  2.0126  0.3129  1.8778
  544SOL    HW2 1632   2.539   1.569   1.745 -4.1138 -2.8719 -1.1104
  545SOL     OW 1633   2.179   1.978   1.378  0.1409 -0.1368  0.0195
  545SOL    HW1 1634   2.115   1.980   1.301 -0.8840  0.3712  2.3390
  545SOL    HW2 1635   2.226   2.065   1.386  0.3315 -1.1670  1.9600
  546SOL     OW 1636   0.095   3.080   2.440 -0.1920 -0.4542  0.3592
  546SOL    HW1 1637   0.095   3.076   2.338 -2.3225 -0.6472 -3.2910
  546SOL    HW2 1638   0.119   2.989   2.483  0.7028  0.2378 -0.3243
  547SOL     OW 1639   1.354   0.853   0.548 -0.0844  0.4122  0.0665
  547SOL    HW1 1640   1.389   0.899   0.631 -2.1004 -1.8388 -1.2222
  547SOL    HW2 1641   1.358   0.754   0.556  1.4254 -2.0474  0.1730
  548SOL     OW 1642   1.599   2.286   2.540  0.0208 -0.6289  0.0710
  548SOL    HW1 1643   1.653   2.352   2.600 -3.7349  0.5878  1.6262
  548SOL    HW2 1644   1.501   2.304   2.562 -0.8349  1.1445  2.5828
  549SOL     OW 1645   2.129   0.523   0.500  0.0819 -0.1359  0.0487
  549SOL    HW1 1646   2.132   0.592   0.426  0.9120  2.4480  2.9518
  549SOL    HW2 1647   2.077   0.565   0.578  0.6801  0.2026 -0.7262
  550SOL     OW 1648   2.808   2.016   0.452 -0.1926 -0.5337 -0.4480
  550SOL    HW1 1649   2.749   2.063   0.523  2.0262 -1.0701  2.4519
  550SOL    HW2 1650   2.776   1.920   0.437 -0.7611 -0.9779  1.0150
  551SOL     OW 1651   1.350   2.535   2.428 -0.1082 -0.2108 -0.2424
  551SOL    HW1 1652   1.320   2.596   2.354 -0.1403  0.2766  0.6895
  551SOL    HW2 1653   1.319   2.440   2.412 -1.0840 -0.9751  0.5225
  552SOL     OW 1654   2.883   2.456   2.802 -0.1017 -0.2343  0.0582
  552SOL    HW1 1655   2.939   2.381   2.771 -2.1022  0.9002  0.7178
  552SOL    HW2 1656   2.814   2.487   2.728  0.9251  0.8103 -1.2222
  553SOL     OW 1657   0.130   0.138   0.711  0.2129  0.4940  0.0566
  553SOL    HW1 1658   0.214   0.138   0.770 -0.7873 -0.1821 -0.8885
  553SOL    HW2 1659   0.081   0.046   0.712 -2.0408  0.6631  0.0179
  554SOL     OW 1660   2.218   2.316   1.668  0.0336 -0.3985  0.1883
  554SOL    HW1 1661   2.173   2.409   1.661  1.9725  2.4108 -1.5868
  554SOL    HW2 1662   2.261   2.298   1.761  3.3187  1.3799  0.1157
  555SOL     OW 1663   1.627   2.301   2.269  0.5114  0.2203 -0.0377
  555SOL    HW1 1664   1.668   2.272   2.356 -1.2078 -1.7791  0.0475
  555SOL    HW2 1665   1.629   2.401   2.267  0.3223  1.6392  0.6991
  556SOL     OW 1666   1.284   1.168   1.173  0.2081 -0.7503 -0.1699
  556SOL    HW1 1667   1.260   1.171   1.072 -1.0384  1.9823  0.7635
  556SOL    HW2 1668   1.263   1.264   1.213 -1.4115  1.7204  1.1468
  557SOL     OW 1669   1.970   2.498   2.335  0.0041  0.4599 -0.2462
  557SOL    HW1 1670   1.982   2.401   2.370  1.9122  0.5936  1.7677
  557SOL    HW2 1671   2.010   2.566   2.399  1.3636 -2.3811 -0.1711
  558SOL     OW 1672   0.197   2.745   1.982  0.2438  0.0517 -0.0385
  558SOL    HW1 1673   0.275   2.725   1.921  0.3294  2.2915 -1.1500
  558SOL    HW2 1674   0.226   2.793   2.066  1.1155  0.5286 -0.3071
  559SOL     OW 1675   2.186   2.977   0.859  0.7451 -0.5206  0.4049
  559SOL    HW1 1676   2.258   2.929   0.801 -0.0993  0.0103 -0.9789
  559SOL    HW2 1677   2.093   2.939   0.848  2.9447  0.9774 -0.8573
  560SOL     OW 1678   1.627   2.653   0.676  0.2301 -0.6408  0.3267
  560SOL    HW1 1679   1.547   2.605   0.717 -2.3486 -0.1137  0.3536
  560SOL    HW2 1680   1.647   2.738   0.727  1.2992  0.1859  0.5813
  561SOL     OW 1681   1.002   0.116   0.858  0.2932  0.2609 -0.2643
  561SOL    HW1 1682   1.032   0.068   0.774  1.3915  2.1248  1.4356
  561SOL    HW2 1683   1.075   0.185   0.883  1.2140 -0.7095 -0.8561
  562SOL     OW 1684   0.512   1.056   2.570  0.4841  0.6455  0.3411
  562SOL    HW1 1685   0.493   1.035   2.473  1.5368 -0.0200  0.7239
  562SOL    HW2 1686   0.458   1.138   2.596  1.2702 -1.0906 -0.9156
  563SOL     OW 1687   1.724   1.791   2.605  0.3331  0.7739  0.4637
  563SOL    HW1 1688   1.777   1.876   2.616  0.5888 -1.9727 -1.2715
  563SOL    HW2 1689   1.640   1.802   2.548  2.2838 -0.8379  0.6520
  564SOL     OW 1690   2.763   0.921   1.185  0.3196  0.4978 -0.0906
  564SOL    HW1 1691   2.676   0.904   1.236 -0.8153  2.2349  0.3057
  564SOL    HW2 1692   2.745   0.911   1.086 -0.7846  2.8688 -3.4282
  565SOL     OW 1693   1.092   0.684   3.011  0.2015 -0.4111  0.3074
  565SOL    HW1 1694   1.189   0.696   2.975 -1.4083  1.1830 -0.4073
  565SOL    HW2 1695   1.028   0.652   2.936 -0.6779 -1.7518  2.3402
  566SOL     OW 1696   2.124   0.257   2.880  0.3266 -0.3846 -0.4175
  566SOL    HW1 1697   2.104   0.344   2.929  0.6960 -2.7100 -0.8035
  566SOL    HW2 1698   2.222   0.234   2.876 -3.5703 -1.8009  2.9790
  567SOL     OW 1699   2.041   1.255   0.480  0.2235  0.0246 -0.5699
  567SOL    HW1 1700   1.971   1.338   0.473 -2.6068  0.8603  0.4130
  567SOL    HW2 1701   2.089   1.236   0.397 -1.5565  0.2805  0.9559
  568SOL     OW 1702   1.717   1.801   2.990 -0.3913 -0.4255 -0.4689
  568SOL    HW1 1703   1.631   1.773   2.942  0.6189 -0.5964 -1.5887
  568SOL    HW2 1704   1.791   1.746   2.957 -2.1854  3.5099  1.8834
  569SOL     OW 1705   2.037   1.231   2.930  0.3096  0.2139 -0.0205
  569SOL    HW1 1706   1.981   1.318   2.924  0.5750  2.0563  0.1886
  569SOL    HW2 1707   2.133   1.243   2.899 -2.8579  1.3066 -1.6119
  570SOL     OW 1708   0.676   2.200   1.792 -0.1865 -0.8510 -0.2232
  570SOL    HW1 1709   0.685   2.280   1.727 -1.7958  0.6483  0.4379
  570SOL    HW2 1710   0.576   2.182   1.797  1.9573  0.1475 -2.2032
  571SOL     OW 1711   0.415   1.020   1.881  0.2896 -0.5512 -0.2801
  571SOL    HW1 1712   0.390   0.954   1.805  1.4270 -0.7607 -1.8494
  571SOL    HW2 1713   0.334   1.048   1.931  0.6445 -1.5568 -1.3387
  572SOL     OW 1714   1.049   1.839   0.578 -0.2056  0.1567  0.1834
  572SOL    HW1 1715   1.024   1.743   0.571  0.1693  4.1792  2.4628
  572SOL    HW2 1716   1.045   1.884   0.486  0.2878  2.0634 -0.9092
  573SOL     OW 1717   1.849   2.085   0.435 -0.1241 -0.2094 -0.0778
  573SOL    HW1 1718   1.777   2.043   0.380 -0.2600 -0.4791  1.9001
  573SOL    HW2 1719   1.821   2.137   0.518  1.0021 -0.3039  0.7277
  574SOL     OW 1720   0.970   3.022   1.064 -0.6050 -0.7198  0.4243
  574SOL    HW1 1721   0.869   3.007   1.077 -0.9087  0.0257  1.5131
  574SOL    HW2 1722   0.983   0.005   1.006 -1.5324  2.2271 -3.4298
  575SOL     OW 1723   0.348   1.150   1.442  0.0922  0.5268  0.0602
  575SOL    HW1 1724   0.423   1.148   1.511 -0.2378 -1.5704  0.1027
  575SOL    HW2 1725   0.285   1.233   1.451  0.5695 -1.4814  3.2246
  576SOL     OW 1726   2.477   0.031   1.164  0.2549 -0.2454 -0.0410
  576SOL    HW1 1727   2.373   0.017   1.161 -1.8961 -0.2483  0.0723
  576SOL    HW2 1728   2.530   3.055   1.133  0.7546  1.2542 -1.4008
  577SOL     OW 1729   0.905   1.092   2.188 -0.4432 -0.0528  0.4112
  577SOL    HW1 1730   0.892   1.044   2.099  2.7391  0.1132  2.2178
  577SOL    HW2 1731   0.824   1.148   2.205  3.1953  1.3894 -0.0649
  578SOL     OW 1732   1.914   0.854   2.624 -0.3843  0.3455  0.4735
  578SOL    HW1 1733   1.946   0.873   2.528  1.4742  0.3772  0.1612
  578SOL    HW2 1734   1.895   0.939   2.677 -0.1048  2.4477  0.9164
  579SOL     OW 1735   1.784   2.504   1.569  0.1505  0.3416  0.4564
  579SOL    HW1 1736   1.784   2.481   1.667 -1.0652 -1.7183  0.0984
  579SOL    HW2 1737   1.828   2.427   1.521 -1.4941  1.6244  1.5557
  580SOL     OW 1738   1.716   1.483   2.492  0.0777  0.0055  0.4518
  580SOL    HW1 1739   1.767   1.565   2.524 -0.0121  2.6333 -0.9603
  580SOL    HW2 1740   1.616   1.493   2.495 -0.4197 -2.0739  0.3436
  581SOL     OW 1741   1.218   1.227   2.527  0.3096 -0.0331  0.3421
  581SOL    HW1 1742   1.258   1.176   2.600 -3.3540  1.2271 -1.5681
  581SOL    HW2 1743   1.202   1.319   2.563  1.6775 -0.0503  1.0258
  582SOL     OW 1744   1.090   1.186   1.570  0.3770  0.0605 -0.3844
  582SOL    HW1 1745   1.095   1.271   1.628 -0.8450  1.4383  0.2168
  582SOL    HW2 1746   0.994   1.177   1.545 -0.2408 -2.0268  2.7287
  583SOL     OW 1747   1.153   1.151   1.937 -0.5898  0.6293 -0.6439
  583SOL    HW1 1748   1.081   1.078   1.937  1.5985  0.3972 -0.4707
  583SOL    HW2 1749   1.112   1.235   1.906  1.3563 -3.9298  0.5370
  584SOL     OW 1750   2.158   2.830   0.441 -0.2641  0.4304  0.1489
  584SOL    HW1 1751   2.207   2.811   0.349  4.5138 -2.7915 -2.7787
  584SOL    HW2 1752   2.233   2.872   0.505  2.2489  1.3413  3.5017
  585SOL     OW 1753   1.909   0.002   0.042  0.0868 -0.2688 -0.2593
  585SOL    HW1 1754   1.980   3.080   3.079 -0.7139 -0.4486  1.4022
  585SOL    HW2 1755   1.951   0.050   0.122  2.6147 -0.2572 -1.6775
  586SOL     OW 1756   2.877   1.912   1.143 -0.2093  0.1803 -0.0127
  586SOL    HW1 1757   2.790   1.969   1.157  1.8229 -0.2168  0.4991
  586SOL    HW2 1758   2.947   1.945   1.204  1.9794 -3.5487 -0.3469
  587SOL     OW 1759   1.245   1.769   3.033  0.0283  0.2489 -0.2326
  587SOL    HW1 1760   1.191   1.769   0.016  0.1858  1.6653  0.2148
  587SOL    HW2 1761   1.213   1.845   2.973 -0.1084 -1.4650  0.7960
  588SOL     OW 1762   0.458   0.373   0.909  0.5059  0.1024  0.3648
  588SOL    HW1 1763   0.532   0.349   0.843  0.8367 -0.6508  1.6432
  588SOL    HW2 1764   0.442   0.476   0.900 -1.5501  3.4284  0.2872
  589SOL     OW 1765   1.321   0.049   0.722  0.0087  0.2010 -0.4209
  589SOL    HW1 1766   1.225   0.055   0.689  2.1594  0.5460 -0.9667
  589SOL    HW2 1767   1.328   0.087   0.817 -1.4246  1.1688  1.0289
  590SOL     OW 1768   1.256   1.014   2.966  0.6328  0.5647 -0.2076
  590SOL    HW1 1769   1.280   0.918   2.951 -3.0899  2.5854 -0.9525
  590SOL    HW2 1770   1.160   1.034   2.941  2.2388  1.1470 -0.4055
  591SOL     OW 1771   2.894   2.497   2.126  0.2080 -0.3892  0.0567
  591SOL    HW1 1772   2.809   2.504   2.174 -0.2890 -2.8065 -1.5453
  591SOL    HW2 1773   2.914   2.402   2.115  1.1718  1.6928  0.1986
  592SOL     OW 1774   2.393   1.464   1.698  0.0984 -0.3445  0.1818
  592SOL    HW1 1775   2.301   1.512   1.695 -0.3085  3.7106 -0.6028
  592SOL    HW2 1776   2.438   1.471   1.609 -0.4319  1.2684 -0.5561
  593SOL     OW 1777   1.274   0.978   1.604 -0.0453  0.3772 -0.2131
  593SOL    HW1 1778   1.307   0.948   1.507  0.3505  0.7267 -2.9209
  593SOL    HW2 1779   1.201   1.048   1.600 -0.4376  0.2304 -1.9570
  594SOL     OW 1780   2.549   1.276   2.520 -0.1953 -0.0995  0.0771
  594SOL    HW1 1781   2.578   1.365   2.481 -0.7126 -1.7862 -2.2929
  594SOL    HW2 1782   2.626   1.232   2.573  2.1510 -0.5229  2.0194
  595SOL     OW 1783   3.047   0.263   0.525 -0.0398 -0.3231  0.1987
  595SOL    HW1 1784   0.012   0.219   0.579 -0.8611  1.4373 -0.2654
  595SOL    HW2 1785   2.956   0.249   0.564  0.0274 -1.3968  0.0425
  596SOL     OW 1786   3.076   1.583   0.917 -0.0115  0.1603 -0.4508
  596SOL    HW1 1787   3.036   1.515   0.983  0.2188 -0.9045 -0.2943
  596SOL    HW2 1788   0.074   1.583   0.932 -3.2601 -1.2681 -0.0959
  597SOL     OW 1789   1.409   1.608   0.563 -0.3814  0.0571 -0.0296
  597SOL    HW1 1790   1.481   1.682   0.560 -0.2080  2.2303  3.1575
  597SOL    HW2 1791   1.353   1.615   0.480  1.2728 -1.0909  1.2481
  598SOL     OW 1792   0.376   2.595   1.802  0.2850  0.2429  0.0025
  598SOL    HW1 1793   0.448   2.603   1.727  1.5366 -2.3896 -1.5615
  598SOL    HW2 1794   0.309   2.520   1.775 -1.6327  1.5880  0.4399
  599SOL     OW 1795   3.053   1.543   2.816  0.1268  0.4827  0.5119
  599SOL    HW1 1796   2.977   1.474   2.826 -1.2685 -0.2897 -0.3042
  599SOL    HW2 1797   3.032   1.639   2.852 -1.4070  0.1888  0.4847
  600SOL     OW 1798   0.626   0.842   2.932 -0.0871  0.2646  0.1572
  600SOL    HW1 1799   0.677   0.771   2.985  1.3273  0.8412  2.2284
  600SOL    HW2 1800   0.607   0.817   2.835 -0.4354  0.8504  0.5889
  601SOL     OW 1801   0.733   0.757   1.011 -0.8774 -0.4119 -0.3208
  601SOL    HW1 1802   0.699   0.740   0.916  1.6003 -1.1137 -0.1489
  601SOL    HW2 1803   0.691   0.842   1.049  1.1253  0.1186 -0.0603
  602SOL     OW 1804   1.133   2.438   0.413  0.3818 -0.1240 -0.0264
  602SOL    HW1 1805   1.145   2.530   0.456 -1.1885  1.4663 -0.6444
  602SOL    HW2 1806   1.167   2.365   0.478  0.6224  0.0834  1.4681
  603SOL     OW 1807   1.357   2.393   2.024 -0.2731 -0.6458  0.4657
  603SOL    HW1 1808   1.413   2.474   2.005 -2.4295 -1.9911 -0.8107
  603SOL    HW2 1809   1.271   2.413   2.072  1.6638 -0.5468  3.3909
  604SOL     OW 1810   0.580   0.361   2.764 -0.0929 -0.5273  0.4387
  604SOL    HW1 1811   0.529   0.414   2.834 -2.0995  2.5402  0.8460
  604SOL    HW2 1812   0.630   0.286   2.805 -0.5675  3.0060 -0.7574
  605SOL     OW 1813   2.481   1.221   1.439 -0.2135 -0.7391  0.5307
  605SOL    HW1 1814   2.426   1.169   1.376 -1.8795  4.0610  1.1470
  605SOL    HW2 1815   2.486   1.175   1.534  1.0490 -0.3204 -0.9435
  606SOL     OW 1816   0.840   1.814   2.700 -0.0383  0.2283 -0.0941
  606SOL    HW1 1817   0.776   1.862   2.634 -0.4398  1.1802  0.5580
  606SOL    HW2 1818   0.896   1.745   2.648 -0.7120 -0.2028  1.3799
  607SOL     OW 1819   0.731   0.055   0.744 -0.1301 -0.5656  0.2032
  607SOL    HW1 1820   0.739   0.042   0.645 -0.5508 -1.0475  2.2374
  607SOL    HW2 1821   0.824   0.071   0.792  3.6393  0.8022  2.5908
  608SOL     OW 1822   2.221   2.064   2.043  0.2039  0.2953  0.4189
  608SOL    HW1 1823   2.280   2.006   1.984  1.3487 -1.6801  2.0573
  608SOL    HW2 1824   2.122   2.035   2.028  2.7888 -1.6364  0.2462
  609SOL     OW 1825   2.789   0.227   0.685  0.2204  0.0284 -0.3762
  609SOL    HW1 1826   2.738   0.151   0.731 -0.0459  0.0039  0.4212
  609SOL    HW2 1827   2.722   0.281   0.629 -1.3283 -0.2973  1.5794
  610SOL     OW 1828   0.255   2.517   1.052  0.2686 -0.3734 -0.2895
  610SOL    HW1 1829   0.247   2.490   1.155 -1.3270 -1.8384  2.7603
  610SOL    HW2 1830   0.348   2.537   1.020 -1.3200  2.6132 -0.3582
  611SOL     OW 1831   1.316   1.413   3.083  0.0645 -0.1046 -0.0430
  611SOL    HW1 1832   1.291   1.328   0.033 -2.4403 -0.6680  2.1580
  611SOL    HW2 1833   1.363   1.483   0.037 -0.7941 -0.1156 -2.8006
  612SOL     OW 1834   0.492   2.686   2.039  0.5483 -0.2908  0.5580
  612SOL    HW1 1835   0.492   2.640   2.129  3.6018  0.2648 -4.8562
  612SOL    HW2 1836   0.436   2.635   1.968 -0.9330 -0.8470  0.2354
  613SOL     OW 1837   0.521   2.766   0.717  0.0606 -0.0127  0.2422
  613SOL    HW1 1838   0.566   2.819   0.642 -2.4039  1.0263  2.7902
  613SOL    HW2 1839   0.583   2.747   0.796 -1.4229 -0.4389  0.2056
  614SOL     OW 1840   2.343   0.244   2.023  0.3010  0.0188  0.0497
  614SOL    HW1 1841   2.262   0.304   2.012 -1.0809  1.6326 -0.2553
  614SOL    HW2 1842   2.320   0.146   2.003  0.8969  0.9939  1.1931
  615SOL     OW 1843   1.446   1.177   0.290  0.1898  0.1187 -0.3359
  615SOL    HW1 1844   1.379   1.205   0.216 -2.2627  0.5457 -1.4064
  615SOL    HW2 1845   1.521   1.244   0.314  0.1511 -2.9479 -1.7893
  616SOL     OW 1846   1.636   1.374   0.355 -0.0042 -0.4854  0.0036
  616SOL    HW1 1847   1.608   1.443   0.285 -2.4030  0.5281  0.3554
  616SOL    HW2 1848   1.725   1.397   0.399 -0.9446  2.4480 -2.6936
  617SOL     OW 1849   1.301   1.026   2.692 -0.2920  0.1122 -0.1176
  617SOL    HW1 1850   1.222   0.965   2.669  2.4329 -1.1831  1.9358
  617SOL    HW2 1851   1.322   1.016   2.791 -3.8706 -1.7971  0.3351
  618SOL     OW 1852   0.554   2.949   1.969  0.0793  0.0060 -0.1252
  618SOL    HW1 1853   0.524   2.852   1.985 -2.3542  0.4383 -0.2520
  618SOL    HW2 1854   0.518   3.011   2.044  0.1624  2.3075 -1.2638
  619SOL     OW 1855   2.813   1.800   1.489 -0.4760 -0.3881 -0.4008
  619SOL    HW1 1856   2.848   1.748   1.412 -2.1635  2.5460  1.9064
  619SOL    HW2 1857   2.715   1.785   1.489 -0.8556  0.3622 -0.3320
  620SOL     OW 1858   2.665   0.604   2.636  0.4945 -0.2775  0.5584
  620SOL    HW1 1859   2.643   0.704   2.635  0.1651 -1.7336 -0.5463
  620SOL    HW2 1860   2.764   0.585   2.624 -0.3308 -3.1678 -0.9083
  621SOL     OW 1861   2.266   2.015   2.290 -0.1474  0.1643 -0.2420
  621SOL    HW1 1862   2.251   2.053   2.194 -0.4744 -0.4914 -1.5038
  621SOL    HW2 1863   2.181   1.965   2.323 -0.6385  0.8454  0.3976
  622SOL     OW 1864   0.843   0.609   2.302  0.1153  0.2489 -0.2441
  622SOL    HW1 1865   0.830   0.517   2.262  1.0376 -0.0897 -1.4919
  622SOL    HW2 1866   0.890   0.672   2.235  0.5569  0.3831 -1.5684
  623SOL     OW 1867   0.625   1.165   2.234  0.2653 -0.2711  0.0981
  623SOL    HW1 1868   0.656   1.181   2.330 -0.9866  0.3279 -2.7000
  623SOL    HW2 1869   0.542   1.104   2.234 -0.2458 -2.6317  0.2757
  624SOL     OW 1870   2.843   0.413   0.302  0.6795  0.0207  0.1700
  624SOL    HW1 1871   2.807   0.395   0.394  1.6418 -1.3717  1.0325
  624SOL    HW2 1872   2.894   0.499   0.304 -0.3645  0.5984  1.5616
  625SOL     OW 1873   0.674   2.060   1.015  0.4960  0.4276  0.6140
  625SOL    HW1 1874   0.599   2.023   0.954  0.2628  1.6515 -1.0459
  625SOL    HW2 1875   0.657   2.046   1.113  1.7748 -2.1190  0.4585
  626SOL     OW 1876   1.965   0.597   2.695  0.2234 -0.5213  0.4189
  626SOL    HW1 1877   2.047   0.603   2.751  1.1190 -1.8833 -1.1165
  626SOL    HW2 1878   1.933   0.691   2.673  0.9784 -0.7026 -0.1437
  627SOL     OW 1879   1.654   2.770   2.890  0.2226 -0.4234 -0.4690
  627SOL    HW1 1880   1.590   2.706   2.935  0.8341 -0.9086  1.6164
  627SOL    HW2 1881   1.742   2.723   2.881 -1.3654 -0.2110 -1.7089
  628SOL     OW 1882   2.297   2.807   2.440  0.4290 -0.1539 -0.4550
  628SOL    HW1 1883   2.238   2.855   2.510 -0.5847 -0.6992  0.3603
  628SOL    HW2 1884   2.334   2.878   2.372 -0.8544  0.2540  1.2597
  629SOL     OW 1885   0.880   0.021   2.312 -0.3824  0.1164  0.0667
  629SOL    HW1 1886   0.861   0.043   2.214  1.3651 -0.4371  2.0338
  629SOL    HW2 1887   0.959   3.063   2.320 -0.5979  1.6072  1.7867
  630SOL     OW 1888   0.811   0.260   2.432 -0.2152 -0.2501 -0.0842
  630SOL    HW1 1889   0.877   0.287   2.511  0.8360  1.8872  0.5164
  630SOL    HW2 1890   0.820   0.165   2.408 -0.6122  4.1713  1.8104
  631SOL     OW 1891   1.864   1.471   0.460  0.1877  0.6957  0.0441
  631SOL    HW1 1892   1.859   1.487   0.564  1.8874  0.2888  2.3248
  631SOL    HW2 1893   1.874   1.562   0.416  2.0406  0.8485  0.6065
  632SOL     OW 1894   2.224   0.763   1.763 -0.2831  0.2702  0.5073
  632SOL    HW1 1895   2.168   0.816   1.698 -2.4134 -0.5935  0.1945
  632SOL    HW2 1896   2.319   0.800   1.772  1.1944  1.3693  0.7698
  633SOL     OW 1897   1.156   1.834   0.207  0.4009 -0.4049  0.1232
  633SOL    HW1 1898   1.067   1.840   0.261 -0.5920  0.9619  0.4569
  633SOL    HW2 1899   1.206   1.920   0.213 -1.5592 -1.6667 -1.6172
  634SOL     OW 1900   2.675   0.047   1.615  0.5233  0.5594  0.4558
  634SOL    HW1 1901   2.577   0.048   1.648 -1.1647  3.3096 -1.6171
  634SOL    HW2 1902   2.711   0.143   1.635 -2.2393  3.6025  3.2699
  635SOL     OW 1903   1.635   0.470   0.848 -0.2920  0.5153  0.7284
  635SOL    HW1 1904   1.682   0.552   0.881  0.9243 -0.2181 -0.0678
  635SOL    HW2 1905   1.646   0.393   0.917 -0.2448  0.1974  1.7381
  636SOL     OW 1906   0.831   1.050   3.091  0.2541  0.4731  0.1957
  636SOL    HW1 1907   0.854   1.048   2.993  0.4415 -1.8224 -0.7373
  636SOL    HW2 1908   0.887   0.980   0.034  0.8224 -0.7346  1.3344
  637SOL     OW 1909   3.032   2.180   2.930  0.1090 -0.0020  0.0167
  637SOL    HW1 1910   3.062   2.092   2.982  0.2886 -0.1376  0.3458
  637SOL    HW2 1911   3.103   2.250   2.924 -0.1500  0.7243 -0.0830
  638SOL     OW 1912   1.616   2.457   2.772 -0.5197 -0.1074 -0.1380
  638SOL    HW1 1913   1.515   2.471   2.764  2.7645 -1.1087 -2.7568
  638SOL    HW2 1914   1.623   2.386   2.834 -0.0332  0.0562 -0.7903
  639SOL     OW 1915   1.473   1.651   0.850  0.0439  0.5100 -0.0311
  639SOL    HW1 1916   1.423   1.738   0.883 -1.6498  0.2285  3.5907
  639SOL    HW2 1917   1.457   1.638   0.750 -0.5370  0.2192  0.3504
  640SOL     OW 1918   1.984   2.993   0.564  0.0160  0.2659  0.2971
  640SOL    HW1 1919   2.055   2.938   0.519 -0.4386  0.1656 -2.5879
  640SOL    HW2 1920   1.987   3.082   0.515  2.4582 -1.1957 -2.1522
  641SOL     OW 1921   2.723   0.351   3.074  0.2335  0.3137  0.6328
  641SOL    HW1 1922   2.626   0.391   3.066 -1.4270  1.2022  1.7797
  641SOL    HW2 1923   2.750   0.283   3.002 -2.8873 -1.1427  2.0957
  642SOL     OW 1924   3.028   0.892   1.194 -0.1418  0.2129  0.4474
  642SOL    HW1 1925   2.926   0.885   1.192 -1.4835 -1.0413 -3.7243
  642SOL    HW2 1926   3.074   0.926   1.281 -3.2257  1.1001 -3.3153
  643SOL     OW 1927   0.442   1.543   2.190  0.0740 -0.6772  0.1744
  643SOL    HW1 1928   0.509   1.539   2.269  0.6083 -0.4074  2.0559
  643SOL    HW2 1929   0.410   1.635   2.169  2.4519  1.2603  2.0747
  644SOL     OW 1930   2.159   2.424   0.696  0.1237 -0.2723 -0.3808
  644SOL    HW1 1931   2.088   2.502   0.705 -2.1872  0.5564  2.9067
  644SOL    HW2 1932   2.127   2.344   0.751 -0.6654  0.2270  0.2863
  645SOL     OW 1933   2.001   2.042   1.179 -0.1361  0.3898  0.5718
  645SOL    HW1 1934   2.014   2.027   1.080 -1.1310 -0.7389 -2.6360
  645SOL    HW2 1935   1.910   2.009   1.210  0.0699  1.6448 -1.2495
  646SOL     OW 1936   1.010   2.261   2.874  0.2677  0.2585  0.1623
  646SOL    HW1 1937   0.977   2.184   2.933  0.7813  0.7977  1.1818
  646SOL    HW2 1938   1.043   2.346   2.918 -0.0770 -4.2778  1.3837
  647SOL     OW 1939   0.898   2.717   1.770  0.1348  0.1348 -0.1389
  647SOL    HW1 1940   0.996   2.693   1.790 -1.6905  1.4922 -1.7105
  647SOL    HW2 1941   0.882   2.814   1.807  0.4469  0.4571 -0.0927
  648SOL     OW 1942   1.766   0.634   1.385  0.1011  0.3855 -0.1728
  648SOL    HW1 1943   1.717   0.607   1.473  1.8427  1.1801  0.7447
  648SOL    HW2 1944   1.784   0.552   1.325  2.5667 -1.0198  1.9268
  649SOL     OW 1945   1.627   1.953   0.311  0.4285  0.3111 -0.1155
  649SOL    HW1 1946   1.573   1.930   0.227  1.3366 -0.2397  0.7607
  649SOL    HW2 1947   1.620   1.880   0.382  1.5621 -2.4541 -1.2184
  650SOL     OW 1948   2.166   1.592   1.623 -0.2426 -0.1562 -0.3330
  650SOL    HW1 1949   2.135   1.522   1.560  3.6174 -1.5899 -1.4720
  650SOL    HW2 1950   2.136   1.687   1.604  1.1530 -2.4533  6.0488
  651SOL     OW 1951   1.861   2.564   0.153  0.0213 -0.0701 -0.1192
  651SOL    HW1 1952   1.881   2.656   0.194  1.4632 -0.1640  1.0429
  651SOL    HW2 1953   1.883   2.549   0.056 -0.5860 -1.4128 -0.0322
  652SOL     OW 1954   0.680   2.056   0.157  0.3694 -0.6059 -0.2499
  652SOL    HW1 1955   0.617   1.991   0.201  0.1215 -0.8726  1.0204
  652SOL    HW2 1956   0.631   2.091   0.077  1.6540  1.7998  1.9099
  653SOL     OW 1957   2.657   2.852   1.276  0.0114 -0.2853 -0.0322
  653SOL    HW1 1958   2.582   2.788   1.293  2.2410  2.1011 -1.0336
  653SOL    HW2 1959   2.651   2.887   1.178 -1.6517  0.2015  1.0951
  654SOL     OW 1960   2.815   2.906   1.683  0.6108 -0.1114  0.2635
  654SOL    HW1 1961   2.909   2.926   1.715  1.9961 -0.3328  1.2494
  654SOL    HW2 1962   2.765   2.992   1.649  0.0626 -1.5614 -3.7294
  655SOL     OW 1963   2.927   1.816   0.895  0.3184  0.1123 -0.1401
  655SOL    HW1 1964   2.987   1.736   0.905 -0.3670 -0.7036 -1.3134
  655SOL    HW2 1965   2.904   1.858   0.987 -1.7468  0.6062  0.5352
  656SOL     OW 1966   2.935   0.009   2.290 -0.9950 -0.1266  0.3472
  656SOL    HW1 1967   2.967   0.004   2.386 -1.9567 -1.0961  1.3035
  656SOL    HW2 1968   3.013   3.100   2.225  2.2136  1.8317  1.1310
  657SOL     OW 1969   2.685   1.413   3.007  0.4217  0.2874  0.2262
  657SOL    HW1 1970   2.705   1.350   3.086 -2.7633 -1.2347 -0.0664
  657SOL    HW2 1971   2.582   1.416   2.987 -0.7430 -1.5489 -0.8676
  658SOL     OW 1972   2.262   1.775   0.896 -0.6000 -0.6355  1.3497
  658SOL    HW1 1973   2.162   1.770   0.927 -2.2431 -0.2346 -0.2794
  658SOL    HW2 1974   2.267   1.747   0.795 -2.5375 -3.4753 -2.7136
  659SOL     OW 1975   1.567   0.492   1.158 -0.2818  0.2202 -0.0447
  659SOL    HW1 1976   1.668   0.494   1.142  0.6682  0.4894  1.1832
  659SOL    HW2 1977   1.545   0.426   1.234 -0.9097  0.9477  0.9711
  660SOL     OW 1978   1.597   1.340   3.010  0.2806 -0.1763  0.5117
  660SOL    HW1 1979   1.590   1.246   2.964 -1.3035  0.0581 -1.6526
  660SOL    HW2 1980   1.505   1.383   3.021  0.8070  0.5661 -2.0071
  661SOL     OW 1981   0.310   2.255   0.800 -0.0138 -0.5154 -0.3423
  661SOL    HW1 1982   0.399   2.279   0.846  0.5789 -1.6419  1.1280
  661SOL    HW2 1983   0.240   2.330   0.800 -0.4348 -0.8481  1.2538
  662SOL     OW 1984   0.115   0.679   2.448 -0.0311  0.4690 -0.1094
  662SOL    HW1 1985   0.133   0.779   2.449  1.2120  0.0140  0.2177
  662SOL    HW2 1986   0.023   0.656   2.419  2.3077  1.4245  2.3324
  663SOL     OW 1987   1.829   1.522   0.741  0.2584  0.3716 -0.5290
  663SOL    HW1 1988   1.832   1.606   0.804  0.6136  1.1460  2.4880
  663SOL    HW2 1989   1.831   1.429   0.784 -1.7937  1.3289 -2.1684
  664SOL     OW 1990   0.958   0.978   1.201  0.1854  0.8449  0.4611
  664SOL    HW1 1991   0.928   0.906   1.270 -0.1879 -1.2160 -0.0439
  664SOL    HW2 1992   1.047   0.946   1.159  3.9146  0.3280 -3.4415
  665SOL     OW 1993   1.352   2.476   2.708 -0.7061 -0.6394  0.1596
  665SOL    HW1 1994   1.284   2.525   2.763  0.9796 -0.2966 -2.4592
  665SOL    HW2 1995   1.353   2.510   2.608 -2.0878  0.8255 -0.9826
  666SOL     OW 1996   2.914   2.944   2.603  0.0105 -0.2083  0.1594
  666SOL    HW1 1997   2.919   2.971   2.702  0.2955  1.5204  0.2385
  666SOL    HW2 1998   2.834   2.987   2.551 -5.2606  0.6922 -3.3328
  667SOL     OW 1999   2.295   1.378   1.919 -0.3967 -0.0579  0.1222
  667SOL    HW1 2000   2.342   1.406   1.831  2.4726  0.7000  1.2799
  667SOL    HW2 2001   2.309   1.283   1.945  1.3182 -1.5468  0.7595
  668SOL     OW 2002   0.329   1.263   2.651 -0.3445 -0.3830  0.4134
  668SOL    HW1 2003   0.279   1.339   2.697  1.3064  2.4086 -0.6946
  668SOL    HW2 2004   0.376   1.304   2.570  2.9243  1.8132 -1.3139
  669SOL     OW 2005   2.018   2.242   2.421  0.0409  0.7499  0.2106
  669SOL    HW1 2006   1.951   2.178   2.383 -2.2613  1.4402  2.6392
  669SOL    HW2 2007   2.117   2.227   2.404 -2.0740  0.2953  1.8078
  670SOL     OW 2008   2.352   1.096   1.946  0.3929  0.4724 -0.4693
  670SOL    HW1 2009   2.436   1.045   1.967  1.0942 -1.1400  0.4703
  670SOL    HW2 2010   2.274   1.049   1.995  0.0920 -0.2857 -0.0624
  671SOL     OW 2011   2.443   1.336   0.143  0.3349 -0.0865  0.4254
  671SOL    HW1 2012   2.529   1.291   0.108 -1.7481 -2.1872  0.3437
  671SOL    HW2 2013   2.453   1.437   0.165 -0.3668  0.5612 -1.4818
  672SOL     OW 2014   2.624   1.091   2.079 -0.3399 -0.3411 -0.0226
  672SOL    HW1 2015   2.641   1.140   1.992 -0.0873 -0.4888 -2.7572
  672SOL    HW2 2016   2.586   1.158   2.147  0.0814  0.0486 -1.5413
  673SOL     OW 2017   2.747   0.758   1.788  0.0626  0.0366  0.4547
  673SOL    HW1 2018   2.823   0.826   1.784 -2.5579  0.1556 -0.1107
  673SOL    HW2 2019   2.765   0.685   1.722  0.0214 -0.1825 -2.7860
  674SOL     OW 2020   2.108   1.878   1.616  0.0760 -0.8721 -0.8794
  674SOL    HW1 2021   2.035   1.950   1.639 -0.9932  1.9248 -1.0740
  674SOL    HW2 2022   2.145   1.897   1.522  3.1622 -1.9492  2.0910
  675SOL     OW 2023   0.401   0.652   0.886 -0.3022 -0.4068  0.0275
  675SOL    HW1 2024   0.391   0.683   0.983  1.3703 -0.8657  0.3590
  675SOL    HW2 2025   0.314   0.621   0.845  2.1641 -2.7337 -2.6351
  676SOL     OW 2026   1.756   1.346   1.095  0.3239  0.2358 -0.8135
  676SOL    HW1 2027   1.668   1.392   1.071 -0.4633  1.2246 -3.3509
  676SOL    HW2 2028   1.777   1.334   1.195  3.2852  2.0408  1.3342
  677SOL     OW 2029   2.317   1.444   2.213  0.8061 -0.3969  0.2601
  677SOL    HW1 2030   2.309   1.426   2.111 -1.2093 -0.5143 -1.2278
  677SOL    HW2 2031   2.355   1.538   2.240  0.8452 -0.2558 -2.0360
  678SOL     OW 2032   0.218   1.505   0.646 -1.0574 -0.4276 -0.2958
  678SOL    HW1 2033   0.256   1.448   0.569 -0.9062  1.0277  0.9833
  678SOL    HW2 2034   0.116   1.515   0.639  0.8697  1.4298 -0.8798
  679SOL     OW 2035   2.650   2.626   0.439 -0.0099 -0.0940  0.3610
  679SOL    HW1 2036   2.634   2.684   0.355  1.5324 -0.3135 -3.6226
  679SOL    HW2 2037   2.751   2.629   0.463 -0.3125  0.0271 -1.0212
  680SOL     OW 2038   2.838   2.291   1.442  0.1571  0.0796  0.4170
  680SOL    HW1 2039   2.742   2.261   1.430 -0.6348  1.3624 -1.8231
  680SOL    HW2 2040   2.856   2.318   1.539 -1.4780  1.9316  2.0248
  681SOL     OW 2041   0.619   1.350   1.067  0.3806  0.2999  0.1920
  681SOL    HW1 2042   0.674   1.314   0.992  1.7620 -1.5541  1.4567
  681SOL    HW2 2043   0.539   1.291   1.079  4.4536  1.9245 -2.3219
  682SOL     OW 2044   1.506   2.431   0.911  0.5659  0.0666 -0.1865
  682SOL    HW1 2045   1.502   2.472   1.004 -1.2430 -1.8637 -0.7134
  682SOL    HW2 2046   1.522   2.331   0.922  0.4191 -1.2315  0.7927
  683SOL     OW 2047   2.370   1.432   0.766 -0.6311  0.1146 -0.1126
  683SOL    HW1 2048   2.437   1.443   0.843  0.2171 -0.7958 -0.2870
  683SOL    HW2 2049   2.375   1.510   0.696  2.1406 -0.6594 -2.7832
  684SOL     OW 2050   0.751   2.265   2.052 -0.3749 -0.6056 -0.1098
  684SOL    HW1 2051   0.791   2.183   2.098  3.3605 -0.3462  1.0893
  684SOL    HW2 2052   0.732   2.240   1.957 -1.0965  2.7483  0.8584
  685SOL     OW 2053   2.165   1.398   0.267 -0.0840 -0.0948 -0.2769
  685SOL    HW1 2054   2.223   1.380   0.189  1.9627 -0.4824 -0.8201
  685SOL    HW2 2055   2.090   1.460   0.236  2.3506  1.9711  0.3253
  686SOL     OW 2056   0.215   0.385   0.705 -0.4542 -0.1176  0.0080
  686SOL    HW1 2057   0.158   0.302   0.706  3.2376  4.0708  0.3066
  686SOL    HW2 2058   0.301   0.373   0.644  2.5623  0.9003 -1.4142
  687SOL     OW 2059   1.418   2.642   3.021 -0.1243 -0.2400 -0.3003
  687SOL    HW1 2060   1.448   2.677   0.006  0.7546  1.6526  0.4797
  687SOL    HW2 2061   1.434   2.543   3.017  0.0385  1.0392  1.0630
  688SOL     OW 2062   1.939   1.987   1.987 -0.2026  0.0582  0.0352
  688SOL    HW1 2063   1.952   1.902   1.932 -1.5684  2.3298  1.9769
  688SOL    HW2 2064   1.844   2.024   1.974 -1.3180  3.0286  0.2313
  689SOL     OW 2065   2.351   0.738   2.162 -0.5453  0.1739  0.4589
  689SOL    HW1 2066   2.409   0.744   2.076 -2.1589 -0.4048 -0.9569
  689SOL    HW2 2067   2.409   0.757   2.241 -0.2356 -2.4520 -1.0915
  690SOL     OW 2068   1.966   0.815   1.338 -0.3918  0.0047  0.1561
  690SOL    HW1 2069   1.933   0.868   1.256  0.7412  0.0077  0.8509
  690SOL    HW2 2070   1.890   0.761   1.380 -0.8058 -0.1054 -0.1072
  691SOL     OW 2071   1.169   1.804   1.583  0.0182  0.2219  0.2586
  691SOL    HW1 2072   1.131   1.782   1.492 -0.2179  1.0515  3.1469
  691SOL    HW2 2073   1.165   1.902   1.611  0.0548 -1.1059  0.9966
  692SOL     OW 2074   1.638   0.267   1.741  0.1717  0.0639 -0.3672
  692SOL    HW1 2075   1.623   0.352   1.691  0.5006  2.3786 -0.2848
  692SOL    HW2 2076   1.618   0.190   1.679 -2.7553  2.3910 -0.4341
  693SOL     OW 2077   0.507   1.107   2.863 -0.7399  0.2524  0.3546
  693SOL    HW1 2078   0.562   1.026   2.896  0.2261 -0.9655  1.0564
  693SOL    HW2 2079   0.454   1.068   2.785  0.4673 -2.9515  0.5561
  694SOL     OW 2080   2.073   2.784   1.198  0.6453  0.4916 -0.2580
  694SOL    HW1 2081   2.052   2.777   1.101  0.4505  3.7686  1.1393
  694SOL    HW2 2082   2.091   2.695   1.241 -0.7078  1.5197 -0.2227
  695SOL     OW 2083   1.535   1.374   2.233  0.5013 -0.4168 -0.2820
  695SOL    HW1 2084   1.519   1.403   2.140  2.7950  0.2524  0.9935
  695SOL    HW2 2085   1.485   1.425   2.304  2.6249 -1.5640 -1.1215
  696SOL     OW 2086   1.825   0.455   1.195  0.2224  0.1369 -0.6333
  696SOL    HW1 2087   1.870   0.404   1.269  0.6893 -0.5539  1.7713
  696SOL    HW2 2088   1.889   0.496   1.129 -0.8229 -1.2444  2.1602
  697SOL     OW 2089   1.512   0.326   1.379 -0.1377 -0.2345  0.0845
  697SOL    HW1 2090   1.456   0.362   1.457 -1.3154  0.5421  1.5969
  697SOL    HW2 2091   1.558   0.242   1.408  2.0263  1.0868 -0.0844
  698SOL     OW 2092   1.740   1.188   2.118 -0.3093 -0.4022  0.1216
  698SOL    HW1 2093   1.836   1.208   2.097 -0.3557  0.3406 -2.0593
  698SOL    HW2 2094   1.684   1.274   2.141 -0.6164  1.0956  1.7049
  699SOL     OW 2095   1.448   1.141   1.399  0.3476 -0.3767 -0.0231
  699SOL    HW1 2096   1.396   1.138   1.312  1.6237 -1.6234  1.5105
  699SOL    HW2 2097   1.481   1.047   1.422 -1.1120 -0.6315  1.0233
  700SOL     OW 2098   1.611   0.098   0.383  0.1913  0.1361  0.6141
  700SOL    HW1 2099   1.658   0.182   0.355  0.0106  0.9992 -0.3001
  700SOL    HW2 2100   1.508   0.099   0.373 -0.8529  0.6259  2.4292
  701SOL     OW 2101   0.430   3.088   1.730 -0.7483 -0.1782 -0.3819
  701SOL    HW1 2102   0.499   3.063   1.799  1.7252  0.5349  0.0717
  701SOL    HW2 2103   0.429   3.029   1.649 -1.6883  0.2338  1.9347
  702SOL     OW 2104   1.475   2.725   0.160  0.2336 -0.2702 -0.2920
  702SOL    HW1 2105   1.549   2.681   0.222 -0.2932  1.0738  0.9409
  702SOL    HW2 2106   1.496   2.826   0.160 -3.6732 -1.3022  1.5758
  703SOL     OW 2107   2.534   0.261   2.205 -0.0376  0.1471 -1.0335
  703SOL    HW1 2108   2.517   0.340   2.274  2.4604 -0.3646  2.9437
  703SOL    HW2 2109   2.471   0.269   2.129  0.7189 -1.4183 -1.9575
  704SOL     OW 2110   1.254   2.278   1.108 -0.5580  0.3000 -0.3002
  704SOL    HW1 2111   1.282   2.187   1.145 -1.0714 -2.0205 -0.7137
  704SOL    HW2 2112   1.221   2.347   1.180 -1.3854 -0.7879 -0.7396
  705SOL     OW 2113   2.939   1.339   1.976  0.2608 -0.2155  0.1839
  705SOL    HW1 2114   2.853   1.379   2.020  1.6338 -1.3971  0.7516
  705SOL    HW2 2115   2.915   1.279   1.901 -0.2093  2.9833  1.1847
  706SOL     OW 2116   1.593   0.038   0.657 -0.3975 -0.1989  0.0182
  706SOL    HW1 2117   1.492   0.038   0.658 -0.8195 -0.5712 -0.9878
  706SOL    HW2 2118   1.626   0.060   0.562 -0.2259  1.8267 -2.1012
  707SOL     OW 2119   1.021   2.032   2.431  0.0842  0.0946  0.8211
  707SOL    HW1 2120   0.966   2.088   2.498  1.1538 -0.7525 -1.1875
  707SOL    HW2 2121   1.092   1.976   2.477 -1.6729  2.4520  0.8510
  708SOL     OW 2122   3.019   2.093   1.312  0.3971  0.0616  0.1377
  708SOL    HW1 2123   3.000   2.044   1.403 -0.0618 -4.1482  2.0241
  708SOL    HW2 2124   2.966   2.178   1.311  3.0120 -0.5938 -0.3442
  709SOL     OW 2125   1.851   0.543   2.043  0.3667 -0.0493  0.6823
  709SOL    HW1 2126   1.895   0.462   1.997 -1.0985  3.7849 -1.3890
  709SOL    HW2 2127   1.811   0.527   2.132  3.7045  0.6286  0.1710
  710SOL     OW 2128   2.941   0.392   1.380  0.2268 -0.5521 -0.0672
  710SOL    HW1 2129   2.867   0.327   1.352  0.0125 -0.1171  1.1775
  710SOL    HW2 2130   2.967   0.448   1.299  0.4135 -0.7528 -0.2984
  711SOL     OW 2131   0.140   2.534   0.800 -0.3367  0.4449 -0.1230
  711SOL    HW1 2132   0.171   2.528   0.895  2.0440  0.3454 -3.3296
  711SOL    HW2 2133   0.041   2.538   0.787  2.7188 -0.5113  3.1824
  712SOL     OW 2134   0.401   2.083   2.475  0.6440 -0.7946 -0.1456
  712SOL    HW1 2135   0.389   1.982   2.466 -2.4177  0.6632  1.3534
  712SOL    HW2 2136   0.370   2.142   2.397  0.7333  1.2342  1.4283
  713SOL     OW 2137   1.488   0.685   0.183  0.2982 -0.0436 -0.1319
  713SOL    HW1 2138   1.496   0.773   0.231 -3.0253 -0.3073  0.7658
  713SOL    HW2 2139   1.544   0.689   0.097  1.5075  0.0983 -0.5191
  714SOL     OW 2140   1.479   1.588   0.179 -0.1820 -0.2958 -0.0931
  714SOL    HW1 2141   1.496   1.684   0.141  0.6483  1.8560  2.0829
  714SOL    HW2 2142   1.410   1.595   0.253  3.1461 -1.0591 -1.9780
  715SOL     OW 2143   2.788   0.014   0.463  0.8509 -0.1382 -0.3641
  715SOL    HW1 2144   2.836   0.060   0.541  3.9037 -1.7494 -0.7932
  715SOL    HW2 2145   2.733   3.041   0.503 -2.6212 -2.3558  1.0219
  716SOL     OW 2146   0.413   0.267   2.251  0.4089 -0.0051  0.1433
  716SOL    HW1 2147   0.451   0.281   2.341 -0.3622 -1.4891 -0.7823
  716SOL    HW2 2148   0.311   0.269   2.246  1.7111  1.1679 -0.4523
  717SOL     OW 2149   0.090   0.218   2.530  0.0157  0.0243 -0.2454
  717SOL    HW1 2150   0.092   0.123   2.485 -1.3774 -0.5594 -1.6055
  717SOL    HW2 2151   0.033   0.218   2.612  0.8341 -1.0427 -1.0494
  718SOL     OW 2152   1.040   0.631   0.545  0.0050  0.0179  0.0078
  718SOL    HW1 2153   1.022   0.532   0.539  2.7077  2.7438  1.1640
  718SOL    HW2 2154   1.134   0.656   0.524 -1.4455 -0.2308  1.1473
  719SOL     OW 2155   2.766   2.114   2.924  0.0218  0.4208 -0.4970
  719SOL    HW1 2156   2.743   2.043   2.861  1.0251  1.8151  3.1256
  719SOL    HW2 2157   2.866   2.129   2.908 -0.4104 -1.1352  0.1776
  720SOL     OW 2158   1.620   0.820   1.200 -0.0625 -0.2717 -0.4655
  720SOL    HW1 2159   1.621   0.799   1.101  1.7450  0.4678  0.0795
  720SOL    HW2 2160   1.641   0.736   1.251  1.4077  2.9754 -1.8148
  721SOL     OW 2161   2.954   0.626   0.715  0.2040 -0.0722 -0.1875
  721SOL    HW1 2162   2.879   0.647   0.647  1.1259  0.5237  0.9757
  721SOL    HW2 2163   2.907   0.562   0.782  0.7840 -1.6118 -2.7233
  722SOL     OW 2164   1.442   1.808   2.523 -0.2974 -0.0639  0.0399
  722SOL    HW1 2165   1.375   1.882   2.558 -1.5651  2.4305  2.0747
  722SOL    HW2 2166   1.432   1.723   2.575  0.3475  1.3697 -0.7537
  723SOL     OW 2167   0.673   0.716   0.320 -0.4543 -0.0328 -0.0842
  723SOL    HW1 2168   0.766   0.741   0.360  0.6322 -1.9373 -0.7598
  723SOL    HW2 2169   0.601   0.792   0.335 -1.4006  1.9642 -1.3940
  724SOL     OW 2170   0.949   1.817   1.763  0.6044 -0.0909  0.3911
  724SOL    HW1 2171   1.011   1.776   1.692  2.1355 -2.4372  1.5312
  724SOL    HW2 2172   0.875   1.880   1.720 -1.1799  0.8268 -1.7347
  725SOL     OW 2173   0.086   1.052   1.356  0.0611  0.1247  0.3256
  725SOL    HW1 2174   0.037   1.114   1.297 -1.2133 -0.5820  3.3921
  725SOL    HW2 2175   0.181   1.082   1.353 -2.0778 -2.9419  0.1691
  726SOL     OW 2176   1.690   0.557   0.582 -0.4251  0.1461 -0.1375
  726SOL    HW1 2177   1.647   0.521   0.666  1.8284 -1.2950 -0.4488
  726SOL    HW2 2178   1.636   0.542   0.498 -0.2105  1.0142 -1.0495
  727SOL     OW 2179   1.564   0.923   2.370  0.9370  0.4505 -0.1555
  727SOL    HW1 2180   1.507   1.008   2.370  1.3167  1.0692  2.0791
  727SOL    HW2 2181   1.525   0.858   2.435  2.0857  0.6984  1.5924
  728SOL     OW 2182   1.713   2.457   1.231 -0.1861  0.7023 -0.4745
  728SOL    HW1 2183   1.615   2.478   1.206 -0.4521  0.2533 -0.3712
  728SOL    HW2 2184   1.757   2.540   1.273 -0.1016  0.4773 -0.3301
  729SOL     OW 2185   1.344   0.601   1.371  0.1403 -0.4151 -0.2410
  729SOL    HW1 2186   1.386   0.568   1.288 -1.2752  1.9313  0.6638
  729SOL    HW2 2187   1.330   0.529   1.437 -1.5198  1.8673 -1.1461
  730SOL     OW 2188   0.804   2.002   1.634  0.1827  0.4696  0.3412
  730SOL    HW1 2189   0.768   2.074   1.698 -1.1653  0.3482 -0.6546
  730SOL    HW2 2190   0.814   2.040   1.539 -1.2613 -0.7769  2.8959
  731SOL     OW 2191   0.567   0.278   0.245 -0.1289  0.3664  0.3225
  731SOL    HW1 2192   0.464   0.248   0.246  1.1510 -0.3486 -1.0337
  731SOL    HW2 2193   0.620   0.230   0.167  2.6801 -0.1662 -3.0034
  732SOL     OW 2194   0.767   0.561   2.973  0.1079 -0.3887 -0.2265
  732SOL    HW1 2195   0.800   0.566   3.071 -0.2649  3.4495  1.1851
  732SOL    HW2 2196   0.673   0.516   2.970  1.4141 -0.1627 -1.1739
  733SOL     OW 2197   1.437   1.741   1.614 -0.2447 -0.0006 -0.3707
  733SOL    HW1 2198   1.464   1.647   1.598  0.7661 -0.8224  1.7531
  733SOL    HW2 2199   1.334   1.757   1.613 -0.1993  0.3081  0.4528
  734SOL     OW 2200   2.921   2.689   2.484 -0.2199 -0.1559 -0.3620
  734SOL    HW1 2201   2.912   2.779   2.534  1.9517 -2.7575 -0.5188
  734SOL    HW2 2202   2.854   2.677   2.409  0.1410 -2.0661 -2.7608
  735SOL     OW 2203   0.964   2.660   0.965 -0.2494  0.1376 -0.4221
  735SOL    HW1 2204   0.986   2.732   0.891  0.6657  2.3296 -1.8806
  735SOL    HW2 2205   1.009   2.568   0.943  1.0663  0.5896 -2.2468
  736SOL     OW 2206   1.435   0.796   2.578  0.0499 -0.1499  0.3974
  736SOL    HW1 2207   1.369   0.738   2.522 -1.9996 -0.6299 -1.6104
  736SOL    HW2 2208   1.395   0.883   2.604 -1.3983 -1.0881 -1.2756
  737SOL     OW 2209   3.025   0.630   0.372 -0.7662 -0.3544 -0.1479
  737SOL    HW1 2210   3.069   0.586   0.453 -1.1366 -3.0819  0.2205
  737SOL    HW2 2211   3.061   0.722   0.353 -2.9954  1.9170 -0.8019
  738SOL     OW 2212   0.267   2.700   1.414  0.4735 -0.0097 -0.2280
  738SOL    HW1 2213   0.182   2.719   1.464  1.5045 -1.3364 -2.2894
  738SOL    HW2 2214   0.264   2.737   1.321  1.2508 -0.5129 -1.2305
  739SOL     OW 2215   1.686   2.891   0.804 -0.5847  0.0445 -0.3738
  739SOL    HW1 2216   1.629   2.899   0.892  0.2843 -0.3607  4.3825
  739SOL    HW2 2217   1.674   2.982   0.755 -0.2156  4.4619 -0.6115
  740SOL     OW 2218   1.423   2.788   1.207  0.1436  0.1346 -0.3026
  740SOL    HW1 2219   1.520   2.816   1.239 -0.7567  3.6257  0.5492
  740SOL    HW2 2220   1.357   2.778   1.281 -1.6356  0.9857  1.7271
  741SOL     OW 2221   1.951   0.604   0.688 -0.5934  0.0753 -0.2774
  741SOL    HW1 2222   1.852   0.603   0.675  0.2472 -3.1249  0.4571
  741SOL    HW2 2223   1.982   0.673   0.755  2.6807 -0.3187  0.1070
  742SOL     OW 2224   1.183   2.053   1.696  0.7461 -0.0706  0.5085
  742SOL    HW1 2225   1.150   2.152   1.699  0.3754  2.1562  0.0766
  742SOL    HW2 2226   1.281   2.047   1.723 -1.9827 -0.0079 -0.0913
  743SOL     OW 2227   2.112   0.691   2.218  0.7475  0.0767 -0.8379
  743SOL    HW1 2228   2.069   0.688   2.123 -1.7784  1.9820 -4.3113
  743SOL    HW2 2229   2.210   0.694   2.208 -4.8971  1.0854  1.1887
  744SOL     OW 2230   2.314   0.371   0.787 -0.2840  0.0346  0.4479
  744SOL    HW1 2231   2.361   0.370   0.698 -1.0663  1.3074  1.7824
  744SOL    HW2 2232   2.333   0.460   0.837  1.1729  1.5802  0.7523
  745SOL     OW 2233   2.003   1.748   1.856 -0.4385 -0.0904 -0.8045
  745SOL    HW1 2234   2.046   1.757   1.769 -2.8476 -0.1912  0.7416
  745SOL    HW2 2235   2.044   1.672   1.910  0.0940  0.2838 -0.2030
  746SOL     OW 2236   1.140   1.660   0.879 -0.0651 -0.3780  0.0269
  746SOL    HW1 2237   1.045   1.654   0.917 -1.7564  1.7821  1.0907
  746SOL    HW2 2238   1.174   1.754   0.876 -0.3242 -2.5463  0.4650
  747SOL     OW 2239   1.918   1.290   0.886  0.1025 -0.1201 -0.0725
  747SOL    HW1 2240   1.862   1.315   0.966  0.0668  0.7382 -0.9289
  747SOL    HW2 2241   1.954   1.196   0.903  2.2617 -1.1258  2.2794
  748SOL     OW 2242   0.333   2.907   0.154 -0.3432  0.4175 -0.0082
  748SOL    HW1 2243   0.327   2.977   0.227 -0.0989  0.3664  3.5310
  748SOL    HW2 2244   0.256   2.841   0.161  0.5884 -0.4489 -0.4137
  749SOL     OW 2245   0.140   0.271   2.253 -0.1991  0.0505  0.0406
  749SOL    HW1 2246   0.072   0.319   2.194 -0.2576  0.2065 -1.4278
  749SOL    HW2 2247   0.125   0.281   2.356  1.7423 -0.4641  2.0107
  750SOL     OW 2248   1.623   2.875   1.600  0.0607  0.2693 -0.1914
  750SOL    HW1 2249   1.680   2.903   1.681 -0.5741 -1.6563 -0.1908
  750SOL    HW2 2250   1.586   2.780   1.607  1.4159  0.9040  2.5533
  751SOL     OW 2251   2.905   0.403   0.867 -0.1550 -0.3165  0.4119
  751SOL    HW1 2252   2.871   0.324   0.816  2.7420  2.1402  2.6261
  751SOL    HW2 2253   2.999   0.385   0.899  1.4927 -1.3579  0.1408
  752SOL     OW 2254   0.291   3.013   0.984 -0.2630 -0.0825  0.4953
  752SOL    HW1 2255   0.331   3.093   0.929 -0.5335  2.5920 -0.0312
  752SOL    HW2 2256   0.246   2.944   0.922 -2.9882  0.9956 -1.0067
  753SOL     OW 2257   1.009   0.362   1.451  0.1721 -0.7536  0.4765
  753SOL    HW1 2258   1.030   0.323   1.359  1.5382 -0.0567  1.5765
  753SOL    HW2 2259   1.076   0.325   1.520  2.9916  0.3828  2.0267
  754SOL     OW 2260   0.964   2.619   2.242  0.1774 -0.4762  0.2319
  754SOL    HW1 2261   0.874   2.577   2.247  1.3570 -0.3386  1.8323
  754SOL    HW2 2262   0.962   2.690   2.172 -2.0423  0.2414 -1.1795
  755SOL     OW 2263   2.430   1.539   0.492  0.9128 -0.5086  0.0417
  755SOL    HW1 2264   2.521   1.526   0.450  2.5362 -1.9390  1.1943
  755SOL    HW2 2265   2.357   1.498   0.433 -0.9558 -1.7536  0.4770
  756SOL     OW 2266   2.150   2.074   2.739 -0.2074 -0.4256 -0.3973
  756SOL    HW1 2267   2.155   2.153   2.801  0.2895  1.5995 -0.4813
  756SOL    HW2 2268   2.218   2.081   2.665  0.5180  0.3208  0.5082
  757SOL     OW 2269   1.808   0.143   1.096  0.2807 -0.1177  0.1343
  757SOL    HW1 2270   1.841   0.226   1.135  0.2049 -0.5802  0.7050
  757SOL    HW2 2271   1.756   0.153   1.008 -0.4598 -0.7798  0.5996
  758SOL     OW 2272   1.342   2.555   0.741  0.3978 -0.6824  0.0945
  758SOL    HW1 2273   1.399   2.513   0.813 -1.2475  2.8782  0.2003
  758SOL    HW2 2274   1.288   2.479   0.702  0.3758 -0.8450  0.3665
  759SOL     OW 2275   2.498   0.515   1.195 -0.2905  0.0640 -0.1335
  759SOL    HW1 2276   2.460   0.574   1.124 -0.3360  0.9306  1.1476
  759SOL    HW2 2277   2.418   0.490   1.258 -0.5735 -1.8425  1.5586
  760SOL     OW 2278   2.332   1.054   1.270  0.0150  0.1080  0.1724
  760SOL    HW1 2279   2.237   1.028   1.295  1.5755  1.1232  0.6254
  760SOL    HW2 2280   2.337   1.126   1.199 -0.8935 -1.3159 -1.1750
  761SOL     OW 2281   0.613   0.735   0.719  0.1745 -0.0291  0.3735
  761SOL    HW1 2282   0.573   0.794   0.643  1.4785  0.5256 -0.4030
  761SOL    HW2 2283   0.536   0.698   0.779  0.3976  0.2762 -0.0141
  762SOL     OW 2284   1.764   1.746   1.224 -0.8196  0.7120  0.1970
  762SOL    HW1 2285   1.819   1.692   1.294 -0.2734 -1.2856 -1.7892
  762SOL    HW2 2286   1.741   1.836   1.259 -2.4204 -5.0453 -2.1167
  763SOL     OW 2287   1.046   1.421   1.699  0.4974  0.7350  0.1675
  763SOL    HW1 2288   0.953   1.412   1.654 -0.5880  2.4089  2.1692
  763SOL    HW2 2289   1.034   1.454   1.796 -0.9781  2.1972  2.2002
  764SOL     OW 2290   3.088   1.837   2.197 -0.0446  0.0249  0.0653
  764SOL    HW1 2291   0.013   1.806   2.104  0.8952  3.4649 -2.0174
  764SOL    HW2 2292   0.032   1.795   2.273 -2.7817  2.1027 -3.3648
  765SOL     OW 2293   1.616   2.203   1.320  0.3523 -0.3715 -0.8025
  765SOL    HW1 2294   1.549   2.205   1.400  0.2296 -2.6481  0.1022
  765SOL    HW2 2295   1.664   2.293   1.300  3.4016  1.0892 -2.1925
  766SOL     OW 2296   0.212   2.443   2.340  0.8414 -0.4774  0.1176
  766SOL    HW1 2297   0.136   2.474   2.405 -1.7264  1.0582  3.5969
  766SOL    HW2 2298   0.183   2.473   2.244  0.5320 -1.4159 -1.6975
  767SOL     OW 2299   1.274   0.639   2.371  0.0733  0.0934  0.0932
  767SOL    HW1 2300   1.230   0.552   2.407  0.2682  0.2810 -0.9085
  767SOL    HW2 2301   1.201   0.706   2.338  0.9718  2.2131 -0.2211
  768SOL     OW 2302   1.418   2.328   3.021 -0.0146 -0.0037  0.1300
  768SOL    HW1 2303   1.445   2.242   2.970  0.2072 -0.6285 -2.4015
  768SOL    HW2 2304   1.405   2.301   0.011  0.1077 -0.8338  4.0111
  769SOL     OW 2305   0.196   2.788   1.137 -0.3775 -0.3045  0.8167
  769SOL    HW1 2306   0.274   2.843   1.101  2.8459 -0.6653  3.2016
  769SOL    HW2 2307   0.193   2.701   1.083 -1.4948 -0.0483 -1.0856
  770SOL     OW 2308   1.554   0.572   2.892 -0.7915 -0.7212  0.0908
  770SOL    HW1 2309   1.614   0.618   2.817 -0.0868  2.1389 -2.4766
  770SOL    HW2 2310   1.587   0.593   2.986 -1.4104  0.2853  2.3762
  771SOL     OW 2311   0.353   0.052   2.610 -0.3660 -0.3473 -0.5718
  771SOL    HW1 2312   0.412   0.086   2.536 -0.1142  0.5065  3.2750
  771SOL    HW2 2313   0.253   0.061   2.589  1.6230  0.6102 -0.0525
  772SOL     OW 2314   2.279   3.073   2.000 -0.5294  1.0001  0.5905
  772SOL    HW1 2315   2.184   0.012   1.985 -4.2576  1.1809 -1.1920
  772SOL    HW2 2316   2.308   3.026   1.907 -0.3295 -1.8099 -3.2359
  773SOL     OW 2317   0.981   2.438   1.934 -0.2026 -0.0144  0.3752
  773SOL    HW1 2318   1.021   2.401   2.018 -0.6009  1.2525 -0.9326
  773SOL    HW2 2319   0.882   2.423   1.944  3.0933  0.3071 -2.1398
  774SOL     OW 2320   1.090   0.219   1.901 -0.0384 -0.7185 -0.4221
  774SOL    HW1 2321   1.151   0.194   1.979  0.5136  1.0589  1.1258
  774SOL    HW2 2322   1.058   0.315   1.913  0.3285 -2.3815 -0.6763
  775SOL     OW 2323   2.179   2.550   0.091 -0.4541  0.6890  0.1912
  775SOL    HW1 2324   2.149   2.482   0.162 -0.9965 -0.3645 -0.1720
  775SOL    HW2 2325   2.106   2.554   0.019 -0.0372 -2.6471 -0.8085
  776SOL     OW 2326   2.230   0.562   2.471 -0.0792  0.0721  0.1604
  776SOL    HW1 2327   2.201   0.572   2.567 -0.1029 -0.4881 -0.4441
  776SOL    HW2 2328   2.154   0.591   2.411 -2.0037 -1.3840  1.6277
  777SOL     OW 2329   2.291   1.218   2.580 -0.0798  0.1866 -0.0531
  777SOL    HW1 2330   2.274   1.213   2.680 -0.2891  1.8384  0.5080
  777SOL    HW2 2331   2.390   1.234   2.559  1.0268  1.3145  3.4747
  778SOL     OW 2332   2.026   0.903   2.379  0.0744 -0.1399  0.4116
  778SOL    HW1 2333   1.951   0.958   2.338  0.5787 -2.0639  1.7615
  778SOL    HW2 2334   2.065   0.847   2.309 -3.3384  0.1389 -0.0181
  779SOL     OW 2335   0.064   0.096   3.030 -0.3775  0.0005 -0.1680
  779SOL    HW1 2336   0.109   0.046   2.950 -0.4067 -1.7529  0.7474
  779SOL    HW2 2337   0.071   0.196   3.015 -1.8769 -1.8377 -0.4542
  780SOL     OW 2338   2.489   0.497   2.819  0.5302  0.3012  0.2455
  780SOL    HW1 2339   2.548   0.529   2.740 -0.4311  1.3772  0.7310
  780SOL    HW2 2340   2.522   0.551   2.899  0.0738 -0.3541  0.7484
  781SOL     OW 2341   0.423   2.950   1.469  0.0159  0.1170  0.1090
  781SOL    HW1 2342   0.409   3.006   1.385  0.2914 -1.5385 -0.6636
  781SOL    HW2 2343   0.369   2.865   1.465 -0.4147  3.4914 -0.9559
  782SOL     OW 2344   1.893   2.536   0.641  0.2723 -0.1143  0.0441
  782SOL    HW1 2345   1.808   2.577   0.678 -2.4965 -1.1974 -0.9650
  782SOL    HW2 2346   1.889   2.519   0.542 -3.2077 -2.2543 -1.2108
  783SOL     OW 2347   0.810   1.418   1.575  0.7191  0.1992 -0.8349
  783SOL    HW1 2348   0.784   1.406   1.479  1.8321  0.7970  1.3233
  783SOL    HW2 2349   0.737   1.399   1.642  0.4429 -1.6324 -0.5462
  784SOL     OW 2350   1.185   0.417   2.515  0.0878  0.6697  0.1600
  784SOL    HW1 2351   1.251   0.344   2.494  2.0733  0.2119  3.2337
  784SOL    HW2 2352   1.102   0.377   2.564 -0.0655 -1.5491 -0.6567
  785SOL     OW 2353   2.586   0.261   1.096  0.1240 -0.3851 -0.3589
  785SOL    HW1 2354   2.560   0.355   1.131  1.6817  0.2586  1.7770
  785SOL    HW2 2355   2.529   0.182   1.129 -0.2769  1.8518 -1.7115
  786SOL     OW 2356   1.315   2.694   1.443 -0.3807 -0.8862 -0.0022
  786SOL    HW1 2357   1.391   2.678   1.509 -1.5747  1.7669  1.0223
  786SOL    HW2 2358   1.282   2.607   1.403 -1.4852  1.8175 -2.2297
  787SOL     OW 2359   1.654   0.110   1.484 -0.5643 -0.2530 -0.5281
  787SOL    HW1 2360   1.592   0.052   1.425 -2.2382  1.5889 -1.8624
  787SOL    HW2 2361   1.722   0.050   1.529 -2.4142 -1.4138 -0.4000
  788SOL     OW 2362   3.084   0.905   0.338  0.0635  0.1079 -0.4338
  788SOL    HW1 2363   0.078   0.901   0.361 -2.1988 -3.1360  4.6282
  788SOL    HW2 2364   3.032   0.959   0.406  0.6901 -0.8922 -0.2972
  789SOL     OW 2365   0.594   1.829   1.697 -0.1104  0.1018 -0.1044
  789SOL    HW1 2366   0.653   1.911   1.683  1.7553  0.4572  0.0839
  789SOL    HW2 2367   0.584   1.803   1.797  0.8777  1.4489 -1.3554
  790SOL     OW 2368   0.483   0.592   2.612 -0.3815  0.4493 -0.5671
  790SOL    HW1 2369   0.515   0.525   2.687 -0.5706 -1.7254  3.2398
  790SOL    HW2 2370   0.394   0.560   2.576 -2.0752  0.7361  0.2446
  791SOL     OW 2371   2.167   0.882   0.678 -0.1879  0.0280  0.2594
  791SOL    HW1 2372   2.130   0.859   0.585  0.3763  2.3234  0.2981
  791SOL    HW2 2373   2.161   0.802   0.739  1.5351  3.6489 -1.8347
  792SOL     OW 2374   1.196   2.835   1.655 -0.0989  0.1883  0.3472
  792SOL    HW1 2375   1.198   2.767   1.727  1.9663  2.7052  0.2219
  792SOL    HW2 2376   1.240   2.791   1.570 -0.8307 -1.8162 -2.4109
  793SOL     OW 2377   0.390   0.109   0.837  0.3931  0.2231  0.6452
  793SOL    HW1 2378   0.379   0.187   0.901 -0.8196 -0.5619 -2.2382
  793SOL    HW2 2379   0.483   0.114   0.804 -1.6016  0.7253  1.5257
  794SOL     OW 2380   0.139   1.056   1.992  0.2463 -0.2010  0.2738
  794SOL    HW1 2381   0.114   1.128   2.056  1.7194 -2.6865 -0.8995
  794SOL    HW2 2382   0.071   0.978   2.000 -1.5225  0.4016  2.3594
  795SOL     OW 2383   0.680   2.406   2.719 -0.2472  0.0171 -0.2981
  795SOL    HW1 2384   0.621   2.327   2.699 -0.9027  0.6086  0.1023
  795SOL    HW2 2385   0.752   2.427   2.653 -1.9690  0.0125  0.2883
  796SOL     OW 2386   2.163   0.283   2.440  0.1436  0.4603  0.1904
  796SOL    HW1 2387   2.221   0.365   2.452  0.1519  0.1454  0.4902
  796SOL    HW2 2388   2.218   0.200   2.438 -0.4154  2.2843  1.3639
  797SOL     OW 2389   2.302   2.458   2.488  0.1230 -0.1579 -0.1109
  797SOL    HW1 2390   2.295   2.358   2.492  0.1323 -2.5478  0.5080
  797SOL    HW2 2391   2.240   2.499   2.560 -1.7955  0.7289  0.9224
  798SOL     OW 2392   3.061   0.431   2.114  0.3712 -0.2584  0.0645
  798SOL    HW1 2393   3.082   0.492   2.037 -0.8045  0.1248 -0.9090
  798SOL    HW2 2394   2.995   0.359   2.084 -0.3358  0.7123 -1.7157
  799SOL     OW 2395   0.696   2.499   2.212 -0.3352  0.1164 -0.0578
  799SOL    HW1 2396   0.710   2.418   2.157 -0.2738  0.6450  2.1952
  799SOL    HW2 2397   0.597   2.502   2.246 -0.9286 -1.8880 -0.3002
  800SOL     OW 2398   0.074   2.189   0.196  0.4346  0.7017  0.4519
  800SOL    HW1 2399   0.089   2.154   0.103 -0.3593  0.0036  2.0094
  800SOL    HW2 2400   0.157   2.224   0.241 -1.9943 -0.9769 -1.1353
  801SOL     OW 2401   1.508   1.423   1.038 -0.1663  0.5092 -0.1709
  801SOL    HW1 2402   1.449   1.338   1.036  0.4775 -0.0914 -0.9882
  801SOL    HW2 2403   1.488   1.486   0.961  0.6519 -1.2967 -0.0998
  802SOL     OW 2404   0.080   0.408   0.329  0.1499  0.0433 -0.0036
  802SOL    HW1 2405   0.026   0.492   0.317  0.2933  1.1186  0.3250
  802SOL    HW2 2406   0.049   0.370   0.415 -0.3765  1.4588 -1.0247
  803SOL     OW 2407   1.527   1.479   1.992  0.2018 -0.3801  0.3666
  803SOL    HW1 2408   1.430   1.494   1.963  1.7613  1.6807  2.0682
  803SOL    HW2 2409   1.593   1.509   1.922 -2.5603 -1.4569  0.5569
  804SOL     OW 2410   1.722   1.678   0.964 -0.0198 -0.0826  0.4331
  804SOL    HW1 2411   1.718   1.685   1.065  0.5016 -1.9404  0.3822
  804SOL    HW2 2412   1.626   1.666   0.928  0.7987 -2.4153 -0.4131
  805SOL     OW 2413   2.874   1.949   2.699 -0.2194 -0.4700  0.1631
  805SOL    HW1 2414   2.917   1.917   2.610  0.5429  1.7021 -1.0877
  805SOL    HW2 2415   2.775   1.962   2.683  2.5680  0.3999  0.9453
  806SOL     OW 2416   0.445   2.458   0.232 -0.3293  0.4035  0.3356
  806SOL    HW1 2417   0.533   2.499   0.207 -1.9302  1.2661 -0.9653
  806SOL    HW2 2418   0.389   2.523   0.283  0.6333 -0.4036  0.0153
  807SOL     OW 2419   2.308   1.624   2.807 -0.1531 -0.5001  0.6739
  807SOL    HW1 2420   2.393   1.655   2.764 -2.0263 -0.0595  2.4926
  807SOL    HW2 2421   2.246   1.701   2.828 -1.5408 -0.5077  1.5794
  808SOL     OW 2422   1.459   2.011   1.170 -0.5285 -0.3371  0.8203
  808SOL    HW1 2423   1.425   1.937   1.231  0.0184 -0.1690 -2.3331
  808SOL    HW2 2424   1.522   2.068   1.222 -0.5261 -1.9099  0.7865
  809SOL     OW 2425   0.208   0.559   0.140  0.0289 -0.3971  0.0663
  809SOL    HW1 2426   0.167   0.487   0.202 -1.3890 -1.6642  2.1067
  809SOL    HW2 2427   0.306   0.554   0.155 -3.5600  0.7184  0.8283
  810SOL     OW 2428   1.036   1.516   3.036  0.0111 -0.0089  0.0124
  810SOL    HW1 2429   1.007   1.452   0.004 -0.9366 -0.5171  0.8849
  810SOL    HW2 2430   1.130   1.496   3.009 -1.7613  1.0835  0.8317
  811SOL     OW 2431   2.100   2.266   0.904 -0.4494 -0.2259  0.2981
  811SOL    HW1 2432   2.139   2.182   0.947  2.0110  1.3017  1.2226
  811SOL    HW2 2433   2.002   2.280   0.928  1.3868 -1.5685  1.0262
  812SOL     OW 2434   1.309   0.083   1.229  0.5925  0.7805 -0.5278
  812SOL    HW1 2435   1.411   0.072   1.237  3.5370  0.3704 -0.0894
  812SOL    HW2 2436   1.267   3.094   1.244 -0.9563  0.7289  0.2058
  813SOL     OW 2437   0.827   2.963   1.892  0.3312  0.3333 -0.1212
  813SOL    HW1 2438   0.829   3.031   1.817 -0.0440  0.4480  1.2950
  813SOL    HW2 2439   0.728   2.948   1.914  0.8165 -0.7153 -0.8394
  814SOL     OW 2440   1.122   2.394   2.168  0.4458 -0.2801 -0.3788
  814SOL    HW1 2441   1.137   2.345   2.257  0.7154  0.2739  0.1251
  814SOL    HW2 2442   1.069   2.480   2.185  0.1545 -1.0553 -1.8371
  815SOL     OW 2443   0.628   2.919   2.941 -0.2065 -0.0533  0.4186
  815SOL    HW1 2444   0.585   2.825   2.924 -0.2839 -2.1184  0.1519
  815SOL    HW2 2445   0.563   2.971   3.000 -1.5858 -1.8183 -0.0965
  816SOL     OW 2446   2.279   0.613   0.189 -0.1168  0.3633 -0.2750
  816SOL    HW1 2447   2.251   0.526   0.137 -0.2439 -1.0593 -2.9304
  816SOL    HW2 2448   2.350   0.591   0.261  0.9326 -2.2702  1.0999
  817SOL     OW 2449   2.706   2.637   2.298  0.2176  0.0445 -0.3118
  817SOL    HW1 2450   2.687   2.725   2.243 -4.8296 -0.9528 -1.2773
  817SOL    HW2 2451   2.620   2.586   2.313  2.5291  0.3415  0.1863
  818SOL     OW 2452   0.805   1.071   0.432 -0.2610  0.0390 -0.0492
  818SOL    HW1 2453   0.794   0.975   0.422 -0.1046  2.0851 -0.0317
  818SOL    HW2 2454   0.725   1.131   0.406 -0.8454 -0.7495 -0.7626
  819SOL     OW 2455   1.881   1.088   2.756  0.5458 -0.0783 -0.0562
  819SOL    HW1 2456   1.833   1.165   2.699 -2.6485  4.3475  0.8362
  819SOL    HW2 2457   1.939   1.123   2.829 -2.5880 -2.2969  0.6710
  820SOL     OW 2458   0.200   1.460   2.791  0.3224 -0.5078  0.0004
  820SOL    HW1 2459   0.106   1.504   2.803 -1.7751 -1.2059 -1.3743
  820SOL    HW2 2460   0.247   1.442   2.884  0.2577 -0.5925  1.8167
  821SOL     OW 2461   0.451   0.048   0.551 -0.4141  0.4722 -0.2969
  821SOL    HW1 2462   0.456   0.147   0.552  2.9573 -1.9507 -0.9286
  821SOL    HW2 2463   0.542   0.012   0.523 -3.0605 -0.1109 -1.4373
  822SOL     OW 2464   2.594   2.758   2.967  0.0232  0.9214 -0.3635
  822SOL    HW1 2465   2.571   2.675   2.915  2.8176 -1.4369  2.7929
  822SOL    HW2 2466   2.695   2.763   2.990 -1.2258  0.5506 -0.3659
  823SOL     OW 2467   1.459   0.042   2.789 -0.2757  0.3514 -0.1165
  823SOL    HW1 2468   1.543   0.002   2.834  0.4016 -1.8969 -1.5078
  823SOL    HW2 2469   1.416   0.115   2.841 -1.4937 -0.4197 -0.2800
  824SOL     OW 2470   2.887   2.546   1.855 -0.0116  0.3509 -0.0201
  824SOL    HW1 2471   2.820   2.619   1.872  2.8554  1.3151 -0.9293
  824SOL    HW2 2472   2.925   2.521   1.947 -1.3629 -1.4195 -1.7891
  825SOL     OW 2473   2.896   2.130   2.452 -0.1703  0.0190  0.2859
  825SOL    HW1 2474   2.964   2.126   2.374  0.5527 -1.3303 -0.2179
  825SOL    HW2 2475   2.845   2.043   2.455  0.0279  1.6115 -1.2326
  826SOL     OW 2476   1.914   0.368   0.104 -0.8356  0.3812  0.3458
  826SOL    HW1 2477   1.996   0.310   0.129  2.1065 -0.3381 -0.6039
  826SOL    HW2 2478   1.876   0.329   0.018 -1.9378  2.2537  1.1184
  827SOL     OW 2479   2.802   1.842   1.772 -0.5389 -0.5109 -0.1340
  827SOL    HW1 2480   2.834   1.808   1.677  1.1567 -0.1184 -0.2381
  827SOL    HW2 2481   2.707   1.816   1.794  3.4213 -2.5656  1.0773
  828SOL     OW 2482   0.141   0.037   1.432  0.1208 -0.5310  0.0823
  828SOL    HW1 2483   0.226   0.049   1.376  3.6305 -0.3603 -1.0052
  828SOL    HW2 2484   0.076   3.070   1.392 -0.3562 -0.6146 -1.5249
  829SOL     OW 2485   0.693   1.991   2.534 -0.0725  0.4134 -0.7111
  829SOL    HW1 2486   0.764   2.051   2.571 -0.9382 -0.8031  0.4541
  829SOL    HW2 2487   0.600   2.024   2.563 -0.9130  0.7116 -2.6739
  830SOL     OW 2488   0.550   0.785   1.439  0.0656 -0.2441  0.1527
  830SOL    HW1 2489   0.617   0.854   1.473 -1.9510 -1.0559  1.8715
  830SOL    HW2 2490   0.595   0.694   1.429  0.1989 -0.7583 -0.3016
  831SOL     OW 2491   2.537   1.715   2.699 -0.2266 -0.4047  0.0409
  831SOL    HW1 2492   2.578   1.624   2.667 -3.3785 -0.2100  0.1399
  831SOL    HW2 2493   2.561   1.753   2.792 -0.7697 -0.3742 -0.8344
  832SOL     OW 2494   1.978   2.567   3.011  0.4138  0.1427  0.0969
  832SOL    HW1 2495   1.924   2.558   2.924 -0.1697 -0.7312  0.4315
  832SOL    HW2 2496   1.978   2.662   3.052  0.0485  1.0700  1.0598
  833SOL     OW 2497   0.710   0.228   1.916  0.7234 -0.7635  0.1603
  833SOL    HW1 2498   0.782   0.179   1.976 -0.1804 -0.1491  0.1614
  833SOL    HW2 2499   0.658   0.293   1.972  1.7072  0.0481 -0.2678
  834SOL     OW 2500   0.066   0.316   1.512 -0.0740  0.2532  0.1219
  834SOL    HW1 2501   0.097   0.221   1.505  0.3495  1.7046  1.3928
  834SOL    HW2 2502   3.088   0.331   1.455  3.5017 -1.7822  1.0652
  835SOL     OW 2503   2.636   0.429   0.548 -0.1773 -0.0187  0.1376
  835SOL    HW1 2504   2.540   0.420   0.523 -0.1776 -2.9923 -1.0546
  835SOL    HW2 2505   2.650   0.474   0.638  0.2997 -1.8168  2.0237
  836SOL     OW 2506   1.227   2.078   0.310 -0.3575 -0.0769  0.2263
  836SOL    HW1 2507   1.265   2.036   0.394 -0.5044 -1.7711 -1.5460
  836SOL    HW2 2508   1.274   2.160   0.276 -0.2490  2.0625 -0.9042
  837SOL     OW 2509   1.887   1.766   0.446  0.1174 -0.1404  0.1397
  837SOL    HW1 2510   1.957   1.745   0.521 -0.5381 -0.6571  1.4465
  837SOL    HW2 2511   1.900   1.858   0.404  2.7214  5.7090 -0.8797
  838SOL     OW 2512   1.525   0.683   2.247  0.0171 -0.5834 -0.4468
  838SOL    HW1 2513   1.430   0.655   2.269 -0.5673  0.6047  1.9298
  838SOL    HW2 2514   1.540   0.759   2.312 -0.1219 -0.6082  0.4577
  839SOL     OW 2515   0.601   1.575   2.427  0.1679 -0.3745 -0.4788
  839SOL    HW1 2516   0.616   1.610   2.522 -1.5280 -0.5543 -1.4439
  839SOL    HW2 2517   0.690   1.540   2.396  2.3818  0.5273  0.3992
  840SOL     OW 2518   0.914   1.337   0.143  0.1365 -0.2770 -0.5665
  840SOL    HW1 2519   0.817   1.370   0.134  0.6457  1.1894  0.5677
  840SOL    HW2 2520   0.916   1.242   0.108  0.5494  1.2968  2.3331
  841SOL     OW 2521   1.869   2.243   0.666  0.2144 -0.2491  0.3116
  841SOL    HW1 2522   1.905   2.212   0.755 -0.5536 -2.7782  1.4687
  841SOL    HW2 2523   1.858   2.345   0.662  0.3890 -0.1147  2.5194
  842SOL     OW 2524   0.501   0.531   3.002 -0.2131  0.0449  0.4581
  842SOL    HW1 2525   0.415   0.548   2.948  0.7315 -0.9663  1.1566
  842SOL    HW2 2526   0.485   0.546   3.101  0.9299  3.1715 -0.7124
  843SOL     OW 2527   0.683   0.316   0.777  0.4239 -0.3884 -0.3071
  843SOL    HW1 2528   0.754   0.374   0.824 -0.7815 -1.0462 -0.6364
  843SOL    HW2 2529   0.710   0.218   0.761 -1.4526  0.4468  0.5002
  844SOL     OW 2530   1.862   3.004   2.204  0.0337  0.3101  0.4230
  844SOL    HW1 2531   1.945   3.016   2.145  0.7112 -0.1958  2.8522
  844SOL    HW2 2532   1.783   3.071   2.183 -1.2812  0.6696 -0.6577
  845SOL     OW 2533   0.196   2.408   1.686 -0.2471 -0.2086  0.5814
  845SOL    HW1 2534   0.182   2.380   1.780  0.4667  2.5435 -0.2860
  845SOL    HW2 2535   0.109   2.436   1.651  2.3103 -0.2720  0.0416
  846SOL     OW 2536   1.769   1.218   2.546  0.3557  0.5686 -0.1734
  846SOL    HW1 2537   1.769   1.312   2.512  1.1498 -0.4306  3.3502
  846SOL    HW2 2538   1.772   1.149   2.468  0.5142 -0.0898  0.3373
  847SOL     OW 2539   0.469   0.816   2.179 -0.3490  0.8006  0.1580
  847SOL    HW1 2540   0.510   0.765   2.102  1.6370 -1.7692  0.8935
  847SOL    HW2 2541   0.506   0.764   2.258 -2.7214  2.4277 -0.6072
  848SOL     OW 2542   2.610   2.892   2.708  0.3005 -0.5365  0.3955
  848SOL    HW1 2543   2.581   2.883   2.804 -0.0375  2.8895  0.5756
  848SOL    HW2 2544   2.589   2.812   2.653  0.4795  4.9875  3.0945
  849SOL     OW 2545   0.355   2.699   0.401 -0.3600  0.5499  0.3496
  849SOL    HW1 2546   0.279   2.736   0.348  0.6806  1.6179  0.6418
  849SOL    HW2 2547   0.441   2.755   0.387 -1.0979 -1.7218 -0.5081
  850SOL     OW 2548   0.975   2.516   0.663  0.3896 -0.1988  0.0620
  850SOL    HW1 2549   1.014   2.479   0.751  2.0872 -0.6600  2.2454
  850SOL    HW2 2550   1.045   2.573   0.621 -1.7064 -0.0700  2.1316
  851SOL     OW 2551   1.821   0.353   2.761  0.2199 -0.5591 -0.4019
  851SOL    HW1 2552   1.879   0.288   2.708 -0.5925  1.1831  0.6542
  851SOL    HW2 2553   1.860   0.448   2.755 -0.2265 -0.2245 -0.1243
  852SOL     OW 2554   1.443   3.082   2.546  0.0026 -0.0826  0.4138
  852SOL    HW1 2555   1.449   2.982   2.531  0.6123 -1.2346  1.6622
  852SOL    HW2 2556   1.432   3.104   2.647  0.9894  0.2406  1.9940
  853SOL     OW 2557   2.909   2.658   0.498  0.0652  0.6175  0.0458
  853SOL    HW1 2558   2.937   2.570   0.449  1.2233  2.4197  0.4996
  853SOL    HW2 2559   2.976   2.733   0.487  0.9737  1.1520 -2.2646
  854SOL     OW 2560   1.840   0.449   2.462 -0.2697 -0.1486 -0.2582
  854SOL    HW1 2561   1.846   0.350   2.460 -2.5354 -0.4514 -0.4895
  854SOL    HW2 2562   1.900   0.496   2.536  1.7383  2.2270 -0.2354
  855SOL     OW 2563   0.308   2.498   0.582  0.1094  0.1860 -0.4184
  855SOL    HW1 2564   0.243   2.525   0.656 -0.4770 -0.8522 -5.6333
  855SOL    HW2 2565   0.347   2.582   0.538 -1.2083 -1.7308 -1.4587
  856SOL     OW 2566   0.228   2.853   2.536 -0.6194 -0.8021 -0.2811
  856SOL    HW1 2567   0.324   2.842   2.506  1.2241  1.4033  2.5374
  856SOL    HW2 2568   0.235   2.868   2.635 -0.4760  3.2205 -0.6754
  857SOL     OW 2569   1.083   3.065   1.542  0.1487  0.6222 -0.2321
  857SOL    HW1 2570   1.115   2.983   1.589 -0.0687  0.8104  0.6146
  857SOL    HW2 2571   1.004   3.102   1.596  0.2666 -1.4175  1.6206
  858SOL     OW 2572   2.536   2.094   1.640  0.1296 -0.0440 -0.3786
  858SOL    HW1 2573   2.569   2.127   1.550 -1.5245  0.3059 -1.6670
  858SOL    HW2 2574   2.482   2.009   1.627 -0.4452  0.0470 -1.5790
  859SOL     OW 2575   1.784   2.427   1.850  0.0615  0.4689 -0.1507
  859SOL    HW1 2576   1.690   2.389   1.872  2.5881 -0.2193 -1.1097
  859SOL    HW2 2577   1.856   2.352   1.854 -1.4747 -0.6183 -1.6786
  860SOL     OW 2578   1.544   0.492   0.364 -0.5505  0.3448 -0.3178
  860SOL    HW1 2579   1.554   0.562   0.290 -0.4462 -0.4919 -0.2997
  860SOL    HW2 2580   1.575   0.400   0.332  0.9199 -1.5636  1.9046
  861SOL     OW 2581   2.641   0.478   0.872  0.5442  0.1732  0.0777
  861SOL    HW1 2582   2.743   0.480   0.887 -1.9041 -0.4755 -1.2823
  861SOL    HW2 2583   2.607   0.394   0.917  1.8726  3.1076  0.0990
  862SOL     OW 2584   1.159   3.049   2.223  0.4449  0.3690 -0.2198
  862SOL    HW1 2585   1.183   0.024   2.166  1.0806 -1.3365 -2.6948
  862SOL    HW2 2586   1.214   3.051   2.306 -1.9483  0.9624  0.7483
  863SOL     OW 2587   0.344   0.730   1.132  0.0770 -0.7444 -0.2193
  863SOL    HW1 2588   0.279   0.692   1.201 -1.2412  3.1190  1.0777
  863SOL    HW2 2589   0.413   0.795   1.173 -0.3803  0.5404  0.9588
  864SOL     OW 2590   2.869   0.251   2.004 -0.5616  0.4417  0.4372
  864SOL    HW1 2591   2.943   0.237   1.936  1.1955  1.1612  0.9176
  864SOL    HW2 2592   2.845   0.156   2.032  1.0168  0.3798  0.9876
  865SOL     OW 2593   0.669   1.338   2.791 -0.4253 -0.3344 -0.2338
  865SOL    HW1 2594   0.636   1.418   2.845  0.2640 -0.8560 -2.8304
  865SOL    HW2 2595   0.613   1.259   2.814 -0.8055  1.0807 -0.6874
  866SOL     OW 2596   3.093   3.013   0.106 -0.8960  0.2400  0.2261
  866SOL    HW1 2597   0.004   3.087   0.036 -1.6035 -1.3255  2.8126
  866SOL    HW2 2598   0.071   2.955   0.119  1.4260 -1.4849 -0.6876
  867SOL     OW 2599   2.962   2.911   2.877 -0.0784 -0.8875  0.4929
  867SOL    HW1 2600   2.914   2.850   2.947 -0.1798 -0.4044  3.6754
  867SOL    HW2 2601   3.022   2.857   2.817 -0.5764 -0.3295  1.0235
  868SOL     OW 2602   1.594   1.075   2.864 -0.3601  0.4330  0.8212
  868SOL    HW1 2603   1.674   1.082   2.803 -0.7651  0.7073  2.0464
  868SOL    HW2 2604   1.587   0.983   2.905 -1.7553 -1.1352  0.9385
  869SOL     OW 2605   0.335   1.810   0.602 -0.1654  0.6129 -0.4031
  869SOL    HW1 2606   0.433   1.795   0.628  0.4730  0.1063 -2.6546
  869SOL    HW2 2607   0.296   1.720   0.587 -0.6884 -0.6932  2.6791
  870SOL     OW 2608   2.305   1.726   0.634 -0.2094  0.1242 -0.3724
  870SOL    HW1 2609   2.343   1.819   0.609  1.5476  1.8689  0.2061
  870SOL    HW2 2610   2.345   1.650   0.582 -0.1178  0.3408 -0.7524
  871SOL     OW 2611   0.855   1.170   1.070  0.2187 -0.2175 -0.0902
  871SOL    HW1 2612   0.775   1.130   1.013 -1.0076  0.0115 -0.8495
  871SOL    HW2 2613   0.892   1.098   1.133  0.0648  2.2913 -0.2975
  872SOL     OW 2614   1.272   1.593   1.908 -0.3910 -0.0068 -0.1034
  872SOL    HW1 2615   1.309   1.683   1.942 -0.2810 -0.9107  1.1055
  872SOL    HW2 2616   1.297   1.572   1.807  0.5345  0.6822 -1.3217
  873SOL     OW 2617   0.627   1.994   2.261 -0.1785  0.2417 -0.3573
  873SOL    HW1 2618   0.647   2.003   2.360  3.2820  2.3319 -0.6685
  873SOL    HW2 2619   0.715   1.990   2.211  0.4848 -0.6876  2.4234
  874SOL     OW 2620   0.932   2.245   1.032  0.0051 -0.7192  0.0122
  874SOL    HW1 2621   0.886   2.180   0.966 -0.7549 -0.5590  0.0122
  874SOL    HW2 2622   0.946   2.205   1.124 -2.1100 -0.9327 -3.3074
  875SOL     OW 2623   2.600   0.099   0.861  0.1696  0.1051 -0.2707
  875SOL    HW1 2624   2.503   0.081   0.839  0.3656 -0.4304  0.9008
  875SOL    HW2 2625   2.603   0.156   0.948 -2.3567  0.5620 -1.8234
  876SOL     OW 2626   0.861   0.572   0.160 -0.3919 -0.3621 -0.1353
  876SOL    HW1 2627   0.782   0.612   0.213 -1.5220 -1.4530 -1.2236
  876SOL    HW2 2628   0.937   0.639   0.141 -1.6488  0.9722 -0.0975
  877SOL     OW 2629   2.741   0.636   1.262 -0.4623  0.3090 -0.0412
  877SOL    HW1 2630   2.658   0.589   1.231  1.1896  0.4051 -0.4968
  877SOL    HW2 2631   2.802   0.651   1.183  0.8464  0.7456 -3.6586
  878SOL     OW 2632   2.354   2.201   0.671 -0.0315 -0.4558  0.7655
  878SOL    HW1 2633   2.310   2.296   0.656  1.1833  2.9193  0.9294
  878SOL    HW2 2634   2.333   2.167   0.764 -0.0080  0.7456 -0.1588
  879SOL     OW 2635   2.545   1.732   1.479 -0.2974 -0.5833 -0.3385
  879SOL    HW1 2636   2.515   1.794   1.402  1.0702  0.1426 -0.4015
  879SOL    HW2 2637   2.545   1.634   1.450 -1.2882  1.9810 -3.2031
  880SOL     OW 2638   1.449   2.525   1.165  0.2710  0.1748 -0.3326
  880SOL    HW1 2639   1.440   2.622   1.178 -0.8614  0.0837 -1.1159
  880SOL    HW2 2640   1.371   2.478   1.213  1.3053 -0.6497 -1.3006
  881SOL     OW 2641   1.073   2.507   0.170 -0.0504 -0.3544 -0.2192
  881SOL    HW1 2642   1.099   2.477   0.260 -0.9730 -1.1944 -4.7091
  881SOL    HW2 2643   0.975   2.482   0.154 -0.9901 -0.5622 -0.8419
  882SOL     OW 2644   1.768   1.172   1.600 -0.0096 -0.1582 -0.1135
  882SOL    HW1 2645   1.695   1.235   1.638 -1.9888  0.9477  1.4839
  882SOL    HW2 2646   1.729   1.081   1.597  3.0035 -2.2645 -0.5552
  883SOL     OW 2647   1.261   0.165   2.100  0.4530 -0.2629 -0.3260
  883SOL    HW1 2648   1.317   0.246   2.128 -0.4910  2.8115 -0.9953
  883SOL    HW2 2649   1.316   0.113   2.031 -3.2693  1.4858  2.3630
  884SOL     OW 2650   2.587   0.484   0.183 -0.4264  0.7784  0.1356
  884SOL    HW1 2651   2.673   0.441   0.208  1.2237 -0.0640  1.4862
  884SOL    HW2 2652   2.568   0.552   0.252  2.2505 -2.5268 -0.7473
  885SOL     OW 2653   0.953   1.315   2.838  0.3557 -0.5967  0.5057
  885SOL    HW1 2654   0.956   1.368   2.925 -1.7466  0.5465  0.8506
  885SOL    HW2 2655   0.859   1.325   2.798 -0.0627 -1.7366 -0.6777
  886SOL     OW 2656   1.535   1.280   2.677 -0.6402  0.1644  0.3701
  886SOL    HW1 2657   1.511   1.200   2.733  0.0416  2.7051 -2.6030
  886SOL    HW2 2658   1.623   1.274   2.627  0.2300  1.3239 -3.9640
  887SOL     OW 2659   1.360   0.411   1.578  0.0569  0.2362  0.1788
  887SOL    HW1 2660   1.312   0.323   1.598  1.4339  0.5180  1.6286
  887SOL    HW2 2661   1.349   0.477   1.660 -0.1765  0.5228 -0.1911
  888SOL     OW 2662   2.643   0.652   2.027 -0.0756 -0.3019  0.2245
  888SOL    HW1 2663   2.568   0.593   1.997  0.3714  0.5096  1.9645
  888SOL    HW2 2664   2.684   0.698   1.948 -1.7310 -2.2648 -2.3728
  889SOL     OW 2665   0.248   2.813   0.801  0.2562 -0.0569 -1.0882
  889SOL    HW1 2666   0.200   2.718   0.807 -1.6887 -2.3534 -0.1446
  889SOL    HW2 2667   0.341   2.807   0.762 -1.0750  1.5974  3.2235
  890SOL     OW 2668   2.926   2.185   0.274  0.3352 -0.5109  0.5098
  890SOL    HW1 2669   2.905   2.117   0.346  1.8191  2.3757 -1.2397
  890SOL    HW2 2670   3.025   2.185   0.251  0.1172 -0.0013  0.8757
  891SOL     OW 2671   0.848   1.717   3.018 -0.0110 -0.4144 -0.4259
  891SOL    HW1 2672   0.884   1.752   2.932 -3.2352  1.4161  2.9656
  891SOL    HW2 2673   0.913   1.651   3.061  1.4669 -0.7483  0.8693
  892SOL     OW 2674   2.769   2.984   0.777  0.8030 -0.6096  0.1656
  892SOL    HW1 2675   2.699   3.047   0.822  0.7954  0.3731  1.1678
  892SOL    HW2 2676   2.847   2.951   0.836  1.4575 -2.2441 -0.4699
  893SOL     OW 2677   1.143   2.973   1.283  0.0022  0.3667  0.7127
  893SOL    HW1 2678   1.135   3.017   1.372 -0.1861 -1.0746 -0.6110
  893SOL    HW2 2679   1.076   3.000   1.211 -0.1208 -0.8422 -1.3016
  894SOL     OW 2680   2.713   0.827   0.694 -0.4106  0.4379 -0.8011
  894SOL    HW1 2681   2.615   0.820   0.670  2.4485 -1.9016 -0.5463
  894SOL    HW2 2682   2.772   0.856   0.617 -2.4582 -0.1410  2.8886
  895SOL     OW 2683   2.337   2.475   2.083  0.1906 -0.0307  0.0618
  895SOL    HW1 2684   2.236   2.505   2.075 -0.3391 -1.4511 -0.4436
  895SOL    HW2 2685   2.377   2.527   2.164  0.9546 -2.3322  0.1347
  896SOL     OW 2686   1.196   0.201   1.631 -0.6468 -0.2429  0.0756
  896SOL    HW1 2687   1.157   0.120   1.579  1.1722 -1.1314 -1.4447
  896SOL    HW2 2688   1.174   0.197   1.731 -1.2380  0.2185  0.3196
  897SOL     OW 2689   0.897   1.653   1.967 -0.2484  0.0966 -0.3844
  897SOL    HW1 2690   0.966   1.577   1.965  3.2291 -1.3110 -2.0208
  897SOL    HW2 2691   0.921   1.721   1.895  0.7675 -1.8223  2.2757
  898SOL     OW 2692   1.958   2.824   1.903 -0.5132 -0.0007 -0.2293
  898SOL    HW1 2693   2.004   2.799   1.818  2.8000  1.3817  0.6200
  898SOL    HW2 2694   2.025   2.821   1.979 -1.5316  0.4424  0.7344
  899SOL     OW 2695   0.995   0.720   1.055  0.3812  0.3198  0.7688
  899SOL    HW1 2696   1.026   0.700   1.151  0.7031 -0.8368 -0.2077
  899SOL    HW2 2697   0.891   0.723   1.046 -1.6547  1.8490  0.2032
  900SOL     OW 2698   1.987   2.337   2.698  0.1657  0.0679  0.2991
  900SOL    HW1 2699   2.046   2.317   2.775 -0.4872  0.2500 -3.5248
  900SOL    HW2 2700   2.010   2.268   2.628  0.4990  0.5925  0.5898
  901SOL     OW 2701   0.871   2.190   2.617 -0.0549  0.1559  0.1050
  901SOL    HW1 2702   0.890   2.200   2.718  0.3155 -1.6668 -3.6227
  901SOL    HW2 2703   0.879   2.275   2.563  1.3207 -1.4156 -1.0152
  902SOL     OW 2704   2.356   1.120   0.269 -0.1751  0.0776 -0.1080
  902SOL    HW1 2705   2.398   1.202   0.223 -1.5504  1.5815  1.4473
  902SOL    HW2 2706   2.390   1.029   0.236  1.4000 -0.3725 -0.8730
  903SOL     OW 2707   2.059   0.817   0.429  0.0677  0.3188 -0.1335
  903SOL    HW1 2708   1.978   0.759   0.413  1.2684 -2.0201  0.0336
  903SOL    HW2 2709   2.057   0.910   0.382  2.3371 -1.2172  1.7034
  904SOL     OW 2710   0.875   0.969   2.639  0.2957 -0.3189  0.4655
  904SOL    HW1 2711   0.793   0.909   2.650 -0.1831 -1.2810  1.3400
  904SOL    HW2 2712   0.955   0.916   2.606  2.1392 -0.0704 -1.2162
  905SOL     OW 2713   2.089   0.278   0.940 -0.0299 -0.5401  0.5011
  905SOL    HW1 2714   2.024   0.222   0.885  1.8692  1.1964 -0.2549
  905SOL    HW2 2715   2.168   0.314   0.882  1.2418  1.8555  0.2812
  906SOL     OW 2716   2.626   2.525   1.500 -0.2472 -0.9553  0.0557
  906SOL    HW1 2717   2.628   2.466   1.585  1.7146 -0.8601 -0.1728
  906SOL    HW2 2718   2.713   2.578   1.501 -2.8378 -1.9066  0.6185
  907SOL     OW 2719   1.024   0.846   0.105  0.1018 -0.0052  0.0485
  907SOL    HW1 2720   1.107   0.871   0.161 -2.0008 -1.2260 -2.8814
  907SOL    HW2 2721   1.051   0.812   0.017  0.6305  1.0695  3.3186
  908SOL     OW 2722   2.129   2.920   1.428 -0.0170  0.1692 -0.2905
  908SOL    HW1 2723   2.228   2.937   1.428 -0.1826  0.6349  1.6091
  908SOL    HW2 2724   2.095   2.888   1.339 -2.9666  2.2912  1.8961
  909SOL     OW 2725   2.521   0.879   1.300  0.1883 -0.1177  0.5239
  909SOL    HW1 2726   2.493   0.818   1.376 -1.9028  0.4556 -0.5871
  909SOL    HW2 2727   2.448   0.943   1.278  1.2500 -0.1570 -1.2745
  910SOL     OW 2728   1.258   2.721   2.253  0.1890  0.1705  0.7335
  910SOL    HW1 2729   1.309   2.799   2.214  0.2357  0.2661  1.6473
  910SOL    HW2 2730   1.160   2.715   2.226  0.4647 -1.5630 -0.2706
  911SOL     OW 2731   2.484   0.461   2.378  0.5507 -0.2615 -0.8091
  911SOL    HW1 2732   2.557   0.533   2.370  2.2635  1.0990  2.9993
  911SOL    HW2 2733   2.398   0.504   2.411  0.0993 -0.9030 -2.5575
  912SOL     OW 2734   2.881   1.457   1.483  0.0242 -0.3904 -0.4310
  912SOL    HW1 2735   2.883   1.542   1.430 -1.5848  0.1613  0.6542
  912SOL    HW2 2736   2.975   1.443   1.534  2.1032 -0.1730  0.3318
  913SOL     OW 2737   2.576   2.233   1.361 -0.3244 -0.0331 -0.5483
  913SOL    HW1 2738   2.574   2.316   1.300 -0.2750 -2.1760  2.8351
  913SOL    HW2 2739   2.622   2.160   1.307 -0.5619 -1.3363  0.7467
  914SOL     OW 2740   1.892   1.223   1.352  0.4818  0.4693 -0.1442
  914SOL    HW1 2741   1.889   1.123   1.336 -2.2026  2.4184 -1.5178
  914SOL    HW2 2742   1.852   1.243   1.445  0.0088  0.7593 -0.2265
  915SOL     OW 2743   1.336   0.862   1.348  0.1404 -0.4152  0.2133
  915SOL    HW1 2744   1.346   0.764   1.367 -0.6684  0.4916 -1.5888
  915SOL    HW2 2745   1.276   0.875   1.272  2.1777 -0.5774  1.5582
  916SOL     OW 2746   2.818   2.719   1.464 -0.6081  0.1549 -0.5472
  916SOL    HW1 2747   2.765   2.760   1.389 -1.2679 -1.5459  2.0556
  916SOL    HW2 2748   2.859   2.790   1.523  1.6499  0.8021  1.6697
  917SOL     OW 2749   2.424   2.032   0.307  0.3545 -0.0971 -0.6377
  917SOL    HW1 2750   2.358   2.014   0.229  1.5379 -2.3581 -2.4398
  917SOL    HW2 2751   2.486   2.114   0.287  0.4505  2.2283 -0.3568
  918SOL     OW 2752   1.911   2.769   2.605 -0.4703  0.0770 -0.0446
  918SOL    HW1 2753   1.858   2.795   2.521  0.0918 -0.7434 -1.7210
  918SOL    HW2 2754   1.860   2.695   2.655  0.3449  0.7885  0.6123
  919SOL     OW 2755   1.431   2.153   1.494 -0.2170  0.0931 -0.1359
  919SOL    HW1 2756   1.442   2.087   1.570  2.2482 -2.4249 -1.6130
  919SOL    HW2 2757   1.332   2.137   1.468  1.7686 -1.6139  4.1072
  920SOL     OW 2758   2.765   0.285   2.358 -0.2062 -0.2074  0.3411
  920SOL    HW1 2759   2.848   0.241   2.321 -1.7111  0.0464 -1.5595
  920SOL    HW2 2760   2.689   0.286   2.292  2.2511 -2.6858  1.5088
  921SOL     OW 2761   3.037   0.858   2.038  0.1307 -0.1965 -0.3593
  921SOL    HW1 2762   3.053   0.770   1.995  1.0662  2.6377  1.5178
  921SOL    HW2 2763   2.947   0.870   2.076  1.3410  1.0295 -0.9907
  922SOL     OW 2764   2.091   2.075   0.629 -0.1759 -0.0359  0.1148
  922SOL    HW1 2765   2.190   2.094   0.624  0.2596 -3.3782  0.0898
  922SOL    HW2 2766   2.043   2.130   0.564  1.3226 -0.1092  3.0196
  923SOL     OW 2767   0.547   2.218   3.057 -0.6829  0.3531 -0.3059
  923SOL    HW1 2768   0.535   2.187   2.961  0.5137 -2.2227  2.9422
  923SOL    HW2 2769   0.596   2.311   3.058  3.1363  2.2149 -1.8168
  924SOL     OW 2770   1.029   0.249   0.436 -0.0469  0.3342 -0.1851
  924SOL    HW1 2771   0.949   0.275   0.381  0.0581  4.1711 -1.5957
  924SOL    HW2 2772   1.113   0.289   0.394  0.6661 -0.0748  0.1011
  925SOL     OW 2773   2.424   0.892   0.559 -0.2280  0.5832  0.0007
  925SOL    HW1 2774   2.352   0.887   0.627  4.3283  1.6769 -2.9391
  925SOL    HW2 2775   2.430   0.989   0.526 -3.3613  0.3743  0.7145
  926SOL     OW 2776   0.121   0.887   0.997  0.0057 -0.4815  0.3031
  926SOL    HW1 2777   0.051   0.911   1.071  2.0334  1.1391  0.6421
  926SOL    HW2 2778   0.193   0.830   1.036 -1.2419  1.8025 -2.5959
  927SOL     OW 2779   0.033   1.109   2.950 -0.3493 -0.2687 -0.0629
  927SOL    HW1 2780   0.090   1.143   2.869  0.7064  0.1000  1.0836
  927SOL    HW2 2781   0.046   1.169   3.033 -0.0540  0.0185  1.8632
  928SOL     OW 2782   2.971   0.590   2.353 -0.0119 -0.4078  0.1831
  928SOL    HW1 2783   2.871   0.610   2.351  2.8129 -0.6442  0.6989
  928SOL    HW2 2784   3.007   0.530   2.278  0.3284 -1.4276  0.2803
  929SOL     OW 2785   3.061   2.954   1.386 -0.1084  0.3753  0.0184
  929SOL    HW1 2786   2.975   3.008   1.407  0.4709  0.1485  0.0095
  929SOL    HW2 2787   3.038   2.879   1.321 -0.5232  1.2082 -0.2006
  930SOL     OW 2788   1.964   1.246   1.784  0.1548 -0.2055 -0.0041
  930SOL    HW1 2789   1.885   1.224   1.725  1.5028 -2.9627  3.1751
  930SOL    HW2 2790   1.990   1.346   1.773 -1.7730  1.6755 -1.6409
  931SOL     OW 2791   1.553   1.338   0.602 -0.2087  0.1079  0.8017
  931SOL    HW1 2792   1.554   1.364   0.500  0.6147 -1.1742 -5.3205
  931SOL    HW2 2793   1.513   1.408   0.654  2.4247 -3.3224 -0.3836
  932SOL     OW 2794   2.807   1.148   0.826 -0.0331  0.2986 -0.2819
  932SOL    HW1 2795   2.707   1.170   0.808  0.0252  0.6271  1.0612
  932SOL    HW2 2796   2.819   1.052   0.863 -1.0928  0.5829 -0.1176
  933SOL     OW 2797   2.460   1.913   1.280  0.3351  0.4944 -0.4511
  933SOL    HW1 2798   2.447   1.845   1.200  1.0910 -0.4254  0.9681
  933SOL    HW2 2799   2.375   1.929   1.334 -1.7668  2.2624  0.4848
  934SOL     OW 2800   1.778   0.125   1.925 -0.0116  0.2803  0.0813
  934SOL    HW1 2801   1.770   0.170   2.015  2.3309 -0.2314 -0.1476
  934SOL    HW2 2802   1.754   0.193   1.856  2.2783 -2.3230  2.6816
  935SOL     OW 2803   0.388   1.563   0.887 -0.1722  0.6016 -0.6054
  935SOL    HW1 2804   0.332   1.541   0.802 -2.2811 -3.8523  0.6678
  935SOL    HW2 2805   0.344   1.639   0.939 -0.3941  0.9770  2.4167
  936SOL     OW 2806   0.435   0.919   0.574  0.0127  0.5551 -0.3319
  936SOL    HW1 2807   0.341   0.876   0.577  1.0977 -0.2266  0.1052
  936SOL    HW2 2808   0.470   0.908   0.477 -1.3736  1.4989  0.8876
  937SOL     OW 2809   2.237   3.048   1.119  0.1902  0.3457 -0.5458
  937SOL    HW1 2810   2.221   2.956   1.165 -0.0054 -3.5934 -0.3757
  937SOL    HW2 2811   2.223   3.037   1.020 -1.9303  0.0517 -0.7548
  938SOL     OW 2812   2.625   2.241   0.576  0.3964  0.0288  0.0036
  938SOL    HW1 2813   2.616   2.276   0.482 -0.6280  0.5438  1.0416
  938SOL    HW2 2814   2.530   2.231   0.614 -0.3683 -1.0522 -0.1891
  939SOL     OW 2815   0.848   2.217   0.637 -0.5188  0.1728 -0.7000
  939SOL    HW1 2816   0.922   2.155   0.679  3.8989 -1.0510  1.0304
  939SOL    HW2 2817   0.865   2.317   0.651  1.0452 -1.2750  0.2632
  940SOL     OW 2818   2.724   3.082   2.873  0.3139  0.5614  0.3477
  940SOL    HW1 2819   2.819   3.043   2.896  1.3982  0.2724  0.2750
  940SOL    HW2 2820   2.665   3.015   2.826  1.9898 -2.7950 -0.9337
  941SOL     OW 2821   1.217   0.356   3.021 -0.3643  0.0207 -0.2052
  941SOL    HW1 2822   1.230   0.265   3.070  0.5142 -0.4812 -0.0631
  941SOL    HW2 2823   1.212   0.434   3.089 -2.1016  1.1414  1.6959
  942SOL     OW 2824   1.215   0.916   1.093  0.0552  0.6502 -0.0251
  942SOL    HW1 2825   1.254   1.012   1.110 -0.1618  2.0376 -0.7458
  942SOL    HW2 2826   1.152   0.918   1.012  0.7895 -1.4464 -1.7999
  943SOL     OW 2827   1.516   1.286   1.625 -0.1071  0.9219 -0.8308
  943SOL    HW1 2828   1.463   1.244   1.698  0.7797 -1.0596  2.3315
  943SOL    HW2 2829   1.496   1.234   1.538 -2.3618 -3.7117 -2.9022
  944SOL     OW 2830   1.687   0.848   1.725 -0.1685  0.6555  0.4016
  944SOL    HW1 2831   1.696   0.943   1.762  1.4972 -0.7026  0.9887
  944SOL    HW2 2832   1.676   0.783   1.804  0.7820  2.0493  0.1734
  945SOL     OW 2833   0.021   0.030   0.351  0.5469 -0.0027  0.0557
  945SOL    HW1 2834   3.085   0.118   0.384  2.2794 -0.3708 -0.4781
  945SOL    HW2 2835   3.093   0.009   0.259 -0.8688  0.4869  1.4368
  946SOL     OW 2836   3.019   0.569   1.655  0.2772 -0.3152  0.2103
  946SOL    HW1 2837   3.044   0.473   1.624  1.0264  0.4540 -0.4812
  946SOL    HW2 2838   2.916   0.582   1.642 -1.7322 -0.2018 -0.0840
  947SOL     OW 2839   0.741   3.087   0.457 -0.1770 -0.2807 -0.7688
  947SOL    HW1 2840   0.720   2.988   0.456 -1.9120  1.6841 -2.9208
  947SOL    HW2 2841   0.806   0.006   0.386 -0.7607  1.8620 -1.0561
  948SOL     OW 2842   2.428   1.138   1.698  0.2598 -0.0702  0.3396
  948SOL    HW1 2843   2.381   1.105   1.780  0.5070  2.7194 -3.4984
  948SOL    HW2 2844   2.505   1.200   1.733  1.7624  1.4971 -0.3756
  949SOL     OW 2845   0.617   0.805   2.662 -0.0768  0.4221 -0.3574
  949SOL    HW1 2846   0.577   0.895   2.627 -2.7464  2.1832  1.0766
  949SOL    HW2 2847   0.545   0.733   2.662  2.2780  2.6335  0.3418
  950SOL     OW 2848   0.910   0.334   1.070  0.1939  0.3714 -0.1194
  950SOL    HW1 2849   0.997   0.322   1.122  2.2083 -1.7020  1.6329
  950SOL    HW2 2850   0.926   0.404   1.003 -0.9903 -2.1145  0.5768
  951SOL     OW 2851   0.915   1.732   2.210 -0.2311 -0.1216 -0.1163
  951SOL    HW1 2852   0.910   1.833   2.213  0.3127 -2.3941 -1.4098
  951SOL    HW2 2853   0.896   1.702   2.110  0.1944 -1.2303 -6.0784
  952SOL     OW 2854   0.736   1.525   0.256 -0.4220 -0.7957 -0.0646
  952SOL    HW1 2855   0.659   1.563   0.195 -2.6463 -0.8228  1.3106
  952SOL    HW2 2856   0.754   1.590   0.333 -0.3067  1.7946  0.6913
  953SOL     OW 2857   2.060   3.056   2.410 -0.1497  0.4075  0.0038
  953SOL    HW1 2858   2.016   3.059   2.316  0.4276 -0.2804 -3.1844
  953SOL    HW2 2859   2.131   0.021   2.406 -0.7737 -0.4284  1.8674
  954SOL     OW 2860   1.672   1.122   0.711 -0.3492  0.3800  0.1011
  954SOL    HW1 2861   1.772   1.110   0.681 -1.1252  2.2397 -2.4253
  954SOL    HW2 2862   1.635   1.192   0.650  1.8913 -0.3172  1.2775
  955SOL     OW 2863   0.238   2.179   2.256 -0.6278  0.0362 -0.5700
  955SOL    HW1 2864   0.315   2.168   2.188  1.0831 -2.8708 -2.3934
  955SOL    HW2 2865   0.219   2.277   2.286 -0.4123 -1.3041  0.1699
  956SOL     OW 2866   1.614   0.567   1.612 -0.2982  0.4034  0.2077
  956SOL    HW1 2867   1.528   0.532   1.650  1.1825 -0.1389 -1.8984
  956SOL    HW2 2868   1.644   0.647   1.660 -0.0518 -2.9349  2.0233
  957SOL     OW 2869   1.775   2.058   2.921 -0.1446 -0.0364  0.1688
  957SOL    HW1 2870   1.750   1.963   2.952 -1.8192 -0.1677  0.3324
  957SOL    HW2 2871   1.825   2.113   2.994  0.7917 -1.5573 -1.9595
  958SOL     OW 2872   1.110   2.335   1.721 -0.2289  0.3299  0.0289
  958SOL    HW1 2873   1.065   2.379   1.801 -1.0378  2.6653  1.5045
  958SOL    HW2 2874   1.050   2.341   1.641  1.9995 -1.0597  1.5963
  959SOL     OW 2875   2.162   2.277   2.891  0.4568  0.1915 -0.4431
  959SOL    HW1 2876   2.189   2.373   2.885 -0.6235  2.5478  1.8594
  959SOL    HW2 2877   2.234   2.234   2.948  2.0331  2.3993  2.1511
  960SOL     OW 2878   2.950   0.534   2.636  0.2855 -0.2383  0.0675
  960SOL    HW1 2879   2.956   0.530   2.535 -1.2666  0.1288  0.3596
  960SOL    HW2 2880   2.982   0.449   2.684 -0.2115  2.4904  0.9469
  961SOL     OW 2881   0.860   0.676   2.564 -0.1778 -0.0586  0.4064
  961SOL    HW1 2882   0.765   0.691   2.589 -1.8073 -2.4340 -2.0056
  961SOL    HW2 2883   0.861   0.651   2.466 -1.4701  1.6992  0.1441
  962SOL     OW 2884   0.845   1.369   2.572 -0.6986  0.1868  0.1309
  962SOL    HW1 2885   0.782   1.352   2.649 -1.0986 -1.7485 -0.0742
  962SOL    HW2 2886   0.838   1.289   2.512 -1.4027  1.2132  0.8331
  963SOL     OW 2887   2.572   2.299   0.323  0.4017 -0.2600  0.0836
  963SOL    HW1 2888   2.637   2.343   0.256 -2.4749  0.3957 -1.8444
  963SOL    HW2 2889   2.495   2.366   0.332 -1.9163 -0.1813 -0.7885
  964SOL     OW 2890   1.181   2.468   1.311 -0.3438 -0.0867 -0.4386
  964SOL    HW1 2891   1.123   2.401   1.358 -1.0967  3.5274 -0.2104
  964SOL    HW2 2892   1.124   2.547   1.283 -1.0973 -0.3767  1.8604
  965SOL     OW 2893   1.249   1.450   0.744 -0.9117  0.0018 -0.3052
  965SOL    HW1 2894   1.307   1.491   0.675  1.0835 -0.5588  0.3732
  965SOL    HW2 2895   1.202   1.526   0.791 -2.5104 -3.8393 -2.5527
  966SOL     OW 2896   0.141   1.516   0.260 -0.3025  0.2224  0.0072
  966SOL    HW1 2897   0.106   1.590   0.316 -2.6518 -0.6344  0.1989
  966SOL    HW2 2898   0.108   1.524   0.166  0.9584  0.5149  0.2266
  967SOL     OW 2899   1.984   0.369   1.869  0.1162 -0.4380 -0.0429
  967SOL    HW1 2900   2.036   0.288   1.891  1.9588  0.5424  0.0515
  967SOL    HW2 2901   1.986   0.386   1.768  0.6705 -0.5522  0.0389
  968SOL     OW 2902   1.894   1.030   0.567  0.0217  0.2678 -0.6317
  968SOL    HW1 2903   1.940   1.106   0.518  0.3680 -1.8224  1.2485
  968SOL    HW2 2904   1.868   0.970   0.493  0.9426  1.5629  0.1241
  969SOL     OW 2905   0.407   1.373   2.419  0.3950 -0.0846 -0.5182
  969SOL    HW1 2906   0.406   1.358   2.318 -1.8878 -0.6428 -0.3997
  969SOL    HW2 2907   0.473   1.449   2.439  1.6781  0.4362  1.2450
  970SOL     OW 2908   2.227   1.499   1.128 -0.3032 -0.2946  0.0631
  970SOL    HW1 2909   2.177   1.497   1.034  1.4070  3.2279 -2.0150
  970SOL    HW2 2910   2.292   1.584   1.135  1.7966 -0.0521  0.0248
  971SOL     OW 2911   0.364   3.097   1.252 -0.2613 -0.1444  0.6185
  971SOL    HW1 2912   0.424   0.072   1.225 -0.4874 -0.5787 -1.3527
  971SOL    HW2 2913   0.315   3.054   1.174  0.4037 -2.2214  2.7365
  972SOL     OW 2914   0.321   0.795   2.762  0.6634 -0.3939 -0.0657
  972SOL    HW1 2915   0.350   0.731   2.693 -1.9495 -1.9346  0.5948
  972SOL    HW2 2916   0.273   0.747   2.837 -2.2156  2.0813 -2.6878
  973SOL     OW 2917   0.065   0.385   0.929  0.4029  0.0330 -0.6280
  973SOL    HW1 2918   0.122   0.396   0.850 -2.7975 -3.5620  2.5648
  973SOL    HW2 2919   0.109   0.330   1.001  0.5237 -1.2309 -0.1443
  974SOL     OW 2920   2.198   0.559   1.910  0.5075  0.4350  0.7683
  974SOL    HW1 2921   2.192   0.648   1.857 -1.3235  0.1565  0.5656
  974SOL    HW2 2922   2.120   0.494   1.898  1.3618  1.0882 -2.7748
  975SOL     OW 2923   2.714   0.161   0.217 -0.7947  0.0357 -0.4666
  975SOL    HW1 2924   2.746   0.087   0.285  1.2040  0.5321  1.6495
  975SOL    HW2 2925   2.767   0.241   0.244 -0.2730  2.4951  1.7536
  976SOL     OW 2926   0.289   1.457   1.507  0.6914  0.4910  0.4883
  976SOL    HW1 2927   0.376   1.504   1.474 -2.0249 -0.7424  1.5645
  976SOL    HW2 2928   0.305   1.447   1.605  0.3283  1.3623 -2.7274
  977SOL     OW 2929   1.154   2.442   3.020 -0.0527  0.1868 -0.4601
  977SOL    HW1 2930   1.240   2.385   3.010 -1.2506 -1.5634 -0.1426
  977SOL    HW2 2931   1.127   2.452   0.014  1.1201 -1.1699 -0.9878
  978SOL     OW 2932   0.362   1.347   2.980 -0.1827 -0.0437  0.1546
  978SOL    HW1 2933   0.327   1.326   3.074 -2.9528  1.6455  0.6688
  978SOL    HW2 2934   0.416   1.273   2.934  1.1857  2.8098 -1.0959
  979SOL     OW 2935   1.744   1.870   1.577  0.2069 -0.3636 -1.1245
  979SOL    HW1 2936   1.645   1.851   1.591 -0.7568  0.9257  0.1901
  979SOL    HW2 2937   1.789   1.786   1.542  1.8293 -0.1830  1.2401
  980SOL     OW 2938   0.359   1.484   1.769  0.2526  0.2775 -0.3717
  980SOL    HW1 2939   0.339   1.585   1.762 -1.4916  1.6927 -0.3049
  980SOL    HW2 2940   0.331   1.443   1.862  0.2309 -0.4249  0.5733
  981SOL     OW 2941   3.090   1.246   0.362  0.1717  0.3765 -0.2731
  981SOL    HW1 2942   0.076   1.198   0.371 -0.2832 -2.4853  0.4384
  981SOL    HW2 2943   3.039   1.208   0.442  1.9273  0.4780 -1.9502
  982SOL     OW 2944   2.375   2.943   2.234 -0.2523 -0.6360 -0.2026
  982SOL    HW1 2945   2.351   3.012   2.159  0.4337 -0.2219 -1.0510
  982SOL    HW2 2946   2.467   2.909   2.214 -0.7487  0.2572 -1.4414
  983SOL     OW 2947   1.301   0.481   1.100 -0.5819 -0.0534  0.6408
  983SOL    HW1 2948   1.402   0.496   1.116 -1.3338 -3.0283  1.6004
  983SOL    HW2 2949   1.273   0.539   1.019  0.2902 -1.3194  2.6663
  984SOL     OW 2950   1.282   2.912   2.989  0.2012  0.0770 -0.0572
  984SOL    HW1 2951   1.284   2.846   3.065 -0.0084  0.8051  0.3825
  984SOL    HW2 2952   1.372   2.932   2.952 -0.2295 -1.5121  1.7293
  985SOL     OW 2953   1.915   2.261   1.498 -0.4036 -0.4561 -0.0226
  985SOL    HW1 2954   1.930   2.185   1.567 -0.5503  1.3292 -0.0065
  985SOL    HW2 2955   1.998   2.286   1.441  1.6158  0.8212  2.2480
  986SOL     OW 2956   2.719   0.020   2.503 -0.4770  0.3155 -0.1564
  986SOL    HW1 2957   2.724   0.117   2.470 -0.3498  1.3173  0.5003
  986SOL    HW2 2958   2.628   3.104   2.545  0.1885  0.1739 -1.6524
  987SOL     OW 2959   2.815   0.886   2.203 -0.0870  0.2189 -0.0996
  987SOL    HW1 2960   2.773   0.816   2.262  1.7093  1.5327  0.2326
  987SOL    HW2 2961   2.754   0.959   2.173  0.4752 -1.4372  0.1462
  988SOL     OW 2962   2.299   0.854   2.767  0.1024  0.0147  0.5661
  988SOL    HW1 2963   2.250   0.767   2.771 -0.1877  1.5520  0.1440
  988SOL    HW2 2964   2.270   0.902   2.684 -0.3072  0.2283 -0.5919
  989SOL     OW 2965   2.061   1.491   1.920  0.4053  0.7505 -0.1451
  989SOL    HW1 2966   2.145   1.436   1.900  0.2637  0.0169  0.9879
  989SOL    HW2 2967   2.023   1.464   2.012 -0.3679 -1.1980 -4.9334
  990SOL     OW 2968   0.412   0.912   0.021 -0.3422  0.1213 -0.0339
  990SOL    HW1 2969   0.478   0.931   3.050 -1.3012  1.5994  1.2474
  990SOL    HW2 2970   0.358   0.829   3.103  1.6365 -2.2427 -0.3361
  991SOL     OW 2971   0.316   2.063   2.881  0.5152 -0.1052 -0.6739
  991SOL    HW1 2972   0.326   1.966   2.851  1.6554 -0.8960  2.4148
  991SOL    HW2 2973   0.242   2.107   2.827  2.6707 -2.5212 -3.1210
  992SOL     OW 2974   2.507   2.056   1.942 -0.2276 -0.0964  0.5864
  992SOL    HW1 2975   2.488   2.084   1.846 -0.6010 -0.7349 -2.3160
  992SOL    HW2 2976   2.490   2.138   2.010 -1.1499  3.9734 -0.2345
  993SOL     OW 2977   0.279   3.092   0.342  0.3415  0.3681  0.0386
  993SOL    HW1 2978   0.327   0.010   0.429 -0.1536  0.0941  0.7303
  993SOL    HW2 2979   0.175   3.100   0.354 -0.7175  0.4037 -1.6481
  994SOL     OW 2980   0.111   1.803   1.515  0.2604 -0.5042  0.0178
  994SOL    HW1 2981   0.049   1.884   1.528  0.4114 -0.4217 -0.4062
  994SOL    HW2 2982   0.148   1.783   1.420  2.2159 -0.2496  0.7471
  995SOL     OW 2983   2.109   1.824   2.882  0.0822 -0.1583  0.0534
  995SOL    HW1 2984   2.022   1.782   2.847 -1.0923  0.3460 -1.0238
  995SOL    HW2 2985   2.123   1.919   2.845  0.2420  2.2926 -1.5849
  996SOL     OW 2986   1.858   1.453   2.978 -0.0604 -0.2838  0.2308
  996SOL    HW1 2987   1.763   1.419   2.977  0.1505  0.6467  2.5088
  996SOL    HW2 2988   1.877   1.508   2.891 -0.6206  1.1173  0.3329
  997SOL     OW 2989   1.380   1.115   1.792  0.6922  0.0403 -0.4921
  997SOL    HW1 2990   1.303   1.133   1.856 -1.5586 -2.1491 -0.4149
  997SOL    HW2 2991   1.345   1.055   1.717  2.6852  2.5889  0.4945
  998SOL     OW 2992   2.619   2.126   0.896  0.2469 -0.2736  0.4127
  998SOL    HW1 2993   2.552   2.196   0.930 -2.9430 -0.6096 -0.8903
  998SOL    HW2 2994   2.698   2.168   0.851 -0.7010 -0.9318 -2.1640
  999SOL     OW 2995   2.159   2.377   0.346 -0.5189 -0.0604  0.1561
  999SOL    HW1 2996   2.087   2.406   0.416 -1.5337  0.3409  4.0569
  999SOL    HW2 2997   2.250   2.420   0.370  0.2851  0.1910 -1.6316
 1000SOL     OW 2998   0.850   2.967   0.035 -0.3525  0.4039  0.3995
 1000SOL    HW1 2999   0.819   2.886   0.091  0.7625 -1.0129 -0.8667
 1000SOL    HW2 3000   0.773   3.009   3.084 -1.4540 -1.5739 -0.1818
   3.10460   3.10460   3.10460
