1000 SPC/Fw water molecules t= 479.00000 step= 479000
 3000
    1SOL     OW    1   2.762   0.083   1.620  0.1806  0.1984  0.1588
    1SOL    HW1    2   2.739   0.139   1.540  0.0216 -0.8850 -0.7654
    1SOL    HW2    3   2.714   0.124   1.703 -1.2528  1.5485  1.9434
    2SOL     OW    4   2.991   2.948   2.808 -0.2438  0.1234 -0.3407
    2SOL    HW1    5   3.033   2.862   2.778 -1.7572  1.8089  0.9236
    2SOL    HW2    6   2.891   2.934   2.819  3.1730 -1.8360 -0.8739
    3SOL     OW    7   1.013   2.129   0.033  0.0183 -0.3746  0.4930
    3SOL    HW1    8   0.996   2.035   3.083 -0.1124  0.2367 -0.0682
    3SOL    HW2    9   0.939   2.166   0.087 -0.6983  2.4109 -0.8950
    4SOL     OW   10   1.306   2.746   2.320  0.2147 -0.0712  0.1829
    4SOL    HW1   11   1.218   2.784   2.294 -1.6922 -3.7905  1.3860
    4SOL    HW2   12   1.341   2.786   2.407  1.6059  0.7945 -0.8989
    5SOL     OW   13   2.020   0.271   2.774 -0.0737  0.3043 -0.2462
    5SOL    HW1   14   2.082   0.246   2.849  0.3471 -2.0166 -0.7424
    5SOL    HW2   15   1.993   0.366   2.788  0.0850 -1.6795 -0.0559
    6SOL     OW   16   0.179   1.786   0.874  0.1427  0.1184 -0.3171
    6SOL    HW1   17   0.234   1.815   0.955  2.1948 -0.5385  0.3853
    6SOL    HW2   18   0.231   1.702   0.842 -3.9411 -1.1027  1.1824
    7SOL     OW   19   0.915   1.888   0.428 -0.5655 -0.0204  0.0622
    7SOL    HW1   20   0.928   1.914   0.527  1.2065 -2.3479  2.7852
    7SOL    HW2   21   0.999   1.856   0.387  0.4086 -2.2143  2.0611
    8SOL     OW   22   0.440   0.442   0.488 -0.0598  0.3381 -0.1743
    8SOL    HW1   23   0.542   0.434   0.477 -0.3452  0.8217 -0.7875
    8SOL    HW2   24   0.408   0.541   0.485  0.5049  1.0012 -1.7508
    9SOL     OW   25   0.252   2.636   1.692 -0.2552 -0.1718 -0.3554
    9SOL    HW1   26   0.349   2.663   1.664  1.0507  2.0136 -0.9909
    9SOL    HW2   27   0.185   2.646   1.615 -0.6040  1.0462  0.1486
   10SOL     OW   28   1.173   1.623   0.079  0.2382  0.8102  0.2132
   10SOL    HW1   29   1.165   1.653   3.069 -0.8969 -4.8952 -1.2783
   10SOL    HW2   30   1.087   1.574   0.104  2.3549  0.6270  0.7757
   11SOL     OW   31   2.007   0.643   1.474  0.5561  0.4978  0.1926
   11SOL    HW1   32   2.088   0.692   1.507 -1.1037  1.0880 -0.3871
   11SOL    HW2   33   1.931   0.644   1.538  2.5615 -0.5954 -2.3927
   12SOL     OW   34   0.358   0.832   2.289 -0.3793 -0.3083  0.5127
   12SOL    HW1   35   0.411   0.878   2.217  1.8459  0.3912  1.1048
   12SOL    HW2   36   0.323   0.740   2.254 -1.4717  1.2209  1.5265
   13SOL     OW   37   2.104   0.083   0.322 -0.5805  0.4023 -0.2978
   13SOL    HW1   38   2.106   0.105   0.228 -1.1279 -2.0396  0.9116
   13SOL    HW2   39   2.018   0.025   0.331 -1.6848  2.1433  1.0589
   14SOL     OW   40   2.327   2.026   0.158 -0.7016 -0.1929 -0.3539
   14SOL    HW1   41   2.354   2.033   0.060 -1.7983  1.4950 -0.8623
   14SOL    HW2   42   2.403   1.985   0.212  1.2411  0.2832  0.2283
   15SOL     OW   43   2.916   3.006   3.064  0.4013 -0.7547  0.0049
   15SOL    HW1   44   2.969   2.972   2.986  0.1666 -0.1318  4.3940
   15SOL    HW2   45   2.834   3.058   3.029 -0.5280 -2.5611 -1.8828
   16SOL     OW   46   2.999   0.671   1.012  0.0427 -0.1906  0.4083
   16SOL    HW1   47   3.005   0.573   1.033  0.5234  0.0456 -0.6066
   16SOL    HW2   48   2.926   0.690   0.946  1.1314 -0.1365  1.6770
   17SOL     OW   49   0.707   0.358   0.971  0.0425  0.1836  0.1743
   17SOL    HW1   50   0.756   0.318   0.891 -0.4617 -0.5700 -2.4508
   17SOL    HW2   51   0.654   0.297   1.035 -1.5357 -0.2391  0.1517
   18SOL     OW   52   2.742   0.055   0.740 -0.3048 -0.2746 -0.1185
   18SOL    HW1   53   2.646   0.090   0.743  1.0640 -2.7672  1.0838
   18SOL    HW2   54   2.802   0.137   0.742 -0.3335  1.0374  1.1713
   19SOL     OW   55   1.934   1.711   1.008 -0.2117 -0.3133  0.3913
   19SOL    HW1   56   1.959   1.750   0.918 -0.5616 -0.6926 -1.1187
   19SOL    HW2   57   1.909   1.612   0.998 -0.8359 -3.4694 -0.7568
   20SOL     OW   58   1.988   1.638   2.473  0.2233 -0.6443 -0.3290
   20SOL    HW1   59   1.890   1.662   2.451 -1.1246  0.5771  1.6273
   20SOL    HW2   60   2.052   1.703   2.424  0.8673  0.5396  1.4411
   21SOL     OW   61   1.366   0.041   0.645  0.2761  0.8417  0.3313
   21SOL    HW1   62   1.271   0.069   0.622 -0.0220 -0.9726  0.2539
   21SOL    HW2   63   1.423   0.004   0.566  2.3876  0.5321 -1.8625
   22SOL     OW   64   2.369   1.025   3.014  0.3609 -0.4600 -0.2347
   22SOL    HW1   65   2.454   1.043   3.062  0.1191 -1.7682  0.9335
   22SOL    HW2   66   2.379   0.936   2.966  0.2163 -0.6877 -1.0232
   23SOL     OW   67   0.518   0.440   2.193 -0.5486  0.0253  0.7296
   23SOL    HW1   68   0.547   0.348   2.160  0.8399  0.5619 -2.6460
   23SOL    HW2   69   0.582   0.521   2.170 -1.8131  3.5251  2.7410
   24SOL     OW   70   2.135   2.250   0.960  0.1321 -0.1448 -0.3597
   24SOL    HW1   71   2.153   2.349   0.984 -1.4321  2.2547  0.6151
   24SOL    HW2   72   2.074   2.259   0.877 -3.9514 -0.7648 -0.7218
   25SOL     OW   73   1.282   3.058   0.114 -0.0780  0.4002  0.2515
   25SOL    HW1   74   1.242   3.038   0.022  1.5194 -1.0601  1.2616
   25SOL    HW2   75   1.373   0.015   0.100 -2.1369 -2.2209  1.0559
   26SOL     OW   76   1.100   2.833   2.753 -0.1858  0.1336 -0.1859
   26SOL    HW1   77   1.049   2.858   2.835  0.9588  1.2795 -1.9599
   26SOL    HW2   78   1.086   2.736   2.735 -1.3749 -1.1295 -0.1182
   27SOL     OW   79   1.057   0.609   1.296 -0.5879  0.4667  0.4411
   27SOL    HW1   80   1.108   0.594   1.207 -0.1900  1.1408  0.5255
   27SOL    HW2   81   0.982   0.542   1.302  1.0502  1.1210  2.5508
   28SOL     OW   82   0.802   1.965   1.052  0.0607  0.1445  0.0611
   28SOL    HW1   83   0.745   1.936   0.972 -0.5378  1.5081 -0.4352
   28SOL    HW2   84   0.758   1.929   1.143 -0.2772 -1.6626  1.3253
   29SOL     OW   85   2.809   0.808   0.861 -0.3680 -0.0692  0.5338
   29SOL    HW1   86   2.712   0.787   0.842  1.6379  0.3613 -0.9587
   29SOL    HW2   87   2.811   0.900   0.904 -2.1159 -1.3834  1.1949
   30SOL     OW   88   1.467   0.013   1.776 -0.4940  0.3347  0.0819
   30SOL    HW1   89   1.467   3.045   1.685  0.7086  1.1310 -2.2060
   30SOL    HW2   90   1.386   3.081   1.837  1.1509  2.1321 -0.4349
   31SOL     OW   91   1.346   3.014   1.306  0.2109  0.1415 -0.0643
   31SOL    HW1   92   1.438   3.018   1.260  1.3448 -0.3502  0.5556
   31SOL    HW2   93   1.277   2.998   1.233  0.1313 -1.9921  1.0835
   32SOL     OW   94   2.312   1.270   1.981 -0.0426  0.2396 -0.0910
   32SOL    HW1   95   2.393   1.321   2.020 -2.9874 -0.5086  3.0038
   32SOL    HW2   96   2.280   1.309   1.888 -1.7430  2.2731 -2.5917
   33SOL     OW   97   2.411   2.606   2.738 -0.8324 -0.2178  0.0563
   33SOL    HW1   98   2.434   2.585   2.633 -0.8109 -1.5633 -0.9892
   33SOL    HW2   99   2.463   2.686   2.775 -2.1456  2.8245  1.0800
   34SOL     OW  100   1.717   0.985   3.062 -0.2954  0.0453  0.5387
   34SOL    HW1  101   1.803   1.041   3.055  0.2220  0.0149 -0.0801
   34SOL    HW2  102   1.686   0.953   2.970 -1.6917 -1.2158 -0.0801
   35SOL     OW  103   0.008   1.221   1.355 -0.0130  0.2912  0.3657
   35SOL    HW1  104   0.004   1.299   1.290  0.5162 -1.0770  1.1724
   35SOL    HW2  105   0.105   1.186   1.362  0.7327  1.2798  2.2423
   36SOL     OW  106   2.344   2.253   2.613  0.0471  0.3746  0.7333
   36SOL    HW1  107   2.361   2.307   2.528 -0.1309 -0.8665  1.1091
   36SOL    HW2  108   2.256   2.284   2.641  4.0577 -1.0912 -2.7794
   37SOL     OW  109   1.641   0.023   2.175 -0.5998  0.0400 -0.3063
   37SOL    HW1  110   1.716   0.095   2.188 -3.0382  0.1332  0.7801
   37SOL    HW2  111   1.633   0.003   2.080 -1.1452  2.1558  1.7618
   38SOL     OW  112   0.957   1.177   2.474 -0.1593  0.3457  0.2569
   38SOL    HW1  113   0.899   1.249   2.434 -0.1813 -2.1231  1.0629
   38SOL    HW2  114   0.975   1.098   2.409 -1.0689 -2.0500 -2.3029
   39SOL     OW  115   1.662   0.352   1.682  0.5631  0.0465 -0.3078
   39SOL    HW1  116   1.566   0.382   1.666  0.2898  1.7661  0.8827
   39SOL    HW2  117   1.677   0.339   1.782  0.5227  0.2072  0.6529
   40SOL     OW  118   0.943   2.343   0.544 -0.2103 -0.0464 -0.9658
   40SOL    HW1  119   0.934   2.314   0.449  0.9670  0.7373  1.1278
   40SOL    HW2  120   1.036   2.374   0.561 -1.0511 -1.0481  0.0083
   41SOL     OW  121   2.405   2.299   1.367  0.1473  0.2365  0.2768
   41SOL    HW1  122   2.402   2.385   1.311  2.0308 -2.9258 -1.0472
   41SOL    HW2  123   2.498   2.285   1.407 -2.4691 -0.8311 -0.4398
   42SOL     OW  124   2.456   3.071   0.484 -1.2628  0.0507 -0.2045
   42SOL    HW1  125   2.557   3.074   0.463  0.6819 -0.4746  1.6714
   42SOL    HW2  126   2.443   0.041   0.569  2.6308 -0.5305  3.2809
   43SOL     OW  127   0.858   1.411   2.331 -0.0016 -0.3723 -0.6462
   43SOL    HW1  128   0.873   1.347   2.254  1.1973  0.7541  0.2255
   43SOL    HW2  129   0.774   1.468   2.320  1.2064 -1.2207  0.4569
   44SOL     OW  130   2.100   2.872   1.071 -0.3895  0.1911  0.9050
   44SOL    HW1  131   2.008   2.912   1.091  0.2995  1.1131 -0.8659
   44SOL    HW2  132   2.136   2.921   0.984  2.0734  2.7026 -0.8887
   45SOL     OW  133   0.078   2.256   2.567 -0.3395  0.1369 -0.4260
   45SOL    HW1  134   0.152   2.322   2.540  2.3429 -0.4122 -0.9667
   45SOL    HW2  135   0.029   2.291   2.653 -0.6474  0.2814  1.5535
   46SOL     OW  136   0.759   2.559   2.042  0.7794 -0.6734  0.0481
   46SOL    HW1  137   0.803   2.557   2.136 -0.9272  1.6611 -1.5054
   46SOL    HW2  138   0.759   2.464   2.001  0.1011 -2.6500  1.1114
   47SOL     OW  139   0.405   1.613   0.547  0.1861  0.0658 -0.1437
   47SOL    HW1  140   0.361   1.697   0.516 -0.3653 -1.6174 -0.8886
   47SOL    HW2  141   0.442   1.557   0.468  3.2605 -1.6939 -0.7116
   48SOL     OW  142   0.809   2.643   1.389 -0.2067 -0.6761 -0.0280
   48SOL    HW1  143   0.837   2.570   1.321  0.6475 -0.3870  1.9111
   48SOL    HW2  144   0.706   2.647   1.403 -1.0736  0.0408  1.5989
   49SOL     OW  145   0.219   2.856   0.198  0.5796  0.2652  0.0112
   49SOL    HW1  146   0.265   2.942   0.166  1.4854  1.0613  0.2992
   49SOL    HW2  147   0.132   2.836   0.140 -2.0464  0.6736 -2.3927
   50SOL     OW  148   1.541   0.663   0.348 -0.5557  0.2730 -0.2062
   50SOL    HW1  149   1.541   0.682   0.446 -0.4995  1.4079 -1.7081
   50SOL    HW2  150   1.610   0.720   0.293  1.3026  5.2519  1.0956
   51SOL     OW  151   1.828   3.073   0.890 -0.5158  0.0831 -0.1738
   51SOL    HW1  152   1.853   3.053   0.796 -1.7116 -0.0500  2.6743
   51SOL    HW2  153   1.851   0.083   0.919 -0.7832 -0.1175 -1.2571
   52SOL     OW  154   0.542   1.625   1.022  0.3873 -0.1170  0.2309
   52SOL    HW1  155   0.598   1.557   1.075  1.2642 -1.1065  0.8052
   52SOL    HW2  156   0.473   1.676   1.077 -0.7440  0.4742  1.6359
   53SOL     OW  157   0.277   1.034   2.759 -0.1761 -0.4325  0.2867
   53SOL    HW1  158   0.312   1.092   2.833 -0.5297  0.1692 -2.0483
   53SOL    HW2  159   0.312   0.937   2.760 -0.7463 -2.5195 -1.1479
   54SOL     OW  160   2.371   1.985   2.543 -0.6512 -0.0360  0.9606
   54SOL    HW1  161   2.386   2.084   2.567  0.5249  0.5623 -0.4030
   54SOL    HW2  162   2.426   1.928   2.610  0.1676 -1.2203  1.5375
   55SOL     OW  163   2.653   2.237   1.463 -0.0246 -0.2388 -0.1880
   55SOL    HW1  164   2.723   2.310   1.448 -0.1764 -2.2842  0.3724
   55SOL    HW2  165   2.655   2.210   1.562  1.1636  1.4918  0.2424
   56SOL     OW  166   1.360   0.847   1.455  0.5293  0.3057 -0.7527
   56SOL    HW1  167   1.459   0.861   1.485  1.4750  0.2310  3.4298
   56SOL    HW2  168   1.347   0.877   1.360  1.5334  0.0135  2.1490
   57SOL     OW  169   1.995   1.852   0.783 -0.5767  0.1683 -0.4670
   57SOL    HW1  170   2.067   1.904   0.830  1.0178 -0.9225 -1.0378
   57SOL    HW2  171   2.034   1.789   0.715  0.7155  2.7453  0.0459
   58SOL     OW  172   2.093   0.224   2.258 -0.3084 -0.2439  0.1468
   58SOL    HW1  173   2.114   0.273   2.346 -0.1538 -2.4614 -1.4985
   58SOL    HW2  174   2.081   0.290   2.179 -4.4849  1.8270 -0.1440
   59SOL     OW  175   1.630   0.203   2.800 -0.2207  0.2517 -0.1073
   59SOL    HW1  176   1.713   0.161   2.769  1.6747  0.7102  5.5822
   59SOL    HW2  177   1.619   0.293   2.747  0.6266  2.2783 -2.2068
   60SOL     OW  178   1.645   1.838   2.844 -0.2497 -0.3184  0.2174
   60SOL    HW1  179   1.734   1.881   2.858  0.2831 -1.1642 -0.3860
   60SOL    HW2  180   1.627   1.837   2.746 -0.0641  0.1706  2.4962
   61SOL     OW  181   0.315   2.052   2.989 -0.0951 -0.3695  0.4618
   61SOL    HW1  182   0.219   2.032   3.012  0.6200 -0.7951  2.9132
   61SOL    HW2  183   0.328   2.064   2.889  0.6396 -0.9935 -0.7240
   62SOL     OW  184   1.563   1.996   1.390 -0.4180 -0.1704 -0.2177
   62SOL    HW1  185   1.547   1.909   1.441  0.9273 -0.7479 -0.6546
   62SOL    HW2  186   1.645   1.990   1.325 -0.0041 -0.1043 -1.1758
   63SOL     OW  187   0.919   2.171   0.329 -0.1429 -0.1965  0.7024
   63SOL    HW1  188   0.857   2.215   0.258  0.0029  1.0926 -2.9610
   63SOL    HW2  189   0.886   2.078   0.344 -1.8095  0.7784 -4.0916
   64SOL     OW  190   1.736   1.685   2.400 -0.3407  0.2369 -0.7799
   64SOL    HW1  191   1.667   1.611   2.394 -1.4128  0.1288  0.2169
   64SOL    HW2  192   1.770   1.728   2.309  1.3855  0.7210  0.4534
   65SOL     OW  193   1.785   1.968   1.258  0.2416  0.5069  0.2778
   65SOL    HW1  194   1.806   2.038   1.186 -0.7249  2.4573 -1.2951
   65SOL    HW2  195   1.869   1.913   1.271  2.6593  0.6042 -2.8425
   66SOL     OW  196   2.802   0.744   0.546  0.1010  0.2275 -0.3434
   66SOL    HW1  197   2.758   0.661   0.515  1.3521  0.3716 -1.6996
   66SOL    HW2  198   2.806   0.743   0.647  0.0464 -0.7227 -0.2071
   67SOL     OW  199   2.193   2.536   0.998 -0.2157  0.4968 -0.1333
   67SOL    HW1  200   2.125   2.587   1.056 -1.9369  1.7927  0.3095
   67SOL    HW2  201   2.227   2.593   0.919 -1.4813  1.1396  0.0497
   68SOL     OW  202   2.603   2.697   1.680  0.4828  0.6770 -0.5835
   68SOL    HW1  203   2.524   2.680   1.618  1.3131  1.5502  1.4315
   68SOL    HW2  204   2.583   2.771   1.743  0.3518 -4.1289 -2.1540
   69SOL     OW  205   2.734   2.858   2.750 -0.2762 -0.3668 -0.3366
   69SOL    HW1  206   2.710   2.882   2.652 -0.5356  0.3068 -2.1529
   69SOL    HW2  207   2.654   2.860   2.816 -1.5822 -0.2810  3.2464
   70SOL     OW  208   1.162   1.442   2.290  0.3098 -0.4290 -0.1826
   70SOL    HW1  209   1.059   1.429   2.296  2.2292 -0.4594  0.5796
   70SOL    HW2  210   1.208   1.350   2.285 -0.4550  1.1553 -2.3006
   71SOL     OW  211   0.991   1.724   1.937 -0.5286  0.1584  0.9970
   71SOL    HW1  212   1.014   1.624   1.940  0.0213  1.4317  0.6050
   71SOL    HW2  213   0.954   1.755   1.849  1.3868 -1.0167  3.0201
   72SOL     OW  214   2.740   1.521   1.643 -0.4915 -0.1148  0.2457
   72SOL    HW1  215   2.697   1.521   1.738  0.6018 -0.8432 -0.4989
   72SOL    HW2  216   2.715   1.605   1.592 -2.3506 -2.5689 -0.7497
   73SOL     OW  217   0.634   2.148   2.643  0.2242 -0.1128 -0.2957
   73SOL    HW1  218   0.670   2.207   2.566 -0.2379  1.8431 -2.2657
   73SOL    HW2  219   0.660   2.189   2.732 -1.1730  0.2439 -0.7483
   74SOL     OW  220   0.862   0.478   2.317  0.0003  0.4500 -0.0331
   74SOL    HW1  221   0.841   0.384   2.275 -1.6501 -1.9151 -1.5334
   74SOL    HW2  222   0.937   0.472   2.387  0.6433  0.0209 -1.6562
   75SOL     OW  223   0.984   2.967   0.623  0.5919 -0.2092 -0.4103
   75SOL    HW1  224   0.906   2.906   0.637 -0.5832  0.4797  0.4849
   75SOL    HW2  225   1.068   2.925   0.655 -1.0147  0.5104  0.9290
   76SOL     OW  226   0.588   1.367   2.689 -0.5430 -0.2221 -0.2150
   76SOL    HW1  227   0.670   1.414   2.646  2.1094  3.1113 -0.4474
   76SOL    HW2  228   0.532   1.337   2.610 -2.2885  4.1490  0.7363
   77SOL     OW  229   0.602   2.637   0.574 -0.2039 -0.6432  0.1859
   77SOL    HW1  230   0.525   2.658   0.517  3.4032 -0.1330  1.5067
   77SOL    HW2  231   0.632   2.538   0.566 -0.5695 -0.2193 -2.1281
   78SOL     OW  232   2.666   1.157   2.899  0.1466  0.2667 -0.1839
   78SOL    HW1  233   2.686   1.070   2.845 -0.8373  0.3710  1.7491
   78SOL    HW2  234   2.641   1.136   2.996  2.6155  0.9264  0.5450
   79SOL     OW  235   0.815   1.466   2.601 -0.6605  0.2605  0.0347
   79SOL    HW1  236   0.841   1.429   2.504  2.0005 -2.6907 -1.1159
   79SOL    HW2  237   0.802   1.566   2.589  1.1220 -0.2708  0.6559
   80SOL     OW  238   2.186   0.948   1.386 -0.3366  0.1645 -0.1295
   80SOL    HW1  239   2.170   0.968   1.485  0.0830 -0.9257  2.9465
   80SOL    HW2  240   2.208   1.036   1.344  1.0389  2.4037  0.7149
   81SOL     OW  241   2.004   0.982   2.789  0.9299 -0.9854  0.5517
   81SOL    HW1  242   1.988   1.077   2.772  2.0202 -5.0082  1.9062
   81SOL    HW2  243   2.015   0.964   2.890 -1.5378 -1.1990  0.9907
   82SOL     OW  244   2.335   2.052   1.307  0.1915 -0.9108  0.1611
   82SOL    HW1  245   2.367   2.151   1.317  1.0202 -0.6091 -1.9925
   82SOL    HW2  246   2.308   2.013   1.398  1.2306  1.6815 -1.7018
   83SOL     OW  247   2.160   2.611   0.089 -0.0267  0.4235  0.1177
   83SOL    HW1  248   2.247   2.632   0.141 -1.5286 -0.8316 -1.4956
   83SOL    HW2  249   2.089   2.584   0.156 -2.2692  1.5151 -0.8114
   84SOL     OW  250   0.735   0.886   0.766  0.7444  0.0743  0.4744
   84SOL    HW1  251   0.747   0.948   0.845 -0.9698 -2.3430 -0.6722
   84SOL    HW2  252   0.705   0.794   0.802 -0.3902  0.6011 -0.6965
   85SOL     OW  253   2.092   1.675   1.242 -0.3386 -0.3738 -0.1047
   85SOL    HW1  254   2.046   1.699   1.156  1.4205  0.9405 -0.6316
   85SOL    HW2  255   2.102   1.757   1.302 -1.6556 -0.6098 -2.0095
   86SOL     OW  256   0.599   0.845   1.073 -0.2178  0.1599  0.0175
   86SOL    HW1  257   0.503   0.856   1.056  1.1923  1.9645 -1.0606
   86SOL    HW2  258   0.648   0.936   1.072  0.7140 -1.6574 -0.9203
   87SOL     OW  259   3.071   2.224   2.325  0.0258  0.2977 -0.1625
   87SOL    HW1  260   0.058   2.217   2.255  0.4107 -0.9863 -0.1697
   87SOL    HW2  261   0.031   2.228   2.422  1.2237 -0.0442  3.9446
   88SOL     OW  262   0.376   3.082   0.144  0.2192 -0.1344  0.4277
   88SOL    HW1  263   0.475   3.067   0.110  2.6483  0.4023 -0.9923
   88SOL    HW2  264   0.371   0.082   0.196  0.1348 -0.7573 -2.8217
   89SOL     OW  265   1.434   0.353   1.317  0.0945 -0.1563 -0.0328
   89SOL    HW1  266   1.405   0.431   1.262 -3.0854 -2.3799  0.0861
   89SOL    HW2  267   1.455   0.383   1.414  0.5068  0.4192 -0.9080
   90SOL     OW  268   0.054   1.064   2.116  0.1496 -0.0928  0.5814
   90SOL    HW1  269   0.083   1.048   2.212 -0.4162  0.4927 -0.3789
   90SOL    HW2  270   0.116   1.018   2.052  0.2842 -0.2551 -1.3416
   91SOL     OW  271   1.812   2.681   0.710 -0.0117 -0.2251 -0.6343
   91SOL    HW1  272   1.898   2.632   0.689 -2.7628  1.6040  1.1232
   91SOL    HW2  273   1.780   2.644   0.801  1.5092  3.1623  0.8987
   92SOL     OW  274   1.719   1.898   0.763 -0.3431  0.2431  0.0349
   92SOL    HW1  275   1.816   1.885   0.788 -0.5773  1.1316  0.2193
   92SOL    HW2  276   1.704   1.858   0.670  0.9297  1.1402  0.3700
   93SOL     OW  277   0.180   1.328   0.406  0.2562  0.4626  0.1543
   93SOL    HW1  278   0.155   1.258   0.335 -0.3890 -1.6111 -0.7817
   93SOL    HW2  279   0.275   1.364   0.398  1.4745  2.3154  2.0380
   94SOL     OW  280   0.603   2.372   1.022 -0.6845  0.0225 -0.8075
   94SOL    HW1  281   0.588   2.316   0.937 -1.8372  0.4601  0.9221
   94SOL    HW2  282   0.584   2.322   1.109  0.9774 -0.5262  0.5921
   95SOL     OW  283   0.359   0.739   0.413 -0.0024  0.8490 -0.2255
   95SOL    HW1  284   0.363   0.810   0.485 -1.8460  0.0932  0.6316
   95SOL    HW2  285   0.438   0.735   0.345  0.6334 -1.0700 -0.3294
   96SOL     OW  286   0.791   2.303   1.938 -0.0659 -0.0853 -0.1909
   96SOL    HW1  287   0.793   2.242   2.022 -3.1706 -3.3510  1.3981
   96SOL    HW2  288   0.756   2.244   1.864  0.9928  1.3206  2.2639
   97SOL     OW  289   2.294   0.858   0.413  0.7099  0.2193 -0.1770
   97SOL    HW1  290   2.322   0.953   0.435  0.7842  1.4963  1.7727
   97SOL    HW2  291   2.215   0.862   0.351  0.6925  1.0613 -0.9675
   98SOL     OW  292   0.202   1.917   1.770 -0.4742 -0.4263 -0.4803
   98SOL    HW1  293   0.209   1.815   1.770 -0.9830 -0.9792 -0.5234
   98SOL    HW2  294   0.144   1.941   1.854  0.8989  3.1940  0.4992
   99SOL     OW  295   0.073   0.331   1.758 -0.0061 -0.0522 -0.5966
   99SOL    HW1  296   3.077   0.396   1.765 -2.1392  1.5272 -1.0844
   99SOL    HW2  297   0.070   0.242   1.808  0.7316  0.5420 -1.7978
  100SOL     OW  298   2.116   0.503   2.493 -0.2344  0.9188  0.1671
  100SOL    HW1  299   2.217   0.496   2.494  1.9442 -0.8817 -1.1603
  100SOL    HW2  300   2.087   0.593   2.527 -0.3783  0.2098 -2.0322
  101SOL     OW  301   1.243   2.995   1.893  0.7465  0.3386 -0.0140
  101SOL    HW1  302   1.172   2.951   1.839  2.0153  0.7738 -0.4563
  101SOL    HW2  303   1.208   3.044   1.978 -1.4859 -1.3844 -1.5151
  102SOL     OW  304   0.562   0.607   1.544 -0.0159 -0.3250 -0.4425
  102SOL    HW1  305   0.563   0.571   1.446  0.1685 -0.8336 -4.5372
  102SOL    HW2  306   0.549   0.536   1.615  1.2938 -1.0190 -1.5008
  103SOL     OW  307   0.364   0.793   2.823  0.4391  0.2096 -0.2839
  103SOL    HW1  308   0.339   0.759   2.916  1.4941 -2.8381 -0.5446
  103SOL    HW2  309   0.468   0.800   2.821 -1.5564 -1.6315 -0.3607
  104SOL     OW  310   0.465   2.924   2.019 -0.4690 -0.3915 -0.2954
  104SOL    HW1  311   0.421   2.876   1.939 -1.9775 -3.1409 -0.4018
  104SOL    HW2  312   0.415   3.014   2.042 -4.0999  0.6404 -1.0542
  105SOL     OW  313   2.587   2.713   2.075  0.1409  0.1932 -0.1706
  105SOL    HW1  314   2.523   2.724   2.000  1.5889  1.4385  3.6369
  105SOL    HW2  315   2.556   2.750   2.165  1.7360  0.5716 -1.4246
  106SOL     OW  316   0.596   3.076   0.896  0.4918  0.3894  0.3493
  106SOL    HW1  317   0.673   0.028   0.846  0.3389 -1.3176  2.2564
  106SOL    HW2  318   0.624   2.979   0.913 -0.2449 -0.5189  0.3661
  107SOL     OW  319   3.069   1.970   0.944 -0.4766  0.1334 -0.1517
  107SOL    HW1  320   0.058   2.029   0.982  0.0737 -0.4702 -1.2277
  107SOL    HW2  321   0.021   1.873   0.933 -1.9996 -3.0465  2.1226
  108SOL     OW  322   0.388   2.202   0.844  0.4917 -0.0297  0.6277
  108SOL    HW1  323   0.344   2.293   0.843  1.2507  2.1707  0.5005
  108SOL    HW2  324   0.391   2.175   0.744  1.1111 -1.4022 -0.1801
  109SOL     OW  325   1.516   2.913   0.888 -0.5623 -0.3494 -0.1628
  109SOL    HW1  326   1.493   2.826   0.939  3.5435 -0.0754  2.3023
  109SOL    HW2  327   1.607   2.941   0.909 -0.3545  0.2625 -1.2608
  110SOL     OW  328   1.527   2.112   0.382 -0.1290  0.0965  0.1054
  110SOL    HW1  329   1.607   2.073   0.331 -1.1408 -1.8477  1.1264
  110SOL    HW2  330   1.565   2.184   0.442  0.5377  0.4599  0.9565
  111SOL     OW  331   1.708   2.705   2.203  0.2108 -0.0206  0.5360
  111SOL    HW1  332   1.605   2.694   2.197 -2.3871  1.7565 -1.2873
  111SOL    HW2  333   1.726   2.799   2.234 -0.1833  2.2390 -2.4613
  112SOL     OW  334   1.704   2.414   2.631 -0.5819 -0.2903  0.5581
  112SOL    HW1  335   1.766   2.468   2.576 -1.6956 -0.7342 -0.5782
  112SOL    HW2  336   1.630   2.373   2.572 -0.4413  0.2809  2.1531
  113SOL     OW  337   2.374   2.124   2.036  1.2176  0.5075 -0.3547
  113SOL    HW1  338   2.366   2.127   2.139 -0.6758  0.0812  4.1718
  113SOL    HW2  339   2.344   2.206   1.991  0.6551 -4.1214  2.3298
  114SOL     OW  340   0.291   1.194   1.780 -0.2520 -0.3269  0.1973
  114SOL    HW1  341   0.339   1.220   1.692 -2.6033  0.0373 -2.4823
  114SOL    HW2  342   0.248   1.282   1.813  1.1215 -0.4335 -0.6277
  115SOL     OW  343   2.670   0.685   2.864 -0.1760 -0.9453 -0.1800
  115SOL    HW1  344   2.591   0.744   2.883 -0.5806 -0.0733  0.0611
  115SOL    HW2  345   2.722   0.665   2.952  1.2567 -0.7675  2.4036
  116SOL     OW  346   2.945   0.270   2.981  0.1325 -0.9144 -0.2735
  116SOL    HW1  347   2.976   0.339   2.913 -1.9149  0.2542  1.1519
  116SOL    HW2  348   3.019   0.231   3.040 -0.8085  2.1067  0.8796
  117SOL     OW  349   2.518   2.813   0.796  0.7762 -0.4534  0.2585
  117SOL    HW1  350   2.465   2.829   0.707 -0.7260  1.1542 -1.7236
  117SOL    HW2  351   2.522   2.715   0.816 -1.0375  0.4184  1.0781
  118SOL     OW  352   1.185   2.054   1.988 -0.5466 -0.6012  0.2432
  118SOL    HW1  353   1.121   2.021   1.916  1.3081 -1.1388  3.3938
  118SOL    HW2  354   1.224   1.979   2.049 -0.3376 -0.1406 -0.0035
  119SOL     OW  355   0.560   2.669   3.078  0.2077  0.2905  0.2788
  119SOL    HW1  356   0.473   2.610   3.074 -1.8046 -3.1764 -1.9601
  119SOL    HW2  357   0.621   2.633   0.067  0.2229 -1.5542  2.4105
  120SOL     OW  358   1.279   0.878   0.383  0.1913  0.1113  0.1401
  120SOL    HW1  359   1.287   0.774   0.371  0.9828 -0.6297  2.3366
  120SOL    HW2  360   1.293   0.929   0.294  1.1723  1.2489  0.1300
  121SOL     OW  361   1.749   0.845   0.934  0.0372 -0.1445 -0.4214
  121SOL    HW1  362   1.757   0.933   0.991 -3.5025 -0.9675  3.9705
  121SOL    HW2  363   1.676   0.782   0.974 -5.0619 -1.0825  3.1472
  122SOL     OW  364   1.954   1.516   2.038  0.1006 -0.1410  0.5842
  122SOL    HW1  365   1.864   1.552   2.065  0.1493 -1.5023 -1.4363
  122SOL    HW2  366   1.992   1.453   2.111 -1.9259 -1.5811  0.5056
  123SOL     OW  367   0.300   0.936   0.585 -0.5054  0.1257  0.0719
  123SOL    HW1  368   0.223   1.005   0.595 -1.3680 -0.8345 -2.8708
  123SOL    HW2  369   0.264   0.853   0.638 -3.2101 -2.7786  2.2705
  124SOL     OW  370   0.748   0.195   2.635 -0.2301 -0.4417 -0.1582
  124SOL    HW1  371   0.841   0.241   2.652  3.7384 -2.3078  0.2503
  124SOL    HW2  372   0.753   0.107   2.690  1.4434 -1.8232  2.1680
  125SOL     OW  373   0.596   2.954   2.959  0.2700 -0.0116 -0.1804
  125SOL    HW1  374   0.572   2.854   2.963 -1.6939  0.0409 -0.4488
  125SOL    HW2  375   0.689   2.983   2.927 -2.9996 -1.3041  0.0233
  126SOL     OW  376   0.540   1.462   2.934  0.0424 -0.3581  0.5195
  126SOL    HW1  377   0.552   1.435   2.839  1.0360 -1.5677  2.9784
  126SOL    HW2  378   0.636   1.466   2.982  2.6321  2.7512 -0.0300
  127SOL     OW  379   1.009   2.661   0.763  0.6297  0.0751  0.1097
  127SOL    HW1  380   0.923   2.711   0.743  2.6506 -3.2168  0.6677
  127SOL    HW2  381   1.071   2.722   0.820 -3.2447  0.1529  0.1396
  128SOL     OW  382   1.638   2.059   0.027  0.0248 -0.2940  0.0929
  128SOL    HW1  383   1.571   1.993   3.071 -0.3943  0.3359 -0.8479
  128SOL    HW2  384   1.725   2.077   3.060 -0.7250 -3.1277  0.7453
  129SOL     OW  385   1.709   1.768   1.478  0.6546  0.6822  0.2144
  129SOL    HW1  386   1.781   1.820   1.430 -0.8805 -2.5905 -1.3078
  129SOL    HW2  387   1.730   1.670   1.466  2.4240  0.2960  0.3535
  130SOL     OW  388   2.040   1.689   1.705  0.3484 -0.4549  0.5234
  130SOL    HW1  389   1.984   1.777   1.697 -2.6585 -2.3331  2.8353
  130SOL    HW2  390   2.073   1.671   1.805 -1.7297 -0.1661  0.3481
  131SOL     OW  391   1.033   2.708   2.007 -0.0719 -0.3199 -0.2290
  131SOL    HW1  392   1.047   2.770   1.922 -2.2751  1.1282 -0.2509
  131SOL    HW2  393   0.952   2.648   2.002  1.5819  0.5382  0.8406
  132SOL     OW  394   2.587   1.436   0.903  0.9795 -0.4825 -0.0591
  132SOL    HW1  395   2.652   1.515   0.892  2.6338  3.0778 -0.0210
  132SOL    HW2  396   2.578   1.389   0.812 -1.2287  0.6004 -0.5739
  133SOL     OW  397   0.624   1.688   1.642  0.4453 -1.0174  0.9301
  133SOL    HW1  398   0.568   1.622   1.699  0.6380 -3.7993  0.7321
  133SOL    HW2  399   0.572   1.743   1.570  0.1345 -0.3258  0.8877
  134SOL     OW  400   3.043   1.412   0.943 -0.0949  0.1093  0.5744
  134SOL    HW1  401   2.977   1.381   0.867 -2.4411 -2.6980 -2.4631
  134SOL    HW2  402   0.037   1.457   0.899  0.8719 -0.7935 -0.4727
  135SOL     OW  403   1.956   1.720   3.028  0.2621  0.3394 -0.1450
  135SOL    HW1  404   1.936   1.817   3.051  1.0071 -1.3478 -0.3780
  135SOL    HW2  405   1.950   1.706   2.925 -1.5691 -2.0491 -2.0820
  136SOL     OW  406   0.112   1.752   1.523 -0.0043  0.0841 -0.0901
  136SOL    HW1  407   0.181   1.697   1.470 -0.7572 -0.9003  0.5490
  136SOL    HW2  408   0.122   1.854   1.503  0.9845  1.4084 -0.4939
  137SOL     OW  409   2.900   1.275   2.951 -0.0857 -0.0213 -0.2738
  137SOL    HW1  410   2.844   1.205   2.912  1.3442  0.6088  1.1447
  137SOL    HW2  411   2.866   1.367   2.921 -0.8083 -0.3335 -2.2403
  138SOL     OW  412   2.777   0.317   0.890 -0.1494  0.0227  0.2671
  138SOL    HW1  413   2.715   0.275   0.956 -1.0064  2.8029 -1.2970
  138SOL    HW2  414   2.730   0.391   0.840 -0.8364 -1.8863  0.0091
  139SOL     OW  415   1.895   2.188   2.716 -0.4894  0.1775 -0.0979
  139SOL    HW1  416   1.818   2.247   2.709  0.4972 -0.8848 -0.6228
  139SOL    HW2  417   1.979   2.241   2.706 -0.7443 -1.9789 -1.4144
  140SOL     OW  418   0.878   1.586   0.752  0.3176 -0.0204  0.0334
  140SOL    HW1  419   0.797   1.639   0.774  0.7981  2.3091 -0.9061
  140SOL    HW2  420   0.861   1.491   0.731  0.8571 -0.0086  0.3514
  141SOL     OW  421   1.334   1.365   0.953 -0.0855  0.0448 -0.2719
  141SOL    HW1  422   1.260   1.420   0.910 -1.3642  0.4749  3.6531
  141SOL    HW2  423   1.425   1.394   0.930 -1.6842  2.8254 -0.0607
  142SOL     OW  424   1.348   0.847   1.179 -0.0143  0.0811  0.2624
  142SOL    HW1  425   1.252   0.847   1.141 -1.1450  1.2482 -1.0016
  142SOL    HW2  426   1.391   0.754   1.172  0.4639 -0.6403 -0.3636
  143SOL     OW  427   0.355   0.351   2.846 -0.3310  0.3797 -0.4410
  143SOL    HW1  428   0.312   0.403   2.920  1.6669 -2.9979 -0.2363
  143SOL    HW2  429   0.373   0.413   2.768 -3.4182  2.5893  0.8613
  144SOL     OW  430   2.374   0.235   0.423 -0.0246  0.1938 -0.2379
  144SOL    HW1  431   2.469   0.256   0.391 -0.5613 -1.4553 -0.0246
  144SOL    HW2  432   2.365   0.135   0.445 -1.0542  0.3853  0.6844
  145SOL     OW  433   2.289   2.901   2.845  0.6072  0.7082 -0.2096
  145SOL    HW1  434   2.242   2.839   2.773 -0.6552 -1.5230  0.4206
  145SOL    HW2  435   2.290   2.996   2.811 -0.1142 -0.8964  2.1633
  146SOL     OW  436   0.007   2.732   0.435 -0.4738 -0.0195 -0.5652
  146SOL    HW1  437   0.048   2.765   0.348 -0.5284  0.6518 -0.0502
  146SOL    HW2  438   0.035   2.636   0.449 -1.2949  0.9107  0.1575
  147SOL     OW  439   1.345   0.975   0.124 -0.0248 -0.0589  0.6239
  147SOL    HW1  440   1.255   1.018   0.098 -2.5804 -1.6698 -0.0501
  147SOL    HW2  441   1.348   0.877   0.096 -0.3515 -0.4662 -1.0358
  148SOL     OW  442   1.096   0.078   0.287 -0.3165 -0.5406  1.0474
  148SOL    HW1  443   1.125   0.078   0.386  0.2156 -0.0112 -0.3691
  148SOL    HW2  444   1.177   0.050   0.224  3.3330 -1.6682 -1.3727
  149SOL     OW  445   1.308   0.631   2.611  0.2379  0.0512  0.3232
  149SOL    HW1  446   1.226   0.633   2.550  2.0903  0.3951 -2.3250
  149SOL    HW2  447   1.281   0.632   2.703  0.9785  1.6892  0.2948
  150SOL     OW  448   1.435   2.861   2.835  0.2595 -0.0493  0.1054
  150SOL    HW1  449   1.494   2.889   2.910 -0.6631  1.5140  0.2084
  150SOL    HW2  450   1.423   2.756   2.842  1.3409 -1.8768  0.9829
  151SOL     OW  451   2.998   1.214   0.120 -0.6198  0.2163  0.9007
  151SOL    HW1  452   2.993   1.224   0.020  0.7789  1.4288  1.9168
  151SOL    HW2  453   2.930   1.274   0.158  1.9482 -2.7666 -0.4126
  152SOL     OW  454   0.722   3.049   1.537 -0.0398  0.0083  0.3410
  152SOL    HW1  455   0.660   0.039   1.568 -1.4462 -0.7130  0.3537
  152SOL    HW2  456   0.804   3.079   1.483  2.1119 -1.5025  0.8485
  153SOL     OW  457   2.605   0.181   1.827 -0.6212  0.0133  0.1008
  153SOL    HW1  458   2.584   0.280   1.825  1.4735  0.9030  2.7920
  153SOL    HW2  459   2.529   0.124   1.788 -1.4066 -1.2355 -0.5283
  154SOL     OW  460   2.330   0.144   1.958 -0.0277  0.4328  0.3699
  154SOL    HW1  461   2.244   0.104   1.922 -1.3532 -2.2812  3.5709
  154SOL    HW2  462   2.312   0.195   2.047 -0.7565  0.9546 -2.0040
  155SOL     OW  463   0.082   1.113   0.289  0.0654  0.1708 -0.4408
  155SOL    HW1  464   0.088   1.009   0.309 -0.0932 -0.2402  1.7827
  155SOL    HW2  465   0.010   1.131   0.223  0.3395 -0.7427  1.6650
  156SOL     OW  466   1.596   1.026   0.227  0.1588  0.4679 -0.6881
  156SOL    HW1  467   1.644   0.999   0.139 -0.0202  1.7409 -1.3298
  156SOL    HW2  468   1.500   0.997   0.212  3.1638 -1.2038 -2.3732
  157SOL     OW  469   0.887   2.423   2.976  0.3747 -0.3963 -0.3408
  157SOL    HW1  470   0.966   2.431   2.916 -1.2512  0.2972  2.3279
  157SOL    HW2  471   0.832   2.334   2.973 -2.1474  0.4877  2.3118
  158SOL     OW  472   1.644   0.900   1.494  0.1165 -0.2550 -0.0316
  158SOL    HW1  473   1.695   0.840   1.553 -0.9359  0.8405 -3.5930
  158SOL    HW2  474   1.654   1.001   1.517  0.5180  0.4650  0.9578
  159SOL     OW  475   0.275   0.232   0.720  0.2507  0.2049  0.5326
  159SOL    HW1  476   0.322   0.145   0.695  1.3761 -0.5546  0.2406
  159SOL    HW2  477   0.181   0.236   0.672  2.1063  0.5534 -3.0151
  160SOL     OW  478   2.633   1.761   1.759 -0.2222 -0.5340  0.0633
  160SOL    HW1  479   2.621   1.765   1.656  0.6206 -1.4604 -1.7570
  160SOL    HW2  480   2.732   1.775   1.778 -0.3500 -0.4894 -1.4145
  161SOL     OW  481   0.071   0.051   0.285 -0.0913 -0.7109  0.1784
  161SOL    HW1  482   3.057   0.022   0.276  1.0844  0.2701  1.4804
  161SOL    HW2  483   0.132   3.059   0.299 -4.5578  0.8459 -0.2345
  162SOL     OW  484   0.265   0.569   2.208 -0.2035 -0.3379 -0.6926
  162SOL    HW1  485   0.237   0.525   2.298 -1.2330  0.4801  0.7084
  162SOL    HW2  486   0.356   0.536   2.184 -3.0046 -1.9152  1.4499
  163SOL     OW  487   3.045   3.054   2.447 -0.2533  0.1335 -0.3909
  163SOL    HW1  488   2.968   0.008   2.501  2.5171  1.4827  0.4264
  163SOL    HW2  489   3.031   2.953   2.441 -1.6274 -0.0644 -1.1999
  164SOL     OW  490   2.378   1.767   0.287 -0.3081  0.1147  0.3677
  164SOL    HW1  491   2.458   1.831   0.307  1.5602  1.9511  1.4191
  164SOL    HW2  492   2.393   1.721   0.195  0.4802  1.1247  1.2668
  165SOL     OW  493   0.841   0.167   1.209  0.2743 -0.0553  0.4820
  165SOL    HW1  494   0.865   0.267   1.221 -0.7343  0.7035 -0.4031
  165SOL    HW2  495   0.893   0.118   1.282  2.1083 -0.3884 -1.6345
  166SOL     OW  496   0.050   0.226   0.483  0.0974  0.1703  0.6250
  166SOL    HW1  497   0.042   0.167   0.403  0.1907 -0.9999  0.2832
  166SOL    HW2  498   0.032   0.184   0.578  0.8813  1.2256  2.5130
  167SOL     OW  499   2.090   0.670   0.746  0.5129  1.0211 -0.0900
  167SOL    HW1  500   2.084   0.690   0.847 -1.4946  2.4622  2.9699
  167SOL    HW2  501   2.005   0.629   0.711  1.0315  2.5595  1.6310
  168SOL     OW  502   1.055   0.382   2.476 -0.1960  0.6435  0.1001
  168SOL    HW1  503   1.145   0.340   2.474 -1.7159  0.2263 -1.9255
  168SOL    HW2  504   1.022   0.367   2.573 -1.9904  0.8090  1.4183
  169SOL     OW  505   1.029   1.790   1.112 -0.1843  0.0748  0.7132
  169SOL    HW1  506   1.127   1.798   1.080 -1.6135  1.2658  1.3890
  169SOL    HW2  507   0.978   1.880   1.114  3.1340  0.6137  1.4589
  170SOL     OW  508   2.990   3.055   1.720 -0.3581 -0.2386 -1.3002
  170SOL    HW1  509   3.010   2.969   1.667  2.0227  0.3784 -4.4332
  170SOL    HW2  510   2.917   0.017   1.668 -1.7734  1.2067 -0.3991
  171SOL     OW  511   2.839   0.662   2.195 -0.2893  0.2563  0.7288
  171SOL    HW1  512   2.792   0.641   2.106  1.3808  0.0741  0.3268
  171SOL    HW2  513   2.775   0.720   2.253  1.1876  1.0770  0.8548
  172SOL     OW  514   1.331   2.279   1.080  0.0841  0.0462 -0.3700
  172SOL    HW1  515   1.237   2.256   1.040  2.0068 -0.3134  1.1851
  172SOL    HW2  516   1.385   2.343   1.018 -1.1016 -0.3657  0.1848
  173SOL     OW  517   2.434   2.363   0.042 -0.5246 -0.5085  0.7054
  173SOL    HW1  518   2.423   2.332   3.032 -0.4981  0.1630  1.2131
  173SOL    HW2  519   2.454   2.459   0.045 -2.6588 -2.4103 -0.5211
  174SOL     OW  520   1.766   0.758   0.220 -0.0161  0.1948  0.0717
  174SOL    HW1  521   1.864   0.780   0.244  1.6278  0.7918 -0.7141
  174SOL    HW2  522   1.753   0.777   0.121 -0.5445 -0.3183 -1.2684
  175SOL     OW  523   0.829   1.611   1.359  0.0530 -0.0619  0.0315
  175SOL    HW1  524   0.822   1.545   1.440 -0.6933 -1.1102 -1.3890
  175SOL    HW2  525   0.917   1.655   1.371 -1.2976  1.9004  0.6062
  176SOL     OW  526   0.383   3.070   0.723  0.0758 -0.1319 -0.0019
  176SOL    HW1  527   0.437   3.061   0.808  0.1483 -2.7878  1.6569
  176SOL    HW2  528   0.310   2.998   0.726 -1.8710 -0.3864 -2.2272
  177SOL     OW  529   2.540   1.338   0.226 -0.4678  0.3387  0.3885
  177SOL    HW1  530   2.600   1.318   0.306 -3.8799 -0.2012  0.3339
  177SOL    HW2  531   2.493   1.423   0.246  0.8779  1.0875  0.6662
  178SOL     OW  532   2.658   2.449   2.108 -0.3228  0.8092  0.1543
  178SOL    HW1  533   2.632   2.546   2.116 -0.7668 -2.2790  0.2019
  178SOL    HW2  534   2.732   2.424   2.176  2.4778 -2.0433  0.3453
  179SOL     OW  535   2.320   2.993   0.255 -0.2125 -0.1351 -0.0166
  179SOL    HW1  536   2.364   3.028   0.341 -1.3939  0.8983 -1.6729
  179SOL    HW2  537   2.232   3.039   0.241  0.3001 -2.2961 -0.9662
  180SOL     OW  538   2.330   0.697   0.633  0.1952  0.0673 -0.4523
  180SOL    HW1  539   2.252   0.694   0.695 -2.2778 -1.0954  3.1232
  180SOL    HW2  540   2.307   0.757   0.552  1.9992  0.7480 -0.6399
  181SOL     OW  541   3.078   0.232   2.673 -0.1304  0.3083  0.4961
  181SOL    HW1  542   0.013   0.189   2.759 -0.9143  0.9822 -4.1521
  181SOL    HW2  543   2.990   0.194   2.629 -1.3646  0.7750  1.3142
  182SOL     OW  544   2.618   1.840   2.383 -0.1999  0.6344  0.4386
  182SOL    HW1  545   2.553   1.784   2.437  2.8361  2.5675  0.3154
  182SOL    HW2  546   2.585   1.935   2.375  1.0280  0.1869  0.1041
  183SOL     OW  547   0.200   0.990   1.569 -0.3568  0.5910  0.7566
  183SOL    HW1  548   0.237   1.012   1.473 -2.0916 -0.4196 -2.5330
  183SOL    HW2  549   0.228   1.058   1.638  1.5865 -1.1652 -1.5734
  184SOL     OW  550   0.256   1.353   1.278 -0.3336  0.5265 -0.0123
  184SOL    HW1  551   0.181   1.386   1.218 -1.8982 -0.0553 -0.7648
  184SOL    HW2  552   0.336   1.306   1.231  1.6471 -1.1199 -0.8292
  185SOL     OW  553   2.868   2.921   1.315  0.2163  0.7794  0.2811
  185SOL    HW1  554   2.890   2.899   1.218 -1.9949  0.9901 -2.0892
  185SOL    HW2  555   2.910   3.008   1.338 -2.0623  0.0118  0.4457
  186SOL     OW  556   2.097   2.799   2.629 -0.2221 -0.4179 -0.3745
  186SOL    HW1  557   2.114   2.707   2.593  2.1422 -1.1926 -1.1242
  186SOL    HW2  558   2.001   2.805   2.663 -0.8427 -0.8977 -0.9153
  187SOL     OW  559   0.200   1.191   0.623 -0.5064  0.1023 -0.0675
  187SOL    HW1  560   0.180   1.242   0.535  0.8834  1.0087 -0.1945
  187SOL    HW2  561   0.218   1.267   0.695 -0.4217  2.5048  1.3061
  188SOL     OW  562   1.910   1.788   0.250  0.1410  0.0400 -0.2147
  188SOL    HW1  563   1.959   1.761   0.163 -0.1385  0.6684 -3.0167
  188SOL    HW2  564   1.972   1.786   0.327 -1.4195  0.7354 -0.4034
  189SOL     OW  565   0.004   1.676   2.965 -0.1030  0.6113 -0.1876
  189SOL    HW1  566   0.082   1.631   3.010  1.9807 -0.0880 -2.2938
  189SOL    HW2  567   0.034   1.734   2.887  0.4046  1.3509 -1.1378
  190SOL     OW  568   2.428   0.818   2.167 -0.1125 -0.4666  0.0547
  190SOL    HW1  569   2.399   0.917   2.150  0.1994  0.7923 -0.8701
  190SOL    HW2  570   2.453   0.804   2.265 -0.7184 -0.2998  0.0230
  191SOL     OW  571   0.894   1.036   2.045  0.0879  0.2072 -0.2144
  191SOL    HW1  572   0.866   1.006   1.952 -0.8526  1.2304 -2.8297
  191SOL    HW2  573   0.818   1.013   2.108  1.0441  0.5666  0.7488
  192SOL     OW  574   1.929   1.216   2.000  0.4917  0.5483  0.3679
  192SOL    HW1  575   1.856   1.156   1.968  0.8334 -1.5841  0.4018
  192SOL    HW2  576   1.929   1.310   1.959  1.1580  1.1703 -0.7048
  193SOL     OW  577   0.804   0.044   0.731  0.2045  0.2499 -0.2038
  193SOL    HW1  578   0.751   0.104   0.665 -2.2129 -1.1618 -2.3105
  193SOL    HW2  579   0.869   3.071   0.678 -1.3628  2.3220  1.5070
  194SOL     OW  580   1.400   1.559   1.657  0.0863  0.4449  0.0381
  194SOL    HW1  581   1.470   1.496   1.633  2.7751 -0.7669  0.1285
  194SOL    HW2  582   1.381   1.547   1.756  2.5754 -0.2393  0.3595
  195SOL     OW  583   1.854   0.411   0.893 -0.6617 -0.1031 -0.1894
  195SOL    HW1  584   1.935   0.347   0.890  1.7905 -0.2912 -1.6026
  195SOL    HW2  585   1.855   0.472   0.812  1.9864  1.6667  0.0755
  196SOL     OW  586   1.075   1.465   1.930  0.4855  0.2065 -0.5657
  196SOL    HW1  587   1.167   1.492   1.958  1.2442  1.4102 -0.4175
  196SOL    HW2  588   1.073   1.467   1.829  1.7339 -1.3656  0.2915
  197SOL     OW  589   0.533   0.179   2.461 -0.0201 -0.0690 -0.2987
  197SOL    HW1  590   0.510   0.268   2.414  1.8614  2.0895  2.4629
  197SOL    HW2  591   0.608   0.185   2.533  1.2863 -0.0589 -1.6200
  198SOL     OW  592   0.013   0.884   0.826 -0.0406  0.3145 -0.0363
  198SOL    HW1  593   0.064   0.805   0.787  0.3820 -1.2620 -0.8782
  198SOL    HW2  594   3.046   0.853   0.909 -0.5914 -0.7823 -0.4361
  199SOL     OW  595   0.464   1.975   0.960 -0.1170 -0.5513 -0.5179
  199SOL    HW1  596   0.528   1.929   0.895 -0.3525 -3.1072  0.3454
  199SOL    HW2  597   0.447   2.070   0.923  1.6582  0.0390  0.7816
  200SOL     OW  598   2.604   1.832   2.795  0.5937 -0.7044  0.1825
  200SOL    HW1  599   2.673   1.769   2.750  1.7089 -1.3891 -0.2659
  200SOL    HW2  600   2.520   1.781   2.820  2.2295  0.0955 -1.9115
  201SOL     OW  601   0.907   2.424   1.234 -0.5825  0.6846  0.0594
  201SOL    HW1  602   0.890   2.483   1.152 -0.3774  1.6513 -1.0521
  201SOL    HW2  603   0.887   2.325   1.218  0.8514  1.0955  0.5673
  202SOL     OW  604   1.021   2.581   0.080 -0.0856  0.5746  0.3394
  202SOL    HW1  605   0.984   2.494   0.033 -0.1410 -4.3227 -1.1530
  202SOL    HW2  606   1.123   2.585   0.078 -1.1147 -2.4047 -0.9230
  203SOL     OW  607   1.530   3.019   3.046  0.3122 -0.3625 -0.0230
  203SOL    HW1  608   1.619   3.060   3.040 -2.6740 -0.4221 -1.1160
  203SOL    HW2  609   1.456   3.083   3.020  2.3339 -2.5260 -0.7426
  204SOL     OW  610   0.536   1.482   1.422 -0.2598  0.3909  0.3744
  204SOL    HW1  611   0.587   1.486   1.337  0.0252 -0.5178 -0.1993
  204SOL    HW2  612   0.575   1.418   1.491  0.4265 -0.5108  2.0497
  205SOL     OW  613   1.941   1.182   2.377  0.2442 -0.6226 -0.5222
  205SOL    HW1  614   1.999   1.099   2.362  2.7304 -2.4228 -0.4687
  205SOL    HW2  615   1.844   1.154   2.404 -4.1160 -0.6479 -3.0345
  206SOL     OW  616   0.060   1.988   3.054 -0.5788  0.2868  0.3648
  206SOL    HW1  617   0.071   1.921   2.979  0.5903  2.4433  2.1987
  206SOL    HW2  618   0.007   1.945   0.045  3.2590 -1.9795  2.5408
  207SOL     OW  619   0.473   2.171   2.127 -0.3571 -0.1322 -0.1630
  207SOL    HW1  620   0.537   2.111   2.074  2.0863 -1.3686 -1.2852
  207SOL    HW2  621   0.377   2.178   2.084 -1.3762  1.2962 -0.3598
  208SOL     OW  622   0.247   2.632   1.250 -0.1796 -0.2374 -0.6589
  208SOL    HW1  623   0.183   2.631   1.331  0.0131  0.0793 -1.6433
  208SOL    HW2  624   0.342   2.593   1.274  3.0168 -1.0218 -0.0637
  209SOL     OW  625   1.086   2.889   2.205  0.1695  0.1259  0.3072
  209SOL    HW1  626   1.075   2.830   2.126  0.7765  3.2997  2.8845
  209SOL    HW2  627   0.996   2.895   2.251  0.9242  0.9148 -2.3158
  210SOL     OW  628   2.615   1.187   1.876 -0.0554 -0.1121  0.5613
  210SOL    HW1  629   2.653   1.140   1.956 -0.2100 -1.5291  3.2407
  210SOL    HW2  630   2.573   1.112   1.820 -2.5051 -1.5885  0.5089
  211SOL     OW  631   1.134   0.050   2.096 -0.2885 -0.6902  0.0495
  211SOL    HW1  632   1.092   3.047   2.126  0.5107  2.1157 -1.4854
  211SOL    HW2  633   1.176   0.106   2.170  1.3111  1.3174  0.8142
  212SOL     OW  634   1.928   2.644   2.057  0.0267  0.6532 -0.5905
  212SOL    HW1  635   1.839   2.679   2.098 -0.6258  0.0148 -0.6612
  212SOL    HW2  636   1.938   2.544   2.072 -1.0546  2.1473 -1.5492
  213SOL     OW  637   2.727   0.477   1.609 -0.3910 -0.3099 -0.0344
  213SOL    HW1  638   2.714   0.413   1.535 -1.2290  1.8359  4.7886
  213SOL    HW2  639   2.701   0.569   1.585  2.9128  0.8718  0.0867
  214SOL     OW  640   0.877   2.093   0.687 -0.1928 -0.2325 -0.6502
  214SOL    HW1  641   0.964   2.052   0.726  1.1037 -0.2476 -0.3450
  214SOL    HW2  642   0.889   2.196   0.676  0.4085 -0.0908  1.6881
  215SOL     OW  643   2.517   1.771   0.779 -0.0261 -0.0173 -0.0280
  215SOL    HW1  644   2.598   1.753   0.838  0.7882 -0.5901  1.3025
  215SOL    HW2  645   2.529   1.859   0.730  0.9242 -2.7294  1.3579
  216SOL     OW  646   2.892   0.884   1.735  0.2754  0.2319  0.1159
  216SOL    HW1  647   2.925   0.969   1.694 -1.0161 -1.0767  1.3594
  216SOL    HW2  648   2.966   0.829   1.781  3.2642 -1.1086 -0.9462
  217SOL     OW  649   2.272   0.298   1.506  0.3784 -0.5591  0.3510
  217SOL    HW1  650   2.341   0.236   1.543  0.5871  0.6685  0.4510
  217SOL    HW2  651   2.294   0.328   1.409  2.1066 -1.7445 -0.3443
  218SOL     OW  652   2.017   2.480   1.390  0.4150  0.3135 -0.0061
  218SOL    HW1  653   2.010   2.530   1.301 -0.1477 -0.1874 -3.0999
  218SOL    HW2  654   1.978   2.539   1.465  1.2613  1.9458  0.9531
  219SOL     OW  655   2.214   2.364   0.229  0.4501  0.2714 -0.5856
  219SOL    HW1  656   2.128   2.338   0.185  3.4988 -2.7687 -0.0200
  219SOL    HW2  657   2.292   2.352   0.166  1.7624 -0.5055 -1.8554
  220SOL     OW  658   1.496   2.975   0.442  0.1358 -0.2234 -0.1402
  220SOL    HW1  659   1.537   2.908   0.507 -0.3250 -0.8225 -3.8455
  220SOL    HW2  660   1.448   2.937   0.362 -0.8583  3.4531  2.7079
  221SOL     OW  661   0.058   2.105   1.627 -0.2036  0.2351  0.4310
  221SOL    HW1  662   3.064   2.043   1.617 -0.5637  0.4750  2.6824
  221SOL    HW2  663   0.134   2.062   1.679 -0.2011 -2.1500  0.5598
  222SOL     OW  664   1.740   2.489   0.926 -0.0512  0.0283  0.5179
  222SOL    HW1  665   1.756   2.515   1.023  1.1381 -0.1872 -0.2387
  222SOL    HW2  666   1.811   2.438   0.883 -1.0591 -0.2881  0.4929
  223SOL     OW  667   1.341   2.637   1.399  0.2126  0.0477 -0.3669
  223SOL    HW1  668   1.410   2.694   1.449  1.7341  0.1847  3.9396
  223SOL    HW2  669   1.378   2.543   1.389  0.6777 -1.0882  0.1912
  224SOL     OW  670   2.860   2.420   1.377  0.2794 -0.0940 -0.3565
  224SOL    HW1  671   2.853   2.488   1.300  0.9320  2.3710 -2.1141
  224SOL    HW2  672   2.864   2.466   1.467  0.1505 -2.4370 -0.9054
  225SOL     OW  673   2.418   2.280   0.905 -0.2960 -0.3050  0.2464
  225SOL    HW1  674   2.329   2.285   0.953  3.2194  0.2148  0.1120
  225SOL    HW2  675   2.399   2.282   0.800 -0.6264  0.4469  0.4529
  226SOL     OW  676   1.358   2.378   0.265  0.6166 -0.0445 -0.5686
  226SOL    HW1  677   1.443   2.349   0.217 -1.1245  1.3051  2.1469
  226SOL    HW2  678   1.316   2.301   0.325 -1.0510 -1.5831  1.8438
  227SOL     OW  679   2.021   1.148   0.665 -0.6778 -0.4201 -0.3751
  227SOL    HW1  680   1.973   1.156   0.755  1.7209  1.1121  1.6327
  227SOL    HW2  681   1.993   1.060   0.620 -2.1191 -2.4570  1.0274
  228SOL     OW  682   1.283   0.610   0.315  0.2360 -0.2325 -0.1542
  228SOL    HW1  683   1.245   0.530   0.364  0.7162  0.0111  0.2835
  228SOL    HW2  684   1.379   0.625   0.331 -0.0971  3.5018  1.2202
  229SOL     OW  685   2.629   1.095   2.262 -0.0149 -0.0870 -0.1451
  229SOL    HW1  686   2.559   1.165   2.235 -2.2249 -1.2997  0.7306
  229SOL    HW2  687   2.724   1.121   2.239 -1.3980 -2.0520  0.7592
  230SOL     OW  688   0.466   1.180   1.189 -0.5091 -0.4164  0.4826
  230SOL    HW1  689   0.546   1.156   1.245 -1.0026  0.5043 -1.1374
  230SOL    HW2  690   0.495   1.213   1.096  0.1904 -2.9838 -2.1100
  231SOL     OW  691   2.381   0.386   2.728 -0.4109 -0.2960  0.2898
  231SOL    HW1  692   2.327   0.437   2.794  0.1699  0.6863 -2.2510
  231SOL    HW2  693   2.470   0.360   2.767 -0.0023  1.6453  2.3050
  232SOL     OW  694   2.852   1.913   0.793 -0.3749  0.1663 -0.1483
  232SOL    HW1  695   2.932   1.935   0.855  0.4436  1.4316  0.6283
  232SOL    HW2  696   2.808   1.995   0.754 -2.0939 -1.6009  1.3223
  233SOL     OW  697   1.820   2.745   2.642  0.0107  0.4736 -0.0976
  233SOL    HW1  698   1.778   2.708   2.732 -1.0892  0.8835  2.2955
  233SOL    HW2  699   1.795   2.841   2.629 -0.0724  0.2077  0.9394
  234SOL     OW  700   1.403   2.033   1.138 -0.0765 -1.2094 -0.3119
  234SOL    HW1  701   1.473   2.035   1.212 -0.3748  3.1141  0.4374
  234SOL    HW2  702   1.373   2.129   1.119  0.8000  2.2964  0.7910
  235SOL     OW  703   0.896   1.748   1.680 -0.2765 -0.1977  0.2777
  235SOL    HW1  704   0.799   1.717   1.679  1.1755 -1.4399 -0.8437
  235SOL    HW2  705   0.949   1.706   1.604 -0.2771 -2.3918  1.6685
  236SOL     OW  706   0.627   2.450   2.698 -0.4501 -0.1490  0.6473
  236SOL    HW1  707   0.643   2.526   2.764  0.8822  2.0303  0.7498
  236SOL    HW2  708   0.532   2.420   2.700 -0.5944  0.8937 -2.2046
  237SOL     OW  709   0.543   2.840   1.422 -0.1773  0.0041  0.4434
  237SOL    HW1  710   0.550   2.797   1.514  0.1805 -2.6218  2.0708
  237SOL    HW2  711   0.588   2.928   1.426 -2.1281  0.6484  0.5263
  238SOL     OW  712   0.946   0.809   0.415 -0.0679 -0.3218 -0.2218
  238SOL    HW1  713   1.013   0.813   0.491  0.3070 -1.9167  1.2400
  238SOL    HW2  714   0.876   0.879   0.437  0.0216 -1.5983  1.1573
  239SOL     OW  715   2.417   0.763   2.877  0.2808 -0.0353  0.3055
  239SOL    HW1  716   2.362   0.829   2.824  1.6770  0.3714  0.0306
  239SOL    HW2  717   2.362   0.678   2.904 -2.6238 -2.0403  1.7931
  240SOL     OW  718   2.900   2.189   0.980  0.3101 -0.2587 -0.1732
  240SOL    HW1  719   2.801   2.164   0.980 -0.9288  1.6677  0.1340
  240SOL    HW2  720   2.953   2.108   0.974 -4.3682  1.2118  1.4280
  241SOL     OW  721   1.168   1.502   0.798 -0.1927 -0.4347 -0.5454
  241SOL    HW1  722   1.204   1.487   0.701 -0.1712  1.8687 -1.0563
  241SOL    HW2  723   1.068   1.483   0.807 -0.6527  1.0586 -0.7084
  242SOL     OW  724   0.993   0.688   0.866  0.1166 -0.1257  0.4593
  242SOL    HW1  725   0.902   0.680   0.908  2.7273  0.6794 -2.7171
  242SOL    HW2  726   0.979   0.691   0.764  1.3722 -1.7674 -0.3670
  243SOL     OW  727   0.389   0.534   1.181 -0.8957  0.3789  0.4051
  243SOL    HW1  728   0.394   0.434   1.150 -2.0085 -1.4503 -0.1249
  243SOL    HW2  729   0.309   0.576   1.140 -0.8649 -1.8879  0.0260
  244SOL     OW  730   1.129   0.109   0.546  0.1093 -0.2143  0.1963
  244SOL    HW1  731   1.075   0.026   0.560 -0.7878  0.3520 -1.0935
  244SOL    HW2  732   1.077   0.192   0.572 -1.5126 -0.7520 -0.4983
  245SOL     OW  733   2.008   0.859   0.312 -0.2090 -0.6052  0.2155
  245SOL    HW1  734   1.987   0.850   0.409 -0.8102 -0.9610 -3.2804
  245SOL    HW2  735   1.975   0.948   0.281 -1.6256 -0.2177  1.0295
  246SOL     OW  736   0.353   0.089   1.750 -0.1635 -0.4731 -0.6179
  246SOL    HW1  737   0.386   3.080   1.743  1.1723 -1.5656 -1.2152
  246SOL    HW2  738   0.259   0.093   1.788 -1.9328  0.0933 -0.8492
  247SOL     OW  739   0.938   0.095   1.892 -0.4863  0.1062 -0.0972
  247SOL    HW1  740   0.984   0.122   1.808 -2.7065 -0.3406  5.6912
  247SOL    HW2  741   1.005   0.094   1.970  0.1193 -0.2195 -0.4165
  248SOL     OW  742   0.398   1.837   2.006  0.3505  0.7827  0.2492
  248SOL    HW1  743   0.482   1.893   2.013 -0.2518 -2.0161  2.2732
  248SOL    HW2  744   0.349   1.852   1.917 -1.0273  0.9612  2.7893
  249SOL     OW  745   0.483   2.372   0.167  0.4534  0.0507 -0.6326
  249SOL    HW1  746   0.411   2.425   0.219 -1.8432  0.0424  0.6982
  249SOL    HW2  747   0.489   2.403   0.071 -3.0588 -0.6287  1.1733
  250SOL     OW  748   0.556   0.198   2.075 -0.1182  0.3022  0.0376
  250SOL    HW1  749   0.456   0.180   2.063 -1.0155 -0.6608  0.0403
  250SOL    HW2  750   0.607   0.188   1.987 -1.0182 -0.3948 -1.9752
  251SOL     OW  751   2.905   1.945   1.606  0.3387  0.1359  0.1141
  251SOL    HW1  752   2.911   1.884   1.689 -0.1391 -0.1057 -0.3417
  251SOL    HW2  753   2.832   2.015   1.626  0.8895  1.3428 -0.8207
  252SOL     OW  754   1.329   0.226   1.766 -0.0179 -0.0140 -0.0468
  252SOL    HW1  755   1.236   0.197   1.742  0.8442 -1.7532 -4.3751
  252SOL    HW2  756   1.385   0.145   1.780  0.4539  1.8777  1.2218
  253SOL     OW  757   2.112   1.816   2.327  0.7276 -0.4100 -0.5067
  253SOL    HW1  758   2.191   1.788   2.268 -1.7776  2.3615  0.5392
  253SOL    HW2  759   2.104   1.915   2.327 -1.0431 -2.1811  0.9807
  254SOL     OW  760   0.949   1.555   1.021 -0.0838  0.1411  0.2156
  254SOL    HW1  761   0.970   1.644   1.063 -1.6622 -1.0608  3.2033
  254SOL    HW2  762   0.946   1.575   0.922 -0.5421  0.5993 -1.4604
  255SOL     OW  763   0.118   2.702   1.929 -0.6062 -0.6698 -0.4070
  255SOL    HW1  764   0.077   2.610   1.945 -1.5593  0.0812 -0.6710
  255SOL    HW2  765   0.174   2.701   1.843 -0.0360 -1.6015 -0.2505
  256SOL     OW  766   0.336   2.816   0.439  0.5097  0.7128 -0.2050
  256SOL    HW1  767   0.429   2.839   0.399 -1.2556 -0.4540  0.8902
  256SOL    HW2  768   0.266   2.816   0.364 -1.8977 -1.6168  2.6539
  257SOL     OW  769   1.170   2.481   2.139  0.1227  0.1642 -0.1016
  257SOL    HW1  770   1.152   2.582   2.123 -0.1535  0.6666 -1.0500
  257SOL    HW2  771   1.137   2.423   2.061  0.7976 -2.9333 -0.2963
  258SOL     OW  772   1.637   2.069   1.961  0.3766  0.3961 -0.0613
  258SOL    HW1  773   1.578   2.144   1.924 -0.4710  0.5503  0.0757
  258SOL    HW2  774   1.724   2.071   1.914 -0.9954 -0.1914 -1.1172
  259SOL     OW  775   0.865   0.715   1.923 -1.1698 -0.0158 -0.5164
  259SOL    HW1  776   0.948   0.774   1.951  0.2264 -0.6850 -0.7506
  259SOL    HW2  777   0.822   0.743   1.837  0.4387 -2.8590  1.1911
  260SOL     OW  778   2.729   0.936   2.740  0.3781  0.7234 -0.5031
  260SOL    HW1  779   2.829   0.948   2.761  1.3656 -2.2150  0.6581
  260SOL    HW2  780   2.713   0.834   2.744  1.6151 -1.5045  0.5860
  261SOL     OW  781   0.790   1.343   0.948 -0.9679 -0.3518 -0.0384
  261SOL    HW1  782   0.847   1.421   0.984 -1.8048  1.2544  2.1009
  261SOL    HW2  783   0.826   1.323   0.852 -0.1658  1.5121 -4.6152
  262SOL     OW  784   2.072   2.083   2.385 -0.1807 -0.2330  0.2255
  262SOL    HW1  785   2.059   2.186   2.368 -0.4008  2.3328 -1.9439
  262SOL    HW2  786   1.990   2.035   2.424 -0.0674  0.2296 -0.7015
  263SOL     OW  787   0.733   2.845   0.985 -0.7032  0.0053  0.1672
  263SOL    HW1  788   0.811   2.846   1.048  0.3591 -2.4402  2.3090
  263SOL    HW2  789   0.680   2.756   0.994  0.9797  0.5653  0.3317
  264SOL     OW  790   2.768   2.153   0.643 -0.4086 -0.4010  0.9331
  264SOL    HW1  791   2.771   2.252   0.654  0.7524 -0.0228 -0.4741
  264SOL    HW2  792   2.675   2.113   0.642 -0.0261  0.5495 -1.4393
  265SOL     OW  793   1.995   1.240   2.636 -0.3167  0.9591 -0.2268
  265SOL    HW1  794   1.991   1.204   2.541 -1.0486 -1.3090  2.8853
  265SOL    HW2  795   2.065   1.310   2.643 -0.5145 -1.2227  0.9373
  266SOL     OW  796   1.476   1.827   1.947 -0.3611 -0.2461  0.0423
  266SOL    HW1  797   1.537   1.904   1.970  1.2123 -1.3272 -1.6818
  266SOL    HW2  798   1.389   1.826   2.005  0.8808 -1.4603  2.2963
  267SOL     OW  799   2.464   0.748   2.474  0.2989  0.1424 -0.0173
  267SOL    HW1  800   2.436   0.810   2.550 -0.0326  0.1178 -0.1214
  267SOL    HW2  801   2.441   0.648   2.488  1.2859 -1.0485 -2.4624
  268SOL     OW  802   0.811   1.163   3.005 -0.8960  0.4908  0.2236
  268SOL    HW1  803   0.882   1.226   2.970 -0.5661  0.9453 -0.2754
  268SOL    HW2  804   0.759   1.139   2.923  1.5328  2.4802 -1.2845
  269SOL     OW  805   0.067   1.998   1.997 -0.2163  0.0642  0.4505
  269SOL    HW1  806   0.081   1.942   2.081 -1.4615  1.3615 -1.4476
  269SOL    HW2  807   3.061   2.046   2.003 -1.8885  1.1459 -2.0820
  270SOL     OW  808   2.997   1.874   0.179 -0.4132  0.3905 -0.3497
  270SOL    HW1  809   2.926   1.930   0.213  2.0878 -0.7298 -0.5051
  270SOL    HW2  810   2.977   1.778   0.207  1.3281  0.2229 -0.1775
  271SOL     OW  811   0.400   0.198   0.317 -0.4726 -0.1350  0.5137
  271SOL    HW1  812   0.427   0.114   0.369  0.7032  0.0570 -1.0678
  271SOL    HW2  813   0.388   0.279   0.376 -0.5685 -0.3956 -0.8207
  272SOL     OW  814   2.995   2.921   0.611 -0.3502  0.1670 -0.6299
  272SOL    HW1  815   2.933   2.878   0.678  0.2303  1.2139 -0.8370
  272SOL    HW2  816   3.009   2.862   0.528 -2.1091  1.2011 -1.4317
  273SOL     OW  817   0.065   2.931   2.047 -0.1962 -0.3674  0.2923
  273SOL    HW1  818   0.109   2.949   2.133 -1.4554 -2.0623 -0.8656
  273SOL    HW2  819   0.089   2.834   2.009 -0.0273 -0.7243 -0.4964
  274SOL     OW  820   0.431   0.325   1.424 -0.3554 -0.3049  0.1701
  274SOL    HW1  821   0.447   0.313   1.326  0.2845 -0.5512  3.1144
  274SOL    HW2  822   0.376   0.407   1.456 -0.6531  0.5273  1.0491
  275SOL     OW  823   1.236   1.751   0.892  0.3668  0.1613 -0.0090
  275SOL    HW1  824   1.337   1.767   0.899  1.4460 -1.8098  1.6618
  275SOL    HW2  825   1.222   1.658   0.852  4.0807 -1.3417  0.0019
  276SOL     OW  826   0.554   1.459   1.869 -0.2424 -0.1952 -0.1006
  276SOL    HW1  827   0.593   1.516   1.941 -2.7688  0.0384 -0.6883
  276SOL    HW2  828   0.544   1.361   1.901 -0.2267 -2.7351  1.0499
  277SOL     OW  829   1.382   2.230   1.954 -0.8862 -0.2746 -0.0104
  277SOL    HW1  830   1.359   2.309   1.892  0.5148  2.4177 -2.5442
  277SOL    HW2  831   1.303   2.166   1.972 -1.3961 -1.1895 -0.6058
  278SOL     OW  832   2.082   3.044   2.290  0.1143 -0.1676 -0.1416
  278SOL    HW1  833   1.985   3.002   2.300 -1.6810  2.6572 -0.0008
  278SOL    HW2  834   2.074   0.063   2.291  1.0643 -0.1645 -2.1571
  279SOL     OW  835   1.459   1.566   2.833 -0.5093  0.3381 -0.3524
  279SOL    HW1  836   1.521   1.511   2.895  0.7791 -1.3920  1.2646
  279SOL    HW2  837   1.501   1.657   2.823 -1.2146 -0.9970 -1.8187
  280SOL     OW  838   1.457   0.432   0.847  0.3776  0.0777 -0.2124
  280SOL    HW1  839   1.420   0.350   0.890 -0.9299  2.6985  0.8803
  280SOL    HW2  840   1.374   0.469   0.801 -0.5967  0.9745  0.9151
  281SOL     OW  841   0.255   0.338   2.029 -0.4129 -0.0394 -0.3083
  281SOL    HW1  842   0.300   0.350   1.935  1.3362 -3.4534 -1.8483
  281SOL    HW2  843   0.263   0.422   2.090  0.4400  1.3184  0.9708
  282SOL     OW  844   0.223   2.830   0.687  0.2914  0.0149  0.3547
  282SOL    HW1  845   0.120   2.828   0.671  0.0591  2.0429 -0.1137
  282SOL    HW2  846   0.268   2.826   0.598 -1.5516 -0.0811  0.1085
  283SOL     OW  847   1.376   2.371   1.382 -0.5426  0.5699 -0.7444
  283SOL    HW1  848   1.376   2.329   1.287  1.1621 -0.9290  3.6321
  283SOL    HW2  849   1.399   2.299   1.450 -2.1660  1.5902 -3.5246
  284SOL     OW  850   2.156   2.733   1.579 -0.0076 -0.6354 -0.3973
  284SOL    HW1  851   2.089   2.679   1.637  1.2584 -0.1140  0.4753
  284SOL    HW2  852   2.240   2.678   1.557  1.0456 -1.3202  0.8591
  285SOL     OW  853   0.661   1.921   0.801 -0.2047  0.7942 -0.0679
  285SOL    HW1  854   0.742   1.963   0.756 -0.4039 -0.7074 -0.1609
  285SOL    HW2  855   0.637   1.832   0.748 -1.2592  0.4558 -2.1865
  286SOL     OW  856   3.053   2.515   2.024  0.9771 -0.0463 -0.1966
  286SOL    HW1  857   2.978   2.576   2.056 -0.1663 -2.3922 -0.0233
  286SOL    HW2  858   3.021   2.432   1.970 -1.2441  0.8289  0.6876
  287SOL     OW  859   0.526   1.277   0.943 -0.7191  0.0991  0.0123
  287SOL    HW1  860   0.615   1.330   0.931  2.0837  1.4731  0.3038
  287SOL    HW2  861   0.529   1.203   0.873 -0.0335 -0.7327  0.0976
  288SOL     OW  862   1.363   2.104   2.698 -0.5062 -0.2012 -0.0537
  288SOL    HW1  863   1.340   2.016   2.644  0.9400 -1.9782  2.0745
  288SOL    HW2  864   1.283   2.126   2.760  0.3043 -1.5272  1.0200
  289SOL     OW  865   2.329   1.376   2.768 -0.0399  0.2502  0.1528
  289SOL    HW1  866   2.275   1.324   2.838  2.0888  2.0076  1.2383
  289SOL    HW2  867   2.267   1.399   2.691  1.9060 -0.1542  1.4677
  290SOL     OW  868   1.628   1.557   0.914 -0.0776 -0.0530 -0.7232
  290SOL    HW1  869   1.616   1.521   0.820  0.0819 -1.3455  0.5342
  290SOL    HW2  870   1.609   1.656   0.918  1.1339 -0.6045  0.4914
  291SOL     OW  871   1.003   0.670   3.070 -0.1092 -0.4611 -0.1507
  291SOL    HW1  872   0.952   0.642   2.982 -1.7727 -1.0229  1.5276
  291SOL    HW2  873   1.031   0.593   0.046 -1.5422  1.6474  0.7225
  292SOL     OW  874   1.822   1.535   0.490  0.5891 -0.0770 -0.1992
  292SOL    HW1  875   1.767   1.456   0.452  1.9723 -3.3413  2.9041
  292SOL    HW2  876   1.919   1.522   0.468  0.3481 -5.6605  0.5741
  293SOL     OW  877   1.628   2.990   1.278  0.2257  0.7131 -0.1433
  293SOL    HW1  878   1.684   2.983   1.368  3.4591  2.3534  2.5574
  293SOL    HW2  879   1.616   0.002   1.243 -1.5717 -0.3080  0.9702
  294SOL     OW  880   2.089   0.951   3.048 -0.7182 -0.0787  0.1926
  294SOL    HW1  881   2.189   0.968   3.057 -0.9440  0.9945  3.0777
  294SOL    HW2  882   2.041   1.003   0.037  2.7752  0.6709  1.1101
  295SOL     OW  883   2.115   1.874   2.675 -0.1601 -0.0943 -0.0934
  295SOL    HW1  884   2.032   1.823   2.642 -0.4236  2.9713 -3.1767
  295SOL    HW2  885   2.151   1.941   2.606 -3.5231 -0.6338 -3.5891
  296SOL     OW  886   1.478   1.554   1.173  0.0531  0.2621  0.2453
  296SOL    HW1  887   1.506   1.579   1.077  0.1802  0.5503 -0.0544
  296SOL    HW2  888   1.433   1.626   1.227  0.3856 -0.0605 -0.2690
  297SOL     OW  889   0.498   0.981   2.549 -0.0379 -0.6978 -0.2579
  297SOL    HW1  890   0.404   0.975   2.596 -2.0867  1.0511  0.1525
  297SOL    HW2  891   0.554   1.066   2.564  1.2537  0.5838  0.5982
  298SOL     OW  892   1.671   2.551   1.458 -0.2403 -0.1870 -0.1747
  298SOL    HW1  893   1.634   2.618   1.520  0.2518 -2.5126 -0.6110
  298SOL    HW2  894   1.682   2.463   1.509 -0.5918 -1.3782  0.4259
  299SOL     OW  895   0.982   0.342   2.716 -0.2634 -0.2539 -0.1119
  299SOL    HW1  896   0.913   0.413   2.737 -0.2705 -1.0075 -3.1446
  299SOL    HW2  897   1.010   0.300   2.807  0.5578  1.6855  2.3348
  300SOL     OW  898   1.846   1.273   0.114 -0.8859  0.2151 -0.4211
  300SOL    HW1  899   1.864   1.365   0.078 -2.7262 -1.4626  0.0511
  300SOL    HW2  900   1.787   1.284   0.196  2.3515 -2.3606 -3.5543
  301SOL     OW  901   2.412   0.490   2.479  0.2320 -0.5336  0.1000
  301SOL    HW1  902   2.463   0.428   2.419  0.3896 -1.3363  0.3733
  301SOL    HW2  903   2.416   0.461   2.579 -1.3532  0.7798 -1.0299
  302SOL     OW  904   2.593   1.458   2.405 -0.5299 -0.2554  0.2283
  302SOL    HW1  905   2.601   1.423   2.501  0.5808 -1.4487 -0.0803
  302SOL    HW2  906   2.536   1.543   2.390 -1.8161 -0.9296 -1.8850
  303SOL     OW  907   0.224   2.432   2.425  0.5392 -0.0607 -0.3546
  303SOL    HW1  908   0.199   2.416   2.328 -2.1635  1.3893  0.7239
  303SOL    HW2  909   0.202   2.528   2.453  2.3557  0.2904  1.9619
  304SOL     OW  910   3.065   1.438   1.198 -0.2162 -0.1125 -0.0577
  304SOL    HW1  911   3.038   1.535   1.202 -0.7308 -1.2726 -0.5467
  304SOL    HW2  912   3.042   1.405   1.103  1.8250  0.7192 -1.5078
  305SOL     OW  913   0.023   0.255   2.167 -0.0596  0.2302 -0.3580
  305SOL    HW1  914   0.101   0.283   2.109 -3.0974 -2.0813  0.9649
  305SOL    HW2  915   0.054   0.254   2.270  0.5469  1.9887  2.7902
  306SOL     OW  916   1.268   1.447   0.564 -0.3365 -0.0326  0.3647
  306SOL    HW1  917   1.259   1.350   0.538  1.0317  1.1821  0.0686
  306SOL    HW2  918   1.306   1.498   0.487 -0.4455  0.1185  2.2726
  307SOL     OW  919   3.040   0.047   1.299 -0.0229  0.4110  0.2579
  307SOL    HW1  920   0.044   0.053   1.347 -0.1338  0.9740 -1.3851
  307SOL    HW2  921   3.000   0.141   1.277 -1.3552  2.9915 -1.0442
  308SOL     OW  922   2.789   1.713   2.643 -0.6892  0.4876 -0.0292
  308SOL    HW1  923   2.817   1.614   2.661 -0.4521 -1.6178  2.8473
  308SOL    HW2  924   2.833   1.760   2.563  2.6261  0.7780  0.0507
  309SOL     OW  925   0.077   1.914   2.779  0.3243  0.0717 -0.2835
  309SOL    HW1  926   0.168   1.917   2.742 -0.6143 -1.8075 -1.0572
  309SOL    HW2  927   0.010   1.940   2.705 -0.3493 -0.0008  0.9361
  310SOL     OW  928   2.420   0.356   3.077  0.0161 -0.0071 -0.5514
  310SOL    HW1  929   2.514   0.333   0.023 -2.1952 -2.4266 -3.4589
  310SOL    HW2  930   2.362   0.364   0.076 -0.3924  0.8112  0.6482
  311SOL     OW  931   1.901   1.212   2.939  0.5923  0.1936 -0.0987
  311SOL    HW1  932   1.868   1.270   2.864 -2.0287  0.1115  0.9297
  311SOL    HW2  933   1.878   1.251   3.029  0.2206  1.0607 -1.1380
  312SOL     OW  934   1.203   1.171   2.154 -0.5141 -0.0994 -0.0459
  312SOL    HW1  935   1.110   1.212   2.130 -0.5736  0.2287 -0.1300
  312SOL    HW2  936   1.212   1.069   2.145  0.8911 -0.4898  1.1908
  313SOL     OW  937   0.084   0.485   0.130  0.2530 -0.2674  0.1548
  313SOL    HW1  938   0.112   0.393   0.086  0.6133 -3.3082 -1.3163
  313SOL    HW2  939   0.039   0.469   0.219 -0.9872  0.0947  0.4566
  314SOL     OW  940   0.512   1.835   1.458  0.1607  0.1167  0.1935
  314SOL    HW1  941   0.436   1.794   1.407  0.8739  0.9306  1.3945
  314SOL    HW2  942   0.590   1.860   1.392  1.2926 -1.8391 -0.9383
  315SOL     OW  943   1.324   1.777   1.231 -0.1028  0.2468 -0.1985
  315SOL    HW1  944   1.323   1.799   1.333  1.8828  3.2844  0.1469
  315SOL    HW2  945   1.356   1.856   1.177  0.1882 -0.9553  2.6228
  316SOL     OW  946   0.214   2.259   0.520 -0.4149  0.5542 -0.0005
  316SOL    HW1  947   0.123   2.222   0.534  2.1303  0.9851  1.6188
  316SOL    HW2  948   0.291   2.193   0.538  3.6818  0.5655 -2.9758
  317SOL     OW  949   2.569   0.294   1.071  0.4534 -0.2772  0.0274
  317SOL    HW1  950   2.595   0.355   1.148 -1.0546  1.3856  0.1940
  317SOL    HW2  951   2.536   0.207   1.110 -0.6560 -0.6176  0.3263
  318SOL     OW  952   1.328   2.822   0.238 -0.5034  0.8334 -0.0419
  318SOL    HW1  953   1.269   2.808   0.319 -0.9529  0.1454 -0.8834
  318SOL    HW2  954   1.305   2.908   0.195  0.2546 -0.9592  1.6866
  319SOL     OW  955   1.441   0.180   2.974 -0.2468  0.2887  0.1088
  319SOL    HW1  956   1.393   0.268   2.991 -0.6594  0.8205 -1.1080
  319SOL    HW2  957   1.518   0.195   2.907  0.9858  0.2414 -0.2935
  320SOL     OW  958   2.633   2.033   1.914 -0.2726 -0.5093 -0.1107
  320SOL    HW1  959   2.540   2.052   1.949  1.3530  2.3380  0.1397
  320SOL    HW2  960   2.664   1.939   1.920  2.0588  0.3693  4.4056
  321SOL     OW  961   3.052   2.525   3.035  0.2539 -0.3034  0.1571
  321SOL    HW1  962   0.047   2.583   3.009  0.1081 -2.6342 -1.4906
  321SOL    HW2  963   3.082   2.434   3.065  3.7276  1.3682 -0.7100
  322SOL     OW  964   2.681   1.278   1.505 -0.7715 -0.1935  0.2171
  322SOL    HW1  965   2.591   1.232   1.524 -3.9180 -2.0327  1.4739
  322SOL    HW2  966   2.674   1.371   1.537 -0.4530 -3.2258 -0.4282
  323SOL     OW  967   1.486   1.274   0.131  0.1415 -0.0849  0.6157
  323SOL    HW1  968   1.405   1.331   0.147  2.1460 -0.5097 -2.7986
  323SOL    HW2  969   1.469   1.176   0.120 -0.1025 -0.4773 -0.1816
  324SOL     OW  970   0.010   0.414   1.480  0.7175  0.8625 -0.2247
  324SOL    HW1  971   0.096   0.447   1.446 -0.1358 -0.1314  1.2653
  324SOL    HW2  972   0.031   0.349   1.557  2.8067  0.7121  1.6039
  325SOL     OW  973   2.649   2.992   1.425  0.2687  0.0105 -0.1450
  325SOL    HW1  974   2.729   2.951   1.383 -2.1874  1.2593  0.6046
  325SOL    HW2  975   2.671   3.043   1.507 -2.8066  2.0493 -2.9496
  326SOL     OW  976   1.749   2.665   0.307  0.1304 -0.1694  0.2090
  326SOL    HW1  977   1.710   2.699   0.218  0.5946  0.8061  1.1818
  326SOL    HW2  978   1.702   2.721   0.377  0.1520 -0.4244  0.5536
  327SOL     OW  979   2.137   2.333   0.485  0.0267  0.0618  0.2509
  327SOL    HW1  980   2.078   2.253   0.490 -2.9509 -1.1689  3.0318
  327SOL    HW2  981   2.178   2.344   0.395 -2.0761  1.7267  2.6819
  328SOL     OW  982   2.642   2.452   1.835  0.2336 -0.1391 -0.4667
  328SOL    HW1  983   2.609   2.533   1.782 -1.0919 -0.6480 -1.5675
  328SOL    HW2  984   2.661   2.479   1.932 -0.0508 -0.0471 -0.4070
  329SOL     OW  985   0.179   2.175   1.028  0.0716 -0.0190  0.3760
  329SOL    HW1  986   0.167   2.270   1.055  0.5170 -2.7127  1.8945
  329SOL    HW2  987   0.261   2.167   0.965  1.0343  0.9937  0.4024
  330SOL     OW  988   2.362   1.066   2.129 -0.4408  0.1512 -0.4778
  330SOL    HW1  989   2.298   1.074   2.209  1.0974  0.3309 -2.8482
  330SOL    HW2  990   2.337   1.143   2.068  0.7701 -1.4488  1.0725
  331SOL     OW  991   2.105   1.620   0.631 -0.3599 -0.5912  0.3655
  331SOL    HW1  992   2.160   1.617   0.718 -1.8379  0.4142  0.9369
  331SOL    HW2  993   2.083   1.524   0.605 -1.5194  1.1635  1.6055
  332SOL     OW  994   0.224   2.886   1.533  0.2120  0.1068 -0.1665
  332SOL    HW1  995   0.135   2.844   1.530  3.6985  0.2039  0.3891
  332SOL    HW2  996   0.228   2.984   1.503  0.1295  3.3660  1.9585
  333SOL     OW  997   0.230   1.599   2.024  0.4045 -0.3233 -0.3470
  333SOL    HW1  998   0.297   1.674   2.009  1.9158  0.2810  1.1077
  333SOL    HW2  999   0.189   1.559   1.941  0.6046 -1.6830 -0.6072
  334SOL     OW 1000   0.331   0.786   1.336  0.5476 -0.6037 -0.4099
  334SOL    HW1 1001   0.265   0.861   1.332 -0.4020 -1.4142  2.4054
  334SOL    HW2 1002   0.364   0.754   1.246  3.8638  0.1797  0.3032
  335SOL     OW 1003   2.878   1.811   1.862  0.4794  0.4181 -0.5061
  335SOL    HW1 1004   2.967   1.770   1.838 -1.5035 -0.9891  0.7052
  335SOL    HW2 1005   2.847   1.762   1.953  2.0706 -1.4160  1.8597
  336SOL     OW 1006   1.888   2.902   2.892  0.6976  0.4999  0.3456
  336SOL    HW1 1007   1.839   2.815   2.911  1.6953 -0.8853 -0.9610
  336SOL    HW2 1008   1.977   2.899   2.941  0.1545  3.5278 -0.0641
  337SOL     OW 1009   0.639   0.562   1.252 -0.0418  0.1102  0.2642
  337SOL    HW1 1010   0.661   0.662   1.261 -0.3503  0.1045  1.0928
  337SOL    HW2 1011   0.544   0.542   1.230  0.0784  2.0096  2.4255
  338SOL     OW 1012   1.494   2.164   0.714 -0.2008 -0.8204  0.3067
  338SOL    HW1 1013   1.559   2.211   0.653  0.1877 -1.5932  0.6061
  338SOL    HW2 1014   1.533   2.163   0.807  2.7027  1.6717 -1.3242
  339SOL     OW 1015   0.351   1.793   1.124 -0.3022  0.6808 -0.6389
  339SOL    HW1 1016   0.287   1.863   1.161 -1.5405  1.3608  1.5539
  339SOL    HW2 1017   0.419   1.839   1.066  1.5782 -1.3089  0.0192
  340SOL     OW 1018   0.307   0.085   2.080 -0.1756  0.0309 -0.3054
  340SOL    HW1 1019   0.272   0.173   2.038 -1.4664  1.1430 -0.5502
  340SOL    HW2 1020   0.239   0.050   2.148 -5.3043 -0.4559  0.0535
  341SOL     OW 1021   2.160   1.450   0.939  1.3261  0.4062 -0.1151
  341SOL    HW1 1022   2.058   1.446   0.924 -1.5047 -1.3595  0.0051
  341SOL    HW2 1023   2.199   1.537   0.909  0.3714  0.3071 -1.6709
  342SOL     OW 1024   1.711   1.814   0.525  1.1383 -0.0009 -0.0212
  342SOL    HW1 1025   1.789   1.744   0.525  1.4974  0.1081  0.2457
  342SOL    HW2 1026   1.728   1.882   0.455 -1.9286 -0.0785 -1.3606
  343SOL     OW 1027   2.049   0.205   0.849 -0.1534 -0.0700  0.4945
  343SOL    HW1 1028   2.083   0.108   0.850 -1.4916  1.2235 -0.9584
  343SOL    HW2 1029   2.074   0.256   0.765  2.0366  2.2599 -0.3148
  344SOL     OW 1030   2.618   0.164   2.702 -0.2361 -0.3836 -0.0189
  344SOL    HW1 1031   2.639   0.266   2.719  1.2627  3.4136  0.6344
  344SOL    HW2 1032   2.677   0.135   2.621  1.7577  0.8918 -2.1623
  345SOL     OW 1033   1.172   2.629   1.150  0.5694 -0.0227  0.5213
  345SOL    HW1 1034   1.241   2.636   1.227  1.1353  0.6937 -0.8954
  345SOL    HW2 1035   1.142   2.533   1.125  0.5651 -2.9432  2.5060
  346SOL     OW 1036   2.308   2.337   1.626  0.0211  0.3984  0.0963
  346SOL    HW1 1037   2.243   2.277   1.674  0.2175 -0.6242  1.1408
  346SOL    HW2 1038   2.320   2.308   1.528 -0.2946 -0.4845 -1.3711
  347SOL     OW 1039   2.438   3.050   0.942  0.0754 -0.3374 -0.1471
  347SOL    HW1 1040   2.497   2.979   0.904 -0.9089  1.9181  0.1993
  347SOL    HW2 1041   2.465   3.067   1.037 -0.5560  0.2550 -0.0658
  348SOL     OW 1042   0.965   1.001   1.177  0.1540 -0.2428  0.1695
  348SOL    HW1 1043   0.962   0.946   1.261  1.7253 -1.1802 -0.6869
  348SOL    HW2 1044   1.026   1.082   1.190 -0.0226 -1.8855 -1.6673
  349SOL     OW 1045   2.234   0.202   2.938 -0.1989 -0.0739  0.3839
  349SOL    HW1 1046   2.301   0.259   2.985 -2.2018 -1.8454  0.5191
  349SOL    HW2 1047   2.279   0.151   2.861  2.3572 -0.9440 -2.3731
  350SOL     OW 1048   2.442   2.047   2.988  0.0850  0.0401 -0.1561
  350SOL    HW1 1049   2.526   1.993   3.002  2.4887  0.4214  1.1092
  350SOL    HW2 1050   2.468   2.120   2.921  1.7318 -0.3473 -1.5257
  351SOL     OW 1051   1.199   0.459   0.732  0.5110  0.4945  0.4924
  351SOL    HW1 1052   1.165   0.406   0.812 -0.9358 -0.8997  3.3477
  351SOL    HW2 1053   1.169   0.420   0.641 -0.4714 -0.4106 -1.5227
  352SOL     OW 1054   2.108   2.362   2.723 -0.4406 -0.2374  0.8127
  352SOL    HW1 1055   2.149   2.393   2.810  3.1621 -0.9077  1.6931
  352SOL    HW2 1056   2.114   2.434   2.650 -2.0374  0.0611 -0.3467
  353SOL     OW 1057   0.437   0.545   0.121  0.3141 -0.3348  0.1568
  353SOL    HW1 1058   0.397   0.518   0.212  1.6588 -2.2296  0.3595
  353SOL    HW2 1059   0.377   0.625   0.084  0.0604  0.3815 -1.1627
  354SOL     OW 1060   0.931   1.872   3.065  0.2587 -0.6543  0.0741
  354SOL    HW1 1061   1.004   1.835   3.007 -1.2347  0.9379  0.5889
  354SOL    HW2 1062   0.914   1.819   0.061  0.6561  2.1170 -4.1643
  355SOL     OW 1063   2.867   2.752   1.745 -0.5861  0.1759 -0.1802
  355SOL    HW1 1064   2.852   2.802   1.834  0.4915 -0.3127 -1.5623
  355SOL    HW2 1065   2.784   2.701   1.719  0.3999  3.4361  0.6679
  356SOL     OW 1066   2.860   1.018   0.450  0.6709 -0.4138  0.3569
  356SOL    HW1 1067   2.933   1.066   0.503  0.9072 -0.8207 -0.0531
  356SOL    HW2 1068   2.824   0.940   0.505  3.2153  1.1777  1.9697
  357SOL     OW 1069   2.468   0.491   0.938  0.0091  0.4563 -0.2429
  357SOL    HW1 1070   2.463   0.557   1.016  0.5702 -1.4330 -1.9313
  357SOL    HW2 1071   2.487   0.396   0.974 -0.9892 -2.3372 -0.4607
  358SOL     OW 1072   0.901   2.516   0.971 -0.1646  0.2122  0.3316
  358SOL    HW1 1073   0.836   2.437   0.965  0.7310 -0.6904  0.7215
  358SOL    HW2 1074   0.937   2.549   0.878  1.2490  0.2673  1.2857
  359SOL     OW 1075   2.996   2.377   2.774  0.1910 -0.4164  0.5201
  359SOL    HW1 1076   3.021   2.340   2.867 -0.9161 -1.3129 -0.8124
  359SOL    HW2 1077   2.896   2.395   2.775 -0.6270  1.5130  1.9166
  360SOL     OW 1078   0.484   0.948   1.763  0.2814  0.0554  0.8774
  360SOL    HW1 1079   0.486   0.935   1.665 -0.5378 -2.0124  3.9888
  360SOL    HW2 1080   0.392   0.941   1.809 -2.2831 -0.7647  0.9805
  361SOL     OW 1081   2.383   2.822   0.550  0.0264  0.1535  0.7373
  361SOL    HW1 1082   2.287   2.810   0.515 -2.5970 -1.0954 -0.5156
  361SOL    HW2 1083   2.423   2.907   0.523  0.4297 -3.4111  2.0577
  362SOL     OW 1084   0.045   3.067   1.045  0.1452  0.1389 -0.0293
  362SOL    HW1 1085   0.090   2.978   1.037 -0.7307  1.1980  1.5819
  362SOL    HW2 1086   0.007   0.005   1.139 -1.9213  3.9791  4.2336
  363SOL     OW 1087   0.596   1.267   0.600  0.1012 -0.1686 -0.4937
  363SOL    HW1 1088   0.546   1.289   0.517  2.9130  0.7180 -0.8852
  363SOL    HW2 1089   0.551   1.192   0.651  0.2370  0.3661  1.0563
  364SOL     OW 1090   0.790   1.467   1.583  0.2215 -0.0778 -0.3510
  364SOL    HW1 1091   0.763   1.385   1.638  1.4057  0.9646  1.9495
  364SOL    HW2 1092   0.724   1.545   1.595 -0.7046  0.8494 -1.5616
  365SOL     OW 1093   2.268   1.200   0.232 -0.8513  0.5717 -0.4898
  365SOL    HW1 1094   2.317   1.158   0.311  2.2005  0.7730  0.9005
  365SOL    HW2 1095   2.339   1.248   0.177  1.1445 -2.3594  0.1099
  366SOL     OW 1096   2.799   1.724   1.166  0.2185 -0.1008  0.1919
  366SOL    HW1 1097   2.789   1.820   1.197 -0.5244 -0.8052 -1.4075
  366SOL    HW2 1098   2.843   1.667   1.241  2.8032 -1.2950 -0.7769
  367SOL     OW 1099   2.236   1.948   1.852  0.3923 -0.2012 -0.6159
  367SOL    HW1 1100   2.192   1.865   1.885  0.1525  1.1846  1.2822
  367SOL    HW2 1101   2.282   1.994   1.928 -0.5719 -4.4980  0.8301
  368SOL     OW 1102   2.728   1.219   1.239 -1.0874  0.2617  0.0099
  368SOL    HW1 1103   2.725   1.255   1.336 -2.4333 -0.3663 -1.2324
  368SOL    HW2 1104   2.792   1.137   1.229  2.2518 -3.1305 -0.2552
  369SOL     OW 1105   2.508   2.616   3.083 -0.2588 -0.1785 -0.1147
  369SOL    HW1 1106   2.464   2.642   0.085  4.8613 -3.1537 -3.8764
  369SOL    HW2 1107   2.540   2.708   3.040 -1.7281  1.9752  2.0823
  370SOL     OW 1108   3.033   2.827   1.542 -0.3502 -0.0887 -0.8452
  370SOL    HW1 1109   2.961   2.809   1.611 -1.2029  2.4585 -0.2266
  370SOL    HW2 1110   3.000   2.847   1.447  0.4945 -0.9437  0.9031
  371SOL     OW 1111   0.832   1.746   2.471  0.1448  0.0425  0.0632
  371SOL    HW1 1112   0.747   1.787   2.513  0.0471 -1.1033  3.2988
  371SOL    HW2 1113   0.825   1.737   2.367  1.3881 -1.4945 -0.8849
  372SOL     OW 1114   0.617   1.220   0.315  0.2307 -0.1103 -0.2145
  372SOL    HW1 1115   0.670   1.158   0.376 -2.1792  1.7200  3.3214
  372SOL    HW2 1116   0.584   1.170   0.233  1.7955  1.3287 -0.6880
  373SOL     OW 1117   1.465   2.596   2.894 -0.1297 -0.2362  0.1310
  373SOL    HW1 1118   1.417   2.593   2.984 -0.4441  0.0080 -0.3400
  373SOL    HW2 1119   1.474   2.504   2.855  2.4079 -0.3488  0.8466
  374SOL     OW 1120   0.175   1.826   0.230  0.1737 -0.0334 -0.0341
  374SOL    HW1 1121   0.232   1.903   0.200 -2.3931  0.8782 -2.6737
  374SOL    HW2 1122   0.077   1.839   0.190 -1.2739  0.5506 -2.5711
  375SOL     OW 1123   1.045   1.450   1.662  0.0811  0.1596  0.4618
  375SOL    HW1 1124   0.952   1.495   1.639 -2.0247  0.8563  0.1118
  375SOL    HW2 1125   1.043   1.345   1.663 -0.4637  1.1330  1.6917
  376SOL     OW 1126   0.837   2.262   1.544  0.2428  0.8837  0.3114
  376SOL    HW1 1127   0.742   2.292   1.524 -0.1906 -2.6584 -0.2249
  376SOL    HW2 1128   0.899   2.340   1.538 -3.3151 -0.8768  0.5872
  377SOL     OW 1129   2.291   1.462   2.293 -0.5157 -0.1831  0.1915
  377SOL    HW1 1130   2.216   1.409   2.255  1.4202  1.1738  0.5780
  377SOL    HW2 1131   2.376   1.409   2.275  0.5713 -1.5736 -2.5906
  378SOL     OW 1132   0.941   2.849   2.992  0.2172  0.5225  0.2981
  378SOL    HW1 1133   0.877   2.772   2.998 -0.7731 -2.4395  0.9546
  378SOL    HW2 1134   0.962   2.882   3.084  0.2171 -1.6266 -1.6921
  379SOL     OW 1135   1.863   0.574   0.658  0.6685 -0.1399 -0.2850
  379SOL    HW1 1136   1.805   0.652   0.619 -1.1520 -0.5764  0.5521
  379SOL    HW2 1137   1.884   0.497   0.593 -3.0102 -0.5957  0.2385
  380SOL     OW 1138   3.020   1.956   1.360 -0.3360 -0.5641  0.3298
  380SOL    HW1 1139   2.969   1.953   1.446  0.1497  1.4733 -2.7143
  380SOL    HW2 1140   2.983   2.030   1.301  0.6531  0.8966 -0.0841
  381SOL     OW 1141   1.849   1.890   1.682  0.4599  0.3904  0.0197
  381SOL    HW1 1142   1.871   1.980   1.655 -0.8984 -4.9920  1.7391
  381SOL    HW2 1143   1.785   1.837   1.622 -2.9847  0.4742 -0.2881
  382SOL     OW 1144   3.064   0.456   2.803  0.2375 -0.1403  0.2630
  382SOL    HW1 1145   3.078   0.364   2.760  1.2251  3.0946 -0.9762
  382SOL    HW2 1146   3.042   0.525   2.730 -0.0932 -1.3499 -1.6526
  383SOL     OW 1147   1.776   1.346   2.735 -0.6861 -0.8228 -0.1676
  383SOL    HW1 1148   1.691   1.333   2.683  1.2658  0.9167 -1.3518
  383SOL    HW2 1149   1.851   1.286   2.700 -1.7978  0.4316  0.9971
  384SOL     OW 1150   1.103   2.176   0.976  0.5307 -0.1762 -0.7976
  384SOL    HW1 1151   1.086   2.113   0.898 -2.7770 -0.5669  1.5540
  384SOL    HW2 1152   1.036   2.175   1.053 -2.2779  1.6055 -0.1705
  385SOL     OW 1153   1.927   2.268   0.753  0.4652  0.3178 -0.6727
  385SOL    HW1 1154   1.950   2.229   0.664 -1.0332  1.1050  2.5416
  385SOL    HW2 1155   1.841   2.232   0.794  0.9297 -0.4665  0.5153
  386SOL     OW 1156   2.225   1.969   0.930 -0.0250 -0.3579 -0.3530
  386SOL    HW1 1157   2.202   2.064   0.917  0.3305  0.7283 -0.0664
  386SOL    HW2 1158   2.311   1.963   0.989  1.6348 -1.3562  0.4332
  387SOL     OW 1159   0.355   2.237   1.472  0.1175  0.0734 -0.2738
  387SOL    HW1 1160   0.255   2.248   1.444 -0.6208 -1.0683  0.0178
  387SOL    HW2 1161   0.355   2.172   1.546 -0.4099 -1.0255 -1.2551
  388SOL     OW 1162   3.041   0.679   1.848  0.1766 -0.0431 -0.0217
  388SOL    HW1 1163   3.006   0.584   1.851 -2.4836 -2.2615 -0.8149
  388SOL    HW2 1164   0.013   0.697   1.932 -2.4345  0.6990  0.4093
  389SOL     OW 1165   1.832   1.182   0.870  0.0434 -0.0172  0.2546
  389SOL    HW1 1166   1.858   1.270   0.903  0.2279 -0.1353  0.6051
  389SOL    HW2 1167   1.751   1.192   0.812 -0.4626 -0.5874  0.3852
  390SOL     OW 1168   0.982   2.166   2.458 -0.1329  0.0851  0.4284
  390SOL    HW1 1169   0.898   2.214   2.430 -0.7986 -0.7591  0.7193
  390SOL    HW2 1170   1.065   2.208   2.408 -1.4309 -0.3346  0.2498
  391SOL     OW 1171   0.996   1.995   2.695 -0.5785  0.3850  0.0082
  391SOL    HW1 1172   0.907   1.947   2.712 -0.1099  0.6151  1.0712
  391SOL    HW2 1173   0.992   2.050   2.610  1.7695  0.4899  0.6102
  392SOL     OW 1174   2.873   2.739   2.108 -0.5349 -0.0094  0.2768
  392SOL    HW1 1175   2.778   2.751   2.088  1.4940 -0.5848  0.9069
  392SOL    HW2 1176   2.926   2.808   2.056 -2.1563 -1.7209  1.2980
  393SOL     OW 1177   2.012   2.659   0.318 -0.1724 -0.6310 -0.6871
  393SOL    HW1 1178   1.909   2.669   0.303 -0.9411  4.4020 -1.9181
  393SOL    HW2 1179   2.048   2.595   0.391  3.0060 -0.1146  0.4157
  394SOL     OW 1180   0.591   0.725   2.388  0.1813  0.1052 -0.0791
  394SOL    HW1 1181   0.524   0.805   2.402 -3.3873  1.8744 -0.9293
  394SOL    HW2 1182   0.617   0.710   2.291  0.6378 -2.3591  2.8273
  395SOL     OW 1183   0.647   1.119   1.439  0.1582 -0.0660  0.1637
  395SOL    HW1 1184   0.632   1.024   1.479  1.1860 -4.2688 -1.0499
  395SOL    HW2 1185   0.743   1.136   1.405 -0.3189  1.8891  1.9957
  396SOL     OW 1186   1.539   1.425   2.098  0.5899  0.2516  0.3058
  396SOL    HW1 1187   1.596   1.341   2.082  0.8152 -0.7498 -0.9726
  396SOL    HW2 1188   1.512   1.442   2.194  0.9204 -0.5150  1.2460
  397SOL     OW 1189   0.767   0.530   2.806 -0.3139 -0.0396  0.1885
  397SOL    HW1 1190   0.712   0.538   2.897 -2.2032 -2.5208  1.4670
  397SOL    HW2 1191   0.717   0.536   2.721  2.8598  1.2520  0.3138
  398SOL     OW 1192   0.238   1.964   2.533 -0.6070  0.2797 -0.1015
  398SOL    HW1 1193   0.286   2.038   2.587  2.1061  0.9261 -1.6318
  398SOL    HW2 1194   0.239   1.993   2.434  0.1890  1.5235 -0.0617
  399SOL     OW 1195   0.157   1.792   2.191  0.0402  0.2400  0.1729
  399SOL    HW1 1196   0.134   1.755   2.284  1.2614 -0.5953 -2.2018
  399SOL    HW2 1197   0.186   1.714   2.132  0.2282 -0.3388 -1.0276
  400SOL     OW 1198   2.555   0.703   1.586  0.1852  0.7492  0.3634
  400SOL    HW1 1199   2.568   0.763   1.503 -0.5763 -0.0834 -0.9877
  400SOL    HW2 1200   2.584   0.749   1.671  0.5763 -1.0773 -1.5934
  401SOL     OW 1201   1.053   1.542   0.400  0.0610  0.1624  0.2126
  401SOL    HW1 1202   1.088   1.635   0.364  0.6033  3.6659 -1.9291
  401SOL    HW2 1203   1.120   1.501   0.467 -1.8248 -0.7864  1.7434
  402SOL     OW 1204   0.193   2.410   2.153 -0.3232  0.5945  0.3610
  402SOL    HW1 1205   0.120   2.468   2.107  0.8762  3.1450  3.5862
  402SOL    HW2 1206   0.238   2.345   2.084  1.0888 -1.1600 -1.0753
  403SOL     OW 1207   0.352   1.282   2.097  0.4326  0.1081  0.0218
  403SOL    HW1 1208   0.285   1.216   2.135 -0.4057  0.5499 -1.1730
  403SOL    HW2 1209   0.321   1.380   2.085  0.2975 -0.5860  0.2447
  404SOL     OW 1210   1.884   2.142   1.577 -0.3737 -0.6484  0.0900
  404SOL    HW1 1211   1.805   2.206   1.557 -2.2716 -1.4996  2.0779
  404SOL    HW2 1212   1.954   2.157   1.499 -2.3937 -0.7287 -3.2902
  405SOL     OW 1213   2.811   2.608   2.762 -0.2383 -0.1067 -0.2935
  405SOL    HW1 1214   2.758   2.560   2.839  0.4701 -1.6542 -1.4260
  405SOL    HW2 1215   2.789   2.704   2.752 -0.1670 -0.3240  1.1390
  406SOL     OW 1216   0.407   1.229   3.035 -0.0564 -0.3488  0.3052
  406SOL    HW1 1217   0.470   1.189   0.018 -2.2168 -1.4261  1.0155
  406SOL    HW2 1218   0.453   1.309   2.988  1.4880  2.3748 -0.1333
  407SOL     OW 1219   2.201   2.503   2.924 -0.4448 -0.1129 -0.2335
  407SOL    HW1 1220   2.282   2.547   2.881  1.7980  3.0974  2.5894
  407SOL    HW2 1221   2.188   2.535   3.020 -0.7002 -0.4793 -0.8130
  408SOL     OW 1222   2.906   3.044   0.255  0.2998  0.3673 -0.1451
  408SOL    HW1 1223   2.842   2.965   0.282 -0.0795  0.8596  1.0103
  408SOL    HW2 1224   2.917   3.044   0.150 -1.8101  1.2316 -2.1863
  409SOL     OW 1225   2.238   1.277   0.753 -0.3583 -0.2910  0.0235
  409SOL    HW1 1226   2.223   1.340   0.831 -1.8215  1.7845  3.3700
  409SOL    HW2 1227   2.153   1.225   0.734  1.4836  0.6787 -0.7165
  410SOL     OW 1228   2.848   1.503   0.552  0.1070 -0.5278 -0.1804
  410SOL    HW1 1229   2.870   1.466   0.642 -1.8546 -0.6319  0.3841
  410SOL    HW2 1230   2.881   1.595   0.542 -0.5471 -2.2978  1.1424
  411SOL     OW 1231   0.246   1.319   0.917  0.5492  0.3186  0.3048
  411SOL    HW1 1232   0.258   1.410   0.868 -0.1426  2.4439 -1.2524
  411SOL    HW2 1233   0.338   1.293   0.956  2.0094 -0.7670 -1.0381
  412SOL     OW 1234   2.379   2.322   0.631  0.4700 -0.4596 -0.3508
  412SOL    HW1 1235   2.450   2.379   0.578  2.1822  0.6701 -1.5946
  412SOL    HW2 1236   2.290   2.306   0.579  0.1888 -2.1099 -0.3523
  413SOL     OW 1237   1.708   1.039   2.382  0.0414 -0.1608 -0.2812
  413SOL    HW1 1238   1.724   1.009   2.287  1.0295 -2.2220 -0.3299
  413SOL    HW2 1239   1.625   1.100   2.394  0.0797  0.1725 -2.0190
  414SOL     OW 1240   2.738   0.014   0.453 -0.1361 -0.0723 -0.4874
  414SOL    HW1 1241   2.818   3.068   0.398  1.2639 -2.5178 -0.7684
  414SOL    HW2 1242   2.761   0.006   0.548  2.8736 -1.0414 -0.7742
  415SOL     OW 1243   0.915   2.156   1.187 -0.5829  1.0516  0.9297
  415SOL    HW1 1244   0.914   2.113   1.282  1.4149 -0.3139 -0.5640
  415SOL    HW2 1245   0.872   2.095   1.117  2.1043 -0.1015 -1.5429
  416SOL     OW 1246   0.008   2.703   2.731 -0.2095  0.1681  0.0211
  416SOL    HW1 1247   0.064   2.677   2.650 -0.6194 -0.4628 -2.1514
  416SOL    HW2 1248   3.019   2.641   2.748  0.9599  0.4376 -0.3776
  417SOL     OW 1249   2.919   0.761   1.273 -0.1355  0.3440  0.5628
  417SOL    HW1 1250   2.955   0.716   1.188 -1.2584  0.1136  0.4083
  417SOL    HW2 1251   2.977   0.748   1.360  0.7906  0.1162  2.0341
  418SOL     OW 1252   0.102   0.213   0.053 -1.2121  0.1812  0.0030
  418SOL    HW1 1253   0.115   0.164   0.145  0.2887 -0.0011  1.6471
  418SOL    HW2 1254   0.129   0.158   3.055 -3.0649  1.6813 -0.2179
  419SOL     OW 1255   0.157   1.439   1.536 -0.2007 -0.2144  0.1397
  419SOL    HW1 1256   0.060   1.423   1.514 -2.3118  0.1085  1.0632
  419SOL    HW2 1257   0.201   1.474   1.452 -1.1744  4.1496  0.8428
  420SOL     OW 1258   0.440   1.416   0.346 -0.1898  0.1540 -0.1821
  420SOL    HW1 1259   0.429   1.492   0.278 -2.2035 -1.9932 -0.8117
  420SOL    HW2 1260   0.527   1.361   0.335  0.7349 -0.0070  2.1750
  421SOL     OW 1261   2.137   2.527   2.492  0.0238  0.3534 -0.3601
  421SOL    HW1 1262   2.037   2.544   2.464  0.2278  0.3261 -2.2248
  421SOL    HW2 1263   2.195   2.490   2.414  2.0511 -1.7965  0.5558
  422SOL     OW 1264   0.065   0.751   2.743  0.1991  0.0047  0.6291
  422SOL    HW1 1265   0.126   0.789   2.679 -3.6308 -0.2815 -1.4753
  422SOL    HW2 1266   0.096   0.666   2.783 -2.2509  0.8626 -1.2917
  423SOL     OW 1267   1.177   2.209   0.400 -0.0572 -0.3461  0.7076
  423SOL    HW1 1268   1.194   2.150   0.478  0.3639  1.2698  0.4899
  423SOL    HW2 1269   1.087   2.194   0.359 -0.5269  0.7274 -0.0362
  424SOL     OW 1270   0.743   1.882   1.294 -0.1881 -0.0631 -0.2240
  424SOL    HW1 1271   0.796   1.942   1.355  0.9911 -2.3439 -1.7134
  424SOL    HW2 1272   0.773   1.790   1.308 -1.2268  0.7124  2.0268
  425SOL     OW 1273   2.800   2.602   2.485 -0.3047 -0.3365 -0.7162
  425SOL    HW1 1274   2.698   2.602   2.466 -1.0354 -0.9634 -2.3365
  425SOL    HW2 1275   2.819   2.583   2.584 -0.5342 -0.2265 -0.3376
  426SOL     OW 1276   1.620   0.592   0.994 -0.5640  0.1909  0.6066
  426SOL    HW1 1277   1.715   0.566   0.980 -2.1893  0.4049 -0.7656
  426SOL    HW2 1278   1.569   0.531   0.927  1.4490 -0.7712  1.3290
  427SOL     OW 1279   0.191   1.395   2.997 -1.1600 -0.0829 -0.2091
  427SOL    HW1 1280   0.276   1.338   3.028  3.9271 -0.5643 -0.0683
  427SOL    HW2 1281   0.138   1.342   2.931 -2.2262  1.8921  1.7768
  428SOL     OW 1282   0.993   1.151   0.128 -0.8370  0.5410 -0.2305
  428SOL    HW1 1283   1.036   1.061   0.145  2.3366 -1.2315 -1.7719
  428SOL    HW2 1284   0.932   1.155   0.048 -0.9431  1.9876  0.0040
  429SOL     OW 1285   2.846   2.653   0.585  0.3671  0.5334  0.4380
  429SOL    HW1 1286   2.751   2.685   0.565 -0.1959  2.9601  3.1545
  429SOL    HW2 1287   2.917   2.670   0.512 -1.9482  2.5964  2.7703
  430SOL     OW 1288   0.488   2.392   2.291 -0.5473  0.5175  0.2699
  430SOL    HW1 1289   0.401   2.431   2.323  3.7484 -3.5282 -1.2613
  430SOL    HW2 1290   0.481   2.326   2.217  0.2928  2.4033  1.6631
  431SOL     OW 1291   2.750   1.284   0.409 -0.3167  0.1399 -0.2810
  431SOL    HW1 1292   2.814   1.351   0.463  2.3994  0.6040  0.1591
  431SOL    HW2 1293   2.776   1.187   0.420 -3.2614 -1.1652 -1.6168
  432SOL     OW 1294   1.847   2.582   2.427  0.0316  0.0443  0.3957
  432SOL    HW1 1295   1.805   2.607   2.335 -1.5986  0.7580 -1.2902
  432SOL    HW2 1296   1.826   2.655   2.497 -0.4569 -1.4770 -1.9262
  433SOL     OW 1297   1.572   2.796   0.631  0.8716 -0.0971  0.0051
  433SOL    HW1 1298   1.523   2.843   0.708 -1.4834  0.3444  0.6784
  433SOL    HW2 1299   1.663   2.775   0.660 -2.3828  0.6856 -4.1998
  434SOL     OW 1300   1.233   1.754   2.057 -0.2407  0.1092  0.6347
  434SOL    HW1 1301   1.140   1.752   2.015 -2.2165 -1.6913 -2.8929
  434SOL    HW2 1302   1.241   1.714   2.150 -0.2318 -0.9067  1.5540
  435SOL     OW 1303   2.607   0.564   0.113  0.4243  0.2191  0.2310
  435SOL    HW1 1304   2.668   0.643   0.119 -0.0942  1.1264 -3.1374
  435SOL    HW2 1305   2.515   0.579   0.159 -3.3325 -0.5125 -1.2004
  436SOL     OW 1306   0.333   2.787   2.276 -0.0688  0.4429  1.0093
  436SOL    HW1 1307   0.369   2.726   2.206 -0.3586 -1.7892  2.1997
  436SOL    HW2 1308   0.390   2.870   2.294  0.2014  0.5855 -1.7948
  437SOL     OW 1309   2.012   2.981   1.568  0.0253  0.2835 -0.1699
  437SOL    HW1 1310   2.070   2.918   1.510 -2.1549 -0.5472  1.1153
  437SOL    HW2 1311   2.025   3.083   1.550 -1.8126 -1.1082  0.1035
  438SOL     OW 1312   0.087   1.918   0.652  0.4020 -0.4832  0.3540
  438SOL    HW1 1313   0.055   2.012   0.675 -0.4610 -2.5192  2.4177
  438SOL    HW2 1314   0.117   1.875   0.742  2.9614  0.3274  1.0636
  439SOL     OW 1315   0.404   0.261   1.112 -0.2868 -0.0472  0.3213
  439SOL    HW1 1316   0.442   0.168   1.109 -0.8210 -1.8217 -1.6704
  439SOL    HW2 1317   0.320   0.264   1.051  1.0012 -0.2111 -0.1059
  440SOL     OW 1318   2.974   2.772   2.368 -0.8417 -0.2383 -0.1756
  440SOL    HW1 1319   2.917   2.694   2.404 -1.0773 -3.0766  0.3788
  440SOL    HW2 1320   2.957   2.783   2.271 -0.1301  0.9587  0.6497
  441SOL     OW 1321   0.123   0.844   0.321  0.0417 -0.2383 -0.3153
  441SOL    HW1 1322   0.194   0.807   0.389 -0.3626  1.5793  3.2337
  441SOL    HW2 1323   0.044   0.779   0.333 -1.1095 -0.9192 -0.0552
  442SOL     OW 1324   1.559   2.366   2.106  0.6404  0.3871  0.1377
  442SOL    HW1 1325   1.496   2.313   2.046  2.7854  0.6091  3.6119
  442SOL    HW2 1326   1.575   2.308   2.187  0.8669 -1.8181 -0.2220
  443SOL     OW 1327   0.665   3.002   0.136 -0.8308 -0.4378 -0.0479
  443SOL    HW1 1328   0.634   2.979   0.042  0.2163 -2.8441 -1.5994
  443SOL    HW2 1329   0.767   2.980   0.142  3.2822  2.5277  0.9267
  444SOL     OW 1330   1.336   1.883   2.546  0.5696  0.4632  0.3051
  444SOL    HW1 1331   1.329   1.916   2.452 -0.5558  0.9589  3.6894
  444SOL    HW2 1332   1.334   1.781   2.558 -0.4776  0.3886  1.4109
  445SOL     OW 1333   0.330   0.478   0.869  0.4618  0.2101  0.0223
  445SOL    HW1 1334   0.311   0.402   0.805  1.0550  0.2514  1.6934
  445SOL    HW2 1335   0.427   0.506   0.858 -0.1872 -0.9406  0.7665
  446SOL     OW 1336   1.704   0.817   0.669  0.1135  0.7715  0.4181
  446SOL    HW1 1337   1.619   0.769   0.653  1.9744  0.4489 -0.0972
  446SOL    HW2 1338   1.719   0.844   0.767  1.1649  1.2071 -1.3792
  447SOL     OW 1339   2.825   0.928   0.194 -0.2295 -0.3863 -0.2055
  447SOL    HW1 1340   2.847   0.968   0.290  1.7091  1.9712  3.0102
  447SOL    HW2 1341   2.897   0.953   0.128 -1.8595 -1.5970  2.6700
  448SOL     OW 1342   2.062   1.903   1.387 -0.4057 -0.2648 -0.0601
  448SOL    HW1 1343   2.105   1.888   1.479 -0.5113 -0.8491  3.0418
  448SOL    HW2 1344   2.072   2.002   1.357  0.7070  1.8681 -0.2416
  449SOL     OW 1345   0.790   1.481   3.046 -0.1501 -0.4869  0.2779
  449SOL    HW1 1346   0.833   1.470   2.955  1.2670  0.2528 -1.5469
  449SOL    HW2 1347   0.857   1.437   0.025 -0.9496 -0.6573 -0.1902
  450SOL     OW 1348   2.262   2.902   2.413  0.8581  0.5826  0.5823
  450SOL    HW1 1349   2.216   2.860   2.492 -1.0669 -1.2139 -0.7614
  450SOL    HW2 1350   2.192   2.958   2.363  0.3182  0.2889  1.0525
  451SOL     OW 1351   2.280   0.926   2.693  0.1635 -0.5622  0.6534
  451SOL    HW1 1352   2.216   0.993   2.735 -0.3525  1.4780  0.7563
  451SOL    HW2 1353   2.344   0.971   2.629  2.3859 -1.8294 -0.2077
  452SOL     OW 1354   1.735   1.044   1.143  0.3540  0.2381 -0.4405
  452SOL    HW1 1355   1.638   1.078   1.134 -0.9015 -0.8137  0.7838
  452SOL    HW2 1356   1.745   0.970   1.217  0.0343 -3.7337 -1.7237
  453SOL     OW 1357   1.828   0.577   1.692  0.1373 -0.0962  0.0049
  453SOL    HW1 1358   1.778   0.497   1.649 -0.5123 -2.6247  0.9560
  453SOL    HW2 1359   1.764   0.655   1.708 -1.8505  1.5266  1.6155
  454SOL     OW 1360   2.990   0.947   2.887  0.2914 -0.5898 -0.3782
  454SOL    HW1 1361   3.013   0.954   2.985  0.4841 -1.1016 -2.3477
  454SOL    HW2 1362   3.046   0.877   2.842 -0.1226 -1.2384 -0.4192
  455SOL     OW 1363   2.950   1.665   1.382  0.2407 -0.3463 -0.7146
  455SOL    HW1 1364   3.037   1.720   1.401 -0.6005 -1.2009 -1.9697
  455SOL    HW2 1365   2.961   1.576   1.431  0.7535 -2.6479  1.3906
  456SOL     OW 1366   1.521   2.705   1.625  0.7905 -0.1699  0.4726
  456SOL    HW1 1367   1.481   2.689   1.718  1.0490 -0.2553 -0.4127
  456SOL    HW2 1368   1.498   2.798   1.601 -1.8484 -2.8049  1.3404
  457SOL     OW 1369   1.490   2.693   1.068 -0.6108  0.3574 -0.5515
  457SOL    HW1 1370   1.491   2.614   1.009  0.2837  1.0202  2.3824
  457SOL    HW2 1371   1.405   2.699   1.121  3.2870 -0.3972  0.4491
  458SOL     OW 1372   2.775   2.881   0.820  0.2493  0.5835  0.4735
  458SOL    HW1 1373   2.676   2.848   0.813 -0.6018 -1.5161  1.9254
  458SOL    HW2 1374   2.773   2.980   0.793 -0.0545  1.6949  0.4200
  459SOL     OW 1375   1.657   1.077   0.475  0.1002  0.1368  0.0651
  459SOL    HW1 1376   1.633   1.070   0.378  0.7123 -1.1592  3.8269
  459SOL    HW2 1377   1.651   0.983   0.515  1.2388  2.8148 -0.6229
  460SOL     OW 1378   0.926   2.494   2.279  0.8663  0.0090 -0.0561
  460SOL    HW1 1379   1.023   2.463   2.261 -2.1159 -1.5902 -1.2301
  460SOL    HW2 1380   0.896   2.482   2.377 -1.7859 -0.7654  0.5905
  461SOL     OW 1381   0.101   1.602   0.346  0.1119 -0.2031 -0.5240
  461SOL    HW1 1382   0.147   1.514   0.359 -1.6292 -0.2205  0.9586
  461SOL    HW2 1383   0.150   1.670   0.294 -3.9701 -2.5231  0.3474
  462SOL     OW 1384   1.754   1.998   0.262 -0.0997 -0.4840  0.2285
  462SOL    HW1 1385   1.823   1.919   0.246  0.7686 -0.6068 -2.0436
  462SOL    HW2 1386   1.708   2.022   0.171  1.1101  1.2284 -1.9954
  463SOL     OW 1387   2.635   0.533   0.434  0.0508  0.0238 -0.3859
  463SOL    HW1 1388   2.598   0.605   0.370 -0.4831  1.2875  0.6301
  463SOL    HW2 1389   2.605   0.439   0.415 -1.0121 -1.8391 -0.9966
  464SOL     OW 1390   0.711   2.233   0.153  0.2914 -0.1931  0.0353
  464SOL    HW1 1391   0.682   2.135   0.134 -0.7436 -0.9489 -1.7733
  464SOL    HW2 1392   0.624   2.292   0.166 -0.4674  2.5172  0.6092
  465SOL     OW 1393   2.309   0.405   1.260  0.0175 -0.0832  0.4274
  465SOL    HW1 1394   2.247   0.337   1.220  1.2198 -0.6377  1.6334
  465SOL    HW2 1395   2.280   0.503   1.258  0.2414  1.4717  1.3774
  466SOL     OW 1396   2.125   0.271   0.527  0.4439  0.2167  0.2125
  466SOL    HW1 1397   2.118   0.200   0.458 -3.5063 -0.1501 -1.1587
  466SOL    HW2 1398   2.217   0.310   0.530 -1.1887 -1.3615 -0.6280
  467SOL     OW 1399   0.710   0.623   2.142 -0.6074  0.0263 -0.0674
  467SOL    HW1 1400   0.767   0.650   2.062 -0.2272 -2.1629  2.0776
  467SOL    HW2 1401   0.766   0.566   2.205  0.3213 -2.5831  1.4333
  468SOL     OW 1402   2.652   0.220   2.101  0.4067  0.1213  0.5239
  468SOL    HW1 1403   2.612   0.207   2.008  1.9832 -0.3302 -1.4249
  468SOL    HW2 1404   2.747   0.251   2.099 -0.8647  1.2667  0.5190
  469SOL     OW 1405   1.061   2.849   1.775  0.1377  0.5823  0.8139
  469SOL    HW1 1406   1.097   2.802   1.689  0.2826  1.2826 -4.1249
  469SOL    HW2 1407   0.964   2.873   1.758 -0.1841 -1.7106 -2.9246
  470SOL     OW 1408   2.382   1.018   1.790  0.5404 -0.0506  0.2462
  470SOL    HW1 1409   2.432   0.929   1.775 -0.6019 -0.0780 -2.0409
  470SOL    HW2 1410   2.382   1.038   1.893  0.5897 -0.7270  3.0849
  471SOL     OW 1411   2.836   1.555   2.944  0.6399  0.1433  0.2423
  471SOL    HW1 1412   2.937   1.584   2.943 -0.1316  1.9593 -2.2978
  471SOL    HW2 1413   2.781   1.616   3.006  0.8051 -0.1344 -1.3322
  472SOL     OW 1414   0.415   2.098   0.601  0.1416 -0.3913  0.1735
  472SOL    HW1 1415   0.356   2.017   0.581 -2.3430 -1.5375  0.3260
  472SOL    HW2 1416   0.505   2.101   0.549  0.2321  2.9839  1.2702
  473SOL     OW 1417   1.078   2.313   1.955  0.1609  0.3676 -0.6119
  473SOL    HW1 1418   0.976   2.323   1.955 -0.1220  1.5527  2.1062
  473SOL    HW2 1419   1.112   2.220   1.968  0.4722  1.5719  2.4507
  474SOL     OW 1420   0.864   2.865   2.591 -0.6657  0.5768 -0.1259
  474SOL    HW1 1421   0.854   2.761   2.574 -0.9566 -2.8941 -0.9248
  474SOL    HW2 1422   0.942   2.879   2.656 -2.0476 -3.0461 -2.4359
  475SOL     OW 1423   0.665   1.988   0.020 -0.3848  0.2655 -0.0963
  475SOL    HW1 1424   0.753   1.939   0.009  2.5321  0.9970 -1.4730
  475SOL    HW2 1425   0.584   1.927   0.008  0.7025  0.0059  0.5849
  476SOL     OW 1426   1.132   0.826   1.057 -0.3467 -0.4377  0.1625
  476SOL    HW1 1427   1.109   0.798   0.962  1.7262 -0.8910 -0.7802
  476SOL    HW2 1428   1.050   0.875   1.091 -1.5548 -2.1329 -2.4094
  477SOL     OW 1429   2.107   2.206   1.415  0.0096  0.5012 -0.2210
  477SOL    HW1 1430   2.154   2.175   1.328  1.5042  2.8883 -1.0480
  477SOL    HW2 1431   2.092   2.305   1.414  1.8981  1.5464 -3.9519
  478SOL     OW 1432   3.062   0.622   3.011 -0.4091  0.3678 -0.2731
  478SOL    HW1 1433   3.064   0.574   2.917 -0.4606 -1.3555 -0.3774
  478SOL    HW2 1434   0.006   0.565   0.009 -1.2488  2.9056  0.7017
  479SOL     OW 1435   0.975   0.045   1.398 -0.8000 -0.3149  0.1325
  479SOL    HW1 1436   1.060   0.092   1.424 -1.6318 -2.3111 -0.0157
  479SOL    HW2 1437   0.977   3.034   1.436  1.4699 -0.3437  0.8146
  480SOL     OW 1438   2.777   2.365   0.320 -0.7590 -1.0047 -0.6230
  480SOL    HW1 1439   2.727   2.309   0.253  0.3397 -0.6951 -0.0501
  480SOL    HW2 1440   2.877   2.347   0.314  0.5183  0.6996 -0.1054
  481SOL     OW 1441   0.172   0.720   1.686  0.6957 -0.1989 -0.5899
  481SOL    HW1 1442   0.167   0.819   1.655 -0.7924  0.2775  1.7247
  481SOL    HW2 1443   0.088   0.700   1.736  3.4011  1.5831 -0.1661
  482SOL     OW 1444   1.145   3.015   1.130  0.1045  0.6658 -0.0842
  482SOL    HW1 1445   1.119   0.008   1.075  2.3021 -1.8723  0.8559
  482SOL    HW2 1446   1.061   2.982   1.181 -1.4884  0.9651  2.7118
  483SOL     OW 1447   3.047   1.537   2.586 -0.0349 -0.1313  0.1775
  483SOL    HW1 1448   3.000   1.499   2.669 -0.5837  0.6356 -0.2259
  483SOL    HW2 1449   2.982   1.526   2.504 -0.8417 -2.6802 -1.5778
  484SOL     OW 1450   1.674   1.635   1.975  0.8017 -0.0976 -0.4250
  484SOL    HW1 1451   1.609   1.698   1.936 -0.6435 -1.2783  1.2468
  484SOL    HW2 1452   1.627   1.556   2.020  1.7070  0.7835 -3.5137
  485SOL     OW 1453   0.169   3.059   2.280 -0.2039 -0.0187  0.1156
  485SOL    HW1 1454   0.067   3.074   2.303  1.6056 -2.1547  0.4431
  485SOL    HW2 1455   0.221   3.042   2.363  0.0705  0.2482 -0.5207
  486SOL     OW 1456   1.244   2.878   0.655 -0.0761  0.1037 -0.1726
  486SOL    HW1 1457   1.239   2.824   0.746  0.3770  0.9082  2.9836
  486SOL    HW2 1458   1.301   2.963   0.666  0.3061  1.5776 -0.5277
  487SOL     OW 1459   1.379   0.168   0.926 -0.3885 -0.4478  0.1837
  487SOL    HW1 1460   1.399   0.115   0.842  0.2959  0.6464  2.4665
  487SOL    HW2 1461   1.424   0.144   1.014 -0.9032  0.8446 -1.1388
  488SOL     OW 1462   2.278   0.888   1.023  0.1481  0.1039  1.0192
  488SOL    HW1 1463   2.317   0.964   0.965  2.0910  0.5029  0.8085
  488SOL    HW2 1464   2.184   0.863   0.995  1.1444 -1.0645  0.7382
  489SOL     OW 1465   1.217   0.171   1.454 -0.5738 -0.2779 -0.6372
  489SOL    HW1 1466   1.256   0.079   1.430 -2.2311 -1.6101  3.0305
  489SOL    HW2 1467   1.276   0.246   1.421 -0.5965 -1.5489 -0.9397
  490SOL     OW 1468   0.695   0.565   0.004  0.4911  1.0787 -0.0904
  490SOL    HW1 1469   0.736   0.473   0.038  1.3183 -2.1601  0.3420
  490SOL    HW2 1470   0.596   0.568   0.029 -0.1611 -1.6570 -0.4275
  491SOL     OW 1471   0.928   2.696   0.304 -0.0558 -0.5528  0.0248
  491SOL    HW1 1472   0.995   2.709   0.379  0.7394  0.7804 -1.4428
  491SOL    HW2 1473   0.968   2.661   0.215  0.1026 -0.4112  0.8034
  492SOL     OW 1474   1.343   1.789   1.503  0.2034 -0.3969  0.2582
  492SOL    HW1 1475   1.338   1.865   1.576 -0.8903  1.9445 -0.3566
  492SOL    HW2 1476   1.360   1.698   1.544 -2.8636 -1.9197 -2.3471
  493SOL     OW 1477   0.407   1.685   0.210  0.3426  0.0722  0.4462
  493SOL    HW1 1478   0.315   1.727   0.202  0.5250 -0.0185  0.9748
  493SOL    HW2 1479   0.456   1.696   0.127 -0.2947  2.1201  3.9548
  494SOL     OW 1480   1.912   2.137   0.460  0.7451  0.2421 -0.6335
  494SOL    HW1 1481   1.993   2.080   0.425  1.4664 -1.5076  1.4996
  494SOL    HW2 1482   1.828   2.121   0.400 -1.1442 -0.4658 -2.6172
  495SOL     OW 1483   0.384   1.642   2.391 -0.4928  0.1045 -0.3563
  495SOL    HW1 1484   0.440   1.687   2.459  0.0369 -2.2683 -0.6399
  495SOL    HW2 1485   0.282   1.648   2.404 -1.2735  0.3665 -0.9922
  496SOL     OW 1486   0.522   2.989   2.363  0.2576  0.3639  0.0582
  496SOL    HW1 1487   0.492   3.084   2.385  0.5519 -1.1214 -1.3240
  496SOL    HW2 1488   0.580   2.985   2.280  3.1232  0.9496  1.8180
  497SOL     OW 1489   1.619   1.225   0.702  0.5092 -0.1378 -0.1745
  497SOL    HW1 1490   1.637   1.153   0.634 -1.0064  1.4348 -2.7223
  497SOL    HW2 1491   1.569   1.302   0.658  1.6369 -0.6612 -1.1194
  498SOL     OW 1492   2.768   2.821   0.293 -0.6042  0.1433  0.1088
  498SOL    HW1 1493   2.788   2.756   0.215  0.0850  2.4153  1.2676
  498SOL    HW2 1494   2.702   2.781   0.360  1.7503 -0.9861  0.7849
  499SOL     OW 1495   2.051   2.557   0.631  0.0540  0.2991 -0.0946
  499SOL    HW1 1496   2.057   2.456   0.604  0.0258 -1.1316 -0.5391
  499SOL    HW2 1497   2.142   2.578   0.674  0.8825  1.3255 -0.3151
  500SOL     OW 1498   0.402   0.568   2.668 -0.0719  0.0682 -0.2649
  500SOL    HW1 1499   0.381   0.654   2.719 -0.3788  1.4147  0.7791
  500SOL    HW2 1500   0.477   0.580   2.600 -0.1013  1.9085 -1.9482
  501SOL     OW 1501   1.725   2.695   1.803  0.5187  0.1806  0.5763
  501SOL    HW1 1502   1.804   2.758   1.816 -3.2478  0.7546 -2.2010
  501SOL    HW2 1503   1.658   2.749   1.747 -0.3729 -3.0326  0.0490
  502SOL     OW 1504   0.277   0.041   2.526  0.1972 -0.0404  0.5630
  502SOL    HW1 1505   0.190   0.045   2.578  1.8245  1.7696 -3.2628
  502SOL    HW2 1506   0.359   0.028   2.584 -0.2097  0.5510 -3.5288
  503SOL     OW 1507   1.904   2.336   2.342  0.1853 -0.1532  0.0779
  503SOL    HW1 1508   1.939   2.334   2.248 -0.1021 -0.0190 -0.0801
  503SOL    HW2 1509   1.882   2.431   2.369 -1.1743 -2.1192  0.6437
  504SOL     OW 1510   2.109   0.087   1.800 -0.5945  0.0573  0.4900
  504SOL    HW1 1511   2.030   0.059   1.858 -0.0221  2.3300 -4.6292
  504SOL    HW2 1512   2.068   0.119   1.711  0.5627  0.9807  2.4159
  505SOL     OW 1513   2.456   1.657   1.511  0.7940  0.8363  0.0031
  505SOL    HW1 1514   2.544   1.689   1.474  0.7001  1.2685 -0.6504
  505SOL    HW2 1515   2.409   1.603   1.437 -0.2659  0.9153  0.0223
  506SOL     OW 1516   0.123   1.424   1.804 -0.2314  0.1273  0.4966
  506SOL    HW1 1517   0.041   1.372   1.835  1.9891 -1.4759 -0.2242
  506SOL    HW2 1518   0.130   1.410   1.704  0.9208 -1.4874 -0.6890
  507SOL     OW 1519   0.519   2.650   1.646  0.4255 -0.0679 -0.0264
  507SOL    HW1 1520   0.569   2.666   1.734 -1.1193 -0.1683 -0.5805
  507SOL    HW2 1521   0.541   2.555   1.613 -0.0995  0.8658 -0.1232
  508SOL     OW 1522   0.828   0.665   1.594 -0.1574  0.1764 -0.4526
  508SOL    HW1 1523   0.878   0.587   1.638  1.1978  0.5191  2.3094
  508SOL    HW2 1524   0.728   0.638   1.582 -2.5250 -3.7347 -0.8914
  509SOL     OW 1525   1.670   2.435   1.851  0.1251  0.1309 -0.0655
  509SOL    HW1 1526   1.669   2.531   1.814 -3.4569 -2.1966 -3.0224
  509SOL    HW2 1527   1.616   2.434   1.937  0.3835  1.9245 -0.8147
  510SOL     OW 1528   2.565   1.299   2.676  0.7558  0.2046  0.3172
  510SOL    HW1 1529   2.607   1.252   2.757 -1.0730 -1.4550 -0.4440
  510SOL    HW2 1530   2.483   1.353   2.704  1.2074  0.4737 -0.3953
  511SOL     OW 1531   0.910   1.206   1.416 -0.0807  0.3953  0.4583
  511SOL    HW1 1532   0.958   1.226   1.327  1.6926  2.4511  1.2862
  511SOL    HW2 1533   0.975   1.221   1.492 -0.3925  3.8895  0.6488
  512SOL     OW 1534   2.604   1.627   0.550  0.6599  0.4648  0.2227
  512SOL    HW1 1535   2.694   1.594   0.581 -3.1666 -0.3552  0.3945
  512SOL    HW2 1536   2.550   1.671   0.631  1.7236  2.2012  0.0886
  513SOL     OW 1537   1.021   1.948   2.297  0.5081 -0.6570 -0.5524
  513SOL    HW1 1538   0.997   2.018   2.372 -0.2544  0.5458  1.0640
  513SOL    HW2 1539   1.117   1.929   2.288 -1.6679  1.1537 -2.0314
  514SOL     OW 1540   0.103   2.281   1.437 -0.2387 -0.1129 -0.3807
  514SOL    HW1 1541   0.049   2.251   1.358  2.2941  1.9425 -0.2626
  514SOL    HW2 1542   0.093   2.218   1.517 -0.1193  2.1023  0.7848
  515SOL     OW 1543   2.096   1.061   1.659  0.4547 -0.6140 -0.0932
  515SOL    HW1 1544   2.187   1.106   1.679 -0.3867 -1.5245  0.1490
  515SOL    HW2 1545   2.033   1.132   1.620  0.7991  0.6479 -1.0372
  516SOL     OW 1546   2.722   0.070   2.962  0.0570  0.0817  0.4478
  516SOL    HW1 1547   2.678   0.096   2.873  3.9766  0.6662 -0.5989
  516SOL    HW2 1548   2.791   0.141   2.983 -0.5477  0.3108  1.9330
  517SOL     OW 1549   1.133   1.720   2.920 -0.1623  0.0244  0.1954
  517SOL    HW1 1550   1.192   1.797   2.894  1.1232  0.7315  2.9163
  517SOL    HW2 1551   1.148   1.634   2.872  1.5333  1.4952 -1.0194
  518SOL     OW 1552   1.472   2.946   1.536 -0.6119 -0.0043  0.1582
  518SOL    HW1 1553   1.557   3.005   1.519  1.1731  2.7311 -0.5511
  518SOL    HW2 1554   1.415   2.948   1.451  1.5571 -2.0980 -0.3210
  519SOL     OW 1555   2.272   2.615   0.742  1.2542 -0.1331 -0.5613
  519SOL    HW1 1556   2.342   2.547   0.725  1.4593 -1.3017 -2.5144
  519SOL    HW2 1557   2.297   2.703   0.696  3.4594 -0.6906 -1.0733
  520SOL     OW 1558   2.886   2.113   1.989  0.4243 -0.6455  0.3383
  520SOL    HW1 1559   2.806   2.076   1.931 -2.0566  3.0410 -1.2032
  520SOL    HW2 1560   2.851   2.144   2.082 -0.9975  1.6429 -1.1652
  521SOL     OW 1561   2.814   0.711   0.006  0.1412 -0.0542  0.6645
  521SOL    HW1 1562   2.911   0.681   3.060  1.3882 -1.0870  0.1719
  521SOL    HW2 1563   2.829   0.793   0.069  1.0036  2.7292  0.3055
  522SOL     OW 1564   0.784   0.883   2.501  0.0259  0.1271 -0.2429
  522SOL    HW1 1565   0.743   0.932   2.579  1.5258 -0.6801  0.9019
  522SOL    HW2 1566   0.725   0.801   2.482 -1.5482  0.7959  2.9206
  523SOL     OW 1567   0.139   2.453   0.709  0.2003 -0.0982  0.3932
  523SOL    HW1 1568   0.224   2.480   0.759 -0.1666 -0.6493  0.0830
  523SOL    HW2 1569   0.157   2.369   0.653  0.4448 -1.2575 -1.0141
  524SOL     OW 1570   1.917   2.467   2.958 -0.5826 -0.4465 -0.0293
  524SOL    HW1 1571   2.009   2.472   2.909  0.8695  0.2130  1.7970
  524SOL    HW2 1572   1.929   2.392   3.028  0.6463  0.8079 -2.0567
  525SOL     OW 1573   2.565   0.471   1.279 -0.0398 -0.0165 -0.2047
  525SOL    HW1 1574   2.598   0.566   1.289  0.3819 -0.9605 -2.3623
  525SOL    HW2 1575   2.471   0.464   1.257  3.9839  1.8079  1.7109
  526SOL     OW 1576   1.173   2.753   0.434 -0.3328 -0.4020  0.1441
  526SOL    HW1 1577   1.209   2.822   0.500 -0.9581  1.2788 -2.2692
  526SOL    HW2 1578   1.169   2.657   0.474 -2.4352  1.0524 -1.0411
  527SOL     OW 1579   2.142   2.868   0.464 -0.0824  0.1671  0.0060
  527SOL    HW1 1580   2.108   2.802   0.394  1.1555 -0.3692 -0.9725
  527SOL    HW2 1581   2.134   2.968   0.433 -2.6524 -0.0043  0.1809
  528SOL     OW 1582   1.652   0.791   2.828 -0.1123 -0.2244 -0.8702
  528SOL    HW1 1583   1.698   0.785   2.738 -1.6998  0.1608  1.1081
  528SOL    HW2 1584   1.692   0.732   2.897 -1.4852  2.9649  0.5861
  529SOL     OW 1585   1.499   1.476   2.350  0.3346 -0.0541  0.2419
  529SOL    HW1 1586   1.413   1.526   2.365  0.2201 -0.6342 -2.0302
  529SOL    HW2 1587   1.521   1.433   2.439 -0.4075 -0.1876 -1.4234
  530SOL     OW 1588   2.559   2.876   2.946 -0.6453 -0.0221  0.1253
  530SOL    HW1 1589   2.458   2.891   2.931 -1.4032 -0.8274  1.8899
  530SOL    HW2 1590   2.603   2.961   2.984 -0.0219 -0.8319 -0.6389
  531SOL     OW 1591   1.847   1.482   3.031 -0.1422 -0.4875  0.0015
  531SOL    HW1 1592   1.748   1.475   2.994 -2.3145 -3.5599 -1.4459
  531SOL    HW2 1593   1.870   1.577   3.060 -1.3077  0.6559 -4.0959
  532SOL     OW 1594   1.526   0.138   1.184  0.3650 -0.2552  0.4550
  532SOL    HW1 1595   1.477   0.192   1.252 -1.6081 -1.2146 -0.5407
  532SOL    HW2 1596   1.614   0.179   1.159  0.5542  0.7743 -1.8834
  533SOL     OW 1597   0.628   0.859   2.835 -0.2802  0.2638  0.1497
  533SOL    HW1 1598   0.651   0.949   2.799  0.1823 -1.7654  1.7207
  533SOL    HW2 1599   0.688   0.839   2.913 -2.6984  0.0692 -2.1223
  534SOL     OW 1600   1.313   0.305   0.124 -0.3976  0.6349  0.2242
  534SOL    HW1 1601   1.352   0.370   0.056 -0.1664 -1.9127  1.1888
  534SOL    HW2 1602   1.381   0.227   0.136  2.0251  0.3471 -2.4485
  535SOL     OW 1603   0.706   2.175   2.927 -0.0048 -0.1848 -0.0057
  535SOL    HW1 1604   0.617   2.224   2.910 -2.2094 -0.5836 -1.0368
  535SOL    HW2 1605   0.693   2.103   2.998  3.4823  2.0475 -2.0824
  536SOL     OW 1606   0.594   2.857   0.370 -0.8855  0.5771  0.4807
  536SOL    HW1 1607   0.625   2.929   0.302 -1.4740  1.9959  0.6257
  536SOL    HW2 1608   0.646   2.771   0.355  1.8451 -0.8947  0.7003
  537SOL     OW 1609   1.822   0.475   0.222 -0.0515  0.3622 -0.1802
  537SOL    HW1 1610   1.837   0.417   0.305 -0.5383  0.8915 -2.4256
  537SOL    HW2 1611   1.732   0.524   0.243 -2.0681  0.9616  1.3003
  538SOL     OW 1612   2.545   2.231   2.820 -0.2768 -0.0010  0.2536
  538SOL    HW1 1613   2.623   2.176   2.788 -2.3672  1.5303  2.9435
  538SOL    HW2 1614   2.473   2.244   2.745  0.0096  1.3117 -0.8695
  539SOL     OW 1615   2.518   1.423   2.992  0.1349 -0.2169 -0.0922
  539SOL    HW1 1616   2.421   1.447   2.978 -0.8251 -0.5253  2.9104
  539SOL    HW2 1617   2.541   1.331   2.960 -0.0206  0.0738 -0.2880
  540SOL     OW 1618   0.798   2.961   1.810  0.2463  0.2079 -0.2415
  540SOL    HW1 1619   0.854   3.037   1.844 -1.9169 -4.3803 -0.2565
  540SOL    HW2 1620   0.760   2.977   1.716  1.3021  2.4872 -1.8986
  541SOL     OW 1621   2.392   0.069   2.408 -0.4161  0.4240 -0.8256
  541SOL    HW1 1622   2.308   0.113   2.453  1.6990  1.5784  1.6530
  541SOL    HW2 1623   2.368   3.055   2.404  1.0985  0.3067 -1.0435
  542SOL     OW 1624   0.257   0.732   3.068  0.0963  0.2553  0.2055
  542SOL    HW1 1625   0.165   0.711   3.036  0.5609 -0.3392 -0.3020
  542SOL    HW2 1626   0.265   0.823   0.027  1.8295 -2.1918  0.1097
  543SOL     OW 1627   0.351   0.895   0.991  0.0829  0.1965 -0.3366
  543SOL    HW1 1628   0.285   0.965   0.967  1.6435  1.2188  1.2076
  543SOL    HW2 1629   0.306   0.803   0.999  0.9546  0.8316  1.1297
  544SOL     OW 1630   2.640   0.741   1.295 -0.6627  0.3547  0.2279
  544SOL    HW1 1631   2.742   0.741   1.286 -2.0522 -0.7678  3.3884
  544SOL    HW2 1632   2.602   0.833   1.326 -2.7392 -0.7704  1.7892
  545SOL     OW 1633   1.133   1.790   0.302 -0.1095 -0.3427 -0.2552
  545SOL    HW1 1634   1.197   1.866   0.311 -0.3653 -2.1952 -0.1685
  545SOL    HW2 1635   1.166   1.730   0.225 -0.1963 -0.0402 -0.4631
  546SOL     OW 1636   2.389   2.580   1.539  0.2001  0.4889  0.4860
  546SOL    HW1 1637   2.376   2.487   1.579 -0.9316  3.2342  2.8097
  546SOL    HW2 1638   2.369   2.581   1.440  0.7874  0.1794 -2.2842
  547SOL     OW 1639   0.825   2.133   2.175 -0.4058  0.1887  0.5030
  547SOL    HW1 1640   0.923   2.106   2.186  0.0482 -0.0845  1.8270
  547SOL    HW2 1641   0.783   2.148   2.270  1.7450  2.9018  0.4736
  548SOL     OW 1642   1.246   0.710   2.880 -0.5129  0.0328 -0.2238
  548SOL    HW1 1643   1.150   0.739   2.869  2.4059  1.0564  1.2928
  548SOL    HW2 1644   1.275   0.713   2.975 -0.0403  1.0023 -1.4546
  549SOL     OW 1645   2.407   0.612   0.288 -0.0108  0.2561 -0.4859
  549SOL    HW1 1646   2.344   0.549   0.240 -2.9063  1.0663  1.9568
  549SOL    HW2 1647   2.356   0.692   0.326  0.7840 -0.2150 -1.3438
  550SOL     OW 1648   2.029   1.106   0.184  0.0598 -0.1544 -0.3327
  550SOL    HW1 1649   2.116   1.156   0.196 -0.4402  0.6739 -1.2481
  550SOL    HW2 1650   1.957   1.182   0.170  2.2982  1.3970 -0.9979
  551SOL     OW 1651   1.799   0.246   1.469  0.3737 -0.4988  0.0630
  551SOL    HW1 1652   1.756   0.286   1.554  0.5079 -1.7273 -1.9416
  551SOL    HW2 1653   1.791   0.317   1.394 -1.5281 -0.0983  0.9968
  552SOL     OW 1654   1.871   0.068   2.746  0.3029 -0.3550  0.3981
  552SOL    HW1 1655   1.931   0.150   2.752 -0.5407 -3.8997  1.0600
  552SOL    HW2 1656   1.895   3.083   2.817 -0.2549 -2.3022  3.3147
  553SOL     OW 1657   0.702   2.983   2.116  0.3565 -0.3364  0.8130
  553SOL    HW1 1658   0.744   3.034   2.034 -0.5044  0.5797 -2.7837
  553SOL    HW2 1659   0.602   2.960   2.096 -0.7009  2.5577 -1.8459
  554SOL     OW 1660   0.209   0.073   1.435  0.0728  0.5007 -0.2601
  554SOL    HW1 1661   0.249   0.142   1.499 -0.4590  1.5850  0.6744
  554SOL    HW2 1662   0.277   0.042   1.363 -1.5335  0.6631  0.0530
  555SOL     OW 1663   2.311   1.699   2.177 -0.0577 -0.0933 -0.3235
  555SOL    HW1 1664   2.407   1.708   2.143  0.1850  0.5747 -0.6039
  555SOL    HW2 1665   2.294   1.599   2.210  1.1639 -1.2758  0.2466
  556SOL     OW 1666   1.048   0.434   0.117 -0.1718  0.2931 -1.0185
  556SOL    HW1 1667   1.147   0.401   0.123  0.8467 -1.7794  1.5777
  556SOL    HW2 1668   0.988   0.374   0.064 -1.0583 -0.8882  1.7742
  557SOL     OW 1669   0.278   2.023   2.290 -0.5660 -0.6593 -0.1308
  557SOL    HW1 1670   0.364   2.067   2.251  0.9838 -1.9380  0.7737
  557SOL    HW2 1671   0.253   1.939   2.237 -0.0784  1.5378  0.3014
  558SOL     OW 1672   1.981   0.535   2.803 -0.1526 -0.0875 -0.8319
  558SOL    HW1 1673   2.034   0.579   2.729 -1.0028  1.0858  0.7508
  558SOL    HW2 1674   2.004   0.595   2.885 -0.1439  1.5918  0.9500
  559SOL     OW 1675   2.274   1.934   1.569  0.0911 -0.6700 -0.6335
  559SOL    HW1 1676   2.318   1.840   1.569 -0.0757 -1.2469 -0.0407
  559SOL    HW2 1677   2.283   1.977   1.663 -1.5727  1.6285  1.3677
  560SOL     OW 1678   1.999   0.953   2.105  0.2256 -0.0979 -0.4194
  560SOL    HW1 1679   2.014   0.904   2.013  1.6954 -0.9234 -1.2263
  560SOL    HW2 1680   2.002   1.058   2.099 -1.2527 -0.0373  1.9316
  561SOL     OW 1681   0.099   0.067   2.895 -0.2509 -0.5731 -0.4206
  561SOL    HW1 1682   0.023   0.015   2.848  0.1413 -0.5034 -1.4044
  561SOL    HW2 1683   0.190   0.026   2.891  0.2298  0.8696  0.7221
  562SOL     OW 1684   1.071   1.772   1.426  0.1826  0.0293 -0.2925
  562SOL    HW1 1685   1.163   1.742   1.461  1.1993 -2.0497  3.9248
  562SOL    HW2 1686   1.079   1.794   1.325 -0.5790  2.4142 -1.1831
  563SOL     OW 1687   0.896   0.183   0.108  0.0587  0.1821  0.0727
  563SOL    HW1 1688   0.944   0.153   0.196  1.1203 -2.2197  3.0381
  563SOL    HW2 1689   0.795   0.164   0.109 -0.8183  0.8897 -1.5310
  564SOL     OW 1690   3.070   2.660   0.766  0.7673 -0.5658 -0.1509
  564SOL    HW1 1691   0.037   2.573   0.739  0.5496  0.2494  0.4131
  564SOL    HW2 1692   2.972   2.661   0.730 -0.9965 -0.5780 -1.8782
  565SOL     OW 1693   0.479   2.184   1.197 -0.1078 -0.0352  0.5887
  565SOL    HW1 1694   0.422   2.220   1.273  1.5087 -0.9612 -0.0603
  565SOL    HW2 1695   0.459   2.091   1.164 -0.3230  2.0103 -0.3420
  566SOL     OW 1696   1.247   0.134   2.710 -0.2420  0.6489  0.2936
  566SOL    HW1 1697   1.340   0.115   2.671  1.3790 -1.4221 -5.0113
  566SOL    HW2 1698   1.178   0.117   2.638  1.7225 -1.6704  0.6760
  567SOL     OW 1699   2.179   3.041   0.860  0.7130  0.1225 -0.3891
  567SOL    HW1 1700   2.276   3.042   0.878  0.0761 -1.2949  0.6561
  567SOL    HW2 1701   2.151   3.016   0.766 -2.5792 -1.2042  0.8248
  568SOL     OW 1702   1.582   1.522   0.652  0.1124  0.0314 -0.1379
  568SOL    HW1 1703   1.660   1.567   0.602  2.2430  2.1064 -2.1056
  568SOL    HW2 1704   1.492   1.551   0.607 -3.0232  1.3086  0.3840
  569SOL     OW 1705   2.211   1.024   2.382 -0.2907 -0.0693  0.1335
  569SOL    HW1 1706   2.176   0.932   2.390 -0.9130  2.8053  3.9688
  569SOL    HW2 1707   2.297   1.046   2.431 -0.2164 -0.5953 -1.3133
  570SOL     OW 1708   2.947   0.036   2.114  0.5237  0.0475  0.6222
  570SOL    HW1 1709   2.990   0.124   2.140  1.3529  0.8987 -0.4119
  570SOL    HW2 1710   3.014   3.052   2.081  0.2925  2.1592 -2.5771
  571SOL     OW 1711   0.442   2.926   1.692  0.3489  0.2883 -0.0787
  571SOL    HW1 1712   0.468   2.839   1.743 -3.6632  0.6070  2.9497
  571SOL    HW2 1713   0.362   2.911   1.635  1.1577 -0.7205  0.9246
  572SOL     OW 1714   2.998   2.214   1.266  0.2097  1.1205 -0.0279
  572SOL    HW1 1715   2.957   2.295   1.308 -1.4142 -3.1001  0.0474
  572SOL    HW2 1716   2.948   2.203   1.176 -0.1395  0.8414 -4.1740
  573SOL     OW 1717   0.984   0.748   2.790 -0.0118  0.0761 -0.3521
  573SOL    HW1 1718   0.908   0.685   2.765  0.1819 -1.7063  0.9516
  573SOL    HW2 1719   0.963   0.842   2.755  0.4055  2.8052 -0.5811
  574SOL     OW 1720   2.493   2.577   2.457 -0.2354  0.5971  0.1008
  574SOL    HW1 1721   2.465   2.650   2.395 -1.0413 -2.1817  2.1479
  574SOL    HW2 1722   2.467   2.485   2.417  0.2103 -0.9114 -0.7675
  575SOL     OW 1723   1.176   2.796   0.930  0.0547  0.0799 -0.6998
  575SOL    HW1 1724   1.188   2.889   0.971  0.1692  2.6193  0.6202
  575SOL    HW2 1725   1.192   2.730   1.008 -0.4544 -1.7831 -0.7811
  576SOL     OW 1726   1.144   0.542   1.062  0.0550 -0.3547 -0.1779
  576SOL    HW1 1727   1.158   0.446   1.029 -0.5895  0.6612 -0.4646
  576SOL    HW2 1728   1.103   0.596   0.985  2.4178 -0.9530 -0.6236
  577SOL     OW 1729   2.091   1.392   0.519  0.3635  0.0279 -0.0786
  577SOL    HW1 1730   2.160   1.382   0.447 -1.9703 -0.2158 -0.2863
  577SOL    HW2 1731   2.071   1.308   0.571  0.8212  1.4203 -1.5572
  578SOL     OW 1732   2.039   0.730   1.008  0.3174 -0.2449 -0.0854
  578SOL    HW1 1733   1.951   0.777   1.031 -1.4012 -1.0135 -0.9290
  578SOL    HW2 1734   2.063   0.660   1.079  1.4642 -0.1220 -0.8662
  579SOL     OW 1735   1.786   0.783   2.579 -0.0639  0.3583 -0.0394
  579SOL    HW1 1736   1.736   0.709   2.530  0.4152 -1.3763  0.1084
  579SOL    HW2 1737   1.774   0.863   2.524  0.0163 -2.4822  2.5211
  580SOL     OW 1738   1.494   0.918   1.978 -0.0919 -0.1683  0.4725
  580SOL    HW1 1739   1.427   0.989   1.948  1.2848  1.9219  1.0130
  580SOL    HW2 1740   1.450   0.834   2.010 -2.4444 -1.5700  1.2828
  581SOL     OW 1741   0.202   0.662   1.032 -0.4353 -0.2609 -0.3313
  581SOL    HW1 1742   0.101   0.664   1.019 -0.6221  1.8673  2.3715
  581SOL    HW2 1743   0.250   0.595   0.973  2.4362  2.0859 -0.2401
  582SOL     OW 1744   2.912   0.448   1.803  0.2848 -0.0708 -0.3025
  582SOL    HW1 1745   2.842   0.462   1.728  2.2569  0.6060  0.5056
  582SOL    HW2 1746   2.871   0.435   1.893  2.0694  2.6750  2.2347
  583SOL     OW 1747   0.209   0.484   2.485  0.1409 -0.2746 -0.0940
  583SOL    HW1 1748   0.283   0.511   2.553 -1.6716 -2.4190  0.3748
  583SOL    HW2 1749   0.210   0.385   2.460  0.1751 -2.5842  1.8639
  584SOL     OW 1750   1.980   2.295   0.080 -0.0539  0.2311  0.2846
  584SOL    HW1 1751   1.990   2.199   0.063 -0.3469  0.8735  0.7231
  584SOL    HW2 1752   1.908   2.317   0.147  1.9163 -0.4458  1.7813
  585SOL     OW 1753   0.050   2.256   3.067  0.1838 -0.4325 -0.0566
  585SOL    HW1 1754   0.047   2.156   3.041 -0.0509  1.9132 -0.9693
  585SOL    HW2 1755   0.150   2.276   3.069  0.6688  1.1817  0.0179
  586SOL     OW 1756   1.831   1.808   2.182 -0.6923 -0.5935 -0.0201
  586SOL    HW1 1757   1.788   1.767   2.101  3.0559 -0.1670  0.5679
  586SOL    HW2 1758   1.887   1.886   2.145 -3.5411  0.3091 -1.6434
  587SOL     OW 1759   2.327   1.708   2.715 -0.1790 -0.2460  0.3956
  587SOL    HW1 1760   2.338   1.620   2.765 -0.0782  0.1259 -0.8985
  587SOL    HW2 1761   2.233   1.746   2.723 -0.8554  0.2175  0.7465
  588SOL     OW 1762   2.960   0.311   1.274 -0.3587  0.5858 -0.0751
  588SOL    HW1 1763   2.978   0.356   1.185 -1.3290  0.9382 -2.6965
  588SOL    HW2 1764   3.013   0.357   1.348 -0.0078 -1.9442 -1.7292
  589SOL     OW 1765   0.996   0.334   0.559 -0.0496  0.2217  0.0837
  589SOL    HW1 1766   0.999   0.415   0.491 -1.7580  2.6016  1.5356
  589SOL    HW2 1767   0.931   0.353   0.633  1.5719 -0.1588  0.9159
  590SOL     OW 1768   2.535   2.011   0.601  0.4764  0.2623  0.2869
  590SOL    HW1 1769   2.439   2.039   0.618  0.3105  0.3478  0.1865
  590SOL    HW2 1770   2.546   2.010   0.499  1.4860  0.2934 -0.0008
  591SOL     OW 1771   0.571   2.644   1.021 -0.1893  0.0733  0.1086
  591SOL    HW1 1772   0.575   2.544   0.998 -0.8392 -0.0195 -0.8965
  591SOL    HW2 1773   0.489   2.686   0.983  1.5563 -0.4489  4.5913
  592SOL     OW 1774   1.444   1.097   1.140  0.7803  0.3006 -0.6846
  592SOL    HW1 1775   1.418   1.174   1.204  0.1986  1.6968  0.8523
  592SOL    HW2 1776   1.408   1.005   1.167 -2.5276  3.4250 -0.9260
  593SOL     OW 1777   1.118   2.203   1.616  0.1369  0.1009 -0.7413
  593SOL    HW1 1778   1.104   2.279   1.549  1.0756 -3.0798 -1.8140
  593SOL    HW2 1779   1.206   2.221   1.664 -1.0195  1.0758 -1.7091
  594SOL     OW 1780   0.977   1.419   0.168 -0.0234 -0.4961 -0.3574
  594SOL    HW1 1781   0.996   1.319   0.156 -3.4762  1.4145  0.5026
  594SOL    HW2 1782   0.972   1.432   0.269 -0.7152 -3.4904 -0.0049
  595SOL     OW 1783   1.598   1.162   1.478  0.9394 -0.3500 -0.4857
  595SOL    HW1 1784   1.659   1.207   1.542  0.1838 -2.6330 -4.2135
  595SOL    HW2 1785   1.570   1.222   1.399 -1.8178 -0.3095  0.3803
  596SOL     OW 1786   2.884   1.194   2.230  0.3238  0.4935  0.0447
  596SOL    HW1 1787   2.916   1.229   2.317  0.0881 -1.2660 -3.1784
  596SOL    HW2 1788   2.955   1.148   2.173  1.3736 -0.5879  1.7006
  597SOL     OW 1789   1.360   2.705   1.883  0.3556  0.0408  0.1305
  597SOL    HW1 1790   1.315   2.795   1.891  0.6071  1.3548  0.5647
  597SOL    HW2 1791   1.415   2.678   1.965 -0.3860 -0.4256 -0.4954
  598SOL     OW 1792   2.272   1.357   1.470 -0.2010  0.1860  0.1683
  598SOL    HW1 1793   2.297   1.418   1.396 -0.5071  0.9957  1.5926
  598SOL    HW2 1794   2.178   1.385   1.496  1.9416 -3.3069 -1.4542
  599SOL     OW 1795   0.748   2.641   2.887 -0.3497 -0.4220  0.0352
  599SOL    HW1 1796   0.668   2.645   2.947  0.2433 -0.3164 -4.4085
  599SOL    HW2 1797   0.803   2.562   2.918 -0.2687 -0.4563 -2.4122
  600SOL     OW 1798   3.011   2.216   0.291  0.1813 -0.1636 -0.0401
  600SOL    HW1 1799   2.950   2.132   0.311 -2.3527 -2.9948  2.1178
  600SOL    HW2 1800   3.077   2.202   0.214  1.4000 -1.4066 -1.0322
  601SOL     OW 1801   0.544   0.878   1.512 -0.0677 -0.1051  0.0657
  601SOL    HW1 1802   0.465   0.885   1.448 -0.9040  2.3047  1.2198
  601SOL    HW2 1803   0.555   0.780   1.543 -0.8397 -4.0044  0.0976
  602SOL     OW 1804   0.583   0.053   1.158  0.0007 -0.1751  0.6704
  602SOL    HW1 1805   0.674   0.084   1.190  0.6135 -0.2916  0.0995
  602SOL    HW2 1806   0.595   0.023   1.067  2.5825  0.0912  1.2625
  603SOL     OW 1807   0.462   0.023   2.732  0.0632  0.3280  0.3560
  603SOL    HW1 1808   0.491   0.109   2.686 -3.3472  0.1259 -0.7996
  603SOL    HW2 1809   0.513   3.028   2.689  1.9164 -1.4812 -0.9281
  604SOL     OW 1810   1.095   2.396   1.438 -0.1233 -0.4977 -0.0228
  604SOL    HW1 1811   1.191   2.389   1.401  2.7433  0.3595  0.4678
  604SOL    HW2 1812   1.035   2.419   1.357 -0.0363  0.7208 -2.3935
  605SOL     OW 1813   1.645   1.188   1.935 -0.6918  0.5290  0.4650
  605SOL    HW1 1814   1.678   1.228   1.846  0.8005  0.5861 -1.7098
  605SOL    HW2 1815   1.546   1.175   1.932  2.0900  0.5711 -1.2304
  606SOL     OW 1816   2.116   2.866   3.053  0.2923 -0.2137 -0.0764
  606SOL    HW1 1817   2.132   2.777   0.009  3.7720  1.1104 -0.4116
  606SOL    HW2 1818   2.183   2.897   2.987  0.1222  0.2972  1.5201
  607SOL     OW 1819   0.699   0.216   1.851 -0.0694 -0.0318 -0.4596
  607SOL    HW1 1820   0.653   0.213   1.755 -2.5552  1.1624 -1.5068
  607SOL    HW2 1821   0.789   0.172   1.844 -2.7192  2.6623 -0.0756
  608SOL     OW 1822   0.268   2.213   1.962  0.6534 -0.0510  0.3183
  608SOL    HW1 1823   0.223   2.125   1.949 -1.4213  0.5221  0.0608
  608SOL    HW2 1824   0.281   2.266   1.875  0.7315 -0.0960 -1.6657
  609SOL     OW 1825   1.040   0.891   0.161 -0.1484  0.1910 -0.7600
  609SOL    HW1 1826   1.004   0.868   0.256 -2.6060  2.4160 -0.6257
  609SOL    HW2 1827   1.047   0.808   0.100 -0.3585 -1.3807 -0.2270
  610SOL     OW 1828   0.227   2.880   1.096 -0.3770  0.5070 -0.0306
  610SOL    HW1 1829   0.256   2.962   1.151  0.8834 -1.0608 -0.1683
  610SOL    HW2 1830   0.221   2.802   1.157 -1.2185  0.4557 -0.8815
  611SOL     OW 1831   0.879   1.303   0.681 -0.5434  0.3555  0.0440
  611SOL    HW1 1832   0.790   1.281   0.633  2.0512  2.0445 -0.2075
  611SOL    HW2 1833   0.944   1.223   0.681  1.4665 -3.8496  0.4399
  612SOL     OW 1834   2.125   2.015   0.316  0.3128  0.1630 -0.0247
  612SOL    HW1 1835   2.208   2.040   0.263 -2.5691 -2.5090  1.4136
  612SOL    HW2 1836   2.138   1.921   0.354 -0.4859 -0.4069 -0.4566
  613SOL     OW 1837   1.406   1.581   0.346 -0.2902 -0.1285  0.1800
  613SOL    HW1 1838   1.503   1.581   0.308  2.6822 -0.0608  0.4684
  613SOL    HW2 1839   1.347   1.516   0.301  0.9509  0.6201  1.5277
  614SOL     OW 1840   2.817   0.415   2.517  0.5400  0.3171 -0.4772
  614SOL    HW1 1841   2.751   0.439   2.442 -1.8702  3.4471 -1.4549
  614SOL    HW2 1842   2.887   0.483   2.534 -1.6248 -0.7136 -0.0132
  615SOL     OW 1843   0.776   1.549   0.408  0.3919  0.1753 -0.0777
  615SOL    HW1 1844   0.873   1.548   0.437  0.4467  0.2616  0.5891
  615SOL    HW2 1845   0.727   1.502   0.487  1.5141 -0.4507  2.0743
  616SOL     OW 1846   1.428   0.914   2.764 -0.2306  0.2274 -0.3446
  616SOL    HW1 1847   1.518   0.867   2.796  2.9750 -1.0854  1.1932
  616SOL    HW2 1848   1.353   0.868   2.817  0.6338 -2.2173  0.4864
  617SOL     OW 1849   1.496   0.397   0.508 -0.1417  0.6271  0.2119
  617SOL    HW1 1850   1.581   0.387   0.450  1.8042  2.3418 -1.4922
  617SOL    HW2 1851   1.407   0.368   0.465 -0.4766  0.7946 -2.4365
  618SOL     OW 1852   2.892   1.835   2.370 -0.0861 -0.1048 -0.1928
  618SOL    HW1 1853   2.932   1.748   2.338 -0.4163  0.0448  0.2016
  618SOL    HW2 1854   2.788   1.828   2.372 -2.3168  1.4657  0.4549
  619SOL     OW 1855   2.249   1.696   0.850  0.0890  0.3113  0.5344
  619SOL    HW1 1856   2.232   1.784   0.893 -0.9113 -3.4483 -3.3553
  619SOL    HW2 1857   2.353   1.684   0.837  2.9932  0.2558 -0.6059
  620SOL     OW 1858   2.244   0.028   1.262 -0.1737  0.5027 -0.1737
  620SOL    HW1 1859   2.193   0.106   1.218 -0.2821  1.7901 -1.9587
  620SOL    HW2 1860   2.193   3.027   1.266  0.3866  0.0650  0.3263
  621SOL     OW 1861   3.068   2.166   0.695 -0.7601 -0.1287 -0.8025
  621SOL    HW1 1862   2.988   2.144   0.642  4.3582  3.2661  1.5384
  621SOL    HW2 1863   3.045   2.205   0.785  0.7797 -0.2799  0.6592
  622SOL     OW 1864   0.617   1.658   2.037 -0.5535 -0.8627 -0.1171
  622SOL    HW1 1865   0.537   1.722   2.046 -2.3295  1.2898 -1.6831
  622SOL    HW2 1866   0.705   1.711   2.022  3.1244  0.5297 -0.7508
  623SOL     OW 1867   2.492   2.812   2.329  0.0745  0.2949 -0.2698
  623SOL    HW1 1868   2.407   2.859   2.363 -1.1032  3.2847  2.4968
  623SOL    HW2 1869   2.578   2.843   2.381  1.7013 -1.0348  3.4048
  624SOL     OW 1870   0.677   1.909   0.297  0.2635 -0.6921  0.1244
  624SOL    HW1 1871   0.769   1.885   0.332  2.0985  2.9300 -1.8541
  624SOL    HW2 1872   0.678   1.886   0.195 -0.8983  0.3013 -3.6294
  625SOL     OW 1873   0.856   1.826   2.126  0.4109 -0.1505  0.1545
  625SOL    HW1 1874   0.929   1.785   2.067  0.9487  0.2088 -0.2658
  625SOL    HW2 1875   0.905   1.877   2.197  0.8752  1.4085  2.3206
  626SOL     OW 1876   0.054   2.454   0.395  0.2829 -0.0320 -0.5027
  626SOL    HW1 1877   0.134   2.416   0.447 -0.4120  0.5296  0.3267
  626SOL    HW2 1878   0.002   2.375   0.355 -1.2051 -0.9303  1.8844
  627SOL     OW 1879   1.208   1.697   2.323 -0.0120  0.2001  0.2207
  627SOL    HW1 1880   1.179   1.597   2.311  1.4312  2.7529 -0.7674
  627SOL    HW2 1881   1.155   1.743   2.399  1.7410  0.9846  0.3669
  628SOL     OW 1882   1.292   1.998   0.244 -0.5877  0.3537 -0.0671
  628SOL    HW1 1883   1.210   2.062   0.239  0.3880  0.6654  1.1122
  628SOL    HW2 1884   1.379   2.046   0.263 -0.4002  1.3672 -0.1809
  629SOL     OW 1885   0.973   0.504   1.775 -0.6413  0.0811 -0.3903
  629SOL    HW1 1886   0.936   0.566   1.845  0.3261 -5.9236  0.1585
  629SOL    HW2 1887   1.073   0.531   1.770  2.3362 -2.6689 -2.9574
  630SOL     OW 1888   2.437   0.091   1.587  0.4391 -0.1869  0.5470
  630SOL    HW1 1889   2.511   0.051   1.535  1.2489  0.3523 -1.9449
  630SOL    HW2 1890   2.381   0.013   1.617  0.1492  1.9543 -0.8184
  631SOL     OW 1891   1.483   0.646   0.628 -0.5524  0.0040  0.8920
  631SOL    HW1 1892   1.415   0.668   0.702 -1.3422  0.6745  0.5907
  631SOL    HW2 1893   1.480   0.545   0.614  0.6808  0.6437 -1.4544
  632SOL     OW 1894   2.117   0.400   2.058  0.2873 -0.1404 -0.0138
  632SOL    HW1 1895   2.150   0.495   2.071  0.8261 -1.6818  3.1189
  632SOL    HW2 1896   2.074   0.377   1.969 -0.1006  1.7898  0.2080
  633SOL     OW 1897   1.421   1.177   2.806 -0.0979 -0.1552  0.2890
  633SOL    HW1 1898   1.322   1.189   2.776 -0.4732 -1.6388 -0.6466
  633SOL    HW2 1899   1.452   1.081   2.799  0.9769 -1.6875  2.0544
  634SOL     OW 1900   0.334   2.046   0.169  0.6617  0.0527  0.1186
  634SOL    HW1 1901   0.408   2.104   0.202 -0.6612 -0.6857 -2.6695
  634SOL    HW2 1902   0.338   2.038   0.068  1.2731 -0.7980 -0.6719
  635SOL     OW 1903   2.787   1.612   2.061 -0.1231  0.0079  0.6546
  635SOL    HW1 1904   2.872   1.568   2.090  0.4254 -1.0881 -0.1646
  635SOL    HW2 1905   2.742   1.564   1.980 -0.8036 -1.6694 -4.2845
  636SOL     OW 1906   0.408   1.760   2.661  0.2266 -0.0348 -0.1837
  636SOL    HW1 1907   0.351   1.682   2.690 -0.3089 -1.9543  0.2482
  636SOL    HW2 1908   0.360   1.834   2.608 -0.9537  2.8429 -2.5875
  637SOL     OW 1909   2.861   2.008   0.397 -0.0757 -0.1658  0.4894
  637SOL    HW1 1910   2.885   1.922   0.441  0.3409  0.9831  1.4643
  637SOL    HW2 1911   2.814   2.073   0.462 -1.1797 -0.9605  0.1923
  638SOL     OW 1912   2.583   2.682   0.443 -0.3095 -0.2023 -0.2399
  638SOL    HW1 1913   2.509   2.729   0.500  1.7817 -0.1573  0.9639
  638SOL    HW2 1914   2.562   2.585   0.423  3.6212  0.1816  0.9870
  639SOL     OW 1915   0.986   0.530   0.374  0.1781  0.1720 -0.4231
  639SOL    HW1 1916   1.042   0.485   0.300  5.6517  1.0097  2.0054
  639SOL    HW2 1917   0.992   0.632   0.365 -1.2680 -0.7220 -0.3045
  640SOL     OW 1918   2.370   2.362   1.908 -0.2151 -0.1357 -0.5120
  640SOL    HW1 1919   2.467   2.387   1.902 -1.2388 -2.3475 -2.5387
  640SOL    HW2 1920   2.329   2.377   1.815  0.9768  2.9294 -0.3892
  641SOL     OW 1921   2.447   2.814   1.284  0.0734  0.5666 -0.6729
  641SOL    HW1 1922   2.356   2.855   1.261  2.7162 -1.8312  0.3797
  641SOL    HW2 1923   2.505   2.879   1.336  2.1657 -1.5429  0.2542
  642SOL     OW 1924   1.139   0.944   1.584  0.1206 -0.4460 -0.0693
  642SOL    HW1 1925   1.066   0.927   1.513 -2.0163  1.0589  0.1717
  642SOL    HW2 1926   1.229   0.906   1.561  1.0459 -0.8053 -2.4152
  643SOL     OW 1927   0.953   1.301   2.095  0.5272 -0.0082 -0.3166
  643SOL    HW1 1928   0.921   1.208   2.067 -1.1110  1.3506 -1.3139
  643SOL    HW2 1929   0.989   1.356   2.019  1.4727 -2.0066  4.0828
  644SOL     OW 1930   1.167   0.309   2.232  0.6961 -0.0785  0.0628
  644SOL    HW1 1931   1.078   0.345   2.258 -0.1915 -0.5044 -2.1625
  644SOL    HW2 1932   1.231   0.312   2.313  1.5216  1.7310 -0.9988
  645SOL     OW 1933   1.925   1.265   1.493 -0.0425  0.0502  0.2143
  645SOL    HW1 1934   1.903   1.240   1.396 -1.7837 -1.7498 -0.5620
  645SOL    HW2 1935   1.958   1.360   1.492 -1.1540  2.8255  0.7102
  646SOL     OW 1936   1.576   2.294   0.129 -0.3489  0.0041 -0.6614
  646SOL    HW1 1937   1.576   2.349   0.041  0.9193  1.2594 -0.8652
  646SOL    HW2 1938   1.597   2.195   0.102  1.5469 -4.1415  0.8239
  647SOL     OW 1939   1.453   2.478   0.902  0.8232 -0.0121 -0.2567
  647SOL    HW1 1940   1.550   2.467   0.872  0.9835  2.6502 -0.7124
  647SOL    HW2 1941   1.390   2.445   0.832  0.1594 -1.4917  2.2190
  648SOL     OW 1942   0.086   2.540   1.461  1.3642  0.3239  0.1170
  648SOL    HW1 1943   0.005   2.554   1.523 -0.0004 -0.6270  1.7978
  648SOL    HW2 1944   0.098   2.442   1.444 -0.2345  0.5449  0.0418
  649SOL     OW 1945   1.075   2.562   2.657  0.1224 -0.0760  0.2858
  649SOL    HW1 1946   1.108   2.555   2.753  1.3413 -1.4303  0.4327
  649SOL    HW2 1947   1.150   2.546   2.585 -0.0175  1.7148 -1.4558
  650SOL     OW 1948   2.700   1.698   0.049 -0.0549 -0.4267 -0.1232
  650SOL    HW1 1949   2.720   1.711   0.147 -0.8845 -0.5463  1.4024
  650SOL    HW2 1950   2.599   1.696   0.038 -2.3797  1.0647 -1.0273
  651SOL     OW 1951   2.370   2.128   2.311  0.3713  0.4737 -0.5214
  651SOL    HW1 1952   2.451   2.145   2.372 -0.7211 -0.8707  0.3627
  651SOL    HW2 1953   2.291   2.077   2.359 -0.5733 -0.6152 -0.7116
  652SOL     OW 1954   2.501   2.432   0.414  0.4274 -0.4121  0.3636
  652SOL    HW1 1955   2.447   2.398   0.337 -0.0350  2.2973  2.7147
  652SOL    HW2 1956   2.595   2.396   0.404  0.4528  1.0741  0.2704
  653SOL     OW 1957   2.703   1.773   1.469 -0.5802 -0.0212  0.2442
  653SOL    HW1 1958   2.676   1.856   1.415  1.0197 -0.8500  0.4380
  653SOL    HW2 1959   2.804   1.762   1.462  4.2957 -1.1856 -0.4252
  654SOL     OW 1960   0.601   1.076   0.076 -0.2339 -0.7676 -0.0862
  654SOL    HW1 1961   0.676   1.144   0.079 -1.9069  3.7381 -1.2997
  654SOL    HW2 1962   0.626   0.987   0.041 -0.9534 -0.5825 -1.3833
  655SOL     OW 1963   1.176   1.108   0.959  0.0021 -0.2543 -0.0424
  655SOL    HW1 1964   1.203   1.017   0.993  0.0165  0.3929  1.1614
  655SOL    HW2 1965   1.253   1.172   0.955 -2.0520 -0.0715  0.5773
  656SOL     OW 1966   1.452   2.627   2.115 -0.0936 -0.2040  0.0473
  656SOL    HW1 1967   1.374   2.647   2.178 -3.7909 -0.7367 -0.5589
  656SOL    HW2 1968   1.486   2.531   2.123 -0.1369 -1.1623 -2.5958
  657SOL     OW 1969   1.669   1.404   0.314  0.0423  0.1254 -0.5952
  657SOL    HW1 1970   1.599   1.345   0.267  1.8627 -2.3079 -0.0888
  657SOL    HW2 1971   1.673   1.503   0.287  3.9282  0.3722 -0.4302
  658SOL     OW 1972   1.926   2.956   1.825 -0.1472 -0.3806 -0.4865
  658SOL    HW1 1973   2.003   2.940   1.890 -0.6635  2.7197  2.0517
  658SOL    HW2 1974   1.949   2.944   1.726  0.3939 -1.5661 -0.4203
  659SOL     OW 1975   2.699   1.741   0.315 -0.0842 -0.4285 -0.3272
  659SOL    HW1 1976   2.796   1.721   0.307 -1.1079 -0.7072 -1.1056
  659SOL    HW2 1977   2.661   1.685   0.390 -1.3618  0.6627 -1.8140
  660SOL     OW 1978   1.145   0.296   0.945 -0.3057 -0.3855 -0.0455
  660SOL    HW1 1979   1.063   0.235   0.966  0.7323  0.4779 -0.7777
  660SOL    HW2 1980   1.229   0.231   0.925  1.9964  3.4501 -2.5900
  661SOL     OW 1981   1.784   0.327   3.075 -0.6507  0.1374 -0.2710
  661SOL    HW1 1982   1.798   0.379   0.077 -0.6537  1.0152 -1.1860
  661SOL    HW2 1983   1.809   0.224   3.079  0.8635 -2.6212  1.6860
  662SOL     OW 1984   0.495   0.021   0.483  0.0606 -0.2188 -0.1953
  662SOL    HW1 1985   0.445   3.072   0.565 -0.1235  1.2629 -1.2870
  662SOL    HW2 1986   0.572   3.045   0.460 -1.0352 -1.5948  2.4918
  663SOL     OW 1987   1.283   2.524   2.492  0.2108 -0.4972  0.0347
  663SOL    HW1 1988   1.297   2.586   2.414 -1.9874 -0.6240 -1.6454
  663SOL    HW2 1989   1.363   2.460   2.497 -0.4690  0.6436  1.0387
  664SOL     OW 1990   0.560   2.408   1.506  0.1733  0.3350 -0.0120
  664SOL    HW1 1991   0.474   2.349   1.494 -3.7343 -1.5018  0.9350
  664SOL    HW2 1992   0.574   2.462   1.422 -0.7283  0.4158  2.8127
  665SOL     OW 1993   1.715   2.633   1.188  0.0041  0.5101  0.0611
  665SOL    HW1 1994   1.624   2.660   1.148 -5.7073 -0.5932 -0.7855
  665SOL    HW2 1995   1.703   2.594   1.283  0.5329  0.5493  1.1955
  666SOL     OW 1996   0.855   2.444   2.547 -0.0897 -0.0477  0.0714
  666SOL    HW1 1997   0.781   2.453   2.615  1.7103  0.5061  0.1381
  666SOL    HW2 1998   0.949   2.446   2.590  1.8092  0.5608  2.3759
  667SOL     OW 1999   2.999   0.694   1.512  0.2876 -0.5419 -0.3294
  667SOL    HW1 2000   2.923   0.707   1.578 -3.1276 -0.9385 -1.3931
  667SOL    HW2 2001   3.061   0.610   1.534  1.6158 -2.7969  1.1637
  668SOL     OW 2002   1.059   0.197   1.653  0.5132 -0.1779 -0.5944
  668SOL    HW1 2003   1.126   0.192   1.576 -0.7729 -1.1118  0.3477
  668SOL    HW2 2004   0.991   0.273   1.631  0.9490  3.1496 -1.1839
  669SOL     OW 2005   1.978   2.630   1.141  0.2352 -0.1176 -0.2721
  669SOL    HW1 2006   1.875   2.640   1.141 -1.1857  2.2451 -2.2504
  669SOL    HW2 2007   2.009   2.727   1.127  0.7160  1.4639  0.5561
  670SOL     OW 2008   1.557   2.308   2.849  0.0578  0.2693  0.5855
  670SOL    HW1 2009   1.477   2.247   2.836  0.8083  1.0421 -0.5748
  670SOL    HW2 2010   1.613   2.330   2.766  0.2369 -0.3888  3.0473
  671SOL     OW 2011   0.291   1.000   0.120  0.0347 -0.2957 -0.0768
  671SOL    HW1 2012   0.339   1.070   0.063  0.4728  2.3508  0.2384
  671SOL    HW2 2013   0.224   1.038   0.189 -0.3493 -0.5703  0.7195
  672SOL     OW 2014   2.652   0.440   2.734 -0.5586  0.4900  0.2923
  672SOL    HW1 2015   2.651   0.525   2.786  1.9436 -3.1714  0.4806
  672SOL    HW2 2016   2.694   0.443   2.641 -2.0080 -1.3471  0.4591
  673SOL     OW 2017   0.174   1.987   1.227 -0.4173  0.0747  0.1453
  673SOL    HW1 2018   0.089   1.983   1.282  0.6821  0.0505  0.8347
  673SOL    HW2 2019   0.168   2.049   1.147 -0.5655  0.1288  0.7582
  674SOL     OW 2020   1.445   2.162   1.552  0.4702 -0.3047 -0.0198
  674SOL    HW1 2021   1.403   2.107   1.626  0.9665 -2.8344  2.1716
  674SOL    HW2 2022   1.501   2.097   1.499 -0.3059 -1.1214  4.4663
  675SOL     OW 2023   1.139   1.520   1.232 -0.0150  0.7596 -0.2630
  675SOL    HW1 2024   1.208   1.585   1.194 -2.4195 -2.5081 -2.7401
  675SOL    HW2 2025   1.063   1.522   1.166  1.2830  0.2648  0.7967
  676SOL     OW 2026   2.448   0.703   1.096 -0.8181  0.3722 -0.2067
  676SOL    HW1 2027   2.398   0.788   1.077  1.3254  0.2506 -0.4248
  676SOL    HW2 2028   2.519   0.711   1.169  0.0567  2.0183  2.5920
  677SOL     OW 2029   2.624   0.235   0.339  0.1984 -0.6233  0.6537
  677SOL    HW1 2030   2.685   0.169   0.381 -1.1332  0.4292 -4.3313
  677SOL    HW2 2031   2.658   0.266   0.248 -0.2581 -0.6657  1.4326
  678SOL     OW 2032   2.516   1.301   1.125 -0.4552  0.0611 -0.4150
  678SOL    HW1 2033   2.600   1.271   1.175  1.1858 -0.4123 -1.2344
  678SOL    HW2 2034   2.544   1.335   1.033 -1.6379 -0.5223  0.7740
  679SOL     OW 2035   2.736   0.310   0.104 -0.0527  0.3358  0.2324
  679SOL    HW1 2036   2.680   0.396   0.101 -0.1299  0.1351 -0.8397
  679SOL    HW2 2037   2.809   0.311   0.032  0.4249 -2.6259  0.1447
  680SOL     OW 2038   0.594   1.519   2.280  0.0598  0.1594  0.2553
  680SOL    HW1 2039   0.609   1.558   2.184  1.9226  2.3010 -1.6650
  680SOL    HW2 2040   0.514   1.563   2.324  4.0385 -1.9345 -0.8536
  681SOL     OW 2041   2.703   2.209   1.717  0.1278  0.3945  0.1763
  681SOL    HW1 2042   2.677   2.305   1.732  0.0082 -1.8974 -1.8418
  681SOL    HW2 2043   2.673   2.157   1.798 -0.1900 -1.3255 -2.4064
  682SOL     OW 2044   0.652   1.869   2.614  0.5233  0.0964  0.5930
  682SOL    HW1 2045   0.568   1.813   2.639 -1.5085 -0.8215 -1.4669
  682SOL    HW2 2046   0.636   1.967   2.626  3.1276  1.2634  1.5671
  683SOL     OW 2047   2.679   2.012   1.321 -0.0628  0.3373 -0.0222
  683SOL    HW1 2048   2.656   2.030   1.224 -0.8924  1.5127  0.1553
  683SOL    HW2 2049   2.660   2.101   1.374 -0.6921  1.3541 -1.7600
  684SOL     OW 2050   2.628   1.456   1.899  0.3743  0.2737  0.4636
  684SOL    HW1 2051   2.544   1.507   1.879  0.6790 -0.8215 -1.1920
  684SOL    HW2 2052   2.609   1.355   1.887  0.5916 -1.0494 -1.0568
  685SOL     OW 2053   0.796   1.050   0.976  0.0705  0.4280 -0.1225
  685SOL    HW1 2054   0.793   1.148   0.973  2.0605 -1.4127 -0.0698
  685SOL    HW2 2055   0.868   1.015   1.045  1.4585  1.7463 -1.4649
  686SOL     OW 2056   0.834   0.008   2.907  0.6701  0.2911  0.1200
  686SOL    HW1 2057   0.898   3.017   2.933 -4.0453 -1.7660  0.4786
  686SOL    HW2 2058   0.850   0.094   2.956 -1.1850  0.1435 -1.8610
  687SOL     OW 2059   0.627   1.970   2.018 -0.1554 -0.7977 -0.5963
  687SOL    HW1 2060   0.662   2.023   1.935  2.6594  2.2279 -0.6411
  687SOL    HW2 2061   0.709   1.950   2.077  0.3913 -0.0663 -0.3517
  688SOL     OW 2062   2.051   0.151   1.523 -0.2200  0.1327 -0.4156
  688SOL    HW1 2063   1.968   0.194   1.477 -1.2215  0.6689 -2.2896
  688SOL    HW2 2064   2.139   0.204   1.515  0.7401  0.7839 -1.1057
  689SOL     OW 2065   1.960   0.878   0.591  0.7191  0.2132 -0.4212
  689SOL    HW1 2066   1.860   0.855   0.606 -0.5654 -1.7507  0.2974
  689SOL    HW2 2067   2.022   0.823   0.655 -0.1977  1.3416  1.3199
  690SOL     OW 2068   2.925   1.034   1.222 -0.7418 -0.0534 -0.2961
  690SOL    HW1 2069   2.984   1.087   1.290 -2.7651  1.2687  1.8748
  690SOL    HW2 2070   2.932   0.935   1.248 -0.2969 -0.8464  1.0015
  691SOL     OW 2071   0.276   0.974   1.960 -0.6851  0.0819 -0.1177
  691SOL    HW1 2072   0.281   1.067   1.918  4.2878 -0.3890 -0.9044
  691SOL    HW2 2073   0.372   0.960   1.996 -0.2750  1.3133  0.3460
  692SOL     OW 2074   0.813   0.945   1.732  0.0435  0.0565  0.5666
  692SOL    HW1 2075   0.878   0.888   1.676  2.1886  0.4110  0.6137
  692SOL    HW2 2076   0.714   0.932   1.707  0.9570  0.1599 -2.7929
  693SOL     OW 2077   0.549   1.206   1.915  0.5700 -0.1295  1.1611
  693SOL    HW1 2078   0.535   1.129   1.852  0.2516 -0.7091 -2.2995
  693SOL    HW2 2079   0.473   1.205   1.979  1.7617  0.6366 -1.8879
  694SOL     OW 2080   1.423   1.804   0.514  0.0019  0.5969 -0.2095
  694SOL    HW1 2081   1.518   1.823   0.543 -1.2873  1.1987  0.3678
  694SOL    HW2 2082   1.422   1.734   0.442  1.0837 -1.4797  3.3993
  695SOL     OW 2083   0.129   1.097   0.997 -0.4192  0.1070 -0.0945
  695SOL    HW1 2084   0.147   1.194   0.980 -0.9620 -0.3972 -3.5757
  695SOL    HW2 2085   0.103   1.045   0.916  1.7655  0.4654  2.8059
  696SOL     OW 2086   0.688   2.401   0.504  0.7237  0.2615  0.0720
  696SOL    HW1 2087   0.647   2.314   0.473  1.1234  5.0607  2.9086
  696SOL    HW2 2088   0.779   2.388   0.545  0.4886  0.1874  0.2660
  697SOL     OW 2089   1.251   0.608   1.519 -0.3794 -0.0117 -0.6014
  697SOL    HW1 2090   1.283   0.704   1.512 -0.5246 -0.8991  0.7304
  697SOL    HW2 2091   1.197   0.591   1.438  0.7801 -0.5180  0.1875
  698SOL     OW 2092   1.821   1.529   1.754  0.2695 -0.0978 -0.3022
  698SOL    HW1 2093   1.778   1.557   1.842 -2.5830  0.7168 -3.0415
  698SOL    HW2 2094   1.883   1.601   1.722  1.0074  0.6831 -3.7961
  699SOL     OW 2095   0.174   0.819   2.512 -0.4795 -0.1200 -0.0708
  699SOL    HW1 2096   0.081   0.819   2.471 -0.1664 -0.2714 -1.1517
  699SOL    HW2 2097   0.249   0.792   2.453 -4.2145 -0.6287  1.8793
  700SOL     OW 2098   1.637   2.316   0.532 -0.4161 -0.4598 -0.1236
  700SOL    HW1 2099   1.717   2.331   0.467  0.8586 -0.2163  0.3094
  700SOL    HW2 2100   1.575   2.393   0.532 -0.3470 -1.2253  1.9148
  701SOL     OW 2101   0.131   1.731   2.461 -0.1126 -0.7190  0.2452
  701SOL    HW1 2102   0.091   1.668   2.528 -0.0711  1.2544  0.1287
  701SOL    HW2 2103   0.149   1.822   2.500 -1.5948 -1.0351 -2.5519
  702SOL     OW 2104   0.508   0.162   2.988  0.3945 -0.3051 -0.0073
  702SOL    HW1 2105   0.516   0.073   2.938 -1.8575  0.3173  1.8898
  702SOL    HW2 2106   0.453   0.225   2.929 -1.8108  0.1504 -0.4754
  703SOL     OW 2107   1.429   0.498   3.018 -0.3684  0.4512 -0.0915
  703SOL    HW1 2108   1.520   0.494   2.966  1.8247  0.4826 -1.1658
  703SOL    HW2 2109   1.356   0.526   2.954  1.8754 -1.1058 -0.1274
  704SOL     OW 2110   2.769   1.670   0.909 -0.0544 -0.0020  0.0872
  704SOL    HW1 2111   2.787   1.696   1.006 -0.1925  0.1298  1.5959
  704SOL    HW2 2112   2.810   1.736   0.844 -0.2271 -2.5523  0.1194
  705SOL     OW 2113   2.574   1.764   2.118  0.5291  0.1616  0.8438
  705SOL    HW1 2114   2.657   1.712   2.080 -1.2468  0.9396  1.5647
  705SOL    HW2 2115   2.590   1.792   2.212 -1.4892 -0.5610  2.6043
  706SOL     OW 2116   2.957   2.825   1.067 -0.4122  0.0500  0.4529
  706SOL    HW1 2117   2.925   2.840   0.970 -0.9287  0.6953 -4.0787
  706SOL    HW2 2118   3.055   2.794   1.061 -1.1370 -1.8268  1.0837
  707SOL     OW 2119   0.928   2.940   0.180  0.4812  0.4847  0.2720
  707SOL    HW1 2120   0.924   2.860   0.249 -0.5537 -1.7364  1.6554
  707SOL    HW2 2121   0.996   3.007   0.208 -2.1355  3.7694  2.5615
  708SOL     OW 2122   0.917   2.032   1.421  0.1433  0.2926  0.0002
  708SOL    HW1 2123   0.950   1.939   1.458 -2.1678  0.3132  2.6070
  708SOL    HW2 2124   0.906   2.102   1.494  1.3068 -0.1427  0.3539
  709SOL     OW 2125   1.846   0.424   2.419  0.0895  0.0201 -0.1201
  709SOL    HW1 2126   1.827   0.384   2.510  3.1730  1.4607 -2.8069
  709SOL    HW2 2127   1.943   0.461   2.415 -1.7104 -1.7283  0.9625
  710SOL     OW 2128   1.274   2.912   2.534 -0.2585 -0.2790  0.2388
  710SOL    HW1 2129   1.207   2.968   2.485  1.7862 -2.9129  0.8257
  710SOL    HW2 2130   1.239   2.899   2.632 -1.9901 -0.2293  2.5871
  711SOL     OW 2131   1.191   2.284   2.325  0.9266 -0.2480  0.5414
  711SOL    HW1 2132   1.237   2.315   2.409 -0.1688  2.2086  5.0938
  711SOL    HW2 2133   1.184   2.357   2.253  0.6676 -0.7153 -1.7546
  712SOL     OW 2134   1.158   2.153   2.861  0.4576 -0.0721 -0.0187
  712SOL    HW1 2135   1.078   2.115   2.808 -1.2315 -1.7097  0.9106
  712SOL    HW2 2136   1.126   2.165   2.957 -1.0381  2.9691 -3.0368
  713SOL     OW 2137   1.120   0.841   1.869  0.2865 -0.0415 -0.0325
  713SOL    HW1 2138   1.142   0.886   1.783 -1.9078 -0.3528  0.4013
  713SOL    HW2 2139   1.151   0.746   1.866  0.1907  1.0013 -1.2542
  714SOL     OW 2140   1.509   1.822   0.964  0.2726  0.1548  0.0084
  714SOL    HW1 2141   1.566   1.854   0.885  0.8096  0.0682 -0.2440
  714SOL    HW2 2142   1.477   1.905   1.014  0.9596  0.7007 -0.6152
  715SOL     OW 2143   0.095   0.491   0.564 -0.0651 -0.0658 -0.0637
  715SOL    HW1 2144   0.096   0.402   0.510 -0.5053 -2.3693  0.7889
  715SOL    HW2 2145   0.035   0.558   0.518  0.7040  0.0423  0.1333
  716SOL     OW 2146   0.692   2.578   0.239  0.2784  0.1619 -0.7831
  716SOL    HW1 2147   0.787   2.607   0.237 -0.9470 -1.1833 -2.3818
  716SOL    HW2 2148   0.676   2.492   0.290 -0.6322 -1.2868 -2.6506
  717SOL     OW 2149   2.978   0.405   0.336  0.4205 -0.2565  0.0975
  717SOL    HW1 2150   3.043   0.344   0.384  1.9573 -1.6101 -1.2782
  717SOL    HW2 2151   2.899   0.357   0.294  0.8340  2.9575 -1.5964
  718SOL     OW 2152   1.904   2.170   1.090 -0.1007  0.7821 -0.6981
  718SOL    HW1 2153   1.999   2.189   1.052 -2.1705 -3.2643  3.2703
  718SOL    HW2 2154   1.876   2.238   1.160  0.8649 -0.4724  0.6248
  719SOL     OW 2155   2.968   2.434   0.967 -0.0607  0.0398 -0.1774
  719SOL    HW1 2156   2.927   2.342   0.953 -0.4838 -1.0204  1.1071
  719SOL    HW2 2157   2.992   2.494   0.891 -3.0031 -1.8776  2.3351
  720SOL     OW 2158   1.073   1.238   1.180 -0.1547 -0.1724 -0.7088
  720SOL    HW1 2159   1.126   1.320   1.196  0.9012 -1.4903 -0.1044
  720SOL    HW2 2160   1.094   1.210   1.085  0.9929 -4.5871  1.1934
  721SOL     OW 2161   1.402   0.575   1.155  0.0791 -0.1878  0.2264
  721SOL    HW1 2162   1.318   0.555   1.099 -4.3434  1.0441 -1.1704
  721SOL    HW2 2163   1.492   0.585   1.101  1.7411 -0.5615  0.4143
  722SOL     OW 2164   1.359   1.215   1.642  0.2036  0.2916  0.4382
  722SOL    HW1 2165   1.436   1.179   1.584 -0.7503  1.5340 -1.8782
  722SOL    HW2 2166   1.288   1.254   1.578 -0.1245 -0.3155  0.1744
  723SOL     OW 2167   0.947   2.861   1.496  0.2856 -0.6420 -0.6722
  723SOL    HW1 2168   0.880   2.784   1.485 -0.3457  0.6302 -0.6070
  723SOL    HW2 2169   1.042   2.826   1.516  0.9373 -0.4805 -0.4611
  724SOL     OW 2170   2.112   2.181   1.769  0.6443 -0.5606 -0.2790
  724SOL    HW1 2171   2.170   2.104   1.806  1.9037 -0.9107 -3.1505
  724SOL    HW2 2172   2.085   2.158   1.674  0.8129  0.9340  0.7712
  725SOL     OW 2173   0.946   2.826   1.193  0.0606  0.2072  0.7128
  725SOL    HW1 2174   0.916   2.820   1.289 -2.3915  0.1985  1.9532
  725SOL    HW2 2175   0.993   2.741   1.167  1.2503 -3.4650  0.4531
  726SOL     OW 2176   1.532   0.144   0.193  0.4264  0.2655 -0.5811
  726SOL    HW1 2177   1.573   0.148   0.286 -1.4407 -0.9398  0.9399
  726SOL    HW2 2178   1.604   0.141   0.123 -1.5643  2.6111  1.1262
  727SOL     OW 2179   1.274   2.027   0.596 -0.2584 -0.2460 -0.3400
  727SOL    HW1 2180   1.352   2.086   0.628  1.7868  0.1328 -0.0187
  727SOL    HW2 2181   1.317   1.938   0.567  1.2019  0.5948  0.0579
  728SOL     OW 2182   1.816   0.198   2.222  0.1054  0.5171  0.1784
  728SOL    HW1 2183   1.794   0.260   2.293 -1.5335 -5.1026 -3.2764
  728SOL    HW2 2184   1.917   0.200   2.206  0.0302  0.0236  1.1654
  729SOL     OW 2185   2.314   1.554   1.275 -0.4785  0.1251  0.3768
  729SOL    HW1 2186   2.229   1.609   1.270  0.0166  1.8787 -2.5308
  729SOL    HW2 2187   2.381   1.563   1.196 -0.0356  0.2157 -3.5415
  730SOL     OW 2188   2.067   0.735   2.589 -0.3075  0.8145  0.3733
  730SOL    HW1 2189   2.134   0.804   2.619 -0.4300  0.8821  2.0150
  730SOL    HW2 2190   1.971   0.773   2.604 -1.8105 -0.3531  1.2392
  731SOL     OW 2191   0.571   0.169   1.609 -0.5591 -0.4524  0.3846
  731SOL    HW1 2192   0.538   0.225   1.531  0.5877  2.9698 -1.0946
  731SOL    HW2 2193   0.490   0.149   1.672 -1.3297 -0.7789  0.3952
  732SOL     OW 2194   1.781   0.274   1.135  0.5847 -0.0540 -0.0711
  732SOL    HW1 2195   1.809   0.331   1.214 -0.1564  2.3447  0.6954
  732SOL    HW2 2196   1.795   0.325   1.048  0.6662 -0.6029  2.4834
  733SOL     OW 2197   1.043   1.190   1.677  0.3057 -0.3597  0.3091
  733SOL    HW1 2198   0.946   1.190   1.708 -1.2234 -0.4275  0.6940
  733SOL    HW2 2199   1.083   1.100   1.667  4.2275  1.8210  1.1280
  734SOL     OW 2200   2.398   1.516   0.393 -0.0906 -0.0698  0.2898
  734SOL    HW1 2201   2.380   1.613   0.360 -1.3101  4.1868  0.4146
  734SOL    HW2 2202   2.460   1.519   0.473 -1.1419  0.8907 -0.9060
  735SOL     OW 2203   0.632   0.763   0.316  0.2737  0.6244 -0.2073
  735SOL    HW1 2204   0.643   0.799   0.222  1.5901 -3.8239  0.4884
  735SOL    HW2 2205   0.670   0.672   0.328 -1.0261  1.8882 -0.0127
  736SOL     OW 2206   1.744   2.668   2.949  0.2439  0.2151 -0.3129
  736SOL    HW1 2207   1.808   2.590   2.962  0.1814  2.1522  1.0539
  736SOL    HW2 2208   1.651   2.639   2.927 -0.4566  0.4794 -0.6395
  737SOL     OW 2209   1.095   1.963   0.784 -0.2480 -0.2472 -0.4209
  737SOL    HW1 2210   1.124   1.875   0.828  0.9682  1.5726  0.2349
  737SOL    HW2 2211   1.160   1.979   0.703 -1.0640 -1.5292  0.3012
  738SOL     OW 2212   2.213   0.223   2.555  0.1487 -0.0499  0.6566
  738SOL    HW1 2213   2.288   0.281   2.592 -1.4284  0.8957  1.0342
  738SOL    HW2 2214   2.116   0.261   2.558 -2.9836  1.2382  0.2598
  739SOL     OW 2215   1.654   2.223   2.349 -0.3208 -0.5982 -0.0858
  739SOL    HW1 2216   1.655   2.123   2.324 -1.3566  1.9453  0.5495
  739SOL    HW2 2217   1.750   2.261   2.364  2.0024  0.7186  0.4276
  740SOL     OW 2218   1.880   2.267   1.896 -0.1488  0.3189  0.2273
  740SOL    HW1 2219   1.808   2.332   1.865  1.3649  3.1685  1.5404
  740SOL    HW2 2220   1.955   2.252   1.828 -2.6905  4.8368 -0.6515
  741SOL     OW 2221   2.415   1.683   2.465 -0.1763  0.2932  0.1220
  741SOL    HW1 2222   2.341   1.688   2.397  0.5454  2.6367  0.4055
  741SOL    HW2 2223   2.384   1.705   2.561 -1.4719  2.0457  1.3326
  742SOL     OW 2224   0.934   1.402   2.840  0.0950 -0.1812  0.6063
  742SOL    HW1 2225   1.034   1.415   2.831 -0.0565 -0.3962 -0.9723
  742SOL    HW2 2226   0.885   1.427   2.752  0.8559  3.0213 -1.8052
  743SOL     OW 2227   1.547   1.306   2.568  0.3828 -0.0191 -0.0618
  743SOL    HW1 2228   1.498   1.267   2.486  0.3391 -0.0827  2.1465
  743SOL    HW2 2229   1.507   1.265   2.652 -0.3091 -0.3451  0.1007
  744SOL     OW 2230   2.166   2.852   1.328  0.0097  0.2539  0.1702
  744SOL    HW1 2231   2.151   2.785   1.407  1.6819  2.7142  2.3341
  744SOL    HW2 2232   2.135   2.829   1.234 -0.3825  0.5745  0.9490
  745SOL     OW 2233   2.388   1.117   0.926 -0.0234 -0.0472  0.2326
  745SOL    HW1 2234   2.439   1.170   1.001  2.5218  0.4040  2.0006
  745SOL    HW2 2235   2.335   1.180   0.865 -1.0245 -0.9462 -0.2012
  746SOL     OW 2236   2.448   1.919   1.087  0.0148  0.1443  0.2437
  746SOL    HW1 2237   2.477   1.820   1.089 -0.5347 -0.6908 -1.8137
  746SOL    HW2 2238   2.396   1.946   1.171  0.9994 -0.1421 -2.3264
  747SOL     OW 2239   1.870   3.017   0.335 -0.3050  0.2075 -0.0241
  747SOL    HW1 2240   1.795   3.069   0.383 -1.0158 -1.1579  2.7008
  747SOL    HW2 2241   1.827   2.926   0.313  0.6263 -1.7933  0.6503
  748SOL     OW 2242   0.782   1.687   0.157  0.5030 -0.4989 -0.5207
  748SOL    HW1 2243   0.773   1.654   0.254  0.0308  1.9687 -0.4983
  748SOL    HW2 2244   0.788   1.605   0.095  0.7127  1.8730  4.6201
  749SOL     OW 2245   2.881   0.401   2.094 -0.3644  0.6160  0.3772
  749SOL    HW1 2246   2.875   0.475   2.165 -4.3488  1.2270 -0.6996
  749SOL    HW2 2247   2.964   0.340   2.100  0.2145 -0.7592 -2.5841
  750SOL     OW 2248   1.210   0.593   1.792  0.1685  0.0084 -0.2375
  750SOL    HW1 2249   1.278   0.540   1.846 -0.7420  1.2554  0.1390
  750SOL    HW2 2250   1.228   0.598   1.691  0.4232 -0.0431  1.2343
  751SOL     OW 2251   2.218   2.526   2.087 -0.5438 -0.2351 -0.0821
  751SOL    HW1 2252   2.294   2.468   2.049  1.7416  0.0913  2.2926
  751SOL    HW2 2253   2.230   2.619   2.050  3.8083  0.0116 -0.8493
  752SOL     OW 2254   1.861   1.261   1.224  0.1869  0.3465  0.0932
  752SOL    HW1 2255   1.823   1.167   1.200  0.7262 -0.0496  0.0717
  752SOL    HW2 2256   1.955   1.268   1.194 -4.4623 -0.8221  3.1952
  753SOL     OW 2257   1.209   0.892   2.116  0.0185  0.0607 -0.2099
  753SOL    HW1 2258   1.171   0.866   2.022  0.4817  1.7062  0.5884
  753SOL    HW2 2259   1.283   0.825   2.148  1.4403 -1.5066 -0.1435
  754SOL     OW 2260   0.374   2.486   0.858  0.3246 -0.0752 -0.4375
  754SOL    HW1 2261   0.400   2.582   0.858 -1.4976 -2.3517  1.4761
  754SOL    HW2 2262   0.345   2.460   0.955 -1.3618 -1.1064 -1.0218
  755SOL     OW 2263   2.498   0.044   1.201  0.0192  0.3448  0.2489
  755SOL    HW1 2264   2.547   0.005   1.283  0.3476  0.1404 -0.2509
  755SOL    HW2 2265   2.398   0.039   1.218  0.2676  0.1411 -1.1538
  756SOL     OW 2266   1.984   2.011   2.059  0.4547  0.0017  0.2037
  756SOL    HW1 2267   2.064   2.049   2.110  1.1329 -1.3897  1.3917
  756SOL    HW2 2268   1.936   2.080   2.002  1.4427  2.7144  0.3151
  757SOL     OW 2269   2.809   2.963   1.917 -0.3062  0.0054  0.1901
  757SOL    HW1 2270   2.849   3.002   1.836  0.1241  0.3758  1.2322
  757SOL    HW2 2271   2.833   3.012   2.002 -0.0022 -1.3237  0.5366
  758SOL     OW 2272   0.532   2.611   1.296 -0.8046  0.5544  0.0326
  758SOL    HW1 2273   0.544   2.620   1.195 -0.7813  1.3706 -1.2110
  758SOL    HW2 2274   0.521   2.702   1.339 -1.1190 -0.9672  1.4555
  759SOL     OW 2275   2.014   1.046   1.021  0.2851 -0.6525  0.0910
  759SOL    HW1 2276   1.953   1.085   0.954 -0.3769  0.4186  0.3727
  759SOL    HW2 2277   2.080   1.113   1.058  0.8203 -1.4489 -0.1139
  760SOL     OW 2278   1.417   0.390   1.581  0.5038  0.0609  0.3202
  760SOL    HW1 2279   1.381   0.315   1.643 -2.1790 -0.7537 -1.2336
  760SOL    HW2 2280   1.347   0.462   1.552 -2.2129 -0.8388 -2.9860
  761SOL     OW 2281   2.101   0.227   1.119 -0.1866  0.5691 -0.2195
  761SOL    HW1 2282   2.096   0.234   1.020 -2.5224 -1.3392  0.6754
  761SOL    HW2 2283   2.011   0.210   1.158  0.2907  0.3991 -0.3464
  762SOL     OW 2284   1.662   0.119   0.431  0.7672  0.3023  0.3426
  762SOL    HW1 2285   1.678   0.181   0.509 -4.3734 -1.8901  0.4195
  762SOL    HW2 2286   1.609   0.031   0.451  1.0812 -1.5810  1.1885
  763SOL     OW 2287   0.876   0.425   1.301  0.1892 -0.6228 -0.3278
  763SOL    HW1 2288   0.866   0.389   1.398 -0.0980 -0.6018 -2.1228
  763SOL    HW2 2289   0.786   0.459   1.261  1.5322  0.4449 -0.3075
  764SOL     OW 2290   2.314   2.397   2.325  0.6352 -0.0883  0.0138
  764SOL    HW1 2291   2.337   2.301   2.318 -2.9234  2.8322 -0.1119
  764SOL    HW2 2292   2.295   2.443   2.235 -0.7419  0.4100 -2.9484
  765SOL     OW 2293   0.054   1.391   2.323 -0.4377 -0.0892  0.3150
  765SOL    HW1 2294   0.128   1.324   2.338  0.3158  1.9937  0.8026
  765SOL    HW2 2295   0.052   1.451   2.408 -0.4443  1.9452  3.1288
  766SOL     OW 2296   2.946   0.949   2.455 -0.5516 -0.0589 -0.0130
  766SOL    HW1 2297   2.998   0.891   2.387 -1.1547 -0.2083  3.5535
  766SOL    HW2 2298   2.847   0.921   2.460  0.7663 -2.3413 -1.4123
  767SOL     OW 2299   0.409   2.015   1.633 -0.1058 -0.1937 -0.5593
  767SOL    HW1 2300   0.452   1.948   1.571 -0.5564  3.4244 -0.4371
  767SOL    HW2 2301   0.334   1.976   1.688 -0.6209  0.9513 -2.2887
  768SOL     OW 2302   0.758   0.842   3.073 -0.2039 -0.5844 -0.1092
  768SOL    HW1 2303   0.741   0.743   3.065  0.8046  3.1046  0.8858
  768SOL    HW2 2304   0.854   0.861   0.014 -0.3053  0.4584 -0.7799
  769SOL     OW 2305   1.291   2.563   0.084 -0.2796  0.1525  0.1253
  769SOL    HW1 2306   1.298   2.655   0.132  0.3789  1.2649  1.0436
  769SOL    HW2 2307   1.306   2.485   0.150 -1.7855 -0.4808 -0.2715
  770SOL     OW 2308   1.125   0.071   2.459  0.3270  0.2054  0.5368
  770SOL    HW1 2309   1.187   0.136   2.415 -3.3389 -1.1107  0.7765
  770SOL    HW2 2310   1.028   0.074   2.422 -3.0009  0.0400 -1.2562
  771SOL     OW 2311   0.754   2.801   0.701 -0.0158 -0.0693  0.1171
  771SOL    HW1 2312   0.699   2.751   0.632  1.5859 -0.4373 -1.4959
  771SOL    HW2 2313   0.718   2.790   0.795  0.4890 -1.4883 -0.8729
  772SOL     OW 2314   2.599   1.110   0.074 -0.0110  1.1722 -0.5851
  772SOL    HW1 2315   2.565   1.188   0.128 -2.0790  1.9282  0.9182
  772SOL    HW2 2316   2.670   1.059   0.125  0.7572  2.0050 -2.5821
  773SOL     OW 2317   2.007   0.852   1.801 -0.0526  0.3276 -0.1442
  773SOL    HW1 2318   2.047   0.759   1.782 -0.2875 -1.3635 -1.0735
  773SOL    HW2 2319   2.058   0.926   1.756 -0.2003 -2.5390 -0.6093
  774SOL     OW 2320   0.695   0.202   0.542  0.2333 -0.0663 -0.2662
  774SOL    HW1 2321   0.723   0.281   0.481 -1.4544  0.6899  1.6765
  774SOL    HW2 2322   0.615   0.151   0.501 -0.4614  0.2026 -1.4077
  775SOL     OW 2323   1.698   0.295   0.662 -0.1869  0.1254  0.5737
  775SOL    HW1 2324   1.711   0.298   0.764  0.5898  1.4924 -1.2404
  775SOL    HW2 2325   1.600   0.316   0.631 -0.6772 -1.8041  0.9055
  776SOL     OW 2326   2.549   0.287   2.337  0.0415 -0.0560  0.2798
  776SOL    HW1 2327   2.593   0.267   2.249 -1.1420  1.0450 -0.7094
  776SOL    HW2 2328   2.485   0.211   2.363 -0.6804 -1.1602 -0.1128
  777SOL     OW 2329   1.267   1.402   0.204  0.5041  0.3071  0.0343
  777SOL    HW1 2330   1.244   1.481   0.142  3.1967 -0.2239 -2.7434
  777SOL    HW2 2331   1.182   1.364   0.245 -0.5482  0.1099  1.2850
  778SOL     OW 2332   0.259   2.534   0.231  0.0564 -0.2282 -0.3152
  778SOL    HW1 2333   0.185   2.519   0.302 -0.6302  0.3996  1.5089
  778SOL    HW2 2334   0.294   2.633   0.237 -0.7071 -0.4191  0.0705
  779SOL     OW 2335   2.932   1.626   0.262  0.0779 -0.2932  0.1188
  779SOL    HW1 2336   2.894   1.543   0.217  1.7178 -1.5421 -0.3536
  779SOL    HW2 2337   3.030   1.608   0.291  1.8845 -0.6968  1.9456
  780SOL     OW 2338   1.717   0.284   1.950 -0.6115  0.2669 -0.2987
  780SOL    HW1 2339   1.720   0.299   2.053  0.6966  0.1505  2.2820
  780SOL    HW2 2340   1.725   0.182   1.929  2.6685 -2.6263 -0.3642
  781SOL     OW 2341   1.724   1.481   1.345  0.0506  0.6313 -0.2800
  781SOL    HW1 2342   1.688   1.541   1.272  3.3338  2.1606 -2.3156
  781SOL    HW2 2343   1.762   1.389   1.309 -0.5381 -1.4674 -2.4138
  782SOL     OW 2344   2.018   2.363   2.098  0.3525 -0.3287  0.3748
  782SOL    HW1 2345   1.980   2.337   2.004 -1.1508 -0.0046 -1.2318
  782SOL    HW2 2346   2.096   2.430   2.095 -1.5606 -1.7190 -0.5257
  783SOL     OW 2347   1.295   0.407   2.006 -0.3863 -0.3700  0.3596
  783SOL    HW1 2348   1.232   0.376   2.082  0.8826 -0.6326 -0.2050
  783SOL    HW2 2349   1.303   0.338   1.933  0.6793 -0.9419 -0.0947
  784SOL     OW 2350   1.722   0.952   2.123 -0.6366 -0.2138 -0.0912
  784SOL    HW1 2351   1.647   0.973   2.061  0.1236  2.0211  2.6233
  784SOL    HW2 2352   1.812   0.976   2.081 -1.9982  1.8829 -0.3541
  785SOL     OW 2353   2.081   0.558   0.210  0.1665 -0.3757 -0.2667
  785SOL    HW1 2354   2.102   0.640   0.263 -1.7459  0.6405  1.9932
  785SOL    HW2 2355   1.985   0.531   0.216  1.5664 -0.5941  2.0237
  786SOL     OW 2356   2.853   1.294   0.764  0.3991  0.5969  0.3084
  786SOL    HW1 2357   2.759   1.279   0.731 -1.1968  5.3847  2.2673
  786SOL    HW2 2358   2.908   1.209   0.749  1.5191  0.4405  0.5361
  787SOL     OW 2359   1.660   1.658   0.231 -0.2073  0.3187 -0.7017
  787SOL    HW1 2360   1.744   1.714   0.256  2.0794  1.2650  1.1287
  787SOL    HW2 2361   1.601   1.697   0.161 -0.2362 -0.0901  1.1824
  788SOL     OW 2362   2.332   1.144   1.226  0.5304  0.2276  0.6897
  788SOL    HW1 2363   2.394   1.069   1.249 -1.4551  0.5377 -2.1382
  788SOL    HW2 2364   2.395   1.216   1.192 -1.5531  0.0642  1.3673
  789SOL     OW 2365   2.863   1.517   2.373 -0.0970  0.1251 -0.0628
  789SOL    HW1 2366   2.762   1.492   2.382 -2.1712 -0.8940  0.3804
  789SOL    HW2 2367   2.911   1.476   2.294  2.4635 -1.3846 -1.5287
  790SOL     OW 2368   0.594   2.905   2.614  0.7044  0.0533  0.0715
  790SOL    HW1 2369   0.694   2.918   2.615 -0.0455 -3.6103  0.5735
  790SOL    HW2 2370   0.553   2.926   2.523  0.7553 -0.8116  1.1991
  791SOL     OW 2371   0.431   2.677   2.763  0.6672 -0.5401  0.2898
  791SOL    HW1 2372   0.481   2.754   2.718  1.7117  2.1689 -0.9606
  791SOL    HW2 2373   0.349   2.718   2.806 -1.5459  0.0773 -0.6418
  792SOL     OW 2374   1.327   0.290   2.460  0.3844  0.4902  0.2816
  792SOL    HW1 2375   1.390   0.366   2.457 -2.3181 -1.9920  0.0799
  792SOL    HW2 2376   1.386   0.209   2.457 -1.4482  0.2406  0.3781
  793SOL     OW 2377   2.755   0.038   2.303 -0.1552  0.0474 -0.0641
  793SOL    HW1 2378   2.698   0.105   2.250 -0.0651 -0.1183  0.0051
  793SOL    HW2 2379   2.825   3.085   2.240  2.1992  1.6686  2.0326
  794SOL     OW 2380   0.597   0.455   1.775  0.1954 -0.2244 -0.5227
  794SOL    HW1 2381   0.504   0.417   1.773  1.5939  1.8948  0.5189
  794SOL    HW2 2382   0.655   0.420   1.848 -2.6296  1.3849 -1.3852
  795SOL     OW 2383   2.596   1.252   0.674  0.0627  0.2013 -0.3702
  795SOL    HW1 2384   2.630   1.260   0.575  2.8111 -0.6912 -2.7134
  795SOL    HW2 2385   2.534   1.170   0.678  0.2543 -0.4596  1.4231
  796SOL     OW 2386   2.621   2.137   2.426  0.6526  0.2387 -0.2245
  796SOL    HW1 2387   2.700   2.130   2.360 -0.1847  0.3087 -0.7132
  796SOL    HW2 2388   2.662   2.163   2.515  1.7686 -4.0896  1.1186
  797SOL     OW 2389   2.639   2.180   0.143  0.2599  0.1723  0.0350
  797SOL    HW1 2390   2.694   2.112   0.091 -0.1077  0.2429 -1.8301
  797SOL    HW2 2391   2.567   2.218   0.082  1.6772  0.3451  0.1361
  798SOL     OW 2392   0.375   0.653   1.866 -0.7985 -0.3429  0.1212
  798SOL    HW1 2393   0.460   0.601   1.833  0.3459  1.8901  0.2345
  798SOL    HW2 2394   0.307   0.677   1.795 -0.2959 -0.0165  1.5592
  799SOL     OW 2395   2.705   0.847   2.354 -0.2904 -0.3810  0.0706
  799SOL    HW1 2396   2.631   0.795   2.399 -0.8080  0.4718  2.4675
  799SOL    HW2 2397   2.675   0.942   2.326  0.6646 -2.9841  1.8101
  800SOL     OW 2398   2.734   2.411   0.683  0.5191  0.4832 -0.6830
  800SOL    HW1 2399   2.792   2.485   0.642  0.3259 -0.4219 -0.3947
  800SOL    HW2 2400   2.656   2.452   0.736  1.8394  2.4156  0.5275
  801SOL     OW 2401   1.329   0.734   0.821  0.5430  0.3360  0.3772
  801SOL    HW1 2402   1.307   0.691   0.913 -1.4769 -1.0803  0.4871
  801SOL    HW2 2403   1.385   0.815   0.832 -0.0013  0.3174 -0.0707
  802SOL     OW 2404   1.704   2.156   0.900  0.0289 -0.2147 -0.1447
  802SOL    HW1 2405   1.777   2.174   0.968 -1.6075 -1.0909 -0.9912
  802SOL    HW2 2406   1.687   2.055   0.896  1.3665  1.7258 -1.0133
  803SOL     OW 2407   2.967   1.747   0.535 -0.3892 -0.3541  0.3188
  803SOL    HW1 2408   3.048   1.691   0.513 -2.6213  2.1778  0.2570
  803SOL    HW2 2409   3.000   1.817   0.600 -0.5016  3.3496  2.1741
  804SOL     OW 2410   1.502   2.537   0.532 -0.4273 -0.2355  0.1871
  804SOL    HW1 2411   1.431   2.525   0.460 -2.6635  2.4778 -1.7729
  804SOL    HW2 2412   1.520   2.630   0.564  4.0609 -1.2073  1.1113
  805SOL     OW 2413   1.313   2.019   2.267 -0.3438 -0.4987  0.0948
  805SOL    HW1 2414   1.291   2.114   2.241  0.5789  0.5816  2.2293
  805SOL    HW2 2415   1.408   2.001   2.244 -0.2842  0.5854  2.8744
  806SOL     OW 2416   1.718   3.051   1.526  0.0408  0.3542 -0.3464
  806SOL    HW1 2417   1.818   3.025   1.538  3.4506  1.0801 -2.2811
  806SOL    HW2 2418   1.701   0.058   1.561  1.4706 -1.4085 -1.8094
  807SOL     OW 2419   2.106   0.062   0.053  0.2766 -0.1858  0.1252
  807SOL    HW1 2420   2.112   3.049   0.028  0.7571 -1.1173  0.5608
  807SOL    HW2 2421   2.151   0.123   3.070  1.1180  0.4344  1.1359
  808SOL     OW 2422   0.450   1.724   2.980 -0.0519 -0.3198 -0.0108
  808SOL    HW1 2423   0.437   1.758   2.888  0.6727  0.3394 -3.3593
  808SOL    HW2 2424   0.479   1.630   2.973  0.7056 -1.6325 -1.1032
  809SOL     OW 2425   0.062   1.092   2.571  0.1364  0.0817  0.0281
  809SOL    HW1 2426   0.106   1.040   2.644 -0.5152  0.8799  0.3757
  809SOL    HW2 2427   3.057   1.048   2.543 -0.1683  0.1494  1.2016
  810SOL     OW 2428   3.011   0.596   2.535  0.3697  0.5636 -0.5082
  810SOL    HW1 2429   2.995   0.697   2.508  1.5342  0.9043  0.9869
  810SOL    HW2 2430   0.018   0.562   2.503 -1.3795  1.1038  1.1282
  811SOL     OW 2431   2.009   2.597   1.748 -0.0990  0.6009  0.3245
  811SOL    HW1 2432   1.960   2.592   1.835  2.3513  0.0708  1.4779
  811SOL    HW2 2433   2.079   2.521   1.738  1.8693  0.6226 -0.1877
  812SOL     OW 2434   1.258   0.324   0.386  0.2309 -0.0811  0.3122
  812SOL    HW1 2435   1.206   0.243   0.421 -0.8782 -0.5778 -1.3347
  812SOL    HW2 2436   1.278   0.311   0.285 -2.4652  2.0678  0.3911
  813SOL     OW 2437   1.952   0.375   1.844  0.0470  0.7710  0.0738
  813SOL    HW1 2438   1.944   0.460   1.793 -0.7863  1.3354  2.1837
  813SOL    HW2 2439   1.865   0.333   1.878 -1.5263  0.9401  0.2595
  814SOL     OW 2440   1.953   0.881   1.243  0.6164  0.2109 -0.7021
  814SOL    HW1 2441   2.037   0.884   1.304  0.0015  0.0322  0.3557
  814SOL    HW2 2442   1.967   0.936   1.156 -0.1116 -0.9712  1.1753
  815SOL     OW 2443   0.515   1.062   0.747  0.4174  0.0310  0.5267
  815SOL    HW1 2444   0.589   0.994   0.758  0.8498  1.7875 -1.6432
  815SOL    HW2 2445   0.438   1.022   0.690 -1.2272 -0.5083 -1.0162
  816SOL     OW 2446   2.050   2.040   0.037  0.2816  0.5082  0.4737
  816SOL    HW1 2447   2.112   2.015   3.044 -0.3442  0.5728  2.4085
  816SOL    HW2 2448   2.086   2.022   0.128  1.4016  1.6694 -2.2640
  817SOL     OW 2449   2.870   2.591   1.172 -0.1692 -0.0544 -0.8234
  817SOL    HW1 2450   2.892   2.526   1.098  0.4161  1.1215 -1.0562
  817SOL    HW2 2451   2.903   2.683   1.145 -1.3789 -2.8854  0.3478
  818SOL     OW 2452   1.336   0.720   0.062  0.1493  0.0760 -0.1299
  818SOL    HW1 2453   1.296   0.692   0.148 -1.8683 -1.2341  0.1029
  818SOL    HW2 2454   1.396   0.648   0.019  0.3427 -2.5528 -0.4407
  819SOL     OW 2455   0.694   0.631   0.906 -0.3789  0.9025 -0.3298
  819SOL    HW1 2456   0.662   0.695   0.976  1.8045 -1.6314 -0.0270
  819SOL    HW2 2457   0.704   0.536   0.945  0.0440  1.4256 -0.5921
  820SOL     OW 2458   2.211   0.645   1.253 -0.0988 -0.1353  0.0571
  820SOL    HW1 2459   2.244   0.704   1.177  0.4014  2.1281 -0.2677
  820SOL    HW2 2460   2.149   0.693   1.316 -1.3352 -0.6547  0.4104
  821SOL     OW 2461   0.022   0.077   0.711 -0.0899 -0.9836  0.2115
  821SOL    HW1 2462   3.083   0.080   0.811  0.7867  0.3689 -0.3757
  821SOL    HW2 2463   0.003   3.067   0.669 -3.5916  1.7479  0.4773
  822SOL     OW 2464   0.708   2.265   2.409  0.1698 -0.2276 -0.4460
  822SOL    HW1 2465   0.751   2.353   2.447  1.6189  1.4767 -0.0818
  822SOL    HW2 2466   0.625   2.279   2.354  0.0209  1.5528 -1.2651
  823SOL     OW 2467   3.035   1.221   1.868 -0.6587  0.1877  0.7698
  823SOL    HW1 2468   3.011   1.158   1.790 -0.7782 -1.9323 -2.5931
  823SOL    HW2 2469   3.030   1.175   1.961 -3.6254 -0.7451  0.0995
  824SOL     OW 2470   0.884   3.046   2.351 -0.0870 -0.4088  0.1076
  824SOL    HW1 2471   0.889   2.996   2.439  0.1376 -1.2989  0.1717
  824SOL    HW2 2472   0.826   3.011   2.275 -0.6976  3.4824 -1.3009
  825SOL     OW 2473   1.370   1.888   2.897  0.7065  0.0303  0.0597
  825SOL    HW1 2474   1.340   1.985   2.886  0.9855  0.6095 -1.5653
  825SOL    HW2 2475   1.466   1.874   2.873 -1.2413  2.2766  1.6443
  826SOL     OW 2476   1.161   2.461   2.904  0.2845 -0.2829  0.5155
  826SOL    HW1 2477   1.197   2.506   2.987  1.1844  0.9226  0.3332
  826SOL    HW2 2478   1.177   2.363   2.902 -0.8633  1.7953 -3.4705
  827SOL     OW 2479   0.328   1.643   1.754  0.5930 -0.6760  0.5283
  827SOL    HW1 2480   0.306   1.656   1.657 -1.5842 -2.2906  0.9166
  827SOL    HW2 2481   0.339   1.545   1.776 -0.4632 -1.9151  2.2609
  828SOL     OW 2482   0.308   1.644   1.383  0.3370 -0.0159 -0.3805
  828SOL    HW1 2483   0.385   1.589   1.420  0.4070  4.7617  1.4234
  828SOL    HW2 2484   0.323   1.647   1.284 -0.7455  0.2709 -0.8106
  829SOL     OW 2485   2.801   2.605   0.140  0.6993 -0.2157 -0.1194
  829SOL    HW1 2486   2.796   2.539   0.217  2.4435 -0.2483 -0.1191
  829SOL    HW2 2487   2.868   2.584   0.068  1.5270 -0.4571  1.2083
  830SOL     OW 2488   1.138   0.838   0.594  0.1703 -0.4290 -0.0441
  830SOL    HW1 2489   1.196   0.866   0.515 -1.4473  1.4601  1.6406
  830SOL    HW2 2490   1.192   0.801   0.671 -0.5634 -0.8471  2.7286
  831SOL     OW 2491   2.691   2.467   2.951  0.4381 -0.0675 -0.1030
  831SOL    HW1 2492   2.633   2.390   2.910  1.3949 -0.6468 -1.3356
  831SOL    HW2 2493   2.637   2.529   3.013  2.7043  0.7011 -0.8712
  832SOL     OW 2494   1.776   2.378   0.299 -0.2280 -0.3597 -0.5004
  832SOL    HW1 2495   1.693   2.350   0.248 -0.2091  1.3607  0.4336
  832SOL    HW2 2496   1.776   2.482   0.311 -0.1319  3.6836  0.3052
  833SOL     OW 2497   0.579   1.260   2.346 -0.5050 -0.1976  0.1313
  833SOL    HW1 2498   0.596   1.354   2.308  2.4701  1.4623 -1.5473
  833SOL    HW2 2499   0.489   1.248   2.388  1.1154 -0.6846 -1.2289
  834SOL     OW 2500   2.672   0.513   0.720 -0.0733  0.3320  0.9256
  834SOL    HW1 2501   2.658   0.483   0.621 -1.2157  0.8781 -2.3763
  834SOL    HW2 2502   2.613   0.589   0.747 -1.5963 -0.2790  1.0216
  835SOL     OW 2503   2.193   0.641   2.110  0.2628  0.0653 -0.3395
  835SOL    HW1 2504   2.264   0.711   2.123 -0.0574  0.2744 -1.4648
  835SOL    HW2 2505   2.126   0.660   2.185 -0.7756 -2.7836 -0.2629
  836SOL     OW 2506   0.670   2.113   0.489 -0.3833  0.3809 -0.4855
  836SOL    HW1 2507   0.737   2.096   0.566  4.5044  1.9277  0.4835
  836SOL    HW2 2508   0.676   2.045   0.412 -0.9215  0.2036 -0.8421
  837SOL     OW 2509   2.291   1.404   1.728 -0.0132 -0.3932  0.2546
  837SOL    HW1 2510   2.306   1.384   1.629 -2.6943 -1.4561 -0.9549
  837SOL    HW2 2511   2.345   1.488   1.755  1.6941 -2.3161 -0.6638
  838SOL     OW 2512   0.203   1.062   2.356 -0.4291 -0.3351  0.1032
  838SOL    HW1 2513   0.157   1.071   2.450 -0.4285 -0.5154 -0.2167
  838SOL    HW2 2514   0.260   0.979   2.356  0.3005  0.5233 -4.5876
  839SOL     OW 2515   0.202   2.727   2.902  0.1861  0.6289 -0.0282
  839SOL    HW1 2516   0.124   2.709   2.837  1.8642 -2.1828 -1.9392
  839SOL    HW2 2517   0.203   2.824   2.926 -2.5047 -3.2640  0.2018
  840SOL     OW 2518   0.053   1.272   2.786 -1.0265 -0.6803 -0.2309
  840SOL    HW1 2519   0.061   1.207   2.713 -2.6669  1.6668  0.5362
  840SOL    HW2 2520   3.057   1.246   2.849 -3.1038 -0.2044  2.4437
  841SOL     OW 2521   0.379   2.122   2.700  0.3108  0.5998  0.3838
  841SOL    HW1 2522   0.351   2.218   2.724 -0.8758  2.0112 -0.4986
  841SOL    HW2 2523   0.480   2.117   2.669  2.8984 -4.3787 -1.9330
  842SOL     OW 2524   0.961   0.118   0.977 -0.1439 -0.5049 -0.1769
  842SOL    HW1 2525   0.902   0.146   1.057  0.4156  1.9542  1.7606
  842SOL    HW2 2526   0.907   0.068   0.910  0.7529  0.4823  0.9741
  843SOL     OW 2527   3.042   1.518   2.101 -0.2867  0.0307  0.2241
  843SOL    HW1 2528   0.022   1.594   2.068  1.1409  0.4618  0.8620
  843SOL    HW2 2529   0.016   1.448   2.150  0.1198 -0.7402  0.3802
  844SOL     OW 2530   1.608   1.993   2.207  0.0882 -0.3070  0.2288
  844SOL    HW1 2531   1.601   2.025   2.109  0.1025  0.8209 -0.1661
  844SOL    HW2 2532   1.683   1.925   2.214 -2.0384  0.0853  0.5083
  845SOL     OW 2533   1.716   2.993   2.604  0.0104 -0.1349 -0.4843
  845SOL    HW1 2534   1.621   3.022   2.634  0.4130 -2.1445  2.2943
  845SOL    HW2 2535   1.781   3.062   2.644  1.0904  0.2655  0.0929
  846SOL     OW 2536   2.428   1.642   0.055  0.9146 -0.2603  0.5634
  846SOL    HW1 2537   2.336   1.652   0.013 -0.5202  1.2272  2.1372
  846SOL    HW2 2538   2.463   1.553   0.012  0.2938 -1.2518 -2.4838
  847SOL     OW 2539   2.343   0.052   2.736 -0.2495  0.1932  0.3698
  847SOL    HW1 2540   2.286   0.097   2.662 -2.5267  2.7267  0.2404
  847SOL    HW2 2541   2.444   0.047   2.711  1.9274 -3.7310  1.4429
  848SOL     OW 2542   2.268   0.355   0.211 -0.2202 -0.0926  0.3612
  848SOL    HW1 2543   2.179   0.398   0.235  0.3572 -1.9071  1.8113
  848SOL    HW2 2544   2.306   0.295   0.285  0.5563 -0.9808 -2.2661
  849SOL     OW 2545   1.203   3.041   2.941 -0.6684 -0.3004  0.8229
  849SOL    HW1 2546   1.195   2.945   2.913  1.2599 -1.1824 -0.6149
  849SOL    HW2 2547   1.239   0.008   2.862  1.0307 -1.0629  0.4505
  850SOL     OW 2548   2.997   0.667   0.377  0.6018 -0.1808 -0.1690
  850SOL    HW1 2549   2.990   0.570   0.352 -0.5275  2.8762  0.4343
  850SOL    HW2 2550   2.909   0.700   0.425 -1.0060  0.0942 -1.0095
  851SOL     OW 2551   0.420   1.216   1.533  0.1852 -0.4515 -0.9835
  851SOL    HW1 2552   0.509   1.186   1.493 -0.7950 -0.6065  0.8787
  851SOL    HW2 2553   0.360   1.269   1.466 -0.3007 -1.8160 -2.2021
  852SOL     OW 2554   1.392   0.663   2.092 -0.2956  0.1398 -0.0251
  852SOL    HW1 2555   1.481   0.646   2.133  0.8472  1.8834 -1.1033
  852SOL    HW2 2556   1.350   0.579   2.053  0.3415  2.3644  3.7431
  853SOL     OW 2557   2.214   1.527   3.023 -0.2893  0.0680 -0.0257
  853SOL    HW1 2558   2.207   1.426   3.002  2.1772 -0.8344 -0.9440
  853SOL    HW2 2559   2.133   1.571   3.066  0.3582  2.2062  1.0305
  854SOL     OW 2560   1.370   1.151   1.898 -0.4397 -0.3388 -0.3076
  854SOL    HW1 2561   1.368   1.180   1.798 -0.2340 -0.0037 -2.8250
  854SOL    HW2 2562   1.304   1.198   1.955 -1.7917 -2.4811 -1.3677
  855SOL     OW 2563   0.248   2.376   1.746 -0.2461 -0.0286  0.5547
  855SOL    HW1 2564   0.248   2.479   1.749 -0.0491 -0.9894 -2.3291
  855SOL    HW2 2565   0.256   2.335   1.650 -0.5168  0.0383 -0.0382
  856SOL     OW 2566   1.213   1.229   2.600  0.1795 -0.3484  0.1561
  856SOL    HW1 2567   1.267   1.141   2.588 -1.1541  0.5553  1.0836
  856SOL    HW2 2568   1.127   1.231   2.547  0.9491  1.5946 -0.2550
  857SOL     OW 2569   0.998   1.031   2.716 -0.0365  0.2986  0.3220
  857SOL    HW1 2570   1.061   1.105   2.754  2.5485  1.0651  0.5914
  857SOL    HW2 2571   0.980   1.038   2.617 -1.3921 -1.6363 -1.7378
  858SOL     OW 2572   0.340   0.361   1.760 -0.0068  0.1878  0.4776
  858SOL    HW1 2573   0.349   0.258   1.746  1.7851 -4.0158 -0.5615
  858SOL    HW2 2574   0.245   0.387   1.759  1.6462  3.2513 -0.2371
  859SOL     OW 2575   2.339   0.399   0.724 -0.4906  0.0947 -0.2966
  859SOL    HW1 2576   2.346   0.465   0.645  0.8179 -1.3754 -2.1592
  859SOL    HW2 2577   2.381   0.433   0.810 -0.5454  1.1896  0.0127
  860SOL     OW 2578   0.951   0.836   1.405  0.3471  0.3704 -0.1442
  860SOL    HW1 2579   0.877   0.797   1.465 -2.6651 -0.7701  2.0707
  860SOL    HW2 2580   0.995   0.768   1.338  2.3817 -1.2833 -1.4089
  861SOL     OW 2581   1.749   0.716   1.326 -0.2013 -0.2649 -0.1615
  861SOL    HW1 2582   1.832   0.763   1.287 -1.2767 -0.0335  2.2112
  861SOL    HW2 2583   1.694   0.782   1.380  0.3437  0.1550 -1.9483
  862SOL     OW 2584   0.787   0.244   2.209  0.3108  0.5425  0.5385
  862SOL    HW1 2585   0.802   0.159   2.263  1.4130 -2.5210  2.5468
  862SOL    HW2 2586   0.711   0.231   2.138 -1.3932  0.2953 -1.6671
  863SOL     OW 2587   2.695   0.263   1.411  0.3386  0.4857 -0.8644
  863SOL    HW1 2588   2.624   0.321   1.374  0.5638 -2.1993  0.7396
  863SOL    HW2 2589   2.794   0.276   1.386  0.8807 -2.2217 -0.0859
  864SOL     OW 2590   2.727   2.884   2.470  0.2738  0.3389 -0.2927
  864SOL    HW1 2591   2.814   2.837   2.474 -1.5272  0.8830  0.4163
  864SOL    HW2 2592   2.728   2.962   2.403 -0.6298 -2.6250 -0.6784
  865SOL     OW 2593   1.438   1.154   2.358  0.7951 -0.4192  0.2742
  865SOL    HW1 2594   1.415   1.080   2.420  1.4843  1.2675  0.0624
  865SOL    HW2 2595   1.368   1.149   2.287  0.1374 -0.6615 -1.1526
  866SOL     OW 2596   2.527   2.528   0.843  0.4762 -0.0457 -0.1854
  866SOL    HW1 2597   2.545   2.583   0.927 -1.2956  2.0545  1.7025
  866SOL    HW2 2598   2.482   2.437   0.864 -3.1666 -1.6911 -1.2505
  867SOL     OW 2599   2.616   2.665   1.097  0.1567 -0.2582 -0.0293
  867SOL    HW1 2600   2.566   2.725   1.161  2.4571 -0.6686  1.1090
  867SOL    HW2 2601   2.696   2.627   1.143  1.0875 -0.0033 -0.6845
  868SOL     OW 2602   2.965   1.432   1.493 -0.3504  0.0200 -0.1118
  868SOL    HW1 2603   2.886   1.444   1.555 -0.1141  2.3885  1.5382
  868SOL    HW2 2604   2.961   1.354   1.427  0.8228 -1.2970 -1.8912
  869SOL     OW 2605   2.145   1.695   1.951 -0.0173 -0.4561  0.3603
  869SOL    HW1 2606   2.222   1.692   2.022  1.8497  0.4483  2.9345
  869SOL    HW2 2607   2.067   1.641   1.993  0.5035  0.4657  0.6182
  870SOL     OW 2608   1.466   0.990   0.834  0.5223  0.0706 -0.5865
  870SOL    HW1 2609   1.463   1.030   0.927  0.8359  0.6032  0.5587
  870SOL    HW2 2610   1.527   1.046   0.775 -0.5342  0.5571  0.7299
  871SOL     OW 2611   2.413   1.621   1.843 -0.4424 -0.6751 -0.0262
  871SOL    HW1 2612   2.319   1.665   1.846  0.2542  0.3142 -1.4459
  871SOL    HW2 2613   2.486   1.691   1.846 -1.2894  3.3660  3.1160
  872SOL     OW 2614   1.352   1.619   2.579 -0.3367  0.0837  0.2530
  872SOL    HW1 2615   1.387   1.574   2.663  0.1907  0.2302 -3.1693
  872SOL    HW2 2616   1.250   1.627   2.570 -1.2212 -0.6354  0.3269
  873SOL     OW 2617   1.221   1.425   1.461 -0.0119 -0.1681 -0.0065
  873SOL    HW1 2618   1.163   1.462   1.384  0.9855 -0.6307  0.0969
  873SOL    HW2 2619   1.196   1.462   1.555 -0.3982  1.2177 -1.0151
  874SOL     OW 2620   1.451   1.327   1.319  0.2128 -0.2124  0.0878
  874SOL    HW1 2621   1.381   1.334   1.391 -2.5408  1.1042  1.2533
  874SOL    HW2 2622   1.454   1.410   1.257  0.7382  1.1049 -1.0122
  875SOL     OW 2623   2.848   0.155   2.527  0.0145 -0.7017 -0.6909
  875SOL    HW1 2624   2.838   0.255   2.508  0.5380 -1.8024 -1.7560
  875SOL    HW2 2625   2.815   0.104   2.445 -0.8495  0.6638  0.9022
  876SOL     OW 2626   0.741   0.960   0.491  0.2765  0.3908  0.3542
  876SOL    HW1 2627   0.745   0.933   0.590  0.6505 -1.6187 -2.3197
  876SOL    HW2 2628   0.688   0.901   0.432  1.7298  3.2357 -0.9599
  877SOL     OW 2629   1.956   2.940   0.667  0.5848 -0.0268  0.2523
  877SOL    HW1 2630   2.033   2.931   0.602 -0.6017  0.2356 -1.7793
  877SOL    HW2 2631   1.916   2.849   0.687  3.0231  0.8370 -0.7927
  878SOL     OW 2632   2.565   1.985   0.330  0.1120 -0.1729 -0.0684
  878SOL    HW1 2633   2.637   1.916   0.343 -2.6408  1.7044 -0.5269
  878SOL    HW2 2634   2.591   2.058   0.266 -1.5045  0.1642  0.3531
  879SOL     OW 2635   3.005   2.320   1.815  0.2474 -0.1179  0.2313
  879SOL    HW1 2636   2.962   2.245   1.868  1.3531 -0.1855 -1.9444
  879SOL    HW2 2637   3.084   2.290   1.762 -2.7769 -0.3755 -0.3818
  880SOL     OW 2638   0.316   1.541   0.797 -0.3537  0.3010  0.1920
  880SOL    HW1 2639   0.407   1.540   0.847  1.1821 -0.5759 -0.8310
  880SOL    HW2 2640   0.333   1.557   0.695 -1.5950 -0.2491  1.4353
  881SOL     OW 2641   1.270   0.378   2.821  0.2384  0.5989  0.3922
  881SOL    HW1 2642   1.277   0.295   2.767 -1.3615  1.0160 -0.7080
  881SOL    HW2 2643   1.174   0.406   2.833  1.5106  1.3032 -0.4891
  882SOL     OW 2644   2.482   0.997   0.692 -0.2122 -0.3023 -0.2504
  882SOL    HW1 2645   2.433   1.010   0.780  3.1597 -1.6399 -0.6612
  882SOL    HW2 2646   2.538   0.914   0.705  0.7918  1.0733  1.9006
  883SOL     OW 2647   1.551   0.635   2.484  0.1074 -0.8983 -0.2129
  883SOL    HW1 2648   1.452   0.654   2.508 -0.4965  0.2217  0.2624
  883SOL    HW2 2649   1.580   0.661   2.390 -0.5058  0.2389 -2.3224
  884SOL     OW 2650   0.101   0.064   1.857 -0.1653  0.7499  0.2994
  884SOL    HW1 2651   0.020   0.034   1.802  0.3303 -1.9955 -2.5964
  884SOL    HW2 2652   0.132   3.066   1.915  1.2790 -0.6710  4.9541
  885SOL     OW 2653   2.013   0.739   2.281 -0.3919  0.1098 -0.3677
  885SOL    HW1 2654   1.993   0.809   2.210  1.4108  1.2850 -0.4504
  885SOL    HW2 2655   1.950   0.754   2.353 -0.6018  0.6135 -0.8105
  886SOL     OW 2656   1.670   0.501   2.890 -0.1421  0.0283 -0.0737
  886SOL    HW1 2657   1.709   0.431   2.953  2.3933  0.6274 -2.6049
  886SOL    HW2 2658   1.745   0.522   2.818  1.1092  0.7045 -3.4647
  887SOL     OW 2659   1.133   2.664   1.569 -0.5102  0.2405  0.1525
  887SOL    HW1 2660   1.182   2.648   1.481  0.1472 -0.4683 -3.4620
  887SOL    HW2 2661   1.119   2.570   1.611 -0.8739 -2.3132  0.6636
  888SOL     OW 2662   2.467   0.936   1.390 -0.2159  0.0506  0.3372
  888SOL    HW1 2663   2.373   0.902   1.386  3.4287 -0.9683 -0.7941
  888SOL    HW2 2664   2.481   1.017   1.453 -1.7998  3.1267 -0.2891
  889SOL     OW 2665   1.849   2.917   1.114  0.3622 -0.0106  0.5108
  889SOL    HW1 2666   1.822   2.975   1.031 -1.9176  0.7406  0.7144
  889SOL    HW2 2667   1.768   2.908   1.168  0.8068 -0.3978 -1.5549
  890SOL     OW 2668   1.187   2.525   0.594 -0.1473  0.5601  0.0468
  890SOL    HW1 2669   1.258   2.464   0.633 -1.1169  0.7899 -1.8291
  890SOL    HW2 2670   1.122   2.563   0.666  0.1006 -0.6673  1.2054
  891SOL     OW 2671   2.822   1.415   0.115  0.1772  0.1152 -0.6801
  891SOL    HW1 2672   2.729   1.396   0.151 -1.8097 -1.7309  1.4614
  891SOL    HW2 2673   2.820   1.448   0.018 -1.2885  1.5744 -2.5114
  892SOL     OW 2674   2.176   1.430   2.538  0.1959 -0.4091  0.0912
  892SOL    HW1 2675   2.230   1.437   2.455  3.0621 -0.4815  1.1946
  892SOL    HW2 2676   2.102   1.500   2.543  1.8164  1.8045 -0.5743
  893SOL     OW 2677   2.366   2.548   1.264  0.1021  0.1981  0.2689
  893SOL    HW1 2678   2.321   2.540   1.169  0.7995 -0.9692 -0.8525
  893SOL    HW2 2679   2.417   2.632   1.273 -2.0875 -2.6129  0.0484
  894SOL     OW 2680   0.226   0.697   0.728  0.2359 -0.8037 -0.2876
  894SOL    HW1 2681   0.306   0.690   0.790  0.7508  1.2012 -1.4733
  894SOL    HW2 2682   0.173   0.610   0.711 -0.4144  0.8223  0.0960
  895SOL     OW 2683   2.850   2.083   2.264  0.7737  0.1140 -0.2006
  895SOL    HW1 2684   2.923   2.153   2.281  2.1257  1.4973 -0.6029
  895SOL    HW2 2685   2.879   1.990   2.297 -1.9077 -2.0700  0.5061
  896SOL     OW 2686   1.493   3.081   2.696 -0.4658 -0.1485 -0.0033
  896SOL    HW1 2687   1.492   2.988   2.744 -0.7983 -0.1058 -0.4627
  896SOL    HW2 2688   1.546   0.068   2.740 -1.7933 -3.7335 -1.5326
  897SOL     OW 2689   0.008   1.675   1.774 -0.5678 -0.3309 -0.2421
  897SOL    HW1 2690   0.009   1.704   1.676 -0.1392 -2.1559 -1.4478
  897SOL    HW2 2691   0.045   1.578   1.776  2.3381 -3.0923 -1.2248
  898SOL     OW 2692   0.682   2.098   1.747 -0.3484  0.5966 -0.1954
  898SOL    HW1 2693   0.597   2.055   1.713 -1.0969  0.4843  2.0010
  898SOL    HW2 2694   0.713   2.161   1.668  1.1980  3.6896 -0.9685
  899SOL     OW 2695   1.712   0.029   1.919 -0.2809  0.5690 -0.1002
  899SOL    HW1 2696   1.787   3.053   1.887  4.4082 -0.2916  2.0685
  899SOL    HW2 2697   1.627   0.003   1.872 -2.3487 -0.5670 -1.5921
  900SOL     OW 2698   1.252   1.196   0.473 -0.2421  0.5931 -0.8939
  900SOL    HW1 2699   1.338   1.138   0.457  0.3088 -0.0602  0.6413
  900SOL    HW2 2700   1.180   1.155   0.535 -1.8270  0.7966 -1.4833
  901SOL     OW 2701   1.301   0.973   2.528  0.6508  0.2417 -0.1474
  901SOL    HW1 2702   1.355   0.936   2.608  3.2837 -1.7141 -3.8723
  901SOL    HW2 2703   1.257   0.892   2.476 -1.0112 -3.2394 -0.1007
  902SOL     OW 2704   0.156   2.434   1.056  0.1405 -0.0490  0.1239
  902SOL    HW1 2705   0.054   2.432   1.047  2.0183  2.1849  1.3101
  902SOL    HW2 2706   0.186   2.489   1.134 -1.3629 -0.5387 -4.3827
  903SOL     OW 2707   2.532   1.385   2.162 -0.1726 -0.3267 -0.6771
  903SOL    HW1 2708   2.585   1.421   2.086 -0.9741 -1.3379  0.3247
  903SOL    HW2 2709   2.582   1.403   2.253  1.8845 -3.6470  0.9902
  904SOL     OW 2710   1.458   1.798   0.106 -0.2238  0.3092  0.2871
  904SOL    HW1 2711   1.399   1.831   0.185  2.7046  1.8323 -0.4448
  904SOL    HW2 2712   1.417   1.821   0.016 -0.6528  2.7285  0.3604
  905SOL     OW 2713   2.101   2.854   2.022  0.7345  0.3531  0.1581
  905SOL    HW1 2714   2.042   2.765   2.017 -1.2969 -4.2239  1.2230
  905SOL    HW2 2715   2.104   2.902   2.114  4.5706  0.9073  1.1085
  906SOL     OW 2716   1.642   2.784   0.086 -0.4474 -0.3158  0.3750
  906SOL    HW1 2717   1.686   2.744   0.003 -1.7658  0.3799  1.1674
  906SOL    HW2 2718   1.565   2.849   0.053 -3.7822  2.4125 -2.6900
  907SOL     OW 2719   0.387   2.781   0.908 -0.6820  0.3904 -0.0967
  907SOL    HW1 2720   0.322   2.806   0.985 -1.9338  1.2321  1.0753
  907SOL    HW2 2721   0.351   2.799   0.814  2.7133 -0.3690 -2.6232
  908SOL     OW 2722   0.674   2.725   1.837 -0.1039  0.2982  0.0570
  908SOL    HW1 2723   0.721   2.814   1.846  0.2051  2.2768  0.3186
  908SOL    HW2 2724   0.699   2.665   1.918  0.6620 -1.4792 -0.0599
  909SOL     OW 2725   1.841   0.463   1.331  0.1043 -0.1820 -0.6596
  909SOL    HW1 2726   1.780   0.545   1.318 -1.0389 -0.0124  1.0437
  909SOL    HW2 2727   1.925   0.497   1.377  1.4260 -0.7721  0.4322
  910SOL     OW 2728   0.704   0.456   0.388 -0.1649  0.0018  0.3238
  910SOL    HW1 2729   0.660   0.452   0.296 -0.1980 -1.0532 -1.0025
  910SOL    HW2 2730   0.797   0.502   0.392 -0.3810  1.5902  2.7390
  911SOL     OW 2731   0.306   2.971   2.917  0.1072 -0.5238 -0.2053
  911SOL    HW1 2732   0.366   3.026   2.859 -0.0004 -0.7792 -0.2930
  911SOL    HW2 2733   0.354   2.953   3.009 -0.7085 -0.1080  1.0938
  912SOL     OW 2734   2.984   1.996   2.575 -0.7486 -0.0342 -0.0441
  912SOL    HW1 2735   3.041   2.070   2.534  0.5398  0.2615  1.1957
  912SOL    HW2 2736   2.966   1.921   2.509 -0.5421  2.0547  2.0740
  913SOL     OW 2737   2.379   2.705   0.242 -0.2264 -0.4471 -0.0157
  913SOL    HW1 2738   2.349   2.804   0.253 -1.5216  1.7405  0.6682
  913SOL    HW2 2739   2.467   2.698   0.297  0.2006 -1.6529 -0.5241
  914SOL     OW 2740   1.344   1.515   1.949  0.5816  0.4680 -0.5227
  914SOL    HW1 2741   1.410   1.478   2.019  1.9853 -1.3100 -3.4421
  914SOL    HW2 2742   1.317   1.608   1.974  1.6367 -1.3014  0.7573
  915SOL     OW 2743   2.852   2.409   2.294 -0.4617 -0.1858 -0.4275
  915SOL    HW1 2744   2.930   2.351   2.308 -1.0455  1.2280  0.4745
  915SOL    HW2 2745   2.834   2.466   2.376  1.0544 -2.6874  0.2878
  916SOL     OW 2746   3.060   0.779   2.292  0.5955 -0.1531 -0.5158
  916SOL    HW1 2747   2.981   0.729   2.248 -2.0443 -0.8854 -2.2956
  916SOL    HW2 2748   0.037   0.810   2.222 -1.6641  0.4692  0.6453
  917SOL     OW 2749   1.817   0.040   3.050  0.5214  0.4740  0.2495
  917SOL    HW1 2750   1.904   0.045   0.013 -2.4837 -1.7324 -0.0868
  917SOL    HW2 2751   1.813   3.052   2.975  2.3634  0.5935 -1.0271
  918SOL     OW 2752   1.804   2.957   2.324  0.2482  0.0116  0.2022
  918SOL    HW1 2753   1.756   2.959   2.413  2.0781 -0.8771 -1.8554
  918SOL    HW2 2754   1.751   3.006   2.250  1.0896 -0.8206 -0.7136
  919SOL     OW 2755   1.671   2.308   1.597  0.1285  0.1702 -0.0396
  919SOL    HW1 2756   1.670   2.357   1.690  0.9460  0.9337  0.6885
  919SOL    HW2 2757   1.588   2.249   1.583  0.4159 -0.8077 -4.0851
  920SOL     OW 2758   3.065   0.915   0.076 -0.2999 -0.8915  0.0013
  920SOL    HW1 2759   0.004   0.853   0.151 -0.4595  1.0685 -1.7939
  920SOL    HW2 2760   0.056   0.978   0.051  0.0336 -0.3163 -1.7547
  921SOL     OW 2761   2.449   1.050   2.520  0.0855 -0.5134  0.1059
  921SOL    HW1 2762   2.512   1.015   2.448 -0.0251 -0.5211 -0.7147
  921SOL    HW2 2763   2.487   1.134   2.571  0.8883  0.4231 -0.0280
  922SOL     OW 2764   1.068   1.709   2.595 -0.2799 -0.2305 -0.1547
  922SOL    HW1 2765   1.061   1.801   2.638  0.5901  0.9748 -1.5721
  922SOL    HW2 2766   0.975   1.692   2.553  0.1203 -0.8630 -1.3312
  923SOL     OW 2767   0.737   1.010   2.259  0.1277 -0.1068  0.0759
  923SOL    HW1 2768   0.688   1.094   2.277  1.2358 -0.3098 -1.4362
  923SOL    HW2 2769   0.743   0.956   2.345 -0.0634  0.3434  0.9005
  924SOL     OW 2770   0.329   2.420   2.688  0.4138  0.3007 -0.4128
  924SOL    HW1 2771   0.355   2.517   2.715  0.9375  1.0467  0.1896
  924SOL    HW2 2772   0.280   2.407   2.602  0.1021 -0.5983 -0.5722
  925SOL     OW 2773   1.870   1.436   0.995  0.2289  0.3172  0.2391
  925SOL    HW1 2774   1.876   1.364   1.074  0.9810 -1.6950  2.4720
  925SOL    HW2 2775   1.780   1.481   0.979 -0.6940 -1.1266  2.4531
  926SOL     OW 2776   1.572   0.413   2.647  0.4754  0.3023  0.0525
  926SOL    HW1 2777   1.519   0.455   2.721  0.1263  0.1108  1.0037
  926SOL    HW2 2778   1.580   0.483   2.574  0.5820  0.4994 -1.1844
  927SOL     OW 2779   2.316   2.733   1.889 -0.4238 -0.1903  0.2886
  927SOL    HW1 2780   2.379   2.789   1.829  3.4989 -0.1772 -1.7962
  927SOL    HW2 2781   2.241   2.788   1.928  3.6455  1.7161  0.0559
  928SOL     OW 2782   0.734   1.109   2.762 -0.0724  0.3008  0.8351
  928SOL    HW1 2783   0.728   1.208   2.748  1.9353 -1.0055  0.1644
  928SOL    HW2 2784   0.830   1.073   2.762 -3.7263 -1.7793  0.2680
  929SOL     OW 2785   0.152   0.225   0.958 -0.6861  0.2137 -0.1099
  929SOL    HW1 2786   0.188   0.231   0.862 -2.9468 -2.0940 -2.6783
  929SOL    HW2 2787   0.121   0.134   0.980  1.3505  3.6036 -0.5432
  930SOL     OW 2788   2.563   0.460   1.811 -0.3854 -0.0451  0.0396
  930SOL    HW1 2789   2.468   0.446   1.792 -0.8543 -0.2714  0.3799
  930SOL    HW2 2790   2.606   0.462   1.719  2.6377  0.5978 -2.1156
  931SOL     OW 2791   2.184   1.237   2.953 -0.0444  0.0711 -0.1495
  931SOL    HW1 2792   2.082   1.216   2.960 -2.6653  1.6684 -0.1709
  931SOL    HW2 2793   2.243   1.153   2.960 -0.6822 -2.6072 -0.9144
  932SOL     OW 2794   2.532   1.658   1.107  0.2160  0.0503 -0.2595
  932SOL    HW1 2795   2.618   1.674   1.160  3.3883  0.4696  0.5537
  932SOL    HW2 2796   2.530   1.565   1.063  0.8069 -0.1940 -1.8777
  933SOL     OW 2797   2.918   2.509   1.633 -0.6842 -0.8282 -0.2945
  933SOL    HW1 2798   2.939   2.438   1.703 -0.3968 -0.4974  2.4644
  933SOL    HW2 2799   2.910   2.604   1.664 -0.4067 -1.2770 -2.7025
  934SOL     OW 2800   0.386   3.003   1.297  0.7723 -0.4107  0.2477
  934SOL    HW1 2801   0.427   2.926   1.348  1.9345  0.6130  1.3831
  934SOL    HW2 2802   0.452   3.045   1.235 -1.7370 -0.9774 -2.4189
  935SOL     OW 2803   2.620   0.671   2.006 -0.2454 -0.0169  0.1279
  935SOL    HW1 2804   2.545   0.712   2.066 -0.4380  1.3488 -1.1625
  935SOL    HW2 2805   2.596   0.580   1.970  2.4956  2.5142 -0.5971
  936SOL     OW 2806   2.626   0.870   1.831 -0.4358 -0.0693 -0.4834
  936SOL    HW1 2807   2.726   0.878   1.808  0.3055 -1.1615 -2.1349
  936SOL    HW2 2808   2.626   0.793   1.898  0.3050  0.4352 -0.4532
  937SOL     OW 2809   1.733   1.274   1.688 -0.4100 -0.3554  0.7634
  937SOL    HW1 2810   1.753   1.370   1.716 -0.4321 -2.6720  0.3714
  937SOL    HW2 2811   1.811   1.237   1.637 -2.5774  3.0938  3.9572
  938SOL     OW 2812   0.464   2.293   2.949 -0.2953 -0.1138 -0.2128
  938SOL    HW1 2813   0.409   2.374   2.971  2.1233 -1.2409 -1.3124
  938SOL    HW2 2814   0.406   2.221   2.990  0.3580 -0.0873 -2.8030
  939SOL     OW 2815   2.278   0.554   2.961 -0.1498  0.4971  0.0689
  939SOL    HW1 2816   2.199   0.589   3.008 -0.2419  1.8535  1.0664
  939SOL    HW2 2817   2.332   0.482   3.019  0.7534 -0.9993  2.4915
  940SOL     OW 2818   1.269   2.324   0.761 -0.1590 -0.0876 -0.4649
  940SOL    HW1 2819   1.347   2.263   0.727  0.9178 -1.0858 -2.8862
  940SOL    HW2 2820   1.197   2.267   0.804  2.9291  1.1303 -0.3908
  941SOL     OW 2821   1.049   1.970   1.766  0.3498  0.4737 -0.2809
  941SOL    HW1 2822   1.062   2.049   1.703  3.9868  2.6670  1.3294
  941SOL    HW2 2823   1.005   1.888   1.719  0.1800 -3.8110 -1.6110
  942SOL     OW 2824   2.756   1.989   3.055  0.2291  0.0123 -0.1829
  942SOL    HW1 2825   2.735   1.891   3.072  0.5877  3.3919  0.5435
  942SOL    HW2 2826   2.816   2.005   2.976  1.8029 -0.0704 -0.7616
  943SOL     OW 2827   2.293   2.987   1.695 -0.1741  0.2709  0.0992
  943SOL    HW1 2828   2.235   2.928   1.640  0.1454 -1.3842 -1.2480
  943SOL    HW2 2829   2.232   3.059   1.736 -2.0364 -1.7632  1.7027
  944SOL     OW 2830   1.852   1.998   2.505 -0.2720  0.0439 -0.7451
  944SOL    HW1 2831   1.766   1.945   2.519  1.5268 -0.5242 -0.5198
  944SOL    HW2 2832   1.869   2.066   2.583  1.0189  0.2548  4.3363
  945SOL     OW 2833   2.631   2.098   0.970 -0.2636 -0.0372 -0.1631
  945SOL    HW1 2834   2.565   2.021   0.986 -2.4099  0.0491  1.7110
  945SOL    HW2 2835   2.591   2.189   0.957  1.5070 -1.1065 -1.9746
  946SOL     OW 2836   1.209   1.425   2.843  0.2271  0.1922 -0.0985
  946SOL    HW1 2837   1.221   1.344   2.780  0.2829 -1.2253 -3.4727
  946SOL    HW2 2838   1.294   1.477   2.859 -1.9451 -1.4825  1.7468
  947SOL     OW 2839   0.142   0.751   2.045 -0.5161 -0.0082 -0.9037
  947SOL    HW1 2840   0.201   0.813   1.994 -2.8207  1.6403  1.2852
  947SOL    HW2 2841   0.199   0.685   2.089 -0.1068  0.9514 -1.2538
  948SOL     OW 2842   3.036   1.107   0.645  0.2174 -0.1206 -0.3373
  948SOL    HW1 2843   0.039   1.144   0.611 -2.2789  0.3948 -0.7042
  948SOL    HW2 2844   3.056   1.029   0.712  0.3845 -0.1031  1.7847
  949SOL     OW 2845   0.645   0.528   2.555 -0.8114  0.2423  0.0392
  949SOL    HW1 2846   0.632   0.614   2.502 -3.1181  2.2750 -0.9397
  949SOL    HW2 2847   0.708   0.468   2.501 -1.3423 -2.0997 -3.4820
  950SOL     OW 2848   0.274   0.549   1.480 -0.2576  0.1446  0.4905
  950SOL    HW1 2849   0.251   0.600   1.568  0.1094  1.7450 -1.3871
  950SOL    HW2 2850   0.341   0.609   1.430  0.0555 -0.1022  0.8026
  951SOL     OW 2851   0.363   1.240   2.512 -0.0312 -0.0574 -0.6365
  951SOL    HW1 2852   0.325   1.173   2.447  2.7828  0.9152  0.5172
  951SOL    HW2 2853   0.314   1.230   2.601 -1.9278  1.0257  0.9060
  952SOL     OW 2854   1.808   2.357   1.253  0.5069  0.3613 -0.3885
  952SOL    HW1 2855   1.714   2.389   1.260  0.4976 -0.4777 -1.9714
  952SOL    HW2 2856   1.868   2.396   1.328  2.8790 -0.7025 -0.1578
  953SOL     OW 2857   0.323   2.504   3.043  0.0533  0.4958 -0.4728
  953SOL    HW1 2858   0.291   2.500   0.054 -0.9537  0.2340  0.7875
  953SOL    HW2 2859   0.288   2.588   2.997 -3.1528 -0.4193 -1.0605
  954SOL     OW 2860   2.795   1.065   0.984 -0.5877  0.2341 -0.4302
  954SOL    HW1 2861   2.784   1.163   0.953 -2.5373  3.3602 -0.0583
  954SOL    HW2 2862   2.857   1.055   1.065  0.2082  0.1302  0.8072
  955SOL     OW 2863   1.583   1.390   2.982  0.1607  0.0340 -0.0041
  955SOL    HW1 2864   1.593   1.326   2.906 -1.5537  3.0276  2.6847
  955SOL    HW2 2865   1.540   1.342   3.064  2.7114 -1.1226  2.5464
  956SOL     OW 2866   1.060   0.700   2.399  0.1930  0.1463  0.5279
  956SOL    HW1 2867   1.019   0.792   2.379 -4.0254 -1.5218 -1.4283
  956SOL    HW2 2868   1.012   0.641   2.338  1.1131 -0.6862  0.7611
  957SOL     OW 2869   0.851   0.363   1.586  0.0944  0.1947 -0.1136
  957SOL    HW1 2870   0.753   0.352   1.586 -0.8260 -1.3113 -3.1377
  957SOL    HW2 2871   0.883   0.406   1.674  1.4210  0.0845  0.5368
  958SOL     OW 2872   0.277   1.831   0.485 -0.1974  0.1339  0.0068
  958SOL    HW1 2873   0.198   1.849   0.548  1.3193  0.0905  1.7670
  958SOL    HW2 2874   0.253   1.841   0.387  1.8086  0.4487  1.0338
  959SOL     OW 2875   2.261   0.722   1.588  0.0604 -0.0071  0.1034
  959SOL    HW1 2876   2.363   0.711   1.604  2.1167 -0.1999 -0.1045
  959SOL    HW2 2877   2.219   0.704   1.676  0.4355  1.8927 -3.7097
  960SOL     OW 2878   0.219   1.573   2.761  0.6066 -0.6655 -0.2052
  960SOL    HW1 2879   0.136   1.523   2.734 -0.5629  1.8372  3.1243
  960SOL    HW2 2880   0.246   1.532   2.846 -2.3859 -0.3595 -3.3296
  961SOL     OW 2881   0.606   1.662   0.755 -0.8229 -0.0253 -0.1614
  961SOL    HW1 2882   0.541   1.653   0.677  1.0334  0.7571  0.4333
  961SOL    HW2 2883   0.566   1.660   0.850  1.2676  1.3341 -1.6065
  962SOL     OW 2884   0.676   1.465   1.189  0.5018 -0.2608  0.3899
  962SOL    HW1 2885   0.742   1.532   1.232  0.2014 -0.0060 -0.1875
  962SOL    HW2 2886   0.731   1.403   1.129 -1.2151  0.5412 -1.0134
  963SOL     OW 2887   1.466   2.302   2.514  0.3542 -0.0022 -0.4310
  963SOL    HW1 2888   1.438   2.225   2.576 -2.4772 -3.7520 -0.9980
  963SOL    HW2 2889   1.511   2.264   2.435 -2.2636  1.0994  0.8370
  964SOL     OW 2890   0.134   2.674   2.457 -0.3052  0.3190  0.7188
  964SOL    HW1 2891   0.197   2.734   2.400  2.9646  0.9782 -1.6396
  964SOL    HW2 2892   0.041   2.706   2.451  4.0286 -0.4213  1.1273
  965SOL     OW 2893   2.741   2.069   2.690 -0.0793 -0.1120  0.0007
  965SOL    HW1 2894   2.835   2.044   2.652  1.4935  0.2914  0.9846
  965SOL    HW2 2895   2.692   1.986   2.727 -1.9167 -1.6270 -1.7419
  966SOL     OW 2896   2.807   1.449   2.694 -0.1645  0.4101  0.2970
  966SOL    HW1 2897   2.785   1.506   2.777  2.2728  0.4512 -1.2419
  966SOL    HW2 2898   2.733   1.390   2.668  2.1131 -0.7443  1.7304
  967SOL     OW 2899   1.846   0.366   0.464  0.1853 -0.4066  0.0238
  967SOL    HW1 2900   1.935   0.330   0.481 -2.9586 -2.2433 -0.4585
  967SOL    HW2 2901   1.789   0.342   0.544  2.1288 -0.6783  0.8507
  968SOL     OW 2902   2.467   0.140   0.724 -0.0086 -0.3160  0.5354
  968SOL    HW1 2903   2.462   0.105   0.822 -1.2040  0.1458  2.0097
  968SOL    HW2 2904   2.408   0.225   0.712  1.6044  0.5491 -0.0289
  969SOL     OW 2905   0.517   0.907   2.078  0.0532 -0.1722  0.5139
  969SOL    HW1 2906   0.557   0.821   2.037  0.3418 -1.0150 -1.6734
  969SOL    HW2 2907   0.582   0.962   2.134 -0.7229 -1.3040  1.8183
  970SOL     OW 2908   1.948   1.606   2.756  0.7786  0.6017 -0.5757
  970SOL    HW1 2909   1.894   1.532   2.795 -0.0385 -0.5710 -1.1535
  970SOL    HW2 2910   1.934   1.608   2.658  2.1305 -1.9163  3.7563
  971SOL     OW 2911   2.314   0.384   1.767 -0.4102 -0.2154  0.3735
  971SOL    HW1 2912   2.291   0.297   1.811 -2.1359  4.3573  0.2342
  971SOL    HW2 2913   2.300   0.378   1.666 -1.2456 -1.8266  1.3055
  972SOL     OW 2914   3.021   0.405   1.039  0.4645 -0.1964 -0.3618
  972SOL    HW1 2915   2.940   0.353   0.994 -3.0565 -0.9906  0.0071
  972SOL    HW2 2916   0.027   0.370   1.013  1.1217  0.1798  0.7544
  973SOL     OW 2917   0.100   0.223   2.424  0.2025 -0.6337  0.2054
  973SOL    HW1 2918   0.157   0.139   2.429  1.8035 -2.8343  1.0476
  973SOL    HW2 2919   0.049   0.245   2.511  0.0788  0.2097 -0.2001
  974SOL     OW 2920   2.957   1.102   1.607 -0.1181 -0.4146 -0.4822
  974SOL    HW1 2921   3.018   1.131   1.527  0.8956  1.0473  0.8303
  974SOL    HW2 2922   2.856   1.125   1.591 -2.2662 -1.2609  1.0576
  975SOL     OW 2923   1.479   0.066   2.409 -0.3207 -0.1678 -0.1062
  975SOL    HW1 2924   1.540   0.043   2.329  5.0266 -0.5107  1.7732
  975SOL    HW2 2925   1.486   3.083   2.479  0.6312  0.2897  0.0501
  976SOL     OW 2926   2.036   1.508   1.492 -0.4685  0.2346  0.3579
  976SOL    HW1 2927   2.032   1.574   1.413  0.4472 -1.2635 -1.4293
  976SOL    HW2 2928   2.049   1.557   1.580 -0.1666 -0.4889 -0.6546
  977SOL     OW 2929   3.062   2.797   0.101 -0.2510  0.5097  0.0457
  977SOL    HW1 2930   3.030   2.711   0.055  4.1061 -1.0428  3.4077
  977SOL    HW2 2931   3.000   2.874   0.080  0.3859 -0.0560 -2.6984
  978SOL     OW 2932   2.069   1.333   2.201  0.4618 -0.0168  0.3101
  978SOL    HW1 2933   2.052   1.299   2.104  1.7859  1.0296  0.7950
  978SOL    HW2 2934   2.018   1.270   2.269 -1.3708  1.1134 -0.4353
  979SOL     OW 2935   1.028   0.978   2.277  0.2484 -0.4480  0.2820
  979SOL    HW1 2936   1.098   0.938   2.214 -0.1513 -0.9257 -1.4529
  979SOL    HW2 2937   0.938   0.988   2.236 -1.0813 -1.6602  0.4999
  980SOL     OW 2938   1.605   1.868   2.580 -0.0317 -0.0836 -0.2997
  980SOL    HW1 2939   1.504   1.888   2.571  1.2911  1.3159  1.6071
  980SOL    HW2 2940   1.629   1.778   2.537 -2.8004  0.1922  0.2342
  981SOL     OW 2941   1.719   0.824   1.764 -0.1163 -0.1095  0.1041
  981SOL    HW1 2942   1.808   0.868   1.784 -0.1864  0.5922  0.5017
  981SOL    HW2 2943   1.647   0.865   1.822 -2.7423 -0.9264  1.2456
  982SOL     OW 2944   0.631   0.291   0.158  0.1601  0.2203 -0.2575
  982SOL    HW1 2945   0.561   0.261   0.222  0.3908 -1.5931 -0.4207
  982SOL    HW2 2946   0.594   0.293   0.063 -0.3539  1.5269  1.4274
  983SOL     OW 2947   2.062   0.678   3.047  0.1287  0.1237  0.7083
  983SOL    HW1 2948   2.047   0.629   0.053  2.5287  0.2801  1.7610
  983SOL    HW2 2949   2.093   0.776   3.054 -1.6066  0.8318  1.5373
  984SOL     OW 2950   1.047   0.235   2.946  0.4568 -0.3199 -0.5464
  984SOL    HW1 2951   1.149   0.220   2.957 -0.2108 -0.0448 -1.4497
  984SOL    HW2 2952   0.994   0.208   3.031 -2.8166 -1.9034  1.2135
  985SOL     OW 2953   1.271   2.413   1.773  0.4869 -0.0008 -0.7586
  985SOL    HW1 2954   1.189   2.372   1.814 -1.6257  0.9544 -1.9780
  985SOL    HW2 2955   1.276   2.509   1.810 -0.4103 -1.5261 -1.1285
  986SOL     OW 2956   2.528   2.897   1.853  0.1493 -1.0001  0.1424
  986SOL    HW1 2957   2.453   2.960   1.882 -0.9229 -1.7311 -1.3761
  986SOL    HW2 2958   2.622   2.922   1.884 -1.1042 -0.1010 -1.2907
  987SOL     OW 2959   2.108   1.267   1.136  0.2503  0.3886 -0.1637
  987SOL    HW1 2960   2.118   1.357   1.096 -1.1669  1.5810  0.3932
  987SOL    HW2 2961   2.195   1.238   1.176 -2.0155  1.5370  1.1523
  988SOL     OW 2962   2.444   1.162   1.547  0.3423 -0.1467 -0.5867
  988SOL    HW1 2963   2.403   1.120   1.631 -0.1357 -0.5598  0.1810
  988SOL    HW2 2964   2.382   1.234   1.518  0.0041 -0.5487  0.7339
  989SOL     OW 2965   1.851   2.066   2.948 -0.2447 -0.4600  0.0639
  989SOL    HW1 2966   1.863   2.123   2.862 -1.2862  2.4909 -1.2904
  989SOL    HW2 2967   1.937   2.069   3.004  0.2483 -1.5574 -0.6903
  990SOL     OW 2968   1.653   0.710   2.235 -0.0967  0.0583 -0.3346
  990SOL    HW1 2969   1.714   0.631   2.208  0.1062 -0.6424 -1.1738
  990SOL    HW2 2970   1.679   0.783   2.170  4.1443 -1.4413  1.2468
  991SOL     OW 2971   1.087   1.092   0.679 -0.3114 -0.1794  0.1600
  991SOL    HW1 2972   1.100   0.994   0.654 -0.2809  0.9028 -0.4961
  991SOL    HW2 2973   1.109   1.110   0.780  0.7338 -0.4589 -0.2377
  992SOL     OW 2974   0.250   1.040   1.275  0.2382 -0.0182  0.4638
  992SOL    HW1 2975   0.324   1.101   1.268 -0.7592 -2.1894  1.4050
  992SOL    HW2 2976   0.198   1.046   1.188 -0.5261  0.0465 -1.8238
  993SOL     OW 2977   2.179   0.637   1.831  0.8028  0.8256 -0.5261
  993SOL    HW1 2978   2.172   0.644   1.933  2.0086 -0.9301 -1.5752
  993SOL    HW2 2979   2.215   0.551   1.801  1.0524  0.1247 -0.6958
  994SOL     OW 2980   1.333   1.953   1.720  0.1627 -0.1704  0.1919
  994SOL    HW1 2981   1.403   1.922   1.784  0.4627 -0.1482 -0.7023
  994SOL    HW2 2982   1.241   1.964   1.759 -2.1649  0.3623  0.3553
  995SOL     OW 2983   2.204   1.970   2.931 -0.2897 -0.4944  0.7974
  995SOL    HW1 2984   2.304   1.979   2.914  1.0870  1.1495  0.3708
  995SOL    HW2 2985   2.156   1.971   2.840  2.4192 -0.1825 -1.1237
  996SOL     OW 2986   2.134   1.769   0.411  0.0836 -0.9443 -0.7473
  996SOL    HW1 2987   2.228   1.763   0.368  2.4100 -1.0651  1.4316
  996SOL    HW2 2988   2.126   1.707   0.490 -0.9698 -1.8967 -0.3616
  997SOL     OW 2989   1.781   0.495   2.160  0.0885 -0.2195  0.3432
  997SOL    HW1 2990   1.824   0.429   2.100 -2.5463  2.1782  0.7895
  997SOL    HW2 2991   1.783   0.462   2.254 -0.1671  0.0492 -5.7485
  998SOL     OW 2992   2.522   0.754   0.810  0.7036 -0.5465  0.4211
  998SOL    HW1 2993   2.498   0.713   0.900 -0.3519 -4.6299 -0.3666
  998SOL    HW2 2994   2.453   0.734   0.735 -2.1209  0.1358 -2.6941
  999SOL     OW 2995   2.326   1.116   0.509  0.4072 -0.5598  0.3133
  999SOL    HW1 2996   2.397   1.062   0.559  0.9183 -1.9961  0.9915
  999SOL    HW2 2997   2.278   1.175   0.577 -0.3761  1.6385  0.1166
 1000SOL     OW 2998   0.759   1.235   1.725 -0.1039 -0.1415  0.4948
 1000SOL    HW1 2999   0.703   1.236   1.808  5.1455  3.0020 -1.1883
 1000SOL    HW2 3000   0.751   1.146   1.670  0.5412 -0.2040 -0.1455
   3.08510   3.08510   3.08510
