1000 SPC/Fw water molecules t= 229.00000 step= 229000
 3000
    1SOL     OW    1   0.018   2.892   0.916 -0.4640 -1.1089 -0.0036
    1SOL    HW1    2   0.095   2.876   0.855 -0.5421  1.7004  0.0196
    1SOL    HW2    3   0.007   2.991   0.943  2.3562  0.5999 -0.7506
    2SOL     OW    4   1.985   1.780   1.485  0.4113  0.4306 -0.9982
    2SOL    HW1    5   2.021   1.692   1.531  0.5630 -2.3138  0.6601
    2SOL    HW2    6   1.886   1.776   1.468  2.5723 -0.5127 -0.8735
    3SOL     OW    7   1.674   2.415   2.502  0.2762  0.0303 -0.0056
    3SOL    HW1    8   1.625   2.497   2.460 -0.2253 -0.1290  0.7073
    3SOL    HW2    9   1.720   2.429   2.594 -1.3717 -0.5311 -1.2195
    4SOL     OW   10   2.012   2.001   2.227 -0.1524  0.3345 -0.1609
    4SOL    HW1   11   1.969   2.079   2.273 -0.3927  1.6429 -2.6791
    4SOL    HW2   12   2.106   1.979   2.266  1.4980  0.6187 -0.7484
    5SOL     OW   13   1.325   1.175   1.437  0.3114  0.0195 -0.1600
    5SOL    HW1   14   1.315   1.171   1.335 -0.0589  1.6323 -0.7756
    5SOL    HW2   15   1.366   1.090   1.475 -3.3195  0.3010  1.6647
    6SOL     OW   16   2.831   0.175   0.028  0.0659 -0.1372  0.6787
    6SOL    HW1   17   2.929   0.180   3.079  2.6426 -1.4026 -1.0720
    6SOL    HW2   18   2.807   0.076   0.032  0.2583 -1.8296  0.4521
    7SOL     OW   19   0.055   1.725   1.446 -0.2627 -0.1598 -0.1833
    7SOL    HW1   20   0.019   1.636   1.476  0.9300  0.2052 -1.2519
    7SOL    HW2   21   0.066   1.726   1.343 -0.9672 -0.5789  0.2822
    8SOL     OW   22   1.086   0.258   0.758  0.4604 -0.2542 -0.5329
    8SOL    HW1   23   1.125   0.317   0.831  0.3234 -0.2095 -0.0216
    8SOL    HW2   24   0.995   0.218   0.793 -2.3996 -1.2134  0.7516
    9SOL     OW   25   1.353   0.551   2.514 -0.2886  0.2851  0.5628
    9SOL    HW1   26   1.420   0.603   2.567 -0.2861 -0.6865 -0.0443
    9SOL    HW2   27   1.354   0.578   2.414 -0.8716 -0.2555 -0.4342
   10SOL     OW   28   0.699   2.248   0.185 -0.1464  0.4092  0.0785
   10SOL    HW1   29   0.633   2.176   0.149  1.0159  0.2813  0.0849
   10SOL    HW2   30   0.658   2.290   0.269 -0.7654 -0.3787  1.3188
   11SOL     OW   31   0.801   0.985   0.086  0.0658 -0.3190  0.4231
   11SOL    HW1   32   0.815   1.075   0.136  1.3540  1.6614 -0.4120
   11SOL    HW2   33   0.725   0.924   0.119  0.7112 -3.1360  1.5489
   12SOL     OW   34   3.027   0.315   1.628  0.1446 -0.0985 -0.2381
   12SOL    HW1   35   2.990   0.389   1.684  0.6063  1.3382  3.4593
   12SOL    HW2   36   0.040   0.298   1.646 -3.7185  2.7203 -0.3013
   13SOL     OW   37   1.340   0.028   0.146  0.4878  0.8747  0.4293
   13SOL    HW1   38   1.290   3.031   0.100 -0.5760 -3.7419 -2.1496
   13SOL    HW2   39   1.307   0.047   0.241 -0.0610 -0.1243 -2.2902
   14SOL     OW   40   1.214   2.490   1.125  0.1571  0.0918  0.4882
   14SOL    HW1   41   1.176   2.493   1.217  0.3781 -0.3918 -3.2390
   14SOL    HW2   42   1.211   2.399   1.086 -0.3902 -1.0938  2.3030
   15SOL     OW   43   2.455   1.136   1.583 -0.0793  0.1684 -0.6248
   15SOL    HW1   44   2.516   1.151   1.663  1.0316  0.1304 -0.0069
   15SOL    HW2   45   2.477   1.047   1.541  0.4097 -0.7939  1.9732
   16SOL     OW   46   1.920   2.817   3.034  0.2255  0.3274 -0.1531
   16SOL    HW1   47   1.855   2.788   2.962  2.5905 -1.5945  0.9032
   16SOL    HW2   48   1.949   2.913   3.023 -0.4768 -1.7710 -0.9696
   17SOL     OW   49   0.851   2.979   1.413  0.0173  0.4535 -0.0042
   17SOL    HW1   50   0.935   2.935   1.370  0.6013 -2.1700 -0.2253
   17SOL    HW2   51   0.854   2.959   1.513 -2.1214 -1.3135 -1.6022
   18SOL     OW   52   1.519   0.475   3.006  0.1073  0.0798  0.3132
   18SOL    HW1   53   1.500   0.393   3.062 -1.6472 -0.3061 -0.7851
   18SOL    HW2   54   1.467   0.559   3.033 -3.9196  0.6585 -0.7077
   19SOL     OW   55   2.051   1.692   0.138  0.0731  0.2470 -0.7747
   19SOL    HW1   56   2.103   1.630   0.197  0.8466  0.4347 -1.6644
   19SOL    HW2   57   2.100   1.779   0.143 -1.5447 -1.7788 -0.2599
   20SOL     OW   58   1.989   1.520   1.574  0.0071  0.9875  0.1785
   20SOL    HW1   59   2.073   1.489   1.626  0.5067 -2.0559 -1.3842
   20SOL    HW2   60   1.902   1.494   1.617  0.2129 -1.0072  0.3309
   21SOL     OW   61   0.697   1.258   2.677  0.6967  0.1346 -0.1871
   21SOL    HW1   62   0.708   1.312   2.593  1.1624 -2.3820  1.5456
   21SOL    HW2   63   0.758   1.280   2.754  0.9843  0.0117  1.8866
   22SOL     OW   64   2.057   2.947   1.373 -0.0769 -0.4274 -0.1350
   22SOL    HW1   65   1.962   2.985   1.359 -2.0722  2.3153  1.4117
   22SOL    HW2   66   2.122   3.016   1.337 -1.9425 -1.2064  1.2830
   23SOL     OW   67   2.952   0.521   1.784 -0.0820  0.2408 -0.1013
   23SOL    HW1   68   3.028   0.580   1.749 -1.9539  1.2670  1.5322
   23SOL    HW2   69   2.904   0.559   1.869  1.6591 -1.2473 -2.2264
   24SOL     OW   70   2.318   2.547   1.054  0.1159 -0.2712 -0.3260
   24SOL    HW1   71   2.298   2.620   1.126  0.5730  2.7690 -0.4059
   24SOL    HW2   72   2.233   2.492   1.038  1.1375  1.6280  0.7972
   25SOL     OW   73   1.697   2.777   2.466  0.7191  0.2185 -0.6382
   25SOL    HW1   74   1.790   2.734   2.451  0.0019  0.0142 -2.2602
   25SOL    HW2   75   1.618   2.714   2.442 -0.2406  0.7682  1.6962
   26SOL     OW   76   1.768   2.652   2.872  0.0146 -0.0962  0.3968
   26SOL    HW1   77   1.667   2.650   2.879  0.1672  2.7890  0.7100
   26SOL    HW2   78   1.798   2.616   2.779 -1.8444 -1.6798 -4.4942
   27SOL     OW   79   0.288   1.620   2.723  0.8796  0.0538  0.6342
   27SOL    HW1   80   0.268   1.709   2.762  0.5218 -0.3120 -1.8732
   27SOL    HW2   81   0.369   1.634   2.661  2.8014 -0.1775  0.8549
   28SOL     OW   82   2.805   1.142   1.518 -0.1830  0.0432  0.0440
   28SOL    HW1   83   2.862   1.200   1.460  2.1357 -2.3966  0.9413
   28SOL    HW2   84   2.789   1.186   1.607 -2.3444  3.1788 -0.3203
   29SOL     OW   85   2.746   2.418   1.850 -0.1293 -0.0370  0.2683
   29SOL    HW1   86   2.817   2.408   1.919 -1.8948  0.2670  0.0625
   29SOL    HW2   87   2.708   2.511   1.862 -2.0651 -0.2047  1.6559
   30SOL     OW   88   1.613   0.182   2.867  0.3461  0.2045  0.1193
   30SOL    HW1   89   1.540   0.192   2.796 -1.9707 -2.4271 -1.2474
   30SOL    HW2   90   1.582   0.219   2.958 -0.5185 -2.3849 -1.9620
   31SOL     OW   91   2.723   2.671   1.774  0.0524 -0.0347  0.0021
   31SOL    HW1   92   2.739   2.736   1.850  1.8843 -1.0253 -0.7303
   31SOL    HW2   93   2.668   2.699   1.698  0.1521 -3.1060 -1.6509
   32SOL     OW   94   1.066   1.521   1.465  0.0029 -0.0542 -0.3916
   32SOL    HW1   95   0.964   1.524   1.481 -0.2800 -0.0838 -0.1552
   32SOL    HW2   96   1.079   1.498   1.368 -1.6573  0.5623  0.2844
   33SOL     OW   97   0.399   2.744   2.334 -0.5162  0.0272 -0.2374
   33SOL    HW1   98   0.339   2.774   2.259  2.1451 -1.8460  3.4429
   33SOL    HW2   99   0.394   2.644   2.342 -1.2972  4.2283 -0.6393
   34SOL     OW  100   1.859   0.118   0.654 -0.1755 -0.1403  0.5210
   34SOL    HW1  101   1.890   0.199   0.599  3.1031 -1.6269 -0.8430
   34SOL    HW2  102   1.931   0.090   0.719  1.4445  1.9988 -3.4408
   35SOL     OW  103   2.063   0.036   0.815 -0.0217 -0.1919 -0.2573
   35SOL    HW1  104   2.143   0.062   0.752  2.3273  0.8738 -1.2339
   35SOL    HW2  105   2.074   0.076   0.907  2.5025  0.1237  3.3284
   36SOL     OW  106   1.787   2.631   2.174  0.0596 -0.6274 -0.3515
   36SOL    HW1  107   1.873   2.599   2.127 -0.0126  0.6116 -1.9274
   36SOL    HW2  108   1.701   2.597   2.138  1.1803  1.6882  0.4177
   37SOL     OW  109   0.883   2.809   2.203  0.0667 -0.1929 -0.2563
   37SOL    HW1  110   0.810   2.794   2.136  0.4019  1.0307 -0.0922
   37SOL    HW2  111   0.903   2.732   2.267  2.3780 -0.0294 -0.7554
   38SOL     OW  112   0.151   2.721   2.568 -0.2291 -0.1955 -0.3485
   38SOL    HW1  113   0.146   2.661   2.648  2.9939 -0.4995 -1.1148
   38SOL    HW2  114   0.230   2.784   2.556 -3.2297  0.6120 -2.7137
   39SOL     OW  115   2.240   1.348   2.140  0.2472 -0.2942 -0.2639
   39SOL    HW1  116   2.278   1.405   2.219  0.2742  0.3583 -1.0131
   39SOL    HW2  117   2.314   1.302   2.088 -1.2685  2.5816 -1.8072
   40SOL     OW  118   0.260   2.942   2.786  0.2726 -0.0855  0.0712
   40SOL    HW1  119   0.287   2.938   2.686 -3.9059  0.8066  0.8672
   40SOL    HW2  120   0.285   2.852   2.829  0.4326 -0.5586 -4.5889
   41SOL     OW  121   1.710   0.596   0.888 -0.4311 -0.1116 -0.5641
   41SOL    HW1  122   1.762   0.671   0.842  2.0047  1.3203 -2.0944
   41SOL    HW2  123   1.636   0.645   0.942 -0.5182  0.3762 -0.2663
   42SOL     OW  124   0.555   0.410   1.250  0.2914 -0.1641 -0.0510
   42SOL    HW1  125   0.655   0.411   1.227  0.6936 -2.5980 -1.2862
   42SOL    HW2  126   0.499   0.455   1.174  1.1550  0.5621 -2.9979
   43SOL     OW  127   2.579   1.610   2.890  0.1803 -0.8677 -0.3041
   43SOL    HW1  128   2.575   1.512   2.865  2.0301 -0.9342 -1.9009
   43SOL    HW2  129   2.627   1.665   2.820  0.0465  0.5321  1.3808
   44SOL     OW  130   0.076   2.625   0.638 -0.6926  0.0348  0.0979
   44SOL    HW1  131   0.132   2.706   0.664  0.7325 -2.6377 -1.6587
   44SOL    HW2  132   0.023   2.597   0.720 -2.7174  2.1503 -2.0087
   45SOL     OW  133   0.406   2.607   1.567 -0.0467 -0.2784  0.0876
   45SOL    HW1  134   0.357   2.518   1.560 -0.1668 -1.0146 -0.0621
   45SOL    HW2  135   0.346   2.692   1.560  0.4710  1.6231  1.4456
   46SOL     OW  136   2.311   2.367   2.175 -0.1641 -0.5140 -0.0935
   46SOL    HW1  137   2.391   2.335   2.230 -2.5697 -0.0909 -0.0672
   46SOL    HW2  138   2.353   2.411   2.091  0.0696 -0.3325 -2.6715
   47SOL     OW  139   2.208   2.078   1.294  0.6348 -0.3806 -0.1641
   47SOL    HW1  140   2.217   2.181   1.303  1.2787 -0.1187  2.6828
   47SOL    HW2  141   2.109   2.042   1.304 -2.8603  0.7825  0.9636
   48SOL     OW  142   0.564   1.743   0.032 -0.2038 -0.2321  1.1436
   48SOL    HW1  143   0.635   1.721   3.044  0.8623 -0.0291  2.2945
   48SOL    HW2  144   0.520   1.654   0.053 -0.3755  1.5428 -0.4935
   49SOL     OW  145   2.834   0.191   2.594  0.1266 -0.0203 -0.4907
   49SOL    HW1  146   2.740   0.154   2.577 -0.3064  0.8057 -0.7458
   49SOL    HW2  147   2.858   0.279   2.537  0.5512  3.1734 -0.1835
   50SOL     OW  148   2.416   0.720   0.366  0.2040 -0.4590  0.4013
   50SOL    HW1  149   2.327   0.770   0.351  2.6131 -0.0284 -2.6050
   50SOL    HW2  150   2.444   0.676   0.277  1.4264 -1.1381 -3.0318
   51SOL     OW  151   1.966   0.672   1.230 -0.4015  0.1686 -0.3189
   51SOL    HW1  152   1.999   0.747   1.171 -1.0641  0.1178 -0.8492
   51SOL    HW2  153   1.903   0.612   1.185  4.0349 -0.8123  1.5135
   52SOL     OW  154   1.161   1.302   2.802 -0.1334  0.2694  0.6687
   52SOL    HW1  155   1.182   1.395   2.765  0.8244  0.7158  0.8329
   52SOL    HW2  156   1.244   1.251   2.833 -2.0146  0.5894  0.9618
   53SOL     OW  157   0.752   1.654   1.750  0.1878  0.1042 -0.1169
   53SOL    HW1  158   0.668   1.630   1.796 -0.0322  1.1481  0.4428
   53SOL    HW2  159   0.755   1.615   1.660 -1.6052 -0.4440  1.3502
   54SOL     OW  160   1.930   0.261   1.089  0.1865 -0.4491  0.5516
   54SOL    HW1  161   1.925   0.200   1.166  0.6418 -0.0729  3.7793
   54SOL    HW2  162   2.003   0.233   1.029 -0.1031  0.8940  4.0658
   55SOL     OW  163   2.611   2.335   1.231  0.2223 -0.3048 -0.1627
   55SOL    HW1  164   2.653   2.353   1.142 -0.1428  1.1046  2.5787
   55SOL    HW2  165   2.620   2.239   1.263 -1.1426  1.9516  0.7703
   56SOL     OW  166   0.865   2.955   1.670 -0.4527  0.4892 -0.1523
   56SOL    HW1  167   0.896   2.863   1.691 -0.2589 -1.7498  0.4244
   56SOL    HW2  168   0.907   3.012   1.738 -3.3767  0.8030 -0.5023
   57SOL     OW  169   1.812   1.428   0.199  0.1001 -0.5482 -0.4284
   57SOL    HW1  170   1.916   1.433   0.202  0.9982 -1.3533 -2.5122
   57SOL    HW2  171   1.773   1.523   0.189  0.7780 -0.6782 -0.3911
   58SOL     OW  172   2.958   0.415   2.371 -0.2700 -0.3599 -0.0471
   58SOL    HW1  173   2.990   0.431   2.275 -1.1197  0.5446  0.0397
   58SOL    HW2  174   2.932   0.504   2.410  0.0370  1.9270  1.9244
   59SOL     OW  175   0.919   2.646   2.421 -0.2249  0.0210  0.3522
   59SOL    HW1  176   0.962   2.645   2.518  1.6434  3.3687  2.2192
   59SOL    HW2  177   0.863   2.563   2.400  0.7136  1.0867 -2.0334
   60SOL     OW  178   2.667   2.600   0.749 -0.4761  0.0423  0.5751
   60SOL    HW1  179   2.645   2.547   0.836  0.2988 -0.0423  4.6059
   60SOL    HW2  180   2.610   2.552   0.675 -3.1705 -2.4637 -0.9940
   61SOL     OW  181   1.310   2.226   0.774  0.4100  0.1153 -0.1527
   61SOL    HW1  182   1.296   2.325   0.748  0.4442 -0.7459 -1.5345
   61SOL    HW2  183   1.328   2.170   0.691 -0.4561  0.9171 -2.1653
   62SOL     OW  184   2.410   2.093   2.448 -0.2223 -0.4361  0.5845
   62SOL    HW1  185   2.441   2.056   2.538 -0.1880 -0.9463  1.7921
   62SOL    HW2  186   2.344   2.026   2.412  1.8528 -0.1748  3.3015
   63SOL     OW  187   2.225   0.116   2.900 -0.3994  0.1354  0.5059
   63SOL    HW1  188   2.250   0.145   2.804 -0.5130 -1.2800  2.7786
   63SOL    HW2  189   2.315   0.109   2.952  2.3537 -0.4526  1.6265
   64SOL     OW  190   1.229   0.855   2.724 -0.3638 -0.1273  0.6718
   64SOL    HW1  191   1.207   0.835   2.821 -0.3526 -0.2687  0.2028
   64SOL    HW2  192   1.315   0.809   2.696 -0.5331  1.2089  1.1364
   65SOL     OW  193   1.481   2.507   0.286  0.0937  0.2887  0.0123
   65SOL    HW1  194   1.516   2.561   0.204  0.7095  2.3212 -0.2785
   65SOL    HW2  195   1.516   2.410   0.277 -0.5479 -1.3274  0.7392
   66SOL     OW  196   0.153   1.320   1.722  0.6489 -0.5134 -0.4870
   66SOL    HW1  197   0.118   1.413   1.717  1.3273  2.0060  0.0673
   66SOL    HW2  198   0.177   1.276   1.637  0.6202 -0.0252  1.8339
   67SOL     OW  199   2.578   3.039   2.784 -0.0503  0.5898 -0.0544
   67SOL    HW1  200   2.679   3.032   2.795 -2.3508  0.2649 -0.5941
   67SOL    HW2  201   2.547   0.030   2.720 -1.0323 -1.8662  1.2511
   68SOL     OW  202   0.705   2.435   1.372  0.1106 -0.4782  0.1709
   68SOL    HW1  203   0.756   2.350   1.377 -2.7969 -1.0877  1.7974
   68SOL    HW2  204   0.764   2.516   1.401  0.4241  1.8853 -2.0284
   69SOL     OW  205   0.589   2.440   0.399  0.7660 -0.1942 -0.4547
   69SOL    HW1  206   0.676   2.467   0.440  1.9407 -0.0110 -1.8981
   69SOL    HW2  207   0.516   2.432   0.468 -0.5941  0.2449  0.7757
   70SOL     OW  208   2.956   1.015   2.904 -0.5506  0.0819  0.5010
   70SOL    HW1  209   2.907   1.104   2.901  0.4999  2.0512 -2.1781
   70SOL    HW2  210   2.973   0.980   2.811  0.6642  2.3457 -0.2268
   71SOL     OW  211   0.446   1.174   2.438  0.1978 -0.2458 -0.1173
   71SOL    HW1  212   0.437   1.260   2.381  1.3920 -0.9083 -1.4205
   71SOL    HW2  213   0.434   1.200   2.537 -0.8634  0.4909 -0.1185
   72SOL     OW  214   0.347   2.198   0.290  0.3264 -0.6155 -0.9112
   72SOL    HW1  215   0.391   2.148   0.211 -0.6639 -0.3080 -2.8408
   72SOL    HW2  216   0.345   2.300   0.279  0.8093  0.7608  0.6358
   73SOL     OW  217   0.821   1.247   0.194  0.0352  0.2863 -0.4158
   73SOL    HW1  218   0.818   1.349   0.193  0.1854 -1.0845  1.4945
   73SOL    HW2  219   0.909   1.217   0.230  0.0876  2.7483 -0.2653
   74SOL     OW  220   2.977   2.992   0.208  0.0755  0.2919 -0.4216
   74SOL    HW1  221   2.924   2.984   0.122  1.5950 -1.1427 -0.1031
   74SOL    HW2  222   3.030   3.075   0.218  0.6288  0.2834 -2.3543
   75SOL     OW  223   2.276   1.713   2.185  0.4587 -0.0837 -0.0243
   75SOL    HW1  224   2.357   1.676   2.139 -3.5155 -0.1640  0.8605
   75SOL    HW2  225   2.193   1.667   2.149  1.1994 -0.6911 -0.8525
   76SOL     OW  226   1.954   2.680   1.474 -0.3143 -0.2815  0.0414
   76SOL    HW1  227   2.001   2.771   1.471  0.1431 -0.0679 -2.4628
   76SOL    HW2  228   1.927   2.653   1.378 -1.3396 -0.4693 -1.5150
   77SOL     OW  229   2.503   0.436   1.502  0.0292  0.8017  0.4112
   77SOL    HW1  230   2.519   0.528   1.546 -0.3440  0.9810 -0.5221
   77SOL    HW2  231   2.558   0.420   1.418 -0.8288  0.6388 -3.0242
   78SOL     OW  232   2.108   1.038   2.900 -0.5965 -0.4546 -0.3479
   78SOL    HW1  233   2.133   1.009   2.807 -3.5947 -0.3028 -0.7736
   78SOL    HW2  234   2.033   1.107   2.888 -1.6636 -0.1192 -1.2093
   79SOL     OW  235   0.664   1.700   2.073 -0.9476 -0.4080  0.3846
   79SOL    HW1  236   0.608   1.671   1.992  0.3276 -0.2450  2.6991
   79SOL    HW2  237   0.754   1.649   2.081 -1.1377  0.7306 -0.4763
   80SOL     OW  238   1.566   0.988   1.025  0.4012 -0.0779  0.0826
   80SOL    HW1  239   1.515   1.058   0.968  0.9939  2.6741 -2.5622
   80SOL    HW2  240   1.665   0.992   0.998 -1.3228  1.9922  2.7001
   81SOL     OW  241   0.845   0.604   1.453  0.2425 -0.1982  0.0133
   81SOL    HW1  242   0.761   0.615   1.510 -1.2199  1.9199  2.5180
   81SOL    HW2  243   0.819   0.582   1.358  0.1747 -0.2195  0.4929
   82SOL     OW  244   1.280   2.344   1.688  0.3461  0.4282  0.0454
   82SOL    HW1  245   1.349   2.296   1.744 -0.4551 -0.1025  0.4082
   82SOL    HW2  246   1.311   2.352   1.591 -1.0369 -1.3460 -1.3574
   83SOL     OW  247   0.550   3.032   0.977  0.8804  0.0618 -1.0555
   83SOL    HW1  248   0.577   0.007   1.057  2.2731  1.4643  0.0340
   83SOL    HW2  249   0.550   3.079   0.886 -0.0459  1.8035 -0.3965
   84SOL     OW  250   0.163   0.773   2.977 -0.1122 -0.3006 -0.4763
   84SOL    HW1  251   0.221   0.811   2.905  0.6048  2.1564 -1.4112
   84SOL    HW2  252   0.070   0.755   2.938  0.1704 -1.6536  0.3891
   85SOL     OW  253   2.960   2.590   1.645 -0.0038  0.4784 -0.7673
   85SOL    HW1  254   2.945   2.620   1.548  0.0977  1.4193  2.2617
   85SOL    HW2  255   2.870   2.596   1.693 -0.0242  2.4656  0.8101
   86SOL     OW  256   3.072   2.768   1.792  0.0165 -0.2894  0.0343
   86SOL    HW1  257   3.034   2.709   1.719 -1.1611 -0.8160  2.2872
   86SOL    HW2  258   0.053   2.836   1.754 -3.3610 -0.1284  0.9365
   87SOL     OW  259   2.995   2.662   2.987  0.2101  0.5953  0.1610
   87SOL    HW1  260   2.919   2.696   2.927  0.6118 -0.6399 -0.5556
   87SOL    HW2  261   2.953   2.642   3.076  0.2037  0.4320  0.6690
   88SOL     OW  262   0.265   2.074   1.340  0.2780 -0.0388 -0.3198
   88SOL    HW1  263   0.329   2.154   1.333 -2.0429 -0.6647 -0.6501
   88SOL    HW2  264   0.313   1.991   1.309  1.8245  0.7089  1.6039
   89SOL     OW  265   1.253   0.771   1.764 -0.0815 -0.7731  0.5846
   89SOL    HW1  266   1.156   0.804   1.773  1.5979  2.0221  0.0436
   89SOL    HW2  267   1.264   0.672   1.767  0.7700  3.3077  2.1769
   90SOL     OW  268   2.711   1.473   1.958 -0.3232 -0.1192  0.2323
   90SOL    HW1  269   2.740   1.448   2.050 -0.8235 -1.0333 -0.2602
   90SOL    HW2  270   2.765   1.549   1.916  0.8926 -1.2654  0.8143
   91SOL     OW  271   1.167   1.958   0.638  0.2307 -0.7035 -0.1380
   91SOL    HW1  272   1.194   2.045   0.591 -0.4078 -0.9272 -0.4528
   91SOL    HW2  273   1.224   1.880   0.611 -0.5931  2.7379  0.2304
   92SOL     OW  274   2.282   0.358   1.133 -0.4041  0.3381 -0.2532
   92SOL    HW1  275   2.348   0.428   1.101 -3.5801  0.0537  2.5474
   92SOL    HW2  276   2.276   0.367   1.235  1.0532  1.5049 -0.3064
   93SOL     OW  277   2.478   1.567   0.050 -0.3817  0.0924 -0.1757
   93SOL    HW1  278   2.525   1.592   3.043  0.0526 -0.4209 -1.5886
   93SOL    HW2  279   2.376   1.574   0.046 -1.0050 -0.7932  0.6114
   94SOL     OW  280   2.533   2.291   2.314  0.7203 -0.7161 -0.0898
   94SOL    HW1  281   2.487   2.223   2.373 -1.3396 -2.0256 -0.1325
   94SOL    HW2  282   2.625   2.314   2.352  0.3730 -1.9221 -4.2337
   95SOL     OW  283   1.807   0.504   1.107 -0.0515  0.1212  0.0968
   95SOL    HW1  284   1.778   0.552   1.019 -2.4160  4.4311  0.3970
   95SOL    HW2  285   1.851   0.412   1.091  0.9637  2.0133  0.0139
   96SOL     OW  286   2.762   0.180   1.745  0.1636  0.2313  0.0979
   96SOL    HW1  287   2.751   0.095   1.801 -2.3371  1.2110  1.0649
   96SOL    HW2  288   2.736   0.164   1.652  0.6825 -0.7858 -1.2594
   97SOL     OW  289   2.162   0.099   1.296  0.4089 -0.0829 -0.1229
   97SOL    HW1  290   2.169   0.109   1.195  1.4500 -1.9277  0.4826
   97SOL    HW2  291   2.164   0.192   1.340 -0.9970 -2.7378  0.1045
   98SOL     OW  292   1.390   2.347   1.450 -0.0904 -0.3967  0.2596
   98SOL    HW1  293   1.444   2.433   1.431 -0.1323  1.4330  0.4202
   98SOL    HW2  294   1.443   2.268   1.410  0.5349  2.5054 -2.2674
   99SOL     OW  295   2.865   2.820   1.952  0.9106 -0.5272  0.1826
   99SOL    HW1  296   2.945   2.801   1.891 -1.1398  0.8721 -0.9463
   99SOL    HW2  297   2.874   2.812   2.053  2.8277  0.5368 -1.8318
  100SOL     OW  298   0.213   0.701   2.579  0.0899  0.2171  0.1669
  100SOL    HW1  299   0.248   0.786   2.622 -2.5229  0.2586  1.1579
  100SOL    HW2  300   0.285   0.632   2.565  0.7683  0.7199  0.1646
  101SOL     OW  301   1.897   0.887   0.096  0.5100 -0.8216  0.5667
  101SOL    HW1  302   1.844   0.833   0.162 -1.5616  2.6028  0.9147
  101SOL    HW2  303   1.970   0.942   0.140 -0.2170  2.1287 -0.3429
  102SOL     OW  304   0.250   0.604   1.537  0.0831 -0.6818  0.3354
  102SOL    HW1  305   0.213   0.635   1.625 -2.1404 -0.1324 -0.9712
  102SOL    HW2  306   0.342   0.556   1.554  2.6755 -0.7874  1.1461
  103SOL     OW  307   2.908   0.972   2.118 -0.2489  0.0550  0.0592
  103SOL    HW1  308   2.939   0.883   2.073 -1.6588 -0.4990  1.0505
  103SOL    HW2  309   2.853   0.950   2.197  0.5898 -2.1289 -1.0347
  104SOL     OW  310   0.353   0.267   2.777  0.4820  0.0524  0.2713
  104SOL    HW1  311   0.350   0.304   2.680 -0.7992  0.8797 -2.6135
  104SOL    HW2  312   0.446   0.228   2.786  0.0128 -0.9006  0.9565
  105SOL     OW  313   2.190   1.751   1.805  0.3235  0.0622 -0.0393
  105SOL    HW1  314   2.154   1.837   1.842 -1.5679 -4.6609 -0.5773
  105SOL    HW2  315   2.155   1.675   1.865  0.5423 -1.1575 -0.5904
  106SOL     OW  316   1.653   0.364   0.312 -0.0295 -0.0179  0.7436
  106SOL    HW1  317   1.751   0.334   0.316 -1.8811  0.8964 -1.5295
  106SOL    HW2  318   1.603   0.346   0.398  1.4455  1.3678  1.6340
  107SOL     OW  319   0.078   1.853   1.680  0.2494  0.2861 -0.8614
  107SOL    HW1  320   0.119   1.942   1.708  2.8330 -0.4804  0.0067
  107SOL    HW2  321   0.068   1.844   1.585  1.2029 -2.4367  1.1502
  108SOL     OW  322   2.889   2.783   2.244 -0.1063 -0.4455 -0.6319
  108SOL    HW1  323   2.966   2.727   2.282  2.5975 -1.1305  0.8158
  108SOL    HW2  324   2.896   2.883   2.260 -1.4326  0.8646 -1.3285
  109SOL     OW  325   1.847   0.306   0.078  0.2863  0.4027  0.7715
  109SOL    HW1  326   1.926   0.312   0.016  0.6069 -1.3402  1.5050
  109SOL    HW2  327   1.758   0.341   0.038 -1.3150  0.1257  1.0326
  110SOL     OW  328   0.350   2.238   2.263 -0.4168  0.3254  1.1098
  110SOL    HW1  329   0.428   2.192   2.213  1.1092 -2.0881 -1.0719
  110SOL    HW2  330   0.379   2.333   2.291 -0.6181  2.8410  0.2359
  111SOL     OW  331   1.538   2.514   2.107 -0.0922 -0.2201  0.4168
  111SOL    HW1  332   1.580   2.438   2.058 -0.4655  0.5895  2.7126
  111SOL    HW2  333   1.457   2.550   2.059 -0.8503 -0.1764  0.7222
  112SOL     OW  334   1.919   2.650   2.410 -0.1767  0.1178  0.0774
  112SOL    HW1  335   2.020   2.657   2.425  1.6505  3.1559  0.2013
  112SOL    HW2  336   1.894   2.645   2.313 -2.0239  3.1036  0.9477
  113SOL     OW  337   1.817   2.618   1.786  0.2848 -0.5447 -0.4292
  113SOL    HW1  338   1.788   2.689   1.852  0.7543  0.6910 -0.5063
  113SOL    HW2  339   1.918   2.602   1.809 -4.5237 -0.9579 -1.4190
  114SOL     OW  340   2.945   0.783   0.607  0.4662 -0.2783 -0.0478
  114SOL    HW1  341   3.013   0.713   0.569 -0.4705 -0.7639 -1.1683
  114SOL    HW2  342   2.869   0.742   0.655  1.8924  0.8265 -0.5820
  115SOL     OW  343   0.208   0.937   2.740  0.1544  0.3119 -0.6496
  115SOL    HW1  344   0.164   1.025   2.716 -2.2026 -1.4820 -1.9821
  115SOL    HW2  345   0.300   0.944   2.785 -1.7394 -1.3945  2.2724
  116SOL     OW  346   0.227   1.122   2.045  0.0449  0.1553  0.0613
  116SOL    HW1  347   0.303   1.052   2.062 -0.2873  0.7763  0.2553
  116SOL    HW2  348   0.248   1.195   1.978 -2.1302  2.2145 -0.7321
  117SOL     OW  349   2.727   3.057   0.430  0.1371 -0.1037 -0.2607
  117SOL    HW1  350   2.732   2.963   0.386  1.9634  0.7673 -2.6618
  117SOL    HW2  351   2.659   3.063   0.507 -1.3181  0.0737  1.4652
  118SOL     OW  352   1.198   1.867   1.577 -0.3864  0.1847  0.6827
  118SOL    HW1  353   1.272   1.803   1.546  0.1502  1.8128  0.2565
  118SOL    HW2  354   1.140   1.833   1.659 -0.5248 -0.8311  3.7573
  119SOL     OW  355   1.114   2.385   0.072 -0.4157  0.0394 -0.0807
  119SOL    HW1  356   1.152   2.478   0.094  1.4314  0.3569 -2.3689
  119SOL    HW2  357   1.177   2.310   0.120 -0.0428 -3.3780 -0.4869
  120SOL     OW  358   0.442   0.883   2.871  0.4385  0.3381  0.0512
  120SOL    HW1  359   0.485   0.790   2.871  1.4858 -0.8236 -2.0136
  120SOL    HW2  360   0.510   0.951   2.846  0.2114  2.8756  3.4773
  121SOL     OW  361   1.917   2.638   1.204  0.2248  0.4094 -0.2769
  121SOL    HW1  362   1.847   2.707   1.168 -0.0800  1.3569  0.7575
  121SOL    HW2  363   1.877   2.544   1.206 -1.1950  1.4543 -1.7772
  122SOL     OW  364   2.355   2.142   1.919 -0.3466 -0.6060 -0.0790
  122SOL    HW1  365   2.384   2.242   1.914 -0.2846  0.9125 -2.0074
  122SOL    HW2  366   2.348   2.106   1.827  0.0733 -0.0429  2.6083
  123SOL     OW  367   0.226   2.866   0.588 -0.1926 -0.0439  0.5826
  123SOL    HW1  368   0.290   2.816   0.525  2.0818 -0.2407 -0.0471
  123SOL    HW2  369   0.163   2.931   0.537 -2.1835  2.9689 -0.3701
  124SOL     OW  370   2.160   0.910   2.499 -0.0060 -0.2142 -0.0129
  124SOL    HW1  371   2.077   0.953   2.541 -0.1168  1.9209  1.8673
  124SOL    HW2  372   2.169   0.934   2.400  1.0481  0.6954 -0.1139
  125SOL     OW  373   0.467   1.188   0.624  0.5749  0.0770 -0.1854
  125SOL    HW1  374   0.520   1.201   0.536 -1.3406  1.6295 -1.8238
  125SOL    HW2  375   0.387   1.249   0.626  1.4410  1.8228  0.5314
  126SOL     OW  376   2.461   1.790   1.057  0.1580 -0.0758  0.1875
  126SOL    HW1  377   2.453   1.765   1.157  1.1167 -1.8200  1.1379
  126SOL    HW2  378   2.525   1.875   1.044  1.9791  3.5755 -0.9768
  127SOL     OW  379   3.025   2.191   1.712 -0.5724  0.5262 -0.0730
  127SOL    HW1  380   2.984   2.220   1.625  3.3886 -1.6935 -3.6674
  127SOL    HW2  381   3.005   2.263   1.781 -1.5320 -1.1834 -2.4090
  128SOL     OW  382   0.850   0.646   2.824  0.1612 -0.5051  0.3447
  128SOL    HW1  383   0.862   0.720   2.892  0.6063 -0.7255  0.8863
  128SOL    HW2  384   0.893   0.669   2.736 -2.7734  3.2439 -0.4544
  129SOL     OW  385   2.667   1.185   1.072 -0.3296 -0.3963  0.6214
  129SOL    HW1  386   2.700   1.126   0.992 -1.4142 -1.1636  0.4405
  129SOL    HW2  387   2.648   1.136   1.158  2.5921  1.9795 -2.8520
  130SOL     OW  388   2.332   1.340   1.463 -0.1238 -0.1355 -0.2990
  130SOL    HW1  389   2.392   1.267   1.506  1.2764  2.1468  0.9627
  130SOL    HW2  390   2.383   1.403   1.403 -0.6181  0.1573 -0.6588
  131SOL     OW  391   2.628   0.309   0.147  0.2341  0.1257 -0.2176
  131SOL    HW1  392   2.665   0.347   0.234 -0.0869  0.0524  1.0733
  131SOL    HW2  393   2.705   0.260   0.107 -2.5271  0.2521 -0.5542
  132SOL     OW  394   2.685   1.945   1.826  0.5769  0.0475 -0.0381
  132SOL    HW1  395   2.634   1.900   1.899 -0.0576 -1.7726 -0.7138
  132SOL    HW2  396   2.785   1.925   1.839  1.8298 -2.3508 -0.4710
  133SOL     OW  397   0.889   0.961   1.060  0.5286 -0.9513 -0.3502
  133SOL    HW1  398   0.930   0.907   0.983  0.5762  1.6783 -2.4551
  133SOL    HW2  399   0.825   1.037   1.032 -2.7649 -0.0048  2.1593
  134SOL     OW  400   0.176   1.289   0.192 -0.1557  0.3586 -0.3431
  134SOL    HW1  401   0.140   1.220   0.259  0.6334  1.1515 -0.0685
  134SOL    HW2  402   0.131   1.270   0.106 -0.5209  1.0107 -2.5721
  135SOL     OW  403   2.183   1.112   1.361 -0.3155  0.0804 -0.8852
  135SOL    HW1  404   2.225   1.200   1.402  4.2579  1.8551 -2.9346
  135SOL    HW2  405   2.087   1.106   1.397  1.5254 -0.5755  3.1637
  136SOL     OW  406   2.756   0.649   0.750 -0.0535 -0.2378 -0.4487
  136SOL    HW1  407   2.679   0.593   0.713 -0.9467 -0.5810  1.2569
  136SOL    HW2  408   2.740   0.698   0.839  2.7158  0.4313  1.8994
  137SOL     OW  409   2.465   1.490   1.237  0.1125  0.4333 -0.3687
  137SOL    HW1  410   2.564   1.504   1.262 -0.8144  0.5764 -1.5593
  137SOL    HW2  411   2.462   1.431   1.156 -0.8800 -0.1519  0.1824
  138SOL     OW  412   1.611   0.733   1.446  0.1509 -0.1337 -0.6426
  138SOL    HW1  413   1.584   0.737   1.545 -0.1492 -0.1155 -1.6097
  138SOL    HW2  414   1.662   0.640   1.432  1.4144 -1.4404 -1.3423
  139SOL     OW  415   2.115   0.100   0.119 -0.2065 -0.1336 -0.6359
  139SOL    HW1  416   2.044   0.066   0.054 -2.0139  0.5977 -0.3602
  139SOL    HW2  417   2.149   0.020   0.174 -1.4088 -3.3579  0.6695
  140SOL     OW  418   1.386   1.908   1.843 -0.3018  0.0277 -0.2256
  140SOL    HW1  419   1.440   1.850   1.911  1.8751 -3.7018  2.6871
  140SOL    HW2  420   1.304   1.860   1.813 -1.8152  0.0581  1.2202
  141SOL     OW  421   1.969   1.936   0.925 -0.6310  0.2812  0.1415
  141SOL    HW1  422   2.035   2.008   0.964  0.6130 -0.1962  0.7937
  141SOL    HW2  423   1.993   1.840   0.957 -1.8368 -0.1268 -1.3551
  142SOL     OW  424   0.077   0.935   0.124 -0.0686  0.1001 -0.0198
  142SOL    HW1  425   0.149   0.905   0.059  0.2695 -1.0797  1.8549
  142SOL    HW2  426   0.042   0.855   0.177  0.1579  0.7344 -0.7215
  143SOL     OW  427   0.473   2.098   2.719 -0.0672  0.2078 -0.2346
  143SOL    HW1  428   0.460   2.076   2.619 -1.6903 -1.1725 -1.0860
  143SOL    HW2  429   0.568   2.059   2.743  4.1833 -3.1519  2.5175
  144SOL     OW  430   0.983   0.023   1.888 -0.7873  1.1958  0.2102
  144SOL    HW1  431   1.055   0.099   1.887  0.8553 -0.4064 -2.5031
  144SOL    HW2  432   1.030   3.015   1.908  2.4695 -0.0107 -1.3281
  145SOL     OW  433   2.641   1.049   0.525 -0.4409 -0.1018  0.1744
  145SOL    HW1  434   2.648   1.037   0.626 -3.3761 -0.2426  1.7554
  145SOL    HW2  435   2.549   1.086   0.507 -0.4621  0.6044  0.9942
  146SOL     OW  436   2.320   2.408   0.294  0.1145  0.4910 -0.2763
  146SOL    HW1  437   2.328   2.467   0.212 -2.2902 -1.1258 -1.8625
  146SOL    HW2  438   2.230   2.400   0.339 -0.0688  2.1026  1.9324
  147SOL     OW  439   2.504   2.759   1.272  0.0346  0.4334 -0.0756
  147SOL    HW1  440   2.439   2.831   1.294  2.7194 -0.1870  0.6268
  147SOL    HW2  441   2.549   2.779   1.182 -2.1002  1.7838  0.0916
  148SOL     OW  442   1.465   2.955   2.476  0.1906 -0.2726 -0.0024
  148SOL    HW1  443   1.375   2.913   2.459  2.2915  0.8463  2.5093
  148SOL    HW2  444   1.542   2.894   2.446  2.8152 -2.8149 -0.2793
  149SOL     OW  445   1.115   0.503   2.615  0.2572  0.2779  0.5187
  149SOL    HW1  446   1.207   0.523   2.571  2.1918 -0.1840 -0.1433
  149SOL    HW2  447   1.073   0.591   2.639  0.3766 -0.9265 -1.7319
  150SOL     OW  448   0.834   2.719   0.246  0.1310 -0.5671 -0.1985
  150SOL    HW1  449   0.831   2.619   0.217  0.6968  2.0666 -0.1861
  150SOL    HW2  450   0.762   2.733   0.320 -0.7886 -1.2765  0.1302
  151SOL     OW  451   0.126   1.785   0.237  0.2417  0.2957 -0.1139
  151SOL    HW1  452   0.115   1.700   0.181  0.2047  1.6918  0.5228
  151SOL    HW2  453   0.130   1.761   0.334  2.3203 -0.1052 -1.0951
  152SOL     OW  454   0.063   0.583   0.553  0.9764  0.9757 -0.4475
  152SOL    HW1  455   0.142   0.583   0.618 -2.8162 -0.8047 -1.5774
  152SOL    HW2  456   0.051   0.492   0.511  0.1582  0.7745  2.1548
  153SOL     OW  457   2.390   3.072   0.931  0.2117  0.1443  0.0523
  153SOL    HW1  458   2.453   3.047   0.854  0.9916 -0.6681 -3.6010
  153SOL    HW2  459   2.343   2.995   0.978 -3.8002  0.1401 -2.1329
  154SOL     OW  460   0.977   0.876   1.788  0.4006 -0.3717  0.2646
  154SOL    HW1  461   0.903   0.872   1.861 -2.4648 -1.1883 -0.3220
  154SOL    HW2  462   0.947   0.852   1.691 -0.9121  2.1721  1.3027
  155SOL     OW  463   2.818   1.630   0.935  0.1849 -0.4071 -0.3220
  155SOL    HW1  464   2.727   1.582   0.923 -0.6688 -0.5661 -0.0151
  155SOL    HW2  465   2.834   1.707   0.871  0.3132  0.0727 -0.3489
  156SOL     OW  466   2.425   1.909   0.318 -0.1490  0.3154  0.2446
  156SOL    HW1  467   2.470   1.831   0.356 -0.9417  3.3417 -1.7033
  156SOL    HW2  468   2.475   1.940   0.233  0.3222  0.6555  1.3220
  157SOL     OW  469   1.028   2.944   0.777  0.3812  0.2160  0.1445
  157SOL    HW1  470   0.961   2.890   0.829  1.3247  0.7683  0.2137
  157SOL    HW2  471   1.123   2.915   0.795 -0.9168 -0.3298 -0.7855
  158SOL     OW  472   2.267   0.232   2.635  0.1215 -0.1228 -0.5246
  158SOL    HW1  473   2.313   0.317   2.657  1.6401 -0.2208 -0.4025
  158SOL    HW2  474   2.229   0.239   2.544  1.6550  0.0488  1.1919
  159SOL     OW  475   0.329   3.059   0.279 -0.0105 -0.2481  0.0699
  159SOL    HW1  476   0.294   0.061   0.242 -1.5379 -0.4045  0.0934
  159SOL    HW2  477   0.261   2.983   0.254 -1.8229 -0.9457 -1.8086
  160SOL     OW  478   1.324   2.168   0.149  0.3230 -0.1427  0.4034
  160SOL    HW1  479   1.358   2.080   0.189 -2.4391 -0.1892  2.4482
  160SOL    HW2  480   1.394   2.223   0.098 -2.0431  0.4099  0.5769
  161SOL     OW  481   2.636   1.614   2.283  0.9442  0.1646 -0.4985
  161SOL    HW1  482   2.634   1.713   2.260 -0.3803  1.4601  2.0048
  161SOL    HW2  483   2.560   1.563   2.248  1.0447 -0.2853 -1.7292
  162SOL     OW  484   3.011   2.859   1.185  0.3222 -0.1556 -0.3361
  162SOL    HW1  485   3.028   2.873   1.086 -0.6500 -1.2391  1.2646
  162SOL    HW2  486   0.003   2.906   1.242  3.8919  1.0233  0.1373
  163SOL     OW  487   2.010   0.323   2.738  0.2571  0.4676 -0.1929
  163SOL    HW1  488   1.929   0.260   2.734  1.1972 -1.6762 -1.8615
  163SOL    HW2  489   2.090   0.271   2.706 -1.4211  1.3641 -2.2279
  164SOL     OW  490   2.945   1.823   0.791 -0.4899 -0.3859 -0.4208
  164SOL    HW1  491   3.012   1.830   0.711 -1.2075  2.6905 -0.5527
  164SOL    HW2  492   2.915   1.914   0.819  2.9363 -1.4432 -0.4220
  165SOL     OW  493   2.552   0.299   1.869  0.3202  0.0716  0.0596
  165SOL    HW1  494   2.632   0.269   1.816  0.2803 -0.4400  2.4104
  165SOL    HW2  495   2.469   0.264   1.821 -0.1502 -1.3844 -0.8639
  166SOL     OW  496   2.123   0.555   0.893  0.6275  1.0253  0.2764
  166SOL    HW1  497   2.066   0.516   0.820 -0.6402  0.1355  2.9916
  166SOL    HW2  498   2.137   0.473   0.953 -2.5600 -0.2560  2.0651
  167SOL     OW  499   0.530   0.308   0.952  0.2718 -0.5712  0.1033
  167SOL    HW1  500   0.540   0.242   1.024 -1.3628  1.9738 -0.7367
  167SOL    HW2  501   0.599   0.382   0.953 -1.9446  1.9197 -0.4378
  168SOL     OW  502   1.720   2.902   2.164 -0.0579 -0.3344 -0.2317
  168SOL    HW1  503   1.768   2.823   2.195 -0.7117 -0.4680 -0.7604
  168SOL    HW2  504   1.756   2.980   2.217 -0.2020  0.9497  0.7653
  169SOL     OW  505   0.366   0.932   0.708  0.1818  0.1415  0.3241
  169SOL    HW1  506   0.405   1.023   0.687 -0.6973 -0.7479  0.5903
  169SOL    HW2  507   0.322   0.900   0.624 -0.4722  2.0238  2.4767
  170SOL     OW  508   2.772   0.708   1.390 -0.0855  0.1871 -0.0157
  170SOL    HW1  509   2.785   0.624   1.448  1.3737  0.1347  2.5577
  170SOL    HW2  510   2.848   0.709   1.324 -0.0747  0.1849  0.3193
  171SOL     OW  511   0.877   2.497   1.748  0.1022 -0.2006 -0.4032
  171SOL    HW1  512   0.874   2.449   1.659  1.9039 -1.9687 -0.8075
  171SOL    HW2  513   0.975   2.515   1.774  0.7411  2.4561 -0.8748
  172SOL     OW  514   0.211   2.410   1.244  0.6556 -0.2779  0.5016
  172SOL    HW1  515   0.204   2.377   1.336 -2.0844 -1.2443 -1.1846
  172SOL    HW2  516   0.236   2.508   1.246 -0.4079 -1.0245  1.4334
  173SOL     OW  517   1.340   0.196   2.770 -0.2309 -0.1869  0.0167
  173SOL    HW1  518   1.299   0.119   2.818  0.7643 -0.1126 -2.4238
  173SOL    HW2  519   1.293   0.280   2.804 -1.6508  2.8932  1.3936
  174SOL     OW  520   1.475   0.090   2.334 -0.2804  0.0345 -0.3476
  174SOL    HW1  521   1.479   0.159   2.403 -0.7604 -4.2863 -0.8578
  174SOL    HW2  522   1.495   0.003   2.374 -1.6609  2.4455 -2.0378
  175SOL     OW  523   1.713   2.486   0.032  0.3903  0.7185 -0.4885
  175SOL    HW1  524   1.808   2.490   3.078  1.8547 -1.7803  3.0052
  175SOL    HW2  525   1.672   2.572   0.010 -0.6451 -0.5615  0.3584
  176SOL     OW  526   1.823   0.126   2.712  0.3176  0.2835 -0.3819
  176SOL    HW1  527   1.740   0.156   2.766 -2.5582 -2.4200  2.3394
  176SOL    HW2  528   1.807   0.032   2.668  2.6094 -1.3979 -0.7465
  177SOL     OW  529   0.779   1.532   0.229 -0.2265 -0.8747  0.0340
  177SOL    HW1  530   0.821   1.610   0.276 -4.7280 -2.1865 -1.4447
  177SOL    HW2  531   0.684   1.522   0.258 -0.5566 -0.3798 -2.4326
  178SOL     OW  532   2.870   1.943   2.433 -0.1443  0.0726  0.0350
  178SOL    HW1  533   2.904   1.990   2.517  0.6839  0.5271 -0.4953
  178SOL    HW2  534   2.900   1.845   2.436  1.1088 -3.1425  2.4977
  179SOL     OW  535   0.520   2.690   2.678  0.9038 -0.3534 -0.0041
  179SOL    HW1  536   0.594   2.669   2.746  1.0109 -2.5630  1.3255
  179SOL    HW2  537   0.549   2.769   2.619 -0.8398  0.3410  0.8212
  180SOL     OW  538   1.936   1.993   1.299 -0.2266 -0.6785  0.2174
  180SOL    HW1  539   1.978   1.939   1.379  0.6540  1.5650  2.6163
  180SOL    HW2  540   1.881   1.928   1.247 -2.2675  1.7753 -0.0662
  181SOL     OW  541   1.673   1.290   2.292  0.3957 -0.0609 -0.2188
  181SOL    HW1  542   1.679   1.217   2.222 -1.0066 -2.0316  1.2032
  181SOL    HW2  543   1.759   1.333   2.307 -1.0336 -2.6356 -1.8024
  182SOL     OW  544   2.559   2.935   2.449  0.2406 -0.4639 -0.2221
  182SOL    HW1  545   2.618   2.855   2.467 -1.7771 -0.8347 -0.2658
  182SOL    HW2  546   2.512   2.936   2.359  0.6070  1.2731  0.0228
  183SOL     OW  547   1.487   0.761   2.665  0.0948  0.1370 -0.3190
  183SOL    HW1  548   1.521   0.809   2.576  1.4527 -1.2608 -0.7434
  183SOL    HW2  549   1.559   0.707   2.712  0.3659 -3.3403  2.0877
  184SOL     OW  550   0.813   0.996   1.315  0.3457 -0.4885  0.0833
  184SOL    HW1  551   0.850   1.087   1.340 -1.0065  1.9621 -0.2424
  184SOL    HW2  552   0.846   0.965   1.222  0.1927  2.5348 -1.0801
  185SOL     OW  553   2.394   0.949   1.050  0.6232  0.1065  0.5748
  185SOL    HW1  554   2.336   1.021   1.089  1.8004 -0.9364  2.9410
  185SOL    HW2  555   2.399   0.958   0.950  0.7395 -0.2939  0.6427
  186SOL     OW  556   0.504   1.674   2.536  0.1042 -0.0701  0.0923
  186SOL    HW1  557   0.545   1.764   2.526 -1.2986 -3.5975  0.1282
  186SOL    HW2  558   0.456   1.655   2.448 -0.5354  0.2256 -1.9850
  187SOL     OW  559   2.566   1.369   0.216 -0.3587 -0.1476 -0.1746
  187SOL    HW1  560   2.663   1.385   0.241 -1.4407 -3.0552 -0.4462
  187SOL    HW2  561   2.531   1.435   0.145 -0.2028  0.5769 -1.1998
  188SOL     OW  562   0.131   1.707   0.501 -0.1610 -0.5393  0.1601
  188SOL    HW1  563   0.077   1.787   0.535  0.2318 -1.2163  0.2324
  188SOL    HW2  564   0.227   1.719   0.527 -2.2385  0.1192 -1.4584
  189SOL     OW  565   2.562   0.563   0.561 -0.3074 -0.2735 -0.1280
  189SOL    HW1  566   2.518   0.606   0.482  0.5074 -0.7446  3.7254
  189SOL    HW2  567   2.627   0.496   0.523 -1.6504  1.4218  0.4638
  190SOL     OW  568   1.070   1.413   2.258 -0.0455 -0.5699 -0.2856
  190SOL    HW1  569   1.167   1.416   2.229  2.0180 -0.0624 -1.0642
  190SOL    HW2  570   1.021   1.349   2.198 -2.8037  1.8378 -1.9021
  191SOL     OW  571   2.175   0.228   2.005  0.5103  0.0983  0.1137
  191SOL    HW1  572   2.199   0.322   2.036 -0.8884 -2.4810  0.6638
  191SOL    HW2  573   2.221   0.202   1.919 -1.2500 -0.9633  0.0418
  192SOL     OW  574   1.928   1.098   1.443 -0.4495  0.1276 -0.7043
  192SOL    HW1  575   1.837   1.131   1.399 -2.6013  0.6513 -0.1880
  192SOL    HW2  576   1.931   0.996   1.451 -2.0023 -1.4849 -0.6351
  193SOL     OW  577   0.897   0.595   0.733 -0.2866 -0.1843 -0.4911
  193SOL    HW1  578   0.830   0.623   0.664  3.1009 -1.2783 -1.9621
  193SOL    HW2  579   0.976   0.547   0.689  1.3059  0.1896 -2.2959
  194SOL     OW  580   1.292   2.863   0.864 -0.5306  0.0299  0.0290
  194SOL    HW1  581   1.381   2.881   0.822 -1.8672  0.5921  4.0612
  194SOL    HW2  582   1.292   2.886   0.964 -1.6295  0.2175 -1.1234
  195SOL     OW  583   2.404   0.665   0.771 -0.5902 -0.0376 -0.3734
  195SOL    HW1  584   2.448   0.628   0.689 -0.4776  2.8445 -0.4505
  195SOL    HW2  585   2.306   0.637   0.770 -3.6051 -1.3188  0.2787
  196SOL     OW  586   0.968   1.862   1.411 -0.0361 -0.1578 -0.2018
  196SOL    HW1  587   0.983   1.932   1.335 -0.6451 -0.2768 -3.9428
  196SOL    HW2  588   1.053   1.854   1.470  2.6353 -0.8201  0.9228
  197SOL     OW  589   0.369   2.701   0.447 -0.0643  0.0761 -0.0354
  197SOL    HW1  590   0.406   2.649   0.527  0.7859 -0.4160  0.5396
  197SOL    HW2  591   0.303   2.643   0.398  0.0438  0.1803  0.0813
  198SOL     OW  592   0.969   0.842   0.838 -0.3315 -0.4672  0.3134
  198SOL    HW1  593   0.936   0.927   0.788 -3.1132 -2.3988 -0.0128
  198SOL    HW2  594   0.952   0.762   0.779 -0.9936  1.4592  0.6779
  199SOL     OW  595   3.018   0.038   1.691  0.3843  0.5454  0.9691
  199SOL    HW1  596   2.973   0.122   1.662  0.3237 -0.0920 -1.4752
  199SOL    HW2  597   2.992   0.003   1.779  1.3880 -1.1472 -1.4961
  200SOL     OW  598   2.169   1.917   2.828  0.1847 -0.7321 -0.9257
  200SOL    HW1  599   2.073   1.951   2.817 -2.6056  2.0244  1.4277
  200SOL    HW2  600   2.214   1.889   2.740  1.3854  1.2407  2.1376
  201SOL     OW  601   2.574   2.796   1.015  0.0500  0.2107 -0.6215
  201SOL    HW1  602   2.474   2.776   1.000  0.1814 -0.8917  1.5949
  201SOL    HW2  603   2.610   2.859   0.943 -1.2572 -1.2076 -1.7289
  202SOL     OW  604   2.724   0.415   0.385 -0.2845  0.5895  0.4195
  202SOL    HW1  605   2.755   0.501   0.335  0.4090  1.8997 -0.1293
  202SOL    HW2  606   2.799   0.353   0.404 -3.0624 -1.4255  0.9348
  203SOL     OW  607   1.305   1.491   2.049 -0.0246 -0.0851 -0.1241
  203SOL    HW1  608   1.356   1.524   1.968 -0.3188 -1.9803  0.5810
  203SOL    HW2  609   1.257   1.562   2.104  0.1586  0.4201  1.1650
  204SOL     OW  610   0.958   1.271   1.836  0.0768  0.7003  0.5944
  204SOL    HW1  611   1.045   1.232   1.797  2.0188 -2.9868  0.6847
  204SOL    HW2  612   0.947   1.251   1.934  0.2042  0.7173 -0.1051
  205SOL     OW  613   1.123   2.137   1.636  0.3927  0.2693 -0.6968
  205SOL    HW1  614   1.172   2.058   1.593 -0.7928 -0.9616  1.2711
  205SOL    HW2  615   1.184   2.223   1.644 -1.5016  2.3933  3.0889
  206SOL     OW  616   0.156   0.354   2.929  0.2072 -0.1857  0.1495
  206SOL    HW1  617   0.246   0.324   2.886  1.4251  1.3000  0.0688
  206SOL    HW2  618   0.088   0.282   2.939 -2.7184 -0.4943 -1.4900
  207SOL     OW  619   1.429   2.856   2.130  0.1848 -0.4736  0.8178
  207SOL    HW1  620   1.406   2.944   2.089 -2.3963 -1.8387  0.7163
  207SOL    HW2  621   1.523   2.868   2.166  0.3158 -4.3178  1.2985
  208SOL     OW  622   0.544   2.084   1.875 -0.1237  0.0234  0.3296
  208SOL    HW1  623   0.592   2.006   1.824  0.2301 -0.3119 -0.9070
  208SOL    HW2  624   0.598   2.171   1.861  1.9180 -0.4989  0.1742
  209SOL     OW  625   1.851   1.212   2.844  0.3687  0.3990  0.3485
  209SOL    HW1  626   1.826   1.306   2.821  1.8570 -4.0786 -0.9952
  209SOL    HW2  627   1.794   1.165   2.919 -3.4773 -0.3535  1.2404
  210SOL     OW  628   3.008   0.360   0.990 -0.4252 -0.2018  0.0339
  210SOL    HW1  629   3.034   0.397   0.898  0.5627  0.9106  2.5572
  210SOL    HW2  630   2.921   0.314   0.994 -0.3790  1.5208  1.0923
  211SOL     OW  631   0.742   1.185   0.959  0.4147  0.2844 -0.4623
  211SOL    HW1  632   0.674   1.239   0.899 -1.5577  3.2031 -2.1130
  211SOL    HW2  633   0.828   1.236   0.970  1.1241 -0.2051 -1.3806
  212SOL     OW  634   0.998   1.627   0.626 -0.8745 -0.0513 -0.2052
  212SOL    HW1  635   1.003   1.687   0.710 -3.0155  0.0147 -0.6780
  212SOL    HW2  636   1.058   1.545   0.649  1.1711  0.1300  0.4584
  213SOL     OW  637   1.486   0.102   1.630 -0.3026 -0.1233 -0.0546
  213SOL    HW1  638   1.540   0.098   1.547  0.8119 -2.4508 -3.3794
  213SOL    HW2  639   1.526   0.158   1.707  1.2914  0.2093  0.1125
  214SOL     OW  640   1.426   1.674   2.414 -0.2173 -0.8396 -0.4460
  214SOL    HW1  641   1.375   1.687   2.327 -1.7955 -2.0271 -1.6357
  214SOL    HW2  642   1.370   1.723   2.487 -1.0988  0.0152 -0.4420
  215SOL     OW  643   0.102   1.683   1.152  0.2314 -0.0047 -0.1901
  215SOL    HW1  644   0.052   1.627   1.077 -0.9090  0.2205 -0.3395
  215SOL    HW2  645   0.194   1.696   1.107  1.5995 -2.4155 -2.5466
  216SOL     OW  646   0.520   0.010   2.130  0.2866  0.4425  0.4466
  216SOL    HW1  647   0.589   0.044   2.066  0.7320 -1.3197 -0.9479
  216SOL    HW2  648   0.553   0.032   2.224 -0.4391  1.0571 -0.9649
  217SOL     OW  649   2.455   0.255   3.014 -0.4154  0.1753 -0.3239
  217SOL    HW1  650   2.461   0.319   2.939  0.5526 -0.1185  1.0519
  217SOL    HW2  651   2.506   0.287   0.012 -1.6675  1.7991  0.4494
  218SOL     OW  652   1.907   1.752   2.171 -0.3654  0.4388 -0.3851
  218SOL    HW1  653   1.809   1.737   2.155  1.6710  2.6949  2.0130
  218SOL    HW2  654   1.931   1.849   2.174 -0.2459 -0.3065 -1.4881
  219SOL     OW  655   1.645   1.135   0.356  0.0428  0.0193 -0.5984
  219SOL    HW1  656   1.712   1.205   0.395  2.3368 -0.8817  0.0188
  219SOL    HW2  657   1.624   1.159   0.259  0.5273  1.9489  0.8796
  220SOL     OW  658   1.495   1.900   1.102 -0.2167  0.0168 -0.0493
  220SOL    HW1  659   1.429   1.911   1.177  0.8963 -0.4988 -0.0099
  220SOL    HW2  660   1.515   1.987   1.047  0.6179  2.5111  0.7166
  221SOL     OW  661   0.178   0.548   0.026 -0.3788 -0.2787 -0.1547
  221SOL    HW1  662   0.171   0.636   3.063 -2.1853 -0.5570  3.4106
  221SOL    HW2  663   0.153   0.472   3.045 -1.3527 -1.4654 -0.2359
  222SOL     OW  664   1.104   2.693   1.546 -0.5013 -0.6187  0.1998
  222SOL    HW1  665   1.124   2.621   1.475 -0.8781  0.1807  1.2210
  222SOL    HW2  666   1.162   2.776   1.530  0.0917  1.5695 -0.7070
  223SOL     OW  667   1.371   2.849   2.756  0.1158  0.1706 -0.2569
  223SOL    HW1  668   1.301   2.913   2.796 -0.6650  2.1011 -1.3677
  223SOL    HW2  669   1.434   2.906   2.700 -0.3642 -1.1189 -0.0282
  224SOL     OW  670   2.631   1.073   1.326  0.1379  0.2890 -0.1176
  224SOL    HW1  671   2.588   0.988   1.358  0.8780  1.1617  2.2218
  224SOL    HW2  672   2.696   1.102   1.392 -0.1701  0.3773 -0.4147
  225SOL     OW  673   0.904   1.216   1.472  0.0350 -0.3788  0.5373
  225SOL    HW1  674   0.961   1.158   1.529  0.4268 -1.9024 -0.3122
  225SOL    HW2  675   0.964   1.262   1.403 -0.0268 -0.4506  1.9521
  226SOL     OW  676   1.491   2.629   2.875  0.2675 -0.0308 -0.2806
  226SOL    HW1  677   1.440   2.721   2.850 -2.7387  2.6780  0.8095
  226SOL    HW2  678   1.436   2.543   2.845 -1.0310 -1.9968 -0.3198
  227SOL     OW  679   0.620   2.064   1.074  0.4782  0.6009  0.3585
  227SOL    HW1  680   0.554   2.057   0.996 -0.5803  2.9701  1.6823
  227SOL    HW2  681   0.633   2.166   1.084 -1.2682  3.9251 -2.3220
  228SOL     OW  682   0.505   2.513   1.199  0.0164  0.5146 -0.0599
  228SOL    HW1  683   0.428   2.577   1.224 -0.2039 -0.2340 -0.0813
  228SOL    HW2  684   0.591   2.519   1.258  0.5792  1.3768  0.3327
  229SOL     OW  685   2.481   1.143   0.058  0.3402  0.3963  0.0149
  229SOL    HW1  686   2.514   1.221   0.117  0.0277  1.0331  0.1837
  229SOL    HW2  687   2.403   1.097   0.098  0.7363 -0.1265  1.2483
  230SOL     OW  688   0.965   1.205   2.132 -0.0618  0.1959 -0.0964
  230SOL    HW1  689   0.871   1.192   2.170  3.3048 -0.7588 -3.0484
  230SOL    HW2  690   1.038   1.137   2.161  2.5280 -1.1282  1.7612
  231SOL     OW  691   1.581   2.001   1.636 -0.4457 -0.0848 -0.0936
  231SOL    HW1  692   1.641   2.069   1.685  0.9764 -1.7018  0.9477
  231SOL    HW2  693   1.513   1.956   1.691  1.1565  0.8823 -0.4826
  232SOL     OW  694   2.097   2.391   1.034  0.1659  0.6905 -0.2275
  232SOL    HW1  695   2.010   2.411   0.986 -1.0470  0.4873  0.9115
  232SOL    HW2  696   2.106   2.295   1.058 -0.8958  0.8034 -0.6214
  233SOL     OW  697   1.513   2.270   2.859 -0.0020  0.1480 -0.8445
  233SOL    HW1  698   1.542   2.210   2.778 -0.6083  0.1951 -1.4827
  233SOL    HW2  699   1.439   2.329   2.817  0.0342 -2.5131  1.6075
  234SOL     OW  700   0.968   3.055   2.754 -0.0399 -0.4366  0.9120
  234SOL    HW1  701   0.968   0.067   2.714 -1.8785  1.9678  0.6267
  234SOL    HW2  702   0.900   2.991   2.705 -0.6581 -1.9090  1.2013
  235SOL     OW  703   2.844   2.616   0.136 -0.1318  0.1269  0.0879
  235SOL    HW1  704   2.811   2.685   0.206 -0.1341 -0.1779  1.0787
  235SOL    HW2  705   2.885   2.535   0.182 -0.7734  0.2794 -0.6822
  236SOL     OW  706   2.053   2.319   2.193 -0.0816 -0.0965 -0.5924
  236SOL    HW1  707   2.153   2.314   2.180  1.6230  0.2057  1.5300
  236SOL    HW2  708   2.026   2.305   2.292 -1.5801 -0.1860  3.2695
  237SOL     OW  709   1.651   1.191   1.311  0.2426 -0.4750 -0.0572
  237SOL    HW1  710   1.602   1.106   1.303 -0.6149  2.3732  3.3783
  237SOL    HW2  711   1.588   1.272   1.310  1.1548  0.4331  2.7135
  238SOL     OW  712   1.876   0.340   2.222 -0.1178 -0.0814 -0.3017
  238SOL    HW1  713   1.863   0.286   2.139  0.7026  1.6106 -0.0631
  238SOL    HW2  714   1.796   0.327   2.284 -0.8684 -0.2540 -2.8189
  239SOL     OW  715   0.489   1.640   1.870 -0.0153  0.4260  0.1160
  239SOL    HW1  716   0.441   1.706   1.809  3.4769 -1.2070  2.4676
  239SOL    HW2  717   0.452   1.543   1.855  0.4823 -1.8410  2.9080
  240SOL     OW  718   0.071   2.187   0.569 -0.2155 -0.0224  0.3397
  240SOL    HW1  719   3.075   2.233   0.612  0.9777  0.0084  0.1692
  240SOL    HW2  720   0.137   2.260   0.531  1.0516 -1.8615 -1.0904
  241SOL     OW  721   1.852   2.144   0.787  0.1619  0.7691  0.0667
  241SOL    HW1  722   1.918   2.089   0.839 -1.2665 -2.9997 -0.6242
  241SOL    HW2  723   1.822   2.091   0.704  0.4677  0.3051 -1.4890
  242SOL     OW  724   1.371   1.416   0.067 -0.1924 -0.4601 -0.0735
  242SOL    HW1  725   1.467   1.379   0.077  1.7032  0.4810 -1.0687
  242SOL    HW2  726   1.367   1.467   3.060  2.1001  1.3920  1.2713
  243SOL     OW  727   0.653   2.855   2.072  0.1031  0.1816  0.0205
  243SOL    HW1  728   0.603   2.935   2.113  0.6844  0.3214  0.1257
  243SOL    HW2  729   0.616   2.839   1.976  0.5298 -0.3143 -0.7231
  244SOL     OW  730   1.781   2.961   2.643  0.0784 -0.0460 -0.1855
  244SOL    HW1  731   1.721   2.961   2.728 -1.4138 -0.0171  1.8287
  244SOL    HW2  732   1.748   2.887   2.579  0.7468 -2.2253 -0.6671
  245SOL     OW  733   1.552   2.906   0.055 -0.8855 -0.1780 -0.4499
  245SOL    HW1  734   1.644   2.884   0.103 -1.4154 -0.1525 -0.2837
  245SOL    HW2  735   1.507   2.980   0.110 -1.1570  2.0631  0.2949
  246SOL     OW  736   1.210   3.030   2.882 -0.1438 -0.3875 -0.0253
  246SOL    HW1  737   1.126   3.045   2.826  0.6505  3.1354  1.0642
  246SOL    HW2  738   1.191   2.997   2.971  4.0541  0.0031 -4.2328
  247SOL     OW  739   0.093   0.700   2.031 -0.4554 -0.0842  0.3530
  247SOL    HW1  740   0.122   0.742   2.123 -0.5024  0.4610  0.2152
  247SOL    HW2  741   0.058   0.610   2.053  0.8805  0.2169  2.6352
  248SOL     OW  742   0.875   0.784   2.316  0.2982 -0.1222  0.2451
  248SOL    HW1  743   0.846   0.709   2.379 -1.3416  0.6512  0.5128
  248SOL    HW2  744   0.963   0.764   2.271  0.7362  1.2897 -0.6041
  249SOL     OW  745   2.217   0.394   0.247 -0.6686  0.1635 -0.2771
  249SOL    HW1  746   2.197   0.371   0.148 -0.5428 -2.3976 -2.5929
  249SOL    HW2  747   2.297   0.338   0.280 -2.3569 -0.8406  0.0880
  250SOL     OW  748   0.773   0.194   0.680  0.1698 -0.5080  0.3022
  250SOL    HW1  749   0.778   0.111   0.621 -0.3751  0.7299  0.3742
  250SOL    HW2  750   0.809   0.171   0.771  0.1965 -0.9341 -2.3349
  251SOL     OW  751   1.013   0.244   2.645 -0.0912  0.2699 -0.3893
  251SOL    HW1  752   1.053   0.338   2.644 -3.0677 -1.1084 -1.6668
  251SOL    HW2  753   1.049   0.184   2.571 -0.3370 -0.3282 -1.9429
  252SOL     OW  754   1.599   1.817   2.009 -0.2115  0.0899 -0.0213
  252SOL    HW1  755   1.687   1.843   1.962  2.3922 -2.7654 -0.3243
  252SOL    HW2  756   1.604   1.726   2.056 -1.8467 -4.2786  2.2898
  253SOL     OW  757   2.088   2.626   1.845 -0.0667 -0.6584  0.2785
  253SOL    HW1  758   2.126   2.718   1.873  1.7039  4.2218 -0.2996
  253SOL    HW2  759   2.153   2.581   1.784 -0.4351 -0.5929  0.0164
  254SOL     OW  760   0.935   2.104   1.821 -0.0270  0.2858 -0.3088
  254SOL    HW1  761   1.024   2.108   1.766  1.8384 -3.6290 -0.5778
  254SOL    HW2  762   0.944   2.175   1.900 -0.7464  2.0244  3.3328
  255SOL     OW  763   0.919   0.901   0.490  0.1317  0.2837  0.3194
  255SOL    HW1  764   0.834   0.915   0.545  1.7372  0.1631 -0.9980
  255SOL    HW2  765   0.906   0.835   0.415  0.4873  0.0036  0.9186
  256SOL     OW  766   1.835   1.879   1.899 -0.3720 -0.3326  0.1088
  256SOL    HW1  767   1.806   1.959   1.845  1.9243  2.6461 -2.0350
  256SOL    HW2  768   1.934   1.861   1.894  1.4095  1.3278  1.8952
  257SOL     OW  769   0.513   2.398   2.587  0.4756 -0.4765 -0.3094
  257SOL    HW1  770   0.525   2.492   2.627  0.4138  1.0277  1.1898
  257SOL    HW2  771   0.484   2.326   2.652  1.3195  1.5088  1.5692
  258SOL     OW  772   0.659   0.347   2.137  0.5456 -0.2773  0.1468
  258SOL    HW1  773   0.724   0.281   2.174  0.5209  1.3937 -3.7744
  258SOL    HW2  774   0.694   0.443   2.133 -0.5381  1.6463 -2.0041
  259SOL     OW  775   0.791   0.548   2.459 -0.1737 -0.3061  0.0394
  259SOL    HW1  776   0.775   0.501   2.551 -1.3650  1.1316  3.1587
  259SOL    HW2  777   0.867   0.499   2.407 -0.0777  0.1663 -0.8605
  260SOL     OW  778   1.303   0.566   0.498  0.1944 -0.6350 -0.3200
  260SOL    HW1  779   1.313   0.665   0.511 -1.1855 -0.7990 -0.8548
  260SOL    HW2  780   1.208   0.533   0.506 -0.2635 -0.8307  1.4457
  261SOL     OW  781   0.324   2.700   2.894  0.1842  0.1101 -0.3891
  261SOL    HW1  782   0.395   2.665   2.826  3.6118  0.9316 -0.9005
  261SOL    HW2  783   0.235   2.646   2.866  0.2599 -3.0704 -2.5400
  262SOL     OW  784   2.260   2.925   2.869 -0.3436  0.5621  0.5791
  262SOL    HW1  785   2.268   3.028   2.885  0.0153 -0.4505 -1.6608
  262SOL    HW2  786   2.173   2.908   2.813 -1.8198 -2.1342  0.1261
  263SOL     OW  787   0.186   2.012   2.628 -0.4180 -0.0207 -0.3496
  263SOL    HW1  788   0.088   2.034   2.595 -4.7143 -1.0289  0.3033
  263SOL    HW2  789   0.196   2.017   2.730 -1.3996  1.5885 -0.3031
  264SOL     OW  790   0.601   1.256   1.206  0.8842 -0.7235 -0.4212
  264SOL    HW1  791   0.654   1.267   1.119  0.3735  0.6617  3.2199
  264SOL    HW2  792   0.572   1.158   1.223 -3.4297 -1.6657  0.0974
  265SOL     OW  793   0.431   1.510   0.076 -0.0973 -0.4890  0.3149
  265SOL    HW1  794   0.340   1.466   0.077  1.9654 -0.8009 -1.5799
  265SOL    HW2  795   0.490   1.485   3.078  0.8839 -0.8625  0.0083
  266SOL     OW  796   1.265   1.363   0.480 -0.6201 -0.5540  0.5093
  266SOL    HW1  797   1.204   1.388   0.555  0.6602 -0.7686 -2.8396
  266SOL    HW2  798   1.324   1.285   0.505  1.5654 -1.4744  0.4906
  267SOL     OW  799   2.866   0.631   0.006  0.2356  0.1337  0.7864
  267SOL    HW1  800   2.912   0.635   2.997  0.9361  1.9881  1.2696
  267SOL    HW2  801   2.820   0.720   0.024 -0.2904  1.7949 -1.6554
  268SOL     OW  802   2.854   2.933   2.822 -0.6423  0.4819  0.8936
  268SOL    HW1  803   2.916   3.015   2.802  2.5363  2.0886  1.5527
  268SOL    HW2  804   2.880   2.854   2.752  1.1622 -0.7053 -2.2723
  269SOL     OW  805   1.705   0.301   2.453 -0.2821  0.2278 -0.3645
  269SOL    HW1  806   1.752   0.374   2.504 -0.2141 -0.9822 -1.5989
  269SOL    HW2  807   1.606   0.292   2.478  0.5692  0.5297 -1.2203
  270SOL     OW  808   0.905   1.060   2.585 -1.0055  0.0792 -0.0632
  270SOL    HW1  809   0.807   1.035   2.573  0.2171 -0.3256  0.9321
  270SOL    HW2  810   0.921   1.156   2.553  0.2645  2.2173 -1.4200
  271SOL     OW  811   2.704   1.021   0.148  0.2574  0.0832  0.0727
  271SOL    HW1  812   2.617   1.075   0.134  0.8272 -1.9846  1.5086
  271SOL    HW2  813   2.684   0.956   0.228 -0.5729  0.6415  1.8561
  272SOL     OW  814   2.673   1.879   2.668 -0.0019  0.1770  0.1770
  272SOL    HW1  815   2.605   1.944   2.707 -1.6326 -1.7486  2.7260
  272SOL    HW2  816   2.732   1.927   2.602  0.6075 -1.6789 -0.9603
  273SOL     OW  817   2.490   0.599   0.153 -0.0887 -0.3787 -0.0405
  273SOL    HW1  818   2.497   0.499   0.145 -0.8414  1.9709  0.2812
  273SOL    HW2  819   2.467   0.637   0.061  3.5590  0.0309  1.7988
  274SOL     OW  820   0.167   2.376   0.990  0.3665  0.6756 -0.2705
  274SOL    HW1  821   0.257   2.353   0.957 -2.8229 -0.4091  2.1847
  274SOL    HW2  822   0.174   2.375   1.091  1.9862 -1.3070  1.7473
  275SOL     OW  823   2.366   1.328   0.637  0.6282  0.3634 -0.2430
  275SOL    HW1  824   2.447   1.329   0.703  1.3553 -2.8834  2.2927
  275SOL    HW2  825   2.283   1.336   0.697 -1.4119  0.5475  0.0728
  276SOL     OW  826   0.124   1.186   2.683  0.1274  0.2301 -0.3015
  276SOL    HW1  827   0.218   1.229   2.681  1.1893  1.7679  0.8584
  276SOL    HW2  828   0.078   1.176   2.595  2.0714 -3.1761  1.3416
  277SOL     OW  829   1.555   2.543   1.355 -0.7240 -0.0847  0.0691
  277SOL    HW1  830   1.608   2.583   1.431  0.3263 -1.0322 -1.5801
  277SOL    HW2  831   1.616   2.496   1.285 -0.9180 -0.9194 -0.3474
  278SOL     OW  832   1.253   0.496   1.758  0.3254  0.1886 -0.3271
  278SOL    HW1  833   1.162   0.480   1.802  0.7727 -1.0529 -0.8544
  278SOL    HW2  834   1.280   0.418   1.697  0.0529  0.5936 -0.7051
  279SOL     OW  835   1.587   1.775   0.657  0.2672 -0.6621 -0.5135
  279SOL    HW1  836   1.630   1.778   0.747  1.1397  0.9021 -0.9952
  279SOL    HW2  837   1.655   1.746   0.587  0.0362  0.3022 -0.3665
  280SOL     OW  838   0.585   1.751   0.751  1.0628  0.5286  0.1059
  280SOL    HW1  839   0.581   1.836   0.810  0.4330  0.7633 -0.2597
  280SOL    HW2  840   0.579   1.667   0.809 -1.2773  0.7710 -0.0105
  281SOL     OW  841   3.007   0.035   2.708  0.0457 -0.4826  0.2991
  281SOL    HW1  842   2.946   0.111   2.674  0.4800  0.7428  1.5989
  281SOL    HW2  843   3.082   0.021   2.641  1.1939  0.3115 -2.4567
  282SOL     OW  844   0.477   0.753   0.410 -0.1878 -0.8104 -0.5025
  282SOL    HW1  845   0.412   0.672   0.419 -0.6856  0.4975 -3.4671
  282SOL    HW2  846   0.462   0.793   0.319  0.9366 -0.5037  0.5282
  283SOL     OW  847   1.921   1.934   0.376 -0.3540  0.0438 -0.0674
  283SOL    HW1  848   2.014   1.919   0.346 -1.3488  2.0835 -1.3236
  283SOL    HW2  849   1.871   1.979   0.303  0.6747 -0.1777  1.1849
  284SOL     OW  850   1.133   1.366   0.216 -0.4140  1.0719 -0.1066
  284SOL    HW1  851   1.166   1.362   0.313  3.3554 -0.4361 -0.7925
  284SOL    HW2  852   1.213   1.355   0.151  1.9190  0.9130 -1.1190
  285SOL     OW  853   2.441   0.440   2.818  0.0111 -0.1135  0.0263
  285SOL    HW1  854   2.528   0.395   2.783  1.8028  0.6071  0.4744
  285SOL    HW2  855   2.462   0.528   2.866  2.6402  0.6077  0.1569
  286SOL     OW  856   1.209   2.941   1.440  0.0265 -0.3362  0.5846
  286SOL    HW1  857   1.164   2.890   1.364 -1.4249 -0.5933  2.2627
  286SOL    HW2  858   1.204   3.044   1.425  0.2445  0.8907 -0.1761
  287SOL     OW  859   0.931   1.382   1.021 -0.0005 -0.3309 -0.3189
  287SOL    HW1  860   1.021   1.404   0.988 -2.9878  0.4179 -0.5035
  287SOL    HW2  861   0.869   1.463   1.003 -0.5586 -0.9593  0.8666
  288SOL     OW  862   1.642   2.977   2.886  0.0434  0.2342 -0.4455
  288SOL    HW1  863   1.619   3.078   2.897  0.1950  0.3494  2.6048
  288SOL    HW2  864   1.589   2.929   2.961  3.1033  0.1731  0.9603
  289SOL     OW  865   0.191   1.481   2.497  0.3625  0.5555  0.3659
  289SOL    HW1  866   0.088   1.476   2.486 -1.7045 -0.7079  0.6298
  289SOL    HW2  867   0.231   1.537   2.571 -0.1537 -0.1255  2.1689
  290SOL     OW  868   1.720   2.322   0.932 -0.1831  0.2807  0.0325
  290SOL    HW1  869   1.727   2.409   0.877 -2.4211  0.2222 -0.8828
  290SOL    HW2  870   1.772   2.246   0.881  1.0313  1.0862 -1.8002
  291SOL     OW  871   2.355   2.009   2.986 -0.0234  0.5000  0.5826
  291SOL    HW1  872   2.312   2.100   3.008 -1.4066  3.0034  1.8828
  291SOL    HW2  873   2.290   1.948   2.932 -3.2240  0.6697  1.6617
  292SOL     OW  874   1.081   0.699   2.161  0.5930  0.3329 -0.1839
  292SOL    HW1  875   1.169   0.666   2.205 -0.9884  2.0458 -0.0465
  292SOL    HW2  876   1.103   0.754   2.079 -0.7202 -0.4547  0.5586
  293SOL     OW  877   2.016   2.840   0.951  0.5470  0.0356  0.1930
  293SOL    HW1  878   2.038   2.932   0.914  0.9631  0.0291  1.3632
  293SOL    HW2  879   2.102   2.801   0.984  1.5517 -2.5976  0.4991
  294SOL     OW  880   0.344   0.349   2.500  0.0006  0.2658  0.2506
  294SOL    HW1  881   0.403   0.412   2.564  1.8052  0.0968  2.9865
  294SOL    HW2  882   0.378   0.360   2.406  1.4948 -0.8302 -0.7446
  295SOL     OW  883   1.368   1.725   0.500 -0.2369  0.2678  0.0219
  295SOL    HW1  884   1.425   1.736   0.587  0.7757 -0.7843 -0.2634
  295SOL    HW2  885   1.384   1.639   0.446 -0.6067 -2.0122 -2.7801
  296SOL     OW  886   2.543   1.688   0.434 -0.1911 -0.3289  0.3987
  296SOL    HW1  887   2.638   1.671   0.406  0.8399  1.5485  2.6859
  296SOL    HW2  888   2.481   1.612   0.406 -1.6985  1.4840  0.6311
  297SOL     OW  889   2.138   0.336   3.059  0.1188  0.1267  0.1674
  297SOL    HW1  890   2.113   0.246   0.017  0.9396 -1.9526 -0.8745
  297SOL    HW2  891   2.218   0.324   2.992  0.2295  0.1379  0.2120
  298SOL     OW  892   1.301   2.373   2.345  0.0862  0.3023  0.4897
  298SOL    HW1  893   1.229   2.306   2.372  2.7048 -2.2941 -1.0896
  298SOL    HW2  894   1.367   2.324   2.285 -0.8468 -0.6622  1.4877
  299SOL     OW  895   1.296   2.662   2.588  0.3828  0.2181  0.6128
  299SOL    HW1  896   1.328   2.746   2.637  0.5738 -1.2325 -0.4576
  299SOL    HW2  897   1.349   2.647   2.503 -0.4434  0.4377 -1.6019
  300SOL     OW  898   1.965   0.023   2.936  0.0115 -0.5412 -0.0719
  300SOL    HW1  899   1.890   0.041   2.870 -1.2786  0.3187 -1.2899
  300SOL    HW2  900   2.039   0.095   2.938  1.9015  1.2368 -0.2705
  301SOL     OW  901   1.489   1.414   1.369  0.2174  0.1896 -0.2815
  301SOL    HW1  902   1.440   1.335   1.415  1.2583 -0.6463  0.8146
  301SOL    HW2  903   1.421   1.458   1.311 -0.3364  2.0745 -0.1047
  302SOL     OW  904   2.539   2.309   0.423  0.3923 -0.4240 -0.0114
  302SOL    HW1  905   2.589   2.388   0.459  1.2075  1.4771 -0.3349
  302SOL    HW2  906   2.462   2.348   0.364 -0.9944  1.8521 -1.2446
  303SOL     OW  907   2.792   2.323   2.376 -0.4129 -0.6661  0.5053
  303SOL    HW1  908   2.792   2.421   2.340  0.5597 -0.1812  2.2245
  303SOL    HW2  909   2.865   2.267   2.335  0.3922 -0.8734  0.2811
  304SOL     OW  910   2.815   0.619   1.988  0.3909 -0.2755 -0.2170
  304SOL    HW1  911   2.772   0.689   1.924 -2.1805 -1.1828  0.4255
  304SOL    HW2  912   2.762   0.613   2.074 -0.4540  2.7120 -1.7040
  305SOL     OW  913   0.759   1.917   1.773  0.0481 -0.6963  0.3288
  305SOL    HW1  914   0.773   1.819   1.792 -0.2921 -0.3661  1.5748
  305SOL    HW2  915   0.834   1.980   1.806  0.3708  2.6011  0.7437
  306SOL     OW  916   2.743   0.818   1.808 -0.6246 -0.0797 -0.1354
  306SOL    HW1  917   2.778   0.845   1.718  0.1456 -0.6398 -1.3384
  306SOL    HW2  918   2.685   0.883   1.855 -0.7314 -2.4064 -0.1453
  307SOL     OW  919   1.568   1.172   1.858 -0.5601  0.2411 -0.2146
  307SOL    HW1  920   1.486   1.237   1.860 -2.6315  0.8701 -1.7179
  307SOL    HW2  921   1.579   1.123   1.770  1.1584  0.4861 -1.5703
  308SOL     OW  922   2.561   1.528   0.930 -0.5035 -0.2654 -0.9040
  308SOL    HW1  923   2.507   1.601   0.971  2.4118 -0.4544  0.0435
  308SOL    HW2  924   2.506   1.443   0.927 -0.1575 -0.6791  0.8811
  309SOL     OW  925   2.266   1.670   1.311  0.2873 -0.1073 -0.1458
  309SOL    HW1  926   2.264   1.699   1.411  1.2933  1.6612  0.6493
  309SOL    HW2  927   2.331   1.592   1.305 -1.9679  1.7854 -0.2396
  310SOL     OW  928   2.636   1.632   2.569  0.1482  0.1240 -0.4176
  310SOL    HW1  929   2.649   1.627   2.463  0.9350 -1.7287 -1.0481
  310SOL    HW2  930   2.643   1.729   2.611 -0.5227 -0.1889  2.8025
  311SOL     OW  931   0.109   2.257   2.909  0.0870 -0.5047  0.1730
  311SOL    HW1  932   0.076   2.279   3.002  1.0847 -0.2502 -3.1907
  311SOL    HW2  933   0.126   2.154   2.904  1.3353 -1.1327  1.0257
  312SOL     OW  934   2.248   1.560   1.009  0.3625 -0.1133 -0.6033
  312SOL    HW1  935   2.274   1.480   1.073  2.7298 -0.6983 -0.0589
  312SOL    HW2  936   2.228   1.644   1.064 -0.9792  0.3438  0.5387
  313SOL     OW  937   2.557   0.105   1.156  0.8987  0.2624 -0.4197
  313SOL    HW1  938   2.521   0.082   1.066  0.0801 -0.9098  1.5367
  313SOL    HW2  939   2.494   0.063   1.228 -2.7031  3.5548 -1.3644
  314SOL     OW  940   0.958   1.693   0.363  0.0400 -0.0515  0.3525
  314SOL    HW1  941   1.028   1.712   0.291  0.0846  0.9811  0.3903
  314SOL    HW2  942   0.995   1.671   0.457  0.9110  0.9580 -1.1998
  315SOL     OW  943   1.134   2.582   2.262 -0.1390 -0.2111 -0.1124
  315SOL    HW1  944   1.050   2.593   2.317 -1.9358  0.1885  1.9906
  315SOL    HW2  945   1.183   2.497   2.284 -0.5722 -1.6085 -1.1843
  316SOL     OW  946   2.961   1.121   0.108 -0.4956  0.4089  0.3948
  316SOL    HW1  947   3.039   1.057   0.128 -1.5770  0.3117 -0.0104
  316SOL    HW2  948   2.870   1.074   0.125 -4.1507 -2.4442 -0.4631
  317SOL     OW  949   0.938   0.230   0.390  0.3790 -0.0938  0.2511
  317SOL    HW1  950   0.927   0.178   0.301 -2.6694  1.7747 -0.9211
  317SOL    HW2  951   0.957   0.171   0.473  0.5667 -0.0104 -0.0598
  318SOL     OW  952   2.790   2.467   0.493  0.0582 -0.4948  0.6917
  318SOL    HW1  953   2.800   2.563   0.529 -0.3790  1.4545  0.1750
  318SOL    HW2  954   2.846   2.404   0.551  0.3524  1.0166  2.4397
  319SOL     OW  955   0.666   1.431   2.474 -0.4787 -0.1479  0.3638
  319SOL    HW1  956   0.584   1.487   2.482  0.3229 -0.7577 -0.6976
  319SOL    HW2  957   0.753   1.480   2.479 -1.4705 -1.9523 -1.3438
  320SOL     OW  958   0.606   2.340   1.818  0.2599  0.0239  0.0340
  320SOL    HW1  959   0.678   2.392   1.776  0.3579 -0.7203 -0.1939
  320SOL    HW2  960   0.527   2.400   1.846 -3.2164  2.1052 -0.4004
  321SOL     OW  961   1.493   2.344   0.020 -0.0036 -0.0555 -0.3707
  321SOL    HW1  962   1.487   2.306   3.010 -2.5240  1.4698  1.6705
  321SOL    HW2  963   1.572   2.406   0.032  0.4930  0.6719 -2.7413
  322SOL     OW  964   2.677   1.057   1.942  0.0366 -0.0173  0.3556
  322SOL    HW1  965   2.700   1.109   1.856 -1.6891 -0.2576  0.6205
  322SOL    HW2  966   2.743   1.054   2.017 -2.0228 -1.7146 -1.8151
  323SOL     OW  967   2.475   0.922   0.784  0.0114 -0.3471  0.0646
  323SOL    HW1  968   2.463   0.821   0.776  0.3605  0.5567 -0.1712
  323SOL    HW2  969   2.423   0.969   0.711  3.2273  1.2949  1.7051
  324SOL     OW  970   0.388   2.697   0.079  0.1300  0.0154  0.1973
  324SOL    HW1  971   0.391   2.686   3.062  0.2881 -0.4814 -0.6731
  324SOL    HW2  972   0.329   2.774   0.104 -1.4203 -3.4667  0.2444
  325SOL     OW  973   1.331   0.587   2.238  0.0655 -0.2289  0.2830
  325SOL    HW1  974   1.418   0.613   2.191 -1.6386 -1.4355  1.4090
  325SOL    HW2  975   1.314   0.484   2.236  1.1721  1.1616 -1.2948
  326SOL     OW  976   2.320   2.776   1.683 -0.2811  0.7819  0.4648
  326SOL    HW1  977   2.400   2.792   1.622  2.7457 -2.0483  0.7654
  326SOL    HW2  978   2.272   2.687   1.658  0.6001 -2.3171 -1.4299
  327SOL     OW  979   2.128   0.589   2.788  0.3286  0.1277  0.2250
  327SOL    HW1  980   2.091   0.617   2.881  3.0516 -1.7127  2.5141
  327SOL    HW2  981   2.083   0.506   2.762 -0.1179  1.2216 -0.3634
  328SOL     OW  982   2.814   1.028   2.385 -0.3496 -0.4502 -0.3543
  328SOL    HW1  983   2.740   1.089   2.343  0.3705  0.4640 -1.6189
  328SOL    HW2  984   2.772   0.950   2.435  0.2570  1.6925 -0.5562
  329SOL     OW  985   1.150   0.123   2.108  0.3329 -0.0560  0.4259
  329SOL    HW1  986   1.113   0.050   2.170 -0.4841  1.2458 -1.1714
  329SOL    HW2  987   1.241   0.100   2.075 -2.2237 -0.2497  1.1368
  330SOL     OW  988   2.875   1.929   1.375  0.0839 -0.0540 -0.6285
  330SOL    HW1  989   2.950   1.987   1.333 -1.6839 -0.7106  0.4493
  330SOL    HW2  990   2.857   1.847   1.315 -0.0417  0.0088  1.2648
  331SOL     OW  991   0.599   1.288   1.693  0.2352  0.0913 -0.3569
  331SOL    HW1  992   0.671   1.223   1.719 -1.8330 -0.5506  0.3087
  331SOL    HW2  993   0.608   1.319   1.596 -1.2210 -1.2475  0.4543
  332SOL     OW  994   0.164   2.753   1.476  0.0199  0.6428 -0.4115
  332SOL    HW1  995   0.150   2.842   1.525 -0.7518 -0.0167  1.4312
  332SOL    HW2  996   0.079   2.699   1.458  0.3461 -1.1355 -1.4184
  333SOL     OW  997   2.170   2.890   1.894  0.2961 -0.5062  0.0200
  333SOL    HW1  998   2.213   2.919   1.982  0.7515  2.1196  3.0748
  333SOL    HW2  999   2.239   2.877   1.819 -2.2832 -0.9816 -1.2051
  334SOL     OW 1000   0.874   2.000   0.991 -0.1697  0.2227 -0.4915
  334SOL    HW1 1001   0.783   2.036   1.017  1.3859 -0.9367 -0.5248
  334SOL    HW2 1002   0.927   2.077   0.951 -3.2020  1.1886  0.9466
  335SOL     OW 1003   0.809   2.302   2.769 -0.0953 -0.4072  0.4546
  335SOL    HW1 1004   0.751   2.331   2.845  1.0060 -2.1497  0.5272
  335SOL    HW2 1005   0.893   2.358   2.756 -0.8870  1.0646  0.1962
  336SOL     OW 1006   2.967   0.271   1.978 -0.5637 -0.0026  0.6254
  336SOL    HW1 1007   2.937   0.303   1.887 -0.7977  0.9626 -1.1646
  336SOL    HW2 1008   2.996   0.179   1.967  0.0951  4.1237  0.0828
  337SOL     OW 1009   2.753   2.204   3.059 -0.3531  0.2076  0.0164
  337SOL    HW1 1010   2.730   2.221   0.073 -1.6008 -1.4542 -2.2807
  337SOL    HW2 1011   2.819   2.124   3.052  0.1965 -0.9342  0.7203
  338SOL     OW 1012   1.035   2.042   1.227 -0.0457 -0.3098 -0.0235
  338SOL    HW1 1013   1.103   2.114   1.198  0.1972 -1.4699 -0.4234
  338SOL    HW2 1014   0.988   2.022   1.136 -1.5376 -0.2248 -0.7442
  339SOL     OW 1015   3.010   0.500   2.123  0.0891  0.7044  0.4928
  339SOL    HW1 1016   2.934   0.559   2.092  1.0897  0.9649  0.4840
  339SOL    HW2 1017   3.004   0.415   2.070  0.0427  0.8927  0.0363
  340SOL     OW 1018   1.864   2.560   0.642  0.0768  0.5999  0.5941
  340SOL    HW1 1019   1.899   2.530   0.548 -1.1620 -0.8446  0.2542
  340SOL    HW2 1020   1.768   2.524   0.665 -2.3254 -0.0911  1.3825
  341SOL     OW 1021   1.655   1.487   1.029 -0.3496  0.0574  0.4045
  341SOL    HW1 1022   1.746   1.439   1.049  3.2630 -0.1943  2.9267
  341SOL    HW2 1023   1.657   1.592   1.030 -0.6930  0.5689 -1.5228
  342SOL     OW 1024   0.235   1.340   0.605 -0.4550  0.1191 -0.0957
  342SOL    HW1 1025   0.238   1.395   0.518 -1.2302  1.4458  0.3661
  342SOL    HW2 1026   0.163   1.269   0.602  1.2778  2.1400 -0.6529
  343SOL     OW 1027   1.339   0.070   1.247  0.1068  0.0648  0.1679
  343SOL    HW1 1028   1.256   0.097   1.304 -0.9601  0.5398  2.0776
  343SOL    HW2 1029   1.384   0.154   1.209 -3.3598  2.5696  1.8869
  344SOL     OW 1030   2.159   2.740   1.216 -0.5683  0.1247 -0.9121
  344SOL    HW1 1031   2.071   2.705   1.189  1.0931  0.3757 -1.5878
  344SOL    HW2 1032   2.146   2.819   1.276 -2.3713 -2.3790  0.1267
  345SOL     OW 1033   2.882   2.305   2.651 -0.1806 -0.3566 -0.1276
  345SOL    HW1 1034   2.867   2.300   2.551 -2.1831  0.2168 -2.8107
  345SOL    HW2 1035   2.963   2.359   2.680  0.1406 -1.4040  1.0155
  346SOL     OW 1036   0.234   1.883   0.814  0.0085 -0.2235 -0.1184
  346SOL    HW1 1037   0.192   1.843   0.729 -1.0435  0.5887 -1.2305
  346SOL    HW2 1038   0.161   1.947   0.858 -2.0937  0.2974 -0.6486
  347SOL     OW 1039   1.881   2.543   0.904 -0.1223 -0.0474  0.1926
  347SOL    HW1 1040   1.888   2.539   0.801 -1.3426 -1.5676  0.1773
  347SOL    HW2 1041   1.870   2.639   0.945 -1.2374  3.4643  3.8903
  348SOL     OW 1042   1.260   1.523   2.704 -0.0767  0.1450 -0.1177
  348SOL    HW1 1043   1.270   1.475   2.617 -3.7685 -3.2968  2.1092
  348SOL    HW2 1044   1.270   1.621   2.693  1.8665 -1.3265  2.9275
  349SOL     OW 1045   2.131   0.972   2.231 -0.5544 -0.0382  0.4018
  349SOL    HW1 1046   2.089   0.894   2.186  0.6240 -2.6053 -0.3504
  349SOL    HW2 1047   2.226   0.988   2.187  2.1827  2.0638 -0.9777
  350SOL     OW 1048   3.007   2.411   1.257  0.1351  0.0489 -0.1750
  350SOL    HW1 1049   2.962   2.371   1.334  1.3402  0.7104 -0.9871
  350SOL    HW2 1050   0.024   2.407   1.263 -2.1348  3.4336 -1.7711
  351SOL     OW 1051   0.620   0.189   2.769  0.2401 -0.0836 -0.0678
  351SOL    HW1 1052   0.667   0.156   2.851  1.1815 -1.3508 -0.2883
  351SOL    HW2 1053   0.668   0.275   2.740 -0.9296 -0.1382 -1.6485
  352SOL     OW 1054   0.865   2.659   1.435  0.1693 -0.0768 -0.1437
  352SOL    HW1 1055   0.962   2.658   1.467  2.2420  1.1263 -1.8957
  352SOL    HW2 1056   0.803   2.691   1.509 -0.0662 -1.1420 -0.8953
  353SOL     OW 1057   0.984   0.774   2.627 -0.6241 -0.5277 -0.0502
  353SOL    HW1 1058   0.942   0.833   2.555  0.2859  0.8561 -0.0455
  353SOL    HW2 1059   1.077   0.810   2.651  1.1359  1.4243 -1.3821
  354SOL     OW 1060   1.425   1.139   0.532  0.0042  0.4084 -0.4193
  354SOL    HW1 1061   1.374   1.053   0.502  0.3810 -2.6943  0.0711
  354SOL    HW2 1062   1.516   1.147   0.487  0.6732  1.3669  0.5200
  355SOL     OW 1063   2.904   0.188   0.419  0.1783  0.3713 -0.2059
  355SOL    HW1 1064   2.966   0.193   0.341 -0.5007 -0.9594  0.0584
  355SOL    HW2 1065   2.833   0.114   0.408 -1.5683 -0.6902  0.7814
  356SOL     OW 1066   2.940   0.952   2.626  0.0615 -0.2144 -0.0822
  356SOL    HW1 1067   3.007   0.885   2.590  0.9137  0.3013  2.2241
  356SOL    HW2 1068   2.901   1.011   2.553 -0.2480 -2.5482 -2.0130
  357SOL     OW 1069   0.594   2.790   1.828 -0.1170  0.1476  0.3914
  357SOL    HW1 1070   0.554   2.880   1.806 -0.5993 -0.9332 -0.6410
  357SOL    HW2 1071   0.624   2.750   1.739  1.9636  2.0214  0.4678
  358SOL     OW 1072   2.717   1.367   2.555 -0.6827 -0.3871  0.6933
  358SOL    HW1 1073   2.684   1.464   2.569 -2.1847 -0.1491 -1.6037
  358SOL    HW2 1074   2.796   1.373   2.492 -0.2445 -0.8054  0.7776
  359SOL     OW 1075   2.463   2.517   2.740 -0.4555  0.1027  0.1384
  359SOL    HW1 1076   2.443   2.608   2.700  1.6088 -1.0538 -3.1496
  359SOL    HW2 1077   2.414   2.438   2.698 -1.1979  0.7025 -1.8125
  360SOL     OW 1078   2.095   0.797   1.010 -0.2147 -0.1732 -0.0982
  360SOL    HW1 1079   2.078   0.706   0.963 -0.0116 -0.7811  0.2371
  360SOL    HW2 1080   2.186   0.805   1.051 -0.1449  0.6001 -1.1502
  361SOL     OW 1081   1.763   2.786   1.024  0.0525  0.0499 -0.0660
  361SOL    HW1 1082   1.712   2.874   1.007 -1.1079  3.3800 -2.1135
  361SOL    HW2 1083   1.861   2.806   0.995 -2.1942 -0.0090 -2.5364
  362SOL     OW 1084   1.522   1.204   0.792 -0.1666 -0.1675 -0.5061
  362SOL    HW1 1085   1.493   1.182   0.696  0.8211  1.5897  0.7519
  362SOL    HW2 1086   1.626   1.209   0.787  0.7735 -2.1126  1.0150
  363SOL     OW 1087   2.976   1.679   2.424 -0.5226  0.5775  0.0398
  363SOL    HW1 1088   3.011   1.674   2.329  1.9591  0.4941 -1.1395
  363SOL    HW2 1089   2.958   1.588   2.469 -1.4350  2.0639 -0.1887
  364SOL     OW 1090   1.227   0.516   1.377  0.1692  0.8279 -0.9845
  364SOL    HW1 1091   1.237   0.458   1.459  0.1180  0.6539 -3.1863
  364SOL    HW2 1092   1.317   0.556   1.347  0.8679 -0.1012 -0.6725
  365SOL     OW 1093   0.155   3.005   1.299  0.1934 -0.0879  0.1378
  365SOL    HW1 1094   0.221   3.006   1.220  1.7486  1.4127  3.6451
  365SOL    HW2 1095   0.198   3.036   1.387  0.4545  0.0720 -0.6479
  366SOL     OW 1096   2.962   1.379   0.069  0.2624 -0.3113  0.5950
  366SOL    HW1 1097   2.909   1.410   0.148  4.0570 -0.5616 -2.4541
  366SOL    HW2 1098   2.969   1.278   0.071  1.2536  0.8105 -2.3298
  367SOL     OW 1099   2.975   2.027   2.674 -0.9509  0.1718 -0.0192
  367SOL    HW1 1100   2.926   2.109   2.708  3.4076  0.7649 -0.6010
  367SOL    HW2 1101   3.018   1.972   2.747 -0.9244  1.8526  2.0074
  368SOL     OW 1102   2.895   2.123   0.968  0.1678  0.4724  0.1178
  368SOL    HW1 1103   2.869   2.218   0.996 -1.0825 -0.5630  0.6065
  368SOL    HW2 1104   2.978   2.120   0.915 -2.2543 -0.9058 -0.6638
  369SOL     OW 1105   0.598   0.354   0.509  0.8302  0.1443 -0.1065
  369SOL    HW1 1106   0.603   0.301   0.426 -1.7697  0.5094  1.6505
  369SOL    HW2 1107   0.669   0.325   0.576  0.2999  2.4875 -1.4040
  370SOL     OW 1108   0.529   1.003   1.363 -0.3986  0.1401  0.2567
  370SOL    HW1 1109   0.483   0.944   1.300 -1.6604 -0.1085  0.5796
  370SOL    HW2 1110   0.631   0.989   1.366  0.3942  3.6204 -3.2449
  371SOL     OW 1111   2.298   2.054   0.744 -0.2237  0.4083  0.3088
  371SOL    HW1 1112   2.262   1.965   0.778  0.0269  0.4938 -1.0792
  371SOL    HW2 1113   2.322   2.043   0.643  1.0002  0.5318 -3.1064
  372SOL     OW 1114   3.072   0.779   2.436 -0.3492 -0.6107 -0.1977
  372SOL    HW1 1115   0.064   0.738   2.491  0.2154  0.6731 -1.1729
  372SOL    HW2 1116   0.035   0.799   2.343  1.4145 -0.3298  1.9057
  373SOL     OW 1117   2.816   1.424   0.308  0.1730 -0.1028 -0.0008
  373SOL    HW1 1118   2.840   1.517   0.333 -0.9533 -1.2905 -0.0219
  373SOL    HW2 1119   2.855   1.355   0.373 -1.5752 -0.4823 -0.6320
  374SOL     OW 1120   0.460   2.435   0.158 -0.4390  0.3483  0.0655
  374SOL    HW1 1121   0.528   2.450   0.235 -0.1160 -0.5303  1.1197
  374SOL    HW2 1122   0.438   2.524   0.119  1.4785 -1.9545  0.1867
  375SOL     OW 1123   0.690   0.255   0.121 -0.1113 -0.2560 -0.0714
  375SOL    HW1 1124   0.771   0.246   0.054  2.6185  1.0878 -0.1490
  375SOL    HW2 1125   0.642   0.166   0.142 -0.4823  0.5968 -0.3512
  376SOL     OW 1126   0.004   3.071   2.018  0.3873  0.7474  0.4673
  376SOL    HW1 1127   3.036   3.037   2.099 -0.2712 -1.2901  1.7411
  376SOL    HW2 1128   0.106   3.068   2.029  1.3936 -1.5936 -0.3378
  377SOL     OW 1129   0.698   1.906   2.244  0.1229  0.4221  0.0449
  377SOL    HW1 1130   0.716   1.870   2.335 -0.2190  2.2487 -2.0319
  377SOL    HW2 1131   0.689   1.839   2.167 -0.0843 -0.6241  1.6468
  378SOL     OW 1132   1.304   0.927   0.441 -0.7134  0.0720 -0.3371
  378SOL    HW1 1133   1.303   0.942   0.341 -0.4593 -0.2324  2.4939
  378SOL    HW2 1134   1.212   0.907   0.474  0.3410  2.8347  1.1264
  379SOL     OW 1135   0.951   1.485   0.039  0.2112 -0.0581 -0.4287
  379SOL    HW1 1136   0.867   1.517   0.088  3.1060  2.6512 -0.9435
  379SOL    HW2 1137   1.014   1.455   0.113  1.2987  0.4182 -0.4553
  380SOL     OW 1138   2.951   1.963   1.878 -0.5763 -0.0480  0.0438
  380SOL    HW1 1139   2.986   2.040   1.821  1.3811  0.9982  3.2776
  380SOL    HW2 1140   3.027   1.917   1.924  1.5686  1.5497  0.0098
  381SOL     OW 1141   0.390   0.885   1.840 -0.4381  0.0858  0.1083
  381SOL    HW1 1142   0.448   0.887   1.757  1.6600  1.0784 -1.3847
  381SOL    HW2 1143   0.289   0.871   1.815 -0.3611  0.3114  1.6688
  382SOL     OW 1144   2.703   2.212   2.803  0.3297 -0.1156  0.2659
  382SOL    HW1 1145   2.781   2.259   2.749  1.3888  0.9701 -0.6298
  382SOL    HW2 1146   2.720   2.217   2.905  0.7180 -0.9111 -1.9191
  383SOL     OW 1147   2.219   1.916   2.357  0.0953  0.3509  0.1302
  383SOL    HW1 1148   2.245   1.841   2.296 -0.9065  2.2887  1.7556
  383SOL    HW2 1149   2.170   1.870   2.436  1.3201 -0.0753 -0.2048
  384SOL     OW 1150   0.704   2.348   2.149  0.0843 -1.0628 -0.1073
  384SOL    HW1 1151   0.642   2.428   2.128  0.0397  0.3681 -0.8873
  384SOL    HW2 1152   0.646   2.265   2.161 -2.4316  0.4480 -0.4236
  385SOL     OW 1153   2.627   1.989   1.036  0.1595  0.3010 -0.7079
  385SOL    HW1 1154   2.724   1.979   1.002 -1.5911 -0.3412 -0.9996
  385SOL    HW2 1155   2.625   2.032   1.127  1.7075  1.1802 -2.7297
  386SOL     OW 1156   1.722   1.049   3.033 -0.0279  0.3854  0.4738
  386SOL    HW1 1157   1.685   0.990   2.961 -0.2969  0.7687  2.3433
  386SOL    HW2 1158   1.800   1.003   3.081 -0.6062  1.7317 -1.3551
  387SOL     OW 1159   0.563   0.941   1.636  0.0043  0.0530 -0.4039
  387SOL    HW1 1160   0.507   0.981   1.558 -1.4009 -1.2633 -0.3346
  387SOL    HW2 1161   0.612   1.009   1.690 -1.7979 -0.9709  1.8677
  388SOL     OW 1162   2.862   0.890   1.564  0.5217  0.1276 -0.9659
  388SOL    HW1 1163   2.809   0.823   1.504  1.1422 -0.2670  2.4426
  388SOL    HW2 1164   2.840   0.987   1.542  1.5758  0.7526 -0.6701
  389SOL     OW 1165   1.676   1.093   2.498  1.0694 -0.2216  0.4343
  389SOL    HW1 1166   1.692   1.165   2.428 -3.5695 -1.8046  3.8519
  389SOL    HW2 1167   1.619   1.127   2.578  0.3548 -0.3254  0.2019
  390SOL     OW 1168   2.117   2.221   0.449 -0.6183 -0.6044  0.3321
  390SOL    HW1 1169   2.094   2.278   0.532 -0.3290  0.1976  0.7376
  390SOL    HW2 1170   2.206   2.177   0.466  0.1141 -1.9503 -0.2600
  391SOL     OW 1171   1.551   2.849   0.727 -0.3327  0.2597  0.3418
  391SOL    HW1 1172   1.641   2.866   0.685  2.8618 -2.1616 -1.4976
  391SOL    HW2 1173   1.554   2.765   0.784  1.4070 -1.7206  0.4431
  392SOL     OW 1174   2.554   2.773   1.551 -0.1775 -0.0504  0.3415
  392SOL    HW1 1175   2.578   2.736   1.461 -0.8020  2.6785  0.5092
  392SOL    HW2 1176   2.535   2.873   1.555 -0.8071 -2.1191  1.4285
  393SOL     OW 1177   1.868   1.972   2.855  0.2169 -0.2662 -0.3717
  393SOL    HW1 1178   1.823   2.044   2.908 -2.6674 -1.4037  0.1790
  393SOL    HW2 1179   1.890   1.894   2.918  0.7036  0.2873  0.9790
  394SOL     OW 1180   0.685   2.636   2.868  0.1827  0.3687 -0.0958
  394SOL    HW1 1181   0.684   2.538   2.899 -0.8895 -0.0929  0.1354
  394SOL    HW2 1182   0.768   2.686   2.900  0.6757  1.3917  1.8746
  395SOL     OW 1183   0.779   1.613   0.993  0.0091 -0.2025  0.5046
  395SOL    HW1 1184   0.679   1.593   0.976 -1.3549  1.9532  1.1884
  395SOL    HW2 1185   0.791   1.669   1.080 -0.4497  2.3773  2.7869
  396SOL     OW 1186   1.904   0.983   2.629 -0.3113  0.2528  0.3828
  396SOL    HW1 1187   1.829   1.040   2.588  1.4013 -1.3400 -0.1818
  396SOL    HW2 1188   1.878   0.939   2.715  1.3317 -0.9650 -0.2245
  397SOL     OW 1189   2.967   0.705   2.851 -0.4182  0.0629  0.4491
  397SOL    HW1 1190   2.953   0.790   2.798  0.4540 -2.7548  0.1350
  397SOL    HW2 1191   3.011   0.625   2.806 -1.9987  0.5517  0.9822
  398SOL     OW 1192   1.276   0.341   0.244 -0.5454 -0.6427  0.4074
  398SOL    HW1 1193   1.310   0.391   0.327  1.7963  2.3186  2.8432
  398SOL    HW2 1194   1.264   0.241   0.265  0.5059 -2.4924 -0.9844
  399SOL     OW 1195   1.793   3.048   1.726  0.4762  0.4866  0.1114
  399SOL    HW1 1196   1.748   3.046   1.634 -0.7893  0.4973  0.7929
  399SOL    HW2 1197   1.766   2.969   1.782  0.8081  0.1189  0.5800
  400SOL     OW 1198   3.000   2.143   2.313  0.4641  0.2061 -0.0942
  400SOL    HW1 1199   2.940   2.066   2.340  1.2381  2.2200 -0.5020
  400SOL    HW2 1200   3.056   2.117   2.234 -1.2704  0.9927  0.4804
  401SOL     OW 1201   0.601   0.020   0.220  0.3010  0.1782 -0.1193
  401SOL    HW1 1202   0.502   0.012   0.246 -0.8346  2.3840  2.9690
  401SOL    HW2 1203   0.629   3.019   0.166  0.5882  1.3965  0.7281
  402SOL     OW 1204   0.185   2.390   1.544 -0.1621 -0.4028 -0.3801
  402SOL    HW1 1205   0.258   2.317   1.570  2.1516 -0.7164 -1.0931
  402SOL    HW2 1206   0.113   2.394   1.617 -0.1643  3.2242 -1.3857
  403SOL     OW 1207   0.180   1.087   1.497  0.8691  0.4279 -0.0936
  403SOL    HW1 1208   0.134   1.042   1.577  1.2918 -1.5720  0.0799
  403SOL    HW2 1209   0.183   1.025   1.419  1.1926  2.1200  0.5789
  404SOL     OW 1210   0.097   2.438   2.140 -0.0891  0.2706  0.0685
  404SOL    HW1 1211   0.157   2.360   2.175  0.0871 -0.2376  1.4917
  404SOL    HW2 1212   0.081   2.506   2.215  0.4737  0.9483  0.5249
  405SOL     OW 1213   2.565   0.284   2.343  0.2803  0.4883  0.4488
  405SOL    HW1 1214   2.478   0.264   2.287 -1.0508  0.1768 -3.5506
  405SOL    HW2 1215   2.547   0.374   2.395 -0.2483 -0.4892 -1.9149
  406SOL     OW 1216   2.049   2.239   0.198 -0.0554  0.1794  0.4002
  406SOL    HW1 1217   2.074   2.224   0.300  0.3274  0.7713  1.4857
  406SOL    HW2 1218   1.957   2.209   0.167  1.2341 -1.6761  0.6165
  407SOL     OW 1219   1.934   1.522   0.519 -0.2158  0.1571  0.0627
  407SOL    HW1 1220   1.947   1.548   0.620  2.1790 -0.7321  0.5254
  407SOL    HW2 1221   1.853   1.577   0.476  0.3299  2.8364 -0.6372
  408SOL     OW 1222   0.405   0.384   2.234  0.2420 -0.0883 -0.3374
  408SOL    HW1 1223   0.323   0.343   2.195 -0.7503  1.5192 -0.7211
  408SOL    HW2 1224   0.498   0.362   2.196 -2.1934 -0.8526  1.7316
  409SOL     OW 1225   2.846   1.643   0.584  0.4627 -0.5193 -0.1336
  409SOL    HW1 1226   2.804   1.719   0.634 -1.1619 -0.7297 -0.9131
  409SOL    HW2 1227   2.870   1.671   0.491 -2.2642 -1.7349  2.8478
  410SOL     OW 1228   2.012   1.525   1.295 -0.0338 -0.3199  0.5493
  410SOL    HW1 1229   2.095   1.583   1.294 -1.3779  0.1336 -0.3831
  410SOL    HW2 1230   1.994   1.504   1.394  0.8594 -0.8646  0.1610
  411SOL     OW 1231   3.077   0.751   0.339 -0.1268 -0.3285  0.1668
  411SOL    HW1 1232   2.974   0.744   0.342 -2.0232 -0.3968 -0.5734
  411SOL    HW2 1233   0.036   0.682   0.399  0.8365  1.0311 -1.8611
  412SOL     OW 1234   2.021   0.678   3.045 -0.0032  0.1727  0.5915
  412SOL    HW1 1235   1.986   0.746   0.030  0.1013 -0.7959 -0.3420
  412SOL    HW2 1236   2.024   0.585   0.001 -1.6362  0.1942  1.0715
  413SOL     OW 1237   0.931   0.843   1.518 -0.4239 -0.4429 -0.2981
  413SOL    HW1 1238   0.897   0.754   1.500  0.2528  2.2602 -2.1344
  413SOL    HW2 1239   0.888   0.909   1.457 -2.0546 -1.2703  3.5951
  414SOL     OW 1240   0.113   1.145   3.015 -0.5871  0.4393 -0.2581
  414SOL    HW1 1241   0.090   1.189   2.928 -1.4085  3.1656 -0.4866
  414SOL    HW2 1242   0.036   1.084   3.039  1.3938  1.2665  1.7721
  415SOL     OW 1243   0.265   1.466   0.376  0.0814  0.1996 -0.0970
  415SOL    HW1 1244   0.185   1.528   0.388  1.3883 -2.1032  2.1133
  415SOL    HW2 1245   0.248   1.398   0.304 -0.6404 -0.8341  0.9106
  416SOL     OW 1246   1.773   0.709   0.258 -0.3052  0.2260  0.3728
  416SOL    HW1 1247   1.699   0.640   0.246  1.0607 -0.8179  0.0229
  416SOL    HW2 1248   1.863   0.668   0.294  5.0654  2.6817  0.6608
  417SOL     OW 1249   0.313   0.114   0.960 -0.4049 -0.1099 -0.0033
  417SOL    HW1 1250   0.350   0.184   0.890  0.0161  0.0558 -0.0960
  417SOL    HW2 1251   0.371   0.033   0.961 -3.4573 -2.1743 -0.9182
  418SOL     OW 1252   2.211   0.917   0.054  0.5115 -0.5490  0.3317
  418SOL    HW1 1253   2.277   0.848   0.020  3.2139 -1.3176  1.8174
  418SOL    HW2 1254   2.143   0.951   3.061 -1.1552  0.1711 -1.7374
  419SOL     OW 1255   0.472   0.389   3.076  0.0161  0.2709 -1.0481
  419SOL    HW1 1256   0.449   0.472   0.048  4.2676 -1.6141 -1.1114
  419SOL    HW2 1257   0.560   0.348   0.025 -1.1045 -2.4275 -0.8459
  420SOL     OW 1258   0.502   1.530   0.911 -0.0559  0.1034 -0.3576
  420SOL    HW1 1259   0.569   1.467   0.865 -0.8109  0.6557  1.4566
  420SOL    HW2 1260   0.407   1.500   0.892 -0.5783 -0.7052 -0.4925
  421SOL     OW 1261   0.483   2.108   0.054 -0.1586 -0.2339 -0.3503
  421SOL    HW1 1262   0.417   2.026   0.059 -3.7916 -0.4398  2.1397
  421SOL    HW2 1263   0.439   2.187   0.006  0.1966  0.4005  0.8401
  422SOL     OW 1264   2.295   0.299   1.733  0.2788 -0.2330  0.3981
  422SOL    HW1 1265   2.349   0.361   1.671  1.3687 -2.6352  3.3969
  422SOL    HW2 1266   2.196   0.320   1.717  0.8811 -1.1902  1.0278
  423SOL     OW 1267   2.154   1.428   0.784  0.3230 -0.5725  0.0547
  423SOL    HW1 1268   2.071   1.484   0.766 -1.9313  0.7647 -0.6817
  423SOL    HW2 1269   2.205   1.461   0.863  0.6292 -0.5622 -1.0663
  424SOL     OW 1270   2.122   1.325   0.099  0.1023 -0.2156 -0.1024
  424SOL    HW1 1271   2.143   1.349   0.004  1.9896 -0.9087 -1.8857
  424SOL    HW2 1272   2.136   1.407   0.162  1.2401  1.2539  2.9853
  425SOL     OW 1273   0.366   2.927   2.542  0.6478  0.1960  0.0243
  425SOL    HW1 1274   0.450   2.953   2.591 -2.2257 -0.3775 -2.9277
  425SOL    HW2 1275   0.398   2.909   2.447  0.2316 -1.6888 -0.0481
  426SOL     OW 1276   2.406   2.795   2.665 -0.1878 -0.2350 -0.2133
  426SOL    HW1 1277   2.359   2.844   2.743  2.7520 -2.2874  3.4992
  426SOL    HW2 1278   2.493   2.845   2.636 -2.0032 -1.8945  0.5789
  427SOL     OW 1279   0.723   0.955   2.180  0.8073  0.0960 -0.5057
  427SOL    HW1 1280   0.786   0.911   2.243 -0.4415 -0.1104  1.1761
  427SOL    HW2 1281   0.708   1.048   2.209 -0.6977 -2.4222 -0.6488
  428SOL     OW 1282   2.022   1.236   2.231  0.3590 -0.4172 -0.1254
  428SOL    HW1 1283   2.041   1.138   2.245 -0.2828  2.8178  1.3490
  428SOL    HW2 1284   2.108   1.287   2.206  1.7333 -0.8737  2.6340
  429SOL     OW 1285   2.509   0.111   0.577  0.2334 -0.0800 -0.1566
  429SOL    HW1 1286   2.470   0.149   0.489 -3.1780 -0.1743 -0.1938
  429SOL    HW2 1287   2.565   0.184   0.619  1.8463 -0.6652 -0.6519
  430SOL     OW 1288   1.632   1.405   1.993 -0.5153  0.0589 -0.0649
  430SOL    HW1 1289   1.640   1.320   1.941  2.4650 -2.0001  0.6072
  430SOL    HW2 1290   1.559   1.466   1.955 -0.8329  1.5930  0.7903
  431SOL     OW 1291   2.699   1.811   1.590 -0.2564  0.0374 -0.5166
  431SOL    HW1 1292   2.754   1.857   1.517 -4.1465  0.5509  1.6672
  431SOL    HW2 1293   2.687   1.873   1.667  2.3690  0.3090 -0.9696
  432SOL     OW 1294   0.825   2.676   1.941  0.3927 -0.3518  0.4457
  432SOL    HW1 1295   0.833   2.595   1.876 -0.4596 -1.3317  1.2443
  432SOL    HW2 1296   0.751   2.740   1.914  0.6863  0.1850 -1.4581
  433SOL     OW 1297   1.645   3.031   0.957  0.4568 -0.2854  0.4684
  433SOL    HW1 1298   1.687   0.039   0.928 -0.7879  3.8419 -3.0005
  433SOL    HW2 1299   1.587   3.002   0.876 -1.1002  0.1719  0.0417
  434SOL     OW 1300   0.290   1.951   1.965  0.0141 -0.0808  0.4493
  434SOL    HW1 1301   0.391   1.976   1.956  1.1897  1.2598  2.0731
  434SOL    HW2 1302   0.247   1.982   1.877  0.3586 -0.6389 -1.5404
  435SOL     OW 1303   0.557   1.466   0.397  0.5381  0.3748 -0.3996
  435SOL    HW1 1304   0.551   1.365   0.395  2.2598  0.1751 -1.8077
  435SOL    HW2 1305   0.462   1.510   0.398 -1.6539  0.9277  2.5337
  436SOL     OW 1306   0.397   1.396   1.836  0.2668  0.2684  0.0225
  436SOL    HW1 1307   0.312   1.364   1.792 -1.1857 -1.5165 -2.0553
  436SOL    HW2 1308   0.478   1.360   1.781 -0.9859 -0.3342 -2.3860
  437SOL     OW 1309   1.171   0.429   2.887 -0.2624  0.4475 -0.0778
  437SOL    HW1 1310   1.176   0.516   2.942 -0.1385  1.7777 -0.3157
  437SOL    HW2 1311   1.130   0.454   2.795 -1.6258  0.9201 -3.4383
  438SOL     OW 1312   0.491   1.856   1.469 -0.0297  0.0309 -0.0044
  438SOL    HW1 1313   0.483   1.834   1.372  1.3924  0.6684 -0.2975
  438SOL    HW2 1314   0.586   1.890   1.481  0.8742 -1.2697 -0.1117
  439SOL     OW 1315   1.890   1.735   3.010 -0.0208 -0.1374 -0.5303
  439SOL    HW1 1316   1.960   1.727   0.001  0.1077  0.0038  0.0635
  439SOL    HW2 1317   1.923   1.688   2.930 -0.8336  0.8422  0.9482
  440SOL     OW 1318   1.490   0.376   0.524 -0.6574 -0.6061 -0.6297
  440SOL    HW1 1319   1.440   0.303   0.574  0.5691  1.5682  1.3287
  440SOL    HW2 1320   1.421   0.452   0.517 -0.7621  2.1321  1.0945
  441SOL     OW 1321   0.632   2.751   1.554 -0.0853  0.6036  0.3974
  441SOL    HW1 1322   0.568   2.672   1.568 -3.1312 -3.5492  0.1868
  441SOL    HW2 1323   0.598   2.815   1.484  3.3721  0.6691  4.0104
  442SOL     OW 1324   2.566   2.454   0.961 -0.5247  0.1807 -0.4189
  442SOL    HW1 1325   2.484   2.504   1.000 -1.1345  0.2770  0.6140
  442SOL    HW2 1326   2.549   2.361   0.929 -2.1690 -2.6278 -0.5873
  443SOL     OW 1327   2.666   0.840   2.511 -0.0682 -0.0277  0.4728
  443SOL    HW1 1328   2.580   0.803   2.470 -2.1183  0.1380 -1.4311
  443SOL    HW2 1329   2.642   0.890   2.600  0.3720  0.4174  2.7611
  444SOL     OW 1330   1.522   0.876   2.422  0.2105 -0.4572  0.5068
  444SOL    HW1 1331   1.570   0.958   2.451  0.0295 -0.5556 -1.5571
  444SOL    HW2 1332   1.477   0.885   2.331 -1.3434  0.9097 -0.8119
  445SOL     OW 1333   2.708   2.229   1.623  0.2017  0.1866 -0.1861
  445SOL    HW1 1334   2.699   2.140   1.673  2.8999  2.2898  1.6334
  445SOL    HW2 1335   2.749   2.301   1.681 -1.1531 -0.2967 -3.7767
  446SOL     OW 1336   0.046   1.148   0.543 -0.0299  0.1764  0.4652
  446SOL    HW1 1337   0.022   1.077   0.612 -1.2232 -1.8059 -3.6693
  446SOL    HW2 1338   3.052   1.204   0.518  0.8077 -2.7135 -3.0632
  447SOL     OW 1339   0.811   2.325   0.700  0.2115 -0.0969  0.2387
  447SOL    HW1 1340   0.825   2.361   0.794  0.7437 -0.0006  3.0180
  447SOL    HW2 1341   0.742   2.251   0.696 -2.2917 -1.7659 -0.1020
  448SOL     OW 1342   1.601   1.574   1.583 -0.1841  0.0411  0.3160
  448SOL    HW1 1343   1.675   1.527   1.636 -1.9838 -1.2838  1.7296
  448SOL    HW2 1344   1.584   1.531   1.493 -0.7528  1.5601  0.2652
  449SOL     OW 1345   0.818   1.698   2.717  0.7909 -0.4567  0.1772
  449SOL    HW1 1346   0.898   1.729   2.769 -0.4917  1.1755 -0.9020
  449SOL    HW2 1347   0.843   1.656   2.626 -0.6588  0.1260 -0.7884
  450SOL     OW 1348   2.832   2.136   2.074 -0.4846  0.0412 -0.0012
  450SOL    HW1 1349   2.730   2.132   2.077 -0.0863 -0.4841 -1.3204
  450SOL    HW2 1350   2.866   2.071   2.007  1.5124 -1.2176 -0.1798
  451SOL     OW 1351   1.881   0.545   1.680 -0.0392  0.0123  0.0656
  451SOL    HW1 1352   1.930   0.560   1.591  1.2228  0.7832 -0.8584
  451SOL    HW2 1353   1.856   0.636   1.719  2.3197  0.4284  2.2137
  452SOL     OW 1354   0.841   2.646   1.161 -0.2019  0.0900 -0.0851
  452SOL    HW1 1355   0.863   2.638   1.263 -3.8403 -0.7141  2.3392
  452SOL    HW2 1356   0.760   2.709   1.151 -1.1821  2.5781  2.4184
  453SOL     OW 1357   0.992   1.748   0.890 -0.3534 -0.6258  0.8181
  453SOL    HW1 1358   0.926   1.685   0.938  0.7464 -1.7941  0.6285
  453SOL    HW2 1359   0.974   1.844   0.916  0.8957 -2.2655  0.1321
  454SOL     OW 1360   3.077   0.975   0.750 -0.3613 -0.6549  0.2945
  454SOL    HW1 1361   3.013   0.937   0.684  3.6774 -0.8639 -0.4449
  454SOL    HW2 1362   0.039   0.899   0.798 -0.8340 -0.3274  3.4126
  455SOL     OW 1363   0.369   0.499   0.428  0.1562 -0.4125  0.0169
  455SOL    HW1 1364   0.295   0.447   0.472 -0.9244 -1.1130 -0.3725
  455SOL    HW2 1365   0.458   0.463   0.463 -1.3540  0.3475 -0.3026
  456SOL     OW 1366   2.195   2.500   0.566 -1.0909  0.5878  0.1410
  456SOL    HW1 1367   2.137   2.579   0.584  3.8036 -0.6022  1.5441
  456SOL    HW2 1368   2.175   2.428   0.635  0.0819 -1.1341 -1.4407
  457SOL     OW 1369   1.468   2.655   0.060  0.2321 -0.3412 -0.2254
  457SOL    HW1 1370   1.466   2.758   0.061 -2.6745 -1.8734 -0.1962
  457SOL    HW2 1371   1.489   2.629   3.048 -0.3360 -2.0867  2.6775
  458SOL     OW 1372   2.785   2.974   0.014 -0.7892 -0.4036  0.7618
  458SOL    HW1 1373   2.687   2.959   0.010  1.9431  0.8616  0.5717
  458SOL    HW2 1374   2.832   2.951   3.013 -0.0479  1.0504 -2.3623
  459SOL     OW 1375   2.027   0.341   1.760 -0.2237  0.3017  0.2057
  459SOL    HW1 1376   1.962   0.288   1.816 -2.2723  0.7015  2.4332
  459SOL    HW2 1377   1.998   0.437   1.763 -2.9135 -2.2521  0.6948
  460SOL     OW 1378   3.026   0.431   0.136 -0.4662  0.1149 -0.3094
  460SOL    HW1 1379   0.027   0.474   0.099  0.0798  0.4338  0.8577
  460SOL    HW2 1380   2.948   0.469   0.086  0.8021 -1.0987 -1.8844
  461SOL     OW 1381   3.060   2.092   1.295  0.3379  0.0832 -0.6639
  461SOL    HW1 1382   3.029   2.112   1.198 -0.3544  1.5717  0.3559
  461SOL    HW2 1383   0.077   2.094   1.306 -0.8818  0.8191 -0.0938
  462SOL     OW 1384   0.018   0.093   0.941 -0.5093  0.0201  0.9605
  462SOL    HW1 1385   0.117   0.108   0.950  0.3735 -0.1611  1.3850
  462SOL    HW2 1386   3.040   0.164   0.983  0.2963  2.2480 -1.1583
  463SOL     OW 1387   2.513   1.356   2.820  0.1460  0.2648  0.3261
  463SOL    HW1 1388   2.442   1.291   2.844 -0.4600  2.6108 -5.5750
  463SOL    HW2 1389   2.599   1.305   2.813  2.0413  1.0080 -1.1506
  464SOL     OW 1390   0.613   2.802   1.129  0.6915 -0.0792 -0.0971
  464SOL    HW1 1391   0.634   2.884   1.077  1.0492  0.9145 -0.0858
  464SOL    HW2 1392   0.560   2.824   1.215  0.9186  0.4085  0.4271
  465SOL     OW 1393   0.809   0.504   1.180 -0.1002 -0.1884 -0.5172
  465SOL    HW1 1394   0.908   0.475   1.174  2.2598  0.2097  1.8583
  465SOL    HW2 1395   0.776   0.540   1.090  2.1428  0.0893  2.3725
  466SOL     OW 1396   1.606   2.230   2.285  0.3499  0.0882  0.1373
  466SOL    HW1 1397   1.644   2.268   2.195  0.0188  0.1039 -0.9873
  466SOL    HW2 1398   1.628   2.291   2.363 -1.0095 -1.1407  0.8828
  467SOL     OW 1399   0.775   0.049   2.043  0.4364 -0.0079 -0.2317
  467SOL    HW1 1400   0.789   0.093   2.135 -2.9528  0.0016  2.4500
  467SOL    HW2 1401   0.863   0.024   1.999 -1.1297 -0.9139  0.0642
  468SOL     OW 1402   0.227   1.072   2.336 -0.2679 -0.2035 -0.1540
  468SOL    HW1 1403   0.217   1.090   2.235 -0.9579  1.0301 -0.6130
  468SOL    HW2 1404   0.322   1.088   2.373 -1.0911 -1.3779  1.7312
  469SOL     OW 1405   0.812   2.530   0.541 -0.0831 -0.2295 -0.5781
  469SOL    HW1 1406   0.867   2.600   0.581  1.3848 -0.0039 -0.4566
  469SOL    HW2 1407   0.812   2.444   0.596  0.3779  0.0256 -1.5402
  470SOL     OW 1408   2.291   1.460   2.368  0.7261 -0.4860  0.6122
  470SOL    HW1 1409   2.239   1.545   2.352  2.1405 -2.3979 -0.3505
  470SOL    HW2 1410   2.285   1.424   2.464  1.2842 -2.5131 -2.1189
  471SOL     OW 1411   1.010   2.509   2.891 -0.3607 -0.1202  0.2073
  471SOL    HW1 1412   1.054   2.438   2.951  0.8959  1.1557  0.6856
  471SOL    HW2 1413   0.980   2.595   2.936  3.8784 -0.0088  0.9871
  472SOL     OW 1414   0.398   2.537   1.838 -0.6050 -0.1646  0.2080
  472SOL    HW1 1415   0.312   2.561   1.885 -0.5173 -1.2664 -2.7582
  472SOL    HW2 1416   0.416   2.593   1.754  1.7598  0.0524  0.1844
  473SOL     OW 1417   0.848   3.033   3.028 -0.1085 -0.1121 -0.0798
  473SOL    HW1 1418   0.911   3.062   2.952  1.8238 -0.8644 -1.5527
  473SOL    HW2 1419   0.757   3.071   3.004 -2.0783  0.6311  0.5611
  474SOL     OW 1420   1.739   0.212   0.883  0.9368  0.2405  0.1212
  474SOL    HW1 1421   1.780   0.201   0.791  0.6443 -0.9975  1.7665
  474SOL    HW2 1422   1.800   0.226   0.955  0.0130 -1.6484 -1.8125
  475SOL     OW 1423   1.440   0.340   1.164  0.1532  0.0226 -0.3622
  475SOL    HW1 1424   1.416   0.348   1.066  0.9529 -1.9274  0.6554
  475SOL    HW2 1425   1.463   0.428   1.206 -0.0800 -1.8043  0.3916
  476SOL     OW 1426   0.299   0.936   0.965  0.3222  0.0054 -0.1460
  476SOL    HW1 1427   0.243   1.022   0.970 -0.9594  0.3772  1.5923
  476SOL    HW2 1428   0.342   0.924   0.873  0.2464  0.9987  1.5557
  477SOL     OW 1429   1.264   2.476   0.697 -0.4293  0.6542  0.0531
  477SOL    HW1 1430   1.282   2.503   0.600 -1.7126  1.2732  0.1169
  477SOL    HW2 1431   1.229   2.554   0.741  0.1747 -2.3885  0.0039
  478SOL     OW 1432   0.044   2.673   2.317  0.0658 -0.1866 -0.0925
  478SOL    HW1 1433   0.095   2.689   2.406  2.6041  1.6424  0.8473
  478SOL    HW2 1434   0.090   2.720   2.236  1.8373  1.5789 -0.2766
  479SOL     OW 1435   2.928   0.595   1.176 -0.3300  0.2418 -0.2760
  479SOL    HW1 1436   2.921   0.520   1.242 -0.4354 -2.1288 -2.4089
  479SOL    HW2 1437   2.876   0.579   1.095  2.1664  1.4947  0.9789
  480SOL     OW 1438   0.010   2.318   0.103 -0.1550  0.5406 -0.3352
  480SOL    HW1 1439   0.057   2.249   0.160 -2.1871 -1.0542 -2.7828
  480SOL    HW2 1440   3.003   2.350   0.142 -0.1583 -1.9834  0.3120
  481SOL     OW 1441   2.422   1.864   1.892  0.1681 -0.3738 -0.7941
  481SOL    HW1 1442   2.336   1.818   1.857  0.1226  1.4675 -1.4356
  481SOL    HW2 1443   2.396   1.940   1.953  2.6099  0.5561 -0.5439
  482SOL     OW 1444   1.555   2.163   2.629  0.5761 -0.0214  0.1235
  482SOL    HW1 1445   1.622   2.217   2.574  2.2906 -0.7992  2.4838
  482SOL    HW2 1446   1.462   2.162   2.586 -0.4567  1.1109 -2.2140
  483SOL     OW 1447   0.779   1.584   1.476 -0.1385  0.7756 -0.0341
  483SOL    HW1 1448   0.735   1.637   1.400  1.6528 -2.2951  0.5719
  483SOL    HW2 1449   0.760   1.487   1.470  0.8623 -0.7787  0.5821
  484SOL     OW 1450   0.493   0.481   1.522  0.3869 -0.6716  0.5062
  484SOL    HW1 1451   0.553   0.558   1.551  3.0021  1.5191  3.1672
  484SOL    HW2 1452   0.514   0.450   1.425  2.0300  0.4346  3.4121
  485SOL     OW 1453   2.341   1.178   2.919  0.4521  0.4171  0.4110
  485SOL    HW1 1454   2.249   1.137   2.933  0.1050  1.3475  0.4577
  485SOL    HW2 1455   2.402   1.152   2.995  1.6392  1.1921 -1.5638
  486SOL     OW 1456   1.370   2.922   1.659  0.5375 -0.1779 -0.4622
  486SOL    HW1 1457   1.416   3.014   1.660  2.0793  0.2935 -3.2232
  486SOL    HW2 1458   1.324   2.913   1.571 -0.7731 -2.5159  1.7672
  487SOL     OW 1459   0.395   2.214   1.605 -0.6192 -0.1065 -0.3017
  487SOL    HW1 1460   0.451   2.250   1.684  3.1824  1.2114  2.0691
  487SOL    HW2 1461   0.451   2.170   1.532 -0.9619 -0.8302 -0.7857
  488SOL     OW 1462   2.473   2.083   2.747 -0.2563  0.2645  0.5454
  488SOL    HW1 1463   2.454   2.058   2.847 -1.0114  2.7799  1.6885
  488SOL    HW2 1464   2.555   2.145   2.744 -0.9689 -2.3516  1.1474
  489SOL     OW 1465   2.246   0.054   0.636  0.1269  0.3676  0.4059
  489SOL    HW1 1466   2.232   3.044   0.593 -2.5029 -2.8721 -2.9745
  489SOL    HW2 1467   2.349   0.071   0.646 -0.4018  2.7696 -0.5989
  490SOL     OW 1468   1.189   2.200   2.789  0.2442 -0.3723 -0.6937
  490SOL    HW1 1469   1.103   2.169   2.835  2.5238 -2.5037  0.4272
  490SOL    HW2 1470   1.268   2.189   2.852 -1.6413 -0.2483  2.5829
  491SOL     OW 1471   0.365   1.521   1.553  0.0700  0.2371  0.1788
  491SOL    HW1 1472   0.442   1.515   1.488 -1.0197  2.6051 -1.6542
  491SOL    HW2 1473   0.391   1.580   1.630  2.6149  0.0767  0.3980
  492SOL     OW 1474   1.309   1.274   1.861 -0.0477 -0.2986  0.3677
  492SOL    HW1 1475   1.283   1.297   1.764  0.0901  2.2165 -1.2363
  492SOL    HW2 1476   1.280   1.346   1.927 -1.2092 -1.2247 -0.5539
  493SOL     OW 1477   2.243   1.832   0.889  0.0439 -0.1171  0.0699
  493SOL    HW1 1478   2.223   1.740   0.849  0.5189 -2.1837 -3.8792
  493SOL    HW2 1479   2.318   1.821   0.953  0.2050 -0.4366 -0.2314
  494SOL     OW 1480   0.344   1.727   1.019 -0.3517  0.2548 -0.0292
  494SOL    HW1 1481   0.379   1.637   0.986  0.7347 -0.7889 -1.7097
  494SOL    HW2 1482   0.299   1.778   0.940 -0.0909  0.3035  0.5424
  495SOL     OW 1483   2.303   2.789   0.911 -0.2506  0.0219  0.0015
  495SOL    HW1 1484   2.343   2.786   0.818 -2.1086  2.0374  3.3253
  495SOL    HW2 1485   2.284   2.694   0.943  0.6942 -0.8967  1.7942
  496SOL     OW 1486   2.471   3.024   1.578 -0.4220 -0.0924 -0.2723
  496SOL    HW1 1487   2.539   0.016   1.564  0.9814  0.1518  0.8422
  496SOL    HW2 1488   2.405   3.056   1.649  0.9106 -0.3279 -2.3577
  497SOL     OW 1489   2.409   0.864   2.610 -0.2760  0.1336  1.0838
  497SOL    HW1 1490   2.455   0.945   2.649  1.0471 -3.2781 -1.9489
  497SOL    HW2 1491   2.312   0.896   2.584 -0.5305  1.2874  2.4902
  498SOL     OW 1492   2.928   2.262   1.475  0.2981  0.4535 -0.1328
  498SOL    HW1 1493   2.969   2.176   1.424  1.2724 -4.0806 -2.0497
  498SOL    HW2 1494   2.834   2.245   1.514  2.5409  0.4995 -2.0989
  499SOL     OW 1495   0.966   2.297   2.011  0.3501 -0.3666  0.0572
  499SOL    HW1 1496   0.871   2.327   2.020 -1.1003 -2.0108 -0.0163
  499SOL    HW2 1497   1.028   2.373   1.989 -3.0578 -0.9891  1.4546
  500SOL     OW 1498   1.257   2.151   0.474  0.3911  0.5939  0.3086
  500SOL    HW1 1499   1.203   2.236   0.446 -1.9239 -1.6549 -1.5800
  500SOL    HW2 1500   1.300   2.105   0.392  0.0871 -0.2579  1.0301
  501SOL     OW 1501   1.686   2.972   1.470  0.0793  0.0681  0.3958
  501SOL    HW1 1502   1.652   2.984   1.372  1.7004  3.6633 -1.0783
  501SOL    HW2 1503   1.690   2.872   1.498 -1.2095 -0.0260  0.7926
  502SOL     OW 1504   2.388   0.756   1.898 -0.4568 -0.2919  0.1485
  502SOL    HW1 1505   2.292   0.744   1.872  0.3146  2.7527  1.0324
  502SOL    HW2 1506   2.424   0.681   1.959  0.2839 -2.1175 -1.1104
  503SOL     OW 1507   2.648   1.225   2.253  0.6000 -0.7212 -0.0258
  503SOL    HW1 1508   2.718   1.300   2.266  0.4842 -1.2946 -2.5437
  503SOL    HW2 1509   2.586   1.240   2.172  0.3351  1.2946 -1.7860
  504SOL     OW 1510   1.530   0.954   1.309  0.2282 -0.6149 -0.2905
  504SOL    HW1 1511   1.561   0.871   1.362 -0.2990  0.2428 -0.5441
  504SOL    HW2 1512   1.557   0.949   1.210  1.1880  0.7402  1.1246
  505SOL     OW 1513   0.543   2.927   1.355 -0.3064  0.3124 -0.4696
  505SOL    HW1 1514   0.645   2.949   1.357  3.4501 -1.4123  3.3171
  505SOL    HW2 1515   0.488   3.004   1.395  2.8066  3.2943  2.4165
  506SOL     OW 1516   0.010   0.193   0.227 -0.1074  0.5399 -0.3619
  506SOL    HW1 1517   3.054   0.279   0.191  3.0955 -0.8381  1.4517
  506SOL    HW2 1518   0.103   0.194   0.188  1.0809  0.5756 -1.7467
  507SOL     OW 1519   2.561   2.601   2.984 -0.2593 -0.0063  0.0889
  507SOL    HW1 1520   2.544   2.569   2.889  0.0758 -0.6128 -1.7255
  507SOL    HW2 1521   2.640   2.552   3.028  1.8453 -0.7641  0.3965
  508SOL     OW 1522   1.034   0.356   2.067 -0.2351 -0.1848 -0.2518
  508SOL    HW1 1523   1.039   0.372   1.968  0.3541 -2.6466  3.4178
  508SOL    HW2 1524   1.090   0.272   2.095 -0.9876 -1.8919  0.6908
  509SOL     OW 1525   1.726   1.819   1.237  0.3803 -0.6503 -0.5052
  509SOL    HW1 1526   1.710   1.824   1.334 -1.6036  0.9784 -1.0447
  509SOL    HW2 1527   1.646   1.859   1.185  0.7247  2.1595 -2.7192
  510SOL     OW 1528   2.503   0.885   1.478  0.0528  0.0177 -0.8819
  510SOL    HW1 1529   2.519   0.800   1.533 -2.0943  1.8857  2.3861
  510SOL    HW2 1530   2.422   0.868   1.420  0.8104  2.7570 -0.5021
  511SOL     OW 1531   1.334   1.955   1.311  0.3160 -0.5366  0.5500
  511SOL    HW1 1532   1.397   2.032   1.337 -0.3180  2.2518 -2.6141
  511SOL    HW2 1533   1.329   1.888   1.384 -0.2066 -1.4097 -2.0524
  512SOL     OW 1534   2.838   1.408   0.766  0.0822 -0.0089 -0.1393
  512SOL    HW1 1535   2.886   1.417   0.858  0.4607  0.8543  3.8158
  512SOL    HW2 1536   2.837   1.496   0.711 -0.2062  1.0404 -3.2608
  513SOL     OW 1537   0.110   1.565   0.084 -0.3721  0.3163  0.0544
  513SOL    HW1 1538   0.164   1.542   0.001  2.2099 -1.2706  2.1260
  513SOL    HW2 1539   0.034   1.499   0.088 -0.5779 -0.8468 -0.0161
  514SOL     OW 1540   2.561   2.132   2.100 -0.6153  0.1665  0.4357
  514SOL    HW1 1541   2.567   2.224   2.135 -0.8300 -1.3214 -3.1721
  514SOL    HW2 1542   2.505   2.118   2.018  1.9516 -1.2301  1.5090
  515SOL     OW 1543   2.154   0.833   0.703  0.1147 -0.2797 -0.2783
  515SOL    HW1 1544   2.163   0.849   0.805  3.2572 -1.5617 -0.8842
  515SOL    HW2 1545   2.239   0.869   0.662 -1.8752 -3.2910  1.1139
  516SOL     OW 1546   2.369   2.802   0.126  0.3687 -0.4675 -0.6469
  516SOL    HW1 1547   2.416   2.860   0.059  1.6457  1.4422  0.6851
  516SOL    HW2 1548   2.298   2.749   0.075 -1.1374 -1.0134  2.1268
  517SOL     OW 1549   0.906   1.569   2.508 -0.0914  0.8700 -0.0845
  517SOL    HW1 1550   0.942   1.470   2.491 -0.5081  1.2758  1.3670
  517SOL    HW2 1551   0.951   1.630   2.439  0.3817 -5.3103 -0.6858
  518SOL     OW 1552   0.188   0.257   2.145  0.2480 -0.1747  0.6569
  518SOL    HW1 1553   0.158   0.166   2.116 -2.6837  0.1330  1.1076
  518SOL    HW2 1554   0.160   0.272   2.240  0.5189 -2.5668 -2.0672
  519SOL     OW 1555   0.693   1.247   3.035 -0.0985  0.1079 -0.1806
  519SOL    HW1 1556   0.764   1.241   2.963  2.3847 -0.2562  0.2028
  519SOL    HW2 1557   0.733   1.238   0.047  1.1014 -2.0023  0.1002
  520SOL     OW 1558   2.969   2.362   1.994  0.2195 -0.1575  0.2781
  520SOL    HW1 1559   2.909   2.289   2.035 -1.5154 -0.4364 -1.2542
  520SOL    HW2 1560   3.029   2.390   2.069  1.7113  0.9863 -2.8869
  521SOL     OW 1561   0.555   2.109   2.145  0.2087 -0.7056 -0.2437
  521SOL    HW1 1562   0.587   2.024   2.190  3.3873 -1.2594 -0.4343
  521SOL    HW2 1563   0.526   2.095   2.053  2.0460  1.4406  5.9629
  522SOL     OW 1564   1.688   2.851   1.897 -0.4440  0.2324  0.2526
  522SOL    HW1 1565   1.669   2.887   1.990 -0.0673  1.3897 -0.7762
  522SOL    HW2 1566   1.599   2.811   1.858 -0.5860  0.2223 -2.1516
  523SOL     OW 1567   2.013   1.996   1.637 -0.7869 -0.5494  0.0213
  523SOL    HW1 1568   2.111   2.024   1.615  3.0414 -0.5283 -0.5315
  523SOL    HW2 1569   1.994   1.906   1.592  0.5616 -0.7390 -0.7581
  524SOL     OW 1570   0.659   2.792   0.457 -0.2845  0.4916  0.2183
  524SOL    HW1 1571   0.567   2.774   0.421  2.2538 -1.6569  0.9812
  524SOL    HW2 1572   0.656   2.778   0.560 -2.1727  2.1259  0.0406
  525SOL     OW 1573   0.115   0.324   0.449  0.5292 -0.5561 -0.3355
  525SOL    HW1 1574   0.037   0.298   0.392 -1.8832  0.4142  0.8679
  525SOL    HW2 1575   0.122   0.266   0.535  0.3760 -0.3068  1.9978
  526SOL     OW 1576   1.019   3.082   0.521  0.0512  0.3738 -0.3584
  526SOL    HW1 1577   0.931   3.046   0.483 -0.2823  0.5817  0.5117
  526SOL    HW2 1578   1.028   3.045   0.618  1.2538 -2.9918 -0.2179
  527SOL     OW 1579   1.911   1.667   1.080  0.3687 -0.0024 -0.1353
  527SOL    HW1 1580   1.966   1.602   1.134  0.6534  0.8997 -0.5053
  527SOL    HW2 1581   1.842   1.716   1.135  0.0127  0.0647 -2.1810
  528SOL     OW 1582   2.730   2.586   2.319  0.1887 -0.2264  0.1227
  528SOL    HW1 1583   2.627   2.595   2.311 -2.5401  0.2957  0.1274
  528SOL    HW2 1584   2.780   2.667   2.272  0.9075  0.9937 -0.7581
  529SOL     OW 1585   1.239   1.702   2.220  0.3987  0.1030  0.2113
  529SOL    HW1 1586   1.231   1.772   2.146  0.7465 -3.4736  0.1510
  529SOL    HW2 1587   1.156   1.707   2.278 -0.0210 -1.2570  0.4765
  530SOL     OW 1588   1.439   0.960   0.007  0.5201 -0.6082 -0.6582
  530SOL    HW1 1589   1.534   0.985   0.035 -2.1032  2.3334  0.9481
  530SOL    HW2 1590   1.411   1.007   3.003  0.3190 -0.2783 -2.5823
  531SOL     OW 1591   0.344   1.024   3.081  0.0359  0.1821 -0.1611
  531SOL    HW1 1592   0.382   0.975   2.997  1.7879  1.0418 -0.2784
  531SOL    HW2 1593   0.248   1.063   3.055  0.1052  0.8783 -0.9707
  532SOL     OW 1594   1.789   1.262   0.756 -0.6330 -0.5629 -0.2286
  532SOL    HW1 1595   1.832   1.186   0.806 -0.2379  1.0567 -0.4342
  532SOL    HW2 1596   1.814   1.257   0.656 -0.1581 -0.6387 -0.9889
  533SOL     OW 1597   0.586   0.086   2.393  0.1634 -0.0040  0.1791
  533SOL    HW1 1598   0.502   0.136   2.426  0.1143  2.2119  1.7677
  533SOL    HW2 1599   0.622   0.013   2.458 -0.0463 -0.9787  0.0825
  534SOL     OW 1600   0.907   2.753   3.016 -0.1277  0.1416 -0.2257
  534SOL    HW1 1601   0.920   2.711   0.025  0.2609  0.6279 -0.4984
  534SOL    HW2 1602   0.882   2.851   3.016 -0.6485 -1.0854  0.7036
  535SOL     OW 1603   0.249   0.196   0.091 -0.3760  0.1928  0.1075
  535SOL    HW1 1604   0.297   0.282   0.061 -0.4697  1.9042  1.9923
  535SOL    HW2 1605   0.269   0.123   0.022  1.3361  1.5845 -0.0958
  536SOL     OW 1606   0.168   0.821   2.252 -0.6044 -0.7261  0.1805
  536SOL    HW1 1607   0.212   0.907   2.283  2.5583  1.4556 -0.4843
  536SOL    HW2 1608   0.245   0.750   2.248  1.1367 -0.4411  0.4519
  537SOL     OW 1609   0.964   0.346   1.476  0.2037 -0.2663 -0.1028
  537SOL    HW1 1610   0.876   0.323   1.518 -1.0372 -1.7459  0.9781
  537SOL    HW2 1611   0.968   0.443   1.444 -1.5459 -2.8056 -0.3446
  538SOL     OW 1612   0.814   1.911   0.309  0.1431 -0.2715 -0.5577
  538SOL    HW1 1613   0.862   1.999   0.335  1.4143  0.2785  0.3550
  538SOL    HW2 1614   0.874   1.831   0.341  2.0290 -0.3739  0.6430
  539SOL     OW 1615   2.478   1.243   2.035 -0.0068  0.0060 -0.0098
  539SOL    HW1 1616   2.522   1.159   2.002  0.2619  2.4233 -0.9181
  539SOL    HW2 1617   2.477   1.319   1.968  0.1922  0.1388  2.6220
  540SOL     OW 1618   2.058   1.602   2.007  0.2165  0.1381 -0.4677
  540SOL    HW1 1619   2.038   1.505   1.992 -0.5439 -2.6892 -2.7268
  540SOL    HW2 1620   2.007   1.643   2.089  1.1599  0.7276 -1.6455
  541SOL     OW 1621   0.669   1.349   1.442  0.4204 -0.3463 -0.2513
  541SOL    HW1 1622   0.752   1.292   1.447  0.3654  0.5134  1.9090
  541SOL    HW2 1623   0.628   1.336   1.350  3.2863 -0.9324  0.5455
  542SOL     OW 1624   1.565   0.630   2.092 -0.5703 -0.0456  0.2143
  542SOL    HW1 1625   1.662   0.644   2.125  2.2929  1.5206  1.9739
  542SOL    HW2 1626   1.559   0.579   2.002  1.9528 -0.8636 -0.4960
  543SOL     OW 1627   1.094   0.543   0.182 -0.5792  0.3141  0.2981
  543SOL    HW1 1628   1.168   0.479   0.208 -2.5185 -1.3868 -1.3939
  543SOL    HW2 1629   1.000   0.510   0.205  0.6928 -0.7000 -2.5018
  544SOL     OW 1630   2.823   1.751   2.018  0.5014 -0.2981  0.2328
  544SOL    HW1 1631   2.780   1.800   2.094  2.9715  0.6629 -3.5724
  544SOL    HW2 1632   2.927   1.768   2.018  1.5204  0.5511 -0.9440
  545SOL     OW 1633   1.795   2.110   1.761 -0.6459  0.0350  0.5841
  545SOL    HW1 1634   1.864   2.067   1.702 -0.5848  0.2236 -0.3331
  545SOL    HW2 1635   1.833   2.187   1.817 -2.6506  0.4106 -1.9605
  546SOL     OW 1636   0.336   0.067   2.956 -0.6298 -0.0524 -0.1289
  546SOL    HW1 1637   0.340   0.151   2.897 -1.0940  0.0345 -0.5903
  546SOL    HW2 1638   0.292   3.074   2.901  2.3995  0.9259 -1.4201
  547SOL     OW 1639   2.215   0.962   0.331  0.4243  0.2719  0.4865
  547SOL    HW1 1640   2.221   0.938   0.231  1.3822 -2.2366 -2.0445
  547SOL    HW2 1641   2.128   1.015   0.342 -0.2141  2.7398 -0.3157
  548SOL     OW 1642   2.171   1.738   2.592 -0.2745 -0.3851 -0.5016
  548SOL    HW1 1643   2.093   1.699   2.540  0.7176  1.7401  0.0799
  548SOL    HW2 1644   2.244   1.670   2.609 -1.0642  1.4338 -0.6678
  549SOL     OW 1645   1.996   0.379   0.718 -0.2862 -0.2121 -0.4428
  549SOL    HW1 1646   2.048   0.348   0.634  0.4876 -3.7558 -0.1430
  549SOL    HW2 1647   1.902   0.412   0.691  0.1720 -1.2166 -3.1742
  550SOL     OW 1648   2.503   2.182   0.881 -0.3981  0.4163  0.2778
  550SOL    HW1 1649   2.527   2.113   0.952 -0.4753  2.3996 -1.0268
  550SOL    HW2 1650   2.420   2.153   0.835 -2.4207  0.4117  1.0236
  551SOL     OW 1651   0.999   0.398   1.781 -0.6991 -0.1838  0.5311
  551SOL    HW1 1652   1.049   0.371   1.697 -2.4342  0.5711  0.4678
  551SOL    HW2 1653   0.908   0.433   1.756  0.3960  1.1714 -0.8161
  552SOL     OW 1654   0.331   2.478   2.397  0.1394 -0.5350  0.0441
  552SOL    HW1 1655   0.251   2.497   2.449  1.2966 -0.4450  1.0526
  552SOL    HW2 1656   0.404   2.432   2.454 -0.0274 -0.5128 -0.3453
  553SOL     OW 1657   0.753   3.048   0.446  0.0840  0.4685 -0.0463
  553SOL    HW1 1658   0.704   0.016   0.371  0.0707  0.5221 -2.0784
  553SOL    HW2 1659   0.717   2.948   0.447 -2.3307 -0.2771 -0.2008
  554SOL     OW 1660   2.077   2.291   1.715 -0.3728  0.8610  0.2318
  554SOL    HW1 1661   2.122   2.202   1.697 -2.2520 -1.1487 -0.7317
  554SOL    HW2 1662   2.017   2.324   1.643 -0.7321 -1.5471  0.7231
  555SOL     OW 1663   1.437   2.187   1.863  0.0037 -0.1382  0.4505
  555SOL    HW1 1664   1.414   2.087   1.858  0.3762 -0.5098 -1.1666
  555SOL    HW2 1665   1.498   2.208   1.940  2.3267  0.7271 -0.7055
  556SOL     OW 1666   1.335   1.559   1.207  0.6072 -1.0170 -0.3313
  556SOL    HW1 1667   1.276   1.637   1.173 -0.0628 -1.5841 -1.1366
  556SOL    HW2 1668   1.370   1.511   1.127 -2.4173 -0.5252 -0.2312
  557SOL     OW 1669   1.917   2.298   1.970 -0.2421  0.3093  0.6488
  557SOL    HW1 1670   1.980   2.290   1.892  1.7604  2.0745  1.1423
  557SOL    HW2 1671   1.967   2.325   2.057  0.8476 -0.7754 -0.5240
  558SOL     OW 1672   0.325   0.347   1.887  0.0231  0.6176 -0.1134
  558SOL    HW1 1673   0.273   0.318   1.969 -1.4855  1.3775 -0.0970
  558SOL    HW2 1674   0.347   0.447   1.901  2.3201 -1.6192  1.2218
  559SOL     OW 1675   2.401   3.053   1.320  0.1162  0.0155  0.1879
  559SOL    HW1 1676   2.440   3.032   1.415 -2.3428  2.0130  1.0077
  559SOL    HW2 1677   2.314   0.026   1.334 -0.2458  0.6548 -0.1302
  560SOL     OW 1678   1.099   2.368   0.433 -0.0569  0.6781  0.3599
  560SOL    HW1 1679   1.028   2.388   0.506  2.0532  1.0566 -0.2135
  560SOL    HW2 1680   1.149   2.458   0.419  2.1897 -0.6258 -2.0987
  561SOL     OW 1681   1.112   0.279   0.008 -0.8637 -0.0687 -0.4957
  561SOL    HW1 1682   1.139   0.330   3.004 -3.0268  1.0386 -3.1599
  561SOL    HW2 1683   1.171   0.313   0.083  3.6520 -0.4473 -3.5003
  562SOL     OW 1684   0.802   0.397   2.724 -0.0563  0.0854  0.2661
  562SOL    HW1 1685   0.880   0.338   2.688 -1.0881 -1.1893 -1.3385
  562SOL    HW2 1686   0.836   0.484   2.766  1.2170  0.6037  0.1618
  563SOL     OW 1687   1.623   1.917   2.753  0.0012  0.1559  0.5468
  563SOL    HW1 1688   1.718   1.926   2.781  0.6667 -0.8355  1.2399
  563SOL    HW2 1689   1.599   1.999   2.694  0.2738  2.5116 -0.3564
  564SOL     OW 1690   2.773   1.082   0.855  0.4241 -0.0334  0.2521
  564SOL    HW1 1691   2.762   0.983   0.883 -1.4966  1.2836  1.2672
  564SOL    HW2 1692   2.871   1.108   0.847  2.5738 -0.8932 -1.9339
  565SOL     OW 1693   1.404   0.271   2.514  0.2690 -0.0000 -0.0178
  565SOL    HW1 1694   1.383   0.219   2.600  1.3100 -2.5765  1.8764
  565SOL    HW2 1695   1.372   0.367   2.527  1.7368  1.3501  2.3888
  566SOL     OW 1696   1.297   0.340   2.276 -0.0481 -0.1441 -0.0008
  566SOL    HW1 1697   1.352   0.314   2.355  0.3631  0.4070 -0.9016
  566SOL    HW2 1698   1.297   0.270   2.200  1.9450  4.8224  0.8458
  567SOL     OW 1699   2.596   1.274   0.774 -0.1547 -0.3290 -0.1147
  567SOL    HW1 1700   2.640   1.190   0.800 -0.0807  1.8005  1.9493
  567SOL    HW2 1701   2.669   1.343   0.772  0.0538  0.8257  0.4890
  568SOL     OW 1702   1.702   2.021   0.547 -0.3246  0.3002  0.3861
  568SOL    HW1 1703   1.754   2.028   0.463 -2.1911 -1.2196 -1.1313
  568SOL    HW2 1704   1.641   1.937   0.550  0.7066 -1.9822 -1.7145
  569SOL     OW 1705   2.007   1.585   2.800  0.1958 -0.2081 -0.4124
  569SOL    HW1 1706   1.975   1.507   2.745  0.8468 -0.5929  0.2527
  569SOL    HW2 1707   2.091   1.628   2.763  1.0845 -3.1091 -1.2870
  570SOL     OW 1708   0.153   2.989   1.619 -0.0744 -1.0368 -0.3935
  570SOL    HW1 1709   0.229   3.040   1.576  1.3363  4.3235 -0.3423
  570SOL    HW2 1710   0.076   3.055   1.650 -0.5590  1.7942 -0.6285
  571SOL     OW 1711   0.100   0.268   2.407 -1.0600 -0.4339 -0.6792
  571SOL    HW1 1712   0.023   0.334   2.408 -2.4203  1.2832  0.7264
  571SOL    HW2 1713   0.170   0.292   2.479 -0.7270 -0.0184  0.2268
  572SOL     OW 1714   0.759   1.477   0.568 -0.0839  0.0981 -0.4263
  572SOL    HW1 1715   0.692   1.494   0.496  1.4872 -1.5642  4.1231
  572SOL    HW2 1716   0.834   1.541   0.567 -0.9958 -0.9832 -1.3769
  573SOL     OW 1717   1.223   2.612   0.146  0.0980 -0.4250 -0.3080
  573SOL    HW1 1718   1.322   2.608   0.124  1.8614  0.2361  3.1113
  573SOL    HW2 1719   1.208   2.630   0.242  0.7877 -1.4772  0.0819
  574SOL     OW 1720   0.904   0.098   0.899  0.4598 -0.0206  0.0637
  574SOL    HW1 1721   0.896   0.116   0.999  1.0254  1.9401  1.5552
  574SOL    HW2 1722   0.959   0.014   0.883 -0.5777 -2.4889  0.7139
  575SOL     OW 1723   0.011   0.937   1.686 -0.0223  0.1683 -0.0944
  575SOL    HW1 1724   3.012   0.891   1.637 -2.0514 -2.0038  1.9695
  575SOL    HW2 1725   3.061   1.021   1.736 -0.7171 -2.4652  0.2122
  576SOL     OW 1726   1.634   0.255   1.342  0.4613  0.3618  0.0229
  576SOL    HW1 1727   1.689   0.174   1.308 -1.0130 -2.5774 -0.5171
  576SOL    HW2 1728   1.554   0.277   1.279 -1.2343  2.5350 -1.1901
  577SOL     OW 1729   3.060   1.192   2.081 -0.4265  0.3369 -0.5640
  577SOL    HW1 1730   2.996   1.117   2.105  1.6099  0.6283  2.6798
  577SOL    HW2 1731   0.071   1.158   2.075 -4.1235 -1.9889  0.8987
  578SOL     OW 1732   1.783   0.034   2.353 -0.0569 -0.2706 -0.7192
  578SOL    HW1 1733   1.748   0.128   2.357 -0.3255 -2.3663 -0.7788
  578SOL    HW2 1734   1.794   0.001   2.450 -1.1699 -0.9195  3.7018
  579SOL     OW 1735   2.124   1.995   1.943 -0.3151  0.8528  0.9720
  579SOL    HW1 1736   2.207   2.053   1.951 -0.5264  0.6659  1.8352
  579SOL    HW2 1737   2.074   2.013   2.027 -0.8010  1.1523 -2.2695
  580SOL     OW 1738   1.991   1.648   2.392  0.0474 -0.2966  0.0632
  580SOL    HW1 1739   1.967   1.706   2.314  1.6467  0.3068  0.6721
  580SOL    HW2 1740   1.939   1.557   2.388 -3.5476 -1.8731 -3.4770
  581SOL     OW 1741   1.405   1.095   2.844  0.0249  0.0552 -0.2589
  581SOL    HW1 1742   1.394   1.030   2.766  0.3518  0.5687 -0.2593
  581SOL    HW2 1743   1.474   1.170   2.825  0.3153  0.4505 -0.9172
  582SOL     OW 1744   0.824   2.163   1.340 -0.2223 -0.0559  0.8161
  582SOL    HW1 1745   0.770   2.099   1.397  0.9516  2.1417  1.1268
  582SOL    HW2 1746   0.901   2.124   1.289  3.1821  1.5967  1.3619
  583SOL     OW 1747   1.264   1.179   1.183  0.2618 -0.0306  0.8259
  583SOL    HW1 1748   1.257   1.084   1.150  0.6129 -1.3932  2.3413
  583SOL    HW2 1749   1.323   1.236   1.119  2.4574 -0.8731 -0.5566
  584SOL     OW 1750   1.610   2.466   0.677  0.3106  0.1363 -0.0533
  584SOL    HW1 1751   1.559   2.385   0.635 -1.0382 -0.1227 -1.7157
  584SOL    HW2 1752   1.549   2.518   0.742 -1.7966  0.9614 -0.5272
  585SOL     OW 1753   2.343   2.504   0.019  0.2621  0.0806  0.2222
  585SOL    HW1 1754   2.429   2.520   3.051 -1.7440 -1.1944 -0.5312
  585SOL    HW2 1755   2.269   2.571   3.080  1.0863 -1.5952 -1.6318
  586SOL     OW 1756   2.766   2.005   0.512  0.0839  0.3482  0.0182
  586SOL    HW1 1757   2.713   1.932   0.559  2.1716  3.4255 -1.8253
  586SOL    HW2 1758   2.748   2.095   0.555  0.9584 -1.9818 -0.8459
  587SOL     OW 1759   1.141   1.662   3.031  0.1565 -0.0237  0.1029
  587SOL    HW1 1760   1.229   1.622   3.003  0.5652  0.6945  0.1324
  587SOL    HW2 1761   1.067   1.595   3.054 -1.4106  0.3841  0.6497
  588SOL     OW 1762   0.582   0.145   1.163  0.6590  0.0371  0.1162
  588SOL    HW1 1763   0.651   0.147   1.237  0.4537  0.1917 -1.1575
  588SOL    HW2 1764   0.491   0.181   1.197 -1.0820  1.0957  2.0112
  589SOL     OW 1765   1.062   0.432   0.547  0.0673  0.2120  0.0998
  589SOL    HW1 1766   1.005   0.381   0.480  2.6475 -1.0365 -3.2908
  589SOL    HW2 1767   1.092   0.361   0.612 -1.1810 -1.6425 -0.3803
  590SOL     OW 1768   2.228   2.251   3.065 -0.3683 -0.1592  0.6965
  590SOL    HW1 1769   2.176   2.260   0.068  0.2865 -4.3224 -0.2072
  590SOL    HW2 1770   2.292   2.333   3.054  2.2999 -0.4418 -0.1859
  591SOL     OW 1771   0.227   2.791   2.128  0.1002  0.1168  0.4006
  591SOL    HW1 1772   0.237   2.885   2.088 -0.3880  0.5499 -1.5799
  591SOL    HW2 1773   0.205   2.727   2.050 -0.3672  0.2240 -0.4846
  592SOL     OW 1774   0.012   1.448   2.179  0.2364 -0.1942 -0.1443
  592SOL    HW1 1775   0.013   1.346   2.153 -1.5370  1.1925  2.0243
  592SOL    HW2 1776   0.070   1.503   2.116 -0.4116  2.4197 -0.8565
  593SOL     OW 1777   1.852   1.351   1.151 -0.6516 -0.0164 -0.3884
  593SOL    HW1 1778   1.910   1.399   1.219  1.6965  1.4287  1.3191
  593SOL    HW2 1779   1.773   1.306   1.197 -2.2594  1.9959  1.6238
  594SOL     OW 1780   3.027   1.320   2.824  0.4007 -0.1821  0.3754
  594SOL    HW1 1781   3.080   1.395   2.875 -1.4113 -0.2175  3.8734
  594SOL    HW2 1782   0.002   1.262   2.754  1.9795 -2.0348 -1.8449
  595SOL     OW 1783   0.815   1.043   0.723 -0.3328 -0.7408  0.7077
  595SOL    HW1 1784   0.723   1.058   0.765 -1.5716 -2.6085  0.2504
  595SOL    HW2 1785   0.856   1.119   0.664  2.9085  0.6957 -1.6968
  596SOL     OW 1786   2.936   1.342   1.382  0.3131 -0.6620  0.2533
  596SOL    HW1 1787   2.927   1.345   1.276 -0.0080  1.7360 -1.4407
  596SOL    HW2 1788   3.024   1.383   1.415 -0.0966  1.4289 -0.0397
  597SOL     OW 1789   0.961   2.301   1.532 -0.3870 -0.1911  0.2121
  597SOL    HW1 1790   0.914   2.239   1.472  3.7285  2.0514  0.6326
  597SOL    HW2 1791   1.018   2.248   1.599  1.0578  2.4041 -2.9451
  598SOL     OW 1792   2.293   2.487   1.698  0.2944 -0.4110 -0.4453
  598SOL    HW1 1793   2.235   2.407   1.729  0.2784 -1.4111 -0.6162
  598SOL    HW2 1794   2.372   2.449   1.648  0.0520 -0.0005  0.9291
  599SOL     OW 1795   0.438   1.276   2.983 -0.1783  0.0967  0.1456
  599SOL    HW1 1796   0.534   1.286   3.013  0.9637 -0.8081 -6.2232
  599SOL    HW2 1797   0.405   1.189   3.023 -0.1021  2.1581  0.0371
  600SOL     OW 1798   0.874   0.919   2.912  0.0511 -0.6694 -0.0449
  600SOL    HW1 1799   0.872   0.926   3.013 -1.0109 -1.7165  1.9192
  600SOL    HW2 1800   0.959   0.957   2.873 -1.0789  0.3939 -1.3497
  601SOL     OW 1801   0.637   0.665   1.631 -0.6207  0.6886  0.3863
  601SOL    HW1 1802   0.610   0.763   1.611 -1.2901  1.6673  1.4517
  601SOL    HW2 1803   0.644   0.641   1.731  0.3074 -1.4719 -0.1894
  602SOL     OW 1804   0.409   2.487   0.628 -0.0515  0.0505 -0.0501
  602SOL    HW1 1805   0.458   2.435   0.703  2.8136 -0.2201  1.6171
  602SOL    HW2 1806   0.329   2.435   0.590 -1.8984 -0.7482 -0.9263
  603SOL     OW 1807   1.063   2.586   2.001 -0.2645 -0.5885 -0.0730
  603SOL    HW1 1808   0.973   2.636   1.995  1.8879  2.0315 -0.9856
  603SOL    HW2 1809   1.100   2.584   2.098  2.1136 -0.6354  3.2690
  604SOL     OW 1810   0.407   2.282   2.914  0.0587 -0.2739 -0.5089
  604SOL    HW1 1811   0.420   2.219   2.836 -1.2015 -1.4527 -1.9265
  604SOL    HW2 1812   0.307   2.293   2.927  0.0117 -2.5884  0.5725
  605SOL     OW 1813   2.017   1.157   1.704  0.1176  0.0270 -0.5916
  605SOL    HW1 1814   1.949   1.146   1.631 -0.1631 -0.3900 -1.6743
  605SOL    HW2 1815   2.047   1.251   1.709 -0.7780 -2.2903 -1.0086
  606SOL     OW 1816   0.651   1.019   2.780  0.2025 -0.3694  0.4777
  606SOL    HW1 1817   0.680   1.109   2.740 -2.2883 -2.7243  0.4006
  606SOL    HW2 1818   0.727   0.969   2.816 -3.2987  0.2252 -0.4720
  607SOL     OW 1819   1.169   0.906   1.131 -0.1782  0.1583 -0.0052
  607SOL    HW1 1820   1.217   0.890   1.220 -2.3326 -1.4267  1.5307
  607SOL    HW2 1821   1.073   0.932   1.147 -1.6369 -2.0175 -0.1340
  608SOL     OW 1822   2.835   1.651   1.751 -0.0686 -0.2362 -0.2931
  608SOL    HW1 1823   2.868   1.712   1.827 -1.4457 -0.2497 -1.7746
  608SOL    HW2 1824   2.769   1.699   1.688 -0.9067 -0.6392  3.9985
  609SOL     OW 1825   2.392   0.192   0.305 -0.7392  0.0271  0.1318
  609SOL    HW1 1826   2.476   0.170   0.243  0.9164  2.2737 -0.1322
  609SOL    HW2 1827   2.320   0.122   0.289  0.8177 -0.7161  2.1547
  610SOL     OW 1828   2.999   2.661   1.370  0.1413 -0.6633  0.0168
  610SOL    HW1 1829   2.997   2.728   1.296 -0.9258  1.2472  1.3381
  610SOL    HW2 1830   2.986   2.566   1.337  1.2394  2.3852  1.6376
  611SOL     OW 1831   1.733   2.288   0.347  0.1291 -0.1002  0.1155
  611SOL    HW1 1832   1.742   2.212   0.278  0.3051 -0.4336  0.2088
  611SOL    HW2 1833   1.668   2.254   0.414 -0.9892 -0.6689 -0.1554
  612SOL     OW 1834   0.641   3.061   1.748  0.0483 -0.0490  0.7264
  612SOL    HW1 1835   0.719   3.001   1.714 -0.3286 -1.5896 -0.3707
  612SOL    HW2 1836   0.679   0.072   1.771 -0.4094 -1.7115  0.4306
  613SOL     OW 1837   3.052   1.939   0.551 -0.5505 -0.7468 -0.3077
  613SOL    HW1 1838   0.009   2.030   0.534 -0.2803 -0.4935  1.2306
  613SOL    HW2 1839   2.951   1.940   0.535  1.9943 -1.7822  0.2037
  614SOL     OW 1840   1.675   0.379   1.665 -0.3755 -0.2910  0.0612
  614SOL    HW1 1841   1.765   0.429   1.679  2.4417  2.6228  0.4580
  614SOL    HW2 1842   1.685   0.325   1.576  2.2657 -0.1814 -3.8103
  615SOL     OW 1843   1.192   1.462   0.939 -0.3775 -0.5315  0.4724
  615SOL    HW1 1844   1.227   1.556   0.925  0.8024 -0.4977  0.3567
  615SOL    HW2 1845   1.255   1.397   0.983 -2.0179  1.4813  1.7360
  616SOL     OW 1846   1.760   1.719   0.445  0.3328  0.3997  0.1058
  616SOL    HW1 1847   1.832   1.786   0.429 -0.3367 -1.5399 -1.4524
  616SOL    HW2 1848   1.706   1.711   0.357 -0.1445 -0.4989 -0.9512
  617SOL     OW 1849   1.389   0.687   0.035  0.8610 -0.6130  0.2421
  617SOL    HW1 1850   1.403   0.674   0.131 -0.1920  0.9981 -0.7568
  617SOL    HW2 1851   1.416   0.783   0.015 -2.0851  0.0893  1.1467
  618SOL     OW 1852   0.580   0.712   2.448  0.2464  0.3059  0.4504
  618SOL    HW1 1853   0.667   0.661   2.435  1.0529  0.9226 -1.3800
  618SOL    HW2 1854   0.595   0.814   2.440  0.2817 -2.2623 -2.0563
  619SOL     OW 1855   2.897   1.722   1.214 -0.0166 -0.1103 -0.9560
  619SOL    HW1 1856   2.999   1.721   1.202  1.0391 -0.7913 -3.1850
  619SOL    HW2 1857   2.855   1.711   1.123 -2.0177 -0.3959  2.5619
  620SOL     OW 1858   2.181   2.690   2.532  0.2396 -0.3362 -0.0698
  620SOL    HW1 1859   2.277   2.707   2.564 -2.7133 -0.5082 -4.6549
  620SOL    HW2 1860   2.119   2.756   2.572  0.8195 -0.1609  0.6487
  621SOL     OW 1861   2.935   2.038   0.064 -0.4143  0.3526  0.2734
  621SOL    HW1 1862   2.895   2.060   0.155  0.0064  1.5529  1.3191
  621SOL    HW2 1863   3.027   2.002   0.070 -2.2914  0.4884 -0.6087
  622SOL     OW 1864   1.421   0.059   2.075 -0.6603  0.3402  0.2306
  622SOL    HW1 1865   1.449   0.066   2.174 -0.9873 -3.2936 -0.2344
  622SOL    HW2 1866   1.501   0.058   2.008  0.7494 -1.2809 -2.8671
  623SOL     OW 1867   0.621   2.327   1.039 -0.2628 -0.2413  0.7147
  623SOL    HW1 1868   0.575   2.392   1.103 -2.8927 -1.9535 -3.4259
  623SOL    HW2 1869   0.703   2.374   0.995  3.6921  2.7534 -2.1619
  624SOL     OW 1870   0.040   2.902   2.999  0.5907 -0.1206  0.8177
  624SOL    HW1 1871   3.069   2.815   2.989  0.1392  2.2490 -0.9942
  624SOL    HW2 1872   0.117   2.908   2.930 -0.7500  1.8176  0.8745
  625SOL     OW 1873   0.863   1.935   0.615  0.2280  0.2756  0.2936
  625SOL    HW1 1874   0.851   1.836   0.631  1.8501  2.1580 -1.0041
  625SOL    HW2 1875   0.961   1.951   0.601 -0.9389  1.6619 -1.3794
  626SOL     OW 1876   2.723   0.317   2.895  0.9503  0.1156  0.2123
  626SOL    HW1 1877   2.812   0.275   2.911  1.8431 -0.7493 -0.6877
  626SOL    HW2 1878   2.647   0.258   2.923  0.5152 -0.2242  3.1861
  627SOL     OW 1879   1.424   1.920   2.985 -0.0083 -0.1437 -0.3970
  627SOL    HW1 1880   1.480   1.933   2.902 -1.7324  0.3600  1.6447
  627SOL    HW2 1881   1.360   1.848   2.963  2.1831  0.2608 -0.2223
  628SOL     OW 1882   0.119   2.588   2.816  0.1770  0.1251  0.7610
  628SOL    HW1 1883   0.098   2.515   2.748  0.0017  0.0711 -0.5791
  628SOL    HW2 1884   0.034   2.606   2.871 -1.5754 -2.7109  0.6161
  629SOL     OW 1885   0.835   2.870   2.633 -0.5805  0.5576  0.1741
  629SOL    HW1 1886   0.900   2.794   2.656  2.3478 -2.7848 -0.1846
  629SOL    HW2 1887   0.764   2.839   2.566  1.2523 -1.8712 -0.0982
  630SOL     OW 1888   1.301   0.993   1.955  0.2286  0.0251 -0.1862
  630SOL    HW1 1889   1.293   0.916   1.891  2.5040  0.3478 -2.1316
  630SOL    HW2 1890   1.314   1.088   1.915 -0.7143 -1.5455  1.5431
  631SOL     OW 1891   2.015   1.129   0.287 -0.1000 -0.3757  0.8361
  631SOL    HW1 1892   1.949   1.190   0.329  0.5635 -1.7515  1.3527
  631SOL    HW2 1893   2.059   1.176   0.210  1.1724 -1.0560  0.6326
  632SOL     OW 1894   2.475   0.538   2.032 -0.0495 -0.0692  0.3197
  632SOL    HW1 1895   2.533   0.566   2.109 -1.0221  0.3509 -3.3505
  632SOL    HW2 1896   2.515   0.454   1.995  0.5857  1.3999  2.2225
  633SOL     OW 1897   0.707   1.528   2.918  0.2458  0.5488 -0.0676
  633SOL    HW1 1898   0.771   1.470   2.975  1.6929  0.9831  0.5429
  633SOL    HW2 1899   0.745   1.547   2.826 -0.9917  1.6485  2.0528
  634SOL     OW 1900   2.433   2.619   2.301  0.3830  0.5862  0.3493
  634SOL    HW1 1901   2.359   2.688   2.295  0.8423 -3.4353  2.1362
  634SOL    HW2 1902   2.393   2.532   2.332  1.5451  0.0921 -0.5232
  635SOL     OW 1903   2.034   0.596   0.308  0.1541  0.5871  0.1837
  635SOL    HW1 1904   2.068   0.646   0.388 -2.1196  1.1426 -1.1881
  635SOL    HW2 1905   2.099   0.527   0.273 -2.7857  0.1222 -2.4691
  636SOL     OW 1906   0.646   1.357   0.768 -0.5914  0.0668  0.3458
  636SOL    HW1 1907   0.579   1.297   0.715 -1.9718 -1.3179  1.3178
  636SOL    HW2 1908   0.711   1.410   0.711  0.1925 -2.1818  1.4097
  637SOL     OW 1909   2.883   2.384   0.257  0.1330  0.2847  0.4307
  637SOL    HW1 1910   2.828   2.301   0.229 -1.6273 -3.1993 -0.7121
  637SOL    HW2 1911   2.861   2.409   0.357 -2.0058 -0.3599  1.3327
  638SOL     OW 1912   1.515   2.598   2.375  0.2615  0.0524  0.3362
  638SOL    HW1 1913   1.570   2.590   2.287 -0.0985  0.0514 -3.0325
  638SOL    HW2 1914   1.436   2.534   2.371 -3.0562  0.8380 -0.0955
  639SOL     OW 1915   1.339   1.917   0.304 -0.3821  0.2569  0.1039
  639SOL    HW1 1916   1.256   1.884   0.257  1.0220  0.7050 -2.2337
  639SOL    HW2 1917   1.353   1.854   0.381  0.4655  0.7044 -0.7117
  640SOL     OW 1918   2.112   0.279   0.506 -0.0930  0.1163 -0.1109
  640SOL    HW1 1919   2.182   0.213   0.549  1.7686 -1.7631  0.8623
  640SOL    HW2 1920   2.148   0.313   0.417  1.7719  0.6880 -1.9604
  641SOL     OW 1921   0.047   3.055   0.449  0.2861 -0.1019  0.4028
  641SOL    HW1 1922   0.013   0.061   0.482  1.3196  0.4407  1.1566
  641SOL    HW2 1923   3.057   2.988   0.425 -1.4359  0.0139 -0.6053
  642SOL     OW 1924   0.721   0.304   1.582 -0.3403  0.5610  0.2798
  642SOL    HW1 1925   0.623   0.340   1.575  1.5565  0.3811  1.1221
  642SOL    HW2 1926   0.728   0.282   1.683 -0.6805  1.9744 -2.0464
  643SOL     OW 1927   0.705   1.229   2.273 -0.2629 -0.8253  0.3099
  643SOL    HW1 1928   0.685   1.289   2.353 -0.7146 -2.2272 -2.0969
  643SOL    HW2 1929   0.629   1.247   2.204 -2.9666  1.4032  1.2232
  644SOL     OW 1930   1.291   2.556   0.449  0.3106  0.0283  0.0632
  644SOL    HW1 1931   1.289   2.661   0.446 -1.6945 -0.3775 -2.6038
  644SOL    HW2 1932   1.366   2.523   0.386  1.6472 -0.6798 -0.4616
  645SOL     OW 1933   1.771   2.080   0.179 -0.5760 -0.0118 -0.3269
  645SOL    HW1 1934   1.788   2.136   0.095 -2.2627 -0.8206  0.4753
  645SOL    HW2 1935   1.687   2.020   0.171 -2.1177 -2.1658 -2.3060
  646SOL     OW 1936   0.216   1.446   2.941  0.3044  0.1131  0.3553
  646SOL    HW1 1937   0.240   1.502   2.858  0.9284 -0.7243  2.0891
  646SOL    HW2 1938   0.289   1.375   2.959 -1.2141  0.4398  0.1334
  647SOL     OW 1939   0.940   0.178   1.162 -0.0667 -0.2729 -0.2031
  647SOL    HW1 1940   0.871   0.187   1.238  0.1865 -0.2491  0.5045
  647SOL    HW2 1941   0.998   0.260   1.144 -0.0410 -0.0663  0.7223
  648SOL     OW 1942   1.453   0.596   1.276  0.0338 -0.0277  0.3530
  648SOL    HW1 1943   1.463   0.637   1.185 -1.0435  0.2036 -0.5080
  648SOL    HW2 1944   1.499   0.661   1.345  1.3859  0.3544  2.0111
  649SOL     OW 1945   1.131   1.791   0.179  0.1582  0.1575 -0.1815
  649SOL    HW1 1946   1.099   1.886   0.160 -1.3023 -2.2266 -0.2339
  649SOL    HW2 1947   1.151   1.743   0.087 -1.1374  0.4653 -2.3503
  650SOL     OW 1948   2.838   1.428   2.243  0.1408 -0.3682  0.8034
  650SOL    HW1 1949   2.786   1.515   2.270 -0.3545  0.3891 -1.6116
  650SOL    HW2 1950   2.935   1.446   2.214 -1.0666 -0.1156 -1.8510
  651SOL     OW 1951   1.325   2.435   2.748  0.0601  0.2896  0.0964
  651SOL    HW1 1952   1.254   2.363   2.743  4.2674  0.4791 -1.0224
  651SOL    HW2 1953   1.320   2.498   2.663  0.8739  0.6533 -1.8398
  652SOL     OW 1954   2.720   1.724   0.095  0.1461  0.2210 -0.2011
  652SOL    HW1 1955   2.649   1.659   0.124  1.2213  2.5778  0.2686
  652SOL    HW2 1956   2.677   1.813   0.073  1.9153 -4.9362 -1.5677
  653SOL     OW 1957   0.308   0.200   1.227  0.3333  0.0212  0.0763
  653SOL    HW1 1958   0.292   0.186   1.128  4.4894 -1.8292  0.6544
  653SOL    HW2 1959   0.261   0.289   1.256  0.6440  3.6220  3.6792
  654SOL     OW 1960   2.119   0.275   2.380 -0.8802  0.5028  0.0588
  654SOL    HW1 1961   2.194   0.261   2.311 -1.3004  2.4673 -1.1432
  654SOL    HW2 1962   2.031   0.284   2.335  0.1197  0.2972 -1.0282
  655SOL     OW 1963   0.313   2.939   1.085  0.0696 -0.2159 -0.1856
  655SOL    HW1 1964   0.285   2.907   0.990 -0.7646 -0.7037 -1.3953
  655SOL    HW2 1965   0.415   2.942   1.093  2.6837 -2.0525 -0.4809
  656SOL     OW 1966   2.932   3.050   2.299 -0.0929  0.4896  0.5140
  656SOL    HW1 1967   2.893   0.059   2.274  0.3002  1.0055 -0.9406
  656SOL    HW2 1968   2.995   3.054   2.377 -0.6831  1.7283  0.1534
  657SOL     OW 1969   2.591   0.727   2.882  0.3063  0.0909 -0.2973
  657SOL    HW1 1970   2.638   0.804   2.939 -1.2337  0.7691  2.9164
  657SOL    HW2 1971   2.648   0.670   2.825  0.9898  0.7936 -0.2233
  658SOL     OW 1972   2.158   2.100   1.024  0.0823 -0.1826 -0.5660
  658SOL    HW1 1973   2.227   2.089   0.952 -0.7738  0.6542 -0.9252
  658SOL    HW2 1974   2.191   2.065   1.117  2.9080 -1.8480  0.3328
  659SOL     OW 1975   2.204   2.900   0.525 -0.5299  0.0174  0.4331
  659SOL    HW1 1976   2.119   2.845   0.539  0.9503  0.5829 -0.6511
  659SOL    HW2 1977   2.283   2.853   0.570 -0.6676  2.0377  3.0349
  660SOL     OW 1978   1.556   1.253   2.689  0.0058  0.2881 -0.1224
  660SOL    HW1 1979   1.486   1.285   2.623 -0.1754 -0.8264  1.4320
  660SOL    HW2 1980   1.625   1.324   2.701 -1.0295 -1.3844 -2.2270
  661SOL     OW 1981   2.463   2.286   1.555 -0.4296  0.3936 -0.4779
  661SOL    HW1 1982   2.459   2.355   1.483 -2.5911 -0.6390  1.2383
  661SOL    HW2 1983   2.557   2.257   1.581 -0.0065 -0.7418  3.5886
  662SOL     OW 1984   0.778   0.699   0.222 -0.2595  0.7724  0.0909
  662SOL    HW1 1985   0.682   0.722   0.203 -0.0663  0.8230 -0.9109
  662SOL    HW2 1986   0.795   0.599   0.241  1.2411 -0.4118 -0.0934
  663SOL     OW 1987   2.102   2.288   0.717  0.3272  0.2474 -0.3682
  663SOL    HW1 1988   2.010   2.258   0.743  1.3613 -1.5138 -2.1025
  663SOL    HW2 1989   2.173   2.216   0.731  0.9094  0.7574  1.1853
  664SOL     OW 1990   0.786   1.739   1.227  0.3088 -0.3635 -0.6385
  664SOL    HW1 1991   0.698   1.785   1.216 -1.3283  0.8212  0.9239
  664SOL    HW2 1992   0.840   1.781   1.304 -0.0873  0.3317 -0.1198
  665SOL     OW 1993   1.661   2.291   2.000  0.1599  0.3074  0.1060
  665SOL    HW1 1994   1.633   2.334   1.914 -0.2142 -0.0860  3.2339
  665SOL    HW2 1995   1.767   2.286   1.999  0.8447  1.5837 -1.1778
  666SOL     OW 1996   0.172   2.491   0.255  0.0409 -0.0601 -0.0753
  666SOL    HW1 1997   0.264   2.509   0.217 -1.4758 -0.9429  3.1264
  666SOL    HW2 1998   0.110   2.446   0.185  0.3704  1.6557 -1.3508
  667SOL     OW 1999   2.445   1.404   1.828  0.3789  0.3251  0.0899
  667SOL    HW1 2000   2.456   1.437   1.731 -1.4062 -2.1509  1.8957
  667SOL    HW2 2001   2.447   1.484   1.885 -1.9796  0.9415 -3.1433
  668SOL     OW 2002   0.464   0.556   2.623  0.2332 -0.1166  0.4050
  668SOL    HW1 2003   0.525   0.609   2.560  5.0188 -0.1070  1.0782
  668SOL    HW2 2004   0.487   0.579   2.718 -1.5096 -0.6960  1.3485
  669SOL     OW 2005   1.979   2.358   2.978  0.1473  0.0028  0.2531
  669SOL    HW1 2006   2.006   2.409   2.895 -1.9598 -2.1132  2.7682
  669SOL    HW2 2007   2.056   2.337   3.036  0.4111  1.9832  1.1859
  670SOL     OW 2008   2.362   1.550   2.645  0.3991  0.1814  0.0888
  670SOL    HW1 2009   2.357   1.450   2.657 -0.7731 -1.2061  0.5001
  670SOL    HW2 2010   2.457   1.588   2.635 -1.4722  0.7966 -0.6136
  671SOL     OW 2011   0.235   1.457   0.849  0.5100 -0.0519 -0.2081
  671SOL    HW1 2012   0.220   1.423   0.753 -0.0933  2.5328 -1.4141
  671SOL    HW2 2013   0.148   1.475   0.898 -0.5139 -1.1045  1.7913
  672SOL     OW 2014   2.387   0.949   2.102  0.0132  0.3144  0.1846
  672SOL    HW1 2015   2.390   1.047   2.080 -0.0535 -1.4447 -1.2156
  672SOL    HW2 2016   2.402   0.890   2.019 -2.6320  1.4346 -1.3114
  673SOL     OW 2017   2.463   2.409   1.921  0.4105  0.2181  0.4458
  673SOL    HW1 2018   2.556   2.381   1.888 -0.6582  1.0148 -1.5776
  673SOL    HW2 2019   2.416   2.477   1.860  4.0656 -0.7016 -0.7756
  674SOL     OW 2020   1.309   2.541   1.908  0.1667 -0.4993 -0.0334
  674SOL    HW1 2021   1.314   2.483   1.822 -0.1006 -0.4795 -0.8676
  674SOL    HW2 2022   1.217   2.549   1.940  2.4386 -0.3061  0.4771
  675SOL     OW 2023   0.540   0.725   0.776 -0.6771 -0.1211  0.3042
  675SOL    HW1 2024   0.484   0.802   0.742  1.5632 -0.9308  0.8518
  675SOL    HW2 2025   0.598   0.687   0.701  0.2801 -0.8424  0.5005
  676SOL     OW 2026   1.992   1.076   0.573 -0.8979 -0.0050 -0.2525
  676SOL    HW1 2027   1.935   1.005   0.523 -1.3506 -0.4330 -0.4074
  676SOL    HW2 2028   2.069   1.025   0.622  1.6334  0.1024 -0.2179
  677SOL     OW 2029   2.999   1.428   2.518 -0.6141 -0.2586  0.1640
  677SOL    HW1 2030   3.013   1.377   2.605 -0.8174 -0.9124  0.1630
  677SOL    HW2 2031   3.024   1.376   2.437 -1.5278  2.4954 -2.1194
  678SOL     OW 2032   2.667   2.089   1.295  0.3075  0.5622 -0.4731
  678SOL    HW1 2033   2.737   2.033   1.348  1.1393 -1.0675 -2.9318
  678SOL    HW2 2034   2.575   2.058   1.329  1.0472 -0.6956 -1.1204
  679SOL     OW 2035   2.017   2.769   0.676 -0.4800 -0.1289  0.8004
  679SOL    HW1 2036   2.023   2.794   0.773  1.8765 -0.2503 -1.4776
  679SOL    HW2 2037   1.962   2.687   0.656 -0.0160  4.2773 -0.7069
  680SOL     OW 2038   0.063   2.106   2.070 -0.0540 -0.1178  0.2616
  680SOL    HW1 2039   0.157   2.095   2.045 -3.4904  0.0895  0.8143
  680SOL    HW2 2040   0.014   2.171   2.004 -0.4726  0.7256 -4.1564
  681SOL     OW 2041   2.761   1.267   1.759 -0.1988  0.1075  0.7785
  681SOL    HW1 2042   2.860   1.256   1.772 -1.2174 -1.3981 -0.6134
  681SOL    HW2 2043   2.724   1.338   1.821  0.6791 -0.1366  0.3003
  682SOL     OW 2044   1.038   2.216   0.841 -0.1864 -0.9950 -0.0136
  682SOL    HW1 2045   0.982   2.203   0.758 -0.4810  0.6354  0.3726
  682SOL    HW2 2046   1.137   2.225   0.817 -2.1427  1.3999  0.6153
  683SOL     OW 2047   2.208   1.139   1.099  0.0358  0.2539 -0.5908
  683SOL    HW1 2048   2.123   1.164   1.042 -0.1436 -1.4637  1.4422
  683SOL    HW2 2049   2.194   1.132   1.200 -1.8059 -0.0508  1.0379
  684SOL     OW 2050   0.170   1.975   2.927  0.1701 -0.3464  0.6663
  684SOL    HW1 2051   0.104   1.897   2.911  0.3403  0.6580 -1.2619
  684SOL    HW2 2052   0.233   1.951   3.002 -0.2293  1.1878 -1.9996
  685SOL     OW 2053   1.630   1.255   0.116 -0.5293  0.3065 -0.2635
  685SOL    HW1 2054   1.656   1.185   0.050  1.4743  1.7919  1.4894
  685SOL    HW2 2055   1.710   1.315   0.133  1.1069  1.9339  0.6071
  686SOL     OW 2056   0.176   0.814   1.379  0.5117  0.1500 -0.4094
  686SOL    HW1 2057   0.185   0.731   1.440  1.5866  0.6087  1.1231
  686SOL    HW2 2058   0.256   0.822   1.317  1.6220 -1.8552 -0.5608
  687SOL     OW 2059   0.875   2.198   2.524  0.1884  0.1098 -0.6822
  687SOL    HW1 2060   0.824   2.219   2.610 -0.5795  1.5656  1.7711
  687SOL    HW2 2061   0.860   2.277   2.460 -0.2755  2.9181 -1.6829
  688SOL     OW 2062   0.356   1.799   1.699  0.9636 -0.1842 -0.1138
  688SOL    HW1 2063   0.255   1.802   1.699  1.8288 -0.2617  0.5038
  688SOL    HW2 2064   0.388   1.832   1.604 -1.1567 -1.6014 -2.6704
  689SOL     OW 2065   1.562   0.997   1.625 -0.2269 -0.0514  0.1546
  689SOL    HW1 2066   1.467   0.970   1.602  1.7038  0.0405 -1.2685
  689SOL    HW2 2067   1.612   0.915   1.662 -0.8405  0.1343  0.4385
  690SOL     OW 2068   2.558   0.765   1.209  0.1830 -0.0610  0.0805
  690SOL    HW1 2069   2.621   0.764   1.295  3.8011 -1.7620  2.9368
  690SOL    HW2 2070   2.507   0.852   1.204  0.9566  0.2030  0.6823
  691SOL     OW 2071   0.733   1.965   1.509  0.2062  0.3928 -0.1168
  691SOL    HW1 2072   0.813   1.907   1.492  0.1932  1.0766  0.8607
  691SOL    HW2 2073   0.718   1.960   1.609 -0.1370 -1.9749 -2.2682
  692SOL     OW 2074   1.922   0.288   1.487 -0.6893  0.1606  0.6238
  692SOL    HW1 2075   1.914   0.382   1.448  1.9212 -0.3513  3.3078
  692SOL    HW2 2076   1.973   0.299   1.572  1.1414 -0.8265  1.1493
  693SOL     OW 2077   0.433   0.972   2.091  0.5364  0.7074 -0.2838
  693SOL    HW1 2078   0.528   0.960   2.131  2.8878  3.5429  1.5013
  693SOL    HW2 2079   0.438   0.931   1.998 -0.4285 -0.5368  1.7651
  694SOL     OW 2080   1.835   0.089   1.369  0.7042  0.6223  0.8015
  694SOL    HW1 2081   1.867   0.158   1.439 -2.0802 -1.5894 -0.4209
  694SOL    HW2 2082   1.780   0.016   1.418 -0.0783 -1.0107  1.2503
  695SOL     OW 2083   1.272   1.381   1.619  0.6770  0.3178 -0.5361
  695SOL    HW1 2084   1.191   1.431   1.589 -2.4529 -0.0735  2.6484
  695SOL    HW2 2085   1.291   1.300   1.557  0.3538  0.6863  0.8037
  696SOL     OW 2086   1.786   2.888   0.176 -0.1280  0.5119 -0.6762
  696SOL    HW1 2087   1.813   2.865   0.274  0.5018  1.2561  3.8208
  696SOL    HW2 2088   1.852   2.841   0.107  1.8190  0.3764 -0.8448
  697SOL     OW 2089   0.847   0.438   0.237 -0.0925  0.6726 -0.2095
  697SOL    HW1 2090   0.781   0.386   0.180  4.4344  2.4166  1.4073
  697SOL    HW2 2091   0.903   0.374   0.300 -1.0286  1.3116  0.1189
  698SOL     OW 2092   1.334   1.315   2.515 -0.1120 -0.2409 -1.0852
  698SOL    HW1 2093   1.375   1.329   2.418  0.9010 -1.5938  1.1272
  698SOL    HW2 2094   1.274   1.233   2.516 -1.0620 -2.9700  1.5772
  699SOL     OW 2095   1.418   1.331   1.006 -0.5896  0.1412  0.0369
  699SOL    HW1 2096   1.501   1.388   1.022 -4.0784  0.0081 -1.2672
  699SOL    HW2 2097   1.433   1.302   0.910  0.1818 -0.6039 -2.3861
  700SOL     OW 2098   1.653   0.011   0.331  0.0553 -0.0289 -0.0214
  700SOL    HW1 2099   1.715   3.027   0.278  2.1301 -1.7437  0.8995
  700SOL    HW2 2100   1.707   0.100   0.344  0.7328 -0.7315  2.2945
  701SOL     OW 2101   2.260   3.049   2.520 -0.0388  0.4512  0.5006
  701SOL    HW1 2102   2.337   2.985   2.502  0.6926 -0.5634 -0.0488
  701SOL    HW2 2103   2.282   0.042   2.582  1.1392 -2.9741 -2.3548
  702SOL     OW 2104   0.972   0.088   0.129  0.3625 -0.4039 -0.5246
  702SOL    HW1 2105   1.039   0.144   0.083 -0.4369 -0.8925  4.5100
  702SOL    HW2 2106   0.920   0.031   0.060  0.3726  0.9754 -1.1445
  703SOL     OW 2107   2.220   2.781   2.245  0.4203 -0.2578 -0.1488
  703SOL    HW1 2108   2.164   2.707   2.203  2.1469  0.6555  1.0234
  703SOL    HW2 2109   2.166   2.862   2.279  0.2213  0.4973 -1.8480
  704SOL     OW 2110   0.396   2.296   0.878  0.1384  0.0248  0.0802
  704SOL    HW1 2111   0.397   2.198   0.859 -1.3101  0.4836  2.9495
  704SOL    HW2 2112   0.486   2.324   0.919  0.5103 -0.8150 -0.1389
  705SOL     OW 2113   2.316   0.180   2.230  0.8309  0.1660 -0.4684
  705SOL    HW1 2114   2.252   0.145   2.156 -1.4676 -1.7773 -0.0040
  705SOL    HW2 2115   2.352   0.102   2.276  2.2095  2.4146 -0.1973
  706SOL     OW 2116   1.889   0.199   0.333 -0.1133  0.0433 -0.7213
  706SOL    HW1 2117   1.974   0.207   0.390  1.1635  0.4440  1.9776
  706SOL    HW2 2118   1.909   0.219   0.235 -1.9293  2.6098 -0.3176
  707SOL     OW 2119   1.194   1.948   2.092 -0.6867 -0.0310 -0.1872
  707SOL    HW1 2120   1.292   1.980   2.096 -1.0034  0.3015  0.9962
  707SOL    HW2 2121   1.127   2.010   2.139  1.3682 -2.6119  0.2134
  708SOL     OW 2122   0.160   2.614   1.936 -0.0303 -0.3776 -0.1129
  708SOL    HW1 2123   0.119   2.547   1.996  0.1289  0.2508  0.1070
  708SOL    HW2 2124   0.091   2.670   1.889  0.8623  1.9589 -1.4343
  709SOL     OW 2125   1.646   0.100   1.912 -0.0537  0.7209  0.3543
  709SOL    HW1 2126   1.717   0.169   1.946 -2.1945  0.6329 -0.3303
  709SOL    HW2 2127   1.693   0.035   1.852 -2.4039 -1.9728 -1.8890
  710SOL     OW 2128   1.999   0.784   2.060 -0.2382 -0.0076 -0.1408
  710SOL    HW1 2129   1.941   0.847   2.005  0.5287 -0.4768 -1.2792
  710SOL    HW2 2130   1.955   0.735   2.134  0.0777  0.6972 -0.5808
  711SOL     OW 2131   0.900   2.159   0.341  0.2406  0.0947 -0.1123
  711SOL    HW1 2132   0.941   2.241   0.371 -0.1577 -1.4695  1.7100
  711SOL    HW2 2133   0.831   2.173   0.266  0.0974 -2.3898 -0.3315
  712SOL     OW 2134   0.533   2.546   2.060  0.0810  0.2720  0.3594
  712SOL    HW1 2135   0.488   2.525   1.970 -2.3714 -0.9994  0.2796
  712SOL    HW2 2136   0.544   2.647   2.062 -2.3926 -1.9651 -2.4226
  713SOL     OW 2137   1.858   1.273   0.466 -0.9624 -0.2934 -0.7246
  713SOL    HW1 2138   1.894   1.367   0.478  1.3501  2.0048  0.0068
  713SOL    HW2 2139   1.923   1.202   0.508  2.8187 -1.7655  2.5292
  714SOL     OW 2140   0.534   1.826   1.201 -0.0818  0.4211 -0.0187
  714SOL    HW1 2141   0.460   1.793   1.141  0.8684  0.3007  1.3302
  714SOL    HW2 2142   0.547   1.921   1.176 -1.1953 -2.7466 -2.7651
  715SOL     OW 2143   2.046   2.898   2.669  0.6690 -0.1202  0.0225
  715SOL    HW1 2144   2.093   2.974   2.622 -0.1853 -0.5460  1.5161
  715SOL    HW2 2145   1.949   2.917   2.662 -0.6989 -0.8873 -0.4548
  716SOL     OW 2146   2.769   3.068   1.921 -0.3630 -0.5110 -0.1418
  716SOL    HW1 2147   2.796   2.970   1.918 -1.8169 -0.4210  1.9302
  716SOL    HW2 2148   2.788   0.021   2.015 -0.2293 -0.2996  2.5556
  717SOL     OW 2149   0.388   1.008   0.281  0.2615  0.2053 -0.4186
  717SOL    HW1 2150   0.363   1.022   0.183  1.4481 -3.1817  0.1740
  717SOL    HW2 2151   0.309   0.974   0.330  4.5917  0.4791 -1.2627
  718SOL     OW 2152   1.194   1.054   2.525 -0.4021  0.0735 -0.1774
  718SOL    HW1 2153   1.093   1.063   2.548 -0.8864  1.0220  0.1187
  718SOL    HW2 2154   1.228   0.975   2.577  0.9739 -0.5794 -0.0661
  719SOL     OW 2155   2.934   1.638   3.027  0.9079 -0.1304  0.2066
  719SOL    HW1 2156   2.962   1.546   3.064 -1.3186 -0.7030  0.3044
  719SOL    HW2 2157   2.857   1.681   0.002 -0.3065 -0.6923 -1.1208
  720SOL     OW 2158   1.200   0.717   0.934  0.0929 -0.1011  0.1045
  720SOL    HW1 2159   1.199   0.791   1.000 -2.0859  0.7867  0.8229
  720SOL    HW2 2160   1.126   0.728   0.865  1.9061 -2.4019  0.3774
  721SOL     OW 2161   2.818   0.640   0.289  0.2744 -0.3843  0.7136
  721SOL    HW1 2162   2.828   0.616   0.189  0.7056  0.9057  4.0305
  721SOL    HW2 2163   2.754   0.714   0.309 -0.3477  0.9854  0.3418
  722SOL     OW 2164   1.827   0.821   2.861  0.2720 -0.1748 -0.6083
  722SOL    HW1 2165   1.906   0.796   2.918  2.7047  0.3989 -1.5728
  722SOL    HW2 2166   1.779   0.738   2.835 -1.0744 -2.3343  2.2779
  723SOL     OW 2167   0.172   0.923   0.433  0.3758 -0.7128  0.1514
  723SOL    HW1 2168   0.132   1.009   0.477 -0.7982 -0.4027 -2.2603
  723SOL    HW2 2169   0.094   0.866   0.393 -1.7717 -0.2360 -0.3371
  724SOL     OW 2170   0.519   1.299   2.084  0.4717  0.2966 -0.4336
  724SOL    HW1 2171   0.473   1.293   1.995 -2.9822 -0.0662  1.1393
  724SOL    HW2 2172   0.454   1.338   2.154  2.6033  0.5764  2.2743
  725SOL     OW 2173   1.855   0.810   1.741 -0.0389 -0.0416  0.4099
  725SOL    HW1 2174   1.905   0.829   1.652  0.7438  0.9661 -0.7421
  725SOL    HW2 2175   1.857   0.888   1.802 -0.9946 -3.4572 -1.7300
  726SOL     OW 2176   1.793   2.923   0.651  0.2796 -0.1637  0.7975
  726SOL    HW1 2177   1.886   2.880   0.661  1.5536 -1.5230 -1.2384
  726SOL    HW2 2178   1.804   3.021   0.619  0.3430 -0.8771 -0.8462
  727SOL     OW 2179   1.423   1.368   2.282 -0.0132  0.2278 -0.5265
  727SOL    HW1 2180   1.524   1.342   2.289 -1.4154  2.0129  1.2440
  727SOL    HW2 2181   1.396   1.387   2.185  0.5258 -1.6702 -0.0755
  728SOL     OW 2182   1.401   2.660   1.143 -0.0544 -0.0355 -0.3012
  728SOL    HW1 2183   1.324   2.596   1.132  0.3049  1.7968  1.9614
  728SOL    HW2 2184   1.473   2.622   1.209 -0.1820 -1.4463  2.6444
  729SOL     OW 2185   1.896   0.817   1.456  0.3821  0.3389 -0.2561
  729SOL    HW1 2186   1.947   0.764   1.383 -1.3685  2.2616  0.5075
  729SOL    HW2 2187   1.795   0.796   1.443 -2.2003  3.0734 -0.3106
  730SOL     OW 2188   0.480   1.668   2.266 -0.2743 -0.3745 -0.4751
  730SOL    HW1 2189   0.406   1.735   2.239  0.8865 -1.9605  2.4285
  730SOL    HW2 2190   0.553   1.680   2.197 -0.4784 -0.8420  1.1500
  731SOL     OW 2191   0.369   0.327   0.729 -0.0369  0.2679  0.0820
  731SOL    HW1 2192   0.430   0.339   0.812 -0.2462  0.8758  1.2471
  731SOL    HW2 2193   0.420   0.280   0.655  0.7911 -0.9706 -1.2465
  732SOL     OW 2194   1.036   0.801   0.106 -0.0529 -0.2060 -0.2035
  732SOL    HW1 2195   1.071   0.703   0.127  1.3422 -0.1149  1.5501
  732SOL    HW2 2196   0.942   0.819   0.145  0.6753  3.2046  1.7357
  733SOL     OW 2197   0.653   2.099   0.646 -0.0571 -0.3926 -0.0778
  733SOL    HW1 2198   0.722   2.024   0.633 -2.1609  0.6513  0.9071
  733SOL    HW2 2199   0.582   2.088   0.572 -0.0783  3.1489 -0.7403
  734SOL     OW 2200   0.070   2.374   2.675  0.2237 -0.3936 -0.1750
  734SOL    HW1 2201   0.086   2.325   2.587 -1.6459  0.0880  0.1634
  734SOL    HW2 2202   0.084   2.321   2.759 -2.7545  2.0960 -1.9494
  735SOL     OW 2203   1.177   0.781   1.388 -0.0725 -0.3450  0.0174
  735SOL    HW1 2204   1.086   0.812   1.422 -0.0257  0.2604  1.2984
  735SOL    HW2 2205   1.169   0.681   1.388  0.1416  2.4044  0.8129
  736SOL     OW 2206   2.180   2.713   3.019 -0.4078 -0.0378  0.1787
  736SOL    HW1 2207   2.080   2.697   3.006  4.0105 -0.6195 -2.7626
  736SOL    HW2 2208   2.219   2.781   2.951  2.1561 -0.5706  1.1243
  737SOL     OW 2209   0.153   0.177   0.688 -0.3270 -0.1481  0.2683
  737SOL    HW1 2210   0.094   0.136   0.761 -0.3680 -1.7459 -0.6325
  737SOL    HW2 2211   0.223   0.243   0.717 -0.0815 -0.0807  0.7103
  738SOL     OW 2212   2.184   0.134   1.025  0.0854  0.3087 -0.5242
  738SOL    HW1 2213   2.214   0.224   1.071 -1.7572  2.3268  2.5193
  738SOL    HW2 2214   2.258   0.091   0.976 -4.3203 -0.1094 -0.7548
  739SOL     OW 2215   1.897   2.499   0.382 -0.6017  0.0768 -0.1257
  739SOL    HW1 2216   1.820   2.430   0.374 -0.4615  2.3018  0.8194
  739SOL    HW2 2217   1.964   2.480   0.309 -0.2283  0.7336  2.9947
  740SOL     OW 2218   1.473   0.312   0.881  0.2470 -0.0980 -0.3094
  740SOL    HW1 2219   1.418   0.273   0.804 -0.0006  2.0355 -0.2382
  740SOL    HW2 2220   1.575   0.278   0.881  1.2334  1.1336  1.6504
  741SOL     OW 2221   2.701   0.801   0.950 -0.0307  0.1851  0.1991
  741SOL    HW1 2222   2.679   0.768   1.046  3.0499 -1.2086  2.5546
  741SOL    HW2 2223   2.639   0.872   0.910  1.2037 -0.0388  1.7260
  742SOL     OW 2224   0.954   2.097   2.198  0.1429  0.1553 -0.2396
  742SOL    HW1 2225   0.859   2.063   2.217 -2.2600  2.4669 -2.1785
  742SOL    HW2 2226   0.949   2.185   2.149 -0.5301 -0.2459  3.4250
  743SOL     OW 2227   1.609   0.725   1.727  0.0711  0.1785 -0.2380
  743SOL    HW1 2228   1.704   0.759   1.753  0.7699 -1.3024 -1.4512
  743SOL    HW2 2229   1.573   0.642   1.776 -1.1923 -3.3703  3.6213
  744SOL     OW 2230   2.056   0.566   1.467 -0.0165  0.2907  0.1342
  744SOL    HW1 2231   2.029   0.606   1.377 -0.1657 -3.9071  0.0602
  744SOL    HW2 2232   2.126   0.619   1.520  1.3359  2.9916  1.0054
  745SOL     OW 2233   1.676   1.242   1.593 -0.5552  0.3734  0.2522
  745SOL    HW1 2234   1.634   1.151   1.610 -0.4187  0.8533  2.0862
  745SOL    HW2 2235   1.689   1.261   1.494  0.8604  2.3756  1.2835
  746SOL     OW 2236   1.910   1.536   0.815  0.0940  0.0325 -0.4581
  746SOL    HW1 2237   1.889   1.599   0.893  2.9535 -1.8415 -1.4238
  746SOL    HW2 2238   1.838   1.461   0.798 -0.5473 -2.5710  1.3827
  747SOL     OW 2239   2.010   1.228   0.950  0.3308 -0.5910  0.1983
  747SOL    HW1 2240   2.050   1.302   0.893  0.5459  0.5512 -0.0379
  747SOL    HW2 2241   1.948   1.262   1.024  0.0986 -2.1470 -0.4079
  748SOL     OW 2242   0.463   2.034   0.832 -0.6273 -0.0910 -0.1440
  748SOL    HW1 2243   0.386   1.967   0.810 -0.9502  1.7558  4.1565
  748SOL    HW2 2244   0.518   2.054   0.748  0.8274  1.1510 -2.7313
  749SOL     OW 2245   2.409   2.960   2.228 -0.5668 -0.1105  0.0878
  749SOL    HW1 2246   2.342   2.884   2.231 -2.6537 -1.3378 -3.0612
  749SOL    HW2 2247   2.420   2.993   2.130 -1.6459  2.2938 -2.3021
  750SOL     OW 2248   2.434   0.565   1.060 -0.5881 -0.3948 -0.5116
  750SOL    HW1 2249   2.442   0.591   0.962  0.9662  0.6755 -1.2669
  750SOL    HW2 2250   2.451   0.645   1.126  0.0052  0.0304  0.7511
  751SOL     OW 2251   2.539   2.657   0.279 -0.4790  0.7658 -0.2216
  751SOL    HW1 2252   2.622   2.721   0.276 -0.8983  3.6336  1.5742
  751SOL    HW2 2253   2.467   2.698   0.219  2.0638 -1.8251  1.5672
  752SOL     OW 2254   0.288   2.812   0.841 -0.0478  0.3737 -0.0026
  752SOL    HW1 2255   0.343   2.728   0.852 -2.5865 -0.5367 -0.8309
  752SOL    HW2 2256   0.273   2.833   0.738  0.7865 -2.0280 -2.1153
  753SOL     OW 2257   1.513   0.497   1.859  0.0477 -0.0302 -0.2205
  753SOL    HW1 2258   1.417   0.494   1.817 -0.7559  1.2662  2.0058
  753SOL    HW2 2259   1.578   0.441   1.803 -0.2024  0.6823  1.2407
  754SOL     OW 2260   1.604   2.446   1.779 -0.1944 -0.1976 -0.6878
  754SOL    HW1 2261   1.692   2.494   1.773  3.1741  0.6839 -1.5178
  754SOL    HW2 2262   1.536   2.504   1.732 -0.0258  0.3708  2.2848
  755SOL     OW 2263   2.907   0.230   0.686 -0.2906  0.5953 -0.0242
  755SOL    HW1 2264   2.952   0.318   0.706 -3.2069  0.6145 -1.2691
  755SOL    HW2 2265   2.909   0.205   0.588  0.1585  1.3473  1.7624
  756SOL     OW 2266   1.380   1.592   2.932  0.2261 -0.1462  0.2741
  756SOL    HW1 2267   1.351   1.559   2.841  1.7591  0.6959  1.1470
  756SOL    HW2 2268   1.478   1.620   2.925 -4.5891 -0.8035  2.3836
  757SOL     OW 2269   1.122   0.123   1.395 -0.6424 -0.4691  0.7902
  757SOL    HW1 2270   1.074   0.085   1.310  0.7089  0.1105  1.0928
  757SOL    HW2 2271   1.081   0.212   1.427  0.4134 -1.3474  1.4988
  758SOL     OW 2272   0.759   0.139   1.371 -0.9898  0.0297 -0.3016
  758SOL    HW1 2273   0.732   0.191   1.454  2.5202 -0.4614 -1.0316
  758SOL    HW2 2274   0.787   0.043   1.390  0.5160 -0.1231 -0.3944
  759SOL     OW 2275   0.398   0.576   1.055  0.0872  0.1153 -0.0885
  759SOL    HW1 2276   0.434   0.613   0.971 -0.3064 -0.9906  2.9601
  759SOL    HW2 2277   0.297   0.553   1.050  0.0347 -1.2235  0.1749
  760SOL     OW 2278   2.418   1.306   1.060  0.4547  0.6197  0.1669
  760SOL    HW1 2279   2.517   1.271   1.058  1.4708 -1.6797  2.3075
  760SOL    HW2 2280   2.355   1.222   1.071  0.5715 -2.3617  1.6569
  761SOL     OW 2281   1.509   0.592   0.280 -0.0846 -0.2321 -0.2412
  761SOL    HW1 2282   1.565   0.505   0.288  0.9170 -1.5241 -0.2253
  761SOL    HW2 2283   1.442   0.600   0.358 -0.2484 -1.6601  0.2833
  762SOL     OW 2284   2.181   2.353   1.286 -0.2338  0.5596  0.1965
  762SOL    HW1 2285   2.154   2.380   1.191  4.0422 -0.6237 -1.7177
  762SOL    HW2 2286   2.256   2.411   1.325  0.0569  0.8623 -0.2989
  763SOL     OW 2287   1.448   1.531   1.825 -0.0893  0.2090  0.3190
  763SOL    HW1 2288   1.520   1.588   1.775  1.4466  3.2116 -3.7327
  763SOL    HW2 2289   1.374   1.519   1.762  1.1779 -1.3821  1.0446
  764SOL     OW 2290   2.667   1.905   2.238 -0.2488  0.2985 -0.4656
  764SOL    HW1 2291   2.718   1.938   2.323  1.4890 -1.0466  5.2477
  764SOL    HW2 2292   2.623   1.988   2.192  0.5058  0.7818  0.6103
  765SOL     OW 2293   0.881   2.419   0.945 -0.4278  0.4440 -0.1666
  765SOL    HW1 2294   0.966   2.371   0.920  1.5832  0.3224 -2.6045
  765SOL    HW2 2295   0.882   2.496   1.011 -1.1150 -1.9942  1.3967
  766SOL     OW 2296   0.820   1.915   2.501 -0.0363  0.3253  0.4131
  766SOL    HW1 2297   0.813   1.882   2.600 -1.6086 -0.2690  1.9626
  766SOL    HW2 2298   0.837   2.015   2.499  1.1460 -2.1271  0.0123
  767SOL     OW 2299   1.911   0.734   2.522 -0.4393  0.1943  0.2240
  767SOL    HW1 2300   2.004   0.736   2.480  0.3232  0.9501 -2.7603
  767SOL    HW2 2301   1.890   0.824   2.567  1.4460  0.5486 -0.5051
  768SOL     OW 2302   1.037   2.643   2.647  0.3091 -0.2974  0.4628
  768SOL    HW1 2303   1.134   2.662   2.623  1.0785 -0.3485 -1.1588
  768SOL    HW2 2304   1.034   2.598   2.741 -4.4289  1.5320  2.2567
  769SOL     OW 2305   3.022   2.514   0.834 -0.6743 -0.1569  0.3363
  769SOL    HW1 2306   2.943   2.570   0.867  1.0642 -3.7158  1.8054
  769SOL    HW2 2307   3.079   2.486   0.915  0.0778 -0.6796 -0.8845
  770SOL     OW 2308   0.620   2.861   0.086  0.6078 -0.6511  0.0795
  770SOL    HW1 2309   0.543   2.793   0.086 -0.0792 -2.5791 -1.5950
  770SOL    HW2 2310   0.709   2.819   0.085 -1.0333  0.0340 -1.6985
  771SOL     OW 2311   1.106   2.145   2.409 -0.4239 -0.0961 -0.1223
  771SOL    HW1 2312   1.061   2.123   2.319  0.7833  1.3894 -0.6317
  771SOL    HW2 2313   1.029   2.171   2.472  0.9547  1.1769 -0.6355
  772SOL     OW 2314   1.892   0.204   1.983  0.4082 -0.0010 -0.1859
  772SOL    HW1 2315   1.994   0.224   2.002  2.4678 -0.9785  1.0660
  772SOL    HW2 2316   1.888   0.099   1.967  1.7072  0.9525 -1.9470
  773SOL     OW 2317   1.121   2.867   1.875 -0.1618 -0.0224  0.3990
  773SOL    HW1 2318   1.200   2.861   1.817 -3.8599  0.2228  2.3631
  773SOL    HW2 2319   1.085   2.775   1.911  0.7541 -1.1502  3.5133
  774SOL     OW 2320   1.478   0.895   2.143  0.1533  0.5912  0.5790
  774SOL    HW1 2321   1.407   0.941   2.082 -0.7217  3.0633 -1.4254
  774SOL    HW2 2322   1.487   0.795   2.123 -1.5720 -1.1800  1.3464
  775SOL     OW 2323   2.261   3.014   0.256 -0.1966  0.5455 -0.4564
  775SOL    HW1 2324   2.292   2.938   0.197  1.4567 -0.3163 -1.3301
  775SOL    HW2 2325   2.268   2.998   0.358  3.4055  0.2741  4.0268
  776SOL     OW 2326   2.255   0.970   1.662  0.0384  0.3687 -0.4977
  776SOL    HW1 2327   2.336   1.031   1.652  0.4058  0.5014  3.3167
  776SOL    HW2 2328   2.173   1.025   1.692 -3.2525  1.8925  0.0427
  777SOL     OW 2329   3.075   1.160   2.453  0.2418 -0.5394  0.7533
  777SOL    HW1 2330   0.077   1.121   2.412 -1.5652  0.3421 -2.5647
  777SOL    HW2 2331   2.992   1.111   2.400 -2.4054 -1.2771 -3.7134
  778SOL     OW 2332   2.222   0.484   2.092 -0.4927  0.4153  0.3557
  778SOL    HW1 2333   2.192   0.524   2.181  0.6721 -0.7388  1.5544
  778SOL    HW2 2334   2.312   0.522   2.064 -1.5702  2.0492 -1.3913
  779SOL     OW 2335   3.082   0.139   2.986 -0.4617  0.1499 -0.1567
  779SOL    HW1 2336   0.046   0.079   3.053 -0.4674  0.9230  1.5284
  779SOL    HW2 2337   3.067   0.095   2.890 -0.3425  1.3942 -2.7739
  780SOL     OW 2338   2.080   2.968   2.356 -0.0304  0.4845 -0.0951
  780SOL    HW1 2339   2.155   3.006   2.411 -1.1367  1.5920 -2.7626
  780SOL    HW2 2340   1.994   3.023   2.365  1.2073 -0.2894  1.2914
  781SOL     OW 2341   0.113   0.708   1.773  0.1972  0.4078 -0.5861
  781SOL    HW1 2342   0.057   0.785   1.736  0.2711 -0.4185  0.8142
  781SOL    HW2 2343   0.108   0.700   1.876  2.0171  0.9470 -1.7795
  782SOL     OW 2344   2.191   1.930   0.175 -0.0208 -0.0789  0.2378
  782SOL    HW1 2345   2.266   1.925   0.252  0.0381 -0.1660  4.9922
  782SOL    HW2 2346   2.201   2.024   0.122 -0.8286  3.7608 -2.2071
  783SOL     OW 2347   0.480   2.254   1.311  0.0650 -0.2390 -0.2270
  783SOL    HW1 2348   0.449   2.318   1.239 -1.5132  1.1794  0.1476
  783SOL    HW2 2349   0.580   2.261   1.338 -1.7177 -1.7950  2.2254
  784SOL     OW 2350   2.419   0.761   2.307  0.4545 -0.0805  0.0085
  784SOL    HW1 2351   2.322   0.727   2.313  2.9208  1.2001  1.6890
  784SOL    HW2 2352   2.422   0.838   2.242 -0.9680  2.4699 -2.2922
  785SOL     OW 2353   0.187   0.428   1.304  0.0365  0.5939 -0.5629
  785SOL    HW1 2354   0.159   0.491   1.230  0.4052 -0.8415 -0.5606
  785SOL    HW2 2355   0.214   0.488   1.382  0.2317 -1.1642 -0.3789
  786SOL     OW 2356   1.841   2.771   0.418 -0.2342 -0.1286  0.2374
  786SOL    HW1 2357   1.792   2.789   0.501  2.7051 -1.6278 -2.3804
  786SOL    HW2 2358   1.851   2.675   0.390  1.8149  2.2864  0.4953
  787SOL     OW 2359   1.346   0.183   0.663 -0.1627  0.2498  0.6997
  787SOL    HW1 2360   1.248   0.193   0.694 -3.7950 -0.1511 -2.0027
  787SOL    HW2 2361   1.355   0.087   0.635 -1.8003  1.3521 -1.2649
  788SOL     OW 2362   3.069   1.513   0.982 -0.1571 -0.4805  0.0828
  788SOL    HW1 2363   3.001   1.567   0.935 -0.6709 -1.1645  0.4724
  788SOL    HW2 2364   3.020   1.447   1.039  3.0517  0.3671 -0.6843
  789SOL     OW 2365   2.659   0.629   2.232 -0.3293 -0.1931  0.1798
  789SOL    HW1 2366   2.594   0.678   2.287  1.9998 -2.2862 -0.4412
  789SOL    HW2 2367   2.729   0.593   2.295 -2.7721 -1.1014 -0.0410
  790SOL     OW 2368   0.848   0.311   2.987  0.1111 -0.4001  0.1417
  790SOL    HW1 2369   0.842   0.356   2.897  0.9569 -0.9082 -0.0249
  790SOL    HW2 2370   0.944   0.312   3.025 -0.5627  2.6800 -0.3504
  791SOL     OW 2371   2.520   2.896   3.019  0.2659 -0.8899 -0.2002
  791SOL    HW1 2372   2.519   2.957   2.940  0.2869 -1.3400 -0.7655
  791SOL    HW2 2373   2.550   2.805   2.983  1.6683  0.9567 -1.0666
  792SOL     OW 2374   1.333   0.911   1.562  0.5491 -0.2111  0.0385
  792SOL    HW1 2375   1.297   0.868   1.481  1.3567  3.0594  2.2408
  792SOL    HW2 2376   1.318   0.862   1.645 -1.4147  0.3165 -2.9789
  793SOL     OW 2377   2.667   0.315   1.311  0.3336  0.6750 -0.5936
  793SOL    HW1 2378   2.762   0.319   1.287  0.5225 -2.0667  3.6916
  793SOL    HW2 2379   2.622   0.245   1.247  0.6756 -2.5785 -2.2735
  794SOL     OW 2380   2.787   0.184   2.183 -0.3015  0.2553  0.2967
  794SOL    HW1 2381   2.714   0.237   2.229  0.4389  1.3542  0.9220
  794SOL    HW2 2382   2.828   0.238   2.109 -0.9492 -0.5128 -1.2078
  795SOL     OW 2383   0.683   1.931   2.809 -0.2055 -0.4299 -0.4841
  795SOL    HW1 2384   0.728   1.843   2.786  0.7985 -1.9558  1.9827
  795SOL    HW2 2385   0.712   1.957   2.903  0.2568 -2.4375  0.7758
  796SOL     OW 2386   2.293   0.630   2.595  0.2503 -0.3293 -0.5243
  796SOL    HW1 2387   2.333   0.723   2.593  0.4603 -2.4368 -1.8255
  796SOL    HW2 2388   2.231   0.614   2.677 -2.8468 -3.0673  2.2911
  797SOL     OW 2389   2.543   1.997   0.078 -0.2465 -0.4880 -0.1833
  797SOL    HW1 2390   2.588   2.088   0.070  1.6898 -1.6782 -1.0988
  797SOL    HW2 2391   2.472   1.988   0.005  3.5535  0.9236 -0.8361
  798SOL     OW 2392   2.982   0.394   1.349  0.3346 -0.4882 -0.2020
  798SOL    HW1 2393   2.963   0.378   1.453  0.8665  0.0954  2.6899
  798SOL    HW2 2394   3.081   0.405   1.324 -0.7798  0.3573  1.8817
  799SOL     OW 2395   0.419   0.257   1.656 -0.7744 -0.0572  0.7360
  799SOL    HW1 2396   0.438   0.335   1.589  1.9694 -2.8282 -1.6087
  799SOL    HW2 2397   0.387   0.300   1.741 -0.0156  0.5550 -0.3083
  800SOL     OW 2398   0.321   1.859   0.040 -0.3800 -0.1011  0.2660
  800SOL    HW1 2399   0.274   1.812   0.114 -1.2275  1.0308 -2.0371
  800SOL    HW2 2400   0.413   1.819   0.034 -3.4318  0.3053  2.2392
  801SOL     OW 2401   1.687   1.800   0.903  0.1831 -0.3039  0.7046
  801SOL    HW1 2402   1.616   1.807   0.971  4.0359 -2.9075  0.8956
  801SOL    HW2 2403   1.765   1.866   0.917  2.0430 -1.2809 -1.6096
  802SOL     OW 2404   1.223   0.974   0.173  0.1611 -0.2941 -0.2931
  802SOL    HW1 2405   1.305   0.978   0.111  0.2424 -0.4973  2.0047
  802SOL    HW2 2406   1.149   0.921   0.132  2.4166 -1.1290 -1.9516
  803SOL     OW 2407   0.984   1.564   1.842 -0.5232  0.3435 -0.5550
  803SOL    HW1 2408   0.893   1.599   1.818  0.0390 -1.5630  0.8902
  803SOL    HW2 2409   0.994   1.464   1.829 -0.2511 -0.1274 -0.3612
  804SOL     OW 2410   1.731   2.416   1.192  0.1220 -0.3154  0.0355
  804SOL    HW1 2411   1.776   2.338   1.243  0.6380 -0.4842 -1.8533
  804SOL    HW2 2412   1.726   2.403   1.092  0.0649  0.7506  0.8308
  805SOL     OW 2413   0.131   2.260   2.434 -0.1024  0.4771 -0.0344
  805SOL    HW1 2414   0.041   2.214   2.414  1.6900  1.6125  1.8415
  805SOL    HW2 2415   0.208   2.248   2.359 -1.2488 -3.2452 -2.8570
  806SOL     OW 2416   1.033   2.884   0.257  0.1902  0.2142  0.1070
  806SOL    HW1 2417   0.990   2.973   0.234 -0.1719 -0.4277 -2.5312
  806SOL    HW2 2418   0.961   2.812   0.251 -3.4595 -1.3110  0.8836
  807SOL     OW 2419   2.638   0.987   2.734 -0.4435 -0.1813 -0.0809
  807SOL    HW1 2420   2.610   0.928   2.814 -0.3576 -0.4738  0.2901
  807SOL    HW2 2421   2.684   1.077   2.761  0.6678  1.8041  1.0248
  808SOL     OW 2422   1.499   2.160   0.976 -0.2715  0.2034  0.2357
  808SOL    HW1 2423   1.430   2.187   0.909  2.2619 -2.2135  1.7847
  808SOL    HW2 2424   1.569   2.238   0.980  0.3616  1.3513 -0.4887
  809SOL     OW 2425   0.364   0.090   0.546  0.0859  0.9355 -0.9108
  809SOL    HW1 2426   0.365   0.033   0.460  0.1654  1.5473 -0.1761
  809SOL    HW2 2427   0.263   0.097   0.583 -2.4470 -1.2430  3.6920
  810SOL     OW 2428   1.116   1.395   0.701 -0.3261 -0.1325 -0.1048
  810SOL    HW1 2429   1.130   1.405   0.805  0.7654 -0.6162  0.6041
  810SOL    HW2 2430   1.051   1.319   0.681  1.9381 -1.8167 -1.9383
  811SOL     OW 2431   1.293   2.917   1.120 -0.1201  0.2458  0.3030
  811SOL    HW1 2432   1.349   2.835   1.133 -0.8570 -0.3047  1.3390
  811SOL    HW2 2433   1.323   2.997   1.181  1.2851 -0.9330  0.6443
  812SOL     OW 2434   1.260   0.071   0.405  0.3480 -0.4512  0.6893
  812SOL    HW1 2435   1.330   0.010   0.447 -2.6349  0.1275  0.5498
  812SOL    HW2 2436   1.176   0.077   0.458  0.0385  0.7559  0.4346
  813SOL     OW 2437   1.077   2.991   2.282  0.5054  0.5610  0.0027
  813SOL    HW1 2438   0.997   2.934   2.249 -1.3014 -2.3927  1.1810
  813SOL    HW2 2439   1.159   2.930   2.308 -0.9158  0.4946  1.1848
  814SOL     OW 2440   1.047   2.873   1.237 -0.5470 -0.0308  0.1865
  814SOL    HW1 2441   0.975   2.815   1.194 -1.0825  1.9823  2.5542
  814SOL    HW2 2442   1.125   2.890   1.172  0.1583 -0.6452  0.0248
  815SOL     OW 2443   0.187   2.420   0.503 -0.0034  0.2800 -0.3443
  815SOL    HW1 2444   0.177   2.441   0.402  0.0847  3.3274 -2.8158
  815SOL    HW2 2445   0.145   2.501   0.560 -1.7042 -1.7629  2.3100
  816SOL     OW 2446   2.262   1.246   2.656 -0.3588  0.5029 -0.1711
  816SOL    HW1 2447   2.281   1.210   2.750  0.0018  0.2300 -0.9475
  816SOL    HW2 2448   2.347   1.232   2.603  0.1471  0.4287  0.3860
  817SOL     OW 2449   1.857   2.494   2.670 -1.1084 -0.0731 -0.2093
  817SOL    HW1 2450   1.948   2.452   2.707  3.4948 -0.5035 -1.4468
  817SOL    HW2 2451   1.865   2.529   2.575  0.1640  2.1190 -0.7630
  818SOL     OW 2452   1.015   1.096   0.333 -0.1825 -0.3841  0.4082
  818SOL    HW1 2453   0.985   1.040   0.410 -1.9054  2.8897 -0.9244
  818SOL    HW2 2454   1.099   1.060   0.285  1.8801 -0.0016 -0.4916
  819SOL     OW 2455   1.545   1.908   0.127  0.2567 -0.2477 -0.3869
  819SOL    HW1 2456   1.480   1.920   0.203  0.3711  1.7519 -0.3434
  819SOL    HW2 2457   1.498   1.915   0.035  0.7181 -0.4648  0.1129
  820SOL     OW 2458   0.571   0.821   0.119  0.0901  0.1247 -0.2301
  820SOL    HW1 2459   0.516   0.734   0.118 -3.5309 -3.9265  1.6028
  820SOL    HW2 2460   0.528   0.897   0.070 -0.1836 -0.2089  1.6618
  821SOL     OW 2461   0.340   0.064   1.486  0.3744  0.3632 -0.3733
  821SOL    HW1 2462   0.389   0.136   1.540 -4.0110 -1.9879 -2.0010
  821SOL    HW2 2463   0.320   0.098   1.391 -1.0092 -1.6382  0.2044
  822SOL     OW 2464   1.977   2.264   2.441 -0.7358  0.1465 -0.2908
  822SOL    HW1 2465   1.899   2.324   2.459  1.6706 -0.1441 -0.3368
  822SOL    HW2 2466   1.993   2.196   2.510  0.8694  2.9872 -2.2947
  823SOL     OW 2467   0.652   0.630   1.898  0.4520 -0.2288  0.3990
  823SOL    HW1 2468   0.717   0.592   1.964 -0.9685  1.9138  0.6964
  823SOL    HW2 2469   0.555   0.628   1.931  0.1795  1.2239  1.0060
  824SOL     OW 2470   2.300   0.038   1.748 -0.1362  0.4221 -0.2954
  824SOL    HW1 2471   2.294   0.138   1.738 -1.7559 -1.1600  0.8945
  824SOL    HW2 2472   2.209   3.080   1.712  2.7213 -0.7412  1.1605
  825SOL     OW 2473   0.434   1.223   2.707 -0.4460  0.2053 -0.0791
  825SOL    HW1 2474   0.418   1.233   2.812  0.1579  2.1118  1.5372
  825SOL    HW2 2475   0.533   1.246   2.694  0.4970  0.1407  2.9059
  826SOL     OW 2476   1.822   0.481   2.610  0.2997  0.0706  0.2174
  826SOL    HW1 2477   1.845   0.571   2.568 -0.5647  1.6910 -0.0346
  826SOL    HW2 2478   1.905   0.433   2.639  1.4802  3.3616 -0.4187
  827SOL     OW 2479   0.756   2.416   2.413 -0.0781  0.1191 -0.1004
  827SOL    HW1 2480   0.678   2.416   2.478  2.5388  2.0290  2.2242
  827SOL    HW2 2481   0.729   2.403   2.315 -0.0873 -0.5785 -0.5386
  828SOL     OW 2482   2.663   0.114   1.485 -0.0938  0.0969 -0.5883
  828SOL    HW1 2483   2.732   0.059   1.438  0.2453  2.5343 -0.6150
  828SOL    HW2 2484   2.626   0.182   1.418 -0.4782 -1.9396  0.2838
  829SOL     OW 2485   1.372   1.698   1.462 -0.3417  0.0821  0.3178
  829SOL    HW1 2486   1.440   1.643   1.507  0.2162 -0.7276  0.6867
  829SOL    HW2 2487   1.369   1.680   1.364 -0.9848  0.1360  2.7172
  830SOL     OW 2488   0.747   0.871   1.937  0.4793 -0.1241 -0.5126
  830SOL    HW1 2489   0.706   0.781   1.914 -0.9104  2.6179  1.5859
  830SOL    HW2 2490   0.731   0.897   2.035  0.7242  1.6385  0.3675
  831SOL     OW 2491   2.900   1.703   0.314 -0.6270 -0.6946  1.0150
  831SOL    HW1 2492   2.854   1.734   0.223 -0.9348  1.6428 -0.2830
  831SOL    HW2 2493   2.995   1.732   0.315 -4.5681  2.0673 -1.1131
  832SOL     OW 2494   1.236   2.814   0.428 -0.0285 -0.5517 -0.5555
  832SOL    HW1 2495   1.161   2.860   0.378 -0.6811  0.6528 -1.8158
  832SOL    HW2 2496   1.292   2.882   0.468  0.7339 -0.2180 -0.1406
  833SOL     OW 2497   2.787   0.519   1.568 -0.2517 -0.2819 -0.1878
  833SOL    HW1 2498   2.840   0.516   1.657 -0.7444  0.6980 -0.3245
  833SOL    HW2 2499   2.692   0.486   1.580  2.2426  0.1301 -0.1445
  834SOL     OW 2500   0.109   0.755   0.873 -0.3979  0.0802 -0.1485
  834SOL    HW1 2501   0.156   0.816   0.942 -1.0310  0.8321  1.5832
  834SOL    HW2 2502   0.174   0.721   0.801 -2.5361 -0.5098  0.8868
  835SOL     OW 2503   2.631   2.937   0.794 -0.2496 -0.2127 -0.5211
  835SOL    HW1 2504   2.669   3.031   0.822  0.4716  1.6537  1.2456
  835SOL    HW2 2505   2.715   2.876   0.778  0.6296  1.8999 -1.2761
  836SOL     OW 2506   1.023   1.846   2.836 -0.3869 -0.5895 -0.3301
  836SOL    HW1 2507   0.999   1.943   2.851 -3.0520  0.2130 -1.6948
  836SOL    HW2 2508   1.055   1.804   2.918 -0.9911  1.7275 -1.6747
  837SOL     OW 2509   1.634   1.643   0.190  0.0489 -0.2839 -0.1224
  837SOL    HW1 2510   1.617   1.726   0.133  0.2378 -0.3808 -0.5040
  837SOL    HW2 2511   1.547   1.610   0.234  0.1450  0.6477  1.9806
  838SOL     OW 2512   2.848   0.633   2.436 -0.6695  0.1979 -0.4231
  838SOL    HW1 2513   2.928   0.691   2.427 -0.6027 -0.3823  0.4916
  838SOL    HW2 2514   2.779   0.692   2.479 -0.1049  2.0179 -0.8321
  839SOL     OW 2515   0.617   0.982   2.499  0.3071 -0.1158 -0.0318
  839SOL    HW1 2516   0.551   1.056   2.467  0.5870  1.9084 -0.9814
  839SOL    HW2 2517   0.606   0.972   2.602 -0.7001 -1.4374  1.7334
  840SOL     OW 2518   1.147   0.735   2.950  0.1087 -0.1437 -0.7022
  840SOL    HW1 2519   1.225   0.700   3.007 -0.9472  2.6151  0.6101
  840SOL    HW2 2520   1.087   0.788   3.009 -1.7396 -1.2976 -0.2362
  841SOL     OW 2521   0.555   2.771   0.705 -0.0619 -1.1945  0.0012
  841SOL    HW1 2522   0.549   2.712   0.788  1.1043  2.4866  1.0671
  841SOL    HW2 2523   0.570   2.866   0.742  0.7319 -1.6382 -1.1370
  842SOL     OW 2524   0.702   0.658   0.547 -0.1805 -0.3185 -0.1829
  842SOL    HW1 2525   0.675   0.566   0.514 -0.8169  4.2873  2.4778
  842SOL    HW2 2526   0.632   0.731   0.520  0.3156 -0.0159  1.2181
  843SOL     OW 2527   0.428   0.832   1.191 -0.1209 -0.8597  0.0285
  843SOL    HW1 2528   0.453   0.736   1.171  0.9085  1.1723  2.2068
  843SOL    HW2 2529   0.372   0.870   1.113 -1.9379 -1.4925 -0.6055
  844SOL     OW 2530   2.106   2.469   2.768  0.0656 -0.2878 -0.0110
  844SOL    HW1 2531   2.141   2.560   2.749  1.8413  0.8554 -0.3466
  844SOL    HW2 2532   2.168   2.404   2.722 -1.0145  1.6521 -0.9856
  845SOL     OW 2533   2.062   3.073   1.640 -0.1091  0.2983  0.5498
  845SOL    HW1 2534   2.072   3.025   1.555  0.7059  2.1680  1.3731
  845SOL    HW2 2535   1.965   3.067   1.674  3.1527  2.4993 -2.6731
  846SOL     OW 2536   1.913   1.415   2.398  0.0129  0.1331  0.2085
  846SOL    HW1 2537   1.956   1.356   2.329 -1.4337 -0.1215  0.8041
  846SOL    HW2 2538   1.950   1.399   2.495 -1.4252  0.0240  2.5743
  847SOL     OW 2539   1.932   3.009   1.985  0.2705  0.8330 -0.5308
  847SOL    HW1 2540   1.853   2.945   1.967 -1.6267 -1.7177  1.3418
  847SOL    HW2 2541   2.014   2.966   1.940  1.0433 -1.3089 -2.3586
  848SOL     OW 2542   0.167   2.868   0.169 -0.4861  0.9615  0.3868
  848SOL    HW1 2543   0.129   2.882   0.075  0.4554 -1.1818 -2.1543
  848SOL    HW2 2544   0.097   2.866   0.243  1.7665  0.3186 -0.9599
  849SOL     OW 2545   0.299   2.690   1.248 -0.0728 -0.5290  0.3128
  849SOL    HW1 2546   0.240   2.730   1.320  1.9377  1.9041  1.3158
  849SOL    HW2 2547   0.301   2.758   1.171 -2.0791  1.9776  1.8537
  850SOL     OW 2548   0.405   1.730   0.553  0.1225  0.1612 -0.1106
  850SOL    HW1 2549   0.464   1.741   0.636 -0.0694  1.5001 -0.6797
  850SOL    HW2 2550   0.457   1.740   0.465  1.2918  0.2831 -0.5670
  851SOL     OW 2551   2.364   0.722   3.007 -0.2750 -0.0063 -0.0347
  851SOL    HW1 2552   2.286   0.665   2.973 -0.6617 -0.5228 -0.6560
  851SOL    HW2 2553   2.437   0.736   2.939  1.8342  0.1688 -0.7905
  852SOL     OW 2554   1.931   2.022   2.578 -0.4027 -0.3025  0.4828
  852SOL    HW1 2555   1.853   1.979   2.521 -1.5506 -2.0743 -3.2199
  852SOL    HW2 2556   1.907   2.008   2.674 -2.2814  0.0037 -1.6160
  853SOL     OW 2557   0.546   1.837   0.309 -0.2594  0.6535  0.0564
  853SOL    HW1 2558   0.527   1.790   0.219  0.3269 -0.7072 -4.0909
  853SOL    HW2 2559   0.634   1.882   0.302 -1.2493 -0.2773  1.3524
  854SOL     OW 2560   1.679   1.088   2.114  0.2307  0.4083 -0.3182
  854SOL    HW1 2561   1.643   0.996   2.147 -0.7727 -0.4086  2.1039
  854SOL    HW2 2562   1.628   1.124   2.038  1.6512  1.9763 -0.4747
  855SOL     OW 2563   0.655   2.348   2.986  0.7977 -0.2499 -0.4468
  855SOL    HW1 2564   0.692   2.299   3.068  0.1191 -2.2750  0.1896
  855SOL    HW2 2565   0.555   2.340   2.972 -1.7750  0.9999 -1.1476
  856SOL     OW 2566   0.270   3.054   2.052  0.1632  0.2274 -0.1264
  856SOL    HW1 2567   0.301   3.064   1.952  1.3132  0.7468 -0.6673
  856SOL    HW2 2568   0.357   3.068   2.114 -1.3147  2.3005  0.0636
  857SOL     OW 2569   0.715   0.239   1.857 -0.2133 -0.2480  0.1629
  857SOL    HW1 2570   0.740   0.174   1.935 -0.7066 -0.4373 -1.5592
  857SOL    HW2 2571   0.631   0.289   1.882 -2.1437  0.1343  0.3109
  858SOL     OW 2572   0.295   1.830   2.203  0.3831  0.0736 -0.0966
  858SOL    HW1 2573   0.311   1.892   2.282  2.2829 -1.0092 -0.9140
  858SOL    HW2 2574   0.289   1.890   2.120  0.6140  0.3204  0.3746
  859SOL     OW 2575   1.973   2.395   1.480  0.5243  0.1674 -0.3581
  859SOL    HW1 2576   2.048   2.376   1.418 -1.0661 -2.7817 -0.2679
  859SOL    HW2 2577   1.969   2.496   1.498  3.2589 -1.5571  1.3068
  860SOL     OW 2578   1.733   0.430   0.662  0.0007 -0.6575 -0.4954
  860SOL    HW1 2579   1.712   0.457   0.756 -1.7483 -1.3229 -2.1998
  860SOL    HW2 2580   1.645   0.408   0.611  1.3719 -0.4316 -2.0247
  861SOL     OW 2581   0.122   0.540   1.043  0.4173  0.5107  0.2265
  861SOL    HW1 2582   0.107   0.631   1.001 -2.0337  1.1183  0.8325
  861SOL    HW2 2583   0.042   0.475   1.040 -1.0931  0.2885 -0.4419
  862SOL     OW 2584   2.260   0.860   1.362 -0.2124  0.4286 -0.4101
  862SOL    HW1 2585   2.209   0.812   1.435  1.1497 -1.9019  1.5021
  862SOL    HW2 2586   2.235   0.955   1.355  1.2424 -0.8944  0.2592
  863SOL     OW 2587   0.293   1.244   1.238 -0.2096 -0.2566 -0.3162
  863SOL    HW1 2588   0.246   1.205   1.321 -0.7216  0.9996 -1.4493
  863SOL    HW2 2589   0.388   1.253   1.254 -1.6371  1.0872  0.5096
  864SOL     OW 2590   2.463   3.018   1.960  0.3403 -0.1170 -0.4754
  864SOL    HW1 2591   2.556   3.045   1.935  2.4176 -0.6649 -2.8850
  864SOL    HW2 2592   2.397   3.062   1.897  3.5213  0.1141 -3.6068
  865SOL     OW 2593   0.981   0.396   2.322 -0.0418 -0.2062 -0.2881
  865SOL    HW1 2594   0.982   0.386   2.220 -0.3815  0.3003  0.5580
  865SOL    HW2 2595   1.068   0.401   2.364 -1.4936 -0.1729  1.6871
  866SOL     OW 2596   2.432   2.787   0.675 -0.1044 -0.4085  0.0584
  866SOL    HW1 2597   2.504   2.853   0.695 -2.8830 -0.4871 -0.1539
  866SOL    HW2 2598   2.461   2.700   0.634 -1.0570 -0.9315  2.0629
  867SOL     OW 2599   2.864   2.797   0.764  0.0653 -0.2361  0.1250
  867SOL    HW1 2600   2.799   2.720   0.770  0.8318 -2.4953  0.8847
  867SOL    HW2 2601   2.923   2.816   0.845 -1.4177  1.2514  0.7642
  868SOL     OW 2602   1.637   1.694   2.924  0.2205 -0.3153 -0.1566
  868SOL    HW1 2603   1.721   1.674   2.979 -0.4544 -0.2627 -5.1661
  868SOL    HW2 2604   1.648   1.778   2.868  0.2946 -1.7450  2.3849
  869SOL     OW 2605   2.663   2.222   0.640  0.0729 -0.2562 -0.2366
  869SOL    HW1 2606   2.613   2.204   0.730 -0.1491  0.9804  1.3320
  869SOL    HW2 2607   2.604   2.259   0.562  2.2359  1.5050  1.8840
  870SOL     OW 2608   2.696   2.180   0.235 -0.4365 -0.1719  0.8078
  870SOL    HW1 2609   2.625   2.237   0.279  2.4967 -1.0889 -1.6631
  870SOL    HW2 2610   2.716   2.100   0.292 -1.1139  0.4334 -3.3940
  871SOL     OW 2611   0.196   1.206   0.977  0.1286  0.3142  0.2836
  871SOL    HW1 2612   0.228   1.237   1.067 -0.8203 -0.6016 -1.8724
  871SOL    HW2 2613   0.225   1.277   0.910  3.3465 -0.9568  2.6446
  872SOL     OW 2614   1.002   1.764   2.331 -0.0863  0.1682 -0.1464
  872SOL    HW1 2615   0.961   1.750   2.240  0.5526  0.5370 -3.2622
  872SOL    HW2 2616   0.955   1.840   2.382  1.6745  2.3152  1.9535
  873SOL     OW 2617   0.387   3.080   1.811  0.1842 -0.3548 -0.2138
  873SOL    HW1 2618   0.331   0.045   1.740 -1.1298 -2.6978 -1.0953
  873SOL    HW2 2619   0.486   3.067   1.783 -1.9635 -0.0449 -0.6449
  874SOL     OW 2620   0.833   0.585   2.100  0.1015 -0.2916 -0.2863
  874SOL    HW1 2621   0.830   0.680   2.140 -1.3509 -0.2001 -1.8390
  874SOL    HW2 2622   0.913   0.540   2.138  0.2208  0.3201 -0.2913
  875SOL     OW 2623   2.912   0.166   1.167 -0.3711  0.0208 -0.5766
  875SOL    HW1 2624   2.920   0.249   1.227  0.3946 -2.0969 -0.4262
  875SOL    HW2 2625   2.884   0.080   1.214  1.3438  3.0756  0.1591
  876SOL     OW 2626   0.580   1.184   0.367  0.1072  0.0224  0.2981
  876SOL    HW1 2627   0.521   1.103   0.346 -2.5828 -0.0761 -1.2197
  876SOL    HW2 2628   0.651   1.196   0.289  0.6622 -0.8321 -0.8443
  877SOL     OW 2629   1.101   1.098   1.664  0.1032  0.1723 -0.2757
  877SOL    HW1 2630   1.175   1.045   1.623 -3.2202 -0.3762  0.9776
  877SOL    HW2 2631   1.030   1.032   1.699 -0.0964  0.2883 -0.4156
  878SOL     OW 2632   2.363   2.097   0.488 -0.3482 -0.5545  0.0840
  878SOL    HW1 2633   2.386   2.024   0.422 -0.7287 -0.9550  1.8008
  878SOL    HW2 2634   2.417   2.183   0.463 -1.6816 -0.5255 -2.0578
  879SOL     OW 2635   2.554   1.578   1.604 -0.4629 -0.1320 -0.2581
  879SOL    HW1 2636   2.586   1.529   1.522  2.0725  0.1043  0.4877
  879SOL    HW2 2637   2.598   1.670   1.611 -3.1252  2.4891  5.6465
  880SOL     OW 2638   1.178   2.623   0.888 -0.3393  0.1370 -0.6010
  880SOL    HW1 2639   1.230   2.710   0.874  0.3512 -0.9078  0.0556
  880SOL    HW2 2640   1.175   2.593   0.985  0.2917  0.2421  4.0791
  881SOL     OW 2641   0.466   2.021   0.473 -0.3290  0.1907  0.1855
  881SOL    HW1 2642   0.503   1.933   0.431  2.3152 -0.9590  0.0198
  881SOL    HW2 2643   0.396   2.071   0.417  1.5264  0.2388 -1.3528
  882SOL     OW 2644   1.860   0.798   0.738  0.5763  0.1592  0.6844
  882SOL    HW1 2645   1.799   0.799   0.657 -1.5318  2.4920 -0.0440
  882SOL    HW2 2646   1.956   0.814   0.708 -1.6196  0.8965  0.0598
  883SOL     OW 2647   1.484   0.713   1.027 -0.1562 -0.1005 -0.0747
  883SOL    HW1 2648   1.389   0.699   0.990  0.5681 -0.7503  1.1962
  883SOL    HW2 2649   1.510   0.813   1.012 -3.3975  0.0158  0.8617
  884SOL     OW 2650   2.765   2.818   0.304 -0.1820 -0.0845 -0.1765
  884SOL    HW1 2651   2.814   2.900   0.264  0.4182  2.9230  3.8855
  884SOL    HW2 2652   2.828   2.785   0.378  2.7873  1.6824  4.8667
  885SOL     OW 2653   0.984   1.297   2.495  0.1747 -0.1560  0.2371
  885SOL    HW1 2654   1.066   1.316   2.551 -1.2185  0.0052  1.0494
  885SOL    HW2 2655   1.003   1.317   2.395  1.0445 -0.0908  0.8593
  886SOL     OW 2656   1.274   1.786   2.648  0.1810  0.2779  0.0342
  886SOL    HW1 2657   1.184   1.794   2.699 -1.0388 -0.2965 -0.0724
  886SOL    HW2 2658   1.291   1.867   2.597 -1.3802 -3.3838 -3.7309
  887SOL     OW 2659   1.080   0.446   1.149 -0.1428  0.3542 -0.3111
  887SOL    HW1 2660   1.138   0.437   1.067 -1.1904  1.0604 -1.2352
  887SOL    HW2 2661   1.137   0.484   1.228  0.8819  1.5936 -0.1007
  888SOL     OW 2662   2.131   0.629   1.873  0.0746 -0.3908 -0.1211
  888SOL    HW1 2663   2.151   0.543   1.925 -0.3928  0.7356  1.0512
  888SOL    HW2 2664   2.073   0.692   1.930 -1.1210  1.3966  1.6618
  889SOL     OW 2665   0.058   2.137   0.851  0.3350  0.2751  0.0276
  889SOL    HW1 2666   0.095   2.139   0.756 -0.8506  0.3560 -0.7318
  889SOL    HW2 2667   0.088   2.219   0.906 -0.2715  1.5204 -1.1357
  890SOL     OW 2668   1.505   2.219   0.545 -0.2840  0.4417 -0.4802
  890SOL    HW1 2669   1.575   2.145   0.549 -0.4334 -0.7148 -1.1894
  890SOL    HW2 2670   1.417   2.184   0.510  0.0300  0.4760 -1.3346
  891SOL     OW 2671   2.739   0.896   3.006  0.1294  0.1141  0.5293
  891SOL    HW1 2672   2.706   0.952   0.006 -1.2539  0.6962  0.6237
  891SOL    HW2 2673   2.826   0.929   2.965  0.5705  0.1918 -1.9998
  892SOL     OW 2674   2.839   2.370   1.055  0.0018 -0.1922  0.0629
  892SOL    HW1 2675   2.826   2.458   1.010  2.0787 -0.9499 -2.5560
  892SOL    HW2 2676   2.894   2.391   1.139 -0.7302  0.0047  1.1128
  893SOL     OW 2677   1.233   0.439   0.925  0.6684  0.5371 -0.1478
  893SOL    HW1 2678   1.328   0.413   0.896 -0.2550 -1.6033  2.5709
  893SOL    HW2 2679   1.216   0.540   0.915  0.9698  1.4271  1.8758
  894SOL     OW 2680   2.990   0.489   0.745 -0.4653 -0.4342 -0.5113
  894SOL    HW1 2681   2.898   0.531   0.762 -0.0768  2.1375  0.3292
  894SOL    HW2 2682   3.050   0.535   0.676  1.5292  0.9577  0.2692
  895SOL     OW 2683   1.638   1.546   2.536  0.2931 -0.6169  0.8435
  895SOL    HW1 2684   1.559   1.600   2.496 -0.2754  1.2436 -2.6346
  895SOL    HW2 2685   1.721   1.544   2.472  2.5533 -0.5316 -1.5682
  896SOL     OW 2686   1.756   0.516   1.372 -0.1848 -0.1687  0.2281
  896SOL    HW1 2687   1.713   0.427   1.399  1.7847  0.0063  0.2859
  896SOL    HW2 2688   1.763   0.520   1.267  2.1989 -0.6853 -1.3531
  897SOL     OW 2689   0.126   1.431   1.413  0.5897  0.0724 -0.0776
  897SOL    HW1 2690   0.215   1.440   1.466 -0.4478 -1.3942  1.6492
  897SOL    HW2 2691   0.137   1.436   1.309 -0.5150  1.8561 -1.7673
  898SOL     OW 2692   2.057   2.589   2.122 -0.6032 -0.1155 -0.1399
  898SOL    HW1 2693   2.055   2.577   2.024 -1.0901 -0.6881  5.0256
  898SOL    HW2 2694   2.099   2.505   2.167 -1.4367 -1.4436  4.1755
  899SOL     OW 2695   1.204   1.760   1.108 -0.2471  0.7132  0.0712
  899SOL    HW1 2696   1.210   1.851   1.152 -0.6608  0.2900 -0.7295
  899SOL    HW2 2697   1.125   1.758   1.042 -1.3687 -1.3516  1.4520
  900SOL     OW 2698   1.345   2.009   2.475  0.2226  0.0449  0.0255
  900SOL    HW1 2699   1.381   1.987   2.386 -0.6927  1.8423  3.0984
  900SOL    HW2 2700   1.258   2.062   2.468  2.0529 -0.1381  0.2250
  901SOL     OW 2701   0.922   1.588   2.114 -0.2566  0.2748 -0.1425
  901SOL    HW1 2702   0.962   1.583   2.018  0.0569 -0.5373 -2.9348
  901SOL    HW2 2703   0.964   1.520   2.176  1.0643  0.0501 -0.6328
  902SOL     OW 2704   2.397   1.459   0.401 -0.5680  0.1630 -0.0968
  902SOL    HW1 2705   2.464   1.414   0.337  2.1026  0.5531  0.7896
  902SOL    HW2 2706   2.393   1.406   0.487  0.7936  0.4736 -0.2328
  903SOL     OW 2707   2.146   1.493   0.298  0.1573  0.2550 -0.4876
  903SOL    HW1 2708   2.238   1.457   0.330  3.8521 -3.4022 -2.8600
  903SOL    HW2 2709   2.074   1.496   0.370  1.1937  0.3930 -0.4029
  904SOL     OW 2710   1.181   1.054   2.242  0.1913 -0.2530  0.1321
  904SOL    HW1 2711   1.239   1.019   2.168 -1.4286  1.9298 -1.7686
  904SOL    HW2 2712   1.226   1.058   2.332  0.4829  2.0712 -1.1220
  905SOL     OW 2713   2.813   0.050   0.889 -0.1882  0.4980  0.5695
  905SOL    HW1 2714   2.866   0.101   0.822 -2.4119 -1.7209 -1.3881
  905SOL    HW2 2715   2.830   0.077   0.989  1.3742 -0.8517 -0.8158
  906SOL     OW 2716   0.116   2.065   0.219 -0.1872  0.3209  0.4269
  906SOL    HW1 2717   0.175   2.104   0.291  1.1537 -2.3534  0.3496
  906SOL    HW2 2718   0.103   1.966   0.218 -0.2318  3.4703 -3.2842
  907SOL     OW 2719   1.513   0.233   0.064  0.0821  0.0319  0.1407
  907SOL    HW1 2720   1.445   0.158   0.088  0.6502 -0.5161 -0.0595
  907SOL    HW2 2721   1.560   0.264   0.150  1.8861  1.1960 -0.5007
  908SOL     OW 2722   1.704   2.713   1.546 -0.3754  0.1090 -0.0893
  908SOL    HW1 2723   1.806   2.709   1.533 -1.1053 -1.9354  2.2232
  908SOL    HW2 2724   1.682   2.702   1.645 -2.2997  1.4338 -2.3324
  909SOL     OW 2725   2.523   0.670   1.653  0.7513  0.4204  0.1380
  909SOL    HW1 2726   2.451   0.701   1.718 -0.5324 -1.1371  1.1442
  909SOL    HW2 2727   2.613   0.689   1.697 -1.0425 -0.2300  0.0444
  910SOL     OW 2728   1.164   0.084   2.452 -0.8838  0.2612  0.0402
  910SOL    HW1 2729   1.253   0.123   2.420  0.8344  2.1272  1.7416
  910SOL    HW2 2730   1.135   0.018   2.386  0.2101  2.1781  3.6771
  911SOL     OW 2731   2.483   1.228   2.503 -0.3868  0.0359  0.4603
  911SOL    HW1 2732   2.549   1.299   2.540  0.7652  3.1600 -0.3188
  911SOL    HW2 2733   2.509   1.207   2.407  1.3445  3.5344 -0.7709
  912SOL     OW 2734   2.271   2.076   1.639  0.0183  0.2525 -0.0209
  912SOL    HW1 2735   2.325   2.158   1.611 -1.6160  0.5396  2.0060
  912SOL    HW2 2736   2.305   1.987   1.600  2.6440 -1.6743 -0.4980
  913SOL     OW 2737   2.415   2.505   1.340 -0.1854 -0.2590  0.4603
  913SOL    HW1 2738   2.487   2.449   1.291 -0.1135  0.9780 -2.7133
  913SOL    HW2 2739   2.440   2.605   1.325 -0.2758  1.3618 -1.7336
  914SOL     OW 2740   2.445   1.950   1.388  0.2005 -0.4242  0.4589
  914SOL    HW1 2741   2.420   1.859   1.429  2.7729 -2.4876  0.4828
  914SOL    HW2 2742   2.362   1.999   1.350 -2.0491  1.2746  1.8500
  915SOL     OW 2743   1.140   2.481   1.389 -0.1512 -0.1223 -0.2895
  915SOL    HW1 2744   1.063   2.427   1.430  0.9698  1.2233 -0.4243
  915SOL    HW2 2745   1.227   2.426   1.396  1.3215  0.1747  0.4358
  916SOL     OW 2746   2.864   2.652   1.019  0.0353 -0.2269  1.0289
  916SOL    HW1 2747   2.911   2.706   1.090 -1.4123 -0.1771  0.7841
  916SOL    HW2 2748   2.767   2.681   1.021 -1.8231  0.6771  3.2130
  917SOL     OW 2749   2.782   1.233   2.792  0.0799 -0.0207 -0.0954
  917SOL    HW1 2750   2.861   1.282   2.831  1.1023 -2.2764 -0.4305
  917SOL    HW2 2751   2.759   1.276   2.700 -0.2350 -2.1578  2.6669
  918SOL     OW 2752   1.697   1.936   2.442  0.5972  0.5295  0.6408
  918SOL    HW1 2753   1.640   1.992   2.377  0.1271 -0.4774 -0.7272
  918SOL    HW2 2754   1.672   1.836   2.448  3.7842 -0.0051  1.2885
  919SOL     OW 2755   1.554   2.148   1.390 -0.0478 -0.2254  0.9199
  919SOL    HW1 2756   1.552   2.100   1.479  0.6663  2.6799  1.6084
  919SOL    HW2 2757   1.650   2.160   1.355  0.2933  1.0971 -0.6181
  920SOL     OW 2758   0.590   3.064   2.975  0.7337  0.1473  0.0548
  920SOL    HW1 2759   0.604   2.979   3.027  1.1162  0.6860  0.0161
  920SOL    HW2 2760   0.493   0.010   2.975 -2.1638  2.3102 -0.9962
  921SOL     OW 2761   2.572   0.101   2.540  0.7437  0.2840 -0.3041
  921SOL    HW1 2762   2.571   0.007   2.500  0.4817  0.7538  0.5566
  921SOL    HW2 2763   2.579   0.174   2.465 -1.0528 -1.9665  1.9889
  922SOL     OW 2764   2.328   1.736   1.569 -0.4743 -0.5776  0.2606
  922SOL    HW1 2765   2.401   1.668   1.571 -1.9871  1.1615  0.0289
  922SOL    HW2 2766   2.279   1.732   1.658  1.4594 -1.5779 -2.5665
  923SOL     OW 2767   1.089   2.058   0.162  0.0021  0.0107 -0.1527
  923SOL    HW1 2768   1.030   2.115   0.221  0.8225  0.3620 -0.0375
  923SOL    HW2 2769   1.180   2.099   0.158  0.3934 -2.4408  0.3682
  924SOL     OW 2770   1.647   0.618   2.814 -0.1899  0.4958 -0.5799
  924SOL    HW1 2771   1.611   0.553   2.886 -0.5564 -0.2336  1.1767
  924SOL    HW2 2772   1.706   0.570   2.746 -1.9102 -0.4586  1.2053
  925SOL     OW 2773   2.651   0.861   0.351 -0.0302  0.2318  0.3222
  925SOL    HW1 2774   2.674   0.929   0.427 -0.5271  3.7135  0.0431
  925SOL    HW2 2775   2.556   0.832   0.360  2.4090  3.9461  1.3258
  926SOL     OW 2776   0.282   0.600   0.715  0.2224 -0.8268  0.4718
  926SOL    HW1 2777   0.309   0.504   0.728  1.5663  1.7207 -2.1902
  926SOL    HW2 2778   0.359   0.668   0.721  0.2948  1.3299  0.5678
  927SOL     OW 2779   0.927   1.258   0.552 -0.1145  0.4683 -0.1786
  927SOL    HW1 2780   0.965   1.219   0.467 -1.2085  1.1259 -0.9782
  927SOL    HW2 2781   0.869   1.344   0.544 -4.3123 -1.0921  1.8931
  928SOL     OW 2782   0.116   0.037   2.506  0.2318  0.6243 -0.1915
  928SOL    HW1 2783   0.206   3.078   2.498 -1.3549  0.7800 -2.3425
  928SOL    HW2 2784   0.107   0.122   2.442 -2.2424  3.2816 -0.6393
  929SOL     OW 2785   2.226   0.340   1.411  0.6038  0.9879  0.1273
  929SOL    HW1 2786   2.159   0.414   1.430 -0.6358  1.6454  1.4694
  929SOL    HW2 2787   2.322   0.360   1.440 -2.9478  1.2622  0.1969
  930SOL     OW 2788   1.808   2.211   1.338  0.2027  0.1508  0.0628
  930SOL    HW1 2789   1.850   2.255   1.422  0.7327  2.3017  0.7709
  930SOL    HW2 2790   1.869   2.132   1.303  1.7364 -0.7764 -1.5612
  931SOL     OW 2791   1.832   0.963   0.967  0.7275  1.0137  0.3437
  931SOL    HW1 2792   1.854   0.900   0.893  1.3240 -0.9846  1.3261
  931SOL    HW2 2793   1.916   0.996   1.011  0.8029  1.4279 -1.6286
  932SOL     OW 2794   3.051   0.842   1.186  0.2315 -0.7485  0.3428
  932SOL    HW1 2795   3.014   0.748   1.198  1.1366 -0.7931  2.7644
  932SOL    HW2 2796   0.042   0.865   1.252 -0.2340  1.2716  0.3968
  933SOL     OW 2797   2.471   1.625   2.002 -0.5768  0.3401  0.0580
  933SOL    HW1 2798   2.568   1.592   2.006  3.5618  0.1999  0.0001
  933SOL    HW2 2799   2.462   1.726   1.967  0.4891  3.8125 -0.4516
  934SOL     OW 2800   1.586   3.015   1.227 -0.1599 -0.2024  0.3821
  934SOL    HW1 2801   1.508   3.078   1.250  1.0009 -0.1223  0.2491
  934SOL    HW2 2802   1.615   3.024   1.133 -2.4199 -1.3393  1.1950
  935SOL     OW 2803   3.033   1.099   1.026  0.3568  0.5149  0.1256
  935SOL    HW1 2804   3.021   1.004   1.063 -0.5353 -1.5437  0.7693
  935SOL    HW2 2805   0.046   1.124   1.004  1.2181  0.2403 -1.1106
  936SOL     OW 2806   2.920   1.328   1.077  0.4645 -0.5176  0.0668
  936SOL    HW1 2807   2.947   1.232   1.062  0.1924  0.4451  0.6829
  936SOL    HW2 2808   2.815   1.330   1.083 -3.8292 -1.4418  0.9979
  937SOL     OW 2809   1.451   3.016   0.534 -0.0423 -0.2966  0.0331
  937SOL    HW1 2810   1.517   3.045   0.459  0.6588  0.3291  1.0600
  937SOL    HW2 2811   1.494   2.940   0.589  1.1209  0.4155  0.5561
  938SOL     OW 2812   2.936   2.317   0.668  0.4353  0.3325 -0.2418
  938SOL    HW1 2813   2.842   2.283   0.694 -2.2955  2.5247 -0.2138
  938SOL    HW2 2814   2.977   2.373   0.743 -2.3125  0.1631 -0.6995
  939SOL     OW 2815   0.947   2.115   2.910  0.1251 -0.3846  0.1612
  939SOL    HW1 2816   0.884   2.065   2.977 -3.0661 -1.6885  3.5174
  939SOL    HW2 2817   0.887   2.184   2.858 -0.4178 -0.0312 -1.8674
  940SOL     OW 2818   2.679   2.685   2.582  0.5370  0.4604  0.1466
  940SOL    HW1 2819   2.704   2.638   2.491 -0.0724 -1.2841 -1.6270
  940SOL    HW2 2820   2.655   2.615   2.653 -1.3823  0.0246  2.4322
  941SOL     OW 2821   1.187   2.897   0.032 -0.1319  0.2932 -0.5751
  941SOL    HW1 2822   1.112   2.910   0.103  1.2883 -1.5777 -0.2208
  941SOL    HW2 2823   1.208   2.795   0.040  4.4289 -2.3092  1.5670
  942SOL     OW 2824   1.715   1.804   1.503 -0.4048  0.1199 -0.3552
  942SOL    HW1 2825   1.685   1.714   1.535 -0.6324  0.8273 -0.8536
  942SOL    HW2 2826   1.672   1.879   1.560 -0.0742 -1.0681  0.1586
  943SOL     OW 2827   2.192   1.366   1.686  0.1306  0.2346  0.0225
  943SOL    HW1 2828   2.231   1.376   1.591  0.4258 -0.5639 -2.7159
  943SOL    HW2 2829   2.264   1.375   1.759  3.3289  2.0666 -1.4358
  944SOL     OW 2830   1.895   1.007   1.932  0.1528 -0.5112  0.1908
  944SOL    HW1 2831   1.917   1.085   1.868  0.8062  1.4408 -1.1831
  944SOL    HW2 2832   1.835   1.043   2.008  1.2183  1.0885  0.4000
  945SOL     OW 2833   2.799   3.017   1.279  0.4722  0.0347 -0.5012
  945SOL    HW1 2834   2.730   3.008   1.209 -0.0544  1.0669  1.3257
  945SOL    HW2 2835   2.882   2.961   1.263  3.5223 -0.2464  2.2565
  946SOL     OW 2836   0.759   1.081   1.776 -0.3626  0.3553  0.2503
  946SOL    HW1 2837   0.829   1.149   1.799 -0.2958 -0.2601  0.0870
  946SOL    HW2 2838   0.768   0.994   1.828  0.2721  1.7529 -2.4919
  947SOL     OW 2839   0.502   2.649   0.929 -0.5050  0.4963  0.4165
  947SOL    HW1 2840   0.528   2.716   0.999 -0.6709 -1.3234 -0.1916
  947SOL    HW2 2841   0.446   2.573   0.963  0.7775 -1.7421 -0.8025
  948SOL     OW 2842   3.031   1.184   1.805  0.4172  0.0085  0.4079
  948SOL    HW1 2843   3.040   1.189   1.909  0.5754 -0.9529  1.0915
  948SOL    HW2 2844   0.011   1.252   1.766 -0.6319 -1.4042  1.4006
  949SOL     OW 2845   0.398   0.659   2.232  0.1014  0.2458  0.0477
  949SOL    HW1 2846   0.470   0.686   2.299  1.3472 -1.1215 -1.5662
  949SOL    HW2 2847   0.383   0.555   2.240  2.1576  0.2650  1.6892
  950SOL     OW 2848   0.693   0.534   0.941  0.0036 -0.2766  0.1644
  950SOL    HW1 2849   0.636   0.617   0.911 -3.4200  0.7956 -1.5724
  950SOL    HW2 2850   0.785   0.543   0.894  1.9178 -0.4100  2.7129
  951SOL     OW 2851   1.137   1.797   1.852 -0.2416  0.9744 -0.0998
  951SOL    HW1 2852   1.130   1.863   1.931  0.1544  2.6369 -2.8099
  951SOL    HW2 2853   1.085   1.707   1.855  0.7589  0.2476  1.0971
  952SOL     OW 2854   0.917   1.318   2.885  0.2195 -0.7491 -0.0458
  952SOL    HW1 2855   0.936   1.380   2.963 -0.0829 -3.6466 -0.1251
  952SOL    HW2 2856   1.008   1.310   2.837  2.1629  0.3038  0.8700
  953SOL     OW 2857   1.270   2.804   2.328 -0.1579  0.1017  0.1436
  953SOL    HW1 2858   1.214   2.719   2.322  0.2455  3.4099  1.4435
  953SOL    HW2 2859   1.325   2.818   2.240 -0.9988 -1.4031 -1.9670
  954SOL     OW 2860   2.348   1.030   0.556 -0.0312  0.0114 -0.4854
  954SOL    HW1 2861   2.307   1.012   0.464  0.6462 -0.3405 -0.6074
  954SOL    HW2 2862   2.323   1.127   0.590 -0.9812 -0.6523  0.7291
  955SOL     OW 2863   0.341   2.006   2.399 -0.7702 -0.2508 -0.1733
  955SOL    HW1 2864   0.354   2.100   2.360 -0.5437  1.8880  0.8185
  955SOL    HW2 2865   0.270   2.011   2.473  0.5361 -0.7156 -1.6626
  956SOL     OW 2866   1.033   1.296   1.256 -0.1984 -0.8926  0.0856
  956SOL    HW1 2867   1.126   1.250   1.247  2.2207 -0.3213  2.4037
  956SOL    HW2 2868   0.987   1.323   1.171 -1.5850 -1.1891  1.7750
  957SOL     OW 2869   2.009   1.323   2.623  0.3661  0.1950  0.4868
  957SOL    HW1 2870   1.954   1.259   2.680  1.8338  3.8572 -1.3782
  957SOL    HW2 2871   2.112   1.302   2.632 -0.2835 -1.0083 -3.1999
  958SOL     OW 2872   1.564   2.649   0.904  0.4985 -0.3394  0.6385
  958SOL    HW1 2873   1.498   2.658   0.983  0.1213  2.5093  0.1801
  958SOL    HW2 2874   1.659   2.673   0.933 -0.8827 -0.9624  1.1140
  959SOL     OW 2875   1.626   1.609   2.186  0.2933  0.7824 -0.3329
  959SOL    HW1 2876   1.615   1.520   2.132 -1.4837 -1.5631 -0.2576
  959SOL    HW2 2877   1.566   1.617   2.270  0.6708 -1.0874 -0.4481
  960SOL     OW 2878   0.056   0.515   2.730 -0.2811 -0.2588 -0.1833
  960SOL    HW1 2879   0.118   0.586   2.696 -1.7831  0.1977 -0.8565
  960SOL    HW2 2880   0.109   0.444   2.787 -1.6207 -0.9821 -1.5337
  961SOL     OW 2881   0.395   0.601   1.965  0.0987  0.2977 -0.4128
  961SOL    HW1 2882   0.412   0.640   2.061 -0.4652 -3.4532  3.0954
  961SOL    HW2 2883   0.323   0.652   1.915 -0.5845  2.5337 -0.5792
  962SOL     OW 2884   1.400   1.527   0.306 -0.1048 -0.0951 -0.0184
  962SOL    HW1 2885   1.383   1.485   0.212 -0.1266  0.9158 -2.8305
  962SOL    HW2 2886   1.365   1.463   0.377  0.4832 -0.4742 -2.0759
  963SOL     OW 2887   1.761   2.192   3.010 -1.0360  0.3471 -0.3052
  963SOL    HW1 2888   1.831   2.260   2.971  1.4126  0.9768  0.7404
  963SOL    HW2 2889   1.665   2.226   2.994 -0.9397  1.9423 -3.3083
  964SOL     OW 2890   0.994   2.733   0.604 -0.4416 -0.0981  0.3273
  964SOL    HW1 2891   0.994   2.766   0.510  0.1337 -0.8710 -1.2256
  964SOL    HW2 2892   0.994   2.811   0.668  3.5378 -2.1304  0.2982
  965SOL     OW 2893   0.872   2.759   0.904 -0.2870  0.1544 -0.5290
  965SOL    HW1 2894   0.868   2.681   0.837 -0.6624 -0.1486  0.5108
  965SOL    HW2 2895   0.833   2.732   1.000 -2.1984 -1.8079  1.8063
  966SOL     OW 2896   0.029   1.754   2.878 -0.2730 -0.2939  0.2247
  966SOL    HW1 2897   0.052   1.691   2.804  1.5001 -0.1656 -2.1049
  966SOL    HW2 2898   3.023   1.732   2.928  0.3705  0.0781  0.4801
  967SOL     OW 2899   1.484   2.730   1.809 -0.6642  0.7581  0.1726
  967SOL    HW1 2900   1.417   2.664   1.843 -0.2112  0.5927 -1.4572
  967SOL    HW2 2901   1.439   2.789   1.737  1.1109 -0.8213 -1.4917
  968SOL     OW 2902   1.825   0.908   0.464  0.3140  0.2158 -0.7112
  968SOL    HW1 2903   1.820   0.819   0.415  0.4436 -1.7046  0.4423
  968SOL    HW2 2904   1.771   0.976   0.416 -0.0734 -1.9739 -0.8466
  969SOL     OW 2905   0.211   1.595   2.050 -0.0873  0.2372  0.2872
  969SOL    HW1 2906   0.246   1.553   1.964 -0.9495  1.6373 -0.1285
  969SOL    HW2 2907   0.279   1.659   2.088  0.2360  1.6926 -1.2551
  970SOL     OW 2908   2.717   1.526   1.343  0.1789 -0.2371 -0.2114
  970SOL    HW1 2909   2.752   1.601   1.291 -2.6636 -1.8292 -0.2490
  970SOL    HW2 2910   2.789   1.457   1.372 -0.6067  1.4975  1.4176
  971SOL     OW 2911   1.292   0.259   1.567 -0.1068 -0.5346 -0.3941
  971SOL    HW1 2912   1.229   0.215   1.504  3.2595  1.1030  2.2364
  971SOL    HW2 2913   1.367   0.196   1.599  0.1235  2.9381  1.6812
  972SOL     OW 2914   0.599   3.031   2.649 -0.1323  0.0984  0.3400
  972SOL    HW1 2915   0.685   3.003   2.694 -2.7458 -0.3112  1.3788
  972SOL    HW2 2916   0.579   0.035   2.694  1.6063  2.8407 -1.5165
  973SOL     OW 2917   2.853   1.249   0.529  0.2640  0.3693  0.2069
  973SOL    HW1 2918   2.855   1.296   0.618  1.2632  1.8852 -4.2930
  973SOL    HW2 2919   2.774   1.190   0.522  0.1290  1.8116  2.4282
  974SOL     OW 2920   1.910   1.358   2.000  0.4532  0.2397 -0.2944
  974SOL    HW1 2921   1.814   1.378   2.016 -0.4722 -2.7341 -0.6161
  974SOL    HW2 2922   1.957   1.305   2.073  1.3639 -1.1484 -3.1336
  975SOL     OW 2923   2.910   2.731   0.505 -0.4383  0.2578 -0.3260
  975SOL    HW1 2924   2.999   2.682   0.505  3.1816 -1.7887 -2.4190
  975SOL    HW2 2925   2.890   2.765   0.600 -2.5135  3.3634 -2.2711
  976SOL     OW 2926   0.020   1.576   1.706 -0.0326 -0.1799 -0.2619
  976SOL    HW1 2927   0.051   1.671   1.682 -1.5195 -0.2767  1.6949
  976SOL    HW2 2928   2.999   1.577   1.714 -3.2259  1.2570  0.0132
  977SOL     OW 2929   0.851   2.486   0.120 -0.1127  0.4888 -0.4357
  977SOL    HW1 2930   0.787   2.409   0.145 -0.5506 -2.1490  1.3656
  977SOL    HW2 2931   0.946   2.457   0.089  1.6130 -1.3914 -0.2791
  978SOL     OW 2932   0.749   2.010   3.068  0.1502  0.3919 -0.3234
  978SOL    HW1 2933   0.654   1.993   0.011  3.5512  1.7414 -0.5331
  978SOL    HW2 2934   0.815   1.990   0.062 -1.2564 -1.3881  0.2497
  979SOL     OW 2935   1.192   2.232   1.070 -0.2340  0.0153  0.5248
  979SOL    HW1 2936   1.290   2.212   1.065 -1.2867  0.0998  1.0543
  979SOL    HW2 2937   1.155   2.261   0.977  0.5165 -3.5538 -0.1904
  980SOL     OW 2938   0.395   1.412   2.309 -0.1375 -0.2814 -0.1485
  980SOL    HW1 2939   0.457   1.492   2.293  1.1648  1.3549  0.5043
  980SOL    HW2 2940   0.304   1.446   2.351 -0.3530  1.5400 -0.5705
  981SOL     OW 2941   2.715   0.500   2.654 -0.1650 -0.5933 -0.2840
  981SOL    HW1 2942   2.776   0.557   2.590  0.1377 -1.3474 -3.0939
  981SOL    HW2 2943   2.765   0.421   2.697 -0.9836 -0.7689  0.2508
  982SOL     OW 2944   2.945   2.713   2.671  0.1773 -0.3581  0.0647
  982SOL    HW1 2945   3.026   2.727   2.615 -0.9914  1.9521  0.0053
  982SOL    HW2 2946   2.861   2.693   2.616  2.9874 -0.9747  3.4389
  983SOL     OW 2947   2.201   0.709   1.600  0.3890  0.5125 -0.4025
  983SOL    HW1 2948   2.228   0.807   1.607 -1.4446 -0.2280 -1.5216
  983SOL    HW2 2949   2.167   0.678   1.689  1.2302  1.7335  0.1658
  984SOL     OW 2950   0.829   0.157   2.270  0.4082  0.6625 -0.1693
  984SOL    HW1 2951   0.914   0.206   2.292 -0.9164  1.4453  0.5849
  984SOL    HW2 2952   0.761   0.150   2.348 -1.3165  0.7590 -0.8609
  985SOL     OW 2953   1.468   1.997   2.160  0.4610  0.0230 -0.2934
  985SOL    HW1 2954   1.519   1.923   2.110 -1.3572  1.7688  1.4220
  985SOL    HW2 2955   1.508   2.089   2.156  1.8357  0.1936  2.2738
  986SOL     OW 2956   1.832   0.634   2.267  0.0219  0.1140  0.0615
  986SOL    HW1 2957   1.864   0.672   2.357  1.5280  2.2447 -0.1305
  986SOL    HW2 2958   1.860   0.538   2.250 -0.8818  1.9343  1.0969
  987SOL     OW 2959   2.136   0.587   2.349  0.2445  0.1922 -0.0725
  987SOL    HW1 2960   2.222   0.606   2.403  1.0943  1.8817  2.4752
  987SOL    HW2 2961   2.086   0.500   2.374 -1.5757 -1.7416 -0.6056
  988SOL     OW 2962   2.501   0.511   2.496 -0.0956  0.3147  0.4853
  988SOL    HW1 2963   2.581   0.513   2.557 -0.1892  2.4022 -2.9389
  988SOL    HW2 2964   2.422   0.563   2.535  0.1644  0.9490  0.1212
  989SOL     OW 2965   2.285   2.287   2.631 -0.0767 -0.6041 -0.5645
  989SOL    HW1 2966   2.314   2.209   2.688 -0.4762 -1.1622  0.7496
  989SOL    HW2 2967   2.265   2.246   2.541 -0.4842  1.3749 -0.2418
  990SOL     OW 2968   0.398   0.580   0.183  0.3468 -0.6822  0.1451
  990SOL    HW1 2969   0.396   0.544   0.277 -0.0753 -1.5328 -2.2315
  990SOL    HW2 2970   0.307   0.570   0.145  2.1033 -1.6021  1.0280
  991SOL     OW 2971   0.576   0.647   2.870 -0.5900  0.2799 -0.2086
  991SOL    HW1 2972   0.666   0.671   2.832  0.1600 -1.6900  0.6133
  991SOL    HW2 2973   0.587   0.576   2.946 -1.2722 -1.1393  0.5999
  992SOL     OW 2974   0.011   1.786   2.024  0.2089  0.2218 -0.1384
  992SOL    HW1 2975   0.058   1.863   2.072 -2.2674  3.0982  2.1037
  992SOL    HW2 2976   0.083   1.722   2.002 -1.3582  0.8380  0.2745
  993SOL     OW 2977   0.543   0.048   0.741 -0.4854  0.0676 -0.6404
  993SOL    HW1 2978   0.479   0.046   0.662  0.4693 -0.8161  2.7867
  993SOL    HW2 2979   0.619   0.110   0.731  0.1949  0.3175  1.2725
  994SOL     OW 2980   0.195   2.094   1.757  0.0748  0.2047  0.6518
  994SOL    HW1 2981   0.104   2.142   1.752 -0.7416 -0.1266  2.5652
  994SOL    HW2 2982   0.262   2.128   1.686  0.0417 -1.2391 -2.3869
  995SOL     OW 2983   2.210   1.465   2.962  0.3221 -0.7305 -0.1873
  995SOL    HW1 2984   2.297   1.493   2.917  2.6241 -2.5181  0.4974
  995SOL    HW2 2985   2.130   1.494   2.910 -0.4823  0.6547  0.8654
  996SOL     OW 2986   1.715   1.466   2.787  0.0256  0.4826  0.0570
  996SOL    HW1 2987   1.682   1.539   2.854  0.3738  0.2351 -1.5595
  996SOL    HW2 2988   1.694   1.491   2.692  0.8027  2.3311  0.6332
  997SOL     OW 2989   1.793   1.443   1.732 -0.1604 -0.5197 -1.2753
  997SOL    HW1 2990   1.837   1.439   1.825  2.9909  2.7324  4.0737
  997SOL    HW2 2991   1.751   1.357   1.702  2.1285  2.8435  0.3008
  998SOL     OW 2992   2.608   1.825   0.663 -0.0886  0.0136  0.5403
  998SOL    HW1 2993   2.518   1.862   0.698 -0.6419  0.0345  1.8931
  998SOL    HW2 2994   2.594   1.763   0.581 -0.0006  1.3514 -1.0031
  999SOL     OW 2995   2.467   2.564   0.542  0.1434  0.0014 -0.1405
  999SOL    HW1 2996   2.496   2.595   0.445 -1.9128 -0.1842 -2.1893
  999SOL    HW2 2997   2.376   2.523   0.533 -0.5632  0.0764  1.6485
 1000SOL     OW 2998   0.645   2.798   2.444  0.1323  0.5789 -0.0416
 1000SOL    HW1 2999   0.551   2.779   2.408  1.4390  0.4289  2.8833
 1000SOL    HW2 3000   0.709   2.802   2.368 -2.5535 -0.1520 -0.5464
   3.08310   3.08310   3.08310
