1000 SPC/Fw water molecules t= 117.00000 step= 117000
 3000
    1SOL     OW    1   2.188   2.341   0.716 -0.1640 -0.3781  0.0804
    1SOL    HW1    2   2.168   2.323   0.617  1.8360  0.7118  4.2966
    1SOL    HW2    3   2.287   2.328   0.735 -0.2539 -0.9161  0.1455
    2SOL     OW    4   1.618   1.659   2.261 -0.2626  0.0605 -0.6343
    2SOL    HW1    5   1.515   1.661   2.266 -0.8534  1.9248 -0.7117
    2SOL    HW2    6   1.649   1.568   2.287 -1.9883  0.6801 -1.6808
    3SOL     OW    7   1.344   2.321   2.262 -0.2252  0.0461  0.1845
    3SOL    HW1    8   1.352   2.366   2.176 -1.5898  0.9312  0.0661
    3SOL    HW2    9   1.414   2.250   2.270 -4.1707  1.0537  0.4297
    4SOL     OW   10   1.063   2.184   1.898  0.1504  0.1945 -0.7790
    4SOL    HW1   11   0.987   2.122   1.917  1.0107 -1.4124 -3.4906
    4SOL    HW2   12   1.075   2.190   1.799 -0.9802 -0.7317  2.8473
    5SOL     OW   13   0.527   0.832   1.647  0.1657 -0.1773 -0.6015
    5SOL    HW1   14   0.617   0.875   1.676  0.3135  1.1344  2.2107
    5SOL    HW2   15   0.516   0.735   1.684 -0.2684 -0.2460  1.7096
    6SOL     OW   16   2.358   0.762   3.113 -0.7255 -0.5184  0.6348
    6SOL    HW1   17   2.311   0.693   3.057 -0.3416 -0.4497  0.8915
    6SOL    HW2   18   2.447   0.730   0.021  1.5637 -0.9166 -1.0296
    7SOL     OW   19   0.950   0.482   1.430 -0.7000 -0.3417  0.2959
    7SOL    HW1   20   1.020   0.431   1.484  1.3214 -5.2054  1.5115
    7SOL    HW2   21   0.939   0.572   1.467 -3.1700 -1.3392  0.1550
    8SOL     OW   22   1.454   0.163   1.893 -0.4407 -0.4554  0.6498
    8SOL    HW1   23   1.482   0.197   1.803 -0.4336  0.0509 -0.6243
    8SOL    HW2   24   1.540   0.130   1.942 -1.6536  1.2266 -0.8156
    9SOL     OW   25   0.500   0.695   0.476  0.0100  0.1915  0.6154
    9SOL    HW1   26   0.589   0.697   0.532  3.2806 -0.9528  0.6630
    9SOL    HW2   27   0.458   0.788   0.484 -0.8035  1.1298 -0.2617
   10SOL     OW   28   0.510   2.366   2.442 -0.2279 -0.0676 -0.0256
   10SOL    HW1   29   0.590   2.371   2.507 -0.6539  0.3059 -1.7221
   10SOL    HW2   30   0.424   2.335   2.487  0.0237 -1.8672  0.3987
   11SOL     OW   31   0.484   2.030   3.074 -0.2937 -0.1210  0.5794
   11SOL    HW1   32   0.546   2.079   0.008  3.0438  0.3590 -0.6169
   11SOL    HW2   33   0.488   1.930   3.103  0.8900 -0.4363  0.8517
   12SOL     OW   34   0.261   2.988   1.423  0.5924  0.2111  0.3837
   12SOL    HW1   35   0.238   3.073   1.476  0.5171 -1.3881 -0.0524
   12SOL    HW2   36   0.273   2.906   1.481  0.4398 -0.4807 -0.1287
   13SOL     OW   37   0.851   2.728   0.125  0.4964  0.2836 -0.4983
   13SOL    HW1   38   0.942   2.701   0.085  2.2941 -0.8825  0.0485
   13SOL    HW2   39   0.819   2.812   0.082 -2.2305 -2.7741  0.2306
   14SOL     OW   40   1.552   1.810   0.861  0.4375 -0.1189 -0.5432
   14SOL    HW1   41   1.582   1.870   0.936  1.6333 -1.8005 -1.4087
   14SOL    HW2   42   1.449   1.798   0.863 -2.0087 -1.9335 -2.1275
   15SOL     OW   43   2.926   1.379   2.174  0.1274  0.6402  0.0556
   15SOL    HW1   44   2.955   1.328   2.259 -0.1350  1.0359 -0.9958
   15SOL    HW2   45   2.826   1.369   2.160  1.4666 -0.3838  0.3904
   16SOL     OW   46   1.230   2.903   3.004  0.1705 -0.1352 -0.0201
   16SOL    HW1   47   1.176   2.829   3.049  0.3238 -0.9431 -1.3031
   16SOL    HW2   48   1.221   2.909   2.898  0.8751  1.9665  0.3547
   17SOL     OW   49   0.509   2.143   1.903 -0.5817  0.4098 -0.0921
   17SOL    HW1   50   0.577   2.119   1.978 -1.4079  1.3591  1.5415
   17SOL    HW2   51   0.429   2.190   1.942  0.7295 -1.7474 -0.4095
   18SOL     OW   52   1.756   0.787   0.241  0.5805 -0.2815 -0.0143
   18SOL    HW1   53   1.734   0.884   0.214  1.6540  0.7856 -0.5700
   18SOL    HW2   54   1.759   0.723   0.161 -1.9336 -0.6401  0.1666
   19SOL     OW   55   2.315   1.856   2.582  0.4555 -0.3584  0.0965
   19SOL    HW1   56   2.271   1.858   2.673  0.5513  0.5642 -2.7612
   19SOL    HW2   57   2.415   1.836   2.590 -0.4275 -0.3187  2.3038
   20SOL     OW   58   2.459   2.302   2.326 -0.2878 -0.1026 -0.7130
   20SOL    HW1   59   2.412   2.243   2.393 -2.4721  1.7308  2.3563
   20SOL    HW2   60   2.493   2.385   2.371  0.1549 -0.5876  3.6508
   21SOL     OW   61   0.582   2.146   0.378 -1.1377  0.1314  0.3565
   21SOL    HW1   62   0.484   2.182   0.397  0.4125  1.2973  2.1815
   21SOL    HW2   63   0.593   2.044   0.393 -0.5688 -1.4428 -0.8692
   22SOL     OW   64   2.490   2.514   1.316 -0.0271 -0.1714  0.0938
   22SOL    HW1   65   2.560   2.443   1.341  1.3647  1.6285 -1.0380
   22SOL    HW2   66   2.407   2.501   1.371 -2.1604  0.5167  0.7296
   23SOL     OW   67   0.336   1.041   1.786 -0.0796 -0.0660 -0.2306
   23SOL    HW1   68   0.365   1.125   1.734 -1.4844 -0.0355 -1.8321
   23SOL    HW2   69   0.388   0.957   1.753 -1.2045 -0.1580 -1.5226
   24SOL     OW   70   2.089   2.106   1.723 -0.2782 -0.0311  0.2190
   24SOL    HW1   71   2.046   2.021   1.755 -0.1993  1.4182 -0.4715
   24SOL    HW2   72   2.124   2.166   1.799 -0.5543 -1.0778  4.5086
   25SOL     OW   73   1.880   0.243   2.508  0.0637 -0.0342  0.0658
   25SOL    HW1   74   1.868   0.340   2.494 -1.7843 -4.0010  1.1957
   25SOL    HW2   75   1.856   0.197   2.421 -0.2413 -0.2307 -2.6251
   26SOL     OW   76   1.464   0.030   0.875 -0.0620  0.9321 -0.2107
   26SOL    HW1   77   1.471   0.001   0.776 -1.5875 -2.2533  0.8714
   26SOL    HW2   78   1.460   0.132   0.881 -1.5433  0.0660 -1.3343
   27SOL     OW   79   1.122   1.831   0.153  0.0665  0.4013  0.1230
   27SOL    HW1   80   1.164   1.790   0.238 -0.2963 -0.8782 -1.1609
   27SOL    HW2   81   1.023   1.821   0.143 -1.3915 -0.8902  0.4429
   28SOL     OW   82   2.953   1.761   1.353  0.2768 -0.7637 -0.2163
   28SOL    HW1   83   2.870   1.786   1.413 -1.4181  2.0035  2.2882
   28SOL    HW2   84   3.029   1.794   1.414  0.0983  2.1218  0.0858
   29SOL     OW   85   2.195   2.769   1.931 -0.3395 -0.1665 -0.8877
   29SOL    HW1   86   2.257   2.736   1.857 -1.5715  0.7610  1.4560
   29SOL    HW2   87   2.212   2.719   2.022  0.6696 -0.5997  1.0992
   30SOL     OW   88   1.010   2.821   1.107  0.3936  0.3403  0.3914
   30SOL    HW1   89   1.101   2.785   1.074  3.1296  2.2201 -0.6226
   30SOL    HW2   90   0.968   2.902   1.060 -1.4081  1.8351 -0.5649
   31SOL     OW   91   2.994   2.221   1.936 -0.4723 -0.4575 -0.1822
   31SOL    HW1   92   3.088   2.181   1.956  0.3870  0.7482 -0.1703
   31SOL    HW2   93   2.969   2.288   2.010  0.2191 -1.6535 -0.6372
   32SOL     OW   94   1.472   1.358   2.069 -0.0591  0.4241  0.8482
   32SOL    HW1   95   1.461   1.258   2.048  0.7727 -0.0122  0.0908
   32SOL    HW2   96   1.378   1.401   2.075 -0.3187 -1.7551  2.3694
   33SOL     OW   97   0.260   0.043   2.847  0.2997 -0.4841 -0.5612
   33SOL    HW1   98   0.292   0.135   2.837 -1.0754 -1.5264 -0.5534
   33SOL    HW2   99   0.301   3.099   2.783 -0.3101  0.1672  0.2134
   34SOL     OW  100   1.870   0.269   1.621  0.1817  0.4688  0.5307
   34SOL    HW1  101   1.912   0.353   1.666  0.0459  0.1090  0.9631
   34SOL    HW2  102   1.912   0.190   1.670  0.9272 -1.9648  0.2543
   35SOL     OW  103   2.396   0.564   1.587 -0.7261 -0.2467 -0.3045
   35SOL    HW1  104   2.440   0.545   1.674 -2.1670 -1.6066  1.9649
   35SOL    HW2  105   2.450   0.638   1.537  1.3462  2.1058 -0.1506
   36SOL     OW  106   2.471   3.085   2.459 -0.1040 -0.1596 -0.3372
   36SOL    HW1  107   2.426   2.996   2.450 -1.2426  0.0192  0.8778
   36SOL    HW2  108   2.571   3.073   2.485  0.5825  0.9519  0.9559
   37SOL     OW  109   1.135   2.274   2.727 -0.4289 -0.4316  0.2981
   37SOL    HW1  110   1.059   2.298   2.796 -2.5715 -2.9530  1.2867
   37SOL    HW2  111   1.146   2.176   2.725 -1.0900  1.2126  0.6811
   38SOL     OW  112   2.887   0.930   2.835 -0.2289  0.8371 -0.5058
   38SOL    HW1  113   2.907   0.860   2.906 -0.1927  0.5753 -0.5793
   38SOL    HW2  114   2.805   0.986   2.862 -1.5822  3.5763  0.3040
   39SOL     OW  115   2.139   2.148   2.309  0.5432  0.4081 -0.2568
   39SOL    HW1  116   2.122   2.058   2.265  0.5863 -1.1945 -0.8951
   39SOL    HW2  117   2.184   2.140   2.402  0.5828  0.3070  3.0942
   40SOL     OW  118   0.535   0.080   2.999 -0.2968  0.7790 -0.2197
   40SOL    HW1  119   0.585   0.075   3.086 -0.3229 -1.2114 -0.5203
   40SOL    HW2  120   0.525   3.105   2.969  1.6873 -0.8376 -0.5395
   41SOL     OW  121   1.389   1.071   1.410 -0.0709 -0.1782  0.0202
   41SOL    HW1  122   1.489   1.081   1.409 -0.8299 -1.9492  0.9104
   41SOL    HW2  123   1.362   1.074   1.509 -3.4228  0.2985 -3.0883
   42SOL     OW  124   0.307   0.303   2.023  0.1030 -0.4710 -0.3903
   42SOL    HW1  125   0.219   0.357   2.032 -1.4385  0.4724  0.1307
   42SOL    HW2  126   0.380   0.371   2.025 -2.9883 -0.7082 -2.0268
   43SOL     OW  127   1.651   1.382   2.270 -0.1619  0.0217  0.0815
   43SOL    HW1  128   1.665   1.307   2.335 -1.4604  0.2853 -0.4912
   43SOL    HW2  129   1.578   1.352   2.207  2.8188 -1.6801  1.1496
   44SOL     OW  130   3.008   3.103   2.949  0.1459  0.9651  0.4356
   44SOL    HW1  131   3.026   0.017   3.040 -1.7049 -2.8717 -1.8955
   44SOL    HW2  132   2.946   3.018   2.947 -0.1974 -2.1194 -0.8608
   45SOL     OW  133   0.884   2.143   1.331 -0.2034  0.1246 -0.0275
   45SOL    HW1  134   0.920   2.205   1.260 -3.5951 -0.7447 -1.8385
   45SOL    HW2  135   0.801   2.093   1.297 -0.9675 -2.3134 -1.8112
   46SOL     OW  136   2.617   2.710   1.908  0.6316  0.0527  0.2032
   46SOL    HW1  137   2.683   2.786   1.888  0.2478  1.7260 -0.3401
   46SOL    HW2  138   2.550   2.687   1.832 -3.2636 -2.9463 -2.4053
   47SOL     OW  139   1.317   1.640   1.249  0.1941  0.3133 -0.1989
   47SOL    HW1  140   1.335   1.737   1.268  0.2783 -2.5446 -1.6700
   47SOL    HW2  141   1.245   1.619   1.180  3.1756 -0.6803  0.3564
   48SOL     OW  142   0.189   1.980   0.570  0.4045  0.6004 -0.1760
   48SOL    HW1  143   0.090   1.968   0.600 -1.6856  0.5755 -2.6990
   48SOL    HW2  144   0.251   1.975   0.652  0.1059 -2.5841  0.6339
   49SOL     OW  145   3.043   1.309   1.942  0.0673 -0.0818  0.1838
   49SOL    HW1  146   3.106   1.373   1.896 -1.5002 -0.6390 -1.3772
   49SOL    HW2  147   3.003   1.343   2.028  2.5927 -2.8371 -1.1125
   50SOL     OW  148   2.172   0.960   0.750 -0.3799  0.0722 -0.1336
   50SOL    HW1  149   2.245   0.899   0.712 -1.2787  0.5853 -0.3933
   50SOL    HW2  150   2.133   1.005   0.670  0.3951 -0.3261  1.9964
   51SOL     OW  151   1.295   0.732   0.629 -0.2374 -0.1191  0.2433
   51SOL    HW1  152   1.217   0.797   0.637  2.7635 -1.3737  0.7054
   51SOL    HW2  153   1.385   0.773   0.640 -2.2165 -0.3095 -0.8175
   52SOL     OW  154   1.334   1.024   0.345 -0.1325 -0.2824 -0.4089
   52SOL    HW1  155   1.321   1.010   0.245 -1.0884  0.9192  0.7842
   52SOL    HW2  156   1.380   0.943   0.391  0.2240 -1.5933  2.6897
   53SOL     OW  157   0.956   2.361   2.545 -0.2464  0.1961  0.4822
   53SOL    HW1  158   0.930   2.302   2.463 -2.2548 -2.5329 -1.0645
   53SOL    HW2  159   1.027   2.317   2.608  0.7500  1.4175 -3.3725
   54SOL     OW  160   1.571   0.802   1.644  0.1879 -0.1137  0.6209
   54SOL    HW1  161   1.507   0.873   1.676  1.8069 -0.5682  0.6320
   54SOL    HW2  162   1.543   0.771   1.553  0.5456 -1.7626  0.5650
   55SOL     OW  163   2.431   2.983   0.415  0.0073 -0.2354  0.0753
   55SOL    HW1  164   2.347   2.932   0.435 -0.4274 -1.1519  2.3288
   55SOL    HW2  165   2.501   2.918   0.379 -1.2669 -0.0194  2.0904
   56SOL     OW  166   0.908   2.520   1.474 -0.5019  0.2509 -0.2038
   56SOL    HW1  167   0.889   2.593   1.546  1.6552  0.4815 -1.4090
   56SOL    HW2  168   0.905   2.553   1.379  2.7642 -1.1151 -0.2464
   57SOL     OW  169   1.939   0.569   2.906 -0.5267 -0.5875  0.1533
   57SOL    HW1  170   1.870   0.599   2.836  0.9116  1.6639  1.3391
   57SOL    HW2  171   1.898   0.494   2.962  2.7965 -0.7956  1.0470
   58SOL     OW  172   2.886   1.291   1.700 -0.1777 -0.3471  0.2344
   58SOL    HW1  173   2.966   1.303   1.765 -0.9863 -1.7708 -0.7933
   58SOL    HW2  174   2.798   1.307   1.754  0.7890  0.2922  2.6673
   59SOL     OW  175   0.456   2.740   2.354 -0.1953 -0.5718  0.2496
   59SOL    HW1  176   0.469   2.671   2.285 -1.7637  0.3685  2.3315
   59SOL    HW2  177   0.395   2.815   2.324  2.8039  1.0896 -2.2676
   60SOL     OW  178   2.690   2.120   0.766 -0.2578 -0.4329 -0.2667
   60SOL    HW1  179   2.731   2.102   0.858  0.8890 -3.7509  2.2132
   60SOL    HW2  180   2.589   2.106   0.758 -1.0531  0.6453 -0.6066
   61SOL     OW  181   0.980   2.360   0.311 -0.0876 -0.1300 -0.2717
   61SOL    HW1  182   1.072   2.378   0.349 -0.9855  0.6133 -2.4851
   61SOL    HW2  183   0.903   2.381   0.378 -3.1597 -1.0813 -1.3504
   62SOL     OW  184   2.114   2.685   2.887 -0.9110  0.2885  0.5602
   62SOL    HW1  185   2.162   2.603   2.841 -0.4309 -1.5128 -0.3714
   62SOL    HW2  186   2.020   2.696   2.845 -2.9239 -0.6700  0.6453
   63SOL     OW  187   1.883   0.134   3.051  0.0217 -0.0411  0.6992
   63SOL    HW1  188   1.828   0.047   3.024 -3.0329 -0.3772 -1.8908
   63SOL    HW2  189   1.984   0.112   3.031  1.6969  1.6572 -3.6939
   64SOL     OW  190   0.846   1.039   2.587 -0.2411 -0.6646  0.0333
   64SOL    HW1  191   0.924   0.995   2.632 -3.4212  1.0181 -1.2403
   64SOL    HW2  192   0.759   1.008   2.622  1.3813  2.9730  1.2699
   65SOL     OW  193   1.335   2.789   0.567  0.2768 -0.1847  0.0307
   65SOL    HW1  194   1.368   2.775   0.663  0.6439  1.7899 -0.4816
   65SOL    HW2  195   1.316   2.699   0.531  1.5661 -0.6203  1.3896
   66SOL     OW  196   0.378   1.254   1.638 -0.0502 -0.4074 -0.4717
   66SOL    HW1  197   0.459   1.316   1.641  0.6766 -0.6248  1.0456
   66SOL    HW2  198   0.346   1.237   1.538  0.5901  0.2181  1.4119
   67SOL     OW  199   2.204   3.118   2.048  0.4616  0.2524 -0.4225
   67SOL    HW1  200   2.242   3.076   1.961 -0.9604 -1.3655  0.0743
   67SOL    HW2  201   2.287   0.018   2.110  1.5329 -1.9587  1.5364
   68SOL     OW  202   0.860   0.761   1.560  0.0458  0.4661  0.3963
   68SOL    HW1  203   0.773   0.731   1.505 -0.2520 -3.7406 -0.9090
   68SOL    HW2  204   0.836   0.818   1.641 -0.6298 -1.0729  1.4599
   69SOL     OW  205   2.130   2.936   0.454  0.4948  0.3291 -0.0840
   69SOL    HW1  206   2.060   2.866   0.473  1.1194  1.2430 -0.2910
   69SOL    HW2  207   2.094   3.006   0.393  0.2887 -0.2406 -1.0051
   70SOL     OW  208   2.593   0.746   2.845  0.2330 -0.0025 -0.2810
   70SOL    HW1  209   2.604   0.771   2.744  1.6237 -0.1393 -2.3267
   70SOL    HW2  210   2.547   0.655   2.857  0.6740  1.2436  1.3459
   71SOL     OW  211   2.847   1.931   2.994 -0.1978  0.3073 -0.4785
   71SOL    HW1  212   2.876   1.835   2.988  2.7181 -2.5402  0.0214
   71SOL    HW2  213   2.918   1.994   3.020 -1.4470 -1.4679 -2.5730
   72SOL     OW  214   3.020   1.961   0.363  0.3809 -1.2180 -0.0222
   72SOL    HW1  215   2.936   2.012   0.326 -1.1210  3.5334 -0.4940
   72SOL    HW2  216   3.011   1.937   0.461 -0.2076 -0.4657 -1.9154
   73SOL     OW  217   1.093   0.956   0.547  0.1587 -0.1533  0.6067
   73SOL    HW1  218   1.035   1.038   0.515 -3.0313  1.7151 -0.8310
   73SOL    HW2  219   1.050   0.874   0.513  2.4479 -0.2085  3.3110
   74SOL     OW  220   0.112   2.099   1.964  0.6942 -0.3616 -0.1476
   74SOL    HW1  221   0.192   2.168   1.977 -0.3138  2.4246  0.4894
   74SOL    HW2  222   0.126   2.010   2.020  2.1828  0.9282  1.6079
   75SOL     OW  223   1.805   1.545   1.559 -0.8937 -0.6826 -0.1282
   75SOL    HW1  224   1.748   1.466   1.537  1.3329  1.8653  2.6561
   75SOL    HW2  225   1.779   1.571   1.654 -1.6186  1.4839  2.4633
   76SOL     OW  226   2.040   2.352   1.076 -0.4971  0.2458  0.2615
   76SOL    HW1  227   1.946   2.356   1.036 -0.7476  0.4672  1.2553
   76SOL    HW2  228   2.102   2.410   1.015  0.5460  2.5867 -1.6403
   77SOL     OW  229   2.717   1.648   1.659 -0.8223  0.2653  0.2184
   77SOL    HW1  230   2.664   1.731   1.686 -1.8461  2.7486 -0.4285
   77SOL    HW2  231   2.799   1.655   1.716 -0.7364 -0.7346 -2.4597
   78SOL     OW  232   1.555   0.550   0.497  0.3348  0.1041  0.0037
   78SOL    HW1  233   1.541   0.542   0.597  2.8457 -1.3813  0.7439
   78SOL    HW2  234   1.566   0.458   0.455 -1.2426 -3.3247  0.2372
   79SOL     OW  235   2.384   1.711   1.550  0.0551  0.3615 -0.3782
   79SOL    HW1  236   2.432   1.740   1.634  0.1831 -1.6012 -1.7687
   79SOL    HW2  237   2.414   1.612   1.528  2.5277 -1.1146 -0.4362
   80SOL     OW  238   0.678   0.546   1.457 -0.5431 -0.1177 -0.5883
   80SOL    HW1  239   0.771   0.504   1.455  0.7594 -0.2816  1.0783
   80SOL    HW2  240   0.640   0.541   1.362 -0.1580 -0.1356 -2.1063
   81SOL     OW  241   0.650   2.690   0.848  0.2948 -0.2603 -0.2494
   81SOL    HW1  242   0.750   2.704   0.827 -0.2655  1.1558 -3.1909
   81SOL    HW2  243   0.626   2.724   0.939 -1.5216 -0.3926  0.3144
   82SOL     OW  244   1.212   0.021   1.923 -0.8360 -0.0388  0.3513
   82SOL    HW1  245   1.299   0.072   1.911 -1.1156 -1.0817  3.3564
   82SOL    HW2  246   1.143   0.069   1.985  1.3849 -0.7235  0.6672
   83SOL     OW  247   1.110   1.931   0.555 -0.0770  0.4651 -0.0882
   83SOL    HW1  248   1.157   2.013   0.521  0.1887  2.3319  1.2610
   83SOL    HW2  249   1.009   1.935   0.544 -0.6679  1.7213  0.7268
   84SOL     OW  250   0.090   1.467   3.084  0.1536 -0.4718 -0.3360
   84SOL    HW1  251   0.028   1.392   3.096  0.2058  1.2908  0.7747
   84SOL    HW2  252   0.051   1.552   0.004 -0.4807 -1.1842  1.9413
   85SOL     OW  253   0.285   2.534   0.991 -0.0082  0.0280  0.2930
   85SOL    HW1  254   0.237   2.580   0.910  0.2642 -0.2110  2.0993
   85SOL    HW2  255   0.382   2.506   0.968  1.2978 -1.3161  1.8111
   86SOL     OW  256   2.158   2.611   1.602 -0.1947  0.0971  0.4808
   86SOL    HW1  257   2.233   2.558   1.560 -1.9637 -0.5696  2.0960
   86SOL    HW2  258   2.080   2.548   1.624 -1.0143  1.1846  0.2453
   87SOL     OW  259   3.035   1.946   0.641 -0.0361  0.1581  0.3027
   87SOL    HW1  260   3.025   2.039   0.681  1.1221  0.2028 -1.3624
   87SOL    HW2  261   2.962   1.883   0.681  2.0459  3.0706 -1.5410
   88SOL     OW  262   1.019   0.686   1.043  0.0289 -0.6964  0.1799
   88SOL    HW1  263   0.989   0.725   0.953  3.0874 -0.8129 -1.9973
   88SOL    HW2  264   1.121   0.672   1.045  2.8074  0.4651  2.0120
   89SOL     OW  265   1.008   2.946   1.859 -0.7305  0.7072 -0.2434
   89SOL    HW1  266   1.101   2.990   1.878  0.3397  2.3242  0.3990
   89SOL    HW2  267   0.971   2.994   1.778 -0.2597 -0.2879  2.2610
   90SOL     OW  268   0.311   2.029   1.348  0.9553 -0.2354 -0.1468
   90SOL    HW1  269   0.259   1.947   1.315  2.1445  0.2652 -0.1421
   90SOL    HW2  270   0.394   1.996   1.390 -0.3568 -0.7854 -2.7648
   91SOL     OW  271   1.469   2.130   1.295  0.0479 -0.0204 -0.8263
   91SOL    HW1  272   1.434   2.224   1.282  2.0419  0.4524 -1.3336
   91SOL    HW2  273   1.521   2.123   1.383  0.3605  1.9981 -1.1841
   92SOL     OW  274   2.856   3.079   1.486 -0.0166 -0.1718 -0.4944
   92SOL    HW1  275   2.764   0.004   1.489  2.3888 -2.3239  2.4797
   92SOL    HW2  276   2.929   0.024   1.499 -1.9804  2.2810  0.9164
   93SOL     OW  277   3.045   1.247   3.123  0.6151 -0.1566  0.6012
   93SOL    HW1  278   3.094   1.199   3.049 -1.7926  0.8829  1.1835
   93SOL    HW2  279   3.058   1.204   0.088  0.0275  2.5982 -0.5059
   94SOL     OW  280   2.897   2.635   1.993 -0.5658 -0.1400 -0.5998
   94SOL    HW1  281   2.931   2.729   1.994 -3.1537 -4.3512  1.8606
   94SOL    HW2  282   2.803   2.634   1.958 -1.0014  0.2220 -0.2607
   95SOL     OW  283   1.508   0.644   2.067 -0.2635 -0.3885  0.1848
   95SOL    HW1  284   1.498   0.571   2.135  1.4035  1.0131 -1.5211
   95SOL    HW2  285   1.467   0.730   2.096  0.4740 -0.2525  1.4857
   96SOL     OW  286   2.513   0.544   1.841  0.1494  0.4910  0.6355
   96SOL    HW1  287   2.498   0.441   1.832  3.0317  0.5573  2.0745
   96SOL    HW2  288   2.613   0.555   1.869  1.9364 -1.2587  3.4965
   97SOL     OW  289   2.344   0.284   1.508 -0.3883 -0.1130  0.0318
   97SOL    HW1  290   2.312   0.215   1.579 -0.7973 -0.3552  0.0199
   97SOL    HW2  291   2.347   0.383   1.544 -1.0271  0.7960  1.2511
   98SOL     OW  292   2.171   3.020   1.241  0.4406  0.2763  0.2554
   98SOL    HW1  293   2.250   2.969   1.280  2.3694 -0.2202  0.4008
   98SOL    HW2  294   2.130   3.071   1.317  0.5776 -0.2161 -1.0278
   99SOL     OW  295   2.988   0.340   2.162 -0.4133 -0.0435  0.3743
   99SOL    HW1  296   3.058   0.327   2.235 -0.8657  0.7542 -1.1711
   99SOL    HW2  297   2.927   0.423   2.173 -0.7862 -2.4173  0.8095
  100SOL     OW  298   2.532   1.822   1.777 -0.0291 -0.8283  0.3219
  100SOL    HW1  299   2.472   1.754   1.825 -1.0459  0.4294  0.0027
  100SOL    HW2  300   2.564   1.909   1.827  0.8195 -0.3160  0.8119
  101SOL     OW  301   1.729   3.047   0.695  0.1534 -0.2335 -0.0933
  101SOL    HW1  302   1.750   3.066   0.793 -0.1534  0.8145 -2.6251
  101SOL    HW2  303   1.643   3.085   0.660 -0.6462  2.6206  1.6053
  102SOL     OW  304   0.470   0.849   1.371  0.0557  0.1361  0.4124
  102SOL    HW1  305   0.492   0.765   1.313 -0.2892 -0.3955 -1.7292
  102SOL    HW2  306   0.465   0.823   1.471 -1.2378  1.0839  3.7669
  103SOL     OW  307   2.769   0.235   0.116 -0.6527  0.2775 -0.2796
  103SOL    HW1  308   2.804   0.216   0.022 -0.4301 -0.0104 -2.7665
  103SOL    HW2  309   2.683   0.291   0.120 -0.9040 -0.9437 -1.6458
  104SOL     OW  310   2.832   0.128   2.023 -1.2482  0.4386 -0.0298
  104SOL    HW1  311   2.838   0.138   1.923 -0.2574 -0.6423 -0.8343
  104SOL    HW2  312   2.854   0.220   2.069 -0.8724  2.1888  2.7329
  105SOL     OW  313   1.794   0.887   2.270 -0.0720 -0.9452  0.3243
  105SOL    HW1  314   1.837   0.798   2.260 -5.3023  2.1772  0.9823
  105SOL    HW2  315   1.858   0.950   2.315 -0.0363 -0.0932 -1.2667
  106SOL     OW  316   1.789   3.110   0.961  0.2715 -0.6025 -0.1625
  106SOL    HW1  317   1.831   0.072   0.998  1.6605 -2.5521 -3.0917
  106SOL    HW2  318   1.720   3.078   1.027 -0.1954 -2.5515 -0.1836
  107SOL     OW  319   0.740   1.205   0.774 -0.0766  0.5313 -0.2264
  107SOL    HW1  320   0.645   1.199   0.741 -0.5755  0.0732  2.0643
  107SOL    HW2  321   0.775   1.301   0.793  2.5480  3.0919  0.8604
  108SOL     OW  322   2.982   0.612   2.605 -0.2668  0.0471 -0.3168
  108SOL    HW1  323   3.053   0.540   2.612  0.3968 -1.4645  1.2460
  108SOL    HW2  324   2.890   0.571   2.582 -0.5926 -0.6132  0.0573
  109SOL     OW  325   1.917   0.236   0.165 -0.6470 -0.5298  0.2971
  109SOL    HW1  326   1.886   0.200   0.074  2.2051  0.6620  0.7042
  109SOL    HW2  327   1.851   0.313   0.190 -0.3550  1.0648  0.1192
  110SOL     OW  328   0.015   1.932   2.849  0.1533  0.2346  0.2305
  110SOL    HW1  329   0.004   1.981   2.940  2.1389 -1.0764  0.0883
  110SOL    HW2  330   0.080   1.853   2.861 -1.0774  1.6244  0.7282
  111SOL     OW  331   2.048   0.086   2.239  0.2263  0.4748 -0.4437
  111SOL    HW1  332   2.098   0.050   2.160  0.0031 -2.6073  2.4760
  111SOL    HW2  333   2.079   0.179   2.251  1.9679 -0.4532 -0.7982
  112SOL     OW  334   2.478   2.986   0.833 -0.0179 -0.0651 -0.2128
  112SOL    HW1  335   2.459   3.075   0.882 -0.4761 -1.0212  1.0185
  112SOL    HW2  336   2.386   2.941   0.807 -1.1541 -0.1116  0.8546
  113SOL     OW  337   2.391   2.697   1.723  0.1337 -0.7194 -0.1344
  113SOL    HW1  338   2.322   2.698   1.646  2.0732 -1.8066 -0.9688
  113SOL    HW2  339   2.394   2.608   1.768 -1.7076 -0.6656 -0.9483
  114SOL     OW  340   2.913   0.324   0.710 -0.2892  0.1528  0.2721
  114SOL    HW1  341   2.933   0.374   0.800 -0.4147 -0.7655 -2.9082
  114SOL    HW2  342   2.878   0.230   0.728 -1.7838 -0.1600  0.7453
  115SOL     OW  343   2.683   1.716   0.057  0.8097 -0.0796  0.6867
  115SOL    HW1  344   2.770   1.701   0.005  2.2389 -0.4272 -1.0408
  115SOL    HW2  345   2.609   1.647   0.045 -1.2295  0.7200  0.6167
  116SOL     OW  346   0.077   1.547   1.984  0.0712 -0.0632  0.1658
  116SOL    HW1  347   3.118   1.586   2.030 -0.6902 -1.9884  0.9410
  116SOL    HW2  348   0.108   1.595   1.894 -1.1418  3.1147 -1.8008
  117SOL     OW  349   2.637   3.033   0.613 -0.2132  0.8162 -0.0640
  117SOL    HW1  350   2.586   3.004   0.704 -1.2934 -1.4968  2.8677
  117SOL    HW2  351   2.572   3.025   0.535  0.1548 -0.6201  0.2408
  118SOL     OW  352   0.414   2.504   1.666  0.3538 -0.1398  0.3147
  118SOL    HW1  353   0.388   2.570   1.597  1.8682 -1.5394 -2.4803
  118SOL    HW2  354   0.458   2.424   1.621  0.9210  0.1868  0.1989
  119SOL     OW  355   1.738   2.228   1.025  0.3617 -0.0994 -0.3873
  119SOL    HW1  356   1.816   2.210   0.962 -0.1872 -0.3833  1.3894
  119SOL    HW2  357   1.751   2.172   1.110 -1.2246  1.5010 -0.0267
  120SOL     OW  358   0.665   2.067   2.095 -0.5163  0.2460 -0.1517
  120SOL    HW1  359   0.622   1.988   2.139 -1.0234  1.4323  0.2668
  120SOL    HW2  360   0.649   2.149   2.153  1.1781  3.0832 -1.7169
  121SOL     OW  361   2.658   1.465   0.864 -0.2169  0.7146 -0.1536
  121SOL    HW1  362   2.610   1.554   0.885 -0.4817  3.6449  1.7299
  121SOL    HW2  363   2.587   1.400   0.894  1.6632  0.5932  3.2038
  122SOL     OW  364   2.005   1.598   2.382  0.1973  0.0209 -0.1847
  122SOL    HW1  365   1.934   1.579   2.314  2.5410  0.3445 -0.7378
  122SOL    HW2  366   2.092   1.621   2.338 -0.0693 -1.9321 -0.3887
  123SOL     OW  367   2.832   0.068   0.743 -0.0251  0.3556  0.2720
  123SOL    HW1  368   2.905   3.118   0.752 -0.3566 -1.5069  1.7075
  123SOL    HW2  369   2.749   0.037   0.702 -0.2581  0.6889  1.2296
  124SOL     OW  370   1.367   1.065   2.775 -0.3395  0.2726  0.2171
  124SOL    HW1  371   1.308   1.036   2.848  1.3086 -0.8190  0.4947
  124SOL    HW2  372   1.440   1.126   2.802  0.2207 -0.2579  0.2264
  125SOL     OW  373   0.184   1.602   2.446  0.1566 -0.0949 -0.1532
  125SOL    HW1  374   0.233   1.669   2.502 -1.1678  0.1831 -2.6737
  125SOL    HW2  375   0.220   1.597   2.350 -1.1569  0.4984  2.4008
  126SOL     OW  376   2.838   2.124   0.259 -0.5174 -0.0263  0.4409
  126SOL    HW1  377   2.818   2.209   0.312 -0.6182 -0.5696 -1.2297
  126SOL    HW2  378   2.890   2.140   0.169  1.1634  0.4025 -1.7663
  127SOL     OW  379   0.566   1.861   1.041  0.3145 -0.1216  0.3733
  127SOL    HW1  380   0.528   1.772   1.074 -0.5505  0.9340 -3.2188
  127SOL    HW2  381   0.484   1.924   1.026  1.8076  0.5644 -0.8393
  128SOL     OW  382   1.397   0.784   3.019 -0.0787  0.1750  0.4276
  128SOL    HW1  383   1.409   0.761   3.119 -0.1952 -3.1662 -1.8642
  128SOL    HW2  384   1.484   0.806   2.972 -0.9538  3.4623  0.1961
  129SOL     OW  385   2.310   1.824   1.317 -0.4239 -0.0034 -0.2513
  129SOL    HW1  386   2.264   1.912   1.326  1.3433 -1.8224  0.3539
  129SOL    HW2  387   2.340   1.795   1.409 -2.2922  1.0567  1.0661
  130SOL     OW  388   1.921   1.346   0.405  0.2953 -0.1997 -0.2032
  130SOL    HW1  389   2.022   1.330   0.378  0.5913  2.4238 -0.6145
  130SOL    HW2  390   1.924   1.363   0.509  0.3044  0.6530  2.5097
  131SOL     OW  391   2.899   1.139   2.600  0.6976 -0.0347 -0.2200
  131SOL    HW1  392   2.929   1.065   2.663 -1.6902 -0.0092 -0.0559
  131SOL    HW2  393   2.873   1.215   2.662 -0.7452 -1.0796 -1.4249
  132SOL     OW  394   2.100   1.759   1.604 -0.3219  0.3396  0.0429
  132SOL    HW1  395   2.195   1.739   1.571  3.4583  0.3498  0.2862
  132SOL    HW2  396   2.087   1.717   1.699 -0.5396 -2.1694  1.9075
  133SOL     OW  397   0.305   1.321   0.001 -1.2206  0.4102  0.1591
  133SOL    HW1  398   0.239   1.388   3.092 -0.0056 -2.6505 -1.9247
  133SOL    HW2  399   0.308   1.318   0.103 -1.1530 -2.6554 -2.4242
  134SOL     OW  400   2.593   1.387   3.117  0.5461  0.6279 -0.0348
  134SOL    HW1  401   2.649   1.337   3.048  0.1655  0.2979 -1.4780
  134SOL    HW2  402   2.658   1.427   0.069 -1.2146 -1.2845 -1.1771
  135SOL     OW  403   2.596   1.056   0.375 -0.3041  0.3961 -0.5399
  135SOL    HW1  404   2.497   1.053   0.347 -2.5368  0.9222  2.1722
  135SOL    HW2  405   2.615   1.130   0.441  0.2468 -0.5845  0.9962
  136SOL     OW  406   1.946   1.702   1.387  0.2472 -0.5157  0.5571
  136SOL    HW1  407   2.021   1.741   1.441  2.2629 -2.3160 -0.7754
  136SOL    HW2  408   1.901   1.629   1.442  0.5624  1.2601  2.3983
  137SOL     OW  409   2.562   2.083   0.282  0.0823 -0.1294 -0.1441
  137SOL    HW1  410   2.530   1.984   0.273  0.4811 -1.0814  1.0743
  137SOL    HW2  411   2.659   2.081   0.256 -1.2256 -0.5095  1.9003
  138SOL     OW  412   1.682   0.107   2.010  0.6934 -0.1910  0.1087
  138SOL    HW1  413   1.724   0.018   2.034 -0.9014  0.6390  0.9280
  138SOL    HW2  414   1.747   0.185   2.007  2.3003 -0.2466  4.6053
  139SOL     OW  415   2.379   0.167   0.101  0.0602 -0.1755 -0.2009
  139SOL    HW1  416   2.391   0.144   0.198  0.8922  0.8372 -1.3546
  139SOL    HW2  417   2.400   0.083   0.043  0.9655 -0.8522 -0.4331
  140SOL     OW  418   1.357   2.056   2.633  0.9805 -0.4846 -0.0103
  140SOL    HW1  419   1.422   1.994   2.582  0.4260  3.5465  0.2904
  140SOL    HW2  420   1.296   2.006   2.696  1.0879 -1.0391 -3.6377
  141SOL     OW  421   0.933   0.906   1.942  0.5713 -0.2923 -0.0751
  141SOL    HW1  422   0.869   0.924   2.018 -2.5235 -1.2581 -0.3391
  141SOL    HW2  423   1.011   0.849   1.966 -2.7634  0.3800 -0.3135
  142SOL     OW  424   2.105   2.594   0.008  0.1744  1.1754 -0.6039
  142SOL    HW1  425   2.113   2.646   3.048 -1.3906 -1.0248  2.8313
  142SOL    HW2  426   2.180   2.523   0.019  2.6522  1.7801 -0.5061
  143SOL     OW  427   0.704   2.089   0.120  0.2185 -0.3242  0.3595
  143SOL    HW1  428   0.776   2.161   0.103  0.9347  4.1475 -0.6609
  143SOL    HW2  429   0.658   2.121   0.206  1.9784  1.6292  0.2221
  144SOL     OW  430   1.252   2.683   0.247 -0.4910  0.2475  0.3616
  144SOL    HW1  431   1.176   2.702   0.183  0.2592 -1.9622 -1.1145
  144SOL    HW2  432   1.215   2.613   0.308 -3.3906 -0.5145  0.3395
  145SOL     OW  433   2.211   1.849   2.827  0.0811  0.2793  0.1947
  145SOL    HW1  434   2.269   1.874   2.909  1.4189  1.0130  1.3545
  145SOL    HW2  435   2.117   1.877   2.841 -0.3216  0.2034 -0.0367
  146SOL     OW  436   2.531   2.756   2.598  0.5827 -0.4368 -0.0143
  146SOL    HW1  437   2.452   2.811   2.560 -0.4920  1.5442 -1.9094
  146SOL    HW2  438   2.607   2.817   2.620  0.9416 -1.3192 -3.4256
  147SOL     OW  439   2.824   1.614   1.168 -0.2194  0.1699  0.3626
  147SOL    HW1  440   2.862   1.661   1.248  0.1444 -2.3665  0.8997
  147SOL    HW2  441   2.735   1.582   1.187  4.5157  2.3708 -0.4956
  148SOL     OW  442   1.793   2.998   2.986  0.4162  0.2422  0.5382
  148SOL    HW1  443   1.706   2.984   2.935  0.2015 -1.6043  1.2766
  148SOL    HW2  444   1.782   2.958   3.080 -0.5255  1.4144 -1.0076
  149SOL     OW  445   0.845   1.373   2.755 -0.1296 -0.3273  0.5751
  149SOL    HW1  446   0.798   1.296   2.806 -0.1036 -1.2062 -0.4639
  149SOL    HW2  447   0.776   1.441   2.721  1.1120  0.1665 -0.4128
  150SOL     OW  448   0.524   2.233   0.716 -0.2984  0.3228 -0.5203
  150SOL    HW1  449   0.524   2.310   0.781 -1.9069  0.2840  0.9961
  150SOL    HW2  450   0.444   2.171   0.737 -0.4880 -1.8807  0.2160
  151SOL     OW  451   0.494   1.767   0.017  0.7106  0.6545 -0.0637
  151SOL    HW1  452   0.508   1.718   0.106  1.6386 -1.0213 -2.0172
  151SOL    HW2  453   0.510   1.693   3.067  0.8248 -1.1221  0.2056
  152SOL     OW  454   2.835   1.313   0.385  0.3294 -0.3344  0.0489
  152SOL    HW1  455   2.771   1.312   0.462  1.5486 -2.4509  0.3678
  152SOL    HW2  456   2.929   1.280   0.416  0.4919 -0.3928  0.9790
  153SOL     OW  457   2.106   2.342   0.454 -0.3947 -0.3558 -0.2485
  153SOL    HW1  458   2.015   2.295   0.445  1.8377  0.8687  0.3870
  153SOL    HW2  459   2.099   2.443   0.443  0.2868 -2.1402 -0.3556
  154SOL     OW  460   0.731   2.840   0.556  0.0225  0.4347 -0.0893
  154SOL    HW1  461   0.687   2.925   0.540  1.1488 -0.4466 -1.9892
  154SOL    HW2  462   0.663   2.768   0.576 -0.6086 -1.6737 -0.3064
  155SOL     OW  463   0.350   2.032   1.045 -0.2542 -0.2046 -0.1161
  155SOL    HW1  464   0.371   2.044   1.150  1.2340 -1.2004  3.2693
  155SOL    HW2  465   0.259   2.072   1.010 -1.8329  1.7418 -1.4803
  156SOL     OW  466   2.317   2.423   0.051  0.2135 -0.2944 -0.4515
  156SOL    HW1  467   2.399   2.479   0.025 -1.6418  0.0398  0.8867
  156SOL    HW2  468   2.329   2.367   0.131 -3.4293  3.2547 -2.8141
  157SOL     OW  469   0.791   1.683   1.471 -0.4974  0.7144 -0.3722
  157SOL    HW1  470   0.757   1.727   1.556  3.5565 -0.4329 -0.9953
  157SOL    HW2  471   0.823   1.743   1.397 -1.0479  1.6879  2.5764
  158SOL     OW  472   1.515   0.467   0.155  0.3219 -0.0847 -0.3739
  158SOL    HW1  473   1.505   0.570   0.132  0.7766 -1.1716 -1.3578
  158SOL    HW2  474   1.595   0.418   0.125  0.7554  0.4208  3.6106
  159SOL     OW  475   1.072   0.605   3.075  0.5733 -0.2409  0.2048
  159SOL    HW1  476   1.161   0.562   3.059  1.4084  0.5561 -0.1879
  159SOL    HW2  477   1.056   0.617   0.053 -4.7581  0.3063  4.5277
  160SOL     OW  478   1.156   1.506   0.279  0.1819 -0.5046  0.3387
  160SOL    HW1  479   1.189   1.602   0.315  0.4153  2.6319  1.6187
  160SOL    HW2  480   1.185   1.433   0.342  1.1822 -0.8418 -1.7965
  161SOL     OW  481   0.162   2.076   2.642  0.7804  0.5733 -0.2838
  161SOL    HW1  482   0.110   2.038   2.725 -1.6977 -0.2559  0.7984
  161SOL    HW2  483   0.157   2.010   2.564 -4.1467 -1.8177  1.3184
  162SOL     OW  484   0.524   2.424   0.921  0.8288 -0.2662 -0.2446
  162SOL    HW1  485   0.581   2.507   0.908 -0.7533  1.2869  1.9276
  162SOL    HW2  486   0.548   2.382   1.012 -0.1468  0.8872 -1.0393
  163SOL     OW  487   3.066   0.595   0.116  0.1551 -0.2077 -0.6346
  163SOL    HW1  488   3.057   0.606   0.016  0.1690 -1.0795  1.8879
  163SOL    HW2  489   0.039   0.596   0.147 -2.7277  1.8141 -0.5084
  164SOL     OW  490   0.533   0.187   2.751  0.3042  0.2592  0.3370
  164SOL    HW1  491   0.550   0.147   2.844  2.2477 -2.2979  1.4338
  164SOL    HW2  492   0.553   0.123   2.672  0.9851 -0.3134 -1.0810
  165SOL     OW  493   2.169   0.685   1.689  0.1632  0.1812  0.0487
  165SOL    HW1  494   2.191   0.786   1.684  1.0439  0.5121 -2.4564
  165SOL    HW2  495   2.246   0.627   1.654 -0.2381  0.1025  2.3015
  166SOL     OW  496   2.148   2.914   1.597 -0.1713 -0.1308  0.3583
  166SOL    HW1  497   2.173   2.946   1.688 -1.3453  1.9058  1.4836
  166SOL    HW2  498   2.120   2.815   1.592 -1.7508 -0.1278  0.8555
  167SOL     OW  499   1.040   0.470   2.032  0.6563 -0.2607  0.4874
  167SOL    HW1  500   1.029   0.461   2.137  0.9631  1.1645  0.5841
  167SOL    HW2  501   1.131   0.446   1.999  0.0927  2.2398  0.4687
  168SOL     OW  502   2.474   0.316   2.116 -0.0041 -0.3123 -0.0528
  168SOL    HW1  503   2.472   0.306   2.014  0.1531  0.8735 -0.1072
  168SOL    HW2  504   2.473   0.222   2.162  0.5590 -0.6514  0.3721
  169SOL     OW  505   0.234   1.331   0.266  0.8986  0.1405 -0.0948
  169SOL    HW1  506   0.202   1.424   0.292 -1.6251  0.0492 -1.1953
  169SOL    HW2  507   0.157   1.265   0.276 -0.8162  1.1495  0.5999
  170SOL     OW  508   0.161   1.658   1.767 -0.5096  0.0376 -0.3632
  170SOL    HW1  509   0.139   1.757   1.754  0.9888 -3.9560 -0.1528
  170SOL    HW2  510   0.110   1.604   1.696 -0.8792 -0.6348  1.0134
  171SOL     OW  511   0.922   2.456   2.122 -0.4100  0.4215 -0.5915
  171SOL    HW1  512   0.958   2.379   2.177  0.1201 -4.1770 -2.5587
  171SOL    HW2  513   0.982   2.496   2.050 -0.6840  1.7045  1.8193
  172SOL     OW  514   0.880   2.827   1.557 -0.0051  0.4215  0.4757
  172SOL    HW1  515   0.905   2.781   1.644  0.1376  0.3910 -2.4745
  172SOL    HW2  516   0.788   2.794   1.535 -2.0090 -0.7099 -0.6764
  173SOL     OW  517   1.459   2.363   0.962  0.3384 -0.5961 -1.0140
  173SOL    HW1  518   1.465   2.450   1.016 -2.4879  0.3974  0.7838
  173SOL    HW2  519   1.537   2.302   0.965 -2.5596  2.6846 -0.8080
  174SOL     OW  520   1.437   0.251   0.519 -0.1001  0.4437 -0.5651
  174SOL    HW1  521   1.465   0.258   0.613  0.6014 -1.0363 -0.2249
  174SOL    HW2  522   1.505   0.201   0.461 -0.2857 -0.2331  1.7637
  175SOL     OW  523   1.300   1.274   0.489 -0.4013 -0.0014  0.0614
  175SOL    HW1  524   1.296   1.188   0.428 -2.2932 -0.4582 -0.9248
  175SOL    HW2  525   1.207   1.305   0.519  1.6212  0.5093 -0.8954
  176SOL     OW  526   1.529   0.795   0.384  0.3154  0.0515 -0.4375
  176SOL    HW1  527   1.610   0.823   0.328 -1.4701  1.0012 -3.5543
  176SOL    HW2  528   1.545   0.713   0.446 -1.1532 -2.4072  0.7133
  177SOL     OW  529   1.293   0.833   1.325  0.6316 -1.1028 -0.2792
  177SOL    HW1  530   1.198   0.829   1.361  1.5977 -5.8030 -1.7175
  177SOL    HW2  531   1.326   0.922   1.359  1.5996  0.6541  2.4161
  178SOL     OW  532   2.471   1.607   3.034  0.1247 -0.2643  0.0816
  178SOL    HW1  533   2.509   1.511   3.049 -1.2422 -0.6425 -1.2168
  178SOL    HW2  534   2.458   1.612   2.935 -0.8997 -1.6169  3.6723
  179SOL     OW  535   0.503   2.527   3.015 -0.2853  0.2625 -0.1752
  179SOL    HW1  536   0.494   2.620   2.970  1.2901  0.9334 -1.2537
  179SOL    HW2  537   0.556   2.532   3.104  0.3803  0.0822  0.1110
  180SOL     OW  538   2.057   1.598   1.828 -0.2078  1.0102 -0.1124
  180SOL    HW1  539   2.136   1.542   1.855 -0.1811 -0.3787  2.5820
  180SOL    HW2  540   1.978   1.529   1.812 -2.3231 -3.8666  1.0897
  181SOL     OW  541   1.161   1.185   2.192  0.1809 -0.2610  0.4723
  181SOL    HW1  542   1.139   1.156   2.097  1.4647  1.4313 -0.0339
  181SOL    HW2  543   1.184   1.107   2.259 -0.9381  2.2127  0.1583
  182SOL     OW  544   3.026   1.209   2.378  0.6508  0.3281  0.6890
  182SOL    HW1  545   3.097   1.277   2.415  0.0498  3.9803  1.6243
  182SOL    HW2  546   2.959   1.183   2.449  0.9730 -0.0661 -1.2505
  183SOL     OW  547   1.472   0.472   2.337 -0.0715  0.8303 -0.0813
  183SOL    HW1  548   1.539   0.488   2.410 -2.3220  1.1399 -1.0611
  183SOL    HW2  549   1.375   0.477   2.365 -0.9746 -2.8205  0.6252
  184SOL     OW  550   0.224   0.536   1.625  0.4260  0.0584 -0.1229
  184SOL    HW1  551   0.320   0.505   1.642 -0.2259  1.8999  0.6855
  184SOL    HW2  552   0.217   0.627   1.585 -1.7147 -0.9400  0.8630
  185SOL     OW  553   2.426   1.824   0.708 -0.0236 -0.0650 -1.0656
  185SOL    HW1  554   2.428   1.923   0.723 -0.9453  1.0435  1.8892
  185SOL    HW2  555   2.501   1.795   0.645 -0.3432  0.4723 -1.9313
  186SOL     OW  556   0.566   1.723   2.697  0.6712 -0.4102  0.0983
  186SOL    HW1  557   0.613   1.799   2.751 -1.1362  0.3411  1.3896
  186SOL    HW2  558   0.469   1.745   2.678 -2.0706 -0.8633  0.5913
  187SOL     OW  559   2.290   1.975   3.066  0.2967  0.0458 -0.2777
  187SOL    HW1  560   2.253   1.893   3.121  1.3443 -1.6683 -1.1391
  187SOL    HW2  561   2.388   1.992   3.077 -1.1487  0.7142 -0.4973
  188SOL     OW  562   0.724   2.355   0.447 -0.0391  0.0299 -0.9535
  188SOL    HW1  563   0.659   2.424   0.409 -0.4465  1.0297 -2.6525
  188SOL    HW2  564   0.688   2.262   0.426 -1.2553 -1.9676 -0.9697
  189SOL     OW  565   2.196   0.612   2.852 -0.1235 -0.1072 -0.1767
  189SOL    HW1  566   2.111   0.566   2.882 -1.4428 -0.9720  1.0556
  189SOL    HW2  567   2.177   0.696   2.798  2.9177 -1.9554  2.0094
  190SOL     OW  568   1.148   1.845   2.365  0.2291 -0.4640 -0.0887
  190SOL    HW1  569   1.146   1.946   2.355  3.0341 -4.0132 -0.3966
  190SOL    HW2  570   1.086   1.823   2.439 -0.1024  1.8174  1.0131
  191SOL     OW  571   2.510   0.815   1.510  0.1596 -0.6485 -0.3018
  191SOL    HW1  572   2.610   0.832   1.515  1.3586  0.5229 -0.8224
  191SOL    HW2  573   2.468   0.851   1.429 -0.1101 -0.0960  1.9101
  192SOL     OW  574   2.071   0.420   2.161 -0.1806  0.0367 -0.2116
  192SOL    HW1  575   2.131   0.492   2.125 -0.3002 -1.0303 -3.8744
  192SOL    HW2  576   2.122   0.361   2.227 -3.2641 -0.2472 -0.1676
  193SOL     OW  577   0.203   0.240   0.796 -0.0885  0.0237  0.4394
  193SOL    HW1  578   0.193   0.178   0.874  1.4209 -1.8642 -3.1978
  193SOL    HW2  579   0.163   0.330   0.817 -1.1229 -1.9305 -0.8054
  194SOL     OW  580   1.339   2.614   1.546  0.5221  0.1511 -0.4342
  194SOL    HW1  581   1.340   2.703   1.502  1.5625 -2.3914  1.6394
  194SOL    HW2  582   1.425   2.565   1.529 -0.0006  0.7829  1.3849
  195SOL     OW  583   2.586   0.673   0.757  0.1705  0.1296  0.1805
  195SOL    HW1  584   2.576   0.592   0.816 -0.2717  1.3790 -1.2597
  195SOL    HW2  585   2.606   0.753   0.810  1.1095 -1.7772 -2.1261
  196SOL     OW  586   1.205   1.870   1.686 -0.4465 -0.1481  0.1443
  196SOL    HW1  587   1.146   1.881   1.604  0.6637 -0.3342 -0.1774
  196SOL    HW2  588   1.303   1.880   1.665 -1.2468 -0.4531  0.3665
  197SOL     OW  589   0.309   0.333   2.761 -0.1522  0.5889 -0.1154
  197SOL    HW1  590   0.398   0.284   2.753  1.9462 -0.1740 -1.1994
  197SOL    HW2  591   0.319   0.433   2.764 -0.0994 -0.7814 -0.8815
  198SOL     OW  592   1.300   1.042   0.685  0.1416  0.0130 -0.3340
  198SOL    HW1  593   1.331   1.114   0.619  2.4816  1.5704  0.2860
  198SOL    HW2  594   1.214   1.002   0.654 -0.0484 -2.0852  0.6088
  199SOL     OW  595   2.445   0.775   1.977  0.3536  0.1740  0.2962
  199SOL    HW1  596   2.375   0.721   2.030 -3.4533 -0.3557  0.8475
  199SOL    HW2  597   2.484   0.713   1.905  1.2574  0.7488 -2.3117
  200SOL     OW  598   2.551   2.696   2.178 -0.1059 -0.9309 -0.1857
  200SOL    HW1  599   2.620   2.767   2.210 -0.2350  2.1947  1.2001
  200SOL    HW2  600   2.542   2.700   2.076 -0.5250 -3.5729  0.0382
  201SOL     OW  601   2.266   0.107   1.697  0.0679 -0.3858  0.4649
  201SOL    HW1  602   2.161   0.096   1.702 -4.8013  0.6912  0.8523
  201SOL    HW2  603   2.303   0.023   1.739 -2.5287  1.8665 -2.8123
  202SOL     OW  604   2.205   2.991   0.098  0.0056  0.1722  0.2158
  202SOL    HW1  605   2.142   3.041   0.156  2.1016  1.6504 -0.3079
  202SOL    HW2  606   2.164   2.962   0.008 -1.0588  0.6923  0.1858
  203SOL     OW  607   0.930   2.200   2.333 -0.1745 -0.2887  0.0401
  203SOL    HW1  608   0.871   2.133   2.386  0.7701  1.7911  0.3997
  203SOL    HW2  609   1.026   2.171   2.334 -3.2635 -1.7278  4.0561
  204SOL     OW  610   1.027   1.309   2.562 -0.0881 -0.3381  0.2127
  204SOL    HW1  611   0.955   1.345   2.624  1.2412 -0.5009 -2.3801
  204SOL    HW2  612   0.997   1.219   2.524  1.5632 -1.3575  2.7459
  205SOL     OW  613   0.955   1.059   1.164  0.1396  0.0304  0.1166
  205SOL    HW1  614   0.970   0.962   1.204 -1.5763 -3.6930  0.4180
  205SOL    HW2  615   1.044   1.110   1.157 -2.8832 -1.2533 -0.1752
  206SOL     OW  616   0.699   0.451   2.788 -0.2543  0.2810 -0.3430
  206SOL    HW1  617   0.674   0.488   2.694 -0.1813 -1.6223 -0.0604
  206SOL    HW2  618   0.628   0.384   2.819 -0.0451  0.1588  2.9170
  207SOL     OW  619   1.628   2.647   2.349  0.2934 -0.3997  0.1015
  207SOL    HW1  620   1.682   2.731   2.366 -1.4855 -2.5720 -0.7001
  207SOL    HW2  621   1.554   2.649   2.417 -0.1878  1.6799 -0.8702
  208SOL     OW  622   0.900   2.613   1.217 -0.0905 -0.1684 -0.2350
  208SOL    HW1  623   0.943   2.698   1.181 -0.4863 -0.7531  0.6957
  208SOL    HW2  624   0.939   2.531   1.172 -1.4092  4.8975  3.5513
  209SOL     OW  625   1.441   1.475   2.726  0.8464 -0.3430  0.2853
  209SOL    HW1  626   1.489   1.411   2.789  0.0039 -1.8421  0.3799
  209SOL    HW2  627   1.375   1.416   2.674 -0.0315  0.5212 -0.3718
  210SOL     OW  628   1.963   0.893   0.948  0.3775  0.8133  0.1445
  210SOL    HW1  629   2.013   0.897   1.033 -1.6704 -1.9278  0.4666
  210SOL    HW2  630   2.020   0.890   0.870 -2.8751  0.1589  4.4986
  211SOL     OW  631   0.943   2.492   0.580 -0.2641 -0.4720  0.2573
  211SOL    HW1  632   0.941   2.556   0.505  1.0586 -0.4383 -2.1295
  211SOL    HW2  633   0.860   2.434   0.576  0.1473  2.2334  0.9815
  212SOL     OW  634   1.975   1.760   0.272 -0.2344 -0.1335  0.0516
  212SOL    HW1  635   1.979   1.788   0.176  0.8991 -2.2964  2.9355
  212SOL    HW2  636   1.973   1.843   0.326  1.7184 -1.1262 -0.3510
  213SOL     OW  637   1.744   0.402   3.002  0.2612 -0.0144  0.1240
  213SOL    HW1  638   1.791   0.317   3.028  0.1420  1.3890 -0.3652
  213SOL    HW2  639   1.679   0.388   2.921 -0.7097 -1.3864 -0.5890
  214SOL     OW  640   1.221   1.629   1.805 -0.2620 -0.6518 -0.0802
  214SOL    HW1  641   1.168   1.578   1.741  0.4157  1.1841  0.1570
  214SOL    HW2  642   1.230   1.729   1.778 -0.8221 -0.1798 -0.0711
  215SOL     OW  643   0.640   1.895   0.378  0.0329  0.5000  0.2726
  215SOL    HW1  644   0.684   1.908   0.287 -1.1016 -0.7317 -0.3690
  215SOL    HW2  645   0.575   1.818   0.370 -0.3826 -0.8461 -1.8634
  216SOL     OW  646   0.244   3.012   2.588  0.0315  0.2692 -0.6471
  216SOL    HW1  647   0.283   2.916   2.611  2.7604 -2.8309  1.6622
  216SOL    HW2  648   0.165   2.999   2.527 -0.4907 -0.9862 -1.5421
  217SOL     OW  649   2.520   0.645   1.195  0.3991  0.2586 -0.2121
  217SOL    HW1  650   2.469   0.563   1.160 -0.4693  0.3870 -2.6489
  217SOL    HW2  651   2.618   0.636   1.208 -2.6600  2.1090 -0.7739
  218SOL     OW  652   1.761   1.872   2.387  0.1989  0.0321 -0.1875
  218SOL    HW1  653   1.710   1.803   2.337  0.9706 -2.9832 -2.8695
  218SOL    HW2  654   1.760   1.869   2.484 -1.7394 -0.7411  0.3623
  219SOL     OW  655   2.070   1.626   3.100 -0.1607  0.0239  0.8561
  219SOL    HW1  656   2.017   1.604   3.014 -0.1403  1.5537 -0.6365
  219SOL    HW2  657   2.046   1.721   0.006  1.7160 -0.9492  1.8355
  220SOL     OW  658   1.733   0.980   0.568  0.4441 -0.2266 -0.4551
  220SOL    HW1  659   1.806   0.925   0.528 -1.2581 -1.7001 -0.3458
  220SOL    HW2  660   1.707   1.057   0.508  2.9468 -1.4610  1.9815
  221SOL     OW  661   0.555   0.609   3.037 -0.0878 -0.0403 -0.0429
  221SOL    HW1  662   0.535   0.643   0.010 -1.6933 -2.0478  0.1864
  221SOL    HW2  663   0.576   0.510   3.038  3.7110 -0.4190 -1.1762
  222SOL     OW  664   1.459   1.395   0.021 -0.4992  0.2949 -0.2241
  222SOL    HW1  665   1.479   1.412   0.122 -0.4513 -2.3658  0.2501
  222SOL    HW2  666   1.374   1.445   3.118 -2.5450 -3.5794 -0.1190
  223SOL     OW  667   1.160   0.203   0.086  0.3437  0.5171  0.0921
  223SOL    HW1  668   1.062   0.227   0.084  0.5696 -0.9861  0.3125
  223SOL    HW2  669   1.206   0.246   0.167  0.1455  2.8842 -0.3988
  224SOL     OW  670   2.016   0.029   1.416 -0.1125 -0.1376  0.5472
  224SOL    HW1  671   1.921   0.060   1.399  1.1793  0.6470  0.4818
  224SOL    HW2  672   2.019   3.080   1.488 -1.1846  2.1891 -1.1453
  225SOL     OW  673   0.425   2.508   1.307  0.1791 -0.3896 -0.0904
  225SOL    HW1  674   0.424   2.430   1.378 -0.4678 -0.5473  1.2694
  225SOL    HW2  675   0.512   2.561   1.305  2.1664  0.6300  2.1291
  226SOL     OW  676   1.194   1.439   3.123 -0.6336  0.1919 -0.3308
  226SOL    HW1  677   1.112   1.451   3.056  0.5028 -0.8008  1.8927
  226SOL    HW2  678   1.168   1.471   0.093 -0.7693  0.7642  0.5212
  227SOL     OW  679   1.090   1.453   0.826 -0.1406  0.5708  0.2698
  227SOL    HW1  680   1.152   1.523   0.861 -1.6639  3.1256 -2.1264
  227SOL    HW2  681   1.120   1.357   0.853  0.4823 -1.0376 -2.4441
  228SOL     OW  682   0.366   1.723   0.472 -0.5287  0.0218  0.9081
  228SOL    HW1  683   0.356   1.677   0.565  1.1044  0.9326  0.4866
  228SOL    HW2  684   0.316   1.811   0.473  1.7522 -0.4801 -1.6843
  229SOL     OW  685   1.528   0.118   2.931  0.2180 -0.4202 -0.5679
  229SOL    HW1  686   1.559   0.131   2.837 -0.7385 -1.4296  0.2966
  229SOL    HW2  687   1.456   0.188   2.961  0.6385  0.4292 -1.0594
  230SOL     OW  688   1.470   0.840   2.662  0.0365  0.1878 -0.3873
  230SOL    HW1  689   1.530   0.854   2.580  0.0701 -2.8626  2.6379
  230SOL    HW2  690   1.452   0.927   2.714  1.3933 -0.5098  1.1481
  231SOL     OW  691   1.013   1.750   2.614 -0.1453  0.4986 -0.3964
  231SOL    HW1  692   1.088   1.715   2.671  0.3192  0.4566 -1.4078
  231SOL    HW2  693   0.970   1.673   2.562  0.8548  1.9514 -0.5290
  232SOL     OW  694   2.353   2.270   0.261 -0.4996 -0.4792  0.1947
  232SOL    HW1  695   2.275   2.254   0.329  0.4451 -1.5115  0.2488
  232SOL    HW2  696   2.418   2.193   0.257  0.6442 -0.3591 -1.1642
  233SOL     OW  697   2.481   2.555   0.285  0.5285  0.2720 -0.7081
  233SOL    HW1  698   2.397   2.604   0.249 -2.6224  0.6770  1.6495
  233SOL    HW2  699   2.458   2.464   0.321 -1.6556 -2.7814 -0.3857
  234SOL     OW  700   0.689   0.773   2.851 -0.2289  0.6937  0.5139
  234SOL    HW1  701   0.639   0.695   2.898 -1.2498  1.6772  0.0321
  234SOL    HW2  702   0.777   0.783   2.900 -1.4008 -0.3763  0.4971
  235SOL     OW  703   2.914   0.400   2.855 -0.5562  0.0131  0.2745
  235SOL    HW1  704   2.892   0.302   2.876 -0.3792 -1.5765 -0.0333
  235SOL    HW2  705   2.840   0.445   2.800 -2.9936  0.6682 -0.7155
  236SOL     OW  706   1.987   2.425   1.704 -0.1889 -0.5177  0.0342
  236SOL    HW1  707   1.945   2.340   1.731  1.8441  2.5065 -0.3239
  236SOL    HW2  708   1.954   2.496   1.768 -2.4833 -0.7741 -0.7000
  237SOL     OW  709   0.832   1.520   2.043  0.6927  0.0312  0.0863
  237SOL    HW1  710   0.890   1.597   2.072 -2.4459 -1.2100  1.9866
  237SOL    HW2  711   0.812   1.460   2.121 -1.3697  0.7239 -0.1223
  238SOL     OW  712   1.596   0.396   2.763 -0.6186 -0.2395 -0.4321
  238SOL    HW1  713   1.523   0.460   2.735 -3.2321  0.2799  1.7844
  238SOL    HW2  714   1.594   0.304   2.719  1.8434  1.5514 -0.5742
  239SOL     OW  715   0.381   2.096   1.647 -0.4606  0.0492 -0.6702
  239SOL    HW1  716   0.305   2.159   1.621 -0.9474 -0.2850  0.1398
  239SOL    HW2  717   0.428   2.122   1.739  1.4140  3.5078  4.6392
  240SOL     OW  718   2.574   2.193   0.529 -0.1537  0.1866  0.3275
  240SOL    HW1  719   2.661   2.160   0.576  3.9704  0.1766  0.0997
  240SOL    HW2  720   2.570   2.162   0.427 -1.4790  0.9917 -4.8357
  241SOL     OW  721   2.629   0.892   0.912  0.3770  0.2734  0.0911
  241SOL    HW1  722   2.608   0.905   1.006  0.2682 -1.2080 -2.3524
  241SOL    HW2  723   2.583   0.961   0.852  1.4664 -1.2326  1.5835
  242SOL     OW  724   2.235   2.662   2.177 -0.1405  0.1126  0.0763
  242SOL    HW1  725   2.207   2.567   2.169  0.3038 -0.3383  1.3635
  242SOL    HW2  726   2.324   2.668   2.229 -0.4805 -1.5553  0.0988
  243SOL     OW  727   0.781   2.252   1.558  0.2010  0.0607 -0.4783
  243SOL    HW1  728   0.829   2.332   1.601  0.0025  0.4183  0.2587
  243SOL    HW2  729   0.831   2.231   1.473 -2.2468  0.4485  1.6467
  244SOL     OW  730   1.666   0.152   2.695  0.0235 -0.1576  0.3672
  244SOL    HW1  731   1.763   0.179   2.688 -0.3855  0.9672  0.5517
  244SOL    HW2  732   1.638   0.086   2.622 -0.5320 -1.5109 -0.0135
  245SOL     OW  733   1.271   0.254   1.306  0.4721 -0.2713 -0.2342
  245SOL    HW1  734   1.249   0.316   1.230 -0.6677 -0.7806  2.5615
  245SOL    HW2  735   1.248   0.156   1.285  1.0494 -1.3366  0.8466
  246SOL     OW  736   1.779   2.675   0.207  0.0449  0.6261 -0.5547
  246SOL    HW1  737   1.823   2.602   0.152 -1.5523  0.4718 -0.2988
  246SOL    HW2  738   1.679   2.656   0.229 -1.5143  1.1608  0.5975
  247SOL     OW  739   1.228   0.556   2.412  0.2679 -0.2450  0.3790
  247SOL    HW1  740   1.189   0.633   2.470  0.2657  1.5485  0.9248
  247SOL    HW2  741   1.168   0.479   2.391 -0.1294 -1.7915 -0.1727
  248SOL     OW  742   0.659   1.774   1.707 -0.1211  0.2534 -0.0617
  248SOL    HW1  743   0.687   1.874   1.700 -0.7809  0.7376  0.1229
  248SOL    HW2  744   0.617   1.753   1.797 -0.9951  0.6697 -2.2310
  249SOL     OW  745   2.258   0.243   0.553 -0.1480  0.5578  0.3919
  249SOL    HW1  746   2.255   0.231   0.452  0.2770 -0.7802 -3.6695
  249SOL    HW2  747   2.165   0.256   0.588 -0.6583  1.8174 -0.3342
  250SOL     OW  748   0.163   0.614   0.275  0.0418  0.2783 -0.1957
  250SOL    HW1  749   0.249   0.566   0.306  1.2438  1.1161  1.3575
  250SOL    HW2  750   0.084   0.602   0.347 -1.1388 -0.8334  3.1424
  251SOL     OW  751   1.327   0.527   2.924  0.0312  0.6157  0.1232
  251SOL    HW1  752   1.380   0.611   2.952  1.0433 -1.2801  1.0150
  251SOL    HW2  753   1.315   0.527   2.820 -0.2698  1.7408  0.1687
  252SOL     OW  754   1.679   1.797   2.029 -0.5147  0.3460 -0.5450
  252SOL    HW1  755   1.694   1.726   1.962  1.2271  0.9226  1.2222
  252SOL    HW2  756   1.654   1.752   2.118  2.6327 -0.4268 -1.0216
  253SOL     OW  757   2.646   2.304   1.398  0.0629  0.5669  0.1210
  253SOL    HW1  758   2.634   2.295   1.500 -1.2135  2.3627  2.3102
  253SOL    HW2  759   2.743   2.341   1.382  2.4163 -0.6277 -2.5822
  254SOL     OW  760   2.868   1.139   1.081 -0.1851 -0.2608  0.5814
  254SOL    HW1  761   2.925   1.216   1.121 -1.9740 -2.1454  0.2707
  254SOL    HW2  762   2.889   1.139   0.980 -2.6509 -0.1273 -0.9961
  255SOL     OW  763   1.222   0.407   1.086 -0.5089 -0.6996  0.5053
  255SOL    HW1  764   1.148   0.380   1.016 -1.2426  0.8041 -4.1345
  255SOL    HW2  765   1.224   0.513   1.088  0.9608  3.0583 -1.9149
  256SOL     OW  766   1.993   2.493   1.337 -0.2497  0.1666  0.0006
  256SOL    HW1  767   1.992   2.409   1.388 -0.1726  1.5459  0.5166
  256SOL    HW2  768   2.040   2.468   1.250 -2.9557 -1.8570 -2.2699
  257SOL     OW  769   0.622   3.124   2.585  0.1138 -0.1848 -0.2604
  257SOL    HW1  770   0.609   3.043   2.644 -1.0179  0.9675 -1.7851
  257SOL    HW2  771   0.655   3.100   2.491 -2.0807 -0.4880  0.5178
  258SOL     OW  772   0.819   2.207   0.709  0.0616 -0.5690 -0.4002
  258SOL    HW1  773   0.742   2.233   0.647  0.5962  1.4184 -0.7331
  258SOL    HW2  774   0.851   2.118   0.683 -0.3543  1.6125  0.5059
  259SOL     OW  775   1.196   2.932   2.741  0.6979  0.3719 -0.1427
  259SOL    HW1  776   1.106   2.923   2.695 -1.8973 -1.5994 -1.8897
  259SOL    HW2  777   1.275   2.900   2.679 -0.0826 -2.6950 -2.9104
  260SOL     OW  778   2.144   0.746   1.345 -0.3200  0.0174  0.1243
  260SOL    HW1  779   2.042   0.742   1.344 -0.3430  0.1122 -2.9787
  260SOL    HW2  780   2.173   0.742   1.446 -2.6106  0.8411 -0.9933
  261SOL     OW  781   0.595   0.530   2.538 -0.1129 -0.3236  0.3782
  261SOL    HW1  782   0.528   0.477   2.481  1.9869 -0.8728 -0.6785
  261SOL    HW2  783   0.624   0.614   2.485 -0.6795 -1.9037 -0.4067
  262SOL     OW  784   0.303   2.283   2.023 -0.0822  0.9403 -0.1771
  262SOL    HW1  785   0.292   2.281   2.124 -2.7629  0.2911 -0.1925
  262SOL    HW2  786   0.300   2.378   1.992 -1.1740 -1.6395  1.1451
  263SOL     OW  787   3.032   1.659   2.512 -0.5954 -0.3949  0.1342
  263SOL    HW1  788   3.122   1.640   2.464  3.7589 -0.1257 -2.9851
  263SOL    HW2  789   3.022   1.757   2.545  0.4008 -0.0715  1.0690
  264SOL     OW  790   1.174   1.211   0.888 -0.1099 -0.1129  0.2076
  264SOL    HW1  791   1.120   1.131   0.867  0.3192  1.7782 -2.7572
  264SOL    HW2  792   1.260   1.212   0.834 -2.3117 -1.4118 -1.5884
  265SOL     OW  793   1.437   2.757   0.801  0.4713 -0.2113 -0.1046
  265SOL    HW1  794   1.509   2.752   0.728 -2.3592 -2.8286 -0.9504
  265SOL    HW2  795   1.487   2.730   0.888  0.9500  0.6496  0.1202
  266SOL     OW  796   1.663   1.102   1.376 -0.5152 -0.2334 -0.4375
  266SOL    HW1  797   1.738   1.060   1.436  2.8337 -3.8359  3.0941
  266SOL    HW2  798   1.693   1.095   1.278  1.2788  0.1277  0.1538
  267SOL     OW  799   2.355   1.042   3.009 -0.3575  0.1049  0.3488
  267SOL    HW1  800   2.297   1.049   2.927 -1.7154  0.8478  0.6373
  267SOL    HW2  801   2.362   0.945   3.045 -0.2002  0.9146  3.6277
  268SOL     OW  802   1.308   0.327   0.281  0.0944  0.0430  0.0189
  268SOL    HW1  803   1.331   0.315   0.381 -0.7679 -0.0873 -0.7390
  268SOL    HW2  804   1.384   0.374   0.229 -0.7600  0.4692 -0.3375
  269SOL     OW  805   3.113   0.792   2.756  0.1837 -0.0408 -0.1743
  269SOL    HW1  806   3.047   0.734   2.701 -0.6346 -1.4384  0.4534
  269SOL    HW2  807   3.061   0.869   2.799 -1.1062 -1.0168  0.0555
  270SOL     OW  808   0.299   1.506   2.812  0.2157  0.2642  0.2860
  270SOL    HW1  809   0.382   1.467   2.856  3.1617  0.0220  2.3393
  270SOL    HW2  810   0.236   1.424   2.793  0.0097 -1.7600  0.8280
  271SOL     OW  811   2.811   0.723   3.024 -0.5565 -0.6265 -0.1880
  271SOL    HW1  812   2.733   0.738   2.960  1.0562  0.5563 -0.4361
  271SOL    HW2  813   2.775   0.681   3.110 -0.3471 -0.8711  0.5412
  272SOL     OW  814   2.852   2.492   2.383  0.5793  0.4306  0.0340
  272SOL    HW1  815   2.904   2.463   2.464 -0.9317 -0.1632 -0.8759
  272SOL    HW2  816   2.759   2.532   2.410  0.1591  1.9003 -0.9188
  273SOL     OW  817   0.007   0.044   0.099 -0.4936  0.2258  0.3839
  273SOL    HW1  818   3.109   0.136   0.130 -1.7434  0.5640 -0.4292
  273SOL    HW2  819   0.031   3.104   0.173  0.4047  0.4959 -1.0230
  274SOL     OW  820   0.793   2.190   0.992 -0.4127  0.1843  0.2820
  274SOL    HW1  821   0.705   2.198   1.037  4.4058 -0.7839  1.2499
  274SOL    HW2  822   0.778   2.204   0.889 -0.1000  2.2886 -1.1269
  275SOL     OW  823   2.163   0.664   0.527  1.1866 -0.0477 -0.1763
  275SOL    HW1  824   2.212   0.637   0.443 -1.6853 -0.6175  0.4303
  275SOL    HW2  825   2.221   0.721   0.581 -2.8176 -1.8712 -0.4916
  276SOL     OW  826   2.590   1.530   1.256  0.8107 -0.3161  0.4074
  276SOL    HW1  827   2.500   1.555   1.215  1.3138  1.3310 -0.2688
  276SOL    HW2  828   2.594   1.521   1.357  0.4663 -0.6942  0.2962
  277SOL     OW  829   2.216   0.113   1.080 -0.1543  0.3851  0.2429
  277SOL    HW1  830   2.181   0.026   1.123 -0.1328 -1.5569 -1.6978
  277SOL    HW2  831   2.218   0.183   1.157  0.8528  0.3993 -0.2219
  278SOL     OW  832   1.328   2.638   2.324 -0.2617 -0.1412  0.3637
  278SOL    HW1  833   1.344   2.540   2.314 -0.3507  3.4268  2.1737
  278SOL    HW2  834   1.244   2.653   2.387 -0.9992 -1.0860  0.2450
  279SOL     OW  835   1.576   1.980   1.056  0.6565  0.5095 -0.4776
  279SOL    HW1  836   1.573   1.991   1.155  1.6114  0.7342 -0.4524
  279SOL    HW2  837   1.564   2.070   1.012  0.8493 -3.1595  1.5558
  280SOL     OW  838   0.446   1.147   1.051 -0.3608 -0.7545  0.1254
  280SOL    HW1  839   0.373   1.106   1.111 -1.9473 -1.5064 -2.0227
  280SOL    HW2  840   0.530   1.095   1.054 -0.3925  0.0053 -0.3836
  281SOL     OW  841   2.585   1.404   2.660 -0.8772  0.2552  0.2300
  281SOL    HW1  842   2.531   1.461   2.730  1.0576  2.2369 -1.5231
  281SOL    HW2  843   2.675   1.372   2.695 -0.5795 -2.7441 -1.0045
  282SOL     OW  844   0.516   1.638   0.266 -0.8002  0.1237 -0.2616
  282SOL    HW1  845   0.455   1.681   0.338 -1.2709  0.2138 -0.3413
  282SOL    HW2  846   0.510   1.538   0.268 -1.6441  3.1575  0.0006
  283SOL     OW  847   1.866   2.477   0.057 -0.2653 -0.1188  0.1708
  283SOL    HW1  848   1.956   2.531   0.045  0.7753  0.5189  0.1719
  283SOL    HW2  849   1.832   2.442   3.092  0.2351 -2.1213 -1.6925
  284SOL     OW  850   1.043   0.055   0.897  0.8166  0.4472 -0.4988
  284SOL    HW1  851   1.106   0.001   0.958 -0.1449  1.0265  1.7847
  284SOL    HW2  852   1.030   0.020   0.806  0.7682 -0.3810  1.3047
  285SOL     OW  853   2.177   1.067   2.803  0.4713  0.5708  0.8748
  285SOL    HW1  854   2.131   1.106   2.717 -1.9333  1.7602 -3.0052
  285SOL    HW2  855   2.129   1.107   2.881 -0.0341 -0.7378 -2.1235
  286SOL     OW  856   1.973   2.712   0.852  0.9037  0.1532 -0.5049
  286SOL    HW1  857   2.034   2.629   0.866  0.9047  0.2709  1.0270
  286SOL    HW2  858   2.006   2.786   0.914  3.9956  0.2354  0.6936
  287SOL     OW  859   1.393   0.289   0.879 -0.1354 -0.6247  0.3168
  287SOL    HW1  860   1.356   0.330   0.961 -0.0733 -2.3376 -1.3708
  287SOL    HW2  861   1.419   0.361   0.810  0.4892  1.2244  0.7399
  288SOL     OW  862   0.714   2.498   2.843 -0.3561  0.3969 -0.2520
  288SOL    HW1  863   0.779   2.578   2.864 -0.3830 -1.6362  0.3596
  288SOL    HW2  864   0.645   2.501   2.914  0.5032  1.5853 -2.1570
  289SOL     OW  865   0.147   1.624   0.877 -0.3253 -0.3005 -0.0079
  289SOL    HW1  866   0.099   1.549   0.925  2.6186  1.8423  0.4508
  289SOL    HW2  867   0.103   1.710   0.904  1.1997  1.0110 -2.4245
  290SOL     OW  868   1.252   2.070   1.092  0.5923 -0.1054  0.3525
  290SOL    HW1  869   1.343   2.051   1.126  0.2858  0.8481 -0.0866
  290SOL    HW2  870   1.235   2.167   1.086  0.2853 -1.4485 -1.3749
  291SOL     OW  871   1.475   2.966   0.223 -0.5120 -0.1114  0.0760
  291SOL    HW1  872   1.438   2.905   0.296 -0.4363  0.6872 -0.2995
  291SOL    HW2  873   1.406   3.007   0.160 -0.1000 -0.1066 -1.3054
  292SOL     OW  874   0.446   0.492   2.169  0.5008  0.4640 -0.1048
  292SOL    HW1  875   0.346   0.507   2.195  0.8552  1.0162  1.1330
  292SOL    HW2  876   0.486   0.583   2.137 -2.4643  3.2206  1.8068
  293SOL     OW  877   2.593   1.985   1.090 -0.6165  0.8445 -0.0377
  293SOL    HW1  878   2.539   1.918   1.041 -0.8395  1.4710  0.4036
  293SOL    HW2  879   2.544   2.068   1.117  1.8047 -0.4760 -1.7404
  294SOL     OW  880   0.643   0.303   2.190 -0.1549 -0.3527  0.4722
  294SOL    HW1  881   0.560   0.358   2.194  2.3321 -0.3984 -0.7879
  294SOL    HW2  882   0.616   0.206   2.201  1.6937  0.6885 -0.1458
  295SOL     OW  883   1.601   1.543   1.242  0.4387 -0.2266 -0.5048
  295SOL    HW1  884   1.633   1.469   1.304  2.6426 -0.8986  0.2950
  295SOL    HW2  885   1.500   1.559   1.238  2.8826  1.9414 -1.2997
  296SOL     OW  886   2.483   1.832   0.254 -0.4163 -0.4436  0.0705
  296SOL    HW1  887   2.402   1.797   0.199 -0.8129  2.8518 -0.3048
  296SOL    HW2  888   2.570   1.820   0.198  1.9055  0.4632 -0.8482
  297SOL     OW  889   2.418   0.122   0.346  0.4653  0.1454 -0.1564
  297SOL    HW1  890   2.412   0.017   0.349 -0.0050 -1.0177 -1.4633
  297SOL    HW2  891   2.451   0.150   0.436 -1.6724  0.2299  2.9478
  298SOL     OW  892   0.931   0.143   2.876 -0.4906 -0.4004 -0.0156
  298SOL    HW1  893   0.952   0.126   2.777 -0.1992 -0.5326  1.2263
  298SOL    HW2  894   0.922   0.240   2.904  2.8527 -2.0387 -0.1999
  299SOL     OW  895   0.657   2.318   2.231  0.3582 -0.3724 -0.2265
  299SOL    HW1  896   0.757   2.323   2.253 -0.2435  0.9597 -2.1140
  299SOL    HW2  897   0.611   2.327   2.323  2.2718 -0.5274  0.3270
  300SOL     OW  898   2.974   0.114   2.510 -0.2003  0.1898  0.1285
  300SOL    HW1  899   3.003   0.204   2.472 -0.3746 -0.6753 -1.7459
  300SOL    HW2  900   3.044   0.075   2.576  0.8678  1.9363  1.9965
  301SOL     OW  901   1.242   0.586   1.630 -0.1584 -0.1996 -0.8905
  301SOL    HW1  902   1.322   0.577   1.694 -0.3072 -0.6879  1.0373
  301SOL    HW2  903   1.204   0.501   1.595 -2.1291  3.0053 -1.2075
  302SOL     OW  904   2.729   2.360   2.795 -0.3939 -0.3088  0.1781
  302SOL    HW1  905   2.746   2.396   2.888  0.4543  0.1741  1.3967
  302SOL    HW2  906   2.679   2.273   2.788 -0.8520 -1.2815 -0.5032
  303SOL     OW  907   2.364   2.442   1.552  0.2131 -0.1605 -0.3506
  303SOL    HW1  908   2.350   2.341   1.569  1.2727 -2.0585 -1.2166
  303SOL    HW2  909   2.431   2.477   1.620  1.4162  0.6074  0.8152
  304SOL     OW  910   2.758   0.926   1.491 -0.6906  0.0214 -0.6189
  304SOL    HW1  911   2.822   0.899   1.414  3.7079  1.5332  0.1542
  304SOL    HW2  912   2.820   0.955   1.569  1.9659 -2.3171 -0.5908
  305SOL     OW  913   0.635   1.861   0.770 -0.1920 -0.3943 -0.0830
  305SOL    HW1  914   0.642   1.846   0.868 -4.7059  2.4096 -2.4227
  305SOL    HW2  915   0.555   1.922   0.747  0.5776  0.9925 -2.4733
  306SOL     OW  916   0.315   1.566   2.199 -0.5991  0.1048 -0.1962
  306SOL    HW1  917   0.276   1.505   2.132 -0.8378  0.9520 -2.7452
  306SOL    HW2  918   0.353   1.653   2.160  0.8698  3.8389 -0.3283
  307SOL     OW  919   1.149   0.327   1.528 -0.0193  0.1011  0.4496
  307SOL    HW1  920   1.136   0.242   1.586 -1.4438 -1.8458  0.3657
  307SOL    HW2  921   1.176   0.301   1.429 -0.9121  0.5352 -2.1941
  308SOL     OW  922   0.045   0.922   1.183  0.1050 -0.5931 -0.9297
  308SOL    HW1  923   3.070   0.920   1.200 -0.9935  0.4138  1.0987
  308SOL    HW2  924   0.060   0.919   1.085 -2.9203  1.8391 -0.2151
  309SOL     OW  925   2.611   1.235   1.196 -0.1928 -0.3141  0.1445
  309SOL    HW1  926   2.643   1.324   1.224  0.3473 -1.6674 -0.8814
  309SOL    HW2  927   2.680   1.194   1.133 -2.7971 -1.6831 -1.8630
  310SOL     OW  928   0.110   1.978   2.357 -0.3862 -0.8774  0.0841
  310SOL    HW1  929   0.094   1.925   2.269  1.2407 -0.4437 -0.1625
  310SOL    HW2  930   0.054   1.934   2.428  4.1954 -1.0211 -2.4668
  311SOL     OW  931   2.735   2.865   2.295  0.3655  0.3204 -0.2567
  311SOL    HW1  932   2.805   2.793   2.310 -0.7739 -4.6585 -1.2698
  311SOL    HW2  933   2.749   2.951   2.352  1.4393 -1.5416  1.9700
  312SOL     OW  934   1.948   2.175   2.893  0.1861  0.4069 -0.2132
  312SOL    HW1  935   1.876   2.245   2.902 -3.3353  0.2292  2.4855
  312SOL    HW2  936   2.025   2.200   2.952  0.2469  0.2844 -2.4665
  313SOL     OW  937   2.991   2.969   0.763  0.0877  0.0853  0.0267
  313SOL    HW1  938   2.979   2.874   0.726 -0.6498  1.3117  0.4815
  313SOL    HW2  939   3.072   3.018   0.725 -0.5697  1.8633 -0.9800
  314SOL     OW  940   1.752   1.013   3.009 -0.3330 -0.0661 -0.1431
  314SOL    HW1  941   1.678   1.045   3.067  0.2417  1.5333 -1.0125
  314SOL    HW2  942   1.813   1.087   2.966  0.2724  0.9042 -1.2935
  315SOL     OW  943   1.594   3.028   2.521  0.0878 -0.0702 -0.0876
  315SOL    HW1  944   1.557   3.048   2.430  0.3957 -2.1026  2.1949
  315SOL    HW2  945   1.536   2.952   2.563  0.0257 -2.0716  0.0087
  316SOL     OW  946   3.069   1.222   0.553  0.2001  0.5525  0.0694
  316SOL    HW1  947   0.006   1.294   0.587  3.4269 -3.3812  1.1378
  316SOL    HW2  948   0.009   1.144   0.531  1.5882 -1.0676  1.6227
  317SOL     OW  949   0.497   2.803   3.006  0.0404 -0.0176  0.2122
  317SOL    HW1  950   0.394   2.811   3.039 -1.7062 -0.9591 -0.0560
  317SOL    HW2  951   0.561   2.836   3.078  0.5845 -1.0758  0.3455
  318SOL     OW  952   2.813   2.340   1.051 -0.0100 -0.0244  0.2541
  318SOL    HW1  953   2.844   2.242   1.035  0.5527  0.4362 -1.4867
  318SOL    HW2  954   2.724   2.369   1.003 -0.4836  2.1325  1.7469
  319SOL     OW  955   1.172   1.994   2.836 -0.2571  0.4027 -0.1675
  319SOL    HW1  956   1.075   1.973   2.803  0.5866  0.1697  0.7013
  319SOL    HW2  957   1.203   1.907   2.891  0.4908  1.5940 -2.2175
  320SOL     OW  958   0.656   2.025   1.241  0.3883 -0.1503  0.1157
  320SOL    HW1  959   0.653   1.967   1.157 -0.6900  0.5368  0.7749
  320SOL    HW2  960   0.600   1.983   1.317 -2.0733 -1.7947 -0.5295
  321SOL     OW  961   1.134   2.744   2.479  0.1613 -0.4937 -0.2309
  321SOL    HW1  962   1.068   2.811   2.437  2.1005  0.8273 -0.4267
  321SOL    HW2  963   1.090   2.676   2.540  0.9820  0.1069  2.6385
  322SOL     OW  964   2.590   2.028   1.996 -0.8611  0.3679 -0.0985
  322SOL    HW1  965   2.489   2.054   2.005 -1.6855  0.3658 -1.6566
  322SOL    HW2  966   2.647   2.105   1.968 -0.2541  2.4776 -0.6783
  323SOL     OW  967   2.953   0.669   1.011  0.7220  0.6150  0.3761
  323SOL    HW1  968   2.930   0.757   0.970 -1.2329  2.1180 -1.8882
  323SOL    HW2  969   3.042   0.637   0.966 -0.2477  0.8877 -0.2164
  324SOL     OW  970   2.743   3.072   2.489  0.0330  0.4082  0.8761
  324SOL    HW1  971   2.750   3.028   2.581 -1.2214 -0.7581 -0.4826
  324SOL    HW2  972   2.797   0.035   2.483  0.0738 -3.9711 -1.4537
  325SOL     OW  973   1.047   0.670   2.616  0.2385 -0.0180  0.0290
  325SOL    HW1  974   1.080   0.574   2.639 -2.1159  2.0222 -1.3915
  325SOL    HW2  975   0.951   0.660   2.590  1.8902 -1.3090  2.3866
  326SOL     OW  976   1.928   2.660   1.872  0.6066 -0.0887  0.6813
  326SOL    HW1  977   1.853   2.724   1.849  0.6723 -0.5432 -0.5741
  326SOL    HW2  978   2.018   2.708   1.879  1.3645 -1.4230 -1.5510
  327SOL     OW  979   2.133   0.091   2.938  0.0666 -0.3481 -0.0985
  327SOL    HW1  980   2.205   0.146   2.984  0.7642  0.0482  1.2631
  327SOL    HW2  981   2.168   3.118   2.951 -1.4877 -1.5595  0.1026
  328SOL     OW  982   0.227   1.344   2.043 -0.4359 -0.0331 -0.4691
  328SOL    HW1  983   0.171   1.279   2.104  1.4586 -3.5093  1.3722
  328SOL    HW2  984   0.166   1.422   2.017 -0.3230  0.1368 -0.0195
  329SOL     OW  985   1.949   0.496   1.730  0.4339  0.1952  0.0742
  329SOL    HW1  986   1.881   0.520   1.810 -2.2291  0.9048  0.5469
  329SOL    HW2  987   2.034   0.552   1.735 -0.7004  0.5912  1.1909
  330SOL     OW  988   0.198   1.179   0.761  0.0722  0.2476 -0.4100
  330SOL    HW1  989   0.136   1.116   0.712 -0.4260  1.1779  1.7735
  330SOL    HW2  990   0.169   1.180   0.859  0.5012 -0.4341  0.9603
  331SOL     OW  991   0.113   1.846   2.094  0.3319 -0.4572  0.2734
  331SOL    HW1  992   0.041   1.778   2.067  0.1675 -1.1528 -0.6421
  331SOL    HW2  993   0.208   1.810   2.086  0.5144  0.3123  1.9765
  332SOL     OW  994   0.061   2.675   1.659  0.2975  0.4055 -0.3863
  332SOL    HW1  995   3.114   2.670   1.586 -0.4871 -0.0422 -1.7659
  332SOL    HW2  996   0.063   2.581   1.706  0.6349 -3.2317  1.8353
  333SOL     OW  997   2.448   0.106   0.946 -0.0786 -0.5076  0.6243
  333SOL    HW1  998   2.362   0.109   1.005 -1.1584  0.1948  2.6411
  333SOL    HW2  999   2.532   0.100   0.999  1.5917 -0.2757 -1.5330
  334SOL     OW 1000   0.366   1.675   0.739  0.1178  0.3181 -0.0047
  334SOL    HW1 1001   0.438   1.614   0.776  2.0128  0.7799  0.1878
  334SOL    HW2 1002   0.276   1.652   0.780 -0.1329 -1.6527 -2.2294
  335SOL     OW 1003   0.089   2.622   2.995 -0.5309 -0.0208  0.1524
  335SOL    HW1 1004   0.045   2.625   2.901 -0.2328 -0.9068 -1.1234
  335SOL    HW2 1005   0.149   2.536   3.011 -0.5340 -1.3616  0.8579
  336SOL     OW 1006   0.040   2.917   2.405  0.1319 -0.2464  0.3378
  336SOL    HW1 1007   3.101   2.949   2.332  1.6123  0.1902 -0.6712
  336SOL    HW2 1008   0.081   2.827   2.376 -1.6801 -1.6594 -2.4080
  337SOL     OW 1009   1.862   2.460   2.059 -0.0057 -0.2818 -0.2153
  337SOL    HW1 1010   1.895   2.539   2.009  0.5557 -4.0943  0.8361
  337SOL    HW2 1011   1.814   2.397   1.992 -2.2041 -1.7501 -0.6821
  338SOL     OW 1012   0.682   2.924   0.039 -0.4230 -0.0307 -0.3107
  338SOL    HW1 1013   0.627   2.953   0.120  0.4514 -0.1039 -1.3458
  338SOL    HW2 1014   0.744   2.996   0.006 -1.4185 -0.0617  0.9279
  339SOL     OW 1015   0.526   1.160   2.113  0.2143 -0.2316  0.4067
  339SOL    HW1 1016   0.514   1.238   2.172  0.0674 -1.1149 -1.5020
  339SOL    HW2 1017   0.539   1.198   2.019  1.7161  1.1838  0.0244
  340SOL     OW 1018   1.746   2.769   0.666 -0.1477  0.2338 -0.0011
  340SOL    HW1 1019   1.793   2.750   0.755 -1.3900 -2.6672  1.1760
  340SOL    HW2 1020   1.726   2.869   0.656  3.5559  2.8002 -2.8400
  341SOL     OW 1021   2.199   1.190   0.904 -0.1319 -0.0074  0.2427
  341SOL    HW1 1022   2.198   1.105   0.844  3.2567 -0.0998 -3.5096
  341SOL    HW2 1023   2.212   1.167   1.002  0.8065  3.2934  0.0419
  342SOL     OW 1024   2.436   3.066   3.090 -0.0672 -0.0835 -0.0872
  342SOL    HW1 1025   2.356   3.028   0.019 -3.0045 -0.9344  2.4831
  342SOL    HW2 1026   2.503   2.989   3.077 -2.4645 -2.2947  1.3939
  343SOL     OW 1027   1.178   2.232   1.636 -0.2660  0.0393 -0.1625
  343SOL    HW1 1028   1.180   2.304   1.563 -0.1629 -0.6783  1.1821
  343SOL    HW2 1029   1.255   2.251   1.699 -0.3756  2.7080  0.4398
  344SOL     OW 1030   2.601   2.865   1.235 -0.2907 -0.3297 -0.4669
  344SOL    HW1 1031   2.525   2.858   1.301  1.7560  0.3781 -0.2948
  344SOL    HW2 1032   2.688   2.837   1.283  0.5135  1.3395  0.8710
  345SOL     OW 1033   2.573   2.010   3.055  0.4822 -0.2886  0.1750
  345SOL    HW1 1034   2.650   1.940   3.051 -0.6660  0.2535 -0.5854
  345SOL    HW2 1035   2.602   2.105   3.061 -1.9354 -1.0044 -3.1660
  346SOL     OW 1036   2.406   2.083   0.727  0.5011 -0.3166 -0.1874
  346SOL    HW1 1037   2.439   2.159   0.668 -0.4442 -2.2364 -1.1420
  346SOL    HW2 1038   2.391   2.115   0.824  1.6661  2.2434 -0.5866
  347SOL     OW 1039   1.615   2.150   1.509 -0.1629  0.2102  0.3412
  347SOL    HW1 1040   1.603   2.234   1.566  0.3583 -0.8421  0.1124
  347SOL    HW2 1041   1.659   2.079   1.564 -0.9161  0.8131 -0.4313
  348SOL     OW 1042   0.567   1.878   2.253  0.0648  0.5245  0.0760
  348SOL    HW1 1043   0.642   1.819   2.284  0.9496  3.2838 -2.7742
  348SOL    HW2 1044   0.518   1.928   2.328 -2.9805  2.5196  2.0441
  349SOL     OW 1045   2.203   1.677   0.687  0.2627 -0.2082 -0.0458
  349SOL    HW1 1046   2.202   1.579   0.723  1.2762 -2.0098  0.2737
  349SOL    HW2 1047   2.291   1.729   0.713  2.0633 -1.0010 -1.3727
  350SOL     OW 1048   2.822   2.354   0.710  0.2531  0.1744 -0.1860
  350SOL    HW1 1049   2.757   2.408   0.766 -0.0607 -0.1106  2.6068
  350SOL    HW2 1050   2.795   2.255   0.705  0.6187 -0.8506 -0.1407
  351SOL     OW 1051   0.587   3.005   1.656 -0.4179 -0.1152 -0.5050
  351SOL    HW1 1052   0.624   2.931   1.603 -0.8286  3.1644  0.7737
  351SOL    HW2 1053   0.639   3.092   1.637  1.2822 -2.1359  2.2202
  352SOL     OW 1054   0.719   1.528   1.098 -0.0223 -0.5053  0.0860
  352SOL    HW1 1055   0.628   1.572   1.092  0.2300  0.1272 -1.8642
  352SOL    HW2 1056   0.754   1.499   1.008  1.8425 -2.3396  2.4000
  353SOL     OW 1057   1.277   1.303   2.600 -0.1334 -0.1449 -0.0172
  353SOL    HW1 1058   1.179   1.302   2.587  2.2753 -2.0696  0.6510
  353SOL    HW2 1059   1.299   1.225   2.661 -2.2703 -1.1830  4.0033
  354SOL     OW 1060   1.386   0.015   1.591  0.4532 -0.3191 -0.3738
  354SOL    HW1 1061   1.289   0.057   1.610 -2.6559 -0.0105  1.6517
  354SOL    HW2 1062   1.459   0.075   1.627 -0.1161 -2.0902  0.2547
  355SOL     OW 1063   2.191   1.411   0.750 -0.3134 -0.3964 -0.3491
  355SOL    HW1 1064   2.182   1.328   0.811  0.0481  0.0864  0.1839
  355SOL    HW2 1065   2.266   1.396   0.687 -0.7296 -0.1201  3.7646
  356SOL     OW 1066   2.723   1.778   2.074 -0.4510 -0.4656 -0.1995
  356SOL    HW1 1067   2.662   1.841   2.023  0.8315 -1.2801 -0.3598
  356SOL    HW2 1068   2.777   1.831   2.145  2.8836 -0.8996 -1.4912
  357SOL     OW 1069   0.499   3.034   1.290 -0.3123 -0.3248 -0.2907
  357SOL    HW1 1070   0.409   3.027   1.337  1.4284  1.8504 -0.7918
  357SOL    HW2 1071   0.508   2.964   1.222 -1.4916  2.2631  0.2009
  358SOL     OW 1072   2.632   1.331   1.831 -0.2720 -0.1930 -0.1547
  358SOL    HW1 1073   2.637   1.402   1.903 -0.9505 -0.2400 -2.6769
  358SOL    HW2 1074   2.538   1.301   1.827  2.8738  1.0790  0.9839
  359SOL     OW 1075   2.297   2.875   2.500 -0.4498  0.1548  0.1023
  359SOL    HW1 1076   2.245   2.790   2.516  0.1741 -0.7953  0.9954
  359SOL    HW2 1077   2.223   2.948   2.483  0.0062  1.4083 -1.3825
  360SOL     OW 1078   0.649   0.465   0.810  0.3589  0.3655  0.2679
  360SOL    HW1 1079   0.556   0.426   0.783 -0.1281 -1.2922 -1.1350
  360SOL    HW2 1080   0.703   0.383   0.851 -0.2866 -2.4038  1.7105
  361SOL     OW 1081   1.804   0.254   1.068  0.0784  0.6113 -0.1007
  361SOL    HW1 1082   1.882   0.299   1.026 -1.6432 -0.4608  0.0272
  361SOL    HW2 1083   1.807   0.275   1.168  0.0529  0.9695 -0.0912
  362SOL     OW 1084   1.524   0.909   0.752  0.2520  0.2638 -0.0947
  362SOL    HW1 1085   1.595   0.930   0.682 -0.4467  2.2627  0.3753
  362SOL    HW2 1086   1.435   0.957   0.725 -0.9970  0.4985 -2.4027
  363SOL     OW 1087   2.320   1.379   2.325 -0.2192  0.2171 -0.4688
  363SOL    HW1 1088   2.311   1.321   2.407 -0.3943  0.7898  2.7577
  363SOL    HW2 1089   2.319   1.478   2.347  1.7178 -1.3593 -2.0995
  364SOL     OW 1090   0.158   2.953   1.161 -0.2360  0.0279  0.1718
  364SOL    HW1 1091   0.177   2.949   1.259 -1.1472  0.0061 -1.8943
  364SOL    HW2 1092   0.060   2.958   1.135  0.5201  0.3036 -0.7102
  365SOL     OW 1093   0.223   3.074   3.085 -0.3836  0.2253  0.3199
  365SOL    HW1 1094   0.224   3.103   2.989 -0.5497 -1.7039  2.0022
  365SOL    HW2 1095   0.144   3.111   0.012  0.7511 -2.6940  0.6442
  366SOL     OW 1096   2.181   2.240   3.035 -0.0375  0.6890  0.2285
  366SOL    HW1 1097   2.216   2.147   3.057 -0.1225  2.0620 -0.6477
  366SOL    HW2 1098   2.237   2.309   3.080  0.0458 -1.9306 -1.1666
  367SOL     OW 1099   2.545   2.570   3.056 -0.1006  0.5953 -0.2294
  367SOL    HW1 1100   2.502   2.573   2.965  1.0017 -1.1303  3.9216
  367SOL    HW2 1101   2.644   2.577   3.050  1.2800 -0.9331 -0.6934
  368SOL     OW 1102   0.068   1.378   0.980 -0.0166  0.3824 -0.0239
  368SOL    HW1 1103   3.108   1.355   1.035  1.7667 -1.6182 -0.9419
  368SOL    HW2 1104   0.157   1.368   1.030 -0.3939  0.5266 -2.0086
  369SOL     OW 1105   0.555   2.926   2.788 -0.7941 -0.5312  0.3192
  369SOL    HW1 1106   0.532   2.869   2.866  1.6733 -2.4533 -2.5118
  369SOL    HW2 1107   0.659   2.927   2.782  1.0187  0.3718  0.7762
  370SOL     OW 1108   2.955   0.902   0.565 -0.0873  0.1011 -0.2697
  370SOL    HW1 1109   2.936   0.951   0.481  1.3971 -1.9274 -1.4763
  370SOL    HW2 1110   2.886   0.831   0.582  1.3337  2.1894 -1.8550
  371SOL     OW 1111   1.945   2.226   0.821  0.9051 -0.0236 -0.5077
  371SOL    HW1 1112   2.026   2.274   0.785 -2.9871  0.1913  0.7285
  371SOL    HW2 1113   1.961   2.122   0.813  0.3159 -3.0695 -0.2948
  372SOL     OW 1114   0.016   1.108   2.898 -0.2846 -0.4008 -1.3299
  372SOL    HW1 1115   3.084   1.034   2.944  3.7177  1.6914  1.1362
  372SOL    HW2 1116   0.114   1.090   2.919 -1.5665  1.1842 -0.2430
  373SOL     OW 1117   2.998   2.018   1.217 -0.1373 -0.6466 -0.2587
  373SOL    HW1 1118   3.054   2.076   1.274 -0.6235 -0.4688 -1.1636
  373SOL    HW2 1119   2.961   1.938   1.270  0.8820 -3.1628 -0.7909
  374SOL     OW 1120   0.375   2.686   0.228  0.3808  0.0729 -0.0769
  374SOL    HW1 1121   0.318   2.682   0.142 -2.1889 -0.1481  2.6683
  374SOL    HW2 1122   0.433   2.769   0.232 -0.4233  1.5424 -0.1713
  375SOL     OW 1123   0.228   0.280   0.133  0.4140  0.2934  0.0312
  375SOL    HW1 1124   0.208   0.319   0.043 -4.6201 -1.5331 -1.2477
  375SOL    HW2 1125   0.138   0.277   0.182  0.4153  1.0046 -4.1095
  376SOL     OW 1126   0.177   2.242   1.587  0.3847 -0.1748 -0.5181
  376SOL    HW1 1127   0.113   2.300   1.638  1.1827 -0.4867  0.2874
  376SOL    HW2 1128   0.149   2.235   1.489 -1.4311  1.4750 -1.1146
  377SOL     OW 1129   1.788   2.523   2.689 -0.2754  0.4676  0.1815
  377SOL    HW1 1130   1.839   2.609   2.714 -1.3979 -0.0525 -1.3657
  377SOL    HW2 1131   1.847   2.472   2.623  0.7944 -1.3968 -2.0318
  378SOL     OW 1132   0.639   0.100   0.128 -0.0053  0.2105 -0.6445
  378SOL    HW1 1133   0.537   0.098   0.151 -1.5697 -0.9212 -1.9315
  378SOL    HW2 1134   0.701   0.090   0.210  4.0190  0.4277 -0.2933
  379SOL     OW 1135   0.564   1.399   0.571  0.3035  0.3312  0.0785
  379SOL    HW1 1136   0.547   1.413   0.470  1.0403 -1.5678 -0.0054
  379SOL    HW2 1137   0.619   1.472   0.610  1.3345  0.9063  0.4289
  380SOL     OW 1138   0.168   1.923   1.735 -0.2063  0.3337 -0.2567
  380SOL    HW1 1139   0.108   1.966   1.800  1.3214 -2.9973 -1.9787
  380SOL    HW2 1140   0.247   1.977   1.715 -3.7707 -0.8192  2.4794
  381SOL     OW 1141   0.627   1.309   1.905  0.1872 -0.5183  0.3906
  381SOL    HW1 1142   0.638   1.257   1.821  2.8352 -0.5904  1.4747
  381SOL    HW2 1143   0.710   1.314   1.966 -1.0786  0.5761  0.5479
  382SOL     OW 1144   2.267   1.994   0.509  0.8285  0.5290 -0.0764
  382SOL    HW1 1145   2.319   2.042   0.587  1.3091  1.1808  1.5120
  382SOL    HW2 1146   2.314   1.904   0.495  0.8734 -0.3313 -2.2798
  383SOL     OW 1147   2.759   1.839   2.745 -0.2819 -0.2601 -0.0087
  383SOL    HW1 1148   2.725   1.867   2.836 -1.2797  1.4379  1.0622
  383SOL    HW2 1149   2.864   1.852   2.741  0.3877 -0.9312  3.2090
  384SOL     OW 1150   0.439   2.017   2.462  0.2788  0.0690  0.1621
  384SOL    HW1 1151   0.430   2.099   2.402  0.6672  1.1101  0.6756
  384SOL    HW2 1152   0.462   2.057   2.554  1.5767  2.2814  1.4205
  385SOL     OW 1153   2.950   1.688   0.939 -0.8200 -0.0173  0.0303
  385SOL    HW1 1154   2.877   1.670   1.008 -0.0525 -0.9777 -1.4256
  385SOL    HW2 1155   2.906   1.737   0.858  0.1628  0.6141  0.5492
  386SOL     OW 1156   1.939   1.259   1.075 -0.2138 -0.2001  0.3088
  386SOL    HW1 1157   1.902   1.356   1.087 -0.6675  2.4990  1.4088
  386SOL    HW2 1158   1.988   1.236   0.986 -1.4326 -0.9642 -0.8453
  387SOL     OW 1159   3.080   1.024   2.023  0.4221  0.1682  0.3396
  387SOL    HW1 1160   3.004   0.973   1.977 -1.4690  0.5784 -0.5560
  387SOL    HW2 1161   3.070   1.121   1.996 -1.6647  0.2769  2.0637
  388SOL     OW 1162   2.539   1.225   2.273  0.0166  0.1896 -0.3086
  388SOL    HW1 1163   2.460   1.287   2.290 -0.1592 -1.7275  1.4934
  388SOL    HW2 1164   2.504   1.130   2.273  1.3588  3.0332 -1.2472
  389SOL     OW 1165   2.102   1.339   2.154  0.3616  0.0245  0.3072
  389SOL    HW1 1166   2.183   1.361   2.208  0.9605 -2.3676  0.1225
  389SOL    HW2 1167   2.029   1.409   2.149 -1.8495  0.0183 -0.9598
  390SOL     OW 1168   1.916   2.764   0.438 -0.2864 -0.1689 -0.1068
  390SOL    HW1 1169   1.857   2.757   0.524 -0.8785 -1.6893  0.1075
  390SOL    HW2 1170   1.867   2.752   0.350  1.9444  0.3730 -0.7195
  391SOL     OW 1171   2.355   2.195   0.963 -0.2268  0.6765  0.4846
  391SOL    HW1 1172   2.279   2.138   1.006  0.7521 -0.3386 -1.7551
  391SOL    HW2 1173   2.404   2.253   1.027  0.1810 -1.0189  0.0686
  392SOL     OW 1174   3.024   2.648   1.380 -1.3137  0.0731  0.9739
  392SOL    HW1 1175   2.965   2.577   1.342  0.6394  0.4470  1.0321
  392SOL    HW2 1176   3.121   2.632   1.342  0.1378 -0.4262 -1.9747
  393SOL     OW 1177   1.949   1.920   2.872  0.1986 -0.3033 -0.5382
  393SOL    HW1 1178   1.942   2.021   2.868  0.0745 -0.7325 -1.7472
  393SOL    HW2 1179   1.859   1.885   2.852  2.5179  0.6839 -2.1516
  394SOL     OW 1180   0.372   0.592   2.779  0.0842  0.0435  0.4674
  394SOL    HW1 1181   0.463   0.607   2.817  2.5768 -0.8812 -1.6206
  394SOL    HW2 1182   0.340   0.673   2.713 -2.4552  1.8781  0.4626
  395SOL     OW 1183   0.671   0.687   0.669 -0.1271 -0.4708  0.3434
  395SOL    HW1 1184   0.662   0.620   0.744 -0.1252  2.0932 -3.0128
  395SOL    HW2 1185   0.624   0.777   0.689  1.3396 -0.9438 -2.0660
  396SOL     OW 1186   0.952   1.158   0.054  0.3002  0.2211 -0.5569
  396SOL    HW1 1187   0.930   1.257   0.067 -1.1490 -0.7464 -0.7487
  396SOL    HW2 1188   1.050   1.128   0.070 -0.4428  1.5364  0.9274
  397SOL     OW 1189   0.403   0.943   2.250  0.4138 -0.1660 -0.1649
  397SOL    HW1 1190   0.431   1.024   2.199 -1.2180 -1.2806  3.2118
  397SOL    HW2 1191   0.446   0.862   2.199 -1.8105 -1.0196 -0.9641
  398SOL     OW 1192   0.845   0.013   0.296 -0.1546  0.0494 -0.2388
  398SOL    HW1 1193   0.893   0.092   0.333 -3.2914 -0.2419 -0.1518
  398SOL    HW2 1194   0.918   3.071   0.266 -1.0142  1.1573  2.2820
  399SOL     OW 1195   2.005   0.014   1.774  0.6021  0.3362  0.0243
  399SOL    HW1 1196   2.035   0.025   1.873 -0.4872 -3.0717 -2.5632
  399SOL    HW2 1197   1.964   3.043   1.756 -2.8814  0.0858 -1.3827
  400SOL     OW 1198   0.597   1.651   1.943  0.3419  0.1362  0.5567
  400SOL    HW1 1199   0.686   1.604   1.957  0.6117  1.3129 -1.8527
  400SOL    HW2 1200   0.540   1.583   1.893 -0.4013 -1.4382  0.7757
  401SOL     OW 1201   0.605   0.949   2.657  0.2032  0.4266 -0.1150
  401SOL    HW1 1202   0.629   0.885   2.731 -1.1581  0.0889 -0.3742
  401SOL    HW2 1203   0.507   0.962   2.643 -1.7759  2.4784  0.1296
  402SOL     OW 1204   2.998   2.235   1.511 -0.6296 -0.1325 -0.5134
  402SOL    HW1 1205   2.940   2.161   1.548 -0.1606  1.9342  0.3666
  402SOL    HW2 1206   3.072   2.205   1.448 -1.8105  0.7149 -3.2682
  403SOL     OW 1207   0.197   0.906   1.969  0.1921  0.3798  0.1309
  403SOL    HW1 1208   0.118   0.958   2.007 -1.9757  1.0352  0.7219
  403SOL    HW2 1209   0.246   0.956   1.895 -1.7158  0.2817 -1.0890
  404SOL     OW 1210   0.072   2.888   1.873  0.3744  0.2964  0.5461
  404SOL    HW1 1211   0.174   2.904   1.876  1.5132 -0.2710 -3.6539
  404SOL    HW2 1212   0.067   2.814   1.804 -0.4407  3.6009 -0.6179
  405SOL     OW 1213   0.618   0.350   1.826 -0.3108  0.0955  0.0492
  405SOL    HW1 1214   0.702   0.368   1.881 -0.4102  1.4851 -0.6280
  405SOL    HW2 1215   0.628   0.283   1.754  1.1513 -0.3385  1.0320
  406SOL     OW 1216   1.710   2.227   2.488  0.2400  0.2973 -0.0486
  406SOL    HW1 1217   1.726   2.310   2.423  0.8119 -0.1627  0.6356
  406SOL    HW2 1218   1.803   2.195   2.521  0.8819 -1.3113 -0.4833
  407SOL     OW 1219   1.421   1.199   2.356  0.5812  0.1325  0.0054
  407SOL    HW1 1220   1.356   1.197   2.274 -1.1271 -2.7752 -1.2178
  407SOL    HW2 1221   1.382   1.245   2.439 -1.7070 -0.2769 -0.0253
  408SOL     OW 1222   0.779   0.360   2.440 -0.1571  0.6505 -0.2939
  408SOL    HW1 1223   0.731   0.321   2.362 -0.3569 -2.8925  1.9275
  408SOL    HW2 1224   0.719   0.424   2.492  1.8136 -0.0161 -1.4744
  409SOL     OW 1225   0.225   1.808   0.043  0.0567 -0.9624 -0.3779
  409SOL    HW1 1226   0.324   1.817   0.020  1.6390 -1.2145 -1.0991
  409SOL    HW2 1227   0.210   1.857   0.131 -0.0913  2.0937 -2.2180
  410SOL     OW 1228   2.712   1.478   0.225  0.5017  0.0548 -0.5151
  410SOL    HW1 1229   2.783   1.420   0.270 -0.1311  1.2214 -0.7126
  410SOL    HW2 1230   2.752   1.562   0.190 -0.8932 -3.7792  3.0575
  411SOL     OW 1231   2.829   0.433   0.944 -0.0776 -0.0666  0.1240
  411SOL    HW1 1232   2.881   0.507   0.992 -0.4569 -1.2574 -0.0346
  411SOL    HW2 1233   2.729   0.445   0.928 -0.6482  0.1603  1.5814
  412SOL     OW 1234   1.441   1.251   1.212 -0.3461  0.3147  0.6260
  412SOL    HW1 1235   1.534   1.228   1.192 -1.5857 -0.2381  1.3130
  412SOL    HW2 1236   1.403   1.204   1.291  0.8646 -0.5118 -3.4398
  413SOL     OW 1237   0.647   2.662   1.276  0.4440 -0.7182 -0.0817
  413SOL    HW1 1238   0.737   2.610   1.256  0.7766  0.2909 -0.3169
  413SOL    HW2 1239   0.635   2.744   1.217 -1.1953  0.6644 -1.1950
  414SOL     OW 1240   2.823   1.336   2.759 -0.6254  0.5004 -0.1967
  414SOL    HW1 1241   2.898   1.405   2.772 -0.1404 -1.9085 -1.1647
  414SOL    HW2 1242   2.802   1.286   2.850  0.8698  2.1862  0.8658
  415SOL     OW 1243   0.271   2.140   2.952 -0.2051  0.1368  0.3623
  415SOL    HW1 1244   0.360   2.105   2.996  1.4244  0.7685  2.2926
  415SOL    HW2 1245   0.189   2.102   2.999  1.5475 -1.2209  0.8823
  416SOL     OW 1246   1.626   0.129   0.374 -0.1044 -0.1342  0.0370
  416SOL    HW1 1247   1.725   0.130   0.396  1.6228 -0.1621  1.8659
  416SOL    HW2 1248   1.606   0.091   0.282 -0.5282  0.9252 -0.3391
  417SOL     OW 1249   0.371   0.699   0.875 -0.9544 -0.1725 -0.1384
  417SOL    HW1 1250   0.442   0.775   0.881  1.2141  0.6340  0.4403
  417SOL    HW2 1251   0.312   0.716   0.794 -1.4178 -0.0794 -2.0625
  418SOL     OW 1252   2.346   1.233   1.798 -0.1276  0.1101  0.4401
  418SOL    HW1 1253   2.336   1.193   1.699  0.5439 -1.4988 -4.0775
  418SOL    HW2 1254   2.326   1.166   1.867 -0.3775 -0.2167 -1.8856
  419SOL     OW 1255   0.030   0.069   0.638  0.1687  0.3293  0.3403
  419SOL    HW1 1256   0.066   0.058   0.542  0.4034  0.6525 -0.9582
  419SOL    HW2 1257   0.081   0.150   0.673 -0.4649  0.9523  0.9088
  420SOL     OW 1258   0.322   1.365   1.104  0.4031  0.5755 -0.1286
  420SOL    HW1 1259   0.315   1.363   1.206 -0.3443  0.2375  1.4976
  420SOL    HW2 1260   0.386   1.293   1.073  0.3919 -0.8679 -1.4485
  421SOL     OW 1261   1.141   2.537   0.781  0.7271  0.1426  0.3112
  421SOL    HW1 1262   1.062   2.501   0.733 -1.3822  2.1578  0.7527
  421SOL    HW2 1263   1.184   2.460   0.827 -2.3160 -0.5885 -0.5166
  422SOL     OW 1264   0.197   0.785   1.482  0.5582  0.4036  0.3816
  422SOL    HW1 1265   0.125   0.772   1.408 -0.3064 -1.8173  0.6681
  422SOL    HW2 1266   0.275   0.837   1.450  1.6926  1.4671 -2.0607
  423SOL     OW 1267   1.151   1.247   1.154  0.0500 -0.3080  0.1117
  423SOL    HW1 1268   1.242   1.247   1.200  0.2083  1.0602  0.4530
  423SOL    HW2 1269   1.159   1.223   1.054 -0.5530 -0.4286 -1.4473
  424SOL     OW 1270   1.960   1.173   2.977  0.0447  0.1056  0.2994
  424SOL    HW1 1271   2.001   1.216   3.063 -0.0426 -0.6579 -0.4587
  424SOL    HW2 1272   1.922   1.244   2.915 -1.0938 -0.1990  0.6211
  425SOL     OW 1273   0.045   0.421   1.990  0.9119 -0.2031  0.2156
  425SOL    HW1 1274   0.067   0.510   2.029 -1.5022  0.0482 -0.2724
  425SOL    HW2 1275   3.090   0.382   2.037  1.5869  2.7941 -0.0435
  426SOL     OW 1276   2.991   2.719   3.112  0.0175  0.8912 -0.0006
  426SOL    HW1 1277   3.064   2.678   3.057  1.0700  1.6545 -0.4408
  426SOL    HW2 1278   2.996   2.688   0.085 -0.7200  1.1602 -1.4606
  427SOL     OW 1279   0.915   0.749   2.300 -0.4683  0.1338  0.2172
  427SOL    HW1 1280   0.826   0.742   2.347 -1.2373  0.6152  0.4212
  427SOL    HW2 1281   0.936   0.847   2.287 -1.1672 -0.5393  1.4179
  428SOL     OW 1282   2.306   1.154   1.533  0.5130 -0.0529  0.3573
  428SOL    HW1 1283   2.400   1.148   1.495  0.6090  0.8300 -1.2978
  428SOL    HW2 1284   2.246   1.192   1.461 -1.0202 -0.8761 -2.8000
  429SOL     OW 1285   2.464   2.382   0.678  0.1719 -0.1602 -0.4096
  429SOL    HW1 1286   2.520   2.340   0.602  1.6520  0.0143 -0.3747
  429SOL    HW2 1287   2.415   2.470   0.649  0.1391  0.5729 -1.4884
  430SOL     OW 1288   1.473   1.871   2.477 -0.3662 -0.0940 -0.1663
  430SOL    HW1 1289   1.410   1.827   2.408  1.0684  1.2850 -1.1031
  430SOL    HW2 1290   1.513   1.955   2.431  0.8746  1.1231 -0.0372
  431SOL     OW 1291   3.086   1.592   1.597  0.7956  0.6068  0.0630
  431SOL    HW1 1292   3.025   1.536   1.534 -2.2415  3.9826  1.3616
  431SOL    HW2 1293   3.030   1.645   1.662  2.8698 -1.7062 -2.3711
  432SOL     OW 1294   1.386   2.823   2.581 -0.5890 -0.6633  0.1298
  432SOL    HW1 1295   1.295   2.797   2.545  0.2407 -1.3141 -0.1456
  432SOL    HW2 1296   1.440   2.742   2.606  0.3593  2.1043  0.4096
  433SOL     OW 1297   1.793   0.055   2.317  0.3650 -0.5220 -0.6015
  433SOL    HW1 1298   1.890   0.065   2.278  1.3235 -1.6938  2.8906
  433SOL    HW2 1299   1.738   3.105   2.279 -1.5797 -0.4213  1.4443
  434SOL     OW 1300   0.268   2.894   2.190  0.6520 -0.0438 -0.2701
  434SOL    HW1 1301   0.201   2.825   2.229  0.2632 -1.3427 -0.2051
  434SOL    HW2 1302   0.300   2.865   2.095 -1.7847 -0.5077 -1.4483
  435SOL     OW 1303   0.032   2.397   0.081  0.0919 -0.0380 -0.0441
  435SOL    HW1 1304   0.109   2.404   0.019 -0.1661 -0.3625  1.3942
  435SOL    HW2 1305   0.028   2.476   0.143  1.3058 -1.0316 -0.1984
  436SOL     OW 1306   0.520   0.769   2.104 -0.2097 -0.2168  0.0458
  436SOL    HW1 1307   0.484   0.744   2.008 -0.6250  0.2756  0.8116
  436SOL    HW2 1308   0.614   0.796   2.101 -0.2024 -1.5744  0.6619
  437SOL     OW 1309   0.390   2.761   2.620  0.1066  0.0094 -0.0740
  437SOL    HW1 1310   0.408   2.741   2.522  1.2910  0.6078 -2.0186
  437SOL    HW2 1311   0.460   2.814   2.671 -0.4992 -1.3630  0.0164
  438SOL     OW 1312   0.488   1.578   1.623  0.0738 -0.2741  0.2328
  438SOL    HW1 1313   0.565   1.649   1.624  1.6101  1.6173 -1.1823
  438SOL    HW2 1314   0.445   1.563   1.714  1.3612  0.0122 -2.3347
  439SOL     OW 1315   2.201   0.839   2.629 -0.0866 -0.1810  0.2153
  439SOL    HW1 1316   2.264   0.863   2.556 -2.3237  0.6457  2.7758
  439SOL    HW2 1317   2.197   0.912   2.699 -0.6199 -2.5694 -0.6077
  440SOL     OW 1318   0.423   0.683   0.178 -0.1571  0.2305 -0.0984
  440SOL    HW1 1319   0.466   0.591   0.157  2.6655  0.3368 -0.2200
  440SOL    HW2 1320   0.323   0.679   0.169  0.6974 -0.8115  0.4099
  441SOL     OW 1321   1.364   2.402   1.253 -0.2948 -0.0213 -0.3821
  441SOL    HW1 1322   1.370   2.488   1.201  0.5438 -1.7329 -0.0677
  441SOL    HW2 1323   1.289   2.399   1.327  0.9161 -1.1375 -0.0056
  442SOL     OW 1324   2.917   1.454   0.805 -0.2211 -0.0821 -0.4961
  442SOL    HW1 1325   2.961   1.526   0.861  2.0741  0.9735 -1.4516
  442SOL    HW2 1326   2.822   1.451   0.828  1.9373  0.5794 -0.3248
  443SOL     OW 1327   2.726   2.003   2.484 -0.0588  0.0775 -0.2303
  443SOL    HW1 1328   2.717   1.978   2.581 -1.4023 -0.7812  0.6198
  443SOL    HW2 1329   2.632   2.013   2.442 -0.5260  1.4271  0.9292
  444SOL     OW 1330   1.518   1.134   0.010 -0.5574 -0.2460  0.1118
  444SOL    HW1 1331   1.580   1.096   0.088  2.4587 -0.8866  0.7017
  444SOL    HW2 1332   1.516   1.236   0.014  1.3104  1.3462  1.3397
  445SOL     OW 1333   2.666   3.013   2.063  0.3154  0.5256  0.3263
  445SOL    HW1 1334   2.739   3.080   2.029  1.0749  0.3852 -0.5328
  445SOL    HW2 1335   2.700   2.947   2.126 -0.2542  2.5922 -0.2907
  446SOL     OW 1336   0.293   1.059   1.262  0.2879 -0.2719 -0.8609
  446SOL    HW1 1337   0.370   0.993   1.265 -1.2441 -0.3883 -1.4643
  446SOL    HW2 1338   0.210   1.015   1.229  3.4100  1.6173  2.4241
  447SOL     OW 1339   1.198   1.875   0.817 -0.1819  0.3301  1.1148
  447SOL    HW1 1340   1.170   1.954   0.875  1.4461  0.3368 -2.0688
  447SOL    HW2 1341   1.155   1.883   0.726  0.0966 -1.5769 -0.0297
  448SOL     OW 1342   1.358   0.979   1.713 -0.1329  0.1267 -0.4922
  448SOL    HW1 1343   1.382   1.051   1.784 -0.7025  1.8457  1.3078
  448SOL    HW2 1344   1.269   0.930   1.731 -0.0296 -1.4038 -0.6936
  449SOL     OW 1345   3.015   2.143   2.240 -0.2533 -0.1391 -0.0134
  449SOL    HW1 1346   2.962   2.231   2.235  0.8474  0.6903 -0.1261
  449SOL    HW2 1347   3.113   2.153   2.218  4.2200 -0.1508  1.8100
  450SOL     OW 1348   2.945   1.983   1.803  0.0867 -0.0319 -0.0410
  450SOL    HW1 1349   2.896   2.007   1.721  0.5149 -1.5200 -0.1830
  450SOL    HW2 1350   2.963   2.064   1.862 -2.2419  1.5690  0.9384
  451SOL     OW 1351   2.379   0.862   1.251 -0.1797 -0.0811 -0.1026
  451SOL    HW1 1352   2.294   0.830   1.292  2.7337  0.6863 -1.2927
  451SOL    HW2 1353   2.434   0.780   1.222  1.9486 -1.1354  0.8906
  452SOL     OW 1354   0.821   1.459   0.845  0.0264  0.5430  0.4293
  452SOL    HW1 1355   0.922   1.452   0.856 -0.9336  0.0307 -2.3400
  452SOL    HW2 1356   0.800   1.536   0.786  1.4938  0.5075  1.0234
  453SOL     OW 1357   0.987   1.970   1.060 -0.2681  0.0528  0.1453
  453SOL    HW1 1358   0.927   2.044   1.038  0.0136 -3.3654 -3.4415
  453SOL    HW2 1359   1.081   2.002   1.099  1.7581  1.2503 -1.3496
  454SOL     OW 1360   0.608   1.618   2.941 -0.1625  0.2775 -1.1058
  454SOL    HW1 1361   0.596   1.644   2.845 -2.2011  0.3920  0.7615
  454SOL    HW2 1362   0.575   1.524   2.954  1.7042  3.1508  0.4252
  455SOL     OW 1363   1.953   0.867   0.452  0.2123  0.1122  0.3529
  455SOL    HW1 1364   2.028   0.799   0.461  0.4106  0.5256  1.4206
  455SOL    HW2 1365   1.918   0.853   0.354 -0.6723  2.0369 -0.9648
  456SOL     OW 1366   2.183   2.516   0.925  0.0316 -0.4594 -0.1436
  456SOL    HW1 1367   2.190   2.466   0.836 -2.9844  2.0415 -0.4098
  456SOL    HW2 1368   2.273   2.515   0.975  1.7734 -2.4934  0.3770
  457SOL     OW 1369   1.606   2.734   2.864 -0.2256 -0.7052 -0.7589
  457SOL    HW1 1370   1.568   2.827   2.883 -1.8796 -0.3309 -0.2246
  457SOL    HW2 1371   1.560   2.685   2.790  2.7462  1.4111  0.6884
  458SOL     OW 1372   2.224   0.549   0.301  0.2580  0.0885  0.4523
  458SOL    HW1 1373   2.210   0.448   0.320  0.1530 -1.1015  0.7071
  458SOL    HW2 1374   2.142   0.587   0.249 -0.1193  0.1105  1.0852
  459SOL     OW 1375   3.122   0.947   2.276  0.5967  0.1306  0.5499
  459SOL    HW1 1376   3.093   1.028   2.332  1.2206 -1.7045 -0.9508
  459SOL    HW2 1377   3.120   0.969   2.178 -1.0118  2.6980  0.6515
  460SOL     OW 1378   0.492   0.929   3.017 -0.1923  0.0638 -0.5195
  460SOL    HW1 1379   0.571   0.992   3.046  0.4998 -0.0331  2.3888
  460SOL    HW2 1380   0.530   0.855   2.955  1.4606 -0.8248 -0.3785
  461SOL     OW 1381   2.719   2.648   0.751 -0.1901 -0.1282 -0.3432
  461SOL    HW1 1382   2.674   2.674   0.841  0.5599 -1.2822  0.5619
  461SOL    HW2 1383   2.657   2.661   0.668 -0.5249 -1.0122 -0.6640
  462SOL     OW 1384   0.312   0.131   1.521 -0.0169  0.3755 -0.1495
  462SOL    HW1 1385   0.247   0.194   1.478 -0.2162  0.3308 -0.3986
  462SOL    HW2 1386   0.403   0.155   1.485 -2.5877  3.4106  1.8673
  463SOL     OW 1387   2.108   2.409   2.153 -0.3111  0.0795  0.5358
  463SOL    HW1 1388   2.110   2.329   2.210  0.3781  1.8214  0.2903
  463SOL    HW2 1389   2.009   2.443   2.134  0.6280  3.1313 -1.1267
  464SOL     OW 1390   0.875   0.166   1.361 -0.1880  0.3560  0.6574
  464SOL    HW1 1391   0.878   0.109   1.272 -1.1805 -0.7800 -0.3258
  464SOL    HW2 1392   0.927   0.256   1.349 -0.7072 -0.8558 -0.3404
  465SOL     OW 1393   0.680   0.140   1.598 -0.4005  0.2414 -0.2266
  465SOL    HW1 1394   0.765   0.163   1.543  0.3713  0.8122  0.0091
  465SOL    HW2 1395   0.705   0.128   1.698 -0.8695  1.2241  4.1138
  466SOL     OW 1396   1.256   2.007   1.974  0.4414 -0.2319 -0.1851
  466SOL    HW1 1397   1.195   2.086   1.951 -1.4305 -1.2096  2.2465
  466SOL    HW2 1398   1.255   1.940   1.897  2.2348  1.8213  2.1775
  467SOL     OW 1399   0.184   1.804   1.249 -0.0985  0.0843 -0.1608
  467SOL    HW1 1400   0.165   1.707   1.264  2.6495  0.7181 -0.0868
  467SOL    HW2 1401   0.132   1.840   1.169 -0.4490 -0.9493 -2.2310
  468SOL     OW 1402   2.567   1.744   2.559 -0.1835  0.1454 -0.8926
  468SOL    HW1 1403   2.646   1.772   2.615 -0.5489  0.7957 -0.7932
  468SOL    HW2 1404   2.599   1.704   2.471 -1.8395 -0.6111  1.4926
  469SOL     OW 1405   1.094   2.239   0.744 -0.0130  0.0984  0.0276
  469SOL    HW1 1406   1.143   2.214   0.654 -0.2026  1.4404 -1.6677
  469SOL    HW2 1407   0.998   2.211   0.744 -0.0866 -0.3509 -1.9742
  470SOL     OW 1408   2.356   1.603   1.170  0.0067 -0.3726  0.5223
  470SOL    HW1 1409   2.345   1.695   1.213 -1.0506 -1.0758  1.5320
  470SOL    HW2 1410   2.266   1.553   1.172 -1.7368 -3.1958  0.4477
  471SOL     OW 1411   0.255   2.408   3.037  0.6814  0.1808  0.5962
  471SOL    HW1 1412   0.263   2.312   2.995  0.3774 -0.0758 -2.2854
  471SOL    HW2 1413   0.345   2.458   3.027  1.5449  1.9776  0.7597
  472SOL     OW 1414   2.911   1.886   2.277  0.0619  0.5187 -0.0983
  472SOL    HW1 1415   2.966   1.964   2.250 -0.2134  0.7918  0.3396
  472SOL    HW2 1416   2.841   1.909   2.348 -0.0778 -2.4049 -1.5435
  473SOL     OW 1417   0.900   2.740   0.767  0.1634 -0.2306 -0.0114
  473SOL    HW1 1418   0.990   2.690   0.777  3.2145  1.8253 -0.4576
  473SOL    HW2 1419   0.877   2.774   0.670 -0.0074  0.6728 -1.7144
  474SOL     OW 1420   3.058   0.126   1.215 -0.3451 -0.1989 -0.2766
  474SOL    HW1 1421   2.995   0.207   1.224 -1.3757  0.7213  0.2894
  474SOL    HW2 1422   3.065   0.079   1.309  0.2134  0.9720  2.6196
  475SOL     OW 1423   1.767   2.895   1.850  0.0791 -0.2664  0.0600
  475SOL    HW1 1424   1.754   2.935   1.944  1.5078 -0.7706  1.6352
  475SOL    HW2 1425   1.682   2.905   1.799  0.9511  0.5170 -0.0405
  476SOL     OW 1426   0.229   0.516   1.033 -0.3520  0.1198 -0.6303
  476SOL    HW1 1427   0.285   0.578   0.976 -1.7476  0.2220  1.1150
  476SOL    HW2 1428   0.284   0.463   1.100  0.0296 -0.2666 -1.8066
  477SOL     OW 1429   0.975   2.324   1.151 -0.3536  0.1065  0.2521
  477SOL    HW1 1430   0.922   2.274   1.079 -1.4521  1.7383  0.3482
  477SOL    HW2 1431   1.067   2.343   1.118 -0.6135 -2.3028 -0.3417
  478SOL     OW 1432   0.254   2.301   2.549 -0.4478  0.2499  0.2439
  478SOL    HW1 1433   0.239   2.385   2.599  0.1688  1.0069  0.3238
  478SOL    HW2 1434   0.204   2.225   2.594 -1.3068 -1.1621  1.4929
  479SOL     OW 1435   0.355   0.703   1.892 -0.1319 -0.2206  0.0918
  479SOL    HW1 1436   0.286   0.769   1.929 -1.4845  0.3760 -1.0001
  479SOL    HW2 1437   0.305   0.648   1.825  0.2725 -1.3218  0.0450
  480SOL     OW 1438   2.952   2.228   0.025  0.1730 -0.0689  0.3789
  480SOL    HW1 1439   2.876   2.256   3.086 -0.7186  0.5506  1.4594
  480SOL    HW2 1440   3.019   2.301   0.046 -2.0567  1.6880 -0.3224
  481SOL     OW 1441   1.530   2.026   2.055 -0.0619 -0.0306  0.5669
  481SOL    HW1 1442   1.585   1.939   2.032  3.3348 -3.1834  0.8168
  481SOL    HW2 1443   1.431   2.004   2.041  0.2281 -1.7086  0.5431
  482SOL     OW 1444   1.568   2.214   2.731  0.0610  0.0046 -0.3762
  482SOL    HW1 1445   1.496   2.155   2.693  0.8317  0.1282 -0.8954
  482SOL    HW2 1446   1.620   2.256   2.658  4.3843  1.2039  3.6793
  483SOL     OW 1447   0.659   2.312   2.672 -0.1768 -0.2453  0.1141
  483SOL    HW1 1448   0.674   2.386   2.740  1.5372 -1.6355 -0.8502
  483SOL    HW2 1449   0.747   2.263   2.655  2.1106 -0.2205  0.1301
  484SOL     OW 1450   0.226   0.087   1.075  0.7120 -0.4398 -0.0584
  484SOL    HW1 1451   0.134   0.080   1.119  0.1855 -0.4377  1.4057
  484SOL    HW2 1452   0.273   3.121   1.072  0.7100 -1.2271 -2.2470
  485SOL     OW 1453   1.932   0.529   0.539 -0.2085 -0.3063 -0.0528
  485SOL    HW1 1454   1.897   0.522   0.636 -2.2302  2.1936  1.0797
  485SOL    HW2 1455   2.026   0.576   0.530  2.0436  0.0842 -2.9726
  486SOL     OW 1456   1.812   2.832   2.400 -0.3336  0.0531  0.0722
  486SOL    HW1 1457   1.906   2.826   2.357  1.8314 -2.2285 -0.8392
  486SOL    HW2 1458   1.810   2.896   2.484  2.3482  0.8663 -0.2000
  487SOL     OW 1459   1.679   1.801   0.611 -0.0257  0.3183  0.3458
  487SOL    HW1 1460   1.777   1.809   0.622 -0.6589  0.2501  2.8516
  487SOL    HW2 1461   1.631   1.822   0.695  3.1898 -1.6560 -0.3700
  488SOL     OW 1462   2.341   1.124   0.266 -0.5366 -0.5814  0.0081
  488SOL    HW1 1463   2.285   1.039   0.265 -0.9407  0.8788  1.8184
  488SOL    HW2 1464   2.333   1.186   0.183 -0.4253  1.4721 -0.7435
  489SOL     OW 1465   2.488   0.259   0.727 -0.1976 -0.4546  0.7708
  489SOL    HW1 1466   2.409   0.273   0.664  0.8001 -0.0600 -0.4634
  489SOL    HW2 1467   2.464   0.189   0.798 -1.0630  0.8257 -1.8822
  490SOL     OW 1468   1.562   2.567   3.069  0.1222  0.0758  0.2814
  490SOL    HW1 1469   1.590   2.592   0.040  0.6789  0.9526 -2.4109
  490SOL    HW2 1470   1.601   2.625   2.999 -2.4215 -2.3722  0.2093
  491SOL     OW 1471   0.923   0.796   0.803  0.1398 -0.3384 -0.3748
  491SOL    HW1 1472   0.949   0.890   0.830  0.1450  0.7747 -2.5322
  491SOL    HW2 1473   0.833   0.790   0.755 -0.4976  1.7642  1.7709
  492SOL     OW 1474   1.573   0.099   0.090  0.0897 -0.6102 -0.5643
  492SOL    HW1 1475   1.481   0.057   0.094 -0.8530 -2.3527 -1.7666
  492SOL    HW2 1476   1.591   0.118   3.118  0.5892  1.0644 -1.3404
  493SOL     OW 1477   1.725   2.396   2.948 -0.3878  0.1034  0.1727
  493SOL    HW1 1478   1.654   2.440   3.009  3.4434  1.1243  2.4090
  493SOL    HW2 1479   1.700   2.412   2.851 -0.4019 -1.1318  1.1082
  494SOL     OW 1480   0.490   1.151   0.674  0.4695 -0.0582 -0.0830
  494SOL    HW1 1481   0.486   1.229   0.607  0.8110  1.1781  0.7289
  494SOL    HW2 1482   0.425   1.167   0.747  0.2389 -0.3829  1.3704
  495SOL     OW 1483   3.089   0.117   1.495  0.1886 -0.4615  0.2449
  495SOL    HW1 1484   0.036   0.185   1.468  1.4053 -1.4803 -0.1666
  495SOL    HW2 1485   0.000   0.062   1.573  0.5884 -0.3156  0.0662
  496SOL     OW 1486   2.555   2.993   1.748 -0.4953  0.0776  0.5651
  496SOL    HW1 1487   2.630   2.946   1.799 -0.0377 -0.3305 -0.1436
  496SOL    HW2 1488   2.589   3.085   1.717 -1.5372  0.7100 -0.2626
  497SOL     OW 1489   1.591   1.672   2.622  0.0761  0.0957 -0.0857
  497SOL    HW1 1490   1.533   1.594   2.643  0.9140 -0.1550 -3.9423
  497SOL    HW2 1491   1.546   1.748   2.569  0.9847  1.7757 -1.1859
  498SOL     OW 1492   0.368   1.939   0.783  0.1172  0.0486  0.4127
  498SOL    HW1 1493   0.390   1.839   0.783 -0.2385 -0.8602 -0.7981
  498SOL    HW2 1494   0.345   1.972   0.877  0.1172 -2.4155  1.1749
  499SOL     OW 1495   0.113   1.572   1.365  0.1198  0.7591 -0.2763
  499SOL    HW1 1496   0.143   1.476   1.362 -0.8444  1.0617 -0.5148
  499SOL    HW2 1497   0.064   1.592   1.452 -0.5852  2.5574 -0.9626
  500SOL     OW 1498   1.218   2.395   0.412 -0.1669  0.2673 -0.3888
  500SOL    HW1 1499   1.277   2.372   0.329  1.0414 -0.6795 -1.8012
  500SOL    HW2 1500   1.228   2.319   0.480  0.0240 -0.5250 -0.8226
  501SOL     OW 1501   2.417   2.552   1.070  0.1791  0.2628 -0.3802
  501SOL    HW1 1502   2.440   2.649   1.040  0.1380  1.0315 -1.9988
  501SOL    HW2 1503   2.445   2.536   1.166  1.1085 -0.3159 -2.2726
  502SOL     OW 1504   0.074   0.966   1.665  0.1651  0.4810  0.1391
  502SOL    HW1 1505   0.131   1.018   1.735  0.1910  0.8217  1.4240
  502SOL    HW2 1506   0.126   0.890   1.632 -4.2689 -0.0941  0.7089
  503SOL     OW 1507   2.468   0.265   1.809  0.0260 -0.3091 -0.2336
  503SOL    HW1 1508   2.382   0.215   1.787 -2.7933  0.9407  0.1189
  503SOL    HW2 1509   2.543   0.214   1.770 -0.9197  0.0114  1.3650
  504SOL     OW 1510   1.773   0.630   1.981  0.2829  0.2408  0.5162
  504SOL    HW1 1511   1.678   0.629   2.027 -2.1658 -0.6765 -0.4652
  504SOL    HW2 1512   1.785   0.706   1.915 -0.4866  1.8247  0.3325
  505SOL     OW 1513   1.265   0.102   2.767  0.2301  0.4270  0.1092
  505SOL    HW1 1514   1.233   0.006   2.780  2.5247  0.9579  0.8799
  505SOL    HW2 1515   1.297   0.145   2.854  1.6533 -2.2655 -0.6498
  506SOL     OW 1516   0.491   0.513   1.644  0.0273  0.0779  0.2998
  506SOL    HW1 1517   0.558   0.532   1.572  1.2970 -1.1842 -0.5412
  506SOL    HW2 1518   0.541   0.474   1.728 -1.2820 -2.6033 -2.0050
  507SOL     OW 1519   1.513   2.977   2.940  0.7434  0.0562 -0.2286
  507SOL    HW1 1520   1.500   3.077   2.941 -0.2382  2.3601  0.3931
  507SOL    HW2 1521   1.435   2.931   2.987  0.8015  0.9968 -0.4962
  508SOL     OW 1522   2.576   0.355   2.692 -0.2872  0.0427 -0.1089
  508SOL    HW1 1523   2.533   0.406   2.768 -0.2659 -2.8568 -0.7758
  508SOL    HW2 1524   2.531   0.263   2.673 -0.1339 -2.1119 -1.0249
  509SOL     OW 1525   0.924   1.357   1.849  0.4886  0.0515  0.1407
  509SOL    HW1 1526   0.885   1.431   1.910  0.1568  0.8272  1.2740
  509SOL    HW2 1527   0.961   1.410   1.769  0.1313  0.8658  1.0305
  510SOL     OW 1528   0.091   0.913   0.911  0.1011 -0.1984  0.2166
  510SOL    HW1 1529   0.149   0.912   0.822 -1.2341 -1.2848 -2.0797
  510SOL    HW2 1530   3.114   0.900   0.887 -0.2068  1.0406  0.5648
  511SOL     OW 1531   1.851   1.516   1.089  0.0521 -0.0227  0.2398
  511SOL    HW1 1532   1.770   1.522   1.144  1.5636 -0.2443 -0.2931
  511SOL    HW2 1533   1.823   1.525   0.993 -0.9476 -0.2707  1.2110
  512SOL     OW 1534   0.923   1.448   0.140  0.7442  0.1579 -0.0124
  512SOL    HW1 1535   0.912   1.521   0.073 -0.7075  0.5743 -1.2116
  512SOL    HW2 1536   1.007   1.467   0.196 -0.3793  0.3745  2.4699
  513SOL     OW 1537   0.151   2.383   0.673 -0.1370 -0.2237 -0.2489
  513SOL    HW1 1538   0.138   2.482   0.709  1.9595  2.1423  0.1639
  513SOL    HW2 1539   0.251   2.363   0.647  2.5195 -1.4180 -0.5908
  514SOL     OW 1540   0.211   1.742   2.898  0.1222  0.4077 -0.0232
  514SOL    HW1 1541   0.225   1.741   2.998  3.4214 -2.7580  1.2582
  514SOL    HW2 1542   0.256   1.658   2.853  0.8010 -2.9067  1.2993
  515SOL     OW 1543   2.470   0.585   0.226 -0.5215 -0.5252 -1.0668
  515SOL    HW1 1544   2.518   0.658   0.281  0.1486  0.2029  2.2390
  515SOL    HW2 1545   2.378   0.575   0.261  2.7161  2.3306 -1.0109
  516SOL     OW 1546   2.564   2.751   0.970 -0.8097 -0.6241 -0.4612
  516SOL    HW1 1547   2.594   2.795   1.058 -0.3880  1.5773  0.3555
  516SOL    HW2 1548   2.515   2.814   0.912  0.8993  0.5602 -0.2875
  517SOL     OW 1549   1.286   1.802   2.992 -0.0518 -0.2614 -0.4774
  517SOL    HW1 1550   1.389   1.807   3.005 -0.1370  0.4520 -1.2249
  517SOL    HW2 1551   1.228   1.770   3.069 -2.0704  0.3769 -0.2971
  518SOL     OW 1552   1.131   0.831   1.686 -0.1404  0.4305 -0.5489
  518SOL    HW1 1553   1.042   0.842   1.636 -0.9045  1.9674 -1.7628
  518SOL    HW2 1554   1.176   0.741   1.667 -1.0495  1.2984  0.5912
  519SOL     OW 1555   2.808   1.527   0.553  0.4874 -0.0824 -0.9358
  519SOL    HW1 1556   2.859   1.478   0.628 -0.8708  1.5044 -0.3563
  519SOL    HW2 1557   2.863   1.540   0.473 -0.5500  1.1078 -0.9503
  520SOL     OW 1558   2.188   2.276   1.920 -0.0877 -0.2495  0.1288
  520SOL    HW1 1559   2.252   2.206   1.949 -1.6208 -0.0734 -3.0491
  520SOL    HW2 1560   2.182   2.345   1.992 -0.6819  0.0866  3.3115
  521SOL     OW 1561   0.971   2.989   2.602  0.5422  0.3450 -0.1849
  521SOL    HW1 1562   0.969   3.085   2.565 -1.8414  0.9729  2.4522
  521SOL    HW2 1563   0.915   2.933   2.538 -2.1702  0.5388 -0.5801
  522SOL     OW 1564   2.747   0.494   2.529  0.6991  0.2004  0.2678
  522SOL    HW1 1565   2.711   0.471   2.435 -0.4316 -0.4316 -0.3362
  522SOL    HW2 1566   2.695   0.436   2.599  2.1079 -0.5140 -2.0711
  523SOL     OW 1567   1.629   2.359   1.678 -0.4690  0.2069  0.5045
  523SOL    HW1 1568   1.609   2.457   1.696 -0.7964  0.5533 -1.0381
  523SOL    HW2 1569   1.695   2.318   1.745  2.7642 -0.9472  1.2331
  524SOL     OW 1570   1.650   2.075   2.953 -0.2687 -0.3598  0.0333
  524SOL    HW1 1571   1.637   2.134   2.867  1.3126  1.6200 -0.5298
  524SOL    HW2 1572   1.686   1.978   2.935 -1.0292 -2.2083 -1.2385
  525SOL     OW 1573   0.165   0.907   0.153  0.1479 -0.1937 -0.1713
  525SOL    HW1 1574   0.152   0.861   0.245 -2.4992 -1.8735  0.3039
  525SOL    HW2 1575   0.254   0.947   0.143 -0.9640 -0.9968  1.1395
  526SOL     OW 1576   1.097   0.011   0.586 -0.3734 -0.5465 -0.1943
  526SOL    HW1 1577   1.106   3.046   0.543  1.1174  0.7225  0.3559
  526SOL    HW2 1578   1.060   0.078   0.517  0.7102 -0.0073  0.8111
  527SOL     OW 1579   2.600   1.729   0.526  0.2646 -0.1654  0.3227
  527SOL    HW1 1580   2.670   1.651   0.521 -1.4598 -0.1028  1.0408
  527SOL    HW2 1581   2.568   1.753   0.430  0.7082  0.4465 -4.2324
  528SOL     OW 1582   0.738   0.982   2.135  0.1444  0.1593  0.0978
  528SOL    HW1 1583   0.795   1.023   2.208 -1.6370 -1.0191 -4.7578
  528SOL    HW2 1584   0.664   1.048   2.111  1.5754 -0.6409  0.6020
  529SOL     OW 1585   1.214   1.649   2.758 -0.5300 -0.5771  0.3859
  529SOL    HW1 1586   1.266   1.682   2.840  3.0914 -0.5496  0.9105
  529SOL    HW2 1587   1.274   1.600   2.691  0.8498 -0.4826 -0.6786
  530SOL     OW 1588   1.684   1.153   2.449 -0.2712  0.1636  0.5374
  530SOL    HW1 1589   1.593   1.141   2.407 -1.3252  0.6184 -0.4848
  530SOL    HW2 1590   1.707   1.096   2.529 -0.9768  1.8714 -0.6323
  531SOL     OW 1591   0.494   2.079   2.718 -0.0549 -0.2578  0.6522
  531SOL    HW1 1592   0.396   2.098   2.733 -0.8874 -0.3910 -2.6920
  531SOL    HW2 1593   0.542   2.169   2.699  0.5648  4.6318  1.1834
  532SOL     OW 1594   2.369   0.808   0.670  0.5301 -0.0179  0.5056
  532SOL    HW1 1595   2.435   0.879   0.652  0.7229 -0.4924  4.1223
  532SOL    HW2 1596   2.407   0.722   0.705 -0.2139  0.3464  1.5422
  533SOL     OW 1597   3.085   0.404   1.730  0.5252 -0.0257  0.0458
  533SOL    HW1 1598   0.044   0.421   1.672 -0.5650 -1.1543  0.7557
  533SOL    HW2 1599   3.115   0.416   1.822  0.4373  0.4552 -1.5085
  534SOL     OW 1600   1.315   3.102   0.053 -0.3965 -0.0123  0.0918
  534SOL    HW1 1601   1.259   0.062   0.066 -1.4407 -1.5961  1.6014
  534SOL    HW2 1602   1.274   3.045   3.099 -0.5045 -1.8844 -1.3059
  535SOL     OW 1603   0.372   0.064   0.165  0.2001  0.1338 -0.1379
  535SOL    HW1 1604   0.339   0.007   0.084 -1.9214 -0.0173 -0.0989
  535SOL    HW2 1605   0.326   0.158   0.172  0.9621 -0.3487  0.7200
  536SOL     OW 1606   0.402   1.621   1.360  0.4856  0.3612 -0.2345
  536SOL    HW1 1607   0.303   1.629   1.377 -1.0197  1.1498  1.6310
  536SOL    HW2 1608   0.446   1.583   1.450 -0.7364  1.4805  4.1063
  537SOL     OW 1609   0.562   2.622   1.880 -0.4205  0.2315 -0.2082
  537SOL    HW1 1610   0.495   2.571   1.821 -0.9133  2.4586  0.0270
  537SOL    HW2 1611   0.655   2.583   1.876  2.3120 -1.3866  1.3239
  538SOL     OW 1612   3.092   1.692   0.062  0.4216  0.0904 -0.0372
  538SOL    HW1 1613   0.056   1.750   0.053 -0.4824  1.1694  0.0567
  538SOL    HW2 1614   3.049   1.689   0.155  2.1267  1.8348 -0.3693
  539SOL     OW 1615   2.653   0.753   2.597  0.4573 -0.4685 -0.3089
  539SOL    HW1 1616   2.692   0.660   2.580 -0.2481  0.5066  2.5756
  539SOL    HW2 1617   2.682   0.830   2.538  1.7907 -0.7597  1.7779
  540SOL     OW 1618   1.686   0.536   2.521 -0.7150  0.0545 -0.0007
  540SOL    HW1 1619   1.667   0.512   2.620  0.0136  1.2177  2.0997
  540SOL    HW2 1620   1.784   0.523   2.498 -1.8457 -0.6974  0.7872
  541SOL     OW 1621   0.756   0.094   1.850  0.0903  0.5409  0.6150
  541SOL    HW1 1622   0.746   0.005   1.895 -0.1636  0.0744 -2.7174
  541SOL    HW2 1623   0.755   0.168   1.919  0.4537 -0.5212 -0.1752
  542SOL     OW 1624   1.857   2.757   2.783 -0.8101 -0.3534 -0.5336
  542SOL    HW1 1625   1.761   2.753   2.817 -1.4429  0.0173 -0.0955
  542SOL    HW2 1626   1.867   2.842   2.724  1.4602  0.4834 -0.7842
  543SOL     OW 1627   0.740   0.036   0.737  0.1548  0.0864 -0.2759
  543SOL    HW1 1628   0.665   0.066   0.796  3.4307 -0.5188 -0.0082
  543SOL    HW2 1629   0.781   0.126   0.705 -0.8693  1.5571  0.1209
  544SOL     OW 1630   2.647   1.510   2.037  0.3070 -0.1843 -0.4546
  544SOL    HW1 1631   2.683   1.609   2.046  0.3842  0.1651 -0.1373
  544SOL    HW2 1632   2.553   1.498   2.073  0.4352 -0.2044  0.5869
  545SOL     OW 1633   1.738   1.805   1.261 -0.5325 -0.6538  0.1516
  545SOL    HW1 1634   1.687   1.719   1.236 -3.2440 -4.2183  0.4723
  545SOL    HW2 1635   1.827   1.790   1.313  1.3391  2.1470  0.3384
  546SOL     OW 1636   0.254   0.212   2.266 -0.1022 -0.9015  0.1597
  546SOL    HW1 1637   0.270   0.235   2.164  0.1719 -0.4724 -1.2939
  546SOL    HW2 1638   0.278   0.114   2.280  0.5464  2.7776 -0.3472
  547SOL     OW 1639   1.295   0.669   1.110 -0.6420  0.3141 -0.6195
  547SOL    HW1 1640   1.304   0.740   1.185  1.1685 -1.6599  2.8186
  547SOL    HW2 1641   1.372   0.686   1.046  1.0648  2.7671  0.1654
  548SOL     OW 1642   1.367   2.406   2.775 -0.1127  0.5600 -0.3708
  548SOL    HW1 1643   1.273   2.367   2.752 -2.4098 -0.0746  1.7078
  548SOL    HW2 1644   1.436   2.329   2.763  2.1777 -3.4033  1.0306
  549SOL     OW 1645   2.174   0.280   0.268 -0.0806  0.0412  0.0261
  549SOL    HW1 1646   2.089   0.255   0.212 -1.6980 -3.0841 -2.2692
  549SOL    HW2 1647   2.252   0.238   0.217  0.6106  0.6516  0.0937
  550SOL     OW 1648   2.826   1.789   0.697 -0.1779 -0.2477 -0.0408
  550SOL    HW1 1649   2.859   1.700   0.655 -2.5995 -1.0855  1.4706
  550SOL    HW2 1650   2.739   1.814   0.661  1.3867 -0.4676  0.6050
  551SOL     OW 1651   1.027   2.980   2.166  0.1381  0.0933  0.1470
  551SOL    HW1 1652   1.007   2.934   2.076  1.0116  1.0099 -1.5352
  551SOL    HW2 1653   1.023   3.083   2.145 -0.6897  0.5046 -1.9248
  552SOL     OW 1654   2.949   2.411   2.637  1.0788 -0.2936  0.2829
  552SOL    HW1 1655   2.974   2.321   2.587 -0.0744 -0.8322 -1.2737
  552SOL    HW2 1656   2.851   2.401   2.676 -3.7876 -1.3684  1.5748
  553SOL     OW 1657   0.330   2.801   1.005  0.5276  0.6038 -0.0873
  553SOL    HW1 1658   0.258   2.852   1.057  0.9589 -0.0986 -0.9915
  553SOL    HW2 1659   0.304   2.703   0.995 -0.4315  2.9279  1.1330
  554SOL     OW 1660   2.328   2.144   1.586  0.0940 -0.1667 -0.1930
  554SOL    HW1 1661   2.244   2.118   1.638 -0.5080 -1.3972 -0.6959
  554SOL    HW2 1662   2.329   2.129   1.486 -0.9002 -1.2008  2.0694
  555SOL     OW 1663   1.636   2.266   2.005  0.5049  0.5559  0.0388
  555SOL    HW1 1664   1.593   2.172   2.011 -1.6718  1.7035  0.3968
  555SOL    HW2 1665   1.567   2.339   2.028  0.9618  0.7970 -2.5809
  556SOL     OW 1666   1.442   1.422   0.874  0.0070  0.1798  0.2273
  556SOL    HW1 1667   1.485   1.405   0.961 -3.2320 -0.9771 -0.3235
  556SOL    HW2 1668   1.384   1.506   0.875 -5.4701 -1.3292 -0.3732
  557SOL     OW 1669   1.522   2.927   1.732 -0.0383 -0.3288  0.7123
  557SOL    HW1 1670   1.447   2.909   1.797 -1.0700 -2.5838 -0.5411
  557SOL    HW2 1671   1.479   2.988   1.662 -2.0757  1.1355 -0.1496
  558SOL     OW 1672   0.260   0.125   1.804  0.3736  0.6653  0.0456
  558SOL    HW1 1673   0.286   0.189   1.879 -1.5627  1.7478 -1.7075
  558SOL    HW2 1674   0.305   0.149   1.716  0.0942  0.6021  1.7961
  559SOL     OW 1675   2.244   2.945   0.697  0.2358  0.0797 -0.5550
  559SOL    HW1 1676   2.183   3.010   0.741  2.2664  0.0778 -1.1251
  559SOL    HW2 1677   2.218   2.944   0.596 -1.1158 -1.6800 -1.3577
  560SOL     OW 1678   1.766   2.524   0.851  0.1442  0.4770 -1.3877
  560SOL    HW1 1679   1.833   2.595   0.835 -3.5789  0.2450  0.2161
  560SOL    HW2 1680   1.768   2.504   0.952  1.6488  0.0684  3.8438
  561SOL     OW 1681   0.947   0.207   0.438  0.2559 -0.0378  0.5028
  561SOL    HW1 1682   1.018   0.260   0.479  0.9438 -2.0901 -1.5836
  561SOL    HW2 1683   0.861   0.216   0.493 -2.1575 -0.7709  0.7441
  562SOL     OW 1684   0.474   1.340   2.312 -0.1406  0.6436 -0.0387
  562SOL    HW1 1685   0.437   1.431   2.284  1.1743 -1.8988  0.1836
  562SOL    HW2 1686   0.474   1.324   2.413  0.1753 -0.0754 -0.9951
  563SOL     OW 1687   1.520   2.103   2.319 -0.2362 -0.1899  0.3188
  563SOL    HW1 1688   1.537   2.073   2.223 -0.1057 -1.1638 -0.6971
  563SOL    HW2 1689   1.598   2.150   2.361  0.3555 -1.2272 -1.5196
  564SOL     OW 1690   2.919   0.880   0.852  0.0840  0.3120  0.3957
  564SOL    HW1 1691   2.928   0.904   0.749 -2.7929  1.0229 -2.1153
  564SOL    HW2 1692   2.826   0.909   0.888 -2.8053  1.4268 -1.6519
  565SOL     OW 1693   0.629   1.112   0.192 -0.1904  0.1293  0.4008
  565SOL    HW1 1694   0.647   1.072   0.099 -0.4929  1.0892  2.0167
  565SOL    HW2 1695   0.708   1.163   0.239 -0.4340  1.2397  1.1456
  566SOL     OW 1696   2.576   0.031   2.859  0.1020 -0.3415 -0.5037
  566SOL    HW1 1697   2.514   0.021   2.942  1.0367 -0.1866  1.1484
  566SOL    HW2 1698   2.521   0.070   2.784 -0.3540 -1.8676  2.7484
  567SOL     OW 1699   1.492   0.687   0.938 -0.4193 -0.0472  0.0669
  567SOL    HW1 1700   1.589   0.672   0.972  1.9526 -0.6149 -0.5316
  567SOL    HW2 1701   1.487   0.776   0.883  1.2362  2.6023 -0.3876
  568SOL     OW 1702   1.697   1.830   2.842  0.2744 -0.1915  0.0110
  568SOL    HW1 1703   1.630   1.807   2.917 -2.1885  0.0039  3.0810
  568SOL    HW2 1704   1.668   1.792   2.752 -1.5551  0.5950 -2.3133
  569SOL     OW 1705   2.067   1.335   0.080  0.5266 -0.5130 -0.0435
  569SOL    HW1 1706   2.037   1.430   0.078  1.7713 -2.4317  0.8982
  569SOL    HW2 1707   2.168   1.326   0.067 -2.0639 -0.7503 -1.2047
  570SOL     OW 1708   0.264   2.519   1.894  0.1280  0.2762 -0.0195
  570SOL    HW1 1709   0.307   2.602   1.937 -0.0429 -0.8519  1.7828
  570SOL    HW2 1710   0.289   2.519   1.793  0.0238 -0.1552  2.2763
  571SOL     OW 1711   2.947   1.687   1.795  0.3674  0.0309  0.4199
  571SOL    HW1 1712   2.950   1.788   1.798  1.9648 -3.2502 -0.0487
  571SOL    HW2 1713   2.940   1.656   1.890 -0.1198 -0.2096 -3.1504
  572SOL     OW 1714   1.683   2.006   0.401  0.3243  0.0763  0.3670
  572SOL    HW1 1715   1.707   1.923   0.453 -1.7023  0.7231  0.9013
  572SOL    HW2 1716   1.757   2.074   0.398  1.8358  0.0420  0.9318
  573SOL     OW 1717   1.859   2.240   0.422  0.5395 -0.1986 -0.1537
  573SOL    HW1 1718   1.803   2.247   0.335  0.3929 -0.9074  0.5527
  573SOL    HW2 1719   1.815   2.291   0.502  0.1309 -1.1458 -2.3007
  574SOL     OW 1720   0.891   0.064   1.116 -0.0623 -0.2702 -0.2562
  574SOL    HW1 1721   0.805   0.021   1.079  1.7447  4.1920 -1.6535
  574SOL    HW2 1722   0.951   0.069   1.035 -1.1400 -1.0892  1.6907
  575SOL     OW 1723   0.765   0.931   1.747 -0.0427  0.2141 -0.4205
  575SOL    HW1 1724   0.762   1.028   1.750  3.6717 -1.0969 -0.2729
  575SOL    HW2 1725   0.825   0.905   1.826  0.1004  2.7735  0.5826
  576SOL     OW 1726   2.672   0.139   1.667 -0.3445 -0.2628  0.3720
  576SOL    HW1 1727   2.761   0.165   1.716  0.0117 -1.3929  0.3200
  576SOL    HW2 1728   2.679   0.182   1.573 -0.1071 -1.5835  0.9213
  577SOL     OW 1729   1.148   0.984   2.379 -0.1239 -0.7590  0.2514
  577SOL    HW1 1730   1.120   0.979   2.476  0.2629 -0.1397 -1.0259
  577SOL    HW2 1731   1.185   0.895   2.352 -0.0522 -0.7566 -0.4559
  578SOL     OW 1732   2.086   1.206   2.590  0.3094 -0.0812 -0.4069
  578SOL    HW1 1733   2.031   1.287   2.587  1.8498 -0.3465 -2.7938
  578SOL    HW2 1734   2.186   1.220   2.591 -1.6083  0.6776 -1.4638
  579SOL     OW 1735   1.372   2.262   1.835 -0.1135 -0.0723 -0.4808
  579SOL    HW1 1736   1.400   2.186   1.894 -0.8806  0.7500 -0.9660
  579SOL    HW2 1737   1.453   2.300   1.781  2.0971  1.7774 -2.0679
  580SOL     OW 1738   1.401   2.055   0.356  0.0617 -0.2795  0.2020
  580SOL    HW1 1739   1.493   2.017   0.384 -1.1079  0.7633 -2.3119
  580SOL    HW2 1740   1.402   2.087   0.256  1.9185  0.0360 -3.9130
  581SOL     OW 1741   1.323   0.871   2.073 -0.3906  0.1709  0.0939
  581SOL    HW1 1742   1.264   0.805   2.020  0.0778 -0.1619 -0.6412
  581SOL    HW2 1743   1.324   0.843   2.171 -0.3194  3.5581  0.8252
  582SOL     OW 1744   0.750   1.195   1.695 -0.4173  0.1473 -0.3377
  582SOL    HW1 1745   0.799   1.263   1.753 -0.5231  1.6238  2.0005
  582SOL    HW2 1746   0.741   1.220   1.598 -1.0045  0.5719  0.4814
  583SOL     OW 1747   1.088   1.156   1.934  0.0148  0.0998 -0.0107
  583SOL    HW1 1748   1.054   1.075   1.882 -2.2176  0.2508  1.4878
  583SOL    HW2 1749   1.022   1.228   1.907 -2.3710  0.2946  0.9205
  584SOL     OW 1750   2.598   2.405   0.911  0.0900  0.2883  0.3194
  584SOL    HW1 1751   2.550   2.399   0.825 -0.4947 -1.6332  0.7720
  584SOL    HW2 1752   2.542   2.448   0.977  1.9076 -2.8826 -2.5900
  585SOL     OW 1753   2.114   0.151   2.631 -0.1427 -0.7007  0.1533
  585SOL    HW1 1754   2.018   0.173   2.601  0.7695 -1.3644 -0.7460
  585SOL    HW2 1755   2.109   0.146   2.733 -0.1809  3.7415  0.1998
  586SOL     OW 1756   3.069   2.201   0.730 -0.1727  0.1750 -0.2049
  586SOL    HW1 1757   3.000   2.274   0.755  0.4137  1.7291  0.5185
  586SOL    HW2 1758   0.030   2.246   0.696 -2.1179 -0.9173  0.4260
  587SOL     OW 1759   1.553   1.801   3.091  0.4160 -0.1021  0.2866
  587SOL    HW1 1760   1.589   1.869   0.033 -1.1344  0.6167  1.8487
  587SOL    HW2 1761   1.605   1.713   3.102 -2.6998 -1.5124 -0.4440
  588SOL     OW 1762   0.359   0.398   1.241 -0.4538 -0.5423 -0.2149
  588SOL    HW1 1763   0.423   0.319   1.252  0.2387 -1.7362 -1.2213
  588SOL    HW2 1764   0.277   0.391   1.297  2.6044  0.7216 -1.4844
  589SOL     OW 1765   1.438   0.522   0.728  0.5825  0.0709  0.2322
  589SOL    HW1 1766   1.476   0.557   0.820 -1.6418 -0.8972  0.0326
  589SOL    HW2 1767   1.372   0.588   0.692  1.1871 -1.0189  0.5333
  590SOL     OW 1768   1.254   1.144   0.041 -0.2755  0.0238  0.0263
  590SOL    HW1 1769   1.357   1.131   0.035  1.2910  1.4761 -1.9202
  590SOL    HW2 1770   1.240   1.247   0.031  1.7612  2.2596 -3.9073
  591SOL     OW 1771   2.548   2.564   2.419  0.3487 -0.2103  0.1823
  591SOL    HW1 1772   2.537   2.624   2.501 -1.5107 -0.5663  0.3995
  591SOL    HW2 1773   2.551   2.620   2.332 -2.7591  1.3751 -1.3034
  592SOL     OW 1774   2.029   2.225   1.444 -0.9840 -0.1083  0.3493
  592SOL    HW1 1775   1.957   2.181   1.391  1.9400 -0.7611  0.4000
  592SOL    HW2 1776   2.007   2.226   1.544  0.8064 -1.5899  0.3118
  593SOL     OW 1777   0.775   0.248   0.921  0.4164 -0.0137 -0.1633
  593SOL    HW1 1778   0.703   0.179   0.947  0.4968  1.6474  1.0714
  593SOL    HW2 1779   0.872   0.221   0.945 -2.2589  0.7968 -1.4401
  594SOL     OW 1780   2.641   1.091   2.524 -0.2447 -0.1783 -0.0344
  594SOL    HW1 1781   2.737   1.101   2.556 -0.2906  1.2531  0.2626
  594SOL    HW2 1782   2.634   1.139   2.432  0.1776 -0.2514 -2.0549
  595SOL     OW 1783   0.431   3.034   0.867  0.0013  0.0028 -0.0026
  595SOL    HW1 1784   0.384   2.946   0.882 -2.2051  1.0063  0.3138
  595SOL    HW2 1785   0.407   3.076   0.779  1.9179 -0.1603  2.6914
  596SOL     OW 1786   0.223   1.305   1.377  0.0059 -0.5512 -0.1208
  596SOL    HW1 1787   0.181   1.309   1.468 -0.3122 -0.7811  0.6800
  596SOL    HW2 1788   0.223   1.205   1.342  0.9049 -2.8499 -0.4633
  597SOL     OW 1789   1.801   1.542   0.279 -0.1147 -0.5582  0.4505
  597SOL    HW1 1790   1.842   1.459   0.319  0.2544  1.8688 -1.1943
  597SOL    HW2 1791   1.872   1.616   0.282  2.0965  2.3186  1.7819
  598SOL     OW 1792   0.334   2.977   1.774  0.2269  0.6170 -0.0651
  598SOL    HW1 1793   0.417   2.969   1.717  1.1307  1.1141  1.2516
  598SOL    HW2 1794   0.314   3.075   1.800 -4.3069 -0.2863 -2.0390
  599SOL     OW 1795   2.431   1.608   2.759 -0.2536  0.4310  0.6013
  599SOL    HW1 1796   2.334   1.592   2.731  1.1463 -1.3171 -0.0091
  599SOL    HW2 1797   2.475   1.637   2.671  2.2532 -0.8392 -3.7564
  600SOL     OW 1798   0.813   1.278   0.316  0.1802  0.2564  0.2275
  600SOL    HW1 1799   0.874   1.341   0.259  0.0732  1.8203 -0.5179
  600SOL    HW2 1800   0.861   1.241   0.400  0.8599 -1.0186  3.0489
  601SOL     OW 1801   0.580   0.920   0.795 -0.0868  0.3986 -0.2448
  601SOL    HW1 1802   0.580   0.997   0.733  0.1143 -2.8271  0.4136
  601SOL    HW2 1803   0.614   0.948   0.886 -0.3836 -1.4300  3.1475
  602SOL     OW 1804   1.555   2.560   0.510 -0.2896  0.1040 -0.2734
  602SOL    HW1 1805   1.517   2.483   0.559 -1.5176  2.1262  1.0573
  602SOL    HW2 1806   1.635   2.604   0.553 -1.0384 -2.1021 -1.8209
  603SOL     OW 1807   0.505   2.565   2.145 -0.2271  0.3344  0.1135
  603SOL    HW1 1808   0.521   2.590   2.047  1.3396 -0.8512  0.0138
  603SOL    HW2 1809   0.527   2.471   2.167 -0.4161  0.3985 -1.1350
  604SOL     OW 1810   0.405   0.366   2.446  0.4540 -0.1819  0.1644
  604SOL    HW1 1811   0.354   0.330   2.369  1.0133 -0.4429  0.8809
  604SOL    HW2 1812   0.354   0.345   2.531  0.0264  0.3772 -2.3199
  605SOL     OW 1813   2.868   1.455   1.487 -0.6075 -0.8532 -0.0699
  605SOL    HW1 1814   2.884   1.391   1.562 -1.5901 -0.1862 -3.1684
  605SOL    HW2 1815   2.790   1.518   1.510 -0.9447 -2.2367 -1.4506
  606SOL     OW 1816   0.864   1.554   2.502 -0.4483  0.1711  0.2437
  606SOL    HW1 1817   0.775   1.517   2.529 -0.0556 -1.9648 -0.2998
  606SOL    HW2 1818   0.937   1.481   2.486  0.8405  1.4461  1.5589
  607SOL     OW 1819   0.347   3.110   0.586 -0.4928  0.2880 -0.1680
  607SOL    HW1 1820   0.424   3.083   0.523 -2.6934  0.1484 -0.7623
  607SOL    HW2 1821   0.290   0.053   0.547 -0.9886 -2.6775 -1.6061
  608SOL     OW 1822   2.224   1.861   2.140  0.0586  0.3831  0.0875
  608SOL    HW1 1823   2.124   1.872   2.121 -1.2813  1.0191  0.3135
  608SOL    HW2 1824   2.242   1.786   2.208  2.6556  0.4105  0.3540
  609SOL     OW 1825   2.844   0.309   1.255 -0.4033  0.0204  0.2704
  609SOL    HW1 1826   2.802   0.322   1.165  0.0145 -0.6472  3.3343
  609SOL    HW2 1827   2.774   0.273   1.317  2.5804  0.8663 -2.0774
  610SOL     OW 1828   0.481   2.695   0.635 -0.6058 -0.3276 -0.4369
  610SOL    HW1 1829   0.535   2.696   0.723 -2.0230 -1.0415  2.3489
  610SOL    HW2 1830   0.452   2.605   0.609 -1.2181  3.4520 -0.6503
  611SOL     OW 1831   1.643   0.782   2.885  0.8710 -0.7203 -0.4664
  611SOL    HW1 1832   1.685   0.869   2.926  1.0276  0.7778  0.5835
  611SOL    HW2 1833   1.628   0.792   2.783 -0.5741  0.3547 -1.7962
  612SOL     OW 1834   0.680   2.035   1.708 -0.2186  0.5974  0.6115
  612SOL    HW1 1835   0.614   2.077   1.772 -0.7577 -2.2654 -0.3882
  612SOL    HW2 1836   0.719   2.104   1.642 -2.0785  0.0572 -0.3169
  613SOL     OW 1837   0.409   2.431   0.586 -0.2757 -0.6538 -0.2017
  613SOL    HW1 1838   0.453   2.347   0.619 -0.0031 -1.9487 -1.2759
  613SOL    HW2 1839   0.416   2.440   0.486 -1.4771 -0.1194  1.6428
  614SOL     OW 1840   2.394   2.890   1.459 -0.0487 -0.2828 -0.2458
  614SOL    HW1 1841   2.472   2.879   1.520 -4.0201  1.2560 -2.3979
  614SOL    HW2 1842   2.308   2.902   1.513  2.5034  0.7903 -1.0282
  615SOL     OW 1843   1.712   1.057   0.182  0.6172  0.0548 -0.2211
  615SOL    HW1 1844   1.703   1.112   0.272  0.9582  0.5460  2.7299
  615SOL    HW2 1845   1.815   1.050   0.164 -0.6920  0.4367 -0.8559
  616SOL     OW 1846   2.021   0.679   0.178  0.0865 -0.3149 -0.5540
  616SOL    HW1 1847   1.997   0.736   0.093 -0.4205  2.6870  0.3235
  616SOL    HW2 1848   1.947   0.617   0.203 -1.1793  0.1105 -0.4549
  617SOL     OW 1849   0.937   0.838   2.953 -0.4384  0.4878 -0.4054
  617SOL    HW1 1850   1.014   0.901   2.924  0.8484  2.0236 -1.2910
  617SOL    HW2 1851   0.972   0.776   3.030 -0.4537  0.8598 -3.1346
  618SOL     OW 1852   0.642   2.967   1.935  0.2125 -0.1369  0.0114
  618SOL    HW1 1853   0.717   2.908   1.956  2.1514  0.7302  0.0957
  618SOL    HW2 1854   0.617   2.965   1.835  1.1602  0.6336 -3.8289
  619SOL     OW 1855   3.000   1.358   1.171  0.0839 -0.5726  0.0677
  619SOL    HW1 1856   3.062   1.357   1.251  0.9842  0.4492 -0.2037
  619SOL    HW2 1857   2.962   1.452   1.153 -1.2104  0.7504 -2.7395
  620SOL     OW 1858   2.601   1.003   2.900  0.0569 -1.2075  0.5841
  620SOL    HW1 1859   2.512   1.037   2.941  1.0798  1.2389 -2.3297
  620SOL    HW2 1860   2.593   0.905   2.877 -1.4424 -3.3269  0.9442
  621SOL     OW 1861   2.394   2.475   1.855 -0.2832 -0.1253  0.3651
  621SOL    HW1 1862   2.330   2.392   1.843 -0.0958 -1.4920 -0.5231
  621SOL    HW2 1863   2.474   2.457   1.917 -1.7237 -2.1691 -0.2164
  622SOL     OW 1864   1.000   0.452   2.297 -0.5666  0.6092  0.7361
  622SOL    HW1 1865   0.926   0.400   2.334 -0.7289  2.6408 -1.7923
  622SOL    HW2 1866   0.980   0.552   2.301 -0.2449 -0.8035 -1.5898
  623SOL     OW 1867   1.109   0.945   2.657  0.6775 -0.1985 -0.0348
  623SOL    HW1 1868   1.094   0.855   2.697  0.8446  1.9195  0.0002
  623SOL    HW2 1869   1.198   0.981   2.689 -3.8502  1.1800 -4.6286
  624SOL     OW 1870   2.584   0.791   0.389 -0.4254 -0.1979 -0.7340
  624SOL    HW1 1871   2.596   0.888   0.368 -0.7104  0.4396  4.3715
  624SOL    HW2 1872   2.628   0.765   0.479 -0.8771 -1.6631  0.5054
  625SOL     OW 1873   1.035   1.443   0.571 -0.2272  0.1836 -0.3702
  625SOL    HW1 1874   1.050   1.464   0.673 -0.4072  1.0444  0.6812
  625SOL    HW2 1875   0.979   1.515   0.527 -0.3860  2.2518 -2.0252
  626SOL     OW 1876   1.741   0.994   2.655 -0.4732 -0.3652  0.2076
  626SOL    HW1 1877   1.784   0.903   2.634 -1.3269 -0.5984  1.6584
  626SOL    HW2 1878   1.796   1.052   2.725 -1.7554  3.5649 -0.9139
  627SOL     OW 1879   0.838   2.941   2.829 -0.1126 -0.0066 -0.4620
  627SOL    HW1 1880   0.896   2.967   2.749  1.3280 -2.9870  1.3186
  627SOL    HW2 1881   0.849   3.003   2.907  0.0755 -0.5430  0.6619
  628SOL     OW 1882   2.205   0.286   2.362  0.0982  0.4676  0.1355
  628SOL    HW1 1883   2.287   0.234   2.394  0.1597 -0.4327  1.3246
  628SOL    HW2 1884   2.170   0.351   2.428 -1.9423 -0.9946 -0.7113
  629SOL     OW 1885   0.904   0.414   2.953  0.2446  0.2976  0.1632
  629SOL    HW1 1886   0.826   0.426   2.888 -0.3437  2.2750 -0.4623
  629SOL    HW2 1887   0.949   0.505   2.967  0.5091 -0.6772  0.2672
  630SOL     OW 1888   1.122   0.414   2.664 -0.1962  0.0892  0.7379
  630SOL    HW1 1889   1.117   0.343   2.591 -1.1598  1.0665  1.1319
  630SOL    HW2 1890   1.085   0.386   2.753 -0.8839  0.0194  0.0128
  631SOL     OW 1891   2.506   1.092   0.761 -0.6287 -0.1421 -0.3430
  631SOL    HW1 1892   2.437   1.139   0.818  0.5545 -1.0647  3.0595
  631SOL    HW2 1893   2.564   1.156   0.705  0.0599 -0.2543 -2.1087
  632SOL     OW 1894   1.900   0.901   1.440 -0.2007  0.3482 -0.5898
  632SOL    HW1 1895   1.932   0.954   1.518 -1.5787  0.4558 -0.9307
  632SOL    HW2 1896   1.875   0.805   1.456 -1.3253  2.2197  0.8689
  633SOL     OW 1897   0.875   1.640   0.449 -0.4176  0.2423 -0.4084
  633SOL    HW1 1898   0.822   1.607   0.369  0.8573 -0.3334  0.6399
  633SOL    HW2 1899   0.918   1.728   0.435 -1.6537 -1.1834  1.3901
  634SOL     OW 1900   2.180   0.250   1.305  0.3234 -0.3110  0.1429
  634SOL    HW1 1901   2.106   0.194   1.345  0.0201 -2.5727 -1.9968
  634SOL    HW2 1902   2.254   0.264   1.374  1.8692 -0.5454  1.1259
  635SOL     OW 1903   1.692   0.551   1.281 -0.2038  0.1160 -0.0858
  635SOL    HW1 1904   1.608   0.564   1.337  1.1380 -1.3223 -0.0044
  635SOL    HW2 1905   1.674   0.572   1.185  3.5727 -1.7305 -1.0971
  636SOL     OW 1906   0.915   1.181   0.554  0.3431 -0.0688  0.6272
  636SOL    HW1 1907   0.841   1.164   0.620  3.0666 -1.0992 -1.7780
  636SOL    HW2 1908   0.965   1.272   0.564  0.2188  0.6074  2.1087
  637SOL     OW 1909   2.538   2.183   2.809 -0.2281 -0.4301  0.0061
  637SOL    HW1 1910   2.542   2.115   2.884  0.6766  0.4180  0.5521
  637SOL    HW2 1911   2.442   2.200   2.772 -0.1073  0.9543 -1.2003
  638SOL     OW 1912   1.538   2.591   2.626 -0.0045  0.2539 -0.7789
  638SOL    HW1 1913   1.639   2.559   2.627 -0.2257  1.4801 -0.9364
  638SOL    HW2 1914   1.472   2.515   2.638 -1.1616 -2.9360 -2.1735
  639SOL     OW 1915   1.323   1.888   1.394 -0.2764  0.6194  0.8040
  639SOL    HW1 1916   1.238   1.919   1.440  0.4045 -1.7332 -2.4317
  639SOL    HW2 1917   1.383   1.964   1.352  1.2533 -0.9367 -1.5685
  640SOL     OW 1918   2.599   2.788   0.380  0.2795  0.0533  0.0697
  640SOL    HW1 1919   2.552   2.698   0.354  1.6633  1.1393  0.3896
  640SOL    HW2 1920   2.699   2.775   0.397  2.4116 -1.9083 -0.4128
  641SOL     OW 1921   0.029   3.014   0.336 -0.1398  0.1966 -0.5916
  641SOL    HW1 1922   0.066   2.920   0.357  0.8227 -3.2633  1.0247
  641SOL    HW2 1923   3.064   3.025   0.371  2.5068 -2.0538 -1.3787
  642SOL     OW 1924   2.897   0.934   1.231 -0.7498 -0.1368 -0.0785
  642SOL    HW1 1925   2.827   0.858   1.221 -1.9967 -0.7962 -1.1569
  642SOL    HW2 1926   2.883   1.015   1.168  3.9410  0.2798  0.5569
  643SOL     OW 1927   0.984   1.786   2.074 -0.1941  0.5119  0.1023
  643SOL    HW1 1928   0.943   1.860   2.018  0.1521  1.0631 -1.1985
  643SOL    HW2 1929   1.080   1.811   2.096 -1.9172  1.3301  1.2373
  644SOL     OW 1930   1.747   2.342   0.674 -0.2329  0.1287  0.3466
  644SOL    HW1 1931   1.815   2.274   0.707  2.3216  2.6490  0.0913
  644SOL    HW2 1932   1.754   2.422   0.739 -1.2858 -1.2961 -1.5330
  645SOL     OW 1933   2.129   2.109   1.057  0.4541 -0.2480 -0.2780
  645SOL    HW1 1934   2.049   2.048   1.074 -1.5638  0.3559  0.4476
  645SOL    HW2 1935   2.098   2.205   1.058  0.4451  0.0228  0.0523
  646SOL     OW 1936   1.080   2.688   3.102 -0.5575  0.3471 -0.2537
  646SOL    HW1 1937   1.162   2.635   3.069 -1.3144 -3.2791  1.8013
  646SOL    HW2 1938   1.013   2.695   3.026  2.1453  0.9633  0.6650
  647SOL     OW 1939   0.370   2.802   1.964 -0.1834  0.5255  0.4100
  647SOL    HW1 1940   0.359   2.860   1.881 -2.2113  0.6613 -3.0031
  647SOL    HW2 1941   0.449   2.737   1.944  0.6018 -0.7926 -0.5059
  648SOL     OW 1942   1.763   0.654   0.979  0.6910  0.3301 -0.1922
  648SOL    HW1 1943   1.783   0.587   0.908 -0.5525 -1.7775  5.4025
  648SOL    HW2 1944   1.828   0.735   0.984  0.9375  0.0770 -2.9680
  649SOL     OW 1945   1.532   2.177   0.045  0.1559 -0.0125  0.5309
  649SOL    HW1 1946   1.442   2.225   0.019 -0.2843 -0.6369  0.4349
  649SOL    HW2 1947   1.581   2.152   3.083 -0.3401  0.6828  0.6025
  650SOL     OW 1948   2.364   1.702   1.942  0.0831 -0.5176 -0.0912
  650SOL    HW1 1949   2.312   1.767   2.004 -0.0001  0.3487  0.6750
  650SOL    HW2 1950   2.330   1.605   1.947  0.6915 -0.3698  1.6293
  651SOL     OW 1951   1.359   2.372   0.169 -0.0850  0.1798 -0.1332
  651SOL    HW1 1952   1.275   2.386   0.115 -0.1883  2.5992  0.9742
  651SOL    HW2 1953   1.424   2.450   0.165 -1.5110  1.0064  3.1570
  652SOL     OW 1954   0.292   2.186   0.454 -0.2615 -0.3270 -0.4419
  652SOL    HW1 1955   0.262   2.110   0.516 -1.4185 -1.0280 -1.0886
  652SOL    HW2 1956   0.221   2.256   0.446  2.7811 -0.5431  0.7616
  653SOL     OW 1957   2.483   2.216   1.207  0.2310  0.0925  0.0812
  653SOL    HW1 1958   2.552   2.269   1.262  0.4908  0.6477 -2.4112
  653SOL    HW2 1959   2.394   2.201   1.253 -1.1385  0.1076  0.2959
  654SOL     OW 1960   2.825   2.825   1.394  0.0600  0.0579 -0.1110
  654SOL    HW1 1961   2.868   2.914   1.413  1.4218 -4.1477 -0.4867
  654SOL    HW2 1962   2.893   2.751   1.407 -2.6690 -1.1262  1.0400
  655SOL     OW 1963   0.068   2.177   1.323 -0.1661  0.5077  0.7036
  655SOL    HW1 1964   0.153   2.120   1.322  1.2324 -1.1462 -0.2913
  655SOL    HW2 1965   0.071   2.249   1.249 -2.1746  0.2686  0.9889
  656SOL     OW 1966   3.008   2.872   2.612  0.0698 -0.4010 -0.6029
  656SOL    HW1 1967   3.042   2.880   2.516  0.0891 -0.7942 -3.3611
  656SOL    HW2 1968   3.055   2.945   2.664  0.5333  0.0978  1.8442
  657SOL     OW 1969   3.065   0.931   3.094 -0.0791 -0.4853  0.3687
  657SOL    HW1 1970   2.986   0.868   3.112 -2.4921  1.3152 -0.6783
  657SOL    HW2 1971   0.013   0.926   0.039  1.0565 -0.2842  0.5128
  658SOL     OW 1972   1.913   1.959   0.861 -0.0162  0.3836 -0.7816
  658SOL    HW1 1973   1.931   1.909   0.778 -0.2650 -1.5193  3.0458
  658SOL    HW2 1974   1.876   1.894   0.934  1.8351  3.2737  0.9333
  659SOL     OW 1975   1.468   0.633   1.413 -0.3009 -0.1054 -0.1002
  659SOL    HW1 1976   1.395   0.695   1.383 -1.6488  0.3411  1.1381
  659SOL    HW2 1977   1.436   0.538   1.430  0.4503 -0.6872 -1.8181
  660SOL     OW 1978   1.691   1.575   3.118  0.1284  0.1179  0.2473
  660SOL    HW1 1979   1.740   1.586   0.083  0.8167 -0.4934 -0.2429
  660SOL    HW2 1980   1.607   1.533   0.019  2.8363  1.5992 -0.8184
  661SOL     OW 1981   0.158   1.960   0.251  0.3322 -0.3821 -0.6782
  661SOL    HW1 1982   0.227   2.006   0.306 -3.1848 -2.4801  0.8238
  661SOL    HW2 1983   0.067   1.953   0.298  2.7010  1.5619 -0.0453
  662SOL     OW 1984   0.133   0.646   2.125 -0.0629  0.3721  0.4864
  662SOL    HW1 1985   0.138   0.682   2.222 -0.4657 -0.0257  0.3341
  662SOL    HW2 1986   0.146   0.727   2.070  1.4977 -0.6537  1.4725
  663SOL     OW 1987   1.903   1.384   0.668 -0.0529  0.2345  0.0882
  663SOL    HW1 1988   1.869   1.294   0.702 -0.7229 -2.8503  1.2140
  663SOL    HW2 1989   1.986   1.417   0.718 -0.3493 -1.4079  1.6650
  664SOL     OW 1990   0.692   0.659   1.020 -0.3222  0.3269  0.3985
  664SOL    HW1 1991   0.791   0.675   1.007 -0.1211 -1.5213 -3.1641
  664SOL    HW2 1992   0.668   0.586   0.954  2.9179  3.2959  0.5566
  665SOL     OW 1993   1.071   3.020   0.177 -0.4179 -0.1755  0.0520
  665SOL    HW1 1994   1.081   2.983   0.272 -0.5896 -0.0048  0.8706
  665SOL    HW2 1995   1.164   3.037   0.129  0.9711 -2.4184 -1.7839
  666SOL     OW 1996   0.064   0.390   2.651  0.3386  0.0860  0.2170
  666SOL    HW1 1997   0.153   0.377   2.701 -0.5350 -0.7198 -2.1283
  666SOL    HW2 1998   3.118   0.330   2.692  0.2408  0.3759 -0.7542
  667SOL     OW 1999   2.344   2.110   2.110  0.0629 -0.0573  0.0375
  667SOL    HW1 2000   2.310   2.186   2.174  0.6973  0.3376  0.3510
  667SOL    HW2 2001   2.298   2.020   2.128 -0.7438 -2.3091 -2.2212
  668SOL     OW 2002   0.631   1.492   2.619  0.1428 -0.1932 -0.1008
  668SOL    HW1 2003   0.623   1.590   2.651  1.6794  2.8854 -1.1286
  668SOL    HW2 2004   0.550   1.429   2.626  0.3665 -1.2723  0.8014
  669SOL     OW 2005   2.118   2.645   2.506  0.4123  0.1785 -0.0121
  669SOL    HW1 2006   2.088   2.689   2.419 -1.9918 -3.4708  1.6646
  669SOL    HW2 2007   2.067   2.555   2.510 -2.2593 -3.4829  0.8766
  670SOL     OW 2008   2.393   0.980   2.488 -0.5367  0.1500 -0.2037
  670SOL    HW1 2009   2.386   0.979   2.387  0.4446 -0.3204  0.0216
  670SOL    HW2 2010   2.491   1.000   2.516  1.2189  3.2855 -0.2720
  671SOL     OW 2011   2.326   1.272   0.033  0.6743 -0.0728 -0.3778
  671SOL    HW1 2012   2.327   1.197   3.080 -0.5955 -0.8687 -2.0875
  671SOL    HW2 2013   2.412   1.322   0.036 -2.1097 -0.3846 -1.4598
  672SOL     OW 2014   2.348   1.239   2.569 -0.2663 -0.0736  0.3784
  672SOL    HW1 2015   2.437   1.262   2.615  1.0361 -0.7600 -0.4129
  672SOL    HW2 2016   2.357   1.146   2.526 -0.3111  2.1512  0.6343
  673SOL     OW 2017   2.568   1.159   1.440 -0.3361  0.0964 -0.3147
  673SOL    HW1 2018   2.580   1.182   1.342  3.3830 -2.7525 -1.0488
  673SOL    HW2 2019   2.605   1.067   1.461 -0.1408  0.3160 -0.1361
  674SOL     OW 2020   1.937   1.910   1.872  0.7599  0.4324  0.4401
  674SOL    HW1 2021   1.995   1.831   1.878 -2.4083  3.9843 -1.6713
  674SOL    HW2 2022   1.857   1.891   1.805 -1.3816 -1.3422 -2.6716
  675SOL     OW 2023   0.028   0.585   0.863  0.1803  0.7544  0.5069
  675SOL    HW1 2024   0.064   0.656   0.802  2.0729  0.4930 -0.5914
  675SOL    HW2 2025   0.100   0.543   0.920  1.5741 -1.0158  0.1104
  676SOL     OW 2026   2.032   0.996   1.186  0.3431 -0.1864 -0.1862
  676SOL    HW1 2027   1.980   1.082   1.155 -1.6411  1.1815 -0.7720
  676SOL    HW2 2028   1.984   0.951   1.267 -3.2254 -1.4427  1.6135
  677SOL     OW 2029   1.875   1.513   2.158 -0.2682 -0.1474  0.0438
  677SOL    HW1 2030   1.805   1.469   2.213  1.2750 -0.0091  0.2347
  677SOL    HW2 2031   1.840   1.549   2.070 -2.0351 -0.1853  0.3917
  678SOL     OW 2032   0.004   1.856   1.034  0.5538  0.5353  0.2797
  678SOL    HW1 2033   3.099   1.922   1.106 -1.4933  0.8208  0.7968
  678SOL    HW2 2034   3.057   1.786   1.007  4.0242  3.6753 -0.4407
  679SOL     OW 2035   2.887   2.744   0.426  0.2937  0.3224 -0.3892
  679SOL    HW1 2036   2.885   2.843   0.412 -0.5613  0.0183 -1.1261
  679SOL    HW2 2037   2.937   2.723   0.515 -1.7020  1.4295  1.2178
  680SOL     OW 2038   0.154   2.636   1.264  0.2202  0.1415  0.6695
  680SOL    HW1 2039   0.243   2.589   1.245  1.9222 -0.5898 -0.6637
  680SOL    HW2 2040   0.109   2.656   1.173  0.7303  0.4802  0.4395
  681SOL     OW 2041   0.669   0.987   1.056  0.4714 -0.5751  0.6171
  681SOL    HW1 2042   0.736   1.033   1.117  0.1404  1.1650  1.3276
  681SOL    HW2 2043   0.657   0.889   1.073  2.8527  2.5575  0.0609
  682SOL     OW 2044   1.758   2.815   1.131  0.0861  0.0008  0.4274
  682SOL    HW1 2045   1.841   2.871   1.101  1.0209 -2.2225 -0.5432
  682SOL    HW2 2046   1.671   2.865   1.123 -0.5623 -1.7724  2.5476
  683SOL     OW 2047   2.156   1.268   1.342  0.1946  0.3399  0.2286
  683SOL    HW1 2048   2.139   1.358   1.305  3.0636  1.1791 -0.4658
  683SOL    HW2 2049   2.170   1.196   1.269 -0.3066  0.0306 -0.4491
  684SOL     OW 2050   0.852   2.012   1.930  0.0394 -0.4255  0.2690
  684SOL    HW1 2051   0.801   2.001   1.842  1.1098 -1.8329  1.6830
  684SOL    HW2 2052   0.787   2.030   2.002  2.2158  0.1551 -0.7301
  685SOL     OW 2053   2.295   1.735   0.095 -0.0711  0.0913  0.2353
  685SOL    HW1 2054   2.357   1.681   0.033  0.6848  0.1753  0.8293
  685SOL    HW2 2055   2.203   1.692   0.094  2.9820  0.7610 -0.5675
  686SOL     OW 2056   3.098   0.585   0.478  0.3348 -0.1849 -0.1064
  686SOL    HW1 2057   3.087   0.481   0.481  0.2392 -1.4352 -0.1073
  686SOL    HW2 2058   3.006   0.630   0.479 -5.0549 -0.6404 -0.7761
  687SOL     OW 2059   1.121   2.899   0.422  0.4965  0.6204  0.0583
  687SOL    HW1 2060   1.061   2.810   0.420 -2.9128 -2.2533 -0.6739
  687SOL    HW2 2061   1.205   2.881   0.470 -1.2706  1.4530 -1.0381
  688SOL     OW 2062   1.941   1.899   2.158  0.1458 -0.2059  0.3926
  688SOL    HW1 2063   1.883   1.911   2.077  2.0230 -2.8988  1.5189
  688SOL    HW2 2064   1.884   1.878   2.242 -0.4292  0.7036  0.8175
  689SOL     OW 2065   2.724   1.163   2.069  0.0714  0.1876 -0.1743
  689SOL    HW1 2066   2.664   1.198   2.146  0.7283 -0.9757  1.6381
  689SOL    HW2 2067   2.756   1.236   2.003 -1.2414 -1.3363  1.6035
  690SOL     OW 2068   1.828   1.117   0.787  0.2315  0.0563  0.2516
  690SOL    HW1 2069   1.848   1.048   0.855  0.6645  1.0770  0.3122
  690SOL    HW2 2070   1.799   1.080   0.697  0.0583  0.5448  0.9178
  691SOL     OW 2071   1.053   1.279   1.422 -0.1373 -0.8054  0.0708
  691SOL    HW1 2072   1.085   1.271   1.325  0.0081  0.1137 -1.9937
  691SOL    HW2 2073   0.954   1.245   1.434 -0.4032  1.2568 -1.4295
  692SOL     OW 2074   1.469   0.175   2.292  0.0793  0.0447 -0.4361
  692SOL    HW1 2075   1.447   0.268   2.253 -0.4740  1.2594 -1.4343
  692SOL    HW2 2076   1.571   0.165   2.313 -0.2150 -0.2125  0.2338
  693SOL     OW 2077   0.296   1.104   2.980 -0.2945 -0.5393  0.4174
  693SOL    HW1 2078   0.288   1.187   3.040 -1.0789 -2.1051 -0.9501
  693SOL    HW2 2079   0.375   1.040   2.997  0.9002  0.9476  0.0445
  694SOL     OW 2080   2.296   2.621   0.645  0.4339 -0.5950 -0.4877
  694SOL    HW1 2081   2.276   2.703   0.696  0.8877  0.3551 -0.9584
  694SOL    HW2 2082   2.252   2.616   0.549 -0.5497  0.8789 -2.3723
  695SOL     OW 2083   1.538   1.248   2.859 -0.1015 -0.0897 -0.6469
  695SOL    HW1 2084   1.538   1.202   2.954 -0.8676 -0.0739 -0.3334
  695SOL    HW2 2085   1.632   1.285   2.842 -1.3345 -1.6824 -1.6932
  696SOL     OW 2086   1.585   0.219   1.645 -0.4568 -0.2281  0.3816
  696SOL    HW1 2087   1.557   0.275   1.564 -1.1590 -0.1522 -0.9741
  696SOL    HW2 2088   1.680   0.231   1.671 -0.0486 -0.1692  0.2028
  697SOL     OW 2089   1.288   0.388   1.929  0.8830 -0.0409  0.1562
  697SOL    HW1 2090   1.323   0.455   1.863 -2.0799 -1.4175  0.4665
  697SOL    HW2 2091   1.354   0.313   1.936  0.4949  0.3317  2.0369
  698SOL     OW 2092   1.880   1.345   2.521  0.2926  0.3245 -0.1699
  698SOL    HW1 2093   1.913   1.419   2.460  2.3220 -2.5031  3.3673
  698SOL    HW2 2094   1.821   1.278   2.470  1.4934 -0.0434  0.2713
  699SOL     OW 2095   1.697   1.130   1.100  0.1156  0.0296 -0.4558
  699SOL    HW1 2096   1.781   1.181   1.069 -0.8336  0.0166  0.4651
  699SOL    HW2 2097   1.663   1.070   1.025  0.9640 -0.9470  3.4719
  700SOL     OW 2098   1.783   2.951   0.136  0.1003 -0.1818 -0.0909
  700SOL    HW1 2099   1.792   2.852   0.159  0.0403  2.0151  2.8440
  700SOL    HW2 2100   1.688   2.982   0.166  0.6939  3.1341  1.1863
  701SOL     OW 2101   0.540   0.187   1.323 -0.4856  0.0662  0.0234
  701SOL    HW1 2102   0.524   0.089   1.298 -0.4282 -0.4637 -2.3733
  701SOL    HW2 2103   0.638   0.206   1.359  3.4808 -0.2197  1.7701
  702SOL     OW 2104   1.519   3.014   1.383  0.1698  0.3595 -0.0487
  702SOL    HW1 2105   1.617   3.000   1.418  3.0812 -1.8569  0.2485
  702SOL    HW2 2106   1.462   3.068   1.449 -0.5119  0.4768  0.2280
  703SOL     OW 2107   2.451   0.045   2.195  0.1541  0.1411 -0.7377
  703SOL    HW1 2108   2.480   0.022   2.292  2.3623 -2.7361 -0.1353
  703SOL    HW2 2109   2.511   3.114   2.137  0.0402  0.0469  1.0926
  704SOL     OW 2110   1.274   1.638   0.921 -0.6370 -0.1662 -0.4874
  704SOL    HW1 2111   1.246   1.730   0.881  3.6592  2.9076  0.1887
  704SOL    HW2 2112   1.228   1.619   1.011  0.9089  0.8711 -1.2635
  705SOL     OW 2113   3.003   1.646   2.138  0.7103  0.0933  0.0502
  705SOL    HW1 2114   2.981   1.711   2.215 -0.9183  0.7505  1.6568
  705SOL    HW2 2115   2.958   1.549   2.156 -0.7780 -2.3172  0.3197
  706SOL     OW 2116   1.457   3.085   0.616  0.1170 -0.0846 -0.6276
  706SOL    HW1 2117   1.422   2.997   0.579  2.5488  0.2060 -0.7841
  706SOL    HW2 2118   1.410   0.045   0.579  1.3463 -0.3600 -0.7266
  707SOL     OW 2119   0.940   2.613   2.609  0.2474  0.2391 -0.1123
  707SOL    HW1 2120   0.860   2.635   2.553 -1.7998 -2.7053 -0.3640
  707SOL    HW2 2121   0.974   2.515   2.586  1.9305 -0.0909  0.1144
  708SOL     OW 2122   0.515   2.303   1.486  0.0768  0.5152  0.3169
  708SOL    HW1 2123   0.471   2.225   1.533 -0.3480 -2.0860 -2.0026
  708SOL    HW2 2124   0.611   2.284   1.470 -1.9752 -0.1339  2.8394
  709SOL     OW 2125   2.445   0.968   2.237  0.1770 -0.0520  0.7369
  709SOL    HW1 2126   2.526   0.907   2.242 -0.0012  0.9196  0.9470
  709SOL    HW2 2127   2.373   0.915   2.190  4.6897 -0.4204 -0.4340
  710SOL     OW 2128   2.863   0.551   1.675  0.0536  0.7697  0.0981
  710SOL    HW1 2129   2.816   0.538   1.587 -0.1325  1.3899  3.3038
  710SOL    HW2 2130   2.957   0.500   1.679  1.8538  0.8572 -1.0076
  711SOL     OW 2131   2.898   2.422   0.434 -0.0668 -0.0418  0.2425
  711SOL    HW1 2132   2.895   2.414   0.534  1.0470  0.0782  0.8354
  711SOL    HW2 2133   2.961   2.490   0.398  0.0675 -0.4193 -0.1744
  712SOL     OW 2134   0.187   2.547   2.632 -0.8562 -0.5657 -0.2826
  712SOL    HW1 2135   0.267   2.610   2.631  0.0146 -0.3727 -0.8874
  712SOL    HW2 2136   0.105   2.587   2.674 -0.0985  1.4907 -0.4902
  713SOL     OW 2137   1.973   0.822   3.097  0.1137 -0.0417 -0.2303
  713SOL    HW1 2138   1.921   0.907   3.078 -0.4779 -1.2459  1.3605
  713SOL    HW2 2139   1.961   0.746   3.027 -1.0671  1.0308  1.5743
  714SOL     OW 2140   1.279   2.170   0.557  0.2375 -0.3239  0.3434
  714SOL    HW1 2141   1.332   2.120   0.480  2.0741 -0.9649 -0.4807
  714SOL    HW2 2142   1.351   2.215   0.613 -0.7273 -1.4399  2.1957
  715SOL     OW 2143   0.164   0.186   0.441 -0.0172 -0.0107 -0.2398
  715SOL    HW1 2144   0.085   0.242   0.466 -0.0965 -0.2372 -1.0707
  715SOL    HW2 2145   0.234   0.239   0.382  0.3793  0.9976  0.8182
  716SOL     OW 2146   0.569   3.123   2.175  0.1092  0.3937  0.0342
  716SOL    HW1 2147   0.475   0.008   2.217 -0.0784 -0.0448  1.9881
  716SOL    HW2 2148   0.566   3.081   2.084  1.6191  2.9774  3.2041
  717SOL     OW 2149   0.494   0.331   3.065 -0.1659  0.5979  0.6002
  717SOL    HW1 2150   0.510   0.231   3.034 -3.0982 -2.4380  0.6863
  717SOL    HW2 2151   0.395   0.362   3.068 -0.4995  0.6237 -4.1234
  718SOL     OW 2152   1.125   0.598   0.460 -0.4189 -0.1168 -0.5673
  718SOL    HW1 2153   1.193   0.654   0.514 -2.1990 -1.1166  2.3721
  718SOL    HW2 2154   1.153   0.501   0.467 -2.6426  3.6280 -0.0054
  719SOL     OW 2155   2.273   2.257   2.758 -0.6308 -0.4095  0.1116
  719SOL    HW1 2156   2.246   2.348   2.720 -1.2275  1.6211 -0.0912
  719SOL    HW2 2157   2.233   2.241   2.849 -0.3165  0.5697  0.7756
  720SOL     OW 2158   1.750   0.997   2.014 -0.1408  0.0221 -0.2289
  720SOL    HW1 2159   1.770   0.925   1.944 -0.1318 -2.5587 -4.6792
  720SOL    HW2 2160   1.757   0.962   2.109  0.5496 -0.5659  1.2208
  721SOL     OW 2161   2.756   0.157   0.985 -0.0352 -0.2368 -0.2120
  721SOL    HW1 2162   2.802   0.249   0.983  1.0548 -0.2164  1.3143
  721SOL    HW2 2163   2.772   0.109   0.897  1.1780  1.9702 -3.6183
  722SOL     OW 2164   1.190   2.126   2.381 -0.0414  0.4086 -0.4049
  722SOL    HW1 2165   1.227   2.209   2.334 -0.6095 -0.0044  1.3346
  722SOL    HW2 2166   1.254   2.104   2.460 -0.5108  1.7488  1.9897
  723SOL     OW 2167   1.145   0.325   0.581 -0.6113  0.3285 -0.3466
  723SOL    HW1 2168   1.120   0.334   0.676  1.0640 -0.9849 -0.1389
  723SOL    HW2 2169   1.234   0.280   0.566 -0.1687 -1.0173 -1.4041
  724SOL     OW 2170   0.788   2.000   2.464 -0.3576  0.0823  0.3755
  724SOL    HW1 2171   0.815   2.000   2.562  1.9174  0.9218 -0.4437
  724SOL    HW2 2172   0.804   1.907   2.421  0.1422 -1.6388 -1.1826
  725SOL     OW 2173   0.074   0.665   1.222  0.2980 -0.1856  0.1154
  725SOL    HW1 2174   0.048   0.760   1.194 -1.0776  1.3343 -4.2335
  725SOL    HW2 2175   0.126   0.616   1.146  0.1757 -1.9136  0.1302
  726SOL     OW 2176   1.881   0.048   0.502 -0.3932 -0.2533  0.1058
  726SOL    HW1 2177   1.910   0.029   0.410  0.2753 -0.0461  0.6287
  726SOL    HW2 2178   1.852   3.090   0.556 -0.4633 -0.9259  0.3578
  727SOL     OW 2179   2.044   1.082   2.328 -0.0205  0.4009 -0.3325
  727SOL    HW1 2180   2.054   1.176   2.293  1.4382 -0.3706  0.3879
  727SOL    HW2 2181   2.031   1.085   2.431 -0.8322 -0.9919  2.1302
  728SOL     OW 2182   1.616   2.662   1.635 -0.3865 -0.3294  0.0244
  728SOL    HW1 2183   1.565   2.755   1.645  1.4218  1.7341  2.8911
  728SOL    HW2 2184   1.676   2.669   1.550 -0.8119 -1.6699 -0.6803
  729SOL     OW 2185   1.814   0.351   2.034 -0.0100  0.0282 -0.8077
  729SOL    HW1 2186   1.902   0.356   2.084  2.1043  1.0261 -1.7735
  729SOL    HW2 2187   1.778   0.441   2.009 -1.0102 -1.4091  1.9773
  730SOL     OW 2188   0.779   1.437   1.343 -0.2445  0.3822  0.3974
  730SOL    HW1 2189   0.769   1.516   1.408 -0.7128  2.3486  1.6660
  730SOL    HW2 2190   0.737   1.460   1.252 -0.7553 -1.2644  0.7566
  731SOL     OW 2191   0.498   2.978   0.275 -0.2553 -0.5030  0.3057
  731SOL    HW1 2192   0.540   3.005   0.361 -1.3875  1.9068  0.9098
  731SOL    HW2 2193   0.437   3.054   0.245 -0.1321 -0.0553  0.2256
  732SOL     OW 2194   0.692   0.721   0.286  0.1506 -0.0988  0.4158
  732SOL    HW1 2195   0.722   0.622   0.291  0.5059 -0.9303 -0.5938
  732SOL    HW2 2196   0.596   0.728   0.322  0.4158 -2.1329  1.0067
  733SOL     OW 2197   1.653   1.516   1.922  0.5679 -0.2377 -1.1056
  733SOL    HW1 2198   1.601   1.450   1.983 -0.5982 -2.0881 -0.9691
  733SOL    HW2 2199   1.596   1.543   1.842 -1.9526 -2.5366  2.4519
  734SOL     OW 2200   0.047   2.545   2.058 -0.5919  0.9768 -0.1766
  734SOL    HW1 2201   0.117   2.522   1.986 -0.1547 -0.5451  0.6894
  734SOL    HW2 2202   3.082   2.568   2.021  1.4498  0.6847 -1.7682
  735SOL     OW 2203   1.254   3.004   1.006 -0.7122  0.9745 -0.0779
  735SOL    HW1 2204   1.266   2.905   0.980 -1.0920 -0.0509 -0.5494
  735SOL    HW2 2205   1.324   3.049   0.949  1.3596 -0.0638  1.0287
  736SOL     OW 2206   1.206   0.976   2.963 -0.3032 -0.2676  0.2832
  736SOL    HW1 2207   1.277   0.905   2.989 -1.0002  0.2880  0.7331
  736SOL    HW2 2208   1.177   1.030   3.045 -0.5217  1.6623 -2.7540
  737SOL     OW 2209   0.101   0.981   0.608  0.0118 -0.4189  0.4980
  737SOL    HW1 2210   0.186   0.937   0.569  1.2433 -0.3982  0.7824
  737SOL    HW2 2211   0.013   0.935   0.571  0.6347  0.9332 -0.1140
  738SOL     OW 2212   0.610   2.774   1.506  0.5392 -0.0466 -0.4415
  738SOL    HW1 2213   0.627   2.734   1.411 -0.8937  0.8843  1.7272
  738SOL    HW2 2214   0.510   2.754   1.528  0.0367 -0.9092 -2.6740
  739SOL     OW 2215   1.506   2.608   0.221 -0.2473  0.0584 -0.1331
  739SOL    HW1 2216   1.517   2.570   0.315 -1.3613  2.5862 -2.5906
  739SOL    HW2 2217   1.416   2.656   0.213 -0.3791 -1.4073  0.3704
  740SOL     OW 2218   1.761   2.968   1.475 -0.5983  0.1547  0.0930
  740SOL    HW1 2219   1.792   2.998   1.568 -1.2303  1.7209  1.2877
  740SOL    HW2 2220   1.775   2.868   1.455  2.7545  0.1312  1.9934
  741SOL     OW 2221   2.003   0.230   0.668 -0.2339 -0.5406 -0.0251
  741SOL    HW1 2222   1.950   0.316   0.661 -0.1699  0.7956  0.9874
  741SOL    HW2 2223   1.969   0.157   0.602  1.6439 -1.1130  1.3141
  742SOL     OW 2224   0.763   2.615   2.263  0.1253  0.6770  0.2155
  742SOL    HW1 2225   0.666   2.620   2.230 -1.9373 -3.5891 -1.6883
  742SOL    HW2 2226   0.807   2.551   2.203 -2.6948  1.3545  0.7910
  743SOL     OW 2227   2.293   0.990   1.935 -0.3766  0.1294 -0.2740
  743SOL    HW1 2228   2.254   0.967   1.845 -0.2209  1.0540 -0.4072
  743SOL    HW2 2229   2.368   0.922   1.953  0.9584  1.1863  1.8056
  744SOL     OW 2230   2.031   0.364   0.971 -0.2734 -0.3915 -0.1562
  744SOL    HW1 2231   2.084   0.407   1.047  2.4610  2.9386 -0.8310
  744SOL    HW2 2232   2.096   0.312   0.913  0.3718 -1.5111 -0.5282
  745SOL     OW 2233   2.257   1.452   1.925 -0.3298 -0.3519 -0.1449
  745SOL    HW1 2234   2.277   1.374   1.859  0.8362  0.1608  1.2435
  745SOL    HW2 2235   2.194   1.412   1.996 -3.0158 -0.9270 -2.8738
  746SOL     OW 2236   1.486   1.644   0.471 -0.0047 -0.3590 -0.1346
  746SOL    HW1 2237   1.564   1.713   0.488  1.1031 -0.3619  0.2797
  746SOL    HW2 2238   1.498   1.564   0.535  1.3310 -0.9609  1.3613
  747SOL     OW 2239   2.070   1.509   1.235  0.0633 -0.2719 -0.0293
  747SOL    HW1 2240   1.990   1.490   1.170 -0.8626 -1.4708 -2.1507
  747SOL    HW2 2241   2.042   1.593   1.286  1.3759 -1.5130  2.6856
  748SOL     OW 2242   0.151   2.712   0.402 -0.3489 -0.3044 -0.1106
  748SOL    HW1 2243   0.183   2.762   0.484  1.0101  0.1914 -1.7541
  748SOL    HW2 2244   0.222   2.705   0.326 -2.3459  3.3499 -1.7633
  749SOL     OW 2245   0.202   0.780   2.353  0.1469 -0.0112 -0.4032
  749SOL    HW1 2246   0.282   0.836   2.324 -1.2862 -2.0636 -0.2762
  749SOL    HW2 2247   0.119   0.838   2.343 -3.2641 -1.1927  1.5862
  750SOL     OW 2248   1.363   2.902   1.942 -0.2717  0.5082 -0.1525
  750SOL    HW1 2249   1.336   3.000   1.936 -0.9035  1.6703 -1.9195
  750SOL    HW2 2250   1.390   2.889   2.041  0.8532  1.8052  1.2713
  751SOL     OW 2251   2.708   0.510   0.347 -0.0922  0.1076  0.2754
  751SOL    HW1 2252   2.614   0.516   0.311  1.7264  1.4889 -0.6971
  751SOL    HW2 2253   2.716   0.433   0.415  0.1103  1.0122 -1.2223
  752SOL     OW 2254   0.116   2.100   0.901  0.1803 -0.4003 -0.0720
  752SOL    HW1 2255   0.072   2.017   0.941  1.1246  1.1756 -0.2956
  752SOL    HW2 2256   0.047   2.140   0.841 -0.3055 -2.0285 -0.9882
  753SOL     OW 2257   1.060   0.352   0.849  0.4487  0.0559  0.3768
  753SOL    HW1 2258   1.071   0.247   0.859 -0.9655  0.2026 -2.4858
  753SOL    HW2 2259   0.967   0.381   0.823  1.0628  0.1552  1.7011
  754SOL     OW 2260   0.753   3.079   2.353  0.5190 -0.0857  0.0007
  754SOL    HW1 2261   0.682   3.084   2.278 -0.6252  0.0290  0.2054
  754SOL    HW2 2262   0.830   3.016   2.332  1.0923  1.4208 -2.2092
  755SOL     OW 2263   2.185   0.907   0.191 -0.1988 -0.0403  0.6534
  755SOL    HW1 2264   2.145   0.816   0.202  1.4092 -0.5115 -0.0959
  755SOL    HW2 2265   2.263   0.897   0.127 -0.7091  2.6380  0.7029
  756SOL     OW 2266   2.295   2.114   2.520 -0.3549 -0.5882  0.5733
  756SOL    HW1 2267   2.300   2.011   2.538 -1.8574 -1.1015  1.0732
  756SOL    HW2 2268   2.298   2.162   2.611 -1.8666  0.7455  2.7091
  757SOL     OW 2269   1.720   0.232   0.790  0.2982  0.4949 -0.0302
  757SOL    HW1 2270   1.696   0.238   0.887 -0.7616  0.0843 -1.6314
  757SOL    HW2 2271   1.770   0.148   0.768  1.0713  0.0338 -0.2725
  758SOL     OW 2272   1.558   2.988   1.107 -0.2837 -1.3050  0.5672
  758SOL    HW1 2273   1.503   3.039   1.033 -0.3778  4.0059 -3.2463
  758SOL    HW2 2274   1.540   3.021   1.202  0.6035  1.7370  0.7936
  759SOL     OW 2275   2.832   0.665   1.260  0.1317  0.6551  0.1352
  759SOL    HW1 2276   2.885   0.609   1.321 -1.8879  0.2465  0.3908
  759SOL    HW2 2277   2.863   0.668   1.165 -0.6781  1.8194  2.1684
  760SOL     OW 2278   2.322   1.130   1.165 -0.0640 -0.0645  0.2911
  760SOL    HW1 2279   2.404   1.185   1.191 -1.1105  0.7028  0.1589
  760SOL    HW2 2280   2.340   1.033   1.175  1.3373  2.7189  0.3933
  761SOL     OW 2281   0.372   0.447   0.413  1.2396 -0.2154  0.0642
  761SOL    HW1 2282   0.429   0.407   0.340  1.7056 -0.4556  0.1965
  761SOL    HW2 2283   0.414   0.533   0.452  0.3967  0.7771 -0.7093
  762SOL     OW 2284   1.819   2.080   1.305 -0.4067 -0.2702  0.2283
  762SOL    HW1 2285   1.808   1.981   1.284 -1.4258  1.6285 -1.5227
  762SOL    HW2 2286   1.735   2.116   1.343  1.2049 -0.0889 -0.7703
  763SOL     OW 2287   1.225   1.479   2.061 -0.1263  0.6597  0.6015
  763SOL    HW1 2288   1.233   1.528   1.973 -0.6852 -0.3232  0.7164
  763SOL    HW2 2289   1.148   1.414   2.057  1.7922  1.5182  2.7466
  764SOL     OW 2290   3.013   1.916   2.631 -0.0296 -0.0793  0.1351
  764SOL    HW1 2291   2.993   2.011   2.604 -0.0522 -0.9376  0.8744
  764SOL    HW2 2292   3.078   1.919   2.712 -1.0171  1.3161  1.7330
  765SOL     OW 2293   1.761   2.538   1.130 -0.2969 -0.4266 -0.4610
  765SOL    HW1 2294   1.813   2.498   1.208  1.1405  0.1394 -0.2607
  765SOL    HW2 2295   1.777   2.637   1.119  0.0740  1.5378 -0.8315
  766SOL     OW 2296   3.069   2.647   2.755  0.2805 -0.2565 -0.1358
  766SOL    HW1 2297   3.040   2.730   2.708  2.4389 -0.7829 -0.3084
  766SOL    HW2 2298   3.004   2.571   2.732 -3.5984  1.0579  1.9086
  767SOL     OW 2299   1.359   0.767   2.307  0.1710  0.7289  0.1480
  767SOL    HW1 2300   1.435   0.793   2.370  1.1369 -2.6724 -1.3741
  767SOL    HW2 2301   1.326   0.677   2.344 -2.6536 -0.9600  0.4125
  768SOL     OW 2302   1.173   2.099   0.023 -0.7023  0.3373 -0.5985
  768SOL    HW1 2303   1.182   2.091   3.048  0.8702  1.5610  0.1022
  768SOL    HW2 2304   1.190   2.017   0.078  1.2001 -0.9395 -0.1621
  769SOL     OW 2305   0.559   2.310   1.159 -0.0041  0.0419  0.1711
  769SOL    HW1 2306   0.593   2.232   1.218 -0.1727 -2.9982  2.3111
  769SOL    HW2 2307   0.497   2.378   1.209 -1.0970  0.1047 -0.7491
  770SOL     OW 2308   1.695   0.654   0.011 -0.1489 -0.2686  0.3430
  770SOL    HW1 2309   1.719   0.569   3.089 -0.8046  1.0047  0.3251
  770SOL    HW2 2310   1.649   0.716   3.071 -2.2948 -3.4464 -2.6124
  771SOL     OW 2311   0.349   3.098   2.330 -0.2787 -0.4002  0.0802
  771SOL    HW1 2312   0.353   3.066   2.426 -2.4604  0.5424 -2.7176
  771SOL    HW2 2313   0.306   3.025   2.275  0.2087 -0.4791  2.7528
  772SOL     OW 2314   2.037   2.816   2.236 -0.0597 -0.1677 -0.0965
  772SOL    HW1 2315   2.107   2.742   2.207  1.2628 -2.6028 -0.6079
  772SOL    HW2 2316   2.090   2.903   2.246  0.0424  2.4456  0.9592
  773SOL     OW 2317   1.093   2.003   1.488  0.6470 -0.1518  0.2739
  773SOL    HW1 2318   1.040   2.025   1.408  0.5591  1.2439  3.5441
  773SOL    HW2 2319   1.124   2.091   1.534 -0.0974 -0.2181  0.0399
  774SOL     OW 2320   1.034   0.141   2.075  0.4405 -0.2232  0.1889
  774SOL    HW1 2321   1.041   0.145   2.180 -0.8623  0.8850 -0.8586
  774SOL    HW2 2322   0.967   0.212   2.038 -3.8692  1.5967 -1.6728
  775SOL     OW 2323   2.079   2.952   2.978 -0.1550 -0.2005  0.1780
  775SOL    HW1 2324   2.108   2.871   2.921 -0.8359  2.5832 -1.8026
  775SOL    HW2 2325   1.979   2.976   2.964  0.0636  0.4599  0.1103
  776SOL     OW 2326   2.697   0.846   2.249 -0.2476 -0.3752 -0.6313
  776SOL    HW1 2327   2.763   0.776   2.280 -0.4362 -0.3849  1.0028
  776SOL    HW2 2328   2.751   0.910   2.190  1.0753  0.3017  3.7478
  777SOL     OW 2329   2.546   2.413   2.082 -0.1264 -0.5700 -0.3771
  777SOL    HW1 2330   2.509   2.353   2.154  0.7745  0.7905 -1.7170
  777SOL    HW2 2331   2.587   2.497   2.117 -0.5358 -1.6372 -2.3119
  778SOL     OW 2332   1.924   0.739   2.595  0.3799 -0.2618 -0.0920
  778SOL    HW1 2333   2.019   0.778   2.591  2.4726  0.3415 -2.1448
  778SOL    HW2 2334   1.916   0.667   2.519 -1.7917 -2.8072 -0.7945
  779SOL     OW 2335   3.063   0.338   0.484 -0.2689  0.1229  0.0379
  779SOL    HW1 2336   2.997   0.317   0.560 -1.5288 -1.2241 -1.4270
  779SOL    HW2 2337   3.022   0.305   0.399  0.5815  0.1639  3.0383
  780SOL     OW 2338   2.461   0.438   0.002  0.0455 -0.1059 -0.3688
  780SOL    HW1 2339   2.432   0.353   0.041 -2.0049  2.8585  1.1431
  780SOL    HW2 2340   2.456   0.514   0.079 -0.7150  2.7212 -2.0199
  781SOL     OW 2341   0.294   2.712   1.548  0.3248  0.2367  0.6543
  781SOL    HW1 2342   0.278   2.710   1.443  0.9955 -2.1693 -4.4568
  781SOL    HW2 2343   0.204   2.694   1.599 -3.2537  3.5920  0.3941
  782SOL     OW 2344   2.153   2.621   0.424 -0.0512 -0.1628  0.1365
  782SOL    HW1 2345   2.200   2.661   0.343 -1.1220  0.6134 -1.2493
  782SOL    HW2 2346   2.067   2.671   0.444  2.9344 -1.9739  1.3287
  783SOL     OW 2347   0.794   1.188   1.398  0.2878  0.8653  0.9226
  783SOL    HW1 2348   0.778   1.284   1.364  1.8986  0.4187  0.8019
  783SOL    HW2 2349   0.836   1.133   1.323  0.9362  0.2179 -1.8089
  784SOL     OW 2350   1.411   0.563   2.651 -0.4443  0.1687  0.1837
  784SOL    HW1 2351   1.338   0.534   2.589  2.6131  0.4550  3.2416
  784SOL    HW2 2352   1.421   0.664   2.657 -1.4606 -0.9760 -0.2252
  785SOL     OW 2353   2.411   0.420   1.084  0.3281  0.0712  0.0283
  785SOL    HW1 2354   2.394   0.322   1.087  1.1426  0.2406 -0.8961
  785SOL    HW2 2355   2.329   0.473   1.105  1.5352 -0.2361 -1.5617
  786SOL     OW 2356   1.104   2.487   1.903  0.2740  0.5052  0.0186
  786SOL    HW1 2357   1.201   2.516   1.884  2.4955  0.8768 -0.7990
  786SOL    HW2 2358   1.105   2.384   1.904  0.6370 -1.5806  1.5046
  787SOL     OW 2359   1.827   0.320   1.355 -0.0986 -0.3809 -0.0210
  787SOL    HW1 2360   1.774   0.408   1.326 -1.3313  1.8196 -2.8044
  787SOL    HW2 2361   1.851   0.313   1.453  2.1026 -1.2070  2.8203
  788SOL     OW 2362   0.367   0.936   0.506  0.4834 -0.4750  0.1037
  788SOL    HW1 2363   0.389   1.005   0.576  0.6007  0.5105 -0.8439
  788SOL    HW2 2364   0.385   0.967   0.411 -1.3086 -1.4925  2.0224
  789SOL     OW 2365   0.518   1.905   1.426  0.1695  0.2040  0.1230
  789SOL    HW1 2366   0.483   1.812   1.397  0.8175  0.1192  2.3908
  789SOL    HW2 2367   0.554   1.900   1.519  0.9012 -2.6820 -1.9409
  790SOL     OW 2368   0.666   0.781   2.403  0.4583  0.1650  0.0732
  790SOL    HW1 2369   0.653   0.857   2.470  0.2325  0.2642 -1.8234
  790SOL    HW2 2370   0.642   0.811   2.311  0.5726  1.3610 -1.4390
  791SOL     OW 2371   1.845   0.455   0.805 -0.3635  0.0926  0.0095
  791SOL    HW1 2372   1.784   0.377   0.781  1.6667  0.0021 -1.0124
  791SOL    HW2 2373   1.923   0.423   0.858 -0.3619 -0.2799 -2.2870
  792SOL     OW 2374   0.935   2.684   1.798 -0.2856  0.6626 -0.2829
  792SOL    HW1 2375   0.959   2.774   1.836 -1.5567 -0.9588 -0.8613
  792SOL    HW2 2376   1.001   2.612   1.831  3.4278 -0.9203 -1.6334
  793SOL     OW 2377   0.625   3.097   0.480  0.5319  0.4625  0.1585
  793SOL    HW1 2378   0.717   3.099   0.436 -0.2353 -2.5105 -0.2126
  793SOL    HW2 2379   0.613   0.032   0.566 -1.3655 -0.4593  1.7339
  794SOL     OW 2380   0.362   1.529   1.859 -0.0865  0.0391 -0.2189
  794SOL    HW1 2381   0.345   1.456   1.925  1.6705 -0.6356 -0.0730
  794SOL    HW2 2382   0.281   1.566   1.810  1.0352 -0.1772  0.5215
  795SOL     OW 2383   0.231   2.211   2.283 -0.3315 -0.1888 -0.0087
  795SOL    HW1 2384   0.254   2.271   2.362 -1.2506  1.1979 -0.0240
  795SOL    HW2 2385   0.198   2.123   2.320  2.1069  0.1991 -0.9694
  796SOL     OW 2386   2.316   0.562   2.154  0.3019 -0.7123 -0.3216
  796SOL    HW1 2387   2.397   0.508   2.117 -0.4193  0.2541  2.7984
  796SOL    HW2 2388   2.309   0.547   2.256 -1.3262  2.0562  1.8588
  797SOL     OW 2389   2.506   2.535   2.766  0.1321  0.3731 -0.3890
  797SOL    HW1 2390   2.527   2.621   2.715  0.1525 -1.8081  0.6939
  797SOL    HW2 2391   2.580   2.468   2.781 -3.0319 -1.5010 -0.7042
  798SOL     OW 2392   2.976   3.087   2.217  0.9224  0.0611  0.0058
  798SOL    HW1 2393   3.003   0.009   2.302  0.0855  0.4192 -2.5059
  798SOL    HW2 2394   2.924   0.023   2.156 -0.0340 -0.5688  0.9800
  799SOL     OW 2395   0.136   2.675   2.307  0.3323  0.3906  0.2401
  799SOL    HW1 2396   0.163   2.602   2.375 -1.9983 -0.6345  1.3566
  799SOL    HW2 2397   0.106   2.629   2.221 -1.5502 -0.5629  1.6317
  800SOL     OW 2398   0.015   2.039   3.119 -0.5566 -0.3181  0.0203
  800SOL    HW1 2399   3.069   2.112   0.022 -0.5466  1.3159  0.0977
  800SOL    HW2 2400   0.054   2.001   0.080  0.8125 -1.8467  1.1465
  801SOL     OW 2401   1.622   1.352   1.455  0.3621 -0.1823 -0.6830
  801SOL    HW1 2402   1.646   1.259   1.434 -1.5525 -0.1252  2.1592
  801SOL    HW2 2403   1.521   1.362   1.447 -1.6295 -1.4028 -0.8079
  802SOL     OW 2404   0.114   1.433   0.660  0.2984 -0.2829  0.0549
  802SOL    HW1 2405   0.084   1.485   0.742  0.9252  0.3166 -2.7380
  802SOL    HW2 2406   0.176   1.356   0.691 -0.6348  1.4476  0.9573
  803SOL     OW 2407   1.341   1.661   2.264 -0.1072 -0.1197  0.2725
  803SOL    HW1 2408   1.294   1.605   2.189 -0.8086 -0.7498 -0.2952
  803SOL    HW2 2409   1.273   1.720   2.314  3.4591 -2.5742 -1.0174
  804SOL     OW 2410   1.745   1.559   0.846  0.1957  0.1492 -0.5510
  804SOL    HW1 2411   1.670   1.617   0.829  3.3126 -2.8781 -0.2018
  804SOL    HW2 2412   1.780   1.521   0.762 -0.1585 -0.4744  0.3992
  805SOL     OW 2413   2.775   1.224   2.993 -0.1192  0.4827 -0.4351
  805SOL    HW1 2414   2.741   1.128   2.993  0.6348  0.2267 -0.6530
  805SOL    HW2 2415   2.857   1.233   3.053 -1.6274  0.8087  1.3958
  806SOL     OW 2416   0.515   2.485   0.314  0.0269  0.2552  0.1742
  806SOL    HW1 2417   0.558   2.462   0.223  1.4089 -1.6532  0.2070
  806SOL    HW2 2418   0.449   2.566   0.299 -0.9504  1.0519  2.6965
  807SOL     OW 2419   2.152   1.593   2.704 -0.1215  0.2778  0.2765
  807SOL    HW1 2420   2.161   1.661   2.778 -1.7545  1.0154  0.7257
  807SOL    HW2 2421   2.054   1.571   2.687  2.2430  1.6745  1.0949
  808SOL     OW 2422   1.097   1.548   1.129  0.0845 -0.1198  0.0792
  808SOL    HW1 2423   1.075   1.454   1.159  0.1587  0.1338 -0.3533
  808SOL    HW2 2424   1.020   1.610   1.134  0.7588 -1.4087  2.5917
  809SOL     OW 2425   2.786   0.686   0.565 -0.1859  0.2031  0.0465
  809SOL    HW1 2426   2.731   0.665   0.652 -4.7912  1.6457  1.6533
  809SOL    HW2 2427   2.781   0.612   0.495  0.2849 -2.2702  2.8087
  810SOL     OW 2428   0.714   1.613   0.650  0.6666 -0.2300 -0.2480
  810SOL    HW1 2429   0.657   1.693   0.674  1.1375 -3.3500 -1.0841
  810SOL    HW2 2430   0.774   1.628   0.569 -1.8383  0.9070  0.6691
  811SOL     OW 2431   1.793   2.700   1.412 -0.3578 -0.3179 -0.2319
  811SOL    HW1 2432   1.805   2.734   1.317 -0.6134  0.2017  1.0383
  811SOL    HW2 2433   1.854   2.618   1.430 -0.5376 -1.5853  0.5980
  812SOL     OW 2434   1.352   2.794   1.336  0.3374 -0.1128  0.3945
  812SOL    HW1 2435   1.410   2.877   1.357  1.5434 -1.4744  0.7878
  812SOL    HW2 2436   1.253   2.827   1.341 -2.8221  2.1361  2.1101
  813SOL     OW 2437   0.924   3.097   1.544 -0.4318 -0.0228  0.2852
  813SOL    HW1 2438   0.898   3.000   1.545  1.8193 -0.7484 -1.6052
  813SOL    HW2 2439   0.910   0.012   1.447  0.2671  3.4038 -1.9854
  814SOL     OW 2440   0.894   2.840   2.355 -0.5372  0.0669  0.1989
  814SOL    HW1 2441   0.936   2.878   2.273 -0.1901 -0.2186  0.5909
  814SOL    HW2 2442   0.853   2.748   2.330  1.1520 -0.3842  0.7082
  815SOL     OW 2443   0.871   0.125   2.595  0.4456 -0.4272  0.6278
  815SOL    HW1 2444   0.790   0.068   2.598  1.2712  2.2898  1.6480
  815SOL    HW2 2445   0.841   0.221   2.577  1.8545 -0.3005  1.4748
  816SOL     OW 2446   2.438   0.513   2.878 -0.0303 -0.5453  0.2020
  816SOL    HW1 2447   2.456   0.477   2.973 -1.6849  3.5802 -2.3358
  816SOL    HW2 2448   2.346   0.560   2.874  1.0523 -0.0890 -1.4786
  817SOL     OW 2449   2.290   2.988   1.836 -0.2931  0.3551  0.2978
  817SOL    HW1 2450   2.389   2.976   1.814 -2.7718 -0.3285  1.4374
  817SOL    HW2 2451   2.257   2.907   1.888 -3.6919  4.0399 -2.2876
  818SOL     OW 2452   1.119   0.721   0.224 -0.1699  0.0009  0.3298
  818SOL    HW1 2453   1.052   0.797   0.208 -2.5018 -0.4493  2.3931
  818SOL    HW2 2454   1.110   0.678   0.314  1.0975  0.3586  1.9193
  819SOL     OW 2455   1.872   1.660   2.639  0.4027 -0.3018  0.8831
  819SOL    HW1 2456   1.766   1.658   2.626  0.2810  0.9336  0.9974
  819SOL    HW2 2457   1.916   1.682   2.552  1.4682  0.1330 -1.7023
  820SOL     OW 2458   3.014   1.546   2.794  0.1140  0.3102  0.7646
  820SOL    HW1 2459   3.006   1.605   2.709  0.4376  2.0873 -1.5915
  820SOL    HW2 2460   3.115   1.530   2.807  0.3496 -1.4023 -0.8271
  821SOL     OW 2461   0.147   2.642   0.790 -0.2472 -0.5945  0.4929
  821SOL    HW1 2462   0.180   2.715   0.724 -0.1285  0.5633  0.4471
  821SOL    HW2 2463   0.107   2.681   0.870  3.0117  0.1255 -3.5619
  822SOL     OW 2464   2.241   2.508   2.700  0.2941 -0.8923 -0.1241
  822SOL    HW1 2465   2.193   2.562   2.620 -1.8259  0.5473 -2.1863
  822SOL    HW2 2466   2.336   2.532   2.725 -4.0683 -0.3315 -0.6180
  823SOL     OW 2467   1.510   3.025   2.268 -0.2440 -0.2554  0.3452
  823SOL    HW1 2468   1.481   3.122   2.257 -0.7812 -3.0823 -0.5486
  823SOL    HW2 2469   1.425   2.970   2.259 -0.6408  1.1151  2.0636
  824SOL     OW 2470   2.902   2.396   2.144  0.0104  0.5069 -0.1747
  824SOL    HW1 2471   2.911   2.485   2.100  0.8883 -0.6423  2.2855
  824SOL    HW2 2472   2.878   2.415   2.241  3.0280  1.3248 -1.4227
  825SOL     OW 2473   2.959   2.152   2.510  0.1706  0.0925  0.0338
  825SOL    HW1 2474   2.864   2.124   2.517 -1.5067  3.2393  0.1320
  825SOL    HW2 2475   2.991   2.155   2.415  1.6592  3.3041  1.3725
  826SOL     OW 2476   2.185   0.495   2.564  0.5418  0.0715  0.1156
  826SOL    HW1 2477   2.193   0.546   2.652 -0.3415 -0.3745  2.1847
  826SOL    HW2 2478   2.262   0.522   2.501  2.3953 -2.3973 -1.7873
  827SOL     OW 2479   2.806   2.074   1.575 -0.2984  0.3552  0.8228
  827SOL    HW1 2480   2.725   2.135   1.581 -1.8889  1.4174 -0.6801
  827SOL    HW2 2481   2.780   1.995   1.512 -3.7895 -3.1652 -1.0382
  828SOL     OW 2482   2.940   0.186   1.762 -0.4065  0.7531  0.1823
  828SOL    HW1 2483   3.000   0.106   1.746  1.3141  3.4738 -2.1448
  828SOL    HW2 2484   2.992   0.269   1.740  0.2085 -1.1340 -0.0299
  829SOL     OW 2485   0.923   1.973   2.725 -0.2344  0.3262  0.5119
  829SOL    HW1 2486   0.938   1.883   2.680  0.2311  1.5217  2.5363
  829SOL    HW2 2487   0.845   1.963   2.786  2.6016  1.3700  0.0492
  830SOL     OW 2488   0.948   1.054   0.869 -0.3403 -0.2242  0.4264
  830SOL    HW1 2489   0.956   1.059   0.972  0.2021  1.8275 -0.6936
  830SOL    HW2 2490   0.862   1.103   0.834 -1.5597 -2.3764 -2.6541
  831SOL     OW 2491   2.891   1.658   3.017  0.1682 -0.1732  0.5507
  831SOL    HW1 2492   2.977   1.658   3.076  1.1232 -0.4755 -1.5457
  831SOL    HW2 2493   2.901   1.596   2.938 -1.0421 -0.6797 -0.9288
  832SOL     OW 2494   1.766   2.423   2.314  0.3171  0.5832 -0.3289
  832SOL    HW1 2495   1.792   2.406   2.219  0.7899 -0.0443  1.3707
  832SOL    HW2 2496   1.713   2.509   2.325 -0.1899 -2.2590 -1.2749
  833SOL     OW 2497   0.829   0.320   2.009 -0.0158  0.7762  0.2279
  833SOL    HW1 2498   0.896   0.397   2.021  1.2911  3.2748 -0.4156
  833SOL    HW2 2499   0.758   0.318   2.087 -1.9189 -1.8504 -0.4936
  834SOL     OW 2500   0.166   0.350   1.438  0.2442  0.0194 -0.5333
  834SOL    HW1 2501   0.071   0.396   1.420 -2.5848  0.2328 -0.2678
  834SOL    HW2 2502   0.205   0.408   1.515  0.7557  2.0110  1.8294
  835SOL     OW 2503   2.862   0.706   0.226 -0.1309 -0.4966 -0.3449
  835SOL    HW1 2504   2.811   0.648   0.289 -1.6401 -0.6606 -0.6585
  835SOL    HW2 2505   2.933   0.645   0.184 -3.0557  0.1091  0.8560
  836SOL     OW 2506   1.691   1.964   0.148  0.6691 -0.1706  0.0525
  836SOL    HW1 2507   1.660   2.055   0.108  1.6183 -0.7941  2.6534
  836SOL    HW2 2508   1.679   1.976   0.245 -1.2485  1.3992 -3.7882
  837SOL     OW 2509   1.948   1.797   0.622 -0.1384 -0.4420 -0.2936
  837SOL    HW1 2510   2.036   1.749   0.649  1.6326  0.0120  0.9509
  837SOL    HW2 2511   1.964   1.870   0.553  0.7199 -1.1160  2.0766
  838SOL     OW 2512   1.595   0.822   2.429  0.4644  0.2514 -0.2718
  838SOL    HW1 2513   1.651   0.863   2.356  0.8854 -1.7615 -0.1019
  838SOL    HW2 2514   1.633   0.732   2.462  0.0004 -3.1170 -3.4154
  839SOL     OW 2515   0.774   1.351   2.240 -0.2207  0.0348 -0.1190
  839SOL    HW1 2516   0.678   1.367   2.273 -2.3464  0.0038 -0.3322
  839SOL    HW2 2517   0.804   1.259   2.270 -0.5355 -2.4392 -0.7696
  840SOL     OW 2518   1.237   1.735   0.390 -0.5687  0.0789  0.4816
  840SOL    HW1 2519   1.202   1.790   0.465 -0.1066  0.8260 -2.1870
  840SOL    HW2 2520   1.335   1.717   0.398  1.1130 -0.2530  0.3700
  841SOL     OW 2521   1.474   2.282   0.689 -0.6143  0.5701  0.4218
  841SOL    HW1 2522   1.577   2.289   0.676 -1.4516 -0.2685  0.6718
  841SOL    HW2 2523   1.448   2.319   0.780 -1.8898  2.5165 -0.1378
  842SOL     OW 2524   0.537   0.438   0.189 -0.5253 -0.2279 -0.0452
  842SOL    HW1 2525   0.634   0.425   0.220 -0.9367 -0.9648 -1.8283
  842SOL    HW2 2526   0.520   0.389   0.101 -0.5281 -1.2694  0.1930
  843SOL     OW 2527   0.745   0.279   0.581  0.5029 -0.6311  0.5706
  843SOL    HW1 2528   0.645   0.295   0.581 -0.0612 -0.0461  0.7743
  843SOL    HW2 2529   0.786   0.367   0.615 -2.0180 -0.1315  2.8344
  844SOL     OW 2530   2.811   0.165   2.944  0.5428  0.0135  0.0152
  844SOL    HW1 2531   2.717   0.127   2.925 -1.0804  0.1932  1.2324
  844SOL    HW2 2532   2.882   0.093   2.934 -1.9897 -1.1819  2.5240
  845SOL     OW 2533   3.090   2.404   1.714  0.4534  0.5442  0.4839
  845SOL    HW1 2534   3.063   2.351   1.797  1.1567  0.2035  0.1734
  845SOL    HW2 2535   3.055   2.360   1.628  1.0721  1.1368 -1.4497
  846SOL     OW 2536   2.581   1.650   2.278  0.2074  0.1142  0.3580
  846SOL    HW1 2537   2.649   1.600   2.334  1.6035 -0.0470 -0.1175
  846SOL    HW2 2538   2.624   1.673   2.190  0.2297 -1.6675  1.8871
  847SOL     OW 2539   1.142   0.723   1.933  0.3681  0.2558  0.4633
  847SOL    HW1 2540   1.105   0.637   1.950  2.6163  0.6907 -1.4160
  847SOL    HW2 2541   1.125   0.754   1.839  0.5145  1.3224 -0.5805
  848SOL     OW 2542   2.688   2.935   2.747 -0.4229 -0.0553 -0.0580
  848SOL    HW1 2543   2.764   2.895   2.801  0.5968  0.1806  3.2241
  848SOL    HW2 2544   2.652   3.010   2.804 -1.1081 -1.0157  1.8169
  849SOL     OW 2545   0.245   2.810   3.104  0.3299 -0.1140 -0.1125
  849SOL    HW1 2546   0.219   2.910   3.107 -1.5496 -0.0954 -0.2413
  849SOL    HW2 2547   0.183   2.752   3.050  2.2318 -1.1782  0.8007
  850SOL     OW 2548   1.224   2.718   0.981 -0.3530 -0.2640  0.1952
  850SOL    HW1 2549   1.311   2.684   1.017  3.6220 -1.3379 -2.8075
  850SOL    HW2 2550   1.198   2.659   0.900  0.5926  0.6396 -1.7668
  851SOL     OW 2551   2.618   0.460   2.285  0.3847  0.1959  0.5912
  851SOL    HW1 2552   2.574   0.402   2.210 -0.2736 -1.6810 -1.4983
  851SOL    HW2 2553   2.698   0.505   2.245 -2.7285 -2.9244 -0.2260
  852SOL     OW 2554   1.206   0.189   2.518 -0.0948 -0.2173 -0.1827
  852SOL    HW1 2555   1.288   0.176   2.459 -0.7388 -2.0167 -1.8747
  852SOL    HW2 2556   1.230   0.155   2.614  0.4248 -2.3341  1.9704
  853SOL     OW 2557   3.071   2.611   0.244 -0.0838 -0.1028 -0.7598
  853SOL    HW1 2558   2.997   2.660   0.288 -2.6750  1.2625 -2.4533
  853SOL    HW2 2559   0.035   2.649   0.275  2.6549 -0.7873 -2.8267
  854SOL     OW 2560   2.393   0.579   2.429  0.0540  0.6140  0.0852
  854SOL    HW1 2561   2.467   0.513   2.399 -2.3740  0.2360  1.0729
  854SOL    HW2 2562   2.434   0.667   2.461 -1.6525  1.3053  2.2174
  855SOL     OW 2563   0.671   2.497   0.098  1.0156 -0.0284 -0.0636
  855SOL    HW1 2564   0.752   2.436   0.093 -1.4038  1.0151 -1.2686
  855SOL    HW2 2565   0.701   2.591   0.116 -0.2925 -0.6215  1.4935
  856SOL     OW 2566   0.014   0.008   2.687 -0.3347 -0.3545  0.2462
  856SOL    HW1 2567   0.114   0.010   2.693 -1.4182  0.9981  2.1062
  856SOL    HW2 2568   3.108   3.120   2.787 -1.5773 -1.3437  1.6127
  857SOL     OW 2569   1.092   2.863   1.357  0.4169  0.3698 -0.5162
  857SOL    HW1 2570   1.019   2.834   1.421  0.2558  2.3927 -0.5004
  857SOL    HW2 2571   1.056   2.858   1.262 -0.2831 -0.8312  3.6824
  858SOL     OW 2572   2.579   2.217   1.641  0.8979  0.5318  0.3842
  858SOL    HW1 2573   2.625   2.229   1.730 -1.3599  0.5059 -0.8535
  858SOL    HW2 2574   2.477   2.186   1.652 -1.3652 -2.7812  1.5388
  859SOL     OW 2575   1.829   2.220   1.812 -0.2809  0.4496 -0.7161
  859SOL    HW1 2576   1.870   2.128   1.803  0.8898  1.7431 -1.0476
  859SOL    HW2 2577   1.775   2.227   1.897 -0.6684  2.3356 -0.8182
  860SOL     OW 2578   2.004   3.087   0.260 -0.1907  0.1207 -0.2649
  860SOL    HW1 2579   1.991   0.062   0.231  0.5676  1.2443  2.6175
  860SOL    HW2 2580   1.931   3.033   0.210 -0.6205  2.0247 -0.3604
  861SOL     OW 2581   2.708   0.339   0.562  0.1003  0.5265 -0.1352
  861SOL    HW1 2582   2.793   0.344   0.619 -1.5951 -0.9513  2.3725
  861SOL    HW2 2583   2.633   0.309   0.622  1.1795 -1.1224 -0.2416
  862SOL     OW 2584   0.906   2.681   2.867  0.4074 -0.3590  0.1300
  862SOL    HW1 2585   0.861   2.770   2.847  1.0247  0.2532  0.3302
  862SOL    HW2 2586   0.937   2.643   2.778  0.6461  1.4820  0.6260
  863SOL     OW 2587   0.527   0.601   1.225 -0.0545 -0.2733  0.1332
  863SOL    HW1 2588   0.577   0.606   1.138  2.7210  0.8695  4.2307
  863SOL    HW2 2589   0.458   0.525   1.234 -0.7848 -3.4624  3.1956
  864SOL     OW 2590   0.027   0.008   1.721 -0.5565 -0.0542  0.9166
  864SOL    HW1 2591   0.107   0.063   1.753  0.2725  1.4865  0.8254
  864SOL    HW2 2592   0.030   3.039   1.757 -0.2991  3.0364  2.2447
  865SOL     OW 2593   0.500   1.373   2.928  0.0544 -0.9288  0.0818
  865SOL    HW1 2594   0.577   1.304   2.919  2.6544 -1.6735 -1.7639
  865SOL    HW2 2595   0.440   1.360   3.005 -0.6149  0.8005 -2.8154
  866SOL     OW 2596   3.039   0.301   0.166 -0.2597 -0.3963  0.6695
  866SOL    HW1 2597   2.941   0.276   0.152  0.9806  0.3777 -0.3140
  866SOL    HW2 2598   3.056   0.399   0.148 -1.5462  0.0360  2.7329
  867SOL     OW 2599   2.830   2.894   3.003 -0.1007 -0.0842 -0.7274
  867SOL    HW1 2600   2.898   2.839   3.054 -0.1414  0.2208 -2.5556
  867SOL    HW2 2601   2.744   2.895   3.053 -2.5413 -1.7269 -3.0417
  868SOL     OW 2602   1.389   0.742   0.161  0.0098  0.1703  0.0784
  868SOL    HW1 2603   1.291   0.727   0.177  0.1103  0.0263  0.7452
  868SOL    HW2 2604   1.434   0.749   0.253  0.0712  1.9630  0.4313
  869SOL     OW 2605   2.615   1.299   0.577  0.1011  0.2390 -0.0966
  869SOL    HW1 2606   2.539   1.315   0.509 -2.9307 -0.5641 -0.8187
  869SOL    HW2 2607   2.651   1.387   0.610 -1.0161 -0.8513 -0.7695
  870SOL     OW 2608   2.433   1.469   0.378 -0.0828  0.1251  0.4398
  870SOL    HW1 2609   2.507   1.457   0.307 -1.4019  1.2326 -2.3919
  870SOL    HW2 2610   2.385   1.558   0.368  1.8562 -1.1150 -1.5940
  871SOL     OW 2611   1.531   1.380   0.589  0.0331 -0.1756 -0.1740
  871SOL    HW1 2612   1.448   1.344   0.543  1.7006 -3.1279 -0.2028
  871SOL    HW2 2613   1.520   1.399   0.691 -1.0040 -2.4774  1.4442
  872SOL     OW 2614   1.491   1.800   1.592 -0.1554  0.3555  0.0855
  872SOL    HW1 2615   1.480   1.703   1.626  0.3228 -0.3927 -0.3230
  872SOL    HW2 2616   1.434   1.819   1.511  0.5610  1.3441 -0.3947
  873SOL     OW 2617   0.825   1.766   2.321 -0.4302  0.1221  0.2531
  873SOL    HW1 2618   0.891   1.750   2.240  1.3749 -0.8094 -0.4602
  873SOL    HW2 2619   0.824   1.685   2.383  1.1233  0.7975 -0.6144
  874SOL     OW 2620   0.914   1.749   1.222 -0.0279 -0.2379 -0.2847
  874SOL    HW1 2621   0.927   1.840   1.181  2.8853 -0.0410  2.6904
  874SOL    HW2 2622   0.833   1.699   1.183 -1.3154 -0.6210  0.7028
  875SOL     OW 2623   2.173   0.507   1.185  0.6961 -0.4285  0.3284
  875SOL    HW1 2624   2.154   0.424   1.242  0.9264  1.2255  1.3686
  875SOL    HW2 2625   2.163   0.597   1.232 -0.3033 -1.0909  0.5183
  876SOL     OW 2626   0.809   0.464   0.292  0.1141 -0.1796 -0.2745
  876SOL    HW1 2627   0.847   0.467   0.388 -1.4521 -0.6446  0.8112
  876SOL    HW2 2628   0.862   0.398   0.239 -0.9733  0.2426 -1.2706
  877SOL     OW 2629   3.047   0.466   1.385 -0.0558 -0.1318 -0.1213
  877SOL    HW1 2630   2.975   0.411   1.336  0.3372  0.5379  0.4441
  877SOL    HW2 2631   3.084   0.547   1.330  0.0760  2.7857 -0.1421
  878SOL     OW 2632   1.720   2.290   0.200 -0.1198 -0.0749 -0.9482
  878SOL    HW1 2633   1.765   2.372   0.162 -1.9168 -1.9455 -2.2305
  878SOL    HW2 2634   1.635   2.267   0.151 -0.3156 -0.1138 -0.7086
  879SOL     OW 2635   2.716   1.845   1.461  0.1448 -0.0623  0.1516
  879SOL    HW1 2636   2.653   1.862   1.381 -2.4990  2.4420 -3.3112
  879SOL    HW2 2637   2.684   1.764   1.509 -2.0502  1.4395 -1.4337
  880SOL     OW 2638   1.179   0.019   1.235 -0.3499  0.0573  0.1065
  880SOL    HW1 2639   1.144   3.070   1.301 -0.3088 -2.7040  1.1638
  880SOL    HW2 2640   1.225   3.099   1.156  0.3010  2.2027 -1.8931
  881SOL     OW 2641   0.922   2.252   0.064  0.0396  0.3968 -0.7208
  881SOL    HW1 2642   0.948   2.292   0.156 -0.7218 -1.9381 -1.1581
  881SOL    HW2 2643   0.993   2.181   0.045  0.0711  0.8287  0.1567
  882SOL     OW 2644   2.143   0.892   2.158  0.1716  0.3246 -0.1009
  882SOL    HW1 2645   2.102   0.961   2.221 -0.1821  2.3528  0.6850
  882SOL    HW2 2646   2.194   0.934   2.082 -0.1799  3.6589 -0.4715
  883SOL     OW 2647   1.020   0.129   2.345  0.1761  0.1551 -0.0223
  883SOL    HW1 2648   1.078   0.151   2.426 -0.0220  1.8506  1.3059
  883SOL    HW2 2649   0.934   0.091   2.383  0.5233  0.9816 -2.2161
  884SOL     OW 2650   2.853   0.196   0.365 -0.4748 -0.1306 -0.7096
  884SOL    HW1 2651   2.811   0.237   0.449  0.5973 -0.6511 -1.3186
  884SOL    HW2 2652   2.793   0.210   0.279 -2.1921  0.9263 -5.6438
  885SOL     OW 2653   0.835   1.633   3.087 -0.1528 -0.3486  0.0091
  885SOL    HW1 2654   0.913   1.631   3.021  1.0279 -0.7122 -2.7746
  885SOL    HW2 2655   0.749   1.626   3.031  1.6869 -3.3326 -0.4850
  886SOL     OW 2656   1.813   1.336   2.794  0.1999 -0.3433  0.1687
  886SOL    HW1 2657   1.841   1.350   2.699 -0.2546 -0.5225  1.6125
  886SOL    HW2 2658   1.830   1.421   2.852  2.6369 -0.6555  1.7236
  887SOL     OW 2659   1.451   0.583   1.792  0.2693 -0.0742 -0.0011
  887SOL    HW1 2660   1.510   0.648   1.740  0.0550 -0.8393 -0.7853
  887SOL    HW2 2661   1.469   0.582   1.890 -1.9591  1.0646 -3.0033
  888SOL     OW 2662   2.828   0.655   1.921 -0.9439 -0.3562  0.8163
  888SOL    HW1 2663   2.806   0.752   1.927 -2.4405  0.5303 -3.3933
  888SOL    HW2 2664   2.843   0.633   1.821  2.1055 -0.6132  0.5600
  889SOL     OW 2665   2.984   2.699   0.674  0.6554 -0.6848  0.5896
  889SOL    HW1 2666   2.897   2.668   0.718 -0.3778 -0.6001  0.3088
  889SOL    HW2 2667   3.058   2.640   0.711  0.0084 -0.2331 -1.4980
  890SOL     OW 2668   2.815   2.505   3.050 -0.2648  0.0055  0.1102
  890SOL    HW1 2669   2.816   2.505   0.024 -2.1191 -0.1274 -1.3083
  890SOL    HW2 2670   2.888   2.563   3.010 -0.7699  0.2113 -0.7565
  891SOL     OW 2671   1.027   1.508   2.925  0.5546  0.5912  0.2692
  891SOL    HW1 2672   0.956   1.467   2.865  0.5232 -2.1911 -1.6727
  891SOL    HW2 2673   1.106   1.537   2.872 -2.3732 -0.7904  1.7017
  892SOL     OW 2674   3.034   2.981   1.046 -0.5100  0.1080  0.1005
  892SOL    HW1 2675   2.997   2.972   0.953  0.1604  0.4130  1.3292
  892SOL    HW2 2676   3.005   3.069   1.085  2.3324  0.1955  0.1041
  893SOL     OW 2677   0.826   2.952   0.922  0.6300  0.0079  0.0113
  893SOL    HW1 2678   0.886   2.882   0.887  0.9317 -0.0276  0.1990
  893SOL    HW2 2679   0.806   3.030   0.857 -0.3411  1.1748 -2.2231
  894SOL     OW 2680   3.031   1.206   0.841  0.5878  0.7353  0.1046
  894SOL    HW1 2681   3.086   1.290   0.859  1.5568 -1.0029 -0.3618
  894SOL    HW2 2682   3.007   1.207   0.739  1.8919  0.4165  1.2148
  895SOL     OW 2683   2.814   2.883   1.791  0.0425 -0.1997 -0.0638
  895SOL    HW1 2684   2.873   2.914   1.868  1.5290 -2.1091 -0.5883
  895SOL    HW2 2685   2.848   2.913   1.702 -0.2937  0.5615  2.7472
  896SOL     OW 2686   1.130   0.109   1.665 -0.5668  0.2922 -0.0229
  896SOL    HW1 2687   1.060   0.045   1.631  1.6347  0.1889 -2.0095
  896SOL    HW2 2688   1.140   0.093   1.766 -0.4937 -0.4159  0.4932
  897SOL     OW 2689   1.027   1.500   1.609 -0.4187  0.2233  0.4011
  897SOL    HW1 2690   1.046   1.456   1.520  0.0810  1.1743 -1.7326
  897SOL    HW2 2691   0.986   1.593   1.585 -2.1289  1.7425 -0.6527
  898SOL     OW 2692   1.350   2.613   1.854 -0.1168 -0.5695 -0.0939
  898SOL    HW1 2693   1.345   2.709   1.889 -0.8685 -0.4866 -0.0778
  898SOL    HW2 2694   1.378   2.613   1.757 -0.3996 -0.0084  2.7184
  899SOL     OW 2695   0.864   0.505   0.587 -0.1351 -0.1625 -0.1047
  899SOL    HW1 2696   0.799   0.574   0.630 -0.2308  1.4497  1.7810
  899SOL    HW2 2697   0.946   0.548   0.540  0.1549  0.1268  2.1589
  900SOL     OW 2698   1.473   2.469   2.055 -0.3848  0.5473  0.2045
  900SOL    HW1 2699   1.438   2.531   1.983  2.0365 -2.6463  0.9105
  900SOL    HW2 2700   1.499   2.523   2.137 -2.0913 -1.3713 -2.0951
  901SOL     OW 2701   0.962   2.333   2.930 -0.1211 -0.5367 -0.1624
  901SOL    HW1 2702   0.982   2.329   3.032  1.1217 -0.2009  1.6612
  901SOL    HW2 2703   0.872   2.372   2.908  2.7167 -0.2308 -0.1777
  902SOL     OW 2704   1.986   1.093   0.164 -0.3351  0.3354  0.1853
  902SOL    HW1 2705   2.045   1.017   0.144 -2.5887 -0.9857 -1.1983
  902SOL    HW2 2706   2.022   1.188   0.154 -0.6134 -0.2864  2.2817
  903SOL     OW 2707   2.120   1.092   0.524 -0.2303 -0.3460 -0.1095
  903SOL    HW1 2708   2.042   1.040   0.485  1.9749 -0.9192  0.2067
  903SOL    HW2 2709   2.142   1.175   0.468  0.7147  1.2158 -0.3216
  904SOL     OW 2710   0.746   1.022   3.072 -0.1843  0.2783 -0.1355
  904SOL    HW1 2711   0.819   1.075   3.121  0.1814  1.7669 -0.4273
  904SOL    HW2 2712   0.782   0.939   3.028 -0.0387  0.8699  0.6545
  905SOL     OW 2713   2.087   0.009   0.812 -0.3326  0.1016 -0.5535
  905SOL    HW1 2714   2.151   0.014   0.890 -0.9090 -0.1606  1.7882
  905SOL    HW2 2715   2.068   0.098   0.770 -0.6018 -1.5602  1.7353
  906SOL     OW 2716   0.120   2.306   1.104 -0.0977 -0.5988 -0.3181
  906SOL    HW1 2717   0.133   2.240   1.031  0.0524  1.6099  1.8518
  906SOL    HW2 2718   0.179   2.386   1.083 -1.5213 -0.9339 -1.1283
  907SOL     OW 2719   0.887   0.897   0.205 -0.2290  0.0576  0.1015
  907SOL    HW1 2720   0.855   0.992   0.201  1.1489 -3.6618 -2.7538
  907SOL    HW2 2721   0.805   0.837   0.218 -3.5330 -0.1006 -0.6253
  908SOL     OW 2722   1.987   2.934   1.038  0.0596  0.1882 -0.8336
  908SOL    HW1 2723   2.072   2.959   1.088 -1.2566 -0.8739 -0.8160
  908SOL    HW2 2724   1.944   3.017   0.994  0.2721  2.2873 -1.7170
  909SOL     OW 2725   1.985   1.282   1.546 -0.3326  0.5152 -0.7686
  909SOL    HW1 2726   1.939   1.366   1.579 -0.1810  0.7774  0.7668
  909SOL    HW2 2727   2.034   1.292   1.457  0.7524  0.5046  0.3921
  910SOL     OW 2728   1.287   2.892   2.233  0.5111  0.2231  0.5313
  910SOL    HW1 2729   1.296   2.803   2.280 -0.8784 -1.2074 -0.4536
  910SOL    HW2 2730   1.191   2.918   2.216  0.9295 -0.2180  1.3575
  911SOL     OW 2731   2.926   0.738   2.364  0.5997 -0.4355 -0.0603
  911SOL    HW1 2732   2.973   0.828   2.345  0.5242  0.3795 -0.8381
  911SOL    HW2 2733   2.948   0.694   2.457 -0.7830 -1.3253  3.4617
  912SOL     OW 2734   0.120   1.261   1.628  0.1329  0.5867 -0.0572
  912SOL    HW1 2735   0.065   1.176   1.621 -3.3075 -1.8371  0.3396
  912SOL    HW2 2736   0.210   1.243   1.676  0.8634 -1.1038 -1.2707
  913SOL     OW 2737   2.876   2.406   1.321  0.3457 -0.3786 -0.3542
  913SOL    HW1 2738   2.930   2.345   1.384 -0.6555  2.2805 -0.6932
  913SOL    HW2 2739   2.880   2.378   1.219 -0.4814 -1.0516 -1.2213
  914SOL     OW 2740   1.795   0.824   1.788  0.5848  0.2523  0.3962
  914SOL    HW1 2741   1.704   0.819   1.746 -1.0697 -0.5747 -0.0875
  914SOL    HW2 2742   1.849   0.900   1.741 -0.9560 -0.8779  0.5873
  915SOL     OW 2743   1.912   0.631   1.440 -0.8313 -0.2337 -0.4291
  915SOL    HW1 2744   1.914   0.599   1.537 -0.3589 -0.1248 -2.8421
  915SOL    HW2 2745   1.825   0.596   1.397 -3.5290 -0.7783  0.0466
  916SOL     OW 2746   2.949   2.559   0.979 -0.2524  0.0395 -0.1276
  916SOL    HW1 2747   2.874   2.619   0.956 -0.0065 -2.6301 -0.8431
  916SOL    HW2 2748   2.905   2.469   1.000 -1.1159 -0.3692  1.4807
  917SOL     OW 2749   1.922   1.856   0.024 -0.0539 -0.5411 -0.0986
  917SOL    HW1 2750   1.841   1.902   0.064  0.9858 -2.0466  0.0325
  917SOL    HW2 2751   1.949   1.899   3.056  0.2598 -1.1663 -1.4643
  918SOL     OW 2752   1.868   2.970   2.633  0.1081  0.2826 -0.2253
  918SOL    HW1 2753   1.940   3.004   2.567 -2.5900  0.8554 -0.3381
  918SOL    HW2 2754   1.783   3.019   2.619  0.5426 -0.8015 -2.7657
  919SOL     OW 2755   1.457   2.627   1.116  0.4495 -0.0536  0.1186
  919SOL    HW1 2756   1.558   2.611   1.122 -0.1549  1.4227 -0.4908
  919SOL    HW2 2757   1.426   2.696   1.185  0.0701  1.8529 -0.6031
  920SOL     OW 2758   0.032   0.345   2.384  0.3202 -0.6223  0.1182
  920SOL    HW1 2759   0.056   0.370   2.479 -2.2908 -0.5230 -1.2565
  920SOL    HW2 2760   0.112   0.311   2.333 -2.5968  1.4155  1.4869
  921SOL     OW 2761   2.933   0.993   1.688  0.0619 -0.1563  0.3531
  921SOL    HW1 2762   2.906   1.085   1.658  1.6651 -2.2989 -0.9525
  921SOL    HW2 2763   3.038   0.986   1.692  4.0041 -0.2002 -0.5065
  922SOL     OW 2764   2.015   1.990   0.432 -0.5284 -0.3448 -0.0000
  922SOL    HW1 2765   2.115   1.993   0.459  2.7925  0.1112 -0.3894
  922SOL    HW2 2766   1.963   2.078   0.441  1.6545  1.2472 -2.2944
  923SOL     OW 2767   0.833   1.847   0.132  0.2025 -0.2067 -0.5478
  923SOL    HW1 2768   0.817   1.777   0.059  1.2689  2.9638 -1.1918
  923SOL    HW2 2769   0.792   1.941   0.101 -1.4726  0.1563 -3.8847
  924SOL     OW 2770   0.894   0.291   0.060 -0.4930  0.1675 -0.3134
  924SOL    HW1 2771   0.817   0.221   0.059 -1.3961 -2.2945 -1.2654
  924SOL    HW2 2772   0.894   0.344   3.099  0.4662 -1.6996  0.3494
  925SOL     OW 2773   2.572   0.459   0.896 -0.0032  0.0587  0.6099
  925SOL    HW1 2774   2.554   0.400   0.816  0.3520  1.9652  1.9034
  925SOL    HW2 2775   2.516   0.438   0.979  1.5983  0.8755 -0.8670
  926SOL     OW 2776   0.612   0.066   1.038  0.0612  0.6093 -0.1727
  926SOL    HW1 2777   0.554   0.012   0.975  2.9889  0.8094 -0.2183
  926SOL    HW2 2778   0.575   0.073   1.130  2.2548 -0.2926 -0.6968
  927SOL     OW 2779   0.115   1.348   2.461  0.1531  0.3282  0.0531
  927SOL    HW1 2780   0.142   1.442   2.449 -0.1199 -0.0747 -1.8632
  927SOL    HW2 2781   0.154   1.288   2.385  1.6069  1.4209 -0.5363
  928SOL     OW 2782   3.088   0.607   2.955 -0.4274  0.4468  0.4767
  928SOL    HW1 2783   3.113   0.697   2.906  0.8338  1.9852 -1.5027
  928SOL    HW2 2784   3.027   0.542   2.903  1.4913 -0.9285  1.4399
  929SOL     OW 2785   2.604   0.199   1.406  0.9128 -0.8506 -0.3027
  929SOL    HW1 2786   2.509   0.229   1.435  0.4541 -0.4308  0.2209
  929SOL    HW2 2787   2.605   0.140   1.332  0.1691  1.3475  3.5624
  930SOL     OW 2788   1.944   1.178   1.957  0.5029 -0.1090 -0.1712
  930SOL    HW1 2789   1.863   1.124   1.997 -1.9600 -0.8066 -1.6476
  930SOL    HW2 2790   2.015   1.200   2.026 -0.4296  0.7100 -0.3576
  931SOL     OW 2791   2.189   1.337   0.370  0.3728  0.1633  0.0283
  931SOL    HW1 2792   2.244   1.272   0.315 -1.0292 -1.7626 -1.2855
  931SOL    HW2 2793   2.245   1.422   0.374 -0.4935 -1.0745 -1.3670
  932SOL     OW 2794   2.442   1.327   0.961 -0.6314 -0.0879 -0.2420
  932SOL    HW1 2795   2.474   1.321   1.054 -0.1511  1.8874 -0.4207
  932SOL    HW2 2796   2.342   1.335   0.956  3.4237 -0.7743  0.0586
  933SOL     OW 2797   2.478   1.692   0.929 -0.0086 -0.1393 -0.5578
  933SOL    HW1 2798   2.414   1.666   1.006 -0.7242 -3.6728  0.3275
  933SOL    HW2 2799   2.434   1.746   0.852  0.3935  0.2639 -1.3078
  934SOL     OW 2800   1.938   0.510   2.417 -0.5662  0.5576 -0.1675
  934SOL    HW1 2801   1.947   0.546   2.318  0.3682 -1.7323 -0.4207
  934SOL    HW2 2802   2.030   0.494   2.468  1.7491 -1.7316 -0.2294
  935SOL     OW 2803   0.143   1.544   0.430  0.0535 -0.4037 -0.0686
  935SOL    HW1 2804   0.132   1.505   0.524  0.2224 -0.0046 -2.8294
  935SOL    HW2 2805   0.202   1.622   0.429  2.7645  0.9442 -0.4331
  936SOL     OW 2806   0.215   0.640   0.664 -0.9078  0.2659 -0.1336
  936SOL    HW1 2807   0.137   0.612   0.610  1.1289  1.4120  1.4366
  936SOL    HW2 2808   0.295   0.595   0.627 -5.3437 -0.2333 -1.1274
  937SOL     OW 2809   2.623   0.015   1.176  0.0193  0.1585 -0.1769
  937SOL    HW1 2810   2.630   3.041   1.206  0.4587  0.4847 -0.5622
  937SOL    HW2 2811   2.685   0.023   1.100  1.7749 -0.0093 -1.2117
  938SOL     OW 2812   2.740   2.498   0.172 -0.3217 -0.1905  0.5513
  938SOL    HW1 2813   2.805   2.464   0.242 -0.6449 -0.3142  1.5947
  938SOL    HW2 2814   2.651   2.524   0.213 -0.2175  1.5254  0.2223
  939SOL     OW 2815   0.828   1.949   0.576  0.0856 -0.0316 -0.2439
  939SOL    HW1 2816   0.759   1.930   0.505  3.6460  1.9240 -1.2022
  939SOL    HW2 2817   0.786   1.927   0.664 -0.6677  0.1233  0.9935
  940SOL     OW 2818   0.225   0.421   3.031  0.3187  0.5103  0.3980
  940SOL    HW1 2819   0.154   0.491   3.042  3.3387  1.3894  0.8811
  940SOL    HW2 2820   0.243   0.411   2.927  0.4931 -2.6652 -1.6476
  941SOL     OW 2821   1.311   0.259   2.996  0.0701 -0.1546 -0.0300
  941SOL    HW1 2822   1.329   0.358   2.987  1.0030  0.7969 -2.0561
  941SOL    HW2 2823   1.244   0.227   3.067 -0.1852  0.5099  1.7732
  942SOL     OW 2824   0.984   0.831   1.303  1.0430  0.5135 -0.5130
  942SOL    HW1 2825   0.988   0.750   1.243 -1.5632  0.4379 -0.4082
  942SOL    HW2 2826   0.939   0.816   1.392  0.3591  1.7440  0.6087
  943SOL     OW 2827   1.462   1.080   1.955  0.4295  0.0469 -0.0466
  943SOL    HW1 2828   1.561   1.049   1.948  0.5254  0.9368  0.5893
  943SOL    HW2 2829   1.399   1.001   1.992 -0.5223 -3.9481  0.7359
  944SOL     OW 2830   1.914   1.061   1.679 -0.0576 -0.1369 -0.4532
  944SOL    HW1 2831   1.909   1.085   1.776 -0.0650 -0.9986  1.1527
  944SOL    HW2 2832   1.940   1.144   1.625  0.5151 -1.7727  0.6041
  945SOL     OW 2833   2.874   3.031   0.442  0.2162 -0.0713 -0.0154
  945SOL    HW1 2834   2.824   3.029   0.530  1.5015  2.3305 -3.0349
  945SOL    HW2 2835   2.862   3.121   0.398 -0.2862  1.7042 -1.4522
  946SOL     OW 2836   2.846   0.927   1.936 -0.0687 -0.2201 -0.0219
  946SOL    HW1 2837   2.869   0.942   1.839 -1.8402 -1.7391  1.0167
  946SOL    HW2 2838   2.780   0.988   1.979  1.0577 -1.5740 -2.6008
  947SOL     OW 2839   0.923   2.693   0.380 -0.0312 -0.7872  0.2849
  947SOL    HW1 2840   0.858   2.741   0.438 -1.1813 -3.3914  0.2184
  947SOL    HW2 2841   0.896   2.704   0.285 -1.4387 -1.4031  2.4977
  948SOL     OW 2842   2.514   1.471   1.502  0.5255 -0.0871 -0.6937
  948SOL    HW1 2843   2.522   1.448   1.600  0.6280 -0.7202 -0.0792
  948SOL    HW2 2844   2.498   1.388   1.447  0.0233 -0.9425  1.0677
  949SOL     OW 2845   0.430   1.307   2.581  0.1268 -0.1385  0.4719
  949SOL    HW1 2846   0.339   1.349   2.583  2.0989  0.6000 -0.1612
  949SOL    HW2 2847   0.426   1.222   2.635 -2.5212  5.7140 -1.9030
  950SOL     OW 2848   0.633   2.866   1.087  0.6174 -0.2761 -0.3686
  950SOL    HW1 2849   0.554   2.875   1.026 -1.3229 -0.6237 -0.0119
  950SOL    HW2 2850   0.712   2.922   1.058 -0.0890 -0.6750  2.3590
  951SOL     OW 2851   0.888   1.095   2.326  0.0067 -0.0376  0.4071
  951SOL    HW1 2852   0.990   1.097   2.318  0.5319  0.5573  0.1447
  951SOL    HW2 2853   0.865   1.081   2.426 -0.6600  1.5386 -0.2197
  952SOL     OW 2854   0.489   1.369   0.276 -0.4697  0.5497  0.1911
  952SOL    HW1 2855   0.550   1.289   0.274 -0.2771 -3.6533  0.1502
  952SOL    HW2 2856   0.395   1.342   0.282 -0.8423 -3.0803  0.0212
  953SOL     OW 2857   2.407   0.122   2.676  0.0044  0.9450  0.0315
  953SOL    HW1 2858   2.316   0.160   2.679  2.3027 -1.5362  0.6213
  953SOL    HW2 2859   2.424   0.061   2.594  1.9974  0.7231  1.6524
  954SOL     OW 2860   1.690   1.194   0.414  0.4210  0.1791  0.4626
  954SOL    HW1 2861   1.646   1.261   0.477  1.0662 -0.5338 -0.1207
  954SOL    HW2 2862   1.787   1.235   0.405  0.1540 -1.2598  0.1263
  955SOL     OW 2863   0.667   1.941   2.845  0.2423  0.0918 -0.5511
  955SOL    HW1 2864   0.651   1.960   2.942  1.9848  0.0139  1.4374
  955SOL    HW2 2865   0.597   1.994   2.792  1.7863  0.2023  1.3694
  956SOL     OW 2866   1.949   0.694   2.186  0.0825 -0.3650 -0.2461
  956SOL    HW1 2867   1.917   0.660   2.097 -2.7937  2.9186 -0.5435
  956SOL    HW2 2868   2.037   0.754   2.171  2.4599  0.0467  1.5406
  957SOL     OW 2869   1.952   2.159   2.595  0.8253  0.4402  0.0776
  957SOL    HW1 2870   2.002   2.072   2.565  0.0769 -1.2229 -0.0106
  957SOL    HW2 2871   1.960   2.180   2.696 -1.0468 -0.4855  0.3388
  958SOL     OW 2872   1.324   1.441   1.454  0.0696 -0.1314 -0.5246
  958SOL    HW1 2873   1.235   1.387   1.454  1.0732  1.4374  2.5214
  958SOL    HW2 2874   1.317   1.520   1.391 -1.2378 -0.1440  0.7653
  959SOL     OW 2875   1.975   2.423   2.493 -0.4044  0.6935 -0.6300
  959SOL    HW1 2876   1.914   2.436   2.410  2.9159 -0.6598 -0.9664
  959SOL    HW2 2877   1.993   2.323   2.509  0.2082 -0.5061 -0.8762
  960SOL     OW 2878   0.236   0.775   2.624  0.3661  0.0496 -0.2056
  960SOL    HW1 2879   0.234   0.747   2.528 -0.4372  0.5008 -1.5318
  960SOL    HW2 2880   0.145   0.753   2.667 -2.1383  0.6389  2.2740
  961SOL     OW 2881   0.347   1.029   2.692 -0.4087  0.1379  0.5333
  961SOL    HW1 2882   0.289   0.950   2.657  0.7567 -1.7844 -0.9857
  961SOL    HW2 2883   0.326   1.045   2.789 -2.0804 -2.3656 -1.1844
  962SOL     OW 2884   0.687   1.193   2.884  0.3731 -0.2935  0.4879
  962SOL    HW1 2885   0.707   1.146   2.970  3.1537  1.6311  1.9791
  962SOL    HW2 2886   0.671   1.132   2.802  0.2794  0.1115 -0.7167
  963SOL     OW 2887   2.624   2.294   3.122  0.0993 -0.2408  0.0894
  963SOL    HW1 2888   2.653   2.349   0.083  0.7568  0.2356 -0.6402
  963SOL    HW2 2889   2.609   2.354   3.042  1.5181  1.8371 -0.2218
  964SOL     OW 2890   1.168   2.424   1.448 -0.0736  0.2517  0.4737
  964SOL    HW1 2891   1.220   2.491   1.502 -1.0352 -1.7460 -2.5586
  964SOL    HW2 2892   1.065   2.441   1.450  1.0343  1.9919 -0.4839
  965SOL     OW 2893   1.537   1.506   0.250  0.3105 -0.1868  0.1731
  965SOL    HW1 2894   1.636   1.511   0.264 -1.1580 -2.6455 -0.0267
  965SOL    HW2 2895   1.490   1.558   0.324  1.7448  0.6408  1.2999
  966SOL     OW 2896   2.992   1.681   0.323 -0.1758  0.2149  0.2339
  966SOL    HW1 2897   3.061   1.630   0.374 -0.9197  1.3309  1.2251
  966SOL    HW2 2898   3.000   1.783   0.315  0.6157 -0.7699  1.3907
  967SOL     OW 2899   1.740   2.979   2.123 -0.3096  0.4492 -0.0173
  967SOL    HW1 2900   1.654   2.962   2.173  0.2313 -1.9614 -1.4644
  967SOL    HW2 2901   1.811   2.911   2.158 -0.9263 -2.0877  1.8124
  968SOL     OW 2902   1.825   0.497   0.283  0.5032  1.2615  0.2633
  968SOL    HW1 2903   1.741   0.549   0.286  1.3634  1.2194 -0.8122
  968SOL    HW2 2904   1.874   0.499   0.373  0.6253  1.4916  1.1757
  969SOL     OW 2905   0.238   1.166   2.320 -0.2783  0.4548  0.2730
  969SOL    HW1 2906   0.323   1.202   2.274 -1.3029  0.5414 -0.4495
  969SOL    HW2 2907   0.226   1.066   2.302 -0.2771 -2.5686  1.5223
  970SOL     OW 2908   2.247   2.148   1.326 -0.1954  0.1236  0.3772
  970SOL    HW1 2909   2.232   2.164   1.231  1.0241 -0.7105  3.2994
  970SOL    HW2 2910   2.168   2.181   1.380  1.5676 -0.4273  0.6886
  971SOL     OW 2911   0.023   2.718   1.019 -0.0593 -0.4406 -0.1084
  971SOL    HW1 2912   3.075   2.646   0.999  0.4143  1.3961  0.5849
  971SOL    HW2 2913   3.106   2.807   1.038  0.8092  1.4848 -1.4795
  972SOL     OW 2914   0.131   1.316   2.742  0.0124 -0.3721  0.2937
  972SOL    HW1 2915   0.084   1.240   2.794  0.3784  0.4237  0.3325
  972SOL    HW2 2916   0.093   1.329   2.649 -0.9040 -0.3684 -0.8991
  973SOL     OW 2917   0.429   0.333   0.641 -0.1260  0.2155 -0.3964
  973SOL    HW1 2918   0.358   0.286   0.699  3.0922  0.5247  0.9181
  973SOL    HW2 2919   0.397   0.365   0.551 -0.3702  0.2091  3.0234
  974SOL     OW 2920   2.180   0.954   1.674 -0.5144  0.9203  0.0884
  974SOL    HW1 2921   2.095   1.006   1.688  1.0722 -0.3649 -0.3246
  974SOL    HW2 2922   2.235   0.999   1.603  1.1051 -2.9411 -0.8666
  975SOL     OW 2923   2.586   2.831   0.030  0.2267  0.1484 -0.3110
  975SOL    HW1 2924   2.588   2.842   0.128 -1.5698  0.4353 -0.3299
  975SOL    HW2 2925   2.551   2.738   0.015  3.0629 -0.6478 -0.5102
  976SOL     OW 2926   0.460   1.614   1.102 -0.1011  0.9595  0.3095
  976SOL    HW1 2927   0.406   1.536   1.065 -0.6928  0.2661  0.5722
  976SOL    HW2 2928   0.442   1.607   1.199 -2.6666 -0.8096 -2.7864
  977SOL     OW 2929   1.191   2.329   0.982 -0.0271  0.2407  0.3942
  977SOL    HW1 2930   1.150   2.284   0.898  1.6035 -2.0722  1.2220
  977SOL    HW2 2931   1.290   2.344   0.977 -2.0508  1.9781 -0.4585
  978SOL     OW 2932   0.412   0.970   0.240 -0.1283 -0.3798  0.1330
  978SOL    HW1 2933   0.497   1.030   0.240  4.3575  0.8437  1.9072
  978SOL    HW2 2934   0.434   0.875   0.210  1.0013 -1.0842  0.9520
  979SOL     OW 2935   2.219   1.655   0.412 -0.5204 -0.4287  0.0136
  979SOL    HW1 2936   2.211   1.656   0.514  3.1327 -1.2485 -3.1778
  979SOL    HW2 2937   2.140   1.704   0.371 -0.5297 -1.9500  0.6616
  980SOL     OW 2938   0.370   1.784   2.061  0.4730  0.1320 -0.2543
  980SOL    HW1 2939   0.414   1.743   1.983 -2.2437 -2.3682  0.8648
  980SOL    HW2 2940   0.444   1.814   2.121 -0.8960  0.3070  1.0532
  981SOL     OW 2941   2.889   0.975   0.308  0.5019  0.2135  0.0396
  981SOL    HW1 2942   2.797   1.017   0.325 -0.9873  0.5271  0.5695
  981SOL    HW2 2943   2.878   0.886   0.257 -2.3450  0.3051  0.4678
  982SOL     OW 2944   2.955   2.925   2.007  0.3769 -0.3491  0.1884
  982SOL    HW1 2945   2.956   2.977   2.097  3.4512 -0.4077 -1.1537
  982SOL    HW2 2946   3.048   2.921   1.979 -1.7236  0.0653  1.0022
  983SOL     OW 2947   1.496   0.352   1.421  0.4721  0.0826  0.0687
  983SOL    HW1 2948   1.405   0.313   1.405 -0.8370  2.3186  1.9411
  983SOL    HW2 2949   1.564   0.343   1.346  1.9540 -1.3698  1.7339
  984SOL     OW 2950   1.277   2.525   3.020 -0.1319 -1.2351 -0.2046
  984SOL    HW1 2951   1.288   2.475   2.931  1.2338  0.8190 -3.0828
  984SOL    HW2 2952   1.370   2.546   3.047 -1.8877 -2.3943 -0.1480
  985SOL     OW 2953   1.739   1.883   1.657 -0.0952  0.1383 -0.2243
  985SOL    HW1 2954   1.648   1.841   1.632  0.2797 -0.4955  2.2854
  985SOL    HW2 2955   1.815   1.841   1.604  0.2754 -1.3694 -1.2312
  986SOL     OW 2956   2.096   3.059   2.457  0.3109  0.3016  0.0517
  986SOL    HW1 2957   2.056   3.121   2.389 -0.4173 -2.0946 -0.7947
  986SOL    HW2 2958   2.146   3.112   2.529 -2.9511 -0.7188  0.8086
  987SOL     OW 2959   2.760   1.553   2.458  0.1015  0.3049  0.5099
  987SOL    HW1 2960   2.727   1.487   2.530  1.4158  0.0268  1.4066
  987SOL    HW2 2961   2.855   1.581   2.472 -0.8800  1.2382 -0.9002
  988SOL     OW 2962   2.847   0.560   2.192  0.1370 -0.2089  0.0960
  988SOL    HW1 2963   2.865   0.610   2.104 -0.3509  0.4813  1.6438
  988SOL    HW2 2964   2.885   0.622   2.266  0.7159  1.5193  0.0858
  989SOL     OW 2965   1.871   1.403   1.813 -0.1120 -0.4449  0.4238
  989SOL    HW1 2966   1.782   1.428   1.845  3.8015  0.5029 -0.0686
  989SOL    HW2 2967   1.901   1.310   1.844  0.1529  2.0412  2.3661
  990SOL     OW 2968   0.010   1.145   0.244 -0.3301  0.1965  0.2012
  990SOL    HW1 2969   3.047   1.110   0.274  0.5865 -0.7699 -0.3822
  990SOL    HW2 2970   0.074   1.070   0.206  0.6082 -1.4904 -1.3160
  991SOL     OW 2971   0.301   1.810   2.623 -0.1574  0.1851  0.1261
  991SOL    HW1 2972   0.265   1.842   2.710 -3.3783 -0.3265 -0.5135
  991SOL    HW2 2973   0.335   1.887   2.565 -0.2386  0.0540  0.8751
  992SOL     OW 2974   2.707   2.262   1.889  0.3167 -0.0137  0.1455
  992SOL    HW1 2975   2.668   2.340   1.944  1.0332 -1.2524  1.0001
  992SOL    HW2 2976   2.810   2.250   1.908  0.4264 -0.9032  0.5188
  993SOL     OW 2977   0.232   2.835   0.630 -0.5273  0.2943 -0.0229
  993SOL    HW1 2978   0.235   2.934   0.613 -3.6432 -1.8976 -0.0648
  993SOL    HW2 2979   0.326   2.798   0.637  1.1997 -0.4307  2.2695
  994SOL     OW 2980   0.001   1.871   1.517 -0.8664 -0.5209  0.3847
  994SOL    HW1 2981   0.010   1.910   1.607 -1.4812 -3.8218  0.5005
  994SOL    HW2 2982   0.081   1.812   1.497 -0.9227  0.8784  1.2637
  995SOL     OW 2983   2.310   1.668   2.354  0.1102  0.3545  0.3488
  995SOL    HW1 2984   2.295   1.726   2.432 -1.3320  0.9817  3.4152
  995SOL    HW2 2985   2.405   1.672   2.317 -0.5185  1.1466  0.9947
  996SOL     OW 2986   1.879   1.567   2.919  0.2741  0.1894  0.4746
  996SOL    HW1 2987   1.809   1.587   2.989  1.9725 -0.2219  0.2149
  996SOL    HW2 2988   1.863   1.619   2.834  1.3333  3.1416 -0.7659
  997SOL     OW 2989   1.479   1.549   1.718 -0.7388 -0.2803 -0.0373
  997SOL    HW1 2990   1.381   1.560   1.741  0.5654  1.8316 -3.1479
  997SOL    HW2 2991   1.484   1.477   1.645  2.1969 -1.9640 -0.3441
  998SOL     OW 2992   2.848   2.053   0.976 -0.0482  0.0922  0.9262
  998SOL    HW1 2993   2.759   2.025   1.022 -0.5330 -1.4494  0.4343
  998SOL    HW2 2994   2.928   2.018   1.024  1.3991  2.8461 -0.3925
  999SOL     OW 2995   2.272   2.749   0.203 -0.7180  1.2050  0.1007
  999SOL    HW1 2996   2.249   2.849   0.194 -0.5422  2.8964  1.0803
  999SOL    HW2 2997   2.220   2.693   0.136  0.0634 -2.4433  0.7237
 1000SOL     OW 2998   0.875   3.106   3.060  0.4390  0.7016 -0.0395
 1000SOL    HW1 2999   0.932   3.113   0.017 -0.3637 -2.0624 -2.7577
 1000SOL    HW2 3000   0.888   0.054   2.984  1.2675  2.1536 -1.1524
   3.12392   3.12392   3.12392
