1000 SPC/Fw water molecules t= 411.00000 step= 411000
 3000
    1SOL     OW    1   0.194   0.042   1.443 -0.2461 -0.1154  0.3183
    1SOL    HW1    2   0.117   0.045   1.509  2.7029  1.5005 -1.9257
    1SOL    HW2    3   0.172   0.092   1.358  1.2944 -0.7814  1.4651
    2SOL     OW    4   2.645   2.940   0.113  0.2189 -0.1304  0.4712
    2SOL    HW1    5   2.737   2.986   0.092  0.1087 -0.0560 -1.2844
    2SOL    HW2    6   2.649   2.841   0.114 -0.9290  1.7697 -0.0145
    3SOL     OW    7   1.330   2.501   2.910 -0.2101  0.3331  0.4768
    3SOL    HW1    8   1.403   2.567   2.905 -2.0521 -0.7855  0.5125
    3SOL    HW2    9   1.267   2.533   2.987 -0.0475 -0.9553  1.4885
    4SOL     OW   10   1.052   2.887   2.256 -0.3711 -0.0121  0.1609
    4SOL    HW1   11   0.978   2.949   2.290  1.4045  2.5269  0.0423
    4SOL    HW2   12   1.037   2.851   2.162  0.6944 -1.7002  2.5898
    5SOL     OW   13   2.119   0.042   1.635 -0.1199  0.3367 -0.1788
    5SOL    HW1   14   2.118   0.040   1.735 -0.6997  0.6227 -1.7136
    5SOL    HW2   15   2.181   3.056   1.595 -1.8997  3.0588  1.7834
    6SOL     OW   16   2.362   1.903   1.051  0.3881 -0.3869  0.4380
    6SOL    HW1   17   2.360   1.957   0.962  1.3922 -1.0407  0.7912
    6SOL    HW2   18   2.319   1.810   1.039 -1.9692 -0.8717  1.4131
    7SOL     OW   19   2.142   1.212   0.875 -0.0338 -0.1428  0.0394
    7SOL    HW1   20   2.130   1.267   0.963  0.3718 -0.7218 -0.2132
    7SOL    HW2   21   2.222   1.236   0.820  0.4373 -1.7972  0.9826
    8SOL     OW   22   0.760   1.472   0.900  0.1924 -0.1584 -0.4904
    8SOL    HW1   23   0.821   1.412   0.950  0.3319  0.2500  1.8983
    8SOL    HW2   24   0.805   1.561   0.880 -1.0371  0.7432  1.3214
    9SOL     OW   25   0.265   2.843   1.407  0.1908 -0.1560 -0.1777
    9SOL    HW1   26   0.227   2.938   1.424 -0.7826  3.7214  1.8235
    9SOL    HW2   27   0.192   2.790   1.362  2.7655  0.3139  4.2886
   10SOL     OW   28   1.125   2.439   0.529  0.0320  0.2770 -0.0386
   10SOL    HW1   29   1.159   2.473   0.618  0.1864  1.1093 -0.6767
   10SOL    HW2   30   1.085   2.513   0.470 -1.9073 -0.0408  0.8267
   11SOL     OW   31   1.643   1.896   1.088  0.0835 -0.8356  0.1520
   11SOL    HW1   32   1.689   1.879   1.000 -1.1102  0.7659 -1.7727
   11SOL    HW2   33   1.669   1.983   1.134 -2.0961 -1.4035  1.7946
   12SOL     OW   34   2.770   0.692   2.271 -0.7665 -0.2852 -0.5232
   12SOL    HW1   35   2.843   0.620   2.289 -0.5873 -1.2675  0.4815
   12SOL    HW2   36   2.680   0.663   2.309 -0.6215  1.0772 -0.6254
   13SOL     OW   37   2.627   2.663   0.081  0.5487 -0.7450 -0.3642
   13SOL    HW1   38   2.562   2.681   0.004 -0.1836  0.7269  0.9750
   13SOL    HW2   39   2.570   2.642   0.166 -0.8526 -3.7429 -1.5834
   14SOL     OW   40   1.549   1.592   2.968  0.3281  0.3678 -0.2799
   14SOL    HW1   41   1.592   1.509   2.933  1.3623  1.6141  4.6543
   14SOL    HW2   42   1.592   1.623   3.055  1.6083  2.3993 -0.2755
   15SOL     OW   43   2.690   2.738   1.713 -0.2264 -0.3541  0.3048
   15SOL    HW1   44   2.727   2.654   1.758  1.2219 -2.0876 -0.8856
   15SOL    HW2   45   2.719   2.825   1.764 -0.2861  3.3381  0.9631
   16SOL     OW   46   2.959   0.151   0.984 -0.7168  0.9595  0.5212
   16SOL    HW1   47   2.976   0.248   0.968  0.5515 -0.1258 -0.2732
   16SOL    HW2   48   2.950   0.100   0.897 -0.8929  0.7836 -0.9961
   17SOL     OW   49   1.424   0.257   0.661  0.6286  0.0308  0.7874
   17SOL    HW1   50   1.429   0.176   0.597 -1.3733  0.9045  0.1356
   17SOL    HW2   51   1.427   0.219   0.754 -2.1524 -1.2251  0.6976
   18SOL     OW   52   1.460   0.108   0.889 -0.3148  0.3914 -0.1520
   18SOL    HW1   53   1.502   0.173   0.955  1.2043 -0.3984 -2.3148
   18SOL    HW2   54   1.368   0.076   0.914 -0.6094 -1.5497 -0.2179
   19SOL     OW   55   2.279   1.054   0.471 -0.3025 -0.1988  0.2535
   19SOL    HW1   56   2.294   1.156   0.454  1.8860  0.4396  2.8699
   19SOL    HW2   57   2.305   1.006   0.388 -1.2090 -0.9465 -1.0618
   20SOL     OW   58   2.626   1.616   2.800  0.4849  0.1619 -0.3009
   20SOL    HW1   59   2.651   1.647   2.706  0.4658  1.2047 -2.0552
   20SOL    HW2   60   2.544   1.671   2.829 -0.8579 -1.8433 -0.2502
   21SOL     OW   61   1.518   2.987   0.006 -0.2408  0.3482 -0.2428
   21SOL    HW1   62   1.505   3.034   0.098 -0.7912 -0.6738  0.5665
   21SOL    HW2   63   1.451   3.022   3.016 -1.4562  1.4170  1.1705
   22SOL     OW   64   2.897   1.152   0.886 -0.2394  0.3751  0.4788
   22SOL    HW1   65   2.932   1.074   0.947 -0.4041 -0.0862 -0.8033
   22SOL    HW2   66   2.805   1.185   0.918 -0.5500 -0.2197  0.8811
   23SOL     OW   67   0.558   3.066   1.888 -0.3109  0.0075 -0.1947
   23SOL    HW1   68   0.658   3.061   1.905 -1.0804 -2.7870  1.9437
   23SOL    HW2   69   0.526   0.081   1.920 -2.3615  2.7511  1.2580
   24SOL     OW   70   2.483   2.289   0.795  0.0448  0.9675  0.6406
   24SOL    HW1   71   2.497   2.378   0.748 -0.1587 -1.1181 -0.9909
   24SOL    HW2   72   2.453   2.293   0.894 -2.4896  0.7749  1.8764
   25SOL     OW   73   1.860   3.065   2.555  0.2318  0.7801  0.1371
   25SOL    HW1   74   1.910   0.060   2.605 -0.2673 -0.9297  1.7471
   25SOL    HW2   75   1.803   3.005   2.617  1.1994  2.6120 -0.6732
   26SOL     OW   76   1.432   2.325   0.073  0.6562 -0.1908  0.5382
   26SOL    HW1   77   1.523   2.304   0.119  1.9278  0.0144 -0.4689
   26SOL    HW2   78   1.445   2.381   3.068  0.7615 -2.4976 -0.8920
   27SOL     OW   79   1.624   0.545   1.294 -0.0872 -0.3276  0.1849
   27SOL    HW1   80   1.535   0.497   1.287  2.3126 -1.3100 -0.4457
   27SOL    HW2   81   1.613   0.650   1.294  0.0132  1.6715  1.3126
   28SOL     OW   82   1.099   1.358   0.474  0.6144 -0.1920 -0.3243
   28SOL    HW1   83   1.016   1.298   0.498 -2.4340 -3.0012  2.1220
   28SOL    HW2   84   1.180   1.302   0.488 -1.8617 -0.2420 -0.3466
   29SOL     OW   85   2.474   0.367   1.429  0.2724  0.4419 -0.2843
   29SOL    HW1   86   2.384   0.352   1.478 -1.5328 -0.3512 -0.8968
   29SOL    HW2   87   2.486   0.464   1.397 -1.0025  2.4204  0.2721
   30SOL     OW   88   1.245   2.412   1.501 -0.2785  0.1285  0.1974
   30SOL    HW1   89   1.231   2.473   1.576 -0.5579 -1.6309 -0.7487
   30SOL    HW2   90   1.337   2.431   1.459  1.5911  0.3958 -1.0644
   31SOL     OW   91   1.921   2.738   1.308 -0.9180 -0.0823  0.0168
   31SOL    HW1   92   1.981   2.761   1.385 -0.8376 -1.2898 -3.5545
   31SOL    HW2   93   1.923   2.818   1.239 -0.4223  3.3792 -2.3154
   32SOL     OW   94   1.826   1.497   2.726 -0.4067 -0.4871 -1.0799
   32SOL    HW1   95   1.740   1.490   2.669 -0.7601 -0.9849 -3.5225
   32SOL    HW2   96   1.886   1.561   2.677  0.2486  2.0045  1.7020
   33SOL     OW   97   2.401   0.811   2.686 -0.3992  0.1490 -0.8207
   33SOL    HW1   98   2.418   0.740   2.759 -1.1646 -2.1024  1.0489
   33SOL    HW2   99   2.305   0.842   2.687 -1.5630  0.0604  1.0667
   34SOL     OW  100   1.949   0.285   0.232 -0.3042 -0.2078 -0.0562
   34SOL    HW1  101   1.860   0.311   0.270 -0.0370  0.8926  0.4067
   34SOL    HW2  102   1.996   0.205   0.278 -3.3532 -0.6812 -2.4512
   35SOL     OW  103   0.009   2.043   1.784 -0.6397 -0.2425  0.3058
   35SOL    HW1  104   3.056   2.012   1.692 -0.7084  0.2394  2.1579
   35SOL    HW2  105   3.026   2.014   1.858  1.8305  1.3081  0.0917
   36SOL     OW  106   2.377   1.868   0.040  0.0655 -0.1270 -0.0841
   36SOL    HW1  107   2.362   1.832   3.027 -0.1115 -1.6807  0.9252
   36SOL    HW2  108   2.370   1.972   0.034 -2.5506  2.8894  0.6491
   37SOL     OW  109   1.702   0.162   1.824  0.0066 -0.3096  0.0216
   37SOL    HW1  110   1.753   0.231   1.772 -0.8706 -2.6599  0.4503
   37SOL    HW2  111   1.700   0.183   1.925 -2.9292 -0.1090  1.7247
   38SOL     OW  112   0.341   0.473   2.341 -0.2653 -0.4424 -0.0565
   38SOL    HW1  113   0.347   0.572   2.359  0.3281 -0.8587 -0.6072
   38SOL    HW2  114   0.429   0.449   2.295  1.6991  1.2902 -3.0306
   39SOL     OW  115   1.997   0.821   1.297 -0.2752 -0.1733  0.3722
   39SOL    HW1  116   1.896   0.821   1.324 -4.9195  0.7215  1.0623
   39SOL    HW2  117   2.021   0.872   1.213  1.8637  0.1425 -1.0549
   40SOL     OW  118   1.323   2.224   0.755  0.0893 -0.2554 -0.5975
   40SOL    HW1  119   1.229   2.190   0.785 -0.6917 -1.9128  0.2968
   40SOL    HW2  120   1.384   2.147   0.731 -0.1387 -2.5728  1.9710
   41SOL     OW  121   1.864   2.175   0.897  0.3843 -0.4259  0.1948
   41SOL    HW1  122   1.819   2.086   0.899  0.1675 -0.0111 -1.5477
   41SOL    HW2  123   1.833   2.238   0.971 -0.2497  1.8574 -0.5987
   42SOL     OW  124   2.547   0.703   1.108 -0.2183  0.5465 -0.1867
   42SOL    HW1  125   2.615   0.743   1.174  0.5270  0.8518  0.6367
   42SOL    HW2  126   2.549   0.745   1.018 -0.7059  0.4103  1.5884
   43SOL     OW  127   0.789   1.179   2.399 -0.1412  0.3638 -0.1507
   43SOL    HW1  128   0.867   1.237   2.361  1.1333  2.3773  2.4424
   43SOL    HW2  129   0.795   1.180   2.497 -0.7465 -0.0797 -0.3792
   44SOL     OW  130   1.589   2.689   1.236  0.1963 -0.1545 -0.1589
   44SOL    HW1  131   1.600   2.770   1.300  2.7896  4.2966 -0.7257
   44SOL    HW2  132   1.680   2.648   1.215  0.8625  0.2555  1.0836
   45SOL     OW  133   0.786   2.906   2.574  0.6886 -1.2701 -0.1102
   45SOL    HW1  134   0.890   2.910   2.582 -0.2936  1.2537  1.2696
   45SOL    HW2  135   0.757   2.828   2.519 -0.6439 -1.8460 -1.9799
   46SOL     OW  136   0.695   2.502   1.974  0.2407 -0.0305  0.1107
   46SOL    HW1  137   0.670   2.403   1.972  0.7743  0.5980  3.1465
   46SOL    HW2  138   0.614   2.552   2.014 -4.8567  2.9984 -1.0697
   47SOL     OW  139   1.087   2.113   0.825  0.3546  0.3258  0.1016
   47SOL    HW1  140   1.070   2.198   0.873 -1.6355 -3.5990 -0.6584
   47SOL    HW2  141   0.998   2.060   0.815  1.1525  0.4133  2.5910
   48SOL     OW  142   0.795   2.414   1.309  0.3644  0.4315  0.2181
   48SOL    HW1  143   0.743   2.432   1.224 -1.3802 -2.4089  0.8422
   48SOL    HW2  144   0.899   2.418   1.297 -0.7614 -0.2064  1.3641
   49SOL     OW  145   2.414   3.065   2.869  0.0605  0.2792  0.0771
   49SOL    HW1  146   2.390   0.080   2.841  0.3159  0.3144 -0.3475
   49SOL    HW2  147   2.515   3.054   2.869 -0.9928  0.8338 -0.8065
   50SOL     OW  148   1.671   0.923   0.544  0.4643 -0.0924  0.1632
   50SOL    HW1  149   1.768   0.900   0.561 -0.8176 -3.5354 -1.6370
   50SOL    HW2  150   1.614   0.905   0.624 -0.6964  0.3959 -3.1079
   51SOL     OW  151   2.228   0.324   0.809  0.3047 -0.1241 -0.7139
   51SOL    HW1  152   2.155   0.360   0.874 -1.0880  0.1746  0.3469
   51SOL    HW2  153   2.196   0.330   0.713 -2.8121  0.2302  1.6495
   52SOL     OW  154   0.875   1.602   0.103  0.3639 -0.1168 -0.2255
   52SOL    HW1  155   0.834   1.547   0.028  1.2346 -1.5487  0.5981
   52SOL    HW2  156   0.795   1.620   0.165 -0.3973 -0.9201 -0.8803
   53SOL     OW  157   0.488   1.119   3.005 -0.0474 -0.5348 -0.2098
   53SOL    HW1  158   0.452   1.031   2.968 -1.2531 -0.0475 -1.2680
   53SOL    HW2  159   0.509   1.110   0.023 -0.5517 -0.1450 -1.9962
   54SOL     OW  160   2.006   1.684   2.619  0.0182 -0.2550 -0.2905
   54SOL    HW1  161   2.030   1.706   2.520  0.7447  0.1940 -0.5592
   54SOL    HW2  162   1.951   1.761   2.668 -0.2218  0.1122 -0.4681
   55SOL     OW  163   2.413   2.214   1.062 -0.4134  0.2843  0.2643
   55SOL    HW1  164   2.500   2.237   1.110  1.2116  1.3850 -1.4126
   55SOL    HW2  165   2.358   2.132   1.090 -0.7749  1.5983  0.5772
   56SOL     OW  166   2.001   0.048   1.175  0.9883 -0.4551 -0.5962
   56SOL    HW1  167   2.032   3.047   1.120 -1.9108 -1.2684 -0.0475
   56SOL    HW2  168   1.899   0.053   1.169 -4.7512  1.8277 -2.4329
   57SOL     OW  169   1.665   1.339   0.714  0.1841 -0.5309  0.2895
   57SOL    HW1  170   1.673   1.439   0.712  0.2395 -0.7355  0.8863
   57SOL    HW2  171   1.703   1.295   0.625  1.5120 -2.9410 -1.6818
   58SOL     OW  172   2.341   3.043   1.325 -0.1131  0.2916 -0.1329
   58SOL    HW1  173   2.401   0.044   1.315 -0.2607 -2.3444 -1.5457
   58SOL    HW2  174   2.321   3.002   1.231 -0.0784 -0.5032 -2.6022
   59SOL     OW  175   1.074   2.856   2.545  0.2814 -0.3752  0.3274
   59SOL    HW1  176   1.151   2.822   2.607  1.5973 -0.9630  2.4436
   59SOL    HW2  177   1.054   2.808   2.458  0.9403 -1.2706 -0.6103
   60SOL     OW  178   3.043   2.849   2.911 -0.6578  0.2321  0.5534
   60SOL    HW1  179   3.061   2.775   2.979  2.9364  0.2631 -1.3013
   60SOL    HW2  180   2.964   2.833   2.853 -1.4214 -1.4913  3.7996
   61SOL     OW  181   0.827   2.344   0.759  0.1154 -0.7876  0.3061
   61SOL    HW1  182   0.857   2.293   0.677  0.7598  3.4280  2.2505
   61SOL    HW2  183   0.752   2.304   0.816 -0.2024 -0.5163  1.1419
   62SOL     OW  184   1.309   1.868   1.895  0.1240  0.1268 -0.5155
   62SOL    HW1  185   1.391   1.880   1.959  0.7646  1.8506 -1.8369
   62SOL    HW2  186   1.320   1.801   1.821 -2.7176  1.0403  0.5472
   63SOL     OW  187   1.630   1.600   0.451  0.7981 -0.3784 -0.5095
   63SOL    HW1  188   1.665   1.619   0.546 -0.4150 -0.9240  1.7439
   63SOL    HW2  189   1.693   1.540   0.395  1.2729 -1.7604  0.9253
   64SOL     OW  190   1.797   1.420   0.334  0.3194  0.0271  0.5870
   64SOL    HW1  191   1.769   1.388   0.239 -0.8366  2.6109 -0.5390
   64SOL    HW2  192   1.792   1.341   0.404  0.6734 -1.3767  1.6729
   65SOL     OW  193   1.393   2.317   2.319 -0.0771 -0.2932  0.5766
   65SOL    HW1  194   1.481   2.267   2.341 -2.3853 -2.6069 -1.2244
   65SOL    HW2  195   1.318   2.287   2.383 -0.3327  0.5368  1.5852
   66SOL     OW  196   0.239   1.023   1.451  0.1890  0.1901  0.5195
   66SOL    HW1  197   0.325   0.966   1.462 -0.6963 -0.9359 -0.9391
   66SOL    HW2  198   0.254   1.111   1.397 -0.8359  3.1311 -0.2363
   67SOL     OW  199   2.150   2.657   0.348 -0.1763  0.1435  0.3803
   67SOL    HW1  200   2.188   2.737   0.296  1.1748  2.3184  1.5521
   67SOL    HW2  201   2.221   2.623   0.410  1.4648  0.3123 -0.8442
   68SOL     OW  202   2.089   2.316   1.220  0.3143  0.5983 -0.0262
   68SOL    HW1  203   2.103   2.266   1.311  1.3875 -0.4642  1.4307
   68SOL    HW2  204   2.081   2.244   1.140  3.0337 -2.5586 -1.9301
   69SOL     OW  205   2.438   2.140   0.016 -0.1537 -0.4915 -0.0557
   69SOL    HW1  206   2.441   2.244   0.004  0.9364  0.0161  0.5659
   69SOL    HW2  207   2.515   2.104   0.075  2.0612 -1.0522  1.2785
   70SOL     OW  208   0.425   0.888   2.483  0.1373 -0.6700 -0.0651
   70SOL    HW1  209   0.375   0.971   2.518 -1.0734 -1.7014  1.1370
   70SOL    HW2  210   0.378   0.802   2.508 -2.5693  0.8253  1.6024
   71SOL     OW  211   0.848   0.932   2.279 -0.0461  0.3576  0.1248
   71SOL    HW1  212   0.831   1.028   2.313 -1.7348  2.8139  1.9897
   71SOL    HW2  213   0.846   0.867   2.359  1.8078 -1.1558 -1.3164
   72SOL     OW  214   2.336   1.593   1.939  0.0972 -0.3892 -0.2649
   72SOL    HW1  215   2.357   1.514   1.877  1.0609  0.8093  0.2889
   72SOL    HW2  216   2.366   1.682   1.898 -1.1720  0.5263 -0.8234
   73SOL     OW  217   1.012   1.911   2.796  0.0821 -0.0136  0.0900
   73SOL    HW1  218   0.980   2.006   2.821 -0.7086  0.1430  0.8049
   73SOL    HW2  219   1.115   1.901   2.792  1.2678  1.7607  0.2949
   74SOL     OW  220   2.056   3.059   2.366 -0.2132  0.0275 -0.4440
   74SOL    HW1  221   1.967   3.044   2.416  0.5784 -0.3629  0.2492
   74SOL    HW2  222   2.119   0.046   2.410 -0.5561 -0.7206 -0.8239
   75SOL     OW  223   1.401   2.849   0.670  0.0152  0.2588  0.2634
   75SOL    HW1  224   1.351   2.802   0.595  0.7307  0.4183 -0.1551
   75SOL    HW2  225   1.491   2.887   0.641  0.3556  2.2583 -0.4548
   76SOL     OW  226   2.858   1.862   2.946  0.4337  0.0950 -0.4107
   76SOL    HW1  227   2.856   1.758   2.961  2.9254  0.5400  0.9771
   76SOL    HW2  228   2.894   1.910   3.030  1.0024 -2.0405 -0.7464
   77SOL     OW  229   0.080   2.649   1.340 -0.1570  0.7858  0.4111
   77SOL    HW1  230   0.069   2.605   1.247 -0.4104  1.5825 -1.8976
   77SOL    HW2  231   0.063   2.579   1.413  0.5554 -1.4260  0.4852
   78SOL     OW  232   2.608   0.895   3.039 -0.6547  0.0187  0.2606
   78SOL    HW1  233   2.700   0.935   3.071 -0.8775  1.6815 -2.1598
   78SOL    HW2  234   2.570   0.960   2.973  0.3786 -2.1559  0.9910
   79SOL     OW  235   0.154   1.742   2.531  0.1186  0.2646 -0.4981
   79SOL    HW1  236   0.203   1.650   2.535  1.2809  1.1362  0.3110
   79SOL    HW2  237   0.109   1.756   2.620  0.0381  1.6917  1.9931
   80SOL     OW  238   1.695   1.484   1.815  0.2098 -0.1574 -0.2249
   80SOL    HW1  239   1.762   1.462   1.887 -1.1180 -2.1903 -1.0275
   80SOL    HW2  240   1.730   1.557   1.751 -1.0178 -2.4320  0.3554
   81SOL     OW  241   2.087   1.294   2.479 -0.1243  0.4314 -0.5266
   81SOL    HW1  242   1.986   1.277   2.485 -4.0794 -0.4682 -1.3938
   81SOL    HW2  243   2.123   1.295   2.578  1.9443  1.3863  1.5467
   82SOL     OW  244   1.245   1.333   1.860  0.5735 -0.0258 -0.4092
   82SOL    HW1  245   1.334   1.371   1.888 -1.2687 -1.2420  1.1702
   82SOL    HW2  246   1.253   1.267   1.784 -1.8413 -1.5635 -2.5306
   83SOL     OW  247   3.036   0.242   0.053 -0.1784 -0.3347 -0.0629
   83SOL    HW1  248   2.956   0.266   0.117  1.5897 -0.9694  2.7956
   83SOL    HW2  249   3.020   0.246   3.032 -0.1251 -3.2133 -0.4279
   84SOL     OW  250   2.984   0.998   0.416  0.3906  0.1978 -0.2635
   84SOL    HW1  251   0.001   0.970   0.389  1.5669 -1.6074  2.0344
   84SOL    HW2  252   2.960   1.084   0.362 -0.3117  1.0765 -2.3550
   85SOL     OW  253   2.104   1.560   2.076 -0.4823  0.2099 -0.3238
   85SOL    HW1  254   2.179   1.576   2.012 -1.6596 -3.1800 -0.0284
   85SOL    HW2  255   2.142   1.506   2.151  0.0667  1.2519  0.3443
   86SOL     OW  256   0.688   0.718   1.167  0.6371 -0.1919 -0.2433
   86SOL    HW1  257   0.731   0.802   1.133  1.1304  0.2237  0.1410
   86SOL    HW2  258   0.603   0.696   1.119  1.2396 -0.0161  0.1278
   87SOL     OW  259   2.791   2.112   2.148  0.9965 -0.2359  0.5207
   87SOL    HW1  260   2.697   2.118   2.109 -1.0949 -0.0254 -2.2884
   87SOL    HW2  261   2.788   2.103   2.251 -1.0829  1.2071  0.8259
   88SOL     OW  262   0.571   1.874   0.039 -0.5972 -0.7113 -0.5717
   88SOL    HW1  263   0.489   1.930   0.068 -1.1924  0.6685  0.3107
   88SOL    HW2  264   0.567   1.837   3.021 -0.0654  0.5295  0.5498
   89SOL     OW  265   1.550   0.586   0.271 -0.5717 -1.0205  0.5751
   89SOL    HW1  266   1.475   0.639   0.224 -0.1841 -1.4658  0.3726
   89SOL    HW2  267   1.640   0.612   0.223  3.8225 -0.2825 -0.1131
   90SOL     OW  268   3.044   1.592   2.238 -0.0627 -0.4137  0.4113
   90SOL    HW1  269   2.943   1.622   2.232 -0.5861  1.2369  0.4187
   90SOL    HW2  270   0.030   1.663   2.204 -0.4160 -0.2386  1.5921
   91SOL     OW  271   2.339   3.019   1.025 -0.3994 -0.0249  0.3093
   91SOL    HW1  272   2.263   2.950   1.033 -0.6040 -0.7907 -2.7274
   91SOL    HW2  273   2.348   3.042   0.925  0.7889  1.7833 -2.7432
   92SOL     OW  274   2.220   1.296   1.181  0.3939 -0.1559 -0.0207
   92SOL    HW1  275   2.135   1.332   1.145  1.6868 -0.2381  1.4706
   92SOL    HW2  276   2.290   1.365   1.179 -0.2377 -2.7976  2.1976
   93SOL     OW  277   2.956   1.225   0.277  0.0108  0.0101 -0.3303
   93SOL    HW1  278   2.878   1.290   0.269  0.5470  0.2405  0.2328
   93SOL    HW2  279   3.034   1.246   0.215  3.5558 -1.6836  2.0509
   94SOL     OW  280   1.105   2.315   2.026 -0.7398  0.0163  0.0902
   94SOL    HW1  281   1.175   2.251   1.984 -0.1828 -0.1652 -1.7812
   94SOL    HW2  282   1.142   2.354   2.114 -0.1332  0.3640 -2.5326
   95SOL     OW  283   2.999   0.593   1.199  0.6059 -0.2324  0.1936
   95SOL    HW1  284   3.036   0.666   1.265 -2.1978  1.4116  1.5721
   95SOL    HW2  285   2.992   0.507   1.253 -0.0775 -2.2733  0.1167
   96SOL     OW  286   0.056   2.765   1.839 -0.5194  0.4156  0.0717
   96SOL    HW1  287   0.125   2.836   1.822  0.1445  1.2103  0.0073
   96SOL    HW2  288   0.067   2.688   1.769 -1.2068 -3.6530  0.4027
   97SOL     OW  289   2.363   0.614   1.473 -0.1062 -0.6553  0.0112
   97SOL    HW1  290   2.331   0.681   1.406  0.0272 -1.4763 -0.8818
   97SOL    HW2  291   2.277   0.579   1.520  1.3140 -0.4699 -0.3932
   98SOL     OW  292   2.345   2.445   1.326 -0.6475 -0.0037  0.6641
   98SOL    HW1  293   2.428   2.400   1.364  1.8839  0.1806  1.4863
   98SOL    HW2  294   2.285   2.369   1.290  0.5171  1.1659 -1.1069
   99SOL     OW  295   0.252   0.228   1.761 -0.4209  0.9600 -0.0187
   99SOL    HW1  296   0.180   0.287   1.798  1.9696  0.4810 -0.3718
   99SOL    HW2  297   0.290   0.271   1.677 -1.9835  0.4293 -0.0384
  100SOL     OW  298   2.092   0.301   2.336 -0.4221 -0.1471 -0.1117
  100SOL    HW1  299   2.028   0.254   2.275 -0.1896  1.2167  0.6042
  100SOL    HW2  300   2.054   0.352   2.414  2.9160 -0.9167 -1.9211
  101SOL     OW  301   0.127   0.129   2.377 -0.1693  0.4476  0.5476
  101SOL    HW1  302   0.221   0.108   2.341  4.4016  0.7600 -0.7926
  101SOL    HW2  303   0.114   0.231   2.387 -1.7083  0.4381 -1.4502
  102SOL     OW  304   0.728   0.364   1.685  0.3382  0.6657 -0.0041
  102SOL    HW1  305   0.629   0.339   1.661  1.4230 -0.8566 -1.3634
  102SOL    HW2  306   0.748   0.461   1.689 -0.6703 -0.7650 -1.4196
  103SOL     OW  307   0.917   0.561   2.705 -0.1047  0.2107 -0.4822
  103SOL    HW1  308   0.939   0.617   2.784 -0.7452 -1.4502 -2.5208
  103SOL    HW2  309   0.993   0.495   2.692 -0.7952  1.6123 -2.0460
  104SOL     OW  310   0.158   0.565   1.987 -0.5966 -0.0712  0.3214
  104SOL    HW1  311   0.157   0.662   2.022  2.1831  0.6154 -3.2279
  104SOL    HW2  312   0.255   0.535   1.997  0.2157  2.3173 -2.3369
  105SOL     OW  313   2.436   1.954   1.532 -0.6336 -0.9054  0.5536
  105SOL    HW1  314   2.377   1.964   1.617 -0.4818  0.7119 -0.7520
  105SOL    HW2  315   2.463   1.859   1.525  0.5112  3.3410  0.4342
  106SOL     OW  316   1.530   0.167   0.166 -0.1618  0.2943  0.2333
  106SOL    HW1  317   1.609   0.224   0.210  1.9024  2.5387  1.4445
  106SOL    HW2  318   1.486   0.220   0.089  1.4536 -0.3275  2.7134
  107SOL     OW  319   2.093   2.106   1.039  0.4071 -0.4712  0.3337
  107SOL    HW1  320   2.019   2.141   0.974 -2.7290 -0.4255 -2.3025
  107SOL    HW2  321   2.172   2.078   0.988 -1.3358  1.3330  1.0496
  108SOL     OW  322   3.064   2.483   1.104  0.1778  0.1285 -0.3875
  108SOL    HW1  323   3.038   2.457   1.009  3.4518 -0.8663  1.0735
  108SOL    HW2  324   3.067   2.400   1.162  2.5833 -1.1919 -1.1959
  109SOL     OW  325   1.642   2.543   0.837 -0.1717 -0.1846  0.5764
  109SOL    HW1  326   1.609   2.538   0.744 -1.5127 -1.4095  0.9023
  109SOL    HW2  327   1.613   2.623   0.892 -0.3463 -2.1668 -1.7742
  110SOL     OW  328   1.849   1.558   1.251  0.2710 -0.0476  0.1804
  110SOL    HW1  329   1.939   1.609   1.261  0.0749 -0.5156 -0.3985
  110SOL    HW2  330   1.839   1.488   1.324 -2.0848 -1.4135  1.4659
  111SOL     OW  331   1.568   2.247   1.895 -0.0553  0.5421 -0.3878
  111SOL    HW1  332   1.627   2.208   1.821 -2.1119  0.4672  0.4753
  111SOL    HW2  333   1.528   2.339   1.876  0.9368 -3.2236  1.0507
  112SOL     OW  334   1.999   2.154   2.973  0.0949  0.4154  0.6198
  112SOL    HW1  335   1.982   2.067   3.021 -1.9652  0.9959 -1.6686
  112SOL    HW2  336   2.082   2.143   2.914 -0.4837 -1.0875 -1.6912
  113SOL     OW  337   1.910   1.805   2.063  0.2736 -0.2646 -0.4251
  113SOL    HW1  338   1.972   1.882   2.046  0.3839 -1.5746  3.4775
  113SOL    HW2  339   1.952   1.733   2.118 -0.2696  3.4695  0.0984
  114SOL     OW  340   0.033   1.369   1.758  0.4483 -0.2957  0.1581
  114SOL    HW1  341   3.010   1.370   1.751  0.6668  0.9485  0.3174
  114SOL    HW2  342   0.051   1.375   1.859 -0.5412  1.1301 -0.2417
  115SOL     OW  343   0.103   0.908   0.132  0.4092 -0.5112 -0.6055
  115SOL    HW1  344   0.142   0.824   0.086 -0.2012 -1.2112 -2.4754
  115SOL    HW2  345   0.153   0.927   0.219  1.6414 -0.6559 -1.8230
  116SOL     OW  346   2.546   1.025   2.800  0.4846 -0.8006  0.1824
  116SOL    HW1  347   2.471   1.084   2.838  1.5956 -0.5861 -2.8795
  116SOL    HW2  348   2.514   0.934   2.764  0.7598 -1.9360 -0.9992
  117SOL     OW  349   2.754   2.344   0.154 -0.2441 -0.1629 -0.0776
  117SOL    HW1  350   2.686   2.265   0.152  0.1332 -1.3385  1.6815
  117SOL    HW2  351   2.771   2.383   0.059 -3.3392 -0.6321  0.2398
  118SOL     OW  352   0.665   2.068   2.910  0.4973 -0.1493 -0.4914
  118SOL    HW1  353   0.741   2.130   2.899 -4.5225 -1.9159  0.4472
  118SOL    HW2  354   0.653   2.036   3.005 -0.4843  1.8508 -2.1748
  119SOL     OW  355   0.592   2.690   0.641 -0.0137 -0.2921 -0.0347
  119SOL    HW1  356   0.608   2.762   0.710 -3.0559  0.7329  1.0529
  119SOL    HW2  357   0.504   2.642   0.654 -1.2361  0.6359 -2.8797
  120SOL     OW  358   1.228   0.754   0.430  0.6690  0.0748 -0.0268
  120SOL    HW1  359   1.143   0.711   0.404  1.5673  1.7369  2.0023
  120SOL    HW2  360   1.256   0.821   0.361 -0.2773  0.6716  1.7076
  121SOL     OW  361   1.492   2.759   0.922 -0.7360  0.2396  0.0029
  121SOL    HW1  362   1.498   2.798   1.018 -1.9378  1.5877  0.1875
  121SOL    HW2  363   1.429   2.806   0.859  3.1324 -0.5203  0.8693
  122SOL     OW  364   2.744   1.803   2.474  0.3673 -0.0603 -0.0553
  122SOL    HW1  365   2.744   1.770   2.376 -0.8714  1.9430 -2.1982
  122SOL    HW2  366   2.817   1.750   2.524  1.7933  2.9474 -0.8615
  123SOL     OW  367   1.375   1.531   0.979 -0.3519 -0.0196  0.3424
  123SOL    HW1  368   1.467   1.534   1.026  2.7910 -2.9979 -1.4732
  123SOL    HW2  369   1.302   1.504   1.045  1.6899  3.1650 -0.5667
  124SOL     OW  370   0.311   0.494   2.984 -0.4788 -0.2335  0.3803
  124SOL    HW1  371   0.343   0.428   3.055  0.2181 -1.7113  0.6594
  124SOL    HW2  372   0.395   0.531   2.939 -1.1180  0.0859  0.0002
  125SOL     OW  373   0.594   0.493   0.243  0.3670  0.3058  0.1902
  125SOL    HW1  374   0.597   0.537   0.151 -0.3397 -0.3512  0.5963
  125SOL    HW2  375   0.510   0.439   0.249 -0.5194  0.8484 -0.5313
  126SOL     OW  376   0.289   1.683   0.498 -0.0912  0.1399  0.2431
  126SOL    HW1  377   0.323   1.632   0.416  0.9057 -0.1109  1.2605
  126SOL    HW2  378   0.281   1.620   0.580 -0.3728  1.9283 -0.3604
  127SOL     OW  379   0.989   2.567   1.670 -0.6684 -0.2251  0.5741
  127SOL    HW1  380   0.968   2.660   1.637  1.1821  0.9226 -1.4011
  127SOL    HW2  381   1.081   2.557   1.711 -0.3983 -1.7418  2.0952
  128SOL     OW  382   1.320   1.593   0.195 -0.1326  0.0112 -0.7660
  128SOL    HW1  383   1.233   1.566   0.235  0.4440  1.0716 -0.4137
  128SOL    HW2  384   1.325   1.561   0.098  0.0247  0.2173 -1.1673
  129SOL     OW  385   1.667   1.653   2.063  0.3699 -0.1321 -0.3212
  129SOL    HW1  386   1.587   1.680   2.007  0.8239 -1.2302  0.6017
  129SOL    HW2  387   1.747   1.708   2.042 -0.0933  0.5325 -0.9981
  130SOL     OW  388   1.704   2.156   1.651 -0.5637  0.0209  0.7127
  130SOL    HW1  389   1.664   2.067   1.614 -0.9634  0.9623 -0.1552
  130SOL    HW2  390   1.715   2.222   1.571  3.2485  1.9308 -1.2299
  131SOL     OW  391   0.002   2.299   1.903 -0.0379 -0.0844 -0.6737
  131SOL    HW1  392   0.007   2.205   1.867 -0.9990  1.4819  0.5745
  131SOL    HW2  393   2.998   2.322   1.962 -1.9484 -0.2817 -0.1530
  132SOL     OW  394   2.930   2.023   0.928  0.0481 -0.4742  0.0003
  132SOL    HW1  395   3.001   1.993   0.856  0.1828 -0.9961  0.1147
  132SOL    HW2  396   2.947   1.979   1.017  0.7043  0.6432 -0.2605
  133SOL     OW  397   0.346   0.671   1.696 -0.4629 -0.2719 -0.2784
  133SOL    HW1  398   0.386   0.622   1.618 -1.0682  0.3518  0.4395
  133SOL    HW2  399   0.418   0.692   1.766 -1.7853  0.9275  0.0750
  134SOL     OW  400   2.472   1.641   0.177 -0.2316 -0.3217  0.1729
  134SOL    HW1  401   2.469   1.611   0.272  2.7761  1.6104 -1.2377
  134SOL    HW2  402   2.445   1.736   0.163 -0.4411 -0.3642 -0.6459
  135SOL     OW  403   1.744   0.969   2.487 -0.0552  0.3819  0.0440
  135SOL    HW1  404   1.809   0.914   2.430 -2.0892  1.5220  3.1669
  135SOL    HW2  405   1.678   0.902   2.530 -3.5670  0.5443  1.8196
  136SOL     OW  406   2.547   1.773   1.219 -0.4351  0.1071 -0.0342
  136SOL    HW1  407   2.493   1.819   1.149  1.0337 -2.3697 -0.5181
  136SOL    HW2  408   2.500   1.760   1.308  0.0506 -0.6659 -0.2506
  137SOL     OW  409   2.399   1.824   0.603 -0.0972  0.6357 -0.7811
  137SOL    HW1  410   2.408   1.771   0.695 -2.6048  1.5210  2.9852
  137SOL    HW2  411   2.434   1.920   0.608  1.0360 -0.9481 -0.4484
  138SOL     OW  412   2.861   0.675   0.708 -0.2149 -0.2403 -0.5922
  138SOL    HW1  413   2.881   0.701   0.807  4.6343  2.7398  0.7760
  138SOL    HW2  414   2.781   0.732   0.682  0.0810  0.6837 -1.1628
  139SOL     OW  415   2.881   2.690   0.221 -0.1663 -0.7587  0.1015
  139SOL    HW1  416   2.795   2.696   0.166 -0.3753 -1.6544  0.0217
  139SOL    HW2  417   2.901   2.770   0.286  0.7368  2.2107  1.2445
  140SOL     OW  418   0.927   1.391   1.173 -0.3620  0.5627 -0.6544
  140SOL    HW1  419   0.942   1.290   1.189 -0.9795  1.2632 -0.3924
  140SOL    HW2  420   0.828   1.412   1.186  1.1097  0.5713  1.2168
  141SOL     OW  421   1.427   1.769   0.822 -0.5794 -0.3707  0.0278
  141SOL    HW1  422   1.409   1.863   0.858 -0.2209  2.3311  0.9226
  141SOL    HW2  423   1.384   1.701   0.884 -2.5192  0.6995 -3.7669
  142SOL     OW  424   1.014   0.445   1.011 -0.1234  0.2843 -0.1663
  142SOL    HW1  425   0.915   0.422   0.999  0.7836  3.2947  1.1976
  142SOL    HW2  426   1.017   0.510   1.092 -0.2791  2.8693  3.4171
  143SOL     OW  427   0.562   1.098   2.296  0.0845  0.2720 -0.6580
  143SOL    HW1  428   0.521   1.039   2.364  0.6719  0.3701  0.6674
  143SOL    HW2  429   0.651   1.132   2.332 -0.1286  1.6019  0.3590
  144SOL     OW  430   2.420   2.821   0.470  0.6145  0.1549  0.6664
  144SOL    HW1  431   2.518   2.812   0.457  2.4287 -0.2478  0.3424
  144SOL    HW2  432   2.391   2.843   0.568 -1.4307  2.4417  3.4537
  145SOL     OW  433   2.017   0.158   2.664  0.4279 -0.1340 -0.4859
  145SOL    HW1  434   2.045   0.136   2.761  0.7788 -2.6144 -0.0384
  145SOL    HW2  435   1.995   0.257   2.649 -0.1062 -2.4635 -0.3955
  146SOL     OW  436   2.974   2.891   0.428  0.0699  0.6118  0.4555
  146SOL    HW1  437   3.061   2.845   0.391  1.5051 -1.0619  1.1679
  146SOL    HW2  438   2.988   2.911   0.526  0.0362  2.9900 -1.3508
  147SOL     OW  439   1.032   0.944   2.610  0.6674 -0.2365 -0.2131
  147SOL    HW1  440   0.990   0.865   2.554 -1.1730 -2.3116 -3.2472
  147SOL    HW2  441   1.107   0.985   2.551  3.8709 -0.1074 -0.2023
  148SOL     OW  442   1.488   2.975   2.692  0.2981 -0.2018  0.3509
  148SOL    HW1  443   1.583   2.942   2.702  1.1629  0.7977 -0.8450
  148SOL    HW2  444   1.457   3.044   2.760 -0.6943  1.7530 -0.1553
  149SOL     OW  445   1.312   3.069   1.924 -0.2580 -0.1281 -0.0502
  149SOL    HW1  446   1.262   0.007   2.011  2.8323  0.3602  2.5797
  149SOL    HW2  447   1.366   0.074   1.907 -1.3181  0.0278  3.3555
  150SOL     OW  448   2.199   2.725   2.972  0.2205 -0.1173  0.0264
  150SOL    HW1  449   2.126   2.673   2.929  0.5917  2.0520  0.5116
  150SOL    HW2  450   2.248   2.673   3.045  1.8888 -0.0066  1.5420
  151SOL     OW  451   0.673   1.496   2.916  0.0160  0.5447 -0.3691
  151SOL    HW1  452   0.581   1.450   2.926 -1.6377 -0.7033  0.0111
  151SOL    HW2  453   0.751   1.429   2.908  1.8200 -2.1076 -1.2415
  152SOL     OW  454   0.458   0.092   1.466 -0.2631  0.6937  0.1066
  152SOL    HW1  455   0.367   0.061   1.440  4.1623  1.8769 -1.1462
  152SOL    HW2  456   0.512   0.022   1.512  0.7547 -0.6310 -2.9208
  153SOL     OW  457   2.396   2.706   1.684  0.1825 -0.5624  0.6948
  153SOL    HW1  458   2.491   2.707   1.722  1.5689 -3.9678  1.8799
  153SOL    HW2  459   2.329   2.702   1.764  0.2622  0.0062 -0.9222
  154SOL     OW  460   2.472   3.024   2.482  0.7306 -0.2636 -0.6361
  154SOL    HW1  461   2.397   0.007   2.520 -0.9738 -1.7723  2.6866
  154SOL    HW2  462   2.559   3.075   2.482 -0.8787  1.0424  0.6971
  155SOL     OW  463   0.201   1.245   0.487  0.4089  0.6476 -0.1890
  155SOL    HW1  464   0.115   1.248   0.536  2.5932 -2.3709  2.4488
  155SOL    HW2  465   0.200   1.313   0.408 -2.0181 -0.1421 -1.0181
  156SOL     OW  466   2.731   1.861   0.806  0.0643 -0.5836 -0.5290
  156SOL    HW1  467   2.788   1.921   0.869  2.4376  0.1210  2.7769
  156SOL    HW2  468   2.791   1.834   0.730 -0.7737  1.4303  2.3115
  157SOL     OW  469   0.759   0.468   0.651 -0.1660 -0.0652 -0.2159
  157SOL    HW1  470   0.733   0.378   0.615  0.6004  1.1788 -0.7794
  157SOL    HW2  471   0.858   0.473   0.667 -1.1499 -1.0035 -1.9917
  158SOL     OW  472   1.811   1.136   1.158  0.2628  0.4149 -0.0553
  158SOL    HW1  473   1.773   1.072   1.086 -1.1452  0.9276 -2.1312
  158SOL    HW2  474   1.730   1.177   1.196  3.6448 -2.0736 -2.8231
  159SOL     OW  475   3.058   0.549   0.214 -0.0349  0.8021  0.4335
  159SOL    HW1  476   0.010   0.602   0.294 -0.8703 -3.0508 -0.0052
  159SOL    HW2  477   0.017   0.456   0.218  1.0161 -0.7214  1.6208
  160SOL     OW  478   2.094   2.014   1.922  0.1091 -0.2723 -0.0482
  160SOL    HW1  479   2.083   2.066   2.009 -1.5239  0.2114 -1.8643
  160SOL    HW2  480   2.076   2.075   1.838  3.8443 -1.4748 -1.3389
  161SOL     OW  481   0.385   0.920   2.859  0.3785 -0.2269 -0.0880
  161SOL    HW1  482   0.445   0.843   2.840 -2.4393  3.7910  0.8071
  161SOL    HW2  483   0.290   0.908   2.820 -3.1329  1.1989  0.6919
  162SOL     OW  484   0.801   0.239   1.907  0.0476 -0.2841 -0.0921
  162SOL    HW1  485   0.808   0.136   1.894 -0.5613 -2.0299 -1.2327
  162SOL    HW2  486   0.756   0.287   1.829 -3.8159 -0.0471  0.5055
  163SOL     OW  487   2.861   2.896   2.501  0.2409 -0.2068  0.2743
  163SOL    HW1  488   2.793   2.971   2.470  1.7717  0.5120  0.1705
  163SOL    HW2  489   2.862   2.821   2.437 -1.1249  2.1789 -0.6457
  164SOL     OW  490   2.118   1.998   0.415  0.6945 -0.1489 -0.0888
  164SOL    HW1  491   2.176   1.915   0.402  0.0597 -0.4936  1.9597
  164SOL    HW2  492   2.170   2.086   0.395  0.3290 -1.5588  0.0357
  165SOL     OW  493   0.480   0.216   1.202 -0.1866  0.3377  0.0870
  165SOL    HW1  494   0.478   0.173   1.108  1.4296 -0.2327  2.5452
  165SOL    HW2  495   0.491   0.146   1.275  0.4507  1.0064 -1.7204
  166SOL     OW  496   2.564   0.486   0.651  0.1221 -0.2623  0.6590
  166SOL    HW1  497   2.628   0.491   0.572 -0.7376  2.5527  2.7048
  166SOL    HW2  498   2.469   0.498   0.614  0.7159  1.4779 -0.4254
  167SOL     OW  499   2.352   0.946   0.237  0.6356 -0.2715 -0.5444
  167SOL    HW1  500   2.375   0.858   0.196  0.4029  3.2218 -0.7165
  167SOL    HW2  501   2.302   1.001   0.166  0.9150 -1.1871 -3.3741
  168SOL     OW  502   1.519   3.022   2.413 -0.4721 -0.0261  0.2611
  168SOL    HW1  503   1.495   2.927   2.381 -0.5322 -3.5769 -2.0145
  168SOL    HW2  504   1.489   3.028   2.512  0.1505  3.2967 -1.3153
  169SOL     OW  505   0.715   1.918   0.663  0.0383 -0.8505  0.0079
  169SOL    HW1  506   0.638   1.985   0.649 -1.9502 -1.7846  2.3911
  169SOL    HW2  507   0.761   1.950   0.751 -0.5351 -2.6044  0.5187
  170SOL     OW  508   2.912   1.078   1.380 -0.0387  0.7797 -0.2099
  170SOL    HW1  509   2.974   1.103   1.456 -0.3083 -1.6953 -0.6876
  170SOL    HW2  510   2.872   0.987   1.408 -1.2727 -0.3649  0.0567
  171SOL     OW  511   2.830   1.447   2.441  0.3489 -0.2552  0.4301
  171SOL    HW1  512   2.861   1.352   2.443 -0.4874  5.5958  1.6460
  171SOL    HW2  513   2.770   1.457   2.360  1.6294 -3.8933 -0.0709
  172SOL     OW  514   0.917   1.648   1.254  0.1219 -0.1496  0.1353
  172SOL    HW1  515   0.839   1.680   1.195  0.2585 -2.0949 -0.5434
  172SOL    HW2  516   0.941   1.550   1.225 -2.0710  0.2848 -1.5544
  173SOL     OW  517   1.950   1.935   0.030 -0.0199  0.1211 -0.3642
  173SOL    HW1  518   1.861   1.932   0.079  0.5127  2.5098 -0.9799
  173SOL    HW2  519   2.027   1.903   0.090  1.0143 -0.4471  2.4350
  174SOL     OW  520   1.810   0.662   2.709 -0.4065 -0.4424  0.2897
  174SOL    HW1  521   1.842   0.581   2.759  1.4562 -1.0170 -0.7934
  174SOL    HW2  522   1.815   0.748   2.760  1.3046 -1.5306 -1.5751
  175SOL     OW  523   1.206   1.373   1.114 -0.6627  0.1138 -0.3055
  175SOL    HW1  524   1.107   1.366   1.128  1.8776 -1.7957 -2.3628
  175SOL    HW2  525   1.257   1.335   1.197 -0.8943 -0.3179 -0.9047
  176SOL     OW  526   1.136   0.217   0.236 -0.0143  0.2690  0.0518
  176SOL    HW1  527   1.204   0.205   0.161 -1.6055  2.7080 -0.3486
  176SOL    HW2  528   1.141   0.312   0.276  3.6598 -0.6803 -0.0192
  177SOL     OW  529   0.078   1.341   0.103 -0.0137 -0.1431  0.5637
  177SOL    HW1  530   0.152   1.372   0.161  0.6550  0.8218 -1.3152
  177SOL    HW2  531   0.123   1.278   0.035  2.0883 -0.9331  0.5187
  178SOL     OW  532   2.980   2.475   2.583 -0.4352  0.1723  0.3655
  178SOL    HW1  533   2.973   2.448   2.680 -2.2673  0.3563 -2.6413
  178SOL    HW2  534   3.071   2.501   2.553 -0.4227  0.8110 -1.9757
  179SOL     OW  535   2.697   2.486   2.567 -0.2171  0.4441  0.0924
  179SOL    HW1  536   2.668   2.516   2.476  0.3564 -2.0354 -0.8530
  179SOL    HW2  537   2.797   2.491   2.575 -2.3697  3.5497 -1.4290
  180SOL     OW  538   2.269   0.727   1.102  0.1810  0.2431 -0.0690
  180SOL    HW1  539   2.222   0.738   1.188 -0.7672  0.7500 -0.6980
  180SOL    HW2  540   2.370   0.717   1.112  0.5116 -2.0393 -0.1760
  181SOL     OW  541   2.327   0.436   2.453  0.1746 -0.2310 -0.0919
  181SOL    HW1  542   2.367   0.412   2.544  1.2708 -2.7816 -0.7140
  181SOL    HW2  543   2.254   0.375   2.422 -0.3185 -0.2502  2.1655
  182SOL     OW  544   2.468   2.363   2.339 -0.3946 -0.1929  0.1810
  182SOL    HW1  545   2.395   2.402   2.398  2.4283  0.0443  2.3712
  182SOL    HW2  546   2.538   2.431   2.307  1.2306  1.7532  0.4896
  183SOL     OW  547   2.150   0.732   1.965 -0.4990 -0.2718  0.4690
  183SOL    HW1  548   2.243   0.762   1.992 -1.0195 -1.0224  0.5845
  183SOL    HW2  549   2.106   0.801   1.901  1.4226  1.6140 -0.5131
  184SOL     OW  550   0.483   1.533   0.924  0.4559 -0.5294  0.0625
  184SOL    HW1  551   0.581   1.559   0.944  1.2767 -0.8315 -0.1297
  184SOL    HW2  552   0.452   1.464   0.994  1.0341 -1.6994  0.6967
  185SOL     OW  553   2.870   0.065   0.727 -0.4939 -0.0693  0.1680
  185SOL    HW1  554   2.780   0.110   0.747 -0.6582 -2.3369 -1.4901
  185SOL    HW2  555   2.916   0.113   0.649 -0.7401 -3.1406  1.2452
  186SOL     OW  556   2.257   2.389   2.474  0.1263  0.0930  0.0294
  186SOL    HW1  557   2.180   2.340   2.525 -1.0797  1.0969  1.3329
  186SOL    HW2  558   2.281   2.473   2.528 -0.3175 -0.3072 -0.3223
  187SOL     OW  559   0.886   1.692   0.768  1.0625 -0.7162  0.3161
  187SOL    HW1  560   0.965   1.647   0.722  0.4502 -0.4797 -2.5261
  187SOL    HW2  561   0.855   1.770   0.712 -0.0304 -0.3012  0.6686
  188SOL     OW  562   2.149   1.533   0.708 -0.4555  0.2461  0.0286
  188SOL    HW1  563   2.189   1.443   0.726 -0.2867  1.5919  0.1736
  188SOL    HW2  564   2.096   1.536   0.620  0.7723 -2.5287  1.9545
  189SOL     OW  565   0.029   1.477   2.812  0.0241 -0.0156  0.3888
  189SOL    HW1  566   0.076   1.528   2.887 -1.0047 -0.0996 -1.4226
  189SOL    HW2  567   0.091   1.403   2.776  2.3572 -0.2200 -2.7644
  190SOL     OW  568   2.254   0.340   2.031  0.0020  0.3943 -0.3419
  190SOL    HW1  569   2.162   0.369   2.052  1.6252 -1.1268  0.5030
  190SOL    HW2  570   2.282   0.259   2.089  0.7461 -1.6555 -0.1963
  191SOL     OW  571   1.064   0.314   2.235 -0.1306  0.5487  0.1608
  191SOL    HW1  572   1.122   0.237   2.192 -0.8010 -1.9240  0.7355
  191SOL    HW2  573   1.036   0.277   2.325 -1.5261 -0.2934 -0.2290
  192SOL     OW  574   1.054   1.472   1.744 -0.0321  0.0022  0.5110
  192SOL    HW1  575   1.142   1.425   1.771 -1.3782 -1.0596  0.0296
  192SOL    HW2  576   1.062   1.540   1.662 -1.2993  0.5491 -0.7514
  193SOL     OW  577   1.126   2.973   0.694 -0.2849  0.1462 -0.2251
  193SOL    HW1  578   1.214   2.983   0.638  2.9492 -1.4684  0.5611
  193SOL    HW2  579   1.117   2.877   0.718  0.1213  2.3068 -3.4736
  194SOL     OW  580   0.538   1.882   1.990  0.1395 -0.4711  0.1487
  194SOL    HW1  581   0.513   1.969   2.031  1.4650 -2.1568 -0.3624
  194SOL    HW2  582   0.587   1.904   1.907  1.6372  1.8630  0.6041
  195SOL     OW  583   2.304   0.541   0.546 -0.0618  0.0497 -0.2723
  195SOL    HW1  584   2.272   0.562   0.451  0.7630 -0.8201 -0.7460
  195SOL    HW2  585   2.235   0.588   0.608 -1.2808  2.0825  0.5060
  196SOL     OW  586   1.100   1.256   2.064  0.1662  0.4602  0.1854
  196SOL    HW1  587   1.170   1.288   1.994  1.7982 -0.6421 -1.6019
  196SOL    HW2  588   1.002   1.245   2.031 -1.8322  0.2877 -2.6150
  197SOL     OW  589   0.003   0.404   1.849 -0.5765  0.1723 -0.4831
  197SOL    HW1  590   3.032   0.349   1.915  2.7562  1.7362 -1.9072
  197SOL    HW2  591   0.064   0.474   1.898 -0.8433  3.1334 -0.3560
  198SOL     OW  592   0.579   1.033   1.133  0.7392 -0.3245 -0.5512
  198SOL    HW1  593   0.660   0.988   1.096  0.2090  0.7563  1.6908
  198SOL    HW2  594   0.492   0.977   1.136  0.2666  0.9150  0.5267
  199SOL     OW  595   0.212   2.405   0.957  0.0592  0.1082  0.7050
  199SOL    HW1  596   0.270   2.484   0.920  0.4138  1.5220 -0.8572
  199SOL    HW2  597   0.136   2.437   1.012 -2.1616 -0.3911  1.8346
  200SOL     OW  598   1.487   1.696   2.686 -0.3135  0.7768 -0.3218
  200SOL    HW1  599   1.467   1.604   2.719 -0.3172  2.2023  0.7023
  200SOL    HW2  600   1.554   1.742   2.748  1.0954  3.5397 -1.8441
  201SOL     OW  601   0.524   2.506   1.659  0.0580 -0.3510 -0.1291
  201SOL    HW1  602   0.595   2.524   1.587  0.9311  0.1591 -2.8283
  201SOL    HW2  603   0.498   2.407   1.661  0.6721 -0.1629 -0.1481
  202SOL     OW  604   1.337   0.032   2.907  0.6668  0.0694  0.2768
  202SOL    HW1  605   1.248   3.068   2.928 -0.0096 -1.3278 -0.1534
  202SOL    HW2  606   1.344   0.130   2.942  2.0594  0.1367  0.7994
  203SOL     OW  607   1.486   0.507   2.319  0.0318 -0.3155  0.0209
  203SOL    HW1  608   1.440   0.448   2.251 -1.8766 -0.0265  0.7100
  203SOL    HW2  609   1.583   0.476   2.344  2.6545  0.9290  1.3582
  204SOL     OW  610   0.730   1.099   1.340  0.8230 -0.4997 -0.1517
  204SOL    HW1  611   0.713   1.129   1.436 -1.0041 -1.6793  2.0358
  204SOL    HW2  612   0.643   1.075   1.290 -1.1977 -0.0099  2.5159
  205SOL     OW  613   2.144   0.883   2.705  0.2584  0.4866 -0.4377
  205SOL    HW1  614   2.124   0.791   2.739 -0.1625 -2.0501  1.8406
  205SOL    HW2  615   2.110   0.887   2.609 -0.6807 -1.6925 -1.9243
  206SOL     OW  616   0.537   1.730   2.874 -0.0536  0.0924 -0.2976
  206SOL    HW1  617   0.605   1.660   2.904 -0.8047 -0.4112  0.9401
  206SOL    HW2  618   0.534   1.735   2.773 -1.8211  0.1956  2.2936
  207SOL     OW  619   0.431   0.211   1.953  0.1421  0.2696 -0.0268
  207SOL    HW1  620   0.422   0.315   1.947  1.1057  2.2962  0.3688
  207SOL    HW2  621   0.393   0.172   1.870 -0.3219  0.5063  0.2477
  208SOL     OW  622   0.703   2.638   1.428  0.1322  0.1650 -0.5746
  208SOL    HW1  623   0.617   2.677   1.386  0.8361  0.1191  3.4684
  208SOL    HW2  624   0.752   2.568   1.371 -0.1429 -0.4139 -0.8114
  209SOL     OW  625   1.193   2.678   0.007 -0.3492 -0.1211 -0.4904
  209SOL    HW1  626   1.137   2.623   0.072 -2.1457  1.3828  1.3427
  209SOL    HW2  627   1.141   2.752   3.038 -1.2846  0.6845 -2.1136
  210SOL     OW  628   2.842   1.344   1.789 -0.2431 -0.4156 -0.8388
  210SOL    HW1  629   2.788   1.424   1.749 -1.9826  0.2961  2.3428
  210SOL    HW2  630   2.789   1.259   1.772  0.1499 -1.5676 -0.4505
  211SOL     OW  631   1.127   0.103   1.757 -0.3092 -0.4535 -0.2033
  211SOL    HW1  632   1.149   0.202   1.775  1.4628  2.1641 -0.9411
  211SOL    HW2  633   1.184   0.050   1.816 -0.7333  1.8494 -1.7518
  212SOL     OW  634   1.018   2.100   1.543 -0.2611  0.0785 -0.3734
  212SOL    HW1  635   0.970   2.183   1.580 -0.8580 -1.2639  1.7389
  212SOL    HW2  636   1.111   2.104   1.581 -2.4345  0.9127  0.0068
  213SOL     OW  637   2.396   0.280   1.811  0.0984  0.1670  0.8275
  213SOL    HW1  638   2.479   0.342   1.812  1.7208  0.6676  0.6551
  213SOL    HW2  639   2.341   0.313   1.890  2.3605  1.4514  1.1142
  214SOL     OW  640   0.660   1.913   1.739 -0.3678 -0.2363  0.3856
  214SOL    HW1  641   0.758   1.886   1.724 -1.2074  0.1688  0.3579
  214SOL    HW2  642   0.653   2.017   1.734 -1.2866  0.4768 -0.2123
  215SOL     OW  643   2.785   1.774   1.341 -0.7069 -0.3551 -0.0334
  215SOL    HW1  644   2.705   1.765   1.277  2.1147  0.6654 -0.6569
  215SOL    HW2  645   2.759   1.858   1.397 -1.4929 -0.5967  0.2949
  216SOL     OW  646   3.004   0.806   1.415  0.3325 -0.0501  0.6073
  216SOL    HW1  647   3.073   0.874   1.383  1.2350  1.0584 -1.1785
  216SOL    HW2  648   3.039   0.735   1.484 -0.4009 -0.6849 -2.7532
  217SOL     OW  649   2.620   0.147   1.389 -0.3094  0.0667 -0.0771
  217SOL    HW1  650   2.687   0.184   1.327 -0.7513  1.0920 -1.2171
  217SOL    HW2  651   2.546   0.213   1.410 -0.7479 -0.2315  3.6276
  218SOL     OW  652   1.412   2.273   1.177 -0.1455 -0.1591 -0.2966
  218SOL    HW1  653   1.461   2.183   1.191 -0.9451 -0.6230  1.4525
  218SOL    HW2  654   1.439   2.307   1.082  0.7762  2.7517  0.5138
  219SOL     OW  655   1.665   2.296   0.184  0.3754  0.5798  0.7074
  219SOL    HW1  656   1.675   2.397   0.174  0.1959 -2.1591  0.2498
  219SOL    HW2  657   1.753   2.252   0.207  0.3740  1.8305  3.5913
  220SOL     OW  658   1.776   2.535   3.046  0.8064 -0.1678 -0.1367
  220SOL    HW1  659   1.717   2.574   0.039  0.8291  1.2938 -3.3020
  220SOL    HW2  660   1.857   2.501   0.013 -1.4313  2.6174 -1.7293
  221SOL     OW  661   0.020   1.942   1.144  0.3315 -0.1917  0.4242
  221SOL    HW1  662   0.113   1.924   1.104  1.3542 -0.1561  1.3231
  221SOL    HW2  663   3.072   1.862   1.204  0.1548 -1.3801  0.1968
  222SOL     OW  664   1.489   2.343   0.915  0.3820  0.1083 -0.3575
  222SOL    HW1  665   1.545   2.415   0.866  1.3950  1.0314 -0.4962
  222SOL    HW2  666   1.432   2.288   0.854 -0.7772  0.1911  0.2834
  223SOL     OW  667   0.687   2.698   2.422  0.0741 -0.5828 -0.2917
  223SOL    HW1  668   0.704   2.617   2.486 -3.1356 -0.9377  0.9531
  223SOL    HW2  669   0.742   2.679   2.339 -0.6165 -2.4267  0.1278
  224SOL     OW  670   0.141   1.640   1.164 -0.0040 -0.3999  0.0994
  224SOL    HW1  671   0.069   1.655   1.236 -1.2301  0.9340 -2.7921
  224SOL    HW2  672   0.229   1.689   1.178 -0.9418 -0.1527 -0.9832
  225SOL     OW  673   2.301   1.631   1.033  0.5287  0.4074  0.4314
  225SOL    HW1  674   2.393   1.586   1.050  1.0946 -1.5224  1.1739
  225SOL    HW2  675   2.268   1.601   0.939  0.7047 -2.1872 -2.3848
  226SOL     OW  676   1.328   2.709   0.444 -0.1088  0.2383  0.0127
  226SOL    HW1  677   1.229   2.702   0.419  0.5586  0.2346  1.8878
  226SOL    HW2  678   1.389   2.731   0.370 -3.2319  0.6152  2.2495
  227SOL     OW  679   1.460   1.101   1.574 -0.0311  0.7450  0.4486
  227SOL    HW1  680   1.381   1.160   1.548 -1.3654 -1.6068  0.0417
  227SOL    HW2  681   1.548   1.146   1.602 -0.5324  0.8077  0.5254
  228SOL     OW  682   1.351   0.632   2.012 -0.4167  0.2353  0.2357
  228SOL    HW1  683   1.409   0.713   2.038 -2.2107  1.0743 -1.1014
  228SOL    HW2  684   1.350   0.626   1.911 -0.7117  3.1883  1.6452
  229SOL     OW  685   2.856   0.759   2.633  0.1505  0.2667  0.0265
  229SOL    HW1  686   2.935   0.758   2.696  1.8290  0.2380  0.3785
  229SOL    HW2  687   2.817   0.852   2.631 -1.1041 -1.0500 -0.2416
  230SOL     OW  688   1.112   0.988   0.729  0.3226  0.0449  0.4944
  230SOL    HW1  689   1.130   0.889   0.743 -1.9964  1.2488 -0.2634
  230SOL    HW2  690   1.048   1.023   0.801 -2.8185  1.6386 -0.6943
  231SOL     OW  691   2.371   2.957   2.119  0.4706 -0.7485  0.6049
  231SOL    HW1  692   2.437   2.937   2.045 -2.2761  1.4797  1.0662
  231SOL    HW2  693   2.365   2.889   2.194 -1.1002  2.2371 -2.4574
  232SOL     OW  694   0.609   1.998   0.346 -0.5322  0.2984 -0.4018
  232SOL    HW1  695   0.665   1.912   0.347 -0.4005  3.5016 -2.0232
  232SOL    HW2  696   0.672   2.076   0.346  0.3306 -0.1206  0.3042
  233SOL     OW  697   0.988   2.306   2.393  0.6864 -0.7878  0.6867
  233SOL    HW1  698   1.056   2.248   2.435 -3.3534  1.9424  0.0093
  233SOL    HW2  699   1.035   2.395   2.370  0.6799 -0.3503 -1.5524
  234SOL     OW  700   0.951   1.194   1.685  0.1703 -0.0591  0.0383
  234SOL    HW1  701   0.938   1.198   1.787  3.8062 -1.8964 -0.2136
  234SOL    HW2  702   0.914   1.275   1.630 -0.2623  1.1334 -0.8795
  235SOL     OW  703   0.644   1.648   1.756  0.2137 -0.2506  0.0556
  235SOL    HW1  704   0.669   1.626   1.855 -0.5306  0.5500  1.8959
  235SOL    HW2  705   0.649   1.751   1.745 -3.6449 -0.9182  2.2437
  236SOL     OW  706   1.727   2.763   2.435 -0.6563 -0.0936  0.0054
  236SOL    HW1  707   1.627   2.765   2.422 -0.0777  1.2836 -0.7004
  236SOL    HW2  708   1.779   2.815   2.362  0.7139 -0.4932 -2.9197
  237SOL     OW  709   1.230   0.107   0.494  0.3220  0.6893 -0.5649
  237SOL    HW1  710   1.191   0.127   0.398  0.5059  0.2966 -2.8165
  237SOL    HW2  711   1.164   0.152   0.563  1.2320 -1.6672  1.7521
  238SOL     OW  712   1.494   0.618   2.760  0.5508  0.0117 -0.0610
  238SOL    HW1  713   1.503   0.517   2.744  0.3437  1.4147 -0.8055
  238SOL    HW2  714   1.554   0.647   2.837 -1.0683 -0.5215 -0.8787
  239SOL     OW  715   0.410   0.482   2.005  0.1497  0.2737  0.2413
  239SOL    HW1  716   0.463   0.560   1.959 -2.2198  1.3783  0.3616
  239SOL    HW2  717   0.465   0.440   2.081 -0.0423 -0.5587  0.6476
  240SOL     OW  718   2.185   2.543   0.646  0.0807 -0.6296 -0.0385
  240SOL    HW1  719   2.103   2.600   0.667 -0.3336  0.5434 -0.2442
  240SOL    HW2  720   2.171   2.445   0.671  2.8092 -1.5117  1.2116
  241SOL     OW  721   1.336   1.343   1.346 -0.1363 -0.1522 -0.5171
  241SOL    HW1  722   1.264   1.323   1.412  2.4176  0.9777 -1.3783
  241SOL    HW2  723   1.373   1.438   1.373  0.9324  2.5111 -2.4907
  242SOL     OW  724   0.107   0.611   0.788 -0.3343 -0.3871  0.1194
  242SOL    HW1  725   0.029   0.672   0.811 -2.3884  0.9031 -0.4234
  242SOL    HW2  726   0.177   0.668   0.740  1.7257  3.2484  1.4098
  243SOL     OW  727   0.414   0.559   1.461  0.1782 -0.0837 -0.0834
  243SOL    HW1  728   0.311   0.575   1.442 -4.1403  0.2670  0.0533
  243SOL    HW2  729   0.466   0.542   1.373 -0.8369 -0.4930 -2.2038
  244SOL     OW  730   1.205   0.461   0.042  0.5385  0.3509  0.3800
  244SOL    HW1  731   1.229   0.559   0.017  1.6429  1.9580 -0.4351
  244SOL    HW2  732   1.112   0.438   0.014  1.9500 -2.3178 -0.2430
  245SOL     OW  733   1.996   0.981   2.998 -0.5550 -0.0282  0.1896
  245SOL    HW1  734   1.970   1.050   2.927 -1.7363 -1.4463 -1.3838
  245SOL    HW2  735   1.982   1.014   0.011 -0.2131 -0.9138  0.0539
  246SOL     OW  736   3.028   0.943   2.124  0.2286  0.5193 -0.1419
  246SOL    HW1  737   2.937   0.900   2.096 -3.3182  2.6913 -1.9037
  246SOL    HW2  738   3.024   1.040   2.097  1.7669  0.6136 -1.7348
  247SOL     OW  739   0.541   2.946   2.316 -0.6875  0.4017 -0.0632
  247SOL    HW1  740   0.642   2.935   2.307 -0.9984 -3.1765  1.8704
  247SOL    HW2  741   0.494   2.864   2.285  1.8290  2.9767  0.3115
  248SOL     OW  742   0.513   1.598   2.364  0.6609  0.8325  0.2740
  248SOL    HW1  743   0.558   1.670   2.306  0.9540 -0.5119  1.3216
  248SOL    HW2  744   0.527   1.508   2.319  0.6337  0.1147  1.5126
  249SOL     OW  745   0.280   0.250   2.763 -0.3835  0.0902 -0.1935
  249SOL    HW1  746   0.299   0.179   2.694  1.0212  0.9374  1.2593
  249SOL    HW2  747   0.299   0.225   2.859  1.6864  1.4207  0.8021
  250SOL     OW  748   0.204   3.058   2.917  0.1553 -0.5454 -0.0953
  250SOL    HW1  749   0.115   3.029   2.879  0.9376  0.5703  2.1353
  250SOL    HW2  750   0.274   3.048   2.846 -1.5836  0.7863  1.9373
  251SOL     OW  751   0.286   1.550   0.743  0.4392  0.5186 -0.2630
  251SOL    HW1  752   0.219   1.608   0.792  1.4403  1.0503  0.7764
  251SOL    HW2  753   0.358   1.525   0.812 -0.7990 -2.3380 -0.8216
  252SOL     OW  754   1.538   2.696   2.032 -0.2345 -0.2466  0.0698
  252SOL    HW1  755   1.630   2.734   2.057  3.1028  1.7443 -0.3903
  252SOL    HW2  756   1.492   2.648   2.108 -0.3362 -0.8636  1.2852
  253SOL     OW  757   1.792   1.853   2.684 -0.2663 -0.2735  0.3773
  253SOL    HW1  758   1.741   1.831   2.596 -0.1863  1.2184  0.6874
  253SOL    HW2  759   1.727   1.883   2.757 -0.6949 -1.2848  0.2905
  254SOL     OW  760   0.362   1.511   1.764  0.6412 -0.3419 -0.5586
  254SOL    HW1  761   0.342   1.440   1.697  1.8548 -0.8779 -0.7419
  254SOL    HW2  762   0.462   1.522   1.785 -3.3694  1.4192 -0.9562
  255SOL     OW  763   0.887   0.154   1.613 -0.7043 -0.0380  0.0485
  255SOL    HW1  764   0.960   0.116   1.678 -0.6017  0.9349 -0.9178
  255SOL    HW2  765   0.855   0.241   1.645  2.1074 -0.1512 -0.0830
  256SOL     OW  766   3.054   2.210   1.209 -0.7344 -0.7285  0.2401
  256SOL    HW1  767   2.974   2.212   1.273 -1.7957  0.7744 -0.5918
  256SOL    HW2  768   3.064   2.121   1.161  2.1922  1.3486  0.3146
  257SOL     OW  769   0.075   2.677   0.044  0.1712 -0.1793  0.3101
  257SOL    HW1  770   0.091   2.733   0.129  0.1817 -0.0353  0.5714
  257SOL    HW2  771   0.071   2.575   0.061 -3.1439 -2.6156 -0.0343
  258SOL     OW  772   0.895   2.091   2.038  1.0459  0.4679  0.3122
  258SOL    HW1  773   0.923   1.997   2.004 -0.8633  1.9200  0.3266
  258SOL    HW2  774   0.973   2.157   2.028 -0.9439 -0.3513 -0.0931
  259SOL     OW  775   0.890   1.822   2.346 -0.7974  0.1397 -0.9442
  259SOL    HW1  776   0.873   1.917   2.317  1.6606 -3.0191 -0.6949
  259SOL    HW2  777   0.895   1.817   2.447  0.6180 -2.7886  3.1604
  260SOL     OW  778   2.380   0.846   2.297 -0.1470 -0.0698 -0.5981
  260SOL    HW1  779   2.306   0.794   2.346 -0.4435 -0.9474 -0.4767
  260SOL    HW2  780   2.369   0.836   2.195 -2.2439 -0.1853 -1.4210
  261SOL     OW  781   1.425   0.735   1.033 -0.1207 -0.1488 -0.2448
  261SOL    HW1  782   1.413   0.640   1.005  0.9175  1.3057  0.0329
  261SOL    HW2  783   1.332   0.782   1.049 -3.2610 -3.0180  0.2895
  262SOL     OW  784   2.098   2.249   2.658 -0.0611  0.2530  0.2032
  262SOL    HW1  785   2.161   2.233   2.734 -0.0217  0.4561 -2.9748
  262SOL    HW2  786   2.066   2.163   2.612  2.8040  2.2384  0.8754
  263SOL     OW  787   0.507   2.321   0.595  0.1660  0.0400  0.2234
  263SOL    HW1  788   0.482   2.418   0.615  0.7858  1.1959  0.1486
  263SOL    HW2  789   0.577   2.313   0.519  0.5166  1.2530  2.4385
  264SOL     OW  790   0.019   2.112   0.464 -0.0976  0.8002  0.1584
  264SOL    HW1  791   0.083   2.031   0.481  0.5069 -2.3554  0.8003
  264SOL    HW2  792   3.072   2.127   0.364  2.4036  0.5147 -0.5093
  265SOL     OW  793   0.538   1.172   0.193 -0.2190  0.2714 -0.4928
  265SOL    HW1  794   0.541   1.159   0.298  0.3778 -1.8795  3.7078
  265SOL    HW2  795   0.624   1.221   0.167 -0.1183  0.4052  0.3756
  266SOL     OW  796   0.619   1.959   2.450  0.0328  0.4787 -0.1085
  266SOL    HW1  797   0.542   2.025   2.455  1.2299  0.8156 -0.0345
  266SOL    HW2  798   0.701   2.001   2.409  2.9854 -2.1972 -0.7266
  267SOL     OW  799   1.855   0.625   2.443 -0.2365 -0.6909 -0.1016
  267SOL    HW1  800   1.830   0.629   2.548  2.1132  0.6095  3.1371
  267SOL    HW2  801   1.893   0.711   2.399  0.8151 -1.4139 -1.0967
  268SOL     OW  802   0.749   0.936   0.224 -0.2050  0.1026  0.5024
  268SOL    HW1  803   0.726   1.023   0.271  2.9295 -1.1068  2.7585
  268SOL    HW2  804   0.670   0.877   0.222  0.5844 -1.4790  0.1157
  269SOL     OW  805   2.405   2.012   2.395  0.4383 -0.6496  0.1220
  269SOL    HW1  806   2.469   1.988   2.470 -3.4338  1.3909 -2.3133
  269SOL    HW2  807   2.448   2.069   2.321 -0.8253 -0.2281 -1.4568
  270SOL     OW  808   1.615   1.835   2.902  0.1588 -0.4944 -0.7785
  270SOL    HW1  809   1.587   1.909   2.968 -1.9416  1.9031  2.0659
  270SOL    HW2  810   1.608   1.737   2.941  0.7242 -3.3721 -0.0817
  271SOL     OW  811   0.164   0.345   0.178 -0.2275 -0.1835 -0.2288
  271SOL    HW1  812   0.267   0.331   0.161  3.1680  1.9801  1.6836
  271SOL    HW2  813   0.111   0.301   0.103  2.2458  1.7402  2.0696
  272SOL     OW  814   2.718   0.458   0.415 -0.0062  0.3881  0.0236
  272SOL    HW1  815   2.807   0.449   0.470  0.4518 -0.0568  1.0613
  272SOL    HW2  816   2.689   0.554   0.417  1.3560 -1.3816 -1.7597
  273SOL     OW  817   0.546   2.954   1.613  0.1843  0.3738 -0.2828
  273SOL    HW1  818   0.578   2.970   1.711  4.0646  2.0246  3.1831
  273SOL    HW2  819   0.489   2.870   1.608  0.1139 -0.6985 -0.3591
  274SOL     OW  820   2.606   0.683   1.571  0.2815 -0.1754  0.5149
  274SOL    HW1  821   2.589   0.752   1.649 -2.5649  0.5216  2.3932
  274SOL    HW2  822   2.515   0.655   1.533  2.3594 -0.3580 -0.3992
  275SOL     OW  823   1.109   1.559   0.678 -0.0234 -0.2206  0.3053
  275SOL    HW1  824   1.116   1.503   0.598 -0.9102  4.1684 -0.9158
  275SOL    HW2  825   1.193   1.619   0.677  0.4132  1.9999  0.3724
  276SOL     OW  826   0.621   0.829   2.154  0.2369 -0.5485  0.0573
  276SOL    HW1  827   0.571   0.904   2.106  0.2627  0.8026 -1.4658
  276SOL    HW2  828   0.704   0.872   2.191 -3.1811  2.7448  0.6492
  277SOL     OW  829   0.952   2.549   2.030  0.2620 -0.7532  0.4565
  277SOL    HW1  830   0.857   2.509   2.019  2.1151  1.7772 -0.9103
  277SOL    HW2  831   1.022   2.474   2.008  2.3066 -2.9197 -0.5385
  278SOL     OW  832   1.913   2.861   1.935 -0.4933 -0.0316 -0.2750
  278SOL    HW1  833   1.883   2.876   1.839  1.0928  0.4414 -3.7560
  278SOL    HW2  834   1.986   2.933   1.944  0.0872  0.6855 -0.0486
  279SOL     OW  835   1.483   1.396   0.292  0.5102  0.2920  0.1136
  279SOL    HW1  836   1.437   1.451   0.220  2.3379 -0.9856  1.5545
  279SOL    HW2  837   1.505   1.449   0.376 -0.3491 -2.2454  0.6164
  280SOL     OW  838   1.162   1.106   0.143  0.2697  0.0872 -0.2048
  280SOL    HW1  839   1.105   1.179   0.100  1.8879  0.4605  0.8025
  280SOL    HW2  840   1.170   1.105   0.243  1.2252  2.1452  1.2926
  281SOL     OW  841   0.468   0.336   1.608  0.5246 -0.3645 -0.0827
  281SOL    HW1  842   0.451   0.422   1.554 -0.3550  1.1649 -1.7060
  281SOL    HW2  843   0.468   0.251   1.550  0.0196  3.3281 -1.4028
  282SOL     OW  844   0.097   2.519   0.555 -0.1431 -0.6695  0.3975
  282SOL    HW1  845   0.048   2.511   0.465 -1.4364  1.5115 -0.5618
  282SOL    HW2  846   0.071   2.436   0.608 -0.0799 -1.9865 -0.9825
  283SOL     OW  847   1.290   2.155   1.865  0.0503  0.0412  0.2140
  283SOL    HW1  848   1.291   2.052   1.871  0.1385 -0.1530  0.6417
  283SOL    HW2  849   1.378   2.191   1.893 -2.3804 -3.6899 -0.0827
  284SOL     OW  850   2.829   2.804   1.028  0.0834 -0.5110 -0.4524
  284SOL    HW1  851   2.762   2.880   1.008  0.1859  1.8652 -3.9397
  284SOL    HW2  852   2.863   2.809   1.123  1.4197  1.0803 -0.8840
  285SOL     OW  853   0.337   1.923   2.860 -0.3714 -0.3404 -0.2497
  285SOL    HW1  854   0.377   2.007   2.844 -1.6042 -3.4149  4.1978
  285SOL    HW2  855   0.406   1.850   2.859  0.7999  0.2145  0.4670
  286SOL     OW  856   0.151   2.793   0.929 -0.0741  0.3604 -0.4025
  286SOL    HW1  857   0.137   2.849   1.013 -0.1391 -0.8974  0.1867
  286SOL    HW2  858   0.061   2.759   0.891 -2.4478  1.0011 -1.0395
  287SOL     OW  859   0.560   1.202   0.455  0.5888 -0.2346  0.1095
  287SOL    HW1  860   0.659   1.225   0.456  2.3177  0.8714  1.0290
  287SOL    HW2  861   0.505   1.264   0.516  1.1780  0.2602 -1.2296
  288SOL     OW  862   2.055   1.892   2.864 -0.5131 -0.6730  0.6182
  288SOL    HW1  863   2.143   1.948   2.857  4.1406  3.7303  2.0742
  288SOL    HW2  864   1.997   1.924   2.944 -2.6426 -1.9126  1.5476
  289SOL     OW  865   0.142   1.902   3.049  0.0436  0.0073  0.2960
  289SOL    HW1  866   0.216   1.924   2.982 -0.4536  0.3711 -0.9878
  289SOL    HW2  867   0.126   1.803   3.054 -0.2083 -1.5758  0.7316
  290SOL     OW  868   1.395   1.611   1.369 -0.1079 -0.1297 -0.1310
  290SOL    HW1  869   1.327   1.683   1.342 -2.6633  0.4406 -0.5094
  290SOL    HW2  870   1.490   1.623   1.333  1.3993 -0.3107  0.6994
  291SOL     OW  871   1.315   1.205   2.843 -0.5687  0.3233  0.0508
  291SOL    HW1  872   1.220   1.235   2.808 -3.7300 -1.4304 -1.7209
  291SOL    HW2  873   1.302   1.130   2.911 -0.1295 -1.5576 -0.9462
  292SOL     OW  874   1.080   1.555   0.292  0.5468 -0.4729  0.9306
  292SOL    HW1  875   1.053   1.498   0.368 -0.4327  2.9421 -0.9702
  292SOL    HW2  876   1.021   1.545   0.207 -0.0374  0.2012 -0.3025
  293SOL     OW  877   1.643   0.003   0.703 -1.1088  0.3228  0.4190
  293SOL    HW1  878   1.568   0.031   0.773 -3.4303  0.8885  3.3552
  293SOL    HW2  879   1.603   0.006   0.607  2.3716  0.3605 -0.4916
  294SOL     OW  880   1.831   1.235   2.534 -0.4512  0.1959  0.0915
  294SOL    HW1  881   1.773   1.155   2.509 -1.0336  2.9276 -3.0613
  294SOL    HW2  882   1.771   1.314   2.545 -1.1853 -1.9091  0.4684
  295SOL     OW  883   1.705   1.927   0.157  0.3103  0.3852 -0.2334
  295SOL    HW1  884   1.640   1.983   0.103 -0.1061 -0.6587 -1.3963
  295SOL    HW2  885   1.762   1.979   0.229 -1.7767  0.7921  2.5670
  296SOL     OW  886   1.359   0.549   1.744  0.0362 -0.0433  0.4029
  296SOL    HW1  887   1.443   0.492   1.727  0.5423 -1.2787 -0.3980
  296SOL    HW2  888   1.321   0.596   1.664 -1.8800 -0.0266  0.0221
  297SOL     OW  889   2.773   0.682   1.955 -0.2321 -0.3825  0.3337
  297SOL    HW1  890   2.758   0.782   1.963 -0.8269 -2.2659 -1.5268
  297SOL    HW2  891   2.776   0.646   2.050  0.4544  0.7911 -0.5176
  298SOL     OW  892   0.931   1.637   1.529  0.3322 -0.1118 -0.4976
  298SOL    HW1  893   0.916   1.725   1.574 -0.2758  1.5691 -1.4226
  298SOL    HW2  894   0.922   1.645   1.428  1.8505  2.1120  1.4815
  299SOL     OW  895   1.196   0.033   2.576 -0.4397 -0.3652  0.2483
  299SOL    HW1  896   1.233   0.076   2.491  1.0999  0.2608 -2.1838
  299SOL    HW2  897   1.159   3.021   2.555  0.8517 -2.5180 -0.6912
  300SOL     OW  898   3.031   1.016   2.961 -0.3786 -0.0284 -0.4732
  300SOL    HW1  899   3.045   0.918   2.977 -1.3856  4.1247  2.6251
  300SOL    HW2  900   0.034   1.070   2.980 -0.0552 -1.0357  0.6192
  301SOL     OW  901   1.930   0.849   2.332  0.0622  0.8344  0.1067
  301SOL    HW1  902   1.957   0.786   2.253 -0.2156 -0.5722 -2.0774
  301SOL    HW2  903   2.006   0.911   2.360  2.5410 -1.2254  0.7654
  302SOL     OW  904   2.410   1.818   2.818 -0.3443 -0.2505 -0.2690
  302SOL    HW1  905   2.356   1.844   2.738  0.2334  2.0815 -1.1860
  302SOL    HW2  906   2.493   1.873   2.808  0.0986 -0.1781 -2.8514
  303SOL     OW  907   0.258   2.317   2.728 -0.1124  0.2155  0.2696
  303SOL    HW1  908   0.355   2.285   2.723 -0.4809 -0.6911  0.9835
  303SOL    HW2  909   0.203   2.250   2.785 -2.0928 -1.9563  1.4987
  304SOL     OW  910   0.344   1.773   1.303 -0.7896  0.4340  0.5106
  304SOL    HW1  911   0.308   1.741   1.394  1.6636 -2.1600  1.0639
  304SOL    HW2  912   0.446   1.780   1.317 -0.7659 -0.6649 -0.4802
  305SOL     OW  913   2.415   0.824   2.034  0.4508 -0.5656 -0.2865
  305SOL    HW1  914   2.438   0.726   2.048 -1.5790 -0.2962  0.8260
  305SOL    HW2  915   2.473   0.857   1.958  1.4523  1.3475  1.3114
  306SOL     OW  916   1.898   1.401   1.483 -0.3304 -0.2052 -0.0292
  306SOL    HW1  917   1.873   1.303   1.468 -3.4301  1.0326 -0.3342
  306SOL    HW2  918   1.982   1.406   1.537  3.2312 -2.3255 -0.1376
  307SOL     OW  919   3.032   0.398   0.870  0.4460  0.2679 -0.2854
  307SOL    HW1  920   2.952   0.442   0.823  1.4803  1.4048  1.2847
  307SOL    HW2  921   0.034   0.458   0.853  1.0663 -2.1951 -0.7744
  308SOL     OW  922   0.059   1.557   1.556 -0.6591  0.3445  0.1989
  308SOL    HW1  923   0.153   1.593   1.532 -0.9438  0.8593 -0.0067
  308SOL    HW2  924   0.065   1.489   1.631 -1.0174  0.1413  0.5084
  309SOL     OW  925   2.347   2.263   1.722 -0.2297  0.1094  0.1981
  309SOL    HW1  926   2.328   2.337   1.654  0.0163 -0.1634 -1.3960
  309SOL    HW2  927   2.321   2.292   1.816 -2.2807 -1.7477  2.0946
  310SOL     OW  928   2.197   1.288   2.736 -0.0479  0.2714  0.1821
  310SOL    HW1  929   2.188   1.370   2.792 -2.3097  0.1804 -0.8794
  310SOL    HW2  930   2.221   1.205   2.796  2.2682 -1.8313 -1.5585
  311SOL     OW  931   1.527   1.281   3.074 -0.1222 -0.2079 -0.2581
  311SOL    HW1  932   1.440   1.241   0.030  1.9383 -0.0166  0.0874
  311SOL    HW2  933   1.572   1.218   3.006  1.3176 -2.2237 -2.4199
  312SOL     OW  934   0.834   2.084   2.301 -0.0425 -0.2528 -0.0686
  312SOL    HW1  935   0.842   2.072   2.200  1.9146 -1.8856 -0.1453
  312SOL    HW2  936   0.875   2.168   2.340 -0.9364 -1.4230 -0.7053
  313SOL     OW  937   0.277   0.466   0.937 -0.1572  0.2085 -0.1930
  313SOL    HW1  938   0.213   0.537   0.904  1.7042  0.4469  0.4341
  313SOL    HW2  939   0.250   0.425   1.026  0.0217 -2.3937 -1.9606
  314SOL     OW  940   0.699   1.989   1.108  0.3653 -0.5823  0.1322
  314SOL    HW1  941   0.712   2.053   1.185  0.9329 -0.1562  1.3752
  314SOL    HW2  942   0.680   1.895   1.140 -1.6588  4.1566 -1.7399
  315SOL     OW  943   0.432   2.111   2.096 -0.7165  0.3529  0.3847
  315SOL    HW1  944   0.385   2.181   2.043 -0.9793 -1.2164 -0.3617
  315SOL    HW2  945   0.402   2.101   2.192  1.6482 -0.2982  1.7076
  316SOL     OW  946   0.360   2.555   0.654  0.0539  0.0271  0.1141
  316SOL    HW1  947   0.274   2.527   0.604 -2.9012  2.9644  1.7527
  316SOL    HW2  948   0.348   2.573   0.755 -1.7558 -1.6485 -0.1907
  317SOL     OW  949   2.756   3.057   1.567 -0.3499  0.0938  0.6486
  317SOL    HW1  950   2.704   0.057   1.532 -0.6437 -0.7897  0.2834
  317SOL    HW2  951   2.737   2.964   1.531 -0.3909  0.1596 -1.9549
  318SOL     OW  952   1.962   2.458   0.157  0.1370 -0.2979  0.1101
  318SOL    HW1  953   2.040   2.493   0.101  1.0176  1.8836  1.0353
  318SOL    HW2  954   1.965   2.489   0.256  2.9449  2.4221  1.5515
  319SOL     OW  955   1.452   1.100   2.605  0.4292 -0.1035  0.2817
  319SOL    HW1  956   1.460   1.143   2.698 -0.2203  0.0567 -0.6657
  319SOL    HW2  957   1.475   1.007   2.610  3.1956  1.1668 -3.0708
  320SOL     OW  958   0.089   2.342   2.245  0.2219 -0.2257  0.4854
  320SOL    HW1  959   0.123   2.292   2.163 -0.5377 -1.1022 -0.0778
  320SOL    HW2  960   3.074   2.317   2.278 -1.6134 -0.6229  1.7937
  321SOL     OW  961   0.686   2.352   0.155 -0.5455  0.2070  0.2427
  321SOL    HW1  962   0.759   2.409   0.113  1.6911 -0.2825  1.9746
  321SOL    HW2  963   0.594   2.380   0.120  2.2428 -0.9828 -0.7471
  322SOL     OW  964   2.525   0.632   2.379  0.0962  0.6310  0.1201
  322SOL    HW1  965   2.472   0.720   2.375  1.4227  2.3812  2.1359
  322SOL    HW2  966   2.462   0.550   2.382 -0.2887  0.8551 -0.6549
  323SOL     OW  967   2.749   1.467   0.712 -0.3109 -0.3560 -0.2469
  323SOL    HW1  968   2.810   1.475   0.786 -3.3431 -0.9554 -0.6885
  323SOL    HW2  969   2.751   1.371   0.673  1.9554 -0.8937 -1.3057
  324SOL     OW  970   0.141   0.511   1.412 -0.2508  0.1603 -0.1954
  324SOL    HW1  971   0.111   0.558   1.498 -1.1123 -0.0708  0.8776
  324SOL    HW2  972   0.075   0.440   1.386  2.1505  3.4971 -1.8687
  325SOL     OW  973   0.110   3.074   1.802 -0.5439 -0.2380  0.2356
  325SOL    HW1  974   0.056   3.069   1.713  1.9836 -0.6840  0.3042
  325SOL    HW2  975   0.168   0.079   1.805  0.6520 -0.1958  1.0594
  326SOL     OW  976   1.940   2.952   0.273  0.2129  0.2955  0.8531
  326SOL    HW1  977   2.024   2.944   0.213  2.2891  2.1468  0.3651
  326SOL    HW2  978   1.856   2.928   0.216  0.0517 -0.2611 -0.2304
  327SOL     OW  979   2.003   1.542   0.481  0.1768 -0.0394 -0.2363
  327SOL    HW1  980   1.977   1.640   0.486  2.5211  0.0067 -1.2809
  327SOL    HW2  981   1.939   1.493   0.412 -1.7288 -1.6051 -1.0736
  328SOL     OW  982   2.998   1.999   2.481 -0.3618 -0.3308 -0.9129
  328SOL    HW1  983   2.984   1.941   2.566  0.3102 -3.6771  2.9433
  328SOL    HW2  984   3.041   2.090   2.508 -1.2618  0.4114 -0.5542
  329SOL     OW  985   0.252   2.273   1.427 -0.3157  0.3680 -0.5372
  329SOL    HW1  986   0.282   2.305   1.333  1.3476 -1.1973 -0.5662
  329SOL    HW2  987   0.323   2.226   1.481  2.3361 -1.4291  0.6652
  330SOL     OW  988   2.376   1.322   2.458  0.1543  0.1603  0.2741
  330SOL    HW1  989   2.418   1.233   2.480 -1.0721  2.8206 -2.9218
  330SOL    HW2  990   2.274   1.310   2.473  0.8073  1.2411 -1.7799
  331SOL     OW  991   2.649   2.275   1.185 -0.2710  0.1023  0.1572
  331SOL    HW1  992   2.717   2.250   1.257 -0.6184  1.8873 -1.2690
  331SOL    HW2  993   2.650   2.372   1.162 -0.5854  2.4839 -1.2335
  332SOL     OW  994   0.645   2.931   0.774 -0.2228 -0.1361 -0.6765
  332SOL    HW1  995   0.593   2.957   0.855  2.5881  0.6850 -0.9286
  332SOL    HW2  996   0.738   2.897   0.799  0.6918 -1.9144  1.0426
  333SOL     OW  997   2.275   1.992   2.643  0.3485 -0.2689 -0.3410
  333SOL    HW1  998   2.174   1.982   2.625 -2.5139  1.9964  0.9506
  333SOL    HW2  999   2.320   2.017   2.553 -0.5661 -2.0118 -3.2122
  334SOL     OW 1000   0.714   1.264   0.721 -0.0602  0.6479 -0.4764
  334SOL    HW1 1001   0.622   1.289   0.699  1.8457 -1.3447 -0.8078
  334SOL    HW2 1002   0.751   1.321   0.797  2.2376 -1.6683  0.7386
  335SOL     OW 1003   2.761   2.130   2.405 -0.2419 -0.0061  0.0057
  335SOL    HW1 1004   2.846   2.075   2.421 -0.2184 -1.4540 -1.8834
  335SOL    HW2 1005   2.684   2.095   2.465  0.9269  2.0706 -1.7693
  336SOL     OW 1006   2.415   2.790   2.344  0.0752  0.2715 -0.2853
  336SOL    HW1 1007   2.434   2.869   2.409  1.1763  0.1225 -1.0641
  336SOL    HW2 1008   2.314   2.759   2.346 -3.4582  0.5589  0.9288
  337SOL     OW 1009   0.669   0.711   0.811 -0.3857 -0.0787 -0.2184
  337SOL    HW1 1010   0.720   0.628   0.781  1.1538 -0.4857  1.1166
  337SOL    HW2 1011   0.701   0.794   0.757  2.8281  1.7517 -2.6161
  338SOL     OW 1012   1.259   1.965   0.993 -0.3123  0.1233 -0.1651
  338SOL    HW1 1013   1.179   1.912   1.017  1.6169  1.2913  1.5094
  338SOL    HW2 1014   1.233   2.037   0.924  0.0662  2.4136  0.4155
  339SOL     OW 1015   0.249   1.773   1.565 -0.2107  0.0928  1.1679
  339SOL    HW1 1016   0.237   1.870   1.539 -0.5447 -0.6421 -2.0436
  339SOL    HW2 1017   0.231   1.770   1.663 -0.0248 -0.1670 -0.4094
  340SOL     OW 1018   1.266   2.595   1.730 -0.4979  0.6466  0.0976
  340SOL    HW1 1019   1.269   2.673   1.799  1.7046  2.6978  0.3100
  340SOL    HW2 1020   1.351   2.544   1.735 -0.4269  0.1146 -1.4775
  341SOL     OW 1021   1.608   1.666   1.215 -0.3885 -0.4491 -0.0228
  341SOL    HW1 1022   1.612   1.750   1.157 -1.9678 -0.9649  3.5766
  341SOL    HW2 1023   1.702   1.630   1.235 -1.6789 -0.5739 -0.6491
  342SOL     OW 1024   2.531   1.478   1.018 -0.1986  0.0515 -0.3794
  342SOL    HW1 1025   2.534   1.514   0.924  0.3350 -1.5675 -3.1587
  342SOL    HW2 1026   2.628   1.457   1.051 -0.8414 -0.8960 -0.5611
  343SOL     OW 1027   2.430   0.366   0.996 -0.4648 -0.1145  0.2429
  343SOL    HW1 1028   2.469   0.460   0.976 -0.7256 -0.4787 -1.2517
  343SOL    HW2 1029   2.349   0.345   0.933 -0.5931 -2.2796 -0.8075
  344SOL     OW 1030   2.337   0.226   0.448 -0.0868 -0.1434 -0.4124
  344SOL    HW1 1031   2.328   0.314   0.499  0.2675 -0.8084  0.9283
  344SOL    HW2 1032   2.401   0.167   0.498  2.5901 -0.9932  2.0829
  345SOL     OW 1033   0.764   2.788   1.833  0.5605 -0.7489 -0.1981
  345SOL    HW1 1034   0.734   2.699   1.863 -2.2859  0.2008 -1.3386
  345SOL    HW2 1035   0.809   2.787   1.742 -1.6576 -0.3856  0.0810
  346SOL     OW 1036   2.540   2.061   0.662 -0.1006  0.1716 -0.4970
  346SOL    HW1 1037   2.619   2.015   0.700 -1.3344  0.7489  3.1163
  346SOL    HW2 1038   2.506   2.142   0.711  3.7331  0.4457 -1.9430
  347SOL     OW 1039   2.577   2.778   1.224 -0.3990 -0.0030  0.2981
  347SOL    HW1 1040   2.480   2.753   1.214  4.1328  2.0222 -1.5571
  347SOL    HW2 1041   2.600   2.863   1.170 -2.6673  2.5067  0.5859
  348SOL     OW 1042   1.180   1.004   1.403 -0.0967 -0.6638  1.1375
  348SOL    HW1 1043   1.270   1.012   1.358 -1.1974  0.0187  0.1149
  348SOL    HW2 1044   1.138   0.916   1.384  2.7665 -2.4534  0.9871
  349SOL     OW 1045   2.197   0.666   2.379 -0.0172 -0.2598 -0.4157
  349SOL    HW1 1046   2.230   0.570   2.406  1.4265 -0.9721  2.5651
  349SOL    HW2 1047   2.130   0.662   2.309  2.0647  0.6533 -0.5354
  350SOL     OW 1048   1.946   2.519   0.443  0.5384 -0.1459 -0.0243
  350SOL    HW1 1049   2.012   2.590   0.415 -0.5202  0.0438 -0.3334
  350SOL    HW2 1050   1.968   2.479   0.531 -1.6982  0.4809 -2.5656
  351SOL     OW 1051   1.401   0.277   3.025 -0.2991 -0.4433 -0.4050
  351SOL    HW1 1052   1.475   0.313   2.964  0.9559  1.0854 -0.3959
  351SOL    HW2 1053   1.338   0.349   3.065 -1.0144 -0.0972  0.3491
  352SOL     OW 1054   1.940   2.595   2.248 -0.1938 -0.0102 -0.5042
  352SOL    HW1 1055   1.868   2.550   2.304 -1.6320  1.3931  0.2678
  352SOL    HW2 1056   1.912   2.608   2.149 -1.8565  2.0908  1.0052
  353SOL     OW 1057   0.651   0.908   2.619 -0.0938 -0.4296  0.2661
  353SOL    HW1 1058   0.568   0.899   2.559  0.2579 -1.5136  1.7733
  353SOL    HW2 1059   0.740   0.870   2.585 -0.8454 -0.6445  0.7644
  354SOL     OW 1060   0.422   2.813   2.598 -0.1539  0.7497  0.2946
  354SOL    HW1 1061   0.475   2.818   2.511  0.0241 -1.0703  0.7267
  354SOL    HW2 1062   0.469   2.753   2.664 -2.8554  0.0702 -2.0059
  355SOL     OW 1063   2.306   2.718   1.231  0.2002  0.6384  0.0227
  355SOL    HW1 1064   2.263   2.781   1.296  0.8619  1.1441 -1.0284
  355SOL    HW2 1065   2.323   2.626   1.265 -0.8054  0.5568 -1.3185
  356SOL     OW 1066   2.587   0.672   0.399  0.4432  0.1061 -0.3497
  356SOL    HW1 1067   2.641   0.752   0.439  0.0815 -2.1097 -0.3542
  356SOL    HW2 1068   2.549   0.695   0.306 -0.0969  3.5220 -0.6510
  357SOL     OW 1069   3.023   0.069   1.589  0.2237 -0.0583 -0.1019
  357SOL    HW1 1070   3.005   0.161   1.623  0.0768  1.1032  0.5351
  357SOL    HW2 1071   2.938   0.015   1.596  2.3140 -0.6789  2.5756
  358SOL     OW 1072   3.045   1.717   1.343 -0.4672 -0.0024 -0.2239
  358SOL    HW1 1073   3.061   1.650   1.423 -0.8074  0.6018  1.0498
  358SOL    HW2 1074   2.942   1.738   1.342 -0.8948  0.0912 -0.0329
  359SOL     OW 1075   2.420   2.848   2.684 -0.1956  0.7610  0.2693
  359SOL    HW1 1076   2.459   2.900   2.600 -2.1067 -0.6388 -1.7375
  359SOL    HW2 1077   2.432   2.906   2.767  3.6714  0.4388  3.0171
  360SOL     OW 1078   1.307   0.615   1.405  0.0526  0.0816  0.0516
  360SOL    HW1 1079   1.244   0.549   1.446 -0.3427  4.0049 -0.0629
  360SOL    HW2 1080   1.331   0.696   1.464  3.6280 -1.0635 -4.4934
  361SOL     OW 1081   2.583   2.423   1.475 -0.1215 -0.3235  0.0514
  361SOL    HW1 1082   2.577   2.385   1.571  1.4253 -0.8564 -0.1262
  361SOL    HW2 1083   2.681   2.457   1.464  1.8737 -1.2632 -0.4092
  362SOL     OW 1084   1.550   0.501   0.730 -0.5131  0.3549 -0.0882
  362SOL    HW1 1085   1.516   0.578   0.670  3.0853 -0.3728  1.0658
  362SOL    HW2 1086   1.496   0.417   0.697 -1.9253  3.3677  1.4843
  363SOL     OW 1087   1.681   1.344   0.974  0.0272  0.7607 -0.3375
  363SOL    HW1 1088   1.658   1.343   0.874 -2.3305 -0.3140  0.8712
  363SOL    HW2 1089   1.705   1.438   0.993 -1.5063  1.0440 -1.0228
  364SOL     OW 1090   0.233   0.897   1.786  0.7906  0.5544  0.3860
  364SOL    HW1 1091   0.281   0.818   1.742  0.5435  0.3593  2.3852
  364SOL    HW2 1092   0.151   0.925   1.737  0.9175 -1.6656  1.4326
  365SOL     OW 1093   2.943   0.750   0.956  0.2385  0.0328 -0.0772
  365SOL    HW1 1094   2.983   0.684   1.023 -0.4925  1.8494 -0.2354
  365SOL    HW2 1095   2.913   0.830   1.009  0.0141 -2.0025  0.1635
  366SOL     OW 1096   2.785   1.188   0.566 -0.2779  0.5343 -0.0756
  366SOL    HW1 1097   2.789   1.237   0.475 -0.8767 -1.1697 -0.9394
  366SOL    HW2 1098   2.872   1.141   0.594 -0.1490  1.4966 -0.5911
  367SOL     OW 1099   2.138   1.958   2.251 -0.4095 -0.2795  0.3097
  367SOL    HW1 1100   2.086   2.027   2.202  0.3734 -1.9570  2.8456
  367SOL    HW2 1101   2.228   1.989   2.290 -0.3702  1.5804 -0.6995
  368SOL     OW 1102   2.360   2.043   1.290  0.0298  0.0221 -0.1187
  368SOL    HW1 1103   2.406   2.012   1.379  0.1640 -1.5933 -0.0303
  368SOL    HW2 1104   2.383   1.981   1.208  1.0621 -0.0269 -1.1497
  369SOL     OW 1105   2.119   2.880   2.711 -0.9194 -0.4029 -0.3242
  369SOL    HW1 1106   2.097   2.907   2.620 -0.2743 -0.4544  2.5118
  369SOL    HW2 1107   2.220   2.869   2.725  1.6375  0.7068  0.3134
  370SOL     OW 1108   0.750   0.365   0.961  0.3662 -0.2618 -0.5776
  370SOL    HW1 1109   0.664   0.395   0.909 -2.9998  1.0770  0.2624
  370SOL    HW2 1110   0.764   0.267   0.944  0.3056  1.1839 -1.0264
  371SOL     OW 1111   0.385   1.599   0.258 -0.0137  0.2452 -0.1247
  371SOL    HW1 1112   0.357   1.614   0.164  0.9400 -0.2587  0.4336
  371SOL    HW2 1113   0.486   1.610   0.266  0.3074 -1.1137  3.2082
  372SOL     OW 1114   0.573   0.710   2.804  0.0414 -0.1945  0.8493
  372SOL    HW1 1115   0.541   0.624   2.756  0.1416 -0.3397 -0.2044
  372SOL    HW2 1116   0.593   0.788   2.737  1.6029  0.9059 -3.1048
  373SOL     OW 1117   1.099   2.896   2.924  0.1146  0.1209 -0.5089
  373SOL    HW1 1118   1.000   2.912   2.903  1.4583  0.2535 -1.6378
  373SOL    HW2 1119   1.147   2.856   2.840  0.2765  1.0345  1.1563
  374SOL     OW 1120   1.083   1.795   0.445  0.2798  0.3918  0.2409
  374SOL    HW1 1121   1.139   1.757   0.522 -0.3563  0.1605  1.9125
  374SOL    HW2 1122   1.075   1.734   0.363  3.1177  3.5005 -0.1013
  375SOL     OW 1123   0.585   0.683   1.912 -0.0995  0.4218  0.5165
  375SOL    HW1 1124   0.590   0.729   2.002 -1.1777 -0.8902  0.9173
  375SOL    HW2 1125   0.678   0.645   1.890 -0.5885 -1.2864 -1.4524
  376SOL     OW 1126   0.046   2.433   1.505  0.2978 -0.2949  0.2305
  376SOL    HW1 1127   0.096   2.358   1.458 -1.5760 -0.3914 -0.4237
  376SOL    HW2 1128   0.092   2.446   1.594 -1.1366 -0.2005 -1.2239
  377SOL     OW 1129   2.850   1.587   2.949 -0.1396 -0.2158  0.9545
  377SOL    HW1 1130   2.769   1.569   2.890  0.0072 -1.1592  1.1795
  377SOL    HW2 1131   2.937   1.541   2.915  2.6198 -0.2223  1.9137
  378SOL     OW 1132   1.978   2.943   3.005 -0.1146  0.5389 -0.4534
  378SOL    HW1 1133   1.903   2.888   3.044  1.7602  0.8533  2.4057
  378SOL    HW2 1134   2.039   2.900   2.935  1.0346  3.8769 -1.9589
  379SOL     OW 1135   1.887   0.459   0.548 -0.1801 -0.7419 -0.1624
  379SOL    HW1 1136   1.970   0.401   0.565 -1.1326  1.4121  0.1513
  379SOL    HW2 1137   1.840   0.476   0.637 -0.3610 -1.8682 -1.1987
  380SOL     OW 1138   2.721   2.017   1.785  0.2079  0.3432 -0.0163
  380SOL    HW1 1139   2.788   1.997   1.861  2.0405 -1.6834  1.1609
  380SOL    HW2 1140   2.654   1.942   1.770  1.6487 -1.2665  1.3440
  381SOL     OW 1141   2.249   1.545   2.314 -0.7251  0.0453 -0.7102
  381SOL    HW1 1142   2.326   1.608   2.276  2.4381 -0.5876  1.3745
  381SOL    HW2 1143   2.295   1.460   2.349 -1.4420 -1.0085 -2.0587
  382SOL     OW 1144   2.816   2.835   2.759  0.1731 -0.0321  0.3313
  382SOL    HW1 1145   2.788   2.739   2.778  0.2281 -1.3026 -0.7062
  382SOL    HW2 1146   2.834   2.845   2.657 -0.2417  0.1892 -2.1174
  383SOL     OW 1147   0.944   1.243   0.024  0.5790  0.0585  0.1496
  383SOL    HW1 1148   0.921   1.146   0.002 -1.0612 -1.1605  0.7198
  383SOL    HW2 1149   0.954   1.304   3.020 -0.2347 -1.1214 -1.0748
  384SOL     OW 1150   1.347   1.895   1.487 -0.2814  0.0928 -0.1900
  384SOL    HW1 1151   1.316   1.979   1.540  2.7104  0.9471  1.5937
  384SOL    HW2 1152   1.365   1.902   1.384 -1.9730 -3.1740  0.2317
  385SOL     OW 1153   1.933   2.681   0.725 -0.5531 -0.2147 -0.5977
  385SOL    HW1 1154   1.936   2.752   0.653 -0.1067  1.5452  2.4406
  385SOL    HW2 1155   1.860   2.701   0.793 -1.6937 -0.7368  0.7362
  386SOL     OW 1156   1.855   1.566   0.879 -0.3523  0.5848  0.0785
  386SOL    HW1 1157   1.870   1.650   0.929 -2.6169  0.4582  0.5923
  386SOL    HW2 1158   1.942   1.529   0.844  2.4230  1.8523 -1.6225
  387SOL     OW 1159   2.831   2.236   1.388 -0.1380  0.2719 -0.3276
  387SOL    HW1 1160   2.830   2.317   1.451 -0.0017 -2.0382 -1.5878
  387SOL    HW2 1161   2.777   2.161   1.427 -3.1560  2.5581 -1.1246
  388SOL     OW 1162   2.894   0.930   1.678 -0.1268 -0.0070  0.0995
  388SOL    HW1 1163   2.977   0.976   1.640  0.9342  0.2448 -0.9428
  388SOL    HW2 1164   2.893   0.825   1.674 -0.2911 -0.1770 -0.0714
  389SOL     OW 1165   2.240   0.605   0.051  0.1635 -0.2576 -0.4620
  389SOL    HW1 1166   2.192   0.583   0.140 -0.1955  0.7142  1.7121
  389SOL    HW2 1167   2.333   0.645   0.070 -0.3418  0.8895  0.3472
  390SOL     OW 1168   1.166   1.543   2.815 -0.3883 -0.3705 -0.0170
  390SOL    HW1 1169   1.164   1.644   2.839 -0.3038  1.3396 -0.2056
  390SOL    HW2 1170   1.152   1.536   2.713 -0.8250  2.3313  2.8961
  391SOL     OW 1171   1.259   2.074   2.906 -0.5852  0.4100  0.1236
  391SOL    HW1 1172   1.343   2.016   2.895  0.7221 -1.5381 -1.5935
  391SOL    HW2 1173   1.229   2.076   3.003  1.0966  1.0749 -1.2436
  392SOL     OW 1174   0.144   2.473   1.773  0.3743 -0.6031 -0.7190
  392SOL    HW1 1175   0.215   2.506   1.840 -1.2441 -0.9307  2.0673
  392SOL    HW2 1176   0.082   2.398   1.810  0.4753 -4.4851  0.8576
  393SOL     OW 1177   1.182   2.293   0.137  0.7666  0.3910  0.1023
  393SOL    HW1 1178   1.143   2.207   0.108 -0.4654  0.3010  2.7400
  393SOL    HW2 1179   1.281   2.296   0.113  0.7181  1.2701  0.6314
  394SOL     OW 1180   0.488   0.481   2.697 -0.2648  0.0547  0.0253
  394SOL    HW1 1181   0.568   0.474   2.627 -1.1459  2.6518  1.2685
  394SOL    HW2 1182   0.456   0.389   2.721  0.3432  1.3424 -3.0000
  395SOL     OW 1183   0.485   1.286   1.074  0.1241  0.1467 -0.1086
  395SOL    HW1 1184   0.548   1.207   1.087 -2.0352  0.9306 -0.8212
  395SOL    HW2 1185   0.401   1.259   1.025 -1.1160 -0.3760  0.7120
  396SOL     OW 1186   1.733   0.957   2.192  0.4832 -0.4402  0.0235
  396SOL    HW1 1187   1.674   1.014   2.259 -1.2067 -1.3008 -0.2856
  396SOL    HW2 1188   1.814   0.934   2.241 -1.7012  2.1186 -1.1522
  397SOL     OW 1189   0.847   0.402   0.312  0.0779  0.2254 -0.2803
  397SOL    HW1 1190   0.752   0.437   0.309  1.3132 -1.4426 -2.0752
  397SOL    HW2 1191   0.859   0.330   0.385 -2.2045 -0.0714  1.4312
  398SOL     OW 1192   0.957   2.447   2.946  0.2988 -0.5433  0.7056
  398SOL    HW1 1193   0.979   2.510   2.872  1.1190 -3.6572  2.2707
  398SOL    HW2 1194   0.963   2.490   3.036  3.5028  0.6362  1.0752
  399SOL     OW 1195   1.359   1.957   2.482  0.0954 -0.5561 -0.3260
  399SOL    HW1 1196   1.281   1.894   2.467 -2.4839  0.5626 -0.5565
  399SOL    HW2 1197   1.440   1.903   2.446  0.0632  0.8915  2.4768
  400SOL     OW 1198   2.168   1.652   1.531  0.8171  0.0084  0.5452
  400SOL    HW1 1199   2.145   1.647   1.430  3.4044 -0.4772  0.9874
  400SOL    HW2 1200   2.152   1.568   1.588  1.1356 -1.4712  0.1433
  401SOL     OW 1201   1.369   1.068   0.957  0.0699 -0.0643  0.5577
  401SOL    HW1 1202   1.371   1.163   0.917 -0.3256 -1.7105  0.1090
  401SOL    HW2 1203   1.305   1.014   0.903  0.1523  2.3041  3.3141
  402SOL     OW 1204   0.005   2.695   2.111 -0.2154  0.6258  1.6136
  402SOL    HW1 1205   0.032   2.722   2.011 -3.7364 -0.4543 -1.7024
  402SOL    HW2 1206   0.036   2.765   2.178 -0.0925 -0.2069 -0.2870
  403SOL     OW 1207   2.944   1.736   1.663 -0.5465  0.2405  0.1138
  403SOL    HW1 1208   2.963   1.823   1.609 -0.1699 -0.8697  0.2177
  403SOL    HW2 1209   3.015   1.661   1.641  0.1502 -1.4906  0.3800
  404SOL     OW 1210   1.984   1.918   1.198 -0.6416  0.2820 -0.5765
  404SOL    HW1 1211   1.936   1.945   1.285 -1.0345 -0.7794 -1.1718
  404SOL    HW2 1212   2.023   1.997   1.144  0.6979 -1.5971 -1.2417
  405SOL     OW 1213   2.623   0.386   2.791 -0.5548 -0.3043  0.1402
  405SOL    HW1 1214   2.645   0.399   2.891 -0.8792  0.5779  0.1153
  405SOL    HW2 1215   2.630   0.471   2.738 -0.5541 -2.0353  1.3546
  406SOL     OW 1216   0.960   1.529   2.516 -0.6045 -0.3909 -0.1692
  406SOL    HW1 1217   0.949   1.630   2.523 -1.4600  3.0590 -0.1302
  406SOL    HW2 1218   0.893   1.483   2.454 -1.6595  0.6496  0.7202
  407SOL     OW 1219   1.728   2.870   0.122 -0.9171  0.1643 -0.1174
  407SOL    HW1 1220   1.712   2.769   0.132 -0.4106  0.4757  1.6061
  407SOL    HW2 1221   1.662   2.918   0.062  2.6106  0.4629 -0.6147
  408SOL     OW 1222   0.315   2.966   0.826  0.0019 -0.5048  0.4776
  408SOL    HW1 1223   0.313   2.975   0.725 -3.1584  0.9080  1.9950
  408SOL    HW2 1224   0.255   2.893   0.858 -2.3457  3.1685  0.1427
  409SOL     OW 1225   2.247   2.032   0.834 -0.1680 -0.5240 -0.0558
  409SOL    HW1 1226   2.228   1.941   0.791  0.0888  1.5275  0.4946
  409SOL    HW2 1227   2.255   2.105   0.764  2.6880 -1.2184  0.1995
  410SOL     OW 1228   2.272   2.086   2.896 -0.1046  0.4094  0.0300
  410SOL    HW1 1229   2.329   2.132   2.965  0.4386 -2.7120  1.7935
  410SOL    HW2 1230   2.329   2.054   2.822 -0.9553  0.3066  0.8064
  411SOL     OW 1231   0.291   0.423   0.604 -0.1680  0.6168 -0.3571
  411SOL    HW1 1232   0.306   0.461   0.695 -0.9276 -1.6146  0.1102
  411SOL    HW2 1233   0.245   0.333   0.603 -1.8995 -0.1922  0.3149
  412SOL     OW 1234   1.621   2.583   0.201 -0.1999 -0.4418  0.0544
  412SOL    HW1 1235   1.637   2.569   0.299 -0.3278  0.4168  1.3655
  412SOL    HW2 1236   1.546   2.649   0.189  1.2141 -4.0210 -2.3243
  413SOL     OW 1237   1.864   0.437   2.041 -0.1816 -0.1827  0.2343
  413SOL    HW1 1238   1.880   0.473   1.946 -0.3599  1.9324  1.6521
  413SOL    HW2 1239   1.853   0.336   2.041  0.3453 -0.0605 -0.8737
  414SOL     OW 1240   3.001   0.225   0.525  0.8032 -0.1306  0.0520
  414SOL    HW1 1241   2.980   0.321   0.548  1.4146 -0.9482 -0.0630
  414SOL    HW2 1242   0.016   0.207   0.555 -2.4937  1.0757 -1.4777
  415SOL     OW 1243   0.624   1.740   1.198 -0.4704 -0.1865 -0.2467
  415SOL    HW1 1244   0.627   1.777   1.290  0.8424 -1.2852 -1.8323
  415SOL    HW2 1245   0.632   1.636   1.197 -1.4651  0.7579 -0.9302
  416SOL     OW 1246   0.122   2.831   0.267  0.4508 -0.8085  0.0943
  416SOL    HW1 1247   0.123   2.915   0.207  0.8187  2.0907 -1.8294
  416SOL    HW2 1248   0.205   2.832   0.321 -3.5547  0.6590 -0.3290
  417SOL     OW 1249   2.607   3.025   1.047 -0.0710 -0.2613  0.1743
  417SOL    HW1 1250   2.504   3.015   1.034  0.4032 -0.9286  1.2203
  417SOL    HW2 1251   2.631   0.046   1.049 -1.6681  2.9255 -3.1441
  418SOL     OW 1252   0.527   0.148   2.636  0.7186  0.3891 -0.6213
  418SOL    HW1 1253   0.571   0.135   2.730 -0.0666  1.9598  0.2937
  418SOL    HW2 1254   0.458   0.080   2.611  0.4890  0.6867  1.0200
  419SOL     OW 1255   0.416   1.331   0.648 -0.5711  0.0598 -0.2997
  419SOL    HW1 1256   0.349   1.288   0.588  0.5270  2.4580  1.7203
  419SOL    HW2 1257   0.372   1.413   0.688 -1.2352 -0.7237  0.3337
  420SOL     OW 1258   1.738   1.905   0.840 -0.1695  0.1308 -0.3064
  420SOL    HW1 1259   1.741   1.903   0.738 -3.0703  0.8702  3.4733
  420SOL    HW2 1260   1.819   1.850   0.882  1.1322  0.4712  0.6885
  421SOL     OW 1261   1.755   2.032   2.426  0.6168  0.4223 -0.9991
  421SOL    HW1 1262   1.719   1.936   2.421 -0.2552  0.6196 -0.0996
  421SOL    HW2 1263   1.687   2.090   2.474  0.4684 -1.0736 -1.6159
  422SOL     OW 1264   3.037   0.732   2.863 -0.3523  0.0576 -0.4333
  422SOL    HW1 1265   0.009   0.644   2.836 -0.0780 -2.4709 -0.0911
  422SOL    HW2 1266   2.989   0.704   2.945  1.1492  1.6522  0.0065
  423SOL     OW 1267   1.486   2.027   0.703 -0.1652  0.2264  0.0398
  423SOL    HW1 1268   1.478   2.018   0.603  1.4959  0.4713 -0.1372
  423SOL    HW2 1269   1.582   2.014   0.740 -0.0141 -0.0131  1.1323
  424SOL     OW 1270   0.588   1.486   1.498 -0.2083  0.5231 -0.2009
  424SOL    HW1 1271   0.512   1.422   1.524 -2.4814 -1.9212 -0.9898
  424SOL    HW2 1272   0.631   1.543   1.571  3.7486  0.0834 -3.4401
  425SOL     OW 1273   2.589   2.455   2.036  0.6672  0.3303  0.0991
  425SOL    HW1 1274   2.578   2.553   2.055  0.7306 -1.4875  5.0247
  425SOL    HW2 1275   2.683   2.423   2.048 -0.9313 -1.2690 -1.7067
  426SOL     OW 1276   1.951   2.869   0.553 -0.1684  0.4394  0.3461
  426SOL    HW1 1277   1.978   2.897   0.457  0.4857  1.6612  0.9679
  426SOL    HW2 1278   1.988   2.926   0.631  0.4901  1.2692 -0.3204
  427SOL     OW 1279   0.611   0.677   3.066 -0.2514  0.6128  0.0571
  427SOL    HW1 1280   0.602   0.721   2.972  0.8772  3.3359 -1.0383
  427SOL    HW2 1281   0.572   0.737   0.060  1.9713  0.1092 -0.9760
  428SOL     OW 1282   1.865   1.080   0.139  0.6213  0.7604 -0.0089
  428SOL    HW1 1283   1.789   1.014   0.163 -0.5083 -1.9513  1.6536
  428SOL    HW2 1284   1.829   1.169   0.107  2.4365 -0.1898 -1.4066
  429SOL     OW 1285   2.969   0.051   0.279 -0.2593 -0.0499  0.4086
  429SOL    HW1 1286   2.926   0.120   0.339  0.0489  0.7217  0.7120
  429SOL    HW2 1287   2.964   3.038   0.318 -0.5223 -0.5884 -1.7960
  430SOL     OW 1288   0.818   3.034   2.253 -0.0958  0.2854  0.3426
  430SOL    HW1 1289   0.778   0.031   2.310 -1.1661  0.7786  1.2379
  430SOL    HW2 1290   0.849   3.067   2.162 -0.3962  0.1490  1.5739
  431SOL     OW 1291   2.906   1.348   1.268  0.1868  0.4238 -0.2860
  431SOL    HW1 1292   2.866   1.409   1.340 -1.0642  0.6657 -2.3872
  431SOL    HW2 1293   2.915   1.253   1.303 -2.6739  0.4924 -0.3336
  432SOL     OW 1294   2.005   2.413   1.923 -0.0063  0.2608  0.5054
  432SOL    HW1 1295   1.989   2.323   1.966  2.1168 -1.2891  0.9699
  432SOL    HW2 1296   1.942   2.482   1.959  0.8864 -4.6178 -1.1251
  433SOL     OW 1297   1.028   1.785   3.060 -0.3653 -0.2976 -0.8984
  433SOL    HW1 1298   0.972   1.714   0.031 -0.1438  1.3960  3.3907
  433SOL    HW2 1299   1.012   1.787   2.960 -0.8751  0.6561  0.3809
  434SOL     OW 1300   0.097   2.234   2.516  0.5760  0.1699  0.0604
  434SOL    HW1 1301   0.117   2.290   2.436  0.1400 -1.0340 -0.1425
  434SOL    HW2 1302   0.166   2.249   2.588 -1.8507 -1.3808  2.9715
  435SOL     OW 1303   0.307   0.724   0.637 -0.4043 -0.1079 -0.3795
  435SOL    HW1 1304   0.388   0.668   0.609  2.2334  1.1837 -1.0056
  435SOL    HW2 1305   0.345   0.817   0.661 -1.7159  1.2133  0.9770
  436SOL     OW 1306   0.377   2.751   1.647 -0.3787  0.0388  0.0910
  436SOL    HW1 1307   0.401   2.652   1.650  0.3885 -1.0985  0.6257
  436SOL    HW2 1308   0.318   2.774   1.567  0.6379 -0.5436  0.9944
  437SOL     OW 1309   0.989   2.052   1.289  0.1626  0.1577 -0.3441
  437SOL    HW1 1310   0.986   2.049   1.397 -1.2842 -2.4080  1.3515
  437SOL    HW2 1311   1.041   2.127   1.247 -1.9267 -0.9541 -0.1078
  438SOL     OW 1312   0.088   1.937   0.803  0.2398  0.4131  0.2946
  438SOL    HW1 1313   0.129   2.014   0.853 -0.6134 -0.0034  2.2171
  438SOL    HW2 1314   0.118   1.946   0.703  0.8650  1.4110  0.4438
  439SOL     OW 1315   0.247   0.359   1.197 -0.1180  0.2977 -0.1031
  439SOL    HW1 1316   0.220   0.411   1.280 -0.5652 -1.7067  2.0294
  439SOL    HW2 1317   0.335   0.309   1.204 -0.7228  1.0825 -0.4294
  440SOL     OW 1318   2.822   2.741   2.234  0.5700  0.0149  0.8425
  440SOL    HW1 1319   2.805   2.833   2.196 -0.0750  1.0306 -0.8905
  440SOL    HW2 1320   2.895   2.693   2.182  0.1608  0.9390 -2.0833
  441SOL     OW 1321   2.871   0.634   1.706 -0.1710 -0.2731 -0.1740
  441SOL    HW1 1322   2.830   0.659   1.798  3.1085  1.4011  0.6867
  441SOL    HW2 1323   2.807   0.573   1.657  0.1284 -0.3720  2.9028
  442SOL     OW 1324   1.783   2.296   2.907  0.8513 -0.2273 -0.1222
  442SOL    HW1 1325   1.872   2.248   2.927  1.9747 -0.4821  0.0603
  442SOL    HW2 1326   1.768   2.364   2.978 -1.7326 -1.3323 -2.8074
  443SOL     OW 1327   0.442   0.818   0.131  0.2146 -0.1726  0.2942
  443SOL    HW1 1328   0.361   0.765   0.095  0.6414  0.9726  3.1392
  443SOL    HW2 1329   0.444   0.827   0.233  1.2192  0.5425  4.1877
  444SOL     OW 1330   1.352   1.485   2.155  0.2306  0.9352 -0.2362
  444SOL    HW1 1331   1.396   1.510   2.067  1.1826  0.6876  0.8336
  444SOL    HW2 1332   1.265   1.537   2.152 -0.3778  2.4218  0.0904
  445SOL     OW 1333   0.077   2.911   1.156  0.1796  0.1809 -0.3464
  445SOL    HW1 1334   0.077   3.007   1.148 -1.5059 -4.9332 -0.2041
  445SOL    HW2 1335   0.003   2.882   1.222 -0.6231  0.5669 -1.2596
  446SOL     OW 1336   2.252   0.830   1.362  0.1812  0.1374 -0.4024
  446SOL    HW1 1337   2.294   0.915   1.318  0.0318  0.7927  0.2257
  446SOL    HW2 1338   2.152   0.827   1.355  1.5286  1.2355  3.1669
  447SOL     OW 1339   0.208   0.658   0.078  0.2809  0.2744 -0.7168
  447SOL    HW1 1340   0.134   0.606   0.113  3.0423  2.2327 -0.5723
  447SOL    HW2 1341   0.253   0.607   0.004  1.4616  0.0445  2.1909
  448SOL     OW 1342   1.264   2.144   1.598  1.1096 -0.8028  0.1292
  448SOL    HW1 1343   1.297   2.158   1.696  0.6243  2.6723 -2.3331
  448SOL    HW2 1344   1.263   2.236   1.551  1.8507 -0.2742 -0.9973
  449SOL     OW 1345   1.257   1.191   0.632  0.4601 -0.0117 -0.1360
  449SOL    HW1 1346   1.304   1.246   0.708 -1.2554  1.2455  0.0105
  449SOL    HW2 1347   1.201   1.125   0.680  0.2953  3.1662  3.2710
  450SOL     OW 1348   2.521   1.810   1.823 -0.4434 -0.1092  0.0255
  450SOL    HW1 1349   2.531   1.809   1.927  0.0076  0.1172  2.5815
  450SOL    HW2 1350   2.440   1.870   1.801 -1.5889 -1.9539  0.6114
  451SOL     OW 1351   2.950   1.176   2.755 -0.7857  0.4007 -0.0195
  451SOL    HW1 1352   2.904   1.250   2.800 -1.3387 -1.2926 -3.5985
  451SOL    HW2 1353   2.990   1.113   2.823 -2.4850  2.2202 -0.2043
  452SOL     OW 1354   1.552   0.810   1.265  0.2624 -0.2053 -0.1882
  452SOL    HW1 1355   1.509   0.759   1.187 -0.4225  0.7225  0.1569
  452SOL    HW2 1356   1.497   0.899   1.283 -1.6509 -1.9242 -1.5350
  453SOL     OW 1357   2.049   1.001   1.118  0.6323  0.0231  0.0974
  453SOL    HW1 1358   2.134   1.046   1.136 -0.0182  0.1938 -0.0673
  453SOL    HW2 1359   1.968   1.066   1.110  0.1902 -0.6803 -0.0235
  454SOL     OW 1360   2.730   0.899   0.465 -0.3114  0.1673 -0.5596
  454SOL    HW1 1361   2.823   0.905   0.428 -2.9390 -1.5436 -1.1243
  454SOL    HW2 1362   2.680   0.987   0.479 -3.4091  0.9551 -1.6984
  455SOL     OW 1363   2.764   2.239   0.935  0.0252 -0.3101  0.0437
  455SOL    HW1 1364   2.827   2.157   0.929  1.6278  1.5069 -2.4972
  455SOL    HW2 1365   2.716   2.253   1.025 -1.7479 -0.3287  2.1382
  456SOL     OW 1366   0.914   3.064   1.238 -0.3716  0.3503  0.3253
  456SOL    HW1 1367   0.828   3.075   1.291 -1.6915  2.1895 -1.9484
  456SOL    HW2 1368   0.989   0.047   1.278  0.3591  0.5308 -1.3799
  457SOL     OW 1369   1.746   2.861   0.890 -0.3732  0.3386 -0.3440
  457SOL    HW1 1370   1.759   2.914   0.803 -0.5648 -0.0218 -2.3050
  457SOL    HW2 1371   1.645   2.840   0.904 -1.4308  0.2834  0.0952
  458SOL     OW 1372   2.642   0.234   0.790 -0.1038  0.0542 -0.4603
  458SOL    HW1 1373   2.655   0.231   0.893  1.5948  1.2464  1.1516
  458SOL    HW2 1374   2.605   0.318   0.749  2.0066  0.5403  2.9490
  459SOL     OW 1375   1.988   0.696   3.067 -0.2546 -0.2040  0.0717
  459SOL    HW1 1376   1.984   0.796   3.037  0.8713 -0.3756 -1.2762
  459SOL    HW2 1377   2.082   0.668   0.020  0.4482 -1.8511 -1.2641
  460SOL     OW 1378   2.970   2.367   2.832 -0.1435  0.6896 -0.0150
  460SOL    HW1 1379   2.970   2.417   2.920  0.2956 -1.5205  0.8844
  460SOL    HW2 1380   3.030   2.287   2.836 -1.1012 -0.6207 -0.9977
  461SOL     OW 1381   0.651   1.689   0.259  0.2981  0.2171 -0.0147
  461SOL    HW1 1382   0.705   1.720   0.337 -0.5184 -0.2131 -3.1667
  461SOL    HW2 1383   0.640   1.764   0.195 -0.6701  1.7032  0.1661
  462SOL     OW 1384   2.500   2.525   0.656  0.0635 -0.2095  0.2686
  462SOL    HW1 1385   2.574   2.597   0.657 -1.3597  0.2817  1.1902
  462SOL    HW2 1386   2.409   2.569   0.655  0.9855 -0.9578  0.5627
  463SOL     OW 1387   2.957   0.482   0.555 -0.4733  0.2087 -0.2945
  463SOL    HW1 1388   2.916   0.557   0.608 -1.5947  2.4101 -3.4120
  463SOL    HW2 1389   3.038   0.514   0.503  0.8197  0.0240  2.5049
  464SOL     OW 1390   0.936   2.587   0.370  0.7700  0.2621  0.7091
  464SOL    HW1 1391   0.888   2.572   0.460  0.0082 -0.0903  0.2820
  464SOL    HW2 1392   0.960   2.688   0.360  1.4223  3.1722 -0.8343
  465SOL     OW 1393   2.403   0.886   0.672  0.2163 -0.5371  0.4013
  465SOL    HW1 1394   2.328   0.890   0.746 -0.8392 -0.7174  0.2877
  465SOL    HW2 1395   2.360   0.918   0.585  0.0451  3.0191 -3.6909
  466SOL     OW 1396   2.255   2.977   0.011  0.6511 -0.3166  0.1193
  466SOL    HW1 1397   2.315   2.986   3.011 -2.9243 -0.0939  2.4449
  466SOL    HW2 1398   2.208   2.889   0.015  2.3153  1.6096  0.9516
  467SOL     OW 1399   1.142   0.382   1.811  0.2420 -0.2496 -0.6079
  467SOL    HW1 1400   1.077   0.441   1.859  1.1356  0.5005  0.8079
  467SOL    HW2 1401   1.235   0.420   1.812 -1.2593 -2.8472 -4.4955
  468SOL     OW 1402   0.103   0.422   2.226  0.1755  0.0680  0.0112
  468SOL    HW1 1403   0.197   0.436   2.264  1.0457  0.1125  0.6475
  468SOL    HW2 1404   0.090   0.474   2.140  0.2479 -0.2200 -0.7769
  469SOL     OW 1405   0.838   2.888   2.868 -0.3244  0.1551  0.0064
  469SOL    HW1 1406   0.789   2.815   2.918 -1.8885 -2.8929 -1.2336
  469SOL    HW2 1407   0.800   2.906   2.775  2.9776  0.6433  0.9509
  470SOL     OW 1408   1.665   1.453   2.486  0.4030 -0.1721 -0.4088
  470SOL    HW1 1409   1.565   1.444   2.477  1.1829 -1.7131  0.7610
  470SOL    HW2 1410   1.704   1.521   2.421 -2.0855 -0.6834 -1.0687
  471SOL     OW 1411   2.751   1.020   2.655  0.7798 -0.0778 -0.0796
  471SOL    HW1 1412   2.829   1.070   2.700  0.7283  0.8128 -0.2503
  471SOL    HW2 1413   2.665   1.019   2.714 -2.9817  0.8357  2.4984
  472SOL     OW 1414   0.315   2.586   0.284  0.9258 -0.3495  0.4487
  472SOL    HW1 1415   0.365   2.661   0.336  1.5890 -1.0232  0.1735
  472SOL    HW2 1416   0.231   2.568   0.330  2.8049 -2.0832 -1.3111
  473SOL     OW 1417   0.609   0.039   2.883  0.4127  0.4713  0.6802
  473SOL    HW1 1418   0.598   3.016   2.876 -0.5137  1.0709 -2.2677
  473SOL    HW2 1419   0.584   0.072   2.975  0.2505  1.0284  0.1909
  474SOL     OW 1420   1.674   0.234   2.075 -0.4942 -0.3381 -0.0524
  474SOL    HW1 1421   1.615   0.312   2.112 -0.2970  1.0169  0.7476
  474SOL    HW2 1422   1.646   0.143   2.110  1.8425  3.1930 -1.6869
  475SOL     OW 1423   0.663   2.739   0.155 -0.2716  0.1849 -0.5611
  475SOL    HW1 1424   0.696   2.836   0.165 -0.4541  0.5561 -0.8498
  475SOL    HW2 1425   0.694   2.681   0.234  0.8556 -1.1182  1.3060
  476SOL     OW 1426   0.341   0.912   1.017  0.2354  0.0534  0.0518
  476SOL    HW1 1427   0.283   0.923   0.937  0.9540  0.1649  0.8611
  476SOL    HW2 1428   0.390   0.824   1.012  1.4171  0.8604  1.3933
  477SOL     OW 1429   1.729   2.101   1.250 -0.0853 -0.1909 -0.0967
  477SOL    HW1 1430   1.769   2.124   1.339  0.4431 -0.3833 -2.2727
  477SOL    HW2 1431   1.732   2.179   1.186 -1.8876  0.8347 -0.8257
  478SOL     OW 1432   0.503   1.356   2.180  0.1857  0.5079  0.6134
  478SOL    HW1 1433   0.508   1.262   2.225  0.4583 -0.3357  1.6445
  478SOL    HW2 1434   0.423   1.363   2.114 -0.9155 -0.1993  1.4212
  479SOL     OW 1435   0.483   0.009   0.997  0.2719  0.5363  0.1251
  479SOL    HW1 1436   0.400   3.046   0.958 -0.8549  1.2308 -1.0951
  479SOL    HW2 1437   0.508   3.045   1.084 -1.3516 -0.1241 -0.6494
  480SOL     OW 1438   2.325   2.595   0.089 -0.2185 -0.1683  0.2146
  480SOL    HW1 1439   2.326   2.574   0.192 -2.0371 -0.5956  2.2217
  480SOL    HW2 1440   2.393   2.538   0.039  0.4115 -0.8902  0.9154
  481SOL     OW 1441   2.777   0.480   1.115 -0.6204 -0.3013 -0.6962
  481SOL    HW1 1442   2.698   0.539   1.089 -1.5031 -0.1991  0.6806
  481SOL    HW2 1443   2.865   0.532   1.113  2.0518  0.5558 -1.2471
  482SOL     OW 1444   1.518   2.513   1.794 -0.3163 -0.0578  0.7797
  482SOL    HW1 1445   1.592   2.473   1.739 -1.3373 -1.3908  0.4224
  482SOL    HW2 1446   1.542   2.604   1.830 -1.6518 -1.3270 -0.7487
  483SOL     OW 1447   0.230   1.287   2.702  0.2341  0.0791 -0.5043
  483SOL    HW1 1448   0.242   1.363   2.637 -2.7818  0.3409 -1.8715
  483SOL    HW2 1449   0.217   1.194   2.653 -3.4659 -2.2567 -0.3558
  484SOL     OW 1450   0.935   1.597   1.949 -0.2358 -0.3585 -0.5202
  484SOL    HW1 1451   0.981   1.538   1.877  1.2692 -0.0712  1.5989
  484SOL    HW2 1452   0.847   1.556   1.975  0.2369 -0.1688  1.1521
  485SOL     OW 1453   2.972   0.310   2.864 -0.1740 -0.2387  0.1898
  485SOL    HW1 1454   3.042   0.382   2.869 -0.1425 -0.4781  0.5316
  485SOL    HW2 1455   2.881   0.348   2.882  1.4843 -0.9562 -0.8655
  486SOL     OW 1456   1.496   0.028   0.466 -0.3354 -0.0953  0.3080
  486SOL    HW1 1457   1.546   0.068   0.388 -1.5165  1.8092  0.8024
  486SOL    HW2 1458   1.397   0.042   0.451  1.9567 -1.3451  0.5678
  487SOL     OW 1459   1.277   2.617   1.030 -0.2270  0.5847 -0.2472
  487SOL    HW1 1460   1.368   2.635   0.988 -0.8574  1.7942 -2.4840
  487SOL    HW2 1461   1.251   2.675   1.115 -0.1585  3.1736  1.7950
  488SOL     OW 1462   1.981   1.120   0.380 -0.4544  0.0588 -0.5819
  488SOL    HW1 1463   1.955   1.101   0.287 -1.6563  1.0313  2.0715
  488SOL    HW2 1464   2.082   1.107   0.393  0.8297  1.5290 -0.2610
  489SOL     OW 1465   1.172   2.722   1.258  0.2856 -0.6434 -0.2260
  489SOL    HW1 1466   1.123   2.633   1.261 -1.1634  1.8978 -0.1172
  489SOL    HW2 1467   1.227   2.737   1.342  4.3148  0.1702  0.2561
  490SOL     OW 1468   0.947   0.971   0.445 -0.4517 -0.0754  0.2744
  490SOL    HW1 1469   0.954   0.882   0.492  1.8894  2.5233  0.7284
  490SOL    HW2 1470   0.901   0.959   0.352  1.7790 -2.0383 -0.5954
  491SOL     OW 1471   1.430   2.780   0.156 -0.3934  0.1757 -0.1923
  491SOL    HW1 1472   1.454   2.858   0.098  0.0507  0.1669 -1.4479
  491SOL    HW2 1473   1.347   2.734   0.120  1.9466 -0.6049 -2.0238
  492SOL     OW 1474   1.243   1.075   2.221 -0.6935  0.4265  0.1416
  492SOL    HW1 1475   1.189   1.145   2.170  1.2647 -0.6682  2.1571
  492SOL    HW2 1476   1.198   0.985   2.217  0.3825  2.6185 -0.1677
  493SOL     OW 1477   0.151   1.831   0.293  0.0572 -0.0849 -0.0391
  493SOL    HW1 1478   0.062   1.788   0.272  2.0582 -2.6133  3.3834
  493SOL    HW2 1479   0.189   1.791   0.380  0.5330 -0.1089  0.0484
  494SOL     OW 1480   2.110   1.338   0.235  0.2114  0.0696  0.5394
  494SOL    HW1 1481   2.062   1.408   0.180  2.8155  1.9100 -0.2510
  494SOL    HW2 1482   2.047   1.277   0.289  0.4315  1.3630  0.3620
  495SOL     OW 1483   0.143   0.860   2.720 -0.6065 -0.3375 -0.3783
  495SOL    HW1 1484   0.192   0.783   2.677  0.9651  1.3757 -1.3488
  495SOL    HW2 1485   0.067   0.826   2.783 -0.9545 -0.2399 -1.4075
  496SOL     OW 1486   2.808   3.016   2.165  0.2571  0.3627 -0.2343
  496SOL    HW1 1487   2.905   3.038   2.183 -0.7718 -0.2881 -0.5565
  496SOL    HW2 1488   2.743   0.014   2.167  0.2639 -0.8948 -0.2718
  497SOL     OW 1489   2.618   0.982   0.940 -0.0694  0.1441 -0.3200
  497SOL    HW1 1490   2.599   0.892   0.897  0.8618 -0.7148  0.2174
  497SOL    HW2 1491   2.619   1.050   0.862 -0.6594 -0.8981 -0.2937
  498SOL     OW 1492   0.330   2.208   0.012 -0.5314  0.2181 -0.5372
  498SOL    HW1 1493   0.351   2.119   0.062 -0.3733  2.6162  1.8671
  498SOL    HW2 1494   0.356   2.287   0.072  0.6422 -3.5298 -1.6679
  499SOL     OW 1495   1.196   2.483   0.820 -0.0282 -0.2079  0.7398
  499SOL    HW1 1496   1.234   2.526   0.903 -0.4151 -1.3563 -0.3049
  499SOL    HW2 1497   1.249   2.403   0.787 -1.9440  1.1101  0.1439
  500SOL     OW 1498   0.999   0.205   2.475  0.1044 -0.3844 -0.1325
  500SOL    HW1 1499   0.907   0.165   2.475  2.4590  0.2683 -1.6758
  500SOL    HW2 1500   1.056   0.164   2.548 -1.2093  1.2425 -3.0289
  501SOL     OW 1501   1.097   0.145   1.399  0.0266  0.4763 -0.2605
  501SOL    HW1 1502   1.157   0.064   1.427 -0.5419 -3.9995  1.4828
  501SOL    HW2 1503   1.023   0.148   1.469  0.6209 -0.2970 -2.8181
  502SOL     OW 1504   3.032   0.231   2.081 -0.3446 -0.1073 -0.2831
  502SOL    HW1 1505   3.071   0.138   2.063 -1.5039  0.5067  0.4768
  502SOL    HW2 1506   0.023   0.288   2.131 -1.3141 -2.0785 -1.2977
  503SOL     OW 1507   1.815   2.248   2.246  0.4808 -0.3903 -0.0864
  503SOL    HW1 1508   1.795   2.336   2.287  1.4396 -1.2477 -1.7762
  503SOL    HW2 1509   1.792   2.170   2.313 -0.7548  0.1197  0.8652
  504SOL     OW 1510   1.853   0.338   1.653  0.1546  0.1598  0.2800
  504SOL    HW1 1511   1.857   0.420   1.718  0.5552  2.7021 -0.3589
  504SOL    HW2 1512   1.880   0.365   1.557 -1.7759  2.8052 -0.1768
  505SOL     OW 1513   2.715   1.098   1.772  0.2761  0.1237  0.2871
  505SOL    HW1 1514   2.791   1.030   1.744  3.4780 -0.8158 -2.6500
  505SOL    HW2 1515   2.638   1.113   1.709  0.5854  0.9284  1.9451
  506SOL     OW 1516   0.297   1.509   2.522 -0.4653 -0.2985  0.1356
  506SOL    HW1 1517   0.236   1.469   2.450 -0.3700 -0.3799  0.9057
  506SOL    HW2 1518   0.388   1.546   2.492  2.2688 -1.0613 -0.9420
  507SOL     OW 1519   0.370   2.852   1.895  0.1498 -0.6373 -0.4265
  507SOL    HW1 1520   0.440   2.931   1.894  1.8564 -0.3407  0.2534
  507SOL    HW2 1521   0.375   2.815   1.802 -0.5822  0.2278  2.3911
  508SOL     OW 1522   1.400   0.846   1.551  0.4625 -0.0661 -0.1340
  508SOL    HW1 1523   1.423   0.943   1.570  1.9558 -2.7120  0.3192
  508SOL    HW2 1524   1.484   0.791   1.557  0.0593 -1.4532  0.9342
  509SOL     OW 1525   1.039   1.842   1.094  0.6572 -0.0419 -0.1382
  509SOL    HW1 1526   1.020   1.919   1.156 -3.7892 -0.1255 -2.4572
  509SOL    HW2 1527   1.006   1.756   1.144 -1.5710 -0.3713  1.1029
  510SOL     OW 1528   2.477   1.063   2.506 -0.7781 -0.1795 -0.5938
  510SOL    HW1 1529   2.577   1.077   2.530  1.2348  2.8560  0.6827
  510SOL    HW2 1530   2.444   0.983   2.555 -0.9918 -2.5446  0.0195
  511SOL     OW 1531   0.616   1.489   1.218 -0.1532 -0.0657 -0.2116
  511SOL    HW1 1532   0.611   1.480   1.318  0.9371  0.6113  1.2461
  511SOL    HW2 1533   0.576   1.409   1.168  0.3932 -0.5218  2.3738
  512SOL     OW 1534   2.764   2.299   0.688  0.2695  0.2220 -0.1813
  512SOL    HW1 1535   2.753   2.282   0.787 -2.0856  0.6000 -2.5066
  512SOL    HW2 1536   2.674   2.312   0.645 -0.5377 -0.1086  0.9041
  513SOL     OW 1537   0.418   1.366   2.904 -0.5937  0.5156  0.3463
  513SOL    HW1 1538   0.449   1.287   2.963  1.0251 -3.3023  3.5966
  513SOL    HW2 1539   0.363   1.332   2.821 -0.7567 -0.9007 -2.7407
  514SOL     OW 1540   0.309   2.524   2.929  0.2324  0.0950 -0.3310
  514SOL    HW1 1541   0.260   2.611   2.905 -1.4436  1.7491  1.1130
  514SOL    HW2 1542   0.282   2.457   2.858 -1.5795  1.4350 -1.2527
  515SOL     OW 1543   1.493   1.125   2.317 -0.2838 -0.0003 -0.1548
  515SOL    HW1 1544   1.396   1.116   2.280 -1.8898 -2.3262  0.0457
  515SOL    HW2 1545   1.493   1.113   2.422 -0.2057  0.0143 -0.0549
  516SOL     OW 1546   2.240   2.229   0.651  0.5961  0.4188 -0.4246
  516SOL    HW1 1547   2.327   2.262   0.696 -0.9961  1.0524  1.8864
  516SOL    HW2 1548   2.257   2.193   0.558  0.1332  0.6768 -1.5000
  517SOL     OW 1549   1.440   1.095   0.273 -0.3762  0.0697  0.8213
  517SOL    HW1 1550   1.374   1.056   0.335  2.2570  0.0696 -2.7227
  517SOL    HW2 1551   1.454   1.192   0.290  1.5472  0.0218 -0.4295
  518SOL     OW 1552   2.152   2.402   2.220 -0.8058 -0.0420  0.2681
  518SOL    HW1 1553   2.096   2.485   2.220  3.3609 -2.0086 -0.9829
  518SOL    HW2 1554   2.203   2.394   2.308 -0.1737 -2.5327 -0.4092
  519SOL     OW 1555   1.743   2.313   1.096  0.3791 -0.0391 -0.1731
  519SOL    HW1 1556   1.788   2.387   1.158 -0.4842  3.0346  0.1779
  519SOL    HW2 1557   1.658   2.351   1.048  1.4761  1.6849 -2.3657
  520SOL     OW 1558   2.512   2.301   2.636 -0.3227 -0.1060 -0.4945
  520SOL    HW1 1559   2.577   2.379   2.613 -0.8743  1.5030 -1.6057
  520SOL    HW2 1560   2.476   2.251   2.553 -1.0302  2.5206  1.0113
  521SOL     OW 1561   0.313   1.324   1.983 -0.4024 -0.0543  0.2211
  521SOL    HW1 1562   0.346   1.401   1.928 -0.9812  0.1896 -1.1418
  521SOL    HW2 1563   0.222   1.345   2.026 -0.9709  0.8302 -0.3655
  522SOL     OW 1564   0.820   0.386   2.126  0.6255  0.0235  0.4362
  522SOL    HW1 1565   0.804   0.337   2.036 -1.2427 -2.2665  1.5490
  522SOL    HW2 1566   0.917   0.376   2.154 -2.0091  1.4944 -1.7015
  523SOL     OW 1567   0.551   2.291   0.883  0.2843  0.1746 -0.9067
  523SOL    HW1 1568   0.528   2.196   0.912 -0.5752 -0.7215  1.4714
  523SOL    HW2 1569   0.532   2.300   0.782 -0.4098  1.4598  1.1732
  524SOL     OW 1570   1.655   2.853   0.504  0.1451  0.0792  0.2293
  524SOL    HW1 1571   1.750   2.873   0.536  0.7413 -0.3226 -0.2654
  524SOL    HW2 1572   1.632   2.932   0.443 -0.2479 -1.3817 -0.7702
  525SOL     OW 1573   2.341   0.916   1.624  0.6415  0.3910  0.3211
  525SOL    HW1 1574   2.312   0.864   1.540 -0.0956  0.6846 -2.9297
  525SOL    HW2 1575   2.267   0.979   1.650 -0.4076 -0.0408 -1.2633
  526SOL     OW 1576   1.037   2.680   0.731  0.4506  0.4445  0.2058
  526SOL    HW1 1577   1.102   2.609   0.769  0.1637 -0.1142  2.7231
  526SOL    HW2 1578   0.957   2.644   0.676  1.0423 -0.2669  0.9172
  527SOL     OW 1579   2.654   2.509   0.339 -0.3568  0.0275  0.0986
  527SOL    HW1 1580   2.725   2.521   0.409 -2.2600 -0.3508  1.3484
  527SOL    HW2 1581   2.694   2.469   0.250  0.7712 -0.7420 -0.2745
  528SOL     OW 1582   2.475   0.259   0.212  0.0527 -0.5088 -0.6475
  528SOL    HW1 1583   2.415   0.259   0.295 -0.3289 -0.3642 -1.1114
  528SOL    HW2 1584   2.532   0.172   0.210  0.6575 -0.4111 -2.5043
  529SOL     OW 1585   1.386   1.491   2.440  0.1699 -0.0650  0.4767
  529SOL    HW1 1586   1.326   1.433   2.493  1.4793  0.0688 -0.9150
  529SOL    HW2 1587   1.362   1.483   2.341  0.1184 -1.5493  0.3803
  530SOL     OW 1588   2.520   0.685   2.894  0.2440  0.4854  0.3477
  530SOL    HW1 1589   2.503   0.601   2.955  0.2543 -1.1886  4.2082
  530SOL    HW2 1590   2.573   0.757   2.946 -1.3664  1.4881  1.1609
  531SOL     OW 1591   1.281   1.000   3.026 -0.0901  0.8057 -0.0173
  531SOL    HW1 1592   1.246   1.046   0.030  2.8748  0.2696 -0.9608
  531SOL    HW2 1593   1.246   0.904   3.024 -0.2191 -0.1492  0.7073
  532SOL     OW 1594   1.803   0.551   0.790 -0.0016 -0.3588 -0.1669
  532SOL    HW1 1595   1.798   0.639   0.846 -0.5405  1.7595  1.0434
  532SOL    HW2 1596   1.709   0.516   0.787  1.2416  0.0679 -1.3154
  533SOL     OW 1597   1.062   0.736   1.967 -0.1388 -0.2489  0.0815
  533SOL    HW1 1598   1.100   0.708   2.057 -2.1206 -0.3917 -0.9183
  533SOL    HW2 1599   1.135   0.764   1.899 -1.5754  1.0525 -0.3220
  534SOL     OW 1600   1.563   0.345   2.677 -0.5932  0.6740 -0.4721
  534SOL    HW1 1601   1.603   0.353   2.774  0.1239  1.3068  2.1018
  534SOL    HW2 1602   1.631   0.299   2.612  1.4712 -1.7014 -1.4603
  535SOL     OW 1603   0.388   0.342   0.350 -0.3799 -0.0393  0.4606
  535SOL    HW1 1604   0.326   0.262   0.330  4.6550 -2.6686  0.8237
  535SOL    HW2 1605   0.346   0.407   0.418  0.4647  0.5677  0.3586
  536SOL     OW 1606   1.000   0.261   0.581  0.1426  0.5729 -0.3061
  536SOL    HW1 1607   1.076   0.332   0.595 -0.8669  1.5551 -1.8078
  536SOL    HW2 1608   0.971   0.207   0.662  1.1015  0.6358 -0.5040
  537SOL     OW 1609   1.916   1.111   0.753  0.2650  0.4685  0.8927
  537SOL    HW1 1610   1.858   1.169   0.694 -0.8566 -0.7764  1.8310
  537SOL    HW2 1611   1.999   1.156   0.784 -1.3444  1.6967 -0.9104
  538SOL     OW 1612   2.979   1.931   0.117  0.2726  0.3232  0.1926
  538SOL    HW1 1613   2.966   1.849   0.184 -0.3234 -0.3224  1.0608
  538SOL    HW2 1614   3.070   1.926   0.073 -4.6079 -2.1277  2.0751
  539SOL     OW 1615   2.141   1.798   0.151  0.5493  0.0398 -0.2162
  539SOL    HW1 1616   2.215   1.836   0.094 -1.9271 -1.8844  1.0483
  539SOL    HW2 1617   2.176   1.762   0.241 -0.2306  2.8894  1.0098
  540SOL     OW 1618   0.470   2.714   1.316 -0.3195 -0.1939  0.1579
  540SOL    HW1 1619   0.454   2.628   1.266  1.5036  1.2464  1.9872
  540SOL    HW2 1620   0.379   2.751   1.347 -1.2418  1.8105 -0.7602
  541SOL     OW 1621   1.952   0.165   2.131 -0.8051 -0.3995 -0.2324
  541SOL    HW1 1622   1.969   0.084   2.186 -4.0605 -0.2059  2.3469
  541SOL    HW2 1623   1.854   0.192   2.124  0.7226  2.3813 -1.1311
  542SOL     OW 1624   2.692   0.561   2.583 -0.3946  0.2215  0.3723
  542SOL    HW1 1625   2.762   0.632   2.609 -0.5495  1.7175  1.0949
  542SOL    HW2 1626   2.632   0.594   2.508 -1.9372  1.4269 -1.8771
  543SOL     OW 1627   0.186   1.043   0.777  0.5107 -0.0013 -0.0353
  543SOL    HW1 1628   0.146   1.127   0.739  1.7248 -0.7443 -0.6513
  543SOL    HW2 1629   0.130   0.972   0.736 -0.2388 -0.4761  2.5369
  544SOL     OW 1630   2.844   0.169   1.245 -0.2791  0.6036  0.2085
  544SOL    HW1 1631   2.862   0.149   1.145  1.3844 -0.2799 -1.8364
  544SOL    HW2 1632   2.840   0.082   1.301  2.5446 -1.7991  1.7942
  545SOL     OW 1633   1.529   2.354   0.545  0.2289 -0.3746  0.6216
  545SOL    HW1 1634   1.582   2.436   0.517 -0.8085 -0.7058 -0.6383
  545SOL    HW2 1635   1.485   2.297   0.473 -1.0469 -1.0352  2.5444
  546SOL     OW 1636   2.073   2.775   1.519  0.1359 -0.3433 -0.3695
  546SOL    HW1 1637   2.062   2.702   1.591  1.2260  0.4691 -0.1918
  546SOL    HW2 1638   2.157   2.832   1.534  0.9502  1.3612  0.9233
  547SOL     OW 1639   0.353   0.077   2.183  0.0221 -0.3586 -0.1018
  547SOL    HW1 1640   0.427   0.007   2.182  2.9121 -1.3870 -0.7700
  547SOL    HW2 1641   0.349   0.112   2.089  2.0091 -1.0433 -1.1116
  548SOL     OW 1642   1.893   1.608   2.963  0.3790  0.5330  0.3502
  548SOL    HW1 1643   1.906   1.704   2.928 -2.1861  1.4508  1.8877
  548SOL    HW2 1644   1.873   1.543   2.880  0.1174  0.9348 -2.3068
  549SOL     OW 1645   3.052   0.890   0.672  0.3664  0.3017 -0.0541
  549SOL    HW1 1646   2.994   0.804   0.674  2.4484 -1.8041  1.6313
  549SOL    HW2 1647   3.025   0.953   0.602 -1.6562 -1.8169  1.5663
  550SOL     OW 1648   1.703   1.934   0.566  0.3383 -0.1405  0.0167
  550SOL    HW1 1649   1.607   1.943   0.527 -3.3314  0.9353 -0.7238
  550SOL    HW2 1650   1.752   2.023   0.577 -0.4883 -1.5974  2.3396
  551SOL     OW 1651   1.359   0.490   0.922 -0.0564  0.1154 -0.0476
  551SOL    HW1 1652   1.284   0.432   0.884 -0.1114  2.3306  0.5863
  551SOL    HW2 1653   1.437   0.487   0.859 -2.3766  1.6336  1.2262
  552SOL     OW 1654   2.615   2.601   2.323 -0.0568  0.3665 -0.1380
  552SOL    HW1 1655   2.709   2.638   2.296  0.7250 -2.0331  0.2402
  552SOL    HW2 1656   2.541   2.673   2.321  1.2376  2.1825  0.1763
  553SOL     OW 1657   0.041   2.974   2.505  0.5378  0.4964  0.1074
  553SOL    HW1 1658   0.040   3.069   2.477  0.0653 -1.3510  1.4924
  553SOL    HW2 1659   3.017   2.946   2.516 -0.8966 -2.3198 -0.0172
  554SOL     OW 1660   1.001   2.852   1.096 -0.1948 -0.0591  0.3302
  554SOL    HW1 1661   0.956   2.933   1.140 -0.8931  1.8327 -0.5001
  554SOL    HW2 1662   1.086   2.819   1.141 -3.7250 -1.0958  1.3568
  555SOL     OW 1663   2.347   2.336   2.014  0.3360  0.5761 -0.6617
  555SOL    HW1 1664   2.444   2.364   2.005 -0.2975 -0.5104  1.8136
  555SOL    HW2 1665   2.296   2.378   2.095 -0.2076 -1.4895  2.0885
  556SOL     OW 1666   1.079   0.144   2.814  0.1989 -0.0471  0.0762
  556SOL    HW1 1667   1.120   0.239   2.807  1.1792  2.7876  0.9425
  556SOL    HW2 1668   1.133   0.074   2.762 -1.4253  0.4965 -1.0652
  557SOL     OW 1669   0.103   1.898   2.310  0.2968 -0.2322 -0.0625
  557SOL    HW1 1670   0.023   1.950   2.352  0.1400 -0.6313  0.6250
  557SOL    HW2 1671   0.141   1.836   2.380  0.1698 -1.7611  0.3337
  558SOL     OW 1672   2.150   1.002   2.423  0.3007 -0.2459  0.6686
  558SOL    HW1 1673   2.233   0.974   2.366 -0.3900 -1.6091 -1.7417
  558SOL    HW2 1674   2.143   1.106   2.438  0.1416  0.5152 -0.8479
  559SOL     OW 1675   2.482   2.146   2.163 -0.0959 -0.3630 -0.2378
  559SOL    HW1 1676   2.479   2.231   2.216 -1.7098 -2.1727 -1.3016
  559SOL    HW2 1677   2.455   2.179   2.072 -0.2254 -2.1432  0.4050
  560SOL     OW 1678   2.685   0.950   2.282 -0.0027  0.2094 -0.1343
  560SOL    HW1 1679   2.604   0.937   2.346 -1.2193  0.0622  1.1448
  560SOL    HW2 1680   2.734   0.858   2.268 -0.5627 -1.3897 -2.8537
  561SOL     OW 1681   0.570   0.628   0.527  0.1783  0.6259 -0.1094
  561SOL    HW1 1682   0.614   0.576   0.605  0.1028  1.2559  0.6271
  561SOL    HW2 1683   0.579   0.581   0.437 -0.3601 -1.0111  3.6772
  562SOL     OW 1684   1.200   1.218   1.556  0.5545 -0.2312  0.1989
  562SOL    HW1 1685   1.117   1.197   1.619 -1.8879  0.3034 -0.3613
  562SOL    HW2 1686   1.203   1.142   1.491  0.1883 -1.0305 -0.9892
  563SOL     OW 1687   1.729   2.861   2.691 -0.2694 -0.0536  0.0805
  563SOL    HW1 1688   1.698   2.820   2.602 -2.7226 -0.8611 -2.8130
  563SOL    HW2 1689   1.787   2.794   2.739  0.5654  1.4315  0.7862
  564SOL     OW 1690   0.208   2.156   0.892 -0.0587 -0.0348  0.5316
  564SOL    HW1 1691   0.197   2.248   0.927  1.4318 -2.2206 -0.2863
  564SOL    HW2 1692   0.234   2.084   0.960 -0.5493  1.2297  0.6224
  565SOL     OW 1693   0.527   2.235   2.441  0.1216  0.3548  0.6131
  565SOL    HW1 1694   0.473   2.178   2.379 -0.3220  1.0623  0.6361
  565SOL    HW2 1695   0.516   2.334   2.414  0.0093 -1.1195 -0.9888
  566SOL     OW 1696   1.109   2.548   2.329  0.3321 -0.0461 -0.0818
  566SOL    HW1 1697   1.124   2.551   2.433  0.0555 -0.7950 -0.0010
  566SOL    HW2 1698   1.025   2.592   2.300  3.3530  1.5688  0.1585
  567SOL     OW 1699   2.219   2.413   0.977 -0.6069  0.5809 -0.0374
  567SOL    HW1 1700   2.291   2.351   1.018 -2.2843 -0.2015 -0.8846
  567SOL    HW2 1701   2.143   2.414   1.047 -2.9336 -1.7009  0.6898
  568SOL     OW 1702   1.887   0.668   0.396  0.0378 -0.2118 -0.1021
  568SOL    HW1 1703   1.899   0.753   0.454  2.7201  3.1292  0.5046
  568SOL    HW2 1704   1.893   0.587   0.459  0.0199  3.0005  2.1182
  569SOL     OW 1705   2.923   1.604   2.651 -0.1336 -0.0385  0.0523
  569SOL    HW1 1706   2.882   1.534   2.586 -0.3166 -0.4951  2.1755
  569SOL    HW2 1707   3.004   1.565   2.699  0.0267  0.1444  0.4344
  570SOL     OW 1708   0.066   0.140   1.192 -0.3629  0.0231 -0.1311
  570SOL    HW1 1709   0.132   0.218   1.200 -1.4159 -2.5453  1.4153
  570SOL    HW2 1710   3.065   0.163   1.134  0.8639 -1.5940  0.6788
  571SOL     OW 1711   2.681   0.383   1.624  0.9253 -0.0796 -0.2084
  571SOL    HW1 1712   2.641   0.443   1.700 -0.6356  2.9829  0.3708
  571SOL    HW2 1713   2.636   0.394   1.532  1.3275  2.2227  1.0557
  572SOL     OW 1714   3.015   2.424   0.838 -0.7636 -0.4111 -0.0260
  572SOL    HW1 1715   2.940   2.358   0.820  0.5620  0.2801  2.5995
  572SOL    HW2 1716   0.025   2.396   0.796 -0.2859 -1.9114  0.6268
  573SOL     OW 1717   0.935   0.699   0.069  0.7739  0.1643  0.5286
  573SOL    HW1 1718   0.881   0.623   0.033  0.9012  2.6075  2.7789
  573SOL    HW2 1719   0.887   0.791   0.076  1.0551  0.7286  1.1981
  574SOL     OW 1720   2.877   2.509   3.039 -0.0508 -0.0045 -0.4486
  574SOL    HW1 1721   2.829   2.543   2.959 -1.6569  0.0514  1.1436
  574SOL    HW2 1722   2.907   2.586   0.022  1.3087  1.2550 -0.9533
  575SOL     OW 1723   1.144   2.239   1.165  0.3582 -0.0209 -0.6028
  575SOL    HW1 1724   1.095   2.277   1.083  0.2867 -3.1640  0.3271
  575SOL    HW2 1725   1.245   2.261   1.163  1.3605  0.7705  1.1198
  576SOL     OW 1726   0.625   2.710   1.037 -0.3279  0.2338  0.3766
  576SOL    HW1 1727   0.616   2.773   1.123  0.2493  0.9532 -1.0721
  576SOL    HW2 1728   0.698   2.743   0.973  0.9694 -0.3365  1.7158
  577SOL     OW 1729   2.118   1.701   1.269  0.1622  0.0984 -0.1076
  577SOL    HW1 1730   2.070   1.788   1.244 -1.9338  3.9306 -1.7026
  577SOL    HW2 1731   2.166   1.664   1.183  0.7913 -0.6434 -1.0810
  578SOL     OW 1732   1.691   0.354   0.335 -0.0964 -0.2407 -0.6798
  578SOL    HW1 1733   1.633   0.434   0.311  1.0711  0.0583  0.7408
  578SOL    HW2 1734   1.687   0.348   0.439 -3.9835 -1.1384  1.2926
  579SOL     OW 1735   2.696   1.290   2.789 -0.0352 -0.5736 -0.1026
  579SOL    HW1 1736   2.660   1.387   2.783 -2.0501  0.0665 -0.1787
  579SOL    HW2 1737   2.652   1.241   2.715  0.7388  2.3919  1.2148
  580SOL     OW 1738   1.635   0.713   1.637 -0.0698 -0.1875 -0.1465
  580SOL    HW1 1739   1.656   0.773   1.717  0.1681  2.1871 -1.2443
  580SOL    HW2 1740   1.611   0.617   1.662  0.3124  1.0745 -4.0200
  581SOL     OW 1741   0.975   1.136   1.228  0.2162 -0.2269  0.3505
  581SOL    HW1 1742   0.883   1.119   1.266  2.4413 -0.3903 -0.3233
  581SOL    HW2 1743   1.045   1.087   1.285 -0.9277 -2.8151  2.3407
  582SOL     OW 1744   2.620   0.168   2.238  0.7942  0.1982 -0.2218
  582SOL    HW1 1745   2.523   0.175   2.272 -0.6201  1.5487  0.5071
  582SOL    HW2 1746   2.630   0.196   2.145 -0.7735 -0.6400  1.0261
  583SOL     OW 1747   2.423   0.553   2.060  0.5409  0.1366 -0.0175
  583SOL    HW1 1748   2.353   0.481   2.088 -2.0952 -1.2599  1.1374
  583SOL    HW2 1749   2.486   0.507   1.997 -2.0394  1.4574  1.1766
  584SOL     OW 1750   1.266   1.793   2.802  0.0435  0.7940 -0.0776
  584SOL    HW1 1751   1.301   1.796   2.896  1.9878  0.9162  1.1044
  584SOL    HW2 1752   1.340   1.789   2.731  2.8472 -1.9338  0.6245
  585SOL     OW 1753   0.235   0.112   0.347  0.0182  0.0736 -0.0391
  585SOL    HW1 1754   0.241   0.046   0.272  4.2811  0.5752 -1.3782
  585SOL    HW2 1755   0.151   0.165   0.353  0.9562 -0.5487 -2.3721
  586SOL     OW 1756   1.541   2.183   2.532  0.3124  0.0752 -0.4285
  586SOL    HW1 1757   1.531   2.265   2.598 -0.2180  1.2073 -1.5640
  586SOL    HW2 1758   1.461   2.123   2.539  0.1843 -1.1185 -0.2794
  587SOL     OW 1759   2.373   2.461   0.391 -0.2861 -0.4912  0.4276
  587SOL    HW1 1760   2.366   2.494   0.488  1.3531 -1.4900  4.7890
  587SOL    HW2 1761   2.471   2.443   0.376 -3.0034 -0.9640 -0.1688
  588SOL     OW 1762   2.648   0.228   1.071 -0.5103  0.1206  0.5093
  588SOL    HW1 1763   2.723   0.282   1.112 -2.6563  1.5576  1.0057
  588SOL    HW2 1764   2.567   0.288   1.060  0.4204 -0.3638  1.6365
  589SOL     OW 1765   0.484   0.669   1.002  0.5388 -1.0041 -0.6326
  589SOL    HW1 1766   0.560   0.680   0.932 -1.1538  1.8745  0.7362
  589SOL    HW2 1767   0.434   0.586   0.977  0.9774 -0.0973 -1.6026
  590SOL     OW 1768   2.142   1.790   0.780 -0.6390 -1.0025  0.6712
  590SOL    HW1 1769   2.112   1.698   0.759  0.3349  1.1255 -2.1530
  590SOL    HW2 1770   2.116   1.863   0.710 -2.7560 -0.1655 -0.8401
  591SOL     OW 1771   0.631   2.468   1.112 -0.2261  0.4096  0.5704
  591SOL    HW1 1772   0.613   2.394   1.045  0.0162  0.2239  0.7402
  591SOL    HW2 1773   0.629   2.559   1.063 -0.3946 -1.5454  3.5616
  592SOL     OW 1774   1.180   0.707   1.161 -0.1357 -0.0919  0.2299
  592SOL    HW1 1775   1.237   0.691   1.244  1.3168  2.1514  1.0353
  592SOL    HW2 1776   1.081   0.687   1.177 -1.0720  1.5712  1.9384
  593SOL     OW 1777   0.971   1.115   0.934  0.2230 -0.1134  0.2528
  593SOL    HW1 1778   0.986   1.212   0.903  1.0199  0.5540 -0.1149
  593SOL    HW2 1779   0.994   1.100   1.034  0.2281 -1.0568  2.6020
  594SOL     OW 1780   1.037   2.064   0.374 -0.0605  0.2187 -0.0886
  594SOL    HW1 1781   1.081   2.066   0.285  1.3107  0.3634  2.6222
  594SOL    HW2 1782   1.032   1.965   0.406 -0.1837 -1.8904  0.4919
  595SOL     OW 1783   1.582   0.247   1.106 -0.0590  0.0378 -0.1877
  595SOL    HW1 1784   1.664   0.278   1.052  0.3781 -0.3133 -1.3588
  595SOL    HW2 1785   1.521   0.324   1.136 -2.6018 -0.0088 -0.0862
  596SOL     OW 1786   0.102   1.681   0.883  0.5603 -0.4093 -0.1865
  596SOL    HW1 1787   0.096   1.671   0.986 -1.1380 -2.0844  1.2834
  596SOL    HW2 1788   0.097   1.783   0.864  1.4707  1.4235  0.8546
  597SOL     OW 1789   0.195   2.570   2.577 -0.0124  0.4791 -0.2598
  597SOL    HW1 1790   0.227   2.479   2.615  0.3164 -1.3091  0.3952
  597SOL    HW2 1791   0.200   2.643   2.648 -1.1845 -0.0310  0.4702
  598SOL     OW 1792   2.789   2.504   1.814 -0.0098 -0.3432 -0.1772
  598SOL    HW1 1793   2.829   2.507   1.907 -0.6623  4.6713 -2.6093
  598SOL    HW2 1794   2.753   2.415   1.781 -1.8152  0.4233 -0.1767
  599SOL     OW 1795   0.934   0.377   0.042  0.5858  0.2030 -0.5994
  599SOL    HW1 1796   0.906   0.371   0.139  1.4619  0.0197 -1.4073
  599SOL    HW2 1797   0.911   0.294   3.070 -1.2755  0.9922 -2.6550
  600SOL     OW 1798   0.425   2.458   0.082  0.0744  0.0123  0.4118
  600SOL    HW1 1799   0.384   2.491   0.173  0.0948  1.2387  1.6596
  600SOL    HW2 1800   0.399   2.519   0.001 -0.2997 -0.0064 -0.5192
  601SOL     OW 1801   0.448   0.866   1.468 -0.6847 -0.3463  0.3003
  601SOL    HW1 1802   0.531   0.922   1.492  0.2995  1.7764 -0.5748
  601SOL    HW2 1803   0.474   0.776   1.434 -1.6778  2.3385  0.9337
  602SOL     OW 1804   0.840   2.780   0.877 -0.1000  0.2271 -0.0960
  602SOL    HW1 1805   0.899   2.737   0.806 -1.2276 -1.5378  0.1466
  602SOL    HW2 1806   0.897   2.807   0.961  1.7095 -2.6610  0.9505
  603SOL     OW 1807   0.545   0.351   2.198  0.0424 -0.5530 -0.3973
  603SOL    HW1 1808   0.645   0.354   2.181  0.2497 -1.3342 -0.6347
  603SOL    HW2 1809   0.511   0.256   2.218 -1.4435 -3.0431 -1.5554
  604SOL     OW 1810   0.874   2.793   1.581 -0.1562  0.4401 -0.3233
  604SOL    HW1 1811   0.911   2.879   1.541 -0.8710  0.7545  0.4263
  604SOL    HW2 1812   0.804   2.754   1.525 -0.2258 -0.5107  0.6875
  605SOL     OW 1813   1.683   0.801   1.913 -0.5069  0.6631 -0.0704
  605SOL    HW1 1814   1.677   0.899   1.882  2.2234 -2.6191  1.0319
  605SOL    HW2 1815   1.645   0.792   2.008 -1.5836 -0.6584  0.6862
  606SOL     OW 1816   2.474   2.763   2.940 -0.4007  0.2897 -0.1374
  606SOL    HW1 1817   2.375   2.774   2.917 -0.0375  0.9458  0.7755
  606SOL    HW2 1818   2.521   2.852   2.955  1.4329  3.7400  0.3424
  607SOL     OW 1819   0.923   0.626   1.260  0.7047 -0.4005 -0.2824
  607SOL    HW1 1820   0.841   0.675   1.232 -3.8227 -1.3921 -1.6525
  607SOL    HW2 1821   0.909   0.540   1.312  1.9022 -0.0735  2.8970
  608SOL     OW 1822   0.335   1.943   2.599  1.0833 -0.1852  0.6334
  608SOL    HW1 1823   0.311   1.948   2.695 -2.1132  0.7010 -3.7604
  608SOL    HW2 1824   0.287   1.866   2.554 -1.0607 -1.1960  1.2136
  609SOL     OW 1825   1.191   1.040   0.410 -0.6833  0.2580 -0.5020
  609SOL    HW1 1826   1.215   1.093   0.491  1.4528  0.5059 -0.0340
  609SOL    HW2 1827   1.093   1.012   0.419  1.1804 -0.9654  0.3335
  610SOL     OW 1828   0.591   0.443   1.278 -0.1348 -0.7312 -0.5238
  610SOL    HW1 1829   0.544   0.357   1.257 -0.1497 -0.0480  3.6103
  610SOL    HW2 1830   0.636   0.475   1.191  0.4221 -1.0430  2.9655
  611SOL     OW 1831   1.732   0.986   0.956  0.1333  0.1756  0.1549
  611SOL    HW1 1832   1.644   0.950   0.919 -3.0197 -2.2118  0.7662
  611SOL    HW2 1833   1.792   1.028   0.881  2.1603 -0.0755 -2.2950
  612SOL     OW 1834   1.618   0.953   0.152  0.3683 -0.2174 -0.0873
  612SOL    HW1 1835   1.643   0.869   0.201  0.1889  2.3037  0.4024
  612SOL    HW2 1836   1.547   1.012   0.204 -1.8038  1.2498  0.9404
  613SOL     OW 1837   2.102   0.523   0.263 -0.1035  0.1925 -0.0427
  613SOL    HW1 1838   2.068   0.429   0.238 -0.5239  1.7479  0.8106
  613SOL    HW2 1839   2.025   0.571   0.308  2.0062 -2.7834  0.4006
  614SOL     OW 1840   2.721   0.093   2.464 -0.4070  0.0901  0.2574
  614SOL    HW1 1841   2.689   0.126   2.370 -1.2527  1.3278  1.2592
  614SOL    HW2 1842   2.757   0.169   2.520 -0.0086  0.8805  1.3785
  615SOL     OW 1843   0.867   1.979   0.888 -0.1527 -0.1764 -0.6368
  615SOL    HW1 1844   0.941   1.912   0.908  1.9371  2.2545  0.1558
  615SOL    HW2 1845   0.797   1.986   0.963  1.0717 -0.2411 -3.0572
  616SOL     OW 1846   1.453   1.414   2.746 -0.0492 -0.1158  0.3357
  616SOL    HW1 1847   1.432   1.407   2.646 -0.8941 -0.7095 -0.4110
  616SOL    HW2 1848   1.400   1.344   2.800 -1.8065  1.2258  2.3115
  617SOL     OW 1849   1.649   0.394   2.922 -0.4118 -0.1770 -0.4221
  617SOL    HW1 1850   1.686   0.487   2.893 -0.3114  1.2115  1.8450
  617SOL    HW2 1851   1.728   0.331   2.951  2.4570 -0.6064  0.0527
  618SOL     OW 1852   1.213   2.186   2.509  0.1200  0.5328  0.1141
  618SOL    HW1 1853   1.256   2.094   2.509 -1.0411 -0.7641 -0.3186
  618SOL    HW2 1854   1.187   2.211   2.605 -3.0475 -0.4020 -0.3522
  619SOL     OW 1855   2.566   1.641   0.794 -0.3977 -0.4333  0.6971
  619SOL    HW1 1856   2.628   1.719   0.820 -3.2889 -0.6110  2.6417
  619SOL    HW2 1857   2.627   1.572   0.748  1.2517  0.6723 -0.7052
  620SOL     OW 1858   2.132   2.747   2.391  0.2515 -0.5376 -0.4574
  620SOL    HW1 1859   2.127   2.846   2.364  1.4080  0.4811  0.3824
  620SOL    HW2 1860   2.053   2.692   2.353 -1.4559 -0.2183  3.0791
  621SOL     OW 1861   3.051   1.207   0.673 -0.5663 -0.5302 -0.2934
  621SOL    HW1 1862   2.994   1.190   0.760  1.3805  0.3804  2.5546
  621SOL    HW2 1863   3.054   1.311   0.669  0.0534  0.8355  0.4546
  622SOL     OW 1864   1.219   1.724   2.439  0.1395 -0.3134 -0.2487
  622SOL    HW1 1865   1.152   1.684   2.382  1.3166  0.3169  1.7241
  622SOL    HW2 1866   1.290   1.662   2.469  0.9454  0.7966  4.0298
  623SOL     OW 1867   0.266   2.540   2.285  0.1490  0.1383 -0.2629
  623SOL    HW1 1868   0.202   2.471   2.251 -1.3240 -1.6353  4.0913
  623SOL    HW2 1869   0.233   2.579   2.372  1.5431 -1.4104 -2.2320
  624SOL     OW 1870   0.730   2.673   3.001  0.1138 -0.1083 -0.4116
  624SOL    HW1 1871   0.733   2.574   2.976  0.9092 -0.4309 -1.6109
  624SOL    HW2 1872   0.695   2.699   0.017  4.9248  1.9947  0.1922
  625SOL     OW 1873   0.250   2.284   2.020  0.0629 -0.5344 -0.6865
  625SOL    HW1 1874   0.318   2.342   1.982 -1.4582 -2.5673 -1.7015
  625SOL    HW2 1875   0.184   2.257   1.943 -1.5559 -2.2042 -3.3988
  626SOL     OW 1876   0.162   3.040   0.105  0.1522  0.5990  0.2189
  626SOL    HW1 1877   0.087   0.022   0.123  4.2065 -1.8774  0.2230
  626SOL    HW2 1878   0.189   3.038   0.004 -0.6815 -0.2364  0.7725
  627SOL     OW 1879   2.010   1.549   0.110 -0.2587 -0.1674 -0.3404
  627SOL    HW1 1880   2.051   1.638   0.135 -0.4471 -1.5198 -3.3414
  627SOL    HW2 1881   1.955   1.567   0.028 -2.2532  0.6793  3.8472
  628SOL     OW 1882   1.301   1.827   0.015  0.0148  0.2769 -0.8179
  628SOL    HW1 1883   1.314   1.761   0.093 -1.4379  2.7609  1.4233
  628SOL    HW2 1884   1.202   1.833   3.073  0.4550  0.5912  1.4762
  629SOL     OW 1885   2.942   0.321   1.636  0.0655 -0.1429 -0.2827
  629SOL    HW1 1886   2.993   0.371   1.707 -1.3990 -0.3179  0.2471
  629SOL    HW2 1887   2.844   0.326   1.650  1.8244 -1.4880 -0.8762
  630SOL     OW 1888   1.959   0.927   1.844  0.1143 -0.0594  0.2524
  630SOL    HW1 1889   1.860   0.911   1.867 -0.3990  0.4013 -0.1951
  630SOL    HW2 1890   1.979   0.888   1.749 -0.8617 -2.8065 -0.5508
  631SOL     OW 1891   1.859   0.161   0.772  0.3469 -0.0768 -0.4842
  631SOL    HW1 1892   1.777   0.108   0.744  1.5673  3.1666  2.1900
  631SOL    HW2 1893   1.842   0.200   0.867 -0.9738  1.3884 -1.4924
  632SOL     OW 1894   2.752   0.951   2.009 -0.7730 -0.4737  0.0033
  632SOL    HW1 1895   2.719   1.005   1.931 -0.0630  1.8429  0.8418
  632SOL    HW2 1896   2.705   0.989   2.091 -0.9172 -0.5136  3.6556
  633SOL     OW 1897   0.735   0.409   2.562  0.2172  0.0905 -0.4118
  633SOL    HW1 1898   0.779   0.471   2.631 -1.0632  0.0639 -2.0801
  633SOL    HW2 1899   0.806   0.355   2.517 -0.9967 -0.2843 -0.3574
  634SOL     OW 1900   0.534   2.847   2.874 -0.2166 -0.2554 -0.4199
  634SOL    HW1 1901   0.604   2.776   2.893 -1.2235 -1.0633  0.1904
  634SOL    HW2 1902   0.466   2.844   2.945  2.2816  1.6026 -1.5822
  635SOL     OW 1903   0.087   1.382   1.207 -0.0295 -0.5433 -0.2971
  635SOL    HW1 1904   0.110   1.480   1.193  2.3334 -1.2290 -1.2161
  635SOL    HW2 1905   3.072   1.364   1.244  0.7348 -0.4588 -1.6595
  636SOL     OW 1906   0.092   1.592   3.044  0.1209  0.1435 -0.1933
  636SOL    HW1 1907   0.033   1.522   0.011  3.5924  0.8736  1.7608
  636SOL    HW2 1908   0.188   1.585   0.004  0.4299 -0.2313  0.6279
  637SOL     OW 1909   0.086   2.376   0.089 -0.2318 -0.7414 -0.0479
  637SOL    HW1 1910   0.184   2.351   0.060  0.9967 -2.8033  0.4417
  637SOL    HW2 1911   0.039   2.293   0.129 -1.4964 -2.5129  0.7161
  638SOL     OW 1912   2.843   2.527   0.540 -0.6353 -0.0350  0.1431
  638SOL    HW1 1913   2.918   2.516   0.472 -2.4345  0.3606 -1.3309
  638SOL    HW2 1914   2.837   2.440   0.587 -1.0377  0.2486 -0.7630
  639SOL     OW 1915   1.374   0.782   0.171 -0.7110 -0.5286 -0.0665
  639SOL    HW1 1916   1.310   0.746   0.103  1.7647  0.4674 -0.3369
  639SOL    HW2 1917   1.406   0.877   0.140 -0.2580  3.5325 -0.6853
  640SOL     OW 1918   1.990   2.194   1.695  1.0454 -0.0519  0.5740
  640SOL    HW1 1919   1.888   2.191   1.697  0.3157 -3.0478 -3.0031
  640SOL    HW2 1920   2.035   2.215   1.606  1.2992  1.0492 -1.9109
  641SOL     OW 1921   3.023   2.923   0.705  0.3355 -0.0770  0.6035
  641SOL    HW1 1922   3.009   2.843   0.767 -0.0743  1.0295  0.0040
  641SOL    HW2 1923   2.956   2.996   0.722  0.9108 -2.0686 -0.7504
  642SOL     OW 1924   1.226   0.836   1.749 -0.1601  0.3917 -0.4148
  642SOL    HW1 1925   1.269   0.911   1.805  0.0567  0.1726  0.3092
  642SOL    HW2 1926   1.293   0.819   1.672 -1.0784 -1.1630 -1.2462
  643SOL     OW 1927   0.880   1.771   2.603 -0.2442  0.1842  0.2509
  643SOL    HW1 1928   0.939   1.814   2.672 -0.7366 -0.3954  1.8141
  643SOL    HW2 1929   0.795   1.724   2.641 -0.7379  2.9045 -2.5271
  644SOL     OW 1930   1.132   2.514   2.594  0.4370 -0.1783  0.1149
  644SOL    HW1 1931   1.150   2.422   2.642 -1.1784  0.6819  0.5131
  644SOL    HW2 1932   1.050   2.558   2.636 -1.9376 -0.2775  0.2036
  645SOL     OW 1933   1.652   1.072   1.888 -0.6725 -0.3831 -0.7960
  645SOL    HW1 1934   1.645   1.131   1.972 -0.2217  1.6877  0.3326
  645SOL    HW2 1935   1.648   1.130   1.804  0.2972  0.5381 -0.7978
  646SOL     OW 1936   0.934   2.636   2.744 -0.0055 -0.1858  0.1861
  646SOL    HW1 1937   0.841   2.600   2.722 -2.6589 -0.1067  1.0085
  646SOL    HW2 1938   0.928   2.711   2.811 -0.0129 -0.1409 -1.9017
  647SOL     OW 1939   0.941   3.065   0.513 -0.0739 -0.4912  0.0661
  647SOL    HW1 1940   1.014   3.040   0.576  1.4086  0.9253 -4.5137
  647SOL    HW2 1941   0.927   0.087   0.518  1.5394 -0.6537  1.0333
  648SOL     OW 1942   2.715   2.813   1.459 -0.3418  0.2480  0.5533
  648SOL    HW1 1943   2.641   2.797   1.391  0.3447  1.5773  0.4841
  648SOL    HW2 1944   2.699   2.768   1.553 -2.7283 -1.3850  2.6925
  649SOL     OW 1945   0.642   2.403   2.927 -0.4962  0.6509  0.5302
  649SOL    HW1 1946   0.623   2.301   2.923  2.8007 -1.6932 -1.5959
  649SOL    HW2 1947   0.556   2.456   2.935  1.2163  1.2857 -2.7568
  650SOL     OW 1948   2.498   1.883   2.086  0.2063 -0.6512 -0.6557
  650SOL    HW1 1949   2.473   1.797   2.136 -0.0285 -1.4970 -2.3399
  650SOL    HW2 1950   2.471   1.974   2.123  1.7828 -0.0709  0.0258
  651SOL     OW 1951   2.914   2.467   2.062 -0.4849  0.3645  0.1898
  651SOL    HW1 1952   2.975   2.543   2.049 -2.3729 -0.0042 -2.1470
  651SOL    HW2 1953   2.919   2.436   2.160 -0.1886 -0.0175 -0.8359
  652SOL     OW 1954   2.506   2.049   0.404 -0.0007 -0.3554  0.2471
  652SOL    HW1 1955   2.524   2.057   0.506 -1.1305 -0.4017  1.7311
  652SOL    HW2 1956   2.427   2.109   0.375 -3.9682  0.9065 -0.6295
  653SOL     OW 1957   2.619   0.999   1.208  0.5513  0.1226 -0.2321
  653SOL    HW1 1958   2.641   1.009   1.111  2.5360 -0.2042  2.1413
  653SOL    HW2 1959   2.651   0.907   1.236  1.0292  0.3076 -1.5513
  654SOL     OW 1960   0.857   0.172   2.965 -0.2209  0.0030  0.2500
  654SOL    HW1 1961   0.941   0.165   2.907  1.4364  3.7178 -2.0119
  654SOL    HW2 1962   0.784   0.115   2.930  0.2331  2.8141  1.0309
  655SOL     OW 1963   1.230   0.195   1.164  0.6528 -0.7541  0.5096
  655SOL    HW1 1964   1.180   0.188   1.252  1.3141  0.3260  0.3345
  655SOL    HW2 1965   1.286   0.280   1.158 -1.1359 -1.4295  1.1048
  656SOL     OW 1966   0.420   2.479   1.908  0.0362 -0.2210 -0.2386
  656SOL    HW1 1967   0.474   2.510   1.829  0.2190 -0.3760  2.3799
  656SOL    HW2 1968   0.419   2.549   1.977 -1.5864 -0.9094 -0.5786
  657SOL     OW 1969   2.468   0.724   0.134 -0.0859  0.0397  0.0504
  657SOL    HW1 1970   2.516   0.635   0.122 -0.6828 -1.1520  0.8837
  657SOL    HW2 1971   2.519   0.799   0.088 -0.7689 -0.1206 -0.2154
  658SOL     OW 1972   1.947   1.809   0.966 -0.2590  0.0806 -0.9471
  658SOL    HW1 1973   1.934   1.835   1.067 -3.1341  1.2229 -0.2441
  658SOL    HW2 1974   2.043   1.811   0.934  1.2019  1.9499  1.6995
  659SOL     OW 1975   2.700   2.258   2.837 -0.4778 -0.4093 -0.4128
  659SOL    HW1 1976   2.629   2.276   2.771  0.3035  0.1470 -2.0524
  659SOL    HW2 1977   2.786   2.309   2.818  1.4388  3.0255 -1.2526
  660SOL     OW 1978   1.294   0.466   0.317  0.0596 -0.4053  0.1203
  660SOL    HW1 1979   1.251   0.482   0.229 -0.0691 -1.6844 -1.1112
  660SOL    HW2 1980   1.394   0.504   0.318  3.4306  2.3877  0.6519
  661SOL     OW 1981   2.246   0.191   0.046 -0.1004  0.1776  0.1857
  661SOL    HW1 1982   2.308   0.236   0.110 -3.0944  0.7999 -4.0448
  661SOL    HW2 1983   2.260   0.090   0.047 -0.9323 -0.7596  1.0919
  662SOL     OW 1984   0.499   0.133   0.737 -0.2989  0.2094 -0.5690
  662SOL    HW1 1985   0.440   0.086   0.666  3.3342  1.0925  4.2158
  662SOL    HW2 1986   0.498   0.086   0.828  1.0568 -2.2736 -0.2443
  663SOL     OW 1987   1.344   0.357   2.517 -0.1221  0.2071  0.1846
  663SOL    HW1 1988   1.375   0.431   2.454 -0.8882  0.8222 -0.7081
  663SOL    HW2 1989   1.416   0.333   2.580 -0.5998  1.9452 -1.0168
  664SOL     OW 1990   0.577   2.979   1.230 -0.3508 -0.4633 -0.4184
  664SOL    HW1 1991   0.629   3.029   1.301 -0.8322 -1.7217 -0.9036
  664SOL    HW2 1992   0.540   2.893   1.265 -1.4847 -1.0455 -2.4185
  665SOL     OW 1993   0.838   2.344   1.581  0.1328  0.2322 -0.4601
  665SOL    HW1 1994   0.815   2.367   1.480  1.4664  0.9913  1.0636
  665SOL    HW2 1995   0.880   2.427   1.624  0.7116 -0.5375 -1.5407
  666SOL     OW 1996   0.287   3.049   2.640 -0.0666  0.5471 -0.2825
  666SOL    HW1 1997   0.359   2.980   2.632 -2.1821  1.2772  0.0828
  666SOL    HW2 1998   0.208   3.019   2.581 -0.0794 -3.2526 -0.2939
  667SOL     OW 1999   1.823   1.663   1.679  0.3974 -0.3591 -0.0346
  667SOL    HW1 2000   1.847   1.631   1.593 -0.1537  0.6195  3.9890
  667SOL    HW2 2001   1.892   1.729   1.711  2.4381  0.9317 -2.3251
  668SOL     OW 2002   1.429   0.204   1.814  0.6178 -0.4238 -0.1533
  668SOL    HW1 2003   1.525   0.166   1.814  0.1382 -2.4802  0.7310
  668SOL    HW2 2004   1.403   0.241   1.724  2.1367  1.8890  0.3038
  669SOL     OW 2005   2.703   2.547   1.113  0.0042 -0.1275 -0.2470
  669SOL    HW1 2006   2.800   2.564   1.080 -1.4557 -2.3080 -4.2456
  669SOL    HW2 2007   2.657   2.629   1.147 -0.4304 -0.4479  0.7958
  670SOL     OW 2008   1.188   2.286   2.768 -0.0931  0.1353  0.0984
  670SOL    HW1 2009   1.199   2.203   2.825 -0.8097 -2.0762 -3.0280
  670SOL    HW2 2010   1.218   2.369   2.820  2.0142  1.0361  1.2062
  671SOL     OW 2011   0.859   1.216   0.496  0.0649  0.5908  0.7065
  671SOL    HW1 2012   0.808   1.229   0.583  2.3019  2.8749  0.4460
  671SOL    HW2 2013   0.897   1.122   0.485 -0.2966 -0.8482 -3.2267
  672SOL     OW 2014   2.950   1.183   2.464 -0.4872 -0.0779  0.2446
  672SOL    HW1 2015   2.977   1.200   2.560 -0.0315  1.1809 -0.4247
  672SOL    HW2 2016   2.963   1.084   2.437 -0.6475  1.5125  0.4263
  673SOL     OW 2017   2.696   2.000   1.504  0.6067  0.4778 -0.4764
  673SOL    HW1 2018   2.733   2.016   1.599  0.8688  1.0872  0.1817
  673SOL    HW2 2019   2.592   1.988   1.515 -0.1182  1.3750 -0.7849
  674SOL     OW 2020   0.496   2.502   2.369 -0.0824  0.0177 -0.2838
  674SOL    HW1 2021   0.407   2.517   2.324 -0.8429  0.8348  0.9906
  674SOL    HW2 2022   0.564   2.574   2.344  2.5959 -0.4120  1.7121
  675SOL     OW 2023   0.738   0.886   1.532 -0.4278 -0.4146  0.4186
  675SOL    HW1 2024   0.819   0.893   1.597  3.5943  0.3088  4.6246
  675SOL    HW2 2025   0.774   0.928   1.443  2.2445  0.0317 -2.9896
  676SOL     OW 2026   2.300   0.195   1.158  0.2247 -0.0437  0.1715
  676SOL    HW1 2027   2.323   0.099   1.134 -0.3077  2.7714 -0.7508
  676SOL    HW2 2028   2.361   0.268   1.117  2.4050  2.5975  0.0358
  677SOL     OW 2029   2.399   1.474   3.037 -0.6496  0.5655 -0.0273
  677SOL    HW1 2030   2.408   1.547   0.034  1.7258  1.9951 -0.2289
  677SOL    HW2 2031   2.315   1.485   2.981 -0.2448  1.2803  3.3781
  678SOL     OW 2032   2.829   1.388   0.986 -0.4629 -0.1945  0.0709
  678SOL    HW1 2033   2.840   1.377   1.086 -0.6130 -1.8825  1.3400
  678SOL    HW2 2034   2.906   1.336   0.938  1.0580  1.3925 -0.7533
  679SOL     OW 2035   2.784   0.463   3.038  0.4734 -0.3095 -0.0857
  679SOL    HW1 2036   2.807   0.400   0.036  0.3309 -0.0061  0.1606
  679SOL    HW2 2037   2.834   0.552   3.047  0.2006  0.7972  2.3826
  680SOL     OW 2038   0.267   2.053   1.770 -0.2827  0.3246  0.1788
  680SOL    HW1 2039   0.164   2.061   1.767 -1.9493 -1.0384  0.2010
  680SOL    HW2 2040   0.291   1.971   1.825  2.7243  0.8803 -0.6692
  681SOL     OW 2041   1.873   1.957   1.460 -0.2187  0.2408  0.3600
  681SOL    HW1 2042   1.947   1.943   1.531  0.1736  0.1392  3.4194
  681SOL    HW2 2043   1.786   1.918   1.489  2.2304  0.6441 -1.5832
  682SOL     OW 2044   0.375   1.586   3.059  0.3228  0.0913 -0.1443
  682SOL    HW1 2045   0.423   1.646   2.996 -0.7164 -2.6064  1.9003
  682SOL    HW2 2046   0.356   1.504   2.999 -0.7713  0.5520  1.7851
  683SOL     OW 2047   0.168   1.998   1.441 -0.1673  0.6069  0.2395
  683SOL    HW1 2048   0.172   2.103   1.437  1.0889  0.5411 -1.4266
  683SOL    HW2 2049   0.217   1.964   1.359 -0.8155  2.5557 -2.9798
  684SOL     OW 2050   2.941   1.223   2.044  0.1380  0.1995 -0.5027
  684SOL    HW1 2051   2.888   1.265   1.973 -0.6581 -1.0612  0.9022
  684SOL    HW2 2052   2.888   1.218   2.138 -2.0117 -1.0189  4.1797
  685SOL     OW 2053   1.568   0.817   0.815  0.7283  0.4709  0.3794
  685SOL    HW1 2054   1.526   0.788   0.907 -1.3086 -1.1911  1.3540
  685SOL    HW2 2055   1.510   0.785   0.740  0.7538  0.4940  1.9566
  686SOL     OW 2056   0.508   0.383   0.839 -0.0224 -0.1716  0.1268
  686SOL    HW1 2057   0.409   0.398   0.853 -0.2435 -3.4769 -1.6764
  686SOL    HW2 2058   0.526   0.294   0.781  2.1549 -2.5606 -4.5419
  687SOL     OW 2059   0.947   2.186   2.896  1.0009  0.5037 -0.0219
  687SOL    HW1 2060   0.987   2.138   2.977  0.5036  0.8088 -0.1975
  687SOL    HW2 2061   0.965   2.289   2.908 -0.4375  0.6125 -1.0341
  688SOL     OW 2062   1.738   0.867   1.451  0.2978  0.3500 -0.2923
  688SOL    HW1 2063   1.677   0.840   1.373  1.9784 -2.2810 -1.0300
  688SOL    HW2 2064   1.700   0.815   1.535 -3.0224  0.1583  0.7772
  689SOL     OW 2065   1.831   0.339   0.983 -0.3051  0.0846 -0.0038
  689SOL    HW1 2066   1.897   0.352   1.062  2.5279 -0.2274  1.8934
  689SOL    HW2 2067   1.828   0.417   0.916  2.5224 -0.1091  1.2231
  690SOL     OW 2068   3.048   1.486   0.733 -0.0686 -0.1962  0.7566
  690SOL    HW1 2069   0.032   1.536   0.796 -0.7538  1.5675  0.4533
  690SOL    HW2 2070   3.001   1.550   0.673  1.7474  0.1945 -0.5810
  691SOL     OW 2071   0.375   2.324   1.172 -0.4189 -0.2276  0.2835
  691SOL    HW1 2072   0.469   2.366   1.159 -0.7447 -1.8453 -1.7502
  691SOL    HW2 2073   0.322   2.344   1.088  0.5847 -2.6680  0.5774
  692SOL     OW 2074   1.687   0.014   1.585  0.0095 -0.5363 -0.4098
  692SOL    HW1 2075   1.686   0.065   1.675  0.1462  0.1426  1.0389
  692SOL    HW2 2076   1.768   0.040   1.530 -0.8602  1.1709  1.7546
  693SOL     OW 2077   0.684   1.723   2.173  0.1683  0.5215 -0.0849
  693SOL    HW1 2078   0.628   1.796   2.130  2.0982  0.3925 -0.2948
  693SOL    HW2 2079   0.747   1.766   2.243 -2.1489 -1.2744  1.2622
  694SOL     OW 2080   1.982   1.353   1.061 -0.1723 -0.5419 -0.0944
  694SOL    HW1 2081   1.931   1.433   1.088  0.6020 -1.9236 -1.5249
  694SOL    HW2 2082   1.922   1.286   1.013 -1.3628 -1.5065  0.0353
  695SOL     OW 2083   1.101   0.772   0.907  0.5890 -0.5109  0.3245
  695SOL    HW1 2084   1.075   0.686   0.856  0.9545  0.8102  2.4873
  695SOL    HW2 2085   1.139   0.753   1.002 -0.2677  0.6579 -1.0295
  696SOL     OW 2086   0.325   3.040   0.548 -0.0693 -0.6079  0.1810
  696SOL    HW1 2087   0.311   0.023   0.468  0.7607  1.7703 -0.6038
  696SOL    HW2 2088   0.357   2.949   0.516 -0.7652 -0.3488  1.1406
  697SOL     OW 2089   2.074   0.556   0.996 -0.1670 -0.6742 -0.6952
  697SOL    HW1 2090   1.980   0.599   1.005 -0.5064 -0.6115  1.4497
  697SOL    HW2 2091   2.143   0.619   1.035  0.6226  1.4347 -0.2269
  698SOL     OW 2092   1.628   1.273   2.104 -0.1899 -0.4136  0.2039
  698SOL    HW1 2093   1.598   1.239   2.191  0.4999  4.4831 -2.6104
  698SOL    HW2 2094   1.627   1.374   2.101  0.3475  2.1975  0.3170
  699SOL     OW 2095   2.615   0.462   1.889  0.0001 -0.2205  0.1874
  699SOL    HW1 2096   2.667   0.550   1.900 -1.7570  0.8291  1.6258
  699SOL    HW2 2097   2.671   0.386   1.928 -2.0189 -0.3936  1.5039
  700SOL     OW 2098   1.680   2.595   0.476 -0.3921 -0.6285  0.2238
  700SOL    HW1 2099   1.661   2.694   0.499 -0.0065  1.5840  2.6078
  700SOL    HW2 2100   1.781   2.573   0.482  3.6895 -3.5216  2.1627
  701SOL     OW 2101   2.589   1.982   2.574  0.1954 -0.2286  0.1413
  701SOL    HW1 2102   2.659   1.919   2.530  0.6361  0.8928  2.0103
  701SOL    HW2 2103   2.603   1.980   2.673  0.5575 -0.0333 -2.1513
  702SOL     OW 2104   0.674   3.050   0.490 -0.4936 -0.1082 -0.0368
  702SOL    HW1 2105   0.634   3.000   0.568  0.7688  0.8933 -1.1687
  702SOL    HW2 2106   0.775   3.057   0.495  0.2354  0.5554 -0.8463
  703SOL     OW 2107   1.809   2.851   2.181 -0.0183 -0.4316 -0.2050
  703SOL    HW1 2108   1.848   2.875   2.092 -0.5876 -0.0935 -1.4357
  703SOL    HW2 2109   1.835   2.754   2.200  0.3971 -1.5147 -0.7514
  704SOL     OW 2110   2.643   2.058   0.171  0.1916 -0.1412  0.6264
  704SOL    HW1 2111   2.715   1.988   0.175  0.1654 -0.0153  0.0811
  704SOL    HW2 2112   2.591   2.066   0.257  2.0472 -3.3043 -0.8698
  705SOL     OW 2113   2.906   2.380   2.338 -0.5055  0.1677 -0.4458
  705SOL    HW1 2114   2.849   2.294   2.350 -2.9033 -0.9787  0.0620
  705SOL    HW2 2115   2.930   2.416   2.434 -0.6998 -0.0564  2.5044
  706SOL     OW 2116   2.632   0.052   0.304 -0.1271  0.1630 -0.7205
  706SOL    HW1 2117   2.622   3.040   0.256  1.1679 -1.2472  0.7599
  706SOL    HW2 2118   2.596   0.050   0.400 -0.4837  0.4567  2.6257
  707SOL     OW 2119   1.167   0.422   2.729 -0.0117  0.0191  0.7009
  707SOL    HW1 2120   1.214   0.514   2.744  2.6391 -0.8762  0.9131
  707SOL    HW2 2121   1.195   0.391   2.641  2.0641  0.4308 -0.8817
  708SOL     OW 2122   0.442   2.183   1.595 -0.3315 -0.3327  0.2357
  708SOL    HW1 2123   0.370   2.154   1.657 -1.4203 -0.2452 -3.2016
  708SOL    HW2 2124   0.530   2.152   1.640 -1.6021  1.3878  5.4840
  709SOL     OW 2125   1.311   2.796   1.925 -0.6553 -0.0037 -0.5004
  709SOL    HW1 2126   1.311   2.901   1.919  1.1648  1.4090  2.0572
  709SOL    HW2 2127   1.391   2.763   1.976 -2.9353  1.0021  0.7681
  710SOL     OW 2128   1.398   2.584   2.591  0.0848  0.2446 -0.0994
  710SOL    HW1 2129   1.301   2.558   2.605  2.0884  0.6091 -0.4322
  710SOL    HW2 2130   1.460   2.504   2.607  1.5840 -1.3073  1.0759
  711SOL     OW 2131   0.689   2.524   2.690  0.3684 -0.3781  0.2963
  711SOL    HW1 2132   0.716   2.463   2.609 -0.6193 -3.1101 -1.6950
  711SOL    HW2 2133   0.678   2.476   2.778 -3.3647  0.2192  2.0646
  712SOL     OW 2134   1.044   2.062   0.042 -0.0176  0.1876  0.2663
  712SOL    HW1 2135   1.053   1.966   0.003 -2.4014  0.4082  2.3589
  712SOL    HW2 2136   0.946   2.077   0.067 -1.4340  0.9445 -2.3243
  713SOL     OW 2137   1.941   1.226   1.805 -0.2866  0.4225  0.2682
  713SOL    HW1 2138   1.912   1.133   1.820  1.3135 -0.9093 -1.3931
  713SOL    HW2 2139   1.945   1.300   1.880  0.8716 -0.8483 -1.0114
  714SOL     OW 2140   0.693   1.056   1.833  0.0454 -0.3529  0.7640
  714SOL    HW1 2141   0.630   1.058   1.910  1.5203 -0.1068 -1.2999
  714SOL    HW2 2142   0.690   0.964   1.789  2.4236  0.9535 -1.0663
  715SOL     OW 2143   2.807   0.299   0.182 -0.0172  0.0198  0.0762
  715SOL    HW1 2144   2.760   0.210   0.168  1.5540  0.7816  1.8859
  715SOL    HW2 2145   2.760   0.351   0.258  3.8202  0.4697  2.9070
  716SOL     OW 2146   0.365   2.617   0.926  0.2398  0.0893  0.2687
  716SOL    HW1 2147   0.458   2.649   0.957  0.4418  2.4801 -2.2198
  716SOL    HW2 2148   0.290   2.695   0.927  0.0665  1.7982 -1.8917
  717SOL     OW 2149   2.561   0.724   0.823  0.7963  0.3182  0.3624
  717SOL    HW1 2150   2.567   0.628   0.795 -0.5512 -1.8195  0.1191
  717SOL    HW2 2151   2.489   0.775   0.763  0.3497 -1.5955  0.5737
  718SOL     OW 2152   1.687   1.230   1.661 -0.1420 -0.5103  0.5044
  718SOL    HW1 2153   1.702   1.312   1.719 -2.2203  0.9584  4.2256
  718SOL    HW2 2154   1.749   1.229   1.578  2.3884 -1.4655 -3.1433
  719SOL     OW 2155   2.689   2.612   2.841 -0.0118 -0.5279 -0.5294
  719SOL    HW1 2156   2.607   2.656   2.884 -1.4125  2.9157  0.1088
  719SOL    HW2 2157   2.662   2.555   2.759  2.2247  0.6986 -0.9068
  720SOL     OW 2158   1.194   0.286   0.881  0.0012 -0.1933  0.4446
  720SOL    HW1 2159   1.137   0.330   0.951 -1.3623  1.0419 -0.8183
  720SOL    HW2 2160   1.131   0.230   0.825 -0.3837  0.4088 -0.4357
  721SOL     OW 2161   2.011   0.351   1.178  0.5913 -0.2909 -0.8219
  721SOL    HW1 2162   2.047   0.254   1.185  0.4628 -0.5832 -1.2258
  721SOL    HW2 2163   2.072   0.410   1.123  0.8654  0.5946 -1.0382
  722SOL     OW 2164   0.682   2.169   1.732  0.0705  0.0653 -0.2340
  722SOL    HW1 2165   0.688   2.209   1.824  0.2413  1.0672  0.9495
  722SOL    HW2 2166   0.735   2.233   1.668  0.2095 -0.4818  0.5604
  723SOL     OW 2167   1.255   3.027   1.434  0.0439  0.2619 -0.1879
  723SOL    HW1 2168   1.342   0.004   1.436  0.1619 -1.3134 -2.0513
  723SOL    HW2 2169   1.259   2.937   1.482 -1.2936  1.4254  4.2520
  724SOL     OW 2170   1.613   1.909   1.586  0.1016  0.3109 -0.3338
  724SOL    HW1 2171   1.527   1.894   1.532 -2.5079  1.4611 -2.6165
  724SOL    HW2 2172   1.619   1.839   1.659  0.2162 -1.1688 -3.5769
  725SOL     OW 2173   1.466   2.457   1.369 -0.4168  0.3336 -0.2803
  725SOL    HW1 2174   1.429   2.389   1.310  1.0222  1.3861  1.6274
  725SOL    HW2 2175   1.501   2.540   1.324  0.0488 -0.3919 -0.0914
  726SOL     OW 2176   1.865   0.270   3.015  0.0614 -0.5082  0.4720
  726SOL    HW1 2177   1.861   0.259   0.036 -2.0910  0.4430  2.1090
  726SOL    HW2 2178   1.928   0.194   2.984 -0.6827  0.9283  1.2081
  727SOL     OW 2179   1.444   1.759   0.364 -0.1594 -0.4122  0.0708
  727SOL    HW1 2180   1.404   1.720   0.280 -2.0466 -0.7135 -1.5701
  727SOL    HW2 2181   1.519   1.699   0.399 -0.6294 -0.6338 -0.5088
  728SOL     OW 2182   1.826   2.617   2.006  0.1092  0.6984 -0.3704
  728SOL    HW1 2183   1.737   2.591   1.962  1.2287 -0.3515 -0.2841
  728SOL    HW2 2184   1.865   2.701   1.965  0.8829 -4.4394  0.7326
  729SOL     OW 2185   2.020   2.529   1.667  0.0813  0.1448 -0.1845
  729SOL    HW1 2186   2.011   2.467   1.748 -0.1693 -1.6210 -0.9007
  729SOL    HW2 2187   2.113   2.519   1.628 -1.2822 -0.4394  0.7321
  730SOL     OW 2188   1.542   0.818   2.580  0.1853 -0.2113  0.7696
  730SOL    HW1 2189   1.524   0.743   2.648  0.0342 -0.3369 -1.4763
  730SOL    HW2 2190   1.463   0.807   2.507 -1.6795 -1.8778 -1.8975
  731SOL     OW 2191   0.769   0.021   0.998 -0.5538 -0.4844  0.2997
  731SOL    HW1 2192   0.673   0.032   0.994  1.0016 -0.8642  0.3924
  731SOL    HW2 2193   0.789   3.071   1.094 -0.1987  0.6992  0.1514
  732SOL     OW 2194   1.435   2.942   1.162  0.9172  0.2972  0.0668
  732SOL    HW1 2195   1.368   2.899   1.220 -1.3837  0.6152  0.8300
  732SOL    HW2 2196   1.390   3.017   1.105 -1.1796  0.2350 -0.4765
  733SOL     OW 2197   1.395   1.032   1.240 -0.2001  0.0903  0.4137
  733SOL    HW1 2198   1.355   1.055   1.146 -0.6068  0.0692 -1.4820
  733SOL    HW2 2199   1.474   1.089   1.263 -0.2030 -2.8100  0.4445
  734SOL     OW 2200   2.300   2.217   0.336  0.7977 -0.1211  0.1945
  734SOL    HW1 2201   2.240   2.194   0.256  0.6104 -0.5800  0.9277
  734SOL    HW2 2202   2.315   2.317   0.351  1.2915 -1.1955  0.8272
  735SOL     OW 2203   0.646   0.254   0.471  0.2247 -0.2994  0.2557
  735SOL    HW1 2204   0.632   0.156   0.496  0.2453 -1.2400 -1.7540
  735SOL    HW2 2205   0.558   0.302   0.446 -1.5878 -0.2123  2.6054
  736SOL     OW 2206   2.002   2.020   2.556  0.2567 -0.1230  0.3685
  736SOL    HW1 2207   1.953   1.957   2.616 -1.6661 -1.1686  1.2748
  736SOL    HW2 2208   1.937   2.034   2.478 -0.1418 -1.3243 -1.8096
  737SOL     OW 2209   1.020   2.343   0.952 -0.1371 -0.4506  0.4128
  737SOL    HW1 2210   1.089   2.418   0.926 -0.3091  2.0159 -0.1810
  737SOL    HW2 2211   0.936   2.344   0.895 -1.2501 -0.2895 -0.7412
  738SOL     OW 2212   1.711   0.016   2.227 -0.6128 -0.7437  0.4696
  738SOL    HW1 2213   1.647   0.013   2.304  0.9902 -0.9051 -2.4796
  738SOL    HW2 2214   1.765   3.009   2.214  0.9389 -0.7057 -1.5217
  739SOL     OW 2215   0.665   2.244   1.996  0.2419 -0.7193 -0.1423
  739SOL    HW1 2216   0.753   2.203   2.026  1.5595  1.6622  0.8590
  739SOL    HW2 2217   0.592   2.234   2.065 -0.3722  1.4914  1.9662
  740SOL     OW 2218   1.712   2.326   1.439 -0.0960  0.3532 -0.0095
  740SOL    HW1 2219   1.789   2.373   1.386  1.3049  1.7136  0.5311
  740SOL    HW2 2220   1.629   2.375   1.407 -0.6548 -1.3796 -0.8343
  741SOL     OW 2221   2.533   1.251   3.018 -0.2811 -0.1156  0.1936
  741SOL    HW1 2222   2.615   1.254   2.955 -2.6723  0.1335  0.7590
  741SOL    HW2 2223   2.468   1.329   3.000  0.6503 -2.2637 -1.2619
  742SOL     OW 2224   0.678   1.499   2.027 -0.0949  0.6511 -0.1624
  742SOL    HW1 2225   0.676   1.594   2.067  0.0473  0.2147 -1.7630
  742SOL    HW2 2226   0.629   1.435   2.089 -1.1551 -1.6617  2.8019
  743SOL     OW 2227   3.039   0.950   2.388  1.2630  0.3365  0.7445
  743SOL    HW1 2228   3.030   0.968   2.291  1.4663  0.7678  1.1924
  743SOL    HW2 2229   3.036   0.846   2.401  1.2349 -3.8744  1.3784
  744SOL     OW 2230   2.081   2.134   1.425 -0.4033  0.0326 -0.3477
  744SOL    HW1 2231   2.161   2.071   1.420  0.9135  0.5946 -0.3124
  744SOL    HW2 2232   1.992   2.087   1.430  0.0320  1.3806 -1.9484
  745SOL     OW 2233   2.422   1.680   1.461 -0.0262 -0.7801  0.0371
  745SOL    HW1 2234   2.329   1.686   1.501  1.2304 -0.7136  0.4173
  745SOL    HW2 2235   2.435   1.585   1.414 -1.2965 -1.5790 -0.6669
  746SOL     OW 2236   2.551   1.121   0.700 -0.6607  0.3590 -0.2673
  746SOL    HW1 2237   2.489   1.049   0.661  0.9715  1.4251 -1.3308
  746SOL    HW2 2238   2.641   1.130   0.646  0.9416 -1.2831 -0.3755
  747SOL     OW 2239   1.760   2.207   0.589  0.2121 -0.3249  0.0869
  747SOL    HW1 2240   1.824   2.284   0.622  1.6874  0.7007 -0.6752
  747SOL    HW2 2241   1.665   2.238   0.590  2.3290  0.2101 -2.1566
  748SOL     OW 2242   0.929   2.247   0.540 -0.0798  0.0487  0.0121
  748SOL    HW1 2243   0.971   2.162   0.504  0.9511 -1.7790 -1.3366
  748SOL    HW2 2244   1.000   2.317   0.528  0.6297 -0.7957 -2.5267
  749SOL     OW 2245   2.912   0.448   2.298  0.2288  0.2355 -0.0087
  749SOL    HW1 2246   2.856   0.400   2.368 -2.1588  0.4768 -2.9232
  749SOL    HW2 2247   3.003   0.406   2.287  0.8566  1.5785 -0.6059
  750SOL     OW 2248   1.496   0.065   1.412 -0.1533 -0.3812  0.3182
  750SOL    HW1 2249   1.564   0.019   1.475  0.9543  0.1718  0.3475
  750SOL    HW2 2250   1.537   0.060   1.320 -1.0397 -2.5744 -1.2965
  751SOL     OW 2251   1.538   2.374   2.730 -0.5661 -0.3957  0.1580
  751SOL    HW1 2252   1.470   2.420   2.789  2.4176  0.2358 -0.1450
  751SOL    HW2 2253   1.616   2.328   2.780  2.6386 -0.4279 -0.1547
  752SOL     OW 2254   1.844   2.126   0.325 -0.2484 -0.3815  0.4141
  752SOL    HW1 2255   1.799   2.166   0.403  1.8952  0.6402 -2.1804
  752SOL    HW2 2256   1.929   2.079   0.349  0.2049 -0.4441 -3.2041
  753SOL     OW 2257   1.490   0.835   2.134 -0.2018  0.1486  0.1289
  753SOL    HW1 2258   1.448   0.822   2.225 -3.4102  1.7111 -1.7996
  753SOL    HW2 2259   1.587   0.873   2.154  4.1414 -0.2686  1.6886
  754SOL     OW 2260   0.147   2.781   0.586  0.2237  0.1925  0.4702
  754SOL    HW1 2261   0.114   2.684   0.599  1.0365 -2.6588  0.2737
  754SOL    HW2 2262   0.090   2.851   0.637 -0.5582  0.3638 -1.9434
  755SOL     OW 2263   1.931   0.049   1.440 -0.2921  0.1095  0.2838
  755SOL    HW1 2264   1.993   0.089   1.510 -0.7281  0.8106  0.6947
  755SOL    HW2 2265   1.972   0.050   1.347 -0.4214 -1.1507 -1.7861
  756SOL     OW 2266   1.215   1.098   2.483  0.0876  0.3007  0.3791
  756SOL    HW1 2267   1.307   1.103   2.527  0.4389  0.3388 -0.6747
  756SOL    HW2 2268   1.222   1.090   2.382  2.4680  0.0096 -3.6983
  757SOL     OW 2269   2.951   2.830   1.305 -0.0000 -0.9468 -0.0349
  757SOL    HW1 2270   3.009   2.753   1.346  0.9190 -1.1763  1.7374
  757SOL    HW2 2271   2.856   2.823   1.342 -0.9434  0.1251 -2.4380
  758SOL     OW 2272   0.734   3.070   1.452  0.0097 -0.7340 -0.3576
  758SOL    HW1 2273   0.673   3.024   1.519 -0.5180  0.4732  1.2535
  758SOL    HW2 2274   0.792   0.061   1.500  0.4739  1.6985  0.0727
  759SOL     OW 2275   2.341   1.294   0.702  0.2592 -0.3248  0.0722
  759SOL    HW1 2276   2.347   1.322   0.606  2.6984  1.6535  0.7393
  759SOL    HW2 2277   2.412   1.218   0.713  0.2728 -0.5529  0.0985
  760SOL     OW 2278   2.121   0.524   1.553  0.0491  0.0565  0.1841
  760SOL    HW1 2279   2.044   0.500   1.487 -1.1565 -1.9925 -0.5296
  760SOL    HW2 2280   2.170   0.438   1.578  2.7792 -1.7428  1.7608
  761SOL     OW 2281   2.069   0.097   0.384 -0.1559  0.4733  0.3647
  761SOL    HW1 2282   2.165   0.078   0.412 -0.1790 -2.3901 -0.5347
  761SOL    HW2 2283   2.034   0.012   0.348 -1.1651 -1.7856  0.2799
  762SOL     OW 2284   2.105   2.187   0.160  0.1187  0.0900 -0.2324
  762SOL    HW1 2285   2.061   2.197   0.069  2.1852 -0.1339  3.6922
  762SOL    HW2 2286   2.041   2.228   0.227  0.4270  6.1474  2.2857
  763SOL     OW 2287   0.793   0.921   0.993  0.2562  0.3007  0.4437
  763SOL    HW1 2288   0.754   0.879   0.907  0.2873 -0.4852  0.1307
  763SOL    HW2 2289   0.874   0.976   0.968  0.0572 -0.9118  0.5762
  764SOL     OW 2290   2.492   2.404   3.008  0.4110  0.6034 -0.3386
  764SOL    HW1 2291   2.574   2.370   2.965  1.0386  2.9455 -0.7073
  764SOL    HW2 2292   2.430   2.433   2.931  0.3169 -1.8538  0.6132
  765SOL     OW 2293   0.722   0.586   2.345 -0.2342 -0.0659  0.0625
  765SOL    HW1 2294   0.703   0.504   2.399  0.2170  3.2403 -2.7556
  765SOL    HW2 2295   0.700   0.583   2.250 -3.2930 -1.4625  4.1773
  766SOL     OW 2296   0.109   1.411   2.363  0.2739  0.0051  0.0143
  766SOL    HW1 2297   0.041   1.357   2.419 -1.2705  1.1268  0.1778
  766SOL    HW2 2298   0.064   1.499   2.335 -1.7162  2.0481 -1.7162
  767SOL     OW 2299   0.108   1.769   2.083  0.3686  0.3077 -0.2022
  767SOL    HW1 2300   0.168   1.765   2.001  0.4467  0.7333 -2.4142
  767SOL    HW2 2301   0.137   1.835   2.155  0.3729  1.0792 -1.0174
  768SOL     OW 2302   0.950   0.826   2.849  0.5452 -0.0326  0.8177
  768SOL    HW1 2303   0.952   0.893   2.926 -0.2745  0.4422 -3.7442
  768SOL    HW2 2304   0.960   0.872   2.760 -1.2883  1.6624  0.6097
  769SOL     OW 2305   1.548   2.650   2.889  0.1398  0.1778  0.3809
  769SOL    HW1 2306   1.554   2.707   2.804 -0.3218  0.4383 -5.3940
  769SOL    HW2 2307   1.636   2.627   2.937 -0.7405 -1.3947 -0.2745
  770SOL     OW 2308   3.042   0.671   2.429  0.3451  0.5542 -0.0976
  770SOL    HW1 2309   3.033   0.583   2.374  0.4886 -1.1878  1.5269
  770SOL    HW2 2310   2.957   0.700   2.476 -1.7183 -0.6353  0.3923
  771SOL     OW 2311   0.727   2.122   1.339 -0.7025  0.7286 -0.5675
  771SOL    HW1 2312   0.828   2.103   1.331  1.3567 -1.1869  2.5728
  771SOL    HW2 2313   0.710   2.219   1.335 -0.9633 -2.7101 -0.0701
  772SOL     OW 2314   0.610   0.367   2.999 -0.2116 -0.1195 -0.5260
  772SOL    HW1 2315   0.687   0.322   2.952 -1.7130 -2.0871  0.3234
  772SOL    HW2 2316   0.622   0.468   3.025 -0.8908  4.2043  3.0406
  773SOL     OW 2317   2.202   1.118   1.719 -0.1075  0.3739  0.2561
  773SOL    HW1 2318   2.230   1.094   1.815  0.1794 -1.1195 -1.2568
  773SOL    HW2 2319   2.108   1.147   1.718  1.4816  0.1486 -0.0509
  774SOL     OW 2320   0.924   0.750   0.584 -0.0812 -0.5207  0.1642
  774SOL    HW1 2321   0.982   0.683   0.638  1.4083 -0.5190 -0.3262
  774SOL    HW2 2322   0.876   0.694   0.509  1.8237  0.2679 -1.8854
  775SOL     OW 2323   1.970   2.674   2.840  0.1254 -0.0548 -0.6227
  775SOL    HW1 2324   2.023   2.750   2.799 -0.3383 -0.8699 -2.8653
  775SOL    HW2 2325   1.958   2.593   2.775  0.2848 -1.4813 -1.3320
  776SOL     OW 2326   2.124   3.058   1.958  0.0904  0.2944  0.1309
  776SOL    HW1 2327   2.079   0.062   2.005  2.2467 -0.6142 -0.7076
  776SOL    HW2 2328   2.212   3.037   2.005  1.3922  1.0208 -2.6120
  777SOL     OW 2329   0.695   1.077   2.853  0.2613  0.5357 -0.1260
  777SOL    HW1 2330   0.670   1.015   2.774  0.0093 -0.0367 -0.7602
  777SOL    HW2 2331   0.615   1.092   2.915 -1.3743  0.1928 -0.6899
  778SOL     OW 2332   0.726   2.985   0.212  0.2951 -0.0019  0.1000
  778SOL    HW1 2333   0.826   2.981   0.193 -1.8801  0.1263 -0.2157
  778SOL    HW2 2334   0.697   3.002   0.310  0.4527 -0.4411 -0.7848
  779SOL     OW 2335   0.176   1.123   3.055  0.8791  0.1708 -0.1346
  779SOL    HW1 2336   0.137   1.047   0.033 -2.0130  0.0212 -0.5474
  779SOL    HW2 2337   0.277   1.123   3.048  2.2664  1.7751 -2.2431
  780SOL     OW 2338   1.998   0.417   2.550 -0.2695 -0.8182 -0.7632
  780SOL    HW1 2339   2.068   0.480   2.593  4.7482  1.4696  1.0488
  780SOL    HW2 2340   1.926   0.478   2.508  0.2753 -0.6153 -0.8990
  781SOL     OW 2341   2.136   1.263   2.210  0.0845  0.4269 -0.4952
  781SOL    HW1 2342   2.115   1.301   2.300  0.2594  0.5919 -2.7664
  781SOL    HW2 2343   2.070   1.193   2.179  0.2116  1.4986 -0.9239
  782SOL     OW 2344   1.036   1.612   2.209  0.6709 -0.5455 -0.2336
  782SOL    HW1 2345   0.992   1.606   2.117 -1.7475 -3.0475 -0.9643
  782SOL    HW2 2346   0.996   1.693   2.260  2.0283  1.2822 -0.0186
  783SOL     OW 2347   1.252   3.078   0.996 -0.0405  0.6133 -0.6970
  783SOL    HW1 2348   1.239   0.076   1.059  1.4959  1.7357  2.4910
  783SOL    HW2 2349   1.162   3.030   0.978 -1.6877 -1.2249  0.3444
  784SOL     OW 2350   1.668   0.681   2.979 -0.0955  0.1408 -0.2313
  784SOL    HW1 2351   1.686   0.774   2.941 -0.3291 -0.3246 -0.9066
  784SOL    HW2 2352   1.689   0.682   0.001  1.0757 -0.4512 -1.6849
  785SOL     OW 2353   1.939   0.488   2.858 -0.1741  0.3479  0.1007
  785SOL    HW1 2354   1.950   0.547   2.941  1.4395  1.9029 -0.4012
  785SOL    HW2 2355   1.927   0.390   2.887  1.1180 -0.5471  1.1568
  786SOL     OW 2356   2.861   1.631   0.536 -0.0449  0.1457 -0.2562
  786SOL    HW1 2357   2.806   1.709   0.495  0.7102  3.8490  2.8300
  786SOL    HW2 2358   2.809   1.579   0.604  1.6822  1.2626  2.7572
  787SOL     OW 2359   1.696   1.658   0.120  0.6481 -0.1959  0.2920
  787SOL    HW1 2360   1.710   1.758   0.140  1.5082  1.0415 -0.1300
  787SOL    HW2 2361   1.747   1.600   0.186 -0.9260 -2.8696  1.0257
  788SOL     OW 2362   1.400   1.908   1.220 -0.1492  0.1814  0.0191
  788SOL    HW1 2363   1.494   1.889   1.198 -0.7081 -1.1976  0.1979
  788SOL    HW2 2364   1.346   1.928   1.137  0.4613 -0.8099  0.1095
  789SOL     OW 2365   0.047   1.418   2.025  0.1426  0.0634 -0.3257
  789SOL    HW1 2366   0.017   1.486   2.093  0.2768 -3.0548 -0.8681
  789SOL    HW2 2367   3.076   1.334   2.047 -0.4336  1.7755  0.1091
  790SOL     OW 2368   0.496   0.012   0.081  0.2782  0.0465 -0.2291
  790SOL    HW1 2369   0.423   3.021   0.070  3.7306 -0.3952  0.0918
  790SOL    HW2 2370   0.577   3.052   0.119 -1.8426 -1.0683 -0.3888
  791SOL     OW 2371   0.741   0.105   2.483  0.1642  0.3971  0.0398
  791SOL    HW1 2372   0.658   0.158   2.504  1.1543  1.2366 -1.9904
  791SOL    HW2 2373   0.736   0.014   2.533 -1.3600 -0.7738 -2.6133
  792SOL     OW 2374   1.755   0.420   2.294  0.0294 -0.0700 -0.0672
  792SOL    HW1 2375   1.798   0.502   2.335 -0.6262  1.0773  1.2215
  792SOL    HW2 2376   1.755   0.433   2.194 -0.3181 -0.6778  0.0468
  793SOL     OW 2377   2.734   0.748   1.328  0.3888 -0.8659 -0.1064
  793SOL    HW1 2378   2.684   0.716   1.410 -0.3560  1.5691  0.1428
  793SOL    HW2 2379   2.834   0.754   1.345 -1.2700  3.9355 -0.6153
  794SOL     OW 2380   0.068   0.643   1.629 -0.1524  0.0162  0.0536
  794SOL    HW1 2381   3.072   0.606   1.680  1.2972 -0.0640 -0.3001
  794SOL    HW2 2382   0.158   0.647   1.679 -1.4953  0.7318 -0.3541
  795SOL     OW 2383   2.714   1.364   0.340  0.0334 -0.6546 -0.3378
  795SOL    HW1 2384   2.727   1.443   0.273  2.2942  2.8806 -3.4666
  795SOL    HW2 2385   2.654   1.288   0.299  0.0635 -0.8885  2.4370
  796SOL     OW 2386   3.032   2.506   0.331 -0.2285  0.1854 -0.7713
  796SOL    HW1 2387   2.979   2.578   0.275 -0.7558 -0.3079 -2.3989
  796SOL    HW2 2388   3.060   2.429   0.274 -1.3931 -0.0425  0.0867
  797SOL     OW 2389   1.799   2.473   2.472 -0.4592  0.2782 -0.0466
  797SOL    HW1 2390   1.832   2.450   2.565  0.1462 -0.1857 -2.3808
  797SOL    HW2 2391   1.782   2.570   2.464  1.3447 -4.1537  1.4234
  798SOL     OW 2392   0.243   1.237   0.978  0.2033  0.0292 -0.5595
  798SOL    HW1 2393   0.203   1.154   0.928 -0.9437 -0.1153  0.2661
  798SOL    HW2 2394   0.183   1.293   1.044 -3.1545  2.2028  2.6039
  799SOL     OW 2395   0.093   0.500   2.810  0.3340 -0.2904  0.1141
  799SOL    HW1 2396   0.104   0.479   2.709  0.6073 -0.3140  2.5910
  799SOL    HW2 2397   0.182   0.475   2.857 -0.7006  0.4053 -1.4192
  800SOL     OW 2398   2.720   1.849   0.444  0.7901 -0.2587  0.2853
  800SOL    HW1 2399   2.748   1.937   0.488  0.3646  3.3518  0.8202
  800SOL    HW2 2400   2.637   1.868   0.385 -3.8242  0.6834 -1.4052
  801SOL     OW 2401   1.574   1.237   1.231  0.2725  0.1224  0.2280
  801SOL    HW1 2402   1.596   1.273   1.139  1.0720  0.9889 -0.7453
  801SOL    HW2 2403   1.500   1.289   1.283 -0.0080  0.7745  0.8153
  802SOL     OW 2404   0.913   1.880   1.680 -0.1199 -0.5360 -0.6153
  802SOL    HW1 2405   0.972   1.876   1.765  2.7060  1.1974 -0.7967
  802SOL    HW2 2406   0.937   1.956   1.616  3.3406 -0.5669  0.1000
  803SOL     OW 2407   0.385   1.831   0.821  0.0084 -0.1439  0.3324
  803SOL    HW1 2408   0.431   1.740   0.825  0.2058  1.2331 -0.5646
  803SOL    HW2 2409   0.323   1.841   0.738 -1.3179  1.8069 -2.2628
  804SOL     OW 2410   1.053   2.446   1.307  0.4676 -0.2226 -0.2363
  804SOL    HW1 2411   1.107   2.396   1.239  2.2351  2.3645  1.7598
  804SOL    HW2 2412   1.096   2.434   1.400  2.1425  1.1723  0.2849
  805SOL     OW 2413   1.760   1.347   0.087 -0.5596  0.3393 -0.3605
  805SOL    HW1 2414   1.664   1.322   0.069  1.6031  2.3814  1.5482
  805SOL    HW2 2415   1.798   1.414   0.015 -1.2727  3.3128  0.2473
  806SOL     OW 2416   1.701   0.000   1.170 -0.6875 -0.2673  0.1611
  806SOL    HW1 2417   1.655   0.090   1.169  0.1843 -1.3123  3.5128
  806SOL    HW2 2418   1.638   3.003   1.173  2.7621  3.1516  1.0788
  807SOL     OW 2419   2.399   0.285   2.741 -0.1523  0.3593 -0.0820
  807SOL    HW1 2420   2.362   0.320   2.829  0.4994  2.1790  0.0775
  807SOL    HW2 2421   2.497   0.304   2.751 -0.4191 -0.7987 -2.1586
  808SOL     OW 2422   0.245   0.993   0.350  0.1761 -0.3669 -0.1842
  808SOL    HW1 2423   0.327   0.932   0.359  1.8520 -1.6830 -0.1934
  808SOL    HW2 2424   0.254   1.084   0.407 -1.6202 -1.3627  0.3467
  809SOL     OW 2425   2.783   1.197   2.257 -0.4410 -0.4675  0.3591
  809SOL    HW1 2426   2.736   1.105   2.260  1.2157  2.3081  0.7580
  809SOL    HW2 2427   2.847   1.204   2.335 -2.2436  0.2292 -0.9281
  810SOL     OW 2428   1.577   0.437   1.641 -0.0825  0.1858  0.0686
  810SOL    HW1 2429   1.665   0.389   1.625 -0.0375  1.9081  1.6420
  810SOL    HW2 2430   1.503   0.402   1.574 -0.2700  1.3240 -0.8965
  811SOL     OW 2431   2.281   2.643   1.913  0.3815  0.0915  0.1328
  811SOL    HW1 2432   2.184   2.669   1.932 -0.4287 -1.1085 -1.5360
  811SOL    HW2 2433   2.302   2.548   1.949 -0.8461  1.3632  0.4772
  812SOL     OW 2434   2.055   0.111   2.932  0.4093  0.4856  0.1540
  812SOL    HW1 2435   2.130   0.139   2.995  1.3109 -0.8696 -2.9888
  812SOL    HW2 2436   2.032   0.010   2.959 -1.2766 -1.6615  0.6734
  813SOL     OW 2437   1.854   0.581   1.817  0.0394 -0.2039  0.7357
  813SOL    HW1 2438   1.782   0.631   1.871 -0.0139  0.4889  1.0747
  813SOL    HW2 2439   1.898   0.635   1.739 -1.6433  0.0454 -0.8994
  814SOL     OW 2440   1.966   1.079   2.108  0.3464 -0.3727  0.0572
  814SOL    HW1 2441   1.867   1.047   2.116 -2.4009 -0.0085  0.2047
  814SOL    HW2 2442   2.014   1.026   2.038 -2.0677  1.7083  3.8294
  815SOL     OW 2443   0.505   0.864   0.414 -0.0089  0.3325 -0.4058
  815SOL    HW1 2444   0.509   0.931   0.489  0.6686  0.1237 -0.8821
  815SOL    HW2 2445   0.524   0.766   0.449  1.3949  0.5640  0.4959
  816SOL     OW 2446   2.170   1.529   2.908 -0.0349  0.5892  0.0498
  816SOL    HW1 2447   2.090   1.533   2.966  0.4215  1.5107  2.8186
  816SOL    HW2 2448   2.165   1.578   2.821  1.9184  0.3076  1.4563
  817SOL     OW 2449   0.387   2.794   0.454 -0.8023  0.2258  0.2795
  817SOL    HW1 2450   0.484   2.764   0.473  0.3834 -1.1215  0.4218
  817SOL    HW2 2451   0.316   2.746   0.512 -2.1137 -1.8596 -2.3414
  818SOL     OW 2452   1.720   0.229   2.494  0.5280  0.6623  0.0964
  818SOL    HW1 2453   1.748   0.295   2.423  0.1166 -1.7108  1.8175
  818SOL    HW2 2454   1.793   0.156   2.509 -0.7781 -2.5835 -1.3279
  819SOL     OW 2455   1.469   0.713   0.569 -0.2153 -0.1406 -0.4295
  819SOL    HW1 2456   1.386   0.707   0.509 -0.3388  1.1363  0.4315
  819SOL    HW2 2457   1.547   0.750   0.515  1.8911  0.2665  2.2259
  820SOL     OW 2458   2.152   0.660   0.740 -0.2257  0.1303 -0.1367
  820SOL    HW1 2459   2.198   0.746   0.771  0.7940 -2.2834 -0.7665
  820SOL    HW2 2460   2.105   0.605   0.812  0.8670 -3.0987 -0.5711
  821SOL     OW 2461   2.262   2.896   0.271 -0.4062  0.1348  0.6393
  821SOL    HW1 2462   2.334   2.864   0.334  0.0786 -2.5642 -0.2311
  821SOL    HW2 2463   2.303   2.942   0.187  1.7706 -0.8286 -2.6539
  822SOL     OW 2464   0.000   3.044   2.045 -0.5840 -0.2528  0.0339
  822SOL    HW1 2465   0.065   2.983   2.093 -1.9026 -2.5565 -1.4534
  822SOL    HW2 2466   0.029   3.062   1.949  1.3466  0.2892 -1.6111
  823SOL     OW 2467   2.644   2.277   1.740  0.6825 -0.7206  0.1544
  823SOL    HW1 2468   2.543   2.260   1.739  0.4666 -1.4021  1.0226
  823SOL    HW2 2469   2.696   2.193   1.759  0.8473  0.0588  1.2069
  824SOL     OW 2470   0.878   2.674   2.258  0.0538  0.0763  0.6267
  824SOL    HW1 2471   0.909   2.650   2.164 -1.3243 -0.3205  1.6168
  824SOL    HW2 2472   0.904   2.775   2.265  2.0301  1.8533 -1.4330
  825SOL     OW 2473   1.638   1.613   0.729 -0.0923 -0.0445  0.1174
  825SOL    HW1 2474   1.725   1.619   0.787  1.3189 -0.2424 -0.9336
  825SOL    HW2 2475   1.553   1.652   0.771  1.2895  0.3487  1.6647
  826SOL     OW 2476   1.781   0.702   0.153  0.1663  0.1769 -0.1061
  826SOL    HW1 2477   1.817   0.682   0.246  0.5667  1.4082  0.1656
  826SOL    HW2 2478   1.853   0.703   0.081  0.8035  0.6871  0.5697
  827SOL     OW 2479   0.304   1.240   1.285  0.8155 -0.2465  0.1590
  827SOL    HW1 2480   0.226   1.299   1.257  0.3235 -1.3674  1.8712
  827SOL    HW2 2481   0.362   1.227   1.201  1.3612 -2.2156 -1.5923
  828SOL     OW 2482   2.132   1.421   1.685  0.2611  0.3184  0.2550
  828SOL    HW1 2483   2.057   1.359   1.729 -1.2955 -1.7980 -0.6993
  828SOL    HW2 2484   2.225   1.385   1.706  1.0370  0.8114 -0.4872
  829SOL     OW 2485   0.367   2.003   0.171  0.0230 -0.4941  0.1785
  829SOL    HW1 2486   0.290   1.932   0.172  1.1006  0.2355  0.8274
  829SOL    HW2 2487   0.411   2.009   0.257 -3.0679  1.0718 -1.1244
  830SOL     OW 2488   1.032   0.547   0.754  0.5434  0.5645 -0.2918
  830SOL    HW1 2489   1.114   0.522   0.702 -3.3883  1.3220  0.6455
  830SOL    HW2 2490   1.028   0.484   0.837  2.5196 -1.4757  0.7567
  831SOL     OW 2491   2.761   1.550   0.143 -0.1571  0.1218  0.3951
  831SOL    HW1 2492   2.801   1.554   0.049 -1.0974  0.5372 -0.5253
  831SOL    HW2 2493   2.667   1.586   0.130 -0.3213 -2.7436  1.6405
  832SOL     OW 2494   1.027   2.840   0.356  0.5278 -0.1793 -0.1486
  832SOL    HW1 2495   1.031   2.894   0.269  1.6255 -0.6950 -3.1510
  832SOL    HW2 2496   0.980   2.897   0.428  0.2151  0.2748 -0.5010
  833SOL     OW 2497   0.857   0.566   1.911  0.3119 -0.3595 -0.2862
  833SOL    HW1 2498   0.867   0.500   1.986 -2.0678 -3.4843 -0.2006
  833SOL    HW2 2499   0.936   0.636   1.921  2.3003  0.0806 -1.8328
  834SOL     OW 2500   0.132   0.928   1.223  0.1304  0.1094  0.3070
  834SOL    HW1 2501   0.208   0.918   1.156  2.7182  0.2167 -0.6602
  834SOL    HW2 2502   0.161   0.986   1.300 -1.5631 -1.3808 -1.1639
  835SOL     OW 2503   2.611   0.077   1.804  0.0010 -0.3693  0.4099
  835SOL    HW1 2504   2.534   0.116   1.749  2.7325  1.0234 -1.3905
  835SOL    HW2 2505   2.691   0.077   1.739  2.1443  3.9417 -1.2734
  836SOL     OW 2506   0.457   2.055   0.555 -0.2544  0.2460  0.0260
  836SOL    HW1 2507   0.461   2.156   0.547 -0.9134  0.3556  0.5550
  836SOL    HW2 2508   0.516   2.022   0.482 -0.4329  1.8309 -0.9310
  837SOL     OW 2509   2.037   1.731   2.368  0.1050 -0.6231  0.0899
  837SOL    HW1 2510   2.109   1.656   2.356  0.7883 -0.2507 -0.5131
  837SOL    HW2 2511   2.075   1.818   2.331  1.9432 -2.2281 -0.3665
  838SOL     OW 2512   0.017   1.136   1.608  0.2724 -0.1873 -0.1694
  838SOL    HW1 2513   0.104   1.089   1.577 -3.1068 -0.4501 -1.7622
  838SOL    HW2 2514   0.042   1.220   1.660  0.4557 -0.6765  0.5514
  839SOL     OW 2515   0.144   0.159   0.662 -0.9300 -0.0309 -0.5586
  839SOL    HW1 2516   0.121   0.148   0.760 -0.1123 -1.4686 -0.7795
  839SOL    HW2 2517   0.186   0.075   0.623  0.2624 -1.0569  0.5704
  840SOL     OW 2518   2.837   0.324   2.545  0.2696  0.1430 -0.1586
  840SOL    HW1 2519   2.886   0.306   2.633 -2.2904 -0.4413 -0.8361
  840SOL    HW2 2520   2.795   0.418   2.561  0.4957  2.1969 -0.1858
  841SOL     OW 2521   0.372   2.816   0.018 -0.6777 -0.0079  0.6601
  841SOL    HW1 2522   0.278   2.779   0.010 -0.2734  2.7556 -1.5228
  841SOL    HW2 2523   0.424   2.756   0.080  0.3571 -0.7434  1.3236
  842SOL     OW 2524   0.977   0.117   0.816 -0.4006  0.6421  0.5101
  842SOL    HW1 2525   0.894   0.098   0.870 -2.2317 -0.5369  1.5010
  842SOL    HW2 2526   1.026   0.027   0.793  2.7005 -5.5993 -1.3832
  843SOL     OW 2527   0.202   1.080   2.537  0.5578 -0.3372 -0.7524
  843SOL    HW1 2528   0.169   1.004   2.598  0.2570  2.6604  0.6346
  843SOL    HW2 2529   0.149   1.077   2.451  1.9762 -0.2700 -3.1300
  844SOL     OW 2530   0.760   2.387   2.482 -0.9299  0.5612 -0.1298
  844SOL    HW1 2531   0.692   2.310   2.471 -0.3331  0.7946  1.6153
  844SOL    HW2 2532   0.839   2.360   2.420  3.6539 -2.7999  1.0076
  845SOL     OW 2533   2.275   2.636   2.600  0.2011 -0.1718  0.1653
  845SOL    HW1 2534   2.344   2.706   2.617 -0.6966 -0.4628  1.1982
  845SOL    HW2 2535   2.205   2.684   2.535 -1.7602 -0.2795 -2.9550
  846SOL     OW 2536   1.600   1.805   2.461 -0.2421 -0.3000  0.2185
  846SOL    HW1 2537   1.544   1.774   2.541 -0.8489  0.6976  3.5113
  846SOL    HW2 2538   1.639   1.739   2.394 -1.5086 -2.6542 -0.5225
  847SOL     OW 2539   2.675   3.022   2.874  0.3859 -0.4842 -0.2794
  847SOL    HW1 2540   2.713   2.935   2.836 -1.4579  0.9632 -0.7813
  847SOL    HW2 2541   2.744   3.073   2.930 -0.5022 -0.0627 -0.4339
  848SOL     OW 2542   0.085   0.613   0.447  0.0718 -0.7190 -0.2371
  848SOL    HW1 2543   0.068   0.717   0.455 -0.7358  2.7904 -0.8658
  848SOL    HW2 2544   0.179   0.586   0.481  2.9107 -1.3797  0.0836
  849SOL     OW 2545   1.165   0.029   2.162 -0.0586 -0.0829 -0.0964
  849SOL    HW1 2546   1.125   3.022   2.203  0.5553  1.1267 -0.2326
  849SOL    HW2 2547   1.246   0.061   2.217  1.9722 -1.7380  1.8356
  850SOL     OW 2548   0.435   0.979   0.682 -0.1303  0.0247 -0.0932
  850SOL    HW1 2549   0.522   1.029   0.690 -0.4452 -0.4969 -0.9995
  850SOL    HW2 2550   0.354   1.030   0.711 -1.5157 -2.1782 -3.5453
  851SOL     OW 2551   0.301   1.346   0.252 -0.9578  0.5341  0.8637
  851SOL    HW1 2552   0.332   1.442   0.258  3.2958 -2.9463 -2.9873
  851SOL    HW2 2553   0.381   1.283   0.234  3.0427 -2.1618 -0.1142
  852SOL     OW 2554   1.369   1.004   1.912 -0.0006  0.2034 -0.2859
  852SOL    HW1 2555   1.468   0.996   1.892  1.9985 -0.5632  1.0527
  852SOL    HW2 2556   1.347   1.044   2.002  0.7673 -1.6865  2.1142
  853SOL     OW 2557   2.487   1.603   0.443  0.1125  0.2165 -0.1080
  853SOL    HW1 2558   2.501   1.687   0.503 -0.8214  1.3646  1.8904
  853SOL    HW2 2559   2.557   1.532   0.464  2.4667  0.7237 -2.3417
  854SOL     OW 2560   1.096   0.832   2.268  0.0966 -0.2237  0.4009
  854SOL    HW1 2561   1.007   0.878   2.243  0.3939  0.3625 -0.2903
  854SOL    HW2 2562   1.080   0.732   2.262 -0.9469 -0.1441 -0.1425
  855SOL     OW 2563   0.194   2.744   2.794 -0.0670  1.2052  0.7989
  855SOL    HW1 2564   0.258   2.819   2.759  0.1156 -0.1670  0.8156
  855SOL    HW2 2565   0.107   2.784   2.819  3.3848  1.6955 -4.3516
  856SOL     OW 2566   1.131   0.572   2.179  0.3718  0.2460  0.5239
  856SOL    HW1 2567   1.208   0.583   2.114 -0.7181  0.0883 -1.6449
  856SOL    HW2 2568   1.111   0.476   2.199 -0.5442  0.4956 -2.7860
  857SOL     OW 2569   1.382   0.750   2.375  0.1930  0.2399 -0.0525
  857SOL    HW1 2570   1.399   0.653   2.346 -1.3292 -1.1564  2.0701
  857SOL    HW2 2571   1.297   0.795   2.346  0.6770 -0.2503 -1.3750
  858SOL     OW 2572   0.170   0.851   2.038 -0.3285  0.0283  0.0227
  858SOL    HW1 2573   0.081   0.893   2.072 -2.0077  1.5876  3.1704
  858SOL    HW2 2574   0.198   0.891   1.948  0.0220 -1.0776  1.1840
  859SOL     OW 2575   2.528   0.038   0.567  0.0585 -0.5806 -0.5575
  859SOL    HW1 2576   2.560   0.115   0.630  0.0535  3.3558  3.0897
  859SOL    HW2 2577   2.588   3.032   0.575  1.1980 -0.6910  1.6769
  860SOL     OW 2578   2.068   0.268   0.606  0.3710  0.1171 -0.2143
  860SOL    HW1 2579   1.992   0.236   0.669 -0.4530  0.6964 -1.1123
  860SOL    HW2 2580   2.070   0.216   0.520  0.7102  0.7077 -2.3787
  861SOL     OW 2581   1.373   0.447   1.192  0.3650  0.1133 -0.3548
  861SOL    HW1 2582   1.352   0.527   1.251  1.8337  0.7626 -3.7515
  861SOL    HW2 2583   1.370   0.468   1.091 -0.7414 -1.6079 -0.1829
  862SOL     OW 2584   1.324   0.130   2.355 -0.0642 -0.1341  0.0198
  862SOL    HW1 2585   1.409   0.087   2.375 -0.1590  0.6853  0.7382
  862SOL    HW2 2586   1.311   0.222   2.399  1.5013  1.2844  2.4445
  863SOL     OW 2587   2.993   2.710   0.841  0.3786  0.0861 -0.3337
  863SOL    HW1 2588   2.931   2.743   0.914  2.0761 -3.4000 -0.9620
  863SOL    HW2 2589   2.989   2.609   0.827  0.0878  1.9115  3.0329
  864SOL     OW 2590   2.341   0.153   2.226  0.2754  0.3508 -0.3493
  864SOL    HW1 2591   2.250   0.143   2.272  1.0360 -1.9077 -0.6052
  864SOL    HW2 2592   2.366   0.065   2.180  1.8268  1.2571  1.3630
  865SOL     OW 2593   0.851   1.225   1.978  0.3092  0.0364  0.5517
  865SOL    HW1 2594   0.796   1.152   1.927 -2.0309 -2.0457  1.1029
  865SOL    HW2 2595   0.789   1.268   2.046  1.3525 -3.9415  1.5012
  866SOL     OW 2596   2.031   2.876   1.065 -0.6534  0.1849 -0.0294
  866SOL    HW1 2597   1.947   2.877   1.010 -0.4368 -2.8468 -0.1866
  866SOL    HW2 2598   2.097   2.806   1.033  1.6791 -0.3823  1.2132
  867SOL     OW 2599   2.041   3.036   0.766 -0.1321  0.4507 -0.2216
  867SOL    HW1 2600   2.126   0.013   0.770 -1.5529  0.6688  1.7028
  867SOL    HW2 2601   1.961   0.019   0.760  2.1850 -1.9923 -0.2079
  868SOL     OW 2602   2.991   1.963   1.542 -0.6607 -0.1414  0.3391
  868SOL    HW1 2603   0.003   1.992   1.499  1.8515  1.3786 -1.3018
  868SOL    HW2 2604   2.909   1.984   1.487 -0.4746  2.1328 -2.9578
  869SOL     OW 2605   2.053   2.172   2.138 -0.2711  0.6247  0.0382
  869SOL    HW1 2606   1.955   2.182   2.181 -1.7786 -1.3090  2.4462
  869SOL    HW2 2607   2.108   2.253   2.155 -0.4664  1.0158 -1.2532
  870SOL     OW 2608   1.405   1.314   0.796 -0.5882 -0.6491  0.5875
  870SOL    HW1 2609   1.489   1.313   0.740 -0.9661  2.8594  1.0885
  870SOL    HW2 2610   1.380   1.408   0.831 -0.4111  1.5350  0.1105
  871SOL     OW 2611   2.918   1.985   1.959  0.0152 -0.1640  0.2729
  871SOL    HW1 2612   2.859   2.036   2.025  2.0902  0.1164  0.2651
  871SOL    HW2 2613   2.926   1.888   1.988 -0.9477 -1.2221 -0.3976
  872SOL     OW 2614   1.160   1.373   2.572 -0.2285 -0.3396  0.5645
  872SOL    HW1 2615   1.070   1.426   2.555 -0.5098  0.3999  0.0541
  872SOL    HW2 2616   1.159   1.276   2.536 -0.8067 -2.1578  1.1178
  873SOL     OW 2617   0.668   1.167   1.574 -0.5844 -0.3073 -0.1655
  873SOL    HW1 2618   0.738   1.240   1.595 -1.3004 -1.7670  1.7983
  873SOL    HW2 2619   0.654   1.105   1.655 -0.4431 -0.8906  0.5371
  874SOL     OW 2620   1.849   1.136   1.455  0.0505 -0.0760  0.5589
  874SOL    HW1 2621   1.870   1.147   1.357 -0.0284 -1.4352 -0.6204
  874SOL    HW2 2622   1.813   1.042   1.478  0.6060 -1.5242  1.2557
  875SOL     OW 2623   2.896   3.002   0.011 -0.2018 -0.2135  0.4305
  875SOL    HW1 2624   2.951   3.068   0.067  0.7705 -3.3863  0.1727
  875SOL    HW2 2625   2.947   2.945   3.024  0.3208  1.2945  0.5892
  876SOL     OW 2626   0.797   1.258   0.247  0.4297 -0.2998 -0.5759
  876SOL    HW1 2627   0.831   1.250   0.346 -3.0946 -0.6270  1.8565
  876SOL    HW2 2628   0.874   1.280   0.184 -1.2536 -1.9938  0.5874
  877SOL     OW 2629   2.700   2.690   0.724  0.2915  0.0767  0.2381
  877SOL    HW1 2630   2.722   2.693   0.821  1.2801  1.7610  0.7815
  877SOL    HW2 2631   2.768   2.639   0.667 -1.6289  0.9468  1.2368
  878SOL     OW 2632   1.947   1.810   0.523 -0.6482  0.4860 -0.2747
  878SOL    HW1 2633   2.002   1.883   0.477 -1.1457  1.2985  0.3241
  878SOL    HW2 2634   1.849   1.837   0.519 -0.5426  1.3229 -1.2038
  879SOL     OW 2635   2.915   1.711   1.990  0.3738  0.1670  0.4515
  879SOL    HW1 2636   2.888   1.687   1.894 -0.2602  0.7164  1.6600
  879SOL    HW2 2637   3.015   1.712   2.005  2.9456 -0.8562 -1.8583
  880SOL     OW 2638   0.551   2.039   0.898 -0.2097 -0.0963  0.1059
  880SOL    HW1 2639   0.601   1.998   0.981  1.9991 -1.3322 -0.8831
  880SOL    HW2 2640   0.496   1.976   0.843  2.8775  1.2853  0.2716
  881SOL     OW 2641   0.895   0.402   1.437  0.2074  0.0309  0.2003
  881SOL    HW1 2642   0.865   0.309   1.417 -2.2129  1.9095  1.2219
  881SOL    HW2 2643   0.824   0.456   1.487 -0.8502  1.5743 -1.8216
  882SOL     OW 2644   2.346   1.056   1.199 -0.4147  0.0183  0.0079
  882SOL    HW1 2645   2.448   1.051   1.194 -0.6312 -4.1078  0.8398
  882SOL    HW2 2646   2.314   1.151   1.195  0.4895  1.8034 -2.3942
  883SOL     OW 2647   1.381   0.299   1.525  0.6151 -0.1254 -0.0817
  883SOL    HW1 2648   1.403   0.215   1.473 -0.4930 -0.0209 -1.9484
  883SOL    HW2 2649   1.288   0.338   1.498 -1.0623 -0.5904 -0.5332
  884SOL     OW 2650   2.726   0.253   1.990 -0.1620  0.0482  0.2828
  884SOL    HW1 2651   2.659   0.194   1.933 -3.2276  1.2158 -0.0860
  884SOL    HW2 2652   2.817   0.203   2.003  2.0657  3.2086  1.6840
  885SOL     OW 2653   1.308   1.501   3.046  0.0478  0.4671  0.0523
  885SOL    HW1 2654   1.246   1.488   2.962  0.3875 -0.6932 -0.8771
  885SOL    HW2 2655   1.398   1.522   3.008 -1.9059 -0.2694  1.8511
  886SOL     OW 2656   2.240   0.403   2.954 -0.2187  0.0189  0.4733
  886SOL    HW1 2657   2.230   0.323   3.012 -1.5263  1.4343  1.4186
  886SOL    HW2 2658   2.246   0.481   3.019  1.0510  1.2405 -1.0406
  887SOL     OW 2659   1.304   2.760   1.500 -0.0451  0.6070 -0.0696
  887SOL    HW1 2660   1.403   2.769   1.492  0.6068 -1.0194  0.1078
  887SOL    HW2 2661   1.275   2.710   1.585 -0.0552 -0.7469  2.3510
  888SOL     OW 2662   1.773   1.641   2.322  0.1467  0.1621 -0.1508
  888SOL    HW1 2663   1.739   1.618   2.227  0.9126 -0.8350 -0.0228
  888SOL    HW2 2664   1.868   1.677   2.312 -2.4608  1.6213 -0.0203
  889SOL     OW 2665   1.931   2.405   0.686 -0.4361  0.5336 -0.1650
  889SOL    HW1 2666   1.942   2.336   0.757  0.7542  2.5066  0.0555
  889SOL    HW2 2667   1.903   2.490   0.729  1.1951 -0.8723  0.2645
  890SOL     OW 2668   1.471   2.013   0.431 -0.4775  0.1603 -0.8175
  890SOL    HW1 2669   1.403   2.085   0.405 -1.3432  0.4183 -2.1224
  890SOL    HW2 2670   1.452   1.924   0.385 -1.3889 -1.8096  0.4899
  891SOL     OW 2671   2.851   0.964   0.071 -0.2131  0.1528 -0.1331
  891SOL    HW1 2672   2.911   1.004   0.001 -1.4785  0.0740  0.5730
  891SOL    HW2 2673   2.868   0.996   0.171 -1.9908  3.1651  2.1729
  892SOL     OW 2674   2.257   1.154   0.085 -0.1237 -0.5441  0.0960
  892SOL    HW1 2675   2.205   1.222   0.142  0.2582 -0.4374 -1.2149
  892SOL    HW2 2676   2.348   1.189   0.055  0.0256  1.7804 -1.3677
  893SOL     OW 2677   1.854   2.486   1.280 -0.0415  0.2173  0.1054
  893SOL    HW1 2678   1.866   2.582   1.305  1.0417 -2.1123 -2.7099
  893SOL    HW2 2679   1.945   2.446   1.286  1.9850  1.4728  2.0747
  894SOL     OW 2680   2.696   2.891   0.513 -0.1824 -0.2356 -0.6136
  894SOL    HW1 2681   2.791   2.897   0.468  0.5412 -0.8801  0.2269
  894SOL    HW2 2682   2.708   2.831   0.595 -0.8850 -0.7903 -2.5385
  895SOL     OW 2683   2.336   2.454   2.804  0.2800  0.2126 -0.3171
  895SOL    HW1 2684   2.383   2.391   2.740 -0.9543 -0.0184 -0.0608
  895SOL    HW2 2685   2.282   2.522   2.748  0.5071  1.7652 -0.8785
  896SOL     OW 2686   2.273   0.121   2.561  0.4185  0.0907  0.3061
  896SOL    HW1 2687   2.339   0.189   2.602 -0.8009  0.3568 -3.4063
  896SOL    HW2 2688   2.187   0.118   2.614  4.0930  0.4797  1.3315
  897SOL     OW 2689   0.326   1.771   1.847  0.1331  0.1600  0.9624
  897SOL    HW1 2690   0.347   1.678   1.810 -1.1432 -0.2596  0.8654
  897SOL    HW2 2691   0.407   1.809   1.896  1.9307 -0.2545  1.0317
  898SOL     OW 2692   2.731   1.590   1.698  0.0841  0.1216 -0.1746
  898SOL    HW1 2693   2.654   1.645   1.732  0.1363 -0.0303  0.8729
  898SOL    HW2 2694   2.804   1.648   1.665 -0.6058 -1.3349 -2.1235
  899SOL     OW 2695   1.648   2.743   1.519 -0.2781  0.5303  0.2852
  899SOL    HW1 2696   1.683   2.650   1.542 -1.5861 -1.0648  0.6245
  899SOL    HW2 2697   1.691   2.805   1.583  0.6525 -1.5300  0.7480
  900SOL     OW 2698   1.194   0.742   3.053 -0.0101 -0.2755 -0.0846
  900SOL    HW1 2699   1.203   0.716   2.956 -1.2321 -0.0994  2.0471
  900SOL    HW2 2700   1.101   0.729   0.009  0.1946  1.3968  0.6908
  901SOL     OW 2701   0.996   1.354   2.291  0.2057 -0.0020 -0.2184
  901SOL    HW1 2702   1.052   1.308   2.218  0.8106  1.0289  1.1100
  901SOL    HW2 2703   1.011   1.455   2.283 -0.8852  0.6159 -0.4079
  902SOL     OW 2704   3.007   2.180   0.213 -0.5676 -0.0524  0.0888
  902SOL    HW1 2705   2.996   2.105   0.149 -0.0157  0.1350 -2.1514
  902SOL    HW2 2706   2.925   2.242   0.216  1.2896 -0.0822 -3.6189
  903SOL     OW 2707   2.267   1.036   1.962  0.5356  0.2698 -0.8409
  903SOL    HW1 2708   2.330   0.959   1.991  2.1872  3.4850 -1.1148
  903SOL    HW2 2709   2.285   1.119   2.011 -0.9547 -2.0903  0.7568
  904SOL     OW 2710   1.764   0.900   2.877  0.3725  0.4496  0.7277
  904SOL    HW1 2711   1.701   0.978   2.895 -1.6663 -0.2867  2.2333
  904SOL    HW2 2712   1.858   0.922   2.910 -0.6235  0.3716  1.0196
  905SOL     OW 2713   2.225   2.713   0.968  0.0094  0.0356 -0.1902
  905SOL    HW1 2714   2.257   2.721   1.062 -3.2571 -0.1329 -2.3116
  905SOL    HW2 2715   2.212   2.613   0.944  0.3405 -1.5807  0.9749
  906SOL     OW 2716   1.491   2.018   3.065 -0.2198 -0.1438  0.0337
  906SOL    HW1 2717   1.448   2.106   0.019  1.4007  2.1860 -0.2720
  906SOL    HW2 2718   1.427   1.941   0.008 -0.3557  0.1797 -2.5291
  907SOL     OW 2719   0.823   2.562   0.610 -0.1488  0.1418 -0.1815
  907SOL    HW1 2720   0.734   2.614   0.613 -0.9527  0.6509  0.8981
  907SOL    HW2 2721   0.818   2.489   0.678 -0.4661  2.9546 -0.0776
  908SOL     OW 2722   1.045   2.809   1.996 -0.1146 -0.4071  0.1525
  908SOL    HW1 2723   0.997   2.721   1.974  1.2840 -0.4336  2.7252
  908SOL    HW2 2724   1.147   2.794   1.979  0.8027  0.9203  1.7174
  909SOL     OW 2725   1.885   0.422   1.413  0.2316 -0.1659  0.2842
  909SOL    HW1 2726   1.913   0.370   1.329 -0.4535 -2.8332  0.3516
  909SOL    HW2 2727   1.798   0.478   1.405  3.0686  1.4520  1.3098
  910SOL     OW 2728   1.231   0.691   2.780  0.3850 -0.2355 -0.4900
  910SOL    HW1 2729   1.203   0.751   2.698  0.6221  3.3470  2.0272
  910SOL    HW2 2730   1.332   0.682   2.776 -1.1226 -0.4938 -1.0832
  911SOL     OW 2731   2.886   0.694   0.039  0.3217  0.2814  0.1017
  911SOL    HW1 2732   2.858   0.790   0.054 -1.4843  0.5365  1.0035
  911SOL    HW2 2733   2.955   0.657   0.101 -0.3947 -2.3698 -3.5806
  912SOL     OW 2734   0.099   2.179   2.918 -0.1952 -0.7603  0.2916
  912SOL    HW1 2735   0.061   2.086   2.916  0.3888 -1.0215  0.5671
  912SOL    HW2 2736   0.170   2.188   2.993  1.9070  1.4284  0.6622
  913SOL     OW 2737   2.642   1.976   2.847 -0.3682  0.4416  0.2024
  913SOL    HW1 2738   2.672   2.076   2.860  0.4753  3.1742  0.4122
  913SOL    HW2 2739   2.713   1.912   2.889  1.3108 -2.9065 -2.5609
  914SOL     OW 2740   1.358   1.689   1.679  0.4652 -0.5273  0.2004
  914SOL    HW1 2741   1.369   1.620   1.602  0.2368 -1.5349  2.6311
  914SOL    HW2 2742   1.355   1.779   1.624  1.5069  1.6108 -1.6627
  915SOL     OW 2743   0.420   2.687   2.113 -0.4282  0.0974 -0.0188
  915SOL    HW1 2744   0.340   2.650   2.159  1.6464  2.0773  0.4379
  915SOL    HW2 2745   0.390   2.770   2.057  2.0799  0.5285 -1.1203
  916SOL     OW 2746   0.382   1.311   1.570 -0.4498  0.6570  0.6276
  916SOL    HW1 2747   0.392   1.223   1.624 -2.9187  1.0157  2.3328
  916SOL    HW2 2748   0.366   1.302   1.470  0.3632  0.0079  1.0950
  917SOL     OW 2749   2.534   0.476   0.058  0.0313  0.3786  0.1491
  917SOL    HW1 2750   2.512   0.399   0.125  0.9125  1.3167  1.6079
  917SOL    HW2 2751   2.631   0.474   0.037 -3.9568  0.1687 -0.1084
  918SOL     OW 2752   1.364   2.570   2.197 -0.4308  0.2321  0.1948
  918SOL    HW1 2753   1.398   2.478   2.225 -2.1008 -0.9226  0.3036
  918SOL    HW2 2754   1.263   2.576   2.210  1.2420 -1.6945 -2.4319
  919SOL     OW 2755   1.741   2.516   1.627  0.2433  0.3518 -0.3565
  919SOL    HW1 2756   1.735   2.432   1.571 -3.0737  0.2788 -2.4922
  919SOL    HW2 2757   1.836   2.533   1.651 -1.0560 -1.4039  0.2294
  920SOL     OW 2758   0.879   0.990   3.068 -0.3980  0.3355  0.2947
  920SOL    HW1 2759   0.813   0.980   2.996  1.1025  1.8753 -1.4138
  920SOL    HW2 2760   0.834   0.980   0.079 -0.9416  2.5339 -1.6767
  921SOL     OW 2761   0.299   0.670   2.602  0.0609  0.1822  0.4099
  921SOL    HW1 2762   0.247   0.635   2.522  1.5266 -1.6275  2.2100
  921SOL    HW2 2763   0.345   0.591   2.649  1.4938  0.5714 -1.7404
  922SOL     OW 2764   0.805   1.796   0.441  0.3885 -0.1751 -0.2570
  922SOL    HW1 2765   0.902   1.797   0.435 -2.1875 -0.1737 -2.1343
  922SOL    HW2 2766   0.778   1.841   0.526  0.2619 -0.4822 -2.2567
  923SOL     OW 2767   0.375   1.132   1.803 -0.0049 -0.0933  0.1372
  923SOL    HW1 2768   0.332   1.040   1.819  2.0602  0.5227 -1.6304
  923SOL    HW2 2769   0.349   1.208   1.869 -0.0798  0.3068  2.9822
  924SOL     OW 2770   1.264   2.812   2.733  0.2140  0.3673  0.0810
  924SOL    HW1 2771   1.295   2.715   2.743 -0.3236  1.8088 -2.2989
  924SOL    HW2 2772   1.342   2.883   2.739 -1.9249  2.0304  0.8577
  925SOL     OW 2773   2.771   1.484   1.457 -0.2595 -0.7099 -0.5435
  925SOL    HW1 2774   2.759   1.511   1.553  0.9103  0.5385 -2.4113
  925SOL    HW2 2775   2.762   1.572   1.399 -0.6944  0.7267 -2.7076
  926SOL     OW 2776   1.975   0.765   1.610 -0.6651 -0.2933  0.3105
  926SOL    HW1 2777   1.956   0.793   1.518  1.9426 -2.0041  3.9466
  926SOL    HW2 2778   2.059   0.708   1.612  0.5932  0.3598  3.1150
  927SOL     OW 2779   2.278   2.490   1.578  0.0047 -0.4296  0.1209
  927SOL    HW1 2780   2.335   2.566   1.620  1.0342  2.9156  1.9315
  927SOL    HW2 2781   2.303   2.476   1.481 -0.5448  1.2141 -1.3627
  928SOL     OW 2782   0.376   0.722   2.238 -0.5544 -0.1644 -0.4520
  928SOL    HW1 2783   0.314   0.781   2.182  1.8194  0.6804  0.0742
  928SOL    HW2 2784   0.473   0.753   2.225 -0.0447  0.7281  0.5446
  929SOL     OW 2785   2.279   0.060   0.782 -0.1773  0.0563 -0.4671
  929SOL    HW1 2786   2.329   0.032   0.697 -0.7032 -1.5019  2.7647
  929SOL    HW2 2787   2.285   0.160   0.803  0.7299 -0.5368 -1.8667
  930SOL     OW 2788   2.877   2.903   1.871 -0.1508  0.1400  0.0922
  930SOL    HW1 2789   2.887   2.978   1.940  2.1033 -0.2519 -1.0176
  930SOL    HW2 2790   2.967   2.862   1.850  1.5297 -0.3185  0.0968
  931SOL     OW 2791   1.945   0.848   0.614  0.4852 -0.1945  0.2938
  931SOL    HW1 2792   2.006   0.787   0.676  2.8845 -1.2320  1.3952
  931SOL    HW2 2793   1.959   0.944   0.638  1.4099  1.3705 -0.6637
  932SOL     OW 2794   2.365   1.331   1.793 -0.4035 -0.4179 -0.4509
  932SOL    HW1 2795   2.371   1.282   1.882 -1.0577  1.9778  1.7699
  932SOL    HW2 2796   2.448   1.316   1.729  1.6162 -0.3795 -3.0084
  933SOL     OW 2797   2.867   2.461   1.540 -0.6005 -0.3338 -0.2015
  933SOL    HW1 2798   2.860   2.505   1.634  1.6309 -0.2360  5.2876
  933SOL    HW2 2799   2.967   2.456   1.520  1.4032  1.4861 -0.6312
  934SOL     OW 2800   0.609   1.893   1.433  0.3467 -0.5126  0.3194
  934SOL    HW1 2801   0.629   1.986   1.391 -0.8816 -1.8512 -1.3868
  934SOL    HW2 2802   0.614   1.904   1.533  1.8925 -1.8435  1.4023
  935SOL     OW 2803   2.762   1.676   2.209 -0.7741 -0.0833 -0.2328
  935SOL    HW1 2804   2.799   1.687   2.115  0.7967  1.1679 -2.4211
  935SOL    HW2 2805   2.664   1.661   2.215  1.2192  1.3830  3.6377
  936SOL     OW 2806   2.469   1.630   2.159 -0.1006  0.1461 -0.6773
  936SOL    HW1 2807   2.502   1.536   2.191  0.6631 -0.7275  0.7241
  936SOL    HW2 2808   2.416   1.616   2.071  0.3727 -2.4864 -1.2071
  937SOL     OW 2809   1.893   1.394   2.023 -0.7853  0.8169 -0.4827
  937SOL    HW1 2810   1.891   1.307   2.072 -1.4193  1.5600 -2.0756
  937SOL    HW2 2811   1.971   1.457   2.052  0.3243  0.5884  0.2413
  938SOL     OW 2812   0.482   2.162   2.762 -0.0168 -0.1148 -0.1642
  938SOL    HW1 2813   0.558   2.122   2.825 -1.5720  0.0571 -0.1482
  938SOL    HW2 2814   0.509   2.163   2.663 -0.3177 -0.5767 -0.4740
  939SOL     OW 2815   2.262   1.086   2.888 -0.0363 -0.3296  0.4499
  939SOL    HW1 2816   2.225   0.995   2.853 -2.0186  1.2186 -0.9214
  939SOL    HW2 2817   2.269   1.089   2.992  1.6216  0.1264  0.4447
  940SOL     OW 2818   1.305   1.712   0.592 -0.3432  0.8240  0.2141
  940SOL    HW1 2819   1.354   1.746   0.509  1.0134  2.2993  1.2722
  940SOL    HW2 2820   1.354   1.739   0.677  1.1731  0.1491 -0.8740
  941SOL     OW 2821   1.464   2.763   2.376 -0.5515 -0.0515 -0.4734
  941SOL    HW1 2822   1.446   2.707   2.459  0.8503 -0.0712  1.2467
  941SOL    HW2 2823   1.403   2.732   2.297  1.6227 -1.3901  0.1584
  942SOL     OW 2824   0.684   2.277   0.410 -0.2749  0.4930 -0.3680
  942SOL    HW1 2825   0.695   2.305   0.316  0.2285 -0.4836  1.5408
  942SOL    HW2 2826   0.769   2.276   0.466 -2.2971  0.8936 -1.1579
  943SOL     OW 2827   1.864   2.891   1.677 -0.0725 -0.1227 -0.6585
  943SOL    HW1 2828   1.939   2.860   1.619  0.5571  0.6038  1.9839
  943SOL    HW2 2829   1.810   2.966   1.632 -1.3143 -1.4763  1.6466
  944SOL     OW 2830   0.963   1.378   2.874 -0.6621  0.1664  0.0203
  944SOL    HW1 2831   1.042   1.443   2.863  1.0515  2.8306  1.5442
  944SOL    HW2 2832   0.934   1.343   2.780  2.0177 -0.4950 -0.0754
  945SOL     OW 2833   0.099   2.282   0.679 -0.1329 -0.3514  0.2972
  945SOL    HW1 2834   0.148   2.236   0.758 -0.3990  0.8070 -0.2882
  945SOL    HW2 2835   0.095   2.214   0.604  1.0669  0.0760 -1.2684
  946SOL     OW 2836   0.900   1.195   2.662  0.1109  0.2660  0.0175
  946SOL    HW1 2837   0.827   1.173   2.730 -2.5419 -3.0021  1.1486
  946SOL    HW2 2838   0.968   1.119   2.667 -1.0853  0.3589 -2.8494
  947SOL     OW 2839   2.580   2.936   1.966 -0.1528  0.1485 -0.4493
  947SOL    HW1 2840   2.658   2.876   1.987 -1.0669 -1.5440 -0.2361
  947SOL    HW2 2841   2.601   3.017   1.905 -0.8352  0.2555 -1.6951
  948SOL     OW 2842   0.264   1.884   1.059  0.7067 -0.3051 -0.0498
  948SOL    HW1 2843   0.328   1.862   0.980 -0.9520 -1.7159 -1.6811
  948SOL    HW2 2844   0.301   1.852   1.148 -0.0296 -2.8450  0.9415
  949SOL     OW 2845   0.966   0.920   1.657  0.1795  0.2773  0.3895
  949SOL    HW1 2846   1.056   0.878   1.673 -2.4783 -1.0612 -0.9662
  949SOL    HW2 2847   0.961   1.019   1.680 -1.6578 -0.1825 -1.0831
  950SOL     OW 2848   2.971   0.995   1.102  0.2121 -0.5112 -0.1926
  950SOL    HW1 2849   3.066   0.976   1.124  0.4616  1.4225 -0.8644
  950SOL    HW2 2850   2.926   1.033   1.185 -1.4171  1.8429  2.6407
  951SOL     OW 2851   0.329   2.080   2.357 -0.5191 -0.2959  0.5209
  951SOL    HW1 2852   0.252   2.044   2.306  0.2106 -1.0772  0.0897
  951SOL    HW2 2853   0.314   2.059   2.453 -1.2192  0.1362  0.2996
  952SOL     OW 2854   1.315   2.241   0.405  0.0111  0.5004 -0.5486
  952SOL    HW1 2855   1.267   2.283   0.476  1.8987 -0.2415 -5.3199
  952SOL    HW2 2856   1.282   2.265   0.310 -0.5578  0.0358 -2.1608
  953SOL     OW 2857   0.985   0.619   0.333 -0.2637  0.7488  0.2122
  953SOL    HW1 2858   0.950   0.519   0.340  0.2575 -1.9958 -0.7974
  953SOL    HW2 2859   0.985   0.646   0.237 -1.5036  1.8511  1.2006
  954SOL     OW 2860   2.220   0.906   0.885  0.2839  1.1397 -0.2529
  954SOL    HW1 2861   2.200   0.862   0.977 -1.6272 -0.7039 -0.3844
  954SOL    HW2 2862   2.185   0.997   0.893  0.7393 -3.2484  0.8251
  955SOL     OW 2863   2.307   1.319   0.418  0.1941 -0.4068 -0.2350
  955SOL    HW1 2864   2.228   1.353   0.361 -0.6397  0.1435 -0.8379
  955SOL    HW2 2865   2.392   1.371   0.402 -1.8519 -1.1251  0.1628
  956SOL     OW 2866   0.820   0.624   1.631 -0.1218  0.6836 -0.4845
  956SOL    HW1 2867   0.888   0.660   1.699 -1.4585  1.2465  2.7749
  956SOL    HW2 2868   0.775   0.705   1.588  0.7898 -1.2821 -1.3210
  957SOL     OW 2869   1.854   0.724   1.018 -0.3818 -0.2029 -0.1574
  957SOL    HW1 2870   1.807   0.723   1.109 -0.2307  2.2432  1.9893
  957SOL    HW2 2871   1.846   0.815   0.968 -1.1517  0.1604 -1.8413
  958SOL     OW 2872   0.230   1.920   0.580 -0.6155 -0.1231 -0.3211
  958SOL    HW1 2873   0.251   1.826   0.539 -1.0396 -1.3831 -1.1463
  958SOL    HW2 2874   0.313   1.979   0.568 -1.0537  0.0033 -0.9306
  959SOL     OW 2875   2.026   1.843   1.673  0.3209 -0.5485 -0.1576
  959SOL    HW1 2876   2.061   1.882   1.756  0.4295 -0.0827  0.1904
  959SOL    HW2 2877   2.085   1.772   1.631  1.4863 -0.0461 -1.2898
  960SOL     OW 2878   2.971   1.858   2.713  0.0609  0.1556  0.1041
  960SOL    HW1 2879   2.937   1.893   2.805 -0.9096 -1.2221  2.3919
  960SOL    HW2 2880   2.944   1.762   2.693  0.0782  2.4305 -1.2958
  961SOL     OW 2881   1.058   1.369   0.867 -0.5378 -0.3952  0.5176
  961SOL    HW1 2882   1.076   1.431   0.787  1.7593 -1.3485  1.0766
  961SOL    HW2 2883   1.130   1.388   0.937  1.3184  1.2342 -0.7212
  962SOL     OW 2884   0.791   0.946   0.719  0.6223  1.1260  0.6659
  962SOL    HW1 2885   0.811   1.041   0.750 -1.3213 -0.2217  0.1309
  962SOL    HW2 2886   0.859   0.916   0.648  0.9593  0.6059  0.3121
  963SOL     OW 2887   1.034   1.842   1.923  0.1196 -0.1314 -0.1458
  963SOL    HW1 2888   1.001   1.747   1.927  0.4355  0.2618  0.6180
  963SOL    HW2 2889   1.136   1.847   1.928  0.5718 -0.1217  0.5981
  964SOL     OW 2890   0.156   2.872   2.258 -0.3753  0.3325  0.5470
  964SOL    HW1 2891   0.254   2.902   2.272  2.8721  4.2227  0.4138
  964SOL    HW2 2892   0.095   2.910   2.331 -0.3282 -1.5854 -0.7188
  965SOL     OW 2893   0.770   2.103   0.103 -0.8562 -0.2950 -0.5621
  965SOL    HW1 2894   0.744   2.201   0.113 -0.6515 -0.6609 -0.2107
  965SOL    HW2 2895   0.707   2.034   0.146 -0.7748  0.3649 -0.5783
  966SOL     OW 2896   2.978   1.702   0.261  0.3569  0.5086  0.1749
  966SOL    HW1 2897   2.952   1.686   0.359  1.0337 -1.1096 -0.2824
  966SOL    HW2 2898   2.912   1.651   0.205  1.4926  1.1572  1.8835
  967SOL     OW 2899   1.923   2.434   2.709  0.0166 -0.2255 -0.7448
  967SOL    HW1 2900   1.999   2.362   2.699  0.0199 -2.5822  0.6790
  967SOL    HW2 2901   1.849   2.406   2.774 -0.7945  0.8531 -0.0895
  968SOL     OW 2902   2.373   2.845   0.752  0.3524 -0.1305 -0.5733
  968SOL    HW1 2903   2.458   2.803   0.789  0.1918 -2.8373 -0.4708
  968SOL    HW2 2904   2.284   2.798   0.783 -1.7661 -0.6621 -0.2334
  969SOL     OW 2905   0.513   1.043   2.045 -0.1781 -0.1089  0.0641
  969SOL    HW1 2906   0.526   1.073   2.142 -0.3039  2.4907  2.1656
  969SOL    HW2 2907   0.450   1.107   2.004  0.3779  0.1473  0.9641
  970SOL     OW 2908   1.753   1.204   0.502  0.4105  0.2363 -0.1322
  970SOL    HW1 2909   1.845   1.179   0.468 -0.5551 -0.2568  0.8554
  970SOL    HW2 2910   1.692   1.124   0.491 -0.6677  1.6137 -2.3252
  971SOL     OW 2911   2.318   2.950   1.562  0.3270 -0.5264 -0.6819
  971SOL    HW1 2912   2.379   2.877   1.597 -0.5764 -0.8832 -0.8199
  971SOL    HW2 2913   2.349   2.980   1.467  2.3362  0.2836  1.6682
  972SOL     OW 2914   2.975   0.366   1.367 -0.0765 -0.0465  0.4328
  972SOL    HW1 2915   2.921   0.299   1.316  1.7845 -0.7837  1.2140
  972SOL    HW2 2916   2.967   0.346   1.466 -1.1619  1.7364  2.8321
  973SOL     OW 2917   0.164   0.386   2.555  0.2895 -0.5659  0.0300
  973SOL    HW1 2918   0.207   0.327   2.623  3.2943  2.2863 -0.8584
  973SOL    HW2 2919   0.238   0.414   2.486  3.2473 -2.6018 -0.3203
  974SOL     OW 2920   2.369   1.268   2.084 -0.4682  0.2782  0.1694
  974SOL    HW1 2921   2.278   1.249   2.130 -0.6773 -0.8414 -0.7807
  974SOL    HW2 2922   2.429   1.316   2.152  0.0655  0.3352 -0.2267
  975SOL     OW 2923   1.139   0.452   1.539  0.2858 -0.0178 -0.2979
  975SOL    HW1 2924   1.058   0.416   1.487  0.7808 -1.1953  0.3629
  975SOL    HW2 2925   1.119   0.440   1.637  3.0071  4.0666 -1.5213
  976SOL     OW 2926   0.830   1.393   1.548 -0.2565 -0.2980  0.4012
  976SOL    HW1 2927   0.892   1.476   1.554  2.4922  1.0436 -0.6275
  976SOL    HW2 2928   0.738   1.422   1.518 -0.1945 -1.2268 -0.8078
  977SOL     OW 2929   1.028   3.024   0.159  0.3754  0.4043 -0.2409
  977SOL    HW1 2930   1.017   3.028   0.059 -0.1311 -1.5474 -1.3626
  977SOL    HW2 2931   1.050   0.029   0.212  0.0718 -0.5889 -1.0036
  978SOL     OW 2932   2.544   1.394   2.263  0.3179 -0.1758 -0.1415
  978SOL    HW1 2933   2.489   1.364   2.343 -1.0442  3.0587  1.5960
  978SOL    HW2 2934   2.599   1.325   2.221 -0.8122  1.2924  1.3911
  979SOL     OW 2935   1.435   0.365   2.081  0.3180 -0.6302  0.4027
  979SOL    HW1 2936   1.420   0.462   2.053  0.4842 -1.4570 -0.8688
  979SOL    HW2 2937   1.453   0.305   2.003  1.0234 -0.2258  0.8937
  980SOL     OW 2938   1.452   1.504   1.907  0.8108 -0.0739  0.5096
  980SOL    HW1 2939   1.411   1.571   1.846  0.9360  1.2384  1.0667
  980SOL    HW2 2940   1.546   1.478   1.873  0.3049  0.6642 -1.3431
  981SOL     OW 2941   2.510   1.133   1.591 -0.1539 -0.0193  0.2411
  981SOL    HW1 2942   2.513   1.155   1.487  3.7262  0.5120  1.1380
  981SOL    HW2 2943   2.446   1.052   1.608 -2.2921 -2.1414 -1.6266
  982SOL     OW 2944   0.392   0.278   0.050 -0.0758 -0.3014  0.8979
  982SOL    HW1 2945   0.480   0.293   0.004 -1.5179  3.3554 -0.6219
  982SOL    HW2 2946   0.391   0.183   0.087 -2.0230  0.1031 -2.1833
  983SOL     OW 2947   2.167   0.593   2.731 -0.2252 -1.0221  0.5718
  983SOL    HW1 2948   2.262   0.563   2.750 -2.0555  3.0076 -0.4127
  983SOL    HW2 2949   2.105   0.551   2.804 -1.5521 -0.9899 -0.3000
  984SOL     OW 2950   0.852   3.035   1.906  0.7452  0.3589  0.0853
  984SOL    HW1 2951   0.952   3.032   1.917 -1.6472  0.9665  0.6262
  984SOL    HW2 2952   0.818   2.939   1.893  0.0969 -0.1542  1.7256
  985SOL     OW 2953   1.570   1.927   1.958 -0.4429  0.0659  0.4792
  985SOL    HW1 2954   1.628   1.868   2.013 -2.8840  1.6964 -2.3258
  985SOL    HW2 2955   1.592   2.027   1.966  0.4042 -1.1244  1.1911
  986SOL     OW 2956   2.267   0.286   1.576  0.1383  0.0314 -0.0647
  986SOL    HW1 2957   2.311   0.277   1.671  0.1642  1.5543  2.6778
  986SOL    HW2 2958   2.220   0.199   1.556  0.6366 -0.8201 -1.1269
  987SOL     OW 2959   2.434   1.456   1.301  0.2787  0.4523 -0.6751
  987SOL    HW1 2960   2.462   1.475   1.203  5.3748  0.6647 -1.3654
  987SOL    HW2 2961   2.469   1.364   1.337 -0.5499 -2.4772 -0.2159
  988SOL     OW 2962   2.325   2.000   1.770 -0.0083 -0.0465  0.2980
  988SOL    HW1 2963   2.320   2.093   1.731  0.4030 -0.0302 -0.9775
  988SOL    HW2 2964   2.265   1.983   1.848  1.3495 -1.2751  4.8881
  989SOL     OW 2965   1.006   2.507   0.118 -0.3392  0.1070  0.0909
  989SOL    HW1 2966   0.982   2.536   0.214  0.2025 -0.0180  1.9465
  989SOL    HW2 2967   1.068   2.425   0.120 -3.0838 -2.9169  0.1118
  990SOL     OW 2968   1.683   1.212   2.858  0.0942  0.1180 -0.2137
  990SOL    HW1 2969   1.766   1.158   2.834 -2.3300 -0.1915  0.4545
  990SOL    HW2 2970   1.661   1.286   2.785 -0.5271 -1.9697 -1.4221
  991SOL     OW 2971   1.226   0.424   0.585 -0.6820 -0.0134 -0.0688
  991SOL    HW1 2972   1.299   0.360   0.618  0.8472 -3.1688  1.0807
  991SOL    HW2 2973   1.247   0.449   0.487  1.1572 -0.6756 -2.8244
  992SOL     OW 2974   2.578   1.239   1.328  0.4756  0.0630 -0.2948
  992SOL    HW1 2975   2.601   1.148   1.279  3.5023 -1.9690 -0.7920
  992SOL    HW2 2976   2.663   1.290   1.345 -1.5930  0.7742 -0.0452
  993SOL     OW 2977   2.545   0.838   1.786 -0.0246 -0.8932  0.0352
  993SOL    HW1 2978   2.462   0.862   1.728 -1.2940 -0.8655 -3.0170
  993SOL    HW2 2979   2.611   0.916   1.780  0.0116  2.6808  0.5975
  994SOL     OW 2980   0.605   1.725   2.602 -0.6789 -0.7169 -0.7240
  994SOL    HW1 2981   0.618   1.811   2.552 -0.6964 -1.8486  0.8019
  994SOL    HW2 2982   0.571   1.657   2.536  1.9638  0.2315 -0.2187
  995SOL     OW 2983   1.932   1.155   2.760  0.0243 -0.0838  0.0987
  995SOL    HW1 2984   1.897   1.178   2.667  0.0116  1.6505  1.4301
  995SOL    HW2 2985   2.028   1.195   2.774  1.3676  2.5089 -1.6482
  996SOL     OW 2986   2.217   1.726   0.405  0.0529 -0.3120 -0.1398
  996SOL    HW1 2987   2.187   1.627   0.407  2.2302  2.4012  1.6349
  996SOL    HW2 2988   2.272   1.744   0.484 -1.4231  1.2793 -1.8979
  997SOL     OW 2989   2.002   0.649   2.157 -0.3608  0.2445 -0.4742
  997SOL    HW1 2990   2.052   0.682   2.071  2.1147 -0.2181 -2.2204
  997SOL    HW2 2991   1.956   0.563   2.131 -1.1498  1.3475 -2.0009
  998SOL     OW 2992   2.556   1.174   0.200  0.1792  0.2402 -0.8281
  998SOL    HW1 2993   2.500   1.086   0.214 -2.7861 -0.7345 -0.5735
  998SOL    HW2 2994   2.569   1.185   0.103 -0.8105  2.6328  4.3925
  999SOL     OW 2995   2.841   2.068   0.562 -0.0350 -0.1112 -0.2330
  999SOL    HW1 2996   2.934   2.070   0.522  0.3949 -0.0520  0.6661
  999SOL    HW2 2997   2.829   2.155   0.614 -0.8522 -2.0047  0.2446
 1000SOL     OW 2998   0.851   0.746   2.508  0.5814  0.2888  0.3606
 1000SOL    HW1 2999   0.860   0.696   2.599 -2.3726  0.0252  3.0571
 1000SOL    HW2 3000   0.828   0.683   2.435  1.6213  2.8244 -0.5012
   3.07843   3.07843   3.07843
