1000 SPC/Fw water molecules t= 394.00000 step= 394000
 3000
    1SOL     OW    1   2.791   2.930   1.781  0.1929  0.6659  0.2343
    1SOL    HW1    2   2.708   2.984   1.804 -1.3888  2.3046 -1.1788
    1SOL    HW2    3   2.765   2.831   1.786 -2.8436 -0.0750  0.5052
    2SOL     OW    4   2.528   2.530   0.300  0.0882 -1.0384  0.3590
    2SOL    HW1    5   2.503   2.596   0.372 -0.1467  2.8840 -1.2470
    2SOL    HW2    6   2.591   2.582   0.240  3.4319  0.7530 -2.7950
    3SOL     OW    7   1.348   2.931   0.290 -0.0313  0.3151 -0.2956
    3SOL    HW1    8   1.370   2.979   0.380 -0.6243  0.0903 -1.0462
    3SOL    HW2    9   1.250   2.947   0.266 -2.3846  1.3366 -2.6675
    4SOL     OW   10   1.043   2.893   2.485 -0.6618 -0.6166 -0.4159
    4SOL    HW1   11   1.143   2.878   2.491 -2.3578 -1.6838 -2.3922
    4SOL    HW2   12   1.020   2.904   2.386  1.2513 -1.4491  0.9816
    5SOL     OW   13   2.270   0.006   1.431  0.5616 -0.3963  0.3450
    5SOL    HW1   14   2.192   0.061   1.407  1.3389  0.6869  1.1355
    5SOL    HW2   15   2.354   0.046   1.383  1.2677 -1.4829 -1.3273
    6SOL     OW   16   2.180   2.022   0.530  0.1399 -0.5716 -0.1946
    6SOL    HW1   17   2.166   1.984   0.441 -2.2557  0.0435  2.9817
    6SOL    HW2   18   2.138   2.119   0.529 -2.3581  2.0600 -3.3450
    7SOL     OW   19   2.212   1.199   0.776 -0.1470  0.4050  0.1144
    7SOL    HW1   20   2.282   1.213   0.850  0.5531  2.4763  2.3688
    7SOL    HW2   21   2.229   1.268   0.702  0.5927 -1.3426 -1.5467
    8SOL     OW   22   0.553   1.220   0.955  0.3174  0.0883 -0.1798
    8SOL    HW1   23   0.633   1.232   1.018  1.0802  4.8041  0.4636
    8SOL    HW2   24   0.570   1.272   0.870 -1.8081 -2.2640  1.5178
    9SOL     OW   25   0.288   2.844   1.780 -0.1487 -0.2582  0.2186
    9SOL    HW1   26   0.250   2.871   1.686  0.3575  0.2741 -0.9585
    9SOL    HW2   27   0.339   2.755   1.780  0.8360  0.6670  1.1790
   10SOL     OW   28   1.123   2.335   0.536  0.4294  0.6136  0.5818
   10SOL    HW1   29   1.106   2.256   0.599 -0.3146 -0.9566 -1.8860
   10SOL    HW2   30   1.217   2.331   0.500 -4.3461 -1.8973 -2.2298
   11SOL     OW   31   1.750   1.970   1.086 -0.0985 -0.3172  0.6156
   11SOL    HW1   32   1.738   2.066   1.048 -1.6962 -0.4504  3.6242
   11SOL    HW2   33   1.794   1.975   1.176  1.6195  2.1786 -1.1393
   12SOL     OW   34   2.766   0.461   2.044 -0.1368  0.2526 -0.1913
   12SOL    HW1   35   2.773   0.562   2.023  0.9473 -0.7158 -0.5619
   12SOL    HW2   36   2.848   0.411   2.011 -0.1796  3.7178 -2.9869
   13SOL     OW   37   2.625   2.931   0.347  0.3725  0.1910 -0.4165
   13SOL    HW1   38   2.694   2.977   0.406 -0.9072 -0.1089 -1.3613
   13SOL    HW2   39   2.603   2.993   0.267  1.7270  1.3170 -1.7366
   14SOL     OW   40   1.829   1.515   2.957  1.1359 -0.0269  0.1765
   14SOL    HW1   41   1.786   1.438   3.012 -1.2200  2.8798 -0.2674
   14SOL    HW2   42   1.787   1.532   2.867 -1.6829 -0.4480  0.8448
   15SOL     OW   43   2.829   2.405   1.717  0.6513 -0.3913 -0.6213
   15SOL    HW1   44   2.743   2.405   1.767 -1.3813 -1.3563 -0.7465
   15SOL    HW2   45   2.908   2.382   1.778  2.7679  2.9679  0.7923
   16SOL     OW   46   2.772   2.998   0.778 -0.1245 -0.1970 -0.7230
   16SOL    HW1   47   2.756   3.065   0.853 -0.5483 -2.4419 -3.1626
   16SOL    HW2   48   2.686   2.950   0.746  1.1475 -1.3361 -0.4633
   17SOL     OW   49   1.219   0.283   1.375 -0.1737  0.5387  0.5300
   17SOL    HW1   50   1.149   0.231   1.317 -1.8936 -2.2008 -0.5090
   17SOL    HW2   51   1.233   0.247   1.472  2.7480 -0.6314  1.7010
   18SOL     OW   52   1.644   0.082   1.058  0.4525  0.3386  0.2128
   18SOL    HW1   53   1.698   0.008   1.105  1.0923 -1.5789  0.7354
   18SOL    HW2   54   1.707   0.140   0.998 -1.9020  1.1343 -0.1785
   19SOL     OW   55   2.187   1.530   0.252  0.4159  0.0062  0.2383
   19SOL    HW1   56   2.165   1.564   0.154  1.6029  0.9750 -2.5452
   19SOL    HW2   57   2.242   1.598   0.300  1.5217 -0.6634 -2.4347
   20SOL     OW   58   2.254   1.549   2.275 -0.7706 -0.0047  0.0365
   20SOL    HW1   59   2.277   1.492   2.357  1.4177 -0.6306 -0.0793
   20SOL    HW2   60   2.325   1.620   2.276  0.9942 -2.1768  0.9036
   21SOL     OW   61   1.328   3.080   0.534 -0.1241 -0.0052  0.0939
   21SOL    HW1   62   1.304   0.041   0.480  1.8574 -3.6667 -1.0713
   21SOL    HW2   63   1.246   3.047   0.580  1.5510  3.7642 -2.3999
   22SOL     OW   64   2.969   0.822   0.824 -0.4430 -0.2174  0.5751
   22SOL    HW1   65   2.901   0.841   0.895 -0.8465  1.4954  1.8123
   22SOL    HW2   66   2.921   0.810   0.731 -0.6135 -0.7967 -0.3384
   23SOL     OW   67   0.366   0.146   1.804  0.0671 -0.3899  0.1588
   23SOL    HW1   68   0.342   0.228   1.857  1.0576 -0.2956 -2.3672
   23SOL    HW2   69   0.389   0.067   1.864  0.0236  2.0975 -1.0865
   24SOL     OW   70   2.317   2.583   0.602 -0.7226  0.0402 -0.7264
   24SOL    HW1   71   2.352   2.668   0.552 -3.7583  4.3498  1.4880
   24SOL    HW2   72   2.217   2.573   0.580 -1.4518  1.3207  2.3934
   25SOL     OW   73   2.005   2.990   2.695 -0.4009  0.3968  0.4289
   25SOL    HW1   74   2.104   2.967   2.690 -0.1369 -0.8274 -0.6684
   25SOL    HW2   75   1.982   3.058   2.771 -2.9956 -0.1862  1.5999
   26SOL     OW   76   1.620   2.563   0.091  0.2823  0.2201  0.2491
   26SOL    HW1   77   1.560   2.635   0.055  1.4665 -0.4409 -1.4954
   26SOL    HW2   78   1.566   2.507   0.154  0.8167 -1.5051 -0.9425
   27SOL     OW   79   1.342   0.508   1.118  0.0108 -0.1489 -0.6189
   27SOL    HW1   80   1.292   0.449   1.054  1.1408 -1.6694 -2.7541
   27SOL    HW2   81   1.285   0.533   1.199  1.1885 -2.2344 -0.6184
   28SOL     OW   82   0.863   1.461   0.481  0.3060  0.1721 -0.6194
   28SOL    HW1   83   0.807   1.533   0.527 -0.6261 -2.8748 -0.3499
   28SOL    HW2   84   0.894   1.385   0.543 -0.9540 -2.0753  1.0250
   29SOL     OW   85   2.729   0.376   1.679  0.2675 -0.2866  0.1797
   29SOL    HW1   86   2.663   0.338   1.750  2.0308 -1.5560  0.8236
   29SOL    HW2   87   2.691   0.463   1.635 -0.7524  2.1158  0.5835
   30SOL     OW   88   1.229   2.765   1.476 -0.0398  0.6602 -0.0699
   30SOL    HW1   89   1.203   2.855   1.519 -0.8994 -0.1135 -1.8846
   30SOL    HW2   90   1.170   2.690   1.513 -0.8439  2.0782 -1.2315
   31SOL     OW   91   1.855   2.951   1.623 -0.1611  0.0586 -0.2758
   31SOL    HW1   92   1.882   2.951   1.722 -0.9834  0.0334  1.3712
   31SOL    HW2   93   1.902   2.870   1.575  0.4987 -0.6921  0.1241
   32SOL     OW   94   1.547   1.868   2.867  0.3912 -0.2091  0.0562
   32SOL    HW1   95   1.568   1.778   2.902  0.6785  1.4728 -2.5753
   32SOL    HW2   96   1.514   1.868   2.770 -1.8204 -1.0329  1.2137
   33SOL     OW   97   2.762   0.820   2.669  0.0947  0.4567 -0.4220
   33SOL    HW1   98   2.747   0.791   2.573  1.8630 -1.6705  0.5868
   33SOL    HW2   99   2.677   0.855   2.713 -2.1683 -1.9812  1.4914
   34SOL     OW  100   1.978   0.534   0.502  0.3439 -0.0762  0.0763
   34SOL    HW1  101   1.916   0.540   0.582 -1.9576 -0.4845  2.4572
   34SOL    HW2  102   1.931   0.553   0.417  0.4279 -0.8238  1.5763
   35SOL     OW  103   2.988   2.076   2.250  0.0838 -0.2519  0.2293
   35SOL    HW1  104   2.914   2.015   2.286 -2.2084  2.4170  1.7441
   35SOL    HW2  105   2.974   2.172   2.289 -0.1176  0.3308  1.2098
   36SOL     OW  106   2.262   1.892   2.974 -0.3160 -0.5671 -0.4979
   36SOL    HW1  107   2.236   1.874   2.880  1.4737  0.7766  2.4321
   36SOL    HW2  108   2.291   1.989   2.989 -0.9430 -1.3587  1.9786
   37SOL     OW  109   1.834   0.367   1.354  0.1102  0.4818 -0.0881
   37SOL    HW1  110   1.862   0.442   1.298 -0.1769 -3.2404  0.3263
   37SOL    HW2  111   1.911   0.333   1.413 -1.2016 -0.2801  1.0263
   38SOL     OW  112   0.355   0.279   2.750 -0.2556  0.1885  0.0926
   38SOL    HW1  113   0.385   0.365   2.703  0.5184 -0.0515  0.8738
   38SOL    HW2  114   0.434   0.208   2.752  2.9619 -3.4547  1.6338
   39SOL     OW  115   1.809   1.269   1.762  0.0395  0.1136 -0.5565
   39SOL    HW1  116   1.754   1.323   1.695 -0.7717 -2.0265  0.8134
   39SOL    HW2  117   1.862   1.199   1.714  1.3741 -0.9959  2.4343
   40SOL     OW  118   1.242   1.873   0.972  0.3451  0.1274  0.3379
   40SOL    HW1  119   1.173   1.806   1.016 -1.1299  0.6649  1.4994
   40SOL    HW2  120   1.319   1.811   0.936  2.8286 -1.1687  2.1667
   41SOL     OW  121   1.982   1.776   0.882 -0.2827  0.2533  0.1979
   41SOL    HW1  122   1.937   1.757   0.974  0.4056 -0.0054  1.2672
   41SOL    HW2  123   1.993   1.686   0.830  0.4631  1.0152  1.9728
   42SOL     OW  124   2.891   0.598   1.078 -0.2448  0.2411  0.2949
   42SOL    HW1  125   2.985   0.606   1.111 -0.8064 -0.1524  3.4444
   42SOL    HW2  126   2.830   0.644   1.145  0.8269  0.0896 -3.1793
   43SOL     OW  127   0.476   1.915   2.938  0.5683  0.8178 -0.3775
   43SOL    HW1  128   0.448   1.938   3.038 -1.2178 -0.3556  0.4937
   43SOL    HW2  129   0.522   1.822   2.944  2.2593 -2.6289 -1.6009
   44SOL     OW  130   1.564   2.440   1.520  0.6782 -0.0984 -0.0863
   44SOL    HW1  131   1.507   2.498   1.585 -0.1757 -0.3658 -0.4773
   44SOL    HW2  132   1.597   2.502   1.439 -1.3398  0.5180  0.3640
   45SOL     OW  133   0.939   3.031   2.707 -0.5192 -0.4602  0.1360
   45SOL    HW1  134   0.968   2.974   2.633  0.9744 -0.3443  3.8264
   45SOL    HW2  135   0.888   3.109   2.668  0.4967  1.2244 -1.0650
   46SOL     OW  136   0.745   2.439   2.250 -0.2245 -0.1474  0.0372
   46SOL    HW1  137   0.798   2.428   2.161  1.8461 -1.1430 -1.3361
   46SOL    HW2  138   0.707   2.533   2.268  2.7664 -1.3033 -0.9278
   47SOL     OW  139   0.974   2.112   1.185  0.0299  0.4462 -0.1115
   47SOL    HW1  140   0.948   2.147   1.276 -2.0684  0.0164 -0.9885
   47SOL    HW2  141   0.908   2.039   1.159 -2.9611 -3.9669 -0.3066
   48SOL     OW  142   0.834   2.256   1.409 -0.0015 -0.1113 -0.4490
   48SOL    HW1  143   0.777   2.321   1.355  0.6949  2.3922 -1.4081
   48SOL    HW2  144   0.782   2.180   1.451  0.0088  1.4017  0.0910
   49SOL     OW  145   2.599   0.037   0.183  0.4657 -0.4211  0.3708
   49SOL    HW1  146   2.570   0.124   0.222  0.7615 -2.8067 -1.9374
   49SOL    HW2  147   2.686   0.041   0.129  0.1097 -0.4898 -0.3958
   50SOL     OW  148   1.872   0.606   0.249 -0.0873 -0.1201  0.7232
   50SOL    HW1  149   1.919   0.638   0.165 -0.9053 -0.7737  2.5098
   50SOL    HW2  150   1.821   0.678   0.294  0.1180  1.3640 -0.8046
   51SOL     OW  151   1.896   0.851   1.016 -0.2269 -0.0421  0.1681
   51SOL    HW1  152   1.995   0.874   0.995 -0.5494 -1.6065  1.9916
   51SOL    HW2  153   1.891   0.776   1.084  1.3878  0.4069  0.3756
   52SOL     OW  154   0.534   1.669   0.193 -0.4288  0.1010  0.1271
   52SOL    HW1  155   0.559   1.669   0.097  0.7474  0.0508  3.6811
   52SOL    HW2  156   0.516   1.570   0.228  1.9983 -3.1928 -0.4134
   53SOL     OW  157   0.298   1.640   3.038  0.2392  0.1180  0.1376
   53SOL    HW1  158   0.401   1.637   3.053  1.4031  1.7233  0.3543
   53SOL    HW2  159   0.266   1.673   2.945 -0.1196  0.1914  0.4369
   54SOL     OW  160   2.499   1.270   2.140 -0.4089 -0.0251 -0.3293
   54SOL    HW1  161   2.511   1.323   2.224 -1.0970  2.0066 -0.9471
   54SOL    HW2  162   2.487   1.331   2.058 -1.5199 -1.0847  1.3724
   55SOL     OW  163   2.583   1.926   0.725  0.3446  0.2613 -0.3064
   55SOL    HW1  164   2.508   1.973   0.670  0.2042 -0.7129 -0.5812
   55SOL    HW2  165   2.558   1.925   0.821 -0.9489  0.3826 -3.3764
   56SOL     OW  166   1.812   3.038   1.197 -0.3848 -0.4304  0.8329
   56SOL    HW1  167   1.860   0.009   1.183 -0.9371  0.0589  0.5975
   56SOL    HW2  168   1.892   2.974   1.213 -2.7862 -1.6217  1.3710
   57SOL     OW  169   1.575   1.281   0.232 -0.1990  0.3032  0.1014
   57SOL    HW1  170   1.618   1.222   0.158  3.3372 -1.7951 -3.1138
   57SOL    HW2  171   1.569   1.243   0.325  0.0510  0.2707 -0.6627
   58SOL     OW  172   2.049   0.287   1.489 -0.0767  0.4955 -0.0169
   58SOL    HW1  173   2.133   0.316   1.441  1.8435 -0.6212  0.7762
   58SOL    HW2  174   2.050   0.313   1.586  0.0934  1.1268 -1.1656
   59SOL     OW  175   1.369   2.673   2.731  0.3498  0.1004 -0.8303
   59SOL    HW1  176   1.431   2.727   2.671  2.1045 -2.6841 -2.9438
   59SOL    HW2  177   1.315   2.606   2.677  0.0921  0.1094 -0.1098
   60SOL     OW  178   3.030   2.594   2.773 -0.4581  0.2459  0.2036
   60SOL    HW1  179   3.005   2.571   2.868  0.3397  1.1467 -0.5678
   60SOL    HW2  180   2.955   2.600   2.706  1.9591 -0.1270 -2.9977
   61SOL     OW  181   0.705   2.424   1.234 -0.3539 -0.3698 -0.4532
   61SOL    HW1  182   0.805   2.454   1.224 -0.3859  0.4120  1.3698
   61SOL    HW2  183   0.671   2.395   1.140 -0.6444  1.1952 -0.7242
   62SOL     OW  184   1.673   1.901   2.314 -0.0551  0.6309 -0.2362
   62SOL    HW1  185   1.636   1.834   2.250 -3.5812 -1.8101 -0.7890
   62SOL    HW2  186   1.769   1.882   2.344  0.0511 -0.2398 -1.6514
   63SOL     OW  187   1.652   1.740   0.044  0.0521 -0.5019 -0.2814
   63SOL    HW1  188   1.681   1.831   0.086  0.1229  1.0012  0.2653
   63SOL    HW2  189   1.664   1.663   0.110 -2.4943 -0.2242 -0.2559
   64SOL     OW  190   1.917   1.217   0.133 -0.2513 -0.2700 -0.2770
   64SOL    HW1  191   1.856   1.263   0.064  0.0005  0.2135  1.3911
   64SOL    HW2  192   1.877   1.228   0.228 -1.5678  0.0035  1.7422
   65SOL     OW  193   2.359   2.272   1.822 -0.0077 -0.4823 -0.0750
   65SOL    HW1  194   2.303   2.294   1.903  1.0131  1.0571 -1.7309
   65SOL    HW2  195   2.302   2.285   1.734 -1.5787 -0.1383 -0.0552
   66SOL     OW  196   0.396   0.913   1.580 -0.2009  0.3226  0.6333
   66SOL    HW1  197   0.439   0.888   1.492  1.4945  0.8014 -0.2924
   66SOL    HW2  198   0.416   1.011   1.600  0.4149 -0.4986 -0.8929
   67SOL     OW  199   2.499   2.986   0.010  0.1048 -0.2306  0.1120
   67SOL    HW1  200   2.399   2.975   3.120  0.3226  0.4177  1.6351
   67SOL    HW2  201   2.519   3.054   0.079  0.3232 -3.0549 -1.2890
   68SOL     OW  202   1.756   2.218   0.959  0.0712 -0.0561 -0.1358
   68SOL    HW1  203   1.803   2.264   0.882  2.1427 -1.9304 -0.4482
   68SOL    HW2  204   1.685   2.279   1.001 -1.1899 -0.5621  2.6856
   69SOL     OW  205   2.835   2.172   3.105  0.2430  0.0948 -0.2267
   69SOL    HW1  206   2.796   2.105   0.051  0.4513  0.8818 -0.1102
   69SOL    HW2  207   2.884   2.241   0.039  0.1062 -0.2825 -1.4304
   70SOL     OW  208   0.011   1.037   2.041 -0.0492  0.4986 -0.1459
   70SOL    HW1  209   0.081   1.093   2.000 -1.6959  0.2545  0.1548
   70SOL    HW2  210   3.063   1.101   2.084 -1.8053 -0.2154  0.5639
   71SOL     OW  211   0.979   1.089   2.496  0.3619 -0.2654  0.0118
   71SOL    HW1  212   0.884   1.128   2.481 -1.8041  2.6532  1.1216
   71SOL    HW2  213   0.978   0.986   2.502 -1.1387 -1.1568 -0.4790
   72SOL     OW  214   2.701   1.493   2.336  0.1636  0.2259 -0.2528
   72SOL    HW1  215   2.634   1.564   2.321  2.3310 -0.0640  0.5208
   72SOL    HW2  216   2.749   1.470   2.245  0.7535  0.8455 -1.9221
   73SOL     OW  217   1.195   2.013   3.083  0.5227  0.1788 -1.2823
   73SOL    HW1  218   1.245   2.096   3.049  0.5863  1.5851  0.2661
   73SOL    HW2  219   1.118   2.035   0.028 -0.5943  1.1080  1.2418
   74SOL     OW  220   2.038   3.064   2.425  0.0554 -0.6630  0.0910
   74SOL    HW1  221   2.008   3.027   2.517  2.4691  1.6871  2.1287
   74SOL    HW2  222   2.020   0.043   2.423 -0.1873  1.1138  1.6507
   75SOL     OW  223   1.504   2.332   0.738  0.2712 -0.3867  0.4338
   75SOL    HW1  224   1.489   2.397   0.817 -1.6987  2.9568  0.2540
   75SOL    HW2  225   1.580   2.268   0.758 -1.8826 -1.0851  0.1287
   76SOL     OW  226   2.885   1.611   2.758 -0.2615 -0.3828  0.2827
   76SOL    HW1  227   2.819   1.611   2.838 -0.9784 -1.7746 -0.8371
   76SOL    HW2  228   2.962   1.546   2.781 -0.2079 -0.2561 -0.4755
   77SOL     OW  229   0.067   2.562   1.773  0.5489  0.5125 -0.2381
   77SOL    HW1  230   0.035   2.561   1.869 -0.1819 -1.9867 -2.6365
   77SOL    HW2  231   0.030   2.638   1.718 -0.2396 -2.7476 -0.0310
   78SOL     OW  232   2.358   1.033   0.200 -0.9100 -0.2173 -0.1921
   78SOL    HW1  233   2.311   0.947   0.163  0.8238 -0.1823  2.5693
   78SOL    HW2  234   2.287   1.108   0.212 -0.6612 -0.5338 -1.0550
   79SOL     OW  235   0.329   1.508   2.639 -0.2492  0.7915 -0.0753
   79SOL    HW1  236   0.269   1.560   2.573  2.0244 -0.1566  1.9603
   79SOL    HW2  237   0.272   1.430   2.676  1.3633 -1.0720 -1.6860
   80SOL     OW  238   1.907   1.714   2.109 -0.0814 -0.1538  0.5539
   80SOL    HW1  239   1.989   1.730   2.166 -3.9081 -0.2719  0.1988
   80SOL    HW2  240   1.910   1.617   2.070 -1.0978 -0.1761  0.3619
   81SOL     OW  241   2.046   1.456   2.087  0.1510 -0.4232  0.2199
   81SOL    HW1  242   2.073   1.373   2.037  1.1153  0.1508 -2.9737
   81SOL    HW2  243   2.124   1.490   2.145  1.7240  1.1810  0.9421
   82SOL     OW  244   1.520   1.597   1.939  0.6929  0.2848  0.2204
   82SOL    HW1  245   1.453   1.585   1.862  0.5273  1.0276 -0.2771
   82SOL    HW2  246   1.559   1.509   1.962 -0.7935  4.4569 -3.3908
   83SOL     OW  247   0.059   0.334   0.113  0.2952 -0.3202  0.3411
   83SOL    HW1  248   0.038   0.241   0.145  0.3825  0.5894  0.8804
   83SOL    HW2  249   3.098   0.390   0.100  1.4321 -0.2101 -0.1879
   84SOL     OW  250   0.189   0.423   0.373 -0.2375 -0.3907  0.4949
   84SOL    HW1  251   0.166   0.440   0.274 -1.5019  0.0411  1.8778
   84SOL    HW2  252   0.206   0.511   0.426 -2.5943 -0.2628  3.8605
   85SOL     OW  253   2.191   2.135   1.187  0.8590  1.0996  0.2785
   85SOL    HW1  254   2.094   2.153   1.169 -0.4697 -2.1409 -1.7691
   85SOL    HW2  255   2.221   2.202   1.252 -1.2923 -3.4647  2.0312
   86SOL     OW  256   0.348   0.399   1.284  0.4171 -0.0068 -0.3763
   86SOL    HW1  257   0.393   0.463   1.216  1.4843  1.6073 -0.5795
   86SOL    HW2  258   0.412   0.335   1.332  1.6596 -0.7865  2.8696
   87SOL     OW  259   0.002   2.031   2.023  0.2580 -0.3807  0.4548
   87SOL    HW1  260   3.070   2.052   2.101  0.6742  0.6645  0.4143
   87SOL    HW2  261   0.071   2.105   2.020 -0.0721  1.8538 -0.1122
   88SOL     OW  262   0.180   2.145   3.038  0.2107  0.0168  1.2318
   88SOL    HW1  263   0.242   2.206   2.979  0.6978  0.7484  0.4693
   88SOL    HW2  264   0.127   2.081   2.980  1.5818 -0.1174 -1.3596
   89SOL     OW  265   1.165   0.783   0.229  0.6914  0.3342  0.1622
   89SOL    HW1  266   1.228   0.774   0.152  0.4623  1.6946 -0.3261
   89SOL    HW2  267   1.098   0.861   0.210 -0.4176 -1.7157  1.9624
   90SOL     OW  268   0.068   1.418   2.319  0.3545 -0.1067  0.1525
   90SOL    HW1  269   0.081   1.509   2.362 -0.7541  1.2699 -2.3618
   90SOL    HW2  270   0.043   1.353   2.390 -0.4448  0.4381 -1.9932
   91SOL     OW  271   1.938   0.149   1.157 -0.2087  0.4136 -0.3648
   91SOL    HW1  272   1.917   0.240   1.194  0.8487  2.6647 -1.8414
   91SOL    HW2  273   2.018   0.147   1.095  0.1500 -0.2142 -1.1837
   92SOL     OW  274   2.467   1.285   1.311 -0.2979  0.1719  0.4225
   92SOL    HW1  275   2.472   1.336   1.219  1.0075  0.9548 -0.5692
   92SOL    HW2  276   2.507   1.343   1.384  0.0810  0.8226  1.2283
   93SOL     OW  277   0.310   1.252   2.960 -0.1819  0.4539 -0.2947
   93SOL    HW1  278   0.364   1.239   3.048  1.5726  0.1117  3.4676
   93SOL    HW2  279   0.384   1.267   2.891  1.7085 -0.2627 -2.5460
   94SOL     OW  280   1.441   2.494   2.142 -0.1536  0.4878 -0.1633
   94SOL    HW1  281   1.417   2.405   2.188 -0.2522  0.5578  1.0544
   94SOL    HW2  282   1.504   2.478   2.061  0.9466 -0.2214  1.5478
   95SOL     OW  283   0.468   0.602   1.154 -0.6891 -0.8295  0.0459
   95SOL    HW1  284   0.537   0.599   1.081 -1.1945  0.1965  1.1584
   95SOL    HW2  285   0.379   0.629   1.113 -1.5639  1.7188  0.5340
   96SOL     OW  286   2.641   2.990   1.373  0.1129  0.6176 -0.0376
   96SOL    HW1  287   2.609   2.902   1.324 -0.8336 -0.5670 -0.2488
   96SOL    HW2  288   2.735   2.971   1.394 -0.6920 -0.5209 -2.7988
   97SOL     OW  289   2.538   0.594   1.609 -0.1846 -0.6664  0.2865
   97SOL    HW1  290   2.501   0.675   1.560  2.0529 -0.4332  0.7978
   97SOL    HW2  291   2.533   0.607   1.711 -0.7642  1.7906  0.6956
   98SOL     OW  292   2.277   2.770   1.287  0.5123 -0.0162  0.4389
   98SOL    HW1  293   2.331   2.742   1.367 -0.5888 -1.2976  0.1953
   98SOL    HW2  294   2.328   2.783   1.198 -1.2422  1.2780  0.3238
   99SOL     OW  295   0.559   2.976   1.478 -0.5512 -0.3491  0.3899
   99SOL    HW1  296   0.514   3.067   1.501 -0.5039  3.8562 -0.8772
   99SOL    HW2  297   0.591   2.981   1.381  0.4060 -1.8028 -1.6163
  100SOL     OW  298   2.085   0.274   2.243 -0.7344 -0.2118 -0.2142
  100SOL    HW1  299   2.072   0.377   2.230 -0.8937 -0.5470 -2.7054
  100SOL    HW2  300   2.153   0.255   2.318 -0.3774 -2.5937  0.1923
  101SOL     OW  301   3.013   0.045   2.366 -0.3225 -0.1420  0.2582
  101SOL    HW1  302   3.035   3.066   2.392  0.7133 -3.1000  0.3286
  101SOL    HW2  303   3.075   0.118   2.406  1.0817  3.1984  1.9096
  102SOL     OW  304   0.663   0.477   1.648  0.1790  0.6391 -0.0348
  102SOL    HW1  305   0.644   0.404   1.577  2.0124  0.8798 -2.0785
  102SOL    HW2  306   0.659   0.436   1.746 -1.3468 -2.6287  1.2811
  103SOL     OW  307   0.876   0.747   2.769 -0.2343 -0.1896 -0.2511
  103SOL    HW1  308   0.948   0.669   2.777  0.1508 -4.1288  1.4991
  103SOL    HW2  309   0.905   0.832   2.820  0.5848  1.7248 -0.2379
  104SOL     OW  310   0.003   0.568   2.238  0.1032 -0.3775 -0.8165
  104SOL    HW1  311   0.097   0.554   2.274 -1.9247 -1.9373 -0.5185
  104SOL    HW2  312   0.002   0.644   2.174  1.4824 -0.8044  1.0382
  105SOL     OW  313   2.579   2.117   1.236  0.0201 -0.3185 -0.4355
  105SOL    HW1  314   2.585   2.181   1.316 -0.4154 -0.1280  0.2957
  105SOL    HW2  315   2.531   2.166   1.156  0.0163  1.0745 -2.7315
  106SOL     OW  316   1.892   0.258   0.311  0.9348  0.1962 -0.4815
  106SOL    HW1  317   1.932   0.329   0.368  1.2750 -1.5480 -1.7925
  106SOL    HW2  318   1.816   0.301   0.257  1.7317  0.4729  2.4249
  107SOL     OW  319   1.873   2.347   0.748 -0.2159  0.7337  0.2017
  107SOL    HW1  320   1.856   2.446   0.728 -1.5651 -0.0444 -0.1188
  107SOL    HW2  321   1.869   2.294   0.658 -2.7264 -0.6850  0.0896
  108SOL     OW  322   0.169   2.249   1.261  0.0254 -0.6310 -0.2083
  108SOL    HW1  323   0.093   2.208   1.202 -1.1800  1.9468 -1.9175
  108SOL    HW2  324   0.185   2.344   1.223 -2.4850  1.2591  0.2341
  109SOL     OW  325   1.840   2.603   0.729 -0.3129  0.2946 -0.4823
  109SOL    HW1  326   1.790   2.652   0.654  0.5416  1.3671 -0.1103
  109SOL    HW2  327   1.806   2.635   0.820 -0.2675 -1.5518  0.0145
  110SOL     OW  328   1.318   1.599   1.752 -0.1345  0.0988 -0.1970
  110SOL    HW1  329   1.272   1.673   1.802 -2.2321  0.4089 -2.1786
  110SOL    HW2  330   1.254   1.540   1.701  1.7739 -1.0035  2.3146
  111SOL     OW  331   1.848   2.460   1.883  0.1528  0.7034 -0.0869
  111SOL    HW1  332   1.854   2.403   1.797  1.2758  1.8290 -0.6763
  111SOL    HW2  333   1.873   2.558   1.859 -0.1216  0.3970  1.2431
  112SOL     OW  334   1.808   2.151   3.004  0.2210 -0.4430 -0.4842
  112SOL    HW1  335   1.707   2.146   3.002 -0.0111  0.4288  1.5528
  112SOL    HW2  336   1.836   2.241   3.034 -2.8410 -0.0243 -1.5917
  113SOL     OW  337   2.047   2.086   1.559 -0.2517  0.3137  0.4352
  113SOL    HW1  338   2.106   2.002   1.569  2.3361 -1.2471 -1.2613
  113SOL    HW2  339   1.954   2.067   1.535  0.4155  0.8735  1.5097
  114SOL     OW  340   3.042   1.399   1.465  0.4460  0.5928  0.0622
  114SOL    HW1  341   0.021   1.421   1.445  3.2069  0.9869 -3.3082
  114SOL    HW2  342   3.025   1.299   1.442  2.4624 -0.2012 -1.9310
  115SOL     OW  343   0.269   0.721   0.429  0.2356  0.2931  0.1889
  115SOL    HW1  344   0.187   0.759   0.480 -2.7454 -0.3793  4.0346
  115SOL    HW2  345   0.339   0.690   0.494 -0.5569  1.0805 -0.5331
  116SOL     OW  346   2.706   1.202   2.667  0.0617  0.2968 -0.1588
  116SOL    HW1  347   2.643   1.282   2.651 -0.7429  0.5749 -0.1766
  116SOL    HW2  348   2.761   1.227   2.750 -1.8001  1.3205  2.9102
  117SOL     OW  349   2.981   2.619   0.372 -0.5984  0.0533 -0.0679
  117SOL    HW1  350   2.903   2.657   0.317  0.4761  0.2507 -1.7070
  117SOL    HW2  351   2.935   2.585   0.455  0.1876  2.5687  1.7394
  118SOL     OW  352   0.623   2.139   2.875 -0.2628  0.2689 -0.4932
  118SOL    HW1  353   0.574   2.207   2.814 -0.8731  1.0624 -1.9366
  118SOL    HW2  354   0.568   2.058   2.904 -2.0978 -1.4469  1.0356
  119SOL     OW  355   0.535   2.200   0.702  0.2585  0.2791 -0.6977
  119SOL    HW1  356   0.575   2.163   0.616 -2.4404 -1.3605 -3.3893
  119SOL    HW2  357   0.467   2.135   0.745  3.1200  2.4324 -0.7178
  120SOL     OW  358   1.380   0.378   0.460  0.8066  0.2732  0.3717
  120SOL    HW1  359   1.416   0.428   0.379  0.2106 -0.5960  0.5585
  120SOL    HW2  360   1.312   0.299   0.446  0.0000  0.6770  2.4239
  121SOL     OW  361   1.439   2.517   0.938  0.7594 -0.0736  0.1851
  121SOL    HW1  362   1.453   2.608   0.971  2.0560 -0.3714 -1.1513
  121SOL    HW2  363   1.359   2.472   0.983  0.1609 -0.7675  0.8046
  122SOL     OW  364   2.724   2.113   1.882  0.9458  0.9389 -0.1065
  122SOL    HW1  365   2.742   2.188   1.945 -0.6625 -0.7223 -2.4270
  122SOL    HW2  366   2.812   2.068   1.854  0.4166  0.3059  0.9313
  123SOL     OW  367   0.880   1.512   0.876  0.1394  0.0715  0.3826
  123SOL    HW1  368   0.800   1.572   0.901  0.1034  1.2379 -1.5271
  123SOL    HW2  369   0.947   1.561   0.814 -0.1619  2.2148  1.4241
  124SOL     OW  370   0.031   0.519   2.998 -0.1759  0.3171 -0.0425
  124SOL    HW1  371   0.015   0.470   3.081  1.0722  1.1700 -1.5405
  124SOL    HW2  372   0.059   0.450   2.930  0.7757 -1.6993  1.6127
  125SOL     OW  373   0.334   0.269   0.077  0.1233  0.3524 -0.0398
  125SOL    HW1  374   0.240   0.300   0.063 -0.6659  0.3081 -1.4582
  125SOL    HW2  375   0.363   0.197   0.007  0.6099 -2.5035 -1.0381
  126SOL     OW  376   0.075   1.452   0.573  0.1417 -0.1759  0.4151
  126SOL    HW1  377   0.110   1.482   0.480 -0.2675  2.1884  0.2503
  126SOL    HW2  378   0.019   1.524   0.615 -1.5633 -0.8429 -0.2980
  127SOL     OW  379   1.045   2.579   1.613 -0.5993 -0.5987  0.0755
  127SOL    HW1  380   0.956   2.620   1.589  1.9013  0.7074 -0.2817
  127SOL    HW2  381   1.062   2.494   1.562 -1.0987  0.2617  2.9723
  128SOL     OW  382   1.151   1.580   0.109 -0.3890  0.3870  0.0596
  128SOL    HW1  383   1.250   1.606   0.099  1.1692  0.6974 -4.0907
  128SOL    HW2  384   1.096   1.615   0.033 -0.4022 -1.4463 -0.5365
  129SOL     OW  385   1.888   2.212   1.192  0.1374  0.1355  0.2969
  129SOL    HW1  386   1.854   2.219   1.095  2.2931  0.4734  1.4496
  129SOL    HW2  387   1.849   2.129   1.236  2.0459 -2.1651 -2.8177
  130SOL     OW  388   2.180   2.312   1.606  0.4900  0.5478  0.3719
  130SOL    HW1  389   2.143   2.216   1.605  1.2840 -0.9761  1.3373
  130SOL    HW2  390   2.108   2.381   1.601  0.3429  0.2278  2.5383
  131SOL     OW  391   2.692   2.336   2.511  0.5739  0.1339  0.4346
  131SOL    HW1  392   2.629   2.403   2.563  0.7032 -0.4580  1.4291
  131SOL    HW2  393   2.691   2.237   2.540  1.0206 -0.8321 -2.6848
  132SOL     OW  394   3.007   2.306   0.685  0.2959  0.3143  0.0592
  132SOL    HW1  395   3.066   2.341   0.763 -0.8850 -1.1391  0.3940
  132SOL    HW2  396   2.937   2.239   0.716 -0.7469  0.6700 -1.2173
  133SOL     OW  397   0.641   0.381   1.895  0.1761  0.1999  0.1983
  133SOL    HW1  398   0.707   0.445   1.930 -1.3505 -3.4211 -0.1078
  133SOL    HW2  399   0.561   0.367   1.957  0.2235 -0.3669 -0.3949
  134SOL     OW  400   2.973   1.650   0.202  1.2051  0.3521  0.2208
  134SOL    HW1  401   3.072   1.618   0.214  1.4351  0.5570 -0.7285
  134SOL    HW2  402   2.976   1.715   0.121  0.8983  0.3263 -1.8352
  135SOL     OW  403   1.644   1.332   2.681  0.0718  0.1941 -0.5369
  135SOL    HW1  404   1.691   1.278   2.754  0.8295  2.1190  1.5969
  135SOL    HW2  405   1.553   1.299   2.663  0.2923 -1.5187 -2.9267
  136SOL     OW  406   2.548   1.689   1.120  0.1212 -0.3082 -0.5556
  136SOL    HW1  407   2.620   1.752   1.153 -3.9171 -1.7484  1.0409
  136SOL    HW2  408   2.582   1.599   1.101 -1.8058  1.3827 -1.2119
  137SOL     OW  409   2.729   1.507   0.973  0.1356  0.8311 -0.1129
  137SOL    HW1  410   2.825   1.539   0.980  0.2438 -1.6708  0.6017
  137SOL    HW2  411   2.694   1.519   0.881  1.9989  0.1317  1.2197
  138SOL     OW  412   2.790   0.438   0.673 -0.4393 -0.2640  0.1073
  138SOL    HW1  413   2.820   0.343   0.701  4.0496  0.3153 -1.6163
  138SOL    HW2  414   2.758   0.498   0.748 -0.5864  1.8859  2.3167
  139SOL     OW  415   3.115   2.780   0.048  0.1213 -0.3665  0.1748
  139SOL    HW1  416   3.086   2.848   3.099 -0.3676 -0.5987 -1.2664
  139SOL    HW2  417   0.057   2.815   0.121  2.1652  0.0035  0.7308
  140SOL     OW  418   0.604   1.651   1.639  0.3464  0.3478  0.0509
  140SOL    HW1  419   0.647   1.602   1.716  0.9671  0.8893 -1.1335
  140SOL    HW2  420   0.645   1.741   1.618 -2.4902  1.0299  0.3195
  141SOL     OW  421   1.425   1.710   0.892  0.1017 -0.0058  0.3436
  141SOL    HW1  422   1.419   1.625   0.834  2.7252 -1.5780 -2.6403
  141SOL    HW2  423   1.493   1.781   0.861  0.9347  0.9239  1.5748
  142SOL     OW  424   1.067   0.523   0.984 -0.0144 -0.1164  0.2877
  142SOL    HW1  425   1.046   0.430   0.947  2.7629 -0.8870 -1.3996
  142SOL    HW2  426   1.008   0.559   1.058 -0.2059  1.7212  1.7296
  143SOL     OW  427   0.791   1.479   2.688 -0.0026  0.2099 -0.1170
  143SOL    HW1  428   0.876   1.423   2.681  1.7254 -1.2742 -0.2791
  143SOL    HW2  429   0.740   1.452   2.770  2.3874  1.3786 -0.5693
  144SOL     OW  430   2.280   2.977   0.742  0.5015  0.3018 -0.4609
  144SOL    HW1  431   2.259   3.045   0.821 -1.0208  1.8959  2.0758
  144SOL    HW2  432   2.264   2.883   0.774  0.0546  1.3559  1.2549
  145SOL     OW  433   2.382   0.537   2.832  0.0326 -0.4097 -0.1726
  145SOL    HW1  434   2.331   0.447   2.819 -0.9385 -0.6112 -0.2393
  145SOL    HW2  435   2.479   0.521   2.814  0.3897  1.3724 -0.9810
  146SOL     OW  436   0.022   2.679   0.635 -0.0426  0.5096  0.2018
  146SOL    HW1  437   3.072   2.629   0.577 -1.8717 -0.7118  0.8762
  146SOL    HW2  438   3.102   2.759   0.683 -0.4848  0.1364 -0.5771
  147SOL     OW  439   1.035   1.346   2.624  0.6087 -0.3823 -0.0081
  147SOL    HW1  440   1.040   1.252   2.587  0.4367  1.0947  0.1285
  147SOL    HW2  441   1.082   1.411   2.562 -1.5333  0.2668 -0.8363
  148SOL     OW  442   1.457   0.229   2.688 -0.1741 -0.2666  0.0371
  148SOL    HW1  443   1.444   0.146   2.742 -2.2682  3.2576 -0.7025
  148SOL    HW2  444   1.505   0.213   2.599  2.2142 -0.6091 -0.8120
  149SOL     OW  445   1.918   0.094   2.106 -0.0791 -0.2680 -0.1887
  149SOL    HW1  446   1.995   0.025   2.109  1.6336  0.4416 -1.6751
  149SOL    HW2  447   1.932   0.173   2.170 -0.1847  0.7858 -2.6323
  150SOL     OW  448   2.686   2.764   3.108  0.0002 -0.1667 -0.7664
  150SOL    HW1  449   2.588   2.757   3.080  1.8526 -0.0001 -1.4194
  150SOL    HW2  450   2.725   2.845   3.062 -0.3855 -2.8008  2.8563
  151SOL     OW  451   0.576   1.648   3.023  0.0217  0.0797  0.5190
  151SOL    HW1  452   0.658   1.604   3.065  0.1191  1.4060 -0.0493
  151SOL    HW2  453   0.578   1.641   2.917 -1.0023  1.6027 -3.1198
  152SOL     OW  454   0.149   0.098   1.489  0.2199 -0.5252 -0.3839
  152SOL    HW1  455   0.251   0.079   1.487 -1.1257 -1.2023  1.0720
  152SOL    HW2  456   0.114   0.104   1.588 -0.2517 -0.2502 -1.2447
  153SOL     OW  457   2.515   0.020   1.596 -0.4445 -0.6439 -0.5161
  153SOL    HW1  458   2.586   0.000   1.527 -2.2847 -0.3638  1.7390
  153SOL    HW2  459   2.421   3.119   1.563  1.3978  1.0802  1.9271
  154SOL     OW  460   2.592   0.251   2.599 -0.1552  0.2381 -0.1554
  154SOL    HW1  461   2.627   0.330   2.648 -2.0456  1.7347 -1.9546
  154SOL    HW2  462   2.655   0.171   2.589  1.9002 -0.6779 -1.0259
  155SOL     OW  463   0.154   1.211   0.483 -0.5733  0.1030 -0.0112
  155SOL    HW1  464   0.175   1.130   0.542 -0.4467 -0.8890  0.1088
  155SOL    HW2  465   0.115   1.291   0.536  1.5272 -0.9819 -2.4141
  156SOL     OW  466   0.158   1.509   0.338  0.3851  0.5169 -0.2232
  156SOL    HW1  467   0.199   1.580   0.272  0.6249  1.7977 -1.1626
  156SOL    HW2  468   0.164   1.419   0.297 -1.9681  4.2059  2.9744
  157SOL     OW  469   0.624   0.039   0.770  0.3851 -0.4550  0.1384
  157SOL    HW1  470   0.576   3.110   0.695 -2.5145  0.1430 -0.5425
  157SOL    HW2  471   0.725   0.027   0.767  1.5179  1.1505  1.6385
  158SOL     OW  472   1.808   1.110   1.108  0.2219  0.1660 -0.4301
  158SOL    HW1  473   1.831   1.019   1.076 -2.3249  0.7429  1.3214
  158SOL    HW2  474   1.741   1.107   1.181  0.3984  1.5283  2.3579
  159SOL     OW  475   0.079   0.225   0.513 -0.1532 -0.2222 -1.0483
  159SOL    HW1  476   0.104   0.300   0.454 -1.4870 -1.7043  2.8886
  159SOL    HW2  477   0.159   0.161   0.521  1.9665  2.1487  0.1664
  160SOL     OW  478   2.292   2.338   1.354 -0.1975 -0.3240  0.1491
  160SOL    HW1  479   2.233   2.348   1.441  0.2232 -1.7577  0.6769
  160SOL    HW2  480   2.258   2.407   1.283 -1.9827  2.4301 -1.1288
  161SOL     OW  481   0.006   0.770   2.907  0.6404 -0.2599 -0.1143
  161SOL    HW1  482   0.010   0.686   2.969 -0.6336  2.2243  2.1103
  161SOL    HW2  483   0.037   0.852   2.954  0.8068  2.2173  0.6603
  162SOL     OW  484   0.674   0.051   1.870 -0.2238  0.1305  0.2923
  162SOL    HW1  485   0.773   0.064   1.890 -1.3509 -2.2454  2.6277
  162SOL    HW2  486   0.626   0.141   1.849 -2.6614  0.6966 -2.6302
  163SOL     OW  487   2.788   0.069   2.512 -0.0903 -0.0681  0.5685
  163SOL    HW1  488   2.754   3.096   2.528  4.9881  1.7696  0.8742
  163SOL    HW2  489   2.869   0.071   2.451 -0.5061 -0.3587  0.2255
  164SOL     OW  490   1.911   1.786   0.330  0.2501 -0.3846  1.0735
  164SOL    HW1  491   1.868   1.861   0.279  1.8316  0.9109  0.8777
  164SOL    HW2  492   2.014   1.798   0.336 -2.3525 -2.4146  1.1542
  165SOL     OW  493   0.168   0.388   1.489  0.0267  0.8168  0.0632
  165SOL    HW1  494   0.238   0.420   1.422 -1.1574 -0.8601 -2.0885
  165SOL    HW2  495   0.156   0.286   1.484  0.2398  0.0840 -0.7442
  166SOL     OW  496   1.931   0.934   0.444 -0.5239  0.1980  1.0105
  166SOL    HW1  497   1.905   1.030   0.414  0.0704 -0.3186 -1.1309
  166SOL    HW2  498   1.865   0.895   0.507  1.0409  0.4338  0.2182
  167SOL     OW  499   2.372   0.819   3.026 -0.0160 -0.0468  0.4114
  167SOL    HW1  500   2.428   0.784   3.105 -0.6959  2.1398  0.7518
  167SOL    HW2  501   2.294   0.755   3.002 -2.2354 -1.0064  0.5261
  168SOL     OW  502   1.675   2.993   2.436 -0.1078  0.1783  0.1317
  168SOL    HW1  503   1.637   2.904   2.473 -2.9419 -1.8465  2.0771
  168SOL    HW2  504   1.731   2.967   2.354  0.0191 -0.6463  2.0339
  169SOL     OW  505   0.637   1.651   0.909 -0.4887  0.3220 -0.2045
  169SOL    HW1  506   0.613   1.675   0.810 -1.3079 -0.1397  0.0632
  169SOL    HW2  507   0.557   1.637   0.970  0.0957  1.1237  0.9522
  170SOL     OW  508   2.899   0.960   1.255 -0.1297 -0.1875  0.2531
  170SOL    HW1  509   2.935   1.025   1.326  1.0278 -0.9868  1.5359
  170SOL    HW2  510   2.972   0.914   1.197 -1.8973  0.2224 -1.6228
  171SOL     OW  511   2.638   1.811   2.129 -0.1833 -0.3708  0.2219
  171SOL    HW1  512   2.698   1.764   2.064 -0.2305 -0.9874  0.1944
  171SOL    HW2  513   2.573   1.870   2.078 -0.0279  3.5694 -0.0625
  172SOL     OW  514   0.497   1.552   1.310  0.0652 -0.0668  0.1056
  172SOL    HW1  515   0.481   1.642   1.355  3.6093  0.6863  1.8568
  172SOL    HW2  516   0.421   1.489   1.329 -0.5680  1.1388 -0.4105
  173SOL     OW  517   1.910   1.790   2.786 -0.3934  0.1337 -0.1661
  173SOL    HW1  518   1.828   1.746   2.752  1.2231  2.5198 -1.0106
  173SOL    HW2  519   1.885   1.814   2.882 -1.0143 -1.0018  0.4946
  174SOL     OW  520   1.338   0.913   2.738  0.5521  0.0885 -0.5588
  174SOL    HW1  521   1.436   0.905   2.766 -0.1615 -0.6565 -0.3879
  174SOL    HW2  522   1.315   0.875   2.649 -2.0871  1.7108 -0.6659
  175SOL     OW  523   1.113   1.435   1.158  0.3317 -0.2674 -0.4752
  175SOL    HW1  524   1.174   1.481   1.228  0.1378  1.0979  0.0366
  175SOL    HW2  525   1.102   1.337   1.181  0.8699 -0.8975  0.3939
  176SOL     OW  526   1.207   0.180   0.398 -0.1682  0.2061 -0.2635
  176SOL    HW1  527   1.111   0.145   0.415 -4.3508 -2.8147 -0.2488
  176SOL    HW2  528   1.200   0.215   0.301 -1.1465  3.3574 -1.4961
  177SOL     OW  529   0.375   0.859   0.221 -0.1707  0.4553  0.2004
  177SOL    HW1  530   0.356   0.785   0.282 -0.2479  5.1182 -3.6633
  177SOL    HW2  531   0.423   0.924   0.271 -1.1704 -3.6009 -0.0575
  178SOL     OW  532   2.779   2.094   2.604  0.3012 -0.0846  0.2868
  178SOL    HW1  533   2.852   2.162   2.606  0.7564 -0.2658  1.0667
  178SOL    HW2  534   2.821   2.001   2.619  0.1699  0.8357 -1.9656
  179SOL     OW  535   2.719   2.908   2.510 -0.3277 -0.9066  0.2098
  179SOL    HW1  536   2.720   2.847   2.591 -1.7516 -0.8802 -3.0026
  179SOL    HW2  537   2.769   2.856   2.434  2.3143 -3.8509 -0.9158
  180SOL     OW  538   2.192   0.850   1.035 -0.6548 -0.1186 -0.1767
  180SOL    HW1  539   2.204   0.910   1.118 -3.0319  0.8626  1.8787
  180SOL    HW2  540   2.267   0.858   0.966  2.4153  1.3465  2.3287
  181SOL     OW  541   2.329   0.712   2.652 -0.0180  0.4267  0.1164
  181SOL    HW1  542   2.333   0.632   2.710 -2.6602  1.5594 -2.4392
  181SOL    HW2  543   2.343   0.687   2.553  0.4747  1.0416  1.0182
  182SOL     OW  544   3.030   2.355   1.912  0.1003 -0.2270  0.5825
  182SOL    HW1  545   3.036   2.439   1.974 -0.8407  1.8885  1.6865
  182SOL    HW2  546   0.003   2.328   1.886 -1.0713 -0.0444  2.0252
  183SOL     OW  547   2.024   0.743   1.988 -0.1538 -0.2762  0.3769
  183SOL    HW1  548   2.124   0.779   1.991  2.3741  1.2145  2.8741
  183SOL    HW2  549   1.964   0.819   1.955  0.0554  1.0355 -0.4162
  184SOL     OW  550   0.173   1.558   1.172 -0.1303 -0.6562 -0.2770
  184SOL    HW1  551   0.075   1.559   1.144  0.8859  1.8456 -1.2982
  184SOL    HW2  552   0.196   1.478   1.224 -0.6680  1.0846 -0.1323
  185SOL     OW  553   2.870   0.210   0.819  0.1467  0.1446 -0.5811
  185SOL    HW1  554   2.795   0.158   0.866 -1.2079 -2.5420  0.6269
  185SOL    HW2  555   2.926   0.265   0.884 -0.9994  0.3224 -0.5356
  186SOL     OW  556   2.308   2.543   2.568  0.4882 -0.3783 -0.4571
  186SOL    HW1  557   2.256   2.464   2.539  3.1079 -0.3824  1.4152
  186SOL    HW2  558   2.261   2.591   2.646 -1.8723 -1.8749  1.0590
  187SOL     OW  559   0.537   1.329   0.543 -0.1353  0.3731  0.2885
  187SOL    HW1  560   0.533   1.227   0.539 -0.5738 -0.6236 -0.3591
  187SOL    HW2  561   0.590   1.358   0.622  0.7770  0.8187 -3.4903
  188SOL     OW  562   2.012   1.325   1.049  0.0689  0.0325  0.0232
  188SOL    HW1  563   2.047   1.272   0.973 -0.1095  1.8801  0.1396
  188SOL    HW2  564   1.947   1.276   1.109  1.6736  0.3144 -0.9791
  189SOL     OW  565   0.041   1.082   2.729  0.3965  0.2442  0.2558
  189SOL    HW1  566   0.087   1.063   2.815 -1.6383 -1.5834  0.2799
  189SOL    HW2  567   3.068   1.048   2.725  2.4967  0.6199  1.6574
  190SOL     OW  568   2.356   0.585   2.416  0.0171 -0.2633 -0.1419
  190SOL    HW1  569   2.262   0.578   2.379 -0.2544 -1.5214 -0.0163
  190SOL    HW2  570   2.400   0.492   2.415 -0.0612 -1.1089 -0.3843
  191SOL     OW  571   1.079   0.049   2.277  0.5356  0.5454 -0.4391
  191SOL    HW1  572   1.087   0.142   2.233 -0.5574  1.9911 -3.7835
  191SOL    HW2  573   1.010   3.106   2.230 -1.5093  0.1546  0.1672
  192SOL     OW  574   0.813   1.890   1.714 -0.0891  0.0325  0.5775
  192SOL    HW1  575   0.902   1.839   1.717 -2.1647 -1.0994 -0.1771
  192SOL    HW2  576   0.798   1.949   1.796 -1.0422 -2.4275 -2.1090
  193SOL     OW  577   1.292   3.038   0.858 -0.2406 -0.2026 -0.4396
  193SOL    HW1  578   1.238   3.050   0.943  0.5026 -1.1177 -1.1789
  193SOL    HW2  579   1.254   2.967   0.789 -0.0897 -1.6878 -1.9249
  194SOL     OW  580   0.815   2.106   1.947 -0.1927  0.5356  0.2172
  194SOL    HW1  581   0.736   2.105   1.882  0.2771 -0.1921 -1.0628
  194SOL    HW2  582   0.881   2.169   1.901  1.9822  1.3967 -4.0547
  195SOL     OW  583   1.463   0.314   0.922 -0.3675  0.2851 -0.6689
  195SOL    HW1  584   1.532   0.246   0.939 -2.1421  1.2900 -0.8533
  195SOL    HW2  585   1.489   0.402   0.968  0.9607 -0.2178  1.0898
  196SOL     OW  586   1.134   1.578   2.016  0.8300 -0.6889 -0.0170
  196SOL    HW1  587   1.129   1.581   2.117 -0.1591  2.8732 -1.8532
  196SOL    HW2  588   1.195   1.651   1.980  1.8453 -0.2358  2.5244
  197SOL     OW  589   0.474   0.591   1.980  0.7320  0.1014 -0.1751
  197SOL    HW1  590   0.547   0.658   1.961 -1.3291 -0.9798 -1.9683
  197SOL    HW2  591   0.388   0.637   1.951  3.6543 -1.9368  2.5047
  198SOL     OW  592   0.752   0.489   0.781 -0.1925 -0.0539 -0.4835
  198SOL    HW1  593   0.851   0.479   0.753 -0.6720 -3.2235  0.0240
  198SOL    HW2  594   0.702   0.420   0.734 -0.3317  0.4936  2.7624
  199SOL     OW  595   0.196   2.317   1.757 -0.5062 -0.3601 -0.0758
  199SOL    HW1  596   0.209   2.264   1.670  0.2279 -0.0472  1.9410
  199SOL    HW2  597   0.140   2.403   1.739 -0.9190  0.2876 -0.2045
  200SOL     OW  598   1.777   1.413   2.443  0.0464  0.4305 -0.1795
  200SOL    HW1  599   1.861   1.477   2.457 -1.5977  2.9852 -0.2905
  200SOL    HW2  600   1.746   1.356   2.523  0.4102 -0.4090 -0.3197
  201SOL     OW  601   0.634   2.405   1.699 -0.1531  0.0837 -0.6547
  201SOL    HW1  602   0.623   2.463   1.612  0.0254  0.5464 -0.3340
  201SOL    HW2  603   0.651   2.311   1.661 -0.5147 -1.4329 -2.3254
  202SOL     OW  604   1.335   2.871   2.952 -0.7996 -0.0544  0.5917
  202SOL    HW1  605   1.347   2.807   2.873 -1.1969  0.2891  1.0207
  202SOL    HW2  606   1.239   2.880   2.970  0.0476 -0.3520 -0.1233
  203SOL     OW  607   1.548   0.350   2.392 -0.1272 -0.1127  0.0482
  203SOL    HW1  608   1.592   0.362   2.303  0.5788 -0.4121  0.4743
  203SOL    HW2  609   1.547   0.250   2.406 -0.1361  0.8955  0.6587
  204SOL     OW  610   0.724   1.541   1.881 -0.3574  0.1513 -0.1406
  204SOL    HW1  611   0.700   1.600   1.962 -0.7363 -0.9892  0.7381
  204SOL    HW2  612   0.702   1.443   1.903 -0.2989 -0.1081  2.4964
  205SOL     OW  613   1.983   0.943   2.928 -0.1708  0.5731 -0.1232
  205SOL    HW1  614   2.007   0.859   2.874  1.1686  0.6353 -2.0978
  205SOL    HW2  615   2.015   1.036   2.890 -0.0727  2.9193  1.2774
  206SOL     OW  616   0.294   1.762   2.784 -0.2236  0.0601  0.5744
  206SOL    HW1  617   0.339   1.703   2.710  2.2675 -2.2128 -0.7126
  206SOL    HW2  618   0.363   1.834   2.812 -2.4792  1.9461 -0.8137
  207SOL     OW  619   0.934   2.901   1.826  0.4609 -0.1271 -0.1113
  207SOL    HW1  620   0.931   2.829   1.898  1.6632  0.4651 -3.0004
  207SOL    HW2  621   0.841   2.926   1.801 -0.4567 -1.4689  0.2034
  208SOL     OW  622   0.619   2.547   1.466 -0.0273 -0.4426 -0.2310
  208SOL    HW1  623   0.549   2.616   1.443 -0.6132  0.4496  0.3100
  208SOL    HW2  624   0.653   2.493   1.386 -1.1379  1.8265  1.2513
  209SOL     OW  625   1.081   2.987   0.266  0.0002  0.3194 -0.3375
  209SOL    HW1  626   1.046   3.059   0.336 -2.3903  1.2565  2.8047
  209SOL    HW2  627   1.042   2.995   0.176  0.9501  0.8213  3.5424
  210SOL     OW  628   2.858   1.537   1.625 -0.2446 -0.5786 -0.4769
  210SOL    HW1  629   2.760   1.511   1.635 -0.6737  2.3402  1.4030
  210SOL    HW2  630   2.911   1.475   1.570 -0.9461  2.2584  0.1107
  211SOL     OW  631   0.980   0.403   1.916  0.7320 -0.1136  0.3399
  211SOL    HW1  632   0.988   0.490   1.965  0.1580 -1.5797 -0.3897
  211SOL    HW2  633   0.974   0.415   1.812  0.4964  2.1009 -3.7046
  212SOL     OW  634   1.424   2.103   1.644  0.1032 -0.2621  0.2032
  212SOL    HW1  635   1.491   2.122   1.571 -0.3662 -2.6430  1.1612
  212SOL    HW2  636   1.385   2.010   1.619 -0.1954  0.0969 -1.3952
  213SOL     OW  637   2.315   0.346   1.415  0.0261 -0.2013  0.3547
  213SOL    HW1  638   2.390   0.404   1.378 -0.9660 -0.9537  0.5182
  213SOL    HW2  639   2.357   0.289   1.486 -2.8647 -0.0582 -1.0109
  214SOL     OW  640   0.995   2.295   1.866  0.5456 -0.2025  0.0047
  214SOL    HW1  641   1.072   2.309   1.928 -2.0040  1.5476  1.1232
  214SOL    HW2  642   1.032   2.259   1.778 -0.4586 -0.6116  0.6895
  215SOL     OW  643   2.727   1.889   1.209 -0.3540  0.2832 -0.4992
  215SOL    HW1  644   2.652   1.956   1.209  0.6170 -3.2653 -1.4284
  215SOL    HW2  645   2.803   1.916   1.274  2.3804  0.7594 -0.4594
  216SOL     OW  646   0.144   0.844   1.584 -0.3748 -0.0454 -0.2459
  216SOL    HW1  647   0.241   0.864   1.563 -0.8046 -1.9195 -0.8723
  216SOL    HW2  648   0.141   0.750   1.621  0.0323 -0.6079  3.7657
  217SOL     OW  649   2.605   0.272   1.215 -0.3642 -0.3554 -0.6687
  217SOL    HW1  650   2.701   0.239   1.219 -0.6338  3.6154 -0.9346
  217SOL    HW2  651   2.587   0.354   1.272 -0.2035  2.2066  0.0465
  218SOL     OW  652   1.233   2.064   1.134 -0.1084  0.3818 -0.1133
  218SOL    HW1  653   1.261   1.986   1.074  0.0391 -0.1240  0.8126
  218SOL    HW2  654   1.134   2.086   1.125 -2.0057 -0.4183 -0.2603
  219SOL     OW  655   1.471   2.411   0.278 -0.3106 -0.0648  0.2476
  219SOL    HW1  656   1.446   2.510   0.299 -2.0665  1.8990  2.1950
  219SOL    HW2  657   1.455   2.355   0.360  0.0973  2.1257 -0.3192
  220SOL     OW  658   1.774   2.452   0.370 -0.2400  0.5262 -0.0035
  220SOL    HW1  659   1.674   2.442   0.366 -2.0056 -1.3567 -1.2209
  220SOL    HW2  660   1.818   2.370   0.411 -0.1502 -0.1548  0.1594
  221SOL     OW  661   2.897   2.012   1.017  0.0515  0.1597 -0.6084
  221SOL    HW1  662   2.860   2.065   0.937 -1.5215  0.0483  0.5837
  221SOL    HW2  663   2.839   1.937   1.052 -1.2844  2.4767 -1.6976
  222SOL     OW  664   1.059   2.250   0.957 -0.1514  0.3751 -0.1989
  222SOL    HW1  665   1.053   2.202   0.868 -2.7314 -2.4581  1.4307
  222SOL    HW2  666   1.000   2.205   1.034  0.0450  1.2453  0.1260
  223SOL     OW  667   1.102   2.539   2.341 -0.7937 -0.0071 -0.1839
  223SOL    HW1  668   1.161   2.611   2.295 -0.1411  3.4939 -0.6497
  223SOL    HW2  669   1.036   2.574   2.415 -1.2267 -0.0980  2.6624
  224SOL     OW  670   2.723   1.173   0.981  0.1756  0.4480 -0.0559
  224SOL    HW1  671   2.673   1.092   0.946 -1.7736  3.9001  0.2168
  224SOL    HW2  672   2.746   1.162   1.078  0.0672  0.5887 -1.0374
  225SOL     OW  673   2.289   1.602   0.814  0.7617 -0.1951  0.2667
  225SOL    HW1  674   2.292   1.705   0.794 -2.1988 -2.9197  1.0038
  225SOL    HW2  675   2.365   1.563   0.766 -0.1035  0.6652  0.6033
  226SOL     OW  676   1.215   2.594   0.655  0.0106  0.3621 -0.1997
  226SOL    HW1  677   1.315   2.570   0.650  3.0577 -2.9729  0.0055
  226SOL    HW2  678   1.170   2.520   0.601  4.3093 -1.9618  2.2845
  227SOL     OW  679   1.028   1.162   1.182 -0.0338 -0.1046  0.2201
  227SOL    HW1  680   0.999   1.119   1.269 -0.1016 -4.4252 -1.7983
  227SOL    HW2  681   1.106   1.105   1.147 -0.0520  2.0486 -1.0137
  228SOL     OW  682   1.273   0.435   2.360 -0.1416 -0.2259 -0.2186
  228SOL    HW1  683   1.360   0.412   2.404 -0.1411 -0.5769  0.3999
  228SOL    HW2  684   1.270   0.402   2.267  0.6309  2.1324  2.3163
  229SOL     OW  685   2.517   1.064   3.006 -0.4201 -0.2202 -0.8026
  229SOL    HW1  686   2.567   1.052   2.917 -0.5762  1.5506 -0.7817
  229SOL    HW2  687   2.440   0.996   3.010  2.0956 -0.3626  0.5676
  230SOL     OW  688   0.917   1.254   0.621 -0.4978 -0.1109 -0.0301
  230SOL    HW1  689   0.995   1.233   0.560 -1.2874  0.1821  2.8575
  230SOL    HW2  690   0.943   1.227   0.718  1.4160  1.2727  1.8016
  231SOL     OW  691   2.453   2.904   2.491 -0.1109  0.3674 -0.3947
  231SOL    HW1  692   2.547   2.915   2.516  0.0422  0.1139  0.5341
  231SOL    HW2  693   2.425   2.991   2.445 -0.4440  0.1943  0.9830
  232SOL     OW  694   0.457   2.025   0.064  0.3702 -0.1069 -0.1495
  232SOL    HW1  695   0.460   2.035   0.167 -0.1893 -0.1288  1.0407
  232SOL    HW2  696   0.402   2.103   0.025 -0.2498  2.4100  0.7083
  233SOL     OW  697   1.538   2.577   2.386  0.5888 -0.2959 -0.2333
  233SOL    HW1  698   1.486   2.559   2.299 -4.2822 -0.4868  1.7592
  233SOL    HW2  699   1.593   2.495   2.411 -3.0485  2.0192 -1.1377
  234SOL     OW  700   1.119   1.324   1.936  0.4009  0.4953 -0.3201
  234SOL    HW1  701   1.130   1.417   1.971 -0.8795 -1.2744 -1.0592
  234SOL    HW2  702   1.026   1.297   1.978  0.2750  1.1162  2.2138
  235SOL     OW  703   0.605   2.108   1.803 -0.4876 -0.3127 -0.0490
  235SOL    HW1  704   0.557   2.121   1.892 -0.1767 -2.5042 -1.4033
  235SOL    HW2  705   0.534   2.097   1.729 -1.4346 -3.2874 -0.5986
  236SOL     OW  706   2.031   2.643   2.688 -0.3100  0.6596  0.2711
  236SOL    HW1  707   1.934   2.662   2.667  0.6987 -2.1766  1.0656
  236SOL    HW2  708   2.052   2.542   2.711  2.8816 -0.1841  2.0925
  237SOL     OW  709   1.529   2.995   0.953  0.0741 -0.2248  0.4342
  237SOL    HW1  710   1.427   3.007   0.927 -1.3267 -0.5498 -0.1738
  237SOL    HW2  711   1.569   3.083   0.982  0.1416 -0.2002 -0.1635
  238SOL     OW  712   1.166   0.756   2.910 -0.0071  0.1398 -0.0724
  238SOL    HW1  713   1.212   0.768   3.000 -2.6272 -0.6835  0.2873
  238SOL    HW2  714   1.204   0.826   2.843 -1.3664  1.9824  2.1758
  239SOL     OW  715   0.655   0.053   2.161  0.0184  0.0040 -0.0999
  239SOL    HW1  716   0.669   0.059   2.058 -0.8762 -1.5577  0.1076
  239SOL    HW2  717   0.681   0.140   2.206  1.4509  0.2900 -0.5358
  240SOL     OW  718   2.051   2.569   0.541  0.4348  0.1833  0.0372
  240SOL    HW1  719   1.980   2.595   0.609  1.3458  0.4569 -0.2567
  240SOL    HW2  720   2.017   2.597   0.445  0.2400  0.4834 -2.7455
  241SOL     OW  721   1.059   1.580   1.545 -0.6324 -0.2856  0.3993
  241SOL    HW1  722   1.038   1.622   1.633 -1.2887 -0.2209 -2.2457
  241SOL    HW2  723   1.023   1.639   1.465 -2.0449  2.1529 -1.9661
  242SOL     OW  724   0.228   0.609   1.041  0.2652 -0.5823 -0.1447
  242SOL    HW1  725   0.178   0.662   0.969  0.2034 -2.1098  2.0115
  242SOL    HW2  726   0.156   0.574   1.103  1.0626  2.2222 -2.2097
  243SOL     OW  727   0.746   0.717   1.558 -0.6831  0.1134  0.2547
  243SOL    HW1  728   0.664   0.760   1.514 -1.0197  1.5963  1.9487
  243SOL    HW2  729   0.717   0.639   1.613 -0.5541  1.1912 -0.3541
  244SOL     OW  730   1.473   0.500   0.201  0.1403  0.0384 -0.2995
  244SOL    HW1  731   1.458   0.583   0.259  1.3137 -2.4148 -0.2597
  244SOL    HW2  732   1.476   0.523   0.104  1.8201 -1.1130  0.9973
  245SOL     OW  733   2.224   0.314   0.012 -0.4464  0.2794  0.0041
  245SOL    HW1  734   2.163   0.254   0.067 -0.3938 -1.8911  2.0327
  245SOL    HW2  735   2.265   0.383   0.073  0.8689 -1.6399 -1.0587
  246SOL     OW  736   0.655   0.796   1.967  0.5010 -0.1920  0.2282
  246SOL    HW1  737   0.587   0.867   1.942  1.7667  2.4149 -1.4252
  246SOL    HW2  738   0.721   0.781   1.890 -0.7203 -0.8520 -0.2003
  247SOL     OW  739   0.362   0.023   2.245  0.1984  0.1593 -0.1563
  247SOL    HW1  740   0.318   0.116   2.232 -1.6597 -0.4185 -0.8013
  247SOL    HW2  741   0.463   0.028   2.226  3.6733  1.0704  1.1188
  248SOL     OW  742   2.984   1.440   2.086 -0.0267 -0.3641 -0.0854
  248SOL    HW1  743   2.973   1.531   2.039  1.1463 -3.1492  0.2373
  248SOL    HW2  744   3.074   1.430   2.136  1.4842  0.4961 -1.9225
  249SOL     OW  745   0.175   0.069   2.678 -0.0025  0.0422 -0.4512
  249SOL    HW1  746   0.248   0.136   2.708  0.3230 -0.4863  2.8648
  249SOL    HW2  747   0.203   3.094   2.680 -2.6661 -3.2470  0.6193
  250SOL     OW  748   3.094   3.041   3.021 -0.4226 -0.5870  0.4527
  250SOL    HW1  749   0.017   0.015   3.019 -1.4534  2.2012  1.5995
  250SOL    HW2  750   0.030   2.975   2.969 -0.4873 -1.5578 -4.8521
  251SOL     OW  751   0.487   1.250   1.267 -0.3964  0.0578 -0.4006
  251SOL    HW1  752   0.392   1.274   1.273  1.2817  2.2198 -1.7914
  251SOL    HW2  753   0.515   1.229   1.170 -0.3267 -0.0918 -0.3566
  252SOL     OW  754   1.546   2.805   2.036  0.6297  0.0984 -0.3496
  252SOL    HW1  755   1.567   2.893   2.084 -1.4979 -1.3499  0.0454
  252SOL    HW2  756   1.612   2.732   2.060  0.0340  0.3121 -2.0145
  253SOL     OW  757   2.039   2.052   2.503  0.2024 -0.1089  0.3720
  253SOL    HW1  758   2.022   2.135   2.449 -0.5898 -5.0662  1.0552
  253SOL    HW2  759   1.993   2.058   2.592 -1.9425 -2.6766 -3.7137
  254SOL     OW  760   0.380   1.615   2.013  0.1897 -0.6887 -0.4049
  254SOL    HW1  761   0.475   1.635   2.033 -0.0862 -0.4963 -0.8189
  254SOL    HW2  762   0.330   1.700   2.039 -0.7814 -1.2403  0.7829
  255SOL     OW  763   1.248   0.324   1.695 -0.1437  0.3904 -0.0234
  255SOL    HW1  764   1.298   0.394   1.750 -0.8392  0.9346  1.6345
  255SOL    HW2  765   1.168   0.376   1.655 -2.9790  0.1231 -0.0700
  256SOL     OW  766   2.883   2.386   1.132 -0.4965 -0.1530  0.2857
  256SOL    HW1  767   2.829   2.428   1.208  0.3523  1.0438 -0.3385
  256SOL    HW2  768   2.837   2.393   1.039 -3.0895 -2.8335 -2.1622
  257SOL     OW  769   0.463   2.374   0.001  0.1711  0.3913  0.6760
  257SOL    HW1  770   0.555   2.400   3.097 -1.2787 -0.1808 -1.6862
  257SOL    HW2  771   0.454   2.382   0.101  0.5069 -0.7685  0.2355
  258SOL     OW  772   1.083   2.266   2.370  0.0875 -0.1309 -0.0759
  258SOL    HW1  773   1.009   2.220   2.318  1.3115  0.3758 -1.5638
  258SOL    HW2  774   1.078   2.371   2.359 -0.5048 -2.1410 -0.0934
  259SOL     OW  775   0.877   1.852   2.719 -0.0632 -0.0824 -0.5875
  259SOL    HW1  776   0.870   1.950   2.693 -2.3070  0.1903 -1.3176
  259SOL    HW2  777   0.901   1.848   2.819 -0.2433 -1.4419  2.6681
  260SOL     OW  778   2.500   0.948   2.303  0.5039  0.1206 -0.2175
  260SOL    HW1  779   2.529   1.008   2.384 -3.7173  0.5924  2.3983
  260SOL    HW2  780   2.406   0.966   2.288 -0.0733 -0.5569  3.2258
  261SOL     OW  781   1.230   0.638   0.791  0.1938 -0.1178 -1.3297
  261SOL    HW1  782   1.171   0.576   0.854 -3.1045  0.5903  2.4039
  261SOL    HW2  783   1.218   0.734   0.820 -1.3929 -0.5686  0.4846
  262SOL     OW  784   2.073   2.414   2.249 -0.2317 -0.6190 -0.0596
  262SOL    HW1  785   2.019   2.335   2.275 -0.9512  0.5771  0.4980
  262SOL    HW2  786   2.013   2.490   2.225 -1.6515 -0.4784 -0.9652
  263SOL     OW  787   0.202   2.082   0.432  0.6340 -0.1148  0.2963
  263SOL    HW1  788   0.168   2.033   0.353  1.2828  3.4554  1.5157
  263SOL    HW2  789   0.300   2.108   0.403  0.2867 -1.0140 -1.5046
  264SOL     OW  790   0.283   2.106   0.854 -1.0392 -0.0365  0.0497
  264SOL    HW1  791   0.364   2.042   0.865  0.5615 -1.5729 -1.7165
  264SOL    HW2  792   0.199   2.066   0.893  2.5723  1.5804 -1.2218
  265SOL     OW  793   0.533   1.401   0.280 -0.1175  0.0691 -0.1865
  265SOL    HW1  794   0.520   1.408   0.379 -0.2084 -1.4101 -2.4920
  265SOL    HW2  795   0.616   1.342   0.262 -0.6197 -1.2343 -1.0467
  266SOL     OW  796   0.686   2.080   2.360  0.1031  0.0755 -0.5803
  266SOL    HW1  797   0.622   2.155   2.367  1.4011 -2.9037 -0.2780
  266SOL    HW2  798   0.773   2.100   2.305  1.7415  1.1607 -0.8841
  267SOL     OW  799   1.106   0.608   2.489 -0.3650  0.3350  0.9067
  267SOL    HW1  800   1.066   0.567   2.575  0.5035 -2.2024 -1.7276
  267SOL    HW2  801   1.161   0.537   2.443 -0.2924  1.0456  1.8585
  268SOL     OW  802   0.428   0.835   2.860 -0.1196  0.1834  0.0481
  268SOL    HW1  803   0.446   0.906   2.789 -2.1061  0.8795  1.1514
  268SOL    HW2  804   0.464   0.875   2.947  0.7335  0.2245 -2.7891
  269SOL     OW  805   2.383   2.673   2.347 -0.2045  0.0666  0.1204
  269SOL    HW1  806   2.430   2.748   2.403 -2.3435 -1.4772  0.9792
  269SOL    HW2  807   2.346   2.609   2.416 -0.6458  0.5390  1.9286
  270SOL     OW  808   1.411   1.549   2.698 -0.1531  0.2152 -0.1392
  270SOL    HW1  809   1.418   1.638   2.653 -1.5795 -1.8104 -0.1416
  270SOL    HW2  810   1.432   1.474   2.630 -1.8428  1.2942 -1.8139
  271SOL     OW  811   0.374   0.071   3.006  0.4929 -0.1017  0.0946
  271SOL    HW1  812   0.387   3.091   2.991 -0.7814 -0.2556  0.2617
  271SOL    HW2  813   0.286   0.102   2.974  1.8229  2.7783  1.6187
  272SOL     OW  814   2.856   0.568   0.370 -0.1646 -0.1590 -0.1847
  272SOL    HW1  815   2.903   0.562   0.460  0.9117  1.2552  1.3011
  272SOL    HW2  816   2.765   0.617   0.378 -3.8557  1.3520 -0.4201
  273SOL     OW  817   0.403   3.038   1.951 -0.5502 -0.2416 -0.0183
  273SOL    HW1  818   0.335   3.065   2.021 -2.0888 -0.8200 -1.3834
  273SOL    HW2  819   0.359   2.976   1.884 -0.1707 -1.7387 -0.2805
  274SOL     OW  820   0.263   0.728   1.880  0.7135  0.1518  0.2380
  274SOL    HW1  821   0.167   0.744   1.900 -0.0924  0.3342  0.3882
  274SOL    HW2  822   0.271   0.667   1.801  2.1241 -0.3948  0.4864
  275SOL     OW  823   1.032   1.696   0.646 -0.2121 -0.5198  0.1711
  275SOL    HW1  824   0.988   1.639   0.573 -1.0982 -0.8119 -1.3426
  275SOL    HW2  825   1.131   1.714   0.628 -0.1724 -1.2231  0.6056
  276SOL     OW  826   0.940   0.642   2.051  0.2254 -0.3830  0.2619
  276SOL    HW1  827   0.893   0.625   2.142  0.8278  3.3640 -0.7351
  276SOL    HW2  828   0.909   0.731   2.010 -0.8415 -5.1935 -1.4334
  277SOL     OW  829   1.217   2.621   1.855  0.0686 -0.2256 -0.1996
  277SOL    HW1  830   1.161   2.616   1.771 -1.2063 -1.6648 -0.8001
  277SOL    HW2  831   1.188   2.548   1.912  1.0340  3.9016 -2.8384
  278SOL     OW  832   1.885   2.924   1.908  0.2486  0.2406  0.2040
  278SOL    HW1  833   1.788   2.951   1.941 -2.0562  1.1628 -1.1493
  278SOL    HW2  834   1.958   2.942   1.976  0.5556  0.9951 -1.3145
  279SOL     OW  835   1.288   1.254   0.183 -0.3077 -0.0373  0.3014
  279SOL    HW1  836   1.232   1.316   0.134  1.9786 -0.6196  2.6303
  279SOL    HW2  837   1.388   1.278   0.174  0.8408 -0.0340  2.2103
  280SOL     OW  838   0.788   1.500   0.056  0.9045 -0.7082  0.0232
  280SOL    HW1  839   0.799   1.577   0.118 -0.4362 -2.0369  1.7267
  280SOL    HW2  840   0.799   1.417   0.106  2.8783  0.6075 -2.4882
  281SOL     OW  841   0.411   0.086   1.546  0.1176 -0.5260 -0.2147
  281SOL    HW1  842   0.395   0.111   1.643  1.2268  0.3196  0.8881
  281SOL    HW2  843   0.456   0.169   1.500  1.2219  1.6570  0.3492
  282SOL     OW  844   0.193   2.472   0.663 -0.5761 -0.2755 -0.4219
  282SOL    HW1  845   0.148   2.563   0.634  0.0904 -2.0107  1.0930
  282SOL    HW2  846   0.174   2.396   0.598  0.5729 -2.5422  2.1917
  283SOL     OW  847   1.899   2.195   2.287  0.0924 -0.5523 -0.5219
  283SOL    HW1  848   1.887   2.214   2.189 -2.0584 -0.2369  0.8748
  283SOL    HW2  849   1.852   2.108   2.311  0.5334 -1.9174 -2.2175
  284SOL     OW  850   1.939   2.917   0.675  0.2453  0.2327  0.3217
  284SOL    HW1  851   1.960   3.014   0.706  1.1288  0.2053  2.4916
  284SOL    HW2  852   1.948   2.849   0.745 -1.5904  2.3661  1.0695
  285SOL     OW  853   0.356   2.371   2.444  0.0847  0.2216  0.2591
  285SOL    HW1  854   0.404   2.314   2.378 -2.5795  1.4937  2.3127
  285SOL    HW2  855   0.380   2.468   2.422  0.6514 -1.5980 -1.5792
  286SOL     OW  856   2.992   2.847   0.816 -0.1321  0.1393 -0.5502
  286SOL    HW1  857   2.913   2.911   0.802 -0.7234  0.3624  1.8319
  286SOL    HW2  858   2.960   2.768   0.870 -0.0780 -1.8724  1.6915
  287SOL     OW  859   0.678   1.346   0.759 -0.0958 -0.3629 -0.4707
  287SOL    HW1  860   0.712   1.428   0.811 -0.1757  4.1939 -0.1776
  287SOL    HW2  861   0.758   1.288   0.725  0.3805  0.4314 -0.5754
  288SOL     OW  862   2.311   2.225   2.651  0.1875  0.6146 -0.5252
  288SOL    HW1  863   2.388   2.166   2.690  2.9499  1.0149 -2.3076
  288SOL    HW2  864   2.327   2.243   2.556  1.4854  1.4517  0.4939
  289SOL     OW  865   3.028   2.111   2.821  0.9706  0.8701 -0.2045
  289SOL    HW1  866   2.960   2.139   2.896 -0.2407  1.6956 -1.0605
  289SOL    HW2  867   3.086   2.030   2.848  1.6471  0.9410 -3.0788
  290SOL     OW  868   1.336   1.801   1.302  0.5032 -0.3266 -0.2605
  290SOL    HW1  869   1.406   1.797   1.229 -0.1854  0.1739  0.2498
  290SOL    HW2  870   1.269   1.869   1.270 -0.4319 -0.2706  2.6378
  291SOL     OW  871   1.454   1.265   3.046  0.3526 -0.7797  0.1216
  291SOL    HW1  872   1.411   1.346   2.995 -0.1001  0.8131 -1.4460
  291SOL    HW2  873   1.397   1.184   3.031  0.4954 -1.5068 -0.2943
  292SOL     OW  874   0.930   1.600   0.272 -0.4312  0.5539  0.2292
  292SOL    HW1  875   0.915   1.528   0.344  0.2243  0.5483  2.1418
  292SOL    HW2  876   1.009   1.576   0.213 -0.8672  0.2587 -1.1096
  293SOL     OW  877   1.522   2.742   1.057  0.0210  0.3629  0.3849
  293SOL    HW1  878   1.487   2.747   1.153 -1.9642  1.5790 -0.8765
  293SOL    HW2  879   1.531   2.837   1.018 -1.7596 -1.9472  1.1915
  294SOL     OW  880   2.246   1.380   2.935 -0.6106  0.0015 -0.0228
  294SOL    HW1  881   2.300   1.353   3.016  1.3075  0.6509 -1.3982
  294SOL    HW2  882   2.202   1.471   2.955  1.5757  1.0798 -1.0385
  295SOL     OW  883   1.847   1.870   3.029  0.0201 -0.1982 -0.3095
  295SOL    HW1  884   1.768   1.803   3.038 -0.6503 -2.2479 -1.0204
  295SOL    HW2  885   1.823   1.970   3.043  0.0190 -0.2051  1.5833
  296SOL     OW  886   1.852   0.521   1.937  0.6397  0.1427  0.3441
  296SOL    HW1  887   1.757   0.517   1.898  0.8785 -0.3474 -2.9074
  296SOL    HW2  888   1.886   0.616   1.940 -0.1285  1.4385 -1.3510
  297SOL     OW  889   3.108   0.756   2.044 -0.0622  0.3468  0.7936
  297SOL    HW1  890   3.013   0.743   2.007  2.4958  0.4062  3.1964
  297SOL    HW2  891   0.010   0.858   2.051  2.3549 -0.0200 -0.5121
  298SOL     OW  892   1.092   1.943   2.185  0.3905 -0.5655  0.1167
  298SOL    HW1  893   1.159   1.931   2.111 -1.9410 -2.0535  1.4156
  298SOL    HW2  894   1.134   1.922   2.276  2.1089  1.0203 -2.6289
  299SOL     OW  895   1.178   0.076   2.711 -0.4195  0.2459 -0.3310
  299SOL    HW1  896   1.248   0.060   2.638 -2.0128 -0.1521  3.0085
  299SOL    HW2  897   1.095   0.022   2.692  0.9774 -1.5011  1.0753
  300SOL     OW  898   0.143   1.057   2.974  0.0250 -0.0157 -0.1843
  300SOL    HW1  899   0.176   1.001   3.052  1.1519  0.5968  1.5818
  300SOL    HW2  900   0.203   1.141   2.962 -1.0285 -0.1765  0.8676
  301SOL     OW  901   1.868   0.628   2.542 -0.4157 -0.8129  0.1821
  301SOL    HW1  902   1.774   0.630   2.579 -1.7042  1.0229 -1.4150
  301SOL    HW2  903   1.876   0.662   2.450 -0.6017  2.8355  1.0422
  302SOL     OW  904   2.536   1.659   2.705  0.7384 -0.1430 -0.1871
  302SOL    HW1  905   2.544   1.566   2.666 -0.7615  1.2088 -1.1291
  302SOL    HW2  906   2.505   1.728   2.636 -0.5004  1.2464  1.7963
  303SOL     OW  907   0.519   2.334   2.675 -0.0099 -0.1923  0.4247
  303SOL    HW1  908   0.615   2.357   2.649 -0.1018  3.5423  0.5480
  303SOL    HW2  909   0.457   2.334   2.594 -1.8594 -2.9801  0.3180
  304SOL     OW  910   3.027   1.134   1.420  0.4178  0.0555  0.3701
  304SOL    HW1  911   3.111   1.098   1.375 -1.1162  1.1450 -0.2473
  304SOL    HW2  912   3.020   1.096   1.517 -1.1896 -0.8737  0.3503
  305SOL     OW  913   2.524   0.674   1.883 -0.7055 -0.9736 -0.3064
  305SOL    HW1  914   2.476   0.620   1.954  1.8207 -3.2052 -0.5894
  305SOL    HW2  915   2.627   0.690   1.904  3.1511  0.2545 -1.4092
  306SOL     OW  916   2.231   1.269   1.743 -0.3333 -0.4419 -0.1061
  306SOL    HW1  917   2.164   1.337   1.699 -2.3221  1.1197 -2.3609
  306SOL    HW2  918   2.317   1.314   1.780 -1.7121  0.8950  3.2081
  307SOL     OW  919   2.691   0.059   0.964 -0.3006 -0.2192 -0.4977
  307SOL    HW1  920   2.594   0.033   0.976  1.4351 -1.3000 -0.1927
  307SOL    HW2  921   2.740   0.041   1.053  0.0031 -2.5826  0.3113
  308SOL     OW  922   0.311   1.869   1.764  0.1422  0.3663 -0.2052
  308SOL    HW1  923   0.277   1.878   1.861 -0.8168 -0.9970  2.2298
  308SOL    HW2  924   0.340   1.775   1.747 -1.9458 -0.8227  1.8515
  309SOL     OW  925   2.541   2.289   1.424 -0.0031 -0.0285  0.2201
  309SOL    HW1  926   2.557   2.240   1.513  0.4279 -0.6304  2.8107
  309SOL    HW2  927   2.438   2.311   1.407 -0.2944  2.2437 -2.3283
  310SOL     OW  928   2.136   1.508   2.698  0.0219 -0.0289 -0.1452
  310SOL    HW1  929   2.071   1.587   2.711  1.0989  0.0886 -0.1700
  310SOL    HW2  930   2.163   1.476   2.790  1.1858  0.0948 -0.1700
  311SOL     OW  931   1.733   1.281   3.040 -0.0139 -0.4317 -0.0907
  311SOL    HW1  932   1.630   1.290   3.040 -0.5822  1.1350 -1.2511
  311SOL    HW2  933   1.766   1.200   2.993  0.2673 -0.4717  0.2733
  312SOL     OW  934   1.324   2.271   2.266  0.1163 -0.7258 -0.6885
  312SOL    HW1  935   1.379   2.187   2.280 -0.4344  3.2680 -0.5603
  312SOL    HW2  936   1.224   2.255   2.292  1.0742  1.2008 -0.2036
  313SOL     OW  937   0.195   0.199   0.900 -0.1411 -0.1905  0.1397
  313SOL    HW1  938   0.124   0.149   0.847  0.5803  1.0475  0.6207
  313SOL    HW2  939   0.153   0.211   0.988 -0.0442 -0.7404 -1.3413
  314SOL     OW  940   0.509   1.866   1.119  0.4312 -0.0406  0.4429
  314SOL    HW1  941   0.434   1.927   1.156  0.8791 -2.6667  0.4065
  314SOL    HW2  942   0.479   1.777   1.083  3.1220  2.4290  1.0141
  315SOL     OW  943   0.425   2.090   2.009  0.3937 -0.0312  0.3345
  315SOL    HW1  944   0.437   2.017   2.071  1.6758  0.8180 -3.3740
  315SOL    HW2  945   0.331   2.132   2.017  0.1284 -1.4614  0.2327
  316SOL     OW  946   0.324   2.369   0.869 -0.3481  0.2274 -0.2250
  316SOL    HW1  947   0.308   2.265   0.856 -0.4212  1.4875  0.2060
  316SOL    HW2  948   0.289   2.416   0.783  2.9867 -0.4040  0.4993
  317SOL     OW  949   2.160   0.034   0.921  0.3250 -0.2592 -0.5825
  317SOL    HW1  950   2.074   0.058   0.871  1.7522  2.8360  0.6904
  317SOL    HW2  951   2.209   0.121   0.946 -0.2850  1.9470 -0.8101
  318SOL     OW  952   2.298   2.368   0.280  0.3643  0.0014 -0.2201
  318SOL    HW1  953   2.301   2.268   0.258 -1.4851  0.4246  0.4589
  318SOL    HW2  954   2.392   2.404   0.298  1.3046 -0.8170 -1.9616
  319SOL     OW  955   1.237   1.805   2.901 -0.8104 -0.0584  0.0962
  319SOL    HW1  956   1.224   1.883   2.964 -1.2551 -1.6890 -2.1767
  319SOL    HW2  957   1.315   1.742   2.928  1.2994 -1.9077  2.6019
  320SOL     OW  958   0.462   2.598   2.379 -0.1849  0.0329 -0.4605
  320SOL    HW1  959   0.564   2.624   2.390 -1.1340  1.8940 -0.0766
  320SOL    HW2  960   0.438   2.598   2.281  1.5276  2.4278  0.6194
  321SOL     OW  961   1.062   2.486   2.750 -0.6457  0.2057  0.4425
  321SOL    HW1  962   1.137   2.477   2.677  1.2076  0.8830 -1.8493
  321SOL    HW2  963   1.034   2.393   2.770  2.7807  1.4672  2.1372
  322SOL     OW  964   2.506   0.359   2.367 -0.1249 -0.2932  0.4010
  322SOL    HW1  965   2.518   0.311   2.456  1.0153 -0.3992  0.2614
  322SOL    HW2  966   2.595   0.396   2.342  0.7276 -1.8370  1.3370
  323SOL     OW  967   2.905   1.258   0.808  0.1388  0.6707 -0.1528
  323SOL    HW1  968   2.834   1.244   0.880  1.2594 -0.0133  1.0692
  323SOL    HW2  969   2.971   1.183   0.807 -2.3467  2.8131 -0.7504
  324SOL     OW  970   0.430   0.955   1.886  0.2295 -0.4250 -0.0436
  324SOL    HW1  971   0.344   0.896   1.889 -1.8291  1.0912  0.2460
  324SOL    HW2  972   0.443   0.994   1.795 -0.2554 -0.7246 -0.8254
  325SOL     OW  973   0.386   0.349   2.014 -0.2837 -0.0251  0.5423
  325SOL    HW1  974   0.422   0.447   2.013 -1.0073  0.9383  0.2176
  325SOL    HW2  975   0.346   0.323   2.108 -1.0418  1.6594  1.4359
  326SOL     OW  976   2.193   2.561   0.132 -0.1012  0.0658  0.3981
  326SOL    HW1  977   2.122   2.612   0.183 -1.3195 -0.6595 -1.0308
  326SOL    HW2  978   2.221   2.474   0.184  2.4389 -2.6797  0.1629
  327SOL     OW  979   2.242   1.401   0.585  0.5439  0.0265 -0.2980
  327SOL    HW1  980   2.331   1.422   0.628 -0.1937 -0.7369 -0.4248
  327SOL    HW2  981   2.248   1.347   0.501  0.4216  2.6731  1.9517
  328SOL     OW  982   2.908   1.843   2.594  0.2028  0.6202  0.1920
  328SOL    HW1  983   2.894   1.758   2.646 -0.7027 -2.3819 -1.3256
  328SOL    HW2  984   3.012   1.864   2.599  3.5580  0.6788  0.1511
  329SOL     OW  985   0.386   1.802   1.417  0.1205  0.0623 -0.6277
  329SOL    HW1  986   0.344   1.839   1.331 -0.7607 -1.2820 -0.5337
  329SOL    HW2  987   0.388   1.868   1.492  0.0199 -1.6315  1.3702
  330SOL     OW  988   2.306   1.385   2.505 -0.3673 -0.2727 -0.2060
  330SOL    HW1  989   2.258   1.435   2.582 -1.4603 -0.5356  1.4237
  330SOL    HW2  990   2.299   1.284   2.531  0.0392  1.7924  3.5900
  331SOL     OW  991   2.243   2.720   0.815 -0.3721 -0.3442 -0.2155
  331SOL    HW1  992   2.160   2.691   0.867 -2.1020  2.1910 -0.9510
  331SOL    HW2  993   2.264   2.659   0.736  2.5117  0.2585 -1.9351
  332SOL     OW  994   0.331   2.943   0.725  0.3131  0.0702 -0.1070
  332SOL    HW1  995   0.250   2.942   0.786  0.5402  0.3750  0.7762
  332SOL    HW2  996   0.418   2.945   0.777  0.8014 -0.7452 -0.2904
  333SOL     OW  997   2.323   2.300   2.366 -0.6555 -0.1993 -0.7519
  333SOL    HW1  998   2.410   2.334   2.324 -0.3208 -0.2274  2.2183
  333SOL    HW2  999   2.240   2.339   2.316  0.9408 -1.0005  1.2308
  334SOL     OW 1000   0.576   1.050   0.501  0.3632 -0.7371 -0.1151
  334SOL    HW1 1001   0.501   1.017   0.563 -0.0562 -1.0227 -0.8844
  334SOL    HW2 1002   0.666   1.024   0.541 -0.5657  1.0266  1.4911
  335SOL     OW 1003   2.771   1.940   2.336 -0.0768 -0.3460  0.2202
  335SOL    HW1 1004   2.808   1.888   2.412  0.0777  1.5040 -1.0449
  335SOL    HW2 1005   2.719   1.886   2.268 -0.1980  3.8482  1.9442
  336SOL     OW 1006   2.552   2.806   2.193  0.5109 -0.8006 -0.2552
  336SOL    HW1 1007   2.519   2.898   2.159  0.6901  2.1834 -1.8371
  336SOL    HW2 1008   2.478   2.754   2.231  1.5789 -0.9667 -0.8897
  337SOL     OW 1009   0.888   0.964   0.860 -0.4659 -0.1828  0.3534
  337SOL    HW1 1010   0.976   0.916   0.858 -0.7707  0.2006  0.9197
  337SOL    HW2 1011   0.909   1.062   0.876  0.4500  0.6146  0.6952
  338SOL     OW 1012   1.071   1.699   1.071 -0.3402  0.6136 -0.0177
  338SOL    HW1 1013   1.067   1.599   1.084 -0.8602 -1.1664  0.4720
  338SOL    HW2 1014   0.981   1.740   1.049  1.8164 -0.7398  2.2153
  339SOL     OW 1015   0.146   1.670   1.551  0.1782  0.3726  0.3542
  339SOL    HW1 1016   0.194   1.635   1.635  0.2042 -0.6761 -1.8111
  339SOL    HW2 1017   0.208   1.691   1.477 -0.0648 -2.2426  1.5408
  340SOL     OW 1018   1.070   2.956   1.594 -0.3489  0.1906 -0.4778
  340SOL    HW1 1019   1.141   3.027   1.624  1.3162  0.6164  2.6631
  340SOL    HW2 1020   1.022   2.918   1.681 -0.9647  0.6423  1.7924
  341SOL     OW 1021   1.544   1.785   1.141 -0.1433 -0.0868 -0.2073
  341SOL    HW1 1022   1.531   1.748   1.048 -0.8277  3.6611 -1.4021
  341SOL    HW2 1023   1.611   1.862   1.142 -2.3592  3.2175  1.4219
  342SOL     OW 1024   2.501   1.397   1.053  0.5323  0.3177 -0.1591
  342SOL    HW1 1025   2.599   1.368   1.037 -1.6171  2.7469  0.4678
  342SOL    HW2 1026   2.477   1.470   0.987  2.7592  1.3741 -0.9747
  343SOL     OW 1027   2.535   0.494   1.356  0.1278  0.0877  0.0400
  343SOL    HW1 1028   2.590   0.532   1.432  0.6029 -0.8047  1.3511
  343SOL    HW2 1029   2.480   0.570   1.315 -2.9600  0.0849  1.2841
  344SOL     OW 1030   1.990   0.071   0.701 -0.0113 -0.3666  0.4922
  344SOL    HW1 1031   1.900   0.122   0.689 -0.4111  4.3973  1.9375
  344SOL    HW2 1032   2.065   0.132   0.663  0.6745  2.2947 -2.9471
  345SOL     OW 1033   0.652   2.974   2.341  0.2871 -0.3694 -0.1088
  345SOL    HW1 1034   0.593   3.008   2.413  0.6054 -0.3831 -1.7478
  345SOL    HW2 1035   0.675   3.051   2.282 -2.3748 -2.8718  1.5156
  346SOL     OW 1036   2.780   2.147   0.819 -0.5733  0.3681  0.5907
  346SOL    HW1 1037   2.736   2.224   0.868  0.2526  0.0095  0.0061
  346SOL    HW2 1038   2.712   2.088   0.771  0.7762  2.7494  0.8599
  347SOL     OW 1039   1.975   3.117   1.426  0.6968  0.3829  0.9161
  347SOL    HW1 1040   1.972   0.101   1.416 -0.0190  1.5168  2.5990
  347SOL    HW2 1041   1.937   3.088   1.517 -2.7338 -0.6416 -0.8762
  348SOL     OW 1042   0.969   1.156   1.543  0.2857  0.5525  0.5683
  348SOL    HW1 1043   0.909   1.137   1.626 -2.3948 -1.0611 -2.9204
  348SOL    HW2 1044   0.946   1.239   1.496  2.6779 -1.8543 -0.0001
  349SOL     OW 1045   2.183   0.519   1.628 -0.3202  0.2720  0.0589
  349SOL    HW1 1046   2.108   0.473   1.675  0.3640  0.1262 -0.1394
  349SOL    HW2 1047   2.271   0.509   1.678  0.5422 -0.8544 -1.3149
  350SOL     OW 1048   2.128   2.305   0.487 -0.3222 -0.0906 -0.2603
  350SOL    HW1 1049   2.098   2.391   0.522 -1.7879 -1.7276 -1.7964
  350SOL    HW2 1050   2.197   2.309   0.414 -1.3401 -1.2004  1.9077
  351SOL     OW 1051   1.079   0.541   2.770  0.5570  0.0670  0.3402
  351SOL    HW1 1052   1.085   0.438   2.802 -0.5882 -2.8798 -0.3396
  351SOL    HW2 1053   1.142   0.600   2.829  2.5695  0.7686 -0.5996
  352SOL     OW 1054   2.132   2.602   1.957  0.1815 -0.3213  0.2369
  352SOL    HW1 1055   2.155   2.505   1.955  2.2119 -0.0723 -1.4437
  352SOL    HW2 1056   2.067   2.627   1.881 -2.8758  1.9357 -0.3805
  353SOL     OW 1057   0.522   0.849   2.360  0.4528  0.3501 -0.1048
  353SOL    HW1 1058   0.511   0.904   2.279 -0.6546 -0.0176  2.9384
  353SOL    HW2 1059   0.543   0.751   2.331  1.9048 -0.5398 -0.6422
  354SOL     OW 1060   0.385   2.693   2.627 -0.0234 -0.3955 -0.4766
  354SOL    HW1 1061   0.407   2.663   2.533 -1.8397 -0.3599  0.1950
  354SOL    HW2 1062   0.320   2.624   2.667 -1.5256  0.2567  0.5957
  355SOL     OW 1063   2.042   2.675   1.031  0.3828  0.6217 -0.0789
  355SOL    HW1 1064   2.064   2.743   1.103  1.8655  0.9188  0.2733
  355SOL    HW2 1065   1.938   2.667   1.036 -0.4698 -1.7143  0.0462
  356SOL     OW 1066   2.616   0.747   0.344 -0.0213  0.1272  0.2569
  356SOL    HW1 1067   2.633   0.845   0.328 -1.7978 -0.2429  0.1738
  356SOL    HW2 1068   2.560   0.731   0.429  1.4020  0.7378  1.5026
  357SOL     OW 1069   0.057   0.144   1.739 -0.4963  0.0595  0.1748
  357SOL    HW1 1070   0.082   0.232   1.790  3.2081  2.4064 -0.0554
  357SOL    HW2 1071   0.026   0.069   1.803  0.4015  0.1356  0.6293
  358SOL     OW 1072   3.007   1.571   1.135 -0.4322 -0.0762 -0.0808
  358SOL    HW1 1073   3.012   1.554   1.034  1.1332 -0.6101  2.1972
  358SOL    HW2 1074   2.963   1.662   1.156 -2.4387  0.5067 -0.1901
  359SOL     OW 1075   2.868   0.203   2.859  0.1826  0.5157 -0.0478
  359SOL    HW1 1076   2.915   0.123   2.814 -0.5425  0.5982  0.5022
  359SOL    HW2 1077   2.864   0.194   2.958  1.3715 -1.6482  0.4693
  360SOL     OW 1078   1.206   0.992   1.093  0.4473 -0.1843  0.3072
  360SOL    HW1 1079   1.306   1.012   1.101 -2.6948  1.0976  1.1479
  360SOL    HW2 1080   1.182   0.903   1.140 -1.7498 -0.7349 -1.7540
  361SOL     OW 1081   2.746   2.719   1.331  0.1333 -0.3477 -0.1894
  361SOL    HW1 1082   2.776   2.712   1.428 -0.7888 -0.3657  0.7364
  361SOL    HW2 1083   2.701   2.633   1.300 -1.1754  1.0662  3.1122
  362SOL     OW 1084   1.237   0.178   0.876  0.1978 -0.4122 -0.1064
  362SOL    HW1 1085   1.321   0.231   0.895 -0.4886 -1.4753 -1.3468
  362SOL    HW2 1086   1.261   0.080   0.853  0.5918  1.0660  0.7700
  363SOL     OW 1087   1.997   1.567   0.720 -0.1483  0.1915 -0.5158
  363SOL    HW1 1088   2.091   1.531   0.712 -1.2054 -0.8133  1.7513
  363SOL    HW2 1089   1.939   1.489   0.692  4.6317  1.4429 -2.0677
  364SOL     OW 1090   0.861   0.813   1.783 -0.0249 -0.5543 -0.0761
  364SOL    HW1 1091   0.963   0.807   1.761  1.0995  0.6417 -1.4305
  364SOL    HW2 1092   0.814   0.781   1.697  3.1069  1.8968  1.4298
  365SOL     OW 1093   3.009   0.330   1.047 -0.0160 -0.4847 -0.3218
  365SOL    HW1 1094   3.099   0.320   1.093  1.1490  0.3118 -0.3411
  365SOL    HW2 1095   2.966   0.415   1.083  2.5952 -0.7219  1.8828
  366SOL     OW 1096   3.082   1.021   0.415  0.0410  0.3161  0.1164
  366SOL    HW1 1097   2.988   1.010   0.449  1.6584  0.0803 -2.7280
  366SOL    HW2 1098   3.120   1.113   0.432  0.4569  0.1347 -1.9438
  367SOL     OW 1099   2.301   2.026   2.312 -0.1340  0.4895 -0.2758
  367SOL    HW1 1100   2.260   2.000   2.401  2.0124 -0.0487  1.1662
  367SOL    HW2 1101   2.311   2.130   2.307  0.1309 -1.8348  1.4090
  368SOL     OW 1102   2.457   1.913   0.960 -0.5513 -0.2833  0.2551
  368SOL    HW1 1103   2.471   1.819   1.009  1.3480  0.1650  0.8336
  368SOL    HW2 1104   2.389   1.910   0.886  1.2273 -0.3463 -0.2646
  369SOL     OW 1105   2.190   0.313   2.840 -0.1953  0.2634  0.1960
  369SOL    HW1 1106   2.118   0.358   2.897  3.1302 -3.2155  0.9515
  369SOL    HW2 1107   2.238   0.233   2.890  1.5222 -1.5627  2.4717
  370SOL     OW 1108   0.730   0.397   1.239 -0.1873  0.5077  0.4921
  370SOL    HW1 1109   0.740   0.313   1.176  1.9225 -1.6665 -0.9844
  370SOL    HW2 1110   0.708   0.477   1.178  0.9792  1.6299 -2.2433
  371SOL     OW 1111   0.254   1.698   0.174  0.3256  0.1566 -0.0301
  371SOL    HW1 1112   0.255   1.670   0.076 -0.0175  0.1594 -1.1646
  371SOL    HW2 1113   0.349   1.724   0.200  0.2948  0.1998 -0.0930
  372SOL     OW 1114   0.853   0.565   2.293 -0.3614 -0.1724  0.4853
  372SOL    HW1 1115   0.916   0.487   2.312 -4.1308 -0.5100 -1.0349
  372SOL    HW2 1116   0.871   0.642   2.358 -0.3288  0.2743  0.8523
  373SOL     OW 1117   1.055   2.887   2.959 -0.2599  0.4625  0.2330
  373SOL    HW1 1118   1.038   2.949   3.039  1.9037  0.6887 -0.8886
  373SOL    HW2 1119   1.025   2.925   2.868 -0.7593  0.8566  1.8321
  374SOL     OW 1120   0.881   1.861   0.339 -0.1008 -0.1105 -0.3982
  374SOL    HW1 1121   0.964   1.900   0.387 -0.2052 -0.2509  0.7031
  374SOL    HW2 1122   0.892   1.762   0.309 -1.1972  0.1409 -0.1644
  375SOL     OW 1123   1.228   0.675   2.037  0.2035 -0.3354 -0.1982
  375SOL    HW1 1124   1.146   0.671   2.098  1.4033 -2.2644 -0.4377
  375SOL    HW2 1125   1.289   0.756   2.040 -1.3488 -1.5924 -0.8856
  376SOL     OW 1126   3.055   2.605   2.027  0.4032 -0.7447  0.0454
  376SOL    HW1 1127   2.976   2.610   2.088  1.6689 -0.1506 -0.4312
  376SOL    HW2 1128   0.003   2.676   2.051 -0.1639 -1.8440 -0.5265
  377SOL     OW 1129   2.705   1.659   2.968 -0.1253 -0.4899 -0.1439
  377SOL    HW1 1130   2.639   1.670   2.892 -2.4312 -0.9383 -1.0434
  377SOL    HW2 1131   2.699   1.560   3.004  0.8020  2.3072 -0.4421
  378SOL     OW 1132   2.360   0.151   2.979  0.4116 -0.2714 -0.3590
  378SOL    HW1 1133   2.338   0.065   3.026  0.1679  0.9305 -0.9183
  378SOL    HW2 1134   2.325   0.229   3.037  1.3296 -0.0665 -1.7848
  379SOL     OW 1135   1.753   0.805   0.625  0.1963  0.5717 -0.1108
  379SOL    HW1 1136   1.715   0.837   0.714  2.2063 -1.5534  3.4474
  379SOL    HW2 1137   1.782   0.711   0.642  3.0253  0.6538 -1.7247
  380SOL     OW 1138   2.548   2.158   1.651  0.1809  0.2055  0.4892
  380SOL    HW1 1139   2.515   2.198   1.738 -0.1324 -1.1415  0.4437
  380SOL    HW2 1140   2.522   2.057   1.646  1.7484  0.3643  2.0241
  381SOL     OW 1141   2.587   1.426   2.586  0.0389  0.2490 -0.0413
  381SOL    HW1 1142   2.637   1.477   2.515 -0.4946 -0.7509  0.4812
  381SOL    HW2 1143   2.496   1.388   2.547  1.0669 -2.0559  2.7947
  382SOL     OW 1144   2.845   2.596   2.580  0.0750 -0.5078  0.2244
  382SOL    HW1 1145   2.862   2.655   2.496  2.9721 -0.6143 -2.7336
  382SOL    HW2 1146   2.757   2.547   2.570  0.7478  0.4976 -0.3978
  383SOL     OW 1147   0.969   1.579   2.982 -0.6276 -0.0945 -0.4482
  383SOL    HW1 1148   0.956   1.677   2.994 -0.8281 -0.2824 -0.3275
  383SOL    HW2 1149   0.911   1.526   3.039  3.1637  2.5515 -0.9444
  384SOL     OW 1150   1.713   2.093   1.820  0.1558 -0.2217 -0.5908
  384SOL    HW1 1151   1.744   2.008   1.867 -1.4252 -0.1406  0.6205
  384SOL    HW2 1152   1.617   2.126   1.842 -2.0800  1.3383 -1.4126
  385SOL     OW 1153   1.673   2.791   0.572 -0.0706 -0.1603 -0.3011
  385SOL    HW1 1154   1.642   2.879   0.615 -0.6321 -2.4621  3.1952
  385SOL    HW2 1155   1.696   2.808   0.473 -1.8356  1.6112 -0.4434
  386SOL     OW 1156   1.904   1.461   0.364  0.0388 -0.1970  0.2212
  386SOL    HW1 1157   1.992   1.496   0.330 -0.1134 -1.3163  0.9067
  386SOL    HW2 1158   1.905   1.451   0.464  0.0883 -0.2524  0.7671
  387SOL     OW 1159   3.011   2.101   1.502  0.1098 -0.3772 -0.5007
  387SOL    HW1 1160   3.000   2.089   1.606 -0.1112  0.6705  2.9790
  387SOL    HW2 1161   2.943   2.171   1.474  0.7462 -1.6555 -0.7916
  388SOL     OW 1162   3.052   1.005   1.667  0.0270  0.7012  0.0027
  388SOL    HW1 1163   3.070   1.092   1.717 -0.4315  2.6074  1.9385
  388SOL    HW2 1164   0.002   0.930   1.678  0.4454 -0.0852  2.3514
  389SOL     OW 1165   1.680   0.272   3.052 -0.5776 -0.0705  0.9947
  389SOL    HW1 1166   1.663   0.176   3.028 -0.1056 -0.3610 -1.1041
  389SOL    HW2 1167   1.669   0.291   0.028  1.2719 -1.6476  0.9854
  390SOL     OW 1168   0.932   1.865   2.985 -0.5495  1.2765  0.6128
  390SOL    HW1 1169   0.886   1.914   3.064  1.3917  2.9958  1.0395
  390SOL    HW2 1170   1.024   1.903   2.972 -1.0516 -0.5011  2.3113
  391SOL     OW 1171   1.213   2.354   0.147 -0.3732  0.2768  0.1973
  391SOL    HW1 1172   1.302   2.349   0.191  0.6856  0.9005 -0.4750
  391SOL    HW2 1173   1.204   2.435   0.087  2.0657 -0.1629  1.3092
  392SOL     OW 1174   0.134   2.428   2.207 -0.0770 -0.9080 -0.1174
  392SOL    HW1 1175   0.137   2.525   2.172  1.4761  3.1493 -1.0748
  392SOL    HW2 1176   0.127   2.432   2.305 -1.9937  0.2593 -2.4672
  393SOL     OW 1177   1.510   1.974   0.508 -0.2256 -0.1220 -0.1758
  393SOL    HW1 1178   1.549   2.036   0.573 -1.4077 -1.9328 -0.6782
  393SOL    HW2 1179   1.579   1.917   0.454 -0.8335 -2.2717  0.0595
  394SOL     OW 1180   0.436   0.375   2.399  0.4887 -0.2359 -0.5356
  394SOL    HW1 1181   0.503   0.433   2.349 -0.3230 -0.3791 -0.7696
  394SOL    HW2 1182   0.421   0.417   2.494  2.9691  0.5945 -0.9417
  395SOL     OW 1183   0.625   1.242   1.498  0.1931  0.4261 -0.0315
  395SOL    HW1 1184   0.716   1.292   1.488  0.7261  2.6998 -0.0059
  395SOL    HW2 1185   0.567   1.265   1.418 -1.8959  3.9340  1.0311
  396SOL     OW 1186   1.936   1.191   2.575 -0.0173 -0.2829 -0.5062
  396SOL    HW1 1187   1.988   1.167   2.492  1.1274 -0.8281  0.7976
  396SOL    HW2 1188   1.989   1.164   2.659  2.1126 -2.2289 -0.0688
  397SOL     OW 1189   0.595   0.402   0.093  0.4067  0.7527  0.1562
  397SOL    HW1 1190   0.599   0.484   0.032 -0.6853  0.0096  2.0645
  397SOL    HW2 1191   0.500   0.364   0.103  0.2718  2.3961 -0.3296
  398SOL     OW 1192   1.145   2.566   0.008 -0.0139 -0.4485 -0.2283
  398SOL    HW1 1193   1.056   2.529   3.112 -0.1802  3.0915  2.1015
  398SOL    HW2 1194   1.142   2.635   0.081 -0.0475  3.0540  1.4352
  399SOL     OW 1195   1.905   2.234   2.026 -0.2414 -0.0986  0.4341
  399SOL    HW1 1196   1.842   2.161   2.000  1.0000 -0.2943 -0.9080
  399SOL    HW2 1197   1.865   2.323   2.005  0.4633 -1.0303  0.8396
  400SOL     OW 1198   2.189   1.211   1.373 -0.7656  0.0700  0.0530
  400SOL    HW1 1199   2.100   1.266   1.384 -3.3466 -1.2428  0.7134
  400SOL    HW2 1200   2.274   1.264   1.367 -3.3299 -1.2020 -0.2810
  401SOL     OW 1201   1.475   1.250   0.967  0.5634 -0.0180 -0.3181
  401SOL    HW1 1202   1.375   1.254   0.939  1.2342 -1.2991 -0.7113
  401SOL    HW2 1203   1.501   1.154   0.998  0.3298  0.2570 -1.2309
  402SOL     OW 1204   3.094   2.920   2.440  0.0809 -0.3452  0.8137
  402SOL    HW1 1205   3.098   2.879   2.531 -1.2171 -0.5544  0.4144
  402SOL    HW2 1206   0.062   2.929   2.390 -0.1651 -0.4178 -1.4186
  403SOL     OW 1207   2.465   1.903   1.486 -0.1740 -0.4691  0.3825
  403SOL    HW1 1208   2.542   1.838   1.501  0.1551  1.2534 -1.5003
  403SOL    HW2 1209   2.483   1.954   1.403 -0.2104 -1.7092  1.1807
  404SOL     OW 1210   2.023   1.811   1.488 -0.8047 -0.2139  0.5598
  404SOL    HW1 1211   2.067   1.840   1.399 -1.3158 -0.4740  2.1579
  404SOL    HW2 1212   1.949   1.740   1.476  1.2804  1.4793 -1.2529
  405SOL     OW 1213   2.649   0.440   2.780 -0.0648 -0.2487  0.3892
  405SOL    HW1 1214   2.646   0.363   2.849 -1.6413 -0.6270  2.9602
  405SOL    HW2 1215   2.734   0.497   2.792  1.1691  0.7283 -0.7199
  406SOL     OW 1216   0.883   1.595   2.421 -0.2524  0.1080 -0.0951
  406SOL    HW1 1217   0.827   1.679   2.435  0.0118 -1.8129 -1.7403
  406SOL    HW2 1218   0.853   1.534   2.497 -1.5202 -0.4129  1.2738
  407SOL     OW 1219   1.972   2.645   0.303 -0.0594 -0.0588  0.0399
  407SOL    HW1 1220   1.965   2.744   0.326  1.6782  1.2295 -0.9715
  407SOL    HW2 1221   1.889   2.587   0.291  0.7859  1.3187  0.3714
  408SOL     OW 1222   0.098   2.970   0.865 -0.0012  0.2165  0.3643
  408SOL    HW1 1223   0.076   3.054   0.814 -0.4750  0.0582  0.1912
  408SOL    HW2 1224   0.015   2.911   0.856 -0.4350  0.9503 -2.4129
  409SOL     OW 1225   2.262   1.876   0.771  0.2650 -0.1953  0.8827
  409SOL    HW1 1226   2.188   1.917   0.826  1.6213 -1.2484  5.3054
  409SOL    HW2 1227   2.257   1.895   0.670  0.5946 -1.7814 -1.6062
  410SOL     OW 1228   2.158   2.396   2.771  0.5810  0.4088  0.0443
  410SOL    HW1 1229   2.205   2.399   2.858  0.2050 -0.8091 -2.6706
  410SOL    HW2 1230   2.208   2.328   2.712  1.2929  1.2800  0.0019
  411SOL     OW 1231   0.248   0.010   0.501 -0.0944 -0.1124  0.7308
  411SOL    HW1 1232   0.279   0.025   0.404 -0.2718 -0.2643 -0.0356
  411SOL    HW2 1233   0.328   3.087   0.546 -2.8708 -0.1311 -0.4912
  412SOL     OW 1234   1.373   2.658   0.325 -0.0349  0.1677  0.4489
  412SOL    HW1 1235   1.362   2.759   0.303 -2.2640 -0.3395 -2.0681
  412SOL    HW2 1236   1.415   2.645   0.418  0.4843  0.3826 -2.0732
  413SOL     OW 1237   2.085   0.527   2.380 -0.4763 -0.0178 -0.0156
  413SOL    HW1 1238   2.044   0.610   2.335 -0.1688 -1.1060  0.3499
  413SOL    HW2 1239   2.033   0.497   2.460 -2.7769  0.3354  0.7655
  414SOL     OW 1240   0.127   0.422   0.695 -0.4372  0.8810  0.1616
  414SOL    HW1 1241   0.113   0.335   0.651 -1.8743  1.0965  0.5452
  414SOL    HW2 1242   0.211   0.426   0.753  0.1238 -1.8862  0.8777
  415SOL     OW 1243   0.243   1.354   1.336  0.2442  0.6902  0.3404
  415SOL    HW1 1244   0.183   1.288   1.287  1.7055 -0.9926  2.7110
  415SOL    HW2 1245   0.242   1.324   1.430  1.4624 -1.1182 -0.8769
  416SOL     OW 1246   0.138   2.943   0.244 -0.0603 -0.5061  0.5253
  416SOL    HW1 1247   0.175   3.039   0.252  0.4599  0.0950  2.7693
  416SOL    HW2 1248   0.177   2.891   0.317 -0.3889  1.7106 -1.9262
  417SOL     OW 1249   2.008   0.392   0.812 -0.1209  0.3730  0.4572
  417SOL    HW1 1250   2.056   0.328   0.748  0.7403  2.8272 -1.0351
  417SOL    HW2 1251   2.072   0.471   0.837  1.4062  1.5822 -0.2122
  418SOL     OW 1252   0.413   0.515   2.615 -0.1779 -0.2706 -0.5375
  418SOL    HW1 1253   0.508   0.547   2.624 -0.7701  1.1212  1.8255
  418SOL    HW2 1254   0.353   0.584   2.655 -1.2594  0.4777  0.0081
  419SOL     OW 1255   0.408   0.933   0.711  0.2925  0.0446  0.3994
  419SOL    HW1 1256   0.418   0.845   0.662 -0.9590  0.2519  1.1606
  419SOL    HW2 1257   0.450   0.939   0.805  0.4870  3.2881  3.0355
  420SOL     OW 1258   2.031   2.063   0.817 -0.5774  0.1977 -0.3709
  420SOL    HW1 1259   2.050   2.045   0.720 -0.6844 -1.8911 -0.0914
  420SOL    HW2 1260   2.008   1.969   0.862  0.4858 -0.6147 -1.0898
  421SOL     OW 1261   1.876   2.074   2.752  0.4541 -0.0908  0.4153
  421SOL    HW1 1262   1.874   2.134   2.832 -1.4008 -2.7817 -0.0053
  421SOL    HW2 1263   1.884   1.980   2.777 -0.0242  2.7270 -1.0915
  422SOL     OW 1264   2.930   0.477   0.085  0.1262 -0.5838 -0.5862
  422SOL    HW1 1265   2.886   0.563   0.046 -0.5258  2.1770 -2.5076
  422SOL    HW2 1266   2.884   0.441   0.168  0.9091  0.6691  0.0902
  423SOL     OW 1267   1.649   1.883   0.854  0.6307 -0.5318 -0.1376
  423SOL    HW1 1268   1.692   1.915   0.939  0.9383  0.3560 -2.6042
  423SOL    HW2 1269   1.690   1.805   0.809  1.2494  0.9566  0.3267
  424SOL     OW 1270   0.276   1.343   1.648 -0.5179 -0.4081  0.1361
  424SOL    HW1 1271   0.309   1.438   1.678  1.9673 -3.1719 -1.4183
  424SOL    HW2 1272   0.188   1.328   1.698  0.0798 -1.5410  1.6867
  425SOL     OW 1273   2.577   2.665   1.707  0.0219 -0.3980  0.1757
  425SOL    HW1 1274   2.579   2.568   1.746  0.1345  0.3384  1.7875
  425SOL    HW2 1275   2.503   2.720   1.749 -0.9474 -1.0193  1.2410
  426SOL     OW 1276   1.717   2.902   0.313  0.1350 -0.2940 -0.2370
  426SOL    HW1 1277   1.817   2.900   0.324 -1.3371  1.4084  0.7429
  426SOL    HW2 1278   1.697   2.866   0.220  0.3749 -0.4984 -0.3252
  427SOL     OW 1279   0.224   0.703   2.748  0.6494 -0.3049 -0.0209
  427SOL    HW1 1280   0.296   0.760   2.797 -1.3241  1.8416 -1.2621
  427SOL    HW2 1281   0.140   0.690   2.807 -2.6016 -0.9969 -0.8150
  428SOL     OW 1282   2.029   0.972   0.072 -0.5067 -0.6829  0.4158
  428SOL    HW1 1283   1.984   1.057   0.102 -0.0860  0.9883  1.6242
  428SOL    HW2 1284   2.032   0.970   3.093  2.6013  0.9720  0.3898
  429SOL     OW 1285   2.969   0.137   0.429 -0.0045  0.5349 -0.2105
  429SOL    HW1 1286   2.926   0.080   0.498  0.4917 -2.1623 -1.1931
  429SOL    HW2 1287   3.063   0.166   0.463 -0.8943 -0.0045 -0.0611
  430SOL     OW 1288   1.119   3.055   1.948  0.2318  0.2186 -0.4751
  430SOL    HW1 1289   1.036   3.005   1.919  1.5149  0.8002 -0.2265
  430SOL    HW2 1290   1.193   2.982   1.962  1.0370 -0.4946  2.5231
  431SOL     OW 1291   0.049   1.825   1.168  0.0058 -0.6040  0.4519
  431SOL    HW1 1292   3.096   1.856   1.227  0.9144 -1.4560  1.4567
  431SOL    HW2 1293   0.090   1.737   1.197  1.4484 -0.9906 -2.6253
  432SOL     OW 1294   2.234   2.954   1.649 -0.3525  0.6111  0.3657
  432SOL    HW1 1295   2.222   3.032   1.714  0.9043  1.3175 -0.5110
  432SOL    HW2 1296   2.243   2.986   1.554 -0.4265 -1.4480 -1.8276
  433SOL     OW 1297   1.056   2.125   0.218 -0.3754 -0.3600  0.2990
  433SOL    HW1 1298   1.072   2.080   0.311  2.1199  0.1450  0.5112
  433SOL    HW2 1299   1.124   2.203   0.205  0.2932  0.4736 -0.4036
  434SOL     OW 1300   2.965   2.307   2.403 -0.4630  0.4822 -0.2156
  434SOL    HW1 1301   3.043   2.365   2.412 -1.6802  0.7512 -0.4843
  434SOL    HW2 1302   2.883   2.354   2.436 -0.5803  0.7109  1.5470
  435SOL     OW 1303   0.471   0.676   0.603 -0.1661  0.1883  1.0380
  435SOL    HW1 1304   0.441   0.633   0.687  1.6157 -0.9263  0.1005
  435SOL    HW2 1305   0.550   0.631   0.560  0.9389  0.8113 -0.9293
  436SOL     OW 1306   0.409   2.519   1.870  0.0678 -0.9361  0.5665
  436SOL    HW1 1307   0.330   2.460   1.833 -5.7590 -1.0846 -1.0579
  436SOL    HW2 1308   0.493   2.482   1.834 -3.6708 -0.5668 -0.9817
  437SOL     OW 1309   1.111   1.919   1.696  0.0385  0.2340  0.1181
  437SOL    HW1 1310   1.114   2.020   1.683  0.3389 -3.1119  2.0652
  437SOL    HW2 1311   1.176   1.875   1.627  1.4863 -0.3249 -1.9043
  438SOL     OW 1312   0.076   2.296   0.493 -0.0769  0.2563  0.3430
  438SOL    HW1 1313   0.122   2.206   0.463  0.3390  0.0135 -1.9774
  438SOL    HW2 1314   3.116   2.283   0.556  0.4257  1.1660  1.1078
  439SOL     OW 1315   0.121   0.242   1.173 -0.0648  0.4874  0.0600
  439SOL    HW1 1316   0.116   0.153   1.222 -0.6651 -3.9406 -1.6836
  439SOL    HW2 1317   0.197   0.305   1.200 -1.9363 -0.4520  0.2142
  440SOL     OW 1318   2.774   2.606   2.147 -0.3530 -0.6026 -0.2952
  440SOL    HW1 1319   2.760   2.527   2.082  0.1699  1.0817  0.2534
  440SOL    HW2 1320   2.685   2.652   2.167 -3.0629  0.6294 -2.4550
  441SOL     OW 1321   2.969   0.526   1.756  0.5346  0.0597  0.3511
  441SOL    HW1 1322   2.896   0.460   1.725 -1.3567 -0.8541  0.5029
  441SOL    HW2 1323   2.922   0.610   1.782 -2.8771  2.4070 -2.2421
  442SOL     OW 1324   1.849   2.392   0.018  0.1393 -0.2483 -0.1720
  442SOL    HW1 1325   1.923   2.447   3.103 -4.4517 -0.2340  2.5024
  442SOL    HW2 1326   1.778   2.449   0.059 -2.0737 -0.5462 -0.6826
  443SOL     OW 1327   0.447   0.977   3.098  0.1707  0.7840 -0.2032
  443SOL    HW1 1328   0.445   0.909   0.053  1.4522 -1.0846  2.5630
  443SOL    HW2 1329   0.443   1.071   0.018  3.1752  0.0602  2.1835
  444SOL     OW 1330   1.645   1.638   2.436  0.1837 -0.1815  0.0214
  444SOL    HW1 1331   1.685   1.546   2.438 -0.3611 -0.5904  1.5384
  444SOL    HW2 1332   1.622   1.653   2.333 -1.2834 -0.7066 -1.7802
  445SOL     OW 1333   0.243   2.498   1.120  0.4493 -0.2955 -0.2624
  445SOL    HW1 1334   0.264   2.595   1.133  1.1943 -1.6289  1.7998
  445SOL    HW2 1335   0.293   2.460   1.041  1.5742  0.6460  0.3916
  446SOL     OW 1336   2.333   1.586   1.529 -0.6473 -0.3290 -0.3050
  446SOL    HW1 1337   2.409   1.517   1.539  0.0745  0.1767  0.9092
  446SOL    HW2 1338   2.303   1.610   1.431 -2.3149 -0.1173  0.0413
  447SOL     OW 1339   0.255   0.614   0.056 -0.3353 -0.5427 -0.4391
  447SOL    HW1 1340   0.214   0.694   0.103 -1.2957  0.9301  0.9048
  447SOL    HW2 1341   0.191   0.585   3.105 -0.5112  1.7128 -0.9560
  448SOL     OW 1342   1.434   2.236   1.885  0.0798  0.0288 -0.3873
  448SOL    HW1 1343   1.437   2.183   1.798  0.4347 -0.8814  0.1956
  448SOL    HW2 1344   1.495   2.318   1.883 -0.5587 -0.5562  2.1310
  449SOL     OW 1345   1.132   1.224   0.441 -0.4100  0.2033 -0.1125
  449SOL    HW1 1346   1.106   1.127   0.418 -0.1121  0.0448  0.8078
  449SOL    HW2 1347   1.192   1.270   0.371 -1.4047  0.3131  0.1616
  450SOL     OW 1348   2.978   2.026   1.778  0.1619 -0.0382 -0.4240
  450SOL    HW1 1349   3.014   1.948   1.729 -0.4864  0.6798 -2.2092
  450SOL    HW2 1350   3.045   2.052   1.855  1.4121 -0.2935 -1.2140
  451SOL     OW 1351   2.859   1.256   2.874 -0.1658 -0.2958  0.1793
  451SOL    HW1 1352   2.925   1.329   2.848  2.0009 -0.6027 -0.1246
  451SOL    HW2 1353   2.911   1.190   2.931 -1.3657  0.7453 -0.0407
  452SOL     OW 1354   1.522   0.714   1.089 -0.0188 -0.1627 -0.1012
  452SOL    HW1 1355   1.451   0.643   1.095  0.6568 -1.6461 -2.1815
  452SOL    HW2 1356   1.577   0.717   1.177 -0.0664 -2.7297  0.9245
  453SOL     OW 1357   1.645   1.016   1.305  0.1325 -0.1511  0.1675
  453SOL    HW1 1358   1.675   0.920   1.319  1.5505 -2.8626  0.0888
  453SOL    HW2 1359   1.639   1.065   1.393  1.1118  1.4928 -1.9245
  454SOL     OW 1360   0.060   0.803   0.578 -0.1197 -0.3476 -0.0524
  454SOL    HW1 1361   3.117   0.720   0.593  1.9140  1.2632 -1.7251
  454SOL    HW2 1362   0.023   0.867   0.509  0.7817  1.3180 -1.3552
  455SOL     OW 1363   2.431   2.806   1.044  0.1743  0.1288 -0.3697
  455SOL    HW1 1364   2.528   2.776   1.032  0.9365 -1.9172 -1.7019
  455SOL    HW2 1365   2.375   2.780   0.963  1.1405 -1.0381  1.7586
  456SOL     OW 1366   0.400   2.741   1.136 -0.5058  0.2078 -0.3841
  456SOL    HW1 1367   0.434   2.725   1.234 -0.1397 -2.1432  1.4636
  456SOL    HW2 1368   0.348   2.827   1.121  1.0649  0.0982 -0.7826
  457SOL     OW 1369   1.728   0.129   0.604  0.7329 -0.1673  0.0270
  457SOL    HW1 1370   1.674   0.049   0.638  1.2191  0.6303  0.8585
  457SOL    HW2 1371   1.734   0.130   0.502 -0.8797  0.2355  1.2544
  458SOL     OW 1372   2.568   0.323   0.947  0.3411 -0.1222  0.4568
  458SOL    HW1 1373   2.567   0.243   0.874 -2.9463 -3.1165 -2.2584
  458SOL    HW2 1374   2.566   0.277   1.035 -0.2749 -1.0065 -1.1523
  459SOL     OW 1375   2.134   0.622   2.971 -0.5540 -0.4497  0.3698
  459SOL    HW1 1376   2.092   0.647   2.881  2.2671  0.3897  0.5511
  459SOL    HW2 1377   2.231   0.587   2.952  0.8984 -0.0619 -2.4736
  460SOL     OW 1378   2.600   2.392   2.843  0.1413  0.4025  0.5026
  460SOL    HW1 1379   2.576   2.433   2.753 -1.2268 -0.0643 -2.0259
  460SOL    HW2 1380   2.663   2.451   2.899  2.4064 -0.7003 -2.4391
  461SOL     OW 1381   0.635   1.787   0.413 -0.9060  0.3598  0.0348
  461SOL    HW1 1382   0.731   1.826   0.398  0.5883  1.4062 -3.2220
  461SOL    HW2 1383   0.593   1.757   0.322  1.5232  1.4684 -1.4659
  462SOL     OW 1384   2.346   2.344   0.755  0.5503  0.2457  0.0544
  462SOL    HW1 1385   2.258   2.339   0.811  0.8277 -0.6362 -1.6140
  462SOL    HW2 1386   2.345   2.437   0.706  1.3930  3.5405  1.0824
  463SOL     OW 1387   3.026   0.569   0.625 -0.2908 -0.3427  0.7972
  463SOL    HW1 1388   2.937   0.539   0.660  0.0207 -2.1948  0.3461
  463SOL    HW2 1389   3.102   0.504   0.651 -1.5070 -0.9350  1.5762
  464SOL     OW 1390   1.143   2.913   0.659  0.2824 -0.3712  0.3009
  464SOL    HW1 1391   1.051   2.950   0.657  0.2594 -0.0385 -1.5803
  464SOL    HW2 1392   1.143   2.813   0.657  0.0999 -0.3935  2.2882
  465SOL     OW 1393   2.336   0.995   0.473  0.7713 -0.4282 -0.0026
  465SOL    HW1 1394   2.273   0.945   0.536  0.0054 -2.9518 -1.4804
  465SOL    HW2 1395   2.318   0.975   0.376 -0.4032  0.5482  2.9422
  466SOL     OW 1396   2.568   3.023   2.855  0.2920  0.0136  0.1391
  466SOL    HW1 1397   2.502   3.079   2.799 -0.3460 -2.0101  0.8455
  466SOL    HW2 1398   2.546   3.019   2.955  1.8942 -2.7383  2.0400
  467SOL     OW 1399   1.015   0.932   1.401 -0.0001 -0.2891 -0.1296
  467SOL    HW1 1400   1.032   1.004   1.472 -1.3196  2.3681  0.0832
  467SOL    HW2 1401   1.092   0.871   1.384 -0.3446  0.7058  1.5889
  468SOL     OW 1402   0.261   0.584   2.314 -0.0278 -0.2148  0.2391
  468SOL    HW1 1403   0.343   0.571   2.375  2.5575 -0.9517  1.1064
  468SOL    HW2 1404   0.209   0.668   2.344 -2.7143  0.7319  0.8613
  469SOL     OW 1405   0.694   3.012   2.836 -0.0290 -0.0867 -0.1495
  469SOL    HW1 1406   0.656   2.917   2.830 -0.2181 -1.1517 -2.3037
  469SOL    HW2 1407   0.795   3.002   2.815  2.4697  1.4332  0.6368
  470SOL     OW 1408   2.151   1.144   2.811 -0.8317  0.2371 -0.4185
  470SOL    HW1 1409   2.176   1.227   2.863 -3.3252 -1.0389 -0.1283
  470SOL    HW2 1410   2.215   1.145   2.728  3.1336  0.5964 -1.3457
  471SOL     OW 1411   2.848   1.254   2.441 -0.1130  0.0745 -0.1785
  471SOL    HW1 1412   2.887   1.349   2.466 -1.7297  2.5541  0.5454
  471SOL    HW2 1413   2.806   1.212   2.523 -1.9581  0.5278 -0.2867
  472SOL     OW 1414   0.445   2.379   0.290 -0.2827  0.5773  0.5573
  472SOL    HW1 1415   0.406   2.471   0.314 -1.1020  1.5793  0.8243
  472SOL    HW2 1416   0.545   2.392   0.272  0.2699 -0.6184  0.4150
  473SOL     OW 1417   0.640   0.211   3.003  0.3187 -0.1337  0.2027
  473SOL    HW1 1418   0.555   0.155   3.009  1.7910 -1.8434 -0.1348
  473SOL    HW2 1419   0.630   0.291   3.067  0.9048  2.8119  1.3314
  474SOL     OW 1420   1.521   0.613   2.396  0.0580  0.4366 -0.7320
  474SOL    HW1 1421   1.556   0.643   2.310 -0.0245  0.3765  0.9168
  474SOL    HW2 1422   1.523   0.512   2.411  1.3503  1.1359  1.4265
  475SOL     OW 1423   0.811   2.632   0.130 -0.0102 -0.3805  0.0183
  475SOL    HW1 1424   0.802   2.557   0.196  2.2545  1.3679 -1.2693
  475SOL    HW2 1425   0.902   2.674   0.123 -3.1323  2.1039  0.0199
  476SOL     OW 1426   0.471   0.961   1.007 -0.1887 -0.3360  0.1606
  476SOL    HW1 1427   0.559   0.919   1.041  0.6220  0.5136 -2.0483
  476SOL    HW2 1428   0.495   1.062   0.993  1.4057 -0.8332  2.6958
  477SOL     OW 1429   1.752   2.058   1.353  0.5790 -0.2742 -0.3727
  477SOL    HW1 1430   1.668   2.122   1.371 -1.6564  0.2029  0.2252
  477SOL    HW2 1431   1.772   1.991   1.432 -1.4617 -0.0789  2.7108
  478SOL     OW 1432   0.765   1.439   2.213 -0.2834  0.2672 -0.4684
  478SOL    HW1 1433   0.831   1.378   2.170 -0.8269  2.3827  1.5136
  478SOL    HW2 1434   0.810   1.483   2.296  1.8923  0.3681  3.4866
  479SOL     OW 1435   0.281   2.962   1.087 -0.1867  0.2265  0.6301
  479SOL    HW1 1436   0.241   3.010   1.161  3.2268 -2.4070 -0.8901
  479SOL    HW2 1437   0.215   2.939   1.012 -0.2121  1.1742 -0.2889
  480SOL     OW 1438   2.746   2.679   0.250  0.0669 -0.4062  0.3679
  480SOL    HW1 1439   2.715   2.754   0.311  1.8535  2.7743 -1.2814
  480SOL    HW2 1440   2.730   2.710   0.157  0.2428  1.1574 -0.6592
  481SOL     OW 1441   2.848   0.133   1.173 -0.0054 -0.1753  0.1071
  481SOL    HW1 1442   2.919   0.195   1.133 -0.1163 -0.3142 -0.5519
  481SOL    HW2 1443   2.874   0.076   1.251 -0.6399  1.3007 -1.1153
  482SOL     OW 1444   1.581   2.444   1.884 -0.6850  0.7681 -0.4673
  482SOL    HW1 1445   1.676   2.450   1.842  1.7484 -0.0221 -0.9637
  482SOL    HW2 1446   1.518   2.506   1.830  4.6278  1.9273 -0.8666
  483SOL     OW 1447   0.613   1.674   2.747 -0.2224  0.3514  0.1743
  483SOL    HW1 1448   0.707   1.634   2.732 -1.0584 -0.6575  2.7896
  483SOL    HW2 1449   0.552   1.638   2.676 -0.1534  1.8638 -0.9893
  484SOL     OW 1450   1.105   1.553   2.274  0.7541  0.0764 -0.2054
  484SOL    HW1 1451   1.161   1.485   2.323 -1.5876 -0.2185  0.5742
  484SOL    HW2 1452   1.011   1.567   2.319 -1.8450  0.5279  1.5512
  485SOL     OW 1453   2.888   0.165   0.016  0.3030 -0.3478  0.3035
  485SOL    HW1 1454   2.890   0.263   0.056  0.0438 -0.7006  1.9907
  485SOL    HW2 1455   2.958   0.112   0.066  3.3478 -0.0084 -0.6831
  486SOL     OW 1456   1.564   3.025   0.652  0.4325 -0.5361 -0.7113
  486SOL    HW1 1457   1.483   3.059   0.604 -0.8608 -1.5637 -0.6328
  486SOL    HW2 1458   1.543   2.993   0.748 -0.7616  1.3483 -1.1264
  487SOL     OW 1459   1.192   2.477   1.019 -0.0278 -0.2076 -0.1219
  487SOL    HW1 1460   1.151   2.385   1.001  0.1365 -1.5902  0.5193
  487SOL    HW2 1461   1.163   2.546   0.946 -1.3068  2.4118 -2.1647
  488SOL     OW 1462   2.193   1.244   0.212  0.5995 -0.2478 -0.5652
  488SOL    HW1 1463   2.208   1.341   0.224  1.2293 -2.8740 -2.8613
  488SOL    HW2 1464   2.099   1.218   0.192  4.8555  0.3518  4.0605
  489SOL     OW 1465   1.459   2.790   1.334 -0.1280  0.0753 -0.0174
  489SOL    HW1 1466   1.371   2.789   1.386  0.1999 -1.8950 -1.5776
  489SOL    HW2 1467   1.524   2.868   1.357  1.7703  3.1655  0.2822
  490SOL     OW 1468   0.717   0.944   0.279 -0.1718 -0.1048  0.0930
  490SOL    HW1 1469   0.667   1.011   0.337  1.3188 -1.0265 -2.3943
  490SOL    HW2 1470   0.726   0.850   0.315  0.6144 -2.0785 -2.8831
  491SOL     OW 1471   0.860   3.027   0.970 -0.5897 -0.2280  0.3465
  491SOL    HW1 1472   0.952   3.020   1.018 -0.2309 -1.9454  0.0496
  491SOL    HW2 1473   0.785   3.004   1.037 -0.6599  0.5050  1.0935
  492SOL     OW 1474   1.400   1.515   2.262 -0.5896 -0.6152  0.0327
  492SOL    HW1 1475   1.430   1.605   2.221 -0.7629  2.9650  3.7177
  492SOL    HW2 1476   1.406   1.439   2.197 -2.3335  1.8044  0.9338
  493SOL     OW 1477   0.324   2.622   0.373  0.0795 -0.5844  0.4775
  493SOL    HW1 1478   0.248   2.556   0.344 -0.1871 -0.0942  0.0214
  493SOL    HW2 1479   0.281   2.706   0.417  1.0773  1.1281 -1.8394
  494SOL     OW 1480   2.191   1.871   0.283 -0.0720 -0.1087 -0.4505
  494SOL    HW1 1481   2.287   1.841   0.296 -1.1503  2.2490 -0.8057
  494SOL    HW2 1482   2.159   1.839   0.192  0.0095 -0.3549  2.5961
  495SOL     OW 1483   2.998   1.109   3.038 -0.0507  0.4567  0.6055
  495SOL    HW1 1484   3.089   1.064   3.010  0.9003 -1.5984  0.1201
  495SOL    HW2 1485   2.928   1.051   3.087 -0.7503  1.9393  2.2559
  496SOL     OW 1486   2.561   3.027   1.851  0.1093  0.4811  0.2039
  496SOL    HW1 1487   2.500   2.952   1.870 -0.9869  1.1950 -1.9423
  496SOL    HW2 1488   2.533   3.071   1.762 -1.0499 -0.4065 -2.2277
  497SOL     OW 1489   2.820   0.984   0.499 -0.1051  0.0112 -0.0918
  497SOL    HW1 1490   2.770   0.955   0.580  1.8780 -0.4574 -1.6280
  497SOL    HW2 1491   2.757   1.001   0.420  2.5479 -1.0567 -1.9297
  498SOL     OW 1492   0.100   2.162   2.612  0.2649 -0.0777  0.0153
  498SOL    HW1 1493   0.037   2.147   2.687  0.0872 -1.1841  0.8518
  498SOL    HW2 1494   0.102   2.261   2.594 -0.4678  1.1326  0.8098
  499SOL     OW 1495   0.755   2.152   0.445  0.7915  0.1779 -0.1071
  499SOL    HW1 1496   0.796   2.245   0.448 -2.5064 -0.4450  0.0895
  499SOL    HW2 1497   0.817   2.080   0.484  0.8239 -1.7229  2.4743
  500SOL     OW 1498   0.863   0.144   2.553 -0.0499 -0.5159  0.1568
  500SOL    HW1 1499   0.857   0.209   2.634 -0.2823 -0.5812  1.7573
  500SOL    HW2 1500   0.772   0.136   2.508  3.0185  0.6042 -0.0554
  501SOL     OW 1501   1.253   0.032   1.679  0.0887 -0.1456  0.7398
  501SOL    HW1 1502   1.318   3.085   1.726 -1.7457  1.2438 -0.1944
  501SOL    HW2 1503   1.280   0.128   1.689  0.5003  0.9186  0.4922
  502SOL     OW 1504   3.047   0.382   2.066  0.2924 -0.2954 -0.1071
  502SOL    HW1 1505   0.010   0.375   2.002 -1.0508  0.9133 -0.8250
  502SOL    HW2 1506   3.070   0.449   2.137  0.8600 -1.2110  1.4589
  503SOL     OW 1507   2.458   1.723   2.336 -1.0407 -0.3344 -0.2592
  503SOL    HW1 1508   2.517   1.767   2.262  2.7830 -0.0011 -1.5259
  503SOL    HW2 1509   2.425   1.791   2.403  0.2238 -0.2820  0.7303
  504SOL     OW 1510   1.607   0.754   1.898  0.3984  0.4273 -0.5081
  504SOL    HW1 1511   1.590   0.664   1.862  0.3901  1.1208  0.8751
  504SOL    HW2 1512   1.642   0.817   1.828 -1.8540 -0.4970 -1.1282
  505SOL     OW 1513   2.869   0.813   1.656  0.0193  0.5939  0.1076
  505SOL    HW1 1514   2.958   0.868   1.650 -1.3602  1.2308 -0.4571
  505SOL    HW2 1515   2.871   0.742   1.583  3.3395 -0.8417  1.7932
  506SOL     OW 1516   0.553   1.382   2.477 -0.2337 -0.1567  0.0055
  506SOL    HW1 1517   0.460   1.341   2.466 -1.9361  1.2938 -0.1864
  506SOL    HW2 1518   0.543   1.482   2.475  0.6505 -1.5787 -0.1809
  507SOL     OW 1519   0.279   2.912   2.360  0.3771 -0.0432 -0.0918
  507SOL    HW1 1520   0.307   2.990   2.300 -0.9346 -1.1503 -0.1494
  507SOL    HW2 1521   0.250   2.828   2.307  0.6269 -0.8093  0.1976
  508SOL     OW 1522   1.255   0.817   1.291 -0.5328 -0.0929  0.2243
  508SOL    HW1 1523   1.343   0.852   1.343  3.2907  1.2509  0.6811
  508SOL    HW2 1524   1.236   0.723   1.319 -2.4977  3.2833  1.6479
  509SOL     OW 1525   0.750   1.494   1.241 -0.2625 -0.4641 -0.3151
  509SOL    HW1 1526   0.652   1.514   1.266 -0.9480  0.9883  0.8307
  509SOL    HW2 1527   0.797   1.583   1.224  0.2488  2.2581 -1.1989
  510SOL     OW 1528   2.515   1.027   2.569  0.2475  0.3520  0.3530
  510SOL    HW1 1529   2.495   0.958   2.638 -1.6980 -4.3490 -1.1718
  510SOL    HW2 1530   2.603   1.079   2.587 -0.7504 -0.0032  0.6972
  511SOL     OW 1531   0.420   1.615   1.048 -0.1783  0.2462  0.0679
  511SOL    HW1 1532   0.323   1.586   1.049 -1.9841  0.1387 -0.9193
  511SOL    HW2 1533   0.462   1.581   1.135  0.8955  0.3695  0.5184
  512SOL     OW 1534   2.680   2.382   0.923  0.2117  0.0492 -0.3020
  512SOL    HW1 1535   2.660   2.409   0.825 -1.6711  0.2930 -1.4521
  512SOL    HW2 1536   2.602   2.415   0.984 -0.5207  1.3660 -1.7019
  513SOL     OW 1537   0.027   1.511   3.061  0.0426 -0.4548  0.7457
  513SOL    HW1 1538   0.002   1.434   0.000  0.5330 -0.1847  0.0418
  513SOL    HW2 1539   0.132   1.522   3.059  2.8254 -1.4871 -2.9139
  514SOL     OW 1540   0.337   2.299   2.896  0.0991  0.3568 -0.0790
  514SOL    HW1 1541   0.392   2.292   2.812  0.3307  0.5917  2.2965
  514SOL    HW2 1542   0.387   2.353   2.969  1.3218 -0.0445 -1.3129
  515SOL     OW 1543   1.811   1.339   2.173  0.1541  0.3367  0.1430
  515SOL    HW1 1544   1.887   1.396   2.139 -1.4249 -0.4973 -0.0788
  515SOL    HW2 1545   1.788   1.366   2.267  0.7945 -0.9938  1.8567
  516SOL     OW 1546   2.265   2.111   0.181  0.7189 -0.3866  0.4790
  516SOL    HW1 1547   2.229   2.028   0.230  1.2289 -0.6500  1.5419
  516SOL    HW2 1548   2.296   2.089   0.085  0.7344 -2.4790 -1.2457
  517SOL     OW 1549   1.522   1.178   0.473 -0.1019 -0.2603 -0.5578
  517SOL    HW1 1550   1.536   1.150   0.573 -2.5093 -1.5540  1.4397
  517SOL    HW2 1551   1.471   1.101   0.428 -0.0877 -0.9659  1.5546
  518SOL     OW 1552   2.359   2.781   1.840 -0.5070 -0.1065  0.4698
  518SOL    HW1 1553   2.315   2.748   1.924 -0.2450 -0.5500 -0.3298
  518SOL    HW2 1554   2.290   2.836   1.784 -0.8095  1.8770 -0.3590
  519SOL     OW 1555   1.779   2.316   1.657 -0.2041  0.0116 -0.4377
  519SOL    HW1 1556   1.765   2.226   1.705 -1.2819 -0.1280 -1.1600
  519SOL    HW2 1557   1.698   2.346   1.603 -0.6458 -0.4830 -1.0497
  520SOL     OW 1558   2.572   2.532   2.618 -0.1162  0.2880 -0.0478
  520SOL    HW1 1559   2.627   2.600   2.672  2.2466  0.6096 -1.9078
  520SOL    HW2 1560   2.471   2.559   2.614 -0.6340  0.5223  0.1969
  521SOL     OW 1561   0.145   1.312   2.030 -0.2801  0.2234  0.0143
  521SOL    HW1 1562   0.155   1.286   2.127  4.7747 -1.2817 -2.5885
  521SOL    HW2 1563   0.191   1.401   2.011  0.4972 -1.3170  0.9993
  522SOL     OW 1564   0.946   0.127   1.865  0.4549  0.3710  0.8889
  522SOL    HW1 1565   1.030   0.067   1.878  0.1438 -1.0888  2.8272
  522SOL    HW2 1566   0.963   0.216   1.911  1.4694 -2.3170  0.1889
  523SOL     OW 1567   0.593   2.385   0.928  0.1629  0.2099 -0.4000
  523SOL    HW1 1568   0.639   2.360   0.841 -2.1105  1.9176 -3.2057
  523SOL    HW2 1569   0.492   2.361   0.925 -1.2903  1.0799 -1.6730
  524SOL     OW 1570   1.487   2.600   0.573 -0.0744 -0.0972  0.4487
  524SOL    HW1 1571   1.542   2.684   0.593 -1.7922 -0.3932  0.8925
  524SOL    HW2 1572   1.510   2.522   0.630  1.7415 -2.0057 -0.1078
  525SOL     OW 1573   2.231   0.969   1.266 -0.2300 -0.2785  0.4705
  525SOL    HW1 1574   2.328   0.971   1.293  1.8736 -2.1180 -2.6992
  525SOL    HW2 1575   2.181   1.053   1.299 -1.2969  2.4146 -1.0071
  526SOL     OW 1576   1.095   2.678   0.880 -0.2556 -0.2594 -0.5244
  526SOL    HW1 1577   1.018   2.734   0.849  1.2340 -1.2702 -1.2400
  526SOL    HW2 1578   1.147   2.641   0.801 -0.6337 -2.2238  0.2131
  527SOL     OW 1579   2.424   2.122   0.617  0.5444  0.2345 -0.2987
  527SOL    HW1 1580   2.412   2.201   0.681  0.5290 -1.1188  0.2451
  527SOL    HW2 1581   2.335   2.070   0.603  1.0593  0.1554 -2.1174
  528SOL     OW 1582   2.223   0.636   0.450 -0.0666  0.1571 -0.7778
  528SOL    HW1 1583   2.187   0.708   0.391  0.4619 -2.0025  0.8939
  528SOL    HW2 1584   2.139   0.578   0.473 -0.2671 -0.0759 -0.2421
  529SOL     OW 1585   1.253   1.370   2.422  0.0622 -0.0971  0.5159
  529SOL    HW1 1586   1.292   1.325   2.505  2.2608  0.1335 -0.0283
  529SOL    HW2 1587   1.315   1.432   2.372 -0.2404 -2.6256  2.5550
  530SOL     OW 1588   2.537   0.663   0.090 -0.4353 -0.7878 -0.0012
  530SOL    HW1 1589   2.620   0.645   0.035 -1.3665  0.3417 -0.0346
  530SOL    HW2 1590   2.568   0.711   0.178  2.4101 -1.3321 -0.2156
  531SOL     OW 1591   0.999   0.997   0.188 -0.4045 -0.1774 -0.6944
  531SOL    HW1 1592   0.900   0.978   0.194 -0.2475 -2.6321 -1.1904
  531SOL    HW2 1593   1.015   1.043   0.097  1.6478  0.9930 -1.4649
  532SOL     OW 1594   1.789   0.534   0.710  0.0473 -0.1167  0.4034
  532SOL    HW1 1595   1.858   0.472   0.757  0.4051 -2.8402  0.5471
  532SOL    HW2 1596   1.700   0.488   0.686 -0.7295 -1.7413  0.7077
  533SOL     OW 1597   1.412   1.084   2.198  0.2388  0.4483  0.7888
  533SOL    HW1 1598   1.324   1.085   2.253  2.9692 -0.2369 -0.4559
  533SOL    HW2 1599   1.412   1.173   2.145 -2.7964 -2.7356  0.5532
  534SOL     OW 1600   2.209   0.231   2.515  1.1550 -0.2191  0.0479
  534SOL    HW1 1601   2.144   0.304   2.549 -1.6060 -0.6959  2.7399
  534SOL    HW2 1602   2.269   0.205   2.592 -0.6182  1.4650  1.3748
  535SOL     OW 1603   0.347   0.057   0.265  0.6880 -0.1658 -0.2223
  535SOL    HW1 1604   0.346   0.156   0.230 -2.9335  0.2546 -0.9015
  535SOL    HW2 1605   0.428   0.003   0.232  1.6076 -0.9141 -1.4552
  536SOL     OW 1606   0.781   2.763   1.121 -0.2012  0.9912  0.3298
  536SOL    HW1 1607   0.725   2.724   1.043 -0.1270 -1.0736 -1.6167
  536SOL    HW2 1608   0.859   2.701   1.141  0.2901 -0.3846 -1.0437
  537SOL     OW 1609   1.494   1.007   1.084  0.2055  0.9756  0.3204
  537SOL    HW1 1610   1.483   0.904   1.087  1.0366 -2.3951  1.4989
  537SOL    HW2 1611   1.549   1.034   1.165 -1.1824  1.5220 -3.1344
  538SOL     OW 1612   2.664   2.322   0.381 -0.3533 -0.1646  0.7154
  538SOL    HW1 1613   2.763   2.319   0.356  0.4181 -1.9761  0.4627
  538SOL    HW2 1614   2.620   2.409   0.348 -0.5755 -2.2185 -0.7236
  539SOL     OW 1615   2.679   1.984   0.129  0.2332 -0.2811  0.6003
  539SOL    HW1 1616   2.622   1.913   0.082  0.1392 -0.3247  0.3202
  539SOL    HW2 1617   2.632   2.017   0.211  0.6887 -0.1211  1.4696
  540SOL     OW 1618   0.161   2.851   1.535 -0.2224  0.0282  0.5389
  540SOL    HW1 1619   0.077   2.790   1.524 -2.8678 -0.3485 -3.8654
  540SOL    HW2 1620   0.166   2.915   1.455 -1.7071  1.5117 -1.4688
  541SOL     OW 1621   2.393   3.033   2.139 -0.6137 -0.1486  0.1387
  541SOL    HW1 1622   2.329   2.984   2.198  1.6529  0.5943 -0.9467
  541SOL    HW2 1623   2.383   0.014   2.149 -3.0601  3.2718  2.7600
  542SOL     OW 1624   2.788   0.463   2.394 -0.1049 -0.0899 -0.2883
  542SOL    HW1 1625   2.852   0.414   2.466  1.8373 -0.1593  3.7681
  542SOL    HW2 1626   2.825   0.453   2.303 -0.7161 -3.0937  0.6012
  543SOL     OW 1627   0.946   0.365   0.621 -0.0596  0.3347  0.3132
  543SOL    HW1 1628   1.025   0.418   0.582  0.2487  1.3880  0.0337
  543SOL    HW2 1629   0.887   0.326   0.538 -2.2056 -2.2936 -2.4245
  544SOL     OW 1630   2.904   2.589   0.900  0.3645 -0.4857  0.1179
  544SOL    HW1 1631   2.878   2.559   0.803 -1.8548  0.3863 -1.3657
  544SOL    HW2 1632   2.977   2.532   0.941  0.6962  0.6421 -0.0316
  545SOL     OW 1633   1.118   2.090   0.725 -0.0891 -1.0746 -0.4132
  545SOL    HW1 1634   1.038   2.028   0.740  3.4730 -0.6210  0.3137
  545SOL    HW2 1635   1.190   2.063   0.792 -0.4506  0.0875 -1.2758
  546SOL     OW 1636   2.179   0.040   1.852  0.2047 -0.2964  0.1940
  546SOL    HW1 1637   2.085   0.080   1.834 -2.9601 -0.0539 -0.4623
  546SOL    HW2 1638   2.205   0.077   1.938 -0.4128 -0.6393 -3.3345
  547SOL     OW 1639   0.253   0.282   2.228 -0.0493 -0.5243  0.3692
  547SOL    HW1 1640   0.304   0.308   2.309 -1.3522 -0.0011  0.5900
  547SOL    HW2 1641   0.153   0.266   2.259 -1.1908  1.4025 -1.0061
  548SOL     OW 1642   2.146   1.892   2.731  0.1804  0.5313  0.7460
  548SOL    HW1 1643   2.056   1.848   2.739  0.6597 -1.1855 -2.1960
  548SOL    HW2 1644   2.144   1.974   2.669 -1.9096  0.6989 -1.2819
  549SOL     OW 1645   0.124   0.790   0.875  0.0730  0.3631 -0.3230
  549SOL    HW1 1646   0.172   0.787   0.786  1.7394 -1.8619 -0.1333
  549SOL    HW2 1647   0.021   0.780   0.852 -1.7357 -2.7721 -0.2907
  550SOL     OW 1648   1.602   1.569   0.556 -0.4389 -0.3691  0.2533
  550SOL    HW1 1649   1.557   1.574   0.461 -0.2477  0.7926 -1.9601
  550SOL    HW2 1650   1.672   1.642   0.569 -0.1368 -1.4260  1.8005
  551SOL     OW 1651   1.034   0.145   1.264 -0.3509 -0.3422  0.1335
  551SOL    HW1 1652   0.993   0.069   1.315 -1.8067  2.5543 -0.3425
  551SOL    HW2 1653   0.968   0.176   1.191  1.6690 -0.6897  2.6874
  552SOL     OW 1654   2.607   2.427   1.871 -0.3750 -0.2299 -0.2361
  552SOL    HW1 1655   2.516   2.384   1.855 -1.0734 -3.9587 -2.6762
  552SOL    HW2 1656   2.655   2.385   1.952  2.2360 -1.8692  1.1661
  553SOL     OW 1657   3.033   0.044   2.724 -0.2351 -0.4610 -0.1229
  553SOL    HW1 1658   3.014   3.062   2.723  0.3063 -2.7568  0.9174
  553SOL    HW2 1659   0.014   0.068   2.713  1.4803 -0.8262 -4.1907
  554SOL     OW 1660   0.993   2.770   1.327 -0.4243  0.0659 -0.1089
  554SOL    HW1 1661   0.929   2.789   1.403  1.2004 -0.0794 -0.1987
  554SOL    HW2 1662   1.092   2.784   1.362  1.9496  2.1359 -1.0534
  555SOL     OW 1663   2.361   2.744   1.539 -0.3786  0.1661 -0.0737
  555SOL    HW1 1664   2.323   2.818   1.594  0.8021  2.3385 -1.4005
  555SOL    HW2 1665   2.442   2.695   1.581 -1.1456  0.1850 -1.4303
  556SOL     OW 1666   1.068   0.273   2.839  0.7969 -0.0663  0.0032
  556SOL    HW1 1667   1.128   0.202   2.795  3.1918  1.9497 -3.0780
  556SOL    HW2 1668   1.033   0.246   2.935 -2.9468 -1.1855 -1.5130
  557SOL     OW 1669   0.171   1.641   2.473 -0.2753  0.5913 -0.0628
  557SOL    HW1 1670   0.232   1.693   2.414 -1.4049 -0.2679  0.3187
  557SOL    HW2 1671   0.128   1.708   2.539 -1.4409 -0.1633 -1.4173
  558SOL     OW 1672   2.270   1.130   2.571 -0.3781 -0.0894 -0.2133
  558SOL    HW1 1673   2.192   1.067   2.541 -1.6121  0.4013 -0.0180
  558SOL    HW2 1674   2.357   1.083   2.571 -2.2417 -0.7754  0.2506
  559SOL     OW 1675   2.486   1.984   1.913 -0.0941  0.4774 -0.1844
  559SOL    HW1 1676   2.579   2.025   1.905 -3.2454 -2.5355 -0.5256
  559SOL    HW2 1677   2.419   2.036   1.864  1.1464 -2.1025 -0.3971
  560SOL     OW 1678   2.992   0.671   2.454 -0.0513 -0.2387 -0.2728
  560SOL    HW1 1679   2.889   0.682   2.470  0.4918 -3.5646  0.7202
  560SOL    HW2 1680   3.014   0.636   2.363 -0.0206  0.9715  0.8347
  561SOL     OW 1681   0.627   0.272   0.572 -1.2902 -0.4597 -0.0464
  561SOL    HW1 1682   0.623   0.191   0.627 -1.6314  2.1600 -1.8450
  561SOL    HW2 1683   0.545   0.296   0.513  1.0772  0.6386 -2.9967
  562SOL     OW 1684   0.963   1.658   1.807 -0.0767  0.2198 -0.1326
  562SOL    HW1 1685   0.870   1.614   1.815 -0.0018  2.5100  1.8805
  562SOL    HW2 1686   1.018   1.625   1.884 -3.2163 -2.2161 -2.6539
  563SOL     OW 1687   1.493   2.823   0.064 -0.4973 -0.0363  0.1973
  563SOL    HW1 1688   1.463   2.881   0.145  1.7828 -0.8664 -1.6124
  563SOL    HW2 1689   1.435   2.848   3.108  0.8386  0.9013  1.8698
  564SOL     OW 1690   0.067   1.921   0.638  0.5909 -0.7425  0.4319
  564SOL    HW1 1691   0.065   1.932   0.740 -2.0841 -1.1610  0.1546
  564SOL    HW2 1692   0.127   1.991   0.593  2.0451 -1.0337  0.7774
  565SOL     OW 1693   0.520   2.270   2.243  0.6693  0.0264 -0.4718
  565SOL    HW1 1694   0.530   2.201   2.168  2.0064  1.0259  2.3611
  565SOL    HW2 1695   0.595   2.339   2.236  0.7124  0.1680 -3.0668
  566SOL     OW 1696   1.277   2.696   2.209 -0.4090  0.0780 -0.3190
  566SOL    HW1 1697   1.336   2.619   2.177 -2.7158 -0.4170  0.6120
  566SOL    HW2 1698   1.264   2.761   2.130 -0.9197 -1.6953 -0.0732
  567SOL     OW 1699   2.102   2.301   0.884 -0.3587  0.1068  0.2818
  567SOL    HW1 1700   2.021   2.333   0.830  0.7680 -1.9705  0.2528
  567SOL    HW2 1701   2.103   2.198   0.884 -1.0812 -0.1395 -1.0306
  568SOL     OW 1702   2.140   0.856   0.290 -0.4697 -0.2255 -0.2450
  568SOL    HW1 1703   2.111   0.889   0.194 -2.1540 -0.2128 -0.6257
  568SOL    HW2 1704   2.063   0.880   0.354 -2.1513 -1.1726 -0.4946
  569SOL     OW 1705   0.176   1.321   2.723  0.4109  0.4215  0.4339
  569SOL    HW1 1706   0.135   1.237   2.679  1.8978  0.7831 -0.2337
  569SOL    HW2 1707   0.232   1.296   2.803 -0.4388  0.6808  1.4623
  570SOL     OW 1708   2.953   2.993   1.304  0.1915  0.6122  0.3475
  570SOL    HW1 1709   2.966   3.002   1.404 -1.4728  0.5619  0.4909
  570SOL    HW2 1710   2.938   2.897   1.283  3.9142 -1.1813 -0.6649
  571SOL     OW 1711   0.092   0.573   1.668  0.0478 -0.1440 -0.0314
  571SOL    HW1 1712   0.115   0.505   1.593  1.5844 -0.5067 -1.1267
  571SOL    HW2 1713   0.001   0.546   1.709 -1.5244 -2.1225  0.5615
  572SOL     OW 1714   0.006   2.393   0.935  0.1981  0.4911 -0.5215
  572SOL    HW1 1715   0.098   2.441   0.941 -1.0060  1.5570  1.9673
  572SOL    HW2 1716   3.112   2.328   1.013  2.9830 -0.7123 -3.4314
  573SOL     OW 1717   0.727   0.825   0.008 -0.5151 -0.2029 -0.2303
  573SOL    HW1 1718   0.634   0.782   0.008  0.0210 -0.2302  0.4962
  573SOL    HW2 1719   0.732   0.896   0.076  0.0797 -2.0769 -1.2254
  574SOL     OW 1720   2.789   2.527   3.006  0.3478  0.3575  0.6276
  574SOL    HW1 1721   2.757   2.615   3.052 -0.6809  2.0617  0.4986
  574SOL    HW2 1722   2.883   2.510   3.026 -0.7881  2.5330 -1.6099
  575SOL     OW 1723   0.933   1.724   1.327  0.2937 -0.2818 -0.4813
  575SOL    HW1 1724   1.016   1.736   1.277 -0.3618 -0.6244  3.2779
  575SOL    HW2 1725   0.866   1.802   1.318  0.1070  0.6798  0.5003
  576SOL     OW 1726   0.096   3.061   1.287 -0.1268 -0.2722 -0.3676
  576SOL    HW1 1727   0.105   0.008   1.365 -0.6646  2.4182 -1.0701
  576SOL    HW2 1728   0.001   3.026   1.267 -1.2941 -4.1520 -1.5876
  577SOL     OW 1729   2.139   1.561   1.038  0.2114  0.0628 -0.3435
  577SOL    HW1 1730   2.108   1.464   1.051  0.1455 -2.9331  1.9094
  577SOL    HW2 1731   2.169   1.583   0.941 -0.4760 -0.0357 -3.4403
  578SOL     OW 1732   1.513   0.113   0.128 -0.4201  0.1262  0.6037
  578SOL    HW1 1733   1.489   0.022   0.092  0.8865  0.9614  1.6902
  578SOL    HW2 1734   1.581   0.115   0.202 -1.1828 -1.3255 -0.7979
  579SOL     OW 1735   2.930   1.518   2.505  0.9397 -0.3290 -0.7721
  579SOL    HW1 1736   2.911   1.553   2.599 -1.1235  2.9136 -1.1918
  579SOL    HW2 1737   2.853   1.534   2.438 -0.5905  1.4932  1.7192
  580SOL     OW 1738   1.453   0.841   1.502 -0.0522  0.5691 -0.3692
  580SOL    HW1 1739   1.415   0.858   1.595  0.3371 -2.0508  0.2792
  580SOL    HW2 1740   1.516   0.761   1.506  0.4946 -0.8033 -0.0682
  581SOL     OW 1741   0.873   1.375   1.456  0.0960 -0.0917  0.3790
  581SOL    HW1 1742   0.842   1.417   1.367 -2.4580 -0.2606  0.2704
  581SOL    HW2 1743   0.931   1.443   1.507  0.9921  0.3362 -1.1630
  582SOL     OW 1744   3.007   3.047   1.888 -0.0631  0.4645 -0.1972
  582SOL    HW1 1745   2.998   0.018   1.925 -1.2835 -3.7929 -1.1970
  582SOL    HW2 1746   2.923   3.010   1.847  2.3098 -0.7477  1.7765
  583SOL     OW 1747   2.085   0.777   1.609 -0.1156 -0.2575  0.4702
  583SOL    HW1 1748   2.119   0.681   1.614 -2.3908 -2.2115 -0.1424
  583SOL    HW2 1749   2.150   0.848   1.643  0.3841  0.4373 -0.3996
  584SOL     OW 1750   1.539   2.118   3.016  0.1568 -0.2337 -0.1072
  584SOL    HW1 1751   1.538   2.031   2.967 -0.8405  0.0096 -0.4973
  584SOL    HW2 1752   1.452   2.169   3.001 -1.1064 -1.8933 -3.0893
  585SOL     OW 1753   0.553   2.731   0.277 -0.4519  0.3365  0.2560
  585SOL    HW1 1754   0.476   2.695   0.325 -0.7072  1.7806  0.5849
  585SOL    HW2 1755   0.540   2.709   0.176  0.0543 -2.0087  2.0940
  586SOL     OW 1756   1.723   2.396   2.435  0.3557 -0.5620 -0.6069
  586SOL    HW1 1757   1.700   2.357   2.526 -1.1424 -0.5147 -1.0595
  586SOL    HW2 1758   1.799   2.343   2.395 -0.0675 -1.7231  0.4709
  587SOL     OW 1759   2.817   1.785   0.607 -0.4447 -0.1336  0.1765
  587SOL    HW1 1760   2.856   1.818   0.517  0.6418  0.5865 -1.8149
  587SOL    HW2 1761   2.755   1.857   0.648  1.1112 -2.8502  0.5187
  588SOL     OW 1762   2.262   0.285   1.019  0.3452  0.3582  0.0192
  588SOL    HW1 1763   2.356   0.289   0.983 -0.8283  2.3563 -1.7349
  588SOL    HW2 1764   2.229   0.378   1.052 -0.7352  1.5627 -0.4023
  589SOL     OW 1765   1.005   0.665   0.398  0.0399 -0.5709  0.0787
  589SOL    HW1 1766   1.049   0.584   0.442  0.1508 -1.9596 -1.9876
  589SOL    HW2 1767   1.052   0.685   0.311  0.8416  0.3295  4.9227
  590SOL     OW 1768   2.439   1.819   0.277 -0.0934 -0.3584  0.1669
  590SOL    HW1 1769   2.464   1.803   0.179 -0.5144 -0.5632 -0.4164
  590SOL    HW2 1770   2.477   1.914   0.295 -1.8720 -0.4049  1.4763
  591SOL     OW 1771   3.020   2.480   1.347 -0.3320  0.5612  0.4801
  591SOL    HW1 1772   3.026   2.482   1.247  2.4685 -0.1518 -0.1388
  591SOL    HW2 1773   2.988   2.389   1.383  3.1944 -0.3399  1.0523
  592SOL     OW 1774   0.767   0.976   1.313 -0.1407 -0.0243  0.6385
  592SOL    HW1 1775   0.731   1.046   1.377 -2.1912  1.1424 -0.5274
  592SOL    HW2 1776   0.858   0.942   1.343  0.1525  1.2462  0.3065
  593SOL     OW 1777   0.779   1.259   1.092  0.3324 -0.5586  0.0845
  593SOL    HW1 1778   0.854   1.201   1.127 -0.4019 -0.7400 -0.1655
  593SOL    HW2 1779   0.769   1.344   1.149  2.5603  2.5222  0.9285
  594SOL     OW 1780   0.797   1.949   0.094 -0.5770 -0.1250  0.0489
  594SOL    HW1 1781   0.698   1.949   0.108  0.9779 -3.0785 -1.3053
  594SOL    HW2 1782   0.839   1.927   0.182 -0.1295 -1.3287 -0.0085
  595SOL     OW 1783   1.477   0.146   1.279 -0.3574  0.1155  0.0018
  595SOL    HW1 1784   1.391   0.192   1.252 -0.0089 -0.4206 -3.2358
  595SOL    HW2 1785   1.536   0.139   1.197  0.7222 -1.6718  0.0519
  596SOL     OW 1786   3.023   1.510   0.889 -0.2046  0.6539  0.0668
  596SOL    HW1 1787   3.054   1.577   0.819 -1.5625  2.0450  0.4173
  596SOL    HW2 1788   3.001   1.422   0.842  0.3047  2.2252  0.8643
  597SOL     OW 1789   0.165   2.519   2.766  0.0439  0.0711  0.0130
  597SOL    HW1 1790   0.066   2.551   2.779 -3.3115 -0.2010  2.9377
  597SOL    HW2 1791   0.193   2.454   2.832  2.2998  1.3582 -2.0022
  598SOL     OW 1792   2.696   2.189   2.262 -0.1309 -0.1962  0.7714
  598SOL    HW1 1793   2.709   2.096   2.291 -2.1436  2.3874 -3.5659
  598SOL    HW2 1794   2.683   2.251   2.337  0.3944 -1.0074 -1.0889
  599SOL     OW 1795   0.868   0.346   0.130 -0.0938  0.2012  0.0038
  599SOL    HW1 1796   0.769   0.345   0.130  1.7821  1.4820  0.5820
  599SOL    HW2 1797   0.894   0.448   0.127 -1.3155  1.4581  1.7647
  600SOL     OW 1798   0.694   2.628   0.485 -0.1556 -0.5344  0.5877
  600SOL    HW1 1799   0.655   2.673   0.402  0.2674 -1.2112 -0.3368
  600SOL    HW2 1800   0.628   2.556   0.522 -1.1223  1.3775 -0.7261
  601SOL     OW 1801   0.535   0.816   1.364  0.0350 -0.0538  0.1842
  601SOL    HW1 1802   0.621   0.872   1.346  1.2313 -0.4991  1.7742
  601SOL    HW2 1803   0.521   0.741   1.301 -0.7956  3.3384  2.5060
  602SOL     OW 1804   0.575   2.679   0.927 -0.3806  0.0428 -0.0392
  602SOL    HW1 1805   0.587   2.579   0.912  0.3641 -2.3164 -0.1178
  602SOL    HW2 1806   0.497   2.696   0.990  1.1934 -1.8461 -0.7538
  603SOL     OW 1807   0.985   2.864   2.221 -0.4130  0.3899  0.4084
  603SOL    HW1 1808   1.059   2.792   2.210  0.6430 -1.0299  0.5209
  603SOL    HW2 1809   0.908   2.829   2.165  2.0416  0.3498 -0.1465
  604SOL     OW 1810   0.836   2.713   2.034  0.1783 -0.0444  0.2115
  604SOL    HW1 1811   0.816   2.625   1.983  1.4301 -2.2298  0.5234
  604SOL    HW2 1812   0.750   2.754   2.072 -2.2955  0.1102  0.7606
  605SOL     OW 1813   1.927   0.737   2.258 -0.3300  0.2253 -0.0099
  605SOL    HW1 1814   1.973   0.737   2.167 -0.3036 -2.7195  0.2473
  605SOL    HW2 1815   1.829   0.747   2.240  2.0790 -0.1392 -1.0970
  606SOL     OW 1816   2.404   0.079   2.718  0.8967  0.1410  0.2335
  606SOL    HW1 1817   2.391   0.103   2.819 -0.7298 -0.5311  0.9541
  606SOL    HW2 1818   2.466   0.145   2.674 -0.2098  0.6662 -0.3420
  607SOL     OW 1819   0.906   0.547   1.405  0.3275  0.3159  0.1843
  607SOL    HW1 1820   0.855   0.478   1.348 -2.2779  2.1418  0.4710
  607SOL    HW2 1821   0.840   0.610   1.445 -0.3400 -1.4850 -0.2926
  608SOL     OW 1822   0.073   1.859   2.622  0.2391 -0.6426 -0.1815
  608SOL    HW1 1823   0.093   1.947   2.572 -0.5909  2.3343  1.2693
  608SOL    HW2 1824   0.141   1.846   2.701  1.6440  0.4028  0.0787
  609SOL     OW 1825   1.622   0.932   0.143  0.4544 -0.2741 -0.1782
  609SOL    HW1 1826   1.678   0.882   0.215 -1.3195 -1.4634  0.5620
  609SOL    HW2 1827   1.522   0.937   0.174 -1.7480  1.1224 -0.2384
  610SOL     OW 1828   0.600   0.276   1.461 -0.2942  0.2562  0.3902
  610SOL    HW1 1829   0.680   0.227   1.504  3.6978  1.3562  0.4525
  610SOL    HW2 1830   0.638   0.310   1.373  0.3675 -0.9745  1.2407
  611SOL     OW 1831   1.571   0.403   0.647 -0.1014 -0.2093 -0.2859
  611SOL    HW1 1832   1.528   0.362   0.725 -0.0652  1.6191 -0.0542
  611SOL    HW2 1833   1.523   0.370   0.565 -0.3178 -0.5922  2.1612
  612SOL     OW 1834   1.705   0.828   3.039 -0.2458  0.0071  0.3420
  612SOL    HW1 1835   1.670   0.881   3.120 -1.7452  2.9204  0.2452
  612SOL    HW2 1836   1.802   0.801   3.049  0.7973 -1.3199 -0.1829
  613SOL     OW 1837   2.445   0.693   0.574  0.2280  0.1527  0.5646
  613SOL    HW1 1838   2.354   0.671   0.530 -0.4840 -1.2507 -1.4555
  613SOL    HW2 1839   2.502   0.608   0.577  0.2104 -0.1537 -1.3877
  614SOL     OW 1840   2.660   0.102   2.042  0.3051 -0.4292 -0.1111
  614SOL    HW1 1841   2.637   0.019   1.986  0.0704 -1.5864 -0.8013
  614SOL    HW2 1842   2.760   0.105   2.055  1.8361  0.4675  1.0252
  615SOL     OW 1843   0.729   1.930   1.261  0.4444  0.6561 -0.1142
  615SOL    HW1 1844   0.704   1.973   1.348  0.5879 -1.9875 -1.7656
  615SOL    HW2 1845   0.644   1.922   1.198 -2.0824 -1.1814  0.0582
  616SOL     OW 1846   1.744   1.587   2.693  0.1789 -0.7336  1.2961
  616SOL    HW1 1847   1.701   1.626   2.606 -1.2586 -2.2487 -0.0493
  616SOL    HW2 1848   1.721   1.489   2.709  0.4274 -0.7614  0.4318
  617SOL     OW 1849   1.706   3.106   2.994  0.2605 -0.3553 -0.2797
  617SOL    HW1 1850   1.723   3.019   3.039 -0.7577  1.0597 -0.0906
  617SOL    HW2 1851   1.635   3.091   2.924  1.7737 -0.1781 -0.2568
  618SOL     OW 1852   1.287   2.222   2.926 -0.0810 -0.4305 -0.1644
  618SOL    HW1 1853   1.199   2.215   2.878  2.5747  0.2275  1.0282
  618SOL    HW2 1854   1.310   2.320   2.927 -0.8924  0.5622 -0.5096
  619SOL     OW 1855   2.479   1.421   0.713  0.2685  0.6584 -0.2929
  619SOL    HW1 1856   2.561   1.480   0.700  0.2366 -1.3818 -1.5543
  619SOL    HW2 1857   2.487   1.336   0.655 -0.8302  0.4464  0.7436
  620SOL     OW 1858   2.182   2.867   2.266 -0.6332 -0.6737  0.3999
  620SOL    HW1 1859   2.157   2.950   2.324  1.1651 -0.1383 -1.8023
  620SOL    HW2 1860   2.240   2.795   2.312  1.2662  0.4264  0.2866
  621SOL     OW 1861   2.898   1.401   0.564  0.2388  0.3098  0.3459
  621SOL    HW1 1862   2.894   1.341   0.649  1.6661 -1.1232  1.5677
  621SOL    HW2 1863   3.000   1.414   0.541  0.0692  0.4476 -1.2254
  622SOL     OW 1864   1.412   2.021   2.287  0.3417  0.4035 -0.6549
  622SOL    HW1 1865   1.354   1.953   2.349  1.1589 -0.7663  1.4326
  622SOL    HW2 1866   1.510   2.003   2.294 -2.2191  2.3673  2.2392
  623SOL     OW 1867   0.724   2.705   2.374  0.0345  0.1961  0.2944
  623SOL    HW1 1868   0.699   2.806   2.363 -1.3318  2.6940 -0.1124
  623SOL    HW2 1869   0.795   2.702   2.449 -0.9388  1.6332  1.2251
  624SOL     OW 1870   0.919   2.656   2.914 -0.4078  0.3455  0.4846
  624SOL    HW1 1871   0.969   2.589   2.851 -1.8386 -0.4762 -0.3079
  624SOL    HW2 1872   0.976   2.741   2.931  1.2604  2.4891  1.9303
  625SOL     OW 1873   0.129   2.035   2.382 -0.1871 -0.4079  0.0701
  625SOL    HW1 1874   0.050   2.059   2.321  1.2056 -1.6851  1.4676
  625SOL    HW2 1875   0.129   2.095   2.464  1.2524  1.4589  0.4442
  626SOL     OW 1876   0.127   0.152   2.995  1.1324  0.0525  0.2933
  626SOL    HW1 1877   0.075   0.193   3.075 -1.4928 -0.0887  0.2950
  626SOL    HW2 1878   0.123   0.219   2.914 -0.5340  1.8216 -1.2686
  627SOL     OW 1879   2.097   1.801   0.017 -0.0070  0.1478 -0.3870
  627SOL    HW1 1880   2.161   1.837   3.069  3.5426  1.0628  0.9847
  627SOL    HW2 1881   2.002   1.815   3.115  0.9573  1.2729  0.5097
  628SOL     OW 1882   1.398   1.671   0.005  0.1363  0.7642  0.0444
  628SOL    HW1 1883   1.388   1.589   3.064  0.3594  0.5635  3.5323
  628SOL    HW2 1884   1.498   1.689   0.015  0.1906  0.7607 -2.7441
  629SOL     OW 1885   0.122   0.368   1.901 -0.1891  0.2084  0.1021
  629SOL    HW1 1886   0.214   0.360   1.943  1.6067  1.2243 -2.2836
  629SOL    HW2 1887   0.118   0.430   1.818  2.3210 -0.7457  3.9708
  630SOL     OW 1888   2.244   0.962   1.723 -0.0872 -0.2867  0.1827
  630SOL    HW1 1889   2.250   1.064   1.717  0.7637  0.5318  0.9645
  630SOL    HW2 1890   2.259   0.938   1.824  1.1684  0.9278  0.3341
  631SOL     OW 1891   1.758   0.238   0.859 -0.1606  0.4713 -0.0344
  631SOL    HW1 1892   1.831   0.309   0.874  0.3877 -0.3558 -0.7037
  631SOL    HW2 1893   1.733   0.223   0.762 -0.2119 -2.8393  0.2833
  632SOL     OW 1894   2.798   0.738   1.917  0.4114  0.2081  0.1844
  632SOL    HW1 1895   2.828   0.795   1.838 -1.3405 -0.5815  2.0763
  632SOL    HW2 1896   2.747   0.793   1.988  0.0430 -1.0169  1.8023
  633SOL     OW 1897   0.678   0.562   2.691  0.5979  0.1820 -0.2539
  633SOL    HW1 1898   0.714   0.472   2.718  0.3566  3.9937  1.2496
  633SOL    HW2 1899   0.732   0.637   2.728 -0.3643 -1.7659 -0.7965
  634SOL     OW 1900   0.589   2.771   2.805  0.2480 -0.0347  0.2392
  634SOL    HW1 1901   0.625   2.695   2.864  0.1587  2.0232 -1.7367
  634SOL    HW2 1902   0.518   2.740   2.737 -2.7186  0.6625  0.2616
  635SOL     OW 1903   0.114   1.106   1.247  0.5346  0.4333  0.0556
  635SOL    HW1 1904   0.074   1.153   1.168  3.2357 -2.2663  1.6982
  635SOL    HW2 1905   0.165   1.022   1.215  1.9921  0.5695 -1.1458
  636SOL     OW 1906   3.066   1.296   0.091  0.5606  0.5209 -0.3045
  636SOL    HW1 1907   2.979   1.333   0.124 -0.9065 -0.8667  1.1642
  636SOL    HW2 1908   3.034   1.218   0.031 -3.8473 -1.0753 -3.0051
  637SOL     OW 1909   0.453   2.667   0.026  0.4565  0.0867  0.1009
  637SOL    HW1 1910   0.538   2.617   3.116  0.8931 -0.5855  1.6427
  637SOL    HW2 1911   0.370   2.601   0.015 -0.3213 -3.3876  0.1483
  638SOL     OW 1912   2.859   2.503   0.614 -0.0041  0.7893  0.0139
  638SOL    HW1 1913   2.921   2.427   0.644  0.0712  1.2245 -0.6066
  638SOL    HW2 1914   2.760   2.483   0.634  0.3505  0.2524  0.5831
  639SOL     OW 1915   1.353   1.013   0.309  0.2920 -0.5806 -0.9145
  639SOL    HW1 1916   1.293   0.933   0.295  0.7740  0.8657  1.0941
  639SOL    HW2 1917   1.321   1.099   0.263  0.8531  1.2708  0.1001
  640SOL     OW 1918   1.947   2.456   1.521 -0.5822 -0.6440 -0.3206
  640SOL    HW1 1919   1.894   2.385   1.577  0.5000 -3.2947 -1.6231
  640SOL    HW2 1920   1.911   2.461   1.426 -3.2216  0.0819 -1.7658
  641SOL     OW 1921   3.113   0.077   0.763 -0.0721 -0.5430 -0.2362
  641SOL    HW1 1922   0.010   0.088   0.669 -0.9511  1.5071  3.7328
  641SOL    HW2 1923   3.018   0.111   0.790 -0.9501  1.5129 -0.3925
  642SOL     OW 1924   1.329   0.936   1.724 -0.2672 -0.7031 -0.1020
  642SOL    HW1 1925   1.325   0.934   1.830 -1.1223 -0.6141  3.2698
  642SOL    HW2 1926   1.293   1.024   1.685  1.2874  1.0191  0.0027
  643SOL     OW 1927   0.784   2.368   2.507  0.2400  0.0772  0.1680
  643SOL    HW1 1928   0.840   2.443   2.551 -1.4414  0.4080 -3.2593
  643SOL    HW2 1929   0.770   2.369   2.407 -3.1846 -0.3465 -2.1332
  644SOL     OW 1930   1.359   2.490   2.959 -0.1424  0.1121  0.3730
  644SOL    HW1 1931   1.362   2.543   2.873  3.2825 -3.0945  1.2917
  644SOL    HW2 1932   1.282   2.525   3.015  0.2351  0.9070  0.3495
  645SOL     OW 1933   1.627   1.336   1.951  0.0922  0.4821  0.9267
  645SOL    HW1 1934   1.672   1.324   2.042  0.6821 -1.3339 -0.0259
  645SOL    HW2 1935   1.696   1.301   1.885  0.0871  0.2248 -1.4518
  646SOL     OW 1936   0.693   3.085   3.107 -0.3056  0.4014 -0.0379
  646SOL    HW1 1937   0.665   3.039   3.025  1.3666  1.2458 -0.2262
  646SOL    HW2 1938   0.694   0.066   3.095  1.3727 -0.9951 -0.0647
  647SOL     OW 1939   0.892   3.012   0.705 -0.3980 -0.3223 -0.5826
  647SOL    HW1 1940   0.816   2.959   0.665 -0.1627 -1.5959  0.4906
  647SOL    HW2 1941   0.895   3.010   0.807 -2.3602 -1.7077 -0.1042
  648SOL     OW 1942   2.711   2.735   1.048 -0.2708 -0.2013  0.8534
  648SOL    HW1 1943   2.777   2.685   0.984 -0.7328 -0.1918 -0.5167
  648SOL    HW2 1944   2.742   2.741   1.145  0.7879  3.6719  0.4442
  649SOL     OW 1945   0.741   2.200   3.110  0.2305  0.3557  0.5207
  649SOL    HW1 1946   0.701   2.185   3.018 -0.0124 -1.8590  0.0032
  649SOL    HW2 1947   0.759   2.112   0.029 -0.7165  3.5523 -0.9831
  650SOL     OW 1948   2.290   1.878   2.073  0.0901 -0.1445  0.5667
  650SOL    HW1 1949   2.286   1.934   2.161 -0.8792  1.4852  1.0456
  650SOL    HW2 1950   2.372   1.908   2.022 -0.6124  2.6091  0.2239
  651SOL     OW 1951   2.890   2.745   2.351  0.1240  0.1130  0.3676
  651SOL    HW1 1952   2.979   2.800   2.350  0.4246  0.6504 -0.5875
  651SOL    HW2 1953   2.867   2.699   2.265  0.4730  0.8422  1.2084
  652SOL     OW 1954   3.079   1.666   0.677 -0.0060 -0.0801  0.6405
  652SOL    HW1 1955   0.020   1.740   0.633 -0.6898  1.1646 -2.5560
  652SOL    HW2 1956   2.984   1.695   0.666 -0.4172 -2.2372 -0.2633
  653SOL     OW 1957   2.534   0.750   1.046  0.7548 -0.2088  0.1952
  653SOL    HW1 1958   2.572   0.673   0.992 -1.1194  0.6671 -1.5921
  653SOL    HW2 1959   2.525   0.836   0.984 -1.0355  1.7834 -1.0827
  654SOL     OW 1960   0.796   0.309   2.766 -0.0940  0.1925  0.1950
  654SOL    HW1 1961   0.892   0.320   2.795 -3.4141 -1.5488 -2.0884
  654SOL    HW2 1962   0.741   0.265   2.840  3.6231 -0.6301  1.2495
  655SOL     OW 1963   0.804   0.138   1.592  0.6028  0.0831 -0.7759
  655SOL    HW1 1964   0.841   0.127   1.684 -0.0665 -0.6789  0.0658
  655SOL    HW2 1965   0.839   0.082   1.522 -1.9715  1.0045  0.5238
  656SOL     OW 1966   0.193   2.712   2.181  0.2457 -0.3184 -0.4239
  656SOL    HW1 1967   0.287   2.685   2.153 -1.4229 -1.3675  1.3298
  656SOL    HW2 1968   0.161   2.782   2.111 -0.0878  0.0057 -0.6097
  657SOL     OW 1969   2.324   0.480   0.189 -0.1897  0.3202 -0.0041
  657SOL    HW1 1970   2.296   0.525   0.278 -0.3304  1.9720 -0.0257
  657SOL    HW2 1971   2.393   0.541   0.146 -1.9705  2.5836 -0.9478
  658SOL     OW 1972   2.003   1.752   1.161  0.7245  0.2403  0.0846
  658SOL    HW1 1973   2.073   1.809   1.210 -2.7175 -0.7777  1.9747
  658SOL    HW2 1974   2.034   1.664   1.119  0.2201 -2.7067  0.2634
  659SOL     OW 1975   2.604   2.137   2.928 -0.3709  0.3448  0.7125
  659SOL    HW1 1976   2.595   2.234   2.895  0.0001 -3.2125  2.5129
  659SOL    HW2 1977   2.674   2.123   3.000  0.6983  0.4374  0.0693
  660SOL     OW 1978   1.060   0.225   0.009 -0.1655  0.2028 -0.0717
  660SOL    HW1 1979   1.148   0.256   0.047  0.4574  1.0513  0.7406
  660SOL    HW2 1980   0.984   0.264   0.072 -2.3695  0.2177  3.8786
  661SOL     OW 1981   2.306   0.136   0.382  0.0687  0.2856  0.3701
  661SOL    HW1 1982   2.234   0.156   0.313  0.4627  0.4051  1.1405
  661SOL    HW2 1983   2.385   0.197   0.372 -1.1053 -1.6574 -2.2982
  662SOL     OW 1984   0.551   3.061   1.016 -0.2401  0.3467  0.0779
  662SOL    HW1 1985   0.545   3.120   0.930 -1.4673 -0.7207 -1.8040
  662SOL    HW2 1986   0.458   3.026   1.039 -0.4411 -0.0062 -1.8475
  663SOL     OW 1987   1.285   3.113   2.461  0.0275  0.1729  0.1600
  663SOL    HW1 1988   1.307   3.016   2.482  2.0264  0.8697  0.8448
  663SOL    HW2 1989   1.209   0.006   2.398  4.3531 -0.3054  1.0709
  664SOL     OW 1990   0.826   2.743   1.530  0.9101 -0.3062 -0.1883
  664SOL    HW1 1991   0.742   2.690   1.506 -0.7743  1.7266  1.6583
  664SOL    HW2 1992   0.800   2.789   1.619 -0.2330  0.1265  0.0302
  665SOL     OW 1993   0.793   2.460   1.931  0.8195 -0.3506  0.6605
  665SOL    HW1 1994   0.721   2.443   1.859  0.5262  0.3087 -0.2311
  665SOL    HW2 1995   0.880   2.413   1.908 -1.3561 -1.4616  0.1176
  666SOL     OW 1996   0.310   2.953   2.628  0.4652 -0.4426 -0.1474
  666SOL    HW1 1997   0.300   2.951   2.530 -2.8557 -1.9554  1.1238
  666SOL    HW2 1998   0.336   2.858   2.655 -0.6282 -2.9031  1.4492
  667SOL     OW 1999   1.539   1.532   1.548 -0.2940  0.0687 -0.2433
  667SOL    HW1 2000   1.484   1.446   1.576 -0.8176 -2.1336 -0.7446
  667SOL    HW2 2001   1.573   1.515   1.454 -0.4945  0.6014  3.3183
  668SOL     OW 2002   1.605   0.493   1.816 -0.4038  0.0703 -0.1415
  668SOL    HW1 2003   1.642   0.410   1.772  1.0687 -0.2794  0.6867
  668SOL    HW2 2004   1.524   0.478   1.875 -2.4883  0.6472 -0.1676
  669SOL     OW 2005   2.638   2.491   1.279 -0.0147  0.3475  0.2468
  669SOL    HW1 2006   2.584   2.489   1.189 -1.3303  3.0967 -0.4350
  669SOL    HW2 2007   2.607   2.411   1.340  1.6035 -2.7819 -0.9986
  670SOL     OW 2008   1.652   2.422   2.920 -0.3503 -0.8856 -0.3952
  670SOL    HW1 2009   1.574   2.465   2.877  0.6346 -2.2713  0.9339
  670SOL    HW2 2010   1.624   2.387   3.010 -0.9790 -1.0240  0.9554
  671SOL     OW 2011   1.044   0.927   0.534  0.4026  0.4967  0.7288
  671SOL    HW1 2012   1.111   0.915   0.606 -0.3397 -0.7347 -0.2573
  671SOL    HW2 2013   1.012   0.836   0.491 -1.2873  1.7259  1.9117
  672SOL     OW 2014   0.221   1.012   2.541 -0.2495  0.4586 -0.0368
  672SOL    HW1 2015   0.153   1.037   2.610  1.7871  0.6639 -2.1925
  672SOL    HW2 2016   0.188   0.929   2.485 -2.8005 -1.7285 -0.3041
  673SOL     OW 2017   2.987   1.868   1.360 -0.0233  0.1290 -0.0226
  673SOL    HW1 2018   3.004   1.969   1.372 -0.2252  0.6491 -1.2026
  673SOL    HW2 2019   2.990   1.820   1.450  2.1967  0.3818 -0.0372
  674SOL     OW 2020   0.432   2.648   2.099 -0.1037 -0.3228 -0.2311
  674SOL    HW1 2021   0.468   2.742   2.078 -0.1960 -3.7700 -0.0825
  674SOL    HW2 2022   0.433   2.594   2.011  0.7962  0.7260 -2.5670
  675SOL     OW 2023   0.866   1.119   1.801  0.2018  0.7193 -0.0018
  675SOL    HW1 2024   0.815   1.034   1.822 -0.1913  0.7069  0.2447
  675SOL    HW2 2025   0.828   1.194   1.855 -1.1146 -2.2899  2.3660
  676SOL     OW 2026   2.207   0.494   1.218 -0.5812 -0.6705  0.0274
  676SOL    HW1 2027   2.268   0.572   1.200  0.5236 -1.0078  0.4880
  676SOL    HW2 2028   2.239   0.442   1.298  1.5274  1.7584  0.5358
  677SOL     OW 2029   2.670   1.404   3.067 -0.0686  0.3646 -0.1254
  677SOL    HW1 2030   2.572   1.387   3.078  3.4772 -1.4264 -0.2314
  677SOL    HW2 2031   2.723   1.322   3.041  1.5638 -0.5511 -0.4224
  678SOL     OW 2032   2.747   0.748   1.242 -0.2312 -0.0734  0.1772
  678SOL    HW1 2033   2.790   0.843   1.247  0.0341  1.9712 -0.0485
  678SOL    HW2 2034   2.650   0.753   1.214  3.3255 -1.0528  0.5164
  679SOL     OW 2035   2.564   0.295   0.299 -0.0337  0.0258 -0.7709
  679SOL    HW1 2036   2.663   0.329   0.302 -0.3160 -0.9619 -1.6307
  679SOL    HW2 2037   2.504   0.364   0.258  0.0797 -2.6131  2.2259
  680SOL     OW 2038   0.186   1.811   2.066  0.1651  0.7045  0.6209
  680SOL    HW1 2039   0.213   1.817   2.164 -1.1566 -0.7341 -0.4821
  680SOL    HW2 2040   0.121   1.891   2.040 -0.3000 -1.2621  2.1492
  681SOL     OW 2041   2.411   2.179   1.033 -0.1991  0.0329 -0.7165
  681SOL    HW1 2042   2.315   2.157   1.068  1.0161 -0.3210 -4.4813
  681SOL    HW2 2043   2.451   2.095   0.995  0.0144  2.0350  1.5058
  682SOL     OW 2044   0.067   1.913   2.973  0.1357  0.0288  0.7520
  682SOL    HW1 2045   3.108   1.861   3.017  0.6274  3.7303  0.4525
  682SOL    HW2 2046   0.157   1.869   2.993 -1.9172  1.3216  0.2530
  683SOL     OW 2047   0.200   2.177   1.508  0.6473  0.3920  0.0979
  683SOL    HW1 2048   0.210   2.226   1.418  0.7001 -0.0469 -1.4127
  683SOL    HW2 2049   0.128   2.103   1.508 -0.8392 -2.0233  2.0343
  684SOL     OW 2050   2.973   1.184   2.218  0.9169  0.4190 -0.1371
  684SOL    HW1 2051   2.999   1.276   2.191  0.8762 -0.9499 -2.6296
  684SOL    HW2 2052   2.919   1.178   2.307  1.5443 -1.6624  1.5922
  685SOL     OW 2053   1.571   1.093   0.747  0.3495  0.2831 -0.3571
  685SOL    HW1 2054   1.608   1.175   0.793  1.6286  0.7420  3.0247
  685SOL    HW2 2055   1.597   1.017   0.811  0.5294  1.1927  1.0354
  686SOL     OW 2056   0.457   0.273   0.855 -0.5165 -0.4218 -0.1554
  686SOL    HW1 2057   0.362   0.242   0.866  0.6141  1.7682 -0.7668
  686SOL    HW2 2058   0.518   0.199   0.820  0.8950  1.2818  0.9655
  687SOL     OW 2059   1.022   2.241   2.838 -0.0696 -0.4865  0.6134
  687SOL    HW1 2060   1.008   2.284   2.932 -2.5438 -1.9323 -0.2159
  687SOL    HW2 2061   0.950   2.194   2.789  2.9215 -1.9798 -1.9165
  688SOL     OW 2062   1.372   1.313   1.510  0.1416  0.4113 -0.2542
  688SOL    HW1 2063   1.312   1.351   1.442  1.1776 -0.5167  3.2641
  688SOL    HW2 2064   1.318   1.280   1.592  0.7193  1.4056  0.5123
  689SOL     OW 2065   2.155   0.254   0.601  0.4443  0.2180  0.7186
  689SOL    HW1 2066   2.193   0.196   0.524 -0.0752 -0.6684 -0.0292
  689SOL    HW2 2067   2.224   0.327   0.627  0.6309  0.1755  1.8650
  690SOL     OW 2068   0.030   1.293   1.044 -0.5249  0.6326 -0.3554
  690SOL    HW1 2069   3.102   1.239   0.980 -1.6354  0.8658  1.3480
  690SOL    HW2 2070   0.092   1.359   0.997 -0.9930 -0.5432  1.9844
  691SOL     OW 2071   0.272   1.973   1.213  0.2921  0.4838 -0.0043
  691SOL    HW1 2072   0.196   1.928   1.171  2.2339  1.4144  0.1208
  691SOL    HW2 2073   0.240   2.066   1.241  1.4133 -0.2206 -2.5209
  692SOL     OW 2074   2.026   0.809   1.349  0.8218 -0.2669 -0.3653
  692SOL    HW1 2075   2.097   0.858   1.294 -2.3884  1.5278  1.4067
  692SOL    HW2 2076   2.055   0.794   1.449  1.3885  1.7324  1.2616
  693SOL     OW 2077   0.524   1.913   2.212 -0.2267  0.3075  0.1495
  693SOL    HW1 2078   0.562   1.827   2.174 -0.7087 -0.2516  0.4884
  693SOL    HW2 2079   0.590   1.965   2.268 -1.1977 -1.6490 -0.0980
  694SOL     OW 2080   1.594   1.547   1.277  0.1128  0.0703  0.2293
  694SOL    HW1 2081   1.580   1.639   1.240  0.3137 -1.5249 -0.5703
  694SOL    HW2 2082   1.548   1.471   1.228 -2.4548  0.3766  1.1780
  695SOL     OW 2083   1.310   1.039   0.665 -0.0364 -0.8962 -0.1029
  695SOL    HW1 2084   1.305   1.103   0.585 -3.5925  0.4700  1.4086
  695SOL    HW2 2085   1.393   1.064   0.715 -1.9261  0.1273  0.1976
  696SOL     OW 2086   0.561   2.990   0.240 -0.0065  0.4082 -0.2610
  696SOL    HW1 2087   0.573   2.889   0.249  0.9465  0.4097 -0.7696
  696SOL    HW2 2088   0.615   3.031   0.163 -0.7017  2.1863  0.2062
  697SOL     OW 2089   1.707   0.727   1.307 -0.0681  0.0722 -0.8930
  697SOL    HW1 2090   1.808   0.711   1.287  2.9822 -2.3543  0.2111
  697SOL    HW2 2091   1.684   0.687   1.403  1.7757  0.1109  0.6519
  698SOL     OW 2092   1.642   1.682   2.168  0.0967  0.0205 -0.8529
  698SOL    HW1 2093   1.610   1.662   2.077  0.3415  2.2071  0.8090
  698SOL    HW2 2094   1.738   1.710   2.166 -1.3215  0.3951 -1.8341
  699SOL     OW 2095   2.565   0.322   1.900  0.2965 -0.0290 -0.1032
  699SOL    HW1 2096   2.605   0.394   1.964  0.5797  3.0011 -1.0139
  699SOL    HW2 2097   2.594   0.235   1.946  0.5002 -0.0121  0.0209
  700SOL     OW 2098   1.397   2.272   0.505 -0.3796  0.0779 -0.2332
  700SOL    HW1 2099   1.412   2.291   0.604  0.7728  2.6783 -1.5614
  700SOL    HW2 2100   1.413   2.172   0.492  1.8945 -2.2637 -1.3804
  701SOL     OW 2101   2.522   2.442   2.263  0.0058  0.4575 -0.2229
  701SOL    HW1 2102   2.615   2.455   2.236 -1.7137  1.3149  4.3008
  701SOL    HW2 2103   2.482   2.533   2.292  1.8215 -1.6903  2.6208
  702SOL     OW 2104   0.581   3.041   0.528 -0.8067  0.2921 -0.1555
  702SOL    HW1 2105   0.596   2.944   0.553 -1.5870  1.4274 -0.8667
  702SOL    HW2 2106   0.585   3.060   0.430 -0.0209 -0.9493  1.0436
  703SOL     OW 2107   2.083   2.998   2.066  0.0595  0.0334 -0.3695
  703SOL    HW1 2108   2.149   3.030   1.992 -1.7443 -0.9547 -2.6069
  703SOL    HW2 2109   2.119   2.934   2.136 -3.3687  0.2130  1.8028
  704SOL     OW 2110   2.555   2.063   0.367 -0.4421  0.0276 -0.2332
  704SOL    HW1 2111   2.491   2.060   0.445  0.7776 -1.8173 -1.1749
  704SOL    HW2 2112   2.596   2.156   0.357 -1.4621 -0.5549 -0.7065
  705SOL     OW 2113   2.773   2.329   2.060  0.0151 -0.4388 -0.8175
  705SOL    HW1 2114   2.876   2.330   2.055  1.9155  0.6445 -1.4963
  705SOL    HW2 2115   2.746   2.269   2.141  0.4220 -1.6110  0.1743
  706SOL     OW 2116   2.500   0.134   0.699  0.8666  0.0861  0.1492
  706SOL    HW1 2117   2.519   0.088   0.610  0.1176  0.0754  0.1420
  706SOL    HW2 2118   2.433   0.085   0.757 -0.2400  2.0340  1.3829
  707SOL     OW 2119   1.006   0.337   2.352  0.3377  0.0456  0.0699
  707SOL    HW1 2120   0.971   0.264   2.414  1.3780  0.2687  0.4540
  707SOL    HW2 2121   1.107   0.342   2.361 -1.5410 -1.4647  1.0507
  708SOL     OW 2122   0.431   2.064   1.573 -0.1881 -0.1207 -0.3236
  708SOL    HW1 2123   0.348   2.120   1.534 -1.1587  0.2750 -2.3676
  708SOL    HW2 2124   0.398   2.002   1.647  1.3466 -0.6510 -2.0576
  709SOL     OW 2125   1.581   0.202   1.942 -0.1393 -0.2817  0.1734
  709SOL    HW1 2126   1.614   0.158   1.857 -0.3316 -0.4813  1.3755
  709SOL    HW2 2127   1.491   0.160   1.966 -0.3911 -1.0214 -0.2865
  710SOL     OW 2128   1.571   2.773   2.563 -0.5117 -0.4223 -0.4874
  710SOL    HW1 2129   1.569   2.693   2.505  1.3748  1.8332 -1.2958
  710SOL    HW2 2130   1.651   2.769   2.629  1.0746 -1.8682  1.0457
  711SOL     OW 2131   0.816   2.119   2.668 -0.0924 -0.4010  0.2935
  711SOL    HW1 2132   0.728   2.128   2.707  2.1252  1.9480 -0.8921
  711SOL    HW2 2133   0.815   2.155   2.574 -3.1637 -1.1339  1.7299
  712SOL     OW 2134   0.981   2.333   3.096  0.3236 -0.0350 -0.4573
  712SOL    HW1 2135   0.893   2.292   0.009  0.6855 -1.1746  0.6934
  712SOL    HW2 2136   1.054   2.308   0.037 -1.8864  2.6049 -3.1137
  713SOL     OW 2137   2.079   1.206   1.956 -0.4380 -0.0743 -0.0955
  713SOL    HW1 2138   2.111   1.238   1.860  2.9832 -0.2453 -0.5453
  713SOL    HW2 2139   1.994   1.150   1.950 -2.1964 -0.0779  1.1534
  714SOL     OW 2140   0.935   1.239   2.139 -0.2210  0.0713  0.1850
  714SOL    HW1 2141   0.846   1.189   2.147 -1.3808 -2.8334  0.1593
  714SOL    HW2 2142   1.007   1.198   2.193 -2.6660  0.1270 -3.7490
  715SOL     OW 2143   2.827   0.322   0.293 -0.6386  0.1803  0.0482
  715SOL    HW1 2144   2.870   0.249   0.352  2.2963 -1.7427 -0.5788
  715SOL    HW2 2145   2.859   0.410   0.326 -0.1970 -0.9287 -2.7462
  716SOL     OW 2146   3.072   2.689   1.520  0.1053 -0.1766  0.3052
  716SOL    HW1 2147   2.984   2.725   1.556 -0.4596 -2.4905  0.5825
  716SOL    HW2 2148   3.066   2.609   1.460 -1.0445  0.2707  0.4113
  717SOL     OW 2149   2.340   0.834   0.794  0.5480  0.0746 -0.8544
  717SOL    HW1 2150   2.256   0.874   0.748 -2.0178  3.4364 -3.6250
  717SOL    HW2 2151   2.373   0.752   0.742  1.3785 -1.0022  0.6683
  718SOL     OW 2152   1.256   1.534   1.353  0.0252  0.6592 -0.0309
  718SOL    HW1 2153   1.189   1.551   1.429  0.3777  0.7345  0.3006
  718SOL    HW2 2154   1.300   1.626   1.326  0.7044  0.9757 -0.5942
  719SOL     OW 2155   2.616   2.766   2.753 -0.3989  0.5236  0.4937
  719SOL    HW1 2156   2.689   2.740   2.817 -0.9057 -0.3097 -0.1992
  719SOL    HW2 2157   2.585   2.863   2.773 -0.5790  0.5849 -0.1790
  720SOL     OW 2158   0.996   0.282   0.870  0.3066  0.1350  0.1934
  720SOL    HW1 2159   0.976   0.315   0.777  0.1271 -1.5134  0.3471
  720SOL    HW2 2160   1.088   0.233   0.877  0.1879 -0.4720 -1.1701
  721SOL     OW 2161   2.701   0.805   0.673  0.4546 -0.0768  0.5663
  721SOL    HW1 2162   2.680   0.762   0.759 -2.1522  0.0633 -2.6072
  721SOL    HW2 2163   2.623   0.796   0.613  2.5922 -3.7438  0.4994
  722SOL     OW 2164   0.910   2.129   2.203 -0.0685 -0.0979  0.1509
  722SOL    HW1 2165   0.986   2.062   2.215  1.9695 -0.6650  3.3640
  722SOL    HW2 2166   0.885   2.140   2.106 -1.6530 -2.0131  4.7914
  723SOL     OW 2167   1.629   3.022   1.390  0.0490 -0.5478 -0.1061
  723SOL    HW1 2168   1.563   3.102   1.378  0.9490  2.9349  0.1795
  723SOL    HW2 2169   1.708   3.022   1.323  0.5210 -0.5697  1.2133
  724SOL     OW 2170   1.718   1.934   1.581  0.0808  0.5201 -0.2890
  724SOL    HW1 2171   1.741   1.992   1.665  0.6785 -0.6012 -0.6731
  724SOL    HW2 2172   1.714   1.838   1.617 -1.2582 -0.2221  0.2778
  725SOL     OW 2173   1.316   2.324   1.224  0.2389 -0.0580 -0.4277
  725SOL    HW1 2174   1.282   2.389   1.158 -0.6769 -2.3484  1.5098
  725SOL    HW2 2175   1.299   2.225   1.195 -2.8732 -0.0250 -1.9923
  726SOL     OW 2176   1.972   3.071   0.068 -0.1297 -0.5607 -0.2048
  726SOL    HW1 2177   1.968   3.108   3.096 -0.8231  0.5755  3.0662
  726SOL    HW2 2178   1.908   2.991   0.072  0.9624  0.7775  1.4149
  727SOL     OW 2179   1.549   1.746   0.338  0.4165  0.4474  0.0304
  727SOL    HW1 2180   1.482   1.781   0.266 -2.4007  0.4201  1.5434
  727SOL    HW2 2181   1.612   1.672   0.302  2.6260 -1.7650 -0.1756
  728SOL     OW 2182   1.912   2.685   1.789 -0.0670  0.6090  0.0172
  728SOL    HW1 2183   1.968   2.691   1.699  1.9782 -1.2719 -0.7106
  728SOL    HW2 2184   1.900   2.773   1.838  1.2416  0.8075 -1.8573
  729SOL     OW 2185   1.920   2.486   1.247  0.2367 -0.0277  0.1649
  729SOL    HW1 2186   1.875   2.399   1.221 -0.2981  2.9459  1.3234
  729SOL    HW2 2187   2.006   2.495   1.199 -3.5018  0.7985  1.0204
  730SOL     OW 2188   1.383   1.220   2.615 -0.1937  0.3215 -0.8400
  730SOL    HW1 2189   1.419   1.137   2.565  1.1658 -1.1699  1.7337
  730SOL    HW2 2190   1.347   1.194   2.705  1.2184  0.2716 -2.2601
  731SOL     OW 2191   0.901   3.079   1.401 -0.1063 -0.6534  0.1168
  731SOL    HW1 2192   0.846   3.013   1.348  1.5800 -2.1530  2.5290
  731SOL    HW2 2193   0.940   3.050   1.493 -0.4019  2.4490  3.5574
  732SOL     OW 2194   1.111   3.014   1.080  0.2625 -0.2183 -0.0353
  732SOL    HW1 2195   1.099   2.919   1.119  1.5821  0.5878 -0.5732
  732SOL    HW2 2196   1.085   3.089   1.146  0.8940  2.2096 -1.7249
  733SOL     OW 2197   1.162   0.900   0.841  0.3272  0.2562  0.1850
  733SOL    HW1 2198   1.215   0.957   0.778 -0.5126 -3.6214  3.7813
  733SOL    HW2 2199   1.176   0.925   0.940 -0.0741 -0.8397  3.2900
  734SOL     OW 2200   2.345   2.139   3.021  0.0280 -0.1632  0.3163
  734SOL    HW1 2201   2.338   2.238   2.999  2.5903  1.6266 -2.2004
  734SOL    HW2 2202   2.437   2.107   2.991  1.3279  0.0343  1.4303
  735SOL     OW 2203   0.848   0.197   1.071  0.2209  0.0578 -0.0159
  735SOL    HW1 2204   0.793   0.115   1.041 -1.5384  1.4803  1.6939
  735SOL    HW2 2205   0.901   0.239   0.993  1.2985  0.6682  1.2339
  736SOL     OW 2206   1.697   2.311   2.686  0.0797  0.6635 -0.3521
  736SOL    HW1 2207   1.753   2.223   2.694 -0.3031 -0.6530 -0.0554
  736SOL    HW2 2208   1.685   2.356   2.780 -1.9157 -0.2785  1.5059
  737SOL     OW 2209   0.981   2.536   1.183  0.4566 -0.0254 -0.2733
  737SOL    HW1 2210   1.066   2.528   1.130 -0.1040  1.6133  2.4242
  737SOL    HW2 2211   0.985   2.616   1.246  1.9702 -0.4875  0.4849
  738SOL     OW 2212   1.783   2.978   2.180 -0.1075  0.5622  0.1399
  738SOL    HW1 2213   1.843   3.061   2.162 -0.2457  2.7809 -0.0390
  738SOL    HW2 2214   1.845   2.895   2.170 -2.1106 -3.9819 -1.4911
  739SOL     OW 2215   1.212   2.339   2.017  0.0900 -0.0048 -0.5828
  739SOL    HW1 2216   1.214   2.342   2.119 -2.5401  0.1117 -0.0200
  739SOL    HW2 2217   1.296   2.297   1.975 -1.2236  1.0708 -0.5934
  740SOL     OW 2218   1.537   2.190   1.394  0.1034 -0.3208  0.1385
  740SOL    HW1 2219   1.468   2.201   1.318 -1.5164  1.9344 -0.3435
  740SOL    HW2 2220   1.553   2.279   1.430  0.4571 -3.2448 -1.4266
  741SOL     OW 2221   2.647   1.033   0.275 -0.2436 -0.4766 -0.0738
  741SOL    HW1 2222   2.678   1.125   0.306 -1.6116  0.8867 -1.6612
  741SOL    HW2 2223   2.549   1.038   0.244 -0.2405 -0.3340 -1.5976
  742SOL     OW 2224   0.500   1.669   2.482  0.2093 -0.2755  0.0003
  742SOL    HW1 2225   0.439   1.729   2.431  1.0065  0.4285 -0.5505
  742SOL    HW2 2226   0.594   1.713   2.482  2.1863  3.0844 -1.5480
  743SOL     OW 2227   0.120   0.734   2.484 -1.1146 -0.3481 -0.2208
  743SOL    HW1 2228   0.151   0.730   2.582  1.3034  1.8813  2.2518
  743SOL    HW2 2229   0.019   0.723   2.485  1.6638  0.9926  1.7386
  744SOL     OW 2230   2.457   2.444   1.071 -0.0680 -0.1286  0.1922
  744SOL    HW1 2231   2.451   2.343   1.063  3.8437 -0.5789 -0.8232
  744SOL    HW2 2232   2.365   2.487   1.076  2.7866  1.5994 -1.3859
  745SOL     OW 2233   2.197   1.882   1.281  0.0470 -0.1667 -0.4041
  745SOL    HW1 2234   2.276   1.819   1.281  3.2872  1.8154  0.3232
  745SOL    HW2 2235   2.219   1.970   1.230 -0.1777 -2.1693 -0.6745
  746SOL     OW 2236   2.114   0.956   0.654  0.1180  0.4069 -0.1671
  746SOL    HW1 2237   2.047   0.962   0.578  0.1345 -1.1966 -0.9996
  746SOL    HW2 2238   2.121   1.046   0.705 -1.0899  2.6659  2.4096
  747SOL     OW 2239   1.678   2.118   0.691  0.0034  0.6745 -1.2492
  747SOL    HW1 2240   1.773   2.141   0.677 -3.0250 -1.9003  2.8367
  747SOL    HW2 2241   1.676   2.023   0.726  1.5723  0.9971  0.8667
  748SOL     OW 2242   0.923   1.904   0.757 -0.3886 -0.5549 -0.2895
  748SOL    HW1 2243   0.966   1.825   0.714  1.2551  3.9130 -1.2394
  748SOL    HW2 2244   0.878   1.874   0.844 -2.6129  0.1377  1.5201
  749SOL     OW 2245   2.944   0.121   2.082  0.0581  0.3364 -0.0392
  749SOL    HW1 2246   2.966   0.223   2.087 -0.6720 -0.6633  1.2749
  749SOL    HW2 2247   2.958   0.077   2.168 -1.9801 -0.8842 -1.5971
  750SOL     OW 2248   1.617   0.320   1.509 -0.1983 -0.4116  0.5120
  750SOL    HW1 2249   1.693   0.331   1.441  0.1827 -0.1239 -0.0246
  750SOL    HW2 2250   1.536   0.301   1.453  0.8171 -2.6482  1.7065
  751SOL     OW 2251   1.761   2.858   0.015  0.3938 -0.0803  0.6615
  751SOL    HW1 2252   1.660   2.842   0.031  0.4678  1.4963  0.5921
  751SOL    HW2 2253   1.794   2.791   3.067  0.0552  3.3503  1.7724
  752SOL     OW 2254   1.802   2.056   0.299 -0.0629  0.5275  0.0848
  752SOL    HW1 2255   1.726   2.066   0.233  0.0361  0.2502  0.4958
  752SOL    HW2 2256   1.883   2.117   0.279  0.8678  1.1840 -4.5012
  753SOL     OW 2257   1.744   1.002   2.476 -0.4258 -0.1336  0.0015
  753SOL    HW1 2258   1.647   0.989   2.506 -0.3186 -0.4396 -1.8894
  753SOL    HW2 2259   1.794   1.071   2.526  1.0535  1.1867 -1.9272
  754SOL     OW 2260   0.202   2.813   0.487 -0.9599  0.4607 -0.0050
  754SOL    HW1 2261   0.135   2.758   0.540  0.3437 -1.8095 -1.2570
  754SOL    HW2 2262   0.244   2.891   0.542 -0.4713 -0.6083  0.5108
  755SOL     OW 2263   2.090   0.604   0.939  0.0979  0.3349 -0.3109
  755SOL    HW1 2264   2.129   0.698   0.946  1.0934  0.0426 -0.8064
  755SOL    HW2 2265   2.049   0.589   1.030  2.0356 -2.0252 -2.2522
  756SOL     OW 2266   1.139   1.776   2.654  0.3489  0.2028  0.1342
  756SOL    HW1 2267   1.048   1.821   2.670  1.2928  0.6306 -1.4075
  756SOL    HW2 2268   1.190   1.767   2.742 -0.7386 -2.0298 -1.0188
  757SOL     OW 2269   2.442   3.083   1.027 -0.0454  0.1539 -0.2925
  757SOL    HW1 2270   2.427   2.984   1.012 -0.4318  1.5854 -0.7520
  757SOL    HW2 2271   2.396   3.102   1.110  1.8295 -0.2236 -0.5344
  758SOL     OW 2272   0.683   2.948   1.735  0.4016  0.3584 -0.1170
  758SOL    HW1 2273   0.620   2.943   1.653 -0.4020 -0.3808  0.8610
  758SOL    HW2 2274   0.659   3.034   1.783 -1.8955  0.1167 -1.1458
  759SOL     OW 2275   2.333   1.174   1.044  0.0093 -0.4065 -0.0294
  759SOL    HW1 2276   2.385   1.261   1.046  1.9483  0.7896  0.4455
  759SOL    HW2 2277   2.267   1.169   1.119  2.3240  1.4109 -0.9649
  760SOL     OW 2278   1.934   1.016   1.594 -0.9366 -0.1994 -0.5434
  760SOL    HW1 2279   1.986   0.926   1.603  1.3234  0.0982 -0.8895
  760SOL    HW2 2280   1.978   1.073   1.524  0.2931 -0.2835  0.9701
  761SOL     OW 2281   2.101   0.163   0.199  0.0395  0.3143  0.2909
  761SOL    HW1 2282   2.024   0.211   0.251 -0.3196 -1.7861  0.7685
  761SOL    HW2 2283   2.070   0.074   0.157 -1.1856 -2.0687 -2.2387
  762SOL     OW 2284   1.994   2.253   0.233  0.5596  0.1367 -0.1631
  762SOL    HW1 2285   2.092   2.273   0.215  2.6293 -2.6210  1.0297
  762SOL    HW2 2286   1.928   2.301   0.172 -0.4987  1.7509 -0.4338
  763SOL     OW 2287   0.719   0.855   1.056  0.0883 -0.5465  0.3219
  763SOL    HW1 2288   0.775   0.900   0.982 -0.4242 -0.9281 -0.6328
  763SOL    HW2 2289   0.727   0.896   1.150  0.5264  0.6407  1.0114
  764SOL     OW 2290   2.377   2.416   2.979 -0.1771  0.6128  0.0957
  764SOL    HW1 2291   2.466   2.414   2.926  0.9479 -2.1155 -2.6677
  764SOL    HW2 2292   2.364   2.506   3.029 -1.2967  0.4765  2.1886
  765SOL     OW 2293   0.817   0.287   2.137 -0.4192 -0.2751 -0.0056
  765SOL    HW1 2294   0.895   0.319   2.202  2.5792  1.1036  3.2209
  765SOL    HW2 2295   0.824   0.325   2.044  3.6556  0.5484  1.5849
  766SOL     OW 2296   0.294   1.215   2.343  0.6839 -0.7621 -0.3978
  766SOL    HW1 2297   0.265   1.137   2.398  0.5531 -0.4852 -1.3829
  766SOL    HW2 2298   0.222   1.289   2.341 -1.2451  0.4254  0.0266
  767SOL     OW 2299   2.935   1.650   1.934 -0.3972  0.1906  0.0057
  767SOL    HW1 2300   2.841   1.670   1.906  0.8158 -1.5368  2.0114
  767SOL    HW2 2301   2.999   1.727   1.918  1.5061 -1.8752  0.1826
  768SOL     OW 2302   1.011   1.105   3.045  0.7266 -0.2096  0.0198
  768SOL    HW1 2303   0.936   1.068   2.989  0.8269  0.4119  1.8370
  768SOL    HW2 2304   1.060   1.190   3.011  1.7402  1.1596  1.9902
  769SOL     OW 2305   2.226   2.991   3.053  0.3879  0.6350 -0.5896
  769SOL    HW1 2306   2.196   2.919   2.983  0.9309  0.6833 -0.5432
  769SOL    HW2 2307   2.147   3.019   3.114  1.1279  2.3331 -0.2928
  770SOL     OW 2308   0.021   0.453   2.567 -0.1485 -0.1332  0.2165
  770SOL    HW1 2309   0.038   0.539   2.512  2.0322  5.2535 -1.0005
  770SOL    HW2 2310   3.042   0.426   2.565  0.5418  1.0116 -0.2351
  771SOL     OW 2311   1.155   2.194   1.650 -0.1014 -0.2617 -0.5804
  771SOL    HW1 2312   1.257   2.183   1.667  1.6151 -1.4211  2.6761
  771SOL    HW2 2313   1.141   2.267   1.581 -1.5297 -0.8455  1.7048
  772SOL     OW 2314   0.512   0.639   3.058 -0.5930 -0.5699  0.0996
  772SOL    HW1 2315   0.491   0.678   2.967 -2.4186 -2.4110  0.1522
  772SOL    HW2 2316   0.428   0.631   3.119 -2.8156 -0.7412  1.1937
  773SOL     OW 2317   2.621   0.952   1.668 -0.1503  0.2481  0.7460
  773SOL    HW1 2318   2.557   0.879   1.686  2.6702 -0.7997 -0.1116
  773SOL    HW2 2319   2.713   0.912   1.654  1.7181  0.1295 -0.6791
  774SOL     OW 2320   1.397   0.697   0.361 -0.2560  0.0448  0.2075
  774SOL    HW1 2321   1.425   0.665   0.454  1.8665 -1.4480  0.0065
  774SOL    HW2 2322   1.308   0.742   0.359 -0.0867 -0.4039  0.0848
  775SOL     OW 2323   2.405   2.704   3.091 -0.7238  0.2854  0.2070
  775SOL    HW1 2324   2.346   2.736   3.015 -1.4494 -1.6430  0.0503
  775SOL    HW2 2325   2.349   2.682   0.049  0.5862  0.4104 -2.3182
  776SOL     OW 2326   2.384   0.578   2.084 -0.6341 -0.4763 -0.3549
  776SOL    HW1 2327   2.374   0.568   2.187 -1.2986 -2.6060 -0.3972
  776SOL    HW2 2328   2.353   0.494   2.031  1.3023 -0.9022 -1.7834
  777SOL     OW 2329   0.528   1.343   2.801 -0.3278 -0.1933  0.0507
  777SOL    HW1 2330   0.493   1.394   2.724  3.0742 -1.8953 -1.5491
  777SOL    HW2 2331   0.598   1.278   2.770 -1.4689 -1.0183 -0.1876
  778SOL     OW 2332   0.973   0.043   0.454  0.2710  0.0988  0.6603
  778SOL    HW1 2333   0.929   0.134   0.425  0.3374  0.6295 -3.5226
  778SOL    HW2 2334   0.957   0.016   0.551  0.7559  1.7388 -2.1723
  779SOL     OW 2335   0.467   0.980   2.626 -0.5375  0.4122 -0.3628
  779SOL    HW1 2336   0.368   0.989   2.605  0.2368 -0.9341 -2.4268
  779SOL    HW2 2337   0.513   0.914   2.559  1.8782 -1.7812  0.9334
  780SOL     OW 2338   2.062   0.757   2.724 -0.2946  0.2215 -0.7575
  780SOL    HW1 2339   2.154   0.761   2.681  0.4534 -0.9219  3.1660
  780SOL    HW2 2340   1.983   0.744   2.661 -1.2585 -1.3363  1.7773
  781SOL     OW 2341   2.497   1.403   1.899  0.1236 -0.1913  0.1299
  781SOL    HW1 2342   2.563   1.371   1.830  1.2134 -1.3434 -0.4908
  781SOL    HW2 2343   2.459   1.495   1.888  1.1679 -2.0622 -0.0546
  782SOL     OW 2344   1.222   1.786   2.395 -0.5323  0.7157 -0.6217
  782SOL    HW1 2345   1.183   1.709   2.342  1.8439  0.6824  1.0548
  782SOL    HW2 2346   1.192   1.777   2.490  0.2137  0.4166  0.0665
  783SOL     OW 2347   0.428   2.730   1.422  0.4083  0.1498  0.6078
  783SOL    HW1 2348   0.468   2.821   1.434 -0.5705  1.9889 -0.8531
  783SOL    HW2 2349   0.334   2.731   1.450  0.3351 -3.3090  0.8944
  784SOL     OW 2350   1.532   0.627   3.056 -0.4844 -0.2421  0.0156
  784SOL    HW1 2351   1.529   0.577   2.963  0.0347 -2.0017 -2.5987
  784SOL    HW2 2352   1.605   0.697   3.051 -1.5339  1.9018 -0.4156
  785SOL     OW 2353   1.300   0.279   0.150 -0.1080  0.4182 -0.3551
  785SOL    HW1 2354   1.363   0.359   0.177 -0.2745 -0.7844 -0.2734
  785SOL    HW2 2355   1.361   0.196   0.134 -2.0930 -0.4741 -0.5232
  786SOL     OW 2356   0.373   1.546   0.513  0.4320 -0.1967 -0.3189
  786SOL    HW1 2357   0.407   1.449   0.524 -1.7695 -0.4323  1.9905
  786SOL    HW2 2358   0.298   1.559   0.447  0.9594 -2.3634 -1.7829
  787SOL     OW 2359   1.687   1.536   0.225  0.0176 -0.3537 -0.3626
  787SOL    HW1 2360   1.769   1.528   0.287 -1.7141 -1.5884  0.5217
  787SOL    HW2 2361   1.641   1.447   0.226  0.3388  1.2648 -0.5066
  788SOL     OW 2362   1.851   1.583   1.323 -0.2336 -0.1395  0.6329
  788SOL    HW1 2363   1.758   1.559   1.302  1.1179 -3.6543  1.5185
  788SOL    HW2 2364   1.886   1.666   1.274  1.6749 -0.8621 -0.2833
  789SOL     OW 2365   2.899   1.300   1.861 -0.2881 -0.5455 -0.2222
  789SOL    HW1 2366   2.942   1.361   1.929 -0.7880  1.7441  0.5004
  789SOL    HW2 2367   2.837   1.236   1.913 -0.3525  0.1109  1.6047
  790SOL     OW 2368   0.435   2.928   2.998 -0.0437  0.0756 -0.8604
  790SOL    HW1 2369   0.437   2.882   3.089  1.0282  0.7608  2.1659
  790SOL    HW2 2370   0.485   2.872   2.930  0.4077  0.5113  2.3896
  791SOL     OW 2371   0.566   0.151   2.473  0.0285  0.5755 -0.3492
  791SOL    HW1 2372   0.504   0.230   2.445 -1.6507  1.2780 -0.4233
  791SOL    HW2 2373   0.539   0.102   2.560  2.4555  0.8793  1.0652
  792SOL     OW 2374   1.984   0.391   2.605  0.0832  0.1991  0.0070
  792SOL    HW1 2375   2.003   0.362   2.700 -0.0215  0.5384 -1.2218
  792SOL    HW2 2376   1.920   0.468   2.592 -0.7327  0.1419 -1.5333
  793SOL     OW 2377   0.014   0.561   1.207 -0.1072  0.4463 -0.3588
  793SOL    HW1 2378   3.103   0.505   1.285 -2.5862  2.1932 -1.2674
  793SOL    HW2 2379   0.032   0.649   1.255 -0.6524  2.0368  2.5517
  794SOL     OW 2380   0.593   0.570   2.264 -0.4862 -0.1240  0.7498
  794SOL    HW1 2381   0.695   0.564   2.272  0.4505 -0.9744 -0.8276
  794SOL    HW2 2382   0.560   0.569   2.168  1.3587  1.8983  1.0936
  795SOL     OW 2383   0.178   1.271   0.226  0.1156  0.0377  0.1649
  795SOL    HW1 2384   0.092   1.274   0.171  1.7297 -1.2297 -2.1562
  795SOL    HW2 2385   0.167   1.239   0.326  2.8436 -1.2670  0.6157
  796SOL     OW 2386   3.028   2.891   0.448  0.1755  0.1217 -0.7791
  796SOL    HW1 2387   3.012   2.799   0.407  1.0781  0.6909 -1.5652
  796SOL    HW2 2388   3.101   2.933   0.394  0.9474 -1.9388  1.6421
  797SOL     OW 2389   1.979   2.691   2.184 -0.2436 -0.0601  0.1168
  797SOL    HW1 2390   2.034   2.673   2.096  1.5786 -0.3750 -1.8471
  797SOL    HW2 2391   2.033   2.753   2.245 -0.6573 -2.0482  1.7214
  798SOL     OW 2392   3.083   1.064   0.867  0.2127  0.1176  0.5365
  798SOL    HW1 2393   0.062   1.081   0.843  0.1357  0.1744 -0.1931
  798SOL    HW2 2394   3.066   0.964   0.861 -0.5199  1.1606  0.3007
  799SOL     OW 2395   2.850   0.621   2.824  0.0071 -0.2974 -0.3284
  799SOL    HW1 2396   2.947   0.631   2.855 -1.4332  0.4316  2.4059
  799SOL    HW2 2397   2.828   0.694   2.756 -0.2913  1.0989 -0.5843
  800SOL     OW 2398   3.000   2.293   0.203  0.0403  0.1578 -0.3703
  800SOL    HW1 2399   3.061   2.370   0.176  0.5743  0.3738 -2.9077
  800SOL    HW2 2400   3.050   2.202   0.213  1.2147 -1.2208  0.9780
  801SOL     OW 2401   1.221   1.330   0.926 -0.3363  0.6821 -0.3204
  801SOL    HW1 2402   1.266   1.385   0.853  0.1783 -1.4717  1.8320
  801SOL    HW2 2403   1.185   1.389   1.002 -0.1205 -3.7495 -1.7516
  802SOL     OW 2404   1.220   1.799   1.905  0.0861 -0.0989  0.3065
  802SOL    HW1 2405   1.274   1.876   1.947  0.3202  0.8209 -0.4378
  802SOL    HW2 2406   1.172   1.841   1.823 -2.7584  1.8502 -2.1179
  803SOL     OW 2407   0.196   1.441   0.875 -0.2672  0.1697 -0.2910
  803SOL    HW1 2408   0.157   1.427   0.782  2.9775 -1.3748  0.2766
  803SOL    HW2 2409   0.271   1.505   0.878  0.8572 -0.5350  0.7930
  804SOL     OW 2410   1.090   2.375   1.454 -0.3309 -0.5045  0.2008
  804SOL    HW1 2411   1.175   2.355   1.399  0.1190  1.9665 -0.2934
  804SOL    HW2 2412   1.004   2.340   1.408  1.6203  2.6975  1.7829
  805SOL     OW 2413   2.077   1.552   3.037 -0.2249  0.4179  0.0384
  805SOL    HW1 2414   2.076   1.635   3.091 -0.5690 -2.3311  0.3868
  805SOL    HW2 2415   1.983   1.538   2.995 -1.9572  1.3487 -0.8153
  806SOL     OW 2416   1.666   2.596   1.328 -0.2701  0.9970  0.2994
  806SOL    HW1 2417   1.760   2.609   1.287  0.8046 -0.8111  1.0683
  806SOL    HW2 2418   1.608   2.673   1.306  2.9863 -3.0218 -0.9908
  807SOL     OW 2419   2.788   0.684   3.103 -0.0904  0.0816 -0.2090
  807SOL    HW1 2420   2.814   0.779   0.010 -2.2354  1.1389 -1.8701
  807SOL    HW2 2421   2.775   0.677   3.005  1.4896  0.5596  2.2915
  808SOL     OW 2422   0.213   1.118   0.786  0.6994 -0.4764 -0.4862
  808SOL    HW1 2423   0.278   1.039   0.779  1.3039  0.6029  3.2971
  808SOL    HW2 2424   0.259   1.199   0.829  0.7948  0.8117 -0.3980
  809SOL     OW 2425   2.725   0.739   2.412 -0.5764 -0.0445  0.2051
  809SOL    HW1 2426   2.677   0.807   2.352 -0.3695  1.1105 -0.4330
  809SOL    HW2 2427   2.729   0.646   2.371 -0.4414 -0.6774 -3.0023
  810SOL     OW 2428   1.611   0.623   1.535  0.6487 -0.1263 -0.3776
  810SOL    HW1 2429   1.646   0.610   1.630 -3.5068  1.3850  0.3504
  810SOL    HW2 2430   1.576   0.537   1.503  0.0921  0.5919  1.7700
  811SOL     OW 2431   1.984   2.720   1.515  0.2133  0.1884 -0.3175
  811SOL    HW1 2432   1.982   2.616   1.510 -1.0244 -1.2792  0.2734
  811SOL    HW2 2433   1.997   2.762   1.423  1.2286 -1.4895 -0.8574
  812SOL     OW 2434   1.795   2.669   2.958 -0.2282 -0.5046 -0.9267
  812SOL    HW1 2435   1.751   2.587   2.918  2.0534 -1.6980 -1.1636
  812SOL    HW2 2436   1.887   2.646   2.990 -0.3378  0.2251 -1.3424
  813SOL     OW 2437   1.790   1.040   2.203 -1.0428  0.2417  0.0995
  813SOL    HW1 2438   1.806   1.139   2.198 -1.6222  0.8315  3.7961
  813SOL    HW2 2439   1.776   1.014   2.301 -2.1451 -1.2659  2.0691
  814SOL     OW 2440   1.361   0.456   1.928 -0.3666  0.0787  0.1185
  814SOL    HW1 2441   1.388   0.386   2.004 -1.0394 -1.3100  0.3189
  814SOL    HW2 2442   1.308   0.534   1.967  2.2834  1.9271 -0.1186
  815SOL     OW 2443   0.519   0.583   0.307  0.2083  0.1176  0.1279
  815SOL    HW1 2444   0.593   0.638   0.348  0.2284 -2.5570  1.6561
  815SOL    HW2 2445   0.505   0.582   0.209  0.4931 -0.5661  1.0443
  816SOL     OW 2446   2.367   1.871   2.559 -0.3572 -0.6096  0.7226
  816SOL    HW1 2447   2.311   1.840   2.634  6.1371 -1.1461 -2.5127
  816SOL    HW2 2448   2.414   1.959   2.585 -0.4734  0.8588  1.6786
  817SOL     OW 2449   0.528   2.463   0.597 -0.4128 -0.5182 -0.1043
  817SOL    HW1 2450   0.530   2.373   0.645 -0.0380  1.6799 -0.4740
  817SOL    HW2 2451   0.437   2.503   0.596  1.9382  3.0792  1.1963
  818SOL     OW 2452   1.957   0.040   2.934 -0.0483 -0.3852 -0.7817
  818SOL    HW1 2453   1.993   0.136   2.936 -1.8480 -0.0096  0.2517
  818SOL    HW2 2454   1.856   0.042   2.936  1.2474 -2.9462  0.4563
  819SOL     OW 2455   1.713   0.404   0.163  0.0801  0.2521 -0.4838
  819SOL    HW1 2456   1.613   0.440   0.171 -2.3025 -1.0611 -0.3093
  819SOL    HW2 2457   1.775   0.485   0.188  0.9112 -0.6252  0.5413
  820SOL     OW 2458   1.679   0.772   0.365 -0.5746 -0.7202 -0.3362
  820SOL    HW1 2459   1.584   0.757   0.342  0.9872 -1.1262  2.3792
  820SOL    HW2 2460   1.692   0.787   0.466  3.0504 -2.9157  1.3824
  821SOL     OW 2461   2.420   2.783   0.457 -0.7270 -0.1094  0.4099
  821SOL    HW1 2462   2.341   2.847   0.454  0.6608 -0.2277  3.2810
  821SOL    HW2 2463   2.501   2.827   0.410 -1.1331 -0.8920  0.0058
  822SOL     OW 2464   0.107   2.851   1.968 -0.2291  0.6986  0.0529
  822SOL    HW1 2465   0.031   2.920   1.949  1.6897 -0.9520  0.6573
  822SOL    HW2 2466   0.183   2.845   1.899  2.3230  0.5178 -0.0432
  823SOL     OW 2467   2.716   1.887   1.656 -0.5016 -0.3792  0.3452
  823SOL    HW1 2468   2.814   1.860   1.651 -1.2693  0.7869 -1.0553
  823SOL    HW2 2469   2.693   1.986   1.675 -2.1690  4.0222  3.9491
  824SOL     OW 2470   1.310   2.831   2.446 -0.2543 -0.2823  0.3345
  824SOL    HW1 2471   1.305   2.795   2.351  1.6809 -2.3257 -0.1823
  824SOL    HW2 2472   1.405   2.811   2.487  4.5610 -1.2936  2.1505
  825SOL     OW 2473   1.784   1.368   0.652  0.0207  0.2698  0.4079
  825SOL    HW1 2474   1.745   1.341   0.745 -1.2589 -2.5415  1.5467
  825SOL    HW2 2475   1.719   1.420   0.598 -0.5760  1.3246 -2.6669
  826SOL     OW 2476   1.956   0.715   0.009 -0.2341 -0.2452  0.1763
  826SOL    HW1 2477   1.968   0.817   0.032  3.3830  0.4984 -3.2603
  826SOL    HW2 2478   2.040   0.687   3.078 -0.8782 -0.4830  0.9878
  827SOL     OW 2479   0.470   1.166   1.688 -0.1456 -0.1532 -0.1921
  827SOL    HW1 2480   0.394   1.232   1.683  2.4047 -0.6273 -0.1004
  827SOL    HW2 2481   0.535   1.189   1.612  0.9306  0.9880  0.3975
  828SOL     OW 2482   1.931   1.634   1.752  0.7530  0.0850 -0.3775
  828SOL    HW1 2483   1.835   1.670   1.738 -0.8820 -0.3141  2.3694
  828SOL    HW2 2484   1.979   1.693   1.822 -2.3246  0.9245 -0.9541
  829SOL     OW 2485   0.128   1.983   0.168  0.1534  0.6763  0.4831
  829SOL    HW1 2486   0.145   2.024   0.081  1.8548 -3.1561 -0.1511
  829SOL    HW2 2487   0.186   1.897   0.171  0.8511 -3.7516  1.4085
  830SOL     OW 2488   1.449   0.686   0.620 -0.4710  0.0373  0.3352
  830SOL    HW1 2489   1.543   0.664   0.653  0.4677 -2.1434 -0.2684
  830SOL    HW2 2490   1.383   0.664   0.696 -0.1331  0.3735  1.4539
  831SOL     OW 2491   2.838   1.427   0.164  0.1566  0.2362 -0.6364
  831SOL    HW1 2492   2.765   1.443   0.095  0.8986 -1.2798  0.0085
  831SOL    HW2 2493   2.875   1.516   0.200 -1.6423 -1.8692  0.0713
  832SOL     OW 2494   0.979   3.084   0.024 -0.0753  0.2167  0.7571
  832SOL    HW1 2495   0.878   3.081   0.026 -1.2470  1.0209 -0.0417
  832SOL    HW2 2496   1.009   0.055   0.035 -3.4713 -1.0333 -0.2648
  833SOL     OW 2497   1.360   0.903   1.984  0.1480 -0.0549  0.1364
  833SOL    HW1 2498   1.449   0.855   1.972  2.0016 -3.6418  0.5824
  833SOL    HW2 2499   1.356   0.979   2.052 -0.5588  0.5118 -3.2310
  834SOL     OW 2500   0.094   0.785   1.310  0.3080  1.0112 -0.2279
  834SOL    HW1 2501   0.163   0.826   1.248 -0.2477 -0.9111 -0.1820
  834SOL    HW2 2502   0.113   0.814   1.402  0.6544  2.3982 -2.2564
  835SOL     OW 2503   3.027   0.394   1.416  0.1224  0.1660  0.0039
  835SOL    HW1 2504   2.973   0.317   1.454  2.2056  2.5478 -0.2762
  835SOL    HW2 2505   0.005   0.383   1.442  0.9209 -2.8081  1.4574
  836SOL     OW 2506   0.460   2.101   0.322  0.1258  0.5911  0.3624
  836SOL    HW1 2507   0.545   2.087   0.381  3.0708 -1.4441 -0.3618
  836SOL    HW2 2508   0.449   2.203   0.314 -0.8768  0.7283 -0.7000
  837SOL     OW 2509   1.905   1.832   2.411 -0.9560 -0.0956  0.2307
  837SOL    HW1 2510   1.983   1.898   2.427 -0.5940  1.9229 -0.8254
  837SOL    HW2 2511   1.934   1.741   2.434  1.7161  2.5014  0.2954
  838SOL     OW 2512   0.043   1.242   1.785  0.1692  0.0383 -0.4791
  838SOL    HW1 2513   0.084   1.261   1.875 -0.3130  1.0479 -1.2480
  838SOL    HW2 2514   3.069   1.282   1.776 -1.9800  1.7220 -0.5333
  839SOL     OW 2515   0.394   0.537   0.816  0.2615 -0.2759  0.2654
  839SOL    HW1 2516   0.339   0.556   0.902 -0.6470  0.2035  1.0095
  839SOL    HW2 2517   0.444   0.444   0.814 -0.1957 -0.7771 -1.0391
  840SOL     OW 2518   2.912   0.312   2.594 -0.2746  0.0057  0.0040
  840SOL    HW1 2519   2.907   0.302   2.694  0.0469 -2.3415 -2.7101
  840SOL    HW2 2520   2.879   0.227   2.554  3.2939 -1.2424 -0.3140
  841SOL     OW 2521   0.702   2.525   3.045 -0.5080 -0.0970  0.2858
  841SOL    HW1 2522   0.778   2.534   2.979  1.0518  1.5031 -0.2264
  841SOL    HW2 2523   0.739   2.555   0.018  2.4952  1.0751  3.5760
  842SOL     OW 2524   0.701   2.987   1.224  0.0737  0.6111 -0.3231
  842SOL    HW1 2525   0.639   3.040   1.162 -1.2130 -0.2669 -1.1594
  842SOL    HW2 2526   0.723   2.892   1.187  0.6882 -1.1066  0.5056
  843SOL     OW 2527   0.123   0.859   0.064  0.2376  0.2805  0.2041
  843SOL    HW1 2528   0.028   0.868   0.102 -0.7488  0.1003  0.5145
  843SOL    HW2 2529   0.195   0.890   0.130  0.0675 -1.7289  3.0818
  844SOL     OW 2530   1.256   2.463   2.564  0.2638  0.0174  0.7364
  844SOL    HW1 2531   1.314   2.379   2.568  0.0866 -1.0293 -0.7651
  844SOL    HW2 2532   1.205   2.463   2.475 -0.3400 -0.5802  2.2434
  845SOL     OW 2533   2.283   2.951   2.701 -0.0053  0.1304  0.0400
  845SOL    HW1 2534   2.313   3.046   2.728 -1.7747 -0.4099  0.5432
  845SOL    HW2 2535   2.342   2.925   2.621  1.6091 -1.7192  0.1313
  846SOL     OW 2536   2.014   1.557   2.440 -0.4575 -0.4667  0.2004
  846SOL    HW1 2537   2.090   1.571   2.371  2.1796 -0.3128 -0.9240
  846SOL    HW2 2538   2.048   1.515   2.523  1.5626 -0.6692 -1.7148
  847SOL     OW 2539   2.825   2.974   2.989  0.0427  0.2754  0.2542
  847SOL    HW1 2540   2.766   3.025   2.922  0.9633  1.3719 -1.5125
  847SOL    HW2 2541   2.921   3.009   2.998  1.9042 -1.2944  1.7448
  848SOL     OW 2542   0.442   0.338   0.397 -0.0759 -0.4529  0.2763
  848SOL    HW1 2543   0.341   0.355   0.391  3.1646  1.2365 -0.6915
  848SOL    HW2 2544   0.496   0.406   0.340  1.3865  1.9805 -1.1614
  849SOL     OW 2545   1.521   3.062   2.169  0.0887 -0.4425 -0.5312
  849SOL    HW1 2546   1.618   3.046   2.170 -0.2988 -0.9611 -0.1865
  849SOL    HW2 2547   1.501   0.017   2.231  0.6225 -2.5785 -1.1761
  850SOL     OW 2548   0.783   0.930   0.594 -0.3482  0.1302 -0.2489
  850SOL    HW1 2549   0.871   0.961   0.566 -2.6442  0.1235 -0.1127
  850SOL    HW2 2550   0.798   0.889   0.689 -0.1229 -0.3684  1.8416
  851SOL     OW 2551   0.413   1.233   0.106 -0.2767  0.0271 -0.6949
  851SOL    HW1 2552   0.464   1.298   0.162  1.6697 -0.5847  0.9037
  851SOL    HW2 2553   0.316   1.227   0.144  2.0483 -0.6751  4.2513
  852SOL     OW 2554   1.230   0.280   2.125  0.1890 -0.1721  0.4712
  852SOL    HW1 2555   1.272   0.201   2.075 -2.3464 -2.7562 -0.9277
  852SOL    HW2 2556   1.175   0.334   2.061  0.0895 -3.6945  1.1251
  853SOL     OW 2557   2.720   1.278   0.380  0.0315  0.1913 -0.1781
  853SOL    HW1 2558   2.783   1.314   0.449 -0.3068 -2.2188 -2.8694
  853SOL    HW2 2559   2.746   1.318   0.290  2.7671  2.4208  1.9717
  854SOL     OW 2560   1.162   1.150   2.309 -0.4656 -0.2008 -0.3541
  854SOL    HW1 2561   1.087   1.113   2.371 -4.7902  0.1383 -0.3278
  854SOL    HW2 2562   1.183   1.245   2.335 -0.5603  0.0006 -1.4930
  855SOL     OW 2563   0.159   2.855   2.931 -0.0302  0.1449  0.0185
  855SOL    HW1 2564   0.239   2.907   2.954  0.1527 -1.9009 -1.4000
  855SOL    HW2 2565   0.148   2.781   2.997  1.9144 -0.0877 -1.2243
  856SOL     OW 2566   1.484   1.013   2.462 -0.0745 -0.7422  0.1519
  856SOL    HW1 2567   1.507   1.042   2.369  0.8588 -1.3378  2.0319
  856SOL    HW2 2568   1.418   0.931   2.453  1.2471 -1.0165 -2.8963
  857SOL     OW 2569   1.323   0.779   2.486 -0.2842  0.5237  0.2350
  857SOL    HW1 2570   1.390   0.718   2.438 -1.8011  2.4817 -0.5579
  857SOL    HW2 2571   1.234   0.734   2.494  0.4722 -0.6285 -0.5455
  858SOL     OW 2572   2.748   1.154   2.055 -0.1608 -0.2295  0.4838
  858SOL    HW1 2573   2.651   1.174   2.083 -1.7334 -1.6701 -1.2090
  858SOL    HW2 2574   2.822   1.180   2.121 -2.4059 -0.3645  1.9297
  859SOL     OW 2575   2.329   0.449   0.663  0.3367 -0.5359 -0.1619
  859SOL    HW1 2576   2.308   0.550   0.681 -1.1443  0.0800 -0.3539
  859SOL    HW2 2577   2.425   0.419   0.654 -1.1692 -1.3463 -1.2271
  860SOL     OW 2578   1.689   0.046   0.319 -0.3422 -0.5622 -0.1672
  860SOL    HW1 2579   1.785   0.081   0.296 -0.8698  0.3526 -2.2501
  860SOL    HW2 2580   1.692   3.067   0.342 -0.6274 -1.0620 -3.4060
  861SOL     OW 2581   1.158   0.558   1.333  0.3094  0.0601 -0.3934
  861SOL    HW1 2582   1.194   0.462   1.357  0.2742 -2.1688 -1.8717
  861SOL    HW2 2583   1.057   0.565   1.357  0.8872  2.8745  0.4476
  862SOL     OW 2584   1.520   0.091   2.421 -0.0985  0.6391 -0.0815
  862SOL    HW1 2585   1.590   0.024   2.444  0.5569  0.7753 -1.3422
  862SOL    HW2 2586   1.423   0.059   2.439  0.6788 -0.9920  2.4957
  863SOL     OW 2587   2.609   2.413   0.660 -0.1460 -0.1089  0.1568
  863SOL    HW1 2588   2.511   2.401   0.693 -0.4063 -2.1432  0.0118
  863SOL    HW2 2589   2.612   2.393   0.560  0.1172 -0.4344 -0.8614
  864SOL     OW 2590   2.426   0.175   2.187  0.0144  0.6167 -0.1500
  864SOL    HW1 2591   2.441   0.258   2.245 -2.4748 -1.5584  0.4110
  864SOL    HW2 2592   2.510   0.162   2.130 -2.4918  1.9290  1.5331
  865SOL     OW 2593   1.390   1.329   2.058  0.0469  0.4637  0.2839
  865SOL    HW1 2594   1.307   1.321   1.997 -1.3282 -0.1639  2.3545
  865SOL    HW2 2595   1.470   1.345   1.997 -0.0797 -1.6104 -2.2793
  866SOL     OW 2596   1.773   2.645   0.997 -0.3195  0.0463 -0.2703
  866SOL    HW1 2597   1.747   2.559   1.036 -0.2266  3.9762  2.9468
  866SOL    HW2 2598   1.687   2.702   0.995 -1.1102  1.4814 -2.2623
  867SOL     OW 2599   2.234   2.995   0.477 -0.2824  0.5818 -0.3216
  867SOL    HW1 2600   2.246   3.000   0.578 -0.3518  0.2387 -0.2800
  867SOL    HW2 2601   2.262   3.089   0.437  0.3840  0.1920 -2.6882
  868SOL     OW 2602   0.183   2.245   2.000 -0.0901 -0.3477 -0.3804
  868SOL    HW1 2603   0.199   2.289   1.910 -1.8347  2.2311  0.1748
  868SOL    HW2 2604   0.169   2.308   2.078 -0.2878 -1.4744  1.4827
  869SOL     OW 2605   2.169   2.336   2.001 -0.1884  1.1692  0.6753
  869SOL    HW1 2606   2.088   2.284   1.969  0.9032  2.1670  0.3190
  869SOL    HW2 2607   2.143   2.378   2.088 -0.3196 -0.6838 -2.6065
  870SOL     OW 2608   1.450   1.427   0.729 -0.0076 -0.1987  0.4792
  870SOL    HW1 2609   1.501   1.469   0.652  0.8220 -0.0218  3.4646
  870SOL    HW2 2610   1.506   1.376   0.799 -0.1164  0.9140 -1.9659
  871SOL     OW 2611   2.982   1.765   1.638 -0.2379  0.1651  0.2612
  871SOL    HW1 2612   3.076   1.739   1.633 -4.8034  1.2987 -1.5844
  871SOL    HW2 2613   2.924   1.684   1.653  2.0600 -0.6053 -0.2010
  872SOL     OW 2614   0.730   1.807   2.495  0.5955 -0.6122  0.2300
  872SOL    HW1 2615   0.775   1.824   2.584  2.6694 -1.8756  0.2051
  872SOL    HW2 2616   0.716   1.895   2.441 -2.8407  3.7253  0.5837
  873SOL     OW 2617   0.635   1.684   2.113 -0.3656  0.0004 -0.2303
  873SOL    HW1 2618   0.709   1.755   2.119 -1.8706 -0.8674 -0.5379
  873SOL    HW2 2619   0.669   1.593   2.155 -1.3584 -0.1623  0.0761
  874SOL     OW 2620   1.668   0.763   2.168 -0.8671  0.6932 -0.3212
  874SOL    HW1 2621   1.640   0.743   2.078 -0.0305  2.2482  4.8728
  874SOL    HW2 2622   1.682   0.860   2.181  1.1955 -5.2056  1.4112
  875SOL     OW 2623   3.093   0.086   0.188  0.6162  0.2095 -0.1394
  875SOL    HW1 2624   3.084   3.108   0.169  1.2628 -1.3129  1.5602
  875SOL    HW2 2625   3.040   0.111   0.271 -0.1217 -1.8256 -0.4969
  876SOL     OW 2626   0.817   1.289   0.270  0.3486  0.1141 -0.4436
  876SOL    HW1 2627   0.826   1.187   0.270 -0.3075 -1.5625  1.6257
  876SOL    HW2 2628   0.818   1.332   0.359 -2.5629  0.7039  0.1341
  877SOL     OW 2629   2.552   2.895   0.689  0.4547 -0.1503  0.2619
  877SOL    HW1 2630   2.560   2.849   0.597 -2.4810 -0.5135  0.9912
  877SOL    HW2 2631   2.458   2.899   0.719  2.1749  0.3699 -1.8936
  878SOL     OW 2632   1.817   1.730   0.593  0.3544 -0.1354  0.4083
  878SOL    HW1 2633   1.832   1.759   0.496  0.0102  0.2574  0.0503
  878SOL    HW2 2634   1.895   1.680   0.634 -1.6462  2.9331  0.2863
  879SOL     OW 2635   2.313   1.629   1.237  0.3397 -0.1337  0.1414
  879SOL    HW1 2636   2.246   1.609   1.164 -0.9412  0.9562  2.2993
  879SOL    HW2 2637   2.408   1.649   1.200 -1.0526  2.0822  0.3917
  880SOL     OW 2638   0.493   1.930   0.842  0.0623 -0.0685 -0.3781
  880SOL    HW1 2639   0.522   1.910   0.939 -0.5926  1.1709 -0.5874
  880SOL    HW2 2640   0.500   1.847   0.780 -1.2460 -3.5299 -0.7305
  881SOL     OW 2641   0.705   0.582   1.038 -0.6423  0.2683 -0.5416
  881SOL    HW1 2642   0.719   0.684   1.050  0.4167  1.2280  0.2543
  881SOL    HW2 2643   0.730   0.553   0.942  2.2359 -1.9940 -0.3641
  882SOL     OW 2644   2.524   0.983   0.925  0.1940 -0.1725  0.2467
  882SOL    HW1 2645   2.472   1.041   0.984 -0.0397  0.7200  1.3292
  882SOL    HW2 2646   2.466   0.946   0.849  0.9329 -3.0997  1.0560
  883SOL     OW 2647   1.921   0.117   1.817 -0.0661 -0.2793 -0.5112
  883SOL    HW1 2648   1.913   0.097   1.919  1.1157 -0.1389 -1.9631
  883SOL    HW2 2649   1.827   0.112   1.772 -2.0480 -1.8486  0.8162
  884SOL     OW 2650   2.925   0.186   1.608 -0.6838  0.0061 -0.0345
  884SOL    HW1 2651   3.010   0.187   1.661  0.8212  0.6336 -0.3613
  884SOL    HW2 2652   2.854   0.232   1.657  2.2728  2.1006 -0.7270
  885SOL     OW 2653   1.332   1.490   2.961  0.2106 -0.5434  0.1468
  885SOL    HW1 2654   1.242   1.438   2.968 -1.6714 -1.8126  2.3003
  885SOL    HW2 2655   1.335   1.527   2.867  0.3319 -0.7009  2.0819
  886SOL     OW 2656   1.948   0.355   2.940  1.1049 -0.0436 -0.0928
  886SOL    HW1 2657   1.850   0.359   2.965  1.2994  2.1233 -0.1938
  886SOL    HW2 2658   2.004   0.419   3.001  0.5395  0.6331  0.6419
  887SOL     OW 2659   1.688   0.090   1.683 -0.0281  0.6480  0.3979
  887SOL    HW1 2660   1.649   0.168   1.632  0.5859 -0.5420 -0.5429
  887SOL    HW2 2661   1.721   0.008   1.627  1.4032 -1.4217 -1.3669
  888SOL     OW 2662   2.119   1.871   1.870 -0.2575  0.2530  0.2051
  888SOL    HW1 2663   2.191   1.886   1.794  0.9625  0.8966 -1.8460
  888SOL    HW2 2664   2.165   1.883   1.958  3.5888 -2.1898  1.7622
  889SOL     OW 2665   1.858   2.218   0.498  0.0679  0.1057 -0.5290
  889SOL    HW1 2666   1.811   2.163   0.424 -0.1595 -2.5024 -0.3657
  889SOL    HW2 2667   1.950   2.233   0.464 -0.9224 -2.6824 -1.4020
  890SOL     OW 2668   1.102   1.977   0.458  0.1740  0.1222 -0.6881
  890SOL    HW1 2669   1.106   2.015   0.553 -2.2746 -1.4414  0.8538
  890SOL    HW2 2670   1.185   1.917   0.446 -2.1942  0.0053 -2.1668
  891SOL     OW 2671   2.841   0.948   0.074 -0.1871  0.1437 -0.0422
  891SOL    HW1 2672   2.914   0.919   0.139  0.8235  0.9061  1.2822
  891SOL    HW2 2673   2.760   0.983   0.122  2.4134 -0.4701 -1.3300
  892SOL     OW 2674   1.622   0.632   2.667  0.2397 -0.3866 -0.4056
  892SOL    HW1 2675   1.629   0.554   2.732 -0.3245  0.3495 -0.1157
  892SOL    HW2 2676   1.555   0.610   2.593  0.4529 -1.6660 -1.9744
  893SOL     OW 2677   1.587   2.898   1.654  0.2105  0.6349  0.0064
  893SOL    HW1 2678   1.572   2.918   1.559  3.2684 -1.0753 -0.6892
  893SOL    HW2 2679   1.688   2.875   1.663  1.4439  0.0254 -0.7217
  894SOL     OW 2680   2.822   3.035   0.504  0.0648 -0.0172 -0.4883
  894SOL    HW1 2681   2.911   2.981   0.498 -3.4786 -0.1033 -1.4988
  894SOL    HW2 2682   2.803   3.040   0.607  0.6653  0.8390  3.2462
  895SOL     OW 2683   2.032   2.584   3.036  0.3485 -0.6021 -0.2043
  895SOL    HW1 2684   2.093   2.586   3.114 -0.4578 -0.4920 -0.5870
  895SOL    HW2 2685   2.089   2.566   2.950 -0.1672 -0.7566 -1.0375
  896SOL     OW 2686   2.371   0.024   2.409  0.0448 -0.5861  0.0922
  896SOL    HW1 2687   2.288   0.082   2.433 -1.3483  0.8551 -1.2179
  896SOL    HW2 2688   2.415   0.073   2.333  0.0146 -0.7249 -0.4177
  897SOL     OW 2689   0.355   1.568   1.746 -0.1134  0.6850 -0.1325
  897SOL    HW1 2690   0.358   1.585   1.848  0.2110  0.9550  1.3386
  897SOL    HW2 2691   0.443   1.585   1.697 -1.3937 -0.7105 -0.6862
  898SOL     OW 2692   2.264   1.851   1.651  0.0411  0.0450  0.3542
  898SOL    HW1 2693   2.186   1.809   1.601  1.7191 -0.2249  1.6546
  898SOL    HW2 2694   2.342   1.878   1.589  0.3149  0.1173  1.4163
  899SOL     OW 2695   1.618   2.401   1.125 -1.0006  0.0398  0.2708
  899SOL    HW1 2696   1.522   2.405   1.106  1.1783  0.3029 -1.7723
  899SOL    HW2 2697   1.648   2.467   1.199  0.3650  2.6473  0.1845
  900SOL     OW 2698   1.344   0.814   3.106  0.2157  0.2760 -0.3760
  900SOL    HW1 2699   1.416   0.744   3.085 -0.1920 -1.5710  1.4271
  900SOL    HW2 2700   1.374   0.908   3.078  0.1323 -1.1619 -0.1701
  901SOL     OW 2701   1.481   1.801   2.611  0.0904 -0.0132  0.2553
  901SOL    HW1 2702   1.556   1.750   2.562 -0.7632 -1.0972  0.4405
  901SOL    HW2 2703   1.400   1.823   2.557  1.8973  1.4816  0.2245
  902SOL     OW 2704   3.056   2.540   3.051 -0.0674  0.3235 -0.5759
  902SOL    HW1 2705   3.057   2.631   3.098 -0.3603 -0.3408  1.6888
  902SOL    HW2 2706   0.000   2.482   3.102 -1.1731  2.3705  1.7102
  903SOL     OW 2707   2.296   0.881   1.974  0.9180  0.0635  0.2974
  903SOL    HW1 2708   2.384   0.827   1.978  2.4392 -0.5419  2.1302
  903SOL    HW2 2709   2.309   0.958   2.036  1.0069 -3.1239  0.7205
  904SOL     OW 2710   1.583   0.430   2.843  0.2832 -0.1206 -0.0839
  904SOL    HW1 2711   1.538   0.366   2.775 -0.9801  1.4279  0.0102
  904SOL    HW2 2712   1.601   0.389   2.931 -1.6844 -0.7124 -0.8042
  905SOL     OW 2713   2.171   2.449   1.128 -0.5425 -0.3074 -0.4798
  905SOL    HW1 2714   2.129   2.536   1.095 -0.0570 -0.3366 -0.2604
  905SOL    HW2 2715   2.149   2.371   1.063  0.1864  0.4829 -3.3802
  906SOL     OW 2716   1.581   2.029   0.151 -0.2816  0.5353 -0.3591
  906SOL    HW1 2717   1.505   1.979   0.200  2.2359  1.2364 -1.3394
  906SOL    HW2 2718   1.551   2.089   0.074 -2.2705  0.2411  1.7432
  907SOL     OW 2719   0.691   2.818   0.672  0.3214  0.2680 -0.0499
  907SOL    HW1 2720   0.653   2.792   0.765  2.6357 -2.2115  0.1931
  907SOL    HW2 2721   0.690   2.736   0.609  1.1046  0.2779  1.8650
  908SOL     OW 2722   1.298   2.831   1.973 -0.6904 -0.3166 -0.4787
  908SOL    HW1 2723   1.265   2.745   1.929  0.2931  1.7050  0.2672
  908SOL    HW2 2724   1.400   2.820   1.995 -1.9759  0.1634 -1.4943
  909SOL     OW 2725   1.963   0.600   1.221  0.5197  0.1474 -0.0509
  909SOL    HW1 2726   1.987   0.688   1.267 -1.0681 -0.1444  0.7122
  909SOL    HW2 2727   2.048   0.547   1.226  0.7154 -2.3047  1.5245
  910SOL     OW 2728   1.272   1.055   2.987 -0.4901  0.1204 -0.1239
  910SOL    HW1 2729   1.176   1.050   3.021  2.0924  1.8673  1.4991
  910SOL    HW2 2730   1.290   1.006   2.899 -1.1032 -0.1709  2.0965
  911SOL     OW 2731   3.027   0.840   0.235  0.0051  0.3731  0.2251
  911SOL    HW1 2732   3.006   0.753   0.290 -2.0948 -2.3041 -0.9870
  911SOL    HW2 2733   3.059   0.915   0.293 -0.6859 -0.9722  0.3721
  912SOL     OW 2734   0.149   2.401   0.060  0.3526  0.1311  0.3328
  912SOL    HW1 2735   0.172   2.307   0.029 -0.9310 -1.0967  0.0312
  912SOL    HW2 2736   0.176   2.416   0.157  1.0383  0.0652  2.0841
  913SOL     OW 2737   2.514   2.053   2.688 -0.0549 -0.2838 -0.8203
  913SOL    HW1 2738   2.551   2.055   2.784 -1.5182 -0.4674 -0.7112
  913SOL    HW2 2739   2.594   2.048   2.628  0.0775 -0.0329  1.0310
  914SOL     OW 2740   1.381   1.849   1.583  0.1849  0.1241  0.2787
  914SOL    HW1 2741   1.369   1.833   1.481  0.7115 -0.0995 -0.9725
  914SOL    HW2 2742   1.417   1.767   1.632  2.0490 -2.8082  3.4067
  915SOL     OW 2743   0.595   2.872   2.093  0.4842 -0.0277  0.3780
  915SOL    HW1 2744   0.555   2.948   2.038  2.5625  2.4243  4.2811
  915SOL    HW2 2745   0.588   2.891   2.192 -1.1198 -1.6307 -2.7024
  916SOL     OW 2746   0.640   1.290   1.938  0.9039 -0.0683 -0.4980
  916SOL    HW1 2747   0.634   1.245   2.036  0.0874 -1.0107  4.3570
  916SOL    HW2 2748   0.593   1.234   1.863  1.6063 -1.0970 -0.0873
  917SOL     OW 2749   2.565   0.422   0.533 -0.2237 -0.6537 -0.3095
  917SOL    HW1 2750   2.563   0.348   0.463  2.2809  1.7057  3.0936
  917SOL    HW2 2751   2.667   0.436   0.550  1.8880 -0.6451  0.3738
  918SOL     OW 2752   1.699   2.620   2.181 -0.9970 -0.0130  0.3762
  918SOL    HW1 2753   1.655   2.587   2.268 -2.7837 -0.1397  2.0590
  918SOL    HW2 2754   1.792   2.657   2.200  0.0603  0.5283  0.9965
  919SOL     OW 2755   1.455   2.616   1.713 -0.2735  0.3142  0.3443
  919SOL    HW1 2756   1.499   2.708   1.705 -0.0352 -0.2404  1.3796
  919SOL    HW2 2757   1.367   2.628   1.766  0.7614  3.4895  0.6435
  920SOL     OW 2758   0.823   0.968   2.907  0.2164 -1.0248 -0.1660
  920SOL    HW1 2759   0.774   1.013   2.834 -0.0873 -0.5635  2.8137
  920SOL    HW2 2760   0.772   0.902   2.969  0.6622 -0.9420  0.7075
  921SOL     OW 2761   0.095   0.347   2.799 -0.3508  0.1834  0.3375
  921SOL    HW1 2762   0.044   0.391   2.724 -0.0002 -1.3338  1.7125
  921SOL    HW2 2763   0.197   0.350   2.776  0.9955 -2.7848  0.2797
  922SOL     OW 2764   0.828   1.805   1.022  0.0551 -0.0274  0.1167
  922SOL    HW1 2765   0.751   1.757   0.978 -2.9481  2.2440  0.6935
  922SOL    HW2 2766   0.792   1.862   1.098  3.2904 -0.6707 -3.7291
  923SOL     OW 2767   0.718   1.073   2.167  0.1590 -0.3305 -0.0766
  923SOL    HW1 2768   0.778   0.991   2.164  0.6770 -0.8688  0.8532
  923SOL    HW2 2769   0.617   1.059   2.151  0.9310  0.2394 -0.7940
  924SOL     OW 2770   1.377   0.007   2.885  0.2256  1.0111  0.3515
  924SOL    HW1 2771   1.367   3.028   2.912 -2.1061 -2.2504 -3.0927
  924SOL    HW2 2772   1.287   0.039   2.843  0.1809 -0.9560  0.4304
  925SOL     OW 2773   2.592   1.427   1.517 -0.3828 -0.0323 -0.2312
  925SOL    HW1 2774   2.645   1.356   1.573 -1.9630  1.3754 -0.4567
  925SOL    HW2 2775   2.653   1.459   1.443  3.0916  0.7247  0.7768
  926SOL     OW 2776   1.722   0.972   1.751  0.1771 -0.3638  0.5811
  926SOL    HW1 2777   1.629   1.013   1.724 -3.0861  1.6979 -0.1370
  926SOL    HW2 2778   1.797   1.001   1.689 -1.2760  0.7568 -1.2253
  927SOL     OW 2779   2.028   2.880   1.287  0.2690  0.3943 -0.3025
  927SOL    HW1 2780   2.125   2.847   1.286 -0.2703 -0.5043  0.4247
  927SOL    HW2 2781   2.018   2.967   1.342  1.2885  0.0862 -0.5228
  928SOL     OW 2782   0.459   1.072   2.149  0.2525  0.3819  0.5496
  928SOL    HW1 2783   0.406   1.110   2.224  0.3802 -1.5578 -0.6358
  928SOL    HW2 2784   0.404   1.051   2.063  0.3545  1.5379 -0.3031
  929SOL     OW 2785   2.669   0.565   0.895 -0.6617 -0.4906  0.5437
  929SOL    HW1 2786   2.608   0.486   0.909  1.2127  1.6625 -1.2542
  929SOL    HW2 2787   2.752   0.562   0.950 -2.2389  0.6196 -1.1737
  930SOL     OW 2788   2.819   2.673   1.601 -0.0480  0.1551 -0.0042
  930SOL    HW1 2789   2.721   2.692   1.623 -0.8501  0.4634  1.5578
  930SOL    HW2 2790   2.844   2.588   1.649 -1.1712  3.4898  2.5225
  931SOL     OW 2791   1.673   0.855   0.887  0.3235 -0.0657  0.0459
  931SOL    HW1 2792   1.601   0.809   0.946 -0.2949  0.2617  0.0049
  931SOL    HW2 2793   1.766   0.850   0.932  1.1828 -0.2850 -2.8265
  932SOL     OW 2794   2.667   1.229   1.709 -0.7473  0.2339  0.2837
  932SOL    HW1 2795   2.642   1.132   1.711  1.4790  1.5399  0.8648
  932SOL    HW2 2796   2.768   1.237   1.722 -0.0600  0.0266 -1.4673
  933SOL     OW 2797   2.837   2.279   1.473 -0.2194  0.1189  0.0730
  933SOL    HW1 2798   2.840   2.316   1.570  1.2420  0.9497  0.6193
  933SOL    HW2 2799   2.741   2.292   1.445 -1.0331 -2.0140  0.8196
  934SOL     OW 2800   0.694   2.044   1.514  0.3404  0.2766 -0.1432
  934SOL    HW1 2801   0.736   1.994   1.590  0.4957 -2.0820  2.6388
  934SOL    HW2 2802   0.594   2.037   1.523  0.3415 -1.8637  0.2834
  935SOL     OW 2803   2.684   1.702   1.866 -0.1621  0.2443  0.0318
  935SOL    HW1 2804   2.598   1.650   1.873 -0.7905  0.2410  0.2290
  935SOL    HW2 2805   2.680   1.770   1.786  0.1088 -1.2126  0.9666
  936SOL     OW 2806   2.426   1.667   1.839 -0.3240 -0.2018  0.3722
  936SOL    HW1 2807   2.402   1.693   1.744  1.8120 -1.3510  4.4945
  936SOL    HW2 2808   2.380   1.730   1.904  1.5893 -1.5934  2.9541
  937SOL     OW 2809   1.873   0.955   1.960  0.0988 -0.3295  0.1658
  937SOL    HW1 2810   1.830   0.984   2.049 -0.1719  0.7301  1.1884
  937SOL    HW2 2811   1.800   0.949   1.887  1.7553  2.5823  2.3166
  938SOL     OW 2812   0.895   2.670   2.585  0.4832  0.0449  0.5524
  938SOL    HW1 2813   0.897   2.631   2.678  1.8950 -1.0001 -0.3029
  938SOL    HW2 2814   0.968   2.743   2.570  3.3839  2.8163  0.0395
  939SOL     OW 2815   2.415   1.268   0.027  0.4948 -0.2388  0.0156
  939SOL    HW1 2816   2.354   1.230   0.096 -0.2537  0.8526 -1.4698
  939SOL    HW2 2817   2.452   1.189   3.093  0.5729  0.4465 -2.7286
  940SOL     OW 2818   1.300   1.780   0.551  0.6819 -0.3677  0.0892
  940SOL    HW1 2819   1.333   1.685   0.544  0.1812  1.4555 -0.0096
  940SOL    HW2 2820   1.383   1.838   0.534  0.2401 -0.1785 -0.8235
  941SOL     OW 2821   1.804   2.801   2.709  0.4459 -0.2672 -0.1551
  941SOL    HW1 2822   1.798   2.774   2.807 -1.9622  0.9245 -1.4337
  941SOL    HW2 2823   1.887   2.857   2.693  1.5445 -1.4353 -1.5294
  942SOL     OW 2824   0.862   2.404   0.442 -0.0579 -0.0042  0.9464
  942SOL    HW1 2825   0.823   2.491   0.477  1.9472  1.8860 -1.4107
  942SOL    HW2 2826   0.954   2.386   0.476 -1.6263 -3.0606 -0.9028
  943SOL     OW 2827   2.014   0.363   1.789  0.0929  0.4311  0.0912
  943SOL    HW1 2828   2.012   0.261   1.796 -1.0933 -0.1920  0.0602
  943SOL    HW2 2829   1.944   0.404   1.854 -0.5112 -0.0435  0.9566
  944SOL     OW 2830   1.077   1.343   2.901  0.2042 -0.5570 -0.0259
  944SOL    HW1 2831   1.046   1.436   2.935  1.9580  0.4721 -1.1873
  944SOL    HW2 2832   1.094   1.340   2.799  3.0266  1.3688  2.5830
  945SOL     OW 2833   3.068   2.192   1.130  0.0688 -0.2780  0.2201
  945SOL    HW1 2834   2.994   2.260   1.151 -2.5656 -0.5572  1.3143
  945SOL    HW2 2835   3.030   2.110   1.084 -0.4548 -1.7989  2.3572
  946SOL     OW 2836   0.671   1.131   2.699  0.2890  0.5354  0.0342
  946SOL    HW1 2837   0.720   1.162   2.616 -0.8281 -0.2893 -1.0090
  946SOL    HW2 2838   0.591   1.070   2.679 -0.8098 -0.5651  1.3211
  947SOL     OW 2839   2.424   0.262   1.671 -0.3564 -0.6983 -0.4776
  947SOL    HW1 2840   2.461   0.168   1.658  2.3578 -0.8467 -2.1503
  947SOL    HW2 2841   2.467   0.308   1.751  1.3633 -0.5777 -0.7388
  948SOL     OW 2842   0.058   1.966   0.918 -0.0309  0.1235 -0.4622
  948SOL    HW1 2843   0.096   1.883   0.963 -0.9766 -0.4481  0.7023
  948SOL    HW2 2844   3.083   1.977   0.948  1.3181 -0.9832 -0.2589
  949SOL     OW 2845   1.205   1.197   1.708  0.1295 -0.2561 -0.3081
  949SOL    HW1 2846   1.114   1.179   1.662 -2.0799  0.0564 -0.8026
  949SOL    HW2 2847   1.176   1.230   1.801 -0.8375  2.4172  1.6894
  950SOL     OW 2848   0.225   0.924   1.101  0.1685  0.0328 -0.0603
  950SOL    HW1 2849   0.177   0.873   1.026 -0.2070  0.7174 -0.9218
  950SOL    HW2 2850   0.319   0.947   1.067  2.3139 -0.6441 -0.4342
  951SOL     OW 2851   0.313   1.821   2.336 -0.0622  0.4643 -0.2416
  951SOL    HW1 2852   0.251   1.902   2.357 -0.1997  1.6772  1.2924
  951SOL    HW2 2853   0.396   1.855   2.298 -1.4371 -0.3136  1.4293
  952SOL     OW 2854   1.358   1.863   0.187 -0.0969  0.1258 -0.4144
  952SOL    HW1 2855   1.302   1.937   0.149 -0.4039 -2.0857  0.6904
  952SOL    HW2 2856   1.364   1.788   0.116  0.3609 -1.2943 -0.8946
  953SOL     OW 2857   0.889   0.611   0.051 -0.1856  0.6379  0.2038
  953SOL    HW1 2858   0.914   0.580   3.078  1.3179 -1.4532  0.2414
  953SOL    HW2 2859   0.830   0.696   0.046 -0.7769 -0.1675  2.4718
  954SOL     OW 2860   1.810   1.181   0.392 -0.5713 -0.1590 -0.0890
  954SOL    HW1 2861   1.844   1.271   0.431 -0.0719  0.0607 -1.6501
  954SOL    HW2 2862   1.716   1.159   0.424 -2.4756 -1.5281 -1.4174
  955SOL     OW 2863   2.505   1.791   0.008  0.0610 -0.3770  0.4419
  955SOL    HW1 2864   2.589   1.777   3.066  2.0776  0.5961 -2.3333
  955SOL    HW2 2865   2.421   1.789   3.070 -0.7235 -0.6134 -2.9317
  956SOL     OW 2866   1.127   0.737   1.761  0.2052  0.3900 -0.4483
  956SOL    HW1 2867   1.204   0.795   1.721 -0.2738 -1.1405  1.2858
  956SOL    HW2 2868   1.150   0.694   1.851 -1.2754 -0.2479  0.8385
  957SOL     OW 2869   1.551   1.117   1.568  0.4771  0.6330 -0.6098
  957SOL    HW1 2870   1.497   1.200   1.529 -0.7325  4.1768 -1.8193
  957SOL    HW2 2871   1.504   1.032   1.546  1.5423  1.4856 -2.1067
  958SOL     OW 2872   0.532   1.721   0.661 -0.1706  0.2889  0.0753
  958SOL    HW1 2873   0.458   1.655   0.648  4.8440  0.9218  0.9508
  958SOL    HW2 2874   0.582   1.742   0.573 -3.2808 -0.9518  0.6829
  959SOL     OW 2875   1.982   1.370   1.384 -0.2704  0.1812  0.0323
  959SOL    HW1 2876   2.029   1.399   1.468  1.2516 -0.7924  0.1902
  959SOL    HW2 2877   1.941   1.450   1.337 -1.0654 -0.7515  0.6109
  960SOL     OW 2878   3.082   1.451   2.811 -0.0569 -0.3030 -0.1054
  960SOL    HW1 2879   3.109   1.457   2.910 -0.3148  1.8765 -1.7933
  960SOL    HW2 2880   0.035   1.416   2.750 -0.4519 -3.4312 -1.7727
  961SOL     OW 2881   0.977   1.219   0.872 -0.0601 -0.1677 -0.3197
  961SOL    HW1 2882   0.916   1.289   0.918 -1.4911  1.3792  0.9276
  961SOL    HW2 2883   1.067   1.235   0.914 -2.7946  2.2421  3.5144
  962SOL     OW 2884   0.725   0.718   0.420  0.5874  0.0454 -0.0359
  962SOL    HW1 2885   0.820   0.679   0.421  0.1297 -0.9795 -2.5141
  962SOL    HW2 2886   0.717   0.786   0.497 -1.7186 -1.8778  1.5929
  963SOL     OW 2887   1.318   2.015   2.025 -0.0266  0.4374  0.1293
  963SOL    HW1 2888   1.350   2.089   1.962 -3.6962  1.2032  1.3631
  963SOL    HW2 2889   1.358   2.022   2.118 -0.7945 -1.7640 -2.1147
  964SOL     OW 2890   0.022   2.829   2.692  0.1195 -0.1633 -0.3579
  964SOL    HW1 2891   0.089   2.849   2.770  1.4296  2.2549  1.4978
  964SOL    HW2 2892   3.094   2.743   2.710 -2.2894  0.4140  0.1314
  965SOL     OW 2893   0.711   2.368   0.200 -0.2567  0.4799  0.2445
  965SOL    HW1 2894   0.719   2.304   0.124 -1.4351  1.8956  0.6079
  965SOL    HW2 2895   0.761   2.344   0.283 -3.5972  3.6135 -0.4328
  966SOL     OW 2896   2.999   1.750   3.070 -0.4913 -0.0958 -0.0637
  966SOL    HW1 2897   2.905   1.759   3.034  1.6668 -0.7265 -2.5086
  966SOL    HW2 2898   3.055   1.672   3.029  2.8305 -1.1428 -3.0029
  967SOL     OW 2899   2.224   2.744   2.870 -0.1666 -0.8795  0.1390
  967SOL    HW1 2900   2.277   2.813   2.808 -2.3952 -1.0493 -3.1124
  967SOL    HW2 2901   2.145   2.712   2.813 -1.8382  1.4489  2.9860
  968SOL     OW 2902   1.991   2.884   0.415  0.2436 -0.0173  0.3932
  968SOL    HW1 2903   2.084   2.928   0.417  2.2746  0.0451  0.4598
  968SOL    HW2 2904   1.955   2.883   0.513  0.6928  0.4519 -4.1982
  969SOL     OW 2905   0.744   1.206   2.431  0.0310 -0.2138  0.6606
  969SOL    HW1 2906   0.668   1.278   2.450  1.9764  1.5323  1.6896
  969SOL    HW2 2907   0.712   1.158   2.349 -0.5837 -0.9015  1.5028
  970SOL     OW 2908   1.760   1.289   0.918 -0.4622  0.0073 -0.0982
  970SOL    HW1 2909   1.791   1.209   0.979 -0.8161 -0.1760 -1.6889
  970SOL    HW2 2910   1.827   1.363   0.936 -2.0276 -0.9928  0.4856
  971SOL     OW 2911   2.480   0.046   1.286  0.0126 -0.2641 -0.3597
  971SOL    HW1 2912   2.524   0.131   1.249  0.9335 -0.1246 -0.7761
  971SOL    HW2 2913   2.552   3.095   1.301 -1.0376  1.8901 -0.7593
  972SOL     OW 2914   2.949   3.020   1.565  0.0591  0.0704 -0.0515
  972SOL    HW1 2915   2.888   2.990   1.637  0.9955  0.5329  0.2517
  972SOL    HW2 2916   2.949   0.003   1.566 -3.3731  2.4094 -1.5769
  973SOL     OW 2917   0.091   0.212   2.460 -0.1646  0.5685 -0.1885
  973SOL    HW1 2918   0.074   0.306   2.498  3.6005  1.8213 -0.6009
  973SOL    HW2 2919   0.125   0.157   2.539  2.0508  0.1317 -0.9875
  974SOL     OW 2920   2.279   1.101   2.116 -0.7015  0.0010 -0.0559
  974SOL    HW1 2921   2.200   1.140   2.065  1.7660  1.6690 -1.5566
  974SOL    HW2 2922   2.358   1.163   2.116  0.4936  1.8909 -1.5816
  975SOL     OW 2923   1.036   0.477   1.641  0.2588  0.3279 -0.1856
  975SOL    HW1 2924   1.057   0.572   1.680 -0.2628  4.1672 -0.6974
  975SOL    HW2 2925   0.995   0.495   1.547  1.8482  1.0715 -2.2960
  976SOL     OW 2926   0.826   1.865   2.109 -0.5851 -0.4342 -0.0963
  976SOL    HW1 2927   0.805   1.939   2.043 -0.3614 -0.2642  0.2249
  976SOL    HW2 2928   0.925   1.857   2.132  1.5564 -1.9218  2.8635
  977SOL     OW 2929   0.857   0.274   0.392 -0.4196 -0.2673 -0.6984
  977SOL    HW1 2930   0.863   0.298   0.293  1.8717  0.5952 -0.7362
  977SOL    HW2 2931   0.763   0.270   0.428  0.8324  0.9249  2.9149
  978SOL     OW 2932   2.659   0.877   2.082 -0.0794  0.1417  0.4327
  978SOL    HW1 2933   2.601   0.892   2.163  0.5217  1.2060  1.2802
  978SOL    HW2 2934   2.692   0.964   2.047 -0.4339 -0.7794  0.9585
  979SOL     OW 2935   1.693   0.361   2.154 -0.4678  0.5887 -0.6964
  979SOL    HW1 2936   1.669   0.296   2.082 -0.7295 -0.6005  2.7358
  979SOL    HW2 2937   1.766   0.430   2.125 -2.0725  1.8372 -2.0686
  980SOL     OW 2938   1.657   1.697   1.719  0.0727  0.2822 -0.1176
  980SOL    HW1 2939   1.619   1.663   1.808 -3.3645  1.5993  2.0811
  980SOL    HW2 2940   1.608   1.643   1.644  0.4079 -3.8078  0.0286
  981SOL     OW 2941   2.416   0.837   1.509 -0.0230 -0.1242 -0.7162
  981SOL    HW1 2942   2.481   0.912   1.484  0.2337  0.1426 -1.2315
  981SOL    HW2 2943   2.345   0.861   1.583  1.7983  0.5453  1.0876
  982SOL     OW 2944   0.499   0.040   2.724 -0.1592  0.1372  0.0050
  982SOL    HW1 2945   0.430   3.087   2.708  0.2774 -1.3684 -0.3436
  982SOL    HW2 2946   0.588   0.000   2.759  1.0319  2.3906 -0.7502
  983SOL     OW 2947   2.512   0.851   2.792 -0.2349 -0.5079  0.3985
  983SOL    HW1 2948   2.493   0.844   2.893  2.0377 -0.5575 -1.2840
  983SOL    HW2 2949   2.449   0.781   2.746  1.7871  0.6036 -1.4626
  984SOL     OW 2950   1.360   0.071   1.989 -0.6188 -0.2003 -0.4610
  984SOL    HW1 2951   1.409   0.012   2.058  0.5338 -3.8637  0.4380
  984SOL    HW2 2952   1.271   0.027   1.952  1.1609 -1.3703 -1.0004
  985SOL     OW 2953   1.861   1.927   1.963 -0.3565  0.6638 -0.1475
  985SOL    HW1 2954   1.938   1.940   1.894 -0.4957 -0.7822 -3.8639
  985SOL    HW2 2955   1.878   1.847   2.023 -0.4731 -0.6806 -0.3367
  986SOL     OW 2956   2.376   0.697   1.273 -0.0957  0.0443 -0.4597
  986SOL    HW1 2957   2.372   0.761   1.358  0.6111 -0.2174  1.8087
  986SOL    HW2 2958   2.418   0.739   1.191 -1.8121 -0.5890 -0.6547
  987SOL     OW 2959   2.568   1.017   1.358  0.0736 -0.5772  0.1049
  987SOL    HW1 2960   2.534   1.111   1.352 -0.9541  1.4289  0.9655
  987SOL    HW2 2961   2.670   1.020   1.361  1.7303 -1.1163 -1.2920
  988SOL     OW 2962   2.099   1.478   1.625  0.1165 -0.6387 -0.0638
  988SOL    HW1 2963   2.023   1.529   1.673  2.2718 -0.4324 -0.6957
  988SOL    HW2 2964   2.175   1.546   1.613 -0.7776  3.0173  3.5000
  989SOL     OW 2965   1.109   2.698   0.233 -0.1286 -0.2135 -0.0203
  989SOL    HW1 2966   1.106   2.788   0.283 -0.6220  1.4603  1.9194
  989SOL    HW2 2967   1.184   2.644   0.276  1.5637  0.3033 -0.6187
  990SOL     OW 2968   1.606   0.862   2.799  0.4935 -0.4009 -0.3959
  990SOL    HW1 2969   1.606   0.775   2.744  0.1890  0.5902 -0.7131
  990SOL    HW2 2970   1.651   0.853   2.888 -0.5337 -0.6909 -0.8707
  991SOL     OW 2971   1.156   0.514   0.558  0.2461 -0.7242  0.3776
  991SOL    HW1 2972   1.189   0.566   0.639 -0.3089 -0.5870 -1.0845
  991SOL    HW2 2973   1.230   0.448   0.533  1.5358  0.1292  2.9887
  992SOL     OW 2974   2.779   1.458   1.295  0.7765 -0.2574 -0.4963
  992SOL    HW1 2975   2.772   1.454   1.192  1.3569  0.8652 -0.1223
  992SOL    HW2 2976   2.873   1.485   1.325 -0.4377 -1.2836  0.5747
  993SOL     OW 2977   2.842   0.621   1.477 -0.5057  0.0569 -0.5244
  993SOL    HW1 2978   2.906   0.539   1.464 -1.0434 -0.0199 -0.7319
  993SOL    HW2 2979   2.799   0.649   1.391  0.1382 -0.2091  1.9459
  994SOL     OW 2980   0.118   2.463   2.479  0.2895  0.1111 -0.3490
  994SOL    HW1 2981   0.209   2.414   2.467 -0.7702  0.2938 -0.6704
  994SOL    HW2 2982   0.108   2.506   2.569  0.7632 -0.7942 -1.5310
  995SOL     OW 2983   1.770   1.093   2.847 -0.5230  0.5396 -0.0699
  995SOL    HW1 2984   1.843   1.030   2.876 -0.7247  0.8560 -1.0355
  995SOL    HW2 2985   1.692   1.037   2.811 -2.3781  1.7135  2.1143
  996SOL     OW 2986   2.699   1.545   0.707 -0.1539  0.1466  0.0390
  996SOL    HW1 2987   2.718   1.638   0.668  1.3833 -0.0300 -3.0799
  996SOL    HW2 2988   2.750   1.481   0.649 -0.9914  0.5843 -0.2928
  997SOL     OW 2989   2.127   1.005   2.377  0.0220  0.3750 -0.2696
  997SOL    HW1 2990   2.177   1.056   2.310  0.7870 -1.0350  4.7382
  997SOL    HW2 2991   2.037   0.969   2.341 -1.2694 -0.1616  0.3495
  998SOL     OW 2992   2.479   1.226   0.529 -0.0153  0.2346 -0.2109
  998SOL    HW1 2993   2.428   1.141   0.512  2.3515  0.7789 -0.3827
  998SOL    HW2 2994   2.568   1.232   0.483 -1.5372  3.5472  1.5607
  999SOL     OW 2995   0.097   2.488   0.323 -0.0560 -0.1999  0.4023
  999SOL    HW1 2996   0.097   2.407   0.389  1.2490  2.2062  1.8042
  999SOL    HW2 2997   0.026   2.557   0.341  1.4312  0.3198  3.4820
 1000SOL     OW 2998   0.912   0.796   2.487 -0.4610  0.4267 -0.5089
 1000SOL    HW1 2999   0.885   0.796   2.589 -2.7519 -1.5333  6.8508
 1000SOL    HW2 3000   0.993   0.730   2.472  2.7320  0.6396 -0.8874
   3.12060   3.12060   3.12060
