1000 SPC/Fw water molecules t= 313.00000 step= 313000
 3000
    1SOL     OW    1   2.700   0.019   0.905 -0.2160  0.3272  0.0110
    1SOL    HW1    2   2.689   3.026   0.864  1.1672  2.7167  0.1720
    1SOL    HW2    3   2.776   0.021   0.975  0.1116 -0.7856  0.5912
    2SOL     OW    4   2.928   2.307   0.811  0.0595 -0.1177 -0.3003
    2SOL    HW1    5   2.847   2.265   0.861 -1.3235 -3.0944  2.0304
    2SOL    HW2    6   2.963   2.238   0.743 -0.0621 -1.4278 -0.8341
    3SOL     OW    7   0.773   2.885   2.940  0.3555  0.0686 -0.0207
    3SOL    HW1    8   0.791   2.790   2.975 -1.8237  1.9627 -1.5619
    3SOL    HW2    9   0.705   2.887   2.866  3.0117  3.5907 -3.0376
    4SOL     OW   10   2.136   2.448   2.006 -0.3585 -0.0141 -0.0095
    4SOL    HW1   11   2.044   2.441   1.970  1.7026 -2.0964  2.6584
    4SOL    HW2   12   2.168   2.356   2.035  0.1837  0.2085 -1.7357
    5SOL     OW   13   1.604   0.776   1.440 -0.0331  0.0846 -0.3120
    5SOL    HW1   14   1.628   0.794   1.341 -1.5055 -0.3736 -1.9917
    5SOL    HW2   15   1.505   0.756   1.447 -1.2880 -0.0176 -1.0232
    6SOL     OW   16   1.916   2.809   0.073 -0.2281 -0.0305 -0.4893
    6SOL    HW1   17   1.869   2.879   0.019  1.6451 -1.2850  1.3532
    6SOL    HW2   18   1.865   2.782   0.157 -0.6280 -1.2073  0.8365
    7SOL     OW   19   2.761   1.450   1.124 -0.4561  0.3678 -0.0632
    7SOL    HW1   20   2.765   1.548   1.100 -1.3807 -2.5669 -0.1938
    7SOL    HW2   21   2.721   1.436   1.217 -1.6326  1.0493 -0.9667
    8SOL     OW   22   1.457   2.271   1.223  0.1754  0.2048  0.5327
    8SOL    HW1   23   1.403   2.234   1.142  1.6649  0.6460 -0.0306
    8SOL    HW2   24   1.446   2.372   1.230 -1.5100  0.4042  0.5399
    9SOL     OW   25   1.468   2.826   2.291 -0.1181  0.3850  0.0403
    9SOL    HW1   26   1.377   2.816   2.342 -0.0665  1.0015 -1.4599
    9SOL    HW2   27   1.446   2.828   2.192  1.8861  0.6175 -2.8092
   10SOL     OW   28   0.633   1.928   1.257 -0.0856 -0.0083  0.0411
   10SOL    HW1   29   0.716   1.914   1.198  0.6010 -2.9225  1.0239
   10SOL    HW2   30   0.593   2.020   1.266 -3.2901 -1.1070  2.1900
   11SOL     OW   31   1.865   1.738   1.257 -0.0887  0.1620  0.3065
   11SOL    HW1   32   1.951   1.718   1.306 -0.7974 -1.0873  1.5767
   11SOL    HW2   33   1.887   1.737   1.158  0.1227 -0.3936  0.3673
   12SOL     OW   34   2.524   2.557   1.848  0.1032  0.1696 -0.0570
   12SOL    HW1   35   2.550   2.462   1.840  1.5929  2.6966  1.2987
   12SOL    HW2   36   2.573   2.595   1.930  1.6727 -1.0311  0.9963
   13SOL     OW   37   2.394   3.026   0.492 -0.5677 -0.5559 -0.1608
   13SOL    HW1   38   2.418   2.943   0.546  1.0982 -1.4507  0.1910
   13SOL    HW2   39   2.444   3.034   0.403  0.7417  0.6582  0.4627
   14SOL     OW   40   1.631   2.112   0.449  0.1155 -0.4060  0.0120
   14SOL    HW1   41   1.552   2.047   0.464 -0.2557 -0.6490  2.9457
   14SOL    HW2   42   1.673   2.067   0.367  1.0759 -2.1468 -0.7797
   15SOL     OW   43   2.896   2.147   1.853 -0.2399  0.0892  0.2460
   15SOL    HW1   44   2.870   2.062   1.906 -2.8604 -0.8589 -2.1731
   15SOL    HW2   45   2.984   2.193   1.891  1.5329  0.0986 -0.1573
   16SOL     OW   46   2.014   2.671   0.452 -0.2653  1.2839 -0.2428
   16SOL    HW1   47   1.927   2.687   0.399 -0.9754  0.4154  0.3282
   16SOL    HW2   48   2.047   2.763   0.490  2.5718  0.8184  1.2128
   17SOL     OW   49   0.587   0.251   1.123  0.2712 -0.0920 -0.0059
   17SOL    HW1   50   0.590   0.277   1.220 -1.6754  1.5401  2.4251
   17SOL    HW2   51   0.579   0.334   1.069  1.6502 -0.1473  2.4208
   18SOL     OW   52   2.085   0.962   0.150 -0.2107  0.6025  0.0603
   18SOL    HW1   53   2.061   0.868   0.111 -0.2272  0.4217  0.4827
   18SOL    HW2   54   2.178   0.974   0.191 -0.9899  1.5048 -1.2254
   19SOL     OW   55   1.796   1.830   0.629 -0.2250 -0.3272 -0.2031
   19SOL    HW1   56   1.884   1.805   0.674  1.1970  3.7491  0.9264
   19SOL    HW2   57   1.817   1.894   0.555  1.6843  1.0946  0.0417
   20SOL     OW   58   2.261   1.922   2.130  0.1786  0.3278 -0.4682
   20SOL    HW1   59   2.193   1.921   2.206  0.2248 -0.8275 -1.7791
   20SOL    HW2   60   2.290   2.012   2.099 -0.3582 -1.5757 -2.0504
   21SOL     OW   61   1.911   0.455   0.898 -0.3494 -0.1022 -0.0682
   21SOL    HW1   62   1.894   0.408   0.810 -1.2087 -1.6482 -0.5221
   21SOL    HW2   63   2.008   0.437   0.925 -0.9224  0.7328 -0.6907
   22SOL     OW   64   2.399   0.169   1.622 -0.0313 -0.3051  0.2483
   22SOL    HW1   65   2.362   0.225   1.541  2.1367  2.2828  2.3665
   22SOL    HW2   66   2.381   0.213   1.707  2.0881 -1.7098 -2.9194
   23SOL     OW   67   0.047   0.608   1.986 -0.1559 -0.2033 -0.9986
   23SOL    HW1   68   3.048   0.589   1.957 -0.5728  0.7797  1.1924
   23SOL    HW2   69   0.087   0.687   1.941  1.9587 -2.4051  0.6112
   24SOL     OW   70   2.606   2.717   0.411  0.4843 -0.1164  0.1144
   24SOL    HW1   71   2.541   2.715   0.491 -2.2068  0.4596  0.4443
   24SOL    HW2   72   2.680   2.784   0.436  0.8721  1.2920  0.9133
   25SOL     OW   73   1.600   0.048   2.192  0.4697 -0.0529 -0.0948
   25SOL    HW1   74   1.634   3.083   2.265 -2.3807 -0.1598  0.4994
   25SOL    HW2   75   1.649   0.133   2.174  0.2176 -0.3226  1.0663
   26SOL     OW   76   1.250   2.243   0.271 -0.5467 -0.0701  0.5795
   26SOL    HW1   77   1.336   2.219   0.316 -3.0630  1.8992 -0.3757
   26SOL    HW2   78   1.252   2.344   0.256  2.0237  1.4830  0.3439
   27SOL     OW   79   2.446   1.435   2.785 -0.2000  0.1746  0.3800
   27SOL    HW1   80   2.370   1.480   2.729 -1.9848  1.3783 -1.7796
   27SOL    HW2   81   2.509   1.382   2.729 -1.7794  0.4856 -1.9673
   28SOL     OW   82   0.934   1.511   1.433 -0.1175 -0.0817 -0.2549
   28SOL    HW1   83   1.015   1.457   1.405  1.1415 -2.1940  1.3481
   28SOL    HW2   84   0.897   1.561   1.351  1.1993 -0.8740  0.9017
   29SOL     OW   85   2.746   2.541   1.638  0.6138  0.4228 -0.0313
   29SOL    HW1   86   2.719   2.562   1.537  0.3697 -0.9759 -1.5765
   29SOL    HW2   87   2.687   2.600   1.700  0.6915  0.3227  3.3448
   30SOL     OW   88   1.214   0.574   1.256  0.3016  0.2337 -0.0573
   30SOL    HW1   89   1.136   0.631   1.225 -0.8267  0.9595 -3.4906
   30SOL    HW2   90   1.216   0.478   1.218  0.9158 -0.2072  0.5241
   31SOL     OW   91   2.205   2.891   2.016 -0.1464  0.3643  0.3021
   31SOL    HW1   92   2.186   2.825   2.090  1.7191  0.7204 -1.0158
   31SOL    HW2   93   2.195   2.857   1.924  1.0493 -0.6593  1.9540
   32SOL     OW   94   1.173   1.556   0.587 -0.3733 -0.3285  0.1103
   32SOL    HW1   95   1.251   1.500   0.633  3.0548  0.3763  2.3356
   32SOL    HW2   96   1.098   1.495   0.559  3.0555 -1.0572  0.6347
   33SOL     OW   97   0.301   0.420   2.557  0.3898  0.1750  0.1429
   33SOL    HW1   98   0.382   0.472   2.594 -1.6197  0.0234 -1.9475
   33SOL    HW2   99   0.320   0.375   2.466  2.5921 -2.0614  0.5208
   34SOL     OW  100   1.681   2.945   0.477 -0.6523 -0.4628 -0.1532
   34SOL    HW1  101   1.690   2.919   0.573 -1.5726  1.4010  0.0977
   34SOL    HW2  102   1.713   3.037   0.453 -0.1182 -0.8501  0.7788
   35SOL     OW  103   2.187   2.647   1.329 -0.3898  0.4005  0.2736
   35SOL    HW1  104   2.237   2.728   1.369 -0.1494  1.6064 -0.2517
   35SOL    HW2  105   2.152   2.586   1.400 -0.2719  1.8263 -1.1395
   36SOL     OW  106   1.866   2.260   2.810 -0.4332 -0.6688  0.5526
   36SOL    HW1  107   1.784   2.238   2.872 -0.3984 -1.9307 -0.6184
   36SOL    HW2  108   1.839   2.245   2.710 -0.1717  0.2345 -0.4413
   37SOL     OW  109   1.309   0.270   2.325  0.0288 -0.2132  0.5859
   37SOL    HW1  110   1.306   0.324   2.407 -0.3477  0.4849 -0.6537
   37SOL    HW2  111   1.259   0.183   2.337  1.2642  0.4063 -2.3514
   38SOL     OW  112   0.222   0.244   2.758  0.2042  0.7343 -0.1037
   38SOL    HW1  113   0.268   0.283   2.676 -0.2058  0.9569  2.6650
   38SOL    HW2  114   0.283   0.173   2.800  3.6113 -2.3852  0.1669
   39SOL     OW  115   2.594   1.289   1.639  0.1360  0.1909  0.4657
   39SOL    HW1  116   2.504   1.288   1.583 -2.1672 -1.0646 -1.0162
   39SOL    HW2  117   2.573   1.292   1.733  0.1525 -1.1460 -4.8340
   40SOL     OW  118   1.233   2.947   0.370  1.0394 -0.2113 -0.1392
   40SOL    HW1  119   1.188   3.039   0.387  1.6299  2.0893 -0.5856
   40SOL    HW2  120   1.163   2.886   0.327 -2.1104 -2.2024 -0.6329
   41SOL     OW  121   2.448   1.447   1.028  0.2638  0.5033  0.0991
   41SOL    HW1  122   2.464   1.368   1.090  1.2836  1.5965 -1.3879
   41SOL    HW2  123   2.519   1.455   0.958 -0.0368  0.7829  2.1527
   42SOL     OW  124   0.891   0.346   1.317 -0.3070  0.1475  0.4990
   42SOL    HW1  125   0.793   0.340   1.349 -0.3107 -0.9520  1.2727
   42SOL    HW2  126   0.957   0.368   1.392  1.8599  1.0768 -1.0808
   43SOL     OW  127   3.063   1.834   2.449 -1.2131 -0.0885 -0.2701
   43SOL    HW1  128   3.065   1.769   2.524 -1.4280  1.5454 -1.8601
   43SOL    HW2  129   0.044   1.896   2.452 -1.0317  0.7452  0.2511
   44SOL     OW  130   2.374   0.286   1.861 -0.0493  0.1939 -0.3052
   44SOL    HW1  131   2.345   0.283   1.958 -0.1551  1.3076  0.5528
   44SOL    HW2  132   2.457   0.341   1.861  1.8482  0.1289 -2.0019
   45SOL     OW  133   1.122   0.031   1.999 -0.5929 -0.0884 -0.2248
   45SOL    HW1  134   1.095   0.128   1.985  0.8080 -0.5260 -1.5437
   45SOL    HW2  135   1.214   0.031   2.039  1.2617  0.4587 -1.4434
   46SOL     OW  136   1.173   2.969   2.568  0.1779 -0.1817 -0.1305
   46SOL    HW1  137   1.085   2.962   2.618 -0.8581 -1.3673  0.3715
   46SOL    HW2  138   1.251   2.986   2.627 -0.0654  1.2067 -1.0960
   47SOL     OW  139   2.040   1.773   0.724  0.3217 -0.1021  0.8608
   47SOL    HW1  140   1.995   1.779   0.817  0.5067 -0.9066  0.3299
   47SOL    HW2  141   2.067   1.682   0.696  1.9231  2.5809 -0.7187
   48SOL     OW  142   1.039   2.134   0.653  0.1789 -0.0594  0.2735
   48SOL    HW1  143   0.989   2.149   0.567  0.5303  0.5496  1.8931
   48SOL    HW2  144   1.034   2.034   0.679 -1.7644 -0.0784 -0.0326
   49SOL     OW  145   2.295   2.711   2.386 -0.3179 -0.1040  0.0008
   49SOL    HW1  146   2.251   2.755   2.468  0.1781 -0.2728 -0.4843
   49SOL    HW2  147   2.398   2.721   2.381 -0.4919 -0.1250  1.7720
   50SOL     OW  148   1.474   2.973   0.049  0.1102 -0.2078 -0.6384
   50SOL    HW1  149   1.569   2.984   0.078 -2.1692  1.2111 -1.4173
   50SOL    HW2  150   1.415   3.052   0.069 -0.7527 -1.9279 -1.9400
   51SOL     OW  151   2.029   0.716   0.951  0.2406  0.7146 -0.6616
   51SOL    HW1  152   1.997   0.624   0.920 -0.3773 -0.3431  0.9942
   51SOL    HW2  153   2.087   0.716   1.036  0.9145 -0.2108  0.5402
   52SOL     OW  154   1.188   1.551   1.067  0.7169 -0.3196  0.0219
   52SOL    HW1  155   1.284   1.516   1.067  0.7004  3.4648  0.0879
   52SOL    HW2  156   1.182   1.618   1.145 -2.0925 -0.9530 -0.1116
   53SOL     OW  157   0.584   1.862   2.727 -0.1651  0.3979  0.0424
   53SOL    HW1  158   0.529   1.773   2.727  0.3120 -1.0719  0.7444
   53SOL    HW2  159   0.681   1.841   2.705 -0.7800 -3.8300  2.0928
   54SOL     OW  160   2.666   0.827   1.558  0.4236 -0.4728  0.5030
   54SOL    HW1  161   2.757   0.868   1.524 -0.4070  3.7882 -1.8962
   54SOL    HW2  162   2.634   0.876   1.636  2.1575  1.0662 -2.0578
   55SOL     OW  163   2.596   1.872   0.505  0.0791 -0.0945 -0.2615
   55SOL    HW1  164   2.523   1.830   0.560  2.4837  1.6358 -0.6605
   55SOL    HW2  165   2.672   1.808   0.499  0.5165  0.8524  2.5483
   56SOL     OW  166   1.366   0.120   1.745 -0.4527  0.0190  0.3546
   56SOL    HW1  167   1.392   0.031   1.706  1.1850 -2.1116 -0.7683
   56SOL    HW2  168   1.437   0.155   1.804 -3.1870 -2.8059 -1.2702
   57SOL     OW  169   1.329   1.428   2.831 -0.2618  0.1052 -0.0245
   57SOL    HW1  170   1.368   1.465   2.742  1.5708  1.6753 -0.6724
   57SOL    HW2  171   1.390   1.355   2.873 -0.2528  2.7154 -2.0060
   58SOL     OW  172   2.994   0.774   1.749  0.0501  0.0577 -0.2097
   58SOL    HW1  173   3.096   0.763   1.766  1.5151 -1.2550 -0.1893
   58SOL    HW2  174   2.979   0.808   1.659 -0.0802  1.5773  2.2375
   59SOL     OW  175   1.494   2.676   0.225 -0.4643 -0.2654  0.3601
   59SOL    HW1  176   1.519   2.603   0.156  1.5860  0.0839 -1.4648
   59SOL    HW2  177   1.496   2.769   0.177 -0.7388  0.6506  0.9730
   60SOL     OW  178   2.929   1.817   0.072 -0.8760 -0.1544  0.3587
   60SOL    HW1  179   2.928   1.845   0.169  0.1868  0.5951 -1.9007
   60SOL    HW2  180   2.965   1.898   0.017 -0.5322  3.0510 -1.7621
   61SOL     OW  181   0.812   2.806   0.866  0.3935  0.2319 -0.0856
   61SOL    HW1  182   0.862   2.880   0.816  0.1981  0.4018 -1.1693
   61SOL    HW2  183   0.722   2.785   0.819 -1.7922  0.3396  0.0138
   62SOL     OW  184   1.869   1.971   2.655  0.0249 -0.5261 -0.2999
   62SOL    HW1  185   1.852   1.889   2.599  0.9892 -0.2643  0.5822
   62SOL    HW2  186   1.840   2.057   2.616 -0.1171 -1.5940  0.4231
   63SOL     OW  187   2.190   2.509   0.603  0.1799 -0.2836  0.2634
   63SOL    HW1  188   2.124   2.580   0.574  1.0297 -2.6494  1.3965
   63SOL    HW2  189   2.271   2.487   0.535  4.5992 -2.4645 -0.6212
   64SOL     OW  190   1.428   0.900   2.567 -0.2294 -0.0816  0.0160
   64SOL    HW1  191   1.332   0.886   2.598 -2.0071  2.2050  0.2776
   64SOL    HW2  192   1.485   0.814   2.578 -1.7890 -1.2658  1.4771
   65SOL     OW  193   1.874   1.735   2.525  0.0452  0.0579  0.0487
   65SOL    HW1  194   1.900   1.635   2.509  1.3164 -1.2753 -0.5208
   65SOL    HW2  195   1.813   1.755   2.443 -0.5218  1.1490 -0.3745
   66SOL     OW  196   0.306   1.031   1.780  0.2702  0.0611 -0.0011
   66SOL    HW1  197   0.237   1.085   1.732  1.0293 -3.1911  3.4256
   66SOL    HW2  198   0.384   1.010   1.721 -1.3784  0.9555  0.8143
   67SOL     OW  199   2.279   2.796   2.676 -0.5403 -0.3505  0.1804
   67SOL    HW1  200   2.271   2.808   2.780 -0.6522  0.2670  2.6248
   67SOL    HW2  201   2.347   2.863   2.629  0.5886  1.3047 -0.8076
   68SOL     OW  202   1.245   2.727   1.207 -0.0943 -0.3420  0.3825
   68SOL    HW1  203   1.304   2.807   1.181 -1.8239  2.0216 -0.7070
   68SOL    HW2  204   1.149   2.740   1.168  1.6566 -0.3561 -2.0681
   69SOL     OW  205   0.539   2.362   0.020  0.4622 -0.1705  0.1819
   69SOL    HW1  206   0.640   2.353   0.029 -1.5400  0.9994 -0.8884
   69SOL    HW2  207   0.508   2.283   3.066 -0.6229 -0.0404  0.9707
   70SOL     OW  208   2.975   0.283   2.294 -0.3571 -0.3615  0.2074
   70SOL    HW1  209   2.971   0.325   2.388  2.6890  1.5684  0.5924
   70SOL    HW2  210   3.041   0.337   2.237 -0.7484 -1.5957 -1.6231
   71SOL     OW  211   0.335   1.316   2.507 -0.9420  0.3668 -0.2358
   71SOL    HW1  212   0.267   1.298   2.433 -0.1257 -2.6779 -0.7118
   71SOL    HW2  213   0.286   1.335   2.594 -1.9351  1.3468 -1.9194
   72SOL     OW  214   3.003   1.979   2.955 -0.0397 -0.1621 -0.0084
   72SOL    HW1  215   2.964   2.068   2.933  0.3361 -1.5994  0.3284
   72SOL    HW2  216   2.969   1.907   2.888 -2.0603 -2.2701 -3.0206
   73SOL     OW  217   1.412   0.956   0.335  0.4600  0.5028  1.4405
   73SOL    HW1  218   1.427   0.977   0.239 -2.6704 -1.9477 -0.4057
   73SOL    HW2  219   1.316   0.979   0.356  0.7264 -1.6072  0.4406
   74SOL     OW  220   2.235   2.875   2.939  0.5296  0.1592 -0.1005
   74SOL    HW1  221   2.274   2.962   2.900 -0.2520 -1.4991 -0.2393
   74SOL    HW2  222   2.217   2.879   3.040 -0.8917  0.2984  2.9614
   75SOL     OW  223   2.181   2.156   0.962  0.0237 -0.1232  0.3978
   75SOL    HW1  224   2.167   2.186   0.867  0.5682  0.1264  0.0756
   75SOL    HW2  225   2.108   2.091   0.992  0.0219 -0.7304  0.4229
   76SOL     OW  226   2.251   2.525   1.765  0.2127  0.3740 -0.2701
   76SOL    HW1  227   2.351   2.549   1.773 -1.7040 -2.1659 -1.0817
   76SOL    HW2  228   2.201   2.511   1.858 -1.1336 -2.1567  3.4534
   77SOL     OW  229   2.610   0.068   2.092 -0.5563  0.3704 -0.0984
   77SOL    HW1  230   2.557   0.137   2.149 -2.6259 -1.1263  0.4527
   77SOL    HW2  231   2.555   3.094   2.047  0.9644  1.5517  0.0751
   78SOL     OW  232   1.847   1.060   2.999  0.0311  0.5866 -0.0658
   78SOL    HW1  233   1.900   0.973   2.999  0.6776 -0.5554  1.4106
   78SOL    HW2  234   1.752   1.046   2.976 -1.0308  2.5144 -0.9902
   79SOL     OW  235   2.540   1.437   2.369 -0.5558 -0.0582  0.1117
   79SOL    HW1  236   2.581   1.496   2.444 -1.4707  0.3765  0.8951
   79SOL    HW2  237   2.441   1.438   2.365  2.7953 -3.0856  0.4616
   80SOL     OW  238   2.036   1.558   1.630 -0.0913  0.0053 -1.1743
   80SOL    HW1  239   1.943   1.576   1.667 -1.9797 -0.2507  1.3912
   80SOL    HW2  240   2.102   1.583   1.704  0.6274 -1.5363 -0.0664
   81SOL     OW  241   1.668   0.506   1.534 -0.0981  0.1557 -0.1783
   81SOL    HW1  242   1.672   0.597   1.484  0.8930 -2.3583 -2.2022
   81SOL    HW2  243   1.591   0.493   1.600  1.5083 -0.8011 -1.1128
   82SOL     OW  244   1.791   2.330   1.370 -0.1192  0.6001 -0.1456
   82SOL    HW1  245   1.822   2.360   1.278 -0.6543 -0.4347  3.0551
   82SOL    HW2  246   1.824   2.230   1.385  0.1456 -3.2155  0.4478
   83SOL     OW  247   2.927   0.019   0.364 -0.1011 -0.1058 -0.1676
   83SOL    HW1  248   2.966   0.077   0.434  0.6253 -0.2038 -0.1317
   83SOL    HW2  249   2.901   0.070   0.277 -0.5287  4.0359 -1.5596
   84SOL     OW  250   0.437   1.017   0.033 -0.3897  0.3951 -0.0432
   84SOL    HW1  251   0.507   1.047   0.098 -1.8979 -2.2840 -0.2025
   84SOL    HW2  252   0.408   1.084   3.063  2.9968 -1.8201  1.4857
   85SOL     OW  253   2.639   2.101   1.549 -0.1136  0.2436 -0.1859
   85SOL    HW1  254   2.737   2.117   1.553 -0.1906 -0.3334  0.7305
   85SOL    HW2  255   2.598   2.084   1.640  1.2497 -0.0644  0.5680
   86SOL     OW  256   0.249   2.739   1.442  0.4799 -0.3600 -1.0318
   86SOL    HW1  257   0.268   2.655   1.384  0.9437 -2.9552  0.6643
   86SOL    HW2  258   0.338   2.786   1.454 -0.3655 -0.8168 -1.1312
   87SOL     OW  259   0.572   2.758   2.442  0.4892  0.1287  0.0147
   87SOL    HW1  260   0.476   2.793   2.408  0.0298 -0.1983 -1.2061
   87SOL    HW2  261   0.561   2.658   2.452 -2.0919 -0.9431 -1.5204
   88SOL     OW  262   0.437   2.161   0.876 -0.3704 -0.0480 -0.2282
   88SOL    HW1  263   0.523   2.212   0.865 -3.3472  0.3204 -0.1864
   88SOL    HW2  264   0.416   2.091   0.804 -0.7720 -1.5428  1.1834
   89SOL     OW  265   0.999   0.677   1.540  0.2696  0.0319  0.8325
   89SOL    HW1  266   1.036   0.752   1.483 -1.8540  0.5748  2.2923
   89SOL    HW2  267   1.043   0.588   1.515 -0.0120 -1.7052 -1.9891
   90SOL     OW  268   3.033   1.127   1.551  0.0861  0.1825 -0.1759
   90SOL    HW1  269   0.027   1.135   1.590 -0.4456 -1.3309  0.0761
   90SOL    HW2  270   2.966   1.191   1.598 -1.5668  0.8146  1.5596
   91SOL     OW  271   1.113   0.903   1.118  0.6135  0.1143 -0.9888
   91SOL    HW1  272   1.043   0.956   1.060 -0.6848  0.2589  1.5954
   91SOL    HW2  273   1.183   0.861   1.052 -1.9060  1.1318  0.6690
   92SOL     OW  274   2.366   1.235   0.637 -0.0605 -0.2465 -0.1697
   92SOL    HW1  275   2.407   1.141   0.630  0.5487  0.8215 -2.1720
   92SOL    HW2  276   2.321   1.252   0.727  1.9779 -1.9195 -0.5350
   93SOL     OW  277   2.354   0.857   2.606 -0.0001 -0.5722  0.2998
   93SOL    HW1  278   2.389   0.778   2.552 -0.1978  1.5707 -0.7844
   93SOL    HW2  279   2.252   0.861   2.609 -2.5271 -0.8412  0.7735
   94SOL     OW  280   2.302   1.809   2.485  0.0952 -0.0613  0.1144
   94SOL    HW1  281   2.239   1.868   2.437  0.5530  2.8175  1.6831
   94SOL    HW2  282   2.304   1.843   2.584 -1.2851  1.1345  0.0040
   95SOL     OW  283   2.146   0.703   1.202  0.1507 -0.0353 -0.4080
   95SOL    HW1  284   2.070   0.633   1.216 -0.3690 -0.4134 -1.9877
   95SOL    HW2  285   2.234   0.652   1.184  2.7930 -1.3219  2.4609
   96SOL     OW  286   2.564   2.991   1.728 -0.0754 -0.1488  0.1304
   96SOL    HW1  287   2.538   2.969   1.822  2.6024  0.8339 -0.4745
   96SOL    HW2  288   2.484   3.030   1.676 -0.7447  1.2614  1.3718
   97SOL     OW  289   2.407   0.775   1.050 -0.2071  0.0706 -0.0276
   97SOL    HW1  290   2.400   0.868   1.012 -1.3223  1.7593  1.8114
   97SOL    HW2  291   2.443   0.777   1.146  0.7553 -0.2076  1.8697
   98SOL     OW  292   1.481   1.893   1.506  0.6997 -0.4858  0.0307
   98SOL    HW1  293   1.441   1.874   1.598 -2.5521  1.1006  0.6679
   98SOL    HW2  294   1.503   1.991   1.497 -1.1845  2.4525  0.0178
   99SOL     OW  295   2.992   2.442   1.597  0.3424  0.5781 -0.1317
   99SOL    HW1  296   2.898   2.482   1.601  1.5265 -0.0843  1.0834
   99SOL    HW2  297   3.061   2.507   1.640  0.2667 -2.1615  1.0574
  100SOL     OW  298   1.168   0.783   0.037  0.2063  0.2857 -0.2350
  100SOL    HW1  299   1.071   0.818   0.023  2.3968  0.3121  0.4999
  100SOL    HW2  300   1.229   0.809   3.059  2.0000  1.4997  0.3251
  101SOL     OW  301   2.169   0.205   2.874  0.0065  0.2616  0.4742
  101SOL    HW1  302   2.090   0.146   2.842 -0.0545 -0.2743  0.2916
  101SOL    HW2  303   2.159   0.235   2.969  0.4096 -0.9741  0.9083
  102SOL     OW  304   0.582   0.743   1.779  0.1003 -0.2803  0.0103
  102SOL    HW1  305   0.650   0.805   1.739 -2.0519 -0.9943  0.2665
  102SOL    HW2  306   0.623   0.697   1.855 -3.3354  0.9121 -3.5205
  103SOL     OW  307   0.126   0.638   2.951 -0.0612  0.0762  0.2452
  103SOL    HW1  308   0.180   0.720   2.971 -0.1919 -0.6295 -0.0079
  103SOL    HW2  309   0.172   0.551   2.986  0.9417 -3.4000  0.4961
  104SOL     OW  310   1.143   0.467   2.482 -0.1743  0.0581 -0.2149
  104SOL    HW1  311   1.106   0.557   2.445  1.8726 -0.8372 -2.0138
  104SOL    HW2  312   1.061   0.405   2.493 -0.4739  0.0527 -0.5193
  105SOL     OW  313   2.122   1.880   1.730  0.1257 -0.1101 -0.3388
  105SOL    HW1  314   2.157   1.791   1.768 -0.6856 -1.5476  0.8780
  105SOL    HW2  315   2.180   1.960   1.740 -2.1856  1.0709 -1.3270
  106SOL     OW  316   1.692   0.393   0.636 -0.0962 -0.7524 -0.2972
  106SOL    HW1  317   1.614   0.326   0.635 -0.7071 -0.9724 -1.4232
  106SOL    HW2  318   1.777   0.350   0.602  2.2792 -0.3934 -0.0072
  107SOL     OW  319   2.753   2.112   0.959 -0.4307 -0.3780  0.0128
  107SOL    HW1  320   2.703   2.113   1.048 -0.1522 -1.0241 -1.2616
  107SOL    HW2  321   2.803   2.026   0.949  1.1007 -0.1709 -0.7733
  108SOL     OW  322   2.848   2.721   1.433  0.2094 -0.1783 -0.2783
  108SOL    HW1  323   2.837   2.785   1.514  0.8780  0.5107  1.2655
  108SOL    HW2  324   2.950   2.707   1.413  1.6883 -2.4998  1.1271
  109SOL     OW  325   2.072   2.852   0.719  0.2003 -0.4421 -0.2432
  109SOL    HW1  326   1.998   2.842   0.789 -2.4982  0.5652  0.6187
  109SOL    HW2  327   2.153   2.906   0.756 -0.8743  0.8873  2.1504
  110SOL     OW  328   0.567   2.119   2.473  0.3909 -0.1874  0.2004
  110SOL    HW1  329   0.464   2.131   2.473 -1.4830 -0.6708 -2.2527
  110SOL    HW2  330   0.602   2.078   2.561  1.8903 -1.4001  1.6478
  111SOL     OW  331   1.876   2.431   1.908  0.0254  0.2689  0.1870
  111SOL    HW1  332   1.785   2.469   1.937 -1.8599  0.4777  0.9347
  111SOL    HW2  333   1.869   2.380   1.819 -2.5334 -0.5783  1.0014
  112SOL     OW  334   1.771   1.795   0.055 -0.6387  0.4119 -0.1089
  112SOL    HW1  335   1.861   1.793   0.101  0.7870  1.4741  1.1601
  112SOL    HW2  336   1.782   1.824   3.054 -2.4055 -0.6555 -2.4219
  113SOL     OW  337   1.900   2.081   1.385  0.1464 -0.1982  0.1025
  113SOL    HW1  338   2.001   2.071   1.381  0.5001 -1.8717  0.7962
  113SOL    HW2  339   1.863   2.000   1.430  0.2785 -2.0559 -2.1997
  114SOL     OW  340   2.854   1.154   0.738  0.9440  0.4781  0.4753
  114SOL    HW1  341   2.848   1.212   0.656  1.1042 -0.7465  1.2413
  114SOL    HW2  342   2.763   1.102   0.752  0.5157 -2.7233  1.4805
  115SOL     OW  343   0.702   0.699   3.028 -0.5273  0.3616 -0.3197
  115SOL    HW1  344   0.678   0.621   2.966 -0.5047  1.3776  0.7695
  115SOL    HW2  345   0.643   0.684   0.014 -1.4145  0.4586  0.3276
  116SOL     OW  346   2.655   1.627   2.556  0.2270 -0.1956  0.0910
  116SOL    HW1  347   2.631   1.684   2.476 -0.6288 -2.5040  1.0488
  116SOL    HW2  348   2.587   1.642   2.633 -1.0699  2.7708 -0.1169
  117SOL     OW  349   0.016   2.828   0.624 -0.1955  0.2809  0.1278
  117SOL    HW1  350   0.031   2.782   0.533 -0.9545 -1.0468 -0.8148
  117SOL    HW2  351   3.019   2.816   0.661 -0.9644  0.5070 -0.6835
  118SOL     OW  352   0.898   1.725   2.861 -0.0608  0.1348 -0.1745
  118SOL    HW1  353   0.828   1.737   2.932  1.9047 -1.6632 -0.5160
  118SOL    HW2  354   0.987   1.692   2.900  4.0997  3.1391 -0.9446
  119SOL     OW  355   0.467   2.217   0.317 -0.1737  0.3188 -0.4128
  119SOL    HW1  356   0.544   2.215   0.381 -0.0146  1.5053 -0.9345
  119SOL    HW2  357   0.435   2.313   0.308 -1.2392 -0.1096 -0.8244
  120SOL     OW  358   1.314   0.555   0.003  0.2167 -0.1988  0.0163
  120SOL    HW1  359   1.410   0.587   0.017 -1.3673 -0.5906 -1.6714
  120SOL    HW2  360   1.262   0.638   0.019 -0.9059  1.2932 -0.4006
  121SOL     OW  361   1.326   2.551   0.597  0.2735  0.4594  0.2452
  121SOL    HW1  362   1.396   2.493   0.644  2.4829  3.3082 -2.0162
  121SOL    HW2  363   1.326   2.534   0.498  2.5520  1.2536  1.8599
  122SOL     OW  364   2.435   2.533   1.398  0.3945 -0.4012 -0.0251
  122SOL    HW1  365   2.484   2.610   1.440  0.1959 -1.7779 -0.2527
  122SOL    HW2  366   2.334   2.549   1.391 -1.5785 -0.4194 -1.4433
  123SOL     OW  367   0.674   1.997   0.619  0.0655 -0.3312 -0.2751
  123SOL    HW1  368   0.721   1.935   0.552  1.3271  0.8921  0.0587
  123SOL    HW2  369   0.673   2.096   0.590  4.1431  0.9017  0.3686
  124SOL     OW  370   2.823   0.759   0.220  0.7106  0.0706  0.2177
  124SOL    HW1  371   2.862   0.686   0.272 -0.9713 -0.3543 -0.7952
  124SOL    HW2  372   2.734   0.773   0.265  0.1019  0.2591  1.6199
  125SOL     OW  373   0.526   0.924   0.425  0.4681 -0.2219  0.3419
  125SOL    HW1  374   0.426   0.900   0.434 -0.4319  2.0479  0.3042
  125SOL    HW2  375   0.542   1.018   0.462  0.4169  0.7351  0.5758
  126SOL     OW  376   0.120   2.005   1.162  0.1095 -0.2990 -0.0763
  126SOL    HW1  377   0.154   1.912   1.194 -0.1562 -0.8599 -2.2872
  126SOL    HW2  378   0.016   2.013   1.166  0.9172  0.8054 -0.2720
  127SOL     OW  379   1.400   1.891   1.783 -0.1460  0.0125  0.0862
  127SOL    HW1  380   1.491   1.919   1.819 -0.1761 -0.5077 -2.1955
  127SOL    HW2  381   1.338   1.973   1.780  0.2449 -2.6390  1.9462
  128SOL     OW  382   1.127   0.983   0.380 -0.1890  0.2555 -0.3971
  128SOL    HW1  383   1.130   0.882   0.358  1.0324 -0.8048 -1.8202
  128SOL    HW2  384   1.111   1.037   0.299 -1.6217 -3.5215  0.6977
  129SOL     OW  385   2.060   1.100   0.841  0.5078  0.6455  0.6835
  129SOL    HW1  386   2.080   1.022   0.777 -0.3019 -0.2840 -0.3099
  129SOL    HW2  387   2.012   1.178   0.798 -0.3093  3.5459  0.0850
  130SOL     OW  388   2.560   1.739   1.405 -0.4895 -0.5690 -0.2087
  130SOL    HW1  389   2.576   1.817   1.343 -1.1719  0.4961 -0.0027
  130SOL    HW2  390   2.579   1.649   1.364 -0.7543  1.0125  2.1553
  131SOL     OW  391   3.050   2.828   2.988 -0.3765  0.5401  0.1974
  131SOL    HW1  392   3.045   2.800   3.087  0.3421 -1.1862  2.2881
  131SOL    HW2  393   0.034   2.886   2.969 -3.8037 -0.1634  0.9433
  132SOL     OW  394   0.109   1.344   0.575  0.1355 -0.3966 -0.5706
  132SOL    HW1  395   0.037   1.299   0.518 -0.9850 -0.8181 -3.2869
  132SOL    HW2  396   0.132   1.285   0.653 -1.4970  1.8970 -3.0938
  133SOL     OW  397   0.628   0.299   1.635 -0.5043 -0.4114 -0.0526
  133SOL    HW1  398   0.546   0.313   1.695  0.1946 -0.1223  1.3290
  133SOL    HW2  399   0.713   0.314   1.684 -0.1831  0.8119  1.1723
  134SOL     OW  400   0.281   1.814   2.921 -0.8179  0.6141  0.0079
  134SOL    HW1  401   0.354   1.876   2.956 -1.3145  1.5913 -1.2827
  134SOL    HW2  402   0.249   1.849   2.831 -0.6980  1.6811  2.7597
  135SOL     OW  403   1.601   0.613   2.000  0.3168  0.0308  0.0222
  135SOL    HW1  404   1.594   0.691   1.935  1.2509  4.0708 -1.7890
  135SOL    HW2  405   1.556   0.630   2.092 -1.8425 -0.6031  1.0826
  136SOL     OW  406   0.017   0.996   0.210  0.2460  0.0824  0.1213
  136SOL    HW1  407   0.114   0.960   0.200  2.7805  0.9129  0.6263
  136SOL    HW2  408   3.042   0.934   0.241  0.5392  1.5969 -2.7675
  137SOL     OW  409   0.063   1.286   1.072 -0.5736 -0.2527  0.5110
  137SOL    HW1  410   3.062   1.302   1.071  2.2609  0.5947  2.9928
  137SOL    HW2  411   0.094   1.245   0.983  1.3425 -0.6262 -1.6693
  138SOL     OW  412   1.968   0.495   1.271  0.0936 -0.3922  0.2133
  138SOL    HW1  413   1.955   0.479   1.374 -0.4382 -0.2380 -0.9977
  138SOL    HW2  414   1.876   0.510   1.222 -0.9648 -1.2954 -4.7616
  139SOL     OW  415   1.276   2.525   0.297 -0.8672 -0.0439 -0.3989
  139SOL    HW1  416   1.344   2.603   0.293 -1.3497 -0.9853 -2.5002
  139SOL    HW2  417   1.210   2.529   0.220  1.0053 -1.4122  2.1007
  140SOL     OW  418   1.318   1.520   1.718  0.1725  0.0355 -0.2265
  140SOL    HW1  419   1.242   1.589   1.712 -3.1320 -3.1150 -1.3901
  140SOL    HW2  420   1.327   1.492   1.620 -0.5776 -0.1804  0.2814
  141SOL     OW  421   1.358   1.972   0.526 -0.1118 -0.2403  0.5043
  141SOL    HW1  422   1.271   1.941   0.483 -0.2447  0.0861  0.1290
  141SOL    HW2  423   1.424   1.898   0.552  1.5663  0.5556 -2.3892
  142SOL     OW  424   0.964   0.470   0.232 -0.3923 -0.2859  0.0244
  142SOL    HW1  425   0.997   0.458   0.137 -1.1078  2.0214 -0.5619
  142SOL    HW2  426   0.883   0.531   0.242  0.1414 -2.4504 -0.5473
  143SOL     OW  427   0.192   1.944   2.693 -0.2126 -0.0172  0.3523
  143SOL    HW1  428   0.185   2.031   2.749  2.8189  1.8842  0.5076
  143SOL    HW2  429   0.232   1.954   2.602  0.5136  1.1624  0.4580
  144SOL     OW  430   1.468   2.522   0.918  0.6532 -0.1572 -0.2445
  144SOL    HW1  431   1.537   2.449   0.925  1.9177 -0.5477  2.2870
  144SOL    HW2  432   1.503   2.598   0.864 -2.4982 -0.5741  3.6220
  145SOL     OW  433   2.053   1.119   2.802  0.1804 -0.1902  0.1153
  145SOL    HW1  434   2.146   1.102   2.846  1.8528  2.3951 -0.6667
  145SOL    HW2  435   1.975   1.114   2.870 -0.7708 -0.6757  0.4439
  146SOL     OW  436   0.252   2.560   0.885  0.5479  0.1727  0.0950
  146SOL    HW1  437   0.225   2.654   0.867  2.7915 -2.9788 -0.3260
  146SOL    HW2  438   0.171   2.502   0.902  1.3118  1.0080 -0.3105
  147SOL     OW  439   2.223   0.043   2.117 -0.1544 -0.1814  0.6513
  147SOL    HW1  440   2.228   3.043   2.084 -1.0094 -0.8767 -4.3903
  147SOL    HW2  441   2.178   0.100   2.049  1.3241  2.1855 -0.7745
  148SOL     OW  442   0.893   2.947   1.909  0.0040 -0.2874  0.4543
  148SOL    HW1  443   0.960   2.990   1.846 -1.1529  0.4310  1.4191
  148SOL    HW2  444   0.886   2.847   1.893 -0.4808 -2.4252 -2.3455
  149SOL     OW  445   1.733   0.354   2.360  0.0053 -0.5994 -0.5028
  149SOL    HW1  446   1.666   0.341   2.439  0.2948 -0.4966  0.8431
  149SOL    HW2  447   1.826   0.314   2.378 -1.1250  1.2331  0.0527
  150SOL     OW  448   2.909   0.162   0.137 -0.4572  0.0524  0.2530
  150SOL    HW1  449   2.834   0.175   0.070 -0.8986 -0.4261 -2.6968
  150SOL    HW2  450   2.946   0.258   0.150  1.1389  2.2623 -0.4417
  151SOL     OW  451   0.800   1.597   0.501  1.0126 -0.0169 -0.1087
  151SOL    HW1  452   0.789   1.695   0.475 -1.3390 -1.0428 -1.1224
  151SOL    HW2  453   0.733   1.535   0.454  2.9654 -1.1355 -0.3858
  152SOL     OW  454   2.884   0.520   0.403  0.3021  1.0405  0.2031
  152SOL    HW1  455   2.801   0.478   0.446 -1.2529  1.0201  1.7351
  152SOL    HW2  456   2.966   0.501   0.458 -2.2923  0.4150 -2.6639
  153SOL     OW  457   2.672   0.216   1.419 -0.0886 -0.0612  0.2707
  153SOL    HW1  458   2.702   0.311   1.404  0.2766 -1.8733  0.1676
  153SOL    HW2  459   2.692   0.183   1.512  3.5417  0.8395 -1.1453
  154SOL     OW  460   1.326   3.092   2.153 -0.3174 -0.2350  0.3750
  154SOL    HW1  461   1.410   0.040   2.183 -0.0339  1.4625  0.3300
  154SOL    HW2  462   1.345   3.008   2.097  1.9684  0.1833 -0.7292
  155SOL     OW  463   0.480   1.828   1.044  0.5365  0.5244 -0.1194
  155SOL    HW1  464   0.478   1.899   0.976  1.1589  1.4383 -2.2378
  155SOL    HW2  465   0.524   1.860   1.128 -0.4018  0.1863 -0.9535
  156SOL     OW  466   2.382   2.090   3.012  0.4111  0.8714 -0.3194
  156SOL    HW1  467   2.355   2.186   3.005  0.7003  0.6990 -0.1719
  156SOL    HW2  468   2.329   2.039   3.086 -0.3608 -1.0931  0.6356
  157SOL     OW  469   0.815   0.724   0.227 -0.1037 -0.3847 -0.0978
  157SOL    HW1  470   0.716   0.707   0.211 -0.1080  1.1585  2.2017
  157SOL    HW2  471   0.861   0.760   0.142 -0.2778  0.1687 -0.7804
  158SOL     OW  472   2.365   0.014   2.889 -0.4512  0.2953 -0.8140
  158SOL    HW1  473   2.375   0.013   2.992  0.5400  0.2207 -0.5818
  158SOL    HW2  474   2.315   0.096   2.857  1.1145 -2.0572  0.1235
  159SOL     OW  475   3.019   0.153   0.562  0.0257 -0.1895  0.2585
  159SOL    HW1  476   3.041   0.253   0.550 -1.4938  1.2662 -0.0928
  159SOL    HW2  477   0.007   0.097   0.569  0.0090 -1.0906 -1.4684
  160SOL     OW  478   1.501   1.813   2.309  0.8248 -0.1070 -0.3382
  160SOL    HW1  479   1.422   1.786   2.367  0.5400 -4.4611 -1.3066
  160SOL    HW2  480   1.474   1.811   2.210 -1.3154  1.5355 -0.8677
  161SOL     OW  481   2.717   0.933   2.713 -0.2937  0.2046  0.8105
  161SOL    HW1  482   2.725   0.833   2.715 -1.6146 -1.7539 -0.0276
  161SOL    HW2  483   2.625   0.959   2.750  1.4433 -1.9195 -1.8754
  162SOL     OW  484   0.478   2.346   1.454 -0.5623 -0.3445 -0.1788
  162SOL    HW1  485   0.470   2.272   1.387 -0.9457 -1.0663 -0.6752
  162SOL    HW2  486   0.504   2.305   1.542  1.7851 -0.9076 -2.6282
  163SOL     OW  487   1.973   0.212   2.454  0.1642 -0.2355 -0.0179
  163SOL    HW1  488   1.905   0.146   2.501 -1.1664 -1.1819  3.5078
  163SOL    HW2  489   2.061   0.175   2.423  1.0353  2.8874 -1.0411
  164SOL     OW  490   2.041   1.780   0.160  0.4695  0.2262 -0.4483
  164SOL    HW1  491   2.116   1.738   0.100  2.9037 -1.0914 -1.7403
  164SOL    HW2  492   2.006   1.702   0.219  1.3376 -0.6300  0.8540
  165SOL     OW  493   3.059   0.236   1.497  0.0989 -0.2385 -0.4085
  165SOL    HW1  494   3.025   0.283   1.417  1.2246  0.4762  1.9288
  165SOL    HW2  495   0.061   0.213   1.488 -1.8619  1.2847  2.7042
  166SOL     OW  496   2.278   1.061   2.956  0.4991  0.4273 -0.1242
  166SOL    HW1  497   2.368   1.060   3.003  2.2854 -1.2099 -1.2710
  166SOL    HW2  498   2.213   1.104   3.020  0.5397  1.2749  2.5601
  167SOL     OW  499   2.782   0.752   3.045 -0.2546  0.1538  0.0306
  167SOL    HW1  500   2.814   0.759   0.047 -0.5081 -0.1226  0.3464
  167SOL    HW2  501   2.851   0.716   2.984 -2.0906  0.5504  2.0510
  168SOL     OW  502   1.628   2.554   2.640 -0.1093  0.7322  0.0087
  168SOL    HW1  503   1.717   2.552   2.688  2.4072 -1.5282 -1.0595
  168SOL    HW2  504   1.645   2.568   2.540 -0.1162  0.5637 -0.4841
  169SOL     OW  505   0.257   1.564   0.650  0.1927  0.4723 -0.4237
  169SOL    HW1  506   0.353   1.532   0.669  1.6572  2.2540  1.9514
  169SOL    HW2  507   0.196   1.493   0.611 -3.5547  0.3594 -0.1799
  170SOL     OW  508   0.371   0.344   1.495 -0.3108  0.6885  0.1880
  170SOL    HW1  509   0.332   0.424   1.548  0.3527  3.4739  1.2985
  170SOL    HW2  510   0.459   0.369   1.447  0.2301  2.2721 -1.7666
  171SOL     OW  511   1.282   2.214   2.746  0.0714 -0.6947 -0.2536
  171SOL    HW1  512   1.233   2.188   2.665 -2.0084 -1.2815  0.0470
  171SOL    HW2  513   1.334   2.297   2.727 -1.6685  0.5829 -1.9562
  172SOL     OW  514   3.071   2.770   1.315  0.2317  0.3421 -1.0461
  172SOL    HW1  515   3.060   2.725   1.223 -0.3919  0.8263 -3.0653
  172SOL    HW2  516   0.064   2.751   1.355 -3.6476 -1.7484  0.8260
  173SOL     OW  517   1.581   0.610   0.078 -0.0021 -0.0239  0.1778
  173SOL    HW1  518   1.641   0.600   0.163  1.7899 -1.2580 -1.4019
  173SOL    HW2  519   1.642   0.628   3.095  0.4680  0.5649  0.9768
  174SOL     OW  520   1.043   0.152   2.746  0.1073 -0.6251 -0.3905
  174SOL    HW1  521   0.991   0.069   2.718  1.6789  0.4298 -0.5588
  174SOL    HW2  522   1.108   0.136   2.824 -2.3509  0.6692  0.4364
  175SOL     OW  523   2.167   1.951   0.577 -0.0419  0.1050 -0.0793
  175SOL    HW1  524   2.099   2.017   0.532 -0.2835  3.0635  1.0013
  175SOL    HW2  525   2.118   1.878   0.633  1.2084 -0.3200 -0.5911
  176SOL     OW  526   1.329   0.130   0.089 -0.0420  0.0303  0.2714
  176SOL    HW1  527   1.316   0.196   0.170  4.1931 -0.0626 -0.1536
  176SOL    HW2  528   1.258   0.138   0.014 -2.2519  1.0995  1.8620
  177SOL     OW  529   0.974   1.397   0.459  0.2969 -0.3368  0.6382
  177SOL    HW1  530   0.912   1.478   0.446 -0.9182  1.7012 -2.8773
  177SOL    HW2  531   1.026   1.389   0.372 -2.2342  0.5986  1.4887
  178SOL     OW  532   2.543   2.346   2.876 -0.0009 -0.3838 -0.0081
  178SOL    HW1  533   2.623   2.386   2.919 -1.0731 -0.5466 -0.2868
  178SOL    HW2  534   2.453   2.363   2.924  0.3544  0.2519 -0.1364
  179SOL     OW  535   2.557   2.837   2.890  0.5619 -0.1219  0.4229
  179SOL    HW1  536   2.504   2.751   2.899 -0.3226  0.1347  1.2834
  179SOL    HW2  537   2.643   2.834   2.839 -1.6977  0.8681 -1.5514
  180SOL     OW  538   1.715   1.381   0.855 -0.0878 -0.0948  0.3287
  180SOL    HW1  539   1.646   1.460   0.843  0.4594  2.3615 -0.3610
  180SOL    HW2  540   1.665   1.300   0.895  1.8137  0.8743 -1.3624
  181SOL     OW  541   1.858   0.949   2.437  0.1973  0.0323  0.6246
  181SOL    HW1  542   1.776   1.009   2.423 -2.9831 -0.6581  0.7609
  181SOL    HW2  543   1.826   0.853   2.427  1.4732 -1.2358 -0.2171
  182SOL     OW  544   2.428   3.017   2.604  0.7057 -0.9298  0.1894
  182SOL    HW1  545   2.437   3.013   2.708  0.4405 -0.7025 -0.7966
  182SOL    HW2  546   2.411   0.011   2.570 -1.8827 -0.3655  1.8773
  183SOL     OW  547   1.839   0.713   2.292 -0.2665  0.0231  0.2565
  183SOL    HW1  548   1.855   0.650   2.211 -1.1958 -1.5718 -1.9587
  183SOL    HW2  549   1.915   0.696   2.363  0.4949 -0.7948 -2.0615
  184SOL     OW  550   2.964   1.249   1.322  0.5638  0.2944 -0.0345
  184SOL    HW1  551   2.923   1.176   1.262  0.1418 -0.6220 -2.7480
  184SOL    HW2  552   3.029   1.204   1.391 -0.4109  0.4176 -0.3296
  185SOL     OW  553   1.930   0.690   0.555 -0.4199  0.1654 -0.7064
  185SOL    HW1  554   1.982   0.761   0.608  1.4768 -1.2793 -0.8201
  185SOL    HW2  555   1.966   0.598   0.590  1.3115 -1.0226  1.8663
  186SOL     OW  556   0.347   2.734   2.973  0.1168  1.0824 -0.7159
  186SOL    HW1  557   0.370   2.737   3.074 -0.8901  3.4362  1.6218
  186SOL    HW2  558   0.337   2.826   2.938  0.9253 -1.7278  1.9500
  187SOL     OW  559   2.501   1.095   0.011 -0.1156 -0.5741  0.3175
  187SOL    HW1  560   2.586   1.056   3.063  1.5140 -1.5673 -1.2276
  187SOL    HW2  561   2.490   1.198   0.008 -3.1544  2.2968  1.9915
  188SOL     OW  562   3.024   1.710   1.315  0.4579  0.1394 -0.1659
  188SOL    HW1  563   2.996   1.612   1.339  2.4371  1.7470  1.1292
  188SOL    HW2  564   3.009   1.776   1.394 -0.4986  1.3243  1.8825
  189SOL     OW  565   2.634   0.428   2.983  0.3308  0.5009 -0.3444
  189SOL    HW1  566   2.631   0.473   2.893  2.2594  0.4342  3.0523
  189SOL    HW2  567   2.598   0.490   3.055 -0.0186  1.0007 -0.4571
  190SOL     OW  568   1.474   1.049   1.866  0.3404 -0.4038  0.5225
  190SOL    HW1  569   1.455   0.953   1.845 -1.6281  0.0747  0.9255
  190SOL    HW2  570   1.483   1.066   1.966 -0.4657  1.9613 -1.4630
  191SOL     OW  571   0.564   0.300   2.008  0.0771  0.6031 -0.1121
  191SOL    HW1  572   0.626   0.220   2.014  0.3103  0.5138 -3.8401
  191SOL    HW2  573   0.499   0.290   1.933 -2.4021  2.3096  0.7354
  192SOL     OW  574   2.143   1.368   1.202  0.2408 -0.2621  0.3440
  192SOL    HW1  575   2.086   1.410   1.123 -1.5622  1.7908 -2.9537
  192SOL    HW2  576   2.090   1.358   1.287  1.5535 -0.2768 -0.0134
  193SOL     OW  577   1.547   0.689   0.965  1.1320  0.2283 -0.1697
  193SOL    HW1  578   1.594   0.751   1.034  3.2629  0.9059  0.9340
  193SOL    HW2  579   1.597   0.676   0.880 -2.3977 -1.2607  0.7477
  194SOL     OW  580   0.918   2.416   1.686  0.2259 -0.2017 -0.3082
  194SOL    HW1  581   1.014   2.411   1.656 -0.4697  2.8239  0.7798
  194SOL    HW2  582   0.862   2.352   1.625 -1.1489 -3.3622 -3.2876
  195SOL     OW  583   1.924   0.078   3.044  0.0877  0.1053  0.5863
  195SOL    HW1  584   1.985   0.053   0.025 -0.0972 -2.6179  2.1468
  195SOL    HW2  585   1.959   0.036   2.956 -0.6301  2.9819 -3.1859
  196SOL     OW  586   0.810   1.969   1.933  0.2876  0.2293 -0.1856
  196SOL    HW1  587   0.800   1.943   1.837 -2.2729 -0.6420 -0.9848
  196SOL    HW2  588   0.897   1.933   1.974  3.2766 -3.1546  1.5226
  197SOL     OW  589   1.025   0.243   1.118  0.1645 -0.6047  0.0591
  197SOL    HW1  590   1.122   0.285   1.126  3.7079  1.1594 -0.3219
  197SOL    HW2  591   0.962   0.288   1.188 -0.9265 -0.3212  1.8776
  198SOL     OW  592   0.729   1.005   1.148  0.4026  0.3832  0.2178
  198SOL    HW1  593   0.758   0.932   1.211  0.7776  1.5755 -0.2177
  198SOL    HW2  594   0.782   1.005   1.059 -1.2430  0.1444 -0.0590
  199SOL     OW  595   0.077   2.606   1.666 -0.0061  0.1416 -0.0491
  199SOL    HW1  596   0.139   2.574   1.743  1.5571 -1.5780 -1.7902
  199SOL    HW2  597   0.138   2.643   1.593  0.8805 -1.5919 -1.0758
  200SOL     OW  598   1.898   1.646   1.987 -0.2441 -0.5526 -0.0866
  200SOL    HW1  599   1.898   1.545   2.005  1.6504 -0.9710  3.6604
  200SOL    HW2  600   1.981   1.669   1.938 -2.3840 -0.0645  2.6013
  201SOL     OW  601   0.387   1.645   2.119  0.4947  0.9739 -0.0228
  201SOL    HW1  602   0.454   1.567   2.126  1.2039  0.4239  1.5348
  201SOL    HW2  603   0.406   1.702   2.036  2.2672  1.5199 -1.5431
  202SOL     OW  604   2.098   0.625   0.259  0.7028  0.2848 -0.1257
  202SOL    HW1  605   2.041   0.563   0.194  0.0563  1.1102 -0.7567
  202SOL    HW2  606   2.057   0.629   0.349 -2.3448  1.4990  0.3982
  203SOL     OW  607   1.120   2.349   2.156 -0.1342  0.1435  0.8443
  203SOL    HW1  608   1.073   2.366   2.245 -2.6501 -1.3420 -2.8072
  203SOL    HW2  609   1.044   2.343   2.091 -0.1401 -0.0184 -0.1326
  204SOL     OW  610   1.043   2.082   1.563 -0.5607 -0.4288  0.2731
  204SOL    HW1  611   0.955   2.130   1.569 -0.7183 -0.0293  1.8093
  204SOL    HW2  612   1.082   2.087   1.659 -0.1646 -0.9943 -1.7082
  205SOL     OW  613   1.667   1.717   1.902 -0.1336  0.3549 -0.6956
  205SOL    HW1  614   1.761   1.688   1.937  0.9561 -1.2659 -0.4713
  205SOL    HW2  615   1.589   1.692   1.962 -0.7553 -1.4955  0.9716
  206SOL     OW  616   0.223   0.937   2.355 -0.5660 -0.3039  0.0189
  206SOL    HW1  617   0.240   1.002   2.429  0.7764 -0.3536  1.3624
  206SOL    HW2  618   0.299   0.871   2.359  1.3073  0.4356 -3.0575
  207SOL     OW  619   1.096   2.724   2.031 -0.2359 -0.1734  0.5568
  207SOL    HW1  620   1.060   2.716   2.127 -1.3280 -2.3410  1.2047
  207SOL    HW2  621   1.023   2.705   1.960 -0.4951 -2.0523  0.9560
  208SOL     OW  622   0.869   2.680   1.892 -0.1294 -0.3071 -0.1456
  208SOL    HW1  623   0.884   2.580   1.886 -1.9816 -2.7028 -1.2950
  208SOL    HW2  624   0.771   2.697   1.918  0.3899  1.4056  0.2196
  209SOL     OW  625   1.554   0.305   0.095 -0.9964 -0.4100 -0.1012
  209SOL    HW1  626   1.558   0.319   0.194 -0.8316  1.0424 -2.2519
  209SOL    HW2  627   1.483   0.243   0.059  0.9924 -2.3934 -1.9489
  210SOL     OW  628   2.707   0.696   0.801  0.1859  0.0504  0.2686
  210SOL    HW1  629   2.765   0.669   0.881 -1.1185 -1.5863  1.4762
  210SOL    HW2  630   2.769   0.691   0.716 -0.7450  1.7160 -1.9519
  211SOL     OW  631   0.644   0.361   1.371  0.4730 -0.4234 -0.9768
  211SOL    HW1  632   0.617   0.462   1.367 -0.4348  3.8973  0.9848
  211SOL    HW2  633   0.643   0.323   1.470 -0.1732 -2.5245  0.5961
  212SOL     OW  634   1.492   1.885   1.093 -0.3199 -0.3264 -0.2377
  212SOL    HW1  635   1.565   1.921   1.152 -0.0666  1.2841  0.7362
  212SOL    HW2  636   1.439   1.958   1.050  0.1508 -1.0990  0.3186
  213SOL     OW  637   2.203   0.445   1.707 -0.5116  0.4149  0.0631
  213SOL    HW1  638   2.273   0.397   1.763 -1.2869 -0.2100  1.4179
  213SOL    HW2  639   2.213   0.544   1.722  1.3016 -2.8897  0.6317
  214SOL     OW  640   0.875   2.632   2.529  0.6365 -0.4186 -0.1874
  214SOL    HW1  641   0.855   2.700   2.458  3.6362 -2.2031  3.3578
  214SOL    HW2  642   0.794   2.578   2.544  3.0650  1.0858 -4.9398
  215SOL     OW  643   2.750   1.783   1.606  0.1818  0.1601  0.2565
  215SOL    HW1  644   2.681   1.782   1.527 -4.2404  1.8369 -1.0718
  215SOL    HW2  645   2.850   1.778   1.580  3.1518  1.7904  1.0645
  216SOL     OW  646   0.839   1.055   1.762 -0.3995  0.1200 -0.3997
  216SOL    HW1  647   0.750   1.097   1.788  0.8621 -3.0236  0.7821
  216SOL    HW2  648   0.910   1.125   1.733 -1.1642  1.1200 -0.4162
  217SOL     OW  649   2.673   0.374   0.493  0.1141 -0.1841  0.6000
  217SOL    HW1  650   2.622   0.454   0.530 -0.0492 -2.0211 -0.3539
  217SOL    HW2  651   2.701   0.312   0.568 -1.8245 -0.7988 -1.5515
  218SOL     OW  652   1.925   2.011   0.996 -0.4191 -0.3627  0.0445
  218SOL    HW1  653   1.926   2.085   0.925 -1.2241 -0.1155  0.4821
  218SOL    HW2  654   1.826   2.012   1.026  0.4597 -1.7179 -0.9816
  219SOL     OW  655   1.481   3.095   0.404 -0.5208 -0.3099  0.4870
  219SOL    HW1  656   1.552   3.028   0.432 -0.3953  1.4588 -0.8853
  219SOL    HW2  657   1.396   3.045   0.385 -1.8953 -3.3225 -0.1198
  220SOL     OW  658   1.634   2.096   0.726 -0.4726  0.5679 -0.2021
  220SOL    HW1  659   1.638   2.121   0.627 -1.3518  0.0563 -2.4993
  220SOL    HW2  660   1.673   2.004   0.738 -1.8874  2.8830 -0.5809
  221SOL     OW  661   2.824   1.090   0.234  0.8528  0.0756  0.4406
  221SOL    HW1  662   2.807   1.188   0.228 -1.0836 -0.6791  1.9739
  221SOL    HW2  663   2.837   1.053   0.141  0.0020  1.3971 -0.7887
  222SOL     OW  664   0.857   2.233   1.310  0.3837 -0.1318  0.2360
  222SOL    HW1  665   0.841   2.322   1.266 -0.8265  0.7716  0.6013
  222SOL    HW2  666   0.903   2.167   1.246 -1.1520  1.7768 -1.0216
  223SOL     OW  667   1.383   0.413   0.449  0.7789  0.1200  0.3826
  223SOL    HW1  668   1.338   0.491   0.501 -1.2618  2.3339  0.3050
  223SOL    HW2  669   1.329   0.401   0.360 -3.9492  1.1895  2.4655
  224SOL     OW  670   2.834   1.066   1.150  0.5004 -0.1031 -0.0414
  224SOL    HW1  671   2.735   1.074   1.171  1.1195  1.4282 -1.5885
  224SOL    HW2  672   2.864   1.147   1.101  0.8716 -2.1840 -0.5047
  225SOL     OW  673   0.557   1.527   1.371  0.1744  0.1076  0.2790
  225SOL    HW1  674   0.579   1.502   1.276 -2.4509 -0.4486  2.5132
  225SOL    HW2  675   0.454   1.526   1.390  1.3021  1.3684 -1.6241
  226SOL     OW  676   0.633   2.679   0.696 -0.0969 -0.0051  0.8366
  226SOL    HW1  677   0.689   2.662   0.611 -0.5801 -0.1999  1.1133
  226SOL    HW2  678   0.561   2.605   0.707 -1.8134  0.5936 -0.3243
  227SOL     OW  679   1.169   1.749   1.765  0.0067 -0.1596 -0.4151
  227SOL    HW1  680   1.105   1.780   1.691  0.4479 -1.7656  0.1174
  227SOL    HW2  681   1.256   1.801   1.758  1.0182  0.5250 -0.2051
  228SOL     OW  682   0.851   0.285   1.760 -0.5007 -0.6487  0.2688
  228SOL    HW1  683   0.884   0.382   1.771 -1.4826 -1.0412  1.7916
  228SOL    HW2  684   0.927   0.217   1.753 -1.2643  0.3801 -0.2909
  229SOL     OW  685   2.711   0.614   2.735  0.2462  0.0167  0.3344
  229SOL    HW1  686   2.719   0.640   2.637 -1.5638 -1.3164 -0.8479
  229SOL    HW2  687   2.796   0.636   2.787  0.5025 -0.6198  2.0235
  230SOL     OW  688   0.347   0.977   1.490 -0.3159  0.1941  0.5898
  230SOL    HW1  689   0.308   1.038   1.416  1.8458  2.7910 -0.9206
  230SOL    HW2  690   0.342   0.877   1.466  2.2600  0.6798  0.5860
  231SOL     OW  691   1.073   2.909   1.439  0.5338  0.2993 -0.0690
  231SOL    HW1  692   0.996   2.926   1.501  0.2997  0.9711 -1.4646
  231SOL    HW2  693   1.067   2.970   1.354  1.3351  0.4888 -0.2334
  232SOL     OW  694   0.025   2.217   0.214  0.0744  0.0296  0.0319
  232SOL    HW1  695   0.090   2.198   0.289  0.8236 -0.0710  0.3977
  232SOL    HW2  696   0.050   2.305   0.168  0.9097 -0.3049 -0.5917
  233SOL     OW  697   1.157   2.598   2.943  0.2588 -0.8998 -0.5182
  233SOL    HW1  698   1.123   2.595   2.847 -3.3601 -1.2392 -2.7635
  233SOL    HW2  699   1.231   2.668   2.966 -1.1542  0.2227  1.2162
  234SOL     OW  700   0.617   1.202   1.861 -0.2165 -0.0648 -0.2052
  234SOL    HW1  701   0.579   1.184   1.770  0.8849  1.0715  2.5978
  234SOL    HW2  702   0.568   1.156   1.933  2.4548  0.4488 -0.6180
  235SOL     OW  703   3.016   2.428   2.405 -0.5095 -0.1820  0.4392
  235SOL    HW1  704   0.013   2.461   2.418  2.9776  1.1632 -0.1604
  235SOL    HW2  705   2.959   2.442   2.488 -1.4342 -1.9555 -1.2976
  236SOL     OW  706   1.618   2.175   2.930 -0.5146 -0.0738 -0.3964
  236SOL    HW1  707   1.591   2.226   2.847 -0.9289 -0.1702  0.2290
  236SOL    HW2  708   1.558   2.196   3.006  1.6919  0.8886 -2.4063
  237SOL     OW  709   1.866   0.931   0.951  0.2060  0.0740  0.0851
  237SOL    HW1  710   1.908   0.841   0.963 -2.3125 -0.0831 -0.7622
  237SOL    HW2  711   1.932   0.998   0.917  0.4199  0.5574  2.1834
  238SOL     OW  712   1.346   2.566   2.155  0.3940 -0.1186  0.0444
  238SOL    HW1  713   1.250   2.532   2.179  0.2613 -0.2413  0.6169
  238SOL    HW2  714   1.337   2.652   2.107  0.4669  1.2377 -1.6019
  239SOL     OW  715   0.874   2.396   1.993  0.2130 -0.2119 -0.2594
  239SOL    HW1  716   0.804   2.334   2.041 -0.6872 -1.4715  1.7524
  239SOL    HW2  717   0.883   2.379   1.893 -1.8853 -0.3389  0.4007
  240SOL     OW  718   2.448   0.165   0.895  0.4566  0.0910  0.2401
  240SOL    HW1  719   2.537   0.120   0.903 -2.6847  1.4070  0.5917
  240SOL    HW2  720   2.431   0.213   0.808  1.6403 -1.3079  0.3967
  241SOL     OW  721   1.173   1.630   2.983 -0.6228 -0.2391 -0.6612
  241SOL    HW1  722   1.148   1.584   3.073  0.8420  0.2578  1.5319
  241SOL    HW2  723   1.258   1.590   2.943 -0.8913  2.6708  0.5909
  242SOL     OW  724   2.752   1.037   3.019 -0.0950  0.1223 -0.3556
  242SOL    HW1  725   2.776   0.937   3.022  0.7518 -1.1123  2.5152
  242SOL    HW2  726   2.782   1.072   2.926  1.2903  1.0311 -0.7775
  243SOL     OW  727   0.978   0.567   1.802  0.1774 -0.0057  0.5195
  243SOL    HW1  728   1.049   0.596   1.873 -0.1670 -0.8567  2.2993
  243SOL    HW2  729   0.987   0.632   1.719 -3.6181 -1.3063 -1.7849
  244SOL     OW  730   1.377   2.818   2.967 -0.4428 -0.4134  0.2276
  244SOL    HW1  731   1.431   2.734   2.945 -0.1102  1.2464 -0.0203
  244SOL    HW2  732   1.415   2.871   3.046 -1.6005  1.3912 -1.2734
  245SOL     OW  733   1.528   2.447   0.042 -0.6298  0.4460 -0.0867
  245SOL    HW1  734   1.494   2.353   0.060  0.0161  0.9257 -0.4546
  245SOL    HW2  735   1.628   2.442   0.043  0.4259 -1.3877  0.3159
  246SOL     OW  736   0.831   0.924   2.328 -0.2506 -0.1151 -0.4275
  246SOL    HW1  737   0.758   0.928   2.257  0.7796  0.2806 -0.0310
  246SOL    HW2  738   0.799   0.983   2.407 -2.2746  2.8395  0.9358
  247SOL     OW  739   3.055   0.630   2.413 -0.1855  0.4636  0.7997
  247SOL    HW1  740   3.071   0.554   2.343 -2.7572 -0.5155  1.3845
  247SOL    HW2  741   3.096   0.602   2.501 -1.4392  1.6381 -2.5018
  248SOL     OW  742   0.070   1.301   1.981 -0.2198 -0.3387 -0.1678
  248SOL    HW1  743   3.094   1.231   1.967  1.0262 -1.7721  1.7658
  248SOL    HW2  744   0.140   1.262   2.046 -0.8495  0.1930  1.1949
  249SOL     OW  745   3.007   0.419   0.171 -0.1633 -0.2913 -0.1168
  249SOL    HW1  746   0.008   0.435   0.198  1.2988 -3.0029 -0.8980
  249SOL    HW2  747   2.942   0.461   0.240  0.4229  0.6106 -0.0691
  250SOL     OW  748   2.684   0.185   3.073  0.4062 -0.1468 -0.2379
  250SOL    HW1  749   2.671   0.133   2.986  1.1150 -2.4031  1.9896
  250SOL    HW2  750   2.645   0.283   3.063  0.4972  0.1652 -1.1303
  251SOL     OW  751   0.973   1.644   1.926  0.1472  0.1315  0.2317
  251SOL    HW1  752   0.941   1.713   1.991 -0.4171 -4.0007 -2.3157
  251SOL    HW2  753   1.058   1.679   1.878  0.9052  0.9895  1.7012
  252SOL     OW  754   2.098   1.690   1.407  0.3494 -0.2422  0.0947
  252SOL    HW1  755   2.189   1.729   1.444  1.6852  0.8394 -0.0551
  252SOL    HW2  756   2.049   1.637   1.480 -1.1518  4.1673  1.6793
  253SOL     OW  757   1.846   2.290   2.179  0.2307 -0.1050  0.1497
  253SOL    HW1  758   1.890   2.315   2.091 -1.6337 -1.2019  0.8090
  253SOL    HW2  759   1.816   2.368   2.236 -1.5854 -2.3100 -1.6275
  254SOL     OW  760   0.559   2.569   2.178  0.0552  0.1708 -0.6053
  254SOL    HW1  761   0.559   2.496   2.109  1.0623  1.6872  1.3479
  254SOL    HW2  762   0.654   2.591   2.203 -0.8769  2.5873 -1.1772
  255SOL     OW  763   1.381   0.312   0.889 -0.1302 -0.7532 -0.3021
  255SOL    HW1  764   1.417   0.260   0.808 -1.0764  1.1112 -0.6745
  255SOL    HW2  765   1.350   0.404   0.867  1.1555 -0.6376  0.3965
  256SOL     OW  766   2.241   2.228   1.419  0.1047 -0.0919 -0.4753
  256SOL    HW1  767   2.253   2.302   1.348  2.2057  0.1568 -0.7208
  256SOL    HW2  768   2.214   2.146   1.371  0.8071  3.7542  0.8981
  257SOL     OW  769   0.428   2.497   2.880 -0.1345 -0.1581 -0.2548
  257SOL    HW1  770   0.458   2.453   2.965 -0.8198  3.4558  1.2765
  257SOL    HW2  771   0.411   2.595   2.900  2.3009 -1.0453 -2.2453
  258SOL     OW  772   0.455   0.764   2.344 -0.0633  0.4422 -0.0940
  258SOL    HW1  773   0.495   0.755   2.440  0.1905 -2.1611  0.4920
  258SOL    HW2  774   0.501   0.835   2.287  0.8181  3.9876 -2.1531
  259SOL     OW  775   1.008   1.108   2.206 -0.2297  0.3618 -0.5832
  259SOL    HW1  776   0.943   1.153   2.145  4.2107  0.0470  0.3694
  259SOL    HW2  777   0.951   1.038   2.256 -0.3947 -0.2118  0.1480
  260SOL     OW  778   2.071   0.863   0.698 -0.3724 -0.5901  0.0398
  260SOL    HW1  779   2.034   0.828   0.786  0.1522 -2.3056 -2.8084
  260SOL    HW2  780   2.165   0.833   0.686  0.2886  2.6360  1.7566
  261SOL     OW  781   0.875   0.285   0.709 -0.1202  0.3592 -0.3438
  261SOL    HW1  782   0.911   0.311   0.624  1.4789 -0.6280  3.5995
  261SOL    HW2  783   0.955   0.270   0.775  0.5890 -2.1128 -0.3033
  262SOL     OW  784   2.175   2.477   2.491  0.3420 -0.1122 -0.0081
  262SOL    HW1  785   2.203   2.567   2.454  0.6851 -0.2954 -1.7046
  262SOL    HW2  786   2.242   2.399   2.478 -2.7846  1.0292  1.1776
  263SOL     OW  787   0.452   1.605   2.957 -0.4356  0.3520  0.5547
  263SOL    HW1  788   0.471   1.557   2.870  0.6944  0.9430 -0.1703
  263SOL    HW2  789   0.395   1.692   2.947 -0.8815 -0.2727  2.2212
  264SOL     OW  790   0.215   1.805   1.423 -0.5053 -0.1623 -0.4165
  264SOL    HW1  791   0.117   1.790   1.429  1.2598 -0.4024  1.1202
  264SOL    HW2  792   0.234   1.895   1.467  1.2585  1.3678 -0.9345
  265SOL     OW  793   0.970   0.781   0.656  0.4574 -0.1363  0.6154
  265SOL    HW1  794   0.902   0.776   0.579 -1.0091 -1.4720  2.5553
  265SOL    HW2  795   0.939   0.725   0.732  1.6974  2.3194 -1.0990
  266SOL     OW  796   1.237   1.855   0.085  0.3269  0.1594  0.3675
  266SOL    HW1  797   1.338   1.839   0.097 -0.6801  0.2021  2.2727
  266SOL    HW2  798   1.205   1.787   0.015 -2.0619 -1.8688 -1.4344
  267SOL     OW  799   0.394   0.549   2.946 -0.3141 -0.0799  0.8822
  267SOL    HW1  800   0.473   0.499   2.913 -1.7850  0.0429 -1.0402
  267SOL    HW2  801   0.354   0.603   2.867 -0.3621  0.9079 -0.7074
  268SOL     OW  802   0.976   0.498   2.803  0.0457  0.0051  0.2295
  268SOL    HW1  803   0.998   0.437   2.722  0.8173 -0.7369  2.8513
  268SOL    HW2  804   0.938   0.585   2.766  1.2531  1.2107 -0.8721
  269SOL     OW  805   1.778   0.052   2.544  0.2015  0.4174 -0.7499
  269SOL    HW1  806   1.764   3.089   2.466  0.1102  1.1054 -0.1929
  269SOL    HW2  807   1.696   0.113   2.545  0.9159  0.2938 -2.3177
  270SOL     OW  808   0.797   0.680   2.722  0.7688  0.5318 -0.3159
  270SOL    HW1  809   0.769   0.658   2.627 -2.0268  0.3814  1.7331
  270SOL    HW2  810   0.784   0.777   2.743 -0.2036 -2.4078 -0.6273
  271SOL     OW  811   0.258   0.860   0.175  0.5429  0.1365 -0.8470
  271SOL    HW1  812   0.331   0.900   0.122 -1.3348 -0.0329 -0.1071
  271SOL    HW2  813   0.280   0.848   0.271 -0.2729 -0.4259 -3.3226
  272SOL     OW  814   2.203   1.170   2.377  0.1395 -0.4114  0.1432
  272SOL    HW1  815   2.109   1.148   2.347  0.2719  2.0656  0.8519
  272SOL    HW2  816   2.264   1.100   2.339 -3.6935  0.4107  2.2516
  273SOL     OW  817   0.078   0.448   2.220 -0.1856 -0.1359 -0.2733
  273SOL    HW1  818   0.173   0.423   2.244 -0.3848  0.1712 -1.1093
  273SOL    HW2  819   0.072   0.508   2.135  0.5728  1.6071 -0.0833
  274SOL     OW  820   2.760   0.278   1.892 -0.8549 -0.1539  1.0880
  274SOL    HW1  821   2.762   0.221   1.978 -0.1603  0.7976 -0.4780
  274SOL    HW2  822   2.719   0.221   1.814 -2.3359 -2.6640 -1.2244
  275SOL     OW  823   1.804   1.387   0.259 -0.2277  0.3412 -0.2319
  275SOL    HW1  824   1.846   1.391   0.164  2.3539 -0.9018 -1.4112
  275SOL    HW2  825   1.703   1.397   0.259 -1.3219 -1.4408 -0.3199
  276SOL     OW  826   0.167   1.335   2.760 -0.1730 -0.7162 -0.2058
  276SOL    HW1  827   0.167   1.437   2.765 -0.1209  0.7638  0.6929
  276SOL    HW2  828   0.075   1.299   2.761  0.4566  1.0368 -2.1150
  277SOL     OW  829   1.846   2.718   2.159 -0.1504  0.2677  0.1758
  277SOL    HW1  830   1.945   2.702   2.170  2.8959 -2.1656  2.1798
  277SOL    HW2  831   1.796   2.660   2.227 -1.9141  0.4994 -1.0297
  278SOL     OW  832   1.975   2.946   1.343 -0.6333  0.0758 -0.5103
  278SOL    HW1  833   1.945   2.851   1.377 -0.1738 -0.8439 -0.2595
  278SOL    HW2  834   1.894   3.007   1.345  1.2005 -2.0130  2.8552
  279SOL     OW  835   1.088   1.313   2.844 -0.1449 -0.3827 -0.3912
  279SOL    HW1  836   1.176   1.365   2.846 -3.8497 -0.8263  2.3217
  279SOL    HW2  837   1.033   1.355   2.917 -2.7457 -0.6142  0.0536
  280SOL     OW  838   0.771   1.250   0.347 -0.3468  0.0023  0.3080
  280SOL    HW1  839   0.733   1.338   0.310  2.0385  0.1832 -2.4163
  280SOL    HW2  840   0.871   1.252   0.372 -1.6475 -1.4555  1.1004
  281SOL     OW  841   0.204   2.993   1.600  0.1796  0.3847 -0.3940
  281SOL    HW1  842   0.253   2.973   1.688 -1.2724 -1.6780 -1.6013
  281SOL    HW2  843   0.196   2.915   1.538  1.7882 -1.0696 -2.1941
  282SOL     OW  844   0.216   2.238   1.017  0.8177  0.8848 -0.5035
  282SOL    HW1  845   0.296   2.206   0.968 -3.0226  2.1080  0.3348
  282SOL    HW2  846   0.178   2.162   1.072 -1.9374  3.5909 -2.7941
  283SOL     OW  847   1.244   2.109   2.184 -0.2950 -0.5600 -0.3786
  283SOL    HW1  848   1.202   2.200   2.163  0.9000 -0.6132 -0.0304
  283SOL    HW2  849   1.342   2.098   2.152  1.5910 -1.5142  1.3423
  284SOL     OW  850   2.338   1.010   0.197  0.1201  0.3696 -0.1417
  284SOL    HW1  851   2.386   1.032   0.286 -0.7612  0.1060 -2.2480
  284SOL    HW2  852   2.398   1.041   0.123 -1.2686  1.3066 -2.2503
  285SOL     OW  853   2.823   2.877   2.805 -0.1868 -0.2872 -0.5526
  285SOL    HW1  854   2.808   2.808   2.733  0.0778  1.2593  1.7893
  285SOL    HW2  855   2.916   2.878   2.837 -1.8815 -1.8158 -0.0820
  286SOL     OW  856   1.915   2.816   0.932  0.0805  0.3022 -0.3009
  286SOL    HW1  857   1.970   2.891   0.979 -0.8201  1.9135 -0.9201
  286SOL    HW2  858   1.864   2.754   0.999 -2.0563  3.3945 -0.3249
  287SOL     OW  859   0.532   1.175   1.086  0.4418 -0.0836  0.1961
  287SOL    HW1  860   0.583   1.095   1.103 -0.0956  1.9191 -0.2162
  287SOL    HW2  861   0.583   1.261   1.078  2.0833 -0.3925 -1.8876
  288SOL     OW  862   1.456   2.202   0.066  0.2203  0.3416 -0.3605
  288SOL    HW1  863   1.355   2.217   0.090  0.3525 -1.7014  1.1493
  288SOL    HW2  864   1.501   2.129   0.131 -0.8284 -1.1434  2.2109
  289SOL     OW  865   0.225   1.990   2.414  0.0438 -0.1037  0.1070
  289SOL    HW1  866   0.257   2.089   2.415  1.2254 -0.5770 -0.7393
  289SOL    HW2  867   0.308   1.934   2.401  0.5381 -2.0498  1.2659
  290SOL     OW  868   1.434   2.112   0.931 -0.3495  0.1408  0.2504
  290SOL    HW1  869   1.331   2.119   0.923  1.0000 -0.9979 -0.6689
  290SOL    HW2  870   1.486   2.136   0.847 -0.6825  1.7181  1.0405
  291SOL     OW  871   1.606   1.502   3.038 -0.3347 -0.0453 -0.2403
  291SOL    HW1  872   1.662   1.535   2.960 -1.8452 -0.6219 -1.6196
  291SOL    HW2  873   1.586   1.574   0.012  0.6177 -2.5932  0.2720
  292SOL     OW  874   1.345   1.464   1.447 -0.0540  0.3165 -0.1465
  292SOL    HW1  875   1.307   1.395   1.386  1.0740  1.1199 -0.8932
  292SOL    HW2  876   1.366   1.554   1.405  0.1008 -0.6328  2.2561
  293SOL     OW  877   1.706   2.838   0.732  0.0109  0.6624  0.4782
  293SOL    HW1  878   1.788   2.842   0.789  0.4349 -0.7148  0.2481
  293SOL    HW2  879   1.696   2.744   0.688 -0.8878  0.0033 -0.3286
  294SOL     OW  880   0.117   1.314   2.349 -0.3872  0.0246 -0.9122
  294SOL    HW1  881   0.075   1.408   2.334 -1.1529  1.0607 -0.6891
  294SOL    HW2  882   0.055   1.246   2.309  0.8838 -0.2279  0.2280
  295SOL     OW  883   0.960   2.089   2.811  0.1231 -0.5601  0.1444
  295SOL    HW1  884   0.974   2.189   2.785  0.6953  2.0524 -0.3750
  295SOL    HW2  885   0.987   2.071   2.908 -1.2437  1.6207 -2.2349
  296SOL     OW  886   1.652   1.513   2.163 -0.0315 -0.4212 -0.4315
  296SOL    HW1  887   1.592   1.510   2.083  3.0490  3.5281  0.7138
  296SOL    HW2  888   1.597   1.515   2.247  3.6477  2.1816  0.9074
  297SOL     OW  889   2.786   0.719   2.499 -0.1240 -0.1056 -0.4893
  297SOL    HW1  890   2.871   0.677   2.456  2.6766  2.4349 -0.2206
  297SOL    HW2  891   2.711   0.721   2.431  0.1927 -0.4786  1.4236
  298SOL     OW  892   0.978   2.388   2.398  0.2503  0.1372  0.1487
  298SOL    HW1  893   0.982   2.484   2.437  0.5533 -1.7074  2.2856
  298SOL    HW2  894   0.882   2.349   2.392  0.5296 -0.4188  1.2794
  299SOL     OW  895   0.923   2.996   2.693 -0.1268 -0.2539 -0.6171
  299SOL    HW1  896   0.869   2.970   2.610 -2.2735 -1.4418  0.3752
  299SOL    HW2  897   0.905   2.938   2.774  0.8856 -3.2758  1.3159
  300SOL     OW  898   2.963   0.641   2.861  0.0931 -0.2592  0.4566
  300SOL    HW1  899   2.972   0.545   2.873  2.3678  1.2739 -0.5332
  300SOL    HW2  900   3.058   0.675   2.868  1.2921 -1.9814 -1.3231
  301SOL     OW  901   1.344   0.690   1.465 -0.3606 -0.4339 -0.0734
  301SOL    HW1  902   1.316   0.668   1.368 -1.8700 -0.3284  1.6453
  301SOL    HW2  903   1.271   0.746   1.515 -1.1376 -0.1606 -0.2518
  302SOL     OW  904   2.891   1.886   2.728  0.2902  0.4247  0.4531
  302SOL    HW1  905   2.924   1.969   2.675 -1.5119  2.2184  3.1065
  302SOL    HW2  906   2.929   1.800   2.690 -1.8906  2.4600  0.3166
  303SOL     OW  907   0.142   0.057   2.353  0.2706  0.0791  0.1093
  303SOL    HW1  908   0.228   0.062   2.299 -0.5887 -0.2810  2.0499
  303SOL    HW2  909   0.070   0.119   2.315  1.5505 -0.6459  0.8523
  304SOL     OW  910   2.830   0.575   1.628 -0.1765  0.3914  0.2631
  304SOL    HW1  911   2.848   0.522   1.539  1.4455  0.7211 -1.9284
  304SOL    HW2  912   2.795   0.672   1.610 -1.7040 -1.7887 -1.7068
  305SOL     OW  913   0.215   0.102   1.917 -0.3037  0.0672  0.1653
  305SOL    HW1  914   0.164   0.184   1.881  0.2816  0.7471 -1.7442
  305SOL    HW2  915   0.158   0.022   1.942 -0.3943  1.4646 -2.0525
  306SOL     OW  916   2.631   1.474   1.396 -0.1165 -0.0186  0.2220
  306SOL    HW1  917   2.730   1.499   1.395 -1.7505  1.4653 -1.1999
  306SOL    HW2  918   2.613   1.399   1.457 -1.1717  0.7671 -1.4705
  307SOL     OW  919   2.043   0.224   1.277  0.1372  0.4750 -0.7774
  307SOL    HW1  920   2.006   0.316   1.274  2.3018 -0.2627  0.2614
  307SOL    HW2  921   1.974   0.158   1.317 -0.3762  0.8655  0.1782
  308SOL     OW  922   0.184   2.187   1.333 -0.0338 -0.0230 -0.1924
  308SOL    HW1  923   0.153   2.114   1.268  0.4598 -1.0312 -0.0787
  308SOL    HW2  924   0.111   2.260   1.329  0.1791  0.9718 -2.3172
  309SOL     OW  925   2.316   1.806   1.499  0.2109  0.6125 -0.1962
  309SOL    HW1  926   2.402   1.793   1.451 -1.8187  1.5103 -1.6495
  309SOL    HW2  927   2.315   1.891   1.551 -1.6907  1.3266 -2.0824
  310SOL     OW  928   2.712   1.627   0.070 -0.3354 -0.9739  0.1176
  310SOL    HW1  929   2.791   1.695   0.054 -1.5606  2.6160 -0.0499
  310SOL    HW2  930   2.690   1.606   0.171  2.3421 -1.0188 -1.1540
  311SOL     OW  931   2.257   1.481   2.371  0.4141 -0.6538 -0.0511
  311SOL    HW1  932   2.226   1.387   2.352 -2.5575  2.3123 -0.6741
  311SOL    HW2  933   2.241   1.508   2.465  2.3009 -0.5999 -0.0097
  312SOL     OW  934   2.337   2.402   0.825  0.4167 -0.5287 -1.0088
  312SOL    HW1  935   2.398   2.318   0.819  0.7581 -0.3546 -0.7722
  312SOL    HW2  936   2.294   2.426   0.737  2.1311  0.7402  0.0971
  313SOL     OW  937   3.033   2.655   1.088 -0.5611  0.1159  0.2059
  313SOL    HW1  938   3.083   2.569   1.066  0.9626 -0.0317  0.5836
  313SOL    HW2  939   2.932   2.640   1.075  0.4486 -0.7392  0.4201
  314SOL     OW  940   1.224   2.084   1.339 -0.2839  0.1266  0.0747
  314SOL    HW1  941   1.321   2.114   1.363  1.0414  1.5783  0.2888
  314SOL    HW2  942   1.159   2.087   1.414  2.2733 -1.5277 -0.9375
  315SOL     OW  943   0.358   2.875   2.339  0.0686  0.1827  0.0441
  315SOL    HW1  944   0.398   2.959   2.292 -0.3026 -0.0514  0.2180
  315SOL    HW2  945   0.288   2.903   2.411 -0.3089 -1.1409  1.1243
  316SOL     OW  946   2.829   1.867   0.898 -0.5146  0.5076 -0.5564
  316SOL    HW1  947   2.909   1.814   0.849 -0.1698 -1.7863  1.0313
  316SOL    HW2  948   2.794   1.813   0.974 -1.1112 -0.4505 -0.3273
  317SOL     OW  949   1.805   0.060   0.326 -0.3912  0.2968  0.5865
  317SOL    HW1  950   1.746   0.139   0.356  0.2631  0.4715 -2.0866
  317SOL    HW2  951   1.903   0.067   0.346 -0.1058 -0.4496 -0.0951
  318SOL     OW  952   2.913   2.737   0.235  0.9296  0.0559  0.0592
  318SOL    HW1  953   2.857   2.729   0.151  2.1678  1.3743  0.7975
  318SOL    HW2  954   2.873   2.809   0.298 -0.5982  3.9148  1.4308
  319SOL     OW  955   1.339   1.562   0.144  0.4153  0.3985 -0.0210
  319SOL    HW1  956   1.385   1.586   0.231 -1.1038 -1.5674 -0.1448
  319SOL    HW2  957   1.383   1.613   0.065  1.2709  1.1628  0.8631
  320SOL     OW  958   0.582   2.887   2.746  0.2128  0.1725  0.1877
  320SOL    HW1  959   0.576   2.857   2.651 -1.2743  0.4039  1.4967
  320SOL    HW2  960   0.486   2.907   2.782 -4.2343  0.3884  2.9153
  321SOL     OW  961   0.958   0.093   0.177 -0.5834 -0.3976  0.5722
  321SOL    HW1  962   1.040   0.087   0.241  2.7774 -0.1324  1.0096
  321SOL    HW2  963   0.957   0.013   0.114 -2.7372  1.5031  0.3384
  322SOL     OW  964   2.403   1.056   1.862 -0.1868  0.5011  0.4076
  322SOL    HW1  965   2.341   1.024   1.935  0.6618 -1.0580 -2.8419
  322SOL    HW2  966   2.439   1.151   1.880  3.2317 -0.3343 -1.9707
  323SOL     OW  967   2.584   1.017   0.375  0.0230  0.0741  0.8149
  323SOL    HW1  968   2.570   0.919   0.360  0.3941  1.6970  1.1925
  323SOL    HW2  969   2.676   1.041   0.341 -0.3270 -0.9994 -0.1215
  324SOL     OW  970   0.066   0.517   2.642 -0.0523  0.3392 -0.1730
  324SOL    HW1  971   0.070   0.527   2.740  0.0865  2.0799 -3.2403
  324SOL    HW2  972   0.159   0.480   2.608  1.0001 -1.5879  2.1336
  325SOL     OW  973   1.346   2.837   2.060  0.0262  0.1818 -0.1190
  325SOL    HW1  974   1.394   2.825   1.972 -1.0422  1.1457 -0.3977
  325SOL    HW2  975   1.251   2.808   2.050  0.9608 -0.6327 -0.5125
  326SOL     OW  976   2.433   3.021   1.478  0.3817 -0.2385 -0.4732
  326SOL    HW1  977   2.416   0.012   1.528  1.2991  0.7273 -0.4097
  326SOL    HW2  978   2.520   3.037   1.427 -0.0630 -0.0937 -0.3642
  327SOL     OW  979   1.952   0.742   3.050 -0.3011 -0.0857 -0.0749
  327SOL    HW1  980   1.935   0.645   3.076 -1.7150  0.1072  0.0575
  327SOL    HW2  981   2.049   0.768   3.043 -2.7380 -0.9856  0.7338
  328SOL     OW  982   2.844   1.551   2.224 -0.2607  0.2944  0.5669
  328SOL    HW1  983   2.854   1.464   2.178  3.0895  0.7874  1.5070
  328SOL    HW2  984   2.910   1.557   2.301 -2.4165 -1.0787 -2.1744
  329SOL     OW  985   1.507   2.399   1.638 -0.0333 -1.1515  0.1636
  329SOL    HW1  986   1.552   2.449   1.717  0.7031 -1.4533  0.6718
  329SOL    HW2  987   1.535   2.447   1.551  1.3186  2.0710 -0.1766
  330SOL     OW  988   2.639   1.589   1.767  0.4095  0.1192 -0.0647
  330SOL    HW1  989   2.677   1.652   1.695 -1.0189 -0.4277 -1.2227
  330SOL    HW2  990   2.660   1.615   1.862 -0.0403 -1.4424  0.0925
  331SOL     OW  991   3.061   2.140   0.658 -0.0088  0.0023  0.4567
  331SOL    HW1  992   0.004   2.084   0.730 -3.3021  0.6808 -0.4229
  331SOL    HW2  993   0.035   2.162   0.588  1.9419 -0.2267 -0.8785
  332SOL     OW  994   0.468   0.219   0.593  0.5359 -0.1557 -0.3403
  332SOL    HW1  995   0.410   0.276   0.650 -0.4812 -1.8957  0.0435
  332SOL    HW2  996   0.481   0.132   0.644 -0.6022 -0.5920  2.7953
  333SOL     OW  997   2.031   2.969   2.338  0.1096  0.4406  0.0822
  333SOL    HW1  998   2.017   2.992   2.240 -0.4900 -1.0445 -3.1629
  333SOL    HW2  999   2.100   3.035   2.378 -0.0569 -0.3746  2.5553
  334SOL     OW 1000   1.091   1.304   1.063  0.6281 -0.7169  0.2213
  334SOL    HW1 1001   1.063   1.288   0.968  3.3333  1.4903  0.1532
  334SOL    HW2 1002   1.128   1.397   1.074 -1.9784 -1.8768 -0.4219
  335SOL     OW 1003   3.046   2.775   2.443 -0.3105  0.2580  0.3265
  335SOL    HW1 1004   0.029   2.716   2.428  2.2572  0.7269  3.3674
  335SOL    HW2 1005   3.079   2.845   2.506 -1.8545 -1.3112 -0.4081
  336SOL     OW 1006   2.947   2.704   2.043 -0.0727 -0.5563 -0.5448
  336SOL    HW1 1007   2.981   2.785   2.101 -2.8030 -0.0325 -0.0846
  336SOL    HW2 1008   2.971   2.713   1.945 -0.6526 -0.0289  1.6018
  337SOL     OW 1009   2.101   1.533   0.647 -0.4343  0.3586 -0.0394
  337SOL    HW1 1010   2.202   1.530   0.648  2.7251  1.4149  1.3603
  337SOL    HW2 1011   2.049   1.443   0.667 -0.5361 -1.0294 -0.2630
  338SOL     OW 1012   1.162   1.703   1.323  0.3502  0.1071  0.3124
  338SOL    HW1 1013   1.127   1.735   1.413  0.3696  0.4093 -1.9253
  338SOL    HW2 1014   1.265   1.697   1.325  0.6119 -2.2026 -0.8695
  339SOL     OW 1015   2.987   0.382   1.291  0.2048 -0.1305 -0.1326
  339SOL    HW1 1016   3.076   0.434   1.280  1.9192  0.4879 -3.0258
  339SOL    HW2 1017   2.904   0.436   1.304  1.3776  0.9161  1.6379
  340SOL     OW 1018   1.560   2.533   1.864 -0.0411  0.2849  0.0491
  340SOL    HW1 1019   1.549   2.509   1.962 -0.2630 -1.3404 -2.1662
  340SOL    HW2 1020   1.623   2.613   1.859 -0.0437 -0.2156  1.0481
  341SOL     OW 1021   2.258   1.366   0.852  0.4295  0.2292 -0.3037
  341SOL    HW1 1022   2.316   1.405   0.923 -0.4749 -0.8994  1.9058
  341SOL    HW2 1023   2.162   1.385   0.860  0.6468  0.1379 -0.7742
  342SOL     OW 1024   0.019   1.955   0.854 -0.5442 -0.3209  0.0571
  342SOL    HW1 1025   0.058   1.939   0.944  0.5371  0.0720  0.1843
  342SOL    HW2 1026   0.034   1.873   0.792 -1.2590  0.9639 -0.6975
  343SOL     OW 1027   2.437   0.847   1.321 -0.0643  0.1433  0.1011
  343SOL    HW1 1028   2.353   0.895   1.346 -2.1506 -0.1366  0.9473
  343SOL    HW2 1029   2.446   0.768   1.380  2.3850  1.5119 -0.4543
  344SOL     OW 1030   2.170   0.372   0.891 -0.1640 -0.2365  0.1445
  344SOL    HW1 1031   2.246   0.428   0.925  0.3907 -0.1583 -0.1522
  344SOL    HW2 1032   2.167   0.274   0.922  1.5496 -1.6585  0.3992
  345SOL     OW 1033   3.014   2.908   2.206 -0.3250 -0.0262  0.3064
  345SOL    HW1 1034   3.023   2.861   2.298 -1.1846  1.5989  0.8197
  345SOL    HW2 1035   2.943   2.984   2.216 -1.0317 -1.3518 -0.3687
  346SOL     OW 1036   3.058   1.229   0.379 -0.0730 -0.7688 -0.0049
  346SOL    HW1 1037   3.063   1.150   0.312 -1.7428  0.0496 -1.4588
  346SOL    HW2 1038   3.025   1.312   0.325 -0.5961 -1.2348 -2.7398
  347SOL     OW 1039   1.807   2.751   1.439 -0.1477 -0.4216 -0.2011
  347SOL    HW1 1040   1.832   2.785   1.533 -0.2052  2.7954 -0.3982
  347SOL    HW2 1041   1.732   2.684   1.449 -0.3391  0.2239 -3.1638
  348SOL     OW 1042   1.159   1.167   1.887 -0.1047 -0.2421 -0.4201
  348SOL    HW1 1043   1.193   1.221   1.966 -0.9929 -0.6437 -1.0570
  348SOL    HW2 1044   1.132   1.235   1.814  0.3814 -2.2412  2.3544
  349SOL     OW 1045   2.236   1.602   2.120  0.0673 -0.3597  0.4540
  349SOL    HW1 1046   2.247   1.549   2.208 -0.5990 -1.0997  2.6789
  349SOL    HW2 1047   2.257   1.699   2.136 -1.1691  0.4058  0.8075
  350SOL     OW 1048   2.837   2.071   0.503  0.0330  0.1890  0.0104
  350SOL    HW1 1049   2.741   2.056   0.534  0.4042  0.1548 -1.0828
  350SOL    HW2 1050   2.900   2.061   0.581 -0.0332  0.6265 -2.3984
  351SOL     OW 1051   0.393   0.316   1.790  0.2306  0.2063 -0.2082
  351SOL    HW1 1052   0.352   0.223   1.788 -1.8128 -0.1364  0.9934
  351SOL    HW2 1053   0.359   0.372   1.867  0.6462 -2.3447  2.6333
  352SOL     OW 1054   1.175   2.700   1.676  0.0018 -0.1938 -0.3327
  352SOL    HW1 1055   1.155   2.743   1.589  1.7587 -3.9092  2.0643
  352SOL    HW2 1056   1.239   2.756   1.731 -1.9044  0.6838  1.1590
  353SOL     OW 1057   0.734   1.290   2.724  0.7571 -0.4418 -0.1190
  353SOL    HW1 1058   0.826   1.297   2.680 -0.3779  0.4896 -1.8735
  353SOL    HW2 1059   0.660   1.302   2.653  1.1605  1.4177 -1.1331
  354SOL     OW 1060   1.419   1.681   0.379  0.0038 -0.0185 -0.6586
  354SOL    HW1 1061   1.497   1.709   0.435 -2.0687 -0.1944 -1.3069
  354SOL    HW2 1062   1.336   1.694   0.437 -0.5240 -0.9982  2.5153
  355SOL     OW 1063   1.907   0.119   0.875 -0.2169 -0.1307  0.0388
  355SOL    HW1 1064   1.822   0.118   0.926  3.3679  1.6944 -1.6738
  355SOL    HW2 1065   1.980   0.153   0.940 -2.0806 -2.1731  0.8611
  356SOL     OW 1066   0.101   1.440   3.073 -0.6709 -0.3839 -0.2333
  356SOL    HW1 1067   0.180   1.379   0.002 -1.2955 -1.3187 -2.2918
  356SOL    HW2 1068   0.014   1.386   3.081 -0.2449  1.5338  1.9811
  357SOL     OW 1069   0.347   2.976   1.851 -0.1517  0.1525  0.0401
  357SOL    HW1 1070   0.421   2.977   1.920 -2.8727  2.1536  0.0284
  357SOL    HW2 1071   0.287   3.061   1.864 -2.8735  0.2538  0.8779
  358SOL     OW 1072   0.373   1.213   2.942  1.0615 -0.7940  0.2067
  358SOL    HW1 1073   0.303   1.228   2.870  1.5715  1.0738  0.4267
  358SOL    HW2 1074   0.343   1.255   3.029  2.6335  0.2302 -0.1413
  359SOL     OW 1075   2.687   2.674   2.660 -0.3009 -0.1821 -0.0025
  359SOL    HW1 1076   2.603   2.620   2.680  0.7135  3.0717  0.6528
  359SOL    HW2 1077   2.697   2.698   2.561 -0.8023 -0.1562 -0.6116
  360SOL     OW 1078   1.590   1.139   0.929  0.1928  0.0291 -0.0720
  360SOL    HW1 1079   1.491   1.158   0.942 -1.1728 -0.5155  0.3064
  360SOL    HW2 1080   1.603   1.054   0.872 -0.7451  0.4483 -1.2424
  361SOL     OW 1081   2.126   2.455   1.031 -0.3309  0.5019  0.0612
  361SOL    HW1 1082   2.192   2.427   0.959 -1.6422 -1.1570  0.4672
  361SOL    HW2 1083   2.121   2.556   1.040 -1.7239 -3.2987 -3.4175
  362SOL     OW 1084   1.986   1.468   1.002 -0.3127  0.4429  0.2778
  362SOL    HW1 1085   1.993   1.566   0.970 -0.6546  0.3544  1.9901
  362SOL    HW2 1086   1.899   1.430   0.973 -0.5841  1.0935  0.8842
  363SOL     OW 1087   2.380   2.249   0.221 -0.2281  0.4713 -0.0064
  363SOL    HW1 1088   2.332   2.173   0.268 -0.8148  1.4574 -1.2829
  363SOL    HW2 1089   2.465   2.214   0.177  0.7103 -4.4327 -3.1552
  364SOL     OW 1090   2.664   3.062   1.336 -0.3565  0.4311 -0.1993
  364SOL    HW1 1091   2.677   0.069   1.345  2.2538  1.8591 -0.6561
  364SOL    HW2 1092   2.756   3.014   1.319  3.5404 -0.3949  1.7852
  365SOL     OW 1093   0.783   2.863   1.160 -0.3476 -0.0970 -0.4277
  365SOL    HW1 1094   0.795   2.834   1.061 -3.4064 -0.5595  1.1162
  365SOL    HW2 1095   0.833   2.802   1.226  2.0867 -1.9241  0.8498
  366SOL     OW 1096   3.043   1.761   0.408  0.2801  0.7665  0.2690
  366SOL    HW1 1097   3.007   1.850   0.378 -0.3409 -2.2026  0.9711
  366SOL    HW2 1098   3.064   1.699   0.326  1.0676 -0.2686  0.9417
  367SOL     OW 1099   2.435   2.581   2.724 -0.0448 -0.1522  0.3889
  367SOL    HW1 1100   2.359   2.641   2.683 -0.7185  0.1899 -1.0087
  367SOL    HW2 1101   2.397   2.487   2.750  0.0179 -0.9540  0.9692
  368SOL     OW 1102   2.497   2.179   0.831 -0.0743 -0.3094 -0.6062
  368SOL    HW1 1103   2.430   2.122   0.882 -0.0676  1.3036  1.4191
  368SOL    HW2 1104   2.589   2.161   0.875 -0.1972 -1.1506 -0.2305
  369SOL     OW 1105   1.010   1.038   0.606  0.5346 -0.2866 -0.2025
  369SOL    HW1 1106   0.986   0.948   0.646 -2.8024  0.7741  0.8211
  369SOL    HW2 1107   1.049   1.031   0.512 -1.0722 -1.8836 -1.9886
  370SOL     OW 1108   0.476   3.096   0.772  0.4534  0.0812 -0.0612
  370SOL    HW1 1109   0.576   0.012   0.792  0.1305  1.1241  3.8463
  370SOL    HW2 1110   0.452   2.998   0.763  1.5125 -2.1835 -2.8518
  371SOL     OW 1111   2.644   1.261   2.648  0.1797  0.2621 -0.5098
  371SOL    HW1 1112   2.671   1.268   2.551 -0.3727 -0.7212 -1.3235
  371SOL    HW2 1113   2.582   1.180   2.649  1.5953 -1.8253 -0.2808
  372SOL     OW 1114   0.761   0.574   2.466 -0.0848  0.1694 -0.5369
  372SOL    HW1 1115   0.698   0.621   2.402 -0.7602  2.7016 -2.1633
  372SOL    HW2 1116   0.718   0.495   2.512  1.2086 -1.5336  4.1247
  373SOL     OW 1117   0.651   0.474   2.881 -0.6334 -0.2982  0.1056
  373SOL    HW1 1118   0.740   0.491   2.841 -2.1148  1.6919 -0.7512
  373SOL    HW2 1119   0.646   0.374   2.904  1.2213  0.2349  0.6549
  374SOL     OW 1120   0.811   2.098   0.161 -0.1503  0.0723  0.2231
  374SOL    HW1 1121   0.860   2.043   0.089  0.4353 -2.3608 -2.6947
  374SOL    HW2 1122   0.729   2.047   0.192  1.0316  1.0780 -1.2563
  375SOL     OW 1123   0.725   0.078   0.807 -0.3910 -0.2666  0.2458
  375SOL    HW1 1124   0.776   0.075   0.893  1.5134  3.9124 -3.1614
  375SOL    HW2 1125   0.751   0.162   0.754 -1.6955  0.9997  2.0768
  376SOL     OW 1126   0.281   2.538   1.830  0.1642  0.3805  0.0969
  376SOL    HW1 1127   0.243   2.556   1.924 -1.3836 -1.4342  0.5887
  376SOL    HW2 1128   0.351   2.609   1.808 -0.8954  0.1236 -0.0340
  377SOL     OW 1129   2.653   2.034   3.006 -0.2040 -0.3644 -0.3374
  377SOL    HW1 1130   2.553   2.044   3.009  0.8977 -0.6338  0.1325
  377SOL    HW2 1131   2.679   1.939   3.033 -3.9222  0.3795  0.6003
  378SOL     OW 1132   1.933   0.264   0.559  0.1615  0.3896 -0.4304
  378SOL    HW1 1133   1.991   0.345   0.585 -1.3276 -0.5282 -0.2112
  378SOL    HW2 1134   1.966   0.178   0.601  2.0416  1.1102 -0.9781
  379SOL     OW 1135   1.254   1.040   0.749  0.3115  0.6613  0.0470
  379SOL    HW1 1136   1.160   1.011   0.725  0.1863  0.9885  0.4940
  379SOL    HW2 1137   1.323   1.030   0.675  3.5151  0.7290 -0.3744
  380SOL     OW 1138   2.511   2.117   1.826  0.0494  0.0354 -0.4599
  380SOL    HW1 1139   2.569   2.043   1.860 -1.1814  3.1617 -1.6120
  380SOL    HW2 1140   2.563   2.205   1.841  1.0996 -0.8288 -0.3177
  381SOL     OW 1141   2.876   1.284   2.161  0.3632 -0.3691 -0.4444
  381SOL    HW1 1142   2.921   1.226   2.234 -0.0949  1.6879 -0.8932
  381SOL    HW2 1143   2.895   1.244   2.070  0.9968 -1.1692 -1.6779
  382SOL     OW 1144   2.846   2.323   0.189  0.4267 -0.0672  0.3359
  382SOL    HW1 1145   2.927   2.262   0.197 -0.9015 -1.1686  0.4406
  382SOL    HW2 1146   2.840   2.390   0.267 -0.3587  2.1909  0.1459
  383SOL     OW 1147   1.368   0.907   2.290  0.1142 -0.0833  0.3436
  383SOL    HW1 1148   1.290   0.920   2.230  0.7806  3.4711 -1.2651
  383SOL    HW2 1149   1.341   0.916   2.389  0.7706 -1.5564 -0.5028
  384SOL     OW 1150   1.120   2.170   2.476  0.1737  0.3977  0.1017
  384SOL    HW1 1151   1.159   2.134   2.390 -0.4939 -0.0318 -1.7895
  384SOL    HW2 1152   1.078   2.261   2.466  1.6066 -0.1080  1.1415
  385SOL     OW 1153   2.316   2.356   2.995 -0.2561 -0.6848 -0.5569
  385SOL    HW1 1154   2.256   2.387   2.919 -0.0925  1.9995 -0.5631
  385SOL    HW2 1155   2.296   2.403   3.086 -0.4356  1.1248 -0.0630
  386SOL     OW 1156   1.497   1.320   0.557 -0.0987  0.3640 -0.3488
  386SOL    HW1 1157   1.430   1.373   0.610  0.0340  0.0452  1.9089
  386SOL    HW2 1158   1.478   1.217   0.558  0.5470 -0.8199 -0.4071
  387SOL     OW 1159   2.910   1.488   1.413  0.3881  0.0017  0.4277
  387SOL    HW1 1160   2.906   1.476   1.518  0.6216  1.0058  2.2116
  387SOL    HW2 1161   2.929   1.402   1.363  0.3567 -0.1435 -0.9800
  388SOL     OW 1162   0.581   1.100   1.611 -0.7441  0.1882  0.1694
  388SOL    HW1 1163   0.636   1.160   1.550  2.8814  0.8417 -0.2663
  388SOL    HW2 1164   0.508   1.062   1.555  0.9747  1.2052 -1.6499
  389SOL     OW 1165   2.232   0.987   2.062  0.0096 -0.6986  0.4099
  389SOL    HW1 1166   2.271   0.906   2.107  0.2098 -0.1152 -3.8407
  389SOL    HW2 1167   2.147   1.014   2.110  2.4062  1.1424 -2.2969
  390SOL     OW 1168   1.156   1.797   0.502  0.6205 -0.3926  0.6351
  390SOL    HW1 1169   1.099   1.851   0.569 -0.3149 -1.5523  2.1006
  390SOL    HW2 1170   1.158   1.700   0.532 -0.3666 -1.0583 -0.2676
  391SOL     OW 1171   0.977   1.869   0.725 -0.1786 -0.2018 -0.0570
  391SOL    HW1 1172   1.042   1.796   0.764 -1.5194 -1.1258  0.0942
  391SOL    HW2 1173   0.884   1.859   0.766 -1.2012 -0.5845 -1.8127
  392SOL     OW 1174   2.665   2.711   2.074 -0.2523  0.3955 -0.2937
  392SOL    HW1 1175   2.636   2.649   2.155  1.4549 -3.2581  1.8091
  392SOL    HW2 1176   2.767   2.694   2.064  1.9535 -1.2077  2.1102
  393SOL     OW 1177   1.196   2.281   3.030 -0.4313 -0.1983  0.0451
  393SOL    HW1 1178   1.267   2.248   2.967 -2.4602  1.7678  1.3290
  393SOL    HW2 1179   1.200   2.381   3.029 -0.0435  1.8730 -0.6655
  394SOL     OW 1180   0.355   0.354   2.304  0.0344  0.1612 -0.2999
  394SOL    HW1 1181   0.391   0.439   2.264 -0.9017  1.0764  0.8433
  394SOL    HW2 1182   0.388   0.272   2.259 -4.5235  3.0541 -3.2747
  395SOL     OW 1183   0.082   0.864   1.177 -0.0788 -0.1837 -0.2321
  395SOL    HW1 1184   0.153   0.937   1.171  1.8004 -3.3363  1.0818
  395SOL    HW2 1185   0.110   0.792   1.116 -4.6276  2.5613  1.6521
  396SOL     OW 1186   2.198   1.502   2.644  0.3292 -0.4193 -0.1051
  396SOL    HW1 1187   2.129   1.427   2.652 -0.6029 -1.0001  0.4669
  396SOL    HW2 1188   2.153   1.590   2.676  0.5516  0.1047  2.1398
  397SOL     OW 1189   0.285   0.863   2.959 -0.1285 -0.0858 -0.2011
  397SOL    HW1 1190   0.354   0.897   3.025 -0.8556  0.2038 -1.3649
  397SOL    HW2 1191   0.329   0.875   2.865  0.1106  1.8532 -1.2001
  398SOL     OW 1192   1.036   2.578   0.555  0.0786  0.6392 -0.2373
  398SOL    HW1 1193   1.136   2.558   0.577  1.3271 -3.1533  0.8966
  398SOL    HW2 1194   1.016   2.673   0.580  1.3752  0.0038 -1.7231
  399SOL     OW 1195   2.120   2.667   2.178  0.6937 -0.0935 -0.2165
  399SOL    HW1 1196   2.187   2.665   2.252 -2.0121 -1.3700  0.3108
  399SOL    HW2 1197   2.137   2.596   2.110 -1.4909  3.1762 -0.4034
  400SOL     OW 1198   0.182   1.444   1.747 -0.3160  0.2517 -0.3056
  400SOL    HW1 1199   0.156   1.408   1.839  0.9099 -1.8106  2.0938
  400SOL    HW2 1200   0.257   1.515   1.751 -0.9699  3.5554 -1.6462
  401SOL     OW 1201   0.712   1.002   0.809 -0.1138 -0.1869  0.0549
  401SOL    HW1 1202   0.618   0.963   0.820  0.0385 -2.2943  1.3449
  401SOL    HW2 1203   0.725   1.070   0.735 -1.0959 -0.2214 -1.0968
  402SOL     OW 1204   0.928   3.001   2.216 -0.3636  0.0521 -0.0893
  402SOL    HW1 1205   1.011   3.042   2.261  0.4685  1.9084  0.9403
  402SOL    HW2 1206   0.938   3.002   2.113 -0.1494  0.8581 -1.1950
  403SOL     OW 1207   2.658   1.888   1.843  0.5558  0.0055 -0.1962
  403SOL    HW1 1208   2.653   1.811   1.910 -2.0283  1.1668 -0.4954
  403SOL    HW2 1209   2.701   1.863   1.753 -0.0023 -2.5945 -1.5325
  404SOL     OW 1210   2.675   2.322   1.802  0.1239 -0.1829 -0.4269
  404SOL    HW1 1211   2.757   2.261   1.814  0.9684 -2.2052  0.7744
  404SOL    HW2 1212   2.692   2.382   1.720 -0.0749 -1.1445  1.9600
  405SOL     OW 1213   1.997   0.002   2.779  0.2549 -0.5858 -0.0391
  405SOL    HW1 1214   2.008   2.996   2.772 -2.2950 -1.7095 -1.1445
  405SOL    HW2 1215   1.923   0.030   2.717 -0.9424 -2.2446 -2.0108
  406SOL     OW 1216   1.033   1.803   0.259 -0.7411 -0.0391 -0.0281
  406SOL    HW1 1217   1.121   1.843   0.223 -1.9241  3.1724 -0.2776
  406SOL    HW2 1218   1.045   1.759   0.353  0.6423  2.6076 -1.3467
  407SOL     OW 1219   1.541   1.357   0.299  0.2768  0.0827 -0.5376
  407SOL    HW1 1220   1.452   1.395   0.267 -0.1702 -2.6325  0.5689
  407SOL    HW2 1221   1.537   1.341   0.403 -0.3320  1.1194  1.7169
  408SOL     OW 1222   0.364   0.595   1.678 -0.7062 -0.2890  0.0625
  408SOL    HW1 1223   0.365   0.504   1.722 -1.5312 -0.7840 -0.0415
  408SOL    HW2 1224   0.433   0.658   1.721  1.6814  2.0826  0.3398
  409SOL     OW 1225   2.701   1.380   3.053 -0.2189 -0.0508 -0.3460
  409SOL    HW1 1226   2.601   1.366   3.040  1.5805  4.1107 -3.0858
  409SOL    HW2 1227   2.722   1.477   3.070  2.4408  0.8674 -0.8102
  410SOL     OW 1228   2.828   2.780   0.707  0.0224 -0.1366  0.3857
  410SOL    HW1 1229   2.858   2.832   0.789  0.2045  0.4275 -1.4463
  410SOL    HW2 1230   2.803   2.681   0.730  0.4756 -1.9125 -0.4302
  411SOL     OW 1231   0.343   0.545   0.524 -1.1951  0.2105  0.0177
  411SOL    HW1 1232   0.435   0.563   0.566 -3.2850  1.0803  0.4066
  411SOL    HW2 1233   0.328   0.457   0.480  0.8850  0.2723  2.4914
  412SOL     OW 1234   1.316   2.829   0.595  0.2554 -0.2289  0.0009
  412SOL    HW1 1235   1.271   2.872   0.510 -0.2033  0.4632 -3.2531
  412SOL    HW2 1236   1.303   2.728   0.600  0.9343  2.1805 -0.6264
  413SOL     OW 1237   1.876   0.552   2.072  0.2252 -0.3206  0.2927
  413SOL    HW1 1238   1.899   0.456   2.048  0.1914 -0.3062  0.5635
  413SOL    HW2 1239   1.783   0.584   2.036  1.2921 -0.6114 -2.0908
  414SOL     OW 1240   3.091   0.750   0.702 -0.2899  0.4475  0.5491
  414SOL    HW1 1241   2.999   0.770   0.663  1.3799 -0.4450 -1.2774
  414SOL    HW2 1242   0.025   0.838   0.742 -0.3103 -0.2074 -0.7075
  415SOL     OW 1243   2.941   0.966   0.437  0.6556  0.8922 -0.5268
  415SOL    HW1 1244   2.890   0.995   0.352 -0.6400  0.7657 -2.1612
  415SOL    HW2 1245   2.981   1.051   0.474 -1.1105  2.8511 -0.3836
  416SOL     OW 1246   2.461   0.546   2.732  0.2607 -0.3101  0.2630
  416SOL    HW1 1247   2.443   0.555   2.626  1.5921  0.0903 -1.5888
  416SOL    HW2 1248   2.557   0.578   2.751  2.9785 -0.0828  1.3748
  417SOL     OW 1249   2.371   0.206   0.630 -0.1170  0.0750 -0.4180
  417SOL    HW1 1250   2.380   0.129   0.556 -1.8716 -0.2824 -4.7540
  417SOL    HW2 1251   2.383   0.295   0.587  1.7287 -0.5762  1.0021
  418SOL     OW 1252   0.480   0.169   0.026  0.3542  0.3048 -0.5812
  418SOL    HW1 1253   0.541   0.235   0.078  2.6371  3.6263  1.1346
  418SOL    HW2 1254   0.386   0.177   0.068 -0.0093  0.7372  1.7818
  419SOL     OW 1255   0.433   0.648   1.116  0.3176 -0.2418 -0.0316
  419SOL    HW1 1256   0.500   0.667   1.183 -0.5055 -0.3737 -1.5714
  419SOL    HW2 1257   0.471   0.581   1.046  0.9016 -0.5120  0.8755
  420SOL     OW 1258   2.924   0.807   1.216 -0.3718 -0.4328 -0.0521
  420SOL    HW1 1259   3.025   0.813   1.213  1.5626 -0.7403 -0.1439
  420SOL    HW2 1260   2.881   0.889   1.172 -1.2317  0.5825 -1.2469
  421SOL     OW 1261   0.688   1.728   3.054  0.0881  0.3632 -0.1034
  421SOL    HW1 1262   0.613   1.674   3.015 -0.5363 -0.8521  0.3264
  421SOL    HW2 1263   0.648   1.822   3.082  0.7827 -1.0057 -0.0966
  422SOL     OW 1264   2.478   0.273   2.241  0.3809 -0.1345 -0.5579
  422SOL    HW1 1265   2.550   0.334   2.203  0.9001 -0.2038 -0.5313
  422SOL    HW2 1266   2.397   0.275   2.183  1.8277 -2.3771  0.6167
  423SOL     OW 1267   1.887   1.416   3.096  0.5065  0.0682 -0.2185
  423SOL    HW1 1268   1.951   1.471   3.036 -0.7148  0.9805  0.8468
  423SOL    HW2 1269   1.788   1.410   3.059  0.5490 -1.8940 -0.3394
  424SOL     OW 1270   1.258   1.321   2.103  0.0746  0.0014  0.3351
  424SOL    HW1 1271   1.167   1.369   2.118  2.7804  1.0430  1.4164
  424SOL    HW2 1272   1.305   1.317   2.187 -2.3053  0.9739 -1.4773
  425SOL     OW 1273   0.118   2.514   2.062 -0.3686 -0.9444  0.2909
  425SOL    HW1 1274   0.186   2.537   2.136  0.2328 -0.4471  0.5655
  425SOL    HW2 1275   0.028   2.543   2.082  2.5375  0.0236 -0.9177
  426SOL     OW 1276   2.384   2.745   0.584 -0.1015 -0.0138 -0.4771
  426SOL    HW1 1277   2.292   2.717   0.550 -0.1572  2.6059  0.9380
  426SOL    HW2 1278   2.387   2.741   0.685  0.4541 -1.3838 -1.9298
  427SOL     OW 1279   0.528   0.839   2.623 -0.6519 -0.0355  0.3814
  427SOL    HW1 1280   0.462   0.907   2.647  2.9591 -4.7550  1.2483
  427SOL    HW2 1281   0.621   0.865   2.651 -0.6449  2.3881 -0.6800
  428SOL     OW 1282   2.922   1.485   2.535  0.5708  0.2081 -0.3570
  428SOL    HW1 1283   2.936   1.383   2.522  0.9357 -1.5321  1.9697
  428SOL    HW2 1284   2.827   1.524   2.530  2.4044  3.0087 -0.4643
  429SOL     OW 1285   2.281   0.414   0.425  0.2553 -0.0623 -0.0724
  429SOL    HW1 1286   2.211   0.396   0.353 -0.2426  1.1208 -0.8465
  429SOL    HW2 1287   2.367   0.379   0.387 -1.0119  1.6925  0.7920
  430SOL     OW 1288   1.568   2.089   2.524  0.5315  0.0587 -0.0649
  430SOL    HW1 1289   1.634   2.059   2.448 -1.4188  1.7930  0.7001
  430SOL    HW2 1290   1.508   2.020   2.563  0.6298  0.3256  0.1956
  431SOL     OW 1291   0.061   1.841   1.741 -0.3148 -0.0037 -0.0605
  431SOL    HW1 1292   3.095   1.792   1.803 -0.6987  1.3580 -0.0477
  431SOL    HW2 1293   0.142   1.784   1.720 -0.7625  0.5577  2.6885
  432SOL     OW 1294   1.481   2.167   2.045  0.4571  0.8157 -0.0751
  432SOL    HW1 1295   1.570   2.120   2.026 -0.9669 -0.5661  0.8863
  432SOL    HW2 1296   1.434   2.192   1.961 -1.3307  1.6756  0.6122
  433SOL     OW 1297   0.960   2.175   0.379 -0.2834  0.6988 -0.0032
  433SOL    HW1 1298   1.059   2.202   0.368  1.4969  0.1751 -2.5900
  433SOL    HW2 1299   0.909   2.144   0.294  0.9459 -1.5321 -1.1112
  434SOL     OW 1300   0.295   2.250   2.431 -0.4320  0.5402  0.1671
  434SOL    HW1 1301   0.309   2.317   2.355 -0.0829  0.7445  1.3477
  434SOL    HW2 1302   0.293   2.298   2.526 -0.9055 -0.5133  2.5961
  435SOL     OW 1303   0.308   1.230   0.358  0.2186 -0.4097  0.2725
  435SOL    HW1 1304   0.227   1.270   0.402 -3.1184 -0.0898  1.7712
  435SOL    HW2 1305   0.383   1.219   0.430  0.5127 -0.7725  0.6210
  436SOL     OW 1306   0.445   2.737   1.758  0.4192  0.3571  0.3389
  436SOL    HW1 1307   0.407   2.831   1.759  1.2046 -1.1218  1.0432
  436SOL    HW2 1308   0.471   2.704   1.661  0.9173 -0.6364 -1.3884
  437SOL     OW 1309   0.949   0.327   0.450  0.4152  0.0883 -0.4613
  437SOL    HW1 1310   0.972   0.384   0.366  0.0842  0.6058 -3.3462
  437SOL    HW2 1311   0.870   0.264   0.434  1.9109 -2.6297  1.4099
  438SOL     OW 1312   0.690   2.261   0.459 -0.1088 -0.4174  0.0391
  438SOL    HW1 1313   0.786   2.242   0.448 -2.3700 -2.3740  2.1920
  438SOL    HW2 1314   0.675   2.364   0.468  3.7230  1.7010 -1.1279
  439SOL     OW 1315   0.519   2.607   1.531 -0.3988 -0.2598 -0.0919
  439SOL    HW1 1316   0.505   2.514   1.500  0.4425  1.8446 -0.8334
  439SOL    HW2 1317   0.543   2.662   1.448 -0.4413 -0.5355  1.2358
  440SOL     OW 1318   1.887   2.841   1.705 -0.1173  0.6218 -0.3570
  440SOL    HW1 1319   1.856   2.769   1.771  1.1981 -0.7563  0.1265
  440SOL    HW2 1320   1.986   2.871   1.717 -0.4590  1.8559 -0.7022
  441SOL     OW 1321   2.592   0.477   1.831  0.2402 -0.1324 -0.2534
  441SOL    HW1 1322   2.652   0.404   1.872  1.9032 -0.2573  0.7355
  441SOL    HW2 1323   2.653   0.533   1.768  0.1818 -0.3490 -0.1982
  442SOL     OW 1324   1.887   2.238   0.811 -0.5608 -0.0157  0.0176
  442SOL    HW1 1325   1.911   2.334   0.838 -0.5399 -0.8195  1.9711
  442SOL    HW2 1326   1.921   2.220   0.717  0.3244 -0.2741  1.5997
  443SOL     OW 1327   2.615   0.633   2.258 -0.4216 -0.9731  0.5032
  443SOL    HW1 1328   2.651   0.539   2.244 -0.4639  0.8231  3.7905
  443SOL    HW2 1329   2.649   0.698   2.183  0.5520  0.7466 -1.1221
  444SOL     OW 1330   1.995   1.003   1.846  0.2523 -0.0125  0.4865
  444SOL    HW1 1331   1.902   1.041   1.845 -0.0882 -0.6189 -0.3566
  444SOL    HW2 1332   2.007   0.918   1.900 -0.0242 -0.1149  2.0787
  445SOL     OW 1333   2.845   2.384   1.247 -0.3464 -0.0553 -0.1982
  445SOL    HW1 1334   2.757   2.361   1.293 -1.8924  1.4317  0.2769
  445SOL    HW2 1335   2.827   2.460   1.178 -0.5694  2.2630 -1.6804
  446SOL     OW 1336   2.834   1.490   0.726  0.1231 -0.1459 -0.2148
  446SOL    HW1 1337   2.836   1.418   0.652 -1.5282  0.2243 -0.0342
  446SOL    HW2 1338   2.926   1.518   0.765  0.4436  0.8296  2.4541
  447SOL     OW 1339   0.409   1.115   0.854  0.5624  0.2804 -0.9226
  447SOL    HW1 1340   0.434   1.148   0.949 -0.5153 -0.5214  2.3726
  447SOL    HW2 1341   0.445   1.022   0.836  0.4890  0.3040 -2.0481
  448SOL     OW 1342   1.486   1.144   1.602 -0.1652 -0.1647 -0.3767
  448SOL    HW1 1343   1.464   1.131   1.698  2.7377  2.3161 -0.5667
  448SOL    HW2 1344   1.522   1.234   1.581  0.9392 -1.0915 -2.6427
  449SOL     OW 1345   1.158   1.124   0.099  0.2154  0.4742 -0.2756
  449SOL    HW1 1346   1.211   1.053   0.045  2.3378 -2.4068  1.3775
  449SOL    HW2 1347   1.064   1.140   0.056 -2.6952  0.5290 -1.2665
  450SOL     OW 1348   2.509   2.321   2.229  0.4534 -0.3244  0.2704
  450SOL    HW1 1349   2.516   2.422   2.251 -1.4831  2.4356 -0.2321
  450SOL    HW2 1350   2.601   2.280   2.209 -0.7068 -0.7157 -1.3647
  451SOL     OW 1351   1.933   2.752   2.430  0.1088 -0.2259 -0.2276
  451SOL    HW1 1352   1.920   2.780   2.526  1.1931  1.6114 -1.0523
  451SOL    HW2 1353   1.975   2.835   2.386  2.3605 -0.2641  0.9320
  452SOL     OW 1354   1.354   2.849   1.436 -0.1079  0.1973  0.6440
  452SOL    HW1 1355   1.272   2.912   1.428 -1.5698  0.2262  0.5573
  452SOL    HW2 1356   1.344   2.778   1.367  2.2147  1.5527  1.5327
  453SOL     OW 1357   1.638   0.859   1.177 -0.1849  0.8491  0.1409
  453SOL    HW1 1358   1.728   0.870   1.136 -0.2950  1.9929  0.6684
  453SOL    HW2 1359   1.588   0.945   1.197 -1.4266 -0.9246  0.0143
  454SOL     OW 1360   0.384   1.402   0.948 -0.6551  0.3944  0.3977
  454SOL    HW1 1361   0.340   1.313   0.931 -0.4590  1.0447  3.4106
  454SOL    HW2 1362   0.426   1.440   0.863  0.0887  1.3492  1.7173
  455SOL     OW 1363   2.564   3.070   0.300  0.6028  0.3160 -0.1186
  455SOL    HW1 1364   2.547   3.039   0.204  2.0760  0.3745 -2.1638
  455SOL    HW2 1365   2.643   3.020   0.333  1.8244  1.1656 -0.7138
  456SOL     OW 1366   2.776   2.560   1.045  0.6132  0.0682  0.4352
  456SOL    HW1 1367   2.673   2.581   1.061 -3.2045 -0.1585  1.1001
  456SOL    HW2 1368   2.786   2.554   0.943 -1.0083  1.5071 -0.5606
  457SOL     OW 1369   1.118   0.087   0.427 -0.3163  0.3153  0.1835
  457SOL    HW1 1370   1.131   0.062   0.521 -0.4535  0.6281 -1.7183
  457SOL    HW2 1371   1.064   0.171   0.426  1.5234 -1.1992 -0.8458
  458SOL     OW 1372   2.569   0.743   0.361  0.3684 -0.3605 -0.5494
  458SOL    HW1 1373   2.568   0.696   0.453  0.0731  1.1701  1.6905
  458SOL    HW2 1374   2.491   0.716   0.301  1.4946 -1.9871  0.8815
  459SOL     OW 1375   2.041   0.432   2.603  0.2486 -0.2408  0.1590
  459SOL    HW1 1376   2.011   0.352   2.543 -1.4248 -0.4935 -0.3336
  459SOL    HW2 1377   2.142   0.428   2.623  1.1826  1.4051 -0.4789
  460SOL     OW 1378   2.667   0.029   2.848 -0.1999 -0.1279 -0.0240
  460SOL    HW1 1379   2.719   3.041   2.847  1.2315  0.3380 -0.8543
  460SOL    HW2 1380   2.568   0.009   2.832 -0.2893  0.9466 -1.5119
  461SOL     OW 1381   1.133   1.678   0.825 -0.3698 -0.3986  0.3209
  461SOL    HW1 1382   1.148   1.619   0.906  0.6345 -0.5506  0.9579
  461SOL    HW2 1383   1.126   1.624   0.744 -1.1338  2.9990  2.2596
  462SOL     OW 1384   2.584   2.745   1.471  0.0424  0.4597 -0.3411
  462SOL    HW1 1385   2.686   2.765   1.452  0.2853 -0.9567 -3.9479
  462SOL    HW2 1386   2.523   2.830   1.466  1.6637  5.5172 -3.2658
  463SOL     OW 1387   2.468   0.981   0.630 -0.0387 -0.2580  0.3251
  463SOL    HW1 1388   2.513   0.994   0.538 -0.9816 -0.0444 -0.3379
  463SOL    HW2 1389   2.533   0.997   0.705 -0.4216  1.0759  0.9346
  464SOL     OW 1390   0.412   2.547   1.084  0.1468  0.2364 -0.3721
  464SOL    HW1 1391   0.352   2.547   0.997  2.4244 -0.3910 -2.3517
  464SOL    HW2 1392   0.354   2.551   1.163  2.1819  1.1995 -3.7655
  465SOL     OW 1393   0.058   1.659   0.141 -0.2183  0.0490  0.6181
  465SOL    HW1 1394   0.083   1.583   0.082  0.5537  0.4057  1.8631
  465SOL    HW2 1395   3.068   1.701   0.104 -1.8865  2.8429 -0.5340
  466SOL     OW 1396   1.651   0.352   2.823  0.0153 -0.5312 -0.4325
  466SOL    HW1 1397   1.574   0.421   2.836 -3.9087 -0.8427  1.8373
  466SOL    HW2 1398   1.707   0.352   2.908  0.2634  5.9311  0.5394
  467SOL     OW 1399   1.153   0.689   1.973  0.2276  0.0555  0.3540
  467SOL    HW1 1400   1.209   0.603   1.984 -2.0044 -1.3077 -1.6549
  467SOL    HW2 1401   1.174   0.771   2.031 -0.4860  0.6111  1.5720
  468SOL     OW 1402   0.662   1.109   2.462 -0.3073 -0.3170 -0.5079
  468SOL    HW1 1403   0.589   1.050   2.437  0.8386  1.9270 -1.1721
  468SOL    HW2 1404   0.635   1.206   2.451  0.3339 -2.2433  0.0742
  469SOL     OW 1405   0.112   2.114   3.057 -0.0870  0.1387 -0.0948
  469SOL    HW1 1406   0.044   2.059   3.006  3.2669  1.1728 -1.2746
  469SOL    HW2 1407   0.073   2.160   0.045  0.6059  0.9809  3.7907
  470SOL     OW 1408   2.496   1.719   2.831  0.0574  0.0957 -0.8166
  470SOL    HW1 1409   2.492   1.621   2.821 -1.0441  2.6171  1.6699
  470SOL    HW2 1410   2.508   1.744   2.927 -1.3348 -2.5216 -4.1392
  471SOL     OW 1411   2.209   0.544   2.309 -0.8268 -0.0150 -0.4965
  471SOL    HW1 1412   2.232   0.617   2.240 -1.3829  1.6785 -1.5901
  471SOL    HW2 1413   2.143   0.585   2.373 -0.3458  0.5240  0.9912
  472SOL     OW 1414   0.625   2.372   1.071 -0.3929 -0.0672 -0.2746
  472SOL    HW1 1415   0.707   2.412   1.113  2.3371  0.1147 -4.0457
  472SOL    HW2 1416   0.540   2.424   1.095 -2.4737 -1.1584  0.8631
  473SOL     OW 1417   0.561   0.033   2.415  0.0421 -0.7942  0.3495
  473SOL    HW1 1418   0.626   3.097   2.486 -1.2023  1.9903  0.7247
  473SOL    HW2 1419   0.614   0.093   2.349  0.4748 -0.3349  0.0768
  474SOL     OW 1420   1.718   3.038   1.931 -0.5651 -0.2680  0.0942
  474SOL    HW1 1421   1.680   3.067   1.841 -0.3008 -1.4821  3.5458
  474SOL    HW2 1422   1.660   3.078   2.006  0.4954  1.2395 -2.8445
  475SOL     OW 1423   1.725   2.590   0.658  0.1526  0.5355  0.2772
  475SOL    HW1 1424   1.816   2.556   0.689  2.7554  1.5947  0.6630
  475SOL    HW2 1425   1.650   2.524   0.648 -1.6282 -1.3069  2.6618
  476SOL     OW 1426   0.167   0.651   1.026 -0.2859 -0.1323 -0.6372
  476SOL    HW1 1427   0.144   0.583   0.955 -1.7700  0.6667 -1.6949
  476SOL    HW2 1428   0.265   0.655   1.056 -1.3493 -2.7653 -1.0623
  477SOL     OW 1429   1.308   2.220   0.628  0.2637 -0.4317 -0.0502
  477SOL    HW1 1430   1.334   2.137   0.576 -0.5908  0.4206 -1.4173
  477SOL    HW2 1431   1.211   2.218   0.652 -0.4176 -2.3914  2.5465
  478SOL     OW 1432   0.170   2.633   2.431  0.7067  0.6057 -0.2180
  478SOL    HW1 1433   0.210   2.575   2.503 -1.0350  0.1874  0.3631
  478SOL    HW2 1434   0.223   2.645   2.345 -1.1729  1.5217  3.1247
  479SOL     OW 1435   2.636   0.432   1.046 -0.0745 -0.1409  0.1977
  479SOL    HW1 1436   2.734   0.454   1.032  0.6099 -0.1642  2.9687
  479SOL    HW2 1437   2.615   0.430   1.146 -1.9746 -2.7700 -0.1619
  480SOL     OW 1438   0.101   3.071   0.188 -0.3848  0.1840  0.8498
  480SOL    HW1 1439   0.143   2.992   0.230  0.4363  3.9356 -0.3044
  480SOL    HW2 1440   0.019   3.096   0.237  1.6799 -0.5357 -1.5593
  481SOL     OW 1441   2.624   2.333   1.385  0.0415 -0.4067 -0.3961
  481SOL    HW1 1442   2.625   2.269   1.464  3.1522 -0.6110  2.9652
  481SOL    HW2 1443   2.551   2.406   1.385  0.3008  1.7199 -1.1256
  482SOL     OW 1444   1.089   2.605   2.698  0.4916 -0.6528  0.1553
  482SOL    HW1 1445   1.180   2.609   2.652 -1.8350 -0.6911  0.3621
  482SOL    HW2 1446   1.011   2.620   2.632 -0.4864 -0.2469 -1.3036
  483SOL     OW 1447   0.566   2.458   2.471  0.4649  0.2206 -0.0099
  483SOL    HW1 1448   0.599   2.412   2.561  2.1372  0.1193  3.6493
  483SOL    HW2 1449   0.602   2.407   2.391 -1.5326 -0.4794  0.8536
  484SOL     OW 1450   1.123   0.915   1.765  0.0873  0.0371  0.1292
  484SOL    HW1 1451   1.097   1.012   1.791 -0.6564  1.6745 -1.2316
  484SOL    HW2 1452   1.113   0.840   1.833 -0.7184  1.0050 -1.2695
  485SOL     OW 1453   2.459   1.075   2.744  0.8506 -0.0481 -0.4219
  485SOL    HW1 1454   2.421   0.985   2.703 -1.8278 -1.3873 -1.7333
  485SOL    HW2 1455   2.401   1.104   2.826 -0.4465 -3.2263 -1.8811
  486SOL     OW 1456   2.496   2.877   1.142 -0.3043  0.0032 -0.5372
  486SOL    HW1 1457   2.556   2.931   1.203 -0.7613 -0.8207 -0.5055
  486SOL    HW2 1458   2.526   2.876   1.046 -2.3293  0.8570  0.9046
  487SOL     OW 1459   0.492   1.890   1.662 -0.6397 -0.1224  0.2504
  487SOL    HW1 1460   0.531   1.831   1.587 -1.2916  3.4452 -4.4810
  487SOL    HW2 1461   0.406   1.934   1.630  0.7745  0.1653 -0.9154
  488SOL     OW 1462   2.429   1.350   3.051  0.1176  0.1630  0.0141
  488SOL    HW1 1463   2.347   1.380   0.007  1.5404 -0.0968 -1.3173
  488SOL    HW2 1464   2.410   1.366   2.952  1.9368  1.6760  0.2709
  489SOL     OW 1465   1.729   0.064   1.085 -0.0449 -0.0078  0.4132
  489SOL    HW1 1466   1.768   0.060   1.184  1.2740  3.3280  3.0878
  489SOL    HW2 1467   1.657   0.142   1.068 -1.6381  2.1224  0.6264
  490SOL     OW 1468   0.756   0.789   0.460 -0.2171 -0.2557  0.1094
  490SOL    HW1 1469   0.669   0.836   0.442  0.7454  1.6179  0.3217
  490SOL    HW2 1470   0.802   0.761   0.371  0.0267 -1.2443 -0.5031
  491SOL     OW 1471   0.651   2.310   0.815  0.1327 -0.6187 -0.5999
  491SOL    HW1 1472   0.744   2.337   0.790 -1.2092 -0.0277  3.2136
  491SOL    HW2 1473   0.647   2.327   0.916  1.4082  0.8289  0.6357
  492SOL     OW 1474   1.401   1.741   2.036 -0.3744 -0.5991  0.2470
  492SOL    HW1 1475   1.386   1.800   1.955  2.7761 -0.9450  0.4875
  492SOL    HW2 1476   1.407   1.646   2.005 -0.8737  0.6748 -0.4891
  493SOL     OW 1477   2.763   2.524   0.763 -0.4131  0.0902  0.4398
  493SOL    HW1 1478   2.832   2.452   0.786 -3.1638 -2.1495 -2.5546
  493SOL    HW2 1479   2.694   2.482   0.703  1.6237  0.1449  0.2882
  494SOL     OW 1480   2.633   2.169   0.149 -0.3005 -0.2242 -0.5538
  494SOL    HW1 1481   2.645   2.138   0.051 -0.3799  0.3382  0.7723
  494SOL    HW2 1482   2.708   2.232   0.175 -0.0898  0.4088  1.0793
  495SOL     OW 1483   2.797   2.403   3.025 -0.0996  0.3120  0.1745
  495SOL    HW1 1484   2.830   2.362   2.940 -0.7017 -1.2038  0.2151
  495SOL    HW2 1485   2.821   2.344   0.008  0.5568  1.5779  0.9447
  496SOL     OW 1486   2.655   0.137   1.682  0.0183  0.5221 -0.2802
  496SOL    HW1 1487   2.561   0.169   1.674 -0.4016  0.2493 -1.5569
  496SOL    HW2 1488   2.655   0.037   1.706 -1.1711  0.0980 -1.7058
  497SOL     OW 1489   2.985   1.261   0.005 -0.3800  0.9003  0.0783
  497SOL    HW1 1490   3.066   1.205   3.065  0.8281  1.7512 -0.2627
  497SOL    HW2 1491   2.901   1.246   3.051 -1.3184 -1.2401 -1.8327
  498SOL     OW 1492   2.998   1.706   1.902 -0.0611  0.5791 -0.5317
  498SOL    HW1 1493   2.940   1.785   1.929  1.5170 -0.2401  1.4452
  498SOL    HW2 1494   3.046   1.668   1.983  0.9688 -1.1822 -1.2275
  499SOL     OW 1495   0.703   2.383   2.688  0.5881 -0.4135  0.5202
  499SOL    HW1 1496   0.699   2.428   2.776 -1.5278 -4.9931  2.0159
  499SOL    HW2 1497   0.697   2.283   2.699  2.2541  0.2807  1.0295
  500SOL     OW 1498   1.803   0.307   3.054  0.0396  0.6764 -0.4377
  500SOL    HW1 1499   1.705   0.294   3.089 -1.6014 -1.9042  0.8474
  500SOL    HW2 1500   1.847   0.218   3.048  0.3873  0.9408 -3.0743
  501SOL     OW 1501   1.126   0.120   1.473 -0.0905  0.0067 -0.7412
  501SOL    HW1 1502   1.206   0.163   1.428  0.1083  0.1891  4.2774
  501SOL    HW2 1503   1.061   0.064   1.415  0.5568  0.2276  0.8632
  502SOL     OW 1504   2.612   0.892   1.844 -0.0671 -0.5896 -0.3281
  502SOL    HW1 1505   2.551   0.978   1.853 -1.2627  2.1780 -1.0677
  502SOL    HW2 1506   2.550   0.811   1.836 -1.3481 -1.5118  0.4266
  503SOL     OW 1507   2.084   1.939   2.351 -0.2350 -0.7890 -0.6355
  503SOL    HW1 1508   2.042   2.034   2.362 -0.6233  4.7974  3.4261
  503SOL    HW2 1509   2.015   1.866   2.357  3.0155 -0.9260 -1.9470
  504SOL     OW 1510   1.394   0.525   1.699 -0.6185 -0.2163  0.4090
  504SOL    HW1 1511   1.362   0.561   1.606  0.2033  0.4126 -0.0178
  504SOL    HW2 1512   1.334   0.443   1.722 -0.6877  0.7771 -2.7248
  505SOL     OW 1513   0.883   0.884   1.974  0.1092  0.0564  0.5264
  505SOL    HW1 1514   0.893   0.941   1.891 -2.5828 -1.1841 -0.0467
  505SOL    HW2 1515   0.969   0.864   2.027  0.0665 -0.0487 -2.0583
  506SOL     OW 1516   0.503   0.556   2.668  0.2326 -0.3564  0.7938
  506SOL    HW1 1517   0.466   0.653   2.677  0.2623  0.5518 -1.3319
  506SOL    HW2 1518   0.567   0.530   2.743 -3.9735 -2.4086 -1.0555
  507SOL     OW 1519   0.229   0.188   0.105  0.6625  0.1352 -0.3516
  507SOL    HW1 1520   0.175   0.110   0.146  1.2729 -2.0275  1.1743
  507SOL    HW2 1521   0.190   0.246   0.031  0.4356  2.6513 -0.2999
  508SOL     OW 1522   1.222   1.038   1.556  0.0339 -0.0926 -0.2811
  508SOL    HW1 1523   1.207   0.977   1.632 -1.9480  0.4309 -1.8077
  508SOL    HW2 1524   1.304   1.101   1.571 -0.1026 -0.6849 -1.3742
  509SOL     OW 1525   1.703   2.088   1.165 -0.1644  0.6183 -0.1783
  509SOL    HW1 1526   1.630   2.145   1.204  1.2634  0.2931 -1.7911
  509SOL    HW2 1527   1.777   2.078   1.235 -1.1643  0.5844 -2.1477
  510SOL     OW 1528   2.498   1.306   1.916  0.9197  0.1540 -0.2079
  510SOL    HW1 1529   2.537   1.398   1.910 -1.7921 -1.0370 -2.4509
  510SOL    HW2 1530   2.531   1.271   2.005 -0.0964 -1.1011 -0.9917
  511SOL     OW 1531   0.814   2.199   1.565  0.3582  0.2997  0.3428
  511SOL    HW1 1532   0.831   2.222   1.465 -1.8949 -0.2661  2.4807
  511SOL    HW2 1533   0.716   2.173   1.578  0.5057  0.4838  2.1900
  512SOL     OW 1534   2.533   1.842   0.824  0.4902  0.0240 -0.1675
  512SOL    HW1 1535   2.470   1.824   0.745  1.1287 -0.9698 -0.6345
  512SOL    HW2 1536   2.623   1.871   0.794 -1.4370 -0.9328  1.3239
  513SOL     OW 1537   0.130   1.592   2.850  0.2920 -0.1923  0.3147
  513SOL    HW1 1538   0.192   1.667   2.872 -0.8731 -1.0831 -0.0482
  513SOL    HW2 1539   0.125   1.532   2.936  0.6248  0.4223  0.3346
  514SOL     OW 1540   2.852   2.480   2.181 -0.2108 -0.2296  0.2985
  514SOL    HW1 1541   2.919   2.455   2.255  0.8580 -2.3544 -1.2331
  514SOL    HW2 1542   2.890   2.552   2.117 -0.1579 -3.0149 -1.6600
  515SOL     OW 1543   2.204   1.102   1.088  0.6659 -0.2129  0.1491
  515SOL    HW1 1544   2.167   1.106   0.994  1.6271  1.5370 -0.8874
  515SOL    HW2 1545   2.201   1.196   1.122  0.6680  2.1736  0.7478
  516SOL     OW 1546   2.168   2.040   0.095 -0.3198 -0.5284 -0.2481
  516SOL    HW1 1547   2.207   2.057   0.189  0.3678 -0.3202  0.2286
  516SOL    HW2 1548   2.120   1.951   0.108  0.4653 -0.5547  3.3117
  517SOL     OW 1549   0.909   1.129   3.092 -0.2537  0.5342  0.7258
  517SOL    HW1 1550   0.928   1.222   3.066  0.3532 -1.0742 -0.7024
  517SOL    HW2 1551   0.826   1.122   0.051  0.7299  2.2768 -1.4306
  518SOL     OW 1552   0.053   2.991   1.970 -0.2428 -0.2028  0.6185
  518SOL    HW1 1553   0.019   2.966   2.059 -0.5487 -2.3683 -1.3877
  518SOL    HW2 1554   0.001   2.937   1.901  2.2340 -3.2993  4.0140
  519SOL     OW 1555   1.248   1.710   2.498 -0.2895  0.1237  0.1108
  519SOL    HW1 1556   1.193   1.778   2.550 -0.4464 -1.0560 -1.1100
  519SOL    HW2 1557   1.317   1.670   2.560 -2.9878  1.2192 -2.6921
  520SOL     OW 1558   2.648   2.971   2.453  0.6371  0.0245  0.0631
  520SOL    HW1 1559   2.691   3.061   2.426 -0.0571 -1.2420 -0.5247
  520SOL    HW2 1560   2.566   2.985   2.515 -2.2922  2.1695  0.3482
  521SOL     OW 1561   0.079   1.885   2.154  0.6087  0.1596 -0.3268
  521SOL    HW1 1562   0.170   1.929   2.134 -0.6152 -0.1726  1.3843
  521SOL    HW2 1563   0.060   1.904   2.253 -0.6150 -0.6549 -0.7715
  522SOL     OW 1564   0.671   2.508   1.740  0.5644 -0.1747  0.1087
  522SOL    HW1 1565   0.625   2.562   1.668 -1.8126  0.8469 -0.7181
  522SOL    HW2 1566   0.762   2.474   1.717 -0.9437  0.2485  3.4933
  523SOL     OW 1567   0.010   2.386   1.361 -0.1587 -0.4779 -0.0159
  523SOL    HW1 1568   3.072   2.398   1.460  1.6279 -1.9432  0.9085
  523SOL    HW2 1569   3.024   2.396   1.306 -0.3415 -2.5612  3.5599
  524SOL     OW 1570   1.544   2.376   0.674 -0.1501  0.2130  0.0823
  524SOL    HW1 1571   1.475   2.304   0.643 -2.1441  0.5817 -0.8200
  524SOL    HW2 1572   1.612   2.337   0.739  0.3357  1.3200  0.7517
  525SOL     OW 1573   2.442   1.058   0.977 -0.1584  0.6793  0.7079
  525SOL    HW1 1574   2.505   1.035   1.054 -1.9136 -0.9253 -0.4780
  525SOL    HW2 1575   2.348   1.084   1.005  1.4529 -1.6196 -0.1609
  526SOL     OW 1576   0.938   2.410   0.756  0.4012 -0.5262  0.3026
  526SOL    HW1 1577   0.973   2.457   0.672 -0.3111  0.6063  1.5912
  526SOL    HW2 1578   0.959   2.311   0.743  1.1489 -0.1135 -1.8905
  527SOL     OW 1579   2.034   2.255   0.552 -0.0551 -0.3657 -0.1993
  527SOL    HW1 1580   1.946   2.283   0.512  0.7446 -1.1185  0.3230
  527SOL    HW2 1581   2.096   2.336   0.571 -0.8600 -0.7804  0.5830
  528SOL     OW 1582   2.085   0.293   0.275  0.0264 -0.5019 -0.0194
  528SOL    HW1 1583   1.984   0.300   0.263 -0.9690  3.5270 -1.4478
  528SOL    HW2 1584   2.116   0.247   0.359 -0.1516 -0.7841  1.2133
  529SOL     OW 1585   1.002   1.451   2.105 -0.0063 -0.1382  0.2120
  529SOL    HW1 1586   1.048   1.491   2.184 -1.3233  0.1721 -3.5721
  529SOL    HW2 1587   0.988   1.519   2.029  2.6763 -0.3344  0.1102
  530SOL     OW 1588   2.380   0.920   2.322 -0.7088  0.2652  0.7415
  530SOL    HW1 1589   2.474   0.963   2.307  0.7666 -0.6690  1.4794
  530SOL    HW2 1590   2.366   0.904   2.421 -1.9820  1.4503 -1.0567
  531SOL     OW 1591   0.907   0.860   3.077  0.7694 -0.5812  0.5494
  531SOL    HW1 1592   0.899   0.959   3.072  0.3453 -0.0774  0.0282
  531SOL    HW2 1593   0.827   0.810   3.038  1.1243 -1.6705  1.7573
  532SOL     OW 1594   1.465   1.048   0.577  0.4231 -0.7504  0.4124
  532SOL    HW1 1595   1.552   1.031   0.630 -0.0593 -1.7187 -0.3624
  532SOL    HW2 1596   1.471   0.989   0.495 -0.2169 -1.4937  0.3403
  533SOL     OW 1597   0.462   0.567   2.151  0.7111  0.3420  0.5500
  533SOL    HW1 1598   0.449   0.644   2.218 -0.2960 -0.5831 -0.5511
  533SOL    HW2 1599   0.548   0.595   2.097  2.4174  1.2307 -0.5855
  534SOL     OW 1600   1.564   0.224   2.571 -0.6155 -0.0763  0.1871
  534SOL    HW1 1601   1.590   0.262   2.660 -0.4798 -0.1610  0.6428
  534SOL    HW2 1602   1.464   0.209   2.563 -0.8759 -0.9269  0.3080
  535SOL     OW 1603   0.698   0.199   0.419 -0.0278  0.6273 -0.1220
  535SOL    HW1 1604   0.711   0.098   0.400 -0.0640 -2.8103  1.0485
  535SOL    HW2 1605   0.622   0.216   0.487 -0.2669  0.2215  1.7316
  536SOL     OW 1606   1.248   0.369   0.193  0.4141  0.1670  0.4750
  536SOL    HW1 1607   1.291   0.434   0.119  1.5879  0.7677 -1.9952
  536SOL    HW2 1608   1.152   0.344   0.174 -1.8389 -2.2406 -2.3138
  537SOL     OW 1609   1.411   2.785   1.803  0.3208  0.4933  0.0406
  537SOL    HW1 1610   1.452   2.697   1.773  0.9937 -1.8349  3.0338
  537SOL    HW2 1611   1.450   2.863   1.750 -1.7804  1.0984  1.1339
  538SOL     OW 1612   0.395   2.771   0.128 -0.1561 -0.3638 -0.0488
  538SOL    HW1 1613   0.333   2.808   0.202  0.8268  1.3763 -0.1184
  538SOL    HW2 1614   0.480   2.827   0.111  0.4350  0.9672 -0.9015
  539SOL     OW 1615   2.871   1.269   1.704 -0.3970 -0.2582  0.3328
  539SOL    HW1 1616   2.909   1.348   1.750  0.1379  1.9669 -0.0501
  539SOL    HW2 1617   2.771   1.284   1.682  0.8334 -0.8321  0.0714
  540SOL     OW 1618   2.323   2.197   2.038 -0.7600  0.0282  0.1285
  540SOL    HW1 1619   2.381   2.262   2.089 -0.4699 -1.7306 -1.4628
  540SOL    HW2 1620   2.360   2.176   1.946  0.1827 -1.4918  0.4310
  541SOL     OW 1621   0.600   2.710   1.271 -0.4807  0.2299  0.4068
  541SOL    HW1 1622   0.561   2.640   1.208  0.4665 -0.2434  2.5720
  541SOL    HW2 1623   0.643   2.789   1.221 -0.6697  0.4311 -3.6734
  542SOL     OW 1624   2.765   0.407   2.166  0.4749 -0.0393  0.4541
  542SOL    HW1 1625   2.828   0.348   2.218  2.1766  0.4746  2.2088
  542SOL    HW2 1626   2.800   0.419   2.071  0.0407 -0.9579  0.5667
  543SOL     OW 1627   0.896   0.597   1.185 -0.3875  0.4358  0.2304
  543SOL    HW1 1628   0.854   0.672   1.239 -0.5278 -0.2960  0.7325
  543SOL    HW2 1629   0.876   0.510   1.234 -0.5873  2.5289  2.0754
  544SOL     OW 1630   2.347   2.292   1.125  0.1895  0.3590 -0.2790
  544SOL    HW1 1631   2.278   2.227   1.081 -3.9362  1.0323 -1.9811
  544SOL    HW2 1632   2.338   2.387   1.095  0.3015  0.1037  1.8901
  545SOL     OW 1633   1.464   1.452   1.104  0.0778  0.3261  0.4146
  545SOL    HW1 1634   1.553   1.473   1.155  0.3302  2.5704  2.0035
  545SOL    HW2 1635   1.429   1.356   1.136 -0.7199  1.5388  3.8897
  546SOL     OW 1636   2.878   0.211   2.774 -0.5520 -0.1029  0.1832
  546SOL    HW1 1637   2.795   0.155   2.781  1.1163 -0.0778  0.1455
  546SOL    HW2 1638   2.877   0.282   2.850 -0.7483  1.1915  2.4420
  547SOL     OW 1639   2.291   0.336   2.682 -0.2184 -0.1221  0.0797
  547SOL    HW1 1640   2.233   0.284   2.751 -0.2767  0.1478  2.0898
  547SOL    HW2 1641   2.357   0.400   2.730  1.5556 -0.5617 -0.7683
  548SOL     OW 1642   2.625   1.933   2.708  0.1446  0.3650  0.8295
  548SOL    HW1 1643   2.582   1.852   2.753  1.6301  1.0542  0.1558
  548SOL    HW2 1644   2.726   1.932   2.723  1.3573 -0.5755 -0.4630
  549SOL     OW 1645   2.119   0.499   0.633 -0.2304  0.3322  0.7869
  549SOL    HW1 1646   2.159   0.437   0.707  0.1857 -2.5107 -0.6139
  549SOL    HW2 1647   2.175   0.498   0.548 -1.0597 -0.0991 -0.6568
  550SOL     OW 1648   2.766   1.362   0.217  0.2624  0.5148  0.2309
  550SOL    HW1 1649   2.716   1.442   0.253 -0.0469 -1.9616 -1.0068
  550SOL    HW2 1650   2.778   1.365   0.116  1.2896  0.8023  0.2267
  551SOL     OW 1651   1.433   2.528   1.198  0.5005  0.3872 -0.0395
  551SOL    HW1 1652   1.360   2.589   1.232  2.1120 -1.0800  0.5175
  551SOL    HW2 1653   1.465   2.561   1.111 -1.8596 -0.8836  2.1957
  552SOL     OW 1654   2.845   2.207   2.842  0.1817 -0.4687  0.1138
  552SOL    HW1 1655   2.884   2.192   2.746  0.5382  0.5055 -0.4222
  552SOL    HW2 1656   2.753   2.169   2.861 -0.4279 -1.0291  1.0999
  553SOL     OW 1657   0.406   2.977   0.507  1.0929 -0.1315 -0.6699
  553SOL    HW1 1658   0.348   3.058   0.531 -1.7273  1.1140  0.4586
  553SOL    HW2 1659   0.406   2.914   0.588 -0.3800  2.0892  0.2018
  554SOL     OW 1660   1.777   1.849   1.487 -0.2037  0.1528 -0.1496
  554SOL    HW1 1661   1.713   1.782   1.515  2.1579 -0.1039 -0.9554
  554SOL    HW2 1662   1.803   1.829   1.394  1.3840  1.3562  4.6863
  555SOL     OW 1663   1.575   2.441   2.126 -0.0592 -0.3025 -0.4352
  555SOL    HW1 1664   1.569   2.339   2.124  0.5042  2.3183 -0.8846
  555SOL    HW2 1665   1.486   2.490   2.148 -1.7721  1.6146  2.4022
  556SOL     OW 1666   1.664   0.942   0.758 -0.3780  0.3639 -0.0538
  556SOL    HW1 1667   1.749   0.942   0.821  1.2042  1.0555  1.0793
  556SOL    HW2 1668   1.619   0.853   0.754 -0.1182 -1.6857  1.5370
  557SOL     OW 1669   1.501   2.171   1.480 -0.0953 -0.7117 -0.1420
  557SOL    HW1 1670   1.497   2.217   1.389 -0.3249 -1.5901 -2.0934
  557SOL    HW2 1671   1.528   2.239   1.553  0.5622 -3.1394 -1.3312
  558SOL     OW 1672   2.987   1.122   2.332  0.3649  0.2636 -0.0842
  558SOL    HW1 1673   2.900   1.093   2.384 -0.5065 -2.8568  0.9425
  558SOL    HW2 1674   3.054   1.046   2.323  1.7687  2.7818  1.7676
  559SOL     OW 1675   2.589   2.569   2.346  0.0389 -0.0097 -0.0854
  559SOL    HW1 1676   2.630   2.492   2.398 -1.7012  0.1550 -0.0651
  559SOL    HW2 1677   2.651   2.647   2.351 -0.4282 -2.7106 -1.4350
  560SOL     OW 1678   0.327   3.078   2.544 -0.0871  0.3652  0.1888
  560SOL    HW1 1679   0.257   3.092   2.473  1.4980  0.1394 -0.0376
  560SOL    HW2 1680   0.420   0.011   2.505 -0.5719 -0.5156 -1.6131
  561SOL     OW 1681   1.689   0.651   0.741  0.0461 -0.0560  0.1388
  561SOL    HW1 1682   1.675   0.554   0.716 -0.7093  0.8893  0.4393
  561SOL    HW2 1683   1.749   0.693   0.672 -0.1130 -0.2164 -0.0284
  562SOL     OW 1684   0.565   1.401   2.176  0.4766 -0.2972 -0.7172
  562SOL    HW1 1685   0.618   1.326   2.134 -0.2110  0.3472  1.2121
  562SOL    HW2 1686   0.626   1.463   2.231  0.8940  0.0650 -0.2520
  563SOL     OW 1687   1.682   2.001   0.197 -0.2089 -0.0844  0.1180
  563SOL    HW1 1688   1.702   1.922   0.136 -0.9854 -1.0124 -0.5558
  563SOL    HW2 1689   1.773   2.050   0.204 -0.7798  2.2277 -1.5939
  564SOL     OW 1690   0.332   1.943   0.723  0.6495 -0.0689 -0.3506
  564SOL    HW1 1691   0.380   1.895   0.645 -1.2806 -1.6176  0.0943
  564SOL    HW2 1692   0.241   1.900   0.743 -1.0878 -2.4238  2.5168
  565SOL     OW 1693   0.599   2.964   0.087  0.0247  0.7068 -0.1750
  565SOL    HW1 1694   0.688   2.945   0.041  1.3641 -0.0705  1.5024
  565SOL    HW2 1695   0.579   3.061   0.074  0.3813 -2.1749 -1.2365
  566SOL     OW 1696   1.478   2.580   2.898 -0.0065 -0.4201 -0.3384
  566SOL    HW1 1697   1.520   2.530   2.978  1.3460  0.0873 -0.7348
  566SOL    HW2 1698   1.529   2.559   2.815 -0.9240  0.4129 -2.3821
  567SOL     OW 1699   2.454   1.724   1.069  0.2392  0.0111  0.1871
  567SOL    HW1 1700   2.512   1.783   1.003  1.6626  1.2899 -2.9851
  567SOL    HW2 1701   2.461   1.622   1.048  1.9063  0.4661  1.2868
  568SOL     OW 1702   1.600   1.100   2.549  0.2885 -0.6041  0.1888
  568SOL    HW1 1703   1.522   1.037   2.563  0.2348  0.0117  0.6187
  568SOL    HW2 1704   1.613   1.168   2.624 -1.8585  0.4380  2.2361
  569SOL     OW 1705   2.216   1.630   1.861  0.1801  0.0212  0.6054
  569SOL    HW1 1706   2.288   1.601   1.799 -0.5312  2.2989 -1.3680
  569SOL    HW2 1707   2.246   1.614   1.959  1.1459 -1.4899 -0.6329
  570SOL     OW 1708   3.014   2.764   1.797  0.4338 -0.3919 -0.5935
  570SOL    HW1 1709   3.087   2.711   1.746 -1.0479  0.8869  1.0271
  570SOL    HW2 1710   2.936   2.788   1.736  0.3747  0.7373 -0.1025
  571SOL     OW 1711   0.315   0.641   1.420  0.0896  0.3688  0.8655
  571SOL    HW1 1712   0.238   0.594   1.373 -1.1896  0.9645 -0.2889
  571SOL    HW2 1713   0.309   0.611   1.517  1.3432 -2.5660 -4.7623
  572SOL     OW 1714   0.518   1.487   0.736 -0.1570 -0.1081  0.2208
  572SOL    HW1 1715   0.570   1.537   0.808 -1.1626  0.5198  1.0217
  572SOL    HW2 1716   0.586   1.420   0.694  1.2005  1.3890  2.7060
  573SOL     OW 1717   1.150   0.737   0.303  0.4170 -0.4097 -0.5320
  573SOL    HW1 1718   1.083   0.662   0.317 -0.4026  1.4268 -1.2695
  573SOL    HW2 1719   1.160   0.742   0.203  0.3196 -1.4442  0.8552
  574SOL     OW 1720   0.204   0.403   0.277 -0.0386 -0.1377 -0.0362
  574SOL    HW1 1721   0.213   0.324   0.214 -0.4903 -0.7611 -0.7638
  574SOL    HW2 1722   0.234   0.491   0.226  0.1107  1.9152 -0.2672
  575SOL     OW 1723   0.849   1.883   1.091  0.7379 -0.1919 -0.2494
  575SOL    HW1 1724   0.803   1.882   0.996  0.8532 -0.8170 -1.5410
  575SOL    HW2 1725   0.938   1.932   1.097  1.1266 -2.1359 -1.4112
  576SOL     OW 1726   0.020   0.246   1.796  0.1384 -0.1625 -0.3635
  576SOL    HW1 1727   3.097   0.232   1.698 -0.2041 -0.1524  2.1065
  576SOL    HW2 1728   3.091   0.336   1.835 -0.6285 -1.3919  0.4447
  577SOL     OW 1729   2.717   1.685   2.013 -0.2803 -0.2302  0.0702
  577SOL    HW1 1730   2.637   1.716   2.071 -0.3142  0.8621  0.5529
  577SOL    HW2 1731   2.778   1.639   2.075 -1.1257  1.2675  0.7254
  578SOL     OW 1732   1.130   0.026   2.341 -0.1881 -0.0956 -0.2569
  578SOL    HW1 1733   1.196   0.018   2.260  1.7977 -1.1861 -1.1853
  578SOL    HW2 1734   1.155   3.073   2.425  3.0582 -0.9232 -1.3520
  579SOL     OW 1735   1.772   1.807   2.274 -0.5341  0.1878  0.7094
  579SOL    HW1 1736   1.775   1.750   2.189 -1.3969  0.9681  0.0036
  579SOL    HW2 1737   1.671   1.806   2.294 -2.1047 -0.1462  0.0766
  580SOL     OW 1738   1.774   0.886   2.039 -0.1282 -0.2334  0.4596
  580SOL    HW1 1739   1.779   0.815   2.111 -1.9415  0.4628 -0.1702
  580SOL    HW2 1740   1.710   0.964   2.062 -0.2038  0.7362  0.1946
  581SOL     OW 1741   1.149   1.137   2.455  0.2138  0.5456  0.1843
  581SOL    HW1 1742   1.239   1.112   2.417 -0.9916 -1.6040  0.4701
  581SOL    HW2 1743   1.080   1.151   2.376 -1.3742 -0.7241 -1.6529
  582SOL     OW 1744   0.013   2.265   1.981 -0.8882 -0.2544  0.3183
  582SOL    HW1 1745   3.097   2.211   2.065  2.4786  3.0579  0.3598
  582SOL    HW2 1746   0.047   2.356   2.014  0.1457  2.2831  0.9249
  583SOL     OW 1747   1.726   1.205   1.205  0.0593 -0.9735  0.3716
  583SOL    HW1 1748   1.739   1.158   1.116 -0.4544 -0.3910 -1.0693
  583SOL    HW2 1749   1.722   1.305   1.194 -0.6992  0.3483  0.7418
  584SOL     OW 1750   0.796   2.349   2.963 -0.0675 -0.1348  0.1739
  584SOL    HW1 1751   0.830   2.357   3.057 -1.6494  1.6343  0.0680
  584SOL    HW2 1752   0.870   2.347   2.895  2.3923 -3.7543  1.4262
  585SOL     OW 1753   0.241   2.416   0.345 -0.6812 -0.3395  0.2906
  585SOL    HW1 1754   0.147   2.450   0.353  0.6189 -0.9114 -4.0330
  585SOL    HW2 1755   0.302   2.476   0.287 -0.5131 -1.3066 -0.3935
  586SOL     OW 1756   1.969   1.609   0.338 -0.1971 -0.2754  0.5416
  586SOL    HW1 1757   1.883   1.550   0.323 -1.3534 -0.7740 -0.0534
  586SOL    HW2 1758   2.008   1.596   0.430 -3.2429  1.7276  0.8428
  587SOL     OW 1759   2.983   1.993   0.306 -0.0140 -0.2978  0.3697
  587SOL    HW1 1760   3.044   2.066   0.270 -1.7648 -1.8090  1.2897
  587SOL    HW2 1761   2.919   2.024   0.379  2.6062  2.3351 -0.8294
  588SOL     OW 1762   2.880   0.590   1.014  0.0010 -0.6068 -0.1788
  588SOL    HW1 1763   2.931   0.659   1.068  1.4502  0.0081 -4.2733
  588SOL    HW2 1764   2.939   0.518   0.975 -1.6432 -0.5056  0.8622
  589SOL     OW 1765   0.940   0.616   0.922 -0.2017  0.1898 -0.1198
  589SOL    HW1 1766   1.041   0.608   0.917 -0.7743  0.3280 -1.5403
  589SOL    HW2 1767   0.912   0.623   1.019 -0.8183  2.1763 -1.7718
  590SOL     OW 1768   2.294   2.502   0.123  0.1082 -0.3781  0.2047
  590SOL    HW1 1769   2.334   2.418   0.159  0.8173  1.3683  0.2845
  590SOL    HW2 1770   2.360   2.579   0.124 -2.6157 -0.4085  1.2058
  591SOL     OW 1771   0.519   2.387   1.969  0.1367  0.0467  0.0847
  591SOL    HW1 1772   0.584   2.449   1.919  0.5012  0.4093  0.9105
  591SOL    HW2 1773   0.445   2.354   1.905  0.4449 -1.2073 -0.0421
  592SOL     OW 1774   0.563   1.471   1.777  0.1707 -0.3985  0.3093
  592SOL    HW1 1775   0.637   1.476   1.710 -0.2957 -1.0788  0.0975
  592SOL    HW2 1776   0.589   1.407   1.846  2.4980  2.5376 -0.9773
  593SOL     OW 1777   1.423   1.708   1.327  0.2804  0.0959  0.2069
  593SOL    HW1 1778   1.445   1.747   1.231 -0.5347  1.2605 -1.9655
  593SOL    HW2 1779   1.441   1.781   1.394 -1.1146 -0.1700 -2.2895
  594SOL     OW 1780   0.328   1.003   2.709  0.0029 -0.4677 -0.6314
  594SOL    HW1 1781   0.342   1.103   2.718 -0.4311 -0.6629 -0.4989
  594SOL    HW2 1782   0.232   0.986   2.686  3.1252 -0.7380 -1.3172
  595SOL     OW 1783   1.587   0.292   1.062  0.2013  0.0585  0.1328
  595SOL    HW1 1784   1.502   0.305   1.003  2.6708 -3.5590 -2.9031
  595SOL    HW2 1785   1.656   0.365   1.038  1.6935  2.4218 -3.5512
  596SOL     OW 1786   0.270   1.105   1.126  0.2121  0.5250 -0.1923
  596SOL    HW1 1787   0.358   1.149   1.145  0.9198  0.5738  1.2534
  596SOL    HW2 1788   0.200   1.179   1.130  0.1327  2.2045 -0.7613
  597SOL     OW 1789   0.004   2.379   2.788  0.4384 -0.0829 -0.3047
  597SOL    HW1 1790   0.034   2.450   2.859  0.1537 -0.0863  1.0405
  597SOL    HW2 1791   3.008   2.407   2.749  0.4919  2.9576 -2.3184
  598SOL     OW 1792   2.251   1.972   2.737 -0.3240  0.6844 -0.3027
  598SOL    HW1 1793   2.210   2.043   2.672 -2.0752  0.7088 -0.2376
  598SOL    HW2 1794   2.310   2.012   2.806 -2.0423 -0.4573  0.2714
  599SOL     OW 1795   1.721   0.564   0.327 -0.0740 -0.0292 -0.2791
  599SOL    HW1 1796   1.723   0.663   0.341 -0.0272 -1.9870  1.5643
  599SOL    HW2 1797   1.687   0.518   0.416 -0.1998 -1.4204  1.0004
  600SOL     OW 1798   0.831   0.260   3.097 -0.1005 -0.0261  0.0045
  600SOL    HW1 1799   0.894   0.207   0.060 -1.2627 -0.1181  1.6947
  600SOL    HW2 1800   0.885   0.333   3.049  0.3625  1.8455 -1.0085
  601SOL     OW 1801   0.652   0.075   1.488  0.0883 -0.2378 -0.6205
  601SOL    HW1 1802   0.646   0.142   1.566 -1.0597 -1.6131  2.1139
  601SOL    HW2 1803   0.637   0.122   1.404 -0.4495  2.4586  3.0555
  602SOL     OW 1804   0.173   2.816   0.856 -0.1736  1.1008  0.2162
  602SOL    HW1 1805   0.123   2.835   0.771 -0.3229 -1.5374  0.0828
  602SOL    HW2 1806   0.148   2.880   0.932  1.6701 -0.4534  0.2647
  603SOL     OW 1807   0.768   2.932   2.473  0.1682  0.3968  0.3956
  603SOL    HW1 1808   0.801   2.957   2.380  2.7383 -0.2122 -3.0572
  603SOL    HW2 1809   0.689   2.862   2.465 -3.3417  1.4513 -0.4986
  604SOL     OW 1810   1.082   2.547   0.109 -0.2402  0.0601  0.0902
  604SOL    HW1 1811   1.015   2.469   0.109  1.9737 -1.1961  1.4141
  604SOL    HW2 1812   1.090   2.578   0.014  1.0581  1.8197  1.3686
  605SOL     OW 1813   1.449   0.784   1.783 -0.4794 -0.0412  0.4977
  605SOL    HW1 1814   1.421   0.687   1.762 -0.9574  1.4475  0.5513
  605SOL    HW2 1815   1.542   0.793   1.740  2.2347  0.0083 -0.2431
  606SOL     OW 1816   1.473   0.556   2.818 -0.1578 -0.4748 -0.2706
  606SOL    HW1 1817   1.435   0.573   2.727  1.1055 -1.0986  0.1413
  606SOL    HW2 1818   1.404   0.545   2.890  1.6238  2.5382  1.7149
  607SOL     OW 1819   0.170   1.303   1.372 -0.2835 -0.0496 -0.2019
  607SOL    HW1 1820   0.099   1.318   1.300 -0.1064  0.5824 -1.3046
  607SOL    HW2 1821   0.227   1.387   1.382  0.7474  2.4114 -0.5452
  608SOL     OW 1822   2.678   2.349   2.457 -0.4648  0.4093 -0.2359
  608SOL    HW1 1823   2.641   2.275   2.520 -0.7459 -3.4062  0.8710
  608SOL    HW2 1824   2.735   2.304   2.384  0.6168 -0.2201  1.1961
  609SOL     OW 1825   2.137   0.052   0.422 -0.0862  0.0739 -0.2509
  609SOL    HW1 1826   2.068   0.030   0.495  0.3190 -2.1882  0.5623
  609SOL    HW2 1827   2.230   0.009   0.439 -0.1651  0.0795 -0.2811
  610SOL     OW 1828   0.862   2.499   1.165  0.2113 -0.2403  0.0300
  610SOL    HW1 1829   0.891   2.526   1.072 -0.5731 -2.0388 -1.3021
  610SOL    HW2 1830   0.882   2.578   1.230  0.2788 -3.6314  2.2350
  611SOL     OW 1831   0.861   1.483   0.748 -0.1798  0.1215 -0.2205
  611SOL    HW1 1832   0.839   1.546   0.674 -1.1516  1.9520  0.1273
  611SOL    HW2 1833   0.886   1.535   0.830 -0.8648 -0.7328 -1.1664
  612SOL     OW 1834   0.670   0.257   2.270 -0.4483  0.4346 -0.3239
  612SOL    HW1 1835   0.611   0.293   2.191 -0.4917  2.5463  0.6428
  612SOL    HW2 1836   0.768   0.253   2.242  1.5477 -0.2975  0.5268
  613SOL     OW 1837   2.645   1.588   0.331 -0.1621 -0.4239  0.0078
  613SOL    HW1 1838   2.555   1.584   0.378  1.2657 -0.6705  0.1377
  613SOL    HW2 1839   2.716   1.617   0.402  1.2436 -0.5616  1.2836
  614SOL     OW 1840   1.737   0.409   1.862  0.0419  0.1815  0.1368
  614SOL    HW1 1841   1.674   0.473   1.910 -0.3970  0.1268 -1.9145
  614SOL    HW2 1842   1.792   0.470   1.795  0.3959  1.4845 -1.0903
  615SOL     OW 1843   0.914   1.643   1.210  0.1066 -0.1120 -0.4569
  615SOL    HW1 1844   1.007   1.654   1.250 -3.2169  0.4378  0.8601
  615SOL    HW2 1845   0.885   1.726   1.159  0.4914  1.0379  1.4639
  616SOL     OW 1846   1.437   1.584   2.639 -0.3713  0.3584 -0.7056
  616SOL    HW1 1847   1.491   1.532   2.572 -0.0760  0.4285  1.0251
  616SOL    HW2 1848   1.497   1.621   2.714  2.8386 -0.7895  0.1069
  617SOL     OW 1849   1.782   2.733   0.325 -0.0206  0.3901  0.5814
  617SOL    HW1 1850   1.709   2.676   0.284 -0.1221  2.4625 -1.1520
  617SOL    HW2 1851   1.738   2.803   0.384  0.7135  0.1782 -0.1790
  618SOL     OW 1852   0.757   0.949   2.705  0.8193 -0.0018  0.7753
  618SOL    HW1 1853   0.850   0.957   2.731 -1.5711  2.6525 -1.2553
  618SOL    HW2 1854   0.738   1.046   2.668 -0.6611  2.5570  1.0961
  619SOL     OW 1855   2.777   1.349   0.491  0.1102  0.8624 -0.2602
  619SOL    HW1 1856   2.774   1.330   0.392  0.2101 -1.4558  1.4523
  619SOL    HW2 1857   2.690   1.388   0.530 -1.8911  1.1456 -2.0326
  620SOL     OW 1858   2.191   2.825   0.106 -0.1396  0.2390  0.7534
  620SOL    HW1 1859   2.266   2.778   0.160  1.3877  0.7778  2.3522
  620SOL    HW2 1860   2.095   2.800   0.133 -2.2381  0.2552  1.9944
  621SOL     OW 1861   2.242   1.398   0.132 -0.0463 -0.7854 -0.1317
  621SOL    HW1 1862   2.277   1.378   0.224  1.4671 -0.8954  0.2579
  621SOL    HW2 1863   2.163   1.340   0.108  1.2388 -1.9764 -0.6091
  622SOL     OW 1864   1.333   2.544   2.568  0.6266 -0.1818 -0.0442
  622SOL    HW1 1865   1.332   2.471   2.502  0.7932  1.6285  0.8256
  622SOL    HW2 1866   1.425   2.555   2.611 -2.8547  2.5987 -0.2896
  623SOL     OW 1867   0.671   1.508   0.268  0.0754 -0.2734 -0.5903
  623SOL    HW1 1868   0.739   1.566   0.218 -0.7404  0.2125 -0.1320
  623SOL    HW2 1869   0.581   1.513   0.216 -0.4148 -0.4355  0.6349
  624SOL     OW 1870   0.699   0.070   2.683  0.0738 -0.1947 -0.1592
  624SOL    HW1 1871   0.660   0.105   2.773  0.0493 -1.2790  0.7839
  624SOL    HW2 1872   0.753   3.078   2.696  2.1612 -0.9949  2.0733
  625SOL     OW 1873   0.788   1.851   0.402  0.1374  0.4424  0.2423
  625SOL    HW1 1874   0.702   1.868   0.352 -0.0101 -0.3464 -3.3343
  625SOL    HW2 1875   0.871   1.861   0.337  0.6068  0.7280 -0.2466
  626SOL     OW 1876   2.387   0.102   0.046  0.2312 -0.3751 -0.0145
  626SOL    HW1 1877   2.320   0.178   0.024  0.9922  0.8794  1.3023
  626SOL    HW2 1878   2.418   0.129   0.144  2.5117 -1.2970 -0.3603
  627SOL     OW 1879   1.395   1.238   2.320 -0.0224  0.0243 -0.0529
  627SOL    HW1 1880   1.450   1.178   2.261  2.0850 -0.3058 -0.6295
  627SOL    HW2 1881   1.444   1.322   2.350  2.4397  0.9724  3.4936
  628SOL     OW 1882   1.004   0.689   2.410  0.0844 -0.4180 -0.0329
  628SOL    HW1 1883   0.963   0.759   2.352  1.2674  0.1301  3.5893
  628SOL    HW2 1884   0.931   0.635   2.454 -0.7889 -1.9625 -1.2774
  629SOL     OW 1885   0.548   3.011   2.039 -0.4036  0.1755  0.0392
  629SOL    HW1 1886   0.584   2.915   2.030 -0.9940  0.5542 -0.9878
  629SOL    HW2 1887   0.628   3.074   2.011  0.4298  1.0690 -1.1876
  630SOL     OW 1888   2.224   0.692   1.749 -0.0006  0.2154 -0.4609
  630SOL    HW1 1889   2.282   0.773   1.725 -1.4372 -0.6309 -0.6953
  630SOL    HW2 1890   2.152   0.729   1.813  0.4811  1.3182 -1.6308
  631SOL     OW 1891   2.245   1.371   0.418 -0.5100  0.1589  0.2726
  631SOL    HW1 1892   2.284   1.327   0.504 -0.1959  0.5723  0.2463
  631SOL    HW2 1893   2.153   1.337   0.408 -1.3605  1.6614 -0.9253
  632SOL     OW 1894   2.051   0.382   1.926 -0.2515  0.2263  0.1649
  632SOL    HW1 1895   2.085   0.421   1.838 -1.1947  0.7672  0.0007
  632SOL    HW2 1896   2.019   0.285   1.916 -1.2099  2.0082 -0.1574
  633SOL     OW 1897   0.845   2.865   0.473 -0.4105 -0.4465  0.7784
  633SOL    HW1 1898   0.768   2.923   0.437  1.0267  0.9987 -1.4174
  633SOL    HW2 1899   0.877   2.907   0.561  0.4110 -0.3901  1.7880
  634SOL     OW 1900   1.362   2.983   2.749 -0.1405  0.7371  0.2553
  634SOL    HW1 1901   1.460   2.984   2.710 -0.0287  0.0075  1.6357
  634SOL    HW2 1902   1.357   2.913   2.826 -0.1310 -1.8215 -2.8428
  635SOL     OW 1903   2.523   0.662   0.030 -0.0046 -0.2144  0.0798
  635SOL    HW1 1904   2.617   0.698   0.018 -2.5079  2.4865 -0.2263
  635SOL    HW2 1905   2.470   0.708   0.106 -0.3314 -0.9087  0.8719
  636SOL     OW 1906   0.748   1.476   1.109 -0.3545  0.2657  0.4708
  636SOL    HW1 1907   0.825   1.536   1.142 -1.8253  0.5994 -0.2245
  636SOL    HW2 1908   0.771   1.380   1.133 -0.4950  1.0855 -2.2279
  637SOL     OW 1909   0.016   2.687   0.393  0.3424 -0.3234 -0.1290
  637SOL    HW1 1910   0.007   2.586   0.414 -1.6407  0.6875  0.0722
  637SOL    HW2 1911   3.057   2.716   0.311 -0.5508 -0.7716 -0.7326
  638SOL     OW 1912   0.240   2.853   0.326 -0.1524 -0.9015  0.2350
  638SOL    HW1 1913   0.159   2.799   0.362 -1.2813 -0.8645 -1.6829
  638SOL    HW2 1914   0.306   2.875   0.401  0.4323 -0.1009  0.4323
  639SOL     OW 1915   1.169   1.359   0.224  0.2241  0.3564 -0.6850
  639SOL    HW1 1916   1.166   1.268   0.179 -1.7974 -1.1063 -0.9114
  639SOL    HW2 1917   1.203   1.437   0.166 -1.9617  0.7481 -2.3674
  640SOL     OW 1918   1.227   2.420   0.953  0.3565  0.5583  0.1847
  640SOL    HW1 1919   1.320   2.458   0.945 -2.5487 -1.1623  0.1334
  640SOL    HW2 1920   1.156   2.495   0.967 -2.0641  1.1659 -0.6985
  641SOL     OW 1921   3.056   2.420   0.464 -0.3414  0.0612 -0.8031
  641SOL    HW1 1922   2.959   2.440   0.442 -0.8391  0.6925 -1.1648
  641SOL    HW2 1923   3.074   2.356   0.541  1.7862  1.6335 -0.2364
  642SOL     OW 1924   1.026   0.089   1.720  0.3678  0.1058 -0.0426
  642SOL    HW1 1925   1.067   0.123   1.632  1.1230 -0.5920  0.0300
  642SOL    HW2 1926   1.100   0.071   1.782 -3.6264 -0.5357 -1.2504
  643SOL     OW 1927   0.720   2.267   2.304 -0.3663 -0.1719 -0.1695
  643SOL    HW1 1928   0.713   2.226   2.208 -1.7358 -0.2791 -0.0976
  643SOL    HW2 1929   0.660   2.213   2.368  1.5704  2.9777  3.2796
  644SOL     OW 1930   0.926   3.011   0.724  0.4700  0.0400  0.2495
  644SOL    HW1 1931   1.010   3.050   0.680  0.2443 -2.8252 -2.1009
  644SOL    HW2 1932   0.852   3.078   0.745 -0.3594  1.7092  1.4452
  645SOL     OW 1933   1.077   1.581   2.327  0.1633 -0.0840  0.2551
  645SOL    HW1 1934   1.011   1.552   2.392  0.8011  1.7325 -1.5679
  645SOL    HW2 1935   1.158   1.621   2.376  4.3620 -1.8329 -1.6824
  646SOL     OW 1936   0.688   1.078   0.164  0.4158  0.6178  0.3929
  646SOL    HW1 1937   0.646   1.024   0.238  0.0902  1.8042 -3.0090
  646SOL    HW2 1938   0.719   1.160   0.209 -0.0661 -2.2248 -0.9619
  647SOL     OW 1939   1.073   0.211   0.860 -0.4886  0.0330 -0.3466
  647SOL    HW1 1940   1.150   0.277   0.856 -0.3486  0.2045  0.9598
  647SOL    HW2 1941   1.036   0.212   0.961  1.9615 -0.1126  4.0399
  648SOL     OW 1942   2.803   2.893   1.634  0.5128 -0.0836 -0.3742
  648SOL    HW1 1943   2.715   2.918   1.673 -0.9826 -0.6051 -0.8411
  648SOL    HW2 1944   2.864   2.973   1.618 -2.5367  1.2311  0.3176
  649SOL     OW 1945   0.581   1.955   0.019 -0.8028  0.0366 -0.0145
  649SOL    HW1 1946   0.584   2.031   3.051  0.4861 -1.8294  0.8853
  649SOL    HW2 1947   0.507   1.974   0.083  2.6262  0.6241 -0.3301
  650SOL     OW 1948   0.267   2.056   1.556  0.7086  0.2725  0.7817
  650SOL    HW1 1949   0.217   2.074   1.643  0.0230  2.5684  2.3078
  650SOL    HW2 1950   0.247   2.122   1.481 -3.7510 -0.4995  0.3927
  651SOL     OW 1951   0.152   3.019   3.007  0.0997 -0.4996  0.0785
  651SOL    HW1 1952   0.166   3.045   0.006  1.3421 -0.3226 -1.0856
  651SOL    HW2 1953   0.070   3.063   2.962 -3.7900  0.1145  0.7018
  652SOL     OW 1954   2.539   1.933   0.254 -0.3500 -0.5452  0.0535
  652SOL    HW1 1955   2.588   2.026   0.240  0.7610  2.2462 -2.1877
  652SOL    HW2 1956   2.560   1.893   0.348  0.9036  2.8597  1.9551
  653SOL     OW 1957   0.249   0.268   1.191 -0.1153  0.0636  0.0289
  653SOL    HW1 1958   0.346   0.283   1.160 -2.1389 -1.1129 -0.7695
  653SOL    HW2 1959   0.230   0.180   1.238 -2.8616  0.6480 -1.0609
  654SOL     OW 1960   1.612   2.926   2.647 -0.0787 -0.6721  0.2165
  654SOL    HW1 1961   1.642   2.837   2.620  1.6701  0.9797  0.6566
  654SOL    HW2 1962   1.684   3.000   2.651  0.5962 -2.5176  0.9937
  655SOL     OW 1963   0.986   2.609   0.924  0.1030 -0.3295  0.5141
  655SOL    HW1 1964   0.925   2.687   0.899 -0.8496  0.6709  0.0499
  655SOL    HW2 1965   0.962   2.525   0.873  1.7073 -1.8079  0.7478
  656SOL     OW 1966   0.633   2.748   1.980  0.6101 -0.1553 -0.3411
  656SOL    HW1 1967   0.603   2.683   2.056 -4.0453 -1.6208  2.8747
  656SOL    HW2 1968   0.569   2.736   1.905 -0.0545  2.7566  0.6954
  657SOL     OW 1969   2.056   0.746   1.951 -0.2687  0.0072  0.4727
  657SOL    HW1 1970   2.131   0.755   2.012  0.5334  2.0529 -1.0913
  657SOL    HW2 1971   1.984   0.681   1.988  0.3333  0.1304  0.3533
  658SOL     OW 1972   2.208   1.739   1.145 -0.0280 -0.9638 -0.0409
  658SOL    HW1 1973   2.224   1.678   1.223  2.1452 -2.0656  1.0151
  658SOL    HW2 1974   2.297   1.745   1.093  1.2936  1.6730  2.9228
  659SOL     OW 1975   2.497   2.691   0.173 -0.7412  0.5798  0.2238
  659SOL    HW1 1976   2.519   2.764   0.110  0.5144 -1.0594 -0.6986
  659SOL    HW2 1977   2.545   2.703   0.267  0.1084  0.4655  2.5908
  660SOL     OW 1978   0.995   0.953   2.801 -0.0050  0.2223  0.3432
  660SOL    HW1 1979   1.076   1.012   2.808  1.9388  1.0722  0.1215
  660SOL    HW2 1980   0.959   0.936   2.894  0.5891 -0.0914  1.3507
  661SOL     OW 1981   2.365   2.716   0.884 -0.1315  0.0155 -0.4839
  661SOL    HW1 1982   2.293   2.745   0.956 -3.2371  2.0363  2.4525
  661SOL    HW2 1983   2.392   2.617   0.895  1.2127 -1.1555  0.4955
  662SOL     OW 1984   0.578   0.624   0.146  0.4694 -0.0478 -0.0718
  662SOL    HW1 1985   0.620   0.529   0.157 -0.0015  2.2102 -0.7740
  662SOL    HW2 1986   0.476   0.621   0.152 -0.4317  1.4289 -0.3773
  663SOL     OW 1987   1.029   2.345   2.779  0.3954 -0.5464  0.3847
  663SOL    HW1 1988   1.118   2.311   2.817  0.9128  1.7619 -0.0492
  663SOL    HW2 1989   1.033   2.433   2.726 -0.8892  4.1323 -4.0951
  664SOL     OW 1990   0.931   2.716   1.332  0.6661 -0.1880  0.2966
  664SOL    HW1 1991   0.875   2.711   1.414 -0.3410 -1.7018 -3.3283
  664SOL    HW2 1992   1.009   2.778   1.351 -0.1585  0.6163  1.7087
  665SOL     OW 1993   1.746   1.560   1.703  0.1643 -0.4379 -0.1658
  665SOL    HW1 1994   1.791   1.490   1.766  0.8685  2.9667 -0.4547
  665SOL    HW2 1995   1.694   1.630   1.755  0.2485 -1.7398 -1.2691
  666SOL     OW 1996   0.452   2.514   0.214 -0.1322 -0.2883  0.2186
  666SOL    HW1 1997   0.489   2.458   0.133 -0.4178  0.3971 -1.3238
  666SOL    HW2 1998   0.427   2.608   0.185  0.5744  0.1986  1.3216
  667SOL     OW 1999   2.078   1.315   1.503 -0.2775 -0.0836 -0.3729
  667SOL    HW1 2000   2.000   1.248   1.487 -2.3336  2.7575  1.5357
  667SOL    HW2 2001   2.051   1.386   1.572  3.7623  0.7959 -2.5227
  668SOL     OW 2002   0.357   0.085   2.168 -0.3610 -0.1566 -0.8705
  668SOL    HW1 2003   0.434   0.026   2.136  0.3930 -2.0634  0.8641
  668SOL    HW2 2004   0.290   0.106   2.095 -0.2292  2.1854  1.0817
  669SOL     OW 2005   1.800   2.069   2.327 -0.2327  0.6050 -0.1226
  669SOL    HW1 2006   1.832   2.134   2.250  0.3205 -1.4680 -0.6128
  669SOL    HW2 2007   1.788   1.975   2.292  1.5342  1.0720 -0.4980
  670SOL     OW 2008   2.280   2.011   0.331 -0.2330  0.4204 -0.3169
  670SOL    HW1 2009   2.367   1.965   0.301  1.4812  0.8340  0.8712
  670SOL    HW2 2010   2.247   1.979   0.421 -1.5642  0.3698 -2.9354
  671SOL     OW 2011   0.736   1.281   1.434  0.0801 -0.0814 -0.3865
  671SOL    HW1 2012   0.797   1.241   1.367 -1.4122 -0.0410 -0.7673
  671SOL    HW2 2013   0.759   1.383   1.450  2.1019  2.6123 -0.3189
  672SOL     OW 2014   2.614   1.262   2.160  0.3097 -0.4350 -0.1745
  672SOL    HW1 2015   2.589   1.315   2.248 -0.8075 -0.1995 -0.4733
  672SOL    HW2 2016   2.707   1.282   2.121  2.0411 -3.5256  1.2260
  673SOL     OW 2017   2.823   1.891   2.303  0.4206  0.2689  0.4413
  673SOL    HW1 2018   2.734   1.876   2.353  0.0950 -0.6092  0.8858
  673SOL    HW2 2019   2.904   1.860   2.358 -1.6910 -0.0112  2.0976
  674SOL     OW 2020   1.021   2.749   2.283 -0.5314  0.1941  0.9530
  674SOL    HW1 2021   1.101   2.763   2.347  1.2716  0.2425  0.6693
  674SOL    HW2 2022   0.977   2.841   2.280 -0.0442 -1.1742 -1.0608
  675SOL     OW 2023   0.785   0.835   1.613 -0.3121 -0.7434  0.6649
  675SOL    HW1 2024   0.852   0.761   1.606 -5.0425  2.8860  0.3759
  675SOL    HW2 2025   0.817   0.912   1.673 -1.5843 -0.4720 -1.6914
  676SOL     OW 2026   1.924   0.929   0.392  0.5282 -0.2860 -0.3954
  676SOL    HW1 2027   1.933   0.843   0.445  1.0683 -1.8017 -1.4650
  676SOL    HW2 2028   1.970   0.921   0.299 -0.4830 -3.1327 -3.3481
  677SOL     OW 2029   3.058   1.669   2.661 -0.2525 -0.0641 -0.2966
  677SOL    HW1 2030   3.013   1.595   2.607  1.2008 -0.3640 -1.2800
  677SOL    HW2 2031   0.007   1.631   2.741 -1.2490 -1.6013  2.2412
  678SOL     OW 2032   2.936   2.997   1.300  0.2466  0.0618  0.4411
  678SOL    HW1 2033   2.953   3.040   1.389 -0.8281 -0.8080 -0.4313
  678SOL    HW2 2034   2.973   2.899   1.302  3.7357 -1.3468 -0.7804
  679SOL     OW 2035   2.007   0.016   0.641 -0.6227 -0.3927 -0.2162
  679SOL    HW1 2036   1.983   0.044   0.740  0.8607  1.6761  2.1665
  679SOL    HW2 2037   2.045   3.021   0.649  0.1918 -0.0057  1.0740
  680SOL     OW 2038   0.318   2.300   2.145  0.0241 -0.2420  0.3947
  680SOL    HW1 2039   0.301   2.205   2.113 -0.3368  0.1235  1.9054
  680SOL    HW2 2040   0.407   2.332   2.111 -0.1936  0.5859  0.3146
  681SOL     OW 2041   0.281   1.541   1.353  0.5871 -0.3671  0.3940
  681SOL    HW1 2042   0.273   1.575   1.256  0.4768  0.3556  2.2064
  681SOL    HW2 2043   0.257   1.616   1.419 -1.3240 -0.0285 -3.2130
  682SOL     OW 2044   0.349   2.280   1.785  0.1163 -0.3263  0.4995
  682SOL    HW1 2045   0.279   2.202   1.783  0.3319 -0.2656 -2.2126
  682SOL    HW2 2046   0.303   2.370   1.802  0.3234 -0.0989  0.8302
  683SOL     OW 2047   3.005   1.904   1.501 -0.3350  0.0964 -0.2057
  683SOL    HW1 2048   2.988   2.003   1.490  1.6928  0.3202 -0.0592
  683SOL    HW2 2049   3.056   1.884   1.587  0.7999  1.6526  2.7689
  684SOL     OW 2050   2.482   1.750   0.017  0.1073  0.3305 -1.0134
  684SOL    HW1 2051   2.475   1.815   0.098 -0.8636  2.1686  0.3182
  684SOL    HW2 2052   2.564   1.691   0.028 -1.3243 -1.7430 -1.8648
  685SOL     OW 2053   1.663   0.814   0.347 -0.1947  0.0254 -0.1364
  685SOL    HW1 2054   1.743   0.875   0.366  0.4047 -3.1569  1.6313
  685SOL    HW2 2055   1.576   0.868   0.350 -0.7711  1.7310  0.0446
  686SOL     OW 2056   0.244   0.093   0.843  0.0292  0.5185 -0.1816
  686SOL    HW1 2057   0.341   0.050   0.823  3.8943  2.1388  0.3053
  686SOL    HW2 2058   0.201   0.030   0.915 -1.1813 -1.7203  2.1624
  687SOL     OW 2059   0.986   1.292   2.596 -0.0290 -0.4030 -0.1624
  687SOL    HW1 2060   1.050   1.244   2.530  1.0517  1.4084  0.7568
  687SOL    HW2 2061   1.023   1.286   2.693  0.6741  0.6770  0.6740
  688SOL     OW 2062   1.026   1.823   1.528 -0.4783 -0.0862 -0.0554
  688SOL    HW1 2063   0.931   1.806   1.503  1.2920 -0.6539  1.4095
  688SOL    HW2 2064   1.043   1.923   1.538 -1.1156  0.4159  0.0457
  689SOL     OW 2065   2.346   0.256   1.353 -0.7505  0.5662  0.4452
  689SOL    HW1 2066   2.383   0.200   1.274  0.3863  0.0496  0.0775
  689SOL    HW2 2067   2.246   0.255   1.351 -0.6503 -1.4480 -0.2114
  690SOL     OW 2068   3.062   1.546   0.838 -0.0762  0.6042  0.0524
  690SOL    HW1 2069   3.074   1.557   0.941  0.7425 -0.2593  3.8649
  690SOL    HW2 2070   0.057   1.543   0.796 -0.0797 -0.2620  2.7171
  691SOL     OW 2071   0.262   2.504   1.341 -0.6717  0.3157 -0.6639
  691SOL    HW1 2072   0.337   2.454   1.390 -2.7673 -3.5654  1.1428
  691SOL    HW2 2073   0.180   2.443   1.316 -2.8964 -2.7629  0.8622
  692SOL     OW 2074   2.031   2.987   1.071  0.2401 -0.5319  0.1284
  692SOL    HW1 2075   2.092   3.069   1.045  1.1580  0.4988 -0.4332
  692SOL    HW2 2076   2.020   2.967   1.169 -0.1999 -2.5237 -0.3615
  693SOL     OW 2077   0.427   1.828   2.372 -0.0220 -0.0934 -0.7016
  693SOL    HW1 2078   0.420   1.780   2.283  1.1133 -0.6167 -0.4823
  693SOL    HW2 2079   0.376   1.771   2.438 -0.1736  2.3684 -0.4494
  694SOL     OW 2080   1.769   0.961   1.572  0.5017  0.1978  0.9270
  694SOL    HW1 2081   1.808   1.024   1.503 -0.9984  1.1918 -0.9947
  694SOL    HW2 2082   1.701   0.902   1.527  1.0225  1.3038 -0.7415
  695SOL     OW 2083   0.805   0.825   1.343  0.3037  0.7280  0.4313
  695SOL    HW1 2084   0.794   0.822   1.445  1.0307 -0.4635  2.7129
  695SOL    HW2 2085   0.892   0.873   1.317  0.7091  0.2441 -1.5194
  696SOL     OW 2086   1.425   3.018   0.735 -0.7720  0.4519  0.0478
  696SOL    HW1 2087   1.491   2.979   0.801 -0.4193 -0.3341  0.4603
  696SOL    HW2 2088   1.402   2.952   0.663 -2.4809  3.7043  0.6527
  697SOL     OW 2089   1.107   0.423   1.490 -0.0336  0.1223  0.1183
  697SOL    HW1 2090   1.144   0.375   1.575 -0.1391 -0.2945  0.0069
  697SOL    HW2 2091   1.182   0.436   1.422 -0.6339  1.7404 -2.2092
  698SOL     OW 2092   1.535   1.061   2.127 -0.1962 -0.0972 -0.0419
  698SOL    HW1 2093   1.479   0.985   2.176 -1.1374  0.8076 -1.0593
  698SOL    HW2 2094   1.596   1.113   2.191  3.5529 -0.5843 -1.9894
  699SOL     OW 2095   1.755   0.526   1.103 -0.2520 -0.2572 -0.0158
  699SOL    HW1 2096   1.833   0.526   1.039  0.9388  0.6409  1.0490
  699SOL    HW2 2097   1.682   0.587   1.066 -2.8161 -0.1671  1.1060
  700SOL     OW 2098   0.855   2.368   0.116 -0.3090  0.0175  0.4655
  700SOL    HW1 2099   0.866   2.426   0.198 -0.3856 -2.6901 -1.6509
  700SOL    HW2 2100   0.855   2.271   0.151  0.6447 -0.2537 -1.2004
  701SOL     OW 2101   2.132   2.416   2.757  0.0888 -0.2896  0.1027
  701SOL    HW1 2102   2.041   2.373   2.771  0.9130  0.0199  0.1525
  701SOL    HW2 2103   2.153   2.444   2.658  0.2513  0.1408  1.1755
  702SOL     OW 2104   0.730   0.507   0.782 -0.0331 -0.1549 -0.2049
  702SOL    HW1 2105   0.798   0.546   0.850 -0.4549 -0.5087 -1.4451
  702SOL    HW2 2106   0.771   0.422   0.745 -0.4590 -0.2127  1.8361
  703SOL     OW 2107   2.435   0.160   2.518 -0.5621  0.3133  0.9727
  703SOL    HW1 2108   2.401   0.240   2.578 -3.5594  2.0778  0.0916
  703SOL    HW2 2109   2.473   0.194   2.431  1.2767  0.6875  3.1397
  704SOL     OW 2110   0.189   2.156   0.475  0.0606  0.5529 -0.4838
  704SOL    HW1 2111   0.232   2.242   0.437  1.5481 -1.3282 -0.5822
  704SOL    HW2 2112   0.260   2.100   0.520  1.2816 -0.1089  1.4721
  705SOL     OW 2113   2.780   2.740   2.412 -0.7370  0.4593  0.5124
  705SOL    HW1 2114   2.881   2.746   2.425  0.7186  1.3510 -1.3009
  705SOL    HW2 2115   2.733   2.828   2.414  2.1994 -0.1722 -0.7627
  706SOL     OW 2116   2.163   2.749   1.066 -0.4042 -0.0869  0.1108
  706SOL    HW1 2117   2.171   2.724   1.165 -0.6449 -0.9825  3.7274
  706SOL    HW2 2118   2.119   2.840   1.051  2.0237  1.5327 -2.0921
  707SOL     OW 2119   0.823   2.601   2.185  0.6392  0.1357  0.0880
  707SOL    HW1 2120   0.885   2.671   2.217  1.7611 -2.2927 -0.6983
  707SOL    HW2 2121   0.858   2.555   2.101  0.4910 -0.7269 -0.3806
  708SOL     OW 2122   3.079   2.178   2.237 -0.0464  0.7256 -0.0472
  708SOL    HW1 2123   3.025   2.245   2.289  1.3947 -1.9080 -0.0019
  708SOL    HW2 2124   0.077   2.173   2.271  0.2431  0.1133  0.9243
  709SOL     OW 2125   1.983   0.117   1.935  0.2046 -0.1753 -0.5903
  709SOL    HW1 2126   2.018   0.097   1.839  1.1837  3.6506 -3.4386
  709SOL    HW2 2127   1.895   0.068   1.959  0.6380  1.3292  0.6744
  710SOL     OW 2128   1.603   0.697   2.564  0.4903 -0.1327  0.0795
  710SOL    HW1 2129   1.679   0.651   2.613 -0.5929 -1.7101  0.9116
  710SOL    HW2 2130   1.534   0.630   2.527  0.3432 -1.8559  0.9433
  711SOL     OW 2131   0.695   2.108   2.745  0.1516  0.0792  0.6729
  711SOL    HW1 2132   0.791   2.093   2.769 -0.9033  0.1487  0.5374
  711SOL    HW2 2133   0.649   2.017   2.737  0.3439  0.5344  1.9020
  712SOL     OW 2134   0.320   2.444   2.631 -0.3152 -0.2337  0.1010
  712SOL    HW1 2135   0.349   2.467   2.728 -0.2901 -2.5712  0.6149
  712SOL    HW2 2136   0.401   2.472   2.570  3.0445  0.3747 -1.7634
  713SOL     OW 2137   1.610   1.435   2.437  0.4898  0.0022 -0.5533
  713SOL    HW1 2138   1.615   1.398   2.532 -0.0280  2.2908 -2.1149
  713SOL    HW2 2139   1.703   1.453   2.400 -1.5172  1.0352  0.3419
  714SOL     OW 2140   1.443   1.483   1.964 -0.0064 -0.1161  0.1630
  714SOL    HW1 2141   1.433   1.492   1.862  0.6797 -3.6139 -0.9731
  714SOL    HW2 2142   1.386   1.410   2.001 -0.9771 -1.1689 -0.6305
  715SOL     OW 2143   2.037   0.679   2.489 -0.4999  0.4522 -0.6578
  715SOL    HW1 2144   2.022   0.584   2.531  0.3911  1.5095 -1.2548
  715SOL    HW2 2145   2.029   0.750   2.567  1.5051  2.4658  0.2861
  716SOL     OW 2146   2.909   2.165   1.585 -0.2575  0.0793  0.3783
  716SOL    HW1 2147   2.914   2.146   1.684  2.0784  0.7341 -2.0752
  716SOL    HW2 2148   2.951   2.253   1.560  2.4371 -0.6646  0.3407
  717SOL     OW 2149   2.537   1.441   0.593  0.1277  0.3393 -0.1482
  717SOL    HW1 2150   2.547   1.497   0.680  0.1239 -0.4032  3.0633
  717SOL    HW2 2151   2.476   1.361   0.606  0.6180 -2.0190 -0.7980
  718SOL     OW 2152   1.069   1.946   2.045 -0.4621 -0.1744 -0.4680
  718SOL    HW1 2153   1.157   1.983   2.082 -1.9152 -0.5817 -0.5166
  718SOL    HW2 2154   1.033   1.869   2.100 -0.0476 -1.0844  0.4385
  719SOL     OW 2155   2.086   0.926   2.617 -0.1303  0.0219 -0.4059
  719SOL    HW1 2156   2.004   0.921   2.563  2.3628 -0.0768  3.0939
  719SOL    HW2 2157   2.069   0.993   2.692  0.3531  0.4929  2.9876
  720SOL     OW 2158   0.522   0.458   0.934 -0.3087 -0.1570  0.4792
  720SOL    HW1 2159   0.595   0.487   0.870 -0.8152  2.3644 -0.4026
  720SOL    HW2 2160   0.447   0.411   0.880 -1.0869  1.1254 -1.8437
  721SOL     OW 2161   2.819   0.731   0.564 -0.0381 -0.1563 -0.7458
  721SOL    HW1 2162   2.835   0.651   0.499 -0.9620 -0.4498  0.4806
  721SOL    HW2 2163   2.836   0.814   0.513  0.2747 -5.3585 -0.1315
  722SOL     OW 2164   2.960   0.355   2.562 -0.4392 -0.3813 -0.2766
  722SOL    HW1 2165   2.930   0.299   2.639  2.6626  0.9712 -0.3217
  722SOL    HW2 2166   3.030   0.432   2.585  0.3943  4.0108  2.3759
  723SOL     OW 2167   1.567   0.242   0.380 -0.0705  0.1642 -0.1406
  723SOL    HW1 2168   1.496   0.309   0.409 -0.5289  1.6192  0.7646
  723SOL    HW2 2169   1.538   0.146   0.389  2.8180  1.5051 -1.4215
  724SOL     OW 2170   0.699   1.837   2.318 -0.6519 -0.4198  0.3050
  724SOL    HW1 2171   0.607   1.860   2.356  0.0585 -0.4737 -2.3043
  724SOL    HW2 2172   0.759   1.925   2.306 -1.0959  2.8779 -1.4371
  725SOL     OW 2173   1.602   2.931   0.968 -0.4284 -0.2259 -0.3243
  725SOL    HW1 2174   1.655   2.875   0.898  3.3588 -1.0536  0.8438
  725SOL    HW2 2175   1.670   2.992   1.011  2.4329  1.7642  1.6412
  726SOL     OW 2176   1.789   2.416   0.072 -0.5604  0.2041 -0.3411
  726SOL    HW1 2177   1.825   2.345   0.011 -1.1428  1.1772  3.0327
  726SOL    HW2 2178   1.866   2.444   0.125 -2.0056  0.0107  0.1767
  727SOL     OW 2179   1.707   1.486   1.230  0.4383 -0.0115 -0.4409
  727SOL    HW1 2180   1.677   1.482   1.326  2.7680 -1.3373 -2.4825
  727SOL    HW2 2181   1.772   1.564   1.231 -2.8305 -0.7564  0.3339
  728SOL     OW 2182   2.172   2.805   1.757  0.1738  0.4448 -0.4419
  728SOL    HW1 2183   2.226   2.847   1.681  0.7355 -0.7576 -0.1319
  728SOL    HW2 2184   2.159   2.706   1.746  0.2734  2.3840 -0.5708
  729SOL     OW 2185   2.150   1.971   1.344  0.2973 -0.2486  0.0441
  729SOL    HW1 2186   2.175   1.930   1.435  4.4218 -0.8404  0.6797
  729SOL    HW2 2187   2.166   1.895   1.276  2.6087  0.9704 -0.9273
  730SOL     OW 2188   1.680   0.748   2.922  0.0077  0.5680  0.1608
  730SOL    HW1 2189   1.603   0.705   2.872  1.3504 -0.1777 -0.2627
  730SOL    HW2 2190   1.773   0.725   2.884 -1.3705 -0.3694  2.3885
  731SOL     OW 2191   0.300   0.355   0.780  0.4112 -0.3005 -0.7645
  731SOL    HW1 2192   0.220   0.416   0.761 -0.6047 -2.6044  0.9431
  731SOL    HW2 2193   0.274   0.262   0.805  1.1272  3.1158  0.8677
  732SOL     OW 2194   1.452   0.188   0.660  0.2731  0.0775  0.1133
  732SOL    HW1 2195   1.421   0.201   0.561 -0.1067 -2.6055  0.7550
  732SOL    HW2 2196   1.457   0.091   0.685  1.9647  1.1942 -2.0066
  733SOL     OW 2197   0.630   1.760   1.466 -0.4074  0.1031 -0.0360
  733SOL    HW1 2198   0.592   1.668   1.446  0.6671  3.2305  0.6135
  733SOL    HW2 2199   0.633   1.817   1.380 -3.5696 -0.2968  0.7475
  734SOL     OW 2200   2.813   2.695   3.088  0.2807 -0.2644 -0.5834
  734SOL    HW1 2201   2.852   2.721   2.997 -1.6502  1.3736  0.9182
  734SOL    HW2 2202   2.782   2.598   3.091  0.6930 -0.3783  1.4457
  735SOL     OW 2203   1.078   3.066   1.205 -0.2457 -0.1422  0.0885
  735SOL    HW1 2204   1.034   0.048   1.164  2.0356  0.0084  0.5177
  735SOL    HW2 2205   1.155   3.042   1.144 -1.2265 -1.4354 -3.2658
  736SOL     OW 2206   1.931   1.960   0.433  0.3127  0.1594 -0.2759
  736SOL    HW1 2207   1.968   1.874   0.399  0.8371  0.2275 -0.9495
  736SOL    HW2 2208   1.949   2.030   0.363  2.1662  0.3272  0.2308
  737SOL     OW 2209   0.039   1.635   1.082  0.0008  0.0393  0.0257
  737SOL    HW1 2210   0.139   1.607   1.086  1.7358 -2.6768  1.5325
  737SOL    HW2 2211   0.006   1.672   1.171  1.4666  1.2625 -1.5002
  738SOL     OW 2212   2.127   2.154   2.568 -0.4325  0.4200 -0.1897
  738SOL    HW1 2213   2.207   2.195   2.522 -2.7982 -0.4462  1.2887
  738SOL    HW2 2214   2.086   2.229   2.624 -1.2203  2.6371  1.9092
  739SOL     OW 2215   1.111   1.924   2.627  0.5031  0.0574  0.1129
  739SOL    HW1 2216   1.117   2.001   2.560 -3.6618 -1.9549  0.6074
  739SOL    HW2 2217   1.043   1.942   2.703 -0.6893 -1.1002  0.4802
  740SOL     OW 2218   1.359   2.928   1.084  0.0820 -0.0838  0.4163
  740SOL    HW1 2219   1.453   2.919   1.043 -0.3542 -0.1894 -1.2940
  740SOL    HW2 2220   1.292   2.934   1.008 -3.2083  1.3143  1.4551
  741SOL     OW 2221   0.147   1.172   0.791  0.2075  0.0358 -0.2154
  741SOL    HW1 2222   0.075   1.099   0.794 -2.6261  0.7996  0.8644
  741SOL    HW2 2223   0.237   1.137   0.824  1.8006  1.0808  2.6496
  742SOL     OW 2224   0.684   1.581   2.333 -0.1065 -0.2944 -0.0651
  742SOL    HW1 2225   0.761   1.550   2.393  1.3550 -1.0982 -0.9437
  742SOL    HW2 2226   0.681   1.680   2.322 -1.4690  2.0590 -1.7512
  743SOL     OW 2227   1.186   0.955   2.066 -0.3908 -0.1169  0.3480
  743SOL    HW1 2228   1.126   1.010   2.126  1.3934  0.2822  0.3928
  743SOL    HW2 2229   1.231   1.016   1.997  3.6588 -0.5944  1.7562
  744SOL     OW 2230   1.882   0.217   1.688  0.0873 -0.1642  0.7110
  744SOL    HW1 2231   1.825   0.256   1.762  2.6957 -0.7075  0.4617
  744SOL    HW2 2232   1.914   0.288   1.625 -0.3857  2.1322  0.1334
  745SOL     OW 2233   2.345   1.325   1.523  0.3607  0.0774 -0.2153
  745SOL    HW1 2234   2.376   1.410   1.567  0.3506  0.1875 -3.1985
  745SOL    HW2 2235   2.242   1.339   1.511 -0.5782 -0.9180  1.2479
  746SOL     OW 2236   1.957   1.221   0.445 -0.3755 -0.5327  0.3605
  746SOL    HW1 2237   1.909   1.263   0.366 -2.0232 -2.4921 -1.7964
  746SOL    HW2 2238   1.939   1.118   0.445  1.9267  1.2461  0.5697
  747SOL     OW 2239   2.579   1.568   0.821 -0.4055  0.4092 -1.0685
  747SOL    HW1 2240   2.679   1.565   0.804 -0.2950  0.2691  1.3339
  747SOL    HW2 2241   2.552   1.665   0.830 -2.3866  0.8090 -0.7006
  748SOL     OW 2242   0.363   1.766   0.484  0.3705 -0.0148  0.1012
  748SOL    HW1 2243   0.340   1.744   0.389  0.6492 -0.0264 -1.6152
  748SOL    HW2 2244   0.326   1.694   0.546 -2.5412 -0.9303 -0.1681
  749SOL     OW 2245   2.868   2.460   2.623  0.4317  0.6654  0.4403
  749SOL    HW1 2246   2.797   2.389   2.605 -0.4702 -0.8953 -1.3994
  749SOL    HW2 2247   2.818   2.541   2.660  2.2351 -1.1755 -0.0728
  750SOL     OW 2248   2.336   0.739   0.743 -0.2143 -0.3142  0.2895
  750SOL    HW1 2249   2.399   0.819   0.722  2.2018  1.7775  2.8940
  750SOL    HW2 2250   2.350   0.689   0.830 -0.6994 -0.0736 -0.5289
  751SOL     OW 2251   2.526   2.949   0.062  0.1609 -0.0297 -0.0940
  751SOL    HW1 2252   2.489   3.042   0.044 -0.5517  0.4584 -0.8712
  751SOL    HW2 2253   2.551   2.911   3.071 -2.1764 -1.2170  0.7012
  752SOL     OW 2254   2.914   2.887   0.918  0.2126  0.2759 -0.6682
  752SOL    HW1 2255   2.922   2.976   0.967  0.4431  0.4415  0.6165
  752SOL    HW2 2256   2.972   2.820   0.966 -2.2486 -0.6633 -0.4783
  753SOL     OW 2257   1.687   1.159   2.307  0.2772 -0.3162 -0.0749
  753SOL    HW1 2258   1.766   1.223   2.306 -0.8912  1.5129  1.0377
  753SOL    HW2 2259   1.644   1.143   2.401 -2.5238 -0.6330  0.1972
  754SOL     OW 2260   1.868   2.028   1.705 -0.4132  0.3384  0.1958
  754SOL    HW1 2261   1.812   1.980   1.633  0.0056  0.2693 -1.1081
  754SOL    HW2 2262   1.947   1.966   1.732  0.2951  1.9064 -0.4323
  755SOL     OW 2263   2.653   0.977   0.817  0.2204 -0.1540 -0.2175
  755SOL    HW1 2264   2.631   0.879   0.809 -2.0295  0.9988  0.7666
  755SOL    HW2 2265   2.585   1.029   0.869  2.4814 -2.6866 -0.7419
  756SOL     OW 2266   0.639   1.333   2.982  0.2467  0.0653  0.3612
  756SOL    HW1 2267   0.543   1.300   2.968 -0.1897  0.1918 -3.2308
  756SOL    HW2 2268   0.700   1.316   2.900 -2.6068  2.4542 -0.9199
  757SOL     OW 2269   1.864   2.410   1.117 -0.4462  0.0088 -0.1114
  757SOL    HW1 2270   1.808   2.418   1.035  0.8348  0.5971 -0.4100
  757SOL    HW2 2271   1.963   2.417   1.095 -0.3378  0.5688 -0.4900
  758SOL     OW 2272   1.212   2.420   1.697 -0.1515 -0.0435  0.1475
  758SOL    HW1 2273   1.307   2.420   1.656  0.5373  0.0831 -0.7344
  758SOL    HW2 2274   1.177   2.515   1.719 -0.8347  1.1637  2.3436
  759SOL     OW 2275   2.908   1.291   0.993  0.1750 -0.3910  0.5011
  759SOL    HW1 2276   2.851   1.363   1.042 -1.7465  0.3301 -1.7121
  759SOL    HW2 2277   2.879   1.272   0.893 -1.7455  1.2299 -2.0675
  760SOL     OW 2278   2.291   1.068   1.470 -0.5337  0.9051  0.0392
  760SOL    HW1 2279   2.198   1.045   1.426 -2.1402 -0.9878  0.2273
  760SOL    HW2 2280   2.312   1.168   1.463 -2.8416  0.7057  1.4163
  761SOL     OW 2281   1.728   3.038   0.090 -0.4147  0.0244  0.0038
  761SOL    HW1 2282   1.729   3.088   0.181  0.5624 -3.3582 -0.0943
  761SOL    HW2 2283   1.783   3.091   0.021 -2.1145  0.8543 -0.4609
  762SOL     OW 2284   1.796   1.567   2.842 -0.4558  0.5221  0.5486
  762SOL    HW1 2285   1.765   1.655   2.794 -0.5640 -0.8261  0.8791
  762SOL    HW2 2286   1.889   1.576   2.888  4.8009 -1.7680 -1.8242
  763SOL     OW 2287   0.550   2.155   1.645  0.5689  0.7497  0.4013
  763SOL    HW1 2288   0.539   2.052   1.649 -2.1926  0.0535  1.1448
  763SOL    HW2 2289   0.461   2.193   1.677 -0.0768 -3.2859 -0.2524
  764SOL     OW 2290   3.096   2.413   0.037  0.0902  0.4742  0.1471
  764SOL    HW1 2291   2.995   2.434   0.036 -0.9728 -0.4996 -1.0353
  764SOL    HW2 2292   0.040   2.478   3.069 -1.0016  1.5386  0.3899
  765SOL     OW 2293   0.505   3.090   1.211  0.5469 -0.4133 -0.2059
  765SOL    HW1 2294   0.536   0.062   1.148 -1.6725 -2.6495 -0.5683
  765SOL    HW2 2295   0.560   3.003   1.209 -0.6180  0.1232 -0.0623
  766SOL     OW 2296   2.765   2.168   2.244 -0.6434  0.2181 -0.0555
  766SOL    HW1 2297   2.840   2.174   2.177 -0.1322 -1.2569  0.1183
  766SOL    HW2 2298   2.750   2.071   2.261 -0.4905  2.6055  1.4007
  767SOL     OW 2299   2.709   0.832   2.097  0.1246 -0.3827  0.0587
  767SOL    HW1 2300   2.642   0.854   2.024  0.9783  0.2198 -2.1853
  767SOL    HW2 2301   2.803   0.855   2.067 -0.1529  0.5710 -0.3988
  768SOL     OW 2302   0.920   0.300   2.542  0.1579 -0.1577 -0.4451
  768SOL    HW1 2303   0.823   0.312   2.557  0.2082  0.3519 -1.4968
  768SOL    HW2 2304   0.958   0.226   2.601 -1.2474  0.3841 -1.1780
  769SOL     OW 2305   2.580   2.866   0.857  0.6841  0.1033 -0.4135
  769SOL    HW1 2306   2.646   2.818   0.791  0.3717 -4.7974  0.6539
  769SOL    HW2 2307   2.495   2.813   0.868  0.2734  1.2187  1.0859
  770SOL     OW 2308   0.327   2.965   2.793 -0.2439  0.5553 -0.6598
  770SOL    HW1 2309   0.336   3.005   2.703 -0.9983 -2.0735  0.9122
  770SOL    HW2 2310   0.234   2.975   2.832 -0.1412  0.1385 -0.2398
  771SOL     OW 2311   1.668   1.994   1.911  0.1377 -0.2317  0.0693
  771SOL    HW1 2312   1.729   2.024   1.836 -2.9097 -0.0127  0.4903
  771SOL    HW2 2313   1.665   1.894   1.915  4.4739 -0.4899 -1.0314
  772SOL     OW 2314   1.187   0.043   2.942  0.1736  0.1396  0.4294
  772SOL    HW1 2315   1.115   3.085   2.989  0.3127  2.9487  1.7763
  772SOL    HW2 2316   1.278   0.002   2.947 -0.0891 -1.1022 -0.3325
  773SOL     OW 2317   2.463   0.660   1.521 -0.1488 -0.0919 -0.4088
  773SOL    HW1 2318   2.547   0.716   1.544 -3.6187 -0.8045 -1.6770
  773SOL    HW2 2319   2.384   0.685   1.577  1.6706  0.3049  0.1395
  774SOL     OW 2320   0.895   1.204   1.224  0.4078 -0.0763  0.6058
  774SOL    HW1 2321   0.984   1.226   1.174  1.3759 -1.1807  1.9476
  774SOL    HW2 2322   0.835   1.132   1.181 -0.0983  0.2054 -0.2143
  775SOL     OW 2323   2.011   2.670   2.968 -1.2943 -0.1571 -0.5484
  775SOL    HW1 2324   1.972   2.713   3.055 -1.7223  0.9852  0.7530
  775SOL    HW2 2325   2.114   2.688   2.967  2.4709  1.4160 -1.2017
  776SOL     OW 2326   2.338   0.894   1.657  0.4157  0.6254 -0.0472
  776SOL    HW1 2327   2.371   0.956   1.734 -0.3632  0.9267 -0.4644
  776SOL    HW2 2328   2.329   0.956   1.574  0.1680 -1.6292 -1.7276
  777SOL     OW 2329   0.299   1.284   2.152 -0.2243  0.2759  1.0701
  777SOL    HW1 2330   0.252   1.299   2.239  2.7080  0.5905 -0.7944
  777SOL    HW2 2331   0.387   1.336   2.149 -1.0096  1.8239 -0.7068
  778SOL     OW 2332   0.301   0.607   0.106 -0.1629 -0.0596  0.2368
  778SOL    HW1 2333   0.281   0.711   0.116 -0.7425  0.8872 -1.6033
  778SOL    HW2 2334   0.331   0.576   0.013 -2.5830 -2.1437 -4.0276
  779SOL     OW 2335   0.657   0.327   2.526 -0.2860 -0.2383  0.0231
  779SOL    HW1 2336   0.649   0.306   2.425 -1.1071  0.8078  1.2160
  779SOL    HW2 2337   0.644   0.243   2.579  0.8299 -0.5034 -2.9589
  780SOL     OW 2338   2.046   1.277   2.590 -0.2856 -0.4194 -0.3706
  780SOL    HW1 2339   2.032   1.225   2.676  0.0498 -1.9368  1.0474
  780SOL    HW2 2340   2.115   1.228   2.536 -0.1619  0.8234  1.3103
  781SOL     OW 2341   2.974   1.135   1.932  0.2566  0.1801 -0.2778
  781SOL    HW1 2342   2.930   1.142   1.844  1.6673  0.2489  1.1787
  781SOL    HW2 2343   2.987   1.040   1.960  1.7349  2.1007 -2.9206
  782SOL     OW 2344   0.471   1.577   2.669  0.6570 -0.0901 -0.0629
  782SOL    HW1 2345   0.554   1.542   2.613  2.7593  0.7215  1.5663
  782SOL    HW2 2346   0.393   1.565   2.612 -0.4060  2.2930 -0.2306
  783SOL     OW 2347   1.063   2.045   1.133 -0.2477 -0.1393 -0.4710
  783SOL    HW1 2348   1.130   2.067   1.211  2.8918  0.7737 -0.1901
  783SOL    HW2 2349   1.089   2.101   1.052 -2.1951 -1.0691 -0.6054
  784SOL     OW 2350   1.792   0.525   2.669  0.1018  0.1346 -0.3516
  784SOL    HW1 2351   1.749   0.459   2.734  0.9427 -1.9859  1.4884
  784SOL    HW2 2352   1.888   0.491   2.649 -0.3540  2.1066 -3.1452
  785SOL     OW 2353   0.773   0.092   1.954  0.0455 -0.4871 -0.3180
  785SOL    HW1 2354   0.831   0.014   1.988 -1.2136 -2.4805 -0.1143
  785SOL    HW2 2355   0.818   0.148   1.880 -1.1474  0.3330  0.3583
  786SOL     OW 2356   0.544   1.916   0.339  0.1621 -0.1412  0.1534
  786SOL    HW1 2357   0.477   1.859   0.396 -3.0187  0.0855  0.1154
  786SOL    HW2 2358   0.504   2.010   0.327 -2.0555 -0.8799 -0.8091
  787SOL     OW 2359   1.216   0.649   0.578  0.0085  0.4403  0.0988
  787SOL    HW1 2360   1.224   0.672   0.481 -2.2808  0.6149  0.8842
  787SOL    HW2 2361   1.137   0.706   0.616 -1.0216  2.3031 -0.7550
  788SOL     OW 2362   2.796   1.746   1.139  0.2120  0.2280  0.0057
  788SOL    HW1 2363   2.892   1.719   1.165 -2.8690  0.5578  0.4131
  788SOL    HW2 2364   2.768   1.823   1.199 -0.8875 -1.5310 -1.0175
  789SOL     OW 2365   2.619   1.020   2.265 -0.5658  0.0968 -0.2561
  789SOL    HW1 2366   2.646   0.959   2.191 -0.4061 -1.7237 -0.9105
  789SOL    HW2 2367   2.617   1.118   2.231  1.7611  0.5944 -1.2562
  790SOL     OW 2368   0.672   0.379   0.176  0.5346 -0.2782  0.4763
  790SOL    HW1 2369   0.655   0.348   0.272 -0.3649  0.9710  0.3821
  790SOL    HW2 2370   0.740   0.322   0.126 -1.2663  1.3541  0.6972
  791SOL     OW 2371   2.905   0.408   3.007 -0.1661 -0.0934  0.2669
  791SOL    HW1 2372   2.805   0.414   3.004  2.6973  0.5578 -1.1307
  791SOL    HW2 2373   2.942   0.412   0.004  1.1779  1.2279 -1.0574
  792SOL     OW 2374   1.399   0.557   2.461  0.0067  0.5270  0.4530
  792SOL    HW1 2375   1.306   0.514   2.464  1.5296 -0.0636  0.3210
  792SOL    HW2 2376   1.421   0.604   2.377  0.6541  0.1759  2.0966
  793SOL     OW 2377   2.954   0.355   0.858  0.5839 -0.3602 -0.0514
  793SOL    HW1 2378   2.875   0.314   0.804 -2.9675 -0.2835  1.1291
  793SOL    HW2 2379   2.969   0.300   0.942  0.6362  1.0598  1.6311
  794SOL     OW 2380   0.300   0.479   1.956  0.2068 -0.0787 -0.2443
  794SOL    HW1 2381   0.355   0.517   2.032 -0.5670  0.2375 -3.2157
  794SOL    HW2 2382   0.223   0.540   1.941  0.7763 -1.5610 -0.5529
  795SOL     OW 2383   0.458   1.194   0.580  0.2088 -0.2110 -0.6088
  795SOL    HW1 2384   0.545   1.250   0.575  0.4984 -1.4834  0.3826
  795SOL    HW2 2385   0.425   1.162   0.671  2.1699 -0.0898 -0.7750
  796SOL     OW 2386   0.062   1.075   3.047  0.0237 -0.1315 -0.0739
  796SOL    HW1 2387   0.029   1.033   0.033  0.9715  1.6621 -2.9389
  796SOL    HW2 2388   0.112   1.004   2.993  0.4655 -1.8278 -3.6894
  797SOL     OW 2389   1.906   2.479   2.462 -0.0257  0.2229  0.2447
  797SOL    HW1 2390   2.009   2.469   2.471  1.1241  1.4844  1.1427
  797SOL    HW2 2391   1.878   2.578   2.442 -1.0440  3.4728  0.1311
  798SOL     OW 2392   0.196   0.127   1.454  0.1317  0.5190  0.6397
  798SOL    HW1 2393   0.271   0.199   1.463 -1.9397 -0.1476  0.8678
  798SOL    HW2 2394   0.218   0.049   1.522 -1.5628 -3.5727  1.0202
  799SOL     OW 2395   2.427   0.666   1.921  0.1189 -0.4495 -0.2583
  799SOL    HW1 2396   2.346   0.672   1.863 -0.8840  2.6473 -0.8264
  799SOL    HW2 2397   2.490   0.587   1.893  1.0858 -3.4582 -2.4913
  800SOL     OW 2398   0.075   1.783   0.641 -0.1146  0.5186 -0.4036
  800SOL    HW1 2399   0.004   1.766   0.570  1.0489 -0.3709 -1.0523
  800SOL    HW2 2400   0.147   1.715   0.637 -2.3944 -1.2187  1.8892
  801SOL     OW 2401   1.532   1.799   0.630 -0.3177 -0.5003  0.2966
  801SOL    HW1 2402   1.492   1.751   0.709 -0.4713 -0.5616 -0.8296
  801SOL    HW2 2403   1.636   1.798   0.635  0.4763 -1.8379 -1.8526
  802SOL     OW 2404   1.221   1.090   2.740  0.8051  0.4066 -0.0893
  802SOL    HW1 2405   1.180   1.175   2.771  2.6002 -2.9591 -2.8041
  802SOL    HW2 2406   1.232   1.100   2.641 -0.5473  1.9765 -0.3289
  803SOL     OW 2407   0.150   2.101   1.811  0.4221 -0.6715  0.4046
  803SOL    HW1 2408   0.096   2.155   1.881 -0.1105  1.0588  1.1233
  803SOL    HW2 2409   0.096   2.017   1.797 -1.4043  0.5816 -1.6790
  804SOL     OW 2410   1.641   2.316   0.929 -0.4550  0.4301 -0.1171
  804SOL    HW1 2411   1.725   2.263   0.910  2.8179  0.4749 -0.1843
  804SOL    HW2 2412   1.577   2.245   0.970 -0.4544 -3.6557 -0.6112
  805SOL     OW 2413   2.578   2.202   2.656  0.1150  0.2422  0.3129
  805SOL    HW1 2414   2.566   2.257   2.741 -0.7628  0.9523  3.4689
  805SOL    HW2 2415   2.568   2.102   2.681 -0.2320 -2.9915  0.3803
  806SOL     OW 2416   2.781   0.213   0.702 -0.7463 -0.2004  0.0271
  806SOL    HW1 2417   2.757   0.158   0.784  0.7488  0.7833 -0.4095
  806SOL    HW2 2418   2.859   0.170   0.652  0.3497 -2.4409  0.5649
  807SOL     OW 2419   2.818   1.265   2.848  0.2489 -0.1134 -0.5347
  807SOL    HW1 2420   2.780   1.302   2.931  0.8870  1.4296 -2.2176
  807SOL    HW2 2421   2.746   1.266   2.773 -3.6489  1.3778 -2.7085
  808SOL     OW 2422   0.743   1.854   0.852  0.3033  0.0228  0.2420
  808SOL    HW1 2423   0.697   1.914   0.778 -1.0925 -0.3346 -1.6141
  808SOL    HW2 2424   0.697   1.759   0.864 -1.6241 -1.8513 -0.3217
  809SOL     OW 2425   2.844   0.034   2.256  0.5540  0.3532  0.6629
  809SOL    HW1 2426   2.753   0.041   2.206  0.2131  0.3990  0.4159
  809SOL    HW2 2427   2.885   0.128   2.262 -2.5074  2.1211  0.5662
  810SOL     OW 2428   1.301   0.817   0.935 -0.9319 -0.0438  0.3041
  810SOL    HW1 2429   1.389   0.768   0.958  0.0316  1.3562 -0.3665
  810SOL    HW2 2430   1.329   0.902   0.893 -1.1841 -4.0588  1.6280
  811SOL     OW 2431   1.718   2.737   1.916 -0.0773  0.0290 -0.0498
  811SOL    HW1 2432   1.776   2.723   1.996 -2.6961  2.0107 -0.7035
  811SOL    HW2 2433   1.711   2.838   1.910 -1.5151  1.5524 -1.3976
  812SOL     OW 2434   1.797   2.326   0.460  0.0962  0.2042 -0.1765
  812SOL    HW1 2435   1.721   2.255   0.469 -1.6694 -3.0711 -0.7282
  812SOL    HW2 2436   1.762   2.416   0.493  0.4766 -0.5252  0.7691
  813SOL     OW 2437   1.134   0.320   1.971  0.3030 -0.6717 -0.5309
  813SOL    HW1 2438   1.063   0.364   2.032  0.1846  0.2502  0.4862
  813SOL    HW2 2439   1.220   0.369   1.992  0.7928  0.0393  0.3408
  814SOL     OW 2440   0.245   3.064   1.238 -0.1262  0.4299 -0.0793
  814SOL    HW1 2441   0.347   3.077   1.229 -2.0342 -0.1485 -0.2390
  814SOL    HW2 2442   0.214   0.018   1.322  1.1665 -0.0771 -0.9369
  815SOL     OW 2443   0.124   3.085   0.598 -0.2744  0.3397 -0.1212
  815SOL    HW1 2444   0.079   2.992   0.614  0.3205 -3.3170 -3.3944
  815SOL    HW2 2445   0.178   0.013   0.680 -0.5898 -0.1939 -1.1938
  816SOL     OW 2446   2.503   1.800   2.145  0.1361 -0.3036  0.7421
  816SOL    HW1 2447   2.416   1.853   2.121 -3.8872  1.4165  0.5485
  816SOL    HW2 2448   2.522   1.808   2.241 -3.9853 -1.1856 -1.5282
  817SOL     OW 2449   1.180   0.022   0.679  0.3685  0.5164 -0.2289
  817SOL    HW1 2450   1.150   0.078   0.759  0.0798  0.6422 -2.9376
  817SOL    HW2 2451   1.262   3.059   0.701 -0.0742 -1.5416  2.4650
  818SOL     OW 2452   1.893   0.529   0.115 -0.1905  0.2988  0.0610
  818SOL    HW1 2453   1.865   0.442   0.065 -2.9204 -3.8932 -0.5058
  818SOL    HW2 2454   1.817   0.558   0.174  3.7290 -1.1946  0.2198
  819SOL     OW 2455   2.081   3.094   0.150 -0.5886  0.7237 -0.1811
  819SOL    HW1 2456   2.122   0.050   0.230 -0.7489 -0.3100  2.6500
  819SOL    HW2 2457   2.121   2.999   0.141  1.0633 -0.1306 -0.7562
  820SOL     OW 2458   1.631   1.348   2.701 -0.4166 -0.3416  0.1274
  820SOL    HW1 2459   1.589   1.295   2.785  2.0676 -0.8059  1.8639
  820SOL    HW2 2460   1.696   1.417   2.735  1.5367 -3.9420 -2.1907
  821SOL     OW 2461   0.143   0.507   1.247  0.2489 -0.2726 -0.2003
  821SOL    HW1 2462   0.170   0.414   1.220 -1.3852 -1.3834 -1.5000
  821SOL    HW2 2463   0.152   0.568   1.163 -0.9754 -1.5224 -0.3464
  822SOL     OW 2464   1.255   2.757   2.433 -0.1176  0.1108  0.0150
  822SOL    HW1 2465   1.292   2.678   2.487  0.1332  1.1918  2.1079
  822SOL    HW2 2466   1.229   2.834   2.503  1.0344 -0.2683  4.2927
  823SOL     OW 2467   0.388   1.661   1.753 -0.6131 -0.2558  0.0516
  823SOL    HW1 2468   0.431   1.744   1.708  0.6672  1.5614  0.5000
  823SOL    HW2 2469   0.451   1.583   1.739 -1.2115  1.0336  1.6589
  824SOL     OW 2470   1.660   2.609   2.318  0.1785 -0.3083  0.7892
  824SOL    HW1 2471   1.646   2.530   2.254  3.0632 -1.9722  0.0985
  824SOL    HW2 2472   1.580   2.672   2.317 -1.1608 -0.3785  0.3010
  825SOL     OW 2473   1.638   1.138   0.136 -0.1589  0.0875 -0.0098
  825SOL    HW1 2474   1.731   1.170   0.102  0.0022  1.2086 -2.4703
  825SOL    HW2 2475   1.608   1.186   0.220 -0.2160 -0.9233 -3.0238
  826SOL     OW 2476   2.206   0.783   3.022  0.3359  0.1677 -0.2461
  826SOL    HW1 2477   2.254   0.858   2.973  1.0514 -1.4881  0.2032
  826SOL    HW2 2478   2.249   0.692   3.008 -4.0727  1.2954  1.4347
  827SOL     OW 2479   0.478   2.191   2.923 -0.5952  0.7962  0.4920
  827SOL    HW1 2480   0.390   2.184   2.875  0.8460  0.3508  2.5213
  827SOL    HW2 2481   0.559   2.199   2.862  2.9691  0.5485  0.9154
  828SOL     OW 2482   2.568   1.074   1.231  0.3993 -0.0365  0.4930
  828SOL    HW1 2483   2.527   0.999   1.287 -0.6602 -1.2296  1.9129
  828SOL    HW2 2484   2.511   1.158   1.232 -0.3500  1.8769  0.2354
  829SOL     OW 2485   0.635   1.629   0.934 -0.0929 -0.4217 -0.6076
  829SOL    HW1 2486   0.580   1.692   1.003 -4.2738  0.0905  4.1867
  829SOL    HW2 2487   0.681   1.558   0.991  2.4294 -1.6127 -0.9291
  830SOL     OW 2488   1.105   1.230   1.396  0.2675 -0.2143 -0.4646
  830SOL    HW1 2489   1.117   1.142   1.443 -3.0778 -1.1926  1.7489
  830SOL    HW2 2490   1.010   1.224   1.352 -3.3304 -0.3046  0.7546
  831SOL     OW 2491   0.333   2.042   0.138 -0.0968 -0.3072  0.9462
  831SOL    HW1 2492   0.263   2.058   0.068  3.5819  4.2581  2.7481
  831SOL    HW2 2493   0.372   2.132   0.171 -0.2604  0.4451  1.5371
  832SOL     OW 2494   0.651   0.196   2.903  0.7139 -0.0223  0.6229
  832SOL    HW1 2495   0.558   0.173   2.946 -0.9070  0.2024  2.2016
  832SOL    HW2 2496   0.731   0.216   2.969  0.6651  0.0073 -0.4478
  833SOL     OW 2497   0.691   0.557   1.987 -0.1591 -0.1372  0.3684
  833SOL    HW1 2498   0.785   0.566   1.950  2.3354 -1.1715 -0.3701
  833SOL    HW2 2499   0.671   0.457   1.987  1.6564  0.1132 -1.0304
  834SOL     OW 2500   0.066   0.503   0.806  0.0569 -0.0107 -0.4270
  834SOL    HW1 2501   3.094   0.436   0.826  0.1062 -1.2259 -1.0775
  834SOL    HW2 2502   0.020   0.581   0.766 -0.0209 -2.0005 -2.6617
  835SOL     OW 2503   2.920   0.020   1.071  0.6894 -0.2416  0.1889
  835SOL    HW1 2504   2.957   0.113   1.070  0.9205 -1.6859 -2.2594
  835SOL    HW2 2505   2.916   3.084   1.171  0.8819  0.8879  0.2737
  836SOL     OW 2506   0.211   2.199   2.815  0.4818  0.7503  0.1849
  836SOL    HW1 2507   0.153   2.271   2.774 -1.8629  0.9105  2.5454
  836SOL    HW2 2508   0.187   2.190   2.913 -1.2895  2.3022 -0.4063
  837SOL     OW 2509   1.563   1.768   2.830 -0.3837 -0.4364 -0.1855
  837SOL    HW1 2510   1.640   1.830   2.868  2.0942  2.6082 -2.7382
  837SOL    HW2 2511   1.503   1.826   2.771 -0.9994 -2.8598  0.5217
  838SOL     OW 2512   2.924   0.894   1.501  0.2603 -0.7686  0.3532
  838SOL    HW1 2513   2.961   0.872   1.406  2.0953 -1.7860 -1.0752
  838SOL    HW2 2514   2.960   0.985   1.534 -0.2576  1.8898  0.9434
  839SOL     OW 2515   0.940   1.050   0.953 -0.3183 -0.2349 -0.5176
  839SOL    HW1 2516   1.000   1.120   0.905  0.2468  0.0906 -2.2380
  839SOL    HW2 2517   0.874   1.008   0.889  1.6644  1.5619 -0.1878
  840SOL     OW 2518   1.511   2.980   1.644 -0.4570 -0.4605 -0.0409
  840SOL    HW1 2519   1.612   2.995   1.629  2.0030  1.0938  0.6806
  840SOL    HW2 2520   1.473   2.931   1.565  3.8179  1.5510  0.0561
  841SOL     OW 2521   0.588   2.516   0.480 -0.1574  0.2781  0.7230
  841SOL    HW1 2522   0.565   2.539   0.382 -0.0973  1.2444 -1.2215
  841SOL    HW2 2523   0.501   2.521   0.536  0.6511 -1.3606  0.1990
  842SOL     OW 2524   0.486   0.853   0.807  0.0097 -0.2662 -0.2044
  842SOL    HW1 2525   0.410   0.815   0.871 -0.9593 -1.7375 -0.4567
  842SOL    HW2 2526   0.499   0.786   0.730 -0.7312 -1.5705  1.1698
  843SOL     OW 2527   0.814   1.245   2.082 -0.1775  0.0556 -0.5429
  843SOL    HW1 2528   0.878   1.328   2.075  2.2308 -2.2684  0.5080
  843SOL    HW2 2529   0.752   1.238   2.000  2.4009 -0.3520  1.3213
  844SOL     OW 2530   1.040   2.053   3.082  0.0374 -0.8266  1.0581
  844SOL    HW1 2531   1.088   1.977   0.027 -1.4789 -0.1722  0.9895
  844SOL    HW2 2532   1.109   2.130   3.072  1.9888  2.4521  1.8484
  845SOL     OW 2533   2.362   2.276   2.486  0.4090  0.3103 -0.8208
  845SOL    HW1 2534   2.397   2.293   2.393  1.4898  0.7579  1.0260
  845SOL    HW2 2535   2.437   2.241   2.547  1.2847 -2.5895 -1.3752
  846SOL     OW 2536   1.745   1.929   2.922 -0.1879  0.0056 -0.6020
  846SOL    HW1 2537   1.704   2.016   2.957 -1.5386 -0.4095  2.0012
  846SOL    HW2 2538   1.805   1.944   2.841  1.3413 -1.5297 -2.2901
  847SOL     OW 2539   2.008   2.786   2.708 -0.2606  0.3598 -0.6299
  847SOL    HW1 2540   2.102   2.788   2.673  2.7675  0.4871 -0.2772
  847SOL    HW2 2541   2.005   2.752   2.802  0.7242  1.2189 -0.9209
  848SOL     OW 2542   0.566   0.639   0.629  0.1190  0.4324  0.3032
  848SOL    HW1 2543   0.626   0.584   0.695 -0.5633 -1.8697 -1.1143
  848SOL    HW2 2544   0.624   0.691   0.564 -1.6144  0.8283  0.4578
  849SOL     OW 2545   0.862   3.017   1.582  0.1041 -0.0428 -0.4195
  849SOL    HW1 2546   0.928   3.083   1.630  1.7342 -0.3494  0.8145
  849SOL    HW2 2547   0.782   3.063   1.544  2.9510 -0.0646 -0.6740
  850SOL     OW 2548   0.466   1.555   0.122  0.1045  0.0825 -0.4556
  850SOL    HW1 2549   0.402   1.627   0.160 -2.3123 -0.1617  3.9969
  850SOL    HW2 2550   0.485   1.570   0.026 -2.6267  0.8947 -0.0687
  851SOL     OW 2551   3.051   0.989   0.850 -0.0031 -0.4213  0.6269
  851SOL    HW1 2552   2.967   1.043   0.824 -1.6245 -1.4688 -0.9516
  851SOL    HW2 2553   3.051   0.972   0.949 -0.3955  0.8835 -0.5285
  852SOL     OW 2554   1.855   2.302   1.682 -0.2765 -0.6670  0.1494
  852SOL    HW1 2555   1.896   2.212   1.692  1.0348 -1.7795 -0.9075
  852SOL    HW2 2556   1.862   2.334   1.583 -0.2461  1.6735 -0.5893
  853SOL     OW 2557   0.299   1.766   0.208 -0.1811 -0.1057 -0.2884
  853SOL    HW1 2558   0.207   1.746   0.178  5.5012 -1.9441  2.1173
  853SOL    HW2 2559   0.325   1.859   0.173  0.1846 -1.5830  3.7971
  854SOL     OW 2560   1.705   1.139   1.794 -0.3509  0.2168 -0.4841
  854SOL    HW1 2561   1.719   1.094   1.704  3.3635  0.7800 -0.2220
  854SOL    HW2 2562   1.611   1.116   1.832  0.8474  0.0599 -1.1744
  855SOL     OW 2563   0.814   2.637   3.032 -0.1791 -0.0900  0.2572
  855SOL    HW1 2564   0.801   2.617   0.035 -2.1289 -1.5876  0.4059
  855SOL    HW2 2565   0.803   2.551   2.975  0.3210  1.5753 -2.4522
  856SOL     OW 2566   2.922   0.484   1.865  0.6616  0.9629 -0.2460
  856SOL    HW1 2567   2.863   0.397   1.881 -1.6579 -1.2514  0.6370
  856SOL    HW2 2568   2.899   0.530   1.777  0.2464 -0.3637 -1.8633
  857SOL     OW 2569   0.609   0.911   2.145  0.0389 -0.4390  0.0900
  857SOL    HW1 2570   0.545   0.977   2.102 -4.2641 -0.1310  0.3805
  857SOL    HW2 2571   0.679   0.886   2.073 -0.4238  0.9605 -3.1761
  858SOL     OW 2572   0.587   1.387   2.494  0.1372 -0.2852 -0.4981
  858SOL    HW1 2573   0.488   1.360   2.502  2.6768  0.6116  0.5954
  858SOL    HW2 2574   0.596   1.458   2.422 -1.3826 -1.2610  2.4825
  859SOL     OW 2575   2.505   0.253   0.299  0.2020  0.6496 -0.2498
  859SOL    HW1 2576   2.564   0.302   0.370  4.0440 -2.5461 -2.1624
  859SOL    HW2 2577   2.516   0.153   0.312  0.5742 -0.4520  0.2382
  860SOL     OW 2578   1.839   2.549   2.804  0.2717 -0.3044  0.4243
  860SOL    HW1 2579   1.909   2.609   2.850  0.6901 -0.2573 -0.0193
  860SOL    HW2 2580   1.851   2.450   2.831 -1.2785 -0.9259  3.1215
  861SOL     OW 2581   0.268   0.797   0.439 -0.3872 -1.0010  0.1874
  861SOL    HW1 2582   0.225   0.843   0.517  1.8006 -4.8667 -1.5537
  861SOL    HW2 2583   0.291   0.699   0.465 -0.1784 -1.4547 -1.4738
  862SOL     OW 2584   1.535   0.334   2.183  0.1580  0.7262  0.1973
  862SOL    HW1 2585   1.453   0.337   2.239 -0.8428  0.4501 -0.1322
  862SOL    HW2 2586   1.617   0.353   2.244 -3.1209  0.4906  0.7130
  863SOL     OW 2587   2.571   2.160   1.169  0.2756 -0.2238 -0.5065
  863SOL    HW1 2588   2.474   2.193   1.154 -2.9265 -3.4685  0.1074
  863SOL    HW2 2589   2.605   2.220   1.243  0.3058 -1.1893 -0.9090
  864SOL     OW 2590   2.483   2.902   1.974  0.1108 -0.2651 -0.1134
  864SOL    HW1 2591   2.384   2.887   1.997  1.0745 -0.6661  0.2644
  864SOL    HW2 2592   2.542   2.820   1.993 -0.2956 -0.8736  0.1840
  865SOL     OW 2593   1.202   0.335   1.716  0.0047  0.3824 -0.1854
  865SOL    HW1 2594   1.244   0.242   1.716  2.0105 -0.8695  0.2443
  865SOL    HW2 2595   1.152   0.343   1.804  0.4063 -0.7350  1.7269
  866SOL     OW 2596   2.320   3.026   0.772 -0.3573 -0.2635 -0.4136
  866SOL    HW1 2597   2.332   0.025   0.802  0.4548  0.8762 -0.2516
  866SOL    HW2 2598   2.394   2.968   0.807 -1.4997  0.8321  0.2120
  867SOL     OW 2599   2.813   2.891   0.443  0.0687  0.3313  0.2554
  867SOL    HW1 2600   2.874   2.970   0.414 -1.9376 -0.9181  0.9198
  867SOL    HW2 2601   2.820   2.865   0.537 -3.1425  1.6910 -4.9015
  868SOL     OW 2602   1.140   2.067   1.829  0.2879 -0.3623  0.3662
  868SOL    HW1 2603   1.100   2.022   1.914 -1.9243  0.1115  2.6133
  868SOL    HW2 2604   1.220   2.128   1.852 -1.2715  1.8307  3.0309
  869SOL     OW 2605   1.918   2.146   0.195  0.7982  0.0676 -0.0838
  869SOL    HW1 2606   2.008   2.138   0.152  0.6475  2.0737  1.7884
  869SOL    HW2 2607   1.918   2.233   0.246 -0.7617  2.1655  3.6983
  870SOL     OW 2608   2.384   2.441   0.418  0.1883  0.4301  0.3432
  870SOL    HW1 2609   2.425   2.521   0.375 -0.3661 -1.8438  1.0600
  870SOL    HW2 2610   2.400   2.355   0.359  0.7983 -0.1690 -2.1846
  871SOL     OW 2611   0.178   1.215   1.620  0.5876 -0.3033  0.3347
  871SOL    HW1 2612   0.180   1.240   1.520  0.2704  1.2008 -2.0659
  871SOL    HW2 2613   0.186   1.301   1.672  1.8311 -2.8239 -1.3543
  872SOL     OW 2614   0.882   1.542   2.540  0.0094  0.3681  0.0944
  872SOL    HW1 2615   0.872   1.590   2.632  1.2657  0.4021  0.9797
  872SOL    HW2 2616   0.910   1.444   2.552 -0.1955  1.4103 -2.2458
  873SOL     OW 2617   0.838   2.748   1.594  0.1449 -0.0058 -0.4099
  873SOL    HW1 2618   0.868   2.705   1.679 -0.3814  0.2457  0.6525
  873SOL    HW2 2619   0.833   2.849   1.613 -1.1277 -1.6282  0.0923
  874SOL     OW 2620   1.350   0.471   2.015 -0.0807  0.2053  0.0624
  874SOL    HW1 2621   1.410   0.427   2.087 -1.2412  0.1843 -0.4759
  874SOL    HW2 2622   1.407   0.509   1.938  1.1728  1.3458  3.9553
  875SOL     OW 2623   2.512   2.610   1.125 -0.5001  0.0832  0.5857
  875SOL    HW1 2624   2.471   2.554   1.201 -3.4620  0.3658 -1.5036
  875SOL    HW2 2625   2.505   2.710   1.140  0.6875 -0.9707 -0.6544
  876SOL     OW 2626   1.038   1.257   0.795 -0.5216  0.0377 -0.0090
  876SOL    HW1 2627   1.061   1.193   0.714 -1.3580 -1.2589 -0.4380
  876SOL    HW2 2628   0.980   1.335   0.767  2.3445  2.5216 -1.0277
  877SOL     OW 2629   3.086   0.248   1.079  0.1250  0.1759 -0.3172
  877SOL    HW1 2630   3.050   0.272   1.175  1.5640  1.8134  1.4535
  877SOL    HW2 2631   0.089   0.248   1.074  0.5504 -0.1990 -1.5541
  878SOL     OW 2632   2.237   1.652   0.055  0.0097 -0.5180  0.4659
  878SOL    HW1 2633   2.332   1.679   0.022  3.0215  1.7946  0.5362
  878SOL    HW2 2634   2.233   1.563   0.096 -0.7387  1.7930 -2.7187
  879SOL     OW 2635   2.686   1.955   1.302 -0.2471 -0.1683  0.1845
  879SOL    HW1 2636   2.690   1.988   1.397  0.8037 -0.7796 -1.2478
  879SOL    HW2 2637   2.647   2.023   1.233 -0.0461  0.9221 -2.6276
  880SOL     OW 2638   0.471   2.153   1.234  0.0531 -0.4498  0.3430
  880SOL    HW1 2639   0.379   2.122   1.252  0.4464  1.2228 -1.9538
  880SOL    HW2 2640   0.478   2.236   1.169 -1.7564 -0.2622  0.2295
  881SOL     OW 2641   1.334   1.200   0.945  0.0728 -0.0786 -0.1745
  881SOL    HW1 2642   1.279   1.215   1.031 -0.4780  2.2554 -0.4820
  881SOL    HW2 2643   1.294   1.132   0.873 -1.6219 -0.7261 -0.4541
  882SOL     OW 2644   2.778   1.064   2.469  0.6046 -0.0676  0.3679
  882SOL    HW1 2645   2.706   1.068   2.401  0.0611 -0.2263  3.2742
  882SOL    HW2 2646   2.746   1.003   2.544 -0.3911 -1.7296 -0.0013
  883SOL     OW 2647   1.274   0.320   1.182 -0.0834  0.1135 -0.4402
  883SOL    HW1 2648   1.316   0.258   1.252 -2.5921  0.3713  0.3708
  883SOL    HW2 2649   1.319   0.311   1.093  0.5669  1.9448 -1.6297
  884SOL     OW 2650   0.089   3.030   1.013  0.1676 -0.1912  0.0344
  884SOL    HW1 2651   3.097   3.078   1.031 -2.1271  2.5483 -2.3258
  884SOL    HW2 2652   0.149   3.041   1.096 -0.0225 -2.4967  1.7766
  885SOL     OW 2653   1.343   1.243   1.242  0.0866 -1.1024 -0.4188
  885SOL    HW1 2654   1.415   1.176   1.261 -1.3389 -0.0194 -2.2294
  885SOL    HW2 2655   1.251   1.217   1.278  1.7419  0.0095 -0.7423
  886SOL     OW 2656   1.319   0.923   2.963  0.1219 -0.4567 -0.1668
  886SOL    HW1 2657   1.417   0.922   2.988  3.5366 -1.7460  0.8108
  886SOL    HW2 2658   1.302   0.986   2.886  0.1431 -0.9979 -1.2848
  887SOL     OW 2659   1.237   0.565   0.840 -0.3141 -0.0214  0.1273
  887SOL    HW1 2660   1.234   0.564   0.740 -0.7956  2.7184  3.1732
  887SOL    HW2 2661   1.274   0.656   0.876  2.0120 -0.0534  0.6329
  888SOL     OW 2662   2.144   1.229   1.808  0.6329  0.2405 -0.0653
  888SOL    HW1 2663   2.203   1.250   1.728 -0.5193  1.2893 -1.6380
  888SOL    HW2 2664   2.090   1.144   1.788 -0.6118  0.4605  1.8615
  889SOL     OW 2665   2.605   2.323   0.610 -0.3461 -0.0070  0.1962
  889SOL    HW1 2666   2.584   2.271   0.695 -0.0118 -0.5630  0.5646
  889SOL    HW2 2667   2.518   2.343   0.558 -1.8400 -0.7629 -2.3703
  890SOL     OW 2668   1.442   1.713   0.888  0.3029 -0.3140  0.0854
  890SOL    HW1 2669   1.340   1.720   0.884  1.1626  0.9320  2.4508
  890SOL    HW2 2670   1.482   1.762   0.969  1.3375 -0.1808 -2.1617
  891SOL     OW 2671   2.426   0.594   2.454 -0.0954 -0.2211 -0.3229
  891SOL    HW1 2672   2.492   0.625   2.381  0.1821 -0.6396 -0.2944
  891SOL    HW2 2673   2.343   0.559   2.397 -0.4445  1.4471  0.2692
  892SOL     OW 2674   0.933   0.250   2.286  0.5829  0.3353 -0.1487
  892SOL    HW1 2675   0.993   0.169   2.279 -0.5591 -2.6906  1.8266
  892SOL    HW2 2676   0.904   0.260   2.384 -1.1980  2.1515 -0.1970
  893SOL     OW 2677   1.406   0.194   1.402  0.0528 -0.0431 -0.2604
  893SOL    HW1 2678   1.399   0.160   1.497 -0.1790  0.7969  1.7333
  893SOL    HW2 2679   1.499   0.233   1.389 -1.0613 -3.4659  0.7193
  894SOL     OW 2680   2.532   0.593   0.603 -0.2772  0.1495  0.3654
  894SOL    HW1 2681   2.442   0.625   0.623 -1.6430 -5.2033 -0.6711
  894SOL    HW2 2682   2.597   0.614   0.680 -1.6691 -1.0065 -2.0260
  895SOL     OW 2683   1.826   2.248   2.545 -0.2563  0.2118 -0.3429
  895SOL    HW1 2684   1.853   2.343   2.521  0.1364  0.3071 -0.0243
  895SOL    HW2 2685   1.809   2.196   2.457  0.9840  0.1682  0.6200
  896SOL     OW 2686   1.763   3.067   1.630 -0.0664 -0.5325 -0.2540
  896SOL    HW1 2687   1.799   0.066   1.641  1.4083  1.3531  0.1006
  896SOL    HW2 2688   1.812   2.999   1.685  0.3381  0.3199  0.2442
  897SOL     OW 2689   0.536   1.885   1.956 -0.3848  0.7602  0.3043
  897SOL    HW1 2690   0.536   1.866   1.854 -0.8904  1.8509  0.0718
  897SOL    HW2 2691   0.635   1.894   1.990  4.1737  2.0923  0.1001
  898SOL     OW 2692   2.085   1.391   2.031 -0.0177  0.5636 -0.1313
  898SOL    HW1 2693   2.127   1.348   1.946 -0.7466  0.4070  2.2821
  898SOL    HW2 2694   2.147   1.466   2.070 -0.3764  0.8559 -0.0032
  899SOL     OW 2695   1.961   2.500   0.783 -0.2337  0.0758 -0.1991
  899SOL    HW1 2696   2.051   2.507   0.736  0.8975  2.8468 -1.4664
  899SOL    HW2 2697   1.953   2.555   0.864  0.5102  0.2838  0.7054
  900SOL     OW 2698   1.004   2.964   3.086  0.2394 -0.7142  0.0709
  900SOL    HW1 2699   1.039   2.886   0.042 -2.5950 -2.1965 -1.8072
  900SOL    HW2 2700   0.925   2.936   3.028  3.5255 -0.9958  0.1606
  901SOL     OW 2701   0.940   1.767   2.185  0.4094 -0.4489  0.1261
  901SOL    HW1 2702   0.849   1.765   2.237 -0.3523 -3.6478  1.3104
  901SOL    HW2 2703   1.000   1.687   2.210  2.2342 -1.7339  0.7767
  902SOL     OW 2704   2.207   0.316   0.026 -0.0812  0.4810 -0.5841
  902SOL    HW1 2705   2.247   0.402   3.087  1.9337  1.3207  1.0169
  902SOL    HW2 2706   2.136   0.340   0.099 -0.0840  1.2046  0.4878
  903SOL     OW 2707   2.295   0.735   2.151  0.0755  0.1440 -0.1265
  903SOL    HW1 2708   2.364   0.708   2.084 -2.3474 -0.5361 -0.7645
  903SOL    HW2 2709   2.338   0.782   2.232 -1.8256  2.5806  3.5908
  904SOL     OW 2710   1.739   0.792   1.787  0.4157  0.4897  0.5307
  904SOL    HW1 2711   1.781   0.854   1.715  1.8937  2.4518 -0.4100
  904SOL    HW2 2712   1.781   0.817   1.876  0.8337 -0.0014  2.3170
  905SOL     OW 2713   2.153   0.139   1.039  0.0244 -0.5966  0.3471
  905SOL    HW1 2714   2.250   0.132   1.050 -2.8327 -2.3169 -0.7302
  905SOL    HW2 2715   2.111   0.178   1.127 -1.8374  0.1173 -2.5065
  906SOL     OW 2716   2.376   1.791   0.621 -0.2825 -0.4139  0.1050
  906SOL    HW1 2717   2.317   1.875   0.618 -0.0109  1.0648  0.1340
  906SOL    HW2 2718   2.359   1.733   0.540 -0.0013  0.4471  0.9888
  907SOL     OW 2719   1.168   2.884   0.876  0.3532  0.0388  0.5483
  907SOL    HW1 2720   1.236   2.883   0.796 -2.9439 -0.8564 -0.4049
  907SOL    HW2 2721   1.074   2.888   0.841  0.3634  1.1006  0.1702
  908SOL     OW 2722   1.378   2.345   2.385  0.0970  0.4887 -0.0213
  908SOL    HW1 2723   1.400   2.249   2.409  0.7312  0.9266  1.4931
  908SOL    HW2 2724   1.382   2.364   2.287 -1.4568 -0.1928  1.0694
  909SOL     OW 2725   2.241   0.360   2.102  0.4484  0.4114 -0.0228
  909SOL    HW1 2726   2.213   0.413   2.180 -0.4745 -0.5241  3.8628
  909SOL    HW2 2727   2.166   0.365   2.028 -0.4798  0.7668 -1.8804
  910SOL     OW 2728   1.161   0.858   2.575  0.4864 -0.1170 -0.7050
  910SOL    HW1 2729   1.094   0.804   2.519  1.5772  1.8512 -0.0856
  910SOL    HW2 2730   1.117   0.908   2.655 -3.9071  2.1076  1.8787
  911SOL     OW 2731   3.064   1.176   2.773  0.2048 -0.0528 -0.5060
  911SOL    HW1 2732   0.021   1.157   2.855 -1.6201  2.9987 -0.5347
  911SOL    HW2 2733   2.974   1.221   2.788 -1.1413  1.8459 -1.0255
  912SOL     OW 2734   0.030   2.426   0.954  0.2307  0.4076 -0.4430
  912SOL    HW1 2735   3.046   2.394   0.900  2.0279  0.4983 -1.0404
  912SOL    HW2 2736   0.086   2.351   0.996 -3.5033  1.3759  0.0377
  913SOL     OW 2737   2.569   1.886   2.439 -0.5348  0.0373  0.9004
  913SOL    HW1 2738   2.472   1.851   2.445 -1.3140  0.4317  1.1482
  913SOL    HW2 2739   2.598   1.925   2.529  0.5993  0.9013  1.6936
  914SOL     OW 2740   1.934   1.318   0.696  0.1086  0.2154  0.2187
  914SOL    HW1 2741   1.919   1.271   0.606  0.8322  0.9366 -0.8793
  914SOL    HW2 2742   1.849   1.347   0.747 -0.0194 -0.7422 -1.8999
  915SOL     OW 2743   0.304   2.648   2.207  0.4523  0.0034 -0.4878
  915SOL    HW1 2744   0.311   2.747   2.241  0.4407  2.2519  2.4506
  915SOL    HW2 2745   0.394   2.597   2.197  2.1958 -2.0991 -0.6165
  916SOL     OW 2746   0.793   0.025   1.062 -0.1461  0.4102  0.2293
  916SOL    HW1 2747   0.809   3.043   1.126  0.9461 -2.3256  1.9158
  916SOL    HW2 2748   0.758   0.100   1.115  0.5682 -1.5471  0.7205
  917SOL     OW 2749   2.343   0.525   3.017 -0.4671 -0.9118  0.3216
  917SOL    HW1 2750   2.417   0.584   3.062 -0.7549  2.0029 -0.3024
  917SOL    HW2 2751   2.382   0.498   2.926  1.4579 -0.3544 -0.2846
  918SOL     OW 2752   1.573   2.296   2.700  0.2545 -0.2438  0.0588
  918SOL    HW1 2753   1.607   2.384   2.664 -0.8526  0.7667  3.8043
  918SOL    HW2 2754   1.581   2.223   2.634 -1.0986  3.3926  0.5563
  919SOL     OW 2755   1.825   2.688   1.166 -0.1442  0.2724 -0.4632
  919SOL    HW1 2756   1.816   2.742   1.253 -0.1986  0.2648  2.8813
  919SOL    HW2 2757   1.830   2.588   1.186  0.2911 -0.1825  0.9137
  920SOL     OW 2758   1.304   0.182   2.618 -0.0175 -0.0306  0.3262
  920SOL    HW1 2759   1.214   0.226   2.617  0.0336  1.1925 -1.5560
  920SOL    HW2 2760   1.305   0.097   2.673  0.0473 -1.4251 -2.0965
  921SOL     OW 2761   0.060   0.957   2.651 -0.5883  0.2404 -0.0941
  921SOL    HW1 2762   3.088   0.903   2.596 -0.7336 -0.0930 -0.4123
  921SOL    HW2 2763   0.015   1.043   2.682 -0.3537 -1.9821  0.6030
  922SOL     OW 2764   2.986   2.145   1.200  0.7676  0.2919  0.4140
  922SOL    HW1 2765   2.990   2.190   1.109 -0.0878  0.9642  1.0841
  922SOL    HW2 2766   2.909   2.179   1.258 -0.7048 -3.0264 -0.0157
  923SOL     OW 2767   0.120   1.584   2.055 -0.1297  0.1720  0.3777
  923SOL    HW1 2768   0.218   1.594   2.061 -0.8492  0.7165  1.8396
  923SOL    HW2 2769   0.100   1.485   2.030  0.8868  1.9991 -0.2596
  924SOL     OW 2770   1.704   2.957   2.356 -0.1407  0.0737  0.0351
  924SOL    HW1 2771   1.610   2.912   2.338 -2.3548 -0.7264 -0.9567
  924SOL    HW2 2772   1.773   2.893   2.322  1.0876  1.4804 -0.0884
  925SOL     OW 2773   2.827   1.670   0.533 -0.2004 -0.2246  0.1359
  925SOL    HW1 2774   2.917   1.705   0.500 -1.3859 -1.1019  1.8317
  925SOL    HW2 2775   2.836   1.637   0.629 -1.4787 -0.0304 -2.2436
  926SOL     OW 2776   2.380   0.530   0.971 -0.2553  0.2774 -0.2680
  926SOL    HW1 2777   2.461   0.469   0.961  1.5065  3.7866  1.8630
  926SOL    HW2 2778   2.412   0.617   1.018  0.7332  0.4145 -1.4754
  927SOL     OW 2779   1.788   0.056   1.356 -0.1982 -0.7072  0.4104
  927SOL    HW1 2780   1.743   0.148   1.357  2.1327  1.9869 -2.1034
  927SOL    HW2 2781   1.769   0.001   1.440 -0.0528 -0.2891  0.9520
  928SOL     OW 2782   3.080   0.847   2.268 -0.1934  0.3807 -0.4501
  928SOL    HW1 2783   0.076   0.881   2.290  2.5816 -2.6869 -1.1019
  928SOL    HW2 2784   3.076   0.759   2.321 -0.3210 -2.7784  0.7992
  929SOL     OW 2785   2.098   0.967   1.302  0.2255 -0.5256 -0.3197
  929SOL    HW1 2786   2.101   0.865   1.277 -1.2263 -0.6667  3.4579
  929SOL    HW2 2787   2.136   1.018   1.222  0.7424  1.9267 -1.3632
  930SOL     OW 2788   2.139   2.474   1.525  0.3893 -0.2688 -0.3860
  930SOL    HW1 2789   2.122   2.374   1.523  2.3024  1.2158  0.8530
  930SOL    HW2 2790   2.187   2.499   1.610  3.1607  1.1194 -1.5775
  931SOL     OW 2791   1.910   1.133   1.418  0.0209  0.5220 -0.0670
  931SOL    HW1 2792   1.843   1.163   1.347 -2.1554 -0.5519  2.2889
  931SOL    HW2 2793   1.975   1.062   1.384 -1.1942 -1.8555  0.1262
  932SOL     OW 2794   0.162   0.780   1.819 -0.1646 -0.3829  0.4608
  932SOL    HW1 2795   0.207   0.706   1.769 -0.8445 -1.3410  1.3589
  932SOL    HW2 2796   0.220   0.859   1.809 -2.1103 -1.7998  2.3193
  933SOL     OW 2797   2.340   2.052   1.617  0.0035 -0.3663  0.3227
  933SOL    HW1 2798   2.325   2.127   1.551  0.6396 -0.2664  1.2669
  933SOL    HW2 2799   2.389   2.086   1.701  0.1759  3.6991  0.5996
  934SOL     OW 2800   1.362   2.214   1.800  0.7873 -0.3566 -0.2594
  934SOL    HW1 2801   1.453   2.245   1.760 -0.5885 -2.5081  1.2214
  934SOL    HW2 2802   1.290   2.292   1.791 -1.5559  3.9259 -1.6059
  935SOL     OW 2803   3.001   1.514   1.698 -0.0525 -0.2486  0.5338
  935SOL    HW1 2804   3.093   1.473   1.676 -0.7922  1.6288  0.0271
  935SOL    HW2 2805   2.998   1.591   1.767 -0.2629  1.7261  0.0004
  936SOL     OW 2806   2.793   0.588   1.348 -0.1851 -0.2100  0.2562
  936SOL    HW1 2807   2.828   0.671   1.296 -1.4487  2.6096 -0.2000
  936SOL    HW2 2808   2.693   0.579   1.347 -0.5093 -0.3078 -1.1009
  937SOL     OW 2809   1.655   0.299   1.329 -0.3277 -0.1118 -0.0693
  937SOL    HW1 2810   1.619   0.313   1.234 -0.9405 -1.6333 -0.6859
  937SOL    HW2 2811   1.679   0.384   1.381  3.0672 -0.2179 -1.7065
  938SOL     OW 2812   0.404   2.852   0.732  0.3190 -0.5995  0.1258
  938SOL    HW1 2813   0.322   2.831   0.783 -0.5293  2.4554 -2.2091
  938SOL    HW2 2814   0.479   2.783   0.730  0.4524  0.3672 -1.9668
  939SOL     OW 2815   2.967   2.123   2.599 -0.6086 -0.1054  0.1565
  939SOL    HW1 2816   3.034   2.170   2.660 -3.5518 -1.2630  1.1766
  939SOL    HW2 2817   2.987   2.121   2.498 -0.4961  1.7574 -1.5537
  940SOL     OW 2818   1.491   1.753   0.010  0.2374  0.2728 -0.1707
  940SOL    HW1 2819   1.578   1.799   0.036  0.8068  2.1881 -0.0766
  940SOL    HW2 2820   1.496   1.740   3.004  0.6450 -0.3899 -0.1378
  941SOL     OW 2821   2.055   2.437   0.212 -0.3631 -0.3924 -0.4018
  941SOL    HW1 2822   2.144   2.467   0.163  2.6626  3.0883 -1.6415
  941SOL    HW2 2823   2.037   2.495   0.290 -0.5761 -4.7255 -0.7824
  942SOL     OW 2824   1.991   1.756   1.002  0.5029  0.3549  0.1266
  942SOL    HW1 2825   1.980   1.856   0.995  2.8180 -2.2838  2.0728
  942SOL    HW2 2826   2.073   1.739   1.055 -1.9879 -2.9863  0.7431
  943SOL     OW 2827   1.924   0.704   1.541 -0.1049  0.1160 -0.1331
  943SOL    HW1 2828   1.865   0.791   1.547 -1.7539  2.0099 -0.0372
  943SOL    HW2 2829   2.019   0.727   1.553 -2.7217  0.9714 -0.7287
  944SOL     OW 2830   1.543   0.711   2.256  0.6097  0.0727  0.3430
  944SOL    HW1 2831   1.624   0.680   2.307 -0.1273  2.1014 -2.7053
  944SOL    HW2 2832   1.509   0.805   2.287 -0.5714 -1.4196  1.3515
  945SOL     OW 2833   2.223   2.865   1.490  0.2928 -0.0911  0.3935
  945SOL    HW1 2834   2.306   2.922   1.472 -1.0045  1.8526  1.1496
  945SOL    HW2 2835   2.145   2.891   1.434  0.5152 -2.6018  1.7383
  946SOL     OW 2836   0.712   1.288   0.608 -0.2050 -0.2455  0.1673
  946SOL    HW1 2837   0.783   1.338   0.652 -0.0230  0.3866 -2.5878
  946SOL    HW2 2838   0.739   1.244   0.520 -2.2599 -1.3339 -0.2989
  947SOL     OW 2839   1.158   2.169   0.914  0.0241 -0.7714 -0.1724
  947SOL    HW1 2840   1.191   2.266   0.923  1.5561 -0.2738  0.2501
  947SOL    HW2 2841   1.132   2.147   0.820  0.6158 -1.2536 -0.5325
  948SOL     OW 2842   0.331   1.612   1.088  0.1527  0.4931  0.0617
  948SOL    HW1 2843   0.347   1.524   1.037 -1.1608 -0.7378  1.1737
  948SOL    HW2 2844   0.374   1.691   1.043  1.6733 -0.8697 -1.2127
  949SOL     OW 2845   1.028   1.288   1.696  0.2531  0.1056 -0.5593
  949SOL    HW1 2846   0.974   1.374   1.707  0.0546 -1.7634 -0.1395
  949SOL    HW2 2847   1.025   1.252   1.603  0.5162 -1.0336  2.4003
  950SOL     OW 2848   0.564   0.628   1.347 -0.1115 -0.3652 -0.1188
  950SOL    HW1 2849   0.613   0.711   1.375  1.9483 -0.4836 -1.0491
  950SOL    HW2 2850   0.462   0.628   1.371 -2.6542  0.3175  0.0192
  951SOL     OW 2851   0.724   2.179   2.053 -0.1450  0.2182 -0.3079
  951SOL    HW1 2852   0.659   2.229   1.997  1.8683  1.7877  0.2813
  951SOL    HW2 2853   0.759   2.093   2.007 -0.7623 -0.0392  0.3095
  952SOL     OW 2854   0.900   1.618   0.110  0.0011 -0.2820 -0.0290
  952SOL    HW1 2855   0.845   1.673   0.042  0.1445  1.4517 -1.6049
  952SOL    HW2 2856   0.957   1.684   0.164 -0.2027 -0.3828  1.5079
  953SOL     OW 2857   1.027   2.794   0.293  0.3339  0.3318 -0.4108
  953SOL    HW1 2858   0.945   2.817   0.350  2.1840 -0.0501 -4.0419
  953SOL    HW2 2859   1.030   2.694   0.280 -0.1902 -1.2861  0.2288
  954SOL     OW 2860   1.533   1.252   2.928 -0.0556 -0.5752 -0.2924
  954SOL    HW1 2861   1.532   1.158   2.967  0.3874 -1.0747 -1.0440
  954SOL    HW2 2862   1.571   1.324   2.993 -0.3120 -1.8363  1.1005
  955SOL     OW 2863   0.123   2.575   2.960  0.0304  0.3539  0.5931
  955SOL    HW1 2864   0.213   2.623   2.964  1.6230 -0.9288  0.4162
  955SOL    HW2 2865   0.052   2.630   2.914 -1.6484 -0.2452  0.7097
  956SOL     OW 2866   1.086   0.891   1.382  0.9887  0.4756 -0.2897
  956SOL    HW1 2867   1.112   0.904   1.282  2.5576 -0.1921 -1.8137
  956SOL    HW2 2868   1.147   0.954   1.437 -0.3881 -2.3904 -2.5556
  957SOL     OW 2869   1.625   1.436   1.486 -0.7796 -0.0819  0.0774
  957SOL    HW1 2870   1.527   1.448   1.495 -1.0056 -0.3542 -0.3683
  957SOL    HW2 2871   1.669   1.478   1.563  1.4898 -2.6252 -0.8105
  958SOL     OW 2872   0.771   1.915   1.669  0.7975  0.8242  0.6209
  958SOL    HW1 2873   0.697   1.860   1.623 -4.1414 -1.0733  0.5947
  958SOL    HW2 2874   0.779   2.004   1.631 -2.2533 -5.3395  1.3359
  959SOL     OW 2875   1.537   1.067   1.337  0.1288  0.0644 -0.0053
  959SOL    HW1 2876   1.610   1.118   1.287  3.8043 -0.1068  1.6563
  959SOL    HW2 2877   1.554   1.079   1.439 -0.2995  0.1985  3.9012
  960SOL     OW 2878   0.330   1.288   0.096  0.5990 -0.2780  0.1151
  960SOL    HW1 2879   0.397   1.350   0.127 -2.3689 -1.5493 -0.5852
  960SOL    HW2 2880   0.292   1.238   0.177  0.8637  1.0342  1.8662
  961SOL     OW 2881   0.875   1.503   1.703 -0.2642  0.0416 -0.3709
  961SOL    HW1 2882   0.898   1.550   1.615  0.8483 -0.8232  0.8707
  961SOL    HW2 2883   0.900   1.560   1.792 -1.6718 -0.5453  1.3439
  962SOL     OW 2884   1.340   1.431   0.751 -0.4951 -0.0449 -0.0864
  962SOL    HW1 2885   1.396   1.508   0.787 -1.2016 -1.0279  0.3951
  962SOL    HW2 2886   1.304   1.363   0.815  0.9764  0.9567 -1.9489
  963SOL     OW 2887   1.392   1.946   2.682  0.0270 -0.0504  0.0200
  963SOL    HW1 2888   1.384   2.034   2.734 -0.5400 -0.4006  1.6697
  963SOL    HW2 2889   1.301   1.914   2.663  3.7382  1.0199 -0.3794
  964SOL     OW 2890   0.654   3.008   0.366  0.3867  0.8375  0.5916
  964SOL    HW1 2891   0.566   3.007   0.415  2.1335  0.1985  1.1137
  964SOL    HW2 2892   0.630   2.979   0.270 -0.6599 -3.2094  4.1045
  965SOL     OW 2893   0.443   2.483   0.712 -0.6509 -0.2639 -0.0710
  965SOL    HW1 2894   0.513   2.415   0.742  1.9322  0.0034 -1.0227
  965SOL    HW2 2895   0.358   2.489   0.768  2.0532  2.3688  0.4680
  966SOL     OW 2896   0.240   1.652   2.514  0.4207  0.2623  0.2952
  966SOL    HW1 2897   0.187   1.672   2.598 -2.8408  1.2355  0.6172
  966SOL    HW2 2898   0.174   1.623   2.443 -0.9615 -0.5483 -2.1121
  967SOL     OW 2899   0.038   3.020   2.589 -0.0486 -0.8687 -0.0841
  967SOL    HW1 2900   0.079   3.071   2.512  1.3664  0.2213 -2.4533
  967SOL    HW2 2901   0.025   3.081   2.671 -1.6274  1.7434  4.2151
  968SOL     OW 2902   2.343   0.730   0.215 -0.3084  0.7677  0.2381
  968SOL    HW1 2903   2.261   0.673   0.225  2.0578  2.6575 -0.9361
  968SOL    HW2 2904   2.315   0.827   0.185 -2.0800  2.7736 -0.5665
  969SOL     OW 2905   0.426   1.086   2.028 -0.1672  0.3639  0.0766
  969SOL    HW1 2906   0.377   1.085   1.941  0.2295 -0.3321  0.9690
  969SOL    HW2 2907   0.377   1.129   2.104  2.1676  1.1450 -1.2242
  970SOL     OW 2908   2.404   1.295   1.242  0.1460  0.2914  0.2834
  970SOL    HW1 2909   2.325   1.353   1.212  1.3052  1.2432  2.4439
  970SOL    HW2 2910   2.419   1.315   1.344 -1.3482 -0.0798  4.7949
  971SOL     OW 2911   2.434   0.088   1.151 -0.3457  0.3020  0.3893
  971SOL    HW1 2912   2.439   0.129   1.059 -1.3903  2.2853  1.4427
  971SOL    HW2 2913   2.479   3.092   1.159  1.5875 -1.3130  0.2385
  972SOL     OW 2914   0.500   2.902   1.502  0.2941  0.8500 -0.1806
  972SOL    HW1 2915   0.503   2.998   1.469  0.5391  2.5157 -0.5740
  972SOL    HW2 2916   0.596   2.868   1.506 -3.1893 -0.4378  0.2079
  973SOL     OW 2917   0.089   0.344   2.986 -0.6173  0.5219  0.2016
  973SOL    HW1 2918   0.133   0.334   2.893 -0.4102  1.0920 -0.0228
  973SOL    HW2 2919   3.097   0.292   2.991 -3.6634 -1.8906  1.9260
  974SOL     OW 2920   1.887   1.402   2.211  0.0548 -0.5291 -0.6851
  974SOL    HW1 2921   1.802   1.445   2.183  0.8745  2.9291  1.0843
  974SOL    HW2 2922   1.947   1.382   2.134 -0.1411  3.0984  2.0096
  975SOL     OW 2923   2.971   3.094   1.580 -0.2554  0.0808  0.3198
  975SOL    HW1 2924   3.058   3.051   1.602 -1.6922 -0.3821  0.7508
  975SOL    HW2 2925   2.995   0.090   1.548  1.2157  0.8102 -0.3764
  976SOL     OW 2926   0.299   2.028   2.031 -0.0426  0.2076  0.2754
  976SOL    HW1 2927   0.387   1.979   2.044  0.9625 -0.3758 -2.5956
  976SOL    HW2 2928   0.279   2.033   1.928  0.7516  1.6856  0.2191
  977SOL     OW 2929   0.855   2.519   0.354 -0.3684 -0.0113  0.0943
  977SOL    HW1 2930   0.763   2.547   0.382  3.2679  2.2372 -1.3988
  977SOL    HW2 2931   0.930   2.538   0.425 -0.1544  1.0720  1.1689
  978SOL     OW 2932   0.032   1.576   2.303 -0.2704 -0.1858  0.4081
  978SOL    HW1 2933   0.060   1.589   2.208  0.3498 -3.5041  3.1672
  978SOL    HW2 2934   3.083   1.660   2.343 -0.6731  1.6279  2.4927
  979SOL     OW 2935   1.598   2.500   1.418  0.0007 -0.4917  0.2220
  979SOL    HW1 2936   1.681   2.436   1.406  1.3276 -2.7332  1.1949
  979SOL    HW2 2937   1.547   2.508   1.331  2.5920  0.9684  1.9847
  980SOL     OW 2938   0.911   1.401   3.045  0.2000 -0.8913  0.1459
  980SOL    HW1 2939   0.815   1.398   3.014  0.3529 -0.0500 -3.5054
  980SOL    HW2 2940   0.930   1.484   0.003  0.7246 -2.8568 -3.5630
  981SOL     OW 2941   2.189   0.097   2.376  0.8134 -0.3130 -0.1856
  981SOL    HW1 2942   2.269   0.132   2.426 -0.9066 -3.3671 -2.3333
  981SOL    HW2 2943   2.213   0.087   2.273  0.9363 -2.2491  1.1019
  982SOL     OW 2944   0.001   0.079   2.815 -0.5829 -0.3544 -0.3582
  982SOL    HW1 2945   3.005   0.121   2.810  0.9744 -2.2398 -0.5298
  982SOL    HW2 2946   0.080   0.144   2.784  2.5668 -0.0835 -1.0343
  983SOL     OW 2947   2.001   1.056   2.202 -0.0228  0.0655  0.2605
  983SOL    HW1 2948   1.964   1.000   2.277  0.9743 -1.2446  3.0433
  983SOL    HW2 2949   1.930   1.066   2.134 -0.6046 -3.1722  0.5057
  984SOL     OW 2950   1.563   0.202   1.925 -0.3602  0.1276 -0.3591
  984SOL    HW1 2951   1.533   0.211   2.020  0.7124  3.8015 -1.6108
  984SOL    HW2 2952   1.630   0.272   1.897  1.8500  1.8079  1.1431
  985SOL     OW 2953   1.849   1.383   1.851 -0.2704  0.3764 -0.1825
  985SOL    HW1 2954   1.802   1.290   1.861  0.7082 -1.4536 -0.4179
  985SOL    HW2 2955   1.935   1.386   1.904 -1.4622  2.2730  1.2270
  986SOL     OW 2956   1.992   0.440   1.549 -0.1093 -0.0316  0.3329
  986SOL    HW1 2957   2.079   0.446   1.605  0.5513  0.4512  0.9732
  986SOL    HW2 2958   1.926   0.514   1.573  0.0549  0.9920 -0.2121
  987SOL     OW 2959   2.533   0.511   1.327 -0.5811  0.1358 -0.4432
  987SOL    HW1 2960   2.491   0.568   1.405 -0.0813 -1.1490  0.9936
  987SOL    HW2 2961   2.477   0.426   1.327  1.7907  1.2429 -1.6607
  988SOL     OW 2962   2.951   0.868   1.988 -0.4253  0.4659 -0.0543
  988SOL    HW1 2963   2.975   0.818   1.902  1.1638  0.6583 -1.1610
  988SOL    HW2 2964   3.002   0.827   2.068  1.3409  0.7789 -1.6473
  989SOL     OW 2965   2.051   1.599   2.954 -0.2194  0.3932 -0.0785
  989SOL    HW1 2966   2.076   1.644   2.865 -1.9314  2.1664 -0.0605
  989SOL    HW2 2967   2.125   1.612   3.026 -0.2394  3.2111  0.6246
  990SOL     OW 2968   1.077   0.442   3.059  0.0037 -0.0055  0.1559
  990SOL    HW1 2969   1.029   0.467   2.969 -2.0900 -1.6084 -3.3555
  990SOL    HW2 2970   1.173   0.481   3.059 -0.8376  3.6687  0.1424
  991SOL     OW 2971   1.587   0.983   3.006  0.1011 -0.5940  0.4401
  991SOL    HW1 2972   1.610   1.037   3.086 -0.4477 -2.1096 -1.5759
  991SOL    HW2 2973   1.641   0.896   3.004 -4.1090 -0.7339 -2.2223
  992SOL     OW 2974   2.081   1.208   0.030 -0.2404  0.4033  0.0318
  992SOL    HW1 2975   1.993   1.258   0.015 -1.9150  0.0749 -0.2611
  992SOL    HW2 2976   2.053   1.119   0.072  0.2371  0.9000 -0.3420
  993SOL     OW 2977   0.023   0.427   0.489  0.0526 -0.3051  0.3771
  993SOL    HW1 2978   0.082   0.425   0.405  0.1163 -0.7861  1.4558
  993SOL    HW2 2979   0.069   0.466   0.570 -0.7724  0.3079  0.4658
  994SOL     OW 2980   2.913   1.925   2.053 -0.2297  0.0802  0.7933
  994SOL    HW1 2981   2.843   1.903   2.124  1.5732 -1.1144  1.5644
  994SOL    HW2 2982   3.007   1.895   2.092  0.0465 -1.0177  1.5379
  995SOL     OW 2983   1.895   1.474   2.462 -0.3116  0.1495 -0.2760
  995SOL    HW1 2984   1.901   1.453   2.365  0.6672  1.5784 -0.1272
  995SOL    HW2 2985   1.953   1.411   2.520 -2.2088  0.0860  0.3159
  996SOL     OW 2986   2.090   1.734   2.723  0.2168 -0.3122  0.3396
  996SOL    HW1 2987   2.140   1.816   2.755  0.1129  0.6853  0.6078
  996SOL    HW2 2988   2.031   1.771   2.647  0.2410 -0.1865 -2.0347
  997SOL     OW 2989   2.401   1.573   1.633 -0.1959 -0.3751 -0.0654
  997SOL    HW1 2990   2.384   1.652   1.573 -1.2401 -2.1372 -0.6280
  997SOL    HW2 2991   2.495   1.583   1.680  3.5061 -0.8782  1.3203
  998SOL     OW 2992   2.381   1.640   0.381  0.4707 -0.3303 -0.1770
  998SOL    HW1 2993   2.384   1.650   0.279 -0.1304 -1.0677 -1.0448
  998SOL    HW2 2994   2.330   1.554   0.403  0.7557  0.9904 -0.8607
  999SOL     OW 2995   2.789   2.475   0.406 -0.7607 -0.0626 -0.0879
  999SOL    HW1 2996   2.712   2.433   0.459  2.3512  2.2348  1.5687
  999SOL    HW2 2997   2.766   2.565   0.367 -0.1574  2.2186 -1.0810
 1000SOL     OW 2998   0.957   0.470   2.125 -0.2773 -0.3618 -0.2183
 1000SOL    HW1 2999   0.959   0.388   2.182 -0.6968 -1.2600 -0.2751
 1000SOL    HW2 3000   0.929   0.552   2.179 -3.3905 -1.2329 -0.3318
   3.09741   3.09741   3.09741
