1000 SPC/Fw water molecules t= 377.00000 step= 377000
 3000
    1SOL     OW    1   2.491   2.765   1.626  0.4019  0.7175  0.4960
    1SOL    HW1    2   2.447   2.804   1.713  1.1308 -1.0157  1.2979
    1SOL    HW2    3   2.428   2.796   1.553  1.1382  0.0218 -1.9513
    2SOL     OW    4   2.154   2.433   0.476  0.3108  0.0501  0.1796
    2SOL    HW1    5   2.215   2.383   0.412 -2.8638  2.0227  1.3353
    2SOL    HW2    6   2.196   2.525   0.493  0.1792 -1.8687  1.0672
    3SOL     OW    7   1.097   0.206   0.224  0.2444 -0.3022  0.8789
    3SOL    HW1    8   1.147   0.257   0.298 -1.1696 -0.0895 -5.3624
    3SOL    HW2    9   1.149   0.210   0.136  0.5544 -1.4412  0.8917
    4SOL     OW   10   1.354   0.058   2.113 -0.6640  0.0207  0.0849
    4SOL    HW1   11   1.267   0.097   2.149 -0.2975  2.8957  0.7140
    4SOL    HW2   12   1.341   3.076   2.044  2.3565  1.2824 -1.4591
    5SOL     OW   13   2.316   0.440   1.571 -0.3855  0.2459  0.2641
    5SOL    HW1   14   2.284   0.503   1.498 -0.8340  0.0941  1.0427
    5SOL    HW2   15   2.269   0.462   1.657 -0.4338  0.4680 -1.4429
    6SOL     OW   16   2.047   2.261   0.626 -0.2543  0.3508  0.3611
    6SOL    HW1   17   2.081   2.332   0.560  1.3923  3.2010 -1.4530
    6SOL    HW2   18   1.991   2.193   0.572  3.4021 -0.8497  0.2086
    7SOL     OW   19   1.988   1.027   1.047 -0.0754 -0.6692  0.1422
    7SOL    HW1   20   2.000   1.094   1.121  0.7314  2.1292 -1.0581
    7SOL    HW2   21   1.940   0.945   1.080 -0.0013  0.2624 -1.6031
    8SOL     OW   22   1.032   1.371   1.196 -0.3643  0.4199 -0.0602
    8SOL    HW1   23   0.986   1.458   1.176 -2.2871  0.4589 -0.7523
    8SOL    HW2   24   0.959   1.300   1.201 -3.6723 -0.7330 -0.6330
    9SOL     OW   25   0.812   2.467   1.505  0.0408 -0.3305 -0.1940
    9SOL    HW1   26   0.764   2.549   1.540 -0.8645  0.9443  1.0446
    9SOL    HW2   27   0.757   2.381   1.516 -1.0356 -1.2812  0.0236
   10SOL     OW   28   1.062   2.306   0.526 -0.1599  0.6701 -0.1412
   10SOL    HW1   29   0.970   2.270   0.497 -1.0290 -1.8770  2.6569
   10SOL    HW2   30   1.123   2.226   0.528 -2.5333 -0.5113  1.0624
   11SOL     OW   31   1.685   1.652   1.422 -0.5958 -0.1118  0.0714
   11SOL    HW1   32   1.675   1.746   1.455  0.8758 -0.5482  0.6184
   11SOL    HW2   33   1.670   1.639   1.320 -0.4604 -0.6150 -2.2780
   12SOL     OW   34   2.645   0.617   2.018  0.1756  0.3290  0.4682
   12SOL    HW1   35   2.727   0.577   1.972 -0.9912 -1.8399 -0.9797
   12SOL    HW2   36   2.653   0.715   2.033 -1.4850 -2.3651  2.2874
   13SOL     OW   37   2.493   0.270   0.698 -0.8525 -0.4885 -0.3374
   13SOL    HW1   38   2.393   0.248   0.683 -2.2604 -0.2427  0.1761
   13SOL    HW2   39   2.523   0.256   0.794  0.6195 -2.7773  1.8616
   14SOL     OW   40   1.653   1.469   0.067  0.0771 -0.6750  0.5303
   14SOL    HW1   41   1.604   1.377   0.086 -1.9299 -2.7101  0.5354
   14SOL    HW2   42   1.630   1.516   3.068  0.0269 -1.1877 -0.4391
   15SOL     OW   43   2.421   2.490   1.616 -0.0613  0.2959  0.2065
   15SOL    HW1   44   2.441   2.589   1.613 -1.1267 -0.3677 -1.7421
   15SOL    HW2   45   2.404   2.459   1.714  0.0250  0.8360  0.5427
   16SOL     OW   46   2.240   2.786   1.023 -0.0775 -0.6155 -0.1762
   16SOL    HW1   47   2.321   2.838   0.988 -0.5502  2.3678 -1.5947
   16SOL    HW2   48   2.157   2.829   0.987  1.0238 -1.0905 -0.5637
   17SOL     OW   49   0.931   0.362   1.359 -0.1739 -0.4529 -0.5220
   17SOL    HW1   50   0.991   0.315   1.294  1.5540  1.9898 -1.9350
   17SOL    HW2   51   0.863   0.294   1.393 -2.4358 -1.4432 -1.1522
   18SOL     OW   52   1.758   0.397   0.804 -0.5182  0.4566  0.0566
   18SOL    HW1   53   1.657   0.395   0.814  2.5593  0.1032  0.6770
   18SOL    HW2   54   1.803   0.321   0.851 -0.2055  2.8172 -2.9498
   19SOL     OW   55   1.969   1.637   0.247 -0.2608 -0.1953  0.2007
   19SOL    HW1   56   1.947   1.548   0.204 -0.3084  1.5061 -1.1940
   19SOL    HW2   57   2.018   1.699   0.186 -0.4959 -1.9630  3.7593
   20SOL     OW   58   2.221   1.585   2.451  0.0309  0.2130 -0.5578
   20SOL    HW1   59   2.273   1.574   2.363 -1.0613  1.9151  1.5883
   20SOL    HW2   60   2.123   1.555   2.437  1.2316 -0.9873  0.1073
   21SOL     OW   61   1.394   0.220   0.621  0.0355 -0.7266 -0.2261
   21SOL    HW1   62   1.341   0.291   0.667  0.1139  0.4563  0.0143
   21SOL    HW2   63   1.451   0.259   0.546 -5.3481 -1.5323 -0.1268
   22SOL     OW   64   2.673   0.609   1.312  0.5803 -0.1251 -0.1349
   22SOL    HW1   65   2.691   0.606   1.411 -1.9053 -0.3976 -2.6424
   22SOL    HW2   66   2.679   0.702   1.273 -1.6696 -0.8195  0.3712
   23SOL     OW   67   0.313   0.114   2.070  0.5185  0.5871 -0.0266
   23SOL    HW1   68   0.387   0.188   2.073  1.5071  1.2688 -0.6374
   23SOL    HW2   69   0.351   0.039   2.012  1.3541 -0.6682 -0.2301
   24SOL     OW   70   2.502   2.632   0.431  0.0244 -0.0695 -0.1297
   24SOL    HW1   71   2.518   2.531   0.442 -0.8970 -0.2855 -0.4012
   24SOL    HW2   72   2.478   2.662   0.335  1.9884 -1.3351  1.9319
   25SOL     OW   73   1.432   0.186   2.704 -0.0914  0.3764  1.1123
   25SOL    HW1   74   1.446   0.089   2.731 -1.0432  1.4610  0.3574
   25SOL    HW2   75   1.519   0.236   2.703 -1.6960  2.1235  1.2725
   26SOL     OW   76   1.453   2.790   0.130 -0.1518  0.1202 -0.2899
   26SOL    HW1   77   1.359   2.822   0.101 -2.7125 -1.6448  0.0201
   26SOL    HW2   78   1.439   2.708   0.183 -0.3053  1.2961 -0.2422
   27SOL     OW   79   1.235   0.650   1.279  0.3925 -0.7592  0.1168
   27SOL    HW1   80   1.168   0.719   1.235 -0.6923  1.4093 -2.3082
   27SOL    HW2   81   1.300   0.623   1.209  1.6653  0.5124  1.5470
   28SOL     OW   82   1.408   1.361   0.855 -0.3326  0.3843  0.2222
   28SOL    HW1   83   1.471   1.393   0.782 -1.0615  0.2165  0.5397
   28SOL    HW2   84   1.453   1.296   0.921 -0.7028  2.1569  2.4376
   29SOL     OW   85   3.006   0.145   1.836 -0.0262  0.1635 -0.4326
   29SOL    HW1   86   3.032   0.046   1.828  0.2349  0.9760  1.5099
   29SOL    HW2   87   3.002   0.178   1.740 -3.1033 -0.4185 -0.0002
   30SOL     OW   88   1.116   2.944   1.250 -0.1825  0.2664 -0.2401
   30SOL    HW1   89   1.099   2.884   1.168 -1.3451 -1.5738 -2.0697
   30SOL    HW2   90   1.197   3.001   1.240 -1.1914  1.6052 -1.2581
   31SOL     OW   91   1.964   2.907   1.954  0.0394  0.1285  0.0845
   31SOL    HW1   92   2.026   2.986   1.957 -0.3109  2.5784 -3.0799
   31SOL    HW2   93   2.007   2.837   1.895  4.3683  3.1144  2.0690
   32SOL     OW   94   1.015   1.907   3.052  0.3288 -0.1034  0.2053
   32SOL    HW1   95   0.992   1.850   0.041  1.2877  1.5399 -0.3424
   32SOL    HW2   96   1.074   1.989   3.073 -3.2637  1.7017  0.6821
   33SOL     OW   97   2.912   0.860   2.199  0.3310  0.4873  0.3960
   33SOL    HW1   98   2.814   0.863   2.167 -1.3732  2.4905 -0.3308
   33SOL    HW2   99   2.946   0.765   2.213 -0.1444  1.6940 -0.4574
   34SOL     OW  100   2.246   0.168   0.677  0.1124 -0.3603 -0.9887
   34SOL    HW1  101   2.150   0.204   0.703 -2.4057  1.1790  1.2420
   34SOL    HW2  102   2.240   0.115   0.591 -0.4134  0.5478  1.7681
   35SOL     OW  103   2.415   2.425   1.893 -0.1683 -0.4076 -0.1518
   35SOL    HW1  104   2.509   2.406   1.927  3.2234 -1.2718  2.5853
   35SOL    HW2  105   2.351   2.367   1.939  1.2973 -0.3664 -0.0320
   36SOL     OW  106   2.309   1.955   0.028  0.2084  0.1710 -0.4845
   36SOL    HW1  107   2.280   1.957   3.020 -2.1993  1.9121  0.3916
   36SOL    HW2  108   2.283   2.042   0.072  0.0841 -1.7088  0.6213
   37SOL     OW  109   2.048   0.357   1.620 -0.3819  0.0401 -0.4487
   37SOL    HW1  110   2.077   0.397   1.707  0.2372 -0.9932  0.6386
   37SOL    HW2  111   2.001   0.267   1.637 -1.8225 -2.1574 -1.2424
   38SOL     OW  112   0.066   0.309   2.827 -0.0728 -0.4468  0.6226
   38SOL    HW1  113   0.127   0.357   2.893 -1.2404  0.8594 -2.5856
   38SOL    HW2  114   0.085   0.209   2.837 -2.8244  0.0589 -0.9339
   39SOL     OW  115   1.850   1.350   1.772 -0.3031 -0.2599 -0.5173
   39SOL    HW1  116   1.900   1.337   1.861  0.0296  3.6053 -0.7717
   39SOL    HW2  117   1.900   1.426   1.723  0.8101 -1.5961  1.0020
   40SOL     OW  118   1.283   1.938   0.733  0.0374  0.2101 -0.0480
   40SOL    HW1  119   1.384   1.936   0.741 -0.3791 -2.3369  1.9633
   40SOL    HW2  120   1.255   1.935   0.638  0.3812  1.7210  0.7917
   41SOL     OW  121   1.959   1.805   0.956  0.0805 -0.1088 -0.2636
   41SOL    HW1  122   2.007   1.885   0.916 -1.1291 -3.1664  2.7545
   41SOL    HW2  123   1.914   1.750   0.882 -1.2158 -0.6179  1.4226
   42SOL     OW  124   0.266   0.629   1.281  0.1158  0.0088  0.0982
   42SOL    HW1  125   0.281   0.533   1.315  0.5799 -2.2606  2.5369
   42SOL    HW2  126   0.327   0.690   1.334 -3.5053 -0.6136 -2.1044
   43SOL     OW  127   0.160   1.531   2.690 -0.0438 -0.1484 -0.1893
   43SOL    HW1  128   0.148   1.554   2.788  1.7937 -2.0371  1.5808
   43SOL    HW2  129   0.224   1.600   2.647 -1.3796  0.0899 -1.8412
   44SOL     OW  130   1.641   2.689   1.349  0.1752 -0.2412 -0.3625
   44SOL    HW1  131   1.669   2.595   1.358 -1.3430  3.8619 -0.1638
   44SOL    HW2  132   1.619   2.735   1.438 -1.3817  1.1279 -0.0858
   45SOL     OW  133   1.132   0.158   2.291  0.1178  0.8546  0.4595
   45SOL    HW1  134   1.068   0.142   2.366 -0.9277 -0.8312 -0.9298
   45SOL    HW2  135   1.228   0.171   2.321 -0.1750  1.9682 -3.7567
   46SOL     OW  136   0.800   2.543   2.437 -0.0033 -0.3251  0.0277
   46SOL    HW1  137   0.900   2.563   2.417  5.0720  0.8231 -0.8377
   46SOL    HW2  138   0.751   2.616   2.487 -1.0657 -1.5599  3.2925
   47SOL     OW  139   0.929   2.176   0.766  0.2713 -0.1265  0.1118
   47SOL    HW1  140   0.931   2.278   0.747  0.3259  0.2750 -2.1191
   47SOL    HW2  141   0.971   2.162   0.861  3.5406  1.1295  1.9181
   48SOL     OW  142   1.014   2.129   1.030  0.1593  0.2499  0.2663
   48SOL    HW1  143   1.040   2.181   1.114 -1.8051 -1.3602  1.6458
   48SOL    HW2  144   0.947   2.053   1.048  1.3622 -0.5674  0.3785
   49SOL     OW  145   2.370   0.547   2.916  0.0943 -0.0665  1.0476
   49SOL    HW1  146   2.392   0.644   2.930  1.3254 -2.4489 -1.0614
   49SOL    HW2  147   2.424   0.509   2.837 -0.8764  1.1536 -0.2432
   50SOL     OW  148   1.791   0.232   0.523  0.0521 -0.0527 -0.4225
   50SOL    HW1  149   1.863   0.238   0.448 -0.5377  0.1811 -1.3887
   50SOL    HW2  150   1.703   0.277   0.494  0.0495  1.3144  3.9170
   51SOL     OW  151   2.228   0.827   1.297 -0.2888  0.4274 -0.4109
   51SOL    HW1  152   2.252   0.866   1.203  2.2302  2.7886 -0.0627
   51SOL    HW2  153   2.241   0.884   1.378  1.4585  0.2693  0.1358
   52SOL     OW  154   0.529   1.594   0.119  0.1620  0.1567  0.1614
   52SOL    HW1  155   0.628   1.573   0.126 -0.0262  2.4984  0.3831
   52SOL    HW2  156   0.515   1.695   0.096  2.0221  1.8247 -1.6578
   53SOL     OW  157   0.168   1.147   2.895 -0.5673  0.3975  0.2842
   53SOL    HW1  158   0.159   1.074   2.970  1.1347  0.1859  1.7223
   53SOL    HW2  159   0.261   1.193   2.902  0.4422  0.2863 -0.5136
   54SOL     OW  160   2.615   1.491   2.037  0.6975  0.1654 -0.4739
   54SOL    HW1  161   2.601   1.547   2.121 -2.3299  2.4628 -2.7055
   54SOL    HW2  162   2.664   1.402   2.054  1.6123 -0.4008  0.5571
   55SOL     OW  163   2.137   1.853   0.354 -0.0215 -0.1706  0.3242
   55SOL    HW1  164   2.166   1.760   0.373 -1.8755  3.4364 -0.4320
   55SOL    HW2  165   2.140   1.884   0.256 -2.8466 -1.0004  0.8253
   56SOL     OW  166   1.770   0.001   1.439  0.2281  0.2818  0.1740
   56SOL    HW1  167   1.843   3.020   1.414  3.9647  1.2519 -0.3180
   56SOL    HW2  168   1.778   0.044   1.527 -3.1577 -2.1993 -0.5643
   57SOL     OW  169   1.617   1.267   2.871  0.2072  0.0596  0.3813
   57SOL    HW1  170   1.595   1.188   2.928 -0.6614  1.9231 -1.1171
   57SOL    HW2  171   1.623   1.229   2.775 -3.9102 -0.0555  1.8539
   58SOL     OW  172   2.522   0.251   1.439  0.0164  0.2656 -0.2644
   58SOL    HW1  173   2.539   0.157   1.474  2.6900  1.0762 -0.5922
   58SOL    HW2  174   2.450   0.294   1.491 -0.4537 -2.1098 -0.2891
   59SOL     OW  175   1.206   2.864   0.068  0.2083 -0.1353 -0.4780
   59SOL    HW1  176   1.181   2.925   3.081  2.5393 -0.9309  1.7317
   59SOL    HW2  177   1.189   2.911   0.156 -0.9940  0.6314  0.9284
   60SOL     OW  178   3.009   2.131   2.803  0.0047  0.3236 -0.1598
   60SOL    HW1  179   2.909   2.130   2.824  0.4931  0.3775  0.3633
   60SOL    HW2  180   3.057   2.046   2.842  0.1362 -2.7985  0.9791
   61SOL     OW  181   0.542   2.391   0.789  0.0554 -0.5238 -0.2163
   61SOL    HW1  182   0.600   2.450   0.845 -0.4957 -0.5483  0.4526
   61SOL    HW2  183   0.463   2.445   0.754  0.2801 -1.1228 -1.1231
   62SOL     OW  184   1.949   1.850   2.631 -0.2471 -0.0072  0.3233
   62SOL    HW1  185   1.855   1.881   2.632  3.1603 -2.0684  0.9387
   62SOL    HW2  186   1.965   1.788   2.707 -1.7805 -2.8693 -0.4715
   63SOL     OW  187   1.668   1.961   0.022 -0.2852  0.0148 -0.5107
   63SOL    HW1  188   1.679   2.039   3.053 -0.2334 -2.6566  0.8874
   63SOL    HW2  189   1.679   1.874   3.062 -0.2679  1.8961  1.7806
   64SOL     OW  190   2.108   0.934   0.102  0.0112  0.1630  0.0508
   64SOL    HW1  191   2.082   1.027   0.122 -0.7972 -3.0662 -3.2124
   64SOL    HW2  192   2.156   0.899   0.182  0.8565  1.5312  0.9062
   65SOL     OW  193   2.124   2.091   2.042  0.0224  0.0999 -0.4657
   65SOL    HW1  194   2.174   2.029   2.112  0.5677 -1.1987  1.9987
   65SOL    HW2  195   2.151   2.187   2.050  2.2651 -0.0714  0.3220
   66SOL     OW  196   0.428   0.794   1.405 -0.0918  0.0634  0.0737
   66SOL    HW1  197   0.483   0.832   1.331  2.1564 -2.2257  1.2475
   66SOL    HW2  198   0.384   0.877   1.446  2.3038  0.6534  0.1674
   67SOL     OW  199   2.227   0.125   3.059  0.0394  0.2919 -0.0281
   67SOL    HW1  200   2.135   0.084   3.085 -2.9138 -2.6717 -1.4945
   67SOL    HW2  201   2.213   0.205   2.994 -0.2919 -0.7175 -0.7701
   68SOL     OW  202   1.671   1.960   1.457 -0.1156 -0.3193 -0.6506
   68SOL    HW1  203   1.753   2.019   1.457  0.6036  1.0347  3.3353
   68SOL    HW2  204   1.636   1.945   1.361  0.5744 -0.3730 -0.9115
   69SOL     OW  205   3.058   2.789   3.044 -0.3950 -0.3615 -0.5317
   69SOL    HW1  206   3.048   2.731   2.959  0.3568  0.8779  1.9328
   69SOL    HW2  207   3.004   2.755   0.034  0.1705 -1.1912 -0.2823
   70SOL     OW  208   0.439   0.565   1.831 -0.0965 -0.5008  0.1981
   70SOL    HW1  209   0.351   0.598   1.864  1.7100 -3.4722 -0.6451
   70SOL    HW2  210   0.455   0.579   1.733  1.3354 -0.2218  2.1499
   71SOL     OW  211   0.901   1.098   2.763  0.3258  0.2274 -0.3728
   71SOL    HW1  212   0.978   1.124   2.827  2.5288 -2.9708  1.1854
   71SOL    HW2  213   0.911   0.999   2.720  0.9349 -0.3210 -2.7143
   72SOL     OW  214   2.962   1.626   1.942 -0.2525 -0.0632  0.6691
   72SOL    HW1  215   2.929   1.719   1.906  0.0096 -0.5930 -1.9179
   72SOL    HW2  216   2.921   1.548   1.888 -1.6873 -0.5332 -0.7193
   73SOL     OW  217   1.302   1.891   0.235  0.3468  0.2714 -0.6390
   73SOL    HW1  218   1.326   1.869   0.136  0.1297 -1.0775 -0.9515
   73SOL    HW2  219   1.313   1.809   0.293  1.1557  0.0469 -1.7212
   74SOL     OW  220   2.288   2.999   2.870 -0.2295 -0.4632  0.0649
   74SOL    HW1  221   2.277   3.045   2.783  0.4832 -0.6023  0.5200
   74SOL    HW2  222   2.278   3.059   2.950  1.8544 -1.0430 -1.7064
   75SOL     OW  223   1.540   2.184   0.959 -0.2799 -0.0661  0.2570
   75SOL    HW1  224   1.445   2.163   0.928 -1.8532  1.2167 -1.1245
   75SOL    HW2  225   1.607   2.145   0.894 -1.2633  0.2173 -2.3299
   76SOL     OW  226   2.809   1.862   2.038 -0.2476  0.1723  0.2074
   76SOL    HW1  227   2.762   1.775   2.013 -1.0031 -1.6611 -2.0406
   76SOL    HW2  228   2.879   1.861   2.117  2.2223  0.6905  1.6765
   77SOL     OW  229   0.672   2.875   1.871 -0.1692 -0.2919  0.1908
   77SOL    HW1  230   0.689   2.925   1.782  0.5288 -1.7183 -0.8175
   77SOL    HW2  231   0.746   2.892   1.941  1.2773 -1.6591  1.8288
   78SOL     OW  232   2.147   0.795   0.357 -0.4046 -0.5473 -0.6479
   78SOL    HW1  233   2.163   0.745   0.270 -0.1024 -0.4912 -1.7505
   78SOL    HW2  234   2.051   0.793   0.378  3.8394 -0.7940  0.3485
   79SOL     OW  235   0.239   1.435   2.402  0.6738  0.3663  0.1263
   79SOL    HW1  236   0.209   1.437   2.496  3.1130 -2.5630 -2.2860
   79SOL    HW2  237   0.244   1.341   2.360  1.7000 -0.2207 -1.6049
   80SOL     OW  238   1.873   1.793   1.994  0.2438  0.0694 -0.3558
   80SOL    HW1  239   1.797   1.749   1.949  0.2302  0.7152  1.9519
   80SOL    HW2  240   1.937   1.851   1.935  1.2822 -0.3367 -0.0652
   81SOL     OW  241   1.966   1.515   2.392  0.5880 -0.1991  0.0470
   81SOL    HW1  242   1.962   1.429   2.333 -1.7585 -1.8394 -1.1588
   81SOL    HW2  243   1.932   1.594   2.337  1.2283  1.4335 -0.0618
   82SOL     OW  244   1.579   1.503   2.001 -0.3248 -0.0784 -0.6061
   82SOL    HW1  245   1.637   1.568   1.945  2.4861 -1.3951 -0.8664
   82SOL    HW2  246   1.580   1.404   1.968 -0.3844 -0.8952 -1.9604
   83SOL     OW  247   0.438   0.412   0.276 -0.1282 -0.0596 -0.0622
   83SOL    HW1  248   0.511   0.417   0.347 -0.5271  4.6890  2.6721
   83SOL    HW2  249   0.348   0.378   0.314  0.0632 -2.7662  0.4438
   84SOL     OW  250   0.130   0.396   0.327  0.4171 -0.1399  0.5751
   84SOL    HW1  251   0.029   0.385   0.344 -1.4308 -1.2329  1.1654
   84SOL    HW2  252   0.165   0.487   0.348 -2.3145 -2.2923  1.6654
   85SOL     OW  253   2.310   2.505   1.260  0.5059  0.0779 -0.0873
   85SOL    HW1  254   2.274   2.498   1.354  5.3119 -0.6949  0.9805
   85SOL    HW2  255   2.232   2.491   1.195 -2.4641  0.2111  0.6124
   86SOL     OW  256   0.411   0.285   1.503  0.6228 -0.1835 -0.2709
   86SOL    HW1  257   0.501   0.266   1.467 -0.7619 -0.8902  2.0836
   86SOL    HW2  258   0.342   0.278   1.430  1.7248  5.1244 -1.1099
   87SOL     OW  259   0.312   2.590   1.788 -0.0382 -0.2441 -0.3691
   87SOL    HW1  260   0.412   2.596   1.814  0.8047 -1.1345  0.3793
   87SOL    HW2  261   0.285   2.490   1.796 -1.4676 -1.1522  0.2882
   88SOL     OW  262   0.084   1.934   2.916 -0.0100 -0.3796  0.0025
   88SOL    HW1  263   0.065   1.856   2.978 -2.8248  0.9974  0.0050
   88SOL    HW2  264   0.161   1.988   2.950 -1.2582 -2.3277 -2.2503
   89SOL     OW  265   1.006   0.857   0.618  0.6715  0.2241  0.4659
   89SOL    HW1  266   1.079   0.798   0.577  1.7760  3.3400  2.1595
   89SOL    HW2  267   0.915   0.808   0.614  3.7612 -1.8345  1.6593
   90SOL     OW  268   0.149   1.534   2.031 -0.2876  0.0787 -0.0842
   90SOL    HW1  269   0.123   1.614   1.967  0.7504  1.2089  1.8733
   90SOL    HW2  270   0.106   1.539   2.125 -1.2167 -2.0824  4.1337
   91SOL     OW  271   1.578   0.788   0.709 -0.3552  0.2109 -0.1022
   91SOL    HW1  272   1.520   0.755   0.780 -0.2764 -0.1789  0.6668
   91SOL    HW2  273   1.643   0.711   0.676  1.2157 -0.9886  0.4881
   92SOL     OW  274   2.270   1.173   0.833  0.1614 -0.3849 -0.0960
   92SOL    HW1  275   2.258   1.237   0.756  1.1189 -0.8416 -1.1891
   92SOL    HW2  276   2.290   1.223   0.924 -0.5593  2.4296  3.9144
   93SOL     OW  277   0.152   1.120   2.619  0.4817  0.0582 -0.2532
   93SOL    HW1  278   0.163   1.149   2.717  0.8306  1.2800  2.0791
   93SOL    HW2  279   0.231   1.149   2.559 -2.4600 -0.7248  0.1179
   94SOL     OW  280   1.948   2.357   2.623  0.3913  0.4186  0.3841
   94SOL    HW1  281   1.983   2.313   2.713  1.5999 -2.6151  0.0258
   94SOL    HW2  282   2.037   2.379   2.571  0.9676 -2.3582  0.0615
   95SOL     OW  283   0.213   2.997   1.368 -0.6021  0.7066 -0.1194
   95SOL    HW1  284   0.304   2.984   1.415  1.6127 -0.1703 -0.6763
   95SOL    HW2  285   0.179   0.003   1.391 -2.8935  0.8093 -1.8652
   96SOL     OW  286   2.953   2.697   1.134 -0.4784 -0.2510  0.0571
   96SOL    HW1  287   2.866   2.715   1.085  0.2603  1.4875 -0.7637
   96SOL    HW2  288   2.956   2.771   1.198  3.9589 -0.5152 -3.7747
   97SOL     OW  289   2.751   0.621   1.585 -0.3717  0.5458  0.5600
   97SOL    HW1  290   2.802   0.695   1.634 -1.4370  1.6070  0.4298
   97SOL    HW2  291   2.678   0.582   1.649 -0.7233 -1.6738  0.6061
   98SOL     OW  292   1.855   2.480   1.875  0.1530  0.2873  0.2150
   98SOL    HW1  293   1.846   2.399   1.811 -4.4120  1.9259 -2.1439
   98SOL    HW2  294   1.757   2.514   1.895 -3.5260  1.9682  1.4315
   99SOL     OW  295   0.428   3.033   1.536 -0.4050  1.3069  0.1427
   99SOL    HW1  296   0.363   0.005   1.578  2.6463 -2.1109 -2.9945
   99SOL    HW2  297   0.415   2.943   1.585 -3.5924 -0.3685  2.9458
  100SOL     OW  298   1.813   0.258   2.561 -0.4850 -0.2930 -0.1493
  100SOL    HW1  299   1.752   0.273   2.641 -0.5276 -0.8761 -2.3071
  100SOL    HW2  300   1.910   0.248   2.583 -0.6032 -1.5608 -1.5161
  101SOL     OW  301   2.917   0.394   2.523  0.2513  0.0337  0.2479
  101SOL    HW1  302   2.908   0.305   2.473 -0.2303 -1.4649  0.0026
  101SOL    HW2  303   2.894   0.472   2.463  1.7877 -0.4102  1.8143
  102SOL     OW  304   0.486   0.562   1.570  0.0836  0.2033 -0.2308
  102SOL    HW1  305   0.456   0.644   1.513 -1.9002  2.0000  0.5053
  102SOL    HW2  306   0.458   0.479   1.526 -0.3483  0.6643  1.3743
  103SOL     OW  307   0.897   0.465   2.781  0.2474  0.0735  0.1441
  103SOL    HW1  308   0.986   0.418   2.760 -2.0407 -1.1265 -0.4759
  103SOL    HW2  309   0.904   0.566   2.802 -0.5140  2.4731  0.2276
  104SOL     OW  310   0.484   0.859   2.278  0.6009 -0.2601  0.1944
  104SOL    HW1  311   0.507   0.955   2.300 -0.4335 -1.7730  0.5263
  104SOL    HW2  312   0.486   0.843   2.175  0.5819 -1.5327  0.0901
  105SOL     OW  313   2.343   2.015   1.437  0.0385  0.1338 -1.0273
  105SOL    HW1  314   2.360   2.096   1.499 -0.9170  0.1857  1.7760
  105SOL    HW2  315   2.267   2.041   1.373 -1.0611 -1.4590 -1.3368
  106SOL     OW  316   1.566   2.923   0.629 -0.1973  0.0609 -0.3248
  106SOL    HW1  317   1.563   3.020   0.652 -0.2348 -2.4457  0.6289
  106SOL    HW2  318   1.484   2.903   0.564  0.1646 -0.0879 -0.0788
  107SOL     OW  319   1.918   2.243   1.060 -0.4232  0.7207 -0.0100
  107SOL    HW1  320   1.896   2.141   1.076  2.1557 -3.3946  1.9322
  107SOL    HW2  321   1.849   2.304   1.101  1.0751 -0.7815  2.0677
  108SOL     OW  322   0.017   2.314   1.153 -0.0422  0.1642  0.5170
  108SOL    HW1  323   0.023   2.221   1.111  1.5512  0.4621 -0.3459
  108SOL    HW2  324   0.018   2.387   1.081 -0.8909  2.8341 -3.2365
  109SOL     OW  325   2.221   2.322   0.822  0.1294 -0.1570 -0.5494
  109SOL    HW1  326   2.149   2.307   0.752  0.5737  1.2785  1.9960
  109SOL    HW2  327   2.234   2.420   0.841  0.8972 -0.2434  3.5371
  110SOL     OW  328   1.232   1.691   1.878 -0.2137 -0.4357  0.2372
  110SOL    HW1  329   1.222   1.606   1.820 -2.4068  0.7141 -0.0515
  110SOL    HW2  330   1.206   1.770   1.817 -1.8496  0.7997 -0.3893
  111SOL     OW  331   1.766   2.376   2.271 -0.4633  0.2170  0.4090
  111SOL    HW1  332   1.831   2.331   2.202  0.4565 -0.8430 -1.7952
  111SOL    HW2  333   1.807   2.355   2.360  1.1918 -1.4077 -0.1862
  112SOL     OW  334   1.422   2.057   2.825  0.2337 -0.4478  0.1175
  112SOL    HW1  335   1.417   2.006   2.909 -0.5198  0.0883 -1.3396
  112SOL    HW2  336   1.446   2.156   2.851 -4.5491 -0.7523 -1.5664
  113SOL     OW  337   1.727   1.990   1.813 -0.4187 -0.5109  0.1055
  113SOL    HW1  338   1.706   1.899   1.777 -1.0059  2.6680  1.6724
  113SOL    HW2  339   1.690   2.006   1.904  0.5962 -1.5912 -1.9776
  114SOL     OW  340   0.094   1.234   1.402  0.7131  0.0992  0.2561
  114SOL    HW1  341   0.087   1.227   1.299 -0.2997 -0.7655  0.2267
  114SOL    HW2  342   0.006   1.203   1.439 -1.6340  2.0152 -3.3932
  115SOL     OW  343   0.743   0.753   0.187  0.7735  0.4211  0.2866
  115SOL    HW1  344   0.678   0.726   0.111 -1.3096 -1.5646 -0.5740
  115SOL    HW2  345   0.779   0.666   0.221 -2.1786  1.4583 -2.5693
  116SOL     OW  346   2.595   1.662   2.296 -0.3067 -0.3081 -0.0242
  116SOL    HW1  347   2.520   1.696   2.236 -1.4759  0.5996 -1.0620
  116SOL    HW2  348   2.581   1.577   2.347  3.1387 -0.2305  0.1663
  117SOL     OW  349   3.007   2.442   0.274 -0.0786 -0.1737  0.1223
  117SOL    HW1  350   3.091   2.455   0.330 -1.3091 -0.7414  0.4948
  117SOL    HW2  351   2.932   2.406   0.330  0.7268  0.9803 -0.2034
  118SOL     OW  352   0.723   1.837   2.669  0.3282 -0.6819 -0.3518
  118SOL    HW1  353   0.642   1.806   2.719  0.8850  1.9027 -0.0849
  118SOL    HW2  354   0.709   1.826   2.571  0.3021 -0.9556  0.0647
  119SOL     OW  355   0.801   2.213   0.432 -0.2129  0.4520  0.2019
  119SOL    HW1  356   0.752   2.197   0.515  1.0011  2.0264 -0.8544
  119SOL    HW2  357   0.798   2.127   0.383 -2.3385 -0.2664  0.0418
  120SOL     OW  358   1.519   0.565   0.124 -0.0698 -0.1945  0.3683
  120SOL    HW1  359   1.566   0.473   0.133  2.8644  0.2551 -0.4621
  120SOL    HW2  360   1.436   0.582   0.175  1.1620  0.6592 -0.0834
  121SOL     OW  361   1.282   2.189   0.890 -0.1736  0.0860 -0.2008
  121SOL    HW1  362   1.210   2.177   0.960 -1.8320  0.4280  1.0248
  121SOL    HW2  363   1.257   2.134   0.810  1.0522 -0.9649  3.5086
  122SOL     OW  364   2.732   2.139   1.951 -0.5994  0.0407  0.2911
  122SOL    HW1  365   2.785   2.057   1.982 -0.9431 -0.5896 -1.1951
  122SOL    HW2  366   2.670   2.113   1.878  0.3819  0.7747  4.2935
  123SOL     OW  367   1.202   1.606   0.796 -0.5650 -0.3647  0.3252
  123SOL    HW1  368   1.182   1.673   0.873 -0.9554 -1.3527  2.2936
  123SOL    HW2  369   1.234   1.514   0.828  1.3807  2.2105 -0.5406
  124SOL     OW  370   2.932   0.878   0.517 -0.1007 -0.0255 -0.8605
  124SOL    HW1  371   2.835   0.859   0.551  0.6837 -0.8419  1.8280
  124SOL    HW2  372   2.954   0.974   0.501  1.1008  2.4711 -1.3867
  125SOL     OW  373   0.150   0.272   0.080 -0.3501  0.4213 -0.5917
  125SOL    HW1  374   0.153   0.323   0.171  0.4485  1.0521  0.4515
  125SOL    HW2  375   0.157   0.346   0.009 -0.2833  2.3530  1.6282
  126SOL     OW  376   0.121   1.701   0.687 -0.7417 -0.1836  0.1090
  126SOL    HW1  377   0.194   1.733   0.618  1.0014 -1.6338 -3.9812
  126SOL    HW2  378   0.038   1.759   0.681  1.3111 -1.1240 -0.6572
  127SOL     OW  379   1.325   2.525   1.541  0.4042 -0.0064  0.1913
  127SOL    HW1  380   1.253   2.482   1.602  1.4734  2.8929 -0.2992
  127SOL    HW2  381   1.289   2.546   1.445 -1.4590 -1.2646 -2.6334
  128SOL     OW  382   1.269   1.403   0.103  0.2313  0.4818 -0.0158
  128SOL    HW1  383   1.208   1.382   0.021 -2.5728 -0.9019 -0.7087
  128SOL    HW2  384   1.346   1.337   0.111  1.8177 -1.2586  1.9735
  129SOL     OW  385   1.896   2.082   1.405  0.1779  0.1621 -0.0066
  129SOL    HW1  386   1.894   2.037   1.320  1.4267  0.7791  3.8803
  129SOL    HW2  387   1.932   2.181   1.402  1.4280  0.8188 -2.2773
  130SOL     OW  388   1.965   1.989   1.643 -0.3319  0.3384 -0.3727
  130SOL    HW1  389   1.896   2.015   1.715  1.3742 -0.1435  3.0956
  130SOL    HW2  390   1.940   2.022   1.549 -1.5559 -1.4781  1.0351
  131SOL     OW  391   2.836   2.582   2.370  0.3073  0.1983 -0.3340
  131SOL    HW1  392   2.809   2.684   2.372  1.9238  0.2545  1.5148
  131SOL    HW2  393   2.763   2.527   2.412 -0.7733 -2.6255 -0.7877
  132SOL     OW  394   3.010   2.101   0.523 -0.3197  0.5413  0.3128
  132SOL    HW1  395   3.079   2.140   0.583  1.9163 -1.7782  1.0349
  132SOL    HW2  396   2.977   2.012   0.564  1.6440  0.3858 -1.6759
  133SOL     OW  397   0.512   0.297   2.112  0.1463 -0.4855  0.3288
  133SOL    HW1  398   0.579   0.343   2.053  0.0811 -2.3943  3.1326
  133SOL    HW2  399   0.457   0.365   2.165 -0.9783  0.7427  1.0440
  134SOL     OW  400   2.901   1.850   0.260 -0.1501 -0.4201  0.2666
  134SOL    HW1  401   2.962   1.930   0.240 -0.6749 -0.2799 -1.0193
  134SOL    HW2  402   2.855   1.864   0.351  1.9002  0.8874  0.9177
  135SOL     OW  403   1.743   0.948   2.575 -0.3706 -0.6539 -0.1753
  135SOL    HW1  404   1.659   0.905   2.616  1.6170  1.2606  0.1155
  135SOL    HW2  405   1.731   1.052   2.569 -1.0750  1.0773 -1.3995
  136SOL     OW  406   2.540   1.741   0.889  0.7924 -0.4239  0.1807
  136SOL    HW1  407   2.457   1.780   0.840  1.0755  1.3751 -1.8205
  136SOL    HW2  408   2.576   1.807   0.959 -0.8156 -0.8989  2.8235
  137SOL     OW  409   2.788   1.655   0.763  0.3663 -0.2429  0.4242
  137SOL    HW1  410   2.801   1.614   0.669  1.7404  0.8688 -1.2770
  137SOL    HW2  411   2.687   1.675   0.780  1.1322 -0.6032 -0.6646
  138SOL     OW  412   2.908   0.426   1.069 -0.1077 -0.0759  0.0317
  138SOL    HW1  413   2.806   0.428   1.062  0.7832  1.6130 -0.0808
  138SOL    HW2  414   2.948   0.435   0.971  2.5086  2.4344 -4.8306
  139SOL     OW  415   3.059   2.628   2.820  0.5711  0.0426 -0.2093
  139SOL    HW1  416   3.068   2.528   2.845  0.8050  0.1737  0.6608
  139SOL    HW2  417   0.024   2.652   2.736  1.8963  0.1214  1.4150
  140SOL     OW  418   0.768   1.718   1.856 -0.1220 -0.0778  0.3516
  140SOL    HW1  419   0.850   1.735   1.912  1.2268  0.1355 -0.2899
  140SOL    HW2  420   0.798   1.738   1.761 -1.5616 -3.1823  0.2094
  141SOL     OW  421   1.552   1.863   0.786 -0.0935  0.0829 -0.2615
  141SOL    HW1  422   1.583   1.805   0.708 -0.1130  0.7293  2.0491
  141SOL    HW2  423   1.506   1.799   0.851  0.4774 -0.6759  0.2423
  142SOL     OW  424   1.094   0.844   1.167 -0.2307  0.2401  0.2141
  142SOL    HW1  425   1.052   0.846   1.074  0.0724 -1.4822 -0.9978
  142SOL    HW2  426   1.146   0.930   1.181  0.9294  2.2065 -0.2809
  143SOL     OW  427   0.766   1.124   3.060 -0.3974 -0.2816 -0.0160
  143SOL    HW1  428   0.710   1.143   0.053 -2.9104  1.7016  1.0181
  143SOL    HW2  429   0.710   1.088   2.982 -1.0926 -0.4620 -0.4085
  144SOL     OW  430   1.982   2.832   0.959  0.1511  0.7375  0.1973
  144SOL    HW1  431   1.990   2.905   0.891  0.0595  0.6041  1.8469
  144SOL    HW2  432   1.904   2.853   1.020  0.4767  2.4332 -0.8885
  145SOL     OW  433   2.294   0.621   2.512  0.3639 -0.0045 -0.3965
  145SOL    HW1  434   2.335   0.675   2.593  2.4795  1.4202  0.0995
  145SOL    HW2  435   2.367   0.576   2.458  0.8275  0.4687 -0.3070
  146SOL     OW  436   2.812   2.496   0.643  0.0636  0.0133  0.0925
  146SOL    HW1  437   2.731   2.523   0.695  1.3553 -1.3658 -1.8324
  146SOL    HW2  438   2.850   2.573   0.586  2.8423 -0.7783  0.5468
  147SOL     OW  439   1.304   0.938   2.444  0.2003  0.1368  0.4289
  147SOL    HW1  440   1.256   1.026   2.444 -1.7844 -2.3334  0.4683
  147SOL    HW2  441   1.309   0.910   2.348 -4.1770 -0.0028  0.6446
  148SOL     OW  442   1.229   0.432   2.440 -0.3984 -0.1009 -0.2651
  148SOL    HW1  443   1.141   0.448   2.395  0.0315 -0.5177 -0.9611
  148SOL    HW2  444   1.287   0.357   2.399  2.9270 -0.7401 -1.1176
  149SOL     OW  445   1.920   2.999   2.214 -0.0151  0.0048 -0.2358
  149SOL    HW1  446   1.924   2.976   2.115  0.9721 -2.2781 -0.5292
  149SOL    HW2  447   1.994   2.948   2.259 -0.0589  1.7862 -0.5978
  150SOL     OW  448   2.452   2.597   3.057  0.4882  0.2733 -0.6065
  150SOL    HW1  449   2.416   2.644   2.973 -1.8476 -0.8001  0.6016
  150SOL    HW2  450   2.547   2.564   3.041  1.4171 -0.5972 -1.1722
  151SOL     OW  451   0.417   1.297   2.911  1.1654  0.6510  0.0728
  151SOL    HW1  452   0.417   1.242   2.996 -0.6885  0.0497 -0.4056
  151SOL    HW2  453   0.402   1.396   2.932  0.5211 -1.5128 -0.9665
  152SOL     OW  454   3.063   0.225   1.116  0.1235  0.2318 -0.5730
  152SOL    HW1  455   2.993   0.300   1.096  0.5005 -0.8543  0.1368
  152SOL    HW2  456   0.063   0.259   1.085 -2.4361 -2.0993  2.1350
  153SOL     OW  457   2.464   0.056   1.700  0.0479 -0.3314 -0.3019
  153SOL    HW1  458   2.463   3.064   1.765 -1.3786  1.5594  2.0012
  153SOL    HW2  459   2.373   0.068   1.653  1.9781  0.7460 -0.7907
  154SOL     OW  460   2.038   0.406   2.070  0.9095 -0.3162  0.7659
  154SOL    HW1  461   2.031   0.477   2.141 -1.1079  2.1482  0.7312
  154SOL    HW2  462   1.965   0.436   2.003 -0.5094  1.5604  0.1266
  155SOL     OW  463   0.080   1.493   0.366  0.5351  0.1577  0.3495
  155SOL    HW1  464   0.174   1.539   0.357  2.9851  3.2525  0.2221
  155SOL    HW2  465   0.055   1.470   0.466 -0.8301  0.4567 -0.6797
  156SOL     OW  466   2.843   1.533   3.059  0.5262  0.6125 -0.3201
  156SOL    HW1  467   2.873   1.623   3.019 -0.3943  0.0587 -1.6480
  156SOL    HW2  468   2.817   1.544   0.067  0.0249 -0.8402 -0.5662
  157SOL     OW  469   0.492   0.278   0.664 -0.2880  0.3274  0.0460
  157SOL    HW1  470   0.452   0.185   0.632  0.1477 -4.6775  2.3623
  157SOL    HW2  471   0.559   0.270   0.743 -0.6055  0.7919  1.7719
  158SOL     OW  472   2.232   0.960   1.518 -0.3855  0.3766 -0.2949
  158SOL    HW1  473   2.227   1.061   1.525  1.2122  0.4729  0.5428
  158SOL    HW2  474   2.268   0.916   1.606  0.3018 -1.8779  2.3706
  159SOL     OW  475   0.105   0.133   0.483  0.2951 -0.1170 -0.1313
  159SOL    HW1  476   0.014   0.126   0.522 -1.3950 -0.5669  1.4982
  159SOL    HW2  477   0.110   0.214   0.425 -0.5311 -2.8194  0.2538
  160SOL     OW  478   2.142   2.293   1.769 -0.4691 -0.2526  0.0703
  160SOL    HW1  479   2.155   2.320   1.866  1.5267 -2.0530 -1.2913
  160SOL    HW2  480   2.045   2.280   1.744 -0.0510 -1.3660 -0.8192
  161SOL     OW  481   0.093   0.857   2.509  0.3767  0.3298 -0.1876
  161SOL    HW1  482   0.162   0.798   2.555 -1.1552 -0.0428 -2.3981
  161SOL    HW2  483   0.107   0.957   2.521 -5.0699  0.9835 -1.2611
  162SOL     OW  484   0.665   2.735   1.469  0.3683  0.1322  0.6754
  162SOL    HW1  485   0.695   2.814   1.522 -0.5267  1.2875 -0.2312
  162SOL    HW2  486   0.706   2.743   1.374 -1.0935  0.2906 -0.4523
  163SOL     OW  487   2.908   0.114   2.360 -0.0824 -0.4293 -0.8909
  163SOL    HW1  488   2.876   0.058   2.284  0.8076  0.7989 -0.0285
  163SOL    HW2  489   2.974   0.181   2.329  1.2110 -2.6812 -1.4874
  164SOL     OW  490   2.103   1.777   0.046  0.5001  0.5194  0.1035
  164SOL    HW1  491   2.170   1.847   0.041 -1.5497 -2.8933 -0.4023
  164SOL    HW2  492   2.137   1.694   3.084 -0.4540 -1.1168 -1.7022
  165SOL     OW  493   0.138   0.183   1.420  0.0709  0.1917  0.1069
  165SOL    HW1  494   0.203   0.154   1.491 -1.1232  0.0923  0.0675
  165SOL    HW2  495   0.039   0.160   1.439  0.3084  0.6292 -2.0853
  166SOL     OW  496   1.961   0.805   0.683 -0.1112 -0.2348 -0.2025
  166SOL    HW1  497   2.006   0.890   0.714  0.3967 -2.5053 -3.3912
  166SOL    HW2  498   1.932   0.827   0.590  0.4772  2.0044 -2.0839
  167SOL     OW  499   2.658   1.066   3.009 -0.1280 -0.1648  0.1733
  167SOL    HW1  500   2.595   1.027   3.078 -0.7208 -0.8263  2.4009
  167SOL    HW2  501   2.730   1.112   3.062 -2.1829  0.1784 -1.7062
  168SOL     OW  502   1.675   0.271   2.795 -0.0700  0.1445  0.2646
  168SOL    HW1  503   1.660   0.351   2.852  2.4432  0.7096 -0.1982
  168SOL    HW2  504   1.677   0.189   2.856  0.3717  0.1330  1.6396
  169SOL     OW  505   0.200   1.573   0.912  0.1308  0.8059 -0.1230
  169SOL    HW1  506   0.134   1.558   0.988  0.3903  0.6639 -2.4772
  169SOL    HW2  507   0.162   1.645   0.845 -2.4898  1.2096 -4.0193
  170SOL     OW  508   3.067   0.930   0.945  0.4740  0.4019 -0.2267
  170SOL    HW1  509   3.078   0.896   1.040 -0.2181  0.7421 -0.4724
  170SOL    HW2  510   0.066   0.917   0.898 -1.6211  1.3147  0.2002
  171SOL     OW  511   2.485   2.083   2.118 -0.3700  0.1119  0.1497
  171SOL    HW1  512   2.475   1.982   2.118  2.0187 -0.5137  0.4644
  171SOL    HW2  513   2.575   2.119   2.105 -1.7394  0.9744  0.0666
  172SOL     OW  514   0.440   2.004   1.233  0.5103  0.1145  0.4103
  172SOL    HW1  515   0.455   2.100   1.259  1.8770 -0.3018 -0.8824
  172SOL    HW2  516   0.519   1.946   1.261  0.9787  1.6999  0.1582
  173SOL     OW  517   1.571   1.532   2.905  0.1888  0.2338  0.5753
  173SOL    HW1  518   1.604   1.440   2.876  0.5221 -0.7744 -0.3020
  173SOL    HW2  519   1.554   1.580   2.811  2.2253 -0.4585  0.4264
  174SOL     OW  520   1.220   0.635   2.776  0.2939 -0.2127  1.0403
  174SOL    HW1  521   1.264   0.546   2.782 -2.1164  3.2369  0.7352
  174SOL    HW2  522   1.183   0.657   2.684  1.0685 -0.9004  1.7752
  175SOL     OW  523   1.439   1.366   1.370  0.0620 -0.7519  0.7165
  175SOL    HW1  524   1.473   1.371   1.466 -1.4401 -0.5021 -1.4302
  175SOL    HW2  525   1.356   1.306   1.365 -0.5814 -3.3710 -1.9974
  176SOL     OW  526   1.232   0.014   0.571  0.6525  0.1989 -0.1823
  176SOL    HW1  527   1.244   3.073   0.476 -2.8375 -0.4455  1.2333
  176SOL    HW2  528   1.294   0.095   0.590  2.0867  0.1458  2.4433
  177SOL     OW  529   0.257   0.733   0.143 -0.0325 -0.6227 -0.4829
  177SOL    HW1  530   0.154   0.713   0.128 -1.9394  1.4745  2.8491
  177SOL    HW2  531   0.313   0.661   0.099 -1.3980  1.1284 -0.4110
  178SOL     OW  532   2.583   2.401   2.294 -0.2314  0.8939  0.5752
  178SOL    HW1  533   2.646   2.350   2.363  1.3642  2.6527 -0.3952
  178SOL    HW2  534   2.614   2.380   2.197  0.2783  0.5509 -0.8492
  179SOL     OW  535   2.953   0.053   2.626  0.1978 -0.5170  0.0513
  179SOL    HW1  536   2.941   0.140   2.680  0.1440 -0.3880 -2.1274
  179SOL    HW2  537   2.943   0.067   2.529 -0.0697 -2.8333  5.1778
  180SOL     OW  538   2.006   0.380   0.969  0.1422 -0.1167 -0.0284
  180SOL    HW1  539   2.106   0.366   0.965 -0.4071  0.6522  3.0528
  180SOL    HW2  540   1.980   0.480   0.963  0.2671  0.1671 -1.8413
  181SOL     OW  541   2.169   0.934   2.514  0.1374 -0.2342 -0.4957
  181SOL    HW1  542   2.229   0.859   2.486 -1.0136 -1.1180  0.7627
  181SOL    HW2  543   2.074   0.904   2.510 -0.0483  1.3963  1.0329
  182SOL     OW  544   2.645   2.371   2.020  0.2356 -0.3000 -0.2627
  182SOL    HW1  545   2.722   2.436   2.022 -1.9679 -0.4216  1.4952
  182SOL    HW2  546   2.685   2.283   1.985 -0.7136  3.2544  2.0939
  183SOL     OW  547   2.110   0.709   1.754 -0.0981 -0.5542 -0.5337
  183SOL    HW1  548   2.138   0.614   1.784 -0.8316 -0.4520  0.9769
  183SOL    HW2  549   2.189   0.767   1.750 -2.7399  0.4527 -0.0397
  184SOL     OW  550   0.051   1.538   1.155 -0.1446  0.0742  0.0533
  184SOL    HW1  551   0.093   1.445   1.149  3.1025 -1.2410 -2.0333
  184SOL    HW2  552   0.035   1.574   1.249  2.0460 -1.3683 -2.2115
  185SOL     OW  553   2.280   0.066   0.935 -0.1759 -0.0277 -0.0844
  185SOL    HW1  554   2.267   0.118   0.848 -1.3657  1.1207 -1.8578
  185SOL    HW2  555   2.341   3.078   0.924 -0.7640  1.2890  0.7530
  186SOL     OW  556   2.467   2.530   2.746  0.2117 -0.2237 -0.5278
  186SOL    HW1  557   2.479   2.621   2.788  0.5043 -2.3499  0.3940
  186SOL    HW2  558   2.517   2.461   2.799  0.1506 -0.9711  0.2885
  187SOL     OW  559   0.385   1.350   0.505  0.0931  0.4067  0.4217
  187SOL    HW1  560   0.327   1.264   0.496 -3.8417 -0.8963  0.7380
  187SOL    HW2  561   0.403   1.372   0.600  0.6907  3.7216 -1.2288
  188SOL     OW  562   2.215   1.367   1.337  0.2248  0.1623 -0.7307
  188SOL    HW1  563   2.304   1.378   1.389 -1.6922 -1.3275  2.1750
  188SOL    HW2  564   2.238   1.345   1.243  0.0804  0.6942  2.5499
  189SOL     OW  565   0.240   0.752   2.294 -0.3880  0.4794 -0.1829
  189SOL    HW1  566   0.325   0.802   2.302  0.9940 -0.5055 -2.0024
  189SOL    HW2  567   0.190   0.760   2.384 -0.0236  3.5663  2.4373
  190SOL     OW  568   1.958   0.859   1.928 -0.1432  0.8511  0.1872
  190SOL    HW1  569   1.883   0.879   1.859 -2.0176  1.9020  0.2897
  190SOL    HW2  570   2.030   0.802   1.883  3.1499  0.6620  1.7852
  191SOL     OW  571   1.082   0.252   2.019 -0.1841 -0.3106 -0.4125
  191SOL    HW1  572   1.038   0.196   1.947  0.1017  0.1825 -0.7298
  191SOL    HW2  573   1.061   0.220   2.113  2.1364  1.5769 -0.3497
  192SOL     OW  574   1.129   1.922   1.748 -0.0625 -0.2365 -0.1330
  192SOL    HW1  575   1.076   1.981   1.687 -1.9379 -3.0549  4.2601
  192SOL    HW2  576   1.141   1.968   1.839  2.5437 -1.8630  0.0143
  193SOL     OW  577   1.222   0.253   0.877  0.5301  0.1350  0.2537
  193SOL    HW1  578   1.156   0.322   0.845 -1.7074 -0.7563 -0.9210
  193SOL    HW2  579   1.171   0.167   0.899  2.5898 -0.6019  0.3314
  194SOL     OW  580   1.015   2.131   1.622  0.0607 -0.3094  0.0478
  194SOL    HW1  581   0.920   2.117   1.576 -3.6206 -0.7596 -1.7996
  194SOL    HW2  582   1.092   2.126   1.555  1.3992 -0.8060 -2.8502
  195SOL     OW  583   1.549   0.355   0.427 -0.3142  0.1122 -0.8225
  195SOL    HW1  584   1.589   0.449   0.439  0.9671 -0.0361  1.9363
  195SOL    HW2  585   1.586   0.313   0.340 -1.1003 -0.9416 -0.7674
  196SOL     OW  586   0.788   1.555   2.242 -0.2524  0.2612  0.2540
  196SOL    HW1  587   0.805   1.488   2.167  1.0826 -0.4481 -2.2892
  196SOL    HW2  588   0.857   1.540   2.316 -0.0300 -0.6650 -1.5576
  197SOL     OW  589   0.751   0.598   1.548 -0.0157  0.1789 -0.1783
  197SOL    HW1  590   0.725   0.653   1.469  0.0242  1.5259  3.1212
  197SOL    HW2  591   0.665   0.558   1.583 -1.1450 -3.5315  0.0889
  198SOL     OW  592   0.708   0.863   0.889 -0.3150 -0.3131 -0.5342
  198SOL    HW1  593   0.808   0.877   0.903 -1.0003  0.5592  1.1853
  198SOL    HW2  594   0.661   0.940   0.840 -1.9862  1.8294  0.6544
  199SOL     OW  595   0.619   2.314   1.610  0.6609  0.1403  0.9156
  199SOL    HW1  596   0.631   2.339   1.705 -2.2869  1.1647  0.8897
  199SOL    HW2  597   0.518   2.308   1.592 -1.1897 -0.3189  2.0693
  200SOL     OW  598   1.738   1.180   2.191  0.0881  0.0339  0.2538
  200SOL    HW1  599   1.714   1.217   2.098  0.7321  0.5065  2.3074
  200SOL    HW2  600   1.702   1.087   2.205 -0.3735  1.4197 -0.5757
  201SOL     OW  601   0.653   2.015   1.906  0.1545 -0.3135 -0.0914
  201SOL    HW1  602   0.662   1.915   1.898 -1.9991  2.8673 -1.8491
  201SOL    HW2  603   0.555   2.046   1.896 -1.4608  1.7676 -0.2520
  202SOL     OW  604   1.150   2.986   0.294  0.4424  0.1938  0.1200
  202SOL    HW1  605   1.106   3.076   0.260 -1.7550  3.0853 -0.3467
  202SOL    HW2  606   1.079   2.923   0.325 -1.6328 -1.6759 -0.5178
  203SOL     OW  607   1.600   0.147   2.170  0.2055 -0.5974  0.2910
  203SOL    HW1  608   1.512   0.108   2.134 -0.6144  1.0411 -2.2121
  203SOL    HW2  609   1.645   0.079   2.232  1.2181  1.4122 -0.9929
  204SOL     OW  610   0.681   1.502   1.701 -0.3277  0.0852  0.6021
  204SOL    HW1  611   0.703   1.570   1.770  2.2320 -2.7871 -0.2563
  204SOL    HW2  612   0.632   1.427   1.753 -0.9915  2.3620  2.1719
  205SOL     OW  613   2.169   1.199   2.612  0.2106  0.0307  0.0753
  205SOL    HW1  614   2.148   1.118   2.558  1.8700 -1.7021 -0.5551
  205SOL    HW2  615   2.271   1.208   2.616  0.4052 -0.0232  0.7373
  206SOL     OW  616   0.162   1.650   2.282  0.1905  0.5200  0.1250
  206SOL    HW1  617   0.179   1.728   2.344  1.2923 -4.0139  1.1742
  206SOL    HW2  618   0.192   1.557   2.323  0.6006  0.4741 -1.8834
  207SOL     OW  619   1.018   2.712   1.456  0.0477 -0.3886 -0.0138
  207SOL    HW1  620   0.962   2.685   1.534 -1.5093 -2.2445 -1.9051
  207SOL    HW2  621   1.034   2.813   1.450  1.5408 -2.4957 -0.8878
  208SOL     OW  622   0.281   2.477   1.216 -0.3958 -0.0411 -0.2238
  208SOL    HW1  623   0.244   2.555   1.269  0.2419  2.6814  0.9568
  208SOL    HW2  624   0.208   2.440   1.159  2.7299  0.8558 -1.6989
  209SOL     OW  625   0.998   2.743   0.440  0.1522 -0.4200 -0.2168
  209SOL    HW1  626   1.068   2.675   0.415  0.6243  1.0579  1.6216
  209SOL    HW2  627   0.919   2.699   0.486 -0.2316 -1.4538  0.4375
  210SOL     OW  628   2.723   1.323   1.012 -0.3248  0.5093 -0.3089
  210SOL    HW1  629   2.825   1.319   1.010 -2.7534 -1.8831 -0.7687
  210SOL    HW2  630   2.679   1.239   0.975 -0.0302 -2.8965 -2.0934
  211SOL     OW  631   0.734   0.824   1.727  0.0233 -0.3821  0.1444
  211SOL    HW1  632   0.732   0.746   1.662  0.6974  0.4263  0.5853
  211SOL    HW2  633   0.817   0.809   1.786  2.3757  0.6623  0.6444
  212SOL     OW  634   1.602   2.208   1.663 -0.3682  0.0499 -0.3184
  212SOL    HW1  635   1.573   2.241   1.571 -0.3571  0.7616 -0.2445
  212SOL    HW2  636   1.582   2.110   1.671 -2.0642  0.3628 -4.9421
  213SOL     OW  637   2.969   0.232   1.549  0.0140  0.4944  0.1721
  213SOL    HW1  638   2.972   0.332   1.546 -0.1428 -3.2511  1.6918
  213SOL    HW2  639   2.887   0.199   1.500 -0.0955 -1.1761  0.1019
  214SOL     OW  640   0.971   2.607   1.772  0.0187  0.3033 -0.2002
  214SOL    HW1  641   1.008   2.530   1.714 -0.5102  0.3020 -1.7613
  214SOL    HW2  642   1.040   2.657   1.828 -1.1692 -0.4565 -1.3489
  215SOL     OW  643   2.553   1.871   1.350  0.5153 -0.1213  0.0823
  215SOL    HW1  644   2.474   1.934   1.377  0.2013  2.0080  1.0685
  215SOL    HW2  645   2.512   1.794   1.300 -2.2926 -0.5149 -0.1562
  216SOL     OW  646   0.308   0.949   1.841  0.4239 -0.5522 -0.3043
  216SOL    HW1  647   0.267   0.906   1.929  0.3367 -0.1233  1.7646
  216SOL    HW2  648   0.282   0.895   1.761  1.0275  1.9957 -1.3557
  217SOL     OW  649   2.789   0.260   1.334  0.3162 -0.1837 -0.3332
  217SOL    HW1  650   2.686   0.275   1.353 -2.7686  0.0492 -2.1513
  217SOL    HW2  651   2.835   0.324   1.268  0.1190 -0.7498  1.1319
  218SOL     OW  652   1.376   2.167   1.184  0.0027  0.3773 -0.4710
  218SOL    HW1  653   1.437   2.189   1.103 -1.1940 -0.4750 -2.1387
  218SOL    HW2  654   1.301   2.235   1.180  1.5340 -0.6706  2.1651
  219SOL     OW  655   1.381   2.848   0.421 -0.5545 -0.1658 -0.0690
  219SOL    HW1  656   1.334   2.848   0.330 -0.9205  1.2872  2.4854
  219SOL    HW2  657   1.447   2.767   0.431  1.3549 -1.1025 -0.2419
  220SOL     OW  658   1.660   2.540   0.054  0.1021 -0.4715 -0.1300
  220SOL    HW1  659   1.672   2.620   0.119 -1.9812  1.3097  0.5111
  220SOL    HW2  660   1.715   2.550   3.057  0.4430  0.5553  0.6972
  221SOL     OW  661   2.699   2.078   0.847 -0.1681 -0.3537 -0.4200
  221SOL    HW1  662   2.656   2.068   0.755 -2.8908 -0.8664  0.9594
  221SOL    HW2  663   2.800   2.063   0.841  0.5846 -1.9512 -0.5597
  222SOL     OW  664   0.859   1.926   0.688 -0.0820  0.1459 -0.3468
  222SOL    HW1  665   0.904   2.014   0.717  1.3779 -0.3408  1.9400
  222SOL    HW2  666   0.765   1.949   0.662  2.7334 -0.8323  1.4025
  223SOL     OW  667   1.136   2.882   2.522  0.6092 -0.2380 -0.2326
  223SOL    HW1  668   1.095   2.846   2.441 -1.6909  0.6759 -0.8894
  223SOL    HW2  669   1.068   2.894   2.594  4.3012 -0.4702 -1.0346
  224SOL     OW  670   2.450   1.096   1.193 -0.1900  0.0400  0.2256
  224SOL    HW1  671   2.422   1.179   1.142  2.8843  2.0122  0.4005
  224SOL    HW2  672   2.428   1.011   1.144  0.8598 -0.3318  0.2918
  225SOL     OW  673   2.811   1.699   1.026 -0.2760  0.0753  0.5104
  225SOL    HW1  674   2.831   1.669   0.931 -0.3079 -0.4402  0.4421
  225SOL    HW2  675   2.767   1.790   1.030 -0.3927  1.7437 -2.9843
  226SOL     OW  676   1.222   2.461   0.881  0.4938  0.4866 -0.3291
  226SOL    HW1  677   1.130   2.472   0.834 -2.2425  1.3635  2.1625
  226SOL    HW2  678   1.253   2.366   0.878 -2.3196 -0.6797 -1.9189
  227SOL     OW  679   1.197   1.251   1.346 -0.2639 -0.2683  0.4693
  227SOL    HW1  680   1.140   1.226   1.430  0.8152  0.0146 -1.1331
  227SOL    HW2  681   1.147   1.303   1.274 -2.0644  1.4498  0.5294
  228SOL     OW  682   1.613   0.323   1.965  0.3772  0.2565  0.2774
  228SOL    HW1  683   1.592   0.261   2.048 -1.2114 -1.7312  0.0098
  228SOL    HW2  684   1.529   0.384   1.946  0.0613 -0.4669 -0.2246
  229SOL     OW  685   2.913   0.839   2.510  0.8377  0.4209 -0.1469
  229SOL    HW1  686   2.896   0.939   2.484  0.3744  5.8517  0.2390
  229SOL    HW2  687   3.014   0.818   2.519 -2.5482  0.0711 -0.8879
  230SOL     OW  688   0.336   1.185   0.742 -0.0572 -0.1438 -0.6803
  230SOL    HW1  689   0.254   1.145   0.698 -2.2864 -0.1604 -1.7919
  230SOL    HW2  690   0.313   1.260   0.806 -3.5454 -0.5021  3.7677
  231SOL     OW  691   2.282   3.087   2.591 -0.4318 -0.5172 -0.3926
  231SOL    HW1  692   2.260   2.992   2.569 -2.1117  2.7654  0.0593
  231SOL    HW2  693   2.237   0.068   2.527  0.4358  2.1379 -2.0611
  232SOL     OW  694   0.377   1.564   2.985  0.4737  0.4266 -0.3498
  232SOL    HW1  695   0.436   1.567   3.069 -0.1625  0.3330 -0.9145
  232SOL    HW2  696   0.277   1.565   3.012  0.4102  0.2942  1.0109
  233SOL     OW  697   1.235   2.711   2.907 -0.3471  0.2501 -0.3823
  233SOL    HW1  698   1.195   2.747   2.993  0.1679 -0.2449  0.9757
  233SOL    HW2  699   1.263   2.792   2.848  1.5207  4.1378  1.7882
  234SOL     OW  700   1.028   1.459   1.915 -1.3705 -0.3715 -0.5004
  234SOL    HW1  701   1.118   1.475   1.964  1.9609 -0.0232 -0.8375
  234SOL    HW2  702   0.948   1.428   1.971  0.4178 -1.3263 -1.1708
  235SOL     OW  703   0.293   1.921   1.681  0.1118  0.5632  0.1119
  235SOL    HW1  704   0.285   1.944   1.583 -0.8673 -1.1920  2.6017
  235SOL    HW2  705   0.338   1.827   1.683  2.0952 -1.2065 -2.7340
  236SOL     OW  706   1.574   2.327   2.866  0.3247  0.1755  0.4772
  236SOL    HW1  707   1.646   2.312   2.936  2.1125  1.3101 -0.2031
  236SOL    HW2  708   1.513   2.403   2.888  1.1238 -2.7859 -1.8030
  237SOL     OW  709   1.467   0.369   0.925  0.2679  0.1359  0.1202
  237SOL    HW1  710   1.439   0.439   0.998 -0.5185  0.5563 -0.3377
  237SOL    HW2  711   1.389   0.318   0.883  0.3388  0.7165 -0.1037
  238SOL     OW  712   1.083   0.326   2.661 -0.0212  0.0533  0.6225
  238SOL    HW1  713   1.034   0.267   2.597  1.6284  0.8026  1.6205
  238SOL    HW2  714   1.154   0.379   2.614 -0.8280  0.6854 -1.9984
  239SOL     OW  715   0.742   2.993   1.626  0.5577  0.0058  0.7231
  239SOL    HW1  716   0.683   3.066   1.662  0.4654 -1.5571 -0.2459
  239SOL    HW2  717   0.796   3.027   1.543  1.4620  0.3110 -2.1758
  240SOL     OW  718   2.322   2.579   0.833  0.1908  0.1276  0.0545
  240SOL    HW1  719   2.264   2.616   0.756  1.0649  0.0702 -1.6651
  240SOL    HW2  720   2.305   2.637   0.913  0.0064 -0.5014 -0.6978
  241SOL     OW  721   1.110   1.474   1.651  0.1155 -0.0384  1.1923
  241SOL    HW1  722   1.044   1.467   1.572 -1.9087  1.3495  0.5934
  241SOL    HW2  723   1.064   1.476   1.743 -1.5611  0.1917  0.2922
  242SOL     OW  724   2.859   0.464   0.548  0.2449  0.4525 -0.2629
  242SOL    HW1  725   2.934   0.526   0.527  0.5324 -3.8456 -1.9294
  242SOL    HW2  726   2.849   0.395   0.478  1.2266  3.8765  1.5393
  243SOL     OW  727   0.685   0.720   1.228  0.8432  0.0892  0.0972
  243SOL    HW1  728   0.707   0.787   1.302 -1.6198  0.6637 -0.5791
  243SOL    HW2  729   0.764   0.695   1.167  4.0777  0.8733 -1.6227
  244SOL     OW  730   1.207   0.473   0.099  0.7992 -1.0063 -0.2035
  244SOL    HW1  731   1.111   0.485   0.083  3.7466  0.5885 -1.8144
  244SOL    HW2  732   1.261   0.435   0.020 -0.0376  1.3919  0.1866
  245SOL     OW  733   2.126   0.395   0.079 -0.0347  0.1389  0.0873
  245SOL    HW1  734   2.100   0.345   3.089  2.7919 -0.9249 -0.8828
  245SOL    HW2  735   2.207   0.348   0.123  0.8772 -0.3371  2.0751
  246SOL     OW  736   0.785   0.908   1.403 -0.0031  0.0552 -0.8820
  246SOL    HW1  737   0.739   0.971   1.471 -1.6871 -1.2452 -1.2903
  246SOL    HW2  738   0.885   0.899   1.423 -2.6949 -1.7711 -0.4264
  247SOL     OW  739   0.851   2.990   2.059  0.6180  0.3975  0.3075
  247SOL    HW1  740   0.793   3.056   2.113  0.2791  0.0452  0.0292
  247SOL    HW2  741   0.888   3.034   1.975 -1.0985 -0.1318  0.1529
  248SOL     OW  742   0.151   1.687   1.788  0.1278 -0.6044  0.0071
  248SOL    HW1  743   0.075   1.642   1.734 -0.4923 -0.0427  0.7223
  248SOL    HW2  744   0.244   1.672   1.742  0.0042  0.3786  1.4300
  249SOL     OW  745   3.014   3.055   2.960 -0.1101 -0.1348  0.1151
  249SOL    HW1  746   3.084   0.004   2.893  2.6493 -0.4131  0.2807
  249SOL    HW2  747   3.027   2.954   2.961  1.0892  2.6057  0.2319
  250SOL     OW  748   2.865   0.102   0.313  0.3782  0.5700 -0.2233
  250SOL    HW1  749   2.786   0.036   0.299 -3.5896  0.9658  0.6442
  250SOL    HW2  750   2.948   0.068   0.264 -0.4659  1.8386  1.3657
  251SOL     OW  751   0.461   1.417   1.012  0.2811  0.2191 -0.2953
  251SOL    HW1  752   0.405   1.485   1.058  0.6358 -1.4689  0.8317
  251SOL    HW2  753   0.454   1.425   0.913 -3.2320 -0.6092 -0.6373
  252SOL     OW  754   1.558   2.820   1.565 -0.2198  0.0386 -0.0048
  252SOL    HW1  755   1.605   2.888   1.625 -1.7432  0.8252 -0.9712
  252SOL    HW2  756   1.502   2.757   1.625 -1.3389  0.3902  0.6227
  253SOL     OW  757   2.006   2.152   2.798 -0.2838 -0.3061 -0.1619
  253SOL    HW1  758   2.104   2.171   2.823 -0.2958  0.4348  3.5815
  253SOL    HW2  759   2.001   2.081   2.726 -1.9130 -1.8309 -1.1887
  254SOL     OW  760   0.412   1.664   1.692 -0.6130  0.1097 -0.0637
  254SOL    HW1  761   0.461   1.581   1.656 -1.0073  2.4330  0.6970
  254SOL    HW2  762   0.459   1.690   1.782 -0.8136  3.4034  1.7619
  255SOL     OW  763   0.903   3.053   1.399 -0.6249  0.2635 -0.4369
  255SOL    HW1  764   0.968   3.014   1.331  1.2789 -0.6404  2.5217
  255SOL    HW2  765   0.953   0.018   1.471 -0.8318 -0.1150 -0.7892
  256SOL     OW  766   2.332   2.209   1.060  0.5026 -0.1429 -0.1825
  256SOL    HW1  767   2.433   2.219   1.039  0.8337 -0.2896  0.8858
  256SOL    HW2  768   2.278   2.235   0.976 -0.9898 -1.9664  1.2845
  257SOL     OW  769   0.326   2.054   3.025  0.2556 -0.0037 -0.1953
  257SOL    HW1  770   0.356   2.149   3.051 -1.8981  0.8044  0.0749
  257SOL    HW2  771   0.408   2.005   2.987 -0.8701  0.3895 -0.8986
  258SOL     OW  772   0.930   2.115   2.424 -0.3865  0.2397 -0.6905
  258SOL    HW1  773   0.850   2.158   2.464 -0.9981  3.2075 -2.2874
  258SOL    HW2  774   0.999   2.186   2.397  1.2140  1.1555  0.3302
  259SOL     OW  775   0.959   1.908   2.782 -0.1102  0.4409  0.0143
  259SOL    HW1  776   0.862   1.906   2.754  4.5439  1.5022 -0.6026
  259SOL    HW2  777   0.972   1.906   2.886 -0.1492  0.8136  3.4472
  260SOL     OW  778   2.004   1.429   1.985 -0.5272  0.1523 -0.1425
  260SOL    HW1  779   2.058   1.517   1.992 -0.5879  0.2532  1.7018
  260SOL    HW2  780   2.018   1.374   2.065  1.3610  0.4656 -3.5219
  261SOL     OW  781   1.307   0.704   0.826 -0.3357  0.5089  0.3327
  261SOL    HW1  782   1.236   0.627   0.837  0.0004 -3.0956 -1.3223
  261SOL    HW2  783   1.270   0.794   0.851  1.1997  0.9851  3.2604
  262SOL     OW  784   1.712   2.188   2.675  0.3823 -0.2525 -0.1097
  262SOL    HW1  785   1.803   2.230   2.655  0.5170  0.6931 -0.3496
  262SOL    HW2  786   1.659   2.241   2.745  0.0645 -0.5780 -0.6404
  263SOL     OW  787   0.166   1.380   0.109 -0.6361 -0.1032  0.0367
  263SOL    HW1  788   0.153   1.428   0.198 -0.6771 -0.3628 -2.2721
  263SOL    HW2  789   0.249   1.318   0.109  0.6643 -1.4430  1.9693
  264SOL     OW  790   0.571   1.969   0.671 -0.0494  0.0474  0.0289
  264SOL    HW1  791   0.576   2.063   0.639  0.4410 -2.6910  0.6059
  264SOL    HW2  792   0.545   1.968   0.771 -4.2907 -0.8236 -2.6724
  265SOL     OW  793   0.613   1.181   0.183 -0.1388  0.6208  0.1162
  265SOL    HW1  794   0.593   1.085   0.224  1.1293  0.4349 -0.3826
  265SOL    HW2  795   0.627   1.250   0.254  0.0779  2.2315  1.3541
  266SOL     OW  796   1.152   1.699   2.941  0.2211  0.9228 -0.4784
  266SOL    HW1  797   1.133   1.697   2.841 -0.6761  0.1126 -1.2944
  266SOL    HW2  798   1.069   1.735   2.989 -2.0239 -1.6207  0.3232
  267SOL     OW  799   0.917   0.894   2.292 -0.1369 -0.0813  0.4593
  267SOL    HW1  800   1.003   0.833   2.300  0.3006 -0.3065 -1.6906
  267SOL    HW2  801   0.918   0.974   2.355 -1.2461  1.1405  0.3135
  268SOL     OW  802   0.562   0.641   2.591  0.0493  0.1592  0.1226
  268SOL    HW1  803   0.622   0.702   2.542 -1.6700 -1.3569  0.1741
  268SOL    HW2  804   0.533   0.687   2.679 -2.0464  1.6290 -0.9813
  269SOL     OW  805   1.930   2.899   2.683  0.7411  0.3617 -0.1377
  269SOL    HW1  806   1.882   2.988   2.687  1.6570 -1.1451 -1.1428
  269SOL    HW2  807   1.884   2.847   2.606  1.1784  2.6230  0.6868
  270SOL     OW  808   0.956   1.500   2.450 -0.1858 -0.7598 -0.0953
  270SOL    HW1  809   0.928   1.436   2.525  0.4955 -1.2342  3.2817
  270SOL    HW2  810   0.949   1.597   2.477 -1.3131  0.1770  2.6344
  271SOL     OW  811   0.157   0.062   2.854  0.0794 -0.2588 -0.0994
  271SOL    HW1  812   0.217   0.081   2.778 -4.1193 -0.1505  1.1927
  271SOL    HW2  813   0.214   0.032   2.933  0.7121  0.7880  5.0227
  272SOL     OW  814   2.272   0.604   0.504 -0.0627  0.0364 -0.1397
  272SOL    HW1  815   2.236   0.580   0.596 -0.0221 -0.5831 -1.5279
  272SOL    HW2  816   2.201   0.663   0.454  0.2069  4.4336 -0.8766
  273SOL     OW  817   0.457   3.012   1.932 -0.4597  0.6527 -0.6472
  273SOL    HW1  818   0.374   2.956   1.933  1.5515  1.4838 -0.4248
  273SOL    HW2  819   0.542   2.954   1.919  0.9929  2.1255  1.4676
  274SOL     OW  820   2.897   0.500   1.962  0.3652  0.2699 -0.6386
  274SOL    HW1  821   2.966   0.518   1.889  2.7319  4.0471 -0.8788
  274SOL    HW2  822   2.862   0.402   1.963 -2.3838 -1.9504  0.7000
  275SOL     OW  823   1.671   1.732   0.586 -0.0512 -0.4937  0.3898
  275SOL    HW1  824   1.655   1.663   0.517  1.4121  0.5352  1.4937
  275SOL    HW2  825   1.771   1.757   0.584  0.4941 -1.4091  0.5257
  276SOL     OW  826   0.858   1.103   2.076 -0.0999 -0.1497  0.5156
  276SOL    HW1  827   0.769   1.071   2.041 -0.0796 -0.7455 -0.0516
  276SOL    HW2  828   0.883   1.052   2.161 -0.5012  0.7169 -0.4830
  277SOL     OW  829   1.584   2.564   2.194 -0.1600 -0.2482 -0.5642
  277SOL    HW1  830   1.563   2.551   2.096 -2.1532 -0.5143  0.4246
  277SOL    HW2  831   1.661   2.507   2.227  1.8778  0.5283 -0.8862
  278SOL     OW  832   2.051   2.777   2.304  0.1485 -0.2140 -0.1733
  278SOL    HW1  833   1.966   2.754   2.351  2.4320  1.6017 -0.9838
  278SOL    HW2  834   2.112   2.803   2.380 -2.7214 -0.5782  0.5261
  279SOL     OW  835   1.820   1.225   0.246  0.5764  0.3662  0.1644
  279SOL    HW1  836   1.755   1.294   0.274  0.0981  0.9185 -2.1525
  279SOL    HW2  837   1.780   1.158   0.174 -1.7210  0.8863 -2.5860
  280SOL     OW  838   0.797   1.527   0.100  0.5020 -0.1116 -0.5685
  280SOL    HW1  839   0.888   1.537   0.142 -0.2904 -1.0371  1.2337
  280SOL    HW2  840   0.794   1.457   0.024  2.5992  0.4715 -2.6358
  281SOL     OW  841   0.243   0.066   1.671  0.5073  0.3744  0.3181
  281SOL    HW1  842   0.179   0.011   1.722  0.9675  0.5200 -0.7513
  281SOL    HW2  843   0.252   0.156   1.714 -1.4162 -0.6986  0.5461
  282SOL     OW  844   3.018   2.315   0.740  0.0855 -0.3885  0.1321
  282SOL    HW1  845   2.939   2.383   0.725 -2.9279  2.8894  0.2562
  282SOL    HW2  846   0.022   2.339   0.701  0.9181  0.4904 -1.8493
  283SOL     OW  847   1.490   1.983   2.293 -0.1034  0.2430  0.1552
  283SOL    HW1  848   1.518   1.985   2.389 -1.9991 -0.9572 -1.8425
  283SOL    HW2  849   1.451   1.888   2.280  0.8641  0.9212  2.7254
  284SOL     OW  850   1.623   0.096   0.680 -0.3502  0.3350 -0.0722
  284SOL    HW1  851   1.693   0.147   0.624  1.3631  0.3069  1.5724
  284SOL    HW2  852   1.528   0.135   0.670 -1.3585 -0.1658  0.6053
  285SOL     OW  853   0.044   2.560   2.398  0.7087  0.6898 -0.3133
  285SOL    HW1  854   3.032   2.558   2.407  0.0961 -2.1079  1.5649
  285SOL    HW2  855   0.087   2.462   2.403  2.0888 -2.8201  1.3336
  286SOL     OW  856   2.657   2.535   1.381 -0.4680  0.1073 -0.5552
  286SOL    HW1  857   2.690   2.594   1.464  1.3312  2.6105  1.4653
  286SOL    HW2  858   2.738   2.484   1.349  0.3801 -2.4113  1.9676
  287SOL     OW  859   0.406   1.488   0.742 -0.8611  0.0721 -0.4100
  287SOL    HW1  860   0.318   1.531   0.780  0.5218  2.5350 -1.3250
  287SOL    HW2  861   0.462   1.558   0.697  1.2287 -1.3536  1.5219
  288SOL     OW  862   2.233   1.893   2.873  0.8227  0.1387  0.3168
  288SOL    HW1  863   2.137   1.929   2.859 -0.7457 -0.2740  0.1734
  288SOL    HW2  864   2.249   1.797   2.837  1.3965  0.2312  1.0180
  289SOL     OW  865   0.088   1.584   2.985  0.0818  0.3616 -0.4258
  289SOL    HW1  866   0.004   1.635   2.965  1.8912 -1.9428 -0.8880
  289SOL    HW2  867   0.078   1.523   3.069  1.9510  1.3217  2.3059
  290SOL     OW  868   1.162   1.718   1.139  0.2786  0.1411  0.4099
  290SOL    HW1  869   1.227   1.638   1.139  1.9414 -0.0773  0.6828
  290SOL    HW2  870   1.158   1.767   1.049 -2.3239 -0.7768 -0.7037
  291SOL     OW  871   1.530   1.023   2.993 -0.6583 -0.0226 -0.2399
  291SOL    HW1  872   1.464   1.018   2.919  1.2141 -0.4577  2.1527
  291SOL    HW2  873   1.495   0.962   3.068 -2.4868 -1.3738 -0.5288
  292SOL     OW  874   1.375   1.416   0.353  0.2792 -0.4371 -0.3868
  292SOL    HW1  875   1.318   1.460   0.427  1.9567  0.7715 -1.8671
  292SOL    HW2  876   1.331   1.424   0.263 -0.4018  2.9713  0.8162
  293SOL     OW  877   1.145   2.682   1.022  0.2502 -0.1912 -0.1403
  293SOL    HW1  878   1.169   2.778   1.010 -0.8269 -1.7775  0.5868
  293SOL    HW2  879   1.199   2.626   0.954 -2.3631  0.6994 -2.4420
  294SOL     OW  880   2.236   1.296   3.038 -0.0283  0.7061 -0.0969
  294SOL    HW1  881   2.169   1.229   2.997  1.9359 -1.2251 -0.5887
  294SOL    HW2  882   2.324   1.297   2.987 -0.9143 -1.1247  1.2207
  295SOL     OW  883   1.350   2.070   2.567 -0.7544 -0.3393 -0.0779
  295SOL    HW1  884   1.389   2.068   2.661 -0.9678  3.3156 -1.1296
  295SOL    HW2  885   1.358   2.166   2.536 -0.0779  0.8759  2.4802
  296SOL     OW  886   1.828   0.526   1.639  0.4455  1.3448  0.4877
  296SOL    HW1  887   1.909   0.479   1.595  0.7067  0.3467 -2.0963
  296SOL    HW2  888   1.837   0.628   1.625 -2.3261  1.8897 -0.8590
  297SOL     OW  889   0.196   0.667   1.913 -0.4189  0.4614  0.5706
  297SOL    HW1  890   0.184   0.753   1.964  0.2058 -2.3958 -1.1968
  297SOL    HW2  891   0.103   0.632   1.885  0.3059  0.3574  1.6864
  298SOL     OW  892   1.149   2.395   1.695  0.1198 -0.0861  0.3135
  298SOL    HW1  893   1.091   2.324   1.652  1.5415  0.3827 -0.4255
  298SOL    HW2  894   1.200   2.371   1.783  1.6199  0.9853  1.5684
  299SOL     OW  895   1.310   2.895   2.729 -0.3563 -0.7386  0.1498
  299SOL    HW1  896   1.408   2.931   2.729 -1.6808  0.5622  1.1438
  299SOL    HW2  897   1.275   2.889   2.633 -0.5813 -3.9435  1.0542
  300SOL     OW  898   2.983   0.863   2.964 -0.0001 -0.0665  0.2452
  300SOL    HW1  899   3.054   0.899   3.027 -0.1461 -0.6932 -1.1607
  300SOL    HW2  900   2.994   0.764   2.945  0.2285 -0.7594 -0.6436
  301SOL     OW  901   1.895   1.140   1.589 -0.7806 -0.3676  0.2228
  301SOL    HW1  902   1.916   1.057   1.642  0.8925  0.6083 -1.4761
  301SOL    HW2  903   1.872   1.217   1.652 -0.7464 -0.1956  0.7925
  302SOL     OW  904   2.603   1.784   2.577  0.1444 -0.2436 -0.0063
  302SOL    HW1  905   2.591   1.755   2.481  0.6745  2.2045  2.6510
  302SOL    HW2  906   2.536   1.865   2.585 -3.6809  1.1853 -2.7897
  303SOL     OW  907   0.386   2.698   2.151 -0.0760 -0.2779 -0.8390
  303SOL    HW1  908   0.431   2.664   2.069 -1.7271  1.2238  3.0579
  303SOL    HW2  909   0.285   2.709   2.134  0.1502 -1.8597  0.1497
  304SOL     OW  910   0.075   0.802   1.189  0.1176  0.1556  0.7139
  304SOL    HW1  911   0.140   0.879   1.162 -0.2980 -1.7081 -1.8710
  304SOL    HW2  912   0.120   0.721   1.228  1.5120  1.2014 -2.4839
  305SOL     OW  913   2.880   0.805   1.746 -0.4870  0.0722  0.5401
  305SOL    HW1  914   2.969   0.834   1.710 -2.5499  0.8230 -0.8906
  305SOL    HW2  915   2.851   0.863   1.824 -0.3553  0.2659 -1.0004
  306SOL     OW  916   2.493   1.208   1.619  0.4725 -0.2513 -0.3962
  306SOL    HW1  917   2.393   1.203   1.651 -2.6925 -0.6040  1.5800
  306SOL    HW2  918   2.546   1.283   1.673 -1.0796 -2.2053  2.7691
  307SOL     OW  919   2.445   2.953   0.904  0.1035  0.2520 -0.0476
  307SOL    HW1  920   2.508   2.950   0.827  0.9664 -0.8267  0.9114
  307SOL    HW2  921   2.492   2.948   0.994 -1.0575 -1.9823  0.0056
  308SOL     OW  922   2.963   1.897   1.581 -0.4473 -0.1413 -0.6140
  308SOL    HW1  923   3.026   1.947   1.644  2.0519 -1.7089 -0.4627
  308SOL    HW2  924   2.940   1.804   1.613 -1.6277  1.5060 -0.0677
  309SOL     OW  925   2.357   2.223   1.603 -0.8135  0.0802 -0.2198
  309SOL    HW1  926   2.396   2.313   1.574  2.7636 -0.0604  0.8003
  309SOL    HW2  927   2.280   2.239   1.668 -0.2592 -0.2640 -1.4656
  310SOL     OW  928   2.217   1.579   3.008  0.3042 -0.4632 -0.1732
  310SOL    HW1  929   2.219   1.599   2.913  0.9597 -0.3487  5.0313
  310SOL    HW2  930   2.210   1.479   3.022 -0.2094 -0.2663 -1.0721
  311SOL     OW  931   1.819   1.035   0.036  0.1013 -0.2783  0.1302
  311SOL    HW1  932   1.726   1.029   3.083 -0.8644 -1.0481  0.3692
  311SOL    HW2  933   1.889   0.999   3.062 -1.8658 -0.6812  1.7032
  312SOL     OW  934   1.124   2.066   2.001 -0.1734 -0.4049  0.2873
  312SOL    HW1  935   1.136   2.035   2.098  1.3718 -0.0995 -0.6833
  312SOL    HW2  936   1.026   2.087   1.973 -2.1284  2.4961  0.7844
  313SOL     OW  937   0.233   0.396   0.724 -0.5765  0.4719  0.0469
  313SOL    HW1  938   0.166   0.365   0.653 -2.1224  0.2035  0.4063
  313SOL    HW2  939   0.328   0.368   0.698 -1.8768  1.0295 -1.9618
  314SOL     OW  940   0.563   1.956   0.946 -0.5690 -0.1439  0.2330
  314SOL    HW1  941   0.613   1.865   0.959  1.4403 -2.1547  2.2069
  314SOL    HW2  942   0.464   1.948   0.966 -1.4656  0.3851  0.6891
  315SOL     OW  943   0.588   2.160   2.143  0.3415  0.2516 -0.6309
  315SOL    HW1  944   0.577   2.162   2.044  0.2067 -1.2544 -0.5786
  315SOL    HW2  945   0.600   2.251   2.190 -3.5641 -0.9617  0.9767
  316SOL     OW  946   0.304   2.111   0.780  0.1610  0.1042 -0.4523
  316SOL    HW1  947   0.281   2.050   0.860  1.0385 -1.5840 -0.2274
  316SOL    HW2  948   0.339   2.205   0.806  0.6374  1.0210 -1.3904
  317SOL     OW  949   1.767   0.614   0.661 -0.5741  0.0005  0.2301
  317SOL    HW1  950   1.847   0.670   0.690 -0.9386  0.6836  0.4236
  317SOL    HW2  951   1.767   0.528   0.711 -1.1401  2.2295  1.1706
  318SOL     OW  952   2.303   2.306   0.290  0.2367 -0.2862 -0.2402
  318SOL    HW1  953   2.259   2.226   0.246 -1.0326 -1.6351  0.0621
  318SOL    HW2  954   2.402   2.284   0.311 -0.6661 -1.6576  1.1827
  319SOL     OW  955   1.368   1.796   3.086  0.2114 -0.1680  0.2231
  319SOL    HW1  956   1.279   1.765   3.042  0.7001  0.9767 -0.6396
  319SOL    HW2  957   1.454   1.739   3.075  0.5894 -0.3912  0.6319
  320SOL     OW  958   0.430   2.632   2.543 -0.5766 -0.3174  0.5430
  320SOL    HW1  959   0.427   2.593   2.448  0.1689  0.3885 -0.0410
  320SOL    HW2  960   0.342   2.623   2.588  2.5914  1.2830 -0.1389
  321SOL     OW  961   0.880   2.783   2.707 -0.7841  0.1410 -0.1956
  321SOL    HW1  962   0.936   2.707   2.682 -2.5685  0.1271 -3.4565
  321SOL    HW2  963   0.786   2.763   2.679  2.0896 -3.2163 -0.6534
  322SOL     OW  964   2.261   0.727   2.198 -0.2201 -0.2711 -0.2517
  322SOL    HW1  965   2.193   0.669   2.253  2.1453 -3.5530  2.9543
  322SOL    HW2  966   2.335   0.766   2.256 -2.0026  1.0711  1.7053
  323SOL     OW  967   2.936   1.082   0.749  0.1941  0.0659  0.9925
  323SOL    HW1  968   3.001   1.027   0.807 -1.2780 -2.0825 -1.6223
  323SOL    HW2  969   2.844   1.034   0.741 -3.0329 -1.1610 -0.2471
  324SOL     OW  970   0.515   0.779   2.025  0.1666  0.1965 -0.0657
  324SOL    HW1  971   0.484   0.713   1.957  0.7690  4.6458  0.1944
  324SOL    HW2  972   0.614   0.785   2.028  0.2203 -2.4165 -0.0662
  325SOL     OW  973   0.700   0.056   2.208  0.5198 -0.0487 -0.2217
  325SOL    HW1  974   0.730   0.142   2.253  0.9199  1.4021  0.7244
  325SOL    HW2  975   0.617   0.073   2.159 -0.5453  1.3650 -0.2264
  326SOL     OW  976   2.554   2.341   0.416  0.3026 -0.1851  0.0400
  326SOL    HW1  977   2.654   2.325   0.427  0.7699 -2.1736  2.3653
  326SOL    HW2  978   2.502   2.311   0.499  0.7332  2.5187 -0.1602
  327SOL     OW  979   2.335   1.359   0.599  0.0988 -0.3686 -0.0692
  327SOL    HW1  980   2.279   1.404   0.528 -1.5123  1.3536 -1.0038
  327SOL    HW2  981   2.412   1.418   0.633  0.4953  0.7689  0.7969
  328SOL     OW  982   2.985   1.569   2.234  0.4840 -0.2946 -0.1569
  328SOL    HW1  983   3.076   1.605   2.263 -1.7249 -0.8744 -1.2530
  328SOL    HW2  984   2.968   1.574   2.134 -1.3919  0.1715  1.0028
  329SOL     OW  985   0.336   2.289   1.518  0.0785 -0.3794 -0.1244
  329SOL    HW1  986   0.238   2.280   1.496 -0.3202  1.8850 -1.4802
  329SOL    HW2  987   0.389   2.295   1.428 -1.4576 -1.5527 -1.7153
  330SOL     OW  988   2.541   1.438   2.454  0.4452  0.2281 -0.0469
  330SOL    HW1  989   2.636   1.426   2.482 -0.6331  1.2178  0.4475
  330SOL    HW2  990   2.477   1.384   2.511 -1.7835 -0.0364 -2.0256
  331SOL     OW  991   2.581   2.505   0.843  0.2594  0.0439  0.0874
  331SOL    HW1  992   2.586   2.447   0.925  3.2112  2.2704  0.8178
  331SOL    HW2  993   2.483   2.539   0.831  1.3512 -0.4094 -2.0900
  332SOL     OW  994   0.409   2.883   0.645 -0.4148  0.2913  0.1394
  332SOL    HW1  995   0.348   2.802   0.631  0.4086 -2.2799  0.1577
  332SOL    HW2  996   0.498   2.849   0.686 -0.3587 -0.6113  0.4541
  333SOL     OW  997   2.256   2.836   2.485 -0.7494  0.1699  0.2481
  333SOL    HW1  998   2.234   2.746   2.531 -2.1006  1.3263  0.3528
  333SOL    HW2  999   2.357   2.842   2.467 -0.2605  1.3393  0.5877
  334SOL     OW 1000   0.932   1.283   0.343  0.2313  0.4630  0.0200
  334SOL    HW1 1001   0.972   1.228   0.420  0.3874  0.1150  1.1541
  334SOL    HW2 1002   0.835   1.279   0.340  0.7699 -1.0865  1.2936
  335SOL     OW 1003   3.087   1.949   2.121 -0.1171  0.0740  0.1555
  335SOL    HW1 1004   0.083   1.913   2.092 -2.2180  1.0752  1.5216
  335SOL    HW2 1005   3.057   2.028   2.069 -2.0727 -2.0581  1.2731
  336SOL     OW 1006   2.813   2.840   2.344 -0.6387  0.3218  0.1024
  336SOL    HW1 1007   2.733   2.865   2.286 -1.3291  0.0914  0.2697
  336SOL    HW2 1008   2.848   2.915   2.395  0.9445 -0.0753 -1.7404
  337SOL     OW 1009   1.015   1.191   0.962 -0.1633  0.7710 -0.2196
  337SOL    HW1 1010   0.959   1.247   0.894  2.1581 -1.2905 -0.0082
  337SOL    HW2 1011   1.041   1.256   1.033 -1.3600 -2.0516 -2.4843
  338SOL     OW 1012   1.124   1.853   0.918  0.2042 -0.9062  0.6702
  338SOL    HW1 1013   1.181   1.877   0.832 -0.5888 -0.5616 -1.9352
  338SOL    HW2 1014   1.075   1.938   0.952 -0.7507  0.4409 -0.2678
  339SOL     OW 1015   0.193   1.450   1.533  0.0257 -0.0230  0.0598
  339SOL    HW1 1016   0.194   1.371   1.473 -0.7541  0.9383  3.0701
  339SOL    HW2 1017   0.100   1.491   1.550 -0.9015  0.2977  0.0308
  340SOL     OW 1018   1.714   2.797   2.010 -0.1361 -0.8118  0.2406
  340SOL    HW1 1019   1.805   2.837   1.970  1.2581 -0.4782 -1.1826
  340SOL    HW2 1020   1.680   2.859   2.083  0.5888  0.5745  2.9967
  341SOL     OW 1021   1.714   1.657   1.139  0.0106 -0.0722 -0.2601
  341SOL    HW1 1022   1.700   1.580   1.074  0.9153  0.4091  1.9520
  341SOL    HW2 1023   1.813   1.656   1.156 -2.2314 -0.6611  0.1036
  342SOL     OW 1024   3.017   1.305   0.908 -0.2346  0.2427 -0.0156
  342SOL    HW1 1025   2.986   1.228   0.843  2.7672 -1.6618 -0.9972
  342SOL    HW2 1026   3.041   1.385   0.853  1.7422  0.3064 -0.3088
  343SOL     OW 1027   2.989   0.519   1.516  0.2692 -0.2668  0.1512
  343SOL    HW1 1028   2.892   0.551   1.531 -0.9714 -1.7518  1.0955
  343SOL    HW2 1029   3.012   0.511   1.412 -2.9608 -1.8991 -4.0220
  344SOL     OW 1030   1.599   0.257   1.129 -0.1347 -0.9056  0.6803
  344SOL    HW1 1031   1.697   0.284   1.124 -0.5546  2.2946  0.8125
  344SOL    HW2 1032   1.550   0.283   1.041 -2.3626  0.2988 -0.5194
  345SOL     OW 1033   0.663   2.967   2.402 -0.2958  0.0671  0.1570
  345SOL    HW1 1034   0.674   3.026   2.487  1.0756  3.0522  1.6059
  345SOL    HW2 1035   0.691   3.030   2.325  0.0387  0.8726  0.6006
  346SOL     OW 1036   2.516   1.556   0.626 -0.0970 -0.4652  0.0246
  346SOL    HW1 1037   2.545   1.581   0.530 -2.4476  0.5548  0.8183
  346SOL    HW2 1038   2.500   1.633   0.691  0.4967  1.9281 -0.9528
  347SOL     OW 1039   2.557   0.264   1.869 -0.6654 -0.1027 -0.2910
  347SOL    HW1 1040   2.538   0.177   1.818 -1.4415  0.4443  0.7317
  347SOL    HW2 1041   2.481   0.283   1.928  1.5055 -1.6136 -2.1997
  348SOL     OW 1042   1.241   1.234   1.654 -0.3361 -0.2587 -0.0315
  348SOL    HW1 1043   1.169   1.164   1.635 -1.5464 -0.1312  0.6923
  348SOL    HW2 1044   1.201   1.325   1.644 -0.3257 -4.4144  0.0940
  349SOL     OW 1045   2.620   0.932   1.682 -0.1051  0.1702  0.1591
  349SOL    HW1 1046   2.710   0.882   1.678  1.8567 -0.4919 -0.6183
  349SOL    HW2 1047   2.611   1.000   1.603 -0.3036 -0.0844 -3.1899
  350SOL     OW 1048   2.119   2.174   0.142  0.5290  0.2377  0.1795
  350SOL    HW1 1049   2.060   2.256   0.135  0.9521 -1.4934  0.2553
  350SOL    HW2 1050   2.061   2.087   0.133 -0.9693 -0.0896 -0.9819
  351SOL     OW 1051   0.770   0.429   2.047  0.6883 -0.3496  0.6983
  351SOL    HW1 1052   0.850   0.490   2.021  1.0854 -1.6925  1.7935
  351SOL    HW2 1053   0.736   0.375   1.964 -0.0526 -1.8243  0.8403
  352SOL     OW 1054   2.031   2.668   1.847 -0.3723  0.1421 -0.0794
  352SOL    HW1 1055   2.097   2.659   1.930 -0.5487  0.3927 -1.1773
  352SOL    HW2 1056   1.964   2.593   1.853  0.5856  0.0511 -1.7012
  353SOL     OW 1057   0.692   0.870   2.523 -0.2470 -0.1928 -0.2531
  353SOL    HW1 1058   0.787   0.871   2.564  3.1232  0.8377 -0.6643
  353SOL    HW2 1059   0.701   0.878   2.422  0.2385  0.7446  4.2054
  354SOL     OW 1060   0.569   1.970   2.913  0.1738  0.3259 -0.2990
  354SOL    HW1 1061   0.621   2.026   2.850 -0.2986  1.1432 -3.6993
  354SOL    HW2 1062   0.547   1.875   2.887  3.3112  0.1791 -0.7050
  355SOL     OW 1063   1.524   2.622   1.065 -0.2854 -0.4754 -0.0739
  355SOL    HW1 1064   1.513   2.694   0.994 -0.8018  0.3758  0.7111
  355SOL    HW2 1065   1.511   2.663   1.159 -1.1458  0.5308 -0.2030
  356SOL     OW 1066   2.376   1.119   0.284 -0.1822 -0.2282  0.7300
  356SOL    HW1 1067   2.306   1.162   0.228  0.2281 -0.9019  1.0114
  356SOL    HW2 1068   2.335   1.079   0.369  1.3740 -0.3487  0.7328
  357SOL     OW 1069   0.038   0.141   2.088  0.1400 -0.0206 -0.0640
  357SOL    HW1 1070   0.139   0.119   2.068  0.2725  0.8797 -2.1195
  357SOL    HW2 1071   3.076   0.165   2.004  0.0610  0.8526 -0.5879
  358SOL     OW 1072   0.014   1.437   0.636 -0.3768  0.3669 -0.4678
  358SOL    HW1 1073   0.069   1.359   0.668  1.2617  0.6011  0.2895
  358SOL    HW2 1074   0.061   1.525   0.668  1.1048 -1.8302 -2.2261
  359SOL     OW 1075   2.894   0.264   2.794  0.4510 -0.0662 -0.1050
  359SOL    HW1 1076   2.975   0.319   2.824 -0.1126 -1.3693  0.6143
  359SOL    HW2 1077   2.830   0.320   2.739 -0.3541  1.3386  0.8461
  360SOL     OW 1078   1.284   1.060   1.181  0.2749  0.2319 -0.4227
  360SOL    HW1 1079   1.353   0.998   1.221 -0.9261 -0.2678  1.7038
  360SOL    HW2 1080   1.264   1.138   1.247 -0.1725 -0.0377  2.3116
  361SOL     OW 1081   2.521   2.708   1.195 -0.5128 -0.1517 -0.2100
  361SOL    HW1 1082   2.589   2.653   1.242 -2.4558  0.3661 -0.2992
  361SOL    HW2 1083   2.428   2.679   1.218  1.4610 -1.2330  1.0078
  362SOL     OW 1084   1.095   0.532   0.883  0.4172  0.1031  0.2838
  362SOL    HW1 1085   1.059   0.562   0.974  0.3560  1.3699 -0.1949
  362SOL    HW2 1086   1.018   0.515   0.816 -2.0826  1.2028 -1.7583
  363SOL     OW 1087   1.936   1.789   0.625  0.2753  0.9337  0.1960
  363SOL    HW1 1088   2.025   1.742   0.644  0.2284 -1.5403  0.8873
  363SOL    HW2 1089   1.957   1.871   0.563  2.6274 -1.0289 -0.8942
  364SOL     OW 1090   0.597   0.469   1.311 -0.1778 -0.1656 -0.0658
  364SOL    HW1 1091   0.566   0.416   1.232 -0.9909 -1.2307 -1.9472
  364SOL    HW2 1092   0.632   0.560   1.277  0.2167 -1.1621 -0.5503
  365SOL     OW 1093   0.340   0.052   1.174 -0.2076  0.1970 -0.3101
  365SOL    HW1 1094   0.248   0.024   1.207  1.0999 -1.7051  0.7195
  365SOL    HW2 1095   0.366   3.065   1.115 -2.0434  1.3438 -1.9041
  366SOL     OW 1096   2.857   1.235   0.278 -0.0782  0.3885 -1.0275
  366SOL    HW1 1097   2.761   1.221   0.323 -0.9734 -0.6219 -0.2649
  366SOL    HW2 1098   2.846   1.235   0.175  0.8698 -1.1248 -0.7305
  367SOL     OW 1099   2.244   2.606   2.615  0.1369  0.5190 -0.2128
  367SOL    HW1 1100   2.201   2.628   2.706  0.6147  2.9835 -0.6289
  367SOL    HW2 1101   2.324   2.545   2.620  1.4473 -1.1788  0.5664
  368SOL     OW 1102   2.339   1.844   0.735  0.2974 -0.0012 -0.0405
  368SOL    HW1 1103   2.320   1.933   0.686  3.5143 -2.5935 -1.7348
  368SOL    HW2 1104   2.255   1.784   0.739  2.2247 -0.6177  0.3543
  369SOL     OW 1105   2.028   0.553   2.586 -0.5325  0.5860 -0.0610
  369SOL    HW1 1106   2.121   0.595   2.571 -1.1704  1.6756 -3.0765
  369SOL    HW2 1107   1.961   0.613   2.642 -0.2412  1.8266  2.4056
  370SOL     OW 1108   0.486   0.304   1.103  0.3061 -0.1273 -0.2493
  370SOL    HW1 1109   0.407   0.242   1.095  1.9169  2.6044 -0.9814
  370SOL    HW2 1110   0.569   0.244   1.103 -0.4462  0.6158  1.4990
  371SOL     OW 1111   2.849   1.245   3.083 -0.8543 -0.2626 -0.4451
  371SOL    HW1 1112   2.933   1.224   3.026  0.1766 -0.7595  0.9702
  371SOL    HW2 1113   2.825   1.347   3.074  0.9257 -0.5671  0.1263
  372SOL     OW 1114   0.645   0.580   2.256 -0.1845  0.2774 -0.3121
  372SOL    HW1 1115   0.709   0.556   2.180 -1.2919  0.7440  0.0904
  372SOL    HW2 1116   0.601   0.671   2.232  0.0335  0.1949 -0.4367
  373SOL     OW 1117   0.691   2.984   3.034 -0.4110  0.2272 -0.3438
  373SOL    HW1 1118   0.617   2.916   3.043  0.9292  2.3571  3.6045
  373SOL    HW2 1119   0.649   3.073   3.013 -1.2027 -2.9534 -0.4949
  374SOL     OW 1120   0.882   1.374   2.978 -0.1924 -0.0975  0.3809
  374SOL    HW1 1121   0.979   1.396   2.965 -0.6228  2.7726 -0.5597
  374SOL    HW2 1122   0.872   1.273   2.981  2.1743 -2.1741  0.0238
  375SOL     OW 1123   1.014   0.504   1.978  0.4139  0.0470  0.3898
  375SOL    HW1 1124   1.048   0.505   1.881 -0.8118 -0.4105 -0.0105
  375SOL    HW2 1125   1.035   0.416   2.024 -5.3050  2.5882 -2.1126
  376SOL     OW 1126   0.195   2.812   1.949 -0.1527 -0.0363  0.4169
  376SOL    HW1 1127   0.149   2.790   2.034  0.7722  0.8692 -0.7574
  376SOL    HW2 1128   0.227   2.732   1.891  3.2829  1.1141 -1.0285
  377SOL     OW 1129   2.723   2.091   2.837 -0.4425 -0.5607 -0.8044
  377SOL    HW1 1130   2.695   2.114   2.741  0.0587  0.4522 -0.7536
  377SOL    HW2 1131   2.686   2.005   2.874  1.7723 -0.9113  0.5812
  378SOL     OW 1132   2.012   0.244   0.355 -0.0974  0.3370 -0.2942
  378SOL    HW1 1133   2.008   0.143   0.369 -0.9223 -3.0685 -0.9503
  378SOL    HW2 1134   2.112   0.269   0.377  1.0928  0.9963  0.1107
  379SOL     OW 1135   1.690   0.574   0.414  0.1573  0.5153  0.0093
  379SOL    HW1 1136   1.732   0.588   0.509  0.1970  0.2152  3.6154
  379SOL    HW2 1137   1.771   0.555   0.352 -0.3950  0.0172  1.4359
  380SOL     OW 1138   2.564   2.125   1.740 -0.5116  0.3516  0.1092
  380SOL    HW1 1139   2.492   2.166   1.686  0.3419 -0.9282  2.0586
  380SOL    HW2 1140   2.583   2.026   1.711 -0.2712 -0.6507  1.1661
  381SOL     OW 1141   2.319   1.578   2.183  0.3744  0.1010 -0.0340
  381SOL    HW1 1142   2.264   1.610   2.102 -2.5000 -0.1688 -1.4177
  381SOL    HW2 1143   2.317   1.475   2.189 -1.0008  0.5286 -0.1237
  382SOL     OW 1144   2.809   2.489   2.736  0.4242  0.0931  0.0338
  382SOL    HW1 1145   2.887   2.552   2.740  0.0041 -1.9636  1.1768
  382SOL    HW2 1146   2.773   2.479   2.832 -4.3349 -0.1464 -0.7903
  383SOL     OW 1147   1.093   1.158   2.955  0.0111 -0.3446 -0.2608
  383SOL    HW1 1148   1.118   1.142   3.052 -0.6906  1.5233 -0.4830
  383SOL    HW2 1149   1.116   1.252   2.928  0.2389 -3.2373 -2.4222
  384SOL     OW 1150   1.681   1.912   2.552  0.0967  0.0898  0.0765
  384SOL    HW1 1151   1.666   1.991   2.610 -0.5208 -1.8686  0.6671
  384SOL    HW2 1152   1.729   1.939   2.468 -1.5227  0.8367  0.8044
  385SOL     OW 1153   1.785   2.864   0.432  0.4611  0.4303 -0.0008
  385SOL    HW1 1154   1.725   2.883   0.512  0.6039 -3.0421 -0.1454
  385SOL    HW2 1155   1.743   2.784   0.387  0.2728  0.7304  0.3124
  386SOL     OW 1156   1.928   1.352   0.682 -0.2640  0.3823  0.1181
  386SOL    HW1 1157   1.943   1.259   0.643  1.5300 -1.9948 -0.7870
  386SOL    HW2 1158   1.918   1.421   0.608  0.2164  0.2583  0.9046
  387SOL     OW 1159   2.750   2.021   1.497 -0.2386 -0.1297 -0.0176
  387SOL    HW1 1160   2.664   1.970   1.471  1.7469  1.9594  2.9800
  387SOL    HW2 1161   2.827   1.959   1.532  1.7163 -0.8590 -0.2376
  388SOL     OW 1162   0.272   1.023   1.520 -0.0069 -0.3864 -0.1623
  388SOL    HW1 1163   0.221   1.107   1.486  0.2812  1.4554  0.2673
  388SOL    HW2 1164   0.208   0.957   1.571 -0.7303  1.4437  2.0279
  389SOL     OW 1165   2.354   0.799   2.732  0.0596  0.0007  0.7806
  389SOL    HW1 1166   2.338   0.790   2.832  2.5168 -1.6497 -0.1320
  389SOL    HW2 1167   2.288   0.860   2.694  0.5199 -0.5345  0.3362
  390SOL     OW 1168   0.717   1.490   2.783  0.2549  0.5487 -0.4176
  390SOL    HW1 1169   0.786   1.467   2.855  0.4378 -1.0440 -0.4281
  390SOL    HW2 1170   0.638   1.535   2.828 -0.2453  2.2107  1.1013
  391SOL     OW 1171   0.889   2.208   0.103 -0.3627 -0.1626 -0.0801
  391SOL    HW1 1172   0.808   2.271   0.102  2.3430 -0.7407  1.5242
  391SOL    HW2 1173   0.963   2.262   0.148  0.1060  1.3769 -0.5503
  392SOL     OW 1174   2.978   2.518   2.141 -0.0603  0.2747  0.2148
  392SOL    HW1 1175   2.929   2.570   2.069 -1.5656  2.1978  0.0806
  392SOL    HW2 1176   2.937   2.545   2.231  0.8845 -1.6904  1.7354
  393SOL     OW 1177   1.400   2.325   0.430  0.0010 -0.3533  0.3022
  393SOL    HW1 1178   1.488   2.323   0.489  1.6642  0.0186 -0.0939
  393SOL    HW2 1179   1.427   2.338   0.336  0.4359 -0.9697  2.9457
  394SOL     OW 1180   0.750   0.297   2.346 -0.1369  0.5994  0.6577
  394SOL    HW1 1181   0.727   0.339   2.434  0.5031  3.2848 -1.1834
  394SOL    HW2 1182   0.732   0.362   2.266  0.8100  0.1977 -2.9460
  395SOL     OW 1183   0.569   1.463   1.312  0.5930 -0.0170 -0.4909
  395SOL    HW1 1184   0.641   1.534   1.329 -1.6547  0.0258 -1.3413
  395SOL    HW2 1185   0.564   1.435   1.216 -1.5385  1.1341 -2.7853
  396SOL     OW 1186   1.881   1.372   2.857 -0.7471 -0.1322 -0.5969
  396SOL    HW1 1187   1.901   1.351   2.763  1.0064  1.0147  0.0536
  396SOL    HW2 1188   1.801   1.319   2.888 -1.4752  1.3695 -2.2574
  397SOL     OW 1189   0.218   0.452   2.989 -0.4689 -0.2558  0.2014
  397SOL    HW1 1190   0.293   0.469   3.053 -3.7007 -0.3023  0.3000
  397SOL    HW2 1191   0.205   0.533   2.931  1.1972 -2.3921  1.7966
  398SOL     OW 1192   0.958   2.645   3.066 -0.4065 -0.0784  0.5367
  398SOL    HW1 1193   0.952   2.736   3.023  1.1414  1.5268 -1.5030
  398SOL    HW2 1194   0.936   2.581   2.986  0.5907 -0.3478 -2.3052
  399SOL     OW 1195   2.066   2.094   2.468 -0.1057 -0.6750  0.4534
  399SOL    HW1 1196   2.141   2.029   2.486  2.4801 -0.0669  1.4426
  399SOL    HW2 1197   2.099   2.185   2.496 -1.1419 -1.1752 -0.8532
  400SOL     OW 1198   2.458   1.476   1.460  0.3248 -0.2564  0.4185
  400SOL    HW1 1199   2.424   1.484   1.556 -1.0824 -1.9197  0.0257
  400SOL    HW2 1200   2.554   1.448   1.459 -1.2098 -1.1879 -1.2823
  401SOL     OW 1201   1.556   0.899   0.983 -0.4534 -0.2116 -0.0233
  401SOL    HW1 1202   1.621   0.852   0.917  1.6764 -2.1204 -0.7813
  401SOL    HW2 1203   1.579   0.883   1.082  2.6596 -1.4850 -0.4923
  402SOL     OW 1204   0.237   0.069   2.433 -0.1497  1.2267  0.7209
  402SOL    HW1 1205   0.245   0.166   2.413 -0.5303 -0.1342  3.1845
  402SOL    HW2 1206   0.280   0.004   2.366  1.1705 -2.1075 -1.0326
  403SOL     OW 1207   2.685   1.706   1.518  0.2451 -0.0997 -0.7583
  403SOL    HW1 1208   2.752   1.656   1.465 -1.9992  1.8774  0.5118
  403SOL    HW2 1209   2.622   1.756   1.457 -2.5331 -1.6077  0.9091
  404SOL     OW 1210   2.343   1.808   1.660  0.0020 -0.0871  0.4182
  404SOL    HW1 1211   2.274   1.865   1.711 -1.2271 -0.8248 -0.2964
  404SOL    HW2 1212   2.344   1.833   1.560  0.6597  0.8813 -0.8858
  405SOL     OW 1213   2.216   0.190   2.438  0.1610  0.3527 -0.4188
  405SOL    HW1 1214   2.169   0.164   2.353 -0.1627 -0.7968  0.9520
  405SOL    HW2 1215   2.304   0.236   2.415  1.3758  1.8683 -0.3646
  406SOL     OW 1216   0.807   1.278   2.604 -0.0684  0.6163 -0.2694
  406SOL    HW1 1217   0.856   1.221   2.678 -1.0020  2.4830  1.4889
  406SOL    HW2 1218   0.746   1.352   2.643 -1.9555  1.0120 -0.4593
  407SOL     OW 1219   1.793   2.435   0.841  0.3509 -0.1893 -0.1511
  407SOL    HW1 1220   1.761   2.440   0.940 -2.2626 -1.2373  1.1884
  407SOL    HW2 1221   1.839   2.342   0.826 -1.3319  1.2534  0.2327
  408SOL     OW 1222   0.109   2.996   0.894 -0.4394 -0.0906  0.1944
  408SOL    HW1 1223   0.052   3.016   0.975 -0.4157 -0.3521 -1.3896
  408SOL    HW2 1224   0.062   3.000   0.805  2.9546 -1.3834 -0.9342
  409SOL     OW 1225   2.059   1.465   0.901  0.2576  0.1739 -0.4013
  409SOL    HW1 1226   2.018   1.423   0.986 -0.5272  1.0861  1.4636
  409SOL    HW2 1227   2.014   1.417   0.826  0.9370  2.3808  2.4065
  410SOL     OW 1228   2.223   2.434   0.034  0.1838  0.2035 -0.2510
  410SOL    HW1 1229   2.307   2.480   3.090 -0.4165  0.1965  0.2441
  410SOL    HW2 1230   2.238   2.404   0.130 -0.7021  0.2083  1.6814
  411SOL     OW 1231   2.981   2.825   0.432 -0.1497  0.9151 -0.5182
  411SOL    HW1 1232   3.009   2.883   0.507 -1.1935 -1.0624 -1.7776
  411SOL    HW2 1233   2.878   2.819   0.431  0.5991 -1.9760 -0.1419
  412SOL     OW 1234   1.363   2.624   0.687 -0.2028  0.6094  0.3578
  412SOL    HW1 1235   1.304   2.709   0.689  1.1195 -1.2444 -1.8873
  412SOL    HW2 1236   1.358   2.576   0.777  0.4629  0.2786 -1.5715
  413SOL     OW 1237   1.736   3.077   2.565 -0.5436  0.2577 -1.0975
  413SOL    HW1 1238   1.710   3.049   2.473 -1.1812 -3.9104  1.1603
  413SOL    HW2 1239   1.758   0.085   2.571  0.3742 -1.8248 -1.1056
  414SOL     OW 1240   0.457   0.667   0.536  0.6512  0.2479  0.7631
  414SOL    HW1 1241   0.504   0.581   0.516 -0.8846 -0.0515 -1.4053
  414SOL    HW2 1242   0.414   0.657   0.631  1.3065  1.4409  1.2542
  415SOL     OW 1243   0.262   0.977   1.087  0.0013 -0.0171 -0.2429
  415SOL    HW1 1244   0.234   0.952   0.992 -0.5153  1.8158 -1.0828
  415SOL    HW2 1245   0.358   0.964   1.116 -2.2644  1.0988 -0.0242
  416SOL     OW 1246   0.309   0.060   3.089 -0.1837  0.7126 -0.2020
  416SOL    HW1 1247   0.239   0.122   0.039  0.8135  0.1708 -0.0944
  416SOL    HW2 1248   0.306   3.054   0.034 -0.0881  0.3700 -2.0484
  417SOL     OW 1249   1.991   0.236   0.727  0.1035 -0.8519 -0.1966
  417SOL    HW1 1250   1.963   0.310   0.793 -1.0156  1.3934 -1.3178
  417SOL    HW2 1251   1.934   0.246   0.642  0.4521  0.7709 -2.9951
  418SOL     OW 1252   0.706   0.397   2.599 -0.7499 -0.0723  0.5863
  418SOL    HW1 1253   0.796   0.416   2.650  2.2954 -1.4431 -0.0862
  418SOL    HW2 1254   0.659   0.487   2.591  0.3598 -1.4249 -0.3515
  419SOL     OW 1255   0.564   0.919   0.525  0.4580  0.1541 -0.6578
  419SOL    HW1 1256   0.549   0.818   0.541 -0.0292 -2.3843  0.8814
  419SOL    HW2 1257   0.552   0.980   0.610  0.1689  0.3775  2.2753
  420SOL     OW 1258   2.201   1.791   1.298 -0.0280 -0.0807  0.4857
  420SOL    HW1 1259   2.203   1.890   1.273 -0.5665  1.6197 -0.4435
  420SOL    HW2 1260   2.291   1.749   1.272 -2.8089  2.6034 -1.8500
  421SOL     OW 1261   1.095   1.715   2.675 -0.4215  0.7766  0.1813
  421SOL    HW1 1262   1.034   1.792   2.700  0.6415  2.4060  1.3218
  421SOL    HW2 1263   1.185   1.740   2.638 -0.1793 -1.2340  0.9590
  422SOL     OW 1264   2.680   0.736   0.178  0.0640 -0.5830  0.3025
  422SOL    HW1 1265   2.625   0.686   0.245  2.3763 -1.2038 -2.3035
  422SOL    HW2 1266   2.733   0.675   0.118 -1.3948  2.4442 -0.0119
  423SOL     OW 1267   1.933   2.074   0.486 -0.0105 -0.1447  0.2446
  423SOL    HW1 1268   1.945   2.028   0.398 -0.8865  0.6663  1.4848
  423SOL    HW2 1269   1.832   2.095   0.497 -0.8421 -0.3631  0.7408
  424SOL     OW 1270   0.335   1.615   1.373  0.6020 -0.2485 -0.1570
  424SOL    HW1 1271   0.428   1.569   1.363  0.7992 -0.2082  0.5241
  424SOL    HW2 1272   0.284   1.570   1.446  1.9075 -1.0534 -1.2846
  425SOL     OW 1273   2.610   2.661   2.169 -0.3574 -0.2368 -0.0540
  425SOL    HW1 1274   2.586   2.564   2.196 -2.9320 -0.9966 -1.2156
  425SOL    HW2 1275   2.706   2.677   2.134 -1.1183 -0.4759 -1.8751
  426SOL     OW 1276   1.665   2.628   0.388 -0.0258 -0.6501 -0.0471
  426SOL    HW1 1277   1.576   2.606   0.348  3.6998  1.3408 -2.3741
  426SOL    HW2 1278   1.666   2.603   0.487 -1.6730 -1.2554 -0.3105
  427SOL     OW 1279   0.283   0.677   2.588 -0.3198  0.1368 -0.0396
  427SOL    HW1 1280   0.379   0.657   2.559  0.3502 -0.8245 -0.5986
  427SOL    HW2 1281   0.231   0.594   2.593  0.6850  4.9095  3.4937
  428SOL     OW 1282   2.108   1.118   2.869  0.0944  0.5629 -0.5256
  428SOL    HW1 1283   2.136   1.167   2.783 -0.5515  0.6056  0.2868
  428SOL    HW2 1284   2.056   1.033   2.848 -0.6642 -0.0730 -2.8847
  429SOL     OW 1285   2.914   0.132   0.577 -0.0757 -0.1230  0.0010
  429SOL    HW1 1286   2.874   0.128   0.482  0.5587  2.0230 -1.4727
  429SOL    HW2 1287   2.850   0.157   0.651 -1.9096  0.4379 -1.1865
  430SOL     OW 1288   1.154   2.724   1.934  0.2379 -0.2347  0.0690
  430SOL    HW1 1289   1.067   2.733   1.989 -1.4306  0.2765  0.0541
  430SOL    HW2 1290   1.215   2.642   1.963  0.6599 -0.7837 -2.8389
  431SOL     OW 1291   2.958   2.071   1.137  0.1834  0.3849 -0.6968
  431SOL    HW1 1292   2.873   2.104   1.180  1.7796  2.9945 -0.3486
  431SOL    HW2 1293   3.022   2.032   1.204  1.4761  1.2181 -3.2717
  432SOL     OW 1294   2.386   2.802   2.097 -0.2616 -0.1789  0.0871
  432SOL    HW1 1295   2.456   2.735   2.128 -2.6730  0.8068  1.3922
  432SOL    HW2 1296   2.418   2.891   2.137  3.1686 -0.0267 -0.8023
  433SOL     OW 1297   1.200   2.103   0.032  0.4257 -0.0080  0.1450
  433SOL    HW1 1298   1.227   2.199   0.012  0.6483 -1.9534  1.0657
  433SOL    HW2 1299   1.251   2.064   0.110  2.3017 -1.9255  1.4963
  434SOL     OW 1300   0.153   2.254   2.348 -0.3427  0.1587  0.0228
  434SOL    HW1 1301   0.063   2.225   2.310  0.7201 -1.5213  0.0195
  434SOL    HW2 1302   0.163   2.214   2.438 -0.4336 -0.4094 -1.5556
  435SOL     OW 1303   0.145   0.993   0.614 -0.2348  0.2505  0.3620
  435SOL    HW1 1304   0.166   1.045   0.528 -0.6296  0.2863  0.3212
  435SOL    HW2 1305   0.053   0.958   0.608  1.8904 -1.0562  0.4973
  436SOL     OW 1306   0.738   2.414   1.858 -0.2371 -0.0654 -0.5046
  436SOL    HW1 1307   0.811   2.451   1.795 -0.3272 -2.2365 -2.9209
  436SOL    HW2 1308   0.780   2.351   1.928  0.5551 -0.6724  0.4532
  437SOL     OW 1309   1.239   2.063   1.438 -0.3364  0.5403 -0.5373
  437SOL    HW1 1310   1.281   2.085   1.347  0.7599 -1.4267  2.0737
  437SOL    HW2 1311   1.308   2.032   1.509 -1.5715  0.7347  3.4693
  438SOL     OW 1312   0.305   2.267   0.431 -0.0515  0.3583  0.1668
  438SOL    HW1 1313   0.285   2.304   0.342  1.0349 -0.5320  4.0694
  438SOL    HW2 1314   0.255   2.179   0.445  0.8619  1.0308 -1.6139
  439SOL     OW 1315   0.597   3.081   1.338  0.0693 -0.1018 -0.1457
  439SOL    HW1 1316   0.572   3.009   1.265  0.3475 -1.7056 -2.0678
  439SOL    HW2 1317   0.532   3.079   1.419  1.4035  1.6936  1.3101
  440SOL     OW 1318   2.545   2.586   2.486  0.1705 -0.0859 -0.2319
  440SOL    HW1 1319   2.567   2.533   2.574  1.8004 -2.0067  2.2162
  440SOL    HW2 1320   2.544   2.521   2.402 -0.0091 -2.1816 -0.6032
  441SOL     OW 1321   0.008   0.526   1.780 -0.2590  0.1899 -0.1056
  441SOL    HW1 1322   3.054   0.541   1.692  0.1134 -0.5127  0.3306
  441SOL    HW2 1323   0.079   0.451   1.775  0.6130  1.6398 -0.2729
  442SOL     OW 1324   1.922   2.362   0.105 -0.0338  0.3326 -0.2817
  442SOL    HW1 1325   1.932   2.408   0.203 -0.6611  0.0229  3.5468
  442SOL    HW2 1326   1.894   2.430   0.040 -0.2189  1.2549  0.9443
  443SOL     OW 1327   0.193   0.673   2.837 -0.4704 -0.2840  0.1610
  443SOL    HW1 1328   0.155   0.763   2.859  0.9394 -4.1123  1.5728
  443SOL    HW2 1329   0.246   0.678   2.749 -1.9119  1.6221 -1.2504
  444SOL     OW 1330   1.596   1.343   2.358 -0.1938 -0.5441 -0.0589
  444SOL    HW1 1331   1.636   1.280   2.286 -0.6505 -2.5972 -0.2405
  444SOL    HW2 1332   1.614   1.444   2.335  0.2888 -0.8386 -0.7820
  445SOL     OW 1333   0.031   2.531   0.992  0.4264 -0.3758 -0.1725
  445SOL    HW1 1334   3.055   2.588   1.045 -0.1043  3.4223  0.1773
  445SOL    HW2 1335   0.093   2.599   0.952  0.6409 -0.0600 -0.7799
  446SOL     OW 1336   2.807   1.603   1.294 -0.2512 -0.2757 -0.4080
  446SOL    HW1 1337   2.765   1.514   1.307  1.3010  0.6045 -0.4647
  446SOL    HW2 1338   2.790   1.636   1.200  0.0959  2.0361 -1.0352
  447SOL     OW 1339   0.223   0.646   0.395  0.2476 -0.8497 -0.1596
  447SOL    HW1 1340   0.243   0.689   0.304 -0.3394 -3.0931  2.5222
  447SOL    HW2 1341   0.312   0.654   0.443 -0.2378 -2.2815 -0.1075
  448SOL     OW 1342   1.569   2.030   2.027  0.0439 -0.6483 -0.0922
  448SOL    HW1 1343   1.556   2.128   2.010 -1.2383 -2.8028  0.1514
  448SOL    HW2 1344   1.544   2.004   2.122 -0.8039  1.7600 -0.8214
  449SOL     OW 1345   1.026   1.507   0.229  0.4460 -0.1398 -0.6412
  449SOL    HW1 1346   0.978   1.435   0.281  1.9926  1.7880  0.0421
  449SOL    HW2 1347   1.119   1.473   0.198  1.3564  0.4200 -0.8602
  450SOL     OW 1348   3.082   2.219   1.828 -0.0354  0.0826  0.2610
  450SOL    HW1 1349   0.011   2.120   1.835  0.3778 -0.2613  0.0403
  450SOL    HW2 1350   3.017   2.237   1.757  3.7106 -0.9882 -0.0497
  451SOL     OW 1351   2.564   0.860   2.589  0.3142 -0.0876  0.1978
  451SOL    HW1 1352   2.496   0.838   2.658 -0.4152 -0.3620 -0.6704
  451SOL    HW2 1353   2.653   0.863   2.636  0.2607 -5.4589  0.8882
  452SOL     OW 1354   1.412   0.588   1.074 -0.5600 -0.2545 -0.2137
  452SOL    HW1 1355   1.383   0.613   0.980  0.7219  1.6545  0.2509
  452SOL    HW2 1356   1.511   0.578   1.088  0.8959 -2.9101 -2.3546
  453SOL     OW 1357   1.487   0.919   1.272  0.3911 -0.1291  0.1297
  453SOL    HW1 1358   1.469   0.830   1.317  2.0305  0.3485 -0.6876
  453SOL    HW2 1359   1.538   0.978   1.334 -0.5773 -0.2359 -0.6069
  454SOL     OW 1360   3.010   1.138   0.493  0.2987  0.1148  0.1975
  454SOL    HW1 1361   2.994   1.147   0.591 -2.2510  1.1196 -1.2067
  454SOL    HW2 1362   2.947   1.193   0.437 -1.0739 -1.4850 -0.0365
  455SOL     OW 1363   2.254   2.795   1.457  0.1174  0.4387 -0.1163
  455SOL    HW1 1364   2.204   2.823   1.547 -3.5993  0.2050  2.0026
  455SOL    HW2 1365   2.203   2.716   1.418  0.9209 -2.4480 -1.9643
  456SOL     OW 1366   0.263   2.711   1.382 -0.5787 -0.0855  0.0424
  456SOL    HW1 1367   0.333   2.722   1.459  0.9502 -1.1461  2.7184
  456SOL    HW2 1368   0.247   2.798   1.332  1.5537  1.1627  3.2226
  457SOL     OW 1369   1.170   2.847   0.672  0.6447  0.1587  0.2850
  457SOL    HW1 1370   1.128   2.824   0.580 -3.3682  0.6705 -1.2261
  457SOL    HW2 1371   1.214   2.938   0.671 -2.0593 -0.1931 -0.7076
  458SOL     OW 1372   2.568   2.984   1.161  0.4654  0.3812 -0.7461
  458SOL    HW1 1373   2.648   3.026   1.203 -1.4636 -3.1777 -0.2843
  458SOL    HW2 1374   2.562   2.886   1.192  0.4207 -0.7325 -4.3581
  459SOL     OW 1375   2.523   0.416   2.691  0.4684  0.4452 -0.1430
  459SOL    HW1 1376   2.517   0.316   2.670  0.7407  2.0348  2.8371
  459SOL    HW2 1377   2.508   0.477   2.607 -0.8769 -0.6613  0.2351
  460SOL     OW 1378   2.706   2.476   2.982 -0.1213  0.2539  0.0853
  460SOL    HW1 1379   2.729   2.552   3.046  0.0489 -3.1652 -0.1637
  460SOL    HW2 1380   2.736   2.386   3.017 -0.1685 -1.7785  0.6317
  461SOL     OW 1381   0.746   1.610   0.449 -0.3361 -0.3069  0.1184
  461SOL    HW1 1382   0.773   1.668   0.373  0.6785 -1.2941 -1.0248
  461SOL    HW2 1383   0.713   1.515   0.418 -0.3158 -2.2310 -1.5090
  462SOL     OW 1384   2.012   2.053   0.855  0.0179  0.4248  0.2423
  462SOL    HW1 1385   2.038   2.107   0.933 -0.2820  3.4728 -1.4042
  462SOL    HW2 1386   2.057   2.094   0.769  1.5080 -1.7078 -2.0988
  463SOL     OW 1387   2.614   1.136   0.857  1.0858  0.1294 -0.4675
  463SOL    HW1 1388   2.667   1.053   0.879  0.8736 -1.0323 -1.7990
  463SOL    HW2 1389   2.531   1.118   0.806  0.2791  0.9893  3.0943
  464SOL     OW 1390   0.909   2.954   0.725 -0.3337  0.5232  0.2817
  464SOL    HW1 1391   0.842   2.941   0.655  1.4287 -0.7623  3.4137
  464SOL    HW2 1392   1.003   2.918   0.691  1.6823 -0.0263 -1.0822
  465SOL     OW 1393   2.181   1.492   0.402  0.0235  0.1849  0.4011
  465SOL    HW1 1394   2.093   1.522   0.362  1.3783  0.4680  0.2797
  465SOL    HW2 1395   2.262   1.536   0.358  0.0594  0.7010 -1.1789
  466SOL     OW 1396   2.209   0.317   2.883  0.6285  0.5859 -0.3968
  466SOL    HW1 1397   2.165   0.318   2.791 -0.8484  0.8148 -0.8907
  466SOL    HW2 1398   2.262   0.402   2.906  0.3099 -0.1173  0.3667
  467SOL     OW 1399   1.051   1.083   1.567 -0.3091 -0.6992 -0.3120
  467SOL    HW1 1400   1.063   0.986   1.533  1.1670 -1.6930 -1.0111
  467SOL    HW2 1401   0.953   1.099   1.591  0.5809 -1.1796  0.0960
  468SOL     OW 1402   0.589   1.090   2.347  0.3922  0.3962  0.1697
  468SOL    HW1 1403   0.555   1.142   2.267 -1.3042  2.4381  2.5596
  468SOL    HW2 1404   0.576   1.149   2.433 -2.6404  1.7881  1.5570
  469SOL     OW 1405   0.456   2.258   0.126  0.0660 -0.5456  0.4419
  469SOL    HW1 1406   0.541   2.314   0.125  0.8556  1.5776  0.9289
  469SOL    HW2 1407   0.460   2.171   0.180  0.4158  1.9427 -0.3000
  470SOL     OW 1408   2.489   1.258   2.910 -0.7199 -0.1532 -0.8097
  470SOL    HW1 1409   2.546   1.189   2.961 -1.8781 -0.3906  0.9542
  470SOL    HW2 1410   2.542   1.345   2.902  1.9379  0.6330  2.0752
  471SOL     OW 1411   2.540   1.159   2.262  0.4828 -0.1748  0.1786
  471SOL    HW1 1412   2.585   1.160   2.354  0.9403  0.2899  3.1232
  471SOL    HW2 1413   2.612   1.136   2.192  0.2183 -0.4333  0.2730
  472SOL     OW 1414   0.329   2.610   0.664 -0.1615  0.1163  1.0424
  472SOL    HW1 1415   0.252   2.548   0.668  0.4531  1.7418  1.7726
  472SOL    HW2 1416   0.390   2.585   0.585 -0.2035  0.3997  2.6935
  473SOL     OW 1417   0.559   0.123   3.006  0.5440  0.4820 -0.1685
  473SOL    HW1 1418   0.468   0.106   3.054 -0.4461  0.6108  1.5637
  473SOL    HW2 1419   0.538   0.154   2.911  1.3479  1.8125  0.4132
  474SOL     OW 1420   1.818   0.483   1.916 -0.2828 -0.4875  0.3158
  474SOL    HW1 1421   1.831   0.518   1.822  1.9963 -0.4102  4.1875
  474SOL    HW2 1422   1.742   0.411   1.919 -3.1924 -1.4720  0.3363
  475SOL     OW 1423   1.019   2.462   0.178 -0.2562 -0.2669 -0.3549
  475SOL    HW1 1424   1.111   2.496   0.205 -0.2583  0.2969 -2.4892
  475SOL    HW2 1425   0.984   2.526   0.105 -2.1478  1.7739  0.3094
  476SOL     OW 1426   0.559   1.072   0.796 -0.3259  0.4684 -0.5175
  476SOL    HW1 1427   0.583   1.113   0.891 -1.4822  1.7049  2.5588
  476SOL    HW2 1428   0.469   1.110   0.763  1.5106  2.3387 -1.2839
  477SOL     OW 1429   1.732   2.429   1.352 -0.2496 -0.1186  0.1445
  477SOL    HW1 1430   1.659   2.391   1.409  2.9737  1.0983 -1.2254
  477SOL    HW2 1431   1.708   2.414   1.251 -0.1617  1.1012 -1.2779
  478SOL     OW 1432   0.533   1.597   2.250 -0.0997 -0.1824  0.1480
  478SOL    HW1 1433   0.631   1.576   2.252 -0.0228  0.9783 -3.2094
  478SOL    HW2 1434   0.504   1.621   2.347 -2.1946  1.6195 -0.9781
  479SOL     OW 1435   3.059   3.051   1.140  0.3956  0.3938  0.2488
  479SOL    HW1 1436   3.080   2.999   1.227  0.2179 -0.5757  1.4730
  479SOL    HW2 1437   3.059   0.058   1.162 -0.2335  0.6387 -0.0646
  480SOL     OW 1438   2.691   2.994   0.231 -1.0842  0.1334 -0.3319
  480SOL    HW1 1439   2.605   3.026   0.272  3.3883 -0.6649  0.9735
  480SOL    HW2 1440   2.728   2.916   0.282  0.5032  3.8433 -0.4854
  481SOL     OW 1441   2.718   2.734   0.980 -0.5008 -0.6529 -0.3442
  481SOL    HW1 1442   2.720   2.670   0.900 -0.2876  0.1565  0.6355
  481SOL    HW2 1443   2.630   2.728   1.037 -0.6933  1.3173 -1.3215
  482SOL     OW 1444   1.483   2.267   2.356  0.1622 -0.2224 -0.4077
  482SOL    HW1 1445   1.487   2.181   2.299 -1.5881 -1.6724 -2.5519
  482SOL    HW2 1446   1.577   2.307   2.381  2.5001 -0.4877  0.6982
  483SOL     OW 1447   0.330   1.697   2.593  0.0027  0.1090 -0.4321
  483SOL    HW1 1448   0.406   1.633   2.564 -0.1077  1.1841 -2.2716
  483SOL    HW2 1449   0.303   1.771   2.532  1.0055  0.2092  1.7635
  484SOL     OW 1450   1.144   1.144   2.400 -0.3118  0.4429 -0.0193
  484SOL    HW1 1451   1.045   1.127   2.391  1.1230 -0.2509  1.7756
  484SOL    HW2 1452   1.168   1.240   2.373 -0.1606  1.9662 -0.7015
  485SOL     OW 1453   2.580   0.291   0.445  0.2389  0.0743  0.0061
  485SOL    HW1 1454   2.567   0.282   0.550  0.5436 -0.2802  1.4832
  485SOL    HW2 1455   2.581   0.200   0.394  1.6409  1.1480 -0.3326
  486SOL     OW 1456   1.515   2.838   0.906  0.1489  0.0075 -0.4184
  486SOL    HW1 1457   1.556   2.901   0.973 -2.0743  1.2446 -1.0272
  486SOL    HW2 1458   1.548   2.861   0.813  0.3753  0.0397  3.6662
  487SOL     OW 1459   0.627   2.254   1.048  0.3553  0.5325 -0.0425
  487SOL    HW1 1460   0.612   2.161   1.007 -0.4029 -0.7662 -0.3981
  487SOL    HW2 1461   0.649   2.323   0.978  2.2411 -1.9879  0.2970
  488SOL     OW 1462   2.127   1.199   0.169 -0.3452  0.1831 -0.0946
  488SOL    HW1 1463   2.031   1.223   0.193  2.0590  1.1299  0.8055
  488SOL    HW2 1464   2.171   1.258   0.097  0.6481 -2.0386 -0.8454
  489SOL     OW 1465   1.266   2.933   1.014  0.2653 -0.3858  0.4301
  489SOL    HW1 1466   1.310   2.986   1.082 -1.8883 -2.6409 -0.4385
  489SOL    HW2 1467   1.341   2.895   0.954 -0.5352 -1.7920 -0.0236
  490SOL     OW 1468   1.087   1.153   0.131 -0.3959 -0.5577 -0.2045
  490SOL    HW1 1469   1.150   1.121   0.201  2.5404  0.7254 -1.2839
  490SOL    HW2 1470   0.999   1.176   0.171  3.6360 -1.0193 -1.8435
  491SOL     OW 1471   0.641   2.796   0.790 -0.1035 -0.2743  0.0282
  491SOL    HW1 1472   0.736   2.800   0.756  1.8520 -0.3256 -1.8728
  491SOL    HW2 1473   0.639   2.720   0.861  0.1773 -1.6305  4.4100
  492SOL     OW 1474   1.268   1.388   2.060 -0.2310 -0.5528  0.5773
  492SOL    HW1 1475   1.225   1.392   2.152 -2.0775 -0.3562 -1.0889
  492SOL    HW2 1476   1.354   1.448   2.056  4.2736 -1.0880  0.7647
  493SOL     OW 1477   0.162   2.408   0.614 -0.9445 -1.3521 -0.1281
  493SOL    HW1 1478   0.233   2.357   0.560 -1.0002  1.3248 -1.6783
  493SOL    HW2 1479   0.116   2.473   0.550 -0.0485  0.1817  0.7859
  494SOL     OW 1480   2.552   1.868   0.032  0.4745  0.1886 -0.3147
  494SOL    HW1 1481   2.461   1.912   0.025 -2.7629 -1.7437  1.1938
  494SOL    HW2 1482   2.528   1.768   0.040  0.7727 -1.6092 -0.5434
  495SOL     OW 1483   2.670   1.450   2.881 -0.2116 -0.1628 -0.2523
  495SOL    HW1 1484   2.715   1.412   2.799  2.8366 -1.9041  0.7818
  495SOL    HW2 1485   2.744   1.483   2.945  2.3534  0.0131 -0.3267
  496SOL     OW 1486   2.707   0.058   1.595  0.5127 -0.4909 -0.1493
  496SOL    HW1 1487   2.612   0.066   1.633  0.1166 -1.5073 -2.7441
  496SOL    HW2 1488   2.765   0.016   1.668  0.7385 -1.0284  0.4620
  497SOL     OW 1489   2.456   1.118   0.625  0.1047 -0.5903  0.2331
  497SOL    HW1 1490   2.383   1.049   0.607 -1.3956 -0.7634  2.3605
  497SOL    HW2 1491   2.405   1.205   0.632 -1.1072  1.1545 -0.5002
  498SOL     OW 1492   2.926   2.195   2.328 -0.0665 -0.6393  0.3063
  498SOL    HW1 1493   2.967   2.110   2.359  2.3395  2.6705 -0.3913
  498SOL    HW2 1494   2.959   2.225   2.233  2.3471  2.1810 -1.4992
  499SOL     OW 1495   0.787   1.989   0.247  0.4385 -0.0549 -0.3788
  499SOL    HW1 1496   0.859   1.918   0.266  0.9369 -1.4703 -0.4093
  499SOL    HW2 1497   0.818   2.060   0.182  0.7257 -2.3378 -1.0854
  500SOL     OW 1498   0.761   0.030   2.651  0.3500 -0.3941  0.2494
  500SOL    HW1 1499   0.828   0.046   2.728  1.3134  1.8844  1.1297
  500SOL    HW2 1500   0.667   0.045   2.691  2.1834 -0.9538  0.7516
  501SOL     OW 1501   1.317   0.027   1.221  0.6244  0.1109 -0.0916
  501SOL    HW1 1502   1.404   0.009   1.269 -2.8814 -1.5374 -2.4408
  501SOL    HW2 1503   1.292   0.126   1.211 -0.5636 -1.0499 -0.8450
  502SOL     OW 1504   0.014   0.302   2.275 -0.3958 -0.9842  0.6368
  502SOL    HW1 1505   0.110   0.315   2.315  1.0302 -2.1275  2.0213
  502SOL    HW2 1506   0.021   0.243   2.184  1.0560 -0.3431 -0.0028
  503SOL     OW 1507   2.395   1.961   2.649  0.6117  0.1617 -0.0955
  503SOL    HW1 1508   2.317   1.919   2.587 -2.3374 -2.3191  0.1745
  503SOL    HW2 1509   2.363   1.981   2.746  0.2810 -1.0857  4.3233
  504SOL     OW 1510   1.433   0.603   1.781 -0.0003 -0.2343 -0.0802
  504SOL    HW1 1511   1.398   0.515   1.827 -0.4847  1.2383  0.7690
  504SOL    HW2 1512   1.470   0.591   1.686  0.7954  0.2918 -0.0756
  505SOL     OW 1513   3.036   0.870   1.410  0.1384 -0.0588  0.0596
  505SOL    HW1 1514   3.012   0.967   1.417 -0.5972  0.4117 -0.5576
  505SOL    HW2 1515   3.086   0.843   1.323  2.1020  0.1295 -0.3719
  506SOL     OW 1516   0.427   1.188   2.126  0.0331 -0.3503 -0.1839
  506SOL    HW1 1517   0.415   1.287   2.106 -0.9478 -0.2781  2.3279
  506SOL    HW2 1518   0.377   1.134   2.056  0.6924 -2.5609  0.1727
  507SOL     OW 1519   0.402   2.913   2.340  0.6962 -0.1811 -0.1750
  507SOL    HW1 1520   0.504   2.919   2.355  0.3823 -0.0054 -0.3842
  507SOL    HW2 1521   0.365   2.835   2.287  0.6940 -1.2375 -0.2145
  508SOL     OW 1522   1.491   0.676   1.409 -0.2046 -0.1317 -0.4765
  508SOL    HW1 1523   1.515   0.600   1.465  0.3788  0.9688 -1.7758
  508SOL    HW2 1524   1.388   0.680   1.395 -1.3068 -0.6443 -0.3348
  509SOL     OW 1525   0.916   1.763   1.614 -0.2512  0.0029 -0.1257
  509SOL    HW1 1526   0.972   1.796   1.691 -1.1171 -0.5090 -0.2985
  509SOL    HW2 1527   0.965   1.790   1.529 -2.0511  3.9928  2.9004
  510SOL     OW 1528   2.430   0.883   2.338  0.0207  0.2401  0.6255
  510SOL    HW1 1529   2.468   0.861   2.427  1.3079 -1.0892 -2.2486
  510SOL    HW2 1530   2.443   0.980   2.317  0.7913 -0.1748  0.8871
  511SOL     OW 1531   0.684   1.703   0.967 -0.0608  0.2290 -0.1537
  511SOL    HW1 1532   0.716   1.672   0.877  0.1042 -0.7205  1.1320
  511SOL    HW2 1533   0.605   1.647   1.003 -0.8276 -0.1313  0.3964
  512SOL     OW 1534   2.541   2.056   0.611 -0.1363 -0.3267 -0.0993
  512SOL    HW1 1535   2.476   1.990   0.570  2.6894 -0.3280 -1.3914
  512SOL    HW2 1536   2.492   2.145   0.625  0.9383 -0.2149  1.1729
  513SOL     OW 1537   2.777   1.342   2.644 -0.4332 -0.5494  0.3317
  513SOL    HW1 1538   2.814   1.250   2.668  1.6421 -0.0073 -0.2241
  513SOL    HW2 1539   2.852   1.412   2.663  1.2521 -1.7136 -0.0672
  514SOL     OW 1540   0.162   2.192   2.626 -0.3410  0.0365 -0.3833
  514SOL    HW1 1541   0.090   2.200   2.697 -0.6848 -0.5223 -2.2038
  514SOL    HW2 1542   0.255   2.199   2.671  1.5181  0.6070  0.3960
  515SOL     OW 1543   1.894   1.751   2.257  0.1890 -0.4223 -0.2415
  515SOL    HW1 1544   1.883   1.739   2.157 -2.2112 -1.6112  2.2210
  515SOL    HW2 1545   1.891   1.849   2.283 -1.3738  0.7764  2.1559
  516SOL     OW 1546   2.235   2.241   2.912 -0.5925 -0.0845  0.0993
  516SOL    HW1 1547   2.205   2.298   2.990  1.2750  1.3258 -1.7532
  516SOL    HW2 1548   2.334   2.249   2.894 -0.5295 -0.0494 -0.4784
  517SOL     OW 1549   1.502   1.245   0.102 -0.0392  0.0365  0.0564
  517SOL    HW1 1550   1.466   1.202   0.022  0.3294 -0.6701  1.0829
  517SOL    HW2 1551   1.494   1.172   0.178 -1.3037 -0.8405  3.0500
  518SOL     OW 1552   2.782   0.021   2.145  0.2511  0.5054  0.2732
  518SOL    HW1 1553   2.792   0.113   2.099 -0.8205  0.9020 -2.0301
  518SOL    HW2 1554   2.684   3.089   2.181 -4.3408  1.5717  1.8154
  519SOL     OW 1555   1.913   2.250   2.093  0.0518  0.4550 -0.1062
  519SOL    HW1 1556   1.890   2.309   2.015 -3.1083 -0.2911  2.0819
  519SOL    HW2 1557   1.982   2.173   2.069  3.3930  0.5662  0.8372
  520SOL     OW 1558   2.728   2.999   2.632  0.1119  0.0265 -0.2246
  520SOL    HW1 1559   2.718   2.953   2.724 -0.2300 -2.8980  0.0622
  520SOL    HW2 1560   2.811   3.052   2.623 -3.6273 -3.6235  0.1335
  521SOL     OW 1561   0.381   1.440   2.110 -0.0108 -0.1710  0.3465
  521SOL    HW1 1562   0.290   1.478   2.076 -0.1391  0.6665 -1.0690
  521SOL    HW2 1563   0.439   1.507   2.162  2.4534  0.0852 -2.9426
  522SOL     OW 1564   1.093   0.153   1.526 -0.3401  0.8120  1.0734
  522SOL    HW1 1565   1.195   0.135   1.537 -3.5258 -2.0075 -1.3522
  522SOL    HW2 1566   1.070   0.251   1.535 -1.4064  0.6033  0.4432
  523SOL     OW 1567   0.233   2.739   0.922 -0.0519 -0.2819 -0.4386
  523SOL    HW1 1568   0.193   2.831   0.899 -0.3084 -1.2078 -1.2858
  523SOL    HW2 1569   0.294   2.698   0.849  0.4596 -0.1208 -0.2877
  524SOL     OW 1570   1.641   2.607   0.653 -0.2793 -0.1391 -0.3993
  524SOL    HW1 1571   1.691   2.567   0.734 -0.8120 -1.3985 -1.4219
  524SOL    HW2 1572   1.540   2.620   0.672  0.4018 -1.1168 -1.9722
  525SOL     OW 1573   2.290   0.573   1.329 -0.2706  0.0738 -0.4312
  525SOL    HW1 1574   2.391   0.574   1.324  0.1484 -2.2385 -0.3965
  525SOL    HW2 1575   2.256   0.671   1.332  0.7572 -0.5410  0.8944
  526SOL     OW 1576   0.977   2.457   0.726  0.3296 -0.8867 -0.2666
  526SOL    HW1 1577   1.005   2.418   0.640 -1.1054  1.6370  4.4670
  526SOL    HW2 1578   0.901   2.526   0.703 -2.8031  1.5676 -0.0122
  527SOL     OW 1579   2.236   2.048   0.571 -0.3692  0.8631 -0.5291
  527SOL    HW1 1580   2.194   1.977   0.505 -2.0003  0.0306 -1.8581
  527SOL    HW2 1581   2.188   2.134   0.558 -0.9585 -1.6454 -0.2740
  528SOL     OW 1582   2.184   0.549   0.759 -0.4665  0.0353  0.3254
  528SOL    HW1 1583   2.237   0.484   0.814 -4.2767  0.5022  0.6664
  528SOL    HW2 1584   2.118   0.601   0.808  4.1719 -0.0230 -1.8144
  529SOL     OW 1585   1.202   1.410   2.333 -0.4702  0.3787  0.1181
  529SOL    HW1 1586   1.123   1.471   2.347 -0.2793  3.1398  1.3047
  529SOL    HW2 1587   1.278   1.437   2.396 -2.6323  1.2474  0.9641
  530SOL     OW 1588   2.486   0.959   0.107  0.2434  0.5442  0.1665
  530SOL    HW1 1589   2.562   0.907   0.151  2.1574 -0.7682  4.4826
  530SOL    HW2 1590   2.439   1.009   0.181  1.8637 -1.1967 -1.0765
  531SOL     OW 1591   1.210   0.994   0.306 -0.0742  0.5606 -0.4374
  531SOL    HW1 1592   1.190   0.911   0.248  0.2273 -0.8949 -1.6632
  531SOL    HW2 1593   1.178   0.984   0.400  1.9285 -0.4754 -0.7774
  532SOL     OW 1594   2.047   3.029   0.780  0.0964  0.2445 -0.4778
  532SOL    HW1 1595   1.976   0.014   0.793 -2.3214  4.1928 -0.2648
  532SOL    HW2 1596   2.133   3.065   0.819 -0.7013 -0.0316  0.8328
  533SOL     OW 1597   1.252   0.845   2.177  1.2670  0.3456  0.6940
  533SOL    HW1 1598   1.170   0.888   2.128 -0.8525  3.3946 -1.3495
  533SOL    HW2 1599   1.319   0.821   2.098  1.3019 -0.6838 -0.6954
  534SOL     OW 1600   1.818   2.934   2.947 -0.0550 -0.5237 -0.1041
  534SOL    HW1 1601   1.840   2.882   2.865 -1.0562 -1.1090  0.7178
  534SOL    HW2 1602   1.899   2.964   3.004 -0.0491 -0.6429 -1.1289
  535SOL     OW 1603   0.410   2.869   0.223 -0.1152 -0.4616  0.0922
  535SOL    HW1 1604   0.451   2.938   0.285  1.3522  0.3260 -0.4933
  535SOL    HW2 1605   0.306   2.878   0.213 -2.3825 -0.3782  0.8127
  536SOL     OW 1606   0.686   2.567   0.958 -0.2460 -0.0346 -0.1255
  536SOL    HW1 1607   0.605   2.581   1.016  2.0504  0.5178 -2.6787
  536SOL    HW2 1608   0.775   2.571   1.007  0.5315  0.3133  1.1368
  537SOL     OW 1609   1.685   0.620   1.188 -0.5428 -0.0107  0.3762
  537SOL    HW1 1610   1.730   0.531   1.213  1.0588  3.1901  1.2414
  537SOL    HW2 1611   1.618   0.650   1.257  2.1063  0.8498 -2.4580
  538SOL     OW 1612   2.965   2.693   0.201  0.0496  0.2759  0.7057
  538SOL    HW1 1613   2.976   2.595   0.222 -0.1369 -0.1113 -0.2675
  538SOL    HW2 1614   3.005   2.740   0.283  1.4194 -1.6110  1.7577
  539SOL     OW 1615   2.821   1.840   2.703  0.0249  0.6690  0.3136
  539SOL    HW1 1616   2.737   1.797   2.662 -0.8871  0.5576  2.6103
  539SOL    HW2 1617   2.846   1.927   2.662 -0.4494 -1.2771 -2.1893
  540SOL     OW 1618   2.968   2.828   1.651  0.0955  0.7609 -0.4695
  540SOL    HW1 1619   3.051   2.772   1.627  0.3189  3.7969  0.9456
  540SOL    HW2 1620   2.891   2.763   1.659  1.9813 -0.3663  0.7244
  541SOL     OW 1621   2.793   2.989   1.808  0.2616 -0.5189  0.3932
  541SOL    HW1 1622   2.853   2.937   1.746 -2.8803  1.3522  1.0550
  541SOL    HW2 1623   2.822   2.979   1.907 -3.4374  1.8819  1.2022
  542SOL     OW 1624   2.981   0.589   2.238 -0.0202 -0.3816 -0.3562
  542SOL    HW1 1625   3.065   0.530   2.243  1.7026  1.2005 -0.4905
  542SOL    HW2 1626   2.926   0.552   2.159  1.9747  0.3346 -0.6958
  543SOL     OW 1627   0.857   0.500   0.748 -0.0668  0.1742  0.1119
  543SOL    HW1 1628   0.843   0.542   0.657 -0.4905 -1.8473 -1.2070
  543SOL    HW2 1629   0.795   0.542   0.815 -0.6516 -0.3938 -0.7948
  544SOL     OW 1630   2.593   2.286   1.002  0.4850  0.2837 -0.0404
  544SOL    HW1 1631   2.633   2.212   0.952  0.2965  0.7702 -0.6775
  544SOL    HW2 1632   2.613   2.287   1.102  0.4257 -1.5380 -0.3297
  545SOL     OW 1633   0.977   1.765   0.319 -0.6102 -0.9742 -0.4065
  545SOL    HW1 1634   1.009   1.763   0.415 -1.3475  1.1958 -1.7501
  545SOL    HW2 1635   1.015   1.689   0.265  2.7260  0.1063 -3.1054
  546SOL     OW 1636   2.378   0.652   1.952 -0.0127 -0.2570  0.1070
  546SOL    HW1 1637   2.331   0.666   2.043 -3.1018 -2.6973 -1.6636
  546SOL    HW2 1638   2.479   0.634   1.959  4.0513  0.3850  1.2556
  547SOL     OW 1639   0.243   0.347   2.399  0.2736  0.2216 -0.0358
  547SOL    HW1 1640   0.197   0.390   2.480 -3.6299 -2.8371 -1.6965
  547SOL    HW2 1641   0.292   0.414   2.339  0.2792  2.3456 -0.8674
  548SOL     OW 1642   2.193   1.850   2.515 -0.1015 -0.0184 -0.1854
  548SOL    HW1 1643   2.209   1.750   2.498  0.7902  0.4132  0.6398
  548SOL    HW2 1644   2.091   1.862   2.539 -1.2961 -0.5045  0.8433
  549SOL     OW 1645   2.613   0.741   0.832 -0.7778  0.0509  0.0712
  549SOL    HW1 1646   2.639   0.654   0.786  0.6333 -0.3904  0.9675
  549SOL    HW2 1647   2.691   0.800   0.872 -3.3400  0.3782 -2.3411
  550SOL     OW 1648   1.604   1.344   0.671  0.3323 -0.4773  0.5520
  550SOL    HW1 1649   1.562   1.285   0.599  1.7953 -0.0475  0.7551
  550SOL    HW2 1650   1.689   1.304   0.709  0.7096  2.6563  1.6168
  551SOL     OW 1651   0.961   0.172   1.080 -0.2858 -0.4499  0.8035
  551SOL    HW1 1652   0.871   0.156   1.120 -3.2393  2.8341  2.6410
  551SOL    HW2 1653   0.972   0.116   0.999 -1.3568  1.8395 -0.3347
  552SOL     OW 1654   2.200   2.352   2.049  0.4293 -0.3660  0.6261
  552SOL    HW1 1655   2.162   2.448   2.055 -2.6581 -0.7846 -0.3799
  552SOL    HW2 1656   2.261   2.328   2.125 -1.2346 -0.6175 -1.0232
  553SOL     OW 1657   3.077   0.052   0.119 -0.0114  0.4137 -0.3887
  553SOL    HW1 1658   0.024   0.142   0.104 -2.7753 -1.3577  0.7500
  553SOL    HW2 1659   3.044   0.004   0.036 -0.5201  0.8456  0.8031
  554SOL     OW 1660   1.415   2.678   1.746 -0.0235 -0.5705  0.8441
  554SOL    HW1 1661   1.396   2.620   1.665  0.4885  0.4734  1.1831
  554SOL    HW2 1662   1.326   2.692   1.792 -0.7006  0.5899  0.8399
  555SOL     OW 1663   2.362   2.899   1.818  0.3157 -0.3358  0.7110
  555SOL    HW1 1664   2.262   2.910   1.797 -0.7809 -0.1243  0.5620
  555SOL    HW2 1665   2.374   2.884   1.917  1.3913 -0.7317 -2.1031
  556SOL     OW 1666   0.913   2.869   2.944 -0.3174  0.0990  0.4504
  556SOL    HW1 1667   0.907   2.838   2.847 -2.2069  2.0362 -0.1677
  556SOL    HW2 1668   0.833   2.928   2.964  0.4194  2.6924 -1.3496
  557SOL     OW 1669   0.409   2.000   2.268 -0.0225  0.3622 -0.8108
  557SOL    HW1 1670   0.357   1.948   2.203 -0.7820 -1.9112  1.7583
  557SOL    HW2 1671   0.478   2.052   2.217  0.0701  0.2011  0.0949
  558SOL     OW 1672   2.422   1.240   2.626 -0.2514 -0.3089 -0.2811
  558SOL    HW1 1673   2.452   1.268   2.719  0.1547  1.0954 -0.2338
  558SOL    HW2 1674   2.498   1.184   2.581  1.0361 -2.2689 -1.9217
  559SOL     OW 1675   2.335   2.257   2.258 -1.0457 -0.1591  0.2550
  559SOL    HW1 1676   2.424   2.303   2.265  1.4890  1.0800 -1.3977
  559SOL    HW2 1677   2.353   2.163   2.228 -0.3154 -1.3965  0.6024
  560SOL     OW 1678   0.366   0.531   2.225  0.2434 -0.5281  0.3895
  560SOL    HW1 1679   0.319   0.624   2.246 -0.7059  0.7250  0.1927
  560SOL    HW2 1680   0.465   0.532   2.216 -1.5551  1.3207  0.3134
  561SOL     OW 1681   0.867   0.538   0.286  0.0632 -0.4172  0.3331
  561SOL    HW1 1682   0.861   0.459   0.349 -0.3783 -0.8621 -0.1777
  561SOL    HW2 1683   0.887   0.499   0.192 -0.7001  1.2602  0.4299
  562SOL     OW 1684   0.853   1.378   1.527  0.2678 -0.6317 -0.5108
  562SOL    HW1 1685   0.838   1.281   1.553  0.7082 -0.2520  0.0820
  562SOL    HW2 1686   0.796   1.439   1.589  0.1979  2.3449  2.0141
  563SOL     OW 1687   1.566   2.920   3.015 -0.0414 -0.6156 -0.3415
  563SOL    HW1 1688   1.538   2.858   3.087  1.6337  3.6517 -0.0059
  563SOL    HW2 1689   1.669   2.909   2.995  3.3089 -1.1880 -1.1655
  564SOL     OW 1690   0.202   2.045   0.542  0.2151  0.3579 -0.1509
  564SOL    HW1 1691   0.208   1.938   0.541 -2.5717 -2.2958 -0.5782
  564SOL    HW2 1692   0.244   2.081   0.632 -0.2883  0.7220 -0.4805
  565SOL     OW 1693   0.376   2.471   2.320  0.0950 -0.3261 -0.1706
  565SOL    HW1 1694   0.370   2.560   2.264  1.1907  1.2281 -2.9183
  565SOL    HW2 1695   0.296   2.410   2.315  0.2586 -2.1831 -1.6027
  566SOL     OW 1696   1.322   2.498   2.338 -0.2641  0.0689  0.6520
  566SOL    HW1 1697   1.372   2.569   2.392  3.5159 -3.7074  1.2324
  566SOL    HW2 1698   1.383   2.417   2.335  1.1130  0.4178 -2.3915
  567SOL     OW 1699   1.847   2.005   1.122 -0.7556  0.1338 -0.4148
  567SOL    HW1 1700   1.754   1.995   1.157 -0.4101  2.7926 -1.0207
  567SOL    HW2 1701   1.875   1.925   1.064  0.5222 -2.4492 -0.4816
  568SOL     OW 1702   2.185   0.650   0.142 -0.1813  0.7469  0.4056
  568SOL    HW1 1703   2.193   0.711   0.060 -1.8578  2.2488 -1.4968
  568SOL    HW2 1704   2.178   0.554   0.106 -0.8857 -0.3412  1.6687
  569SOL     OW 1705   2.854   1.331   2.338 -0.2618 -0.1981  0.2237
  569SOL    HW1 1706   2.906   1.410   2.307 -0.6767 -0.8861  0.5820
  569SOL    HW2 1707   2.856   1.329   2.440  0.5283  0.8256 -0.6912
  570SOL     OW 1708   2.720   2.650   1.683 -0.5389 -0.2875  0.1845
  570SOL    HW1 1709   2.634   2.700   1.658 -0.3794 -0.5806 -0.3211
  570SOL    HW2 1710   2.692   2.553   1.681 -1.3725 -0.4020 -0.4617
  571SOL     OW 1711   0.263   0.343   1.737 -0.3054 -0.6562 -0.5428
  571SOL    HW1 1712   0.319   0.333   1.652  0.8934  1.7128  2.0386
  571SOL    HW2 1713   0.304   0.410   1.802 -0.5216  0.8574  0.4154
  572SOL     OW 1714   2.973   2.062   0.876 -1.0854 -0.4370  0.6211
  572SOL    HW1 1715   3.014   2.147   0.844 -0.1503 -2.3706 -2.0125
  572SOL    HW2 1716   2.964   2.061   0.978 -1.5422 -0.8216  0.2820
  573SOL     OW 1717   0.935   0.891   0.033 -0.3622  0.3484  0.5162
  573SOL    HW1 1718   0.902   0.973   3.072 -0.6591 -0.9850 -1.1715
  573SOL    HW2 1719   0.856   0.861   0.092 -1.1980  1.8342  0.0165
  574SOL     OW 1720   2.736   2.714   0.044 -0.5457 -0.0971 -0.0735
  574SOL    HW1 1721   2.710   2.818   0.036 -0.0506  0.6340  0.8334
  574SOL    HW2 1722   2.812   2.697   0.111  0.5743 -1.6873 -1.3071
  575SOL     OW 1723   1.086   1.819   1.403 -0.5921 -0.0932  0.0148
  575SOL    HW1 1724   1.119   1.792   1.312  2.2959 -0.3010 -0.3965
  575SOL    HW2 1725   1.137   1.905   1.432  1.6552 -0.0209 -2.0906
  576SOL     OW 1726   2.944   2.859   1.350  0.0186 -0.1782  0.5034
  576SOL    HW1 1727   2.873   2.920   1.317  0.9977  1.4754 -1.1731
  576SOL    HW2 1728   2.951   2.840   1.449  1.5596 -2.2793 -2.4400
  577SOL     OW 1729   2.328   1.540   1.683  0.2281  0.0534  0.3798
  577SOL    HW1 1730   2.236   1.515   1.650 -0.1171 -0.2162  0.7194
  577SOL    HW2 1731   2.345   1.637   1.682 -2.2302 -0.2773  0.4453
  578SOL     OW 1732   1.233   0.160   3.083  0.2572 -0.0131  0.2326
  578SOL    HW1 1733   1.191   0.076   3.039  2.5800 -2.1786  1.2813
  578SOL    HW2 1734   1.260   0.225   3.008 -1.0149 -1.3178  0.5375
  579SOL     OW 1735   2.838   1.744   2.351 -0.3139 -0.5280  0.3120
  579SOL    HW1 1736   2.739   1.724   2.326 -2.3620 -1.5275  0.2497
  579SOL    HW2 1737   2.895   1.673   2.313 -0.7735  0.9126  0.3355
  580SOL     OW 1738   1.743   0.770   1.525  0.1598  0.1645  0.0418
  580SOL    HW1 1739   1.669   0.743   1.459 -2.8076 -0.6772  3.6885
  580SOL    HW2 1740   1.824   0.809   1.480 -1.9722 -1.9599 -0.7440
  581SOL     OW 1741   0.752   1.637   1.372  0.1791  0.3928  0.3224
  581SOL    HW1 1742   0.830   1.624   1.308 -0.3679 -0.5298 -0.5693
  581SOL    HW2 1743   0.792   1.645   1.463  0.2785 -0.3956 -2.1767
  582SOL     OW 1744   2.897   2.882   2.076  0.0113  0.5056 -0.0125
  582SOL    HW1 1745   2.960   2.840   2.145 -0.0313  1.8026  1.4131
  582SOL    HW2 1746   2.866   2.973   2.105  0.9117  0.2629 -0.1377
  583SOL     OW 1747   2.108   1.434   1.584 -0.8612 -0.0151 -0.1645
  583SOL    HW1 1748   2.013   1.468   1.578  1.6088 -0.1053  0.0754
  583SOL    HW2 1749   2.152   1.438   1.493 -0.7581 -1.0206  3.3359
  584SOL     OW 1750   1.135   2.119   2.792  0.1933 -0.3227 -0.1277
  584SOL    HW1 1751   1.232   2.098   2.767 -0.2324  3.8148 -1.5105
  584SOL    HW2 1752   1.070   2.045   2.772 -0.6976  4.7512  1.5149
  585SOL     OW 1753   0.317   2.624   0.298  0.2960  0.4001 -0.1945
  585SOL    HW1 1754   0.367   2.703   0.258 -0.0361 -1.9692 -0.1553
  585SOL    HW2 1755   0.285   2.564   0.226  0.0932  1.7900 -2.0456
  586SOL     OW 1756   1.751   2.547   2.620 -0.0584  0.4716 -0.1072
  586SOL    HW1 1757   1.661   2.507   2.655 -1.2656 -2.2861  2.8680
  586SOL    HW2 1758   1.823   2.473   2.618 -0.3254 -0.8605 -1.7702
  587SOL     OW 1759   2.602   1.682   0.403  0.5398  0.4571  0.0092
  587SOL    HW1 1760   2.641   1.772   0.421  1.5470 -1.4178  1.7056
  587SOL    HW2 1761   2.676   1.627   0.362  0.4418  0.4023  1.1190
  588SOL     OW 1762   2.143   0.084   1.166  0.0340  0.0642 -0.0666
  588SOL    HW1 1763   2.190   0.077   1.073 -2.3257 -1.0387 -0.1190
  588SOL    HW2 1764   2.051   0.129   1.161 -1.7637 -3.5054 -1.5740
  589SOL     OW 1765   0.818   0.693   0.509  0.1991 -0.4997  0.4642
  589SOL    HW1 1766   0.815   0.788   0.471  2.4078 -0.3776 -0.7520
  589SOL    HW2 1767   0.841   0.636   0.426 -1.8118 -0.7581 -1.4273
  590SOL     OW 1768   2.608   2.075   0.215 -0.8723  0.1147  0.0134
  590SOL    HW1 1769   2.667   2.135   0.153  1.1737  2.8109 -1.5350
  590SOL    HW2 1770   2.569   2.000   0.164 -0.8457  4.1337  3.2890
  591SOL     OW 1771   0.092   2.622   1.598  0.1397  0.0157  0.7725
  591SOL    HW1 1772   0.148   2.631   1.509  0.0646 -0.6205  1.0464
  591SOL    HW2 1773   0.160   2.594   1.670  2.4267 -1.7264 -0.8769
  592SOL     OW 1774   0.797   1.187   1.264  0.3620  0.1421 -0.3612
  592SOL    HW1 1775   0.794   1.235   1.354 -0.9828  0.7631  1.7617
  592SOL    HW2 1776   0.788   1.084   1.277 -3.4185 -5.0461 -0.9492
  593SOL     OW 1777   0.901   1.594   1.130 -0.2929  0.5194  0.1812
  593SOL    HW1 1778   0.988   1.647   1.124  0.6619 -0.7175  0.5141
  593SOL    HW2 1779   0.832   1.642   1.074  1.2544  1.8484  0.1365
  594SOL     OW 1780   0.504   1.724   2.813  0.2994 -0.2092  0.0904
  594SOL    HW1 1781   0.423   1.716   2.749 -0.7604 -1.4287  0.7996
  594SOL    HW2 1782   0.479   1.670   2.895  1.4146  2.4109  0.2268
  595SOL     OW 1783   1.203   0.288   1.149 -0.4296  0.0273 -0.5412
  595SOL    HW1 1784   1.261   0.298   1.068 -1.1053  0.0761  2.2209
  595SOL    HW2 1785   1.105   0.267   1.119 -1.1849  0.7687  0.0195
  596SOL     OW 1786   0.230   1.135   0.397  0.6543 -0.6085  0.0427
  596SOL    HW1 1787   0.144   1.158   0.348  1.2178  0.1142  2.3863
  596SOL    HW2 1788   0.284   1.066   0.340  1.3245 -4.6678 -1.4622
  597SOL     OW 1789   0.011   2.377   2.896  0.2458 -0.6245 -0.6604
  597SOL    HW1 1790   3.068   2.319   2.827  0.0291  0.6035  0.6894
  597SOL    HW2 1791   3.090   2.331   2.987  1.1632 -0.6203 -0.5238
  598SOL     OW 1792   2.220   1.903   2.211 -0.2375 -0.0605 -0.0137
  598SOL    HW1 1793   2.214   1.876   2.311  0.2865  0.2019  1.1554
  598SOL    HW2 1794   2.229   1.826   2.149  1.4926  1.6379  0.5143
  599SOL     OW 1795   1.179   0.422   0.585  0.5988 -0.1371  0.1839
  599SOL    HW1 1796   1.189   0.528   0.587 -1.8298 -0.0110 -0.6413
  599SOL    HW2 1797   1.198   0.391   0.490  1.9914  1.3382  0.2257
  600SOL     OW 1798   0.489   2.515   0.470 -0.5433  0.2202  0.0160
  600SOL    HW1 1799   0.441   2.553   0.389 -0.2241 -2.0814  0.1713
  600SOL    HW2 1800   0.569   2.452   0.443 -0.1334 -2.2071 -1.6947
  601SOL     OW 1801   0.508   0.921   1.164  0.4645 -0.4800  0.1165
  601SOL    HW1 1802   0.555   0.989   1.102  0.9790  0.5033 -0.5316
  601SOL    HW2 1803   0.544   0.831   1.149  0.1949  1.0289  1.1772
  602SOL     OW 1804   0.451   2.643   1.070 -0.2598  0.3232 -0.5590
  602SOL    HW1 1805   0.418   2.568   1.134  1.2525  3.0769  2.0250
  602SOL    HW2 1806   0.366   2.685   1.028 -1.7959  3.0980  0.6198
  603SOL     OW 1807   1.044   2.590   2.359  0.4083  0.2963 -0.4162
  603SOL    HW1 1808   1.046   2.614   2.260  0.6119 -1.9569 -3.6356
  603SOL    HW2 1809   1.116   2.523   2.385  2.6225 -1.8957 -0.8195
  604SOL     OW 1810   0.658   2.747   2.561 -0.0480  0.4914  0.1643
  604SOL    HW1 1811   0.564   2.719   2.557  2.0421  1.2654 -1.7745
  604SOL    HW2 1812   0.661   2.827   2.498 -0.4976 -2.2262  0.8769
  605SOL     OW 1813   1.472   0.742   2.034  0.4136 -0.1688 -0.1878
  605SOL    HW1 1814   1.465   0.707   1.943 -2.8384 -0.0147  1.6262
  605SOL    HW2 1815   1.559   0.707   2.079  0.5515 -0.4620 -0.2770
  606SOL     OW 1816   2.100   0.302   2.643  0.2438  0.4499  0.6410
  606SOL    HW1 1817   2.083   0.402   2.617  0.6036  2.4511 -1.9522
  606SOL    HW2 1818   2.165   0.257   2.567  2.8761 -2.2677 -1.3877
  607SOL     OW 1819   0.697   0.594   0.952 -0.2826 -0.0631  0.4620
  607SOL    HW1 1820   0.715   0.688   0.918  1.9406 -0.5762 -2.4418
  607SOL    HW2 1821   0.602   0.580   0.987 -0.1702 -1.5909 -0.2337
  608SOL     OW 1822   3.044   2.251   2.096  0.1002  0.0483 -0.1321
  608SOL    HW1 1823   3.045   2.350   2.126 -0.7220  0.7273  1.2501
  608SOL    HW2 1824   3.069   2.246   1.996  2.4232  0.8150  0.1222
  609SOL     OW 1825   1.882   0.533   3.019 -0.1251 -0.2595 -0.5361
  609SOL    HW1 1826   1.849   0.450   3.067 -0.5995  0.4253  0.9995
  609SOL    HW2 1827   1.921   0.601   3.087  3.0615  0.3602 -0.3901
  610SOL     OW 1828   0.778   2.828   1.242 -0.7235 -0.2601  0.1565
  610SOL    HW1 1829   0.691   2.851   1.193  2.0406  0.9625 -0.1549
  610SOL    HW2 1830   0.811   2.916   1.285  0.6576  1.9448  1.6013
  611SOL     OW 1831   1.435   0.708   0.372 -1.3512  0.2470 -0.0103
  611SOL    HW1 1832   1.459   0.803   0.416  4.5174  0.3242 -1.6084
  611SOL    HW2 1833   1.526   0.658   0.371  1.6062 -0.7744 -2.2224
  612SOL     OW 1834   1.847   0.645   2.769  1.2562  0.1905  0.0241
  612SOL    HW1 1835   1.746   0.660   2.756 -3.6143 -0.5559  0.0113
  612SOL    HW2 1836   1.867   0.585   2.853 -0.0612 -1.0839  3.1174
  613SOL     OW 1837   2.348   0.803   0.833  0.3089 -0.3094  0.0606
  613SOL    HW1 1838   2.298   0.746   0.764  0.3851 -0.2400  2.3541
  613SOL    HW2 1839   2.449   0.784   0.836  0.6944 -2.0773 -1.7446
  614SOL     OW 1840   2.642   0.383   2.171  0.2332 -0.0824  0.0072
  614SOL    HW1 1841   2.639   0.483   2.152  0.8155 -1.5279  4.8216
  614SOL    HW2 1842   2.695   0.334   2.098 -2.9199 -0.0421  0.1842
  615SOL     OW 1843   0.849   1.908   1.089 -0.0752  0.3464 -0.1402
  615SOL    HW1 1844   0.778   1.858   1.041  0.7391 -0.1136  2.6515
  615SOL    HW2 1845   0.815   1.951   1.177  1.8374 -1.4271  1.8725
  616SOL     OW 1846   1.672   1.224   2.618 -0.2588 -0.2393 -0.1411
  616SOL    HW1 1847   1.617   1.257   2.538 -0.6191  0.6793  1.0393
  616SOL    HW2 1848   1.773   1.250   2.610  0.7258 -0.4682 -3.1157
  617SOL     OW 1849   1.485   0.052   0.118  0.5864 -0.5660  0.3462
  617SOL    HW1 1850   1.411   0.068   0.052  1.6908 -0.2046 -0.3897
  617SOL    HW2 1851   1.507   3.046   0.110 -0.2118 -0.2287 -2.0254
  618SOL     OW 1852   1.378   1.725   2.321 -0.7687 -0.6184  0.5199
  618SOL    HW1 1853   1.454   1.680   2.272 -3.8482  0.8319  0.3575
  618SOL    HW2 1854   1.291   1.707   2.271  2.9605  0.2914  0.8841
  619SOL     OW 1855   2.514   1.503   1.020 -0.0967 -0.3732  0.2582
  619SOL    HW1 1856   2.516   1.576   0.950  2.1436  0.5925  1.7628
  619SOL    HW2 1857   2.594   1.445   1.010  0.1438 -1.5457 -0.5673
  620SOL     OW 1858   2.131   2.759   2.826 -0.2614 -0.5636  0.7477
  620SOL    HW1 1859   2.215   2.819   2.837  0.6444  0.1848  0.5467
  620SOL    HW2 1860   2.066   2.798   2.756  1.5498 -1.4287 -0.5638
  621SOL     OW 1861   2.831   1.487   0.524 -0.3843  0.0323 -0.2463
  621SOL    HW1 1862   2.776   1.405   0.548  0.5785  0.9852 -0.4132
  621SOL    HW2 1863   2.928   1.487   0.560  1.4156  0.7147  1.2223
  622SOL     OW 1864   1.108   2.287   2.329 -0.0469  0.6097 -0.4696
  622SOL    HW1 1865   1.123   2.192   2.297 -1.3010 -0.8019  0.8931
  622SOL    HW2 1866   1.158   2.351   2.271 -2.0213  0.3980  1.3882
  623SOL     OW 1867   0.274   2.467   2.921 -0.1129 -0.1255 -0.8294
  623SOL    HW1 1868   0.323   2.391   2.876 -0.3723 -1.3386 -1.7837
  623SOL    HW2 1869   0.173   2.456   2.912 -3.4289 -2.4403  1.2956
  624SOL     OW 1870   0.471   2.935   2.710 -0.7049 -0.2635 -0.9910
  624SOL    HW1 1871   0.559   2.891   2.693 -0.0419 -0.5354 -1.4675
  624SOL    HW2 1872   0.398   2.866   2.736 -0.4882 -1.8474  1.0206
  625SOL     OW 1873   0.699   2.145   2.781  0.3493 -0.2501 -0.5443
  625SOL    HW1 1874   0.703   2.202   2.694  2.9571  0.8372  0.9141
  625SOL    HW2 1875   0.771   2.173   2.846  0.0404 -2.5437  2.5795
  626SOL     OW 1876   2.925   0.358   0.305 -0.2130  0.4873  0.4386
  626SOL    HW1 1877   2.896   0.258   0.289  1.2024 -1.5396 -0.4930
  626SOL    HW2 1878   2.897   0.417   0.222  1.6142 -1.6224 -0.3428
  627SOL     OW 1879   1.729   1.734   2.967  0.0979 -0.7243  0.4265
  627SOL    HW1 1880   1.821   1.705   2.925  1.1325 -1.5151  0.2641
  627SOL    HW2 1881   1.659   1.669   2.938  0.2618 -0.0376  0.2777
  628SOL     OW 1882   1.220   1.301   2.682 -0.0995  0.2744 -0.6323
  628SOL    HW1 1883   1.186   1.219   2.629 -0.0891  2.0080 -2.0379
  628SOL    HW2 1884   1.278   1.360   2.626  1.1688 -1.0012 -0.7043
  629SOL     OW 1885   0.620   0.080   1.785 -0.0392 -0.0039  0.2280
  629SOL    HW1 1886   0.549   0.019   1.833 -1.5700  0.2062  1.8398
  629SOL    HW2 1887   0.612   0.180   1.805 -1.4802  3.7511  0.3996
  630SOL     OW 1888   2.281   1.180   1.977 -0.3586  0.5561 -0.7441
  630SOL    HW1 1889   2.303   1.247   2.050 -0.6894 -0.2583 -0.0442
  630SOL    HW2 1890   2.272   1.084   2.019  0.1225 -0.7230  0.4138
  631SOL     OW 1891   1.802   0.073   0.876 -0.0294 -0.1371  0.1024
  631SOL    HW1 1892   1.746   0.027   0.948 -1.2724 -1.5069 -2.3022
  631SOL    HW2 1893   1.753   0.061   0.786  1.8793 -0.1923  2.0652
  632SOL     OW 1894   0.096   0.853   1.644  0.5857  0.5838  0.1474
  632SOL    HW1 1895   0.057   0.864   1.550  0.7811  1.6672 -2.2076
  632SOL    HW2 1896   0.111   0.755   1.671 -0.5638 -2.2802  2.0656
  633SOL     OW 1897   0.909   0.466   0.029  0.1658 -0.0582 -0.1948
  633SOL    HW1 1898   0.883   0.533   3.052  2.9743  0.3631  3.7835
  633SOL    HW2 1899   0.895   0.367   0.006  0.1714 -0.6066 -2.3638
  634SOL     OW 1900   0.666   2.586   3.046  0.1452 -0.4816 -0.3665
  634SOL    HW1 1901   0.631   2.681   3.066  3.9841 -0.9559  1.1664
  634SOL    HW2 1902   0.727   2.594   2.964 -0.2396 -1.6001 -1.4795
  635SOL     OW 1903   0.021   0.687   0.559  0.0629  0.0280 -0.6462
  635SOL    HW1 1904   3.050   0.763   0.546  0.6423  1.2385 -1.9495
  635SOL    HW2 1905   0.091   0.679   0.489 -0.2846 -1.2147 -0.1006
  636SOL     OW 1906   0.359   1.175   0.057  0.5953  0.4711 -0.0516
  636SOL    HW1 1907   0.449   1.197   0.088 -2.2738 -0.7576 -2.5362
  636SOL    HW2 1908   0.323   1.101   0.120 -0.2172  1.2754 -3.4551
  637SOL     OW 1909   0.090   2.610   0.446  0.3568 -0.4044 -0.5216
  637SOL    HW1 1910   0.169   2.631   0.385 -0.2185  0.3212  3.4209
  637SOL    HW2 1911   0.027   2.693   0.451 -0.2397  2.3863 -1.4574
  638SOL     OW 1912   2.813   2.293   0.431 -0.5052 -0.2369 -0.1820
  638SOL    HW1 1913   2.870   2.205   0.428  0.5559 -1.3220  0.8480
  638SOL    HW2 1914   2.828   2.340   0.525  1.5026  0.4810 -2.0804
  639SOL     OW 1915   1.608   0.826   0.126 -0.5045 -0.2758 -0.4471
  639SOL    HW1 1916   1.550   0.738   0.137  1.9775 -1.5522  1.3573
  639SOL    HW2 1917   1.560   0.912   0.165  0.8672  2.4668  1.8536
  640SOL     OW 1918   1.878   2.288   1.681 -0.2925 -0.4245 -0.3671
  640SOL    HW1 1919   1.930   2.308   1.594 -0.9314 -0.3269  0.8411
  640SOL    HW2 1920   1.795   2.233   1.664 -0.3500 -0.8597 -0.5182
  641SOL     OW 1921   3.012   2.965   0.675 -0.5149 -0.2108  0.1382
  641SOL    HW1 1922   2.975   3.049   0.623 -1.2496  1.5729  0.4419
  641SOL    HW2 1923   2.972   2.958   0.770  3.3458  0.5160 -1.6527
  642SOL     OW 1924   1.119   0.613   1.763  0.0623  0.0211 -0.6162
  642SOL    HW1 1925   1.111   0.604   1.664  2.5219  3.2833  3.0537
  642SOL    HW2 1926   1.220   0.623   1.785  1.4746  3.0223 -1.7276
  643SOL     OW 1927   0.729   2.305   2.571 -0.0176 -0.0464 -0.0405
  643SOL    HW1 1928   0.646   2.274   2.515 -0.5853 -0.0645 -0.0920
  643SOL    HW2 1929   0.758   2.401   2.551  0.1698 -0.5226  1.1453
  644SOL     OW 1930   1.399   2.574   0.280 -0.2103 -0.1884  0.5380
  644SOL    HW1 1931   1.435   2.494   0.231 -1.3718  1.0569  2.3515
  644SOL    HW2 1932   1.331   2.543   0.352 -1.5329  1.6644  0.4464
  645SOL     OW 1933   1.634   1.251   1.924 -0.2922  0.0225  0.1078
  645SOL    HW1 1934   1.705   1.279   1.861  1.2528  1.1259  0.4747
  645SOL    HW2 1935   1.585   1.167   1.892  1.7666  0.3416  0.6420
  646SOL     OW 1936   0.429   0.526   0.034 -0.4088 -0.4594  0.1082
  646SOL    HW1 1937   0.466   0.479   0.121  0.1896 -0.1027 -1.3103
  646SOL    HW2 1938   0.489   0.511   3.041 -0.2301  0.3852 -2.9150
  647SOL     OW 1939   1.027   0.213   0.665 -0.1244  0.2945 -0.0051
  647SOL    HW1 1940   1.076   0.303   0.646 -0.0584  1.0511  0.4003
  647SOL    HW2 1941   1.093   0.132   0.661 -2.9165 -0.7676  2.8159
  648SOL     OW 1942   2.079   2.699   1.257 -0.3179 -0.4164 -0.4576
  648SOL    HW1 1943   2.141   2.704   1.176  0.5428 -0.0766  0.8978
  648SOL    HW2 1944   1.996   2.646   1.229  0.7175  1.0371 -1.3755
  649SOL     OW 1945   0.511   1.869   0.069 -0.4875  0.3026  0.2640
  649SOL    HW1 1946   0.561   1.901   3.072  0.6048 -0.8227 -2.5225
  649SOL    HW2 1947   0.489   1.950   0.123 -0.1558  0.6938  0.4827
  650SOL     OW 1948   2.151   1.908   1.859  0.0053  0.2951 -0.1308
  650SOL    HW1 1949   2.158   1.979   1.931 -1.4643  0.8417  0.1796
  650SOL    HW2 1950   2.098   1.935   1.778 -0.6510  0.4900 -0.9069
  651SOL     OW 1951   0.100   2.986   2.594  0.0016 -0.0303  0.5253
  651SOL    HW1 1952   0.162   3.046   2.540 -0.5499 -1.1898 -2.0608
  651SOL    HW2 1953   0.006   3.025   2.619 -2.0272  1.1285  0.2419
  652SOL     OW 1954   2.930   1.875   0.694  0.6184  0.0836  0.0129
  652SOL    HW1 1955   2.865   1.799   0.727 -0.1882 -2.4800 -0.4318
  652SOL    HW2 1956   2.957   1.945   0.767 -0.2048  1.1820 -2.9040
  653SOL     OW 1957   3.075   0.480   1.270  0.0120  0.0004 -0.0892
  653SOL    HW1 1958   3.025   0.474   1.180 -1.2038  0.3425 -1.6625
  653SOL    HW2 1959   0.074   0.429   1.263  2.0654 -0.2186 -2.2178
  654SOL     OW 1960   0.835   0.201   3.069 -0.0559  0.5531 -0.6099
  654SOL    HW1 1961   0.837   0.181   0.078 -1.6318  0.8302  0.4962
  654SOL    HW2 1962   0.738   0.180   3.034 -0.0937  0.3056  2.9323
  655SOL     OW 1963   0.526   2.897   1.122  0.3983 -0.3215  0.1091
  655SOL    HW1 1964   0.497   2.940   1.033  0.7925 -0.6126 -0.0358
  655SOL    HW2 1965   0.501   2.798   1.120  1.8173 -1.5878 -0.3816
  656SOL     OW 1966   0.109   2.746   2.181 -0.5448  0.0147  0.3079
  656SOL    HW1 1967   0.094   2.829   2.237  0.5587 -3.3135 -0.6294
  656SOL    HW2 1968   0.081   2.664   2.233  1.6735 -0.1510  0.9105
  657SOL     OW 1969   2.321   0.822   3.027  0.0469  0.4233  0.2486
  657SOL    HW1 1970   2.236   0.875   3.048 -0.4096 -2.1422  2.2562
  657SOL    HW2 1971   2.408   0.871   3.051  1.4967 -0.0336 -2.2747
  658SOL     OW 1972   1.982   1.686   1.196 -0.4173 -0.0959  0.2901
  658SOL    HW1 1973   1.986   1.718   1.099 -1.1159  1.5918 -3.4097
  658SOL    HW2 1974   2.072   1.717   1.237  2.3688 -0.0877 -0.6115
  659SOL     OW 1975   2.510   2.263   2.931  0.1043  0.4102  0.1078
  659SOL    HW1 1976   2.559   2.305   3.003  0.9362 -0.1931 -0.5714
  659SOL    HW2 1977   2.579   2.240   2.855 -2.7300  1.1500 -1.8677
  660SOL     OW 1978   1.263   0.367   0.338  0.5040  0.2201 -0.0170
  660SOL    HW1 1979   1.364   0.360   0.362 -1.0521 -0.4498 -0.0326
  660SOL    HW2 1980   1.239   0.417   0.253  1.0759 -0.2806 -1.1833
  661SOL     OW 1981   2.482   0.026   0.366 -0.1274  0.5642 -0.5871
  661SOL    HW1 1982   2.490   0.074   0.280  0.5241 -1.8586  0.7724
  661SOL    HW2 1983   2.385   0.017   0.400  0.8500  3.4330  0.5419
  662SOL     OW 1984   0.674   0.119   1.126 -0.7362 -0.0428 -0.1208
  662SOL    HW1 1985   0.675   0.055   1.046  0.4262 -2.2327  0.6691
  662SOL    HW2 1986   0.655   0.064   1.208  1.9550 -0.5700 -0.9925
  663SOL     OW 1987   1.574   2.813   2.338  0.1027  0.1956  0.6011
  663SOL    HW1 1988   1.583   2.733   2.273  1.5291  2.2377  0.5592
  663SOL    HW2 1989   1.507   2.773   2.406 -0.8998  0.2549  1.0017
  664SOL     OW 1990   0.773   2.094   1.506 -0.3998  0.2655  0.1157
  664SOL    HW1 1991   0.716   2.161   1.549  4.1554  0.9708 -0.3116
  664SOL    HW2 1992   0.776   2.125   1.407  0.4476 -0.3513 -1.2437
  665SOL     OW 1993   0.880   2.167   1.876  0.2391 -0.3264  0.1200
  665SOL    HW1 1994   0.792   2.111   1.880 -0.2395  1.1069  1.2441
  665SOL    HW2 1995   0.913   2.173   1.782 -2.1251  0.2311 -0.1435
  666SOL     OW 1996   0.114   2.713   2.600 -0.4746  0.0291  0.2868
  666SOL    HW1 1997   0.107   2.812   2.589  0.2688 -3.4099 -2.0735
  666SOL    HW2 1998   0.102   2.658   2.515 -0.1063  0.3706  0.2782
  667SOL     OW 1999   1.511   1.521   1.621  0.2134  0.0934  0.2745
  667SOL    HW1 2000   1.422   1.574   1.617 -1.8478 -0.0927  0.4658
  667SOL    HW2 2001   1.556   1.546   1.533  0.0441  0.2968 -0.4219
  668SOL     OW 2002   1.350   0.371   1.896 -0.0861 -0.0730 -0.2062
  668SOL    HW1 2003   1.338   0.283   1.848  2.3332  1.6928  1.3120
  668SOL    HW2 2004   1.296   0.368   1.982  0.0060  2.2566  1.1777
  669SOL     OW 2005   2.514   2.323   1.268  0.0376 -0.4005  0.2299
  669SOL    HW1 2006   2.420   2.356   1.239 -1.3297  0.1216  0.4526
  669SOL    HW2 2007   2.555   2.403   1.322 -1.6024 -0.4814  1.7465
  670SOL     OW 2008   1.500   2.358   0.176 -0.2173  0.6811  0.0219
  670SOL    HW1 2009   1.531   2.260   0.183 -0.6656 -1.6576 -0.2394
  670SOL    HW2 2010   1.571   2.417   0.132 -0.7616  1.7978  1.0198
  671SOL     OW 2011   1.295   0.959   0.927  0.0716 -0.0968  0.1660
  671SOL    HW1 2012   1.394   0.944   0.912  1.9134  3.0331 -1.5542
  671SOL    HW2 2013   1.281   1.004   1.015  1.8590 -0.0166 -0.7967
  672SOL     OW 2014   2.899   1.092   2.648  0.5206 -0.1483 -0.1940
  672SOL    HW1 2015   2.873   1.031   2.727 -1.7554 -0.1711 -0.3987
  672SOL    HW2 2016   2.995   1.122   2.642 -1.8040 -1.4982 -2.0048
  673SOL     OW 2017   0.003   1.939   1.343 -0.3790 -0.3740  0.6294
  673SOL    HW1 2018   3.031   1.946   1.423  0.9483 -0.7552  0.4791
  673SOL    HW2 2019   0.103   1.940   1.371  3.4709 -0.1472  1.4090
  674SOL     OW 2020   0.630   2.401   2.261  0.0305 -0.0975  0.0497
  674SOL    HW1 2021   0.535   2.427   2.292  1.8138 -2.8772 -1.7122
  674SOL    HW2 2022   0.706   2.443   2.317 -1.6543  0.4582 -1.0129
  675SOL     OW 2023   0.767   1.101   1.599  0.5857 -0.3920 -0.2237
  675SOL    HW1 2024   0.687   1.157   1.568 -0.4629 -0.1908 -0.1246
  675SOL    HW2 2025   0.740   1.037   1.674  0.6381  1.1266  3.2776
  676SOL     OW 2026   2.640   0.509   1.060 -0.0989  0.4061 -0.3693
  676SOL    HW1 2027   2.592   0.573   0.999  0.5944  0.0163  3.3538
  676SOL    HW2 2028   2.663   0.555   1.148 -0.9641  0.1629 -0.8005
  677SOL     OW 2029   2.471   1.606   3.088  0.0863  0.8573 -0.4233
  677SOL    HW1 2030   2.377   1.605   3.046 -1.0024  0.6162 -0.5646
  677SOL    HW2 2031   2.541   1.537   3.060  0.9551  0.3561 -0.2152
  678SOL     OW 2032   0.232   0.364   1.270  0.3767  0.1242  0.1366
  678SOL    HW1 2033   0.253   0.314   1.185 -0.1710  1.5526 -2.9360
  678SOL    HW2 2034   0.185   0.307   1.342  0.4074 -1.3008  0.3980
  679SOL     OW 2035   2.300   0.340   0.391  0.2867 -0.4653  0.1028
  679SOL    HW1 2036   2.303   0.438   0.402  0.4538  0.5723 -2.3845
  679SOL    HW2 2037   2.393   0.302   0.379  1.8424  0.5517  2.3897
  680SOL     OW 2038   0.064   1.940   1.803 -0.5044  0.4112  0.1427
  680SOL    HW1 2039   0.154   1.932   1.752 -0.1555 -2.2953 -1.3972
  680SOL    HW2 2040   0.067   1.863   1.873 -0.6486 -1.6771  0.2740
  681SOL     OW 2041   2.174   2.081   1.241  0.4849 -0.0035 -0.5320
  681SOL    HW1 2042   2.082   2.120   1.240 -0.8314  1.6974  0.6001
  681SOL    HW2 2043   2.233   2.134   1.180 -0.9081 -0.1910  0.9014
  682SOL     OW 2044   3.026   1.954   2.387 -0.0335  0.2034  0.7065
  682SOL    HW1 2045   2.943   1.898   2.388  0.1978  0.0921 -0.4210
  682SOL    HW2 2046   3.071   1.948   2.293  2.0971 -0.1045 -0.1330
  683SOL     OW 2047   0.084   2.272   1.431 -0.0342 -0.4051  0.4177
  683SOL    HW1 2048   0.046   2.265   1.335 -2.2295 -1.8850  1.0321
  683SOL    HW2 2049   0.007   2.252   1.495  3.9109 -1.0715 -0.0980
  684SOL     OW 2050   2.641   1.095   2.506  0.1638  0.4950 -0.1043
  684SOL    HW1 2051   2.741   1.110   2.523 -1.1878 -2.8509  1.4242
  684SOL    HW2 2052   2.618   0.999   2.533  1.6975  2.6285 -1.0649
  685SOL     OW 2053   1.409   1.182   0.526  0.5366 -0.5345  0.2520
  685SOL    HW1 2054   1.348   1.177   0.612 -0.4904 -1.0155 -0.1263
  685SOL    HW2 2055   1.373   1.245   0.453  2.0247  0.5500 -0.0740
  686SOL     OW 2056   0.357   0.066   0.575 -0.0167 -0.4637  0.6747
  686SOL    HW1 2057   0.359   3.056   0.594  0.9854 -0.2810 -0.7719
  686SOL    HW2 2058   0.267   0.091   0.531  0.9125  1.2196 -1.2990
  687SOL     OW 2059   1.412   1.459   2.521  0.8266 -0.7980 -0.1388
  687SOL    HW1 2060   1.450   1.533   2.575 -0.3864 -2.1305 -2.0517
  687SOL    HW2 2061   1.485   1.423   2.457  0.3420 -0.4141  1.1603
  688SOL     OW 2062   1.515   1.244   1.603 -0.7613 -0.2607  0.3986
  688SOL    HW1 2063   1.543   1.325   1.656  1.4886  1.7080  1.7555
  688SOL    HW2 2064   1.419   1.214   1.619  0.4723 -0.6190 -3.9775
  689SOL     OW 2065   2.218   3.065   1.388 -0.2322  0.2071  0.2265
  689SOL    HW1 2066   2.202   0.016   1.294 -0.0228  0.3515  1.2660
  689SOL    HW2 2067   2.259   2.974   1.388  0.4140  2.1649  3.3360
  690SOL     OW 2068   0.091   1.228   1.126  0.4089  0.4556 -0.3888
  690SOL    HW1 2069   0.035   1.254   1.045  0.7920 -0.9432 -0.6953
  690SOL    HW2 2070   0.167   1.162   1.106 -1.4380 -1.7737 -0.9274
  691SOL     OW 2071   0.450   2.286   1.255 -0.3080  0.4362  0.0703
  691SOL    HW1 2072   0.536   2.297   1.198 -0.7782 -0.0766  0.5652
  691SOL    HW2 2073   0.393   2.362   1.254 -0.3105 -4.3126  1.5673
  692SOL     OW 2074   2.331   0.864   1.769  0.4116  0.4969  0.2690
  692SOL    HW1 2075   2.431   0.858   1.736  0.3348 -0.3850 -0.0105
  692SOL    HW2 2076   2.329   0.789   1.836  1.5655  2.3577  1.7171
  693SOL     OW 2077   0.512   1.699   1.968 -0.3133  0.4265 -0.1807
  693SOL    HW1 2078   0.613   1.700   1.949 -2.3924 -2.6518 -0.6476
  693SOL    HW2 2079   0.499   1.670   2.066 -0.8116 -1.6542  0.4899
  694SOL     OW 2080   1.661   1.224   1.235  0.3990  0.0644 -0.4057
  694SOL    HW1 2081   1.664   1.156   1.311 -2.6197  2.1313  0.0764
  694SOL    HW2 2082   1.591   1.297   1.258 -0.2410  0.8571  1.3255
  695SOL     OW 2083   0.871   1.380   0.808  0.1302  0.2647  0.3806
  695SOL    HW1 2084   0.880   1.480   0.777 -1.5363  0.4875 -0.2312
  695SOL    HW2 2085   0.824   1.324   0.739 -0.9061  2.2277  0.0555
  696SOL     OW 2086   0.828   2.943   0.200  0.1601 -0.1208 -0.1670
  696SOL    HW1 2087   0.755   2.972   0.138 -0.7057 -0.4707 -0.0648
  696SOL    HW2 2088   0.870   2.854   0.168  1.0770 -3.6570  1.9849
  697SOL     OW 2089   1.575   0.460   1.562  0.3165 -0.7428  0.1580
  697SOL    HW1 2090   1.663   0.458   1.606  1.8478 -0.2951 -0.1956
  697SOL    HW2 2091   1.562   0.377   1.503  0.5432 -0.9310 -0.3437
  698SOL     OW 2092   1.652   1.596   2.264 -0.2980  0.1769 -0.0190
  698SOL    HW1 2093   1.742   1.635   2.281  0.6407 -1.0250  1.8520
  698SOL    HW2 2094   1.644   1.571   2.167 -2.2122 -1.7874  1.9462
  699SOL     OW 2095   2.573   0.498   1.715  0.2562  0.5484 -0.1381
  699SOL    HW1 2096   2.565   0.412   1.763 -0.9822 -1.4909 -1.9853
  699SOL    HW2 2097   2.488   0.513   1.664  2.7297  0.4780  0.7831
  700SOL     OW 2098   1.238   2.073   0.456  0.2689  0.0242  0.2600
  700SOL    HW1 2099   1.297   2.158   0.464  1.4363  1.0674 -0.8935
  700SOL    HW2 2100   1.245   2.032   0.361 -0.7785 -0.3009  0.1120
  701SOL     OW 2101   2.536   3.016   2.228 -0.0766 -0.1983  0.0673
  701SOL    HW1 2102   2.528   2.933   2.284 -1.1588  2.6867 -0.1891
  701SOL    HW2 2103   2.496   0.008   2.277 -0.2621 -0.9135 -2.6988
  702SOL     OW 2104   0.727   2.895   0.506  0.2234  0.5892  0.3617
  702SOL    HW1 2105   0.650   2.942   0.459 -0.5626  2.2898 -2.0477
  702SOL    HW2 2106   0.809   2.903   0.444  0.5951  0.5735 -1.8408
  703SOL     OW 2107   2.295   0.099   2.058 -0.0753 -0.2009  0.4006
  703SOL    HW1 2108   2.206   0.120   2.102  3.6250 -0.6400  0.7872
  703SOL    HW2 2109   2.355   0.075   2.136  0.8403  4.1777  0.3913
  704SOL     OW 2110   2.694   1.930   0.430 -0.1955  0.1592  0.4309
  704SOL    HW1 2111   2.670   1.985   0.348  1.1609 -0.2235 -3.1597
  704SOL    HW2 2112   2.663   1.970   0.514 -0.1593 -1.4693 -0.9003
  705SOL     OW 2113   2.535   2.863   2.474 -0.7631  0.0240  0.0064
  705SOL    HW1 2114   2.599   2.912   2.536 -1.8035 -4.1465 -0.3073
  705SOL    HW2 2115   2.558   2.763   2.489  1.6113 -4.3735  1.6474
  706SOL     OW 2116   2.454   0.220   1.182  0.0841  0.6942 -0.8048
  706SOL    HW1 2117   2.474   0.240   1.285 -0.6298  2.7142 -1.3140
  706SOL    HW2 2118   2.393   0.139   1.170  1.7993 -1.7884 -0.2237
  707SOL     OW 2119   0.939   0.148   2.489  0.1302 -0.2419 -0.1848
  707SOL    HW1 2120   0.885   0.082   2.547  1.4091 -3.1212  2.0646
  707SOL    HW2 2121   0.880   0.209   2.425  0.0289  3.5300 -0.8922
  708SOL     OW 2122   0.256   2.328   1.778 -0.2231  0.1456 -0.2403
  708SOL    HW1 2123   0.292   2.319   1.684 -1.8989 -0.5324  1.5979
  708SOL    HW2 2124   0.160   2.292   1.777 -2.0698 -1.8449  0.7172
  709SOL     OW 2125   1.410   0.103   1.547  0.6207  0.1786  0.4712
  709SOL    HW1 2126   1.400   0.188   1.494  1.0077 -3.0480  1.1069
  709SOL    HW2 2127   1.444   0.030   1.486 -2.3601  2.3180  1.4327
  710SOL     OW 2128   1.157   3.025   2.952 -0.0636 -0.5560  0.0137
  710SOL    HW1 2129   1.064   3.049   2.919  0.4467 -0.9296 -1.0963
  710SOL    HW2 2130   1.213   3.007   2.872 -5.8734  2.5886  1.4349
  711SOL     OW 2131   1.152   2.334   2.639 -0.0324 -0.5636  0.5726
  711SOL    HW1 2132   1.149   2.256   2.702 -2.8748 -0.9901 -2.1443
  711SOL    HW2 2133   1.102   2.320   2.552 -0.4116 -0.0469  1.8954
  712SOL     OW 2134   0.913   2.213   2.915 -0.0294  0.1592  0.3657
  712SOL    HW1 2135   1.001   2.192   2.880 -1.2682  2.0843 -0.2936
  712SOL    HW2 2136   0.910   2.192   3.012  0.0572  2.8889  1.1016
  713SOL     OW 2137   1.992   1.280   2.249 -0.2653  0.1176  0.2090
  713SOL    HW1 2138   1.899   1.242   2.235  0.9592 -0.9598  1.5644
  713SOL    HW2 2139   2.052   1.204   2.272 -3.7556  4.1692  0.1289
  714SOL     OW 2140   0.800   1.355   2.033 -0.0247 -0.0705  0.2030
  714SOL    HW1 2141   0.716   1.377   1.982  1.6542  3.0607 -2.8490
  714SOL    HW2 2142   0.819   1.255   2.043  0.9682 -0.3214  0.2806
  715SOL     OW 2143   2.530   0.545   0.339  0.6026 -0.2038  0.2362
  715SOL    HW1 2144   2.565   0.457   0.377  1.3645  0.6069 -1.1421
  715SOL    HW2 2145   2.464   0.587   0.403  1.5425  0.7746  1.7878
  716SOL     OW 2146   2.667   2.370   1.661  0.3425 -0.2910 -0.3451
  716SOL    HW1 2147   2.578   2.402   1.623  0.4800 -0.0294  2.0436
  716SOL    HW2 2148   2.663   2.281   1.714  0.0530 -0.1326  2.8128
  717SOL     OW 2149   2.266   0.930   1.042 -0.2504 -0.0248 -0.1835
  717SOL    HW1 2150   2.171   0.965   1.030 -0.4861  0.2009 -2.3243
  717SOL    HW2 2151   2.303   0.893   0.954  0.5194  0.6236  0.2538
  718SOL     OW 2152   1.287   1.659   1.592 -0.0997 -0.3467  0.2616
  718SOL    HW1 2153   1.210   1.587   1.595 -1.3231 -1.2418 -0.5125
  718SOL    HW2 2154   1.250   1.747   1.558  2.1544 -1.2672  0.7559
  719SOL     OW 2155   2.863   0.534   0.053 -0.0624  0.1325  0.0268
  719SOL    HW1 2156   2.911   0.562   3.055 -0.4714 -0.2747  0.9305
  719SOL    HW2 2157   2.806   0.456   0.036  4.3592  0.7693  1.2292
  720SOL     OW 2158   0.785   0.229   0.798 -0.1042 -0.5982  0.5739
  720SOL    HW1 2159   0.861   0.199   0.736  1.5253  1.7175 -0.7391
  720SOL    HW2 2160   0.800   0.325   0.828  1.3116 -1.6578 -0.0674
  721SOL     OW 2161   2.684   0.927   0.663 -0.3755 -0.2367  0.4416
  721SOL    HW1 2162   2.607   0.987   0.637 -1.3216 -0.9409  0.1430
  721SOL    HW2 2163   2.653   0.845   0.707  3.7011  2.5791 -2.4266
  722SOL     OW 2164   0.490   2.238   2.480 -0.3293  0.5986  0.2431
  722SOL    HW1 2165   0.477   2.153   2.426  1.6761  0.6424 -3.6553
  722SOL    HW2 2166   0.455   2.322   2.434  0.4831 -1.0271 -0.2616
  723SOL     OW 2167   1.630   3.048   1.041  0.0829  0.0825 -0.0908
  723SOL    HW1 2168   1.578   0.043   1.071 -1.1081  1.4356 -2.5179
  723SOL    HW2 2169   1.676   2.991   1.115  0.5761  0.9874 -0.3228
  724SOL     OW 2170   1.488   1.841   1.831 -0.8471  0.0070 -0.1471
  724SOL    HW1 2171   1.519   1.919   1.891  0.6840  0.5495  1.3048
  724SOL    HW2 2172   1.463   1.760   1.890  2.1683  0.1300  0.7458
  725SOL     OW 2173   1.191   2.588   1.299  0.0339 -0.1498 -1.0232
  725SOL    HW1 2174   1.112   2.622   1.355 -2.5412 -0.1854 -0.2089
  725SOL    HW2 2175   1.188   2.638   1.210 -0.9803  1.5710  0.3803
  726SOL     OW 2176   2.110   2.744   0.164  0.2019  0.2819  0.2128
  726SOL    HW1 2177   2.058   2.744   0.078  0.0508  0.6535 -1.4515
  726SOL    HW2 2178   2.082   2.657   0.216  0.5964 -0.1955 -0.0781
  727SOL     OW 2179   1.475   1.744   1.032  0.4215  0.6726  0.3146
  727SOL    HW1 2180   1.569   1.707   1.051 -1.5093  0.0492  0.0406
  727SOL    HW2 2181   1.407   1.688   1.081 -0.1141  1.6214 -1.8501
  728SOL     OW 2182   2.180   2.625   2.056 -0.2143 -0.0934 -0.4788
  728SOL    HW1 2183   2.132   2.656   2.138  0.3129  2.0355 -0.3782
  728SOL    HW2 2184   2.270   2.672   2.059  2.4745  1.6192  0.5474
  729SOL     OW 2185   1.973   2.345   1.427  0.5242 -0.1560  0.4295
  729SOL    HW1 2186   1.873   2.372   1.410  0.7787 -0.2375  0.2352
  729SOL    HW2 2187   2.033   2.424   1.425  0.4160  1.4776  0.2014
  730SOL     OW 2188   1.901   0.827   2.417 -0.0072  0.0927  0.3714
  730SOL    HW1 2189   1.873   0.876   2.335 -1.8544 -0.7248  1.1149
  730SOL    HW2 2190   1.845   0.868   2.498 -4.2401 -2.2834  2.6955
  731SOL     OW 2191   0.902   2.605   1.119 -0.4237  0.2332  0.5794
  731SOL    HW1 2192   0.858   2.687   1.159  0.7517 -0.8692  2.8644
  731SOL    HW2 2193   0.978   2.633   1.054  3.5467 -0.1243  1.3563
  732SOL     OW 2194   1.075   0.014   0.893  0.0645 -0.0469  0.1597
  732SOL    HW1 2195   1.020   3.067   0.817  0.2968  0.7341 -1.5960
  732SOL    HW2 2196   1.132   3.032   0.938 -0.8669  0.5100  0.2820
  733SOL     OW 2197   1.251   1.147   0.742  0.6903 -0.1561 -0.1879
  733SOL    HW1 2198   1.276   1.231   0.793  1.0603  0.9861  0.6541
  733SOL    HW2 2199   1.259   1.069   0.802  0.0924  2.2251 -1.2234
  734SOL     OW 2200   2.644   2.110   2.579 -0.9337 -0.3528 -0.3957
  734SOL    HW1 2201   2.650   2.210   2.558  0.4124  0.5358 -0.1855
  734SOL    HW2 2202   2.556   2.071   2.560  0.0625 -0.0208 -1.7043
  735SOL     OW 2203   0.713   3.066   0.900  1.1956 -0.1242  0.1220
  735SOL    HW1 2204   0.722   3.006   0.821  0.3491  1.9837  2.3902
  735SOL    HW2 2205   0.737   0.073   0.871 -0.2207  4.1437 -0.0808
  736SOL     OW 2206   1.399   2.497   2.648  0.5289  0.1432 -0.1505
  736SOL    HW1 2207   1.332   2.430   2.600 -3.4434 -1.5342 -1.3427
  736SOL    HW2 2208   1.395   2.481   2.748  0.6341  1.1313  0.5585
  737SOL     OW 2209   0.782   2.168   1.253 -0.1231  0.5127  0.3476
  737SOL    HW1 2210   0.720   2.189   1.179  0.3953  0.5913  3.1140
  737SOL    HW2 2211   0.849   2.246   1.271  1.2181  2.4257 -0.0051
  738SOL     OW 2212   1.538   3.024   2.760 -0.2764 -0.2756 -0.9427
  738SOL    HW1 2213   1.621   3.029   2.697 -0.1975 -1.2541 -2.6358
  738SOL    HW2 2214   1.547   2.971   2.852 -1.8417  0.6344  3.1607
  739SOL     OW 2215   1.258   2.280   1.926 -0.3405  0.1233 -0.1470
  739SOL    HW1 2216   1.218   2.190   1.945  0.9710  1.3023 -0.6827
  739SOL    HW2 2217   1.356   2.266   1.911 -4.0642 -0.9758  4.5178
  740SOL     OW 2218   1.511   2.297   1.430 -0.1703  0.1518  0.4550
  740SOL    HW1 2219   1.478   2.225   1.365 -0.8505 -2.5335 -0.3759
  740SOL    HW2 2220   1.443   2.370   1.444  1.4675 -0.2764 -4.5199
  741SOL     OW 2221   2.615   1.208   0.391  0.4259  0.1153  0.0542
  741SOL    HW1 2222   2.600   1.243   0.488 -1.8480  1.3485  2.4823
  741SOL    HW2 2223   2.521   1.191   0.348 -0.7949  1.5956  0.1179
  742SOL     OW 2224   0.606   1.859   2.410 -0.0447 -0.1912  0.1320
  742SOL    HW1 2225   0.688   1.839   2.351  1.6940  0.0196  1.2098
  742SOL    HW2 2226   0.532   1.908   2.363 -1.8765  1.5396  3.0974
  743SOL     OW 2227   0.453   1.265   2.607 -1.0137  0.0437 -0.1735
  743SOL    HW1 2228   0.500   1.179   2.638  2.2451 -1.6042  1.9572
  743SOL    HW2 2229   0.448   1.333   2.682 -3.7476  1.8517 -0.3972
  744SOL     OW 2230   2.100   2.454   1.097  0.5393  0.3426  0.2504
  744SOL    HW1 2231   2.076   2.515   1.017 -1.1864 -1.4227 -1.1120
  744SOL    HW2 2232   2.072   2.359   1.075 -0.3374  0.2314  1.0749
  745SOL     OW 2233   2.054   1.739   1.567  0.0925  0.3340  0.5826
  745SOL    HW1 2234   2.114   1.745   1.485 -1.7420  1.1860  0.1715
  745SOL    HW2 2235   2.016   1.828   1.601 -0.9427  1.2876 -0.0327
  746SOL     OW 2236   2.061   1.028   0.776 -0.0449 -0.6012 -0.8918
  746SOL    HW1 2237   2.145   1.086   0.784  1.4737 -0.8706 -1.6172
  746SOL    HW2 2238   2.004   1.032   0.862 -0.8430  0.7551 -1.6209
  747SOL     OW 2239   1.754   2.070   0.779 -0.6905  0.0275  0.2089
  747SOL    HW1 2240   1.710   1.979   0.771 -0.6968 -3.8168  0.7291
  747SOL    HW2 2241   1.854   2.068   0.802 -1.4802  0.2873 -0.1099
  748SOL     OW 2242   0.531   1.704   0.595 -0.2858 -0.4024 -0.0147
  748SOL    HW1 2243   0.609   1.676   0.533  0.3087  0.3530 -1.1148
  748SOL    HW2 2244   0.560   1.786   0.649  0.1301 -0.5623  1.8784
  749SOL     OW 2245   0.048   2.973   2.312 -0.2286 -0.1285 -0.3471
  749SOL    HW1 2246   0.053   3.061   2.260 -2.3297  1.9400  0.1418
  749SOL    HW2 2247   0.048   2.984   2.410  0.4914 -3.0559 -2.9309
  750SOL     OW 2248   1.828   0.378   1.196 -0.4487 -0.5344  0.1582
  750SOL    HW1 2249   1.901   0.365   1.127  1.5500  0.2141  0.3740
  750SOL    HW2 2250   1.877   0.364   1.285  0.4108  3.1272  0.2777
  751SOL     OW 2251   2.224   3.005   0.200  0.1175 -0.3146 -0.2002
  751SOL    HW1 2252   2.212   2.910   0.227 -2.0499  0.5799 -1.5215
  751SOL    HW2 2253   2.297   3.009   0.130  2.7311 -0.5706 -1.6079
  752SOL     OW 2254   1.937   1.961   0.134 -0.3945 -0.1894  0.3860
  752SOL    HW1 2255   1.840   1.964   0.102 -1.3772  0.9149  2.1758
  752SOL    HW2 2256   1.983   1.875   0.096  0.6312 -0.9685 -1.7480
  753SOL     OW 2257   1.924   1.317   2.592  0.3284 -0.3230  0.3549
  753SOL    HW1 2258   2.020   1.290   2.608 -1.0749 -1.8052  0.0427
  753SOL    HW2 2259   1.901   1.386   2.521  0.6005 -1.2606 -0.1321
  754SOL     OW 2260   2.883   2.444   1.241  0.2207 -0.3354  0.6628
  754SOL    HW1 2261   2.912   2.535   1.196  0.3414 -0.9003  1.5839
  754SOL    HW2 2262   2.949   2.372   1.221 -2.2759 -0.1018 -0.3206
  755SOL     OW 2263   1.966   0.648   0.932  0.3926  0.2187 -0.4486
  755SOL    HW1 2264   1.971   0.713   0.856  1.6300 -0.6916  2.7132
  755SOL    HW2 2265   1.940   0.693   1.022  2.1854  1.9512 -0.2372
  756SOL     OW 2266   1.151   1.413   2.913  0.0953 -0.3112 -0.3424
  756SOL    HW1 2267   1.203   1.498   2.932 -0.5902  2.0017  1.0355
  756SOL    HW2 2268   1.159   1.386   2.814 -3.0887  1.7869  4.1281
  757SOL     OW 2269   1.977   2.947   1.342  0.6215  0.6277 -0.4694
  757SOL    HW1 2270   2.006   2.853   1.321 -1.6967  0.3817  0.6497
  757SOL    HW2 2271   2.061   2.991   1.380 -2.6003 -0.2357 -0.4263
  758SOL     OW 2272   0.935   2.369   1.278  0.1756 -0.6047  0.0278
  758SOL    HW1 2273   0.895   2.412   1.362  2.6266 -0.0954 -1.9185
  758SOL    HW2 2274   0.917   2.439   1.203 -0.7140  2.7827 -0.5348
  759SOL     OW 2275   2.286   1.360   1.064  0.6794  0.2736  0.6913
  759SOL    HW1 2276   2.217   1.401   0.996  0.5825  1.7955 -1.5854
  759SOL    HW2 2277   2.377   1.407   1.053 -0.6544 -2.0824  1.3269
  760SOL     OW 2278   2.025   1.172   1.351 -0.2686 -0.2726 -0.3800
  760SOL    HW1 2279   1.973   1.180   1.440  1.3984  0.1967  2.3707
  760SOL    HW2 2280   2.092   1.250   1.344  1.1653  1.4492  1.6488
  761SOL     OW 2281   2.206   0.012   0.444 -0.2023  0.2328  0.0652
  761SOL    HW1 2282   2.187   3.043   0.527 -2.3113 -0.7263  0.9121
  761SOL    HW2 2283   2.198   3.061   0.349  1.5428 -0.2498 -1.9020
  762SOL     OW 2284   1.792   2.218   2.991 -0.2756 -0.6404 -0.1871
  762SOL    HW1 2285   1.867   2.177   2.937 -0.0760  0.8000 -1.6641
  762SOL    HW2 2286   1.834   2.260   3.072 -2.3519  0.0877 -3.1164
  763SOL     OW 2287   0.623   1.190   1.050 -0.4774  0.9238 -0.0271
  763SOL    HW1 2288   0.565   1.274   1.037  1.2922 -0.3761  0.3854
  763SOL    HW2 2289   0.697   1.205   1.124  2.1742  0.2476  1.3464
  764SOL     OW 2290   2.775   2.238   3.077  0.2918 -0.0777  0.0408
  764SOL    HW1 2291   2.866   2.246   0.037 -0.8322  1.6682  2.4642
  764SOL    HW2 2292   2.784   2.176   2.997  0.0092  0.8545  2.9562
  765SOL     OW 2293   0.915   0.077   1.860  0.2841 -0.0071  0.4895
  765SOL    HW1 2294   0.821   0.115   1.847  1.2431  1.1660  0.3831
  765SOL    HW2 2295   0.959   0.054   1.770 -0.8813 -2.8018 -2.6993
  766SOL     OW 2296   2.947   1.527   2.701 -0.0326  1.3243 -0.2961
  766SOL    HW1 2297   2.927   1.612   2.653  1.5124 -1.6797 -1.6040
  766SOL    HW2 2298   3.046   1.511   2.687 -0.6656  0.9190 -0.1919
  767SOL     OW 2299   3.040   1.556   1.625  0.1818  0.5149 -0.0679
  767SOL    HW1 2300   2.952   1.516   1.665 -2.4257 -1.7023  1.3596
  767SOL    HW2 2301   3.029   1.588   1.529 -0.6482 -1.9676  2.0048
  768SOL     OW 2302   0.970   0.708   2.912  0.1120 -0.0793  0.6101
  768SOL    HW1 2303   0.959   0.777   2.986  0.2921 -0.7332  0.3648
  768SOL    HW2 2304   1.066   0.671   2.903 -0.2783 -1.2837  1.2028
  769SOL     OW 2305   1.957   2.551   0.308  0.1551 -0.7178 -0.4936
  769SOL    HW1 2306   1.877   2.588   0.356 -2.6707 -0.3238 -0.9828
  769SOL    HW2 2307   2.028   2.513   0.373 -1.1974 -0.0897  1.6345
  770SOL     OW 2308   2.739   0.312   3.054 -0.5025 -0.3892  0.1579
  770SOL    HW1 2309   2.651   0.359   3.048  0.8181 -1.5662 -0.7548
  770SOL    HW2 2310   2.766   0.264   2.965  2.2478 -1.2750 -1.5782
  771SOL     OW 2311   1.532   2.298   1.924  0.2024  0.0685 -0.0532
  771SOL    HW1 2312   1.549   2.399   1.927  1.5754 -0.2252  2.1514
  771SOL    HW2 2313   1.575   2.252   1.843 -1.6359 -0.7247  2.2025
  772SOL     OW 2314   0.604   0.467   2.934  0.2774 -0.4172  0.3115
  772SOL    HW1 2315   0.671   0.406   2.978  1.1470  1.6618 -0.4295
  772SOL    HW2 2316   0.584   0.434   2.839  2.9829 -2.2882 -1.4745
  773SOL     OW 2317   2.929   1.121   1.473  0.4561  0.2179  0.1845
  773SOL    HW1 2318   2.837   1.112   1.435  0.7905  1.2915  0.4037
  773SOL    HW2 2319   2.931   1.159   1.564  1.7381  3.1260 -2.6015
  774SOL     OW 2320   1.487   1.034   0.262  0.1446 -0.1782  0.2565
  774SOL    HW1 2321   1.388   1.009   0.271 -2.3468  1.2037 -1.2912
  774SOL    HW2 2322   1.534   1.017   0.353  1.2944  0.8415  0.7943
  775SOL     OW 2323   2.396   2.737   0.186 -0.3455  0.0183 -0.0043
  775SOL    HW1 2324   2.435   2.703   0.097  0.1236  0.2077  1.8845
  775SOL    HW2 2325   2.296   2.746   0.178 -0.6412  1.5821 -0.8689
  776SOL     OW 2326   2.611   0.904   2.121  0.5889  0.1060  0.1861
  776SOL    HW1 2327   2.577   0.973   2.057  0.3913 -3.3436  3.7921
  776SOL    HW2 2328   2.530   0.880   2.181 -0.5316  0.8202  2.3404
  777SOL     OW 2329   0.252   1.165   2.322 -0.5549  0.1703 -0.0459
  777SOL    HW1 2330   0.336   1.173   2.261  0.7173  1.9243  0.4127
  777SOL    HW2 2331   0.166   1.145   2.272 -0.9914 -0.9110 -1.1694
  778SOL     OW 2332   0.849   0.317   0.456 -0.2392 -0.3592  0.0112
  778SOL    HW1 2333   0.910   0.296   0.535 -0.6208  1.2528  1.7567
  778SOL    HW2 2334   0.831   0.235   0.398 -1.2522 -3.0880  0.3938
  779SOL     OW 2335   0.610   1.067   2.690  0.3015  0.1153 -0.4117
  779SOL    HW1 2336   0.687   1.104   2.742  3.1042 -1.8006  0.2812
  779SOL    HW2 2337   0.637   0.992   2.623  2.2430 -3.6831  0.0432
  780SOL     OW 2338   2.159   1.083   2.295 -0.2274  0.0027 -0.4537
  780SOL    HW1 2339   2.172   1.021   2.377 -0.4837  2.1310  0.1840
  780SOL    HW2 2340   2.159   1.028   2.209  1.4655 -2.8293 -1.0470
  781SOL     OW 2341   2.959   1.168   1.746 -0.0911 -0.2822  0.2037
  781SOL    HW1 2342   3.063   1.171   1.756  1.3800 -2.8574 -1.4442
  781SOL    HW2 2343   2.921   1.090   1.802 -0.1697  0.7197 -0.4486
  782SOL     OW 2344   0.974   1.849   2.423 -0.4660  0.3018 -0.1503
  782SOL    HW1 2345   0.977   1.952   2.416 -0.6102  2.0431 -1.0490
  782SOL    HW2 2346   0.951   1.806   2.508 -0.1730 -1.0549 -0.3985
  783SOL     OW 2347   0.431   2.772   1.596  0.6480 -0.0872 -0.1531
  783SOL    HW1 2348   0.392   2.713   1.668 -1.5857  1.2530 -2.7199
  783SOL    HW2 2349   0.518   2.735   1.552  1.3170 -0.7364 -2.1751
  784SOL     OW 2350   1.560   0.492   2.951  0.4316 -0.3791 -0.0309
  784SOL    HW1 2351   1.564   0.553   2.871 -1.1506 -2.1879 -1.3735
  784SOL    HW2 2352   1.597   0.538   3.034 -2.0643  2.0734  1.1591
  785SOL     OW 2353   1.324   0.360   2.915  0.2723 -0.4219  0.1395
  785SOL    HW1 2354   1.391   0.414   2.965 -0.5716 -0.5197 -1.7633
  785SOL    HW2 2355   1.362   0.320   2.830  0.8844  1.4691  1.0014
  786SOL     OW 2356   0.336   1.542   0.327  0.1230  0.0640  0.0515
  786SOL    HW1 2357   0.342   1.473   0.403 -1.9098 -0.4193  0.3139
  786SOL    HW2 2358   0.402   1.530   0.252 -0.1250 -2.6839 -3.6778
  787SOL     OW 2359   1.888   1.508   0.464  0.4011 -1.1070  0.3200
  787SOL    HW1 2360   1.920   1.584   0.410 -0.5196 -1.7488  1.0199
  787SOL    HW2 2361   1.792   1.476   0.435 -1.0936 -1.1223  1.9614
  788SOL     OW 2362   1.875   1.565   1.597 -0.1021 -0.4470 -0.0348
  788SOL    HW1 2363   1.803   1.583   1.531  0.8952 -1.7376  0.8185
  788SOL    HW2 2364   1.940   1.644   1.595  1.0074  2.1415  1.7630
  789SOL     OW 2365   0.303   1.398   1.786  0.2165 -0.4467  0.1439
  789SOL    HW1 2366   0.253   1.454   1.861 -3.7535  3.4133  2.5027
  789SOL    HW2 2367   0.279   1.424   1.688  2.0062 -0.9595  2.8647
  790SOL     OW 2368   0.489   2.820   3.059 -0.2314  0.1459  0.5248
  790SOL    HW1 2369   0.418   2.788   2.992  0.4636  0.4459  1.0441
  790SOL    HW2 2370   0.449   2.851   0.056 -2.3513 -0.7928  0.9580
  791SOL     OW 2371   0.557   0.245   2.757  0.4939 -0.3376 -0.0468
  791SOL    HW1 2372   0.612   0.298   2.689  0.2286  0.2700  1.6103
  791SOL    HW2 2373   0.480   0.188   2.717 -0.5631 -4.5834  0.0968
  792SOL     OW 2374   2.032   0.596   2.296 -0.2137 -0.4406 -0.0220
  792SOL    HW1 2375   1.936   0.638   2.302 -0.5770  0.1731 -0.4866
  792SOL    HW2 2376   2.074   0.570   2.385  1.6909 -0.4124 -1.0341
  793SOL     OW 2377   0.462   0.574   1.050  0.6217  0.1299  0.5525
  793SOL    HW1 2378   0.467   0.477   1.067 -1.3825  0.4486 -0.9247
  793SOL    HW2 2379   0.370   0.608   1.090 -0.8706 -1.2224  0.5283
  794SOL     OW 2380   0.647   0.341   1.838  0.3248 -0.2407 -0.0551
  794SOL    HW1 2381   0.711   0.332   1.756  0.6441 -0.4905 -2.5579
  794SOL    HW2 2382   0.599   0.430   1.836  1.1673 -0.0520  1.2588
  795SOL     OW 2383   0.035   1.121   0.164 -0.4506  0.4127 -0.3398
  795SOL    HW1 2384   3.039   1.127   0.224 -1.6856 -0.5840  1.7318
  795SOL    HW2 2385   0.060   1.216   0.133 -0.0923 -1.6298  0.4779
  796SOL     OW 2386   0.151   2.922   0.149  0.0820 -0.4087  0.1902
  796SOL    HW1 2387   0.093   3.007   0.160  2.5314  1.7244 -2.2805
  796SOL    HW2 2388   0.102   2.854   0.087 -0.2018 -2.3297 -1.3132
  797SOL     OW 2389   1.395   2.705   2.494 -0.0239 -0.5229  0.2495
  797SOL    HW1 2390   1.307   2.756   2.497  1.7897 -0.9566  0.0480
  797SOL    HW2 2391   1.396   2.635   2.568 -1.0563 -1.5036 -2.6968
  798SOL     OW 2392   2.984   0.561   0.775 -0.0821 -0.6076 -0.0848
  798SOL    HW1 2393   2.917   0.511   0.717 -1.9077  0.6911 -0.8903
  798SOL    HW2 2394   3.057   0.611   0.719  1.0933  1.8575  0.7216
  799SOL     OW 2395   2.514   0.492   2.414  0.4011 -0.1461  0.8542
  799SOL    HW1 2396   2.517   0.441   2.325 -1.8324  0.8904 -0.5513
  799SOL    HW2 2397   2.597   0.555   2.424  3.2124  2.3522  1.4486
  800SOL     OW 2398   3.074   2.057   0.255 -0.5139  0.1824 -0.3930
  800SOL    HW1 2399   3.052   2.062   0.355  2.0125 -0.7031  0.6225
  800SOL    HW2 2400   0.079   2.026   0.249 -0.9865  0.1425 -0.2511
  801SOL     OW 2401   1.342   1.511   1.105  0.1601  0.2082  0.4190
  801SOL    HW1 2402   1.373   1.461   1.189  2.0978 -0.5320 -2.5156
  801SOL    HW2 2403   1.360   1.461   1.019  2.7894  0.6473 -3.2215
  802SOL     OW 2404   1.160   1.721   2.139  0.5795  0.6517 -0.0993
  802SOL    HW1 2405   1.059   1.724   2.137  0.8328 -0.0923 -1.3571
  802SOL    HW2 2406   1.194   1.723   2.042  1.6024 -0.6235 -2.2323
  803SOL     OW 2407   0.250   1.948   1.013  0.4279 -0.2526  0.3149
  803SOL    HW1 2408   0.150   1.929   1.029 -1.0515  3.5904  1.8170
  803SOL    HW2 2409   0.293   1.977   1.098 -1.3346  0.5187 -1.4843
  804SOL     OW 2410   1.180   2.349   1.161  0.4182 -0.2781  0.0443
  804SOL    HW1 2411   1.195   2.427   1.098 -1.4719  0.2221  2.0192
  804SOL    HW2 2412   1.099   2.358   1.220 -0.8451 -2.3502  0.4252
  805SOL     OW 2413   1.922   1.439   0.075  0.1833 -0.1876 -0.8781
  805SOL    HW1 2414   1.951   1.401   3.074  1.3045 -0.1073 -1.5661
  805SOL    HW2 2415   1.823   1.451   0.082  0.2302  2.2222  0.2379
  806SOL     OW 2416   2.030   2.570   0.873  0.4133 -0.4780  0.1419
  806SOL    HW1 2417   2.004   2.665   0.902 -0.9345  1.2927  0.1915
  806SOL    HW2 2418   1.948   2.526   0.832 -0.1747  1.4756 -0.3885
  807SOL     OW 2419   2.877   0.629   2.690 -0.0341 -0.2158 -0.0960
  807SOL    HW1 2420   2.838   0.553   2.636  0.4750 -1.7535  0.2053
  807SOL    HW2 2421   2.890   0.716   2.635  0.3585  0.2147 -1.0587
  808SOL     OW 2422   0.395   0.948   0.279 -0.1683  0.2197  0.1228
  808SOL    HW1 2423   0.446   0.912   0.360 -2.1008  0.4815  1.3108
  808SOL    HW2 2424   0.345   0.880   0.228 -0.9085  2.3087  3.4343
  809SOL     OW 2425   2.559   1.107   1.910 -0.1840  0.2954  0.0658
  809SOL    HW1 2426   2.468   1.152   1.923 -0.6161  1.0000  4.1439
  809SOL    HW2 2427   2.567   1.081   1.815  0.4652  1.5090  0.8503
  810SOL     OW 2428   1.102   0.564   1.499 -0.1714  0.1719 -0.5616
  810SOL    HW1 2429   1.019   0.515   1.469 -1.1438  0.5435  1.7806
  810SOL    HW2 2430   1.167   0.576   1.424 -1.2907 -1.1440 -2.0672
  811SOL     OW 2431   2.103   2.864   1.674  0.2284 -0.1040 -0.3538
  811SOL    HW1 2432   2.018   2.899   1.626 -0.9845 -3.1920  1.2627
  811SOL    HW2 2433   2.082   2.785   1.732 -0.8331  1.6239 -0.5730
  812SOL     OW 2434   1.438   2.541   2.965  0.2033  0.6181  0.3718
  812SOL    HW1 2435   1.376   2.624   2.961 -1.1068  1.0147  4.8250
  812SOL    HW2 2436   1.511   2.565   3.032  0.2356  1.8091 -0.9224
  813SOL     OW 2437   1.744   0.914   1.760 -0.1721  0.6644 -0.3092
  813SOL    HW1 2438   1.679   0.978   1.808 -1.3042  0.8688 -2.4111
  813SOL    HW2 2439   1.708   0.858   1.688  1.6053  0.8865  3.3189
  814SOL     OW 2440   0.822   0.331   1.626 -0.2199 -0.3874 -0.0846
  814SOL    HW1 2441   0.763   0.283   1.557 -0.1984  0.6139 -1.5703
  814SOL    HW2 2442   0.842   0.426   1.593 -2.9812 -1.3968 -0.0908
  815SOL     OW 2443   0.786   0.939   0.387 -0.0508 -0.6346  0.4450
  815SOL    HW1 2444   0.769   0.884   0.298 -0.5312  1.1862 -3.5828
  815SOL    HW2 2445   0.708   0.938   0.450 -1.0491  0.3350  2.1152
  816SOL     OW 2446   2.230   1.591   2.710 -0.1456 -0.2340  0.1289
  816SOL    HW1 2447   2.232   1.566   2.609 -0.2410  0.6012 -2.3047
  816SOL    HW2 2448   2.331   1.592   2.731 -1.2046  3.1933  0.8962
  817SOL     OW 2449   0.781   2.465   0.366 -0.0249  0.1173  0.5791
  817SOL    HW1 2450   0.871   2.484   0.322  0.8733 -0.6663  1.9470
  817SOL    HW2 2451   0.781   2.362   0.389 -0.5490  1.0024  0.7149
  818SOL     OW 2452   1.855   0.263   0.056  0.1880 -0.0304 -0.6176
  818SOL    HW1 2453   1.931   0.237   0.117 -3.0370  0.8737  0.4429
  818SOL    HW2 2454   1.825   0.190   3.085  0.3306 -0.4634 -0.4123
  819SOL     OW 2455   1.603   0.297   0.180  0.2660  0.0213 -0.3922
  819SOL    HW1 2456   1.698   0.314   0.138 -3.7004  1.1513 -0.3888
  819SOL    HW2 2457   1.558   0.209   0.152  1.0620 -0.5215 -0.5443
  820SOL     OW 2458   1.867   0.462   0.271  1.0492  0.6564 -0.1840
  820SOL    HW1 2459   1.936   0.397   0.306 -2.0758  1.7380  1.6807
  820SOL    HW2 2460   1.897   0.500   0.178  2.8597 -0.3401 -0.1359
  821SOL     OW 2461   2.509   0.417   0.015  0.1332 -0.2599  0.1590
  821SOL    HW1 2462   2.520   0.471   0.103  2.7468 -0.0607 -1.2174
  821SOL    HW2 2463   2.446   0.464   3.037  0.5893 -4.1859  0.4210
  822SOL     OW 2464   0.563   2.622   1.845 -0.3022  0.3343  0.1649
  822SOL    HW1 2465   0.602   2.708   1.878 -0.0981 -1.0604  2.7905
  822SOL    HW2 2466   0.629   2.546   1.856 -0.6957 -1.0074  2.4431
  823SOL     OW 2467   3.056   1.678   1.365  0.5630 -0.0239  0.0630
  823SOL    HW1 2468   3.073   1.772   1.327 -1.0008 -0.7646  0.2119
  823SOL    HW2 2469   2.957   1.651   1.354  1.8343 -0.7254  4.0229
  824SOL     OW 2470   1.688   3.037   2.311  0.3069  0.3769  0.1232
  824SOL    HW1 2471   1.628   2.957   2.323  2.0777  1.4392 -1.0351
  824SOL    HW2 2472   1.779   3.006   2.274  0.1176 -1.7236  0.8700
  825SOL     OW 2473   1.533   0.945   0.499  0.0248 -0.2823  0.0392
  825SOL    HW1 2474   1.564   0.900   0.587 -2.3492  0.2961  0.2346
  825SOL    HW2 2475   1.494   1.032   0.532  0.6606  2.6737 -0.7703
  826SOL     OW 2476   1.895   0.748   0.110 -0.1244  0.3983  0.0669
  826SOL    HW1 2477   1.982   0.800   0.105  1.1655 -2.4873 -0.1707
  826SOL    HW2 2478   1.811   0.805   0.102  0.7746  0.5589  0.4136
  827SOL     OW 2479   0.575   1.251   1.514  0.0271  0.0828  0.4778
  827SOL    HW1 2480   0.486   1.263   1.568 -0.9075  0.4321  0.7389
  827SOL    HW2 2481   0.574   1.318   1.440  0.0857  0.5461  2.5846
  828SOL     OW 2482   2.198   1.631   1.931 -0.6980 -0.0182  0.2260
  828SOL    HW1 2483   2.181   1.720   1.880  0.1315  1.1841  2.4463
  828SOL    HW2 2484   2.218   1.551   1.867 -0.3620 -0.6906 -0.4329
  829SOL     OW 2485   0.238   1.975   0.194 -0.0131 -0.2607  0.0467
  829SOL    HW1 2486   0.329   1.973   0.249  2.7346  1.8071  0.4928
  829SOL    HW2 2487   0.255   1.964   0.093  1.6120  1.2044  0.1968
  830SOL     OW 2488   1.899   0.873   0.417  0.2958 -0.5823 -0.3426
  830SOL    HW1 2489   1.828   0.846   0.351  0.0333 -0.9313 -0.3685
  830SOL    HW2 2490   1.901   0.975   0.435  0.2857  3.4837 -1.6829
  831SOL     OW 2491   2.823   1.925   0.013  0.0715  0.0524  0.2962
  831SOL    HW1 2492   2.720   1.906   0.016  0.3846  0.4551 -0.7549
  831SOL    HW2 2493   2.856   1.903   0.105  1.8887  1.2013 -1.0688
  832SOL     OW 2494   0.849   0.118   0.261 -0.5147  0.2434 -0.4535
  832SOL    HW1 2495   0.858   0.016   0.246 -1.3387 -4.4257  2.4983
  832SOL    HW2 2496   0.934   0.170   0.242  1.0659 -0.5052  2.7047
  833SOL     OW 2497   1.074   0.645   2.275  0.0332 -0.4155  0.5624
  833SOL    HW1 2498   1.155   0.693   2.237  0.0643  0.0225 -0.3872
  833SOL    HW2 2499   1.021   0.597   2.200  1.2387 -0.1749 -0.9112
  834SOL     OW 2500   0.168   0.358   0.998  0.1375  0.4085  0.0238
  834SOL    HW1 2501   0.169   0.337   0.897  1.3488 -0.6949 -1.5960
  834SOL    HW2 2502   0.130   0.450   1.004 -0.5472 -0.7436 -1.4656
  835SOL     OW 2503   2.897   2.961   0.947  0.0378 -0.4537  0.0848
  835SOL    HW1 2504   2.828   2.897   0.975  1.4600  0.8139 -0.5698
  835SOL    HW2 2505   2.943   2.997   1.029 -2.4654  1.0121 -2.8183
  836SOL     OW 2506   0.501   2.045   0.299 -0.0281  0.1677  0.0921
  836SOL    HW1 2507   0.483   2.039   0.398  0.0901 -1.0785  0.6273
  836SOL    HW2 2508   0.607   2.040   0.288  1.0412 -1.1391  1.6661
  837SOL     OW 2509   1.519   1.668   2.658 -0.5118  0.3167 -0.0353
  837SOL    HW1 2510   1.433   1.723   2.640 -1.1759  1.3083 -2.6855
  837SOL    HW2 2511   1.602   1.702   2.609  2.2149 -2.6760 -1.6546
  838SOL     OW 2512   0.157   0.898   2.061 -0.0784  0.6901 -0.0304
  838SOL    HW1 2513   0.099   0.980   2.086  1.1255 -0.4167  2.0770
  838SOL    HW2 2514   0.178   0.845   2.147  0.3972 -0.6765 -2.4324
  839SOL     OW 2515   0.384   0.639   0.794 -0.5463  0.1059  0.0174
  839SOL    HW1 2516   0.315   0.565   0.791  0.5079  0.2912 -0.1243
  839SOL    HW2 2517   0.440   0.624   0.879 -1.2986  0.9829 -0.9791
  840SOL     OW 2518   2.509   0.182   2.307 -0.3297  0.5209 -0.6225
  840SOL    HW1 2519   2.529   0.158   2.406 -1.5013  0.1196  0.8477
  840SOL    HW2 2520   2.582   0.237   2.260  0.9824  1.3735  0.0896
  841SOL     OW 2521   0.870   2.484   2.866 -0.0904  0.1583 -0.1969
  841SOL    HW1 2522   0.905   2.495   2.773  1.3638  0.9497 -0.5651
  841SOL    HW2 2523   0.858   2.386   2.895 -1.5648 -0.4439  2.6662
  842SOL     OW 2524   0.374   2.988   0.919  0.5577 -0.5811  0.2995
  842SOL    HW1 2525   0.418   2.972   0.828 -0.4853  2.0402  1.4046
  842SOL    HW2 2526   0.277   3.021   0.903 -2.1347 -0.9845 -0.5766
  843SOL     OW 2527   3.077   0.706   0.141  0.2509  0.0283  0.4276
  843SOL    HW1 2528   3.019   0.631   0.097  0.4794 -1.6745 -0.4692
  843SOL    HW2 2529   3.026   0.785   0.177  0.6099 -1.5754 -1.0351
  844SOL     OW 2530   1.060   2.587   2.691 -0.0473  0.2946  0.2646
  844SOL    HW1 2531   1.119   2.508   2.667  1.5890  1.8947 -1.8033
  844SOL    HW2 2532   1.095   2.630   2.775 -1.6480 -0.3917  0.1784
  845SOL     OW 2533   2.536   0.123   2.593 -0.3686 -0.2419 -0.3470
  845SOL    HW1 2534   2.612   0.067   2.630  1.6089  0.2390  0.5771
  845SOL    HW2 2535   2.444   0.072   2.596 -1.2279  0.0051  2.4897
  846SOL     OW 2536   1.961   1.631   2.784  0.4256 -0.3174  0.8657
  846SOL    HW1 2537   2.061   1.615   2.780 -0.3131 -2.4199 -0.1292
  846SOL    HW2 2538   1.917   1.551   2.824  1.5611  0.2421 -1.5839
  847SOL     OW 2539   2.465   0.170   0.136 -1.1070 -0.3053 -0.3935
  847SOL    HW1 2540   2.410   0.141   0.056  4.7902  1.2121  2.2027
  847SOL    HW2 2541   2.524   0.251   0.116  0.2392 -0.8822  1.5399
  848SOL     OW 2542   0.614   0.438   0.477  0.4170  0.5011 -0.5133
  848SOL    HW1 2543   0.585   0.363   0.534 -0.7763  0.2904 -1.2400
  848SOL    HW2 2544   0.708   0.422   0.448  0.5170 -0.4524 -0.6825
  849SOL     OW 2545   1.637   2.994   1.750  0.0328 -0.8181  0.4569
  849SOL    HW1 2546   1.697   2.961   1.822  0.1038  0.5256 -0.2584
  849SOL    HW2 2547   1.637   0.007   1.752 -0.7382  0.7326 -0.7092
  850SOL     OW 2548   0.752   1.216   0.629 -0.4201  0.4252 -0.1597
  850SOL    HW1 2549   0.823   1.165   0.579  2.4783  1.3432 -2.6193
  850SOL    HW2 2550   0.699   1.167   0.700 -0.8611  0.4438 -3.8001
  851SOL     OW 2551   0.136   0.956   0.002  0.1831 -0.3735 -0.0302
  851SOL    HW1 2552   0.153   0.867   0.040 -0.4184  2.4606 -1.0133
  851SOL    HW2 2553   0.108   1.015   0.079  1.6508 -2.0858  0.1079
  852SOL     OW 2554   1.311   0.121   1.782 -0.5742  0.4785 -0.3439
  852SOL    HW1 2555   1.294   0.034   1.831  0.0929  1.2763 -0.1945
  852SOL    HW2 2556   1.350   0.103   1.686 -0.5912 -0.8020  0.2591
  853SOL     OW 2557   2.369   1.640   0.287  0.1698  0.1635  0.3668
  853SOL    HW1 2558   2.386   1.639   0.186 -1.2991 -2.6920 -1.1630
  853SOL    HW2 2559   2.457   1.663   0.329 -1.8151  0.6219 -0.5345
  854SOL     OW 2560   1.113   1.000   2.004  0.0987  0.2600  0.1660
  854SOL    HW1 2561   1.039   1.061   2.026  2.0329 -2.4120  0.0293
  854SOL    HW2 2562   1.190   1.055   1.967  0.2169 -1.0442  0.9929
  855SOL     OW 2563   0.322   2.741   2.883  0.2793 -0.6194  0.2438
  855SOL    HW1 2564   0.234   2.750   2.924  2.9160 -0.0865  0.3155
  855SOL    HW2 2565   0.336   2.646   2.873  2.6997  2.3185 -1.5701
  856SOL     OW 2566   0.779   0.805   2.077  0.6639 -0.2282  0.5837
  856SOL    HW1 2567   0.852   0.830   2.010 -0.6981 -2.3804  0.4906
  856SOL    HW2 2568   0.820   0.798   2.170 -0.4795  0.0237 -0.7917
  857SOL     OW 2569   1.126   0.740   2.526 -0.7515 -0.0090 -0.0328
  857SOL    HW1 2570   1.199   0.815   2.533 -0.5422  1.6324 -0.6417
  857SOL    HW2 2571   1.145   0.692   2.435  1.3395  0.2839 -2.2606
  858SOL     OW 2572   3.054   1.304   2.009  0.0970 -0.3843  0.0412
  858SOL    HW1 2573   0.012   1.394   2.014  0.8926  2.6910 -0.6328
  858SOL    HW2 2574   0.022   1.243   1.948  0.6875 -1.0004 -5.3646
  859SOL     OW 2575   2.586   0.254   0.944 -0.0196  0.5389 -0.4418
  859SOL    HW1 2576   2.552   0.205   1.030  1.0227 -0.5086  0.3270
  859SOL    HW2 2577   2.608   0.353   0.963  0.8555 -1.1508 -0.3485
  860SOL     OW 2578   1.846   3.084   0.265  0.4035 -0.2284 -0.2977
  860SOL    HW1 2579   1.763   0.048   0.282  0.0133 -0.3665 -0.7529
  860SOL    HW2 2580   1.855   3.009   0.335 -0.6675 -1.3340  1.3639
  861SOL     OW 2581   0.919   0.579   1.103 -0.0059 -0.7245  0.4192
  861SOL    HW1 2582   0.917   0.528   1.188 -1.3382  0.7640 -1.8782
  861SOL    HW2 2583   0.846   0.545   1.045 -0.2622  0.6842  2.3893
  862SOL     OW 2584   1.390   0.179   2.378  0.5256  0.0248 -0.6115
  862SOL    HW1 2585   1.421   0.165   2.474 -0.4791  4.2348  0.1604
  862SOL    HW2 2586   1.446   0.133   2.309  0.4385  1.2216  2.5599
  863SOL     OW 2587   2.447   2.317   0.652 -0.3907  0.8155  0.3021
  863SOL    HW1 2588   2.520   2.371   0.695  1.5117 -2.1075 -1.2184
  863SOL    HW2 2589   2.367   2.316   0.716  0.6359  2.9654 -1.9702
  864SOL     OW 2590   2.792   0.247   1.977 -0.2481 -0.3257 -0.6178
  864SOL    HW1 2591   2.705   0.261   1.927 -2.0861  0.7537  3.0039
  864SOL    HW2 2592   2.870   0.220   1.918 -3.7564 -0.0350  0.7836
  865SOL     OW 2593   1.509   0.989   1.919  0.3789  0.4003 -0.4581
  865SOL    HW1 2594   1.501   0.900   1.953  0.7504  2.9271 -1.4142
  865SOL    HW2 2595   1.427   1.049   1.928 -2.1743 -2.4257 -1.2571
  866SOL     OW 2596   1.664   2.401   1.093  0.0686  0.1875  0.0972
  866SOL    HW1 2597   1.611   2.323   1.040 -4.0199 -1.8436 -1.1497
  866SOL    HW2 2598   1.608   2.484   1.097  2.6239 -2.7680 -0.9962
  867SOL     OW 2599   2.239   2.671   0.520  0.3113 -0.1673  0.6242
  867SOL    HW1 2600   2.172   2.750   0.520 -1.6453 -0.0651 -0.0753
  867SOL    HW2 2601   2.333   2.701   0.495  0.2535  0.9644 -4.1903
  868SOL     OW 2602   0.432   2.117   1.848 -0.1617  0.3475  0.4372
  868SOL    HW1 2603   0.389   2.053   1.786  1.9813  2.4072  0.8878
  868SOL    HW2 2604   0.383   2.203   1.860 -0.5156 -0.3993  1.1944
  869SOL     OW 2605   2.170   2.373   2.479 -0.1947  0.2566  0.3274
  869SOL    HW1 2606   2.194   2.471   2.488 -1.8604 -0.0383 -0.4286
  869SOL    HW2 2607   2.196   2.332   2.387  0.3051 -0.9242 -1.6301
  870SOL     OW 2608   1.680   1.476   0.956 -0.0136 -0.2447  0.1498
  870SOL    HW1 2609   1.594   1.461   0.904 -2.4820 -0.8692 -0.4256
  870SOL    HW2 2610   1.747   1.404   0.937 -2.8316 -0.0199 -1.8733
  871SOL     OW 2611   0.403   1.684   1.120 -0.3995 -0.3458 -0.5911
  871SOL    HW1 2612   0.333   1.740   1.077  1.3185  0.3579 -3.2225
  871SOL    HW2 2613   0.386   1.672   1.219  2.2780 -1.3247 -0.1105
  872SOL     OW 2614   0.555   1.528   2.550 -0.2900  0.1802 -0.0902
  872SOL    HW1 2615   0.518   1.434   2.537  0.0199 -1.6049 -2.1045
  872SOL    HW2 2616   0.623   1.538   2.623  0.8189  0.7874 -2.3704
  873SOL     OW 2617   0.903   1.768   2.084  0.3554  0.6852  0.7306
  873SOL    HW1 2618   0.879   1.853   2.132 -1.8295 -1.8702 -0.1522
  873SOL    HW2 2619   0.874   1.688   2.142 -0.9661 -0.5580  0.9002
  874SOL     OW 2620   0.962   0.798   1.890 -0.6580  0.5238 -0.3392
  874SOL    HW1 2621   1.009   0.722   1.836  1.4819 -1.2729 -1.2015
  874SOL    HW2 2622   1.030   0.868   1.906  0.4754 -0.5819  0.6664
  875SOL     OW 2623   2.702   2.814   0.458 -0.2312  0.4592 -0.1178
  875SOL    HW1 2624   2.643   2.733   0.446  0.3613 -0.6217 -3.0518
  875SOL    HW2 2625   2.659   2.885   0.516  1.8007  2.6415 -0.0060
  876SOL     OW 2626   0.651   1.352   0.421  0.1928 -0.2357 -0.2384
  876SOL    HW1 2627   0.686   1.309   0.509  2.8533  0.9716  1.0446
  876SOL    HW2 2628   0.551   1.372   0.423  0.0368  1.2312 -0.2540
  877SOL     OW 2629   2.746   0.075   0.803  0.2964  0.1606  0.3893
  877SOL    HW1 2630   2.675   0.132   0.848 -2.0391 -0.8981 -2.4194
  877SOL    HW2 2631   2.817   0.038   0.867  2.0896  0.5939  0.3985
  878SOL     OW 2632   2.150   1.632   0.715  0.1949 -0.1904 -0.0157
  878SOL    HW1 2633   2.184   1.560   0.653 -1.1396  0.2380  0.3824
  878SOL    HW2 2634   2.121   1.583   0.802 -0.3652  0.0749  1.3113
  879SOL     OW 2635   2.442   1.651   1.242  0.2927 -0.3600  0.2827
  879SOL    HW1 2636   2.430   1.582   1.314  0.7105 -0.4509 -1.2756
  879SOL    HW2 2637   2.478   1.612   1.155  1.6870  1.6551  0.4504
  880SOL     OW 2638   0.550   2.221   0.589 -0.1520 -0.8213  0.1540
  880SOL    HW1 2639   0.473   2.255   0.533  0.1352 -0.8962  1.6742
  880SOL    HW2 2640   0.567   2.284   0.665 -0.4697  1.5482  0.9390
  881SOL     OW 2641   0.964   0.941   0.887  0.3875  0.2992  0.1472
  881SOL    HW1 2642   0.992   0.934   0.791  1.0997 -0.3509  0.5979
  881SOL    HW2 2643   0.981   1.034   0.916 -1.0199 -2.4925 -1.9411
  882SOL     OW 2644   2.239   0.991   0.506  0.7276 -0.0703  0.4817
  882SOL    HW1 2645   2.193   0.998   0.592 -0.1860 -0.9662 -1.3234
  882SOL    HW2 2646   2.213   0.904   0.462  0.7862 -0.6479 -0.9313
  883SOL     OW 2647   1.620   0.183   1.729 -0.6901 -0.1023 -0.2988
  883SOL    HW1 2648   1.593   0.266   1.784  0.8060  2.8572 -0.7828
  883SOL    HW2 2649   1.543   0.153   1.667  0.3840  1.8382 -2.8451
  884SOL     OW 2650   2.776   3.083   1.331  0.0509  0.0441  0.2654
  884SOL    HW1 2651   2.797   0.090   1.313  0.9115  1.2939  1.1958
  884SOL    HW2 2652   2.758   3.071   1.431 -0.3702 -0.9740  2.8801
  885SOL     OW 2653   1.457   0.879   2.652  0.2760 -0.7310  0.8558
  885SOL    HW1 2654   1.415   0.907   2.564 -1.5185  0.9158 -0.0359
  885SOL    HW2 2655   1.428   0.948   2.718  0.5651 -1.2846 -0.4286
  886SOL     OW 2656   1.683   0.617   2.126  0.1779 -0.0605  0.2321
  886SOL    HW1 2657   1.746   0.573   2.058 -0.4268  1.9484  0.1911
  886SOL    HW2 2658   1.675   0.559   2.206  1.5829  2.5729  1.0340
  887SOL     OW 2659   1.422   0.307   1.365  0.1049  0.5612  0.2307
  887SOL    HW1 2660   1.342   0.314   1.300 -1.7495 -2.8932 -0.4694
  887SOL    HW2 2661   1.503   0.308   1.302 -1.6334 -1.3718 -3.2381
  888SOL     OW 2662   2.505   1.797   2.016 -0.3163  0.4457  0.0438
  888SOL    HW1 2663   2.535   1.857   1.939 -2.0521 -1.3537 -1.8255
  888SOL    HW2 2664   2.544   1.707   2.010 -1.7960  1.2740  2.8531
  889SOL     OW 2665   1.629   2.301   0.614 -0.7932 -0.3736  0.4862
  889SOL    HW1 2666   1.667   2.212   0.646 -1.9792  0.7738 -0.1957
  889SOL    HW2 2667   1.665   2.384   0.655 -0.7048  0.8748 -3.0532
  890SOL     OW 2668   1.055   1.752   0.584 -0.0479  0.3222 -0.3132
  890SOL    HW1 2669   1.110   1.715   0.663  2.4397  0.2839  2.2164
  890SOL    HW2 2670   1.005   1.835   0.617 -1.0739  1.6152 -0.0411
  891SOL     OW 2671   2.754   0.902   2.805  0.2316  0.1336  0.0091
  891SOL    HW1 2672   2.833   0.865   2.860  1.2955  1.8085  3.4438
  891SOL    HW2 2673   2.706   0.970   2.867 -2.2223  1.3031 -1.1652
  892SOL     OW 2674   1.528   0.541   2.496 -0.0170  0.4263 -0.2427
  892SOL    HW1 2675   1.578   0.477   2.434 -1.0098 -1.7895 -0.1639
  892SOL    HW2 2676   1.431   0.553   2.462  1.0893 -0.3623 -1.7055
  893SOL     OW 2677   1.526   3.022   1.369  0.1176 -0.1466 -0.2012
  893SOL    HW1 2678   1.624   3.035   1.384 -0.8982 -1.1547  2.5114
  893SOL    HW2 2679   1.499   2.939   1.419  0.8300  0.0310  1.2209
  894SOL     OW 2680   2.605   3.007   0.635  0.1992 -0.2441  0.7569
  894SOL    HW1 2681   2.565   3.057   0.559 -0.0825 -2.6264  1.9752
  894SOL    HW2 2682   2.671   3.071   0.679  0.8130  3.9970 -0.3116
  895SOL     OW 2683   1.778   2.571   2.896 -0.0291 -0.0090  0.1591
  895SOL    HW1 2684   1.754   2.572   2.795  0.0019  0.3285  2.5479
  895SOL    HW2 2685   1.876   2.584   2.918  0.0120 -0.1878  1.3460
  896SOL     OW 2686   2.078   0.163   2.208 -0.3510 -0.5887 -0.0271
  896SOL    HW1 2687   2.016   0.082   2.219  0.2105  0.2807 -3.0389
  896SOL    HW2 2688   2.025   0.245   2.168 -0.5531  3.3753 -0.5390
  897SOL     OW 2689   0.262   1.903   1.416 -0.1837 -0.0780  0.1604
  897SOL    HW1 2690   0.262   1.802   1.407  0.2428  3.2126 -0.9603
  897SOL    HW2 2691   0.332   1.937   1.349  1.0855 -1.8066 -3.9381
  898SOL     OW 2692   2.598   1.835   1.760  0.4317  0.1766 -0.2693
  898SOL    HW1 2693   2.502   1.825   1.727  1.3714 -0.3989  0.3690
  898SOL    HW2 2694   2.650   1.768   1.705 -0.3360 -1.2592 -0.2486
  899SOL     OW 2695   1.578   1.964   1.195  0.0482 -0.0915  0.2125
  899SOL    HW1 2696   1.527   2.055   1.175 -0.9043  0.9472 -0.9740
  899SOL    HW2 2697   1.545   1.888   1.133 -0.3319 -2.0535 -1.2034
  900SOL     OW 2698   0.950   0.111   2.828  0.0588  0.2567  0.1593
  900SOL    HW1 2699   0.945   0.161   2.918 -4.4120  1.8723 -1.3632
  900SOL    HW2 2700   0.978   0.179   2.761 -1.7698 -0.0363  0.6717
  901SOL     OW 2701   1.314   1.794   2.567 -0.2533 -0.5391  0.2658
  901SOL    HW1 2702   1.341   1.752   2.472  1.6140 -2.5175 -3.2898
  901SOL    HW2 2703   1.313   1.895   2.563 -1.6078  1.1214 -1.2336
  902SOL     OW 2704   2.745   3.072   3.057 -0.3727  0.0332  0.4330
  902SOL    HW1 2705   2.721   0.008   0.064 -0.7122  1.3320  0.9147
  902SOL    HW2 2706   2.848   3.083   3.035  2.2760 -0.1018 -0.6802
  903SOL     OW 2707   2.190   0.943   2.057  0.5257 -0.1396 -0.3872
  903SOL    HW1 2708   2.093   0.930   2.024 -1.6930 -0.8054  0.0068
  903SOL    HW2 2709   2.228   0.851   2.082  0.2494  0.0554 -0.3625
  904SOL     OW 2710   1.713   0.387   2.326  0.6988  0.0805 -0.2636
  904SOL    HW1 2711   1.776   0.341   2.386 -0.0737  1.4740  1.4150
  904SOL    HW2 2712   1.668   0.317   2.266  1.5692  0.4387  0.4556
  905SOL     OW 2713   2.118   2.565   1.599  1.3225  0.0162  0.1309
  905SOL    HW1 2714   2.148   2.471   1.624 -1.6471 -2.3914  0.0134
  905SOL    HW2 2715   2.080   2.614   1.681  3.7330 -1.0287 -1.3416
  906SOL     OW 2716   1.522   2.092   0.235  0.0137 -0.5840  0.1921
  906SOL    HW1 2717   1.463   2.016   0.262 -2.1449  1.9506 -0.3741
  906SOL    HW2 2718   1.573   2.063   0.154  0.6794  0.3397 -0.1922
  907SOL     OW 2719   0.788   2.629   0.586 -0.1009 -0.3288  0.1574
  907SOL    HW1 2720   0.756   2.723   0.553  0.3683 -0.4521 -1.7972
  907SOL    HW2 2721   0.773   2.558   0.514 -0.6820 -0.3661  0.2354
  908SOL     OW 2722   1.313   2.522   2.056 -0.2151 -0.2695  0.2155
  908SOL    HW1 2723   1.340   2.526   2.153 -0.5767  0.7813 -0.4903
  908SOL    HW2 2724   1.271   2.435   2.025  0.9868 -1.0102 -0.9596
  909SOL     OW 2725   2.202   0.456   1.833 -0.4791 -0.1511 -0.0146
  909SOL    HW1 2726   2.277   0.523   1.858  1.8702  0.4414  0.7560
  909SOL    HW2 2727   2.159   0.416   1.916  0.4644  1.3319 -1.6646
  910SOL     OW 2728   1.260   0.840   2.965 -0.4327 -0.4069 -0.4407
  910SOL    HW1 2729   1.239   0.814   3.063  0.1451 -0.8788  0.9696
  910SOL    HW2 2730   1.277   0.761   2.904  0.1663  1.4607  0.9068
  911SOL     OW 2731   2.896   0.915   0.220 -0.4372  0.3956 -0.3115
  911SOL    HW1 2732   2.822   0.850   0.191  1.6748 -2.7739  0.7059
  911SOL    HW2 2733   2.866   1.007   0.241  0.2576 -2.1523 -1.3545
  912SOL     OW 2734   0.250   2.427   0.117  0.5565 -0.0189 -0.2402
  912SOL    HW1 2735   0.332   2.361   0.103  2.2204 -0.0789  0.5863
  912SOL    HW2 2736   0.212   2.456   0.029 -0.7845 -2.7547  0.9993
  913SOL     OW 2737   2.754   2.360   2.493  0.3624 -0.4108  0.0309
  913SOL    HW1 2738   2.831   2.307   2.452  0.4153  1.0649  0.7543
  913SOL    HW2 2739   2.778   2.397   2.585 -0.8525  2.5139  2.2932
  914SOL     OW 2740   1.441   1.977   1.606 -0.1322  0.2372 -0.1212
  914SOL    HW1 2741   1.511   1.927   1.555  0.7612 -0.0226  0.7195
  914SOL    HW2 2742   1.425   1.922   1.693  2.2049  0.0849 -1.2266
  915SOL     OW 2743   0.945   2.760   2.106  0.2407 -0.0882 -0.1642
  915SOL    HW1 2744   0.871   2.705   2.142  2.1983  3.9763 -0.8183
  915SOL    HW2 2745   0.917   2.859   2.087  0.4190  2.6487 -2.0124
  916SOL     OW 2746   0.584   1.033   1.850  0.1340 -0.2797 -0.0192
  916SOL    HW1 2747   0.485   1.005   1.840 -2.2395  1.4884 -2.2112
  916SOL    HW2 2748   0.649   0.959   1.831  2.0155  1.1254 -0.9177
  917SOL     OW 2749   2.657   0.504   0.720  0.0274 -0.2115 -0.0159
  917SOL    HW1 2750   2.601   0.420   0.722 -0.4378 -0.5021  1.0082
  917SOL    HW2 2751   2.722   0.500   0.638 -2.1117 -0.9200 -0.7568
  918SOL     OW 2752   1.830   2.763   2.466  0.3399 -0.7856 -0.1060
  918SOL    HW1 2753   1.822   2.685   2.529  2.0079  0.4850 -0.7956
  918SOL    HW2 2754   1.737   2.785   2.421 -0.2351 -0.7537  0.6118
  919SOL     OW 2755   1.593   2.563   1.919 -0.3793 -0.4131  0.3309
  919SOL    HW1 2756   1.524   2.584   1.845 -2.8227 -0.9763 -0.9135
  919SOL    HW2 2757   1.646   2.648   1.945  0.5198 -2.1691 -2.6119
  920SOL     OW 2758   0.626   0.733   3.026  0.3601  0.1460 -0.2811
  920SOL    HW1 2759   0.582   0.769   2.939  1.5630  0.1282 -0.4798
  920SOL    HW2 2760   0.617   0.636   3.020 -2.2316  1.4490  3.1125
  921SOL     OW 2761   3.006   0.601   2.918  0.0703 -0.1631  0.2434
  921SOL    HW1 2762   0.016   0.587   2.901 -0.1039 -0.1331 -2.4844
  921SOL    HW2 2763   2.958   0.588   2.831  0.8433 -0.2549 -0.2843
  922SOL     OW 2764   0.816   1.634   0.751  0.5854 -0.4286 -0.2632
  922SOL    HW1 2765   0.887   1.706   0.766 -0.1665 -2.0144  1.9243
  922SOL    HW2 2766   0.788   1.639   0.651  0.8127  1.1777 -0.7549
  923SOL     OW 2767   0.576   1.309   1.850 -0.4347  0.0811 -0.3277
  923SOL    HW1 2768   0.475   1.330   1.853 -1.4022  0.9848 -2.0345
  923SOL    HW2 2769   0.595   1.210   1.838 -0.2213  3.2286 -0.9553
  924SOL     OW 2770   1.701   0.097   3.002  0.3528 -0.2927  0.5071
  924SOL    HW1 2771   1.604   0.085   3.033 -0.7194 -0.1451 -1.8891
  924SOL    HW2 2772   1.744   0.002   2.988  0.3161 -2.2146  0.9368
  925SOL     OW 2773   2.695   1.366   1.284 -0.1186  0.1766 -1.0628
  925SOL    HW1 2774   2.694   1.359   1.183 -0.2644  1.0475 -0.3562
  925SOL    HW2 2775   2.718   1.275   1.323  0.7524 -0.2130 -2.4787
  926SOL     OW 2776   2.068   0.414   1.364 -0.6499  0.2963 -0.0985
  926SOL    HW1 2777   2.068   0.405   1.467  2.4448  3.2128  2.0966
  926SOL    HW2 2778   2.137   0.487   1.333  0.1650  2.8889 -0.1173
  927SOL     OW 2779   1.778   2.869   1.159 -0.5794  0.5086  0.3954
  927SOL    HW1 2780   1.720   2.800   1.213 -2.1448 -0.7684  3.8693
  927SOL    HW2 2781   1.860   2.910   1.212  0.4132  1.7001 -0.6198
  928SOL     OW 2782   0.008   1.077   2.179 -0.1016  0.2078  0.5379
  928SOL    HW1 2783   3.064   1.159   2.126 -1.2329 -1.6027  0.1162
  928SOL    HW2 2784   3.024   1.011   2.197  0.2391  0.3835 -0.8544
  929SOL     OW 2785   2.770   0.923   0.980  0.1334 -0.6088 -1.0656
  929SOL    HW1 2786   2.868   0.945   0.968  1.6479  2.1083  0.3068
  929SOL    HW2 2787   2.753   0.913   1.081  2.1631  0.5174  3.3661
  930SOL     OW 2788   2.833   2.645   1.962  0.4457 -0.4065 -0.2380
  930SOL    HW1 2789   2.867   2.740   1.976 -0.4078  0.1186  0.6831
  930SOL    HW2 2790   2.788   2.636   1.867 -0.9740 -0.4782 -0.6281
  931SOL     OW 2791   1.908   0.787   1.154 -0.0267  0.2113 -0.5319
  931SOL    HW1 2792   1.820   0.732   1.172  0.1588 -0.4231 -0.7260
  931SOL    HW2 2793   1.956   0.817   1.244 -1.4083  0.8915  1.6199
  932SOL     OW 2794   0.140   1.170   1.817 -0.0586  0.0435  0.1334
  932SOL    HW1 2795   0.178   1.073   1.815  0.0520  0.7679  0.1600
  932SOL    HW2 2796   0.217   1.237   1.808  1.3489 -0.7560 -1.1858
  933SOL     OW 2797   2.924   2.230   1.578  0.1041  0.2043  0.2907
  933SOL    HW1 2798   2.858   2.301   1.595  2.5195 -0.9203 -0.4338
  933SOL    HW2 2799   2.881   2.142   1.565  0.1966  1.0225 -1.6469
  934SOL     OW 2800   0.655   1.887   1.342 -0.0536  0.3606 -0.1713
  934SOL    HW1 2801   0.681   1.791   1.360 -0.7215  1.2392 -1.1472
  934SOL    HW2 2802   0.714   1.942   1.406 -1.8663 -1.4809 -0.8793
  935SOL     OW 2803   2.840   1.432   1.765  1.0242 -0.1529  0.2081
  935SOL    HW1 2804   2.869   1.332   1.768  1.2828 -2.7477 -0.5299
  935SOL    HW2 2805   2.735   1.450   1.768  1.5543  1.5596  0.4324
  936SOL     OW 2806   2.577   1.445   1.765 -0.9212  0.1266  0.4619
  936SOL    HW1 2807   2.597   1.472   1.861  0.7524  1.8238  1.5157
  936SOL    HW2 2808   2.494   1.491   1.738  0.1553  0.2955  2.8079
  937SOL     OW 2809   1.970   0.894   1.413 -0.5057  0.3036  0.0829
  937SOL    HW1 2810   2.068   0.883   1.445  0.1467  1.0517 -0.2544
  937SOL    HW2 2811   1.959   0.989   1.396  0.0563 -1.6520  4.0084
  938SOL     OW 2812   0.442   2.278   2.729  0.0885 -0.0468 -0.2234
  938SOL    HW1 2813   0.444   2.258   2.629 -1.5898 -1.1768 -0.8179
  938SOL    HW2 2814   0.523   2.234   2.773  2.9361 -0.5759 -1.6780
  939SOL     OW 2815   2.484   1.615   2.760 -0.0499  0.1124  0.2852
  939SOL    HW1 2816   2.546   1.549   2.806  0.7795 -0.4411 -1.0981
  939SOL    HW2 2817   2.541   1.682   2.704 -1.0184 -2.3263  2.7404
  940SOL     OW 2818   1.665   2.059   0.476 -0.1371  0.2447  0.1787
  940SOL    HW1 2819   1.608   2.103   0.400  0.0611  1.1008  0.5783
  940SOL    HW2 2820   1.619   1.975   0.509  0.9971  2.0566 -0.9752
  941SOL     OW 2821   2.018   2.593   3.011 -0.4501 -0.0344  0.2714
  941SOL    HW1 2822   2.090   2.538   3.059 -0.1337 -1.9831  1.2999
  941SOL    HW2 2823   2.061   2.672   2.961 -1.7651  2.9592  1.1584
  942SOL     OW 2824   1.205   2.541   0.481 -0.7823  0.5450  0.1439
  942SOL    HW1 2825   1.286   2.566   0.539 -1.0504  0.5225 -0.0743
  942SOL    HW2 2826   1.169   2.447   0.503  2.6588  0.9340 -0.5185
  943SOL     OW 2827   2.248   1.206   1.707 -0.1602  0.2449  0.2350
  943SOL    HW1 2828   2.274   1.208   1.807 -1.1408  1.9346 -0.0757
  943SOL    HW2 2829   2.178   1.279   1.692 -0.2234  0.1776 -0.0392
  944SOL     OW 2830   1.336   1.063   2.797 -0.5743  0.0339  0.1789
  944SOL    HW1 2831   1.275   0.989   2.837  0.7140  0.8010 -1.9434
  944SOL    HW2 2832   1.293   1.152   2.798  1.4863  1.2469 -1.4483
  945SOL     OW 2833   2.709   2.130   1.255 -0.2288  0.3413 -0.0931
  945SOL    HW1 2834   2.735   2.107   1.353  0.0274  0.2899 -0.0128
  945SOL    HW2 2835   2.626   2.192   1.257 -1.5802 -1.1153  1.7923
  946SOL     OW 2836   0.464   0.818   2.789  0.1610  0.4864  0.6033
  946SOL    HW1 2837   0.386   0.824   2.854 -0.3537 -1.1472  1.0326
  946SOL    HW2 2838   0.490   0.913   2.758 -0.5318 -0.6700  0.0790
  947SOL     OW 2839   2.100   0.059   1.886 -0.0928 -0.3174 -0.5900
  947SOL    HW1 2840   2.183   0.086   1.939  0.8942  1.9625  2.0484
  947SOL    HW2 2841   2.122   0.074   1.789 -0.5834  1.3972  0.7438
  948SOL     OW 2842   3.073   1.812   1.003  0.1553 -0.1838  0.1295
  948SOL    HW1 2843   3.008   1.890   1.016 -0.1428 -2.2765 -0.0834
  948SOL    HW2 2844   3.026   1.729   1.035 -0.5275 -0.3759  1.1773
  949SOL     OW 2845   1.297   1.156   1.900  0.1572  0.1875  0.2102
  949SOL    HW1 2846   1.291   1.190   1.807  1.1138 -0.3039  0.3568
  949SOL    HW2 2847   1.311   1.235   1.968  0.6157  2.2082  0.8598
  950SOL     OW 2848   0.223   0.882   0.844  0.4060 -0.3417 -0.2486
  950SOL    HW1 2849   0.223   0.914   0.742  0.5321  1.6702 -1.1597
  950SOL    HW2 2850   0.262   0.786   0.848  1.9379 -1.1538  0.7999
  951SOL     OW 2851   0.244   1.846   2.064  0.3029  0.2810 -0.0869
  951SOL    HW1 2852   0.218   1.756   2.107 -1.1845  0.3529  1.1345
  951SOL    HW2 2853   0.326   1.837   2.000  1.3903 -0.1914  1.6338
  952SOL     OW 2854   1.654   1.442   0.332 -0.1358  0.3079 -0.0130
  952SOL    HW1 2855   1.562   1.454   0.367 -0.1268  1.5890 -0.3556
  952SOL    HW2 2856   1.661   1.466   0.231  1.2193  2.7013 -0.8600
  953SOL     OW 2857   1.173   0.777   0.135 -0.0217  0.1124 -0.1353
  953SOL    HW1 2858   1.155   0.681   0.160 -1.0390 -0.7155 -1.3939
  953SOL    HW2 2859   1.086   0.819   0.098 -1.7747 -2.0486 -0.9078
  954SOL     OW 2860   1.970   1.161   0.462 -0.3244  0.0615 -0.0060
  954SOL    HW1 2861   2.059   1.161   0.415  2.9792  0.9061 -1.3862
  954SOL    HW2 2862   1.900   1.193   0.400 -0.7254 -1.7809  3.1701
  955SOL     OW 2863   2.464   2.785   2.857  0.3413  0.0388 -0.1337
  955SOL    HW1 2864   2.393   2.858   2.834 -0.5145 -0.6549 -1.5848
  955SOL    HW2 2865   2.562   2.819   2.861 -0.2314 -0.0057 -1.6318
  956SOL     OW 2866   1.038   0.845   1.453  0.0247  0.3543  0.4023
  956SOL    HW1 2867   1.074   0.845   1.356  0.0968 -0.3622  1.6737
  956SOL    HW2 2868   1.048   0.755   1.497  0.6614  0.6936 -2.3892
  957SOL     OW 2869   1.639   1.046   1.457  0.1037 -0.4922  0.0863
  957SOL    HW1 2870   1.723   1.015   1.506 -2.2463 -1.8605 -1.4664
  957SOL    HW2 2871   1.602   1.129   1.504 -0.5288 -0.3882 -1.6075
  958SOL     OW 2872   0.274   1.785   0.490 -0.4247 -0.1912 -0.6556
  958SOL    HW1 2873   0.260   1.792   0.391  0.9200  1.5048  0.2602
  958SOL    HW2 2874   0.368   1.742   0.509 -0.5103  0.7820  0.6454
  959SOL     OW 2875   1.936   1.384   1.146 -0.1049  1.1405 -0.5851
  959SOL    HW1 2876   1.878   1.311   1.191  1.0819  1.3401  0.4160
  959SOL    HW2 2877   1.957   1.454   1.215  0.5465  0.3905 -0.9128
  960SOL     OW 2878   3.036   1.286   2.875 -0.4042  0.2982  0.1609
  960SOL    HW1 2879   0.031   1.233   2.876 -0.9126 -2.2397  1.2678
  960SOL    HW2 2880   3.054   1.376   2.903 -1.2569 -1.7748  1.8497
  961SOL     OW 2881   1.192   1.507   0.527  0.1634  0.3212  0.2287
  961SOL    HW1 2882   1.102   1.528   0.492  1.2332  1.4931  3.6539
  961SOL    HW2 2883   1.212   1.556   0.611 -0.5218 -1.1096 -0.6019
  962SOL     OW 2884   1.016   1.104   0.560 -0.0556  0.0035 -0.1810
  962SOL    HW1 2885   1.003   1.003   0.554 -1.2298  1.7304 -0.2777
  962SOL    HW2 2886   1.082   1.128   0.632  1.0132 -0.2356 -1.2556
  963SOL     OW 2887   1.166   1.999   2.280  0.5151  0.2566  0.2419
  963SOL    HW1 2888   1.262   1.998   2.321  0.3975 -1.0871  1.3569
  963SOL    HW2 2889   1.124   1.906   2.275  0.9966  2.4991 -1.2473
  964SOL     OW 2890   2.733   2.876   2.888 -0.1038 -1.1973 -0.4360
  964SOL    HW1 2891   2.750   2.956   2.954 -0.8602  0.8398 -0.7199
  964SOL    HW2 2892   2.772   2.795   2.929 -3.2179  0.0146 -1.5085
  965SOL     OW 2893   0.700   2.402   0.132  0.2999  0.3830  0.7112
  965SOL    HW1 2894   0.691   2.473   0.060  1.5013  1.3121 -1.1785
  965SOL    HW2 2895   0.722   2.439   0.223  0.1867 -1.6851 -1.0727
  966SOL     OW 2896   2.943   1.754   2.950 -0.3769  0.1244 -0.4944
  966SOL    HW1 2897   2.912   1.829   3.018  1.6813 -0.6526  2.4000
  966SOL    HW2 2898   2.929   1.786   2.856 -0.7381 -1.3889  1.3498
  967SOL     OW 2899   1.999   3.045   0.054 -0.6952  0.3079 -0.5781
  967SOL    HW1 2900   1.940   3.060   0.137 -0.3939  0.9444  2.5899
  967SOL    HW2 2901   2.085   2.999   0.082 -0.1870 -2.7909 -1.9764
  968SOL     OW 2902   2.067   2.881   0.555  0.3655 -0.3098 -0.3690
  968SOL    HW1 2903   1.972   2.876   0.510 -0.5683  1.1096 -1.9164
  968SOL    HW2 2904   2.067   2.929   0.644  0.8689 -3.7898  0.5292
  969SOL     OW 2905   0.847   1.124   2.403 -0.1355 -0.1582  0.0671
  969SOL    HW1 2906   0.756   1.085   2.370  0.8212  1.4825  0.8231
  969SOL    HW2 2907   0.842   1.198   2.476  2.0203  1.3016  1.6827
  970SOL     OW 2908   1.526   1.169   1.003  0.4950 -0.1982 -0.1964
  970SOL    HW1 2909   1.538   1.073   0.976  1.1516 -0.8560 -1.3867
  970SOL    HW2 2910   1.573   1.191   1.091  0.4980 -1.5851 -0.7192
  971SOL     OW 2911   2.210   0.132   1.623  0.3232 -0.0974 -0.2809
  971SOL    HW1 2912   2.213   0.067   1.542 -2.0605  1.1075 -0.8932
  971SOL    HW2 2913   2.194   0.226   1.586 -3.3725  0.4965 -0.5178
  972SOL     OW 2914   0.044   2.992   1.790 -0.3618  0.1732 -0.0949
  972SOL    HW1 2915   0.098   2.930   1.848 -0.7075  0.1724  0.1307
  972SOL    HW2 2916   3.052   2.940   1.758 -0.0167 -1.3051 -0.6963
  973SOL     OW 2917   0.100   0.453   2.599 -0.3720 -0.0191  0.0836
  973SOL    HW1 2918   0.079   0.408   2.688  1.6167  0.7259 -0.3270
  973SOL    HW2 2919   0.015   0.447   2.540 -2.1142 -2.5816 -1.3247
  974SOL     OW 2920   2.312   1.307   2.204  0.2138  0.4121  0.3016
  974SOL    HW1 2921   2.398   1.264   2.233 -1.3566  2.8917 -0.0476
  974SOL    HW2 2922   2.234   1.258   2.248 -2.1681 -2.4456 -0.5502
  975SOL     OW 2923   0.683   0.233   1.428 -0.2838 -0.0576 -0.2529
  975SOL    HW1 2924   0.675   0.142   1.386 -0.7262 -1.2497 -2.6080
  975SOL    HW2 2925   0.650   0.311   1.369  1.7258  2.4760  4.0760
  976SOL     OW 2926   0.837   1.988   2.193 -0.2601  0.2450  0.1554
  976SOL    HW1 2927   0.773   2.045   2.137  0.1571  0.6778 -1.0372
  976SOL    HW2 2928   0.848   2.039   2.280  0.3499  0.8870  1.0453
  977SOL     OW 2929   0.542   3.071   0.366 -0.5714 -0.4258 -0.4124
  977SOL    HW1 2930   0.606   0.032   0.309  0.3949  0.8994 -0.6929
  977SOL    HW2 2931   0.485   0.037   0.427  4.8995 -1.6416 -0.1990
  978SOL     OW 2932   2.806   1.246   2.090 -0.1594 -0.6755  0.3960
  978SOL    HW1 2933   2.904   1.254   2.055  1.0878 -0.4596  0.3781
  978SOL    HW2 2934   2.805   1.255   2.193  0.4693 -2.0916 -0.1300
  979SOL     OW 2935   1.890   0.154   1.698  0.4186 -0.1776  0.2894
  979SOL    HW1 2936   1.790   0.173   1.712 -1.2134 -0.0410  1.6778
  979SOL    HW2 2937   1.938   0.116   1.779  1.7424  2.7505 -0.3628
  980SOL     OW 2938   1.713   1.668   1.796  0.0538  0.1382  0.2313
  980SOL    HW1 2939   1.784   1.612   1.749 -0.0490  1.1283  1.5130
  980SOL    HW2 2940   1.628   1.661   1.742  0.2457 -1.3304  0.6776
  981SOL     OW 2941   2.752   0.854   1.255 -0.2184 -0.2861 -0.0300
  981SOL    HW1 2942   2.733   0.935   1.317  1.4373  1.3408  2.4814
  981SOL    HW2 2943   2.841   0.822   1.294 -0.1643  0.1797 -0.2742
  982SOL     OW 2944   0.359   0.095   2.672  0.8137  0.3722  0.1097
  982SOL    HW1 2945   0.394   3.091   2.691 -1.8606  0.9824  1.5140
  982SOL    HW2 2946   0.308   0.092   2.585 -1.0283 -0.3704 -1.4732
  983SOL     OW 2947   2.756   0.606   2.415  0.3001  0.4319 -0.4198
  983SOL    HW1 2948   2.761   0.694   2.464 -1.9858 -0.2140  0.6315
  983SOL    HW2 2949   2.835   0.598   2.347  0.5511 -2.4016 -0.6480
  984SOL     OW 2950   1.309   2.945   1.901 -0.1898  0.3952  0.2482
  984SOL    HW1 2951   1.376   2.889   1.847  0.4422 -3.3076 -2.5627
  984SOL    HW2 2952   1.240   2.883   1.936 -1.0650  2.3246  1.2267
  985SOL     OW 2953   1.858   2.017   2.293  0.3204  0.0892 -0.3845
  985SOL    HW1 2954   1.933   2.047   2.347 -1.4523 -2.2295 -2.0700
  985SOL    HW2 2955   1.857   2.072   2.207  0.0396  2.0927 -3.3080
  986SOL     OW 2956   2.278   0.412   1.036 -0.1500  0.4917 -0.5632
  986SOL    HW1 2957   2.348   0.337   1.036 -1.3178 -1.1679 -1.1432
  986SOL    HW2 2958   2.261   0.449   1.127  0.8333  1.2856 -1.1552
  987SOL     OW 2959   2.647   1.113   1.378  0.1952 -0.5002 -0.1187
  987SOL    HW1 2960   2.595   1.146   1.456  0.6094  0.4385  0.5001
  987SOL    HW2 2961   2.580   1.077   1.312  0.1595  0.6119  2.4155
  988SOL     OW 2962   2.824   1.011   1.937  0.4624 -0.3113 -0.4450
  988SOL    HW1 2963   2.872   1.034   2.025  0.8049 -1.2305  1.2396
  988SOL    HW2 2964   2.731   1.057   1.929 -0.1090 -1.0944 -0.9950
  989SOL     OW 2965   1.238   2.356   3.082  0.9474 -0.2201  0.8831
  989SOL    HW1 2966   1.296   2.437   3.047  0.7690 -0.0157 -1.8970
  989SOL    HW2 2967   1.152   2.357   3.026  0.2208 -0.8308 -0.4764
  990SOL     OW 2968   1.576   0.659   2.724  0.2123  0.3514 -0.3622
  990SOL    HW1 2969   1.560   0.632   2.627 -1.3296  1.1522  1.6404
  990SOL    HW2 2970   1.547   0.755   2.735  0.6664  2.1043 -2.0524
  991SOL     OW 2971   1.230   0.709   0.567 -0.1933  0.3578  0.5095
  991SOL    HW1 2972   1.251   0.714   0.668 -0.8240  2.3050  1.4388
  991SOL    HW2 2973   1.307   0.748   0.509  0.7838  3.0984 -1.6538
  992SOL     OW 2974   2.661   1.918   1.063  0.4646 -0.3812 -0.2599
  992SOL    HW1 2975   2.668   1.995   0.998  0.0971 -0.0493 -0.2113
  992SOL    HW2 2976   2.670   1.960   1.159 -1.4584  0.1175  1.1704
  993SOL     OW 2977   0.061   0.614   0.982  0.4096 -0.1276 -0.3706
  993SOL    HW1 2978   0.042   0.694   1.040 -1.7955  0.6020 -0.2834
  993SOL    HW2 2979   3.077   0.593   0.918 -0.8830 -0.3616 -1.4687
  994SOL     OW 2980   0.216   1.879   2.427  0.0238  0.0926 -0.3998
  994SOL    HW1 2981   0.126   1.926   2.445  1.1308  3.2548 -0.0952
  994SOL    HW2 2982   0.286   1.934   2.378  0.2788 -2.8742  1.1497
  995SOL     OW 2983   1.946   0.897   2.810 -0.6015 -0.0073 -0.0663
  995SOL    HW1 2984   1.911   0.810   2.779 -1.1591  1.3250  1.1115
  995SOL    HW2 2985   1.881   0.970   2.782  0.1142 -0.1187  0.1650
  996SOL     OW 2986   2.661   1.316   0.642  0.0564 -0.5594  0.1981
  996SOL    HW1 2987   2.646   1.258   0.723  0.1971  1.3092 -0.4807
  996SOL    HW2 2988   2.631   1.413   0.667 -1.2271  2.7097 -0.9597
  997SOL     OW 2989   1.818   0.882   2.156  0.3747  0.1619 -0.2320
  997SOL    HW1 2990   1.745   0.813   2.170 -3.0851  0.1669 -0.0032
  997SOL    HW2 2991   1.874   0.871   2.072 -0.4715 -1.2252  1.5628
  998SOL     OW 2992   2.811   1.578   0.232  0.3457 -0.3175  0.5378
  998SOL    HW1 2993   2.850   1.667   0.241 -3.6791 -1.7250  0.9872
  998SOL    HW2 2994   2.837   1.518   0.303 -1.4932  5.0413 -2.2862
  999SOL     OW 2995   3.034   2.250   0.070 -0.2488 -0.3234 -0.0346
  999SOL    HW1 2996   3.057   2.164   0.118  1.3514 -0.3244  0.3338
  999SOL    HW2 2997   3.013   2.318   0.144  0.6496  0.5874  3.8495
 1000SOL     OW 2998   0.918   0.845   2.670 -0.0163  0.2750  0.1492
 1000SOL    HW1 2999   0.929   0.785   2.753  1.2365 -0.2199  1.9557
 1000SOL    HW2 3000   0.990   0.810   2.607  1.0609 -1.9280  1.4405
   3.09068   3.09068   3.09068
