1000 SPC/Fw water molecules t= 306.00000 step= 306000
 3000
    1SOL     OW    1   2.777   0.107   0.933  0.0390 -0.2209  0.3786
    1SOL    HW1    2   2.774   0.075   0.835 -0.1426  0.7194  2.4207
    1SOL    HW2    3   2.803   0.034   1.002  1.5632 -1.1725  0.3072
    2SOL     OW    4   0.080   2.391   0.849  0.4515  0.0757 -0.6567
    2SOL    HW1    5   0.032   2.408   0.935 -1.3973 -1.2010 -4.3631
    2SOL    HW2    6   0.092   2.292   0.844  1.0222 -2.0817  4.0916
    3SOL     OW    7   0.749   2.791   2.970  0.3235 -0.6595  0.5054
    3SOL    HW1    8   0.741   2.700   3.015 -4.5752 -1.2421 -0.7275
    3SOL    HW2    9   0.693   2.799   2.883  0.5510 -0.3156  0.8013
    4SOL     OW   10   1.939   2.365   1.718  0.2745 -0.1396 -1.1793
    4SOL    HW1   11   1.888   2.293   1.768  1.7601 -2.2703  0.7405
    4SOL    HW2   12   2.036   2.347   1.744  0.1348 -0.3526  1.8885
    5SOL     OW   13   1.672   0.824   1.337  0.0514 -0.0240  0.1955
    5SOL    HW1   14   1.621   0.818   1.250  1.9693  1.1218  4.3112
    5SOL    HW2   15   1.615   0.828   1.420  1.6554 -4.2712  3.3766
    6SOL     OW   16   2.052   2.691   0.227  0.1624  0.2501 -0.2902
    6SOL    HW1   17   2.033   2.686   0.325  0.4534  1.4588  0.5557
    6SOL    HW2   18   1.975   2.738   0.182 -1.6644 -1.0961  1.3803
    7SOL     OW   19   2.831   1.356   1.248  0.3760 -0.1388  0.5321
    7SOL    HW1   20   2.818   1.458   1.255  0.3936 -0.1912  0.2809
    7SOL    HW2   21   2.784   1.308   1.327 -0.5076 -0.0465 -0.6077
    8SOL     OW   22   1.311   2.424   1.479 -0.2088 -0.4455 -0.2281
    8SOL    HW1   23   1.388   2.464   1.535  0.2341  1.3228  1.1454
    8SOL    HW2   24   1.342   2.341   1.427 -1.0659 -1.6843 -0.9388
    9SOL     OW   25   1.424   3.037   2.332 -0.5345 -0.4324  0.6199
    9SOL    HW1   26   1.355   3.035   2.405 -4.3988  0.6229  1.2018
    9SOL    HW2   27   1.389   2.993   2.246  1.0150  1.6343  1.4483
   10SOL     OW   28   0.756   1.980   1.201 -0.2627  0.0026  0.5605
   10SOL    HW1   29   0.859   1.987   1.202 -1.5314  1.3826 -0.9238
   10SOL    HW2   30   0.724   2.072   1.229 -0.6367  1.3484  0.8016
   11SOL     OW   31   2.073   1.655   1.128  0.4759 -0.2978  0.2092
   11SOL    HW1   32   2.119   1.700   1.209  0.4941 -0.8311 -0.0202
   11SOL    HW2   33   2.041   1.725   1.061 -0.4562 -3.1732  0.3769
   12SOL     OW   34   2.398   2.645   1.560 -0.1391  0.3960 -0.0814
   12SOL    HW1   35   2.496   2.663   1.587 -2.6798 -0.7537 -0.8575
   12SOL    HW2   36   2.334   2.689   1.626  0.8252  2.1786  0.2844
   13SOL     OW   37   2.447   3.043   0.349  0.1712 -0.4801  0.5686
   13SOL    HW1   38   2.428   2.986   0.428 -1.0828 -0.6472  2.6166
   13SOL    HW2   39   2.515   2.997   0.292 -2.1959  2.4404 -1.6782
   14SOL     OW   40   1.755   2.478   0.741  0.2317 -0.8275 -0.0454
   14SOL    HW1   41   1.662   2.472   0.779  0.2677  3.1922  2.4233
   14SOL    HW2   42   1.809   2.391   0.741 -2.0326 -0.4844 -0.1534
   15SOL     OW   43   2.877   1.883   1.988 -0.1100 -0.0978  1.1430
   15SOL    HW1   44   2.952   1.948   1.957  2.0893  0.2771  1.0813
   15SOL    HW2   45   2.891   1.864   2.084  0.9980 -0.4377  2.2865
   16SOL     OW   46   2.082   2.893   0.610  0.5806  0.6163 -0.0837
   16SOL    HW1   47   1.988   2.865   0.578 -0.0633  0.0316 -2.5817
   16SOL    HW2   48   2.081   2.890   0.709 -0.4304 -0.1888 -2.1313
   17SOL     OW   49   0.607   0.248   1.221 -0.0248 -0.7227  0.1055
   17SOL    HW1   50   0.659   0.329   1.248  1.2124 -0.5563  0.8545
   17SOL    HW2   51   0.649   0.205   1.141  1.4287  1.2354  0.6093
   18SOL     OW   52   1.820   1.110   0.058 -0.0735 -0.1982  0.0805
   18SOL    HW1   53   1.827   1.126   0.159  0.5353 -1.1398  0.6976
   18SOL    HW2   54   1.736   1.058   0.038 -1.2046  1.9108 -0.6011
   19SOL     OW   55   1.738   2.084   0.514 -0.0969  0.0171  0.0557
   19SOL    HW1   56   1.776   2.150   0.583 -0.1610  0.7049  0.9696
   19SOL    HW2   57   1.808   2.061   0.442 -1.3459  0.5117  1.1100
   20SOL     OW   58   2.393   1.796   2.119  0.2025 -0.2126  0.0326
   20SOL    HW1   59   2.307   1.836   2.165 -1.0321  1.7208 -2.0807
   20SOL    HW2   60   2.438   1.853   2.045  2.7674 -2.3160 -0.1819
   21SOL     OW   61   1.759   0.698   0.697 -0.4363  0.2309 -0.6367
   21SOL    HW1   62   1.676   0.745   0.659  0.2820 -0.8558  0.9726
   21SOL    HW2   63   1.794   0.626   0.637  2.3866  1.7950  0.2548
   22SOL     OW   64   2.153   3.021   1.504  0.2161 -0.2838  0.4008
   22SOL    HW1   65   2.180   3.010   1.600 -2.0855 -0.1910 -2.1977
   22SOL    HW2   66   2.057   3.062   1.497 -3.9225  1.9027 -0.0199
   23SOL     OW   67   0.017   0.455   1.970 -0.4629 -0.3339  0.7285
   23SOL    HW1   68   3.061   0.397   2.013  0.9811  0.6849 -0.2383
   23SOL    HW2   69   3.094   0.497   1.884  1.1727 -1.5881 -1.5930
   24SOL     OW   70   2.574   2.756   0.487 -0.1036  0.3295 -0.0802
   24SOL    HW1   71   2.494   2.806   0.524  0.9703  0.1756  2.0397
   24SOL    HW2   72   2.650   2.782   0.550 -0.7442  0.6309  0.7019
   25SOL     OW   73   1.432   0.112   2.116  0.3548  0.5670  0.1205
   25SOL    HW1   74   1.430   0.157   2.205 -0.9082 -1.5671 -0.5566
   25SOL    HW2   75   1.530   0.103   2.083  3.1495  2.5611  0.5648
   26SOL     OW   76   1.517   2.520   0.431  0.8369  0.1582 -0.5612
   26SOL    HW1   77   1.480   2.431   0.467  1.9635 -0.8559 -1.0741
   26SOL    HW2   78   1.607   2.525   0.471  2.1328 -0.2070  0.1058
   27SOL     OW   79   2.573   1.850   0.207 -0.0799 -0.8483  0.2147
   27SOL    HW1   80   2.544   1.948   0.192 -0.7577  2.0911 -0.9121
   27SOL    HW2   81   2.565   1.797   0.124  0.8844  1.9270 -0.8592
   28SOL     OW   82   0.814   1.628   1.603 -0.1584  0.1515 -0.0598
   28SOL    HW1   83   0.820   1.543   1.657 -1.4513  4.6988  0.1836
   28SOL    HW2   84   0.833   1.607   1.505 -0.7469 -0.4760 -0.5788
   29SOL     OW   85   2.423   2.399   1.686  0.7195  0.0478  0.0324
   29SOL    HW1   86   2.433   2.495   1.655 -0.4028 -2.2868 -1.1323
   29SOL    HW2   87   2.433   2.336   1.607  0.6812  2.9251  1.3853
   30SOL     OW   88   1.331   0.492   1.025  0.4437 -0.1361  0.1808
   30SOL    HW1   89   1.274   0.547   0.959  0.2553 -0.6003  0.9002
   30SOL    HW2   90   1.430   0.497   1.000 -1.3294  1.5214  0.5414
   31SOL     OW   91   1.923   2.807   1.784  0.3326  0.5908  0.2038
   31SOL    HW1   92   1.942   2.894   1.823  0.2833 -3.9621 -0.7571
   31SOL    HW2   93   1.956   2.734   1.850  3.1878 -1.5662  1.0316
   32SOL     OW   94   1.131   1.655   0.720 -0.0837 -0.4576  0.2921
   32SOL    HW1   95   1.077   1.573   0.745  1.4229  2.6991 -2.5638
   32SOL    HW2   96   1.083   1.735   0.678  2.2531  2.1699  2.5429
   33SOL     OW   97   0.238   0.478   2.580  0.8405 -0.2600  0.4282
   33SOL    HW1   98   0.309   0.407   2.607  1.7259  0.5361 -0.9732
   33SOL    HW2   99   0.174   0.450   2.503 -0.2564 -1.5359 -0.9453
   34SOL     OW  100   1.816   3.107   0.597 -0.3657  0.6149  0.3569
   34SOL    HW1  101   1.781   0.056   0.666 -0.1922 -0.7794 -1.5498
   34SOL    HW2  102   1.917   3.101   0.606  2.6924 -4.7040  0.2854
   35SOL     OW  103   2.147   2.589   1.216 -0.3282  0.2509 -0.0094
   35SOL    HW1  104   2.169   2.675   1.158  0.3097  1.6474 -1.9896
   35SOL    HW2  105   2.050   2.560   1.200  1.5477  0.2345  2.7433
   36SOL     OW  106   1.874   2.455   2.766  0.2542 -0.0939  0.4398
   36SOL    HW1  107   1.828   2.381   2.711  4.0151 -0.9980 -0.2977
   36SOL    HW2  108   1.934   2.504   2.701  0.9276 -2.4398  2.8582
   37SOL     OW  109   1.140   0.249   2.046 -0.1751 -0.0986  0.4478
   37SOL    HW1  110   1.201   0.327   2.030 -0.2934  0.4493 -0.4964
   37SOL    HW2  111   1.178   0.167   2.002  1.1426  1.8997 -1.2132
   38SOL     OW  112   0.203   0.084   2.565  0.0931  0.1185 -0.6864
   38SOL    HW1  113   0.196   3.117   2.506 -0.8259 -0.1619  2.7719
   38SOL    HW2  114   0.270   0.151   2.528  0.4262  0.9516 -1.0732
   39SOL     OW  115   2.439   1.194   1.620 -0.3823  0.1619 -0.3395
   39SOL    HW1  116   2.417   1.203   1.717 -1.3768 -2.7127 -1.0381
   39SOL    HW2  117   2.388   1.260   1.561 -0.2517  0.5565  1.9711
   40SOL     OW  118   1.261   2.892   0.284  0.5206 -0.1024 -0.2142
   40SOL    HW1  119   1.276   2.995   0.279 -1.1892 -0.2684 -1.0927
   40SOL    HW2  120   1.186   2.883   0.352 -0.8268 -0.6167 -1.6363
   41SOL     OW  121   2.460   1.515   1.025  0.9463 -0.3415 -0.4610
   41SOL    HW1  122   2.475   1.488   1.123 -4.1408 -1.0532 -1.6918
   41SOL    HW2  123   2.506   1.441   0.969 -0.8999 -1.2641  2.1678
   42SOL     OW  124   0.973   0.452   1.102  0.7133 -0.4261  0.3620
   42SOL    HW1  125   0.889   0.459   1.161 -0.7329 -0.3840  1.2934
   42SOL    HW2  126   0.962   0.520   1.024  0.5614  0.5775 -0.2952
   43SOL     OW  127   2.962   1.449   2.465  0.3689 -0.2660  0.0282
   43SOL    HW1  128   2.877   1.412   2.503  0.1743 -0.6103 -0.3690
   43SOL    HW2  129   3.009   1.504   2.535  0.8689  0.3971 -1.4899
   44SOL     OW  130   2.365   0.148   1.773 -0.2104 -0.0559  0.2244
   44SOL    HW1  131   2.438   0.107   1.721 -2.1730  2.6495 -0.3869
   44SOL    HW2  132   2.399   0.168   1.866  0.3634 -1.9752 -0.1412
   45SOL     OW  133   0.897   3.052   1.926  0.2484  1.0559 -0.3778
   45SOL    HW1  134   0.888   0.034   1.940 -1.9074  0.0513 -0.8309
   45SOL    HW2  135   0.979   3.025   1.981  0.8542  0.9030  1.7925
   46SOL     OW  136   1.299   2.905   2.555 -0.0991 -0.1914 -0.2342
   46SOL    HW1  137   1.220   2.893   2.619 -1.5602  0.8127 -2.5987
   46SOL    HW2  138   1.342   2.815   2.526  0.7812 -0.9222  2.7610
   47SOL     OW  139   1.710   1.789   0.501 -0.7771  0.2173  0.3430
   47SOL    HW1  140   1.741   1.855   0.569  1.0186 -1.3024 -2.3133
   47SOL    HW2  141   1.618   1.804   0.460  1.2054 -0.4095  3.1292
   48SOL     OW  142   1.199   2.156   0.646  0.3089 -0.0307  0.4764
   48SOL    HW1  143   1.157   2.189   0.559 -0.2003  1.3789 -2.0489
   48SOL    HW2  144   1.250   2.067   0.644 -0.6327 -1.8854  4.1528
   49SOL     OW  145   2.271   2.785   2.501 -0.4798 -0.4956 -0.3402
   49SOL    HW1  146   2.345   2.821   2.444 -1.1151  0.8697  1.8281
   49SOL    HW2  147   2.274   2.814   2.598  0.5150 -1.1943  1.2703
   50SOL     OW  148   1.593   0.135   0.153  0.2931 -0.5470  0.4573
   50SOL    HW1  149   1.630   0.141   0.247  0.2594  0.7717  0.5305
   50SOL    HW2  150   1.535   0.217   0.129 -0.5860 -0.6791  0.4147
   51SOL     OW  151   2.185   0.957   0.670  0.2164 -0.7233 -0.3349
   51SOL    HW1  152   2.132   0.981   0.753 -0.4265  1.1092 -2.0600
   51SOL    HW2  153   2.233   0.869   0.691  1.1094  0.3254  1.0746
   52SOL     OW  154   1.307   1.515   1.131  0.0140  0.2302 -0.0700
   52SOL    HW1  155   1.376   1.518   1.207 -1.5523  0.3791  1.8092
   52SOL    HW2  156   1.220   1.529   1.176  1.1083  0.8041  2.1803
   53SOL     OW  157   0.876   1.665   2.516  0.1906 -0.2947 -0.3785
   53SOL    HW1  158   0.833   1.753   2.481  0.0105 -0.3178  2.6039
   53SOL    HW2  159   0.967   1.682   2.561 -0.0458  0.7711  1.1593
   54SOL     OW  160   2.636   0.761   1.520 -0.3871  0.0321 -0.6775
   54SOL    HW1  161   2.622   0.831   1.596  1.9732  1.7279  2.0666
   54SOL    HW2  162   2.597   0.673   1.549 -0.7538  0.6643 -0.9222
   55SOL     OW  163   2.699   2.065   0.645 -0.1933  0.7358  0.3337
   55SOL    HW1  164   2.735   1.971   0.636  1.4430  0.4811 -0.4227
   55SOL    HW2  165   2.780   2.128   0.650 -0.5441 -1.0493  1.0590
   56SOL     OW  166   1.267   0.487   1.941  0.3937  0.1992  0.3677
   56SOL    HW1  167   1.276   0.393   1.900 -0.6883  0.5098 -0.8680
   56SOL    HW2  168   1.190   0.529   1.888 -0.9917 -0.5226 -2.5048
   57SOL     OW  169   1.252   1.448   2.971 -0.7481 -0.2999 -0.2367
   57SOL    HW1  170   1.334   1.479   3.029  2.4982  1.4972  3.1976
   57SOL    HW2  171   1.281   1.372   2.912  0.9099  1.5881  2.0235
   58SOL     OW  172   3.003   0.571   1.773  0.0307  0.3578  0.0750
   58SOL    HW1  173   3.026   0.646   1.708 -0.5115  0.3727  1.6199
   58SOL    HW2  174   2.905   0.545   1.755 -1.9276  0.0286  2.3882
   59SOL     OW  175   1.782   3.034   0.070 -0.4120 -0.4501 -0.7665
   59SOL    HW1  176   1.778   2.996   3.091  2.2370 -0.2289  2.8876
   59SOL    HW2  177   1.706   3.099   0.084  1.5049 -0.2410 -1.6808
   60SOL     OW  178   3.068   1.875   0.172  0.4525  0.4506 -0.1974
   60SOL    HW1  179   3.038   1.943   0.243 -3.8128 -0.8603  1.3168
   60SOL    HW2  180   2.987   1.857   0.108 -0.7789  0.7395 -3.5110
   61SOL     OW  181   1.047   2.925   0.812  0.1898 -0.5751 -0.2013
   61SOL    HW1  182   1.142   2.902   0.771  1.1175 -0.6078 -1.5264
   61SOL    HW2  183   1.011   2.833   0.847 -0.9665 -0.3261  1.2786
   62SOL     OW  184   2.034   2.136   2.573  0.1284  0.0718  0.4592
   62SOL    HW1  185   2.069   2.222   2.541 -0.6144 -3.1388  2.3400
   62SOL    HW2  186   1.948   2.149   2.622 -1.2768 -0.7568  1.8443
   63SOL     OW  187   2.384   2.615   0.705  0.2170  0.0846 -0.0402
   63SOL    HW1  188   2.346   2.687   0.644 -0.7882 -3.6337 -1.4563
   63SOL    HW2  189   2.471   2.574   0.672 -0.7254 -0.6558  4.2069
   64SOL     OW  190   1.322   0.776   2.425 -0.2340  0.2073  0.1566
   64SOL    HW1  191   1.226   0.744   2.429  1.5829 -2.7761 -1.7367
   64SOL    HW2  192   1.382   0.698   2.443 -2.7152  3.3482  2.6377
   65SOL     OW  193   1.888   1.682   2.616  0.2451  0.5630 -0.2795
   65SOL    HW1  194   1.808   1.634   2.650  1.9355  2.8892  1.6577
   65SOL    HW2  195   1.873   1.709   2.516  1.1434 -2.3596  1.8867
   66SOL     OW  196   0.177   0.810   1.652 -0.8407  0.4678 -0.0841
   66SOL    HW1  197   0.198   0.871   1.731  2.6938  0.7852 -1.0781
   66SOL    HW2  198   0.251   0.743   1.631 -0.6250  1.7921  1.6721
   67SOL     OW  199   2.323   2.878   2.757  0.2823 -0.1520 -0.0098
   67SOL    HW1  200   2.384   2.808   2.801 -1.2663  0.5407 -1.3303
   67SOL    HW2  201   2.376   2.965   2.770  1.4902 -1.5897  0.6649
   68SOL     OW  202   1.154   2.888   1.302 -0.3241  0.5500  0.0130
   68SOL    HW1  203   1.082   2.964   1.305 -2.2258  0.7317 -0.1537
   68SOL    HW2  204   1.174   2.868   1.203  2.4880  1.5289  1.0636
   69SOL     OW  205   0.515   2.535   0.204 -0.0673  0.1130  0.0202
   69SOL    HW1  206   0.580   2.499   0.274  2.1272 -0.0975 -1.2016
   69SOL    HW2  207   0.424   2.516   0.243  1.4925  0.2907  0.7978
   70SOL     OW  208   2.630   0.134   2.357  0.0817  0.1861 -0.1610
   70SOL    HW1  209   2.650   0.037   2.395  1.1075 -2.8599  0.7524
   70SOL    HW2  210   2.534   0.167   2.385  1.5193 -0.9512  2.7537
   71SOL     OW  211   0.448   0.980   2.661  0.0213 -0.1924  0.1897
   71SOL    HW1  212   0.353   0.971   2.696  0.1776 -1.6075  0.2564
   71SOL    HW2  213   0.496   1.063   2.694 -1.5467 -3.3413 -0.1119
   72SOL     OW  214   3.052   2.158   2.952  0.4532 -0.6454 -0.1242
   72SOL    HW1  215   2.954   2.150   2.928  2.4048 -0.8974 -2.7936
   72SOL    HW2  216   3.104   2.124   2.875  0.0894  1.0936  2.3936
   73SOL     OW  217   1.474   1.114   0.632  0.0513 -0.6772 -0.9299
   73SOL    HW1  218   1.523   1.198   0.654 -0.4666  0.5223  0.2348
   73SOL    HW2  219   1.430   1.119   0.539  1.9707  1.5282 -2.3484
   74SOL     OW  220   2.327   2.602   2.916  0.4490  0.9169 -0.1691
   74SOL    HW1  221   2.273   2.528   2.863 -0.9444 -3.9378 -0.0811
   74SOL    HW2  222   2.279   2.635   3.002 -2.7664  2.1566 -0.3115
   75SOL     OW  223   2.234   1.900   0.895 -0.5269 -0.2392 -0.0266
   75SOL    HW1  224   2.220   1.979   0.958  1.3387  1.6460  1.4268
   75SOL    HW2  225   2.332   1.870   0.893 -2.3819  1.4272  1.6487
   76SOL     OW  226   2.020   2.403   1.445 -0.0047 -0.0489  0.4800
   76SOL    HW1  227   2.045   2.495   1.422  1.4138 -3.5301  0.3837
   76SOL    HW2  228   1.993   2.395   1.538  1.0213 -1.4299 -0.4326
   77SOL     OW  229   2.357   3.068   2.108 -0.3946 -0.0411  0.2954
   77SOL    HW1  230   2.360   0.044   2.068 -2.3720  0.0933  2.3300
   77SOL    HW2  231   2.399   3.001   2.046 -1.7778  0.9740  0.4761
   78SOL     OW  232   1.599   0.986   3.063 -0.6401 -0.3167  0.1168
   78SOL    HW1  233   1.513   0.931   3.069 -0.1978 -3.0468  1.0027
   78SOL    HW2  234   1.669   0.932   3.015  0.8589 -0.5539  0.8187
   79SOL     OW  235   2.302   1.365   2.320  0.3350 -0.6351  0.2745
   79SOL    HW1  236   2.401   1.390   2.332 -0.4078 -1.0262 -1.9202
   79SOL    HW2  237   2.242   1.406   2.394 -0.4209 -1.7586 -0.0183
   80SOL     OW  238   1.993   1.628   1.614 -0.0860 -0.1071  0.6990
   80SOL    HW1  239   2.084   1.583   1.624  1.8410 -0.0357  0.0484
   80SOL    HW2  240   1.937   1.614   1.700 -2.0140  2.6393  2.6378
   81SOL     OW  241   1.668   0.488   1.287  0.0008  0.1928 -0.3870
   81SOL    HW1  242   1.648   0.585   1.265  1.5820 -1.6132 -0.7211
   81SOL    HW2  243   1.590   0.418   1.280  2.0882  0.5346  2.6489
   82SOL     OW  244   1.718   2.454   1.567 -0.2023 -0.6493 -0.0219
   82SOL    HW1  245   1.723   2.364   1.521 -0.9501  1.5609  1.8020
   82SOL    HW2  246   1.766   2.435   1.656 -1.0276  0.4894 -0.9802
   83SOL     OW  247   0.133   0.006   0.424 -0.4545 -0.4357 -0.1518
   83SOL    HW1  248   0.218   0.065   0.417 -0.8366 -0.1026 -0.3523
   83SOL    HW2  249   0.062   0.036   0.361  1.2792 -3.2639  0.4511
   84SOL     OW  250   0.514   0.923   0.224 -0.7242  0.1555 -0.3388
   84SOL    HW1  251   0.604   0.969   0.240 -3.5623 -3.0180  1.4725
   84SOL    HW2  252   0.522   0.850   0.153  1.4430 -3.0455  0.3627
   85SOL     OW  253   2.790   1.977   1.597  0.1601 -0.2378  0.1053
   85SOL    HW1  254   2.886   2.002   1.635  0.9824 -2.4697  0.3262
   85SOL    HW2  255   2.761   1.885   1.627  1.1724  0.1313 -2.3594
   86SOL     OW  256   0.057   2.783   1.337  0.0548  0.5096 -0.4829
   86SOL    HW1  257   0.084   2.686   1.318  1.9907  1.0377  1.0193
   86SOL    HW2  258   0.124   2.838   1.394  1.2493  3.2301 -2.9010
   87SOL     OW  259   0.482   0.192   2.262 -0.1126  0.2458 -0.0015
   87SOL    HW1  260   0.519   0.291   2.277  1.2233  0.3260  1.3260
   87SOL    HW2  261   0.489   0.146   2.354 -0.6731  2.1647 -2.7594
   88SOL     OW  262   0.404   2.063   1.029 -0.2376  0.2610 -0.2923
   88SOL    HW1  263   0.457   2.151   1.041  1.1061  0.4368 -1.3655
   88SOL    HW2  264   0.423   2.021   0.935  1.5416 -2.7341 -0.5986
   89SOL     OW  265   0.897   0.729   1.604 -0.3205  0.2397 -0.3513
   89SOL    HW1  266   0.993   0.697   1.601 -0.4892 -1.7176 -1.6806
   89SOL    HW2  267   0.838   0.641   1.608 -1.3885 -4.2197 -1.3476
   90SOL     OW  268   2.975   1.002   1.736  0.3206 -0.3005  0.3093
   90SOL    HW1  269   3.022   0.910   1.746 -1.3112  0.9271  0.9853
   90SOL    HW2  270   2.891   1.012   1.795 -1.9779  3.3665  0.3645
   91SOL     OW  271   1.377   1.153   1.083 -0.3775 -0.1856 -0.5436
   91SOL    HW1  272   1.376   1.066   1.026 -2.9546  0.0032  1.1179
   91SOL    HW2  273   1.472   1.188   1.101  0.3952  2.0245 -1.9161
   92SOL     OW  274   2.486   1.132   0.959 -0.0185  0.3102  0.2612
   92SOL    HW1  275   2.490   1.225   0.916 -1.1729  0.8394  0.8468
   92SOL    HW2  276   2.392   1.106   0.985 -0.7079  0.5634  0.1883
   93SOL     OW  277   2.546   0.670   2.604 -0.1257  0.0878  0.2800
   93SOL    HW1  278   2.552   0.593   2.534 -0.2220 -0.2840 -1.8123
   93SOL    HW2  279   2.504   0.749   2.562  1.5940  1.7339  0.8338
   94SOL     OW  280   2.290   1.750   2.498 -0.0056 -0.2360 -0.2509
   94SOL    HW1  281   2.290   1.791   2.407  1.7169 -1.9363  2.8260
   94SOL    HW2  282   2.290   1.830   2.562 -0.6981 -0.4447 -0.8577
   95SOL     OW  283   2.240   0.618   1.011 -0.3651 -0.0481  0.3260
   95SOL    HW1  284   2.231   0.556   1.088  0.2051 -0.2133 -0.8888
   95SOL    HW2  285   2.338   0.651   1.010 -0.6664  0.7479  1.6652
   96SOL     OW  286   2.486   2.921   1.911 -0.5043  0.0016  0.3915
   96SOL    HW1  287   2.429   2.840   1.902 -0.0215  4.2155 -2.0452
   96SOL    HW2  288   2.529   2.942   1.821 -2.1572  1.5067 -2.0149
   97SOL     OW  289   2.528   0.871   1.277  0.3973  0.0072 -0.4161
   97SOL    HW1  290   2.586   0.939   1.223  0.1679  0.2197 -0.1295
   97SOL    HW2  291   2.576   0.827   1.361  2.5673 -0.0009  1.1540
   98SOL     OW  292   1.437   2.189   1.696 -0.6984  0.3168 -0.0237
   98SOL    HW1  293   1.347   2.156   1.660 -1.4858 -1.3165 -0.5069
   98SOL    HW2  294   1.495   2.213   1.616  0.6648 -0.8907  0.0801
   99SOL     OW  295   2.802   2.394   1.678 -0.4056 -0.2881  0.0626
   99SOL    HW1  296   2.827   2.356   1.771  2.0137  2.1385 -1.6667
   99SOL    HW2  297   2.759   2.324   1.609  2.2579 -0.5298  0.4725
  100SOL     OW  298   1.003   0.853   2.950 -0.0724 -0.5595  0.3686
  100SOL    HW1  299   0.940   0.845   3.033 -0.6223 -2.2206  2.0150
  100SOL    HW2  300   1.046   0.947   2.947 -0.3261  2.1606  0.8699
  101SOL     OW  301   2.206   0.270   2.866 -0.2532  0.4815 -0.0411
  101SOL    HW1  302   2.140   0.198   2.836  0.0543 -1.3468  0.2019
  101SOL    HW2  303   2.144   0.342   2.913 -1.3391  0.8223  2.5177
  102SOL     OW  304   0.564   0.532   1.709  0.6456  0.0257 -0.2538
  102SOL    HW1  305   0.556   0.632   1.695  0.6625 -0.9609 -1.6493
  102SOL    HW2  306   0.556   0.505   1.806  1.2708 -1.9068 -1.6488
  103SOL     OW  307   0.530   0.334   3.024 -0.1299  0.3321  0.1363
  103SOL    HW1  308   0.582   0.422   3.023 -0.2305 -1.4309  1.4401
  103SOL    HW2  309   0.523   0.293   2.927 -0.3608 -1.5928 -3.4845
  104SOL     OW  310   0.991   0.241   2.548  0.1712 -0.0178 -0.2806
  104SOL    HW1  311   1.004   0.274   2.647  1.1018  1.6657  2.1074
  104SOL    HW2  312   0.992   0.136   2.550  3.2473  0.2107  0.6274
  105SOL     OW  313   2.249   1.992   1.833  0.5029 -0.3697 -0.3105
  105SOL    HW1  314   2.219   1.897   1.862 -0.1339 -0.8989  0.3751
  105SOL    HW2  315   2.339   2.004   1.886  0.9926 -1.7165 -0.3019
  106SOL     OW  316   1.725   0.502   0.386  0.0694 -0.1130 -0.0779
  106SOL    HW1  317   1.693   0.437   0.460 -0.8650  1.5093  1.9538
  106SOL    HW2  318   1.807   0.462   0.339  1.1190  0.4297  1.8077
  107SOL     OW  319   2.971   1.995   0.871 -0.6026 -0.0146  0.8494
  107SOL    HW1  320   2.948   2.055   0.794 -3.4311 -0.2643  0.9149
  107SOL    HW2  321   3.063   1.955   0.861 -0.3606  0.9621  0.7869
  108SOL     OW  322   2.648   2.630   1.646  0.5854 -0.0285 -0.3292
  108SOL    HW1  323   2.678   2.680   1.724 -1.3066 -1.0951 -3.3684
  108SOL    HW2  324   2.694   2.541   1.642  0.9749  2.2550 -1.3931
  109SOL     OW  325   2.081   2.877   0.875  0.3180  0.5561 -0.2984
  109SOL    HW1  326   2.023   2.800   0.910  3.2665  0.9005 -4.7753
  109SOL    HW2  327   2.051   2.967   0.915 -1.4672  1.6433 -0.5572
  110SOL     OW  328   0.746   1.897   2.491 -0.3512  0.1593  0.0222
  110SOL    HW1  329   0.694   1.914   2.578 -2.5603 -0.3672 -3.7393
  110SOL    HW2  330   0.800   1.981   2.467 -0.5860  0.6483  1.2808
  111SOL     OW  331   1.699   2.346   1.907  0.3254  0.4777 -0.0593
  111SOL    HW1  332   1.598   2.319   1.909 -0.9272 -3.6828  0.8006
  111SOL    HW2  333   1.752   2.265   1.873 -0.7646  0.2604 -2.1295
  112SOL     OW  334   2.099   1.867   0.064 -0.2150 -0.0782 -0.1358
  112SOL    HW1  335   2.139   1.888   0.154  0.1810 -0.6186 -0.2875
  112SOL    HW2  336   2.068   1.955   0.022  0.7647 -0.3992  0.1720
  113SOL     OW  337   1.772   1.981   1.482 -0.2124  0.6731  0.0276
  113SOL    HW1  338   1.861   1.973   1.429  2.3445  0.1518  2.0942
  113SOL    HW2  339   1.776   1.910   1.555 -0.6741 -1.8396 -0.0096
  114SOL     OW  340   2.970   1.225   0.633  0.0208  0.2006 -0.4408
  114SOL    HW1  341   2.934   1.276   0.712 -0.3077  0.9828 -1.5957
  114SOL    HW2  342   2.891   1.194   0.575  0.1830  1.2510  2.5575
  115SOL     OW  343   0.731   0.608   0.206 -0.8729 -0.1658  0.1339
  115SOL    HW1  344   0.649   0.638   0.157  0.5319  0.6123 -0.3341
  115SOL    HW2  345   0.725   0.507   0.223  2.4297 -1.1328  1.4585
  116SOL     OW  346   2.555   1.421   2.399 -0.3325 -0.3878 -0.3174
  116SOL    HW1  347   2.604   1.352   2.456  0.5690  1.5754 -0.6478
  116SOL    HW2  348   2.554   1.514   2.444  1.5328  1.2057  3.6482
  117SOL     OW  349   0.080   3.105   0.734  0.3242  0.0857  0.5047
  117SOL    HW1  350   0.129   3.089   0.650 -1.2596 -2.3789  0.2814
  117SOL    HW2  351   0.060   3.015   0.785 -0.4131 -4.1269 -0.9953
  118SOL     OW  352   1.070   1.757   2.734  0.5163 -0.1605  0.2005
  118SOL    HW1  353   1.140   1.752   2.807  0.7723 -1.5488 -0.1808
  118SOL    HW2  354   0.974   1.765   2.773  0.2434 -0.2388  2.9075
  119SOL     OW  355   0.389   2.266   0.330  0.0414  0.1738  0.3893
  119SOL    HW1  356   0.460   2.283   0.404  3.6038  1.5091 -2.6262
  119SOL    HW2  357   0.314   2.334   0.318  0.7249  0.7278  0.4595
  120SOL     OW  358   1.385   0.851   3.038 -0.0675  0.1662  0.2092
  120SOL    HW1  359   1.363   0.869   2.940 -0.2494  0.2602  2.2764
  120SOL    HW2  360   1.301   0.856   3.097  0.3305  0.1748 -0.4384
  121SOL     OW  361   1.484   2.749   0.958 -0.5554 -0.4027  0.6224
  121SOL    HW1  362   1.475   2.652   0.929 -2.1445 -1.3508 -1.2534
  121SOL    HW2  363   1.567   2.788   0.920  0.6068 -1.0564 -1.9226
  122SOL     OW  364   2.354   2.497   1.345 -0.0257  0.3077 -0.2707
  122SOL    HW1  365   2.360   2.549   1.430 -1.4966 -2.9569 -0.1498
  122SOL    HW2  366   2.283   2.519   1.280 -0.9891 -1.7833 -0.1694
  123SOL     OW  367   0.626   2.103   0.610 -0.3955  0.3716 -0.2509
  123SOL    HW1  368   0.630   2.200   0.575 -1.5721 -1.0763  0.7047
  123SOL    HW2  369   0.601   2.041   0.529  2.0975 -0.0572 -1.2880
  124SOL     OW  370   2.586   0.632   0.131 -0.1480 -0.3598 -0.4460
  124SOL    HW1  371   2.537   0.558   0.083  0.8413 -0.3025 -1.6599
  124SOL    HW2  372   2.628   0.602   0.221 -0.2153  0.5551 -0.3445
  125SOL     OW  373   0.348   0.865   0.552 -0.2289  0.3367  0.3082
  125SOL    HW1  374   0.433   0.870   0.614  1.0755 -0.8938  3.9775
  125SOL    HW2  375   0.354   0.783   0.490  2.2451  0.4359  0.3027
  126SOL     OW  376   0.193   1.780   1.084 -0.0754  0.6780 -0.0252
  126SOL    HW1  377   0.242   1.734   1.164  0.6958  0.4562  2.7456
  126SOL    HW2  378   0.189   1.880   1.096 -0.6987 -2.2844  1.1536
  127SOL     OW  379   1.150   2.069   2.092 -0.0484  0.5620  0.0401
  127SOL    HW1  380   1.075   1.998   2.116 -1.5247 -1.2193 -1.0441
  127SOL    HW2  381   1.146   2.090   1.993  0.4212 -1.3961 -1.1492
  128SOL     OW  382   1.135   1.209   0.213 -0.1415  0.7356  0.3099
  128SOL    HW1  383   1.132   1.291   0.160  1.3416 -3.4353  4.6846
  128SOL    HW2  384   1.170   1.222   0.309  2.3385  1.1284  1.6597
  129SOL     OW  385   2.227   1.220   0.656  0.8609 -0.1821  0.2029
  129SOL    HW1  386   2.271   1.247   0.742  0.8982 -0.3285 -1.2223
  129SOL    HW2  387   2.239   1.118   0.653 -1.3349 -1.6993 -0.6818
  130SOL     OW  388   2.580   1.601   1.414 -0.0850  0.2654 -0.4925
  130SOL    HW1  389   2.682   1.598   1.397 -0.2940 -0.7407  0.3926
  130SOL    HW2  390   2.532   1.524   1.362  1.0304 -0.9966  0.9913
  131SOL     OW  391   0.120   2.852   2.877  0.8388 -0.1855 -0.1798
  131SOL    HW1  392   0.149   2.935   2.927  3.0014 -1.5261  1.0527
  131SOL    HW2  393   0.078   2.870   2.783 -0.6921  2.1759  2.4302
  132SOL     OW  394   0.314   1.464   0.732  0.6726  0.0776 -0.2289
  132SOL    HW1  395   0.392   1.413   0.689  1.7262  1.9784  0.8111
  132SOL    HW2  396   0.227   1.425   0.699  0.8852  0.7537 -2.2242
  133SOL     OW  397   0.791   0.447   1.551  0.4906 -0.2740  0.2175
  133SOL    HW1  398   0.717   0.476   1.613  2.8330  0.2561 -2.0382
  133SOL    HW2  399   0.847   0.371   1.585 -0.4146 -1.7900 -0.5003
  134SOL     OW  400   0.106   1.847   2.913 -0.3288  0.1136  0.3740
  134SOL    HW1  401   0.152   1.823   3.000 -3.6880  3.5864 -0.2534
  134SOL    HW2  402   0.132   1.939   2.877 -0.3759 -0.1572  2.1286
  135SOL     OW  403   1.666   0.509   1.707 -0.4314 -0.0908  0.2932
  135SOL    HW1  404   1.745   0.527   1.646 -0.1893 -1.2903  2.0609
  135SOL    HW2  405   1.691   0.503   1.805 -2.1069 -1.2092 -0.9283
  136SOL     OW  406   3.019   1.258   0.259 -0.1918  0.1479 -0.8873
  136SOL    HW1  407   3.079   1.198   0.316  0.8704 -0.8717 -0.4109
  136SOL    HW2  408   2.972   1.194   0.196 -0.0358 -1.6132  1.7280
  137SOL     OW  409   0.125   1.265   0.977 -0.2653  0.2197 -0.4576
  137SOL    HW1  410   0.185   1.242   0.899  1.3381  1.9814  2.3853
  137SOL    HW2  411   0.124   1.364   0.991  2.1153 -1.0276 -0.0401
  138SOL     OW  412   2.024   0.727   1.168 -0.0961 -0.5743 -0.0221
  138SOL    HW1  413   2.096   0.703   1.102  0.2565  0.4784 -3.5766
  138SOL    HW2  414   1.951   0.768   1.115 -0.9428  2.4605  1.0738
  139SOL     OW  415   1.492   2.753   0.290 -0.5527  0.5386 -0.6230
  139SOL    HW1  416   1.496   2.665   0.342  1.2767 -2.0933 -0.9362
  139SOL    HW2  417   1.399   2.788   0.271  1.1042  0.7380  1.2945
  140SOL     OW  418   1.381   1.473   1.755  0.2846 -0.5173  0.0637
  140SOL    HW1  419   1.352   1.566   1.793 -0.1657  2.3297  1.3742
  140SOL    HW2  420   1.299   1.417   1.741  0.8936  2.4729  2.3764
  141SOL     OW  421   1.503   2.108   0.368 -0.1116 -0.1018 -0.1590
  141SOL    HW1  422   1.586   2.099   0.424 -1.9140  1.0541 -1.0062
  141SOL    HW2  423   1.490   2.013   0.332  1.3713 -2.3241  0.9726
  142SOL     OW  424   1.007   0.513   0.164  0.4875 -0.0175 -0.1450
  142SOL    HW1  425   1.073   0.557   0.101  0.0540  2.2102  1.6948
  142SOL    HW2  426   0.997   0.560   0.253  0.6486 -1.2187  0.2902
  143SOL     OW  427   0.427   2.049   2.728 -0.3067  0.3162  0.2117
  143SOL    HW1  428   0.365   2.126   2.766 -0.9790  0.2670 -1.6761
  143SOL    HW2  429   0.415   2.042   2.629  0.7828 -0.4941  0.8766
  144SOL     OW  430   1.573   2.926   1.195  0.0014 -0.2098 -0.3777
  144SOL    HW1  431   1.631   2.844   1.207  0.9836 -2.0873 -1.2884
  144SOL    HW2  432   1.504   2.903   1.124 -0.9579  1.3500  0.6420
  145SOL     OW  433   1.825   1.043   2.754 -0.4730  0.3765 -0.0419
  145SOL    HW1  434   1.888   1.042   2.837  0.2790 -1.9575  2.0521
  145SOL    HW2  435   1.736   1.084   2.779 -0.7981 -1.8544  0.7098
  146SOL     OW  436   0.333   2.513   0.893  0.1124  0.0236  0.0176
  146SOL    HW1  437   0.310   2.613   0.893 -0.0376  1.4895  1.3011
  146SOL    HW2  438   0.249   2.457   0.886  2.1413 -0.5062 -1.2857
  147SOL     OW  439   2.249   2.997   1.784 -0.1557  0.2487 -0.4858
  147SOL    HW1  440   2.164   3.051   1.788  3.3698  0.2321 -2.1071
  147SOL    HW2  441   2.325   3.059   1.787 -1.5882  0.5819 -1.1267
  148SOL     OW  442   0.759   2.834   2.029  0.3463  0.4273  0.2623
  148SOL    HW1  443   0.795   2.917   1.975  0.3107  2.1099  0.7004
  148SOL    HW2  444   0.660   2.818   1.990 -2.2524 -0.6504 -0.9616
  149SOL     OW  445   1.937   0.245   2.558 -0.0287  0.6352 -0.9528
  149SOL    HW1  446   1.839   0.262   2.535 -0.7124 -0.7206  1.1418
  149SOL    HW2  447   1.991   0.238   2.471 -1.4569  2.7169  1.3308
  150SOL     OW  448   3.055   0.122   0.268 -0.6680 -0.1829  0.7581
  150SOL    HW1  449   2.959   0.093   0.253  2.9998 -1.0359 -1.0330
  150SOL    HW2  450   3.055   0.201   0.332  1.7708 -1.4470  1.4569
  151SOL     OW  451   0.543   1.961   0.387  0.6694 -0.0319  0.2553
  151SOL    HW1  452   0.459   1.911   0.407  2.0453 -1.1036  0.1073
  151SOL    HW2  453   0.569   1.954   0.289 -2.8623  0.0186  1.0385
  152SOL     OW  454   2.838   0.422   0.670  0.0951  0.3057 -0.0150
  152SOL    HW1  455   2.886   0.417   0.758 -2.7896  1.5970 -1.2210
  152SOL    HW2  456   2.831   0.518   0.640  1.0068 -0.9064 -1.3173
  153SOL     OW  457   2.583   0.538   1.206 -0.1938  0.3648  0.9340
  153SOL    HW1  458   2.508   0.540   1.267  5.4768 -0.3422 -1.5368
  153SOL    HW2  459   2.614   0.444   1.191 -2.4514  0.7565 -0.2813
  154SOL     OW  460   1.107   0.013   2.193 -0.4325 -0.0730  0.1244
  154SOL    HW1  461   1.123   0.104   2.151 -1.4132  0.6281 -1.9829
  154SOL    HW2  462   1.192   3.099   2.241  0.2656 -2.0306  0.2534
  155SOL     OW  463   0.677   1.876   0.963  0.0184  0.3492  0.2493
  155SOL    HW1  464   0.596   1.903   0.906  1.1484 -1.5007  1.5211
  155SOL    HW2  465   0.668   1.908   1.059 -1.7705 -1.9071 -0.6928
  156SOL     OW  466   2.461   2.135   0.220  0.6153 -0.1368 -0.1443
  156SOL    HW1  467   2.387   2.201   0.195  0.6040 -0.6278  0.7842
  156SOL    HW2  468   2.456   2.108   0.315  2.5002  0.5196 -1.3131
  157SOL     OW  469   0.915   0.703   0.362  0.1294  0.3209 -0.1558
  157SOL    HW1  470   0.870   0.710   0.453 -0.8837 -0.4880 -3.1944
  157SOL    HW2  471   0.850   0.692   0.289  3.5389 -0.1898  2.0357
  158SOL     OW  472   2.562   3.046   2.760 -0.1572 -0.1887  0.1804
  158SOL    HW1  473   2.623   3.047   2.844  3.5804  0.8511  4.0076
  158SOL    HW2  474   2.504   0.015   2.757 -1.9535  0.9217 -3.6100
  159SOL     OW  475   0.150   0.359   0.867 -0.1236 -0.3266  0.3810
  159SOL    HW1  476   0.176   0.363   0.769 -0.0443 -1.5824  2.2456
  159SOL    HW2  477   0.179   0.272   0.910 -0.9606 -1.2850 -0.0871
  160SOL     OW  478   1.509   1.829   2.363  0.1244  0.8117 -0.6963
  160SOL    HW1  479   1.486   1.761   2.435  3.3764  0.4409  1.5303
  160SOL    HW2  480   1.436   1.901   2.354 -0.2746  0.5330 -1.8788
  161SOL     OW  481   2.914   0.992   2.663 -0.2730  0.4379  0.2756
  161SOL    HW1  482   2.873   0.899   2.662  0.4300  0.3403 -0.3049
  161SOL    HW2  483   2.943   1.020   2.753 -0.5258  0.6481 -2.3011
  162SOL     OW  484   0.532   2.283   1.559  0.6072  0.5167 -0.0443
  162SOL    HW1  485   0.559   2.186   1.589 -1.7222 -0.9202 -0.9842
  162SOL    HW2  486   0.591   2.306   1.479 -0.8982 -3.6064  2.0303
  163SOL     OW  487   2.084   0.200   2.315 -0.1991  0.1779  0.1834
  163SOL    HW1  488   2.118   0.108   2.291  0.1121  2.5020 -0.3680
  163SOL    HW2  489   2.069   0.260   2.232  0.1177  0.5047  1.1306
  164SOL     OW  490   1.937   1.755   0.353  0.4914  0.0275  0.1310
  164SOL    HW1  491   1.845   1.760   0.402 -2.0631 -1.3128  0.8103
  164SOL    HW2  492   1.928   1.687   0.280 -1.3705  1.5367 -0.5688
  165SOL     OW  493   2.777   0.058   1.530 -0.1925  0.4599 -0.9465
  165SOL    HW1  494   2.832   3.089   1.544  1.1980  1.0079 -2.0789
  165SOL    HW2  495   2.804   0.107   1.443 -0.5837 -0.0226  0.0032
  166SOL     OW  496   2.000   1.065   2.977 -0.3701  0.1754  0.2325
  166SOL    HW1  497   2.090   1.065   3.024 -0.6812 -0.1709  0.0027
  166SOL    HW2  498   1.922   1.077   3.048 -0.9750 -1.1999  0.5998
  167SOL     OW  499   2.923   0.809   0.083  0.2819 -0.1977 -0.8272
  167SOL    HW1  500   2.916   0.705   0.080 -1.5601 -0.0982 -0.6351
  167SOL    HW2  501   2.990   0.843   0.016 -1.5769 -0.2863 -1.1802
  168SOL     OW  502   1.641   2.839   2.628 -0.2410  0.4215 -0.0515
  168SOL    HW1  503   1.591   2.929   2.638 -1.3322 -0.1627  1.5147
  168SOL    HW2  504   1.646   2.790   2.714 -0.4696 -0.3174 -2.7127
  169SOL     OW  505   0.389   1.690   0.389  0.6884 -0.3167  0.5570
  169SOL    HW1  506   0.478   1.677   0.341  0.6809 -0.8946  2.0614
  169SOL    HW2  507   0.347   1.595   0.398 -0.9007 -1.3409 -0.5758
  170SOL     OW  508   0.346   0.360   1.228 -0.1579  0.7316 -0.0559
  170SOL    HW1  509   0.358   0.354   1.328  0.0284  0.0379 -1.0570
  170SOL    HW2  510   0.430   0.325   1.185  0.1658  0.6248  1.4205
  171SOL     OW  511   1.228   2.158   2.880  0.2622  0.1951  0.4203
  171SOL    HW1  512   1.266   2.105   2.803 -0.0727  2.7643  0.6741
  171SOL    HW2  513   1.202   2.254   2.846  0.5841  2.0925 -0.0047
  172SOL     OW  514   2.966   2.754   1.111  0.2192  0.0979  0.5039
  172SOL    HW1  515   2.931   2.659   1.093  1.8658  0.2416 -1.2349
  172SOL    HW2  516   3.013   2.765   1.202 -0.2685  0.5228  0.5752
  173SOL     OW  517   1.594   0.780   2.717  0.0027  0.4824 -0.2439
  173SOL    HW1  518   1.644   0.809   2.805  0.7343  0.1648  1.0893
  173SOL    HW2  519   1.634   0.694   2.681 -0.5754 -0.1013  1.3300
  174SOL     OW  520   1.238   0.036   2.981 -0.6675 -0.1304  0.9614
  174SOL    HW1  521   1.186   3.101   3.049 -0.8343  0.0986 -1.3733
  174SOL    HW2  522   1.340   0.041   2.996  2.0220  0.1501 -2.4830
  175SOL     OW  523   2.258   2.020   0.636  0.1139  0.1379 -0.2322
  175SOL    HW1  524   2.185   2.089   0.653 -0.0700 -0.5632  0.2999
  175SOL    HW2  525   2.269   1.957   0.715 -1.8365  1.9988 -0.0970
  176SOL     OW  526   1.518   0.025   3.033 -0.0741 -0.8254  0.0391
  176SOL    HW1  527   1.539   0.092   3.108  2.1539 -0.0530  0.9889
  176SOL    HW2  528   1.590   0.040   2.958  1.3844  2.1299  0.1184
  177SOL     OW  529   1.049   1.579   0.301 -0.1491 -0.8943  0.3651
  177SOL    HW1  530   1.057   1.684   0.307 -1.0752  0.2456 -0.7703
  177SOL    HW2  531   1.068   1.553   0.204 -0.2271 -0.3059 -4.3452
  178SOL     OW  532   2.434   2.345   3.020 -0.2121  0.5944 -0.5954
  178SOL    HW1  533   2.421   2.440   2.989 -0.8305 -0.8941 -0.3349
  178SOL    HW2  534   2.477   2.345   3.114  1.1828  0.7664  0.0618
  179SOL     OW  535   2.688   2.767   2.959 -0.4787 -0.2324  0.1131
  179SOL    HW1  536   2.709   2.667   2.938  0.1481  1.6536 -0.7204
  179SOL    HW2  537   2.728   2.829   2.892  0.9875 -0.3157  0.6278
  180SOL     OW  538   1.720   1.550   1.063  0.3777 -0.6201  0.2171
  180SOL    HW1  539   1.737   1.640   1.117 -0.3923  1.1675  3.0354
  180SOL    HW2  540   1.803   1.493   1.061 -1.3301  0.1693  0.8336
  181SOL     OW  541   1.848   0.731   2.394  0.3077 -0.0182  0.3449
  181SOL    HW1  542   1.831   0.832   2.372  0.2241  0.6513  2.2593
  181SOL    HW2  543   1.781   0.671   2.348 -0.5020 -0.2334  2.2568
  182SOL     OW  544   2.664   2.995   2.504 -0.6739  0.5364 -0.4113
  182SOL    HW1  545   2.584   2.997   2.438  0.8877 -0.8452  0.4267
  182SOL    HW2  546   2.623   3.007   2.597  1.1831 -2.6069 -1.6400
  183SOL     OW  547   1.684   0.552   2.267  1.2620  0.2846 -0.1913
  183SOL    HW1  548   1.621   0.586   2.189 -1.1893  0.3063 -1.8560
  183SOL    HW2  549   1.721   0.461   2.242  2.8202  0.6227  0.8601
  184SOL     OW  550   0.210   1.201   1.230  0.2870 -0.3530  0.1666
  184SOL    HW1  551   0.199   1.223   1.132  2.1194 -0.8343  1.8727
  184SOL    HW2  552   0.220   1.100   1.249  0.2505 -0.1076  1.4157
  185SOL     OW  553   2.074   0.550   0.538 -0.1153 -0.2698 -0.2115
  185SOL    HW1  554   2.120   0.616   0.599 -1.3122 -2.2530  2.6182
  185SOL    HW2  555   2.000   0.516   0.593  0.1625 -0.7558  1.2125
  186SOL     OW  556   0.394   2.664   3.116  0.4910 -0.7745  0.0103
  186SOL    HW1  557   0.463   2.629   0.061 -1.9789 -0.2508 -3.3128
  186SOL    HW2  558   0.385   2.765   0.011  2.1869 -1.6404 -1.4890
  187SOL     OW  559   2.302   0.879   2.974  0.1389 -0.0031 -0.6119
  187SOL    HW1  560   2.318   0.915   2.877  1.8896  1.5816 -2.7197
  187SOL    HW2  561   2.393   0.866   3.017  0.4324 -1.2237  0.3916
  188SOL     OW  562   3.103   1.526   1.313  0.4233  0.6089 -0.1018
  188SOL    HW1  563   3.075   1.433   1.341  1.2426  1.5696 -2.2274
  188SOL    HW2  564   0.057   1.557   1.379  1.1474  0.2074 -1.2975
  189SOL     OW  565   2.601   0.263   3.096  0.5809 -0.3239 -1.1564
  189SOL    HW1  566   2.515   0.301   3.056  2.5239  0.6458 -3.0427
  189SOL    HW2  567   2.669   0.337   0.000 -1.5269  2.5725 -0.6759
  190SOL     OW  568   1.339   1.013   1.902 -0.1176  0.4471  0.1871
  190SOL    HW1  569   1.342   0.940   1.974  1.6875 -0.5925 -0.9332
  190SOL    HW2  570   1.391   1.097   1.927  2.5811 -2.6605  1.1038
  191SOL     OW  571   0.280   0.281   1.885 -0.4886  0.2780  0.5439
  191SOL    HW1  572   0.276   0.228   1.791 -1.5367 -1.4938 -0.6096
  191SOL    HW2  573   0.193   0.327   1.894 -0.0032 -1.4669  1.8043
  192SOL     OW  574   2.056   1.410   1.236  0.3768  0.9016 -0.4198
  192SOL    HW1  575   2.006   1.377   1.155  1.0396  1.8316  2.1894
  192SOL    HW2  576   2.076   1.507   1.213 -0.0164 -1.2950  1.6555
  193SOL     OW  577   1.583   0.798   1.018  0.3364  0.7804 -0.4799
  193SOL    HW1  578   1.530   0.868   0.963  0.7730  1.1577  0.1872
  193SOL    HW2  579   1.533   0.755   1.096 -0.5255 -0.5496 -3.3485
  194SOL     OW  580   0.919   2.357   1.809 -0.0313 -0.4507 -0.2242
  194SOL    HW1  581   0.984   2.401   1.742  0.3453  0.0391 -0.2821
  194SOL    HW2  582   0.830   2.408   1.821 -1.2325 -0.3799 -1.4666
  195SOL     OW  583   1.914   0.135   3.032 -0.4456 -0.6225  0.2724
  195SOL    HW1  584   1.967   0.144   2.941  2.5473 -0.3155 -1.1039
  195SOL    HW2  585   1.932   0.039   3.064 -0.1332 -1.3789  0.5415
  196SOL     OW  586   0.844   1.953   1.852  0.4215  0.2331  0.6247
  196SOL    HW1  587   0.925   1.920   1.796 -0.4610  1.5209 -1.3119
  196SOL    HW2  588   0.850   1.914   1.948  0.6677  2.2757 -1.9800
  197SOL     OW  589   1.087   0.264   1.284 -0.1074  0.0351  0.5325
  197SOL    HW1  590   1.163   0.204   1.249  0.9360 -0.4716 -2.9544
  197SOL    HW2  591   1.055   0.327   1.214 -0.0457 -0.9655 -2.3928
  198SOL     OW  592   0.914   0.864   0.882 -0.2446  0.4094  0.4482
  198SOL    HW1  593   0.929   0.928   0.961 -1.5677 -1.0086  0.3823
  198SOL    HW2  594   0.858   0.784   0.909  0.1203  1.9352  1.5876
  199SOL     OW  595   0.079   2.590   1.704 -0.1348  0.2516  0.4123
  199SOL    HW1  596   0.086   2.694   1.709  0.1650  2.1436  1.6913
  199SOL    HW2  597   0.005   2.565   1.642 -2.5369  2.1377 -2.0391
  200SOL     OW  598   2.033   2.088   2.051 -0.3900 -0.0306  0.1979
  200SOL    HW1  599   1.969   2.126   1.984 -0.8352  1.6100  1.9159
  200SOL    HW2  600   2.124   2.138   2.055  0.7522  2.3513  1.4575
  201SOL     OW  601   0.276   1.459   1.908  0.1219 -0.2799  0.4182
  201SOL    HW1  602   0.177   1.428   1.891  0.6209 -1.0253 -1.9250
  201SOL    HW2  603   0.336   1.382   1.936  0.5057  1.3997 -3.9589
  202SOL     OW  604   2.233   0.583   0.325  0.6141  0.1556 -0.3769
  202SOL    HW1  605   2.215   0.515   0.254  0.0660  2.7698  1.2571
  202SOL    HW2  606   2.181   0.555   0.412 -3.6681 -0.3473  3.7890
  203SOL     OW  607   1.011   2.487   2.051  0.7671 -0.3997 -0.3362
  203SOL    HW1  608   0.936   2.522   2.113  0.0124 -1.2071  2.0248
  203SOL    HW2  609   0.966   2.429   1.980  0.8169 -0.1295  0.9845
  204SOL     OW  610   1.110   2.139   1.834  0.6978 -0.1534  0.5030
  204SOL    HW1  611   1.153   2.151   1.741 -2.2766 -0.4187 -3.5304
  204SOL    HW2  612   1.026   2.195   1.836  0.8233  0.3983  1.7622
  205SOL     OW  613   1.601   1.839   2.094  0.3298  0.2472 -0.1765
  205SOL    HW1  614   1.524   1.805   2.040 -0.7087  1.4801  0.2114
  205SOL    HW2  615   1.569   1.854   2.195 -0.4282  1.1110  0.4597
  206SOL     OW  616   0.401   0.634   2.457 -0.0070 -0.1552  0.1031
  206SOL    HW1  617   0.320   0.581   2.498 -1.2278  0.3287 -0.9487
  206SOL    HW2  618   0.467   0.667   2.530  1.0200 -1.8930 -0.0496
  207SOL     OW  619   0.928   2.759   1.791 -0.8601  0.4605 -0.0446
  207SOL    HW1  620   0.879   2.848   1.795 -1.3646  1.7672 -0.6644
  207SOL    HW2  621   0.990   2.745   1.705  1.4592 -1.4912  0.7397
  208SOL     OW  622   0.500   2.812   1.957  0.1932  0.1171  0.1594
  208SOL    HW1  623   0.475   2.716   1.977  0.9080 -0.1070  0.3452
  208SOL    HW2  624   0.533   2.821   1.860  2.0646 -0.2749 -3.2483
  209SOL     OW  625   1.390   0.516   3.033  0.1958 -0.9780 -0.3793
  209SOL    HW1  626   1.472   0.580   3.031  1.5424  1.6269 -1.2236
  209SOL    HW2  627   1.325   0.514   2.952 -0.1824  0.3034  2.1535
  210SOL     OW  628   2.833   0.667   0.563 -0.3506  0.3532  0.5584
  210SOL    HW1  629   2.788   0.712   0.643  3.7488  1.4474  0.0450
  210SOL    HW2  630   2.908   0.725   0.525 -0.4994  0.2318  0.0691
  211SOL     OW  631   0.769   0.507   1.271  0.6031 -0.3867  0.4741
  211SOL    HW1  632   0.781   0.609   1.271  0.8407 -0.6025  2.9158
  211SOL    HW2  633   0.786   0.475   1.366 -2.5918  2.2933  1.4871
  212SOL     OW  634   1.425   1.971   1.269  0.6101 -0.0154 -0.1468
  212SOL    HW1  635   1.476   1.987   1.177 -1.3346  0.1299 -0.1776
  212SOL    HW2  636   1.464   1.891   1.318  1.0630 -0.4705 -0.1572
  213SOL     OW  637   2.156   0.327   1.722 -0.7588  0.3920  0.0446
  213SOL    HW1  638   2.228   0.256   1.738  1.4850 -0.4895  1.0697
  213SOL    HW2  639   2.194   0.423   1.748 -0.1486  1.3100 -0.5519
  214SOL     OW  640   0.931   2.454   2.803  0.0094  0.2930  0.0926
  214SOL    HW1  641   0.881   2.486   2.890 -0.4496  1.1295 -0.1406
  214SOL    HW2  642   0.875   2.393   2.742 -1.6002 -1.6307 -0.5415
  215SOL     OW  643   2.909   1.521   1.588  0.0516 -0.1305 -0.5549
  215SOL    HW1  644   2.874   1.555   1.497 -2.2328  0.2803 -0.6914
  215SOL    HW2  645   2.989   1.575   1.620  1.0199  0.3936 -2.2952
  216SOL     OW  646   0.557   0.907   1.419  0.2133 -0.7747  0.4453
  216SOL    HW1  647   0.487   0.975   1.453 -3.1728  0.8206  2.4746
  216SOL    HW2  648   0.528   0.867   1.330  0.4268 -0.0832 -2.7745
  217SOL     OW  649   2.693   0.239   0.291 -0.2462  0.7266 -0.2532
  217SOL    HW1  650   2.731   0.203   0.379  2.4777  0.3014  1.1624
  217SOL    HW2  651   2.724   0.333   0.285 -2.5305 -3.2109  0.6654
  218SOL     OW  652   1.663   2.000   1.113  0.4873  0.2486 -0.6023
  218SOL    HW1  653   1.734   2.060   1.077 -2.8456  0.0093  0.0002
  218SOL    HW2  654   1.704   1.912   1.150 -0.2437 -2.0955  0.2035
  219SOL     OW  655   1.637   0.166   0.420  0.6982 -0.1951 -0.5730
  219SOL    HW1  656   1.620   0.066   0.419  0.3445  2.5703  0.0923
  219SOL    HW2  657   1.727   0.194   0.451 -2.5019 -2.7274  0.5789
  220SOL     OW  658   1.496   2.118   0.879 -0.1255 -0.0243 -0.1283
  220SOL    HW1  659   1.461   2.035   0.833  2.2463 -1.1282 -1.9584
  220SOL    HW2  660   1.568   2.092   0.943  0.1878  3.0852 -1.1216
  221SOL     OW  661   2.815   1.023   0.205  0.1591 -0.5344 -0.6758
  221SOL    HW1  662   2.770   1.088   0.140 -0.1689 -0.9226 -0.7935
  221SOL    HW2  663   2.858   0.947   0.156 -0.6939  1.4586  0.1115
  222SOL     OW  664   0.769   2.441   1.408 -0.4087 -0.2152 -0.3586
  222SOL    HW1  665   0.752   2.514   1.479  1.4459 -0.7813  1.3117
  222SOL    HW2  666   0.831   2.471   1.331  3.0013 -0.3622 -0.4933
  223SOL     OW  667   1.429   0.327   0.104 -0.3952 -0.5262  0.4807
  223SOL    HW1  668   1.391   0.377   0.180  1.1111  0.0797 -2.9397
  223SOL    HW2  669   1.415   0.389   0.021  0.0961 -0.9959 -2.8816
  224SOL     OW  670   2.894   0.843   1.062 -0.5030  0.2297  0.6161
  224SOL    HW1  671   2.824   0.873   1.121 -0.0893 -0.2015 -1.6773
  224SOL    HW2  672   2.921   0.925   1.012 -1.6775 -1.1581  0.0369
  225SOL     OW  673   0.798   1.553   1.330  0.0076  0.4811 -0.0527
  225SOL    HW1  674   0.879   1.533   1.274 -2.6179  1.5378  0.9692
  225SOL    HW2  675   0.748   1.468   1.354 -2.6725 -0.2185 -0.6715
  226SOL     OW  676   0.732   2.748   0.680 -0.5428  0.1429 -0.4195
  226SOL    HW1  677   0.676   2.823   0.725  2.1759  1.8464 -0.9798
  226SOL    HW2  678   0.798   2.715   0.748  1.4381 -0.7897 -0.7074
  227SOL     OW  679   1.308   1.806   1.585 -1.0574 -0.2486 -0.1709
  227SOL    HW1  680   1.240   1.760   1.644  1.0234 -1.2817 -1.2315
  227SOL    HW2  681   1.368   1.865   1.646  1.0923  0.8695  1.9995
  228SOL     OW  682   0.928   0.254   1.657  0.6029  0.1102  0.5187
  228SOL    HW1  683   0.879   0.228   1.742 -0.2785  1.9976 -2.1416
  228SOL    HW2  684   1.000   0.187   1.645 -3.1421  0.5967 -0.7157
  229SOL     OW  685   2.740   0.502   3.064 -0.2827 -0.5472  0.3455
  229SOL    HW1  686   2.699   0.572   0.003  0.5090 -3.9075  0.3781
  229SOL    HW2  687   2.835   0.497   3.094  0.3077 -0.2071  0.4208
  230SOL     OW  688   0.242   0.682   1.378  0.3437 -0.1189  0.0199
  230SOL    HW1  689   0.277   0.632   1.298 -1.2973 -1.5204  0.7327
  230SOL    HW2  690   0.174   0.627   1.431  0.1049  2.4542 -1.7046
  231SOL     OW  691   0.984   3.108   1.333 -0.5511  0.1306  0.1592
  231SOL    HW1  692   0.916   3.116   1.259  4.4128  1.1649  1.0799
  231SOL    HW2  693   1.006   0.086   1.353 -0.8574 -0.9596 -2.9800
  232SOL     OW  694   3.110   2.227   0.449  0.2708  0.2636 -0.1764
  232SOL    HW1  695   0.086   2.183   0.468  0.0454 -1.5874 -0.6396
  232SOL    HW2  696   0.007   2.268   0.356  0.7038 -1.8695  2.8833
  233SOL     OW  697   1.332   2.453   3.055 -0.0174  0.5379 -0.1728
  233SOL    HW1  698   1.309   2.416   2.964  0.3149 -0.8189  0.4033
  233SOL    HW2  699   1.411   2.516   3.057  0.3242 -1.1804 -1.5227
  234SOL     OW  700   0.675   1.173   1.902 -0.5940 -0.4754 -0.3095
  234SOL    HW1  701   0.667   1.081   1.862  0.7157  1.4054  0.0302
  234SOL    HW2  702   0.730   1.174   1.989  0.9310 -0.4300  1.7011
  235SOL     OW  703   0.111   2.343   2.680 -0.0764 -0.1579  0.2736
  235SOL    HW1  704   0.148   2.373   2.583 -0.9122 -0.7353 -3.4193
  235SOL    HW2  705   0.033   2.405   2.709 -2.5543  0.8332 -0.6394
  236SOL     OW  706   1.717   2.265   2.652 -0.0938 -0.2227 -0.2569
  236SOL    HW1  707   1.661   2.223   2.727 -1.0548 -0.2267  0.2871
  236SOL    HW2  708   1.680   2.238   2.557 -0.6713 -1.6468 -1.7371
  237SOL     OW  709   1.996   1.013   0.874 -0.0983  0.2278  0.2008
  237SOL    HW1  710   1.945   0.930   0.905 -2.7687 -0.9641  1.0111
  237SOL    HW2  711   1.925   1.063   0.814 -0.7431  0.0824 -0.5105
  238SOL     OW  712   1.110   2.729   1.994 -0.3416 -0.1559 -0.0108
  238SOL    HW1  713   1.089   2.629   2.009 -1.6465 -1.2201 -1.6993
  238SOL    HW2  714   1.037   2.755   1.934  1.7051 -1.6394 -2.4446
  239SOL     OW  715   0.487   2.459   1.998 -0.0347  0.3540  0.3846
  239SOL    HW1  716   0.441   2.386   1.944  1.1484  0.3256 -1.0582
  239SOL    HW2  717   0.578   2.471   1.959 -0.4208  1.9229  0.2852
  240SOL     OW  718   2.746   0.194   0.584  0.1674  0.2655 -0.3735
  240SOL    HW1  719   2.803   0.118   0.618 -0.3261 -0.4988 -1.0615
  240SOL    HW2  720   2.768   0.286   0.619 -0.8538 -3.5138  0.0175
  241SOL     OW  721   1.187   1.718   2.990  0.4167  0.0987 -0.3665
  241SOL    HW1  722   1.100   1.734   3.039  2.3449  0.7381 -1.1656
  241SOL    HW2  723   1.204   1.617   2.976 -1.1464 -0.4972  0.1756
  242SOL     OW  724   2.530   0.857   0.007 -0.1112  0.0565  0.1715
  242SOL    HW1  725   2.551   0.765   0.044 -1.1287  0.3949 -4.4514
  242SOL    HW2  726   2.606   0.891   3.061 -2.0381  1.6366 -2.5595
  243SOL     OW  727   0.824   0.499   1.921 -0.0018 -0.2915  0.7291
  243SOL    HW1  728   0.783   0.592   1.916 -1.7593  1.5295  0.6598
  243SOL    HW2  729   0.903   0.495   1.850  2.5033  2.6010 -0.9162
  244SOL     OW  730   1.557   2.624   3.104  0.0611  0.1313 -1.1984
  244SOL    HW1  731   1.511   2.714   3.114  2.0826  2.5125 -1.5717
  244SOL    HW2  732   1.610   2.609   0.074  0.0363  0.2382  3.6105
  245SOL     OW  733   1.813   2.482   0.094  0.1694  0.3631  0.5330
  245SOL    HW1  734   1.722   2.443   0.114  1.3143  0.1766  1.2085
  245SOL    HW2  735   1.885   2.456   0.164  0.7533 -2.9110  1.4985
  246SOL     OW  736   0.971   1.032   2.271 -0.4643  0.2412 -0.8770
  246SOL    HW1  737   1.024   0.968   2.212 -0.1874  0.2218  1.1272
  246SOL    HW2  738   0.884   0.991   2.295  1.7656 -0.5676  0.9549
  247SOL     OW  739   0.152   0.776   2.849 -0.4159 -0.1696  0.1179
  247SOL    HW1  740   0.135   0.833   2.764  0.3384  0.2814  0.4577
  247SOL    HW2  741   0.124   0.677   2.838 -0.6270 -0.6780 -0.8075
  248SOL     OW  742   0.162   0.982   1.888 -0.4503  0.3507 -0.5818
  248SOL    HW1  743   0.069   0.989   1.924 -2.6829  1.0209  0.3410
  248SOL    HW2  744   0.227   0.994   1.968 -0.3020 -0.5602 -1.9159
  249SOL     OW  745   3.023   0.314   0.465 -0.1883 -0.1384  0.2474
  249SOL    HW1  746   3.095   0.390   0.474  0.2021 -1.0437  1.0341
  249SOL    HW2  747   2.957   0.330   0.540 -2.2673  1.0680  1.1540
  250SOL     OW  748   2.971   3.028   3.083 -0.3333 -0.0222  0.0133
  250SOL    HW1  749   3.065   3.063   3.089  0.8789 -1.8713  0.8936
  250SOL    HW2  750   2.977   2.926   3.075  0.7101 -1.1806 -1.4391
  251SOL     OW  751   1.179   1.667   2.076 -0.4169  0.2003  0.0301
  251SOL    HW1  752   1.181   1.607   2.161  2.0829 -0.1754  0.3660
  251SOL    HW2  753   1.103   1.639   2.014  2.2504  2.9401  1.7008
  252SOL     OW  754   2.141   1.783   1.392 -0.5204  0.4654  0.0648
  252SOL    HW1  755   2.243   1.795   1.393  0.4988 -1.5686  0.4676
  252SOL    HW2  756   2.118   1.711   1.460  0.0814 -1.6993 -1.8892
  253SOL     OW  757   1.789   2.476   2.129  0.1120  0.3743 -0.2026
  253SOL    HW1  758   1.746   2.409   2.066  0.2276  2.9327 -1.1904
  253SOL    HW2  759   1.852   2.437   2.200  1.3411  0.0758  2.3144
  254SOL     OW  760   0.695   2.223   2.216  0.0098  0.6023 -0.2355
  254SOL    HW1  761   0.657   2.314   2.237 -2.3440  2.4328 -2.0535
  254SOL    HW2  762   0.699   2.211   2.112 -1.2514  0.5020 -1.7600
  255SOL     OW  763   1.575   0.535   0.881  0.5112  0.3028 -0.5729
  255SOL    HW1  764   1.606   0.485   0.796 -1.4807 -0.1426 -2.8517
  255SOL    HW2  765   1.596   0.635   0.879 -1.2990 -1.5787  0.0227
  256SOL     OW  766   2.207   2.133   1.430  0.4531 -0.0511 -0.5104
  256SOL    HW1  767   2.210   2.230   1.437 -0.0134 -1.0647  0.2321
  256SOL    HW2  768   2.261   2.107   1.345  0.3387 -2.8625 -0.1255
  257SOL     OW  769   0.470   2.503   2.912 -0.6685  0.2745 -0.2793
  257SOL    HW1  770   0.411   2.421   2.913 -1.0463  1.2954 -0.5786
  257SOL    HW2  771   0.452   2.561   2.993 -0.4280 -0.6574 -0.9683
  258SOL     OW  772   0.597   0.844   2.106 -0.0857 -0.6329  0.5262
  258SOL    HW1  773   0.672   0.859   2.172  0.9554 -0.4062 -1.3469
  258SOL    HW2  774   0.628   0.802   2.018 -0.0374  2.0022  1.6935
  259SOL     OW  775   1.097   1.037   2.544  0.2489  0.2689 -0.3854
  259SOL    HW1  776   1.180   1.099   2.555 -1.8133  0.1257 -1.3867
  259SOL    HW2  777   1.069   1.046   2.444  1.2560 -2.6503 -0.4075
  260SOL     OW  778   2.013   0.952   0.479  0.5706 -0.1500 -0.0173
  260SOL    HW1  779   2.081   0.959   0.551 -0.2894 -1.3878 -1.7136
  260SOL    HW2  780   2.053   0.991   0.394  0.3820 -0.5530  0.4804
  261SOL     OW  781   1.054   0.099   0.455 -0.0497  0.3461  0.2581
  261SOL    HW1  782   1.066   0.156   0.376 -3.5159 -0.5326  1.1793
  261SOL    HW2  783   1.131   0.109   0.518 -0.3663 -1.4317  2.0835
  262SOL     OW  784   2.004   2.619   2.581  0.1145 -0.5647 -0.0998
  262SOL    HW1  785   2.071   2.687   2.621  1.5721 -0.0018 -1.7934
  262SOL    HW2  786   1.940   2.670   2.516 -0.8713 -0.6671 -0.7508
  263SOL     OW  787   0.296   1.668   2.854 -0.2748 -0.0175 -0.0842
  263SOL    HW1  788   0.356   1.667   2.768 -1.6145  2.8523 -1.0374
  263SOL    HW2  789   0.224   1.741   2.848  0.5022 -0.4778 -1.3413
  264SOL     OW  790   0.481   1.890   1.537  0.3114 -0.6534 -0.0577
  264SOL    HW1  791   0.390   1.903   1.489 -0.9364  0.2605 -1.7152
  264SOL    HW2  792   0.544   1.858   1.463  0.6667 -1.6200 -2.0784
  265SOL     OW  793   1.152   0.998   0.553 -0.5290 -0.6676 -0.3580
  265SOL    HW1  794   1.231   1.047   0.512  0.2746 -0.8229  0.8313
  265SOL    HW2  795   1.072   1.056   0.544  1.9763  1.1784 -1.0808
  266SOL     OW  796   1.388   1.823   0.065 -0.3809 -0.1517  0.9889
  266SOL    HW1  797   1.479   1.853   0.028  0.9326  2.6783 -0.0432
  266SOL    HW2  798   1.326   1.802   3.105  0.6252  1.7027  0.5191
  267SOL     OW  799   0.086   0.304   3.028  0.0026 -0.2736  0.0873
  267SOL    HW1  800   0.053   0.245   2.948  0.1752 -0.7900 -0.7458
  267SOL    HW2  801   0.142   0.246   3.089  1.7682  0.2274  2.3278
  268SOL     OW  802   1.021   0.373   2.804  0.9267  0.2261  0.3445
  268SOL    HW1  803   0.939   0.432   2.819 -2.2541 -0.1378 -2.4848
  268SOL    HW2  804   1.015   0.288   2.857  1.6434  2.7266  0.4701
  269SOL     OW  805   1.686   0.303   2.550 -0.3384 -0.0392 -0.4408
  269SOL    HW1  806   1.624   0.250   2.490  1.2627  0.7220 -1.1378
  269SOL    HW2  807   1.643   0.381   2.593  1.4982 -2.5598  1.1979
  270SOL     OW  808   0.817   0.592   2.692 -0.1350 -0.1530 -0.2554
  270SOL    HW1  809   0.821   0.514   2.628  3.8434 -1.3148 -0.0220
  270SOL    HW2  810   0.899   0.658   2.679  1.6099  0.8043 -2.0329
  271SOL     OW  811   0.224   0.887   0.215 -0.0843 -0.1874  0.0948
  271SOL    HW1  812   0.306   0.948   0.228  2.6214  2.2077 -3.1099
  271SOL    HW2  813   0.160   0.905   0.290 -1.0516 -0.6123 -1.8421
  272SOL     OW  814   2.174   1.173   2.783 -0.2824  0.2746  0.2371
  272SOL    HW1  815   2.237   1.102   2.745 -0.5587  3.2567 -1.7256
  272SOL    HW2  816   2.125   1.142   2.867 -0.8239 -1.2716  1.0581
  273SOL     OW  817   2.947   0.310   2.386 -0.0903  0.3253 -0.3615
  273SOL    HW1  818   3.037   0.359   2.391  2.0955 -1.2415 -1.1360
  273SOL    HW2  819   2.910   0.305   2.479 -0.5419  0.8186 -1.0718
  274SOL     OW  820   2.558   3.041   1.665  0.0964 -0.0141  0.1099
  274SOL    HW1  821   2.499   3.031   1.582  0.1782 -0.5981  2.9569
  274SOL    HW2  822   2.643   3.091   1.628 -0.9935 -0.6819 -1.7120
  275SOL     OW  823   1.851   1.581   0.166 -0.0323  0.3651  0.0459
  275SOL    HW1  824   1.846   1.597   0.068 -0.2440 -0.6873  0.9965
  275SOL    HW2  825   1.785   1.508   0.200  0.3819 -1.9078  2.7772
  276SOL     OW  826   0.267   1.214   2.791  0.6803  0.0658  0.2349
  276SOL    HW1  827   0.234   1.307   2.818 -0.3798 -0.3339 -0.1321
  276SOL    HW2  828   0.192   1.156   2.752  1.7214  1.3021 -0.0997
  277SOL     OW  829   1.789   2.752   2.164  0.5818  0.5104 -0.4848
  277SOL    HW1  830   1.780   2.659   2.134  1.9222  0.6827 -3.2591
  277SOL    HW2  831   1.730   2.767   2.249 -2.1802 -2.1844  2.9282
  278SOL     OW  832   1.910   2.987   1.229 -0.4473  0.2996  0.6972
  278SOL    HW1  833   1.864   2.897   1.249  1.4920 -2.3023 -2.3547
  278SOL    HW2  834   1.913   3.047   1.307 -0.9641 -2.4195  0.9298
  279SOL     OW  835   1.018   1.484   2.805 -0.2830 -0.0073  0.3913
  279SOL    HW1  836   1.101   1.476   2.861 -2.1389  1.6090 -1.1685
  279SOL    HW2  837   0.966   1.567   2.824 -0.9717  1.1295  0.4221
  280SOL     OW  838   0.783   1.521   0.355  0.2880  0.2426  0.1522
  280SOL    HW1  839   0.719   1.576   0.296  1.2772 -3.0717 -0.6979
  280SOL    HW2  840   0.876   1.522   0.317 -0.9858  0.6520  0.2097
  281SOL     OW  841   3.082   2.753   2.014 -0.3090 -0.3978 -0.4919
  281SOL    HW1  842   3.117   2.781   1.926 -0.5023 -1.0909  0.0941
  281SOL    HW2  843   0.042   2.708   2.068  3.3440 -2.1314 -0.0210
  282SOL     OW  844   0.161   2.072   1.124  0.1004  0.2189 -0.2651
  282SOL    HW1  845   0.254   2.064   1.092 -2.9445  2.8765  0.1277
  282SOL    HW2  846   0.107   2.106   1.046  1.4269 -0.4473 -2.2825
  283SOL     OW  847   1.330   2.413   2.370  0.2187 -0.3198  0.1117
  283SOL    HW1  848   1.307   2.393   2.271 -0.5323  0.2475 -0.7583
  283SOL    HW2  849   1.423   2.387   2.399 -1.2442  0.2224 -0.5333
  284SOL     OW  850   2.223   1.103   3.115  0.5918 -0.4293  0.0080
  284SOL    HW1  851   2.269   1.160   0.071 -1.4106  0.7879 -0.6676
  284SOL    HW2  852   2.268   1.013   3.091 -0.8626 -1.2345  1.0895
  285SOL     OW  853   2.757   2.701   2.621  0.0246  0.0955 -0.1436
  285SOL    HW1  854   2.803   2.784   2.666  0.0996 -1.5128  0.9115
  285SOL    HW2  855   2.659   2.684   2.648  1.3508  1.0457 -1.6702
  286SOL     OW  856   1.877   2.535   1.160  0.1276 -0.6319 -0.4248
  286SOL    HW1  857   1.838   2.613   1.210 -0.5700 -2.0265 -0.1637
  286SOL    HW2  858   1.795   2.473   1.140 -0.7688 -2.0049 -1.5176
  287SOL     OW  859   0.761   1.265   1.060 -0.8889 -0.3343  0.2348
  287SOL    HW1  860   0.801   1.356   1.063 -1.7097 -2.3211  0.9430
  287SOL    HW2  861   0.832   1.195   1.057 -1.2593 -1.3534  2.2813
  288SOL     OW  862   1.255   2.318   0.177  0.0506 -0.0977 -0.2098
  288SOL    HW1  863   1.228   2.385   0.249  3.5650 -0.3497 -0.8061
  288SOL    HW2  864   1.289   2.363   0.091  2.4250  0.7475 -0.4530
  289SOL     OW  865   0.093   1.974   2.491  0.6589  0.1289 -0.1179
  289SOL    HW1  866   0.091   1.877   2.460  0.0637  1.2732 -1.8043
  289SOL    HW2  867   0.186   2.015   2.489 -0.4223 -0.2556  0.5584
  290SOL     OW  868   1.097   2.232   0.892 -0.1245  0.2368  0.0109
  290SOL    HW1  869   1.133   2.215   0.797  1.3224 -2.2145 -0.0862
  290SOL    HW2  870   1.095   2.145   0.940 -0.4558 -0.2730 -0.0661
  291SOL     OW  871   1.930   1.469   2.905 -0.3186  0.0472 -0.5148
  291SOL    HW1  872   2.025   1.450   2.867  0.6233 -0.5369  1.6511
  291SOL    HW2  873   1.919   1.567   2.936  2.0933  0.3551  1.7637
  292SOL     OW  874   1.203   1.255   1.741 -0.7157  0.2943  0.1218
  292SOL    HW1  875   1.111   1.247   1.781 -3.4426 -1.5435  1.5213
  292SOL    HW2  876   1.255   1.183   1.797  1.1996 -0.4953  0.6656
  293SOL     OW  877   1.902   2.670   0.904  0.0589  0.0191 -0.3423
  293SOL    HW1  878   1.892   2.620   0.991 -3.1062 -0.0010 -0.1356
  293SOL    HW2  879   1.891   2.606   0.828  0.8473  0.1831  0.6070
  294SOL     OW  880   0.203   1.304   2.434 -0.1580 -0.5048 -0.6368
  294SOL    HW1  881   0.184   1.287   2.531  1.6054  0.1708 -1.8839
  294SOL    HW2  882   0.141   1.258   2.368 -0.0263  1.4281  0.9795
  295SOL     OW  883   0.874   2.024   3.088 -0.3253  0.0774  0.2834
  295SOL    HW1  884   0.935   2.105   3.099 -1.7350  1.3387  0.4148
  295SOL    HW2  885   0.925   1.936   3.099  0.9806  0.7351 -1.6517
  296SOL     OW  886   1.794   1.774   2.380  0.0071  0.2205  0.5367
  296SOL    HW1  887   1.842   1.815   2.303 -1.7886 -1.6734  2.7291
  296SOL    HW2  888   1.695   1.803   2.379  1.4916 -0.7198 -0.7275
  297SOL     OW  889   2.773   0.771   2.740 -0.6880 -0.2176 -0.2465
  297SOL    HW1  890   2.852   0.705   2.739  0.8782 -1.4855 -0.3184
  297SOL    HW2  891   2.697   0.730   2.687 -1.0980  2.3058  0.3380
  298SOL     OW  892   0.858   2.160   2.435  0.2428  0.3220  0.1263
  298SOL    HW1  893   0.830   2.206   2.519  1.9877  0.4066 -0.8327
  298SOL    HW2  894   0.793   2.192   2.364 -0.2722  0.4496  1.4460
  299SOL     OW  895   0.917   2.713   2.666 -0.1105  0.2073  0.2595
  299SOL    HW1  896   0.828   2.716   2.608 -2.8250  0.9409 -0.5362
  299SOL    HW2  897   0.924   2.616   2.704 -0.1237 -2.9724  0.6296
  300SOL     OW  898   2.932   0.559   0.147  0.1484 -0.2026  0.1498
  300SOL    HW1  899   2.859   0.540   0.217 -0.9380 -0.8672  2.2039
  300SOL    HW2  900   3.018   0.529   0.183 -0.8315  1.4735  2.5185
  301SOL     OW  901   1.421   0.708   1.215 -0.4389 -0.5629  0.1310
  301SOL    HW1  902   1.346   0.650   1.188  0.5706  0.1812  0.3977
  301SOL    HW2  903   1.382   0.800   1.247 -0.0596 -1.3856  0.5359
  302SOL     OW  904   2.950   1.840   2.941  0.3625 -0.2645  0.0196
  302SOL    HW1  905   2.928   1.932   2.963  2.3653 -0.0634 -0.3447
  302SOL    HW2  906   3.048   1.833   2.923 -0.5848  0.4657 -2.0559
  303SOL     OW  907   2.925   2.953   2.460  0.0198 -0.4572  0.0565
  303SOL    HW1  908   2.941   2.938   2.362  1.7892  3.1475  3.2762
  303SOL    HW2  909   2.828   2.967   2.482  0.1263 -0.9377  4.2730
  304SOL     OW  910   2.820   0.242   1.749 -0.5184 -0.8809 -0.0181
  304SOL    HW1  911   2.793   0.204   1.658 -1.6243 -1.6184  1.3595
  304SOL    HW2  912   2.846   0.175   1.817 -1.9684  3.6176  1.3052
  305SOL     OW  913   2.959   2.942   2.170  0.3839  0.4156 -0.4651
  305SOL    HW1  914   3.001   2.880   2.104 -1.0308  1.8873  1.1880
  305SOL    HW2  915   3.030   3.010   2.202 -2.7020 -0.0275 -0.3926
  306SOL     OW  916   2.674   1.224   1.445  0.2851 -0.2259  0.1318
  306SOL    HW1  917   2.746   1.150   1.458  2.2861  0.8214 -0.3297
  306SOL    HW2  918   2.597   1.225   1.514  1.9542  2.8650  1.7616
  307SOL     OW  919   2.042   0.326   1.233  0.2666 -0.1992  0.3060
  307SOL    HW1  920   2.034   0.262   1.314 -2.6174  2.3101  0.4536
  307SOL    HW2  921   1.954   0.332   1.183  3.0534 -1.1420 -0.1089
  308SOL     OW  922   0.249   2.015   1.380 -0.3944 -0.2485 -0.3685
  308SOL    HW1  923   0.222   2.035   1.282 -0.8068 -1.1267 -0.3109
  308SOL    HW2  924   0.165   1.978   1.424 -0.8076  0.2100 -1.4581
  309SOL     OW  925   2.421   1.824   1.392  0.3375  0.0103 -0.3960
  309SOL    HW1  926   2.465   1.735   1.397 -0.1176  1.3454  0.8586
  309SOL    HW2  927   2.447   1.885   1.474  1.5806  1.1762  2.1912
  310SOL     OW  928   2.853   1.634   3.080  0.2314 -0.3295  0.4025
  310SOL    HW1  929   2.905   1.711   3.032 -0.2609  2.5120 -3.0075
  310SOL    HW2  930   2.854   1.645   0.063 -0.1159 -1.6887 -0.1023
  311SOL     OW  931   2.139   1.532   2.497 -0.0569  0.2916  0.2580
  311SOL    HW1  932   2.062   1.555   2.562 -2.0508  0.3640 -0.7638
  311SOL    HW2  933   2.195   1.616   2.475  1.4062  0.7576 -0.6010
  312SOL     OW  934   2.397   2.310   0.848 -0.0915 -0.6279  0.3748
  312SOL    HW1  935   2.436   2.214   0.861 -0.5795 -1.9996  1.8857
  312SOL    HW2  936   2.458   2.368   0.788  1.4447  1.1264 -0.6201
  313SOL     OW  937   2.860   2.515   0.977 -0.4993 -0.0984  0.1893
  313SOL    HW1  938   2.792   2.446   0.992  1.3499 -0.7473 -2.3353
  313SOL    HW2  939   2.943   2.499   1.036  1.7893  0.5229  1.9866
  314SOL     OW  940   1.088   2.222   1.306  0.9827 -0.1668  0.2325
  314SOL    HW1  941   1.004   2.232   1.361  1.6123 -1.4565 -1.9766
  314SOL    HW2  942   1.087   2.129   1.267 -2.6060  3.3076  0.5927
  315SOL     OW  943   0.188   2.687   2.445  0.3786  0.1262 -0.1282
  315SOL    HW1  944   0.100   2.655   2.496 -0.5347 -1.0423  0.0489
  315SOL    HW2  945   0.202   2.785   2.470  0.2633  0.6217  0.4887
  316SOL     OW  946   0.097   1.878   0.853 -0.0394 -0.0958 -0.6123
  316SOL    HW1  947   0.139   1.831   0.937  0.9008  0.0651  0.0063
  316SOL    HW2  948   0.111   1.814   0.778 -6.1141  1.1092 -2.3963
  317SOL     OW  949   2.125   0.254   0.451 -0.6017 -0.1376 -0.0313
  317SOL    HW1  950   2.069   0.335   0.477  2.1748  0.3640  0.7845
  317SOL    HW2  951   2.122   0.185   0.524  0.8908  0.8131 -0.7376
  318SOL     OW  952   2.941   2.881   0.290 -0.5302  0.1194 -0.4834
  318SOL    HW1  953   2.988   2.841   0.208 -1.5201  0.9133 -3.8263
  318SOL    HW2  954   2.870   2.954   0.261  0.5993  0.5141 -2.1857
  319SOL     OW  955   1.082   1.422   0.063 -0.3702 -0.4076  0.3091
  319SOL    HW1  956   1.155   1.413   3.112  0.1194 -0.6629  5.9582
  319SOL    HW2  957   0.994   1.382   0.035 -3.7850  1.6203 -1.6328
  320SOL     OW  958   0.568   2.876   2.762 -0.0387 -0.4241  0.2552
  320SOL    HW1  959   0.617   2.831   2.683  0.6353  0.3955  2.3523
  320SOL    HW2  960   0.485   2.820   2.783 -1.7767  0.0928  1.4299
  321SOL     OW  961   1.060   3.025   0.033 -0.5312  0.3175  0.5390
  321SOL    HW1  962   1.054   2.997   0.129 -0.3930  1.5448 -3.6484
  321SOL    HW2  963   1.062   2.940   3.094  0.8452 -0.7995 -0.4308
  322SOL     OW  964   2.356   1.231   1.866 -0.6742  0.0697  0.7655
  322SOL    HW1  965   2.294   1.252   1.948 -1.8077 -0.0182 -2.2665
  322SOL    HW2  966   2.451   1.255   1.894  2.5008  1.2474  0.8145
  323SOL     OW  967   2.448   0.946   0.311  0.2389  0.6873 -0.3681
  323SOL    HW1  968   2.362   0.907   0.269 -0.4621  2.9400 -1.8253
  323SOL    HW2  969   2.525   0.890   0.287 -0.2850  1.8486 -0.7851
  324SOL     OW  970   0.042   0.517   2.831 -0.5522 -0.0477 -0.0175
  324SOL    HW1  971   0.051   0.469   2.919  3.1553 -0.1982 -0.4967
  324SOL    HW2  972   0.117   0.482   2.768  0.9167  1.7221 -3.1073
  325SOL     OW  973   1.303   2.866   2.145 -0.2185  0.1249 -0.0485
  325SOL    HW1  974   1.384   2.815   2.104  0.6099  1.5390  0.6455
  325SOL    HW2  975   1.219   2.823   2.104  2.2083  2.4995 -0.4570
  326SOL     OW  976   2.441   3.067   1.433 -0.0436 -0.3859 -0.4272
  326SOL    HW1  977   2.340   3.087   1.425 -0.7529 -0.0290 -1.2977
  326SOL    HW2  978   2.491   0.026   1.384 -2.2085  0.6955 -0.5593
  327SOL     OW  979   1.751   0.807   2.949  0.1789  0.8033 -0.2774
  327SOL    HW1  980   1.686   0.754   3.007 -1.1958  0.4737  0.1118
  327SOL    HW2  981   1.846   0.774   2.956 -0.8354 -0.8269  0.8137
  328SOL     OW  982   2.965   1.380   2.211 -0.1909 -0.5626  0.1666
  328SOL    HW1  983   3.029   1.303   2.236 -1.5503  0.8369 -1.8455
  328SOL    HW2  984   2.958   1.437   2.296 -0.1344 -1.2799 -0.1461
  329SOL     OW  985   1.496   2.575   1.642  0.5193  0.1353  0.2385
  329SOL    HW1  986   1.513   2.623   1.731 -0.4178  1.5296  0.3066
  329SOL    HW2  987   1.584   2.542   1.605 -1.8878  0.3797 -0.1208
  330SOL     OW  988   2.745   1.529   1.793  0.1550 -0.5862 -0.3789
  330SOL    HW1  989   2.819   1.536   1.719 -1.0912  1.4276 -1.5843
  330SOL    HW2  990   2.787   1.519   1.885  1.5352 -2.2718 -2.0803
  331SOL     OW  991   0.119   2.146   0.795  0.3296 -0.2912 -0.0403
  331SOL    HW1  992   0.122   2.056   0.841 -0.0007  1.7766 -1.3653
  331SOL    HW2  993   0.161   2.139   0.699 -0.0254 -0.6848 -1.4311
  332SOL     OW  994   0.796   0.388   0.746  0.1313  0.0449 -0.2174
  332SOL    HW1  995   0.727   0.445   0.695  1.0869 -1.9519  1.1230
  332SOL    HW2  996   0.874   0.441   0.788  2.2558  2.7921 -1.3633
  333SOL     OW  997   2.109   2.791   2.281  0.0503 -0.5366  0.2292
  333SOL    HW1  998   2.011   2.777   2.297 -1.2117 -3.4716  0.3395
  333SOL    HW2  999   2.168   2.792   2.367  1.6668  1.0648  0.3473
  334SOL     OW 1000   1.131   1.241   1.113 -0.2331 -0.1848 -0.3584
  334SOL    HW1 1001   1.231   1.208   1.109  0.5047  1.2890 -1.0296
  334SOL    HW2 1002   1.128   1.292   1.202 -0.9337  0.3824  1.7834
  335SOL     OW 1003   3.059   2.649   2.539 -0.2352  0.3062 -0.5852
  335SOL    HW1 1004   2.976   2.697   2.508 -0.2346 -2.9297 -0.7714
  335SOL    HW2 1005   3.029   2.586   2.612  2.4994 -0.9175  0.3456
  336SOL     OW 1006   2.607   2.401   1.997  0.2651  0.0223 -0.1852
  336SOL    HW1 1007   2.694   2.453   1.988 -0.8431 -0.0392 -0.3943
  336SOL    HW2 1008   2.557   2.406   1.909 -0.7987 -0.8799  0.5105
  337SOL     OW 1009   2.057   1.560   0.542  0.3406 -0.1099 -0.3529
  337SOL    HW1 1010   2.159   1.568   0.555  0.4836  2.8032  0.8459
  337SOL    HW2 1011   2.020   1.643   0.494  0.4345  0.2277  0.5200
  338SOL     OW 1012   1.190   1.829   1.346  0.3138  0.1914  0.1752
  338SOL    HW1 1013   1.226   1.796   1.432 -0.1827  2.9090 -4.2941
  338SOL    HW2 1014   1.265   1.876   1.296 -2.3827 -1.7023  2.1309
  339SOL     OW 1015   3.053   0.561   1.280 -0.6614  0.8376 -0.5317
  339SOL    HW1 1016   3.100   0.647   1.249 -0.3787  0.7102 -0.0053
  339SOL    HW2 1017   2.956   0.590   1.310  1.4854 -0.2790 -1.4677
  340SOL     OW 1018   1.647   2.771   1.826 -0.2024 -0.3996  0.5392
  340SOL    HW1 1019   1.739   2.801   1.786  2.1583 -0.6491 -1.1595
  340SOL    HW2 1020   1.642   2.766   1.927 -0.1824  2.4539  0.3980
  341SOL     OW 1021   2.238   1.371   0.906  0.5565 -0.2157  0.0856
  341SOL    HW1 1022   2.293   1.439   0.955 -0.6787 -2.8659 -4.1921
  341SOL    HW2 1023   2.158   1.410   0.856 -0.1554 -1.4815  0.8034
  342SOL     OW 1024   0.500   1.673   0.716  0.1265  0.1375  0.3564
  342SOL    HW1 1025   0.586   1.671   0.672 -4.6768  3.1494 -2.2122
  342SOL    HW2 1026   0.468   1.576   0.726 -1.3111 -0.1034  0.3405
  343SOL     OW 1027   2.546   0.955   1.718  0.0486  0.4773  0.4420
  343SOL    HW1 1028   2.489   1.036   1.691  1.0053  1.1820  2.7616
  343SOL    HW2 1029   2.629   0.987   1.769 -0.1335  0.8889  1.8157
  344SOL     OW 1030   2.400   0.287   0.824  0.1159 -0.4030 -0.5104
  344SOL    HW1 1031   2.442   0.372   0.793 -0.3409  0.3565  0.6481
  344SOL    HW2 1032   2.428   0.210   0.758 -0.7839  0.4795 -1.9316
  345SOL     OW 1033   2.777   2.553   2.403 -0.2662 -0.1959  0.4203
  345SOL    HW1 1034   2.774   2.605   2.487  0.7476 -4.1751  0.2567
  345SOL    HW2 1035   2.691   2.565   2.345  1.9867  1.7704 -2.8937
  346SOL     OW 1036   0.089   1.406   0.601  0.6183 -0.4869 -0.2713
  346SOL    HW1 1037   0.041   1.317   0.612  0.6135  1.8818  1.2344
  346SOL    HW2 1038   0.013   1.476   0.594 -3.3920  0.5206  2.1262
  347SOL     OW 1039   1.807   2.743   1.293  0.5081 -0.8431  0.9536
  347SOL    HW1 1040   1.868   2.744   1.373 -0.3809 -0.9041 -1.7051
  347SOL    HW2 1041   1.723   2.698   1.322 -1.3634  0.2480 -1.5046
  348SOL     OW 1042   1.140   0.939   1.746 -0.1222 -0.3118  0.2106
  348SOL    HW1 1043   1.206   0.967   1.823  0.0688  0.3860  1.7710
  348SOL    HW2 1044   1.041   0.931   1.771 -1.2261  1.9459 -2.5175
  349SOL     OW 1045   2.288   1.559   2.067  0.0394  0.1748  0.1686
  349SOL    HW1 1046   2.300   1.459   2.087 -1.3873  0.6014  0.5606
  349SOL    HW2 1047   2.355   1.612   2.121 -1.2974  0.2011  2.0256
  350SOL     OW 1048   2.941   2.207   0.685  0.5972  0.1805 -0.9998
  350SOL    HW1 1049   2.960   2.280   0.756 -0.5683 -1.2973  0.2620
  350SOL    HW2 1050   3.008   2.220   0.609  1.4012 -0.1434  0.7054
  351SOL     OW 1051   0.099   0.468   1.521  0.6518  0.2432 -0.1653
  351SOL    HW1 1052   0.032   0.509   1.584 -0.6068  0.8949 -0.6815
  351SOL    HW2 1053   0.051   0.405   1.456  0.0475 -2.4367  1.8586
  352SOL     OW 1054   1.042   2.758   1.558 -0.0218 -0.1757  0.1820
  352SOL    HW1 1055   0.996   2.806   1.484  0.6489  0.2098  0.6149
  352SOL    HW2 1056   1.132   2.799   1.573  2.0153 -0.3618 -0.3710
  353SOL     OW 1057   0.629   1.189   2.739  0.2505 -0.3072  0.4598
  353SOL    HW1 1058   0.724   1.186   2.773 -2.3648  0.2077 -3.3736
  353SOL    HW2 1059   0.607   1.282   2.704  1.0879  0.7572 -1.7091
  354SOL     OW 1060   1.506   1.792   0.323  0.0911  0.2188  0.0066
  354SOL    HW1 1061   1.547   1.697   0.335  0.0797  2.6239  0.5338
  354SOL    HW2 1062   1.473   1.806   0.228 -1.8768  1.3484  2.6695
  355SOL     OW 1063   2.141   0.231   0.845  0.5439  0.1475 -0.9201
  355SOL    HW1 1064   2.085   0.312   0.869  0.5038 -1.2152 -1.7875
  355SOL    HW2 1065   2.240   0.243   0.854 -1.5007 -2.0210 -2.0844
  356SOL     OW 1066   0.057   1.418   0.112 -0.1705 -0.5389  0.2452
  356SOL    HW1 1067   0.154   1.396   0.127 -0.8899  0.9132 -1.1237
  356SOL    HW2 1068   3.116   1.367   0.176  1.3692  2.4746 -2.5967
  357SOL     OW 1069   3.109   0.055   1.753 -0.5079 -0.1900  0.9636
  357SOL    HW1 1070   0.086   0.056   1.786  1.3474 -1.6054  0.8028
  357SOL    HW2 1071   3.044   0.060   1.833  0.3662 -1.3180  1.0622
  358SOL     OW 1072   0.401   1.118   3.015  0.1520  0.3879  0.2004
  358SOL    HW1 1073   0.360   1.152   2.929 -0.7283 -2.6630  2.3952
  358SOL    HW2 1074   0.397   1.191   3.087 -0.5812  1.6404  2.0589
  359SOL     OW 1075   2.507   2.561   2.719 -0.0108 -0.0857  0.0404
  359SOL    HW1 1076   2.440   2.565   2.797  2.7800 -0.2480 -0.1595
  359SOL    HW2 1077   2.456   2.539   2.632 -0.5159  1.4655  1.3059
  360SOL     OW 1078   1.592   1.267   0.847 -0.4190  0.6203 -0.2216
  360SOL    HW1 1079   1.499   1.314   0.859 -1.1107 -0.7615  0.8201
  360SOL    HW2 1080   1.629   1.241   0.938  2.5125  4.0414 -2.4029
  361SOL     OW 1081   2.014   2.243   1.203 -0.2537 -0.0542 -0.0012
  361SOL    HW1 1082   2.105   2.249   1.147  2.0004 -0.7874 -2.7768
  361SOL    HW2 1083   2.014   2.301   1.285  1.0114  0.1164  0.0796
  362SOL     OW 1084   2.007   1.555   0.807 -0.3130  0.0135 -0.2261
  362SOL    HW1 1085   2.024   1.552   0.708  0.3881 -0.2059 -0.2414
  362SOL    HW2 1086   2.011   1.650   0.849 -0.4906  1.2127 -0.0816
  363SOL     OW 1087   2.602   2.337   0.407 -0.6542 -0.0067 -0.3466
  363SOL    HW1 1088   2.551   2.261   0.452  1.2665 -1.0340  2.6466
  363SOL    HW2 1089   2.681   2.298   0.350  0.4839  0.0378 -1.0308
  364SOL     OW 1090   2.555   0.154   1.342 -0.6126 -0.2897 -0.6876
  364SOL    HW1 1091   2.502   0.179   1.260  1.4391  0.2396 -2.5548
  364SOL    HW2 1092   2.653   0.141   1.322 -2.6115 -0.0513  0.0394
  365SOL     OW 1093   0.668   2.872   1.103  0.2897 -0.0527 -0.3943
  365SOL    HW1 1094   0.616   2.889   1.016 -1.1657  0.8537 -1.5850
  365SOL    HW2 1095   0.610   2.812   1.160 -1.5238  2.3667 -0.3077
  366SOL     OW 1096   2.986   1.503   0.451 -0.4468 -0.0925  0.0207
  366SOL    HW1 1097   2.935   1.433   0.396 -3.2024 -0.1126  2.5390
  366SOL    HW2 1098   3.056   1.551   0.388  2.0660  0.6088 -1.0450
  367SOL     OW 1099   2.221   2.376   2.786 -0.3201  0.0812  0.2656
  367SOL    HW1 1100   2.185   2.379   2.689  0.9073 -1.2513 -1.7947
  367SOL    HW2 1101   2.282   2.297   2.795  0.8791  1.5991 -0.2409
  368SOL     OW 1102   2.529   2.087   0.888  0.8194  0.8423 -0.1895
  368SOL    HW1 1103   2.586   2.076   0.808 -2.6578  0.4834 -0.2474
  368SOL    HW2 1104   2.541   2.012   0.954  2.9295 -0.0436 -0.0157
  369SOL     OW 1105   0.796   1.048   0.707  0.0703 -0.0656 -0.0013
  369SOL    HW1 1106   0.863   0.995   0.758 -2.9336 -0.8048 -1.3729
  369SOL    HW2 1107   0.846   1.110   0.642 -1.5509 -1.2688 -0.1717
  370SOL     OW 1108   0.703   0.185   0.942  0.3733  0.4855 -0.3070
  370SOL    HW1 1109   0.754   0.258   0.886 -0.6256 -0.0180 -0.3063
  370SOL    HW2 1110   0.615   0.171   0.898  1.9857  0.1409  0.6084
  371SOL     OW 1111   2.523   1.150   2.900 -0.4601 -0.1662 -0.5071
  371SOL    HW1 1112   2.475   1.147   2.992 -1.6838  1.2296  1.1266
  371SOL    HW2 1113   2.589   1.072   2.892 -2.8054  1.3219 -0.8827
  372SOL     OW 1114   0.695   0.339   2.525  0.1246 -0.1412 -0.3112
  372SOL    HW1 1115   0.679   0.349   2.426 -0.6922 -0.5763  1.4920
  372SOL    HW2 1116   0.769   0.265   2.535  2.3510 -1.7698  1.2470
  373SOL     OW 1117   0.689   0.547   2.958  0.1076  0.1893  0.4971
  373SOL    HW1 1118   0.732   0.596   2.872  0.2231  0.2582 -4.1947
  373SOL    HW2 1119   0.764   0.489   2.993 -1.2563  1.1467 -0.4845
  374SOL     OW 1120   0.901   2.347   0.144 -0.3143  0.0287  0.4627
  374SOL    HW1 1121   0.953   2.325   0.064  0.3119  0.7951  0.0700
  374SOL    HW2 1122   0.863   2.261   0.187 -1.6792 -1.8267  2.2522
  375SOL     OW 1123   0.896   0.031   0.769 -0.2393 -0.0903  0.5513
  375SOL    HW1 1124   0.943   3.061   0.792 -3.3965  0.3465 -0.0529
  375SOL    HW2 1125   0.892   0.054   0.666 -0.4330  0.7469 -2.9413
  376SOL     OW 1126   0.005   2.313   2.041  0.1196  0.1186 -0.2724
  376SOL    HW1 1127   3.074   2.396   2.074  2.3576 -1.9429 -2.2724
  376SOL    HW2 1128   0.031   2.319   1.942  1.6179 -2.8099 -0.4825
  377SOL     OW 1129   2.637   2.119   3.116  0.0908  0.5497  0.2434
  377SOL    HW1 1130   2.568   2.120   0.070 -1.7274 -0.2179  0.4403
  377SOL    HW2 1131   2.605   2.054   3.040 -0.6263 -0.4842  0.8808
  378SOL     OW 1132   1.862   0.446   0.680  0.0622  0.2515  0.0721
  378SOL    HW1 1133   1.765   0.411   0.672  3.0726 -1.1513  0.4782
  378SOL    HW2 1134   1.885   0.454   0.777  0.8888 -2.8127 -0.4837
  379SOL     OW 1135   1.413   0.982   0.867 -0.3490 -0.2126  0.0064
  379SOL    HW1 1136   1.312   0.963   0.855 -1.1193 -1.8427 -1.9341
  379SOL    HW2 1137   1.450   1.028   0.784  0.0846  0.0125 -0.2413
  380SOL     OW 1138   2.501   1.970   1.936  0.4048  0.6081  0.0411
  380SOL    HW1 1139   2.555   1.905   1.879 -1.0509  2.2158 -1.4373
  380SOL    HW2 1140   2.566   2.028   1.989  0.6443 -3.9513  1.9175
  381SOL     OW 1141   0.052   1.173   2.251 -0.0740 -0.4427  0.2487
  381SOL    HW1 1142   0.017   1.108   2.326  0.5548 -0.1533  1.0078
  381SOL    HW2 1143   0.018   1.144   2.156  1.6856  0.2160 -2.6327
  382SOL     OW 1144   2.877   2.483   0.153  0.3318 -0.2667 -0.2307
  382SOL    HW1 1145   2.847   2.387   0.158  1.6628 -1.3517  0.3015
  382SOL    HW2 1146   2.822   2.540   0.214 -0.4185  1.9295 -1.2297
  383SOL     OW 1147   1.366   0.915   2.174 -0.3096 -0.8667 -0.1754
  383SOL    HW1 1148   1.462   0.943   2.147  1.9504  0.1253 -0.9264
  383SOL    HW2 1149   1.370   0.861   2.260  1.0212  1.6894 -1.1248
  384SOL     OW 1150   1.126   2.150   2.453  0.2112  0.1989  0.2135
  384SOL    HW1 1151   1.180   2.224   2.415  2.2572  0.7055  1.1619
  384SOL    HW2 1152   1.024   2.159   2.434 -3.1514 -1.3652  0.5933
  385SOL     OW 1153   2.262   2.317   0.151 -0.3916  0.2669 -0.1557
  385SOL    HW1 1154   2.241   2.318   0.053  4.4049  0.3296  0.2208
  385SOL    HW2 1155   2.324   2.398   0.174  2.4995  0.3861 -0.9385
  386SOL     OW 1156   1.699   1.387   0.284  0.5543 -0.3879 -0.0631
  386SOL    HW1 1157   1.645   1.432   0.358  1.6212  0.9340 -1.7746
  386SOL    HW2 1158   1.733   1.294   0.316  1.1310 -1.4185 -2.2947
  387SOL     OW 1159   2.900   1.075   1.473  0.9692 -0.3025  0.2030
  387SOL    HW1 1160   2.972   1.137   1.440  1.3467  0.9256 -0.0636
  387SOL    HW2 1161   2.917   1.040   1.567  0.6542  1.9810  0.6930
  388SOL     OW 1162   0.464   0.852   1.177 -0.3674 -0.3990  0.5930
  388SOL    HW1 1163   0.486   0.883   1.082 -0.4764  0.3745  0.4114
  388SOL    HW2 1164   0.408   0.768   1.176  0.1053 -1.0298 -1.4698
  389SOL     OW 1165   2.207   1.285   2.081 -0.1569  0.2634 -0.7210
  389SOL    HW1 1166   2.235   1.290   2.182  0.6774 -0.1577  3.6346
  389SOL    HW2 1167   2.108   1.303   2.068  3.0438 -0.2083 -0.5017
  390SOL     OW 1168   1.307   1.921   0.566 -0.3596  0.6979  0.4254
  390SOL    HW1 1169   1.348   1.890   0.478 -0.6231 -0.9392  4.4415
  390SOL    HW2 1170   1.354   1.883   0.650  0.4702 -0.4724 -0.4255
  391SOL     OW 1171   1.112   1.950   0.950  0.4766  0.1910  0.0744
  391SOL    HW1 1172   1.176   1.876   0.934 -1.4701  0.2552  1.5206
  391SOL    HW2 1173   1.031   1.931   0.891  1.0549 -0.5956  0.3666
  392SOL     OW 1174   2.406   2.470   2.188  0.0360 -0.1796 -0.2670
  392SOL    HW1 1175   2.318   2.500   2.153 -0.4698  0.8633  1.5404
  392SOL    HW2 1176   2.480   2.456   2.116  0.5344 -3.6366 -0.0647
  393SOL     OW 1177   1.429   2.164   3.075  0.2859  0.2547  0.2037
  393SOL    HW1 1178   1.365   2.202   3.004 -1.0599  0.4975 -1.8955
  393SOL    HW2 1179   1.428   2.062   3.072  0.0363 -1.8209 -0.9225
  394SOL     OW 1180   0.104   0.427   2.337  0.0339  0.3852  0.2635
  394SOL    HW1 1181   0.104   0.518   2.290  0.8685 -0.4016  0.2563
  394SOL    HW2 1182   0.134   0.358   2.268  1.5115 -1.0309 -2.6475
  395SOL     OW 1183   0.404   0.995   0.930 -0.6366 -0.3607 -0.2092
  395SOL    HW1 1184   0.428   1.088   0.970 -0.4907  1.6203 -1.2057
  395SOL    HW2 1185   0.476   0.967   0.865  0.9976  0.7746  0.1662
  396SOL     OW 1186   2.355   0.967   2.704  0.2401  0.1137  0.2696
  396SOL    HW1 1187   2.342   0.916   2.619  0.4304 -0.9853  1.0342
  396SOL    HW2 1188   2.441   1.020   2.700  3.0520  0.4545  1.1359
  397SOL     OW 1189   0.518   0.697   0.040 -0.0316  0.0785  0.5916
  397SOL    HW1 1190   0.471   0.756   3.092 -0.7048 -0.9046 -0.3458
  397SOL    HW2 1191   0.578   0.630   3.102  0.6205 -1.6436 -2.1113
  398SOL     OW 1192   1.122   2.715   0.564 -0.1549  0.0271 -0.4573
  398SOL    HW1 1193   1.207   2.723   0.618 -3.0180 -0.8937 -0.1883
  398SOL    HW2 1194   1.088   2.806   0.545 -0.5259 -0.6128  0.6055
  399SOL     OW 1195   1.971   2.561   1.930 -0.3239 -0.0981 -0.2417
  399SOL    HW1 1196   1.882   2.563   1.975 -1.1899 -1.5990 -1.1070
  399SOL    HW2 1197   1.976   2.481   1.870  0.8610  3.2638  1.6331
  400SOL     OW 1198   0.152   1.193   1.695  0.5861  0.6214 -0.3700
  400SOL    HW1 1199   0.163   1.114   1.760  3.1258  0.2597  0.5025
  400SOL    HW2 1200   0.126   1.278   1.743  2.8301  0.0815 -2.6890
  401SOL     OW 1201   0.558   0.906   0.715  0.2391 -0.4876  0.4646
  401SOL    HW1 1202   0.574   0.810   0.750  1.2038  2.4639 -0.5303
  401SOL    HW2 1203   0.648   0.952   0.717  0.6743 -0.9435  0.2512
  402SOL     OW 1204   0.632   2.922   2.323  0.2094 -0.0213 -0.0291
  402SOL    HW1 1205   0.717   2.971   2.305 -1.8222 -0.1716  0.9444
  402SOL    HW2 1206   0.586   2.905   2.235  0.4154 -0.5401  2.7550
  403SOL     OW 1207   2.674   1.786   1.836  0.3110 -0.1531  0.2888
  403SOL    HW1 1208   2.753   1.827   1.885  0.4196  0.8090 -1.9699
  403SOL    HW2 1209   2.705   1.690   1.812 -0.9614 -2.1005  0.0820
  404SOL     OW 1210   2.561   2.171   2.169 -0.4176  0.0193  0.6746
  404SOL    HW1 1211   2.619   2.128   2.235 -1.4438 -1.9567 -2.4982
  404SOL    HW2 1212   2.603   2.256   2.129  0.1620  4.7874  1.3168
  405SOL     OW 1213   2.015   0.101   2.780 -0.3031 -0.2555 -0.1549
  405SOL    HW1 1214   2.050   0.014   2.734  2.4763 -3.7704 -0.2659
  405SOL    HW2 1215   1.975   0.166   2.716  0.4905 -0.5970  3.4454
  406SOL     OW 1216   1.077   1.855   0.318  0.0515  0.1709 -0.8481
  406SOL    HW1 1217   1.144   1.924   0.299 -3.5238 -1.1713  1.0517
  406SOL    HW2 1218   1.070   1.846   0.422  1.3483  2.3574  0.1138
  407SOL     OW 1219   1.458   1.318   0.189 -0.1174  0.5907 -0.2936
  407SOL    HW1 1220   1.427   1.374   0.109 -2.9948  2.0913 -1.2716
  407SOL    HW2 1221   1.551   1.343   0.213 -1.1149  1.0084  0.9381
  408SOL     OW 1222   0.380   0.417   1.513  0.6014 -0.0522 -0.5397
  408SOL    HW1 1223   0.280   0.434   1.533 -1.5660 -0.7839 -1.0107
  408SOL    HW2 1224   0.442   0.480   1.564  1.7112 -0.3676  0.3341
  409SOL     OW 1225   2.863   1.511   2.848  0.4260  0.0865  0.1228
  409SOL    HW1 1226   2.774   1.481   2.806  0.4607 -0.3382  1.2570
  409SOL    HW2 1227   2.849   1.560   2.937 -2.3289 -0.9631  1.2045
  410SOL     OW 1228   2.749   2.851   0.699  0.0149 -0.4191 -0.0664
  410SOL    HW1 1229   2.723   2.869   0.798  0.7720 -2.5753 -2.4698
  410SOL    HW2 1230   2.828   2.785   0.697 -2.4744  1.0205 -0.2539
  411SOL     OW 1231   0.120   0.712   0.630 -0.4948 -0.3921 -0.1714
  411SOL    HW1 1232   0.193   0.771   0.589  1.1508 -1.7842  1.4206
  411SOL    HW2 1233   0.068   0.766   0.699  3.1249  2.4885  1.0006
  412SOL     OW 1234   1.505   3.006   0.437  0.2014 -0.0501 -0.1474
  412SOL    HW1 1235   1.446   3.064   0.371 -1.8432  1.8965 -1.0779
  412SOL    HW2 1236   1.503   2.907   0.418 -1.6532 -0.1544  0.7404
  413SOL     OW 1237   1.767   0.514   1.966  0.6306  0.0455 -0.4012
  413SOL    HW1 1238   1.765   0.439   2.040  0.1322 -2.1662  1.6957
  413SOL    HW2 1239   1.700   0.588   1.979  0.5526 -1.6814 -0.4145
  414SOL     OW 1240   0.029   1.045   0.404 -0.3614  0.1429 -0.2583
  414SOL    HW1 1241   3.073   0.971   0.394 -1.3907 -0.6716  0.7256
  414SOL    HW2 1242   0.039   1.071   0.502  1.6735 -0.5583 -0.6501
  415SOL     OW 1243   2.692   1.421   0.321 -0.1461  0.1609  0.2214
  415SOL    HW1 1244   2.726   1.338   0.271  3.4291 -0.7205 -3.1466
  415SOL    HW2 1245   2.594   1.449   0.293 -0.9265  0.3936 -0.8158
  416SOL     OW 1246   2.630   0.404   2.812  0.2940  0.1688  0.8687
  416SOL    HW1 1247   2.560   0.475   2.791  0.9197 -0.7910 -2.1820
  416SOL    HW2 1248   2.693   0.434   2.886 -0.7459  0.3905  1.1079
  417SOL     OW 1249   2.482   0.121   0.644 -0.0438  0.2654 -0.3662
  417SOL    HW1 1250   2.564   0.163   0.599  1.8397 -2.0295 -0.4145
  417SOL    HW2 1251   2.419   0.100   0.567  0.3033  0.4683 -2.7024
  418SOL     OW 1252   0.453   0.271   0.173  0.5817  0.1332  0.1460
  418SOL    HW1 1253   0.543   0.286   0.217 -0.7975 -0.9149 -0.9033
  418SOL    HW2 1254   0.468   0.293   0.072  0.3616  1.3040  0.0593
  419SOL     OW 1255   0.780   0.655   0.955  0.1378  0.2662  0.3494
  419SOL    HW1 1256   0.735   0.648   1.051 -0.1347 -0.2269  1.3161
  419SOL    HW2 1257   0.716   0.626   0.884  2.2391  0.9593  0.9672
  420SOL     OW 1258   0.133   0.921   1.018 -0.7278  0.1477  0.3908
  420SOL    HW1 1259   0.228   0.932   0.982  2.5889 -0.4173  0.0429
  420SOL    HW2 1260   0.135   0.915   1.117  1.0095 -3.9458  1.0768
  421SOL     OW 1261   0.652   1.950   0.120 -0.3054  0.5029  0.5667
  421SOL    HW1 1262   0.599   2.032   0.128  0.0223 -0.3906 -1.2127
  421SOL    HW2 1263   0.732   1.971   0.066 -2.2017 -0.5552  3.3182
  422SOL     OW 1264   2.423   0.214   2.021 -0.3388  0.2807  0.2079
  422SOL    HW1 1265   2.526   0.217   2.033  2.0053 -2.2593 -3.1993
  422SOL    HW2 1266   2.389   0.311   1.999  0.8217  1.7333  1.4066
  423SOL     OW 1267   1.897   1.719   3.032 -0.1643  0.3856  0.1633
  423SOL    HW1 1268   1.970   1.758   3.093 -1.1061  2.6786  0.0734
  423SOL    HW2 1269   1.833   1.790   3.006 -0.0167 -1.0824  1.5857
  424SOL     OW 1270   1.492   1.432   2.224 -0.0483 -0.4087 -0.5121
  424SOL    HW1 1271   1.582   1.479   2.212  4.0424 -1.0393 -0.5899
  424SOL    HW2 1272   1.512   1.340   2.260  1.9690 -1.6651 -1.5686
  425SOL     OW 1273   2.993   2.521   2.201 -0.1056 -0.2164 -0.3799
  425SOL    HW1 1274   3.078   2.572   2.205  1.3071 -2.8327 -1.9523
  425SOL    HW2 1275   2.934   2.526   2.284 -1.9211 -0.4590 -1.6718
  426SOL     OW 1276   2.363   2.914   0.578 -0.1005 -0.1161  0.2681
  426SOL    HW1 1277   2.262   2.913   0.581  1.7685 -0.0311  2.1726
  426SOL    HW2 1278   2.404   2.938   0.672  3.5106  1.4605  0.6386
  427SOL     OW 1279   0.626   0.760   2.606  0.2674  0.2352  0.2123
  427SOL    HW1 1280   0.578   0.832   2.660 -1.5275  0.7625  1.2052
  427SOL    HW2 1281   0.678   0.698   2.666  0.4389  1.3948 -0.3561
  428SOL     OW 1282   2.695   1.285   2.575 -0.1477  0.4795 -0.4007
  428SOL    HW1 1283   2.647   1.199   2.598  3.0196  1.1510  0.1021
  428SOL    HW2 1284   2.678   1.351   2.649 -0.2580 -1.3394  0.4235
  429SOL     OW 1285   2.468   0.445   0.405 -0.3543  0.2114  0.2260
  429SOL    HW1 1286   2.393   0.504   0.360 -0.4462  4.5668  2.5340
  429SOL    HW2 1287   2.441   0.347   0.404 -0.1917  0.1504 -1.0508
  430SOL     OW 1288   1.572   2.144   2.443  0.2447  0.1974  0.1742
  430SOL    HW1 1289   1.655   2.144   2.386 -0.8693 -0.4623  0.2907
  430SOL    HW2 1290   1.491   2.155   2.381 -2.1767 -1.2080 -0.0781
  431SOL     OW 1291   0.166   1.818   1.785  0.1844  0.2267  0.5419
  431SOL    HW1 1292   0.142   1.825   1.881 -0.2489  1.7267 -3.9965
  431SOL    HW2 1293   0.218   1.729   1.763  1.0821 -1.2633  0.7872
  432SOL     OW 1294   1.286   1.968   2.296 -0.1311  0.1309 -0.6844
  432SOL    HW1 1295   1.244   2.005   2.206 -0.6771  0.6829 -1.6942
  432SOL    HW2 1296   1.222   1.984   2.374  2.1854 -0.2224 -1.2152
  433SOL     OW 1297   1.068   2.200   0.407 -0.1078  0.2973 -0.3643
  433SOL    HW1 1298   1.072   2.298   0.394  2.0356 -1.0183 -1.2458
  433SOL    HW2 1299   1.144   2.159   0.355 -0.1103  0.6868  0.2818
  434SOL     OW 1300   0.334   2.093   2.448  0.3344 -0.3733 -0.1310
  434SOL    HW1 1301   0.298   2.187   2.442  1.4050  0.2813 -2.8609
  434SOL    HW2 1302   0.410   2.091   2.378 -1.0600  0.7335  0.9674
  435SOL     OW 1303   0.328   1.409   0.413 -0.7276 -0.1817  0.5694
  435SOL    HW1 1304   0.237   1.411   0.463  2.7629  0.8439 -2.3517
  435SOL    HW2 1305   0.381   1.325   0.428 -0.7325  1.6064 -0.2045
  436SOL     OW 1306   0.120   2.315   1.791 -0.3461  0.4161 -0.8721
  436SOL    HW1 1307   0.129   2.400   1.733 -2.5919  1.5092  2.0130
  436SOL    HW2 1308   0.124   2.229   1.735 -0.4733  2.7254  0.7566
  437SOL     OW 1309   1.124   0.234   0.234  0.2957  0.2638 -0.4448
  437SOL    HW1 1310   1.146   0.332   0.241  0.1126  0.1801 -0.2341
  437SOL    HW2 1311   1.035   0.217   0.188 -1.1231 -1.4706  0.5771
  438SOL     OW 1312   0.595   2.349   0.493  0.5914 -0.0842 -0.5714
  438SOL    HW1 1313   0.681   2.382   0.456 -1.4024 -2.0603  2.8475
  438SOL    HW2 1314   0.587   2.385   0.591  0.1268  0.0891  1.6133
  439SOL     OW 1315   0.596   2.531   1.642  0.5985  0.1076 -0.3140
  439SOL    HW1 1316   0.562   2.435   1.630  1.3269 -2.7835  2.1752
  439SOL    HW2 1317   0.529   2.604   1.617  0.3044 -1.0489 -1.4108
  440SOL     OW 1318   1.500   2.981   1.768 -0.1547  0.4372 -0.0495
  440SOL    HW1 1319   1.555   3.049   1.823  1.0646  1.1658  0.2040
  440SOL    HW2 1320   1.535   2.885   1.787  0.0132 -1.6303 -2.9271
  441SOL     OW 1321   2.716   0.518   1.766  0.0378 -0.2759  0.0836
  441SOL    HW1 1322   2.639   0.557   1.712  0.7364 -1.6707  0.8759
  441SOL    HW2 1323   2.706   0.419   1.771 -0.7084  1.7295 -0.4484
  442SOL     OW 1324   1.913   2.248   0.746 -0.0296 -0.1376 -0.1603
  442SOL    HW1 1325   1.890   2.188   0.824  0.7415  0.1948 -1.7929
  442SOL    HW2 1326   2.015   2.259   0.734  1.3277  1.0534 -0.5934
  443SOL     OW 1327   2.698   0.421   2.233 -0.5663 -0.7356  0.1052
  443SOL    HW1 1328   2.782   0.416   2.289  2.4550 -0.7464  1.2810
  443SOL    HW2 1329   2.724   0.375   2.149  0.2711  0.6481  3.0530
  444SOL     OW 1330   2.121   1.078   1.772  0.3478  0.2670 -0.5669
  444SOL    HW1 1331   2.206   1.120   1.816  2.0796 -0.9591  1.7030
  444SOL    HW2 1332   2.102   0.985   1.812  1.2245  1.0467  0.7054
  445SOL     OW 1333   2.715   2.401   1.364  0.1172 -0.0005  0.5769
  445SOL    HW1 1334   2.681   2.314   1.408 -0.0251  2.2689  0.3313
  445SOL    HW2 1335   2.662   2.439   1.285 -0.9286  1.3059  0.5737
  446SOL     OW 1336   3.030   1.667   0.661 -0.5231 -0.3475  0.2084
  446SOL    HW1 1337   2.991   1.629   0.574 -0.4017  2.1082 -0.2893
  446SOL    HW2 1338   0.011   1.689   0.653 -1.8138 -0.2864 -0.4326
  447SOL     OW 1339   0.564   1.326   0.696  0.1363  0.6955  0.2456
  447SOL    HW1 1340   0.564   1.298   0.795  1.4741  3.0856  1.0241
  447SOL    HW2 1341   0.631   1.396   0.668 -0.4785 -2.1124  0.5149
  448SOL     OW 1342   1.364   1.298   1.419 -0.3737  0.0771 -0.0869
  448SOL    HW1 1343   1.430   1.249   1.486  1.4647 -0.2351  0.8496
  448SOL    HW2 1344   1.413   1.387   1.395 -0.6984 -0.1898  0.6694
  449SOL     OW 1345   0.825   1.326   0.076  1.0075  0.1798 -0.0238
  449SOL    HW1 1346   0.784   1.322   0.170 -1.5731 -1.6232 -0.8215
  449SOL    HW2 1347   0.773   1.263   0.015 -1.6122  0.9159 -0.8617
  450SOL     OW 1348   2.290   2.166   2.181  0.4974  0.1994 -0.5506
  450SOL    HW1 1349   2.250   2.261   2.201 -2.9210  2.1859 -0.3043
  450SOL    HW2 1350   2.394   2.163   2.173  1.3823  1.5683 -2.7001
  451SOL     OW 1351   1.865   3.098   2.342 -0.0187  0.7558 -0.0826
  451SOL    HW1 1352   1.963   3.108   2.349 -0.5740  0.5584 -0.8690
  451SOL    HW2 1353   1.838   3.004   2.362  0.6412  2.1608 -0.3167
  452SOL     OW 1354   1.337   0.027   1.453 -0.3955 -0.2573  0.3337
  452SOL    HW1 1355   1.307   0.070   1.368  0.1307  0.5668 -0.6034
  452SOL    HW2 1356   1.311   3.050   1.449  3.0812  1.5566  4.2503
  453SOL     OW 1357   1.822   1.137   0.722  0.5544 -0.0644  0.0066
  453SOL    HW1 1358   1.854   1.189   0.636 -2.5935  2.5746 -2.5863
  453SOL    HW2 1359   1.720   1.143   0.734  0.4647  1.3064  1.7307
  454SOL     OW 1360   0.380   1.512   1.000 -0.5542 -0.0500  0.5972
  454SOL    HW1 1361   0.336   1.506   0.903 -0.3793  1.1605 -0.9702
  454SOL    HW2 1362   0.479   1.539   1.000 -1.5899  0.8989 -0.2480
  455SOL     OW 1363   2.755   3.095   0.230 -0.8146 -0.3329  0.1317
  455SOL    HW1 1364   2.689   3.032   0.177 -1.6720 -0.2696  0.5424
  455SOL    HW2 1365   2.718   0.070   0.245  0.1705 -3.3045 -1.9686
  456SOL     OW 1366   2.553   2.461   1.151  0.6354  0.0555  0.2190
  456SOL    HW1 1367   2.564   2.558   1.122  2.6119 -0.0805 -0.4827
  456SOL    HW2 1368   2.475   2.446   1.213  0.0314 -0.9398 -0.0115
  457SOL     OW 1369   1.341   0.030   0.266 -0.2396 -0.5062 -0.4163
  457SOL    HW1 1370   1.389   0.025   0.175  0.3596 -0.2860 -1.8851
  457SOL    HW2 1371   1.263   0.106   0.263 -2.6425 -0.6602  0.5071
  458SOL     OW 1372   2.695   0.535   0.342 -0.3262  0.1328  0.3952
  458SOL    HW1 1373   2.757   0.595   0.401 -0.4363  1.7793  0.0353
  458SOL    HW2 1374   2.610   0.502   0.385  2.2580  1.2305 -0.7038
  459SOL     OW 1375   2.150   0.415   2.587  0.8033 -0.8186 -0.0117
  459SOL    HW1 1376   2.066   0.359   2.591  1.7174  0.5507 -0.3748
  459SOL    HW2 1377   2.203   0.408   2.676  1.8944  1.6893  1.7458
  460SOL     OW 1378   2.758   0.274   2.593 -0.1335 -0.0602  0.1317
  460SOL    HW1 1379   2.699   0.320   2.661  0.3279  1.1414 -0.3311
  460SOL    HW2 1380   2.700   0.251   2.513  2.1036  0.6065 -1.7869
  461SOL     OW 1381   1.276   1.698   0.943  0.3761 -0.1765 -0.3482
  461SOL    HW1 1382   1.280   1.614   1.010 -0.2706 -0.2312  1.7872
  461SOL    HW2 1383   1.220   1.670   0.860 -0.4835  0.8376 -2.3710
  462SOL     OW 1384   2.418   2.818   1.338 -0.0252 -0.7006  0.1413
  462SOL    HW1 1385   2.423   2.917   1.367 -1.0079 -0.2758 -1.3475
  462SOL    HW2 1386   2.407   2.749   1.411  2.4692 -2.2297  2.6359
  463SOL     OW 1387   2.774   1.127   0.460  0.1886 -0.1650  0.3057
  463SOL    HW1 1388   2.775   1.118   0.359 -0.4052 -0.7489 -3.2432
  463SOL    HW2 1389   2.689   1.091   0.499  0.7166 -0.8295 -1.0084
  464SOL     OW 1390   0.385   2.425   1.191  0.3498 -0.1605  0.0008
  464SOL    HW1 1391   0.313   2.496   1.169 -0.9529  2.9609  0.6199
  464SOL    HW2 1392   0.359   2.374   1.272  0.5813  0.7841 -0.9059
  465SOL     OW 1393   0.024   1.645   0.312  0.2579  0.0053  0.1283
  465SOL    HW1 1394   0.039   1.580   0.233 -0.8075 -1.8792 -2.2131
  465SOL    HW2 1395   0.050   1.735   0.281  2.3123 -0.8765  1.0063
  466SOL     OW 1396   1.238   0.541   2.756 -0.2332 -0.0766 -0.0153
  466SOL    HW1 1397   1.147   0.501   2.770  3.1932  1.9015  0.2688
  466SOL    HW2 1398   1.245   0.646   2.753 -0.6520  2.8562 -1.2076
  467SOL     OW 1399   0.804   0.540   2.178  0.2268  0.4711 -1.0325
  467SOL    HW1 1400   0.824   0.525   2.081 -1.5861  2.2138 -0.1726
  467SOL    HW2 1401   0.867   0.606   2.220 -1.1847 -1.2772 -0.8366
  468SOL     OW 1402   0.722   0.882   2.349  0.1726  0.0965 -0.0410
  468SOL    HW1 1403   0.723   0.818   2.425  1.9850 -0.4000 -0.4174
  468SOL    HW2 1404   0.648   0.954   2.360 -2.3027  0.2108 -0.5511
  469SOL     OW 1405   0.134   2.229   3.116 -0.3245 -0.0409 -0.1690
  469SOL    HW1 1406   0.053   2.191   3.062  0.1034  1.8658  2.1128
  469SOL    HW2 1407   0.096   2.300   0.062 -0.4468 -1.4552 -1.6508
  470SOL     OW 1408   2.528   1.925   2.946  0.4505  0.4260  0.1359
  470SOL    HW1 1409   2.445   1.919   2.889 -2.6579  1.2251  0.4586
  470SOL    HW2 1410   2.545   1.842   3.000 -0.9032 -1.3324  0.3849
  471SOL     OW 1411   2.309   0.644   2.173  0.4992  0.3351  0.9277
  471SOL    HW1 1412   2.289   0.738   2.140 -0.3787 -2.2363 -0.5805
  471SOL    HW2 1413   2.261   0.631   2.260  2.5389 -0.5621 -0.8470
  472SOL     OW 1414   0.526   2.709   1.249  0.4695 -0.4383 -0.4900
  472SOL    HW1 1415   0.505   2.736   1.345  0.1337  1.5333 -0.0271
  472SOL    HW2 1416   0.521   2.612   1.231 -2.0347  4.0483 -1.1372
  473SOL     OW 1417   0.233   2.968   2.427  0.2088  0.5641  0.4077
  473SOL    HW1 1418   0.326   3.009   2.440  1.0189  0.0893 -1.9529
  473SOL    HW2 1419   0.204   2.977   2.328 -2.8717  1.4815  3.4392
  474SOL     OW 1420   1.649   0.034   1.928  0.1145 -0.0698  0.3428
  474SOL    HW1 1421   1.684   0.112   1.881 -2.7133 -4.1449  1.2356
  474SOL    HW2 1422   1.725   3.098   1.972 -0.7199  0.6036 -2.3273
  475SOL     OW 1423   1.699   2.829   0.808 -0.0305  0.3784 -0.6321
  475SOL    HW1 1424   1.701   2.809   0.707  1.2058  0.1993 -0.2659
  475SOL    HW2 1425   1.771   2.768   0.850 -0.8952 -2.2164  1.2331
  476SOL     OW 1426   0.268   0.611   0.858  0.2443 -0.6201  0.4661
  476SOL    HW1 1427   0.221   0.665   0.784 -0.7837  0.8243  1.1481
  476SOL    HW2 1428   0.234   0.516   0.870  0.1307 -1.6668 -3.6625
  477SOL     OW 1429   1.404   2.306   0.556 -0.0020  0.4254 -0.1287
  477SOL    HW1 1430   1.461   2.238   0.514 -0.1561  0.8410  0.4708
  477SOL    HW2 1431   1.323   2.266   0.600  0.2727  1.0452 -1.6192
  478SOL     OW 1432   0.226   2.408   2.446 -0.0359  0.1370 -0.3203
  478SOL    HW1 1433   0.214   2.510   2.448  0.5670 -1.9692  0.7798
  478SOL    HW2 1434   0.192   2.365   2.363  1.2602  1.1610  1.7403
  479SOL     OW 1435   2.697   0.339   1.054 -0.1476  0.3239 -0.0420
  479SOL    HW1 1436   2.764   0.413   1.033 -1.1995 -1.0996  0.3664
  479SOL    HW2 1437   2.720   0.258   0.995 -1.7297  2.3772  1.3379
  480SOL     OW 1438   0.024   2.880   0.496  0.1385 -0.0208 -0.1987
  480SOL    HW1 1439   0.072   2.969   0.480 -0.4897 -1.2098  1.3264
  480SOL    HW2 1440   3.057   2.866   0.445  1.2110 -1.2799 -0.6548
  481SOL     OW 1441   2.648   2.199   1.542 -0.8162 -0.0002  0.3267
  481SOL    HW1 1442   2.564   2.162   1.580  2.5930  0.3707  0.3271
  481SOL    HW2 1443   2.709   2.119   1.542 -0.3683  1.4849 -0.3696
  482SOL     OW 1444   1.195   2.414   2.808 -0.0680 -0.2112 -0.5442
  482SOL    HW1 1445   1.248   2.493   2.764  0.7208  0.8763  0.7142
  482SOL    HW2 1446   1.093   2.423   2.797 -1.0242  0.8791  0.8114
  483SOL     OW 1447   0.471   2.603   2.447  0.2517 -0.1565 -0.1274
  483SOL    HW1 1448   0.383   2.647   2.428  3.2650 -2.6214 -3.7365
  483SOL    HW2 1449   0.509   2.549   2.364  1.5211 -1.5843 -2.0005
  484SOL     OW 1450   1.185   0.684   1.642  0.1294 -0.3348  0.5475
  484SOL    HW1 1451   1.274   0.638   1.616  0.7163  0.6743  0.6314
  484SOL    HW2 1452   1.203   0.778   1.678  0.0917 -1.7017  0.2421
  485SOL     OW 1453   2.352   0.823   2.473 -0.1496 -0.1539 -0.2332
  485SOL    HW1 1454   2.286   0.743   2.464  0.7748 -0.0531  1.2088
  485SOL    HW2 1455   2.354   0.884   2.390  1.7407 -0.0485  0.7093
  486SOL     OW 1456   2.271   3.072   1.050  0.2455  0.8362  0.0908
  486SOL    HW1 1457   2.243   2.986   1.099  1.3005  2.4800  0.4241
  486SOL    HW2 1458   2.335   3.050   0.976  0.2077 -0.1625  3.1812
  487SOL     OW 1459   0.675   2.054   1.650  0.6244  0.4843 -0.0814
  487SOL    HW1 1460   0.623   1.977   1.610 -1.5429  1.6483  3.0528
  487SOL    HW2 1461   0.741   2.032   1.725 -3.1071  1.4835  0.3365
  488SOL     OW 1462   2.592   1.401   2.782 -0.0485 -0.5848  0.1782
  488SOL    HW1 1463   2.529   1.477   2.812 -1.0731  3.0215  1.8729
  488SOL    HW2 1464   2.576   1.309   2.824 -1.4263 -1.2919  0.0720
  489SOL     OW 1465   1.843   0.154   0.814  0.5169 -0.3873  0.4332
  489SOL    HW1 1466   1.891   0.086   0.874 -0.1103  0.4718  1.5109
  489SOL    HW2 1467   1.901   0.235   0.802  0.0295  1.5269 -0.4017
  490SOL     OW 1468   0.939   1.160   0.500 -0.1189 -0.0036  0.0931
  490SOL    HW1 1469   0.994   1.236   0.459  1.0330  0.6517  0.6695
  490SOL    HW2 1470   0.861   1.140   0.437  0.9972 -1.5114 -2.9212
  491SOL     OW 1471   0.530   2.299   0.990  0.2849  0.3060  0.1288
  491SOL    HW1 1472   0.593   2.320   0.909  1.1428  1.6958 -0.2765
  491SOL    HW2 1473   0.450   2.365   0.992 -2.6346  1.5120 -0.9574
  492SOL     OW 1474   1.407   1.728   1.929  0.0766  0.7074  0.8778
  492SOL    HW1 1475   1.396   1.809   1.868 -2.3294 -0.6304 -0.3727
  492SOL    HW2 1476   1.317   1.708   1.979 -1.7371 -0.1193  2.9559
  493SOL     OW 1477   2.916   2.645   0.746 -0.5767  0.5942 -0.1343
  493SOL    HW1 1478   3.015   2.621   0.737 -0.8622  1.6224 -2.3588
  493SOL    HW2 1479   2.866   2.583   0.812 -1.2888 -1.2821  0.1261
  494SOL     OW 1480   2.795   2.206   0.253  0.3040  0.4196 -0.4619
  494SOL    HW1 1481   2.765   2.181   0.159 -2.8651  0.9858 -0.9424
  494SOL    HW2 1482   2.841   2.127   0.296 -2.8862 -0.9414 -1.4326
  495SOL     OW 1483   2.829   2.484   2.981  0.3953 -0.6310 -0.0994
  495SOL    HW1 1484   2.794   2.405   2.922 -3.0236 -0.8871 -1.8268
  495SOL    HW2 1485   2.828   2.461   3.081  0.1872  1.1203 -0.1151
  496SOL     OW 1486   2.505   0.534   1.584 -0.4578 -0.1758 -0.1494
  496SOL    HW1 1487   2.420   0.571   1.548  0.9420 -2.4268 -1.0098
  496SOL    HW2 1488   2.518   0.442   1.549  2.3576  3.1249  1.3476
  497SOL     OW 1489   2.941   1.316   3.040 -0.0281 -0.4840 -0.1113
  497SOL    HW1 1490   3.007   1.360   3.103 -3.6213  0.6940  0.1667
  497SOL    HW2 1491   2.904   1.380   2.967 -1.5413  1.5978 -1.8323
  498SOL     OW 1492   3.111   1.412   1.814 -0.1674 -0.0410 -0.1902
  498SOL    HW1 1493   3.055   1.462   1.884 -1.1307  1.3470  2.9661
  498SOL    HW2 1494   3.059   1.361   1.738 -0.7048 -0.1540 -1.4533
  499SOL     OW 1495   0.763   2.270   2.668  0.0114  0.2463 -0.0378
  499SOL    HW1 1496   0.708   2.352   2.648  1.8957 -0.9465  2.2771
  499SOL    HW2 1497   0.720   2.211   2.736 -0.1661  0.1290 -4.5887
  500SOL     OW 1498   1.782   0.374   3.067 -0.3688  0.0543 -0.1308
  500SOL    HW1 1499   1.829   0.442   3.007  0.2603  2.4645 -0.5805
  500SOL    HW2 1500   1.804   0.276   3.043  1.6361 -2.4834 -0.7932
  501SOL     OW 1501   1.282   0.008   1.913  0.4989 -0.3091  0.0002
  501SOL    HW1 1502   1.340   0.034   1.994  0.3083  0.8284  3.0270
  501SOL    HW2 1503   1.339   3.080   1.842  2.7688  1.8154  0.9670
  502SOL     OW 1504   2.325   0.851   1.838 -0.4098  0.5070  0.1016
  502SOL    HW1 1505   2.415   0.882   1.789  4.1129 -0.8121 -1.9848
  502SOL    HW2 1506   2.295   0.768   1.791 -1.7420 -2.1431 -2.0397
  503SOL     OW 1507   2.210   1.929   2.270 -0.1544 -0.3154 -0.0039
  503SOL    HW1 1508   2.247   2.017   2.245 -0.7767  1.0138 -1.7559
  503SOL    HW2 1509   2.113   1.920   2.245 -1.6733 -0.6432 -1.4071
  504SOL     OW 1510   1.514   0.827   1.568  0.3435 -0.6066  0.0727
  504SOL    HW1 1511   1.457   0.910   1.546 -0.2824  0.4696 -2.5144
  504SOL    HW2 1512   1.457   0.740   1.592 -0.9179 -1.5240 -1.2663
  505SOL     OW 1513   0.739   0.743   1.863  0.4539 -0.3673  0.0542
  505SOL    HW1 1514   0.816   0.808   1.857  0.5949 -1.0108  1.1492
  505SOL    HW2 1515   0.689   0.737   1.775 -0.4746 -0.7286 -0.6543
  506SOL     OW 1516   0.423   0.263   2.597 -0.2258 -0.1246 -0.4089
  506SOL    HW1 1517   0.439   0.173   2.647  1.9001  3.0125 -1.0596
  506SOL    HW2 1518   0.516   0.302   2.574  3.0760 -0.5275 -2.1217
  507SOL     OW 1519   0.174   0.183   0.126 -0.5703 -0.6375 -0.0636
  507SOL    HW1 1520   0.261   0.230   0.169  2.4504 -0.2420  1.7004
  507SOL    HW2 1521   0.099   0.163   0.196 -1.0466 -0.4045 -0.1497
  508SOL     OW 1522   1.277   1.043   1.545  0.4597 -0.1671 -0.2026
  508SOL    HW1 1523   1.236   0.997   1.633  1.9325  1.0475 -0.6238
  508SOL    HW2 1524   1.243   1.135   1.526 -1.1134  1.8146 -1.0362
  509SOL     OW 1525   1.466   2.194   1.407  0.4030 -0.5278  0.0308
  509SOL    HW1 1526   1.425   2.126   1.340 -2.1840 -2.7230 -1.8164
  509SOL    HW2 1527   1.565   2.201   1.400 -1.4836  0.5309 -1.1307
  510SOL     OW 1528   2.634   1.265   1.914 -0.6814 -0.2288  0.0647
  510SOL    HW1 1529   2.657   1.353   1.870 -0.5710 -0.9889  1.1295
  510SOL    HW2 1530   2.643   1.275   2.015  0.8772  2.5555 -0.6592
  511SOL     OW 1531   0.898   2.194   1.524 -0.1399 -0.0778 -0.4226
  511SOL    HW1 1532   0.883   2.293   1.536 -3.2670  0.8952  0.2635
  511SOL    HW2 1533   0.818   2.141   1.560 -0.6724  1.7573 -3.3557
  512SOL     OW 1534   2.741   1.838   0.874  0.2042  0.4874  0.3362
  512SOL    HW1 1535   2.773   1.740   0.898  0.6200 -1.2953 -0.3023
  512SOL    HW2 1536   2.812   1.907   0.869 -2.5092 -1.6820  0.2740
  513SOL     OW 1537   0.139   1.433   2.891  0.3388  0.1739  0.2272
  513SOL    HW1 1538   0.204   1.508   2.876 -1.9369  0.0673  1.0863
  513SOL    HW2 1539   0.111   1.433   2.989  0.3405  1.3319  3.5176
  514SOL     OW 1540   2.904   2.372   2.541  0.0080 -0.4013  0.1620
  514SOL    HW1 1541   2.935   2.292   2.489 -2.1270  1.4798  0.4618
  514SOL    HW2 1542   2.862   2.444   2.480  0.0341 -2.5228  1.5850
  515SOL     OW 1543   2.217   1.112   1.032 -0.1039 -0.5606  0.0655
  515SOL    HW1 1544   2.140   1.056   0.995 -0.8791  1.3471  1.7445
  515SOL    HW2 1545   2.214   1.207   1.005  0.6497 -0.8257 -1.7014
  516SOL     OW 1546   2.161   1.921   0.362 -0.2299  0.6024 -0.0796
  516SOL    HW1 1547   2.221   1.937   0.443 -1.9266  0.3897 -2.0768
  516SOL    HW2 1548   2.078   1.867   0.380  0.7828  1.0880 -1.3832
  517SOL     OW 1549   0.759   1.034   0.183  0.3976 -0.2017  0.0410
  517SOL    HW1 1550   0.720   1.067   0.094  0.6663  0.0092  0.5253
  517SOL    HW2 1551   0.742   1.110   0.252 -1.4068 -1.7607  0.6566
  518SOL     OW 1552   2.735   2.995   2.006 -0.2434 -0.2975 -0.7802
  518SOL    HW1 1553   2.785   2.951   2.087 -3.0502 -1.7188  1.0474
  518SOL    HW2 1554   2.640   2.967   2.013  1.2066 -1.3478  0.4717
  519SOL     OW 1555   1.510   1.623   2.642 -0.3454  0.9124  0.5660
  519SOL    HW1 1556   1.541   1.717   2.666  0.4199  0.7086  2.8230
  519SOL    HW2 1557   1.583   1.552   2.664 -1.4849  0.2810 -0.5953
  520SOL     OW 1558   2.463   2.918   2.357 -0.2503 -0.6784  0.3179
  520SOL    HW1 1559   2.405   2.995   2.319 -2.9138 -2.1237 -1.3889
  520SOL    HW2 1560   2.509   2.864   2.282  2.4990 -2.3593  0.6416
  521SOL     OW 1561   0.293   1.651   2.116 -1.4696  0.7609 -0.1684
  521SOL    HW1 1562   0.369   1.712   2.091  1.0552  3.7649 -1.1981
  521SOL    HW2 1563   0.280   1.577   2.047 -1.0103  1.3380  0.4800
  522SOL     OW 1564   0.725   2.577   1.871  0.6060 -0.6151  0.4717
  522SOL    HW1 1565   0.675   2.560   1.784 -2.3052  2.6928  1.9007
  522SOL    HW2 1566   0.801   2.648   1.862  4.4964  2.9501  1.7137
  523SOL     OW 1567   2.968   2.363   1.431 -0.1581  0.8215 -0.9959
  523SOL    HW1 1568   2.938   2.379   1.527 -1.8785 -0.1172 -0.0854
  523SOL    HW2 1569   2.888   2.388   1.373 -0.3404  0.1601 -0.4128
  524SOL     OW 1570   1.490   2.470   0.820 -0.4573  0.4600 -0.0482
  524SOL    HW1 1571   1.456   2.433   0.730  0.8240  0.0596 -1.6165
  524SOL    HW2 1572   1.447   2.423   0.901 -0.2404 -1.6777  1.5561
  525SOL     OW 1573   2.701   1.026   1.128 -0.7954 -0.3065  0.1877
  525SOL    HW1 1574   2.794   1.074   1.133  3.9084 -0.1868  1.4604
  525SOL    HW2 1575   2.625   1.076   1.081 -0.1479  0.4965 -0.5873
  526SOL     OW 1576   0.922   2.447   0.893 -0.6044  0.1065 -0.1620
  526SOL    HW1 1577   0.899   2.460   0.793  1.9117 -0.6413 -2.4274
  526SOL    HW2 1578   0.977   2.363   0.899 -1.1596  0.4417 -0.4759
  527SOL     OW 1579   2.163   2.345   0.712  0.1263  0.2534 -0.1099
  527SOL    HW1 1580   2.167   2.402   0.632 -2.0805 -0.7268  0.0827
  527SOL    HW2 1581   2.243   2.359   0.772 -3.6779  2.4401 -2.7283
  528SOL     OW 1582   2.136   0.381   0.110 -0.7093  0.3911 -0.3367
  528SOL    HW1 1583   2.043   0.387   0.151 -1.2075  0.4814  1.9389
  528SOL    HW2 1584   2.174   0.288   0.130 -2.3446 -0.6641  0.6432
  529SOL     OW 1585   1.197   1.472   2.295  0.5796 -0.7844  0.1809
  529SOL    HW1 1586   1.286   1.460   2.251 -0.0352 -2.2120  1.8647
  529SOL    HW2 1587   1.215   1.479   2.395 -1.5951  0.0414  0.3920
  530SOL     OW 1588   2.389   1.052   2.296 -0.3312 -0.1548 -0.1227
  530SOL    HW1 1589   2.484   1.015   2.297  0.8825 -0.2570  1.1302
  530SOL    HW2 1590   2.372   1.133   2.361  1.6941  0.0492 -0.1474
  531SOL     OW 1591   0.876   0.818   0.076 -0.8440 -0.8292  0.0558
  531SOL    HW1 1592   0.829   0.885   0.133  1.2552  2.5608  0.7951
  531SOL    HW2 1593   0.865   0.724   0.118  0.7384 -0.7930 -0.0500
  532SOL     OW 1594   1.728   1.464   0.696  0.1131 -0.5675 -0.1330
  532SOL    HW1 1595   1.822   1.492   0.720  2.5570 -1.8969  0.7631
  532SOL    HW2 1596   1.689   1.405   0.768 -1.0029  0.1445  1.0743
  533SOL     OW 1597   0.356   0.669   2.183  0.3679  0.2069 -0.1211
  533SOL    HW1 1598   0.415   0.730   2.129  1.9876  0.5705  0.9622
  533SOL    HW2 1599   0.363   0.680   2.284 -0.6437  1.3400  2.1186
  534SOL     OW 1600   1.424   0.378   2.625 -0.1761 -0.5380  0.0828
  534SOL    HW1 1601   1.344   0.413   2.673 -0.6510 -1.5285  0.2141
  534SOL    HW2 1602   1.419   0.277   2.633  0.0737  0.0752  1.3002
  535SOL     OW 1603   0.819   0.251   0.514  0.3229 -0.0194  0.0732
  535SOL    HW1 1604   0.906   0.203   0.504 -1.7831  1.6071  0.3828
  535SOL    HW2 1605   0.807   0.290   0.609 -1.9620  1.1617 -1.2934
  536SOL     OW 1606   0.879   0.349   3.083 -0.4066 -0.1838  0.4504
  536SOL    HW1 1607   0.934   0.420   0.015  0.8530  1.8362  0.9034
  536SOL    HW2 1608   0.863   0.271   0.029 -0.0441  1.6053  3.0197
  537SOL     OW 1609   1.288   2.849   1.615  0.2375  0.0841  0.1603
  537SOL    HW1 1610   1.325   2.788   1.544 -1.3713 -0.1595  1.9633
  537SOL    HW2 1611   1.360   2.884   1.674 -2.2346  1.0233 -3.3881
  538SOL     OW 1612   0.375   2.944   0.012 -0.5658  0.0018  0.3039
  538SOL    HW1 1613   0.298   2.984   3.077 -0.9971 -1.8932  2.1890
  538SOL    HW2 1614   0.465   2.989   3.103  0.2104  1.5184 -0.3604
  539SOL     OW 1615   2.758   1.018   1.912 -0.0570 -0.7262 -0.2190
  539SOL    HW1 1616   2.695   0.956   1.965 -0.3481  1.4195 -0.3340
  539SOL    HW2 1617   2.715   1.111   1.902  0.5189 -1.1881  0.8943
  540SOL     OW 1618   2.194   2.296   1.783 -0.0477 -0.1377 -0.8279
  540SOL    HW1 1619   2.287   2.334   1.761  2.1193  0.8312  0.7050
  540SOL    HW2 1620   2.199   2.201   1.814 -0.2961  2.6371  0.8787
  541SOL     OW 1621   0.431   2.693   1.514 -0.4099 -0.6467 -0.0432
  541SOL    HW1 1622   0.349   2.719   1.455 -0.4432 -1.2385  0.8263
  541SOL    HW2 1623   0.422   2.749   1.600  0.6126 -0.5189 -0.7023
  542SOL     OW 1624   2.880   0.380   2.018 -0.2695 -0.0070  0.4118
  542SOL    HW1 1625   2.904   0.410   1.921  0.6563 -0.3824 -0.4807
  542SOL    HW2 1626   2.859   0.277   2.019 -1.0090 -1.8255 -2.5047
  543SOL     OW 1627   1.235   0.672   0.850 -0.0876  0.0804  0.6502
  543SOL    HW1 1628   1.275   0.680   0.758  1.3156 -0.5359  1.3002
  543SOL    HW2 1629   1.220   0.764   0.881 -2.4150 -3.5295 -3.3539
  544SOL     OW 1630   2.341   2.107   1.192 -0.1425  0.5456  0.4910
  544SOL    HW1 1631   2.412   2.046   1.146  3.1027  0.0969 -1.2072
  544SOL    HW2 1632   2.327   2.193   1.141  2.2567  0.2429 -0.3970
  545SOL     OW 1633   1.496   1.523   1.341  0.1288  0.1520  0.3169
  545SOL    HW1 1634   1.591   1.494   1.307  1.5503 -4.1485 -2.4635
  545SOL    HW2 1635   1.489   1.623   1.367  2.6016  0.3057  1.2382
  546SOL     OW 1636   2.885   0.098   2.760 -0.3553  0.0903 -0.1969
  546SOL    HW1 1637   2.845   0.143   2.680  2.4061  1.3876 -2.3089
  546SOL    HW2 1638   2.834   0.098   2.851 -0.1328  2.1605 -0.4889
  547SOL     OW 1639   2.451   0.159   2.786 -0.5656  0.6897 -0.4336
  547SOL    HW1 1640   2.362   0.204   2.810 -0.9990 -3.0072 -0.7174
  547SOL    HW2 1641   2.526   0.230   2.813  1.0519  1.2349  0.4345
  548SOL     OW 1642   2.695   1.792   2.757 -0.0456  0.2214  0.1894
  548SOL    HW1 1643   2.658   1.881   2.785  0.2749 -1.0161 -0.9579
  548SOL    HW2 1644   2.777   1.771   2.808 -0.6988  0.9029 -1.1602
  549SOL     OW 1645   2.473   0.509   0.684 -0.1403 -0.0211  0.1665
  549SOL    HW1 1646   2.531   0.577   0.729 -0.0980 -0.2388  0.3601
  549SOL    HW2 1647   2.531   0.458   0.617 -0.3906  0.3633  0.2450
  550SOL     OW 1648   2.726   1.247   0.094  0.2717 -0.7996 -0.1118
  550SOL    HW1 1649   2.801   1.291   0.034  1.2099  0.1721  1.5497
  550SOL    HW2 1650   2.641   1.305   0.086  0.9870  0.9446 -0.3078
  551SOL     OW 1651   1.321   2.688   1.376 -0.0096 -0.0537 -0.0695
  551SOL    HW1 1652   1.260   2.764   1.345  0.5855 -3.2619  0.1028
  551SOL    HW2 1653   1.267   2.618   1.423 -1.7541  3.5894 -1.4488
  552SOL     OW 1654   2.797   2.148   2.883 -0.2956  0.4007  0.3643
  552SOL    HW1 1655   2.784   2.230   2.825  0.8550  3.9548 -1.1570
  552SOL    HW2 1656   2.732   2.150   2.961  0.1291  1.4025 -1.5405
  553SOL     OW 1657   0.611   3.103   0.697 -0.2227  0.4510 -0.1989
  553SOL    HW1 1658   0.564   0.071   0.709  0.1213 -0.0451 -3.2273
  553SOL    HW2 1659   0.708   0.001   0.730  1.0143 -1.5274 -0.7129
  554SOL     OW 1660   1.770   1.870   1.866 -1.0871  0.0586  0.1296
  554SOL    HW1 1661   1.714   1.858   1.950  3.6382 -2.0875 -1.6478
  554SOL    HW2 1662   1.825   1.787   1.848 -1.1488  0.1966 -1.0923
  555SOL     OW 1663   1.503   2.667   2.061  0.7168  0.0208  0.1559
  555SOL    HW1 1664   1.433   2.647   1.983 -1.7826  2.1437 -2.5335
  555SOL    HW2 1665   1.559   2.586   2.084 -1.9624  0.0736  1.8646
  556SOL     OW 1666   1.980   1.293   0.534  0.2413 -0.2522 -0.5432
  556SOL    HW1 1667   2.067   1.268   0.587  2.0470  1.7271  0.5681
  556SOL    HW2 1668   1.996   1.391   0.493 -0.2472  2.7068 -3.2121
  557SOL     OW 1669   1.428   2.256   1.973  0.4341 -0.3943 -0.3966
  557SOL    HW1 1670   1.364   2.310   2.030 -2.5307  0.7484 -1.6934
  557SOL    HW2 1671   1.388   2.241   1.881 -1.1364  0.8529  2.4924
  558SOL     OW 1672   3.098   0.981   2.433  0.5753  0.2694 -0.0346
  558SOL    HW1 1673   3.025   1.014   2.496 -0.1493 -2.1267  0.5105
  558SOL    HW2 1674   3.049   0.915   2.368 -0.8273 -0.1514  0.3147
  559SOL     OW 1675   2.172   2.583   2.121  0.1293  0.2769 -0.1676
  559SOL    HW1 1676   2.098   2.573   2.050  0.6003  0.9243 -2.1502
  559SOL    HW2 1677   2.159   2.671   2.162 -1.1226 -1.3008 -1.7136
  560SOL     OW 1678   0.018   2.928   2.623 -0.0868 -0.4118  0.3258
  560SOL    HW1 1679   3.042   2.937   2.585  0.2410 -1.8228  3.0785
  560SOL    HW2 1680   0.085   2.935   2.545  0.8027  1.6562 -2.0795
  561SOL     OW 1681   1.780   0.836   0.436  0.2882  0.2785  0.0899
  561SOL    HW1 1682   1.780   0.738   0.411  0.2583 -1.5911 -1.5445
  561SOL    HW2 1683   1.871   0.867   0.478 -1.2766  0.1030  2.8256
  562SOL     OW 1684   0.877   1.203   2.085 -0.4045 -0.6364  0.2502
  562SOL    HW1 1685   0.935   1.152   2.152 -0.8532 -2.0156 -0.0966
  562SOL    HW2 1686   0.874   1.305   2.113 -0.8168 -0.2992  2.2914
  563SOL     OW 1687   1.574   2.322   0.134 -0.2707 -0.5107 -0.1753
  563SOL    HW1 1688   1.523   2.333   0.221  1.0659  1.8515 -0.0591
  563SOL    HW2 1689   1.511   2.282   0.063 -1.7901 -0.5901 -0.0270
  564SOL     OW 1690   0.490   1.953   0.794  0.3067  0.1342  0.7308
  564SOL    HW1 1691   0.540   2.013   0.731 -0.3314  2.2443 -0.1177
  564SOL    HW2 1692   0.477   1.858   0.753  1.0661 -3.0194 -0.0482
  565SOL     OW 1693   0.622   3.039   3.063 -0.0121  0.1574 -0.1802
  565SOL    HW1 1694   0.648   2.958   3.006 -0.5111  0.7730 -0.8375
  565SOL    HW2 1695   0.639   0.009   3.011 -1.0674 -0.5250  1.3425
  566SOL     OW 1696   1.931   2.582   2.998 -0.3413 -0.2415  0.0461
  566SOL    HW1 1697   1.884   2.534   2.916  3.3670 -2.5134 -2.9638
  566SOL    HW2 1698   1.867   2.589   3.079 -2.1875  0.5695  2.6577
  567SOL     OW 1699   2.453   1.742   0.863 -0.2255 -0.1759 -0.2259
  567SOL    HW1 1700   2.553   1.767   0.850  1.9014 -1.2110 -1.1517
  567SOL    HW2 1701   2.443   1.657   0.921  0.0897 -1.1842 -1.5164
  568SOL     OW 1702   1.528   0.931   2.496  0.3772  0.4308 -0.0489
  568SOL    HW1 1703   1.446   0.877   2.459 -1.2873 -2.5394  0.6840
  568SOL    HW2 1704   1.570   0.877   2.572  0.0616 -1.0222  1.6636
  569SOL     OW 1705   2.228   1.715   1.852  0.2806  0.4278 -0.3162
  569SOL    HW1 1706   2.233   1.636   1.785 -0.2370 -0.3165  0.1934
  569SOL    HW2 1707   2.253   1.683   1.946  1.3481 -1.9402  1.2193
  570SOL     OW 1708   2.801   2.623   2.014 -0.0034  0.2849  0.0657
  570SOL    HW1 1709   2.885   2.613   2.066 -0.2859  0.5324 -0.0579
  570SOL    HW2 1710   2.823   2.675   1.928 -0.1162 -0.1083 -1.2840
  571SOL     OW 1711   0.179   0.102   1.340  0.5162  0.3931  0.2483
  571SOL    HW1 1712   0.260   0.074   1.289 -3.1190 -0.6624  2.0479
  571SOL    HW2 1713   0.132   0.180   1.294 -1.5209  1.0074 -1.4563
  572SOL     OW 1714   0.794   1.741   0.720  0.0371 -0.3167 -0.5155
  572SOL    HW1 1715   0.773   1.765   0.821 -1.0232 -1.8616  2.5627
  572SOL    HW2 1716   0.833   1.819   0.669  1.5903  1.2061 -0.0329
  573SOL     OW 1717   1.160   0.970   0.059 -0.0402 -0.4094 -0.1419
  573SOL    HW1 1718   1.083   0.910   0.077  2.1369  1.1089  1.9936
  573SOL    HW2 1719   1.157   1.044   0.130 -1.8990  0.7850  2.0716
  574SOL     OW 1720   0.367   0.134   0.392  0.4462 -0.1705 -0.0687
  574SOL    HW1 1721   0.433   0.060   0.405 -2.3590  0.1567 -1.8618
  574SOL    HW2 1722   0.387   0.187   0.309  1.4581  0.4858  0.3332
  575SOL     OW 1723   1.038   1.991   1.208  0.5495 -0.4773 -0.0528
  575SOL    HW1 1724   1.080   1.977   1.115  3.2474 -0.0215 -0.9047
  575SOL    HW2 1725   1.082   1.921   1.276 -2.2755  0.0591  1.2954
  576SOL     OW 1726   2.923   0.064   1.957  0.1308  0.0703 -0.0864
  576SOL    HW1 1727   2.864   3.101   1.965 -0.2541  0.0750  0.7689
  576SOL    HW2 1728   2.969   0.080   2.048 -0.7784  0.0249 -0.5591
  577SOL     OW 1729   2.950   1.553   1.979  0.2472 -0.2696  0.3796
  577SOL    HW1 1730   2.965   1.656   1.978  0.8955 -0.2332 -0.6596
  577SOL    HW2 1731   2.978   1.513   2.069 -1.6777  1.4828  0.3360
  578SOL     OW 1732   0.912   2.983   2.303  0.4519  0.0762  0.2732
  578SOL    HW1 1733   0.961   3.058   2.248  1.8707  2.8979  0.7525
  578SOL    HW2 1734   0.952   2.888   2.288  0.2727 -2.4381 -1.2323
  579SOL     OW 1735   1.941   1.862   2.179 -0.2844 -0.8001 -0.4544
  579SOL    HW1 1736   1.957   1.931   2.106 -1.8332  0.0471 -1.4828
  579SOL    HW2 1737   1.970   1.769   2.145  2.5938  0.7595 -2.1164
  580SOL     OW 1738   1.876   1.102   2.108  0.4984  0.0737 -0.0509
  580SOL    HW1 1739   1.937   1.040   2.051  0.7777 -1.4779 -1.0204
  580SOL    HW2 1740   1.842   1.056   2.189  1.9859  4.5815 -3.8777
  581SOL     OW 1741   1.313   1.211   2.540  0.2019 -0.5898  0.4043
  581SOL    HW1 1742   1.391   1.201   2.469  0.2688 -0.9840  0.3716
  581SOL    HW2 1743   1.280   1.304   2.547  0.7428 -0.3646 -0.8076
  582SOL     OW 1744   3.104   2.045   1.957  0.3791 -0.1299  0.1988
  582SOL    HW1 1745   0.056   1.983   1.996 -0.2567  0.5359  1.3667
  582SOL    HW2 1746   3.113   2.132   2.009  0.2865 -0.7381 -0.7902
  583SOL     OW 1747   1.920   1.350   0.995 -0.0747  0.6680 -0.2039
  583SOL    HW1 1748   1.934   1.258   0.957  0.4563 -1.5257 -1.6917
  583SOL    HW2 1749   1.963   1.424   0.935 -0.2020 -1.0063 -3.5676
  584SOL     OW 1750   0.819   2.470   0.376 -0.2426 -0.2337  0.4942
  584SOL    HW1 1751   0.782   2.561   0.351  1.1498 -1.9594  0.6935
  584SOL    HW2 1752   0.852   2.421   0.287  1.2616  1.1718 -5.0025
  585SOL     OW 1753   0.251   2.493   0.290 -0.0894  0.0179 -0.1959
  585SOL    HW1 1754   0.179   2.479   0.223 -0.3477  2.1549  0.2691
  585SOL    HW2 1755   0.240   2.583   0.336 -2.0863  1.4486  3.8709
  586SOL     OW 1756   2.252   1.388   0.390 -0.3927  0.7324 -0.3085
  586SOL    HW1 1757   2.161   1.369   0.345 -2.0124 -1.3459 -1.1952
  586SOL    HW2 1758   2.248   1.353   0.489  0.6843 -2.6385  0.9643
  587SOL     OW 1759   2.966   2.021   0.376  0.0945 -0.0952 -0.1127
  587SOL    HW1 1760   2.997   2.106   0.424 -0.3446 -1.4624 -0.5553
  587SOL    HW2 1761   2.934   1.955   0.445 -0.5615  1.1526 -0.1932
  588SOL     OW 1762   3.063   0.806   0.825  0.5665  0.1579  0.3634
  588SOL    HW1 1763   0.004   0.840   0.907  1.1866 -2.0838  2.5921
  588SOL    HW2 1764   2.967   0.786   0.858 -2.7509  2.5909 -0.4927
  589SOL     OW 1765   1.339   0.372   0.565 -0.7916 -0.1847 -0.5847
  589SOL    HW1 1766   1.311   0.466   0.603 -0.6628  1.3710 -1.5841
  589SOL    HW2 1767   1.281   0.292   0.595 -2.1985 -1.3178 -0.9760
  590SOL     OW 1768   2.492   2.455   0.201  0.1870 -0.0484 -0.3784
  590SOL    HW1 1769   2.523   2.422   0.297 -0.3039 -0.6441  1.4382
  590SOL    HW2 1770   2.468   2.555   0.198  0.3876 -4.1246  1.1625
  591SOL     OW 1771   0.273   2.616   1.916  0.4362  0.0478  0.1028
  591SOL    HW1 1772   0.322   2.532   1.945 -0.3748  1.4743  0.7879
  591SOL    HW2 1773   0.189   2.593   1.860 -2.3058  2.3772 -3.2478
  592SOL     OW 1774   0.452   1.282   1.996  0.2112  0.0711 -0.4584
  592SOL    HW1 1775   0.420   1.218   2.070 -2.1183  2.4675 -2.5042
  592SOL    HW2 1776   0.540   1.248   1.958  1.3129 -1.2902  0.4388
  593SOL     OW 1777   1.528   1.773   1.415 -0.4911 -0.3764 -0.4629
  593SOL    HW1 1778   1.610   1.732   1.461 -1.7122  2.8889 -0.5688
  593SOL    HW2 1779   1.466   1.823   1.483  2.4677  1.8893  0.6452
  594SOL     OW 1780   0.394   0.842   2.991  0.6747  0.4425  0.2008
  594SOL    HW1 1781   0.375   0.939   3.019 -0.3092  1.0891  2.1133
  594SOL    HW2 1782   0.318   0.810   2.927 -0.5646 -0.2738 -0.1095
  595SOL     OW 1783   1.954   0.429   0.933  0.0186 -0.0983  0.4418
  595SOL    HW1 1784   1.987   0.511   0.986  0.7390 -2.5989  3.1585
  595SOL    HW2 1785   1.899   0.373   0.999 -0.7873 -0.3464 -0.4439
  596SOL     OW 1786   0.501   1.251   0.970  0.3508  0.1325 -0.0693
  596SOL    HW1 1787   0.597   1.277   1.006  3.5322  1.0243  0.5498
  596SOL    HW2 1788   0.442   1.330   0.980  0.8357 -1.4528 -0.8088
  597SOL     OW 1789   3.036   2.516   2.783  0.0575  0.4631  0.0303
  597SOL    HW1 1790   3.116   2.570   2.826  1.4835  0.9902  3.2644
  597SOL    HW2 1791   2.956   2.511   2.848  1.2450 -0.3050 -0.6762
  598SOL     OW 1792   2.286   2.012   2.602 -0.3905  0.7172  0.2681
  598SOL    HW1 1793   2.195   2.047   2.569 -2.1848  0.8253  1.5477
  598SOL    HW2 1794   2.312   2.061   2.686 -1.6849  2.2376  1.4552
  599SOL     OW 1795   1.501   0.617   0.250  0.6012  0.2699 -0.2051
  599SOL    HW1 1796   1.422   0.557   0.274  0.6934  0.2489  0.5171
  599SOL    HW2 1797   1.583   0.592   0.301 -0.3228 -0.1867  0.1928
  600SOL     OW 1798   0.906   0.114   0.118 -0.2665  0.4058  0.4944
  600SOL    HW1 1799   0.825   0.082   0.170  1.6289  4.2996 -1.3402
  600SOL    HW2 1800   0.954   0.031   0.076  0.9794 -3.3497  0.5315
  601SOL     OW 1801   0.586   0.212   1.584  0.4437  0.2915  0.5587
  601SOL    HW1 1802   0.676   0.250   1.585 -1.0543 -0.5473  3.3617
  601SOL    HW2 1803   0.514   0.280   1.560 -0.7174  1.0503 -2.7005
  602SOL     OW 1804   0.291   2.763   0.799  0.4857 -0.3222 -0.4310
  602SOL    HW1 1805   0.288   2.752   0.697 -1.4393 -2.1939  0.7970
  602SOL    HW2 1806   0.200   2.800   0.835  0.0443 -2.1433 -0.4202
  603SOL     OW 1807   0.667   2.748   2.541  0.1550  0.1894  0.3355
  603SOL    HW1 1808   0.672   2.800   2.458  1.5052 -2.2797  3.0303
  603SOL    HW2 1809   0.598   2.673   2.524 -0.8082  0.2709 -2.1311
  604SOL     OW 1810   1.116   2.584   0.062 -0.4303 -0.4788 -0.2715
  604SOL    HW1 1811   1.150   2.576   0.156 -0.7295  0.0665  1.8122
  604SOL    HW2 1812   1.173   2.529   0.001 -1.2907  0.9479  0.1886
  605SOL     OW 1813   1.762   0.823   1.703  0.2848 -0.1390  0.0366
  605SOL    HW1 1814   1.674   0.808   1.648 -0.8987  0.2799 -0.1042
  605SOL    HW2 1815   1.784   0.925   1.711 -0.8725  1.7077  0.6666
  606SOL     OW 1816   1.048   0.665   2.456  0.1190  0.8485  0.4765
  606SOL    HW1 1817   1.066   0.564   2.475 -0.2556  0.8332  1.6159
  606SOL    HW2 1818   1.025   0.717   2.541  0.9443 -0.6240 -0.0709
  607SOL     OW 1819   0.408   1.325   1.367 -0.0535 -0.0858  0.3726
  607SOL    HW1 1820   0.339   1.275   1.309 -0.4826 -1.1504  2.4907
  607SOL    HW2 1821   0.402   1.429   1.359 -0.3161  1.5317 -1.0464
  608SOL     OW 1822   2.501   2.176   2.464 -0.1504 -0.1201 -0.2432
  608SOL    HW1 1823   2.581   2.132   2.415 -0.4413  2.6551 -0.2609
  608SOL    HW2 1824   2.419   2.115   2.478 -0.0226 -1.3579 -1.4276
  609SOL     OW 1825   2.205   0.071   0.127 -0.0526  0.4173  0.2241
  609SOL    HW1 1826   2.108   0.067   0.154  2.0881  0.8630 -0.5070
  609SOL    HW2 1827   2.264   0.027   0.197  3.2170  0.2662 -3.0735
  610SOL     OW 1828   0.708   2.927   1.467  0.2438 -0.0202  0.6630
  610SOL    HW1 1829   0.763   2.865   1.401  1.0890 -1.5922 -1.5306
  610SOL    HW2 1830   0.768   2.965   1.534 -0.4057 -2.2708 -2.8111
  611SOL     OW 1831   0.967   1.455   0.784  0.0609 -0.0389 -0.0502
  611SOL    HW1 1832   0.907   1.462   0.699  1.2287 -2.1123 -3.6776
  611SOL    HW2 1833   1.018   1.366   0.781 -0.1357 -1.5862  1.2995
  612SOL     OW 1834   0.472   3.113   2.460 -0.1302 -0.2606 -0.7424
  612SOL    HW1 1835   0.476   0.003   2.563 -0.5342  0.7914  0.0476
  612SOL    HW2 1836   0.540   3.045   2.424  3.1680 -2.9578 -1.2821
  613SOL     OW 1837   2.832   1.838   0.549  0.6216 -0.1416 -0.0726
  613SOL    HW1 1838   2.889   1.773   0.604  0.0120  1.2390  0.0142
  613SOL    HW2 1839   2.746   1.798   0.503 -1.0419  0.8402 -0.2512
  614SOL     OW 1840   1.698   0.246   1.716 -0.4835  0.0768  0.1377
  614SOL    HW1 1841   1.681   0.343   1.730  1.6577 -0.1009  1.2319
  614SOL    HW2 1842   1.686   0.222   1.617  0.3109 -1.4519 -1.4530
  615SOL     OW 1843   1.074   1.603   1.256  0.1103 -0.3161  0.2039
  615SOL    HW1 1844   1.095   1.546   1.339 -1.2766 -1.6766 -1.4175
  615SOL    HW2 1845   1.091   1.700   1.258  2.1764  1.7658 -0.8634
  616SOL     OW 1846   1.486   1.517   3.106  0.1200  0.2168 -0.1112
  616SOL    HW1 1847   1.576   1.471   3.087 -2.2512 -1.8714  0.1594
  616SOL    HW2 1848   1.500   1.598   0.047 -0.2856  0.6550 -1.5459
  617SOL     OW 1849   1.776   2.824   0.228 -0.3415  0.0777 -0.0345
  617SOL    HW1 1850   1.803   2.912   0.182  0.4340  1.4930  0.0826
  617SOL    HW2 1851   1.677   2.807   0.215 -1.0087  2.3827 -1.0152
  618SOL     OW 1852   0.984   0.817   2.680  0.1889 -0.1488 -0.2079
  618SOL    HW1 1853   0.991   0.837   2.780  1.6814  1.7156 -2.9259
  618SOL    HW2 1854   1.014   0.901   2.625 -2.1964  1.1624 -1.5025
  619SOL     OW 1855   2.539   1.405   0.555  0.1916 -0.1469  0.4659
  619SOL    HW1 1856   2.514   1.307   0.563  0.2475  1.6288 -0.6238
  619SOL    HW2 1857   2.598   1.417   0.469 -2.4950 -0.1702  1.2284
  620SOL     OW 1858   2.273   2.692   0.057  0.3468 -0.3802  0.1979
  620SOL    HW1 1859   2.351   2.724   0.108 -2.1781  0.0536  0.0422
  620SOL    HW2 1860   2.191   2.687   0.114  3.5392 -1.2145 -0.9635
  621SOL     OW 1861   2.509   1.385   0.014 -0.3223 -0.1481 -0.4073
  621SOL    HW1 1862   2.423   1.372   0.066  0.6380 -1.2471 -1.4970
  621SOL    HW2 1863   2.487   1.424   3.040 -1.2345 -0.9777 -0.7157
  622SOL     OW 1864   1.246   2.664   2.343  0.0320  0.8795  0.6212
  622SOL    HW1 1865   1.276   2.566   2.371  1.0881 -1.0661  2.0128
  622SOL    HW2 1866   1.315   2.708   2.280  2.1799 -0.3115 -1.1710
  623SOL     OW 1867   0.623   1.672   0.201 -0.2337  0.1791 -0.6520
  623SOL    HW1 1868   0.628   1.775   0.205 -1.4170 -0.8091  2.9420
  623SOL    HW2 1869   0.559   1.644   0.132  0.3081 -0.8483  0.6981
  624SOL     OW 1870   0.538   0.033   2.744 -0.0966  0.0232 -0.2641
  624SOL    HW1 1871   0.628   0.058   2.783  0.3371 -0.1758 -2.5076
  624SOL    HW2 1872   0.523   3.052   2.751  0.6961 -1.6142  1.5187
  625SOL     OW 1873   1.025   1.888   0.604 -0.3406 -0.4563 -0.9363
  625SOL    HW1 1874   0.976   1.955   0.661  1.7338  1.1295 -1.6337
  625SOL    HW2 1875   1.119   1.921   0.582  0.4649 -0.2689 -2.2895
  626SOL     OW 1876   2.473   0.021   0.004 -0.1511  0.1182  0.0069
  626SOL    HW1 1877   2.377   0.045   0.025 -0.7250  1.2594  2.2166
  626SOL    HW2 1878   2.533   0.107   3.112  2.9242  0.3708  1.3377
  627SOL     OW 1879   1.533   1.194   2.377 -0.3224  0.4473  0.5007
  627SOL    HW1 1880   1.520   1.100   2.402 -0.0798  2.1397  2.1831
  627SOL    HW2 1881   1.619   1.228   2.418  0.0124 -0.9721  1.6246
  628SOL     OW 1882   0.594   0.422   2.267 -0.2786 -0.4396  0.2731
  628SOL    HW1 1883   0.539   0.495   2.309 -1.8541  1.0765  2.1628
  628SOL    HW2 1884   0.681   0.457   2.221  0.4672  0.4329  1.3128
  629SOL     OW 1885   0.237   3.077   1.851 -0.5942 -0.1034 -0.0899
  629SOL    HW1 1886   0.235   3.067   1.952  4.3769  1.3507 -3.1399
  629SOL    HW2 1887   0.333   3.081   1.825  1.4005  1.1714  3.0354
  630SOL     OW 1888   1.963   0.661   1.824  0.0769  0.9698  0.5070
  630SOL    HW1 1889   1.916   0.613   1.904 -1.3368 -0.3358  2.6403
  630SOL    HW2 1890   1.902   0.715   1.760 -0.9886  1.6698 -0.6428
  631SOL     OW 1891   2.358   1.210   0.190  0.1260 -0.2533 -0.2995
  631SOL    HW1 1892   2.390   1.120   0.228  0.3918 -1.9485 -0.1077
  631SOL    HW2 1893   2.348   1.277   0.265 -1.5362  1.0809  1.8544
  632SOL     OW 1894   2.063   0.323   2.043 -0.1395  0.2041 -0.0430
  632SOL    HW1 1895   2.017   0.286   1.961 -1.5957 -0.8911 -2.8332
  632SOL    HW2 1896   2.157   0.351   2.012 -1.4739 -0.7098 -0.6347
  633SOL     OW 1897   0.820   2.933   0.294 -0.6218 -0.5286  0.4226
  633SOL    HW1 1898   0.765   2.849   0.308  0.0211  3.3419  2.0974
  633SOL    HW2 1899   0.778   2.995   0.225  1.6724 -2.2441  1.4744
  634SOL     OW 1900   1.346   2.630   2.773 -0.0454  0.2058  0.3287
  634SOL    HW1 1901   1.268   2.684   2.807 -0.0395 -0.5590  1.6979
  634SOL    HW2 1902   1.433   2.680   2.767  1.3815 -0.6671  0.4177
  635SOL     OW 1903   2.409   0.488   3.077 -0.1549  0.5474  0.7570
  635SOL    HW1 1904   2.418   0.540   2.989 -2.2890  1.4230 -1.5878
  635SOL    HW2 1905   2.308   0.469   3.087 -1.2296 -0.4957  0.0949
  636SOL     OW 1906   0.898   1.521   1.037 -0.1325 -0.2218 -0.2939
  636SOL    HW1 1907   0.975   1.557   1.100  2.3461 -1.6882  1.8092
  636SOL    HW2 1908   0.945   1.492   0.950 -1.1020 -1.8325 -0.7736
  637SOL     OW 1909   0.207   2.699   0.499  0.5093  0.4287  0.2169
  637SOL    HW1 1910   0.163   2.612   0.541  3.7997 -3.0422  3.5999
  637SOL    HW2 1911   0.141   2.777   0.500  0.8999  1.5856  0.0488
  638SOL     OW 1912   0.533   3.054   0.427  0.0468 -0.0192 -0.1176
  638SOL    HW1 1913   0.574   3.074   0.521 -0.4268  0.1040  0.7846
  638SOL    HW2 1914   0.474   2.969   0.432 -4.5053  0.0437  0.3052
  639SOL     OW 1915   1.120   1.386   0.458  0.0504 -0.2482 -0.3506
  639SOL    HW1 1916   1.085   1.474   0.408  1.2199 -1.7635 -0.0102
  639SOL    HW2 1917   1.208   1.402   0.509  0.3195 -0.1500 -1.8064
  640SOL     OW 1918   1.221   2.725   1.071  0.3180  0.7703  0.1542
  640SOL    HW1 1919   1.202   2.645   1.134  2.1827 -1.8648 -2.8002
  640SOL    HW2 1920   1.321   2.744   1.066 -0.3060  2.2323  1.6667
  641SOL     OW 1921   0.067   2.498   0.605  0.3119  0.3251 -0.1654
  641SOL    HW1 1922   0.072   2.463   0.703  0.7838 -0.2866  0.4083
  641SOL    HW2 1923   0.030   2.436   0.531  0.6274 -1.1239 -1.5211
  642SOL     OW 1924   1.172   0.112   1.632 -0.5087  0.1535 -0.2989
  642SOL    HW1 1925   1.221   0.183   1.690 -0.2312  0.4752 -0.8020
  642SOL    HW2 1926   1.243   0.061   1.579  0.7635 -1.5568 -2.1668
  643SOL     OW 1927   0.694   1.904   2.194  0.0135  0.5814 -0.5833
  643SOL    HW1 1928   0.721   1.998   2.213 -0.5305 -4.4885  1.0899
  643SOL    HW2 1929   0.676   1.865   2.286 -0.1247 -0.8115 -0.9911
  644SOL     OW 1930   1.038   2.937   0.456  0.3964  0.1092  0.5838
  644SOL    HW1 1931   0.950   2.921   0.410  2.7308  0.0122 -0.2152
  644SOL    HW2 1932   1.051   3.037   0.469 -1.1162 -3.9255 -0.5914
  645SOL     OW 1933   1.258   1.496   2.550 -0.7700  0.2943  0.7347
  645SOL    HW1 1934   1.202   1.531   2.630  0.1044 -1.7857  1.1408
  645SOL    HW2 1935   1.353   1.537   2.558  1.8777 -0.6753 -1.4827
  646SOL     OW 1936   0.727   1.256   0.343 -1.2033 -0.2012 -0.2395
  646SOL    HW1 1937   0.643   1.226   0.398 -0.1217  0.5939  0.9226
  646SOL    HW2 1938   0.744   1.357   0.347  3.4069 -0.4005 -2.7075
  647SOL     OW 1939   1.105   0.229   0.914 -0.2314 -0.3171  0.1221
  647SOL    HW1 1940   1.114   0.233   1.015  0.3784  1.8086 -3.2023
  647SOL    HW2 1941   1.021   0.174   0.888 -1.6753  0.4812 -0.3294
  648SOL     OW 1942   2.781   2.806   1.795 -0.1326  0.1155  0.8037
  648SOL    HW1 1943   2.771   2.889   1.848  0.6144 -0.2154 -0.7464
  648SOL    HW2 1944   2.844   2.813   1.713 -0.1978 -3.2987  0.6902
  649SOL     OW 1945   0.526   2.183   0.107 -0.4391  0.0089  0.7741
  649SOL    HW1 1946   0.585   2.252   0.067 -2.1149 -1.5207  0.2756
  649SOL    HW2 1947   0.480   2.230   0.184 -1.0562 -1.1335 -1.3977
  650SOL     OW 1948   0.232   2.067   1.689  0.0774  0.2554 -0.4462
  650SOL    HW1 1949   0.192   1.972   1.701  2.4535  1.7473  1.8203
  650SOL    HW2 1950   0.261   2.096   1.594  0.8927  0.6935 -1.9176
  651SOL     OW 1951   0.128   3.109   3.032 -0.2877 -0.2993  0.4113
  651SOL    HW1 1952   0.144   0.051   3.111 -1.4971  0.3362  0.3926
  651SOL    HW2 1953   0.109   0.052   2.950 -0.7116 -0.1071 -1.4732
  652SOL     OW 1954   2.608   1.727   0.447 -0.3395 -0.2612  0.1721
  652SOL    HW1 1955   2.598   1.796   0.372  1.6789  2.3225 -1.8293
  652SOL    HW2 1956   2.565   1.640   0.423 -2.7406 -0.0744  2.6241
  653SOL     OW 1957   3.064   0.140   1.046  0.2803  0.0752  0.5318
  653SOL    HW1 1958   3.106   0.216   1.099  0.5917  0.9377 -1.1572
  653SOL    HW2 1959   0.019   0.096   0.988 -0.8457 -0.8314 -0.8164
  654SOL     OW 1960   1.632   0.003   2.754  0.8840  0.1372  0.0526
  654SOL    HW1 1961   1.697   0.054   2.698  1.0956 -2.1469  1.0426
  654SOL    HW2 1962   1.535   0.031   2.750 -0.8938  1.1793  1.0485
  655SOL     OW 1963   0.848   2.777   1.298  0.3673  0.0988 -0.1995
  655SOL    HW1 1964   0.785   2.811   1.224 -0.9828 -0.1268  0.8194
  655SOL    HW2 1965   0.873   2.680   1.279  1.2903 -0.0734 -0.7577
  656SOL     OW 1966   0.346   2.992   2.094 -0.1848 -0.3045 -0.2864
  656SOL    HW1 1967   0.411   3.072   2.104  1.5203  1.4045 -0.3526
  656SOL    HW2 1968   0.391   2.923   2.032  2.0358  0.0921  0.3186
  657SOL     OW 1969   2.007   0.888   1.992 -0.6347  0.0185 -0.6125
  657SOL    HW1 1970   2.093   0.872   2.045 -3.4071  4.4466 -0.9714
  657SOL    HW2 1971   1.994   0.813   1.929  2.2169  3.9715  2.0236
  658SOL     OW 1972   2.536   1.910   1.158  0.2467 -0.3687  0.2793
  658SOL    HW1 1973   2.485   1.882   1.241 -1.1419  1.6143  1.5604
  658SOL    HW2 1974   2.628   1.861   1.161  2.5902 -1.5210  2.2562
  659SOL     OW 1975   2.475   2.748   0.231  0.2078 -0.4041 -0.0407
  659SOL    HW1 1976   2.541   2.806   0.179 -0.4210 -1.2219 -1.3531
  659SOL    HW2 1977   2.501   2.740   0.329  0.9959  1.2160  0.2259
  660SOL     OW 1978   0.879   1.244   2.857 -0.1753  0.0108  0.0962
  660SOL    HW1 1979   0.922   1.342   2.842  0.2829  1.7009  1.1149
  660SOL    HW2 1980   0.945   1.178   2.901  0.1215 -2.7940 -2.1232
  661SOL     OW 1981   2.232   2.342   1.061 -0.7484 -0.3085  0.3760
  661SOL    HW1 1982   2.214   2.429   1.107 -0.6419  0.0753  0.2468
  661SOL    HW2 1983   2.297   2.353   0.983  0.4078 -0.1996 -3.2161
  662SOL     OW 1984   0.394   0.586   0.469  0.2988 -0.3573  0.4512
  662SOL    HW1 1985   0.320   0.529   0.505 -3.3116 -0.0752  0.1454
  662SOL    HW2 1986   0.384   0.591   0.367  1.0159 -0.8076  0.4685
  663SOL     OW 1987   1.093   2.180   0.005  0.3737  0.0023 -0.0050
  663SOL    HW1 1988   1.154   2.217   0.072  0.3176  0.3121 -2.6846
  663SOL    HW2 1989   1.152   2.145   3.046  0.2248 -0.6461 -0.1023
  664SOL     OW 1990   0.889   3.035   1.653  0.6165 -0.4233 -0.0952
  664SOL    HW1 1991   0.955   3.067   1.582  3.4074 -0.0569 -0.5687
  664SOL    HW2 1992   0.928   3.064   1.745  0.5345  0.3373 -0.3009
  665SOL     OW 1993   1.874   1.626   1.851 -0.3661 -0.2526 -0.0044
  665SOL    HW1 1994   1.795   1.561   1.861 -0.4302 -1.5603 -0.3137
  665SOL    HW2 1995   1.924   1.633   1.939 -0.0390 -2.5509 -3.1371
  666SOL     OW 1996   0.421   2.807   0.367  0.4816 -0.0159 -0.1027
  666SOL    HW1 1997   0.355   2.763   0.427 -0.3203 -1.8185 -1.8442
  666SOL    HW2 1998   0.386   2.834   0.276 -0.9084  0.6445  0.3830
  667SOL     OW 1999   1.746   1.673   1.538 -0.5454  0.0715  0.0481
  667SOL    HW1 2000   1.849   1.666   1.531 -0.7268 -0.2570 -1.7534
  667SOL    HW2 2001   1.710   1.600   1.597  0.0337  0.9467  0.9661
  668SOL     OW 2002   0.237   0.220   2.169 -0.2299  0.2254 -0.3557
  668SOL    HW1 2003   0.242   0.228   2.071  1.3863 -1.6304  1.9782
  668SOL    HW2 2004   0.331   0.212   2.212  0.1937 -2.0935  1.4356
  669SOL     OW 2005   1.812   2.152   2.299 -0.2291  0.5788 -0.0984
  669SOL    HW1 2006   1.896   2.101   2.271  0.4114  1.6732  1.0808
  669SOL    HW2 2007   1.740   2.144   2.225 -2.4724 -1.4166 -0.0602
  670SOL     OW 2008   2.478   2.107   0.498 -0.0818 -0.2244 -0.1115
  670SOL    HW1 2009   2.552   2.107   0.568  1.1255  2.5471 -0.6879
  670SOL    HW2 2010   2.387   2.075   0.539 -3.1652 -1.1594 -1.5518
  671SOL     OW 2011   0.673   1.274   1.323 -0.5278 -0.1361 -0.6929
  671SOL    HW1 2012   0.697   1.231   1.233 -2.3071  1.0802 -3.2138
  671SOL    HW2 2013   0.574   1.288   1.330  3.8236 -0.0645 -2.1217
  672SOL     OW 2014   2.728   1.288   2.183 -0.2764 -0.3399  0.1700
  672SOL    HW1 2015   2.676   1.352   2.246  0.5215  0.8196  1.2294
  672SOL    HW2 2016   2.825   1.319   2.171  2.8705 -1.8651 -0.0081
  673SOL     OW 2017   2.985   1.750   2.230 -0.0515 -0.1146  0.4511
  673SOL    HW1 2018   2.886   1.765   2.251  0.7779  1.9602 -3.5168
  673SOL    HW2 2019   3.040   1.742   2.315 -0.5049  0.9596  1.4984
  674SOL     OW 2020   0.805   2.619   2.205 -0.1306 -0.0952  0.0784
  674SOL    HW1 2021   0.843   2.647   2.299 -1.8276 -0.9145  0.3840
  674SOL    HW2 2022   0.803   2.697   2.143 -1.9922 -2.3283  1.1081
  675SOL     OW 2023   0.803   0.963   1.524 -0.1529  0.0392 -0.1134
  675SOL    HW1 2024   0.836   0.867   1.547 -0.3088 -3.3687  0.9418
  675SOL    HW2 2025   0.712   0.962   1.476  0.1171  2.7745 -1.1243
  676SOL     OW 2026   1.848   1.131   0.332 -0.3197  0.1482 -0.7526
  676SOL    HW1 2027   1.831   1.041   0.373 -2.9696  4.0285  0.1934
  676SOL    HW2 2028   1.916   1.176   0.396  0.2296  0.8226  0.4739
  677SOL     OW 2029   3.080   1.577   2.704  0.5371 -0.5251 -0.1736
  677SOL    HW1 2030   2.992   1.598   2.754 -0.8391 -3.0022  1.6241
  677SOL    HW2 2031   0.016   1.514   2.768 -1.0424  2.4951 -1.9965
  678SOL     OW 2032   2.753   2.828   1.372 -0.0763  0.9261  0.3086
  678SOL    HW1 2033   2.715   2.912   1.327  0.3331 -0.4896  1.4761
  678SOL    HW2 2034   2.687   2.756   1.385  1.2569  2.4539 -1.1958
  679SOL     OW 2035   2.091   0.060   0.636 -0.1409 -0.3991  0.0560
  679SOL    HW1 2036   2.095   0.123   0.718 -1.2758  2.9642 -0.7014
  679SOL    HW2 2037   2.141   3.095   0.645 -1.2149  4.6659 -0.4511
  680SOL     OW 2038   0.128   2.247   2.265  0.7260 -0.0492  0.4015
  680SOL    HW1 2039   0.216   2.208   2.236 -1.9438  1.5166  0.3895
  680SOL    HW2 2040   0.075   2.283   2.180  1.3530  0.6656  0.6213
  681SOL     OW 2041   0.218   1.629   1.457  0.1709 -0.5232 -0.1684
  681SOL    HW1 2042   0.285   1.664   1.387 -0.1604  0.5557 -2.1074
  681SOL    HW2 2043   0.271   1.624   1.549  0.4028 -1.9955  1.9819
  682SOL     OW 2044   0.312   2.272   1.381 -0.7279  0.5972  0.0887
  682SOL    HW1 2045   0.382   2.285   1.454 -1.1860  0.8401 -0.5153
  682SOL    HW2 2046   0.310   2.171   1.345 -0.3250 -1.9443  1.3178
  683SOL     OW 2047   3.107   1.711   1.596 -0.1790  0.2771  0.0739
  683SOL    HW1 2048   0.042   1.760   1.673  0.1004  0.7179  0.2465
  683SOL    HW2 2049   0.061   1.662   1.538  0.8774  3.4418  1.4799
  684SOL     OW 2050   2.861   1.667   0.212 -0.2425  0.2668  0.1074
  684SOL    HW1 2051   2.783   1.673   0.277 -1.9433  0.2274  0.6145
  684SOL    HW2 2052   2.951   1.689   0.255  1.0437 -1.3788  0.8422
  685SOL     OW 2053   1.185   0.704   0.393 -0.4275 -0.1536  0.3340
  685SOL    HW1 2054   1.082   0.719   0.381 -0.6662 -0.4654  1.4357
  685SOL    HW2 2055   1.237   0.783   0.354  0.8457  0.7809  2.3255
  686SOL     OW 2056   0.380   3.089   1.105 -0.4336 -0.3064  0.2271
  686SOL    HW1 2057   0.435   3.107   1.188  0.3298 -0.1391  0.1132
  686SOL    HW2 2058   0.440   3.042   1.038  1.0636 -0.9784  0.7228
  687SOL     OW 2059   0.825   1.246   2.459  0.4738 -0.2436 -0.0907
  687SOL    HW1 2060   0.884   1.280   2.385  0.1238 -0.4897  1.7709
  687SOL    HW2 2061   0.885   1.185   2.514 -2.2543  1.4796 -0.0141
  688SOL     OW 2062   1.052   1.764   1.734  0.1028  0.1968  0.5239
  688SOL    HW1 2063   0.991   1.766   1.653  0.1421 -0.0115  1.6009
  688SOL    HW2 2064   1.014   1.703   1.807  0.6387  0.3536 -0.8130
  689SOL     OW 2065   2.295   0.407   1.221  0.1348  0.3233  0.2398
  689SOL    HW1 2066   2.377   0.366   1.179 -0.7762  0.1637  0.0238
  689SOL    HW2 2067   2.207   0.351   1.218 -3.2131 -0.6781 -1.0436
  690SOL     OW 2068   2.880   1.349   0.857 -0.0495 -0.0645 -0.6161
  690SOL    HW1 2069   2.893   1.448   0.886 -2.4266 -0.1625 -0.9949
  690SOL    HW2 2070   2.900   1.287   0.935  0.4594  1.6737 -0.4946
  691SOL     OW 2071   0.099   2.474   1.333  0.2105 -0.1416  0.0585
  691SOL    HW1 2072   0.169   2.401   1.361  0.3089 -1.4843  1.7473
  691SOL    HW2 2073   0.014   2.450   1.380  1.9562  0.9425 -2.6028
  692SOL     OW 2074   1.990   3.108   0.982  0.4191 -0.2888  0.0005
  692SOL    HW1 2075   2.086   0.022   0.988 -0.5976  0.2280  2.5686
  692SOL    HW2 2076   1.948   3.081   1.073  0.1870  2.1318  2.9952
  693SOL     OW 2077   0.441   1.620   2.620 -0.2093 -0.0339  0.4305
  693SOL    HW1 2078   0.522   1.564   2.592  1.6362 -1.4108  0.9190
  693SOL    HW2 2079   0.369   1.606   2.550  1.4730 -0.7842 -0.3001
  694SOL     OW 2080   1.861   1.028   1.352 -0.3982  0.2456 -0.3489
  694SOL    HW1 2081   1.947   1.008   1.406  2.8856 -1.1771 -3.2806
  694SOL    HW2 2082   1.801   0.942   1.350 -1.8158 -1.1291  0.0654
  695SOL     OW 2083   1.051   0.909   1.309 -0.4252  0.2283 -0.3606
  695SOL    HW1 2084   1.038   0.960   1.393 -1.9205  0.1060 -0.3650
  695SOL    HW2 2085   1.089   0.813   1.318  0.1444 -1.2088  0.7766
  696SOL     OW 2086   1.400   3.072   0.677  0.3267 -0.9376  0.6231
  696SOL    HW1 2087   1.474   3.083   0.750  0.4693  1.1090  2.2592
  696SOL    HW2 2088   1.441   3.054   0.585 -3.2355 -0.1088 -0.2602
  697SOL     OW 2089   1.103   0.612   1.298 -0.3441  0.0659  0.6211
  697SOL    HW1 2090   1.113   0.564   1.387  0.9163  0.2884  0.3448
  697SOL    HW2 2091   1.081   0.547   1.217  1.7076 -4.4174 -0.6684
  698SOL     OW 2092   1.620   1.039   2.037 -0.1299 -0.4051  0.0969
  698SOL    HW1 2093   1.712   1.070   2.067  1.4713  0.0974  1.2703
  698SOL    HW2 2094   1.565   1.118   2.007  3.6535  1.0645 -0.4451
  699SOL     OW 2095   1.847   0.789   0.931 -0.1156 -0.0724  0.3704
  699SOL    HW1 2096   1.832   0.770   0.831  3.1650 -0.8463  1.8092
  699SOL    HW2 2097   1.761   0.800   0.987 -3.1561  1.3388  1.7720
  700SOL     OW 2098   1.183   2.551   0.343 -0.1727  0.6571  0.1060
  700SOL    HW1 2099   1.114   2.598   0.396  3.8872 -2.0593 -0.5777
  700SOL    HW2 2100   1.276   2.568   0.380  1.1863  0.6819  1.2605
  701SOL     OW 2101   2.057   2.318   3.011  0.2755 -0.4150  0.6431
  701SOL    HW1 2102   2.000   2.402   3.028  0.8340  0.3824 -0.5918
  701SOL    HW2 2103   2.106   2.331   2.925 -1.3851  0.8886  2.0289
  702SOL     OW 2104   1.032   0.496   0.839 -0.1866 -0.0121  0.4896
  702SOL    HW1 2105   1.068   0.436   0.914  0.1205 -2.0264 -1.3549
  702SOL    HW2 2106   1.087   0.577   0.823 -1.6085  1.4855  0.0922
  703SOL     OW 2107   2.363   0.192   2.463  0.0754  0.1734  0.8478
  703SOL    HW1 2108   2.354   0.166   2.565  0.0376 -0.5405  2.3584
  703SOL    HW2 2109   2.269   0.201   2.425  2.1624  0.3283  1.8604
  704SOL     OW 2110   0.224   2.109   0.539 -0.5338  0.2014  0.1229
  704SOL    HW1 2111   0.216   2.014   0.504  0.2037  3.2620 -0.2248
  704SOL    HW2 2112   0.307   2.162   0.506 -1.3032 -0.9717  0.1910
  705SOL     OW 2113   2.578   2.700   2.196 -0.4422 -0.2850 -0.1003
  705SOL    HW1 2114   2.657   2.677   2.132  2.5828 -1.1150  0.4070
  705SOL    HW2 2115   2.517   2.621   2.208  0.2732  2.3795 -1.4185
  706SOL     OW 2116   2.247   2.658   0.945 -0.0740 -0.5683  0.6013
  706SOL    HW1 2117   2.188   2.734   0.902  0.8862  0.7126 -1.5024
  706SOL    HW2 2118   2.300   2.611   0.870 -0.1502  0.4024  0.7349
  707SOL     OW 2119   0.604   2.478   2.243  0.0685  0.0540  0.2205
  707SOL    HW1 2120   0.558   2.481   2.152 -1.5842  1.0722  1.2693
  707SOL    HW2 2121   0.687   2.543   2.239  1.0764  1.9811  0.0463
  708SOL     OW 2122   2.992   2.166   2.391  0.6473  0.2292  0.1132
  708SOL    HW1 2123   3.023   2.088   2.447 -0.5063 -0.8867 -0.3649
  708SOL    HW2 2124   3.071   2.217   2.355  0.0402 -1.8364  0.1736
  709SOL     OW 2125   1.993   3.073   1.838  0.0613  0.3473 -0.1156
  709SOL    HW1 2126   1.970   0.053   1.812  0.6940  0.1099  2.3604
  709SOL    HW2 2127   1.944   3.047   1.923 -0.8028 -0.3852 -0.3082
  710SOL     OW 2128   1.477   0.564   2.448  0.5215 -0.0212 -0.2094
  710SOL    HW1 2129   1.457   0.489   2.512  0.0474 -0.8329 -0.6734
  710SOL    HW2 2130   1.555   0.545   2.385  0.8320  0.0617  1.4666
  711SOL     OW 2131   0.693   2.120   2.897  0.2545  1.2287 -0.1130
  711SOL    HW1 2132   0.749   2.070   2.965 -1.5314 -3.3007 -3.9722
  711SOL    HW2 2133   0.623   2.060   2.855  3.7109  2.0564  0.9818
  712SOL     OW 2134   0.572   2.442   2.664  0.0928 -0.3974 -0.4746
  712SOL    HW1 2135   0.530   2.467   2.750  0.1454  1.0473 -0.8630
  712SOL    HW2 2136   0.517   2.487   2.592 -0.0054  1.7264  1.8408
  713SOL     OW 2137   1.710   1.458   2.698 -0.3708 -0.0625  0.2703
  713SOL    HW1 2138   1.720   1.404   2.610 -0.6876 -1.0850 -2.5638
  713SOL    HW2 2139   1.793   1.453   2.762  0.8477  0.7213  1.2801
  714SOL     OW 2140   1.445   1.276   1.963 -0.2815  0.1595 -0.0701
  714SOL    HW1 2141   1.424   1.324   1.878  1.8071 -0.6523  0.0760
  714SOL    HW2 2142   1.452   1.343   2.041  0.4225  2.6539  2.8354
  715SOL     OW 2143   2.184   0.619   2.420 -0.4044  0.0259  0.6253
  715SOL    HW1 2144   2.203   0.541   2.488 -1.7071  0.0943  0.3289
  715SOL    HW2 2145   2.083   0.620   2.406 -0.7967 -0.6027  0.6213
  716SOL     OW 2146   3.024   2.086   1.704  0.1111 -0.3392  0.1300
  716SOL    HW1 2147   3.041   2.060   1.801 -1.4190 -0.6173  0.1458
  716SOL    HW2 2148   3.107   2.077   1.644  0.7097 -2.6202 -1.1599
  717SOL     OW 2149   2.610   1.357   0.846 -1.2267  0.4522 -1.0016
  717SOL    HW1 2150   2.711   1.326   0.844  1.6889 -1.8440 -1.0678
  717SOL    HW2 2151   2.587   1.391   0.754 -0.0415  0.1703  1.3463
  718SOL     OW 2152   0.983   1.861   2.107  0.4475 -0.1063 -0.0699
  718SOL    HW1 2153   0.910   1.820   2.159 -0.8861  1.5761 -0.6238
  718SOL    HW2 2154   1.056   1.797   2.087  0.3160  1.3529 -1.5554
  719SOL     OW 2155   1.954   0.789   2.632 -0.1726  0.4026  0.1982
  719SOL    HW1 2156   1.902   0.768   2.542 -1.3317  2.9417 -2.2227
  719SOL    HW2 2157   1.923   0.879   2.672 -0.5237  4.3288  0.0573
  720SOL     OW 2158   0.555   0.630   0.826 -0.1822  0.5016  0.2232
  720SOL    HW1 2159   0.548   0.574   0.740 -0.1079  0.6550  0.2697
  720SOL    HW2 2160   0.469   0.625   0.882  0.5051 -0.3015  0.4262
  721SOL     OW 2161   2.969   0.855   0.391  0.3221 -0.0971 -0.0894
  721SOL    HW1 2162   2.885   0.905   0.373  1.9681 -1.9834  1.5902
  721SOL    HW2 2163   2.990   0.802   0.309 -0.9997  3.1024 -0.1516
  722SOL     OW 2164   2.942   0.579   2.694 -0.4290  0.1268  0.1522
  722SOL    HW1 2165   2.935   0.544   2.598 -1.1517  1.4690  0.4256
  722SOL    HW2 2166   3.025   0.549   2.748  1.7581 -0.6094  0.3071
  723SOL     OW 2167   1.893   0.300   0.221  0.3104 -0.7156  0.4025
  723SOL    HW1 2168   1.841   0.312   0.135  0.4652  1.5756  0.7949
  723SOL    HW2 2169   1.922   0.203   0.231 -1.3232  1.5483 -0.5780
  724SOL     OW 2170   0.475   1.824   2.009 -0.2407 -0.1031  0.0039
  724SOL    HW1 2171   0.551   1.873   2.056 -1.0960  0.9614  1.4700
  724SOL    HW2 2172   0.494   1.799   1.910  2.6170 -0.2563 -0.4532
  725SOL     OW 2173   1.605   3.104   0.877  0.1589 -0.2742 -0.3831
  725SOL    HW1 2174   1.643   3.008   0.883 -2.2468 -1.4594 -0.4336
  725SOL    HW2 2175   1.681   0.052   0.855 -0.6528 -1.1981 -0.4547
  726SOL     OW 2176   2.001   2.404   0.272 -0.3141 -0.0296 -0.1127
  726SOL    HW1 2177   2.084   2.364   0.229 -1.0427 -2.4942  1.2727
  726SOL    HW2 2178   2.021   2.502   0.289 -0.7185  1.2452 -0.2575
  727SOL     OW 2179   1.787   1.766   1.223 -0.2534 -0.3742 -0.3590
  727SOL    HW1 2180   1.764   1.767   1.324  1.5127  0.2442 -1.6379
  727SOL    HW2 2181   1.868   1.826   1.208  1.5730  0.8606 -3.2433
  728SOL     OW 2182   1.992   2.776   1.505 -0.4411 -0.1433  0.0015
  728SOL    HW1 2183   2.053   2.856   1.493 -2.7595  2.3000 -1.3099
  728SOL    HW2 2184   1.980   2.761   1.606 -0.5619  0.2029  0.0141
  729SOL     OW 2185   1.954   1.991   1.279 -0.2524  0.2234 -0.1323
  729SOL    HW1 2186   1.969   2.082   1.242 -0.6395 -0.0092  0.8182
  729SOL    HW2 2187   2.040   1.946   1.319  1.2747 -2.3732  2.0624
  730SOL     OW 2188   1.327   0.827   2.758 -0.6556  0.4464 -0.2372
  730SOL    HW1 2189   1.293   0.911   2.710 -0.3785 -0.3237 -1.5791
  730SOL    HW2 2190   1.416   0.793   2.720 -0.8470  1.4922 -1.8304
  731SOL     OW 2191   0.455   0.218   0.788  0.0844  0.3916 -0.3805
  731SOL    HW1 2192   0.392   0.210   0.870 -0.7833  0.5235  2.2171
  731SOL    HW2 2193   0.400   0.254   0.712 -0.0539 -0.7444  4.6444
  732SOL     OW 2194   1.609   0.351   0.648  0.0197 -0.2985  0.0204
  732SOL    HW1 2195   1.530   0.410   0.624 -0.3054  0.1089 -3.3170
  732SOL    HW2 2196   1.584   0.264   0.596 -1.7918 -1.3752  0.8381
  733SOL     OW 2197   0.620   1.782   1.311 -0.4016  0.2430  0.0376
  733SOL    HW1 2198   0.667   1.690   1.319 -0.7740  1.4078  0.2712
  733SOL    HW2 2199   0.679   1.851   1.262  0.9359 -1.5048  0.9156
  734SOL     OW 2200   2.971   2.737   0.027  0.2806  0.0442  0.1484
  734SOL    HW1 2201   2.919   2.691   3.072 -0.5571  1.0989 -1.1767
  734SOL    HW2 2202   2.995   2.672   0.101 -0.4930  0.2336 -1.2815
  735SOL     OW 2203   1.273   0.085   1.195 -0.0647 -0.6615 -0.2716
  735SOL    HW1 2204   1.216   0.007   1.157 -0.9853  0.2268 -3.7784
  735SOL    HW2 2205   1.368   0.078   1.155 -1.3824 -2.0511 -0.2652
  736SOL     OW 2206   1.928   2.151   0.318 -0.2471 -0.4933 -0.1831
  736SOL    HW1 2207   2.005   2.080   0.313  0.0474  0.8064 -0.3698
  736SOL    HW2 2208   1.958   2.247   0.298 -0.1757  1.2889  2.4761
  737SOL     OW 2209   0.048   1.526   1.042 -0.2259  0.0437 -0.4166
  737SOL    HW1 2210   0.122   1.592   1.025  1.2295  0.7287  0.0074
  737SOL    HW2 2211   0.026   1.519   1.140  1.5747 -0.3487  0.1414
  738SOL     OW 2212   2.129   2.399   2.540 -0.1374  0.0987  0.2486
  738SOL    HW1 2213   2.069   2.483   2.552  0.3182  0.0179  1.7253
  738SOL    HW2 2214   2.213   2.433   2.498 -2.9753 -2.1258  2.8445
  739SOL     OW 2215   1.249   1.992   2.630  0.0200  0.1544  0.3004
  739SOL    HW1 2216   1.201   2.061   2.575  0.1829 -0.5663  0.2265
  739SOL    HW2 2217   1.194   1.905   2.634 -1.8402  1.9938  1.4865
  740SOL     OW 2218   1.550   0.066   1.126 -0.1833  0.9735  0.2454
  740SOL    HW1 2219   1.580   3.110   1.185  1.0297  0.3714 -2.6677
  740SOL    HW2 2220   1.575   0.039   1.030 -2.8977 -1.3456 -0.9714
  741SOL     OW 2221   0.269   1.164   0.751  0.2932 -0.0003  0.3025
  741SOL    HW1 2222   0.335   1.111   0.810  0.1942 -1.4790  0.1303
  741SOL    HW2 2223   0.194   1.108   0.710 -1.2335  2.7513 -2.0746
  742SOL     OW 2224   0.554   1.086   2.428 -0.0475 -0.2285 -0.0564
  742SOL    HW1 2225   0.649   1.124   2.428  1.1863 -1.4101 -0.6738
  742SOL    HW2 2226   0.529   1.050   2.520 -3.4180  0.4109  2.6615
  743SOL     OW 2227   0.931   0.953   1.921  0.4319 -0.0443  0.3291
  743SOL    HW1 2228   0.896   1.035   1.964  1.5708 -0.9523 -1.5207
  743SOL    HW2 2229   1.017   0.919   1.960 -4.4113 -0.8452 -2.6308
  744SOL     OW 2230   1.937   0.215   1.829 -0.0793 -0.6560  0.1723
  744SOL    HW1 2231   1.851   0.229   1.778 -1.2502 -2.9388  1.7557
  744SOL    HW2 2232   2.011   0.276   1.787  0.3515  0.0390  0.0157
  745SOL     OW 2233   2.234   1.503   1.606 -0.2129  0.6062 -0.6481
  745SOL    HW1 2234   2.330   1.509   1.643  2.9782  0.4714 -0.1354
  745SOL    HW2 2235   2.231   1.446   1.521  1.0299  3.1456  0.1358
  746SOL     OW 2236   2.019   1.354   0.241 -0.3327  0.1999  0.0590
  746SOL    HW1 2237   1.985   1.444   0.212  0.1539 -6.4090 -1.4409
  746SOL    HW2 2238   2.023   1.290   0.163 -1.2143 -1.7438  0.2001
  747SOL     OW 2239   2.831   1.865   1.173 -0.2924 -0.5489  0.3603
  747SOL    HW1 2240   2.874   1.910   1.093  2.0751  0.5005  1.7702
  747SOL    HW2 2241   2.827   1.924   1.255 -0.9047 -2.9669  1.7052
  748SOL     OW 2242   0.259   1.912   0.369  0.0079  0.2015 -0.5177
  748SOL    HW1 2243   0.247   1.977   0.293 -0.0447 -1.5348 -0.0976
  748SOL    HW2 2244   0.300   1.823   0.336  2.5090 -0.3524 -0.1331
  749SOL     OW 2245   2.724   2.363   2.742  0.4361 -0.2626 -0.1512
  749SOL    HW1 2246   2.798   2.387   2.674 -1.8190  1.4657 -0.1257
  749SOL    HW2 2247   2.645   2.428   2.731 -2.0239  0.3062  1.2328
  750SOL     OW 2248   2.467   0.911   0.811  0.0443 -0.3644  0.0569
  750SOL    HW1 2249   2.460   0.988   0.879  2.9772 -0.6934  2.4483
  750SOL    HW2 2250   2.450   0.821   0.852 -0.0879  0.5780  1.2458
  751SOL     OW 2251   2.610   2.917   0.060 -0.4900  0.7288 -0.0812
  751SOL    HW1 2252   2.565   3.002   0.031  0.7380 -0.8373  0.6798
  751SOL    HW2 2253   2.637   2.862   3.098 -0.0351 -0.9620 -1.3119
  752SOL     OW 2254   0.055   2.879   0.895  0.3372  0.0085  0.0067
  752SOL    HW1 2255   3.098   2.807   0.888  0.7310  2.4307  0.1165
  752SOL    HW2 2256   0.093   2.872   0.991  2.7837 -0.0164 -2.2177
  753SOL     OW 2257   1.778   0.995   2.346  0.2891  0.2748  0.4797
  753SOL    HW1 2258   1.828   1.059   2.408 -1.6069 -1.7933  1.6153
  753SOL    HW2 2259   1.684   0.985   2.387 -0.6234 -0.6768 -1.9847
  754SOL     OW 2260   2.042   2.055   1.649  0.1961 -0.0720 -0.2668
  754SOL    HW1 2261   2.084   2.097   1.566 -2.6044 -2.2126  0.8178
  754SOL    HW2 2262   2.112   1.998   1.700  1.2621  1.0614 -1.0549
  755SOL     OW 2263   2.529   1.070   0.567 -0.1273  0.2335 -0.4490
  755SOL    HW1 2264   2.479   1.023   0.491  0.8418 -0.7037 -1.6230
  755SOL    HW2 2265   2.495   1.030   0.656 -2.6229 -1.5506 -0.4039
  756SOL     OW 2266   0.687   1.142   3.047  0.3781  0.3130 -0.6982
  756SOL    HW1 2267   0.605   1.096   3.012 -0.7351 -1.0754 -0.8550
  756SOL    HW2 2268   0.739   1.185   2.972 -1.6998 -0.9782  3.8723
  757SOL     OW 2269   1.165   2.440   1.162  0.0073  0.2001  0.4447
  757SOL    HW1 2270   1.245   2.421   1.102 -0.9691 -0.7478  0.0508
  757SOL    HW2 2271   1.152   2.359   1.224  1.0225 -0.8679  0.1420
  758SOL     OW 2272   1.081   2.490   1.647  0.1716  0.0933 -0.1067
  758SOL    HW1 2273   1.160   2.450   1.593 -0.8894 -1.2500 -0.3796
  758SOL    HW2 2274   1.057   2.581   1.611  1.0417  2.2512  2.9283
  759SOL     OW 2275   2.938   1.174   1.084 -1.0052 -0.1949  0.8197
  759SOL    HW1 2276   2.907   1.255   1.136  2.9460 -1.3304  2.9521
  759SOL    HW2 2277   3.041   1.176   1.068  2.5907  0.2482 -1.7625
  760SOL     OW 2278   2.251   1.298   1.398 -0.2759 -0.3363 -0.4672
  760SOL    HW1 2279   2.268   1.199   1.374  0.6031 -0.1811 -0.8217
  760SOL    HW2 2280   2.155   1.321   1.373  3.1637 -0.6515 -0.9007
  761SOL     OW 2281   1.967   0.053   0.252  0.2321  0.4046  0.1589
  761SOL    HW1 2282   1.941   0.037   0.350 -1.8895  1.5513  0.5671
  761SOL    HW2 2283   1.912   3.106   0.190 -2.4626 -0.1160  2.0257
  762SOL     OW 2284   2.160   1.453   2.767 -0.1557  0.2247 -0.8113
  762SOL    HW1 2285   2.180   1.354   2.775  0.5077 -0.6264 -1.7797
  762SOL    HW2 2286   2.163   1.494   2.677 -0.4370 -0.3330  2.3199
  763SOL     OW 2287   0.381   2.274   1.844  0.4577  0.8891  0.0525
  763SOL    HW1 2288   0.292   2.224   1.855  2.6330  0.0207 -0.9823
  763SOL    HW2 2289   0.411   2.267   1.744  2.2153 -2.4068  2.7804
  764SOL     OW 2290   0.037   2.430   0.136  0.1595 -0.1759  0.1076
  764SOL    HW1 2291   3.054   2.443   0.141 -3.1998  0.8811 -0.8736
  764SOL    HW2 2292   0.080   2.496   0.067 -0.5253 -1.3947 -0.6031
  765SOL     OW 2293   0.511   3.087   1.352  0.6785 -0.4889  0.5040
  765SOL    HW1 2294   0.534   0.059   1.398 -1.5436  0.7760 -0.7599
  765SOL    HW2 2295   0.575   3.014   1.377  1.2496  1.4890  1.1567
  766SOL     OW 2296   2.744   2.055   2.313 -0.0440  0.3102 -0.3033
  766SOL    HW1 2297   2.832   2.112   2.319 -0.4558  2.2256  3.1278
  766SOL    HW2 2298   2.766   1.958   2.336  0.2174  0.1916  3.1782
  767SOL     OW 2299   2.604   0.867   2.084 -0.2523 -0.1423  0.0563
  767SOL    HW1 2300   2.520   0.829   2.050  2.0408  0.0076 -0.3153
  767SOL    HW2 2301   2.676   0.794   2.097  0.2891 -0.9035 -2.0593
  768SOL     OW 2302   1.007   0.084   2.819 -0.5763  0.0490  0.0218
  768SOL    HW1 2303   0.987   0.011   2.753  1.7155  2.5365  0.0157
  768SOL    HW2 2304   1.092   0.063   2.872 -0.6505 -1.8583 -1.0244
  769SOL     OW 2305   2.687   2.886   0.970 -0.5021 -0.0821 -0.2262
  769SOL    HW1 2306   2.757   2.896   1.047  0.7151 -0.5176 -0.5369
  769SOL    HW2 2307   2.607   2.827   0.994  1.8522 -0.6864  1.3674
  770SOL     OW 2308   0.354   2.733   2.794 -0.2861 -0.6105 -0.2684
  770SOL    HW1 2309   0.254   2.761   2.813 -3.0757  4.5874 -1.1181
  770SOL    HW2 2310   0.374   2.643   2.830  1.8436 -1.0040  1.7480
  771SOL     OW 2311   1.613   2.121   2.121 -0.2668 -0.1466  0.0950
  771SOL    HW1 2312   1.542   2.177   2.068  0.8005  0.7060 -2.5169
  771SOL    HW2 2313   1.607   2.019   2.104  0.4890 -1.6060  0.9702
  772SOL     OW 2314   1.439   2.871   3.081  0.7389 -0.2731 -0.8436
  772SOL    HW1 2315   1.338   2.863   3.089  1.7492  0.4062  0.3481
  772SOL    HW2 2316   1.476   2.952   3.030  1.6872  1.4718  0.8637
  773SOL     OW 2317   2.017   0.697   1.437 -0.1531 -0.3170  0.0599
  773SOL    HW1 2318   2.006   0.791   1.480 -1.1203  4.2118  0.0325
  773SOL    HW2 2319   2.010   0.711   1.335  1.3765  0.0354 -1.6753
  774SOL     OW 2320   0.956   1.042   1.083  0.5916  0.0659 -0.4003
  774SOL    HW1 2321   1.013   1.126   1.094 -2.5207 -0.5078 -2.1007
  774SOL    HW2 2322   0.983   0.976   1.157  0.3726 -0.9634 -0.1182
  775SOL     OW 2323   2.013   2.817   2.879 -0.1488  0.3044  0.0854
  775SOL    HW1 2324   2.081   2.873   2.931  0.6930 -1.6893 -4.3236
  775SOL    HW2 2325   1.997   2.724   2.922 -0.1004  0.7897  0.3588
  776SOL     OW 2326   2.073   0.974   1.508  0.0151  0.4840 -0.2198
  776SOL    HW1 2327   2.122   1.011   1.590 -0.1323  0.3071 -0.5689
  776SOL    HW2 2328   2.121   1.010   1.428 -0.2432 -1.2965  0.8048
  777SOL     OW 2329   0.362   0.978   2.067 -0.3907  0.3942 -0.2517
  777SOL    HW1 2330   0.457   0.938   2.087 -0.4030 -0.8997  0.1467
  777SOL    HW2 2331   0.332   1.033   2.148 -0.4170 -2.3357  1.2670
  778SOL     OW 2332   0.325   0.643   0.210 -0.2535 -0.4070 -0.0464
  778SOL    HW1 2333   0.376   0.650   0.123 -0.3663 -1.3496  2.2185
  778SOL    HW2 2334   0.290   0.739   0.219  0.9007  0.0308  2.2634
  779SOL     OW 2335   0.925   3.076   2.586 -0.4429 -0.1055 -0.2280
  779SOL    HW1 2336   0.896   3.056   2.489  1.0489 -1.2057 -0.2646
  779SOL    HW2 2337   0.958   2.989   2.636 -1.3327 -0.9355 -0.5052
  780SOL     OW 2338   1.963   1.128   2.532  0.4941  0.0552  0.4406
  780SOL    HW1 2339   1.910   1.090   2.611  0.7805 -3.2357 -2.4372
  780SOL    HW2 2340   2.059   1.134   2.557 -1.8871  0.5156 -0.6416
  781SOL     OW 2341   3.037   1.000   2.036  0.9844  0.1834  0.0990
  781SOL    HW1 2342   2.944   1.010   1.996 -4.2706 -0.1850 -1.5672
  781SOL    HW2 2343   3.022   0.934   2.113 -2.2594  0.5273  0.6446
  782SOL     OW 2344   0.831   1.716   2.874 -0.6831  0.0148 -0.0181
  782SOL    HW1 2345   0.803   1.669   2.964 -1.3230 -0.4818  4.2959
  782SOL    HW2 2346   0.752   1.759   2.824  0.6646  0.8687  0.1866
  783SOL     OW 2347   0.898   2.499   1.191 -0.3505 -0.2783 -0.1526
  783SOL    HW1 2348   0.998   2.509   1.189 -0.9769  0.9629  0.6182
  783SOL    HW2 2349   0.858   2.480   1.102  1.3409 -1.6854  1.7797
  784SOL     OW 2350   1.767   0.570   2.686  0.7261 -0.2411  0.7064
  784SOL    HW1 2351   1.845   0.635   2.680  0.6664 -1.4658  0.6215
  784SOL    HW2 2352   1.799   0.481   2.654 -1.6046  2.1143 -0.5998
  785SOL     OW 2353   0.491   0.016   1.755  0.3648  0.2604  0.2333
  785SOL    HW1 2354   0.521   0.079   1.679 -0.5021  2.4190 -0.7263
  785SOL    HW2 2355   0.538   0.035   1.841 -2.6628 -3.7059  1.2162
  786SOL     OW 2356   0.812   2.140   0.333 -0.1461 -0.2155  0.4872
  786SOL    HW1 2357   0.769   2.057   0.381 -2.0883  0.0509  1.3291
  786SOL    HW2 2358   0.905   2.156   0.370 -0.5291  1.9048 -2.6576
  787SOL     OW 2359   1.301   0.441   0.314 -0.0040 -0.4607 -0.4659
  787SOL    HW1 2360   1.320   0.390   0.401 -1.0254 -1.0227 -1.2015
  787SOL    HW2 2361   1.258   0.533   0.334  0.8694  2.0453 -0.8986
  788SOL     OW 2362   2.852   1.622   1.322 -0.3150  0.5755  0.5925
  788SOL    HW1 2363   2.838   1.697   1.254 -4.1498 -1.5659 -0.0521
  788SOL    HW2 2364   2.949   1.597   1.326 -2.5290 -1.6400  0.8447
  789SOL     OW 2365   2.671   1.037   2.310  0.0378 -0.4678 -0.5558
  789SOL    HW1 2366   2.672   0.971   2.231 -2.0479 -0.2879  0.1723
  789SOL    HW2 2367   2.691   1.130   2.266 -0.4803  2.0284 -0.7489
  790SOL     OW 2368   0.701   0.313   0.260  0.1799 -0.2302 -0.6343
  790SOL    HW1 2369   0.717   0.331   0.360 -1.8044  1.2109 -3.0810
  790SOL    HW2 2370   0.735   0.221   0.226 -0.0444 -0.8485  0.9904
  791SOL     OW 2371   2.753   0.047   3.002 -0.3258  0.3622  0.4702
  791SOL    HW1 2372   2.728   0.124   3.059  1.3549 -0.7065 -2.7397
  791SOL    HW2 2373   2.829   3.117   3.043  0.9542  0.9207 -0.7455
  792SOL     OW 2374   1.133   0.623   2.167  0.1456  0.3813  0.1790
  792SOL    HW1 2375   1.100   0.584   2.255 -1.9276 -0.8092  0.1251
  792SOL    HW2 2376   1.208   0.563   2.127  5.0655  0.1926  1.2874
  793SOL     OW 2377   2.825   0.604   0.982 -0.4688  0.4149 -0.0079
  793SOL    HW1 2378   2.900   0.534   0.987  1.0914 -1.1595  0.1304
  793SOL    HW2 2379   2.848   0.694   1.026 -1.6929  1.4531 -1.9297
  794SOL     OW 2380   0.070   0.628   2.165 -0.3209 -0.3815 -0.2945
  794SOL    HW1 2381   0.168   0.656   2.164  0.7223  1.9977 -2.1593
  794SOL    HW2 2382   0.046   0.573   2.082  2.2319  0.5768  2.3361
  795SOL     OW 2383   0.489   1.197   0.467 -0.1220  0.1993 -0.2563
  795SOL    HW1 2384   0.502   1.231   0.564  0.9105 -1.4328  1.0137
  795SOL    HW2 2385   0.444   1.107   0.466 -2.3899 -1.3677 -0.8424
  796SOL     OW 2386   0.018   0.899   3.065  0.1136  0.0628 -0.8738
  796SOL    HW1 2387   0.063   0.904   0.041  1.5430  1.0609  4.0140
  796SOL    HW2 2388   0.073   0.839   3.002  1.2367 -0.6775 -1.7516
  797SOL     OW 2389   1.908   2.866   2.494  0.4770  0.2320 -0.5302
  797SOL    HW1 2390   1.966   2.901   2.571 -0.5338 -0.6695  3.2554
  797SOL    HW2 2391   1.816   2.843   2.529  3.0348 -1.1066  1.8870
  798SOL     OW 2392   0.009   3.062   1.488  0.7678 -0.2965 -0.3562
  798SOL    HW1 2393   0.073   3.107   1.423  0.5223 -3.7605  0.1204
  798SOL    HW2 2394   3.112   3.109   1.580 -0.0191 -0.5525  1.8262
  799SOL     OW 2395   2.211   0.598   1.734 -0.5225 -0.7986 -0.3629
  799SOL    HW1 2396   2.128   0.632   1.777  2.1932 -1.1026 -1.1400
  799SOL    HW2 2397   2.208   0.594   1.634 -2.9244 -0.0381  1.8431
  800SOL     OW 2398   0.196   1.734   0.640  0.3051 -0.5293  0.4314
  800SOL    HW1 2399   0.285   1.713   0.683 -0.8577 -1.9927 -0.9738
  800SOL    HW2 2400   0.207   1.759   0.539  0.5230  1.1972 -4.3988
  801SOL     OW 2401   1.538   1.504   0.475  0.0835 -0.2515 -0.7220
  801SOL    HW1 2402   1.443   1.502   0.516 -2.3646  0.9740  0.0734
  801SOL    HW2 2403   1.604   1.480   0.547 -1.9925 -0.8446 -0.7364
  802SOL     OW 2404   1.306   1.239   2.814  0.6489  0.0565  0.6704
  802SOL    HW1 2405   1.288   1.229   2.712 -0.2006 -0.3610  1.5560
  802SOL    HW2 2406   1.405   1.219   2.841 -3.0478  2.0988  1.5768
  803SOL     OW 2407   0.302   2.021   1.971  0.6687  0.0144 -0.3021
  803SOL    HW1 2408   0.310   2.032   1.871  2.2515  3.4397  0.7821
  803SOL    HW2 2409   0.358   1.939   1.999 -0.2062  0.2653 -1.5123
  804SOL     OW 2410   1.349   2.316   0.996  0.7566 -0.2849  0.2631
  804SOL    HW1 2411   1.415   2.254   0.951 -1.3917 -0.0212  0.8963
  804SOL    HW2 2412   1.255   2.301   0.967 -0.0227  1.3621 -1.7201
  805SOL     OW 2413   2.436   2.188   2.778 -0.8705 -0.3062  0.1575
  805SOL    HW1 2414   2.448   2.229   2.867  1.6331 -0.5787 -0.1054
  805SOL    HW2 2415   2.513   2.214   2.716 -0.8007  0.2334  0.8853
  806SOL     OW 2416   2.986   0.380   0.918 -0.6845  0.4101 -0.4998
  806SOL    HW1 2417   2.981   0.289   0.959 -0.2501  0.1474 -0.6364
  806SOL    HW2 2418   3.087   0.401   0.895  0.9751  1.1429 -0.6125
  807SOL     OW 2419   2.710   0.943   2.933  0.0503 -0.5353  0.1706
  807SOL    HW1 2420   2.733   0.865   2.877  0.0030  1.2825  0.5214
  807SOL    HW2 2421   2.790   1.009   2.926 -0.0058  1.3512  0.6159
  808SOL     OW 2422   0.882   2.052   0.768  0.0737 -0.1416 -0.6735
  808SOL    HW1 2423   0.905   2.112   0.846  2.0815  1.1272  0.6858
  808SOL    HW2 2424   0.789   2.074   0.728 -1.9834 -0.4439 -0.9753
  809SOL     OW 2425   2.683   0.178   2.101  0.3152 -0.7134 -0.5063
  809SOL    HW1 2426   2.715   0.086   2.057  0.3369 -2.4115 -2.3882
  809SOL    HW2 2427   2.677   0.175   2.204  0.5212  3.0418 -2.5430
  810SOL     OW 2428   1.557   0.850   0.593 -0.0107  0.1404  0.3263
  810SOL    HW1 2429   1.619   0.857   0.515  1.8316 -1.2682 -0.5470
  810SOL    HW2 2430   1.531   0.943   0.615 -1.4350  2.6526  1.6379
  811SOL     OW 2431   1.829   3.004   2.054  0.0962  0.7158 -0.1521
  811SOL    HW1 2432   1.866   3.060   2.131  2.3684 -2.8584  4.3029
  811SOL    HW2 2433   1.812   2.911   2.097 -1.7103 -1.8669  3.9232
  812SOL     OW 2434   1.917   2.606   0.546  0.4595  0.3180 -0.0062
  812SOL    HW1 2435   1.859   2.534   0.586  2.1975 -0.3321 -1.1053
  812SOL    HW2 2436   1.869   2.695   0.521 -3.1585 -0.1003 -1.6219
  813SOL     OW 2437   1.034   0.495   1.761 -0.4316 -0.1849 -0.6037
  813SOL    HW1 2438   1.091   0.553   1.709 -2.2905 -1.1922  2.9319
  813SOL    HW2 2439   1.019   0.406   1.719  1.2418  0.5139  0.3330
  814SOL     OW 2440   0.262   2.917   1.472 -0.2137 -0.1865  0.1135
  814SOL    HW1 2441   0.347   2.968   1.442 -0.7801  0.7419  0.5183
  814SOL    HW2 2442   0.223   2.953   1.558  0.7689  0.2991  1.1566
  815SOL     OW 2443   0.213   0.102   0.923  0.2495 -0.3808  0.2038
  815SOL    HW1 2444   0.161   0.053   0.848  1.2837 -3.7125  1.3297
  815SOL    HW2 2445   0.262   0.044   0.985 -0.1060 -0.7827 -1.7575
  816SOL     OW 2446   2.708   1.775   2.306 -0.1416  0.6527 -0.2623
  816SOL    HW1 2447   2.697   1.727   2.397 -1.1258 -0.3802  0.1242
  816SOL    HW2 2448   2.624   1.764   2.250 -0.9485  0.4891  0.1211
  817SOL     OW 2449   1.224   0.146   0.681  0.2357  0.0407  0.3474
  817SOL    HW1 2450   1.192   0.165   0.778 -0.4219 -0.3415  1.7540
  817SOL    HW2 2451   1.285   0.062   0.673  0.5450 -0.2488 -1.3605
  818SOL     OW 2452   1.637   0.617   0.001 -0.0286 -0.5061  0.1459
  818SOL    HW1 2453   1.680   0.529   3.092  1.8808 -0.1981  1.4676
  818SOL    HW2 2454   1.589   0.610   0.095 -1.2495  1.1886 -0.8237
  819SOL     OW 2455   2.138   2.940   3.102 -0.5536  0.2395 -0.0452
  819SOL    HW1 2456   2.190   2.853   3.113  0.5093 -0.4788  0.2383
  819SOL    HW2 2457   2.180   3.025   0.025 -0.5884 -0.1948 -1.1187
  820SOL     OW 2458   1.556   1.192   2.899  0.1729 -0.1209 -0.4942
  820SOL    HW1 2459   1.609   1.273   2.917  1.3365 -0.9234  0.2377
  820SOL    HW2 2460   1.571   1.114   2.964 -0.4776  0.0589  1.5678
  821SOL     OW 2461   0.331   0.610   1.117 -0.0606  0.1368 -0.4190
  821SOL    HW1 2462   0.332   0.507   1.141  3.4113 -1.3239  1.9660
  821SOL    HW2 2463   0.297   0.621   1.020 -2.0314  0.8073 -5.0365
  822SOL     OW 2464   0.975   2.690   2.389  0.3695  0.1258  0.0687
  822SOL    HW1 2465   1.067   2.682   2.352 -1.0098 -0.9185  2.0076
  822SOL    HW2 2466   0.987   2.686   2.490  0.1226  0.8903  1.5446
  823SOL     OW 2467   0.338   1.612   1.705 -0.2139 -0.6722  0.2173
  823SOL    HW1 2468   0.306   1.540   1.765 -0.0753  1.1100 -0.3354
  823SOL    HW2 2469   0.419   1.647   1.750 -1.7577 -1.2350 -0.6636
  824SOL     OW 2470   1.599   2.792   2.381  0.5045 -0.4217  0.1590
  824SOL    HW1 2471   1.619   2.802   2.482 -2.8015  1.8238  1.5458
  824SOL    HW2 2472   1.536   2.870   2.350 -1.0158  3.3650 -0.1096
  825SOL     OW 2473   1.350   1.108   0.394  0.5585 -0.2360  0.6883
  825SOL    HW1 2474   1.354   1.022   0.333  2.0785 -1.5166 -1.1224
  825SOL    HW2 2475   1.389   1.182   0.338  0.5605 -1.8669 -1.1715
  826SOL     OW 2476   2.122   0.711   2.826  0.0820  0.1141 -0.0014
  826SOL    HW1 2477   2.074   0.763   2.750 -2.3486  1.1209 -2.8209
  826SOL    HW2 2478   2.184   0.777   2.866 -0.8979  0.2904  1.1727
  827SOL     OW 2479   0.646   2.345   3.026  0.3322 -0.5926  0.6396
  827SOL    HW1 2480   0.589   2.398   2.962  0.7908 -2.1190 -2.5648
  827SOL    HW2 2481   0.686   2.268   2.969 -0.1352  0.3267 -2.2469
  828SOL     OW 2482   3.016   0.889   1.318  0.4466  0.4526 -0.3620
  828SOL    HW1 2483   2.963   0.864   1.236  2.1239  0.0147  2.9802
  828SOL    HW2 2484   2.959   0.945   1.382  1.1311  0.1962 -0.8948
  829SOL     OW 2485   0.645   1.597   0.998  0.2282 -0.2120 -0.6476
  829SOL    HW1 2486   0.642   1.697   0.973  1.9611 -0.0956  0.9528
  829SOL    HW2 2487   0.739   1.561   1.015 -1.7563  2.7743 -0.2423
  830SOL     OW 2488   0.882   1.222   1.499 -0.2388  0.1954 -0.5215
  830SOL    HW1 2489   0.808   1.263   1.442  0.2872  0.1236 -2.0798
  830SOL    HW2 2490   0.861   1.121   1.519  0.8171 -0.0987  1.2926
  831SOL     OW 2491   0.279   2.041   0.138 -0.1493  0.7908  0.2037
  831SOL    HW1 2492   0.217   2.110   0.108  1.4264 -6.4915 -0.3723
  831SOL    HW2 2493   0.377   2.062   0.126  2.6133  1.1260 -1.5354
  832SOL     OW 2494   0.743   0.127   2.893  0.2976 -0.4490 -0.5163
  832SOL    HW1 2495   0.746   0.219   2.939  0.4827  3.4315 -0.7699
  832SOL    HW2 2496   0.836   0.094   2.861 -0.7026  0.1091  2.4740
  833SOL     OW 2497   0.536   0.416   1.960  0.1681  0.3396 -0.0671
  833SOL    HW1 2498   0.502   0.466   2.043 -0.3224 -1.6543 -0.8824
  833SOL    HW2 2499   0.458   0.352   1.932 -1.0828  2.1253  1.4133
  834SOL     OW 2500   0.080   0.326   1.180  0.4426  0.7078  0.3546
  834SOL    HW1 2501   0.033   0.401   1.224  1.2180 -0.8853 -3.3952
  834SOL    HW2 2502   0.180   0.339   1.183 -2.7039 -0.5055  0.7985
  835SOL     OW 2503   2.918   3.027   1.112  0.2607 -0.4177 -0.0306
  835SOL    HW1 2504   3.001   3.083   1.098  0.5820  2.2648 -1.8863
  835SOL    HW2 2505   2.937   2.929   1.090  0.2305 -0.9719  0.7133
  836SOL     OW 2506   0.308   2.294   2.868 -0.3507  0.0156 -0.3442
  836SOL    HW1 2507   0.234   2.312   2.799 -1.8569 -1.9777 -1.4007
  836SOL    HW2 2508   0.271   2.268   2.957  2.5750 -0.8768 -2.6466
  837SOL     OW 2509   1.738   1.895   2.833 -0.2741 -0.1715 -0.6805
  837SOL    HW1 2510   1.837   1.918   2.831  0.8231  0.5881  2.3079
  837SOL    HW2 2511   1.682   1.931   2.754  0.2419  2.2865 -0.6443
  838SOL     OW 2512   0.157   0.955   1.308 -0.2565 -0.1717  1.0623
  838SOL    HW1 2513   0.214   0.877   1.337  1.3522 -2.4770  0.5293
  838SOL    HW2 2514   0.056   0.933   1.317 -1.4587 -0.5776 -0.9851
  839SOL     OW 2515   1.160   0.942   0.808  1.0499 -0.0752  0.1562
  839SOL    HW1 2516   1.065   0.913   0.843 -3.2946  0.9004  3.5577
  839SOL    HW2 2517   1.156   0.950   0.707 -1.1886 -0.7336  2.1702
  840SOL     OW 2518   1.667   3.018   1.513 -0.0444 -0.3025 -0.5093
  840SOL    HW1 2519   1.587   3.007   1.577  1.8479  2.0326  1.7867
  840SOL    HW2 2520   1.655   2.968   1.429  1.0552  1.7384  1.7429
  841SOL     OW 2521   0.685   2.700   0.410 -0.3481 -0.3705 -0.4046
  841SOL    HW1 2522   0.589   2.742   0.404 -3.0534  0.7590 -0.5631
  841SOL    HW2 2523   0.719   2.728   0.501 -1.4739  3.8290  0.5508
  842SOL     OW 2524   0.641   0.531   0.557  0.5417 -0.3688 -0.1198
  842SOL    HW1 2525   0.714   0.571   0.499 -1.4070 -0.3526  2.3820
  842SOL    HW2 2526   0.548   0.566   0.532 -1.7840 -0.4607  0.1277
  843SOL     OW 2527   0.968   1.547   1.922  0.3357 -0.3525 -0.3946
  843SOL    HW1 2528   0.909   1.534   2.005  1.3354  0.1232 -0.7747
  843SOL    HW2 2529   0.967   1.469   1.860 -0.1896  1.4280 -2.9711
  844SOL     OW 2530   1.272   2.012   0.223 -0.4449 -0.3497 -0.2041
  844SOL    HW1 2531   1.284   1.941   0.151 -1.8716  1.0750  1.0078
  844SOL    HW2 2532   1.309   2.103   0.197  1.9592 -1.0404  1.0797
  845SOL     OW 2533   2.391   2.440   2.452  0.2047 -0.2403  0.4999
  845SOL    HW1 2534   2.386   2.452   2.351 -0.9348 -1.2431  0.6711
  845SOL    HW2 2535   2.429   2.348   2.479 -0.4321 -2.5316  1.4260
  846SOL     OW 2536   1.977   2.074   3.057 -0.2502  0.1888  1.0122
  846SOL    HW1 2537   2.013   2.174   3.050  1.3956  1.5212  0.4394
  846SOL    HW2 2538   1.879   2.066   3.086  0.6363 -0.2719 -0.4815
  847SOL     OW 2539   2.073   2.971   2.662 -0.0878 -0.0335  0.3480
  847SOL    HW1 2540   2.170   2.976   2.645  2.2588  1.8200 -2.6734
  847SOL    HW2 2541   2.053   2.908   2.739  0.9713  1.2250  1.2926
  848SOL     OW 2542   0.930   0.694   0.641  0.2807 -0.6596 -0.4755
  848SOL    HW1 2543   0.963   0.614   0.698 -2.1916 -2.5673  3.4926
  848SOL    HW2 2544   0.893   0.761   0.705 -1.8095 -1.2365 -1.9284
  849SOL     OW 2545   0.836   3.108   1.114 -0.1980 -0.0128 -0.0696
  849SOL    HW1 2546   0.791   3.020   1.100  1.3221  0.7619 -1.5982
  849SOL    HW2 2547   0.797   0.052   1.043 -0.5225 -1.2878 -0.0868
  850SOL     OW 2548   0.409   1.616   0.023 -0.0355  0.1099  0.6159
  850SOL    HW1 2549   0.322   1.663   0.060 -0.4868  3.1400  4.2946
  850SOL    HW2 2550   0.422   1.632   3.044 -1.8173  0.8715  1.3472
  851SOL     OW 2551   0.034   1.040   0.697  0.1191 -0.4924  0.0491
  851SOL    HW1 2552   3.088   1.115   0.670 -0.5976  0.4152  0.8833
  851SOL    HW2 2553   3.097   0.966   0.744  1.0603  0.3005  0.7272
  852SOL     OW 2554   1.859   2.129   1.828  0.7842  0.2397  0.4560
  852SOL    HW1 2555   1.925   2.108   1.753 -2.2277 -1.5066  0.5382
  852SOL    HW2 2556   1.823   2.042   1.858 -0.8150  1.8851  0.1427
  853SOL     OW 2557   0.194   1.791   0.083 -0.2316  0.4995  0.6910
  853SOL    HW1 2558   0.097   1.814   0.101  0.6242 -0.5982  0.0511
  853SOL    HW2 2559   0.251   1.876   0.108  2.1233  0.5733  0.8374
  854SOL     OW 2560   1.609   1.243   1.520 -0.3873  0.0659  0.3413
  854SOL    HW1 2561   1.674   1.286   1.452 -2.1193  1.4431 -1.9289
  854SOL    HW2 2562   1.654   1.167   1.576  0.4983 -0.1725 -0.2264
  855SOL     OW 2563   0.827   2.534   3.051  0.0900 -0.7008 -0.2786
  855SOL    HW1 2564   0.904   2.517   3.114 -1.5571 -2.0458 -0.6315
  855SOL    HW2 2565   0.750   2.472   3.068  2.0540  0.6354  1.3946
  856SOL     OW 2566   3.080   0.125   2.181  0.9584 -0.0055 -0.5799
  856SOL    HW1 2567   0.061   0.155   2.182  2.4001  0.8339 -0.8617
  856SOL    HW2 2568   3.031   0.152   2.268  1.0963 -0.0936  0.4583
  857SOL     OW 2569   0.575   0.789   1.654 -0.8915  0.0960  0.2765
  857SOL    HW1 2570   0.545   0.857   1.724 -1.2568 -2.1097  1.7241
  857SOL    HW2 2571   0.587   0.829   1.556  1.3075  3.3353 -4.5973
  858SOL     OW 2572   0.372   1.197   2.249 -0.1754  0.1792 -0.0359
  858SOL    HW1 2573   0.310   1.244   2.315  3.2504  0.2312 -0.3122
  858SOL    HW2 2574   0.429   1.123   2.293  1.6008  1.3516  0.2366
  859SOL     OW 2575   2.391   0.177   0.369 -0.2190  0.2622  0.2498
  859SOL    HW1 2576   2.421   0.078   0.356  3.3291  1.6947  0.2565
  859SOL    HW2 2577   2.292   0.188   0.367  0.0392  1.7383  1.5965
  860SOL     OW 2578   1.769   2.967   2.935 -0.5104 -0.0211 -0.1647
  860SOL    HW1 2579   1.719   3.002   2.855 -0.0775 -0.2704 -0.6507
  860SOL    HW2 2580   1.850   2.908   2.901  2.2429  0.2585 -0.9729
  861SOL     OW 2581   0.105   0.481   0.481  0.3103  0.2925  0.0916
  861SOL    HW1 2582   0.096   0.497   0.379 -0.2973  2.5690 -0.5012
  861SOL    HW2 2583   0.118   0.567   0.534  0.0286  0.6517 -1.0149
  862SOL     OW 2584   1.758   0.302   2.170 -0.2814  0.1666  0.2741
  862SOL    HW1 2585   1.851   0.299   2.203 -3.4147  0.4908  0.6618
  862SOL    HW2 2586   1.697   0.229   2.212  0.7391  0.0718 -0.7061
  863SOL     OW 2587   2.962   2.188   1.072 -0.2598 -0.0827 -0.3584
  863SOL    HW1 2588   2.967   2.118   0.998  0.9800 -0.0037  0.0973
  863SOL    HW2 2589   2.870   2.233   1.071 -1.0639  0.8281 -1.1313
  864SOL     OW 2590   2.310   2.717   1.855  0.2143 -0.3649  0.5189
  864SOL    HW1 2591   2.250   2.799   1.842  0.1350 -0.1996 -1.7342
  864SOL    HW2 2592   2.263   2.640   1.909 -1.4166 -4.2976 -0.3574
  865SOL     OW 2593   1.417   0.567   1.620 -0.0328 -0.1276  0.4464
  865SOL    HW1 2594   1.509   0.552   1.657 -1.7185  1.6241  0.4969
  865SOL    HW2 2595   1.383   0.475   1.582 -0.7949 -2.1889  0.2500
  866SOL     OW 2596   2.470   3.016   0.818 -0.3765 -0.3255 -0.0956
  866SOL    HW1 2597   2.476   3.090   0.748 -0.3442  1.2527  0.2709
  866SOL    HW2 2598   2.563   2.997   0.856  0.7525  1.0344 -2.1665
  867SOL     OW 2599   2.899   3.091   0.662 -0.0783 -0.1555 -0.8175
  867SOL    HW1 2600   3.000   3.078   0.653  0.7056 -1.8516 -1.1582
  867SOL    HW2 2601   2.854   3.003   0.677  0.6542  2.7078  1.4137
  868SOL     OW 2602   1.233   2.359   2.108 -0.0693  0.7575 -0.5333
  868SOL    HW1 2603   1.198   2.262   2.117 -2.0771  2.1413 -0.7651
  868SOL    HW2 2604   1.158   2.424   2.081 -0.6205 -0.9411  2.0122
  869SOL     OW 2605   1.743   2.084   0.093 -0.1740  0.4047  0.3190
  869SOL    HW1 2606   1.664   2.146   0.091 -0.1041 -1.6591 -0.0278
  869SOL    HW2 2607   1.795   2.098   0.180 -2.2305  1.4477  1.1809
  870SOL     OW 2608   2.624   2.482   0.662  0.2445 -0.3152 -0.2534
  870SOL    HW1 2609   2.692   2.534   0.707 -1.8100  0.6240 -0.1875
  870SOL    HW2 2610   2.659   2.450   0.569 -0.0420  0.3277  0.8776
  871SOL     OW 2611   0.388   1.135   1.580  0.5967 -0.3228  1.2487
  871SOL    HW1 2612   0.421   1.212   1.522 -0.0919  0.0387 -2.4741
  871SOL    HW2 2613   0.298   1.156   1.623  3.3749  0.4685 -0.2839
  872SOL     OW 2614   0.697   1.451   2.608  0.8874 -0.2326  0.2558
  872SOL    HW1 2615   0.757   1.533   2.599 -1.3397 -2.5691  1.3249
  872SOL    HW2 2616   0.724   1.379   2.546  0.1273 -0.5361  1.3046
  873SOL     OW 2617   0.557   2.875   1.696 -0.1571  0.0747  0.0800
  873SOL    HW1 2618   0.610   2.869   1.608  0.3295  0.1143 -1.2162
  873SOL    HW2 2619   0.555   2.972   1.717 -1.1646 -1.2314  3.7177
  874SOL     OW 2620   1.117   0.876   2.096 -0.1203 -0.5483  0.5508
  874SOL    HW1 2621   1.199   0.913   2.142 -1.1960  0.0421  2.4436
  874SOL    HW2 2622   1.123   0.774   2.111  3.7177 -2.4793 -3.0586
  875SOL     OW 2623   2.474   2.719   1.089  0.0155  0.0850 -0.4347
  875SOL    HW1 2624   2.458   2.751   1.187 -0.5557 -1.7630  4.1903
  875SOL    HW2 2625   2.387   2.698   1.041  0.2921  1.3926 -0.0734
  876SOL     OW 2626   1.140   1.234   0.838 -0.3697  0.2052  0.0366
  876SOL    HW1 2627   1.130   1.226   0.937 -0.4605  0.5946 -0.3075
  876SOL    HW2 2628   1.161   1.143   0.792 -1.7551  0.7307 -3.9585
  877SOL     OW 2629   2.809   0.117   1.258  0.4956  0.5291 -0.3675
  877SOL    HW1 2630   2.818   0.200   1.203  1.6568  0.5619  2.2693
  877SOL    HW2 2631   2.847   0.034   1.211 -0.0497 -1.3035  2.5319
  878SOL     OW 2632   2.584   1.709   3.099 -0.3874 -0.1333 -0.0191
  878SOL    HW1 2633   2.679   1.690   3.083 -0.3597  2.5012  1.1245
  878SOL    HW2 2634   2.518   1.656   3.042  2.0851 -1.0240  1.2128
  879SOL     OW 2635   2.967   2.092   1.325 -0.0700 -0.4372  0.4270
  879SOL    HW1 2636   2.962   2.189   1.365 -0.9511  1.5285  0.6239
  879SOL    HW2 2637   2.990   2.114   1.229 -0.3494 -0.2782  0.6597
  880SOL     OW 2638   0.646   2.237   1.269 -0.3207  0.5397 -0.2330
  880SOL    HW1 2639   0.592   2.275   1.194  0.4405 -1.6821 -0.1759
  880SOL    HW2 2640   0.707   2.313   1.304 -2.0171  1.4778 -2.0900
  881SOL     OW 2641   1.356   1.368   0.897 -0.2325 -0.8655 -0.3805
  881SOL    HW1 2642   1.278   1.320   0.857  0.7380  1.6473 -0.8380
  881SOL    HW2 2643   1.346   1.382   0.998 -1.1409  1.3906 -1.2339
  882SOL     OW 2644   2.610   1.018   2.578 -0.3361  0.5579  0.3597
  882SOL    HW1 2645   2.638   1.018   2.478 -0.0227  1.7939 -3.0682
  882SOL    HW2 2646   2.692   1.003   2.637 -0.2512  0.8432 -0.0786
  883SOL     OW 2647   1.458   0.309   1.211 -0.1975  0.1025 -0.0930
  883SOL    HW1 2648   1.487   0.214   1.179 -0.6071  3.1479  1.6800
  883SOL    HW2 2649   1.392   0.352   1.146  1.3324 -0.9450 -0.3159
  884SOL     OW 2650   0.186   2.891   1.119 -0.4791  0.2451 -0.2647
  884SOL    HW1 2651   0.237   2.981   1.126  1.0774 -0.2286  0.7135
  884SOL    HW2 2652   0.154   2.859   1.210  0.2939  1.0535  2.5393
  885SOL     OW 2653   1.111   1.371   1.405 -0.3407  0.6573 -0.4922
  885SOL    HW1 2654   1.053   1.300   1.446 -0.9596 -0.7938 -0.9901
  885SOL    HW2 2655   1.205   1.346   1.416 -2.4724  1.6255  0.0471
  886SOL     OW 2656   1.097   1.134   2.984  0.3485  0.8169 -0.1681
  886SOL    HW1 2657   1.127   1.074   3.063  2.2581  0.2200 -0.9195
  886SOL    HW2 2658   1.175   1.161   2.926 -2.1106  2.3692  1.4104
  887SOL     OW 2659   1.339   0.683   0.610  0.8208 -0.3362 -0.3119
  887SOL    HW1 2660   1.277   0.677   0.529 -1.4096 -2.1508  0.7739
  887SOL    HW2 2661   1.412   0.754   0.610  0.8760 -0.5797  1.6850
  888SOL     OW 2662   1.975   1.324   1.760 -0.2614  0.3039  0.5459
  888SOL    HW1 2663   1.988   1.369   1.666  2.2085  3.3166 -2.7836
  888SOL    HW2 2664   2.020   1.235   1.764  0.4196  2.8725  0.5047
  889SOL     OW 2665   2.727   2.274   1.051  0.1805  0.4232 -0.0080
  889SOL    HW1 2666   2.671   2.207   0.998 -2.4535  1.8238  1.2408
  889SOL    HW2 2667   2.665   2.333   1.103  1.6124  0.6527 -2.0581
  890SOL     OW 2668   1.444   1.839   0.770 -0.7871 -0.0892 -0.5126
  890SOL    HW1 2669   1.535   1.789   0.765  2.1880 -0.8399  0.8447
  890SOL    HW2 2670   1.384   1.792   0.838  0.9671 -0.2430 -1.2267
  891SOL     OW 2671   2.513   0.438   2.437  0.2405  0.4018 -0.6255
  891SOL    HW1 2672   2.574   0.418   2.357 -1.1090 -0.2283  1.8142
  891SOL    HW2 2673   2.439   0.369   2.447  2.3206 -0.3313  1.1212
  892SOL     OW 2674   0.884   0.217   1.946 -0.2667 -0.0002  0.6870
  892SOL    HW1 2675   0.981   0.232   1.981  3.9271  1.5917  3.2454
  892SOL    HW2 2676   0.831   0.300   1.964  3.6624 -0.6621  1.7918
  893SOL     OW 2677   1.347   0.248   1.809  0.4533  0.2507 -0.3727
  893SOL    HW1 2678   1.315   0.159   1.844  4.0344 -1.2859 -0.2218
  893SOL    HW2 2679   1.434   0.243   1.763 -0.9764 -0.2339  1.4138
  894SOL     OW 2680   2.711   0.755   0.799 -0.3943  0.0585 -0.2541
  894SOL    HW1 2681   2.744   0.697   0.877  0.8063 -0.3551 -0.8272
  894SOL    HW2 2682   2.625   0.807   0.821  1.1397  1.1245  1.8905
  895SOL     OW 2683   1.907   2.389   2.356  0.4642  0.8222 -0.4267
  895SOL    HW1 2684   1.992   2.400   2.416 -0.0918  3.5921 -0.8826
  895SOL    HW2 2685   1.875   2.290   2.345 -0.0026 -3.4088 -0.0631
  896SOL     OW 2686   1.908   0.023   1.463  0.5958 -0.3831 -0.2252
  896SOL    HW1 2687   1.886   0.120   1.476 -1.2139 -3.2997 -0.5326
  896SOL    HW2 2688   1.824   3.080   1.481  0.3777 -1.7659 -0.5220
  897SOL     OW 2689   0.565   1.737   1.765  0.3867 -0.3619  0.0895
  897SOL    HW1 2690   0.535   1.788   1.684 -0.3737  0.6687  0.5877
  897SOL    HW2 2691   0.661   1.720   1.760  0.3911  1.2346  1.0772
  898SOL     OW 2692   2.020   1.607   2.087 -0.1895  0.7064 -0.2062
  898SOL    HW1 2693   2.124   1.595   2.089  0.9506  0.1097 -0.3865
  898SOL    HW2 2694   1.977   1.517   2.063 -2.0331  1.9838  2.5221
  899SOL     OW 2695   1.861   2.146   0.988 -0.8286 -0.4900  0.3941
  899SOL    HW1 2696   1.946   2.176   1.043  0.8181  1.8252  0.6939
  899SOL    HW2 2697   1.799   2.228   0.983  1.3297 -0.7381  0.5238
  900SOL     OW 2698   1.120   2.860   2.745 -0.1571 -0.2593  0.0009
  900SOL    HW1 2699   1.113   2.874   2.845 -1.5717 -1.6895 -3.1186
  900SOL    HW2 2700   1.047   2.796   2.708  0.7200 -1.2072 -2.1435
  901SOL     OW 2701   0.954   1.453   2.331  0.1164 -0.1434  0.0492
  901SOL    HW1 2702   0.911   1.505   2.408 -0.7371 -2.8301  0.4493
  901SOL    HW2 2703   1.056   1.460   2.322 -2.2827  0.0706  0.7205
  902SOL     OW 2704   2.039   0.467   2.962  0.2537 -0.7009 -0.1263
  902SOL    HW1 2705   2.039   0.556   2.913 -1.0548  0.2991 -1.2968
  902SOL    HW2 2706   2.074   0.481   3.059  2.7265  2.3818  4.7274
  903SOL     OW 2707   2.270   0.904   2.097  0.1731  0.4967 -0.8144
  903SOL    HW1 2708   2.293   0.909   2.002 -1.6160 -0.8371  2.2369
  903SOL    HW2 2709   2.317   0.976   2.152  0.3514 -1.0418 -0.6368
  904SOL     OW 2710   1.817   1.086   1.672  0.9813  0.2534  0.7254
  904SOL    HW1 2711   1.917   1.062   1.658  1.3607  0.5499  1.0140
  904SOL    HW2 2712   1.809   1.163   1.733  2.4917  0.9344 -1.3570
  905SOL     OW 2713   2.235   0.676   0.732  0.0153 -0.5894 -0.0826
  905SOL    HW1 2714   2.300   0.609   0.705 -1.1233  1.5881 -0.3165
  905SOL    HW2 2715   2.223   0.668   0.837 -0.3358  2.5168  0.7215
  906SOL     OW 2716   2.322   1.530   0.634  0.0628 -0.0695  0.0888
  906SOL    HW1 2717   2.408   1.486   0.596  1.3195  1.8006  1.1251
  906SOL    HW2 2718   2.338   1.611   0.694  1.2312  0.1772 -0.4109
  907SOL     OW 2719   1.307   2.843   0.772 -0.2010 -0.4258 -0.2604
  907SOL    HW1 2720   1.364   2.806   0.847 -1.1845  1.6260 -3.1701
  907SOL    HW2 2721   1.344   2.936   0.737  1.5616 -0.3985 -2.5016
  908SOL     OW 2722   1.607   2.497   2.366 -0.0284  0.2584 -0.2824
  908SOL    HW1 2723   1.697   2.448   2.373 -0.5748 -0.2839 -2.9604
  908SOL    HW2 2724   1.618   2.598   2.356  0.9576 -1.1854 -0.7097
  909SOL     OW 2725   2.303   0.470   1.965  0.3862 -0.3974  0.0430
  909SOL    HW1 2726   2.312   0.522   2.049 -1.6006 -2.1010 -4.6529
  909SOL    HW2 2727   2.267   0.527   1.889  1.4897 -1.8217 -1.5145
  910SOL     OW 2728   1.160   0.419   2.442  0.0985 -0.2891 -0.1517
  910SOL    HW1 2729   1.253   0.384   2.457  1.6224 -1.5578  1.5048
  910SOL    HW2 2730   1.090   0.344   2.458  0.6050  3.2177  0.2171
  911SOL     OW 2731   2.959   1.046   2.925  0.8038 -0.0977  0.2001
  911SOL    HW1 2732   3.029   1.003   2.978 -2.1545 -1.1857  1.7309
  911SOL    HW2 2733   2.951   1.143   2.959  0.1328  1.7792 -2.1412
  912SOL     OW 2734   3.092   2.417   1.086  0.2379 -0.6373  0.4890
  912SOL    HW1 2735   3.049   2.326   1.108  2.2032 -2.0516  0.1587
  912SOL    HW2 2736   0.026   2.452   1.169  2.7024 -1.8227 -0.6909
  913SOL     OW 2737   2.562   1.675   2.519 -0.0244  0.7191 -0.2608
  913SOL    HW1 2738   2.478   1.715   2.483  3.8227 -1.5795 -0.7972
  913SOL    HW2 2739   2.600   1.713   2.608  0.4129  0.6677  1.4258
  914SOL     OW 2740   1.665   1.704   0.805 -0.4160 -0.0977  0.7372
  914SOL    HW1 2741   1.682   1.638   0.724  1.3939 -1.6638 -2.2302
  914SOL    HW2 2742   1.631   1.646   0.883 -1.8069  0.6077  1.8057
  915SOL     OW 2743   0.145   2.620   2.172 -0.8000  0.5954  0.4410
  915SOL    HW1 2744   0.174   2.666   2.260 -1.1295  0.7616 -0.2249
  915SOL    HW2 2745   0.228   2.593   2.120 -0.5345 -1.0942  0.5940
  916SOL     OW 2746   1.115   3.041   1.051  0.1142 -0.2014  0.5579
  916SOL    HW1 2747   1.116   2.996   0.957  2.0368 -2.6128 -2.6482
  916SOL    HW2 2748   1.019   3.073   1.068 -1.1626 -4.0178 -1.7318
  917SOL     OW 2749   2.385   0.596   2.800  0.1285  0.5341 -0.0520
  917SOL    HW1 2750   2.286   0.626   2.801  1.5304  1.7315  2.4748
  917SOL    HW2 2751   2.442   0.650   2.734 -1.0187 -1.1055  1.0921
  918SOL     OW 2752   1.628   2.667   2.833  0.6325  0.1476 -0.0113
  918SOL    HW1 2753   1.610   2.642   2.931 -0.8144  0.4921 -2.6630
  918SOL    HW2 2754   1.668   2.591   2.785 -1.5505  0.3813  1.2973
  919SOL     OW 2755   1.670   2.317   1.093  0.2318  0.1948  0.8303
  919SOL    HW1 2756   1.682   2.224   1.132 -0.0022  1.3822 -2.1121
  919SOL    HW2 2757   1.589   2.372   1.120  3.2490 -1.8843  3.4189
  920SOL     OW 2758   1.362   0.040   2.710 -0.1207 -0.1219 -0.8544
  920SOL    HW1 2759   1.293   0.049   2.787  0.7015  2.4686  1.0682
  920SOL    HW2 2760   1.345   3.079   2.647 -2.3554 -2.5043  1.2758
  921SOL     OW 2761   0.112   0.989   2.671  0.1658 -0.1313 -0.6609
  921SOL    HW1 2762   0.137   0.972   2.579 -1.6194  2.2808  2.5506
  921SOL    HW2 2763   0.008   1.004   2.686 -0.5194 -0.8167  1.8425
  922SOL     OW 2764   0.016   1.935   1.464 -0.4178 -0.5850 -0.8652
  922SOL    HW1 2765   3.059   1.981   1.414  2.1348 -0.2824  0.4591
  922SOL    HW2 2766   3.105   1.841   1.501 -0.1885 -0.2062 -2.1277
  923SOL     OW 2767   0.280   1.571   2.378 -0.5731 -0.0403  0.8019
  923SOL    HW1 2768   0.280   1.603   2.281 -0.4008 -0.8730  4.4713
  923SOL    HW2 2769   0.280   1.467   2.385  0.2258 -3.6784 -0.1072
  924SOL     OW 2770   1.608   0.124   2.342 -0.0962 -0.4115  0.3446
  924SOL    HW1 2771   1.538   0.046   2.335 -1.5749 -2.0736  1.8713
  924SOL    HW2 2772   1.694   0.097   2.386 -0.5131  0.3457  1.8140
  925SOL     OW 2773   2.933   1.583   0.919  0.5473  0.1215 -0.1848
  925SOL    HW1 2774   2.961   1.593   0.819  1.2800 -1.4340  1.8202
  925SOL    HW2 2775   3.019   1.562   0.973  0.3753 -0.7692  0.1435
  926SOL     OW 2776   2.493   0.717   1.036 -0.4963  0.1006 -0.4047
  926SOL    HW1 2777   2.544   0.644   1.079 -3.5163 -2.2019 -1.3362
  926SOL    HW2 2778   2.456   0.792   1.099 -1.2815  1.4327 -0.2027
  927SOL     OW 2779   1.784   0.300   1.118  0.1132  0.0327 -0.6277
  927SOL    HW1 2780   1.747   0.375   1.172  2.0741 -3.0047 -4.1259
  927SOL    HW2 2781   1.713   0.237   1.083  0.3189 -1.2333  0.3039
  928SOL     OW 2782   2.996   0.789   2.251  0.3989  0.2053 -0.2384
  928SOL    HW1 2783   3.082   0.743   2.232 -2.0797  0.0119 -3.6300
  928SOL    HW2 2784   2.917   0.745   2.198 -1.6169 -1.2495 -0.1966
  929SOL     OW 2785   2.285   1.059   1.317  0.3512  0.1536  0.0410
  929SOL    HW1 2786   2.350   0.984   1.342  0.5116 -0.5425  3.7024
  929SOL    HW2 2787   2.285   1.078   1.216 -0.1684 -0.1839 -1.2458
  930SOL     OW 2788   1.760   2.232   1.411  0.0213  0.2810  0.5461
  930SOL    HW1 2789   1.771   2.143   1.461 -0.4832  1.1267  0.7172
  930SOL    HW2 2790   1.845   2.282   1.396 -0.0042  0.9380  3.3869
  931SOL     OW 2791   1.833   1.313   1.364  0.4839 -0.5320 -0.7492
  931SOL    HW1 2792   1.914   1.370   1.328 -1.9513 -0.1756  0.5536
  931SOL    HW2 2793   1.851   1.215   1.354 -2.1454  1.7623 -1.6086
  932SOL     OW 2794   3.041   0.733   1.570  0.1690  0.1538 -0.2075
  932SOL    HW1 2795   3.015   0.759   1.477  2.2184 -0.4517  0.7890
  932SOL    HW2 2796   0.015   0.769   1.590 -0.0037 -0.8178 -0.1752
  933SOL     OW 2797   2.409   2.077   1.599  0.0331  0.4111  0.4003
  933SOL    HW1 2798   2.338   2.081   1.525 -2.0562  3.2991 -0.1688
  933SOL    HW2 2799   2.363   2.051   1.685  1.5100  0.1568 -2.1890
  934SOL     OW 2800   1.328   2.660   1.849  0.2988  0.1872  0.1775
  934SOL    HW1 2801   1.312   2.673   1.752  2.0481 -0.7228 -0.0944
  934SOL    HW2 2802   1.247   2.695   1.902 -0.1449 -1.0265  2.5613
  935SOL     OW 2803   0.021   1.229   1.429 -0.5946 -0.4583  0.3620
  935SOL    HW1 2804   0.050   1.217   1.523 -1.3017 -0.3004 -1.0079
  935SOL    HW2 2805   0.092   1.210   1.356 -1.2804  1.5542 -0.6012
  936SOL     OW 2806   2.785   0.688   1.318 -0.1903 -0.2057  0.1308
  936SOL    HW1 2807   2.726   0.630   1.256  3.7726 -2.3190  0.1557
  936SOL    HW2 2808   2.739   0.716   1.408  2.6775 -0.6659 -0.0889
  937SOL     OW 2809   1.323   0.337   1.495  0.0504 -0.1328  0.3884
  937SOL    HW1 2810   1.241   0.278   1.519 -2.9606  0.4069 -0.4445
  937SOL    HW2 2811   1.363   0.306   1.404  2.1960 -1.6914 -2.4474
  938SOL     OW 2812   0.516   2.924   0.887  0.5902  0.2863  0.4544
  938SOL    HW1 2813   0.439   2.858   0.874  0.9657  0.1053 -0.4181
  938SOL    HW2 2814   0.515   2.994   0.812  2.1154  0.8869 -1.7851
  939SOL     OW 2815   0.082   2.085   2.739 -0.1191 -0.0009  0.1335
  939SOL    HW1 2816   0.077   2.027   2.651 -1.0963 -0.4101  0.5012
  939SOL    HW2 2817   0.092   2.183   2.710  0.9943  0.6243  2.5180
  940SOL     OW 2818   1.610   1.911   3.073 -0.0952 -0.4927  0.4793
  940SOL    HW1 2819   1.671   1.970   0.009 -1.4626 -0.3968 -0.0156
  940SOL    HW2 2820   1.642   1.893   2.978  0.8541 -0.6220 -0.6531
  941SOL     OW 2821   1.830   2.870   0.479  0.1399  0.2212  0.1009
  941SOL    HW1 2822   1.801   2.961   0.518  1.7039 -1.7723 -1.6119
  941SOL    HW2 2823   1.799   2.863   0.381 -1.5152  0.2755 -0.2329
  942SOL     OW 2824   1.988   1.795   0.912  0.5199  0.1587 -0.1056
  942SOL    HW1 2825   2.065   1.858   0.903  0.3506 -0.3394  0.8780
  942SOL    HW2 2826   1.899   1.842   0.936  1.6204 -1.2423  0.8533
  943SOL     OW 2827   1.830   0.516   1.507 -0.5081  0.3729  0.1340
  943SOL    HW1 2828   1.773   0.522   1.422  0.0076  1.4951 -0.4750
  943SOL    HW2 2829   1.913   0.579   1.494  1.2521  0.5134  1.5801
  944SOL     OW 2830   1.574   0.800   1.910 -0.2651 -0.1594  0.0754
  944SOL    HW1 2831   1.598   0.883   1.962  0.9891 -3.8796  0.5782
  944SOL    HW2 2832   1.621   0.802   1.820 -2.1686 -1.1853 -0.6217
  945SOL     OW 2833   2.147   2.860   1.201  0.3995 -0.0907 -0.1875
  945SOL    HW1 2834   2.214   2.867   1.278  1.5111  0.6430 -0.8250
  945SOL    HW2 2835   2.066   2.921   1.215  1.3040 -2.0653 -1.1067
  946SOL     OW 2836   0.763   1.495   0.617 -0.0921 -0.1667  0.5695
  946SOL    HW1 2837   0.766   1.587   0.667  0.8532 -0.0170 -0.3654
  946SOL    HW2 2838   0.773   1.508   0.516  1.1212 -2.4134 -3.1050
  947SOL     OW 2839   0.975   2.702   0.908  0.2559  0.2171  0.0988
  947SOL    HW1 2840   1.059   2.716   0.966  0.9294  2.3903 -0.7101
  947SOL    HW2 2841   0.958   2.603   0.892 -0.5031  3.2830 -0.1070
  948SOL     OW 2842   0.374   1.676   1.255 -0.8583  0.2118  0.0685
  948SOL    HW1 2843   0.377   1.633   1.166  0.0598  1.6074 -0.5932
  948SOL    HW2 2844   0.458   1.731   1.267 -1.2889  1.9142  3.3535
  949SOL     OW 2845   0.912   1.302   1.784 -0.3430 -0.0075  0.4823
  949SOL    HW1 2846   0.830   1.249   1.819 -1.5660  0.4365 -1.7725
  949SOL    HW2 2847   0.930   1.278   1.681 -0.9717 -1.2775  0.4446
  950SOL     OW 2848   0.765   0.765   1.236  0.0347 -0.1610 -0.3990
  950SOL    HW1 2849   0.855   0.801   1.263 -1.6991  0.5114 -1.2625
  950SOL    HW2 2850   0.695   0.809   1.291 -0.5148 -0.4131 -1.0403
  951SOL     OW 2851   0.609   2.115   1.963  0.4515  0.1066 -0.1613
  951SOL    HW1 2852   0.515   2.123   1.931  0.5649 -1.6477  0.1187
  951SOL    HW2 2853   0.674   2.069   1.904 -1.5464  0.6066  2.2739
  952SOL     OW 2854   0.999   1.783   0.047  0.3732  0.2325 -0.4508
  952SOL    HW1 2855   0.921   1.721   0.028  2.1025  0.2911  2.1601
  952SOL    HW2 2856   1.006   1.802   0.148 -2.4986  1.2547  0.0161
  953SOL     OW 2857   1.036   2.785   3.007  0.0140 -0.3443  0.0297
  953SOL    HW1 2858   0.934   2.759   2.996 -0.9727 -1.6513  1.3591
  953SOL    HW2 2859   1.072   2.726   3.085  1.3549 -0.1201 -2.4052
  954SOL     OW 2860   1.724   1.362   3.071  0.0604  0.1239 -0.1680
  954SOL    HW1 2861   1.749   1.278   0.005  0.0308 -2.8310  1.6824
  954SOL    HW2 2862   1.802   1.382   3.006  3.8393 -3.5544  0.1264
  955SOL     OW 2863   0.124   2.618   3.077 -0.4060 -0.1748  0.1663
  955SOL    HW1 2864   0.226   2.634   3.076  1.9213 -1.0533  1.7965
  955SOL    HW2 2865   0.078   2.676   3.007  0.6780  0.4717 -2.6583
  956SOL     OW 2866   1.355   0.958   1.314  0.1563  0.2625 -0.6011
  956SOL    HW1 2867   1.369   1.026   1.240  2.9336  0.4717 -0.9278
  956SOL    HW2 2868   1.296   0.996   1.386  1.7682 -2.1302 -1.5241
  957SOL     OW 2869   1.497   1.929   1.739  0.3978  0.0567 -0.0421
  957SOL    HW1 2870   1.589   1.892   1.765  0.4852 -4.0861  0.4382
  957SOL    HW2 2871   1.487   2.028   1.738  0.6300 -1.1642 -1.8294
  958SOL     OW 2872   1.185   2.113   1.554  0.3159 -0.1054  0.3409
  958SOL    HW1 2873   1.196   2.161   1.465 -0.4711 -3.4808 -0.6162
  958SOL    HW2 2874   1.086   2.088   1.569  2.9844 -0.4243  0.5878
  959SOL     OW 2875   1.650   1.180   1.128  0.3493 -0.0330  0.3462
  959SOL    HW1 2876   1.618   1.124   1.208 -1.7125  0.1722  1.2504
  959SOL    HW2 2877   1.744   1.213   1.146 -0.8785 -0.9264  2.4061
  960SOL     OW 2878   0.316   1.384   0.121 -0.2972  0.0605  0.2203
  960SOL    HW1 2879   0.377   1.440   0.054  0.5679  1.0447 -0.8694
  960SOL    HW2 2880   0.326   1.409   0.219 -2.7859  1.9294 -0.8457
  961SOL     OW 2881   0.804   1.494   2.129 -0.3316  0.7317  0.5220
  961SOL    HW1 2882   0.701   1.485   2.137 -0.7324 -1.6732 -0.0302
  961SOL    HW2 2883   0.845   1.474   2.220  1.0744  1.2614 -1.8756
  962SOL     OW 2884   1.318   1.487   0.618  0.2370 -0.3713  0.5601
  962SOL    HW1 2885   1.369   1.445   0.694 -2.0707  2.3511 -0.7513
  962SOL    HW2 2886   1.250   1.563   0.645 -1.0950  3.7678  4.0821
  963SOL     OW 2887   1.531   1.980   2.678  0.0476 -0.8048 -0.0425
  963SOL    HW1 2888   1.569   2.033   2.597  0.3713 -0.1313  1.5575
  963SOL    HW2 2889   1.428   1.977   2.672 -2.9517  2.1489  0.1491
  964SOL     OW 2890   0.665   0.046   0.224 -0.2250  0.4765 -0.0053
  964SOL    HW1 2891   0.620   0.009   0.309  0.3717  0.2195 -0.3615
  964SOL    HW2 2892   0.608   0.035   0.143  0.5440 -1.6139  0.9745
  965SOL     OW 2893   0.539   2.485   0.722 -0.1610  0.2888  0.1794
  965SOL    HW1 2894   0.580   2.576   0.740  2.8675 -2.7608 -1.6794
  965SOL    HW2 2895   0.445   2.485   0.762 -2.1307 -1.4485 -1.6403
  966SOL     OW 2896   0.592   1.835   2.753 -0.3601 -0.9381  0.7397
  966SOL    HW1 2897   0.535   1.924   2.756 -3.1524  1.3796 -0.0001
  966SOL    HW2 2898   0.539   1.758   2.712  0.7867  0.2138  2.9627
  967SOL     OW 2899   2.879   2.901   2.799  0.4947  0.6758  0.1104
  967SOL    HW1 2900   2.880   2.995   2.758 -0.8107  2.4453  2.2296
  967SOL    HW2 2901   2.959   2.896   2.858 -0.5274  0.5837  0.2227
  968SOL     OW 2902   2.252   0.828   0.179 -0.7274  1.1745  0.5011
  968SOL    HW1 2903   2.252   0.742   0.234 -0.5653  0.1757 -1.3010
  968SOL    HW2 2904   2.314   0.824   0.099  2.4143 -1.5497 -2.4173
  969SOL     OW 2905   0.472   0.972   1.800 -1.0921 -0.5458 -0.1510
  969SOL    HW1 2906   0.453   1.063   1.758 -0.3259  2.4886  1.5300
  969SOL    HW2 2907   0.431   0.977   1.892  0.3076 -0.1968  0.7648
  970SOL     OW 2908   2.474   1.379   1.297 -0.0849  0.7741 -0.1186
  970SOL    HW1 2909   2.391   1.343   1.344 -0.4158 -2.0539  0.8065
  970SOL    HW2 2910   2.560   1.335   1.326 -0.1202 -1.8948  0.3564
  971SOL     OW 2911   2.423   0.202   1.109 -0.2397 -0.2583  0.0741
  971SOL    HW1 2912   2.461   0.235   1.019 -0.3881  1.0570  0.6111
  971SOL    HW2 2913   2.354   0.130   1.098  2.0669  2.4254  0.5058
  972SOL     OW 2914   0.077   2.846   1.749  0.0908 -0.1209  0.1842
  972SOL    HW1 2915   0.139   2.923   1.782  1.0173 -0.7902 -1.7787
  972SOL    HW2 2916   3.114   2.882   1.695 -0.0186 -0.4319  2.0189
  973SOL     OW 2917   0.092   0.508   0.152  0.5054  0.0123 -0.1647
  973SOL    HW1 2918   0.174   0.565   0.170 -0.9937  3.0543 -1.7962
  973SOL    HW2 2919   0.100   0.425   0.091 -0.7746 -1.9036  0.1378
  974SOL     OW 2920   1.790   1.519   2.292  0.1054 -0.4299  1.0768
  974SOL    HW1 2921   1.800   1.613   2.327  0.8986 -1.0910  1.6043
  974SOL    HW2 2922   1.860   1.506   2.223 -0.9350  2.7612  1.8906
  975SOL     OW 2923   2.943   2.851   1.573 -0.4543  0.3701 -0.0769
  975SOL    HW1 2924   2.999   2.915   1.515  0.2719 -1.1014  1.3039
  975SOL    HW2 2925   2.877   2.804   1.510 -0.7631 -0.8105 -0.5100
  976SOL     OW 2926   0.392   2.166   2.181 -0.0811 -0.4226 -0.2194
  976SOL    HW1 2927   0.462   2.237   2.147  0.6416  0.3326 -2.5271
  976SOL    HW2 2928   0.373   2.104   2.101 -0.6945  1.8692 -0.5420
  977SOL     OW 2929   0.954   2.485   0.621 -0.2117 -0.4101 -0.4872
  977SOL    HW1 2930   0.914   2.471   0.531  1.0996  0.8270 -0.0311
  977SOL    HW2 2931   1.005   2.576   0.625 -0.6579  4.1338 -0.7967
  978SOL     OW 2932   0.039   1.708   2.452  0.0579  0.6917  0.1814
  978SOL    HW1 2933   0.118   1.645   2.432  0.5426 -1.5954 -4.6211
  978SOL    HW2 2934   0.011   1.701   2.550  0.9787  0.6094  0.0054
  979SOL     OW 2935   1.589   2.615   1.369 -0.2197  0.1204 -1.0431
  979SOL    HW1 2936   1.618   2.554   1.447  0.3841  0.1720  2.2677
  979SOL    HW2 2937   1.492   2.638   1.356  2.1504 -0.9814  0.9306
  980SOL     OW 2938   0.821   1.592   0.006  0.4520 -0.0254  0.3699
  980SOL    HW1 2939   0.832   1.493   0.022  0.2980  1.4376  1.5561
  980SOL    HW2 2940   0.739   1.628   0.055 -0.8100 -0.9530  1.7413
  981SOL     OW 2941   2.142   3.070   2.261  0.1597 -0.3216 -0.0772
  981SOL    HW1 2942   2.212   3.074   2.184  0.4902 -2.7997 -1.6315
  981SOL    HW2 2943   2.111   2.975   2.282 -0.4413 -1.9006 -1.2101
  982SOL     OW 2944   0.045   0.118   2.801  0.0865 -0.3875 -0.1044
  982SOL    HW1 2945   3.066   0.102   2.766  1.5651  1.7678  1.9696
  982SOL    HW2 2946   0.102   0.110   2.721 -0.9994  0.7184  1.4575
  983SOL     OW 2947   1.925   1.361   2.031  0.2414  0.4822  0.1284
  983SOL    HW1 2948   1.928   1.347   1.929  0.2449 -1.7681 -0.8953
  983SOL    HW2 2949   1.894   1.279   2.087  0.0381 -1.1975  1.3038
  984SOL     OW 2950   1.503   0.595   2.051 -0.1265  0.0387  0.3178
  984SOL    HW1 2951   1.416   0.546   2.025  1.9513  0.3579  0.6958
  984SOL    HW2 2952   1.522   0.676   1.987 -0.6236  1.1059 -2.8142
  985SOL     OW 2953   1.632   1.453   1.689 -0.1740  0.0691  0.2171
  985SOL    HW1 2954   1.534   1.465   1.721 -1.5332  1.3425 -0.0615
  985SOL    HW2 2955   1.642   1.371   1.629  0.6225  1.9373  1.4179
  986SOL     OW 2956   1.978   0.284   1.501 -0.6165 -0.1109  0.4354
  986SOL    HW1 2957   2.056   0.316   1.556 -0.7239 -2.4823  1.9386
  986SOL    HW2 2958   1.912   0.361   1.493 -3.8367  0.7805  1.5892
  987SOL     OW 2959   2.249   0.550   1.466  0.1667  0.0544  0.4773
  987SOL    HW1 2960   2.176   0.613   1.438  0.1582 -1.8616  1.9559
  987SOL    HW2 2961   2.252   0.467   1.411  2.0183  2.2784  1.2657
  988SOL     OW 2962   2.794   0.668   2.108 -0.3651  0.1463 -1.0103
  988SOL    HW1 2963   2.800   0.619   2.021 -2.7425  3.8018  2.2412
  988SOL    HW2 2964   2.739   0.609   2.175 -0.1918  1.7831  2.9180
  989SOL     OW 2965   2.258   1.780   2.915  0.2473 -0.4955 -0.0169
  989SOL    HW1 2966   2.195   1.811   2.842 -2.3247  1.3748 -0.2853
  989SOL    HW2 2967   2.231   1.816   3.007  2.0680 -0.2006  0.0879
  990SOL     OW 2968   1.149   0.666   3.078 -0.1609 -0.2433 -0.1020
  990SOL    HW1 2969   1.248   0.650   3.058 -1.1475 -2.2500 -0.6860
  990SOL    HW2 2970   1.105   0.733   3.014 -3.1767 -0.1899 -0.1507
  991SOL     OW 2971   1.361   0.878   0.261  0.0078 -0.3313 -0.5516
  991SOL    HW1 2972   1.426   0.801   0.252  0.8589 -1.1762  0.7189
  991SOL    HW2 2973   1.301   0.885   0.175 -0.5504 -0.2312  0.5613
  992SOL     OW 2974   2.396   1.552   2.941 -0.6745 -0.6945  0.0361
  992SOL    HW1 2975   2.313   1.499   2.919  2.9256  1.2745  1.1953
  992SOL    HW2 2976   2.363   1.653   2.933  0.0745 -1.2898  1.8500
  993SOL     OW 2977   0.291   0.307   0.591 -0.4946  0.1380 -0.5851
  993SOL    HW1 2978   0.343   0.244   0.527 -2.3206 -0.3253  0.1211
  993SOL    HW2 2979   0.199   0.332   0.552 -0.9651  1.1694  1.8684
  994SOL     OW 2980   0.067   1.787   2.039 -0.1352  0.2643 -0.4429
  994SOL    HW1 2981   3.096   1.778   2.091 -0.1717 -0.9715 -0.5062
  994SOL    HW2 2982   0.145   1.732   2.084  2.5946 -1.5701  0.8981
  995SOL     OW 2983   1.755   1.316   2.464 -0.7528 -0.4900  0.6367
  995SOL    HW1 2984   1.780   1.392   2.398  1.6604  2.9561  0.6485
  995SOL    HW2 2985   1.845   1.273   2.496 -2.0111  0.8836  0.7913
  996SOL     OW 2986   2.036   1.870   2.757 -0.1129  0.1902 -0.2556
  996SOL    HW1 2987   2.020   1.958   2.708 -1.5975  0.9957 -2.2936
  996SOL    HW2 2988   1.969   1.799   2.727 -0.2098  1.3972  0.4944
  997SOL     OW 2989   2.495   1.493   1.671 -0.1759 -0.2585 -0.7531
  997SOL    HW1 2990   2.533   1.545   1.590  0.1108 -1.7000 -0.9349
  997SOL    HW2 2991   2.572   1.495   1.740  1.0852 -0.4194  0.0222
  998SOL     OW 2992   2.451   1.555   0.281  0.4879  0.7813 -0.2779
  998SOL    HW1 2993   2.365   1.520   0.324  1.9017 -3.3346  0.8682
  998SOL    HW2 2994   2.432   1.623   0.207 -0.6108  1.6282 -1.2154
  999SOL     OW 2995   2.784   2.669   0.313  0.1092 -0.5346  0.2523
  999SOL    HW1 2996   2.704   2.687   0.373 -1.0605  1.5902 -1.1991
  999SOL    HW2 2997   2.835   2.755   0.290  1.4599  0.4599 -1.3357
 1000SOL     OW 2998   0.559   0.112   1.998  0.1820 -0.2033 -0.4474
 1000SOL    HW1 2999   0.608   0.196   1.968  0.2649 -1.5578 -2.0187
 1000SOL    HW2 3000   0.527   0.133   2.095 -0.6164  3.9521  1.9019
   3.11749   3.11749   3.11749
