1000 SPC/Fw water molecules t= 291.00000 step= 291000
 3000
    1SOL     OW    1   2.490   2.887   0.944 -0.1762  0.8562  0.3888
    1SOL    HW1    2   2.510   2.811   0.876 -0.8759 -1.7018 -2.0348
    1SOL    HW2    3   2.573   2.933   0.968 -2.5577 -1.7051 -2.8159
    2SOL     OW    4   2.622   1.981   0.902  0.0103 -0.1578 -0.0123
    2SOL    HW1    5   2.633   1.907   0.830 -1.0139 -0.0500 -1.1652
    2SOL    HW2    6   2.682   1.961   0.982 -1.3948  5.0720  0.7666
    3SOL     OW    7   0.645   2.683   2.751  0.0202 -0.9076 -0.1274
    3SOL    HW1    8   0.600   2.763   2.717  3.0237 -1.0282 -0.4887
    3SOL    HW2    9   0.614   2.607   2.694 -1.4107 -0.7110  1.2350
    4SOL     OW   10   2.098   2.311   1.370  0.5156  0.5259  0.5230
    4SOL    HW1   11   2.130   2.402   1.340 -0.4634  0.3083 -1.0717
    4SOL    HW2   12   2.180   2.261   1.402 -1.5886 -3.1595 -1.1197
    5SOL     OW   13   1.600   0.943   1.150  0.4185  0.1096  0.2771
    5SOL    HW1   14   1.524   0.876   1.183 -3.6378 -3.7978 -0.6499
    5SOL    HW2   15   1.683   0.932   1.209  1.0289  0.0699  3.6154
    6SOL     OW   16   2.207   3.017   0.073 -0.8013  0.3244  0.0022
    6SOL    HW1   17   2.292   3.049   0.119 -0.4440  1.3359 -0.5167
    6SOL    HW2   18   2.126   3.002   0.130  1.0232  1.0176  0.4396
    7SOL     OW   19   2.729   1.188   1.374  0.3321  0.3836 -0.3678
    7SOL    HW1   20   2.815   1.151   1.410 -2.7738  3.4263 -0.1041
    7SOL    HW2   21   2.738   1.271   1.322 -1.3814 -0.8726 -1.1946
    8SOL     OW   22   1.405   2.471   1.208 -0.4724  0.6730  0.2506
    8SOL    HW1   23   1.476   2.427   1.266 -0.9354  1.3109  2.7860
    8SOL    HW2   24   1.330   2.408   1.187 -0.2232 -0.7665 -0.4878
    9SOL     OW   25   1.408   2.919   2.339  0.1260 -0.1321  0.3563
    9SOL    HW1   26   1.311   2.911   2.309 -1.3364 -0.7226 -1.3229
    9SOL    HW2   27   1.468   2.935   2.259 -1.1694 -2.5218 -0.1564
   10SOL     OW   28   0.585   2.133   0.792 -0.6583  0.4529  0.1553
   10SOL    HW1   29   0.592   2.109   0.691  1.0616  0.7282  0.3763
   10SOL    HW2   30   0.632   2.070   0.859 -0.8103  0.7328  0.7391
   11SOL     OW   31   1.679   1.445   1.007 -0.0985 -0.1532  0.4524
   11SOL    HW1   32   1.765   1.421   1.057 -1.2429  3.0388 -2.9853
   11SOL    HW2   33   1.598   1.461   1.072  0.4370  0.1823  0.3091
   12SOL     OW   34   2.687   2.381   1.742 -0.0001  0.1422 -0.1775
   12SOL    HW1   35   2.686   2.475   1.706  0.4349 -0.6245  1.9699
   12SOL    HW2   36   2.745   2.384   1.826  0.1217  1.5691  0.8516
   13SOL     OW   37   2.346   3.009   0.473 -0.2165 -0.2428 -0.4023
   13SOL    HW1   38   2.251   3.012   0.434 -0.0922 -1.5658 -0.0663
   13SOL    HW2   39   2.367   3.085   0.537 -1.1886  2.0569 -1.7840
   14SOL     OW   40   1.900   2.278   0.788 -0.4512  0.4356  0.6618
   14SOL    HW1   41   1.947   2.206   0.732  1.2864 -0.5573 -1.5127
   14SOL    HW2   42   1.824   2.319   0.732 -3.9182 -0.4003 -1.5976
   15SOL     OW   43   2.906   2.073   1.984 -0.7298 -0.6353 -0.0639
   15SOL    HW1   44   2.966   2.014   1.926 -0.0128 -2.5901  0.5661
   15SOL    HW2   45   2.914   2.040   2.079 -0.2842  1.8415 -0.2126
   16SOL     OW   46   2.214   2.526   0.517 -0.2595 -0.4431  0.0642
   16SOL    HW1   47   2.186   2.616   0.475  2.4850 -0.9551 -3.2439
   16SOL    HW2   48   2.241   2.533   0.614 -1.8413 -3.2012 -0.7643
   17SOL     OW   49   0.670   0.115   1.255  0.0238 -0.5694  0.2113
   17SOL    HW1   50   0.670   0.021   1.295 -0.6899 -3.3569 -1.5330
   17SOL    HW2   51   0.737   0.173   1.308  4.0392  1.5943  2.4889
   18SOL     OW   52   1.405   0.931   0.180  0.2812  0.5776  0.0988
   18SOL    HW1   53   1.308   0.919   0.168  2.9074  1.4649  2.0616
   18SOL    HW2   54   1.464   0.889   0.106 -1.1583 -0.2624 -0.2484
   19SOL     OW   55   1.867   1.942   0.283 -0.5532  0.0092 -0.4081
   19SOL    HW1   56   1.857   2.027   0.230 -1.3452 -1.3930  3.0209
   19SOL    HW2   57   1.790   1.877   0.266  0.7156  1.0178 -0.8435
   20SOL     OW   58   2.515   1.831   2.027 -0.1352 -0.3919  0.1297
   20SOL    HW1   59   2.511   1.934   2.032 -1.7283  1.6667 -0.4776
   20SOL    HW2   60   2.475   1.792   2.112 -0.9575  0.4009 -0.2368
   21SOL     OW   61   0.992   1.179   0.551  0.2223  0.1384 -0.4216
   21SOL    HW1   62   0.954   1.084   0.552  1.4093 -0.8106 -2.0291
   21SOL    HW2   63   0.920   1.255   0.571 -1.8217  4.5107 -1.3483
   22SOL     OW   64   2.149   3.030   1.498  0.0676 -0.1704 -0.2432
   22SOL    HW1   65   2.232   3.020   1.556 -0.1431  0.3154 -0.1874
   22SOL    HW2   66   2.113   0.031   1.496  1.3323 -0.5394  1.8824
   23SOL     OW   67   2.978   0.811   1.893 -0.3856 -0.2086  0.2587
   23SOL    HW1   68   2.905   0.758   1.946 -0.3003 -1.5129 -1.2324
   23SOL    HW2   69   3.074   0.808   1.928  0.2197  1.8971  0.1130
   24SOL     OW   70   2.437   2.763   0.276 -0.2372  0.3536  0.4129
   24SOL    HW1   71   2.460   2.866   0.258  0.8409  1.2081  0.2819
   24SOL    HW2   72   2.503   2.706   0.225 -0.9946  1.4292 -0.7163
   25SOL     OW   73   0.977   0.065   2.351 -0.3878  0.0738 -0.2573
   25SOL    HW1   74   1.074   0.062   2.324 -0.7365 -1.6892  0.7509
   25SOL    HW2   75   0.953   0.150   2.403 -1.9160  1.1431 -0.7072
   26SOL     OW   76   1.730   2.294   0.297 -0.0709  0.0556 -0.1370
   26SOL    HW1   77   1.820   2.304   0.341  0.3180  1.2334  2.4808
   26SOL    HW2   78   1.701   2.366   0.231  0.2045 -1.4144  0.8380
   27SOL     OW   79   2.393   1.593   0.018 -0.3093  0.3030 -0.0179
   27SOL    HW1   80   2.326   1.624   3.042 -0.0994 -1.1875 -0.5540
   27SOL    HW2   81   2.455   1.525   3.069  0.3146  1.6862  2.5561
   28SOL     OW   82   0.290   1.379   1.562  0.5348 -0.0656 -0.1024
   28SOL    HW1   83   0.279   1.391   1.665 -1.4127 -0.6093  2.7845
   28SOL    HW2   84   0.257   1.454   1.506  1.2331  0.2743 -0.0533
   29SOL     OW   85   2.237   2.547   1.295  0.0180  0.0173 -0.4475
   29SOL    HW1   86   2.177   2.626   1.310 -1.4748 -0.2178  1.5581
   29SOL    HW2   87   2.324   2.566   1.345 -1.2715 -0.2835 -2.1733
   30SOL     OW   88   1.661   0.450   0.787  0.8011 -0.1002  0.3544
   30SOL    HW1   89   1.709   0.490   0.868 -1.5873 -3.7503  0.6808
   30SOL    HW2   90   1.571   0.490   0.773 -2.7021  0.4667 -2.8882
   31SOL     OW   91   2.112   2.495   1.733  0.3208 -0.3501 -0.1457
   31SOL    HW1   92   2.022   2.508   1.690 -1.5572 -2.0526 -0.7537
   31SOL    HW2   93   2.131   2.396   1.727  1.3898  1.3682  0.0660
   32SOL     OW   94   0.812   1.648   0.932  0.3483 -0.0368 -0.1800
   32SOL    HW1   95   0.809   1.587   0.854  2.0303 -0.8649  2.6509
   32SOL    HW2   96   0.870   1.728   0.909  0.9544 -2.7166 -0.5237
   33SOL     OW   97   0.217   0.130   2.436 -0.2022 -0.0088 -0.5460
   33SOL    HW1   98   0.303   0.166   2.472 -1.2102  0.4016  0.4359
   33SOL    HW2   99   0.201   0.176   2.352 -0.6810 -1.4013 -0.5172
   34SOL     OW  100   1.832   3.036   0.494 -0.1216 -0.7509  0.0259
   34SOL    HW1  101   1.880   0.030   0.508 -1.1591 -1.9517  1.7324
   34SOL    HW2  102   1.739   3.042   0.541 -2.8772 -0.4144 -0.9632
   35SOL     OW  103   2.160   2.804   1.364  0.4261 -0.3627 -0.0704
   35SOL    HW1  104   2.212   2.824   1.279 -0.3347 -3.1047  1.5170
   35SOL    HW2  105   2.147   2.892   1.421 -0.4445  1.3462  0.9756
   36SOL     OW  106   1.760   2.503   2.220 -0.3335  0.0762  0.0590
   36SOL    HW1  107   1.802   2.437   2.279  1.9747  0.3271 -0.6010
   36SOL    HW2  108   1.709   2.569   2.279  1.5520 -0.4087 -0.5391
   37SOL     OW  109   0.773   0.051   1.865 -0.5267  0.3920  0.0311
   37SOL    HW1  110   0.757   3.081   1.788  0.0655  0.2421  2.0083
   37SOL    HW2  111   0.841   0.013   1.930 -1.7031  0.9615 -0.5674
   38SOL     OW  112   0.003   0.059   2.585  0.3204  0.7832  0.5223
   38SOL    HW1  113   0.032   0.016   2.672 -2.0101  0.9641  0.2373
   38SOL    HW2  114   0.078   0.086   2.523  0.7672  1.6768  1.1306
   39SOL     OW  115   2.242   0.800   1.598 -1.0670 -0.0762  0.2405
   39SOL    HW1  116   2.233   0.879   1.657 -0.9663  1.2850  0.1293
   39SOL    HW2  117   2.185   0.806   1.515  1.4899  0.4031  0.2752
   40SOL     OW  118   1.165   2.751   0.083  0.3347  0.2672 -0.6541
   40SOL    HW1  119   1.078   2.779   0.125 -1.0760 -0.9385  1.6094
   40SOL    HW2  120   1.236   2.821   0.108  0.8076  1.6530  1.4183
   41SOL     OW  121   2.353   1.162   1.003  0.4197  0.2630 -0.0342
   41SOL    HW1  122   2.443   1.201   0.987  1.2788  0.9255 -2.6148
   41SOL    HW2  123   2.327   1.089   0.937  0.2173  2.1572  0.3537
   42SOL     OW  124   0.347   0.453   0.890 -0.4926 -0.2574 -0.1445
   42SOL    HW1  125   0.403   0.534   0.861 -0.1402  1.3516  0.6959
   42SOL    HW2  126   0.342   0.382   0.818  2.1793 -0.4037  1.0786
   43SOL     OW  127   2.834   1.529   2.717 -0.3923  0.1597  0.1597
   43SOL    HW1  128   2.741   1.513   2.755  2.1310 -1.4400  1.6376
   43SOL    HW2  129   2.827   1.528   2.615 -1.6683  0.2080  3.1990
   44SOL     OW  130   2.759   0.139   1.726  0.1492  0.1728 -0.4770
   44SOL    HW1  131   2.791   0.041   1.730 -2.2946 -0.4354  0.2221
   44SOL    HW2  132   2.732   0.161   1.819 -0.8973  0.9475  1.8761
   45SOL     OW  133   0.542   0.111   1.644  0.1305  0.6678  0.4824
   45SOL    HW1  134   0.584   0.022   1.630 -0.4682  1.0324 -2.0286
   45SOL    HW2  135   0.524   0.137   1.738  1.5153  1.2924 -1.8407
   46SOL     OW  136   1.359   2.728   2.534 -0.4432  0.1780  0.0113
   46SOL    HW1  137   1.263   2.738   2.569 -0.1270  0.6627 -2.9262
   46SOL    HW2  138   1.380   2.801   2.464 -0.5168 -0.9233 -1.2768
   47SOL     OW  139   1.824   1.820   0.753  0.8540  0.3814  0.6334
   47SOL    HW1  140   1.801   1.875   0.838  1.5526 -1.8542 -0.9872
   47SOL    HW2  141   1.917   1.780   0.764  0.5018  1.3207  0.4988
   48SOL     OW  142   1.041   2.260   0.484 -0.4021 -0.1484 -0.0030
   48SOL    HW1  143   1.021   2.359   0.457  0.8956  0.4721  0.1527
   48SOL    HW2  144   0.967   2.231   0.547  1.6870  0.0341 -1.4907
   49SOL     OW  145   2.185   3.080   2.357 -0.3653  0.2440  0.4764
   49SOL    HW1  146   2.284   3.058   2.359  1.8665 -0.6615  3.2289
   49SOL    HW2  147   2.133   3.042   2.437  1.1692 -0.5991  3.6009
   50SOL     OW  148   2.083   0.298   0.170 -0.4300  0.0874  0.0080
   50SOL    HW1  149   2.144   0.298   0.251 -1.1780 -0.7625 -4.1600
   50SOL    HW2  150   1.987   0.282   0.188  0.0330 -2.1362 -1.9412
   51SOL     OW  151   2.014   0.845   0.521 -0.3075  0.6831  0.5703
   51SOL    HW1  152   2.047   0.943   0.523 -0.8021 -0.2183  0.6357
   51SOL    HW2  153   1.996   0.809   0.614  2.5073 -0.1908  0.3544
   52SOL     OW  154   1.060   1.584   1.343 -0.3575  0.6819  0.0360
   52SOL    HW1  155   1.058   1.545   1.440  2.1633 -0.7529 -0.4208
   52SOL    HW2  156   0.998   1.537   1.278  3.3383  0.9355 -0.2268
   53SOL     OW  157   1.011   1.671   2.307 -0.3168  0.1489 -0.2830
   53SOL    HW1  158   0.945   1.598   2.284 -0.0639  0.2647  0.0396
   53SOL    HW2  159   0.967   1.765   2.312 -0.1634  0.9694 -0.1206
   54SOL     OW  160   2.584   0.259   1.541 -0.6514 -0.2023 -0.3173
   54SOL    HW1  161   2.655   0.242   1.611 -0.5510  1.3525 -1.0565
   54SOL    HW2  162   2.556   0.176   1.488  0.1600  1.1159  1.4767
   55SOL     OW  163   2.666   1.769   0.711  0.1318  0.7990 -0.5007
   55SOL    HW1  164   2.762   1.727   0.704 -1.4555 -1.5142  0.9125
   55SOL    HW2  165   2.618   1.790   0.627 -1.7055 -0.2489  0.8481
   56SOL     OW  166   1.074   0.444   2.165 -0.4083  0.1591 -0.0438
   56SOL    HW1  167   1.153   0.378   2.151 -0.9667  0.5360  0.5068
   56SOL    HW2  168   1.063   0.471   2.263  0.9330  0.7484 -1.6321
   57SOL     OW  169   1.453   1.182   0.104 -0.2951  0.1679  0.1830
   57SOL    HW1  170   1.421   1.087   0.130  1.9297 -1.1586 -1.8661
   57SOL    HW2  171   1.554   1.191   0.108  0.6242  0.3319 -0.2637
   58SOL     OW  172   0.154   1.019   1.655  0.0459 -0.2835  0.2386
   58SOL    HW1  173   0.148   0.922   1.676  0.6978  2.5868  0.7069
   58SOL    HW2  174   0.091   1.066   1.720 -3.3889 -1.8432  1.0014
   59SOL     OW  175   1.361   2.942   0.118 -0.3626  0.1662 -0.0015
   59SOL    HW1  176   1.358   2.928   0.015  0.5178 -2.0040 -1.4789
   59SOL    HW2  177   1.352   3.038   0.150  1.8395 -0.6581  3.1128
   60SOL     OW  178   2.820   2.110   0.368 -0.5910  0.0450 -0.2908
   60SOL    HW1  179   2.743   2.050   0.332  1.6282 -2.1444  1.8366
   60SOL    HW2  180   2.820   2.195   0.316  0.5694  0.1327  1.2062
   61SOL     OW  181   1.168   2.800   0.446 -0.4978 -0.0946  0.3397
   61SOL    HW1  182   1.195   2.704   0.464  0.9227 -4.9791  1.5254
   61SOL    HW2  183   1.254   2.855   0.451 -1.2009  2.6763  0.2194
   62SOL     OW  184   2.094   2.111   2.626 -0.3136 -0.8918 -0.4083
   62SOL    HW1  185   2.060   2.016   2.601 -0.1876  1.5659  0.8893
   62SOL    HW2  186   2.142   2.161   2.549  0.2666  0.2112  0.4772
   63SOL     OW  187   2.409   2.342   0.425 -0.6706  0.2171 -0.1897
   63SOL    HW1  188   2.330   2.403   0.413  0.0169  0.8637  0.6037
   63SOL    HW2  189   2.402   2.275   0.502 -1.7039 -1.0055  1.5328
   64SOL     OW  190   1.740   1.183   2.691 -0.1607  0.6826  0.4075
   64SOL    HW1  191   1.684   1.248   2.740  0.1455  1.5890  0.4226
   64SOL    HW2  192   1.691   1.096   2.668 -1.9036 -2.0575 -0.2665
   65SOL     OW  193   1.484   1.836   2.820  1.0694 -0.2563  0.3752
   65SOL    HW1  194   1.474   1.820   2.919  2.2187 -0.1554 -0.4508
   65SOL    HW2  195   1.402   1.814   2.763  0.2217  2.1176  0.3193
   66SOL     OW  196   0.345   1.091   1.950 -0.4163 -0.5272  0.1111
   66SOL    HW1  197   0.410   1.048   2.012 -0.1240  1.4183 -1.0880
   66SOL    HW2  198   0.394   1.148   1.882 -1.0277 -0.2210  0.5212
   67SOL     OW  199   2.305   2.882   2.705  0.3279  0.5195 -0.2321
   67SOL    HW1  200   2.283   2.870   2.806 -2.1332  0.5060 -0.9994
   67SOL    HW2  201   2.336   2.972   2.677 -0.1665 -0.5768  0.9418
   68SOL     OW  202   1.012   2.618   1.434 -0.5340  0.1756 -0.4458
   68SOL    HW1  203   0.979   2.554   1.369 -0.4792  0.7003 -2.8146
   68SOL    HW2  204   1.114   2.618   1.441  2.2601 -1.6029  0.0822
   69SOL     OW  205   0.761   2.664   0.372  0.5004 -0.2149 -0.0843
   69SOL    HW1  206   0.691   2.651   0.301  1.2117  1.0909  0.4746
   69SOL    HW2  207   0.718   2.685   0.462 -0.4037  0.6650 -0.5516
   70SOL     OW  208   2.478   0.267   2.601 -0.5997  0.5266  0.0769
   70SOL    HW1  209   2.404   0.333   2.615 -0.3754  2.3450 -1.0994
   70SOL    HW2  210   2.519   0.292   2.507 -2.0015 -1.0785 -3.6046
   71SOL     OW  211   0.784   1.337   2.468 -0.2766  0.3566 -0.4044
   71SOL    HW1  212   0.801   1.426   2.512 -0.5872  0.3146 -0.8605
   71SOL    HW2  213   0.692   1.295   2.489 -0.2127 -0.0903 -0.0899
   72SOL     OW  214   3.083   2.123   0.284 -0.1989  0.4205  0.0323
   72SOL    HW1  215   0.042   2.208   0.265  2.7153 -1.6900  2.5418
   72SOL    HW2  216   2.996   2.136   0.332  0.2499 -0.9762  2.4496
   73SOL     OW  217   1.249   1.156   0.463  0.1797 -0.4030  0.0271
   73SOL    HW1  218   1.275   1.219   0.389 -4.1516  0.9922 -0.5733
   73SOL    HW2  219   1.151   1.159   0.493 -0.7238 -0.1464  1.0996
   74SOL     OW  220   2.306   2.653   2.544  0.1133  0.1791  0.1095
   74SOL    HW1  221   2.271   2.588   2.613  2.7690  1.6814  0.9749
   74SOL    HW2  222   2.333   2.734   2.599  1.0634 -0.0538 -0.0132
   75SOL     OW  223   2.252   1.564   1.000 -0.2840 -0.3288  0.0901
   75SOL    HW1  224   2.278   1.563   1.098  1.3335  0.9472 -1.2579
   75SOL    HW2  225   2.332   1.574   0.937  1.7690 -1.5853 -0.9029
   76SOL     OW  226   1.883   2.680   1.355  0.3002 -0.3943  0.0385
   76SOL    HW1  227   1.975   2.720   1.362  0.8661  0.3726 -0.5832
   76SOL    HW2  228   1.861   2.621   1.429 -1.3310  3.5587 -0.1447
   77SOL     OW  229   2.447   0.270   1.952  0.5139 -0.3084 -0.5985
   77SOL    HW1  230   2.450   0.317   2.043  2.4620 -1.1503  0.4168
   77SOL    HW2  231   2.382   0.318   1.890  2.2975  2.7216 -0.9499
   78SOL     OW  232   1.585   0.832   0.008  1.0445 -0.3986 -0.0566
   78SOL    HW1  233   1.606   0.750   0.074 -0.5314 -2.1938  2.7147
   78SOL    HW2  234   1.601   0.811   3.001  0.8278 -0.8891 -2.6690
   79SOL     OW  235   2.459   1.567   2.262 -0.1156 -0.1195  0.1013
   79SOL    HW1  236   2.418   1.647   2.310  0.6669  2.3175 -1.6754
   79SOL    HW2  237   2.533   1.529   2.316 -0.8323  0.7730 -0.0297
   80SOL     OW  238   1.850   1.669   1.733 -0.1350 -0.1383 -0.2555
   80SOL    HW1  239   1.925   1.611   1.711 -0.9669  4.2453 -1.2034
   80SOL    HW2  240   1.778   1.669   1.660 -0.0264  0.8576 -0.1049
   81SOL     OW  241   1.459   0.577   1.450 -0.2626  0.6800 -0.0502
   81SOL    HW1  242   1.365   0.574   1.498 -0.7436 -1.7611 -0.2889
   81SOL    HW2  243   1.450   0.527   1.363 -0.8747  0.5408 -1.7415
   82SOL     OW  244   1.587   2.469   1.595  0.7463 -0.3163 -0.3732
   82SOL    HW1  245   1.597   2.434   1.689  0.5768 -0.5369 -5.0037
   82SOL    HW2  246   1.509   2.540   1.585  0.5557 -0.7386  1.2738
   83SOL     OW  247   0.209   0.183   0.635  0.6956 -0.2793  0.0418
   83SOL    HW1  248   0.283   0.134   0.684  0.6913 -1.3149 -1.7461
   83SOL    HW2  249   0.123   0.174   0.685  1.1911 -2.6269 -3.3109
   84SOL     OW  250   0.805   1.176   0.049  0.0990  0.6020 -0.2861
   84SOL    HW1  251   0.763   1.257   0.092  0.4508  0.4683 -0.0879
   84SOL    HW2  252   0.903   1.189   0.035 -2.4503 -1.0267 -1.4138
   85SOL     OW  253   2.772   1.945   1.650 -0.4077 -0.5155  0.5707
   85SOL    HW1  254   2.721   1.875   1.601  2.0171  3.8260 -0.4360
   85SOL    HW2  255   2.839   1.902   1.715 -1.5263  1.4630  0.3662
   86SOL     OW  256   3.074   2.582   1.622  0.0783 -0.0376 -0.1913
   86SOL    HW1  257   0.066   2.573   1.567  0.9512  1.3376 -1.9797
   86SOL    HW2  258   2.992   2.545   1.569  1.3007 -0.8718  2.0340
   87SOL     OW  259   0.550   0.471   2.404  0.4358  0.1177 -0.7746
   87SOL    HW1  260   0.626   0.440   2.344 -1.9925 -0.1346 -0.1507
   87SOL    HW2  261   0.495   0.389   2.429  4.4781  2.4487  0.8269
   88SOL     OW  262   0.499   2.379   0.860 -0.0256 -0.4891 -0.1782
   88SOL    HW1  263   0.543   2.295   0.817 -0.7495 -1.7806 -0.2609
   88SOL    HW2  264   0.484   2.363   0.961  0.6770 -3.8984 -1.3646
   89SOL     OW  265   1.167   0.768   1.427 -0.1858 -0.3657  0.0515
   89SOL    HW1  266   1.189   0.713   1.511 -1.9927 -0.0770 -0.6266
   89SOL    HW2  267   1.076   0.814   1.440 -2.3258  1.8693 -2.2176
   90SOL     OW  268   3.028   1.544   1.575 -0.0256  0.8774  0.1220
   90SOL    HW1  269   3.020   1.627   1.629  1.5620 -1.2872  0.3613
   90SOL    HW2  270   3.061   1.465   1.629  1.4345  0.5490 -0.6862
   91SOL     OW  271   1.232   0.983   0.990  0.2764  0.0866  0.1565
   91SOL    HW1  272   1.207   0.910   1.051 -0.5754  1.3188 -4.5579
   91SOL    HW2  273   1.173   0.971   0.911 -0.3616  1.3531 -1.2122
   92SOL     OW  274   2.502   0.682   0.910 -0.1481  0.0420 -0.1664
   92SOL    HW1  275   2.429   0.691   0.984  1.4627 -2.6000 -0.4857
   92SOL    HW2  276   2.481   0.610   0.841 -0.6657  1.8959  1.7796
   93SOL     OW  277   1.983   0.787   2.787 -0.1146 -0.5192 -0.6861
   93SOL    HW1  278   1.933   0.698   2.787  1.5162  0.5752  0.1604
   93SOL    HW2  279   1.989   0.823   2.694  0.6779 -2.9921  1.2722
   94SOL     OW  280   2.332   1.775   2.367 -0.2267  0.2876  0.7472
   94SOL    HW1  281   2.260   1.784   2.297 -1.0628  2.1085  0.4558
   94SOL    HW2  282   2.381   1.865   2.387  0.0658 -2.7786 -0.2276
   95SOL     OW  283   2.120   0.555   1.058 -0.2996  0.3812 -0.4371
   95SOL    HW1  284   2.058   0.627   1.098  0.8610  0.6741  0.7868
   95SOL    HW2  285   2.161   0.496   1.127 -1.4491  1.8224 -0.7772
   96SOL     OW  286   2.416   3.087   2.041 -0.2493 -0.3987  0.0876
   96SOL    HW1  287   2.367   3.015   1.989 -1.1058 -0.6437 -2.9315
   96SOL    HW2  288   2.420   0.084   1.991  3.7360 -2.5977 -0.5468
   97SOL     OW  289   2.435   0.595   1.433  0.7685  0.9437  0.9383
   97SOL    HW1  290   2.536   0.595   1.444 -2.8156 -0.8792  0.3586
   97SOL    HW2  291   2.395   0.579   1.525  1.0761  0.4198 -0.8384
   98SOL     OW  292   1.351   2.240   1.595 -0.0808 -0.6066  0.5017
   98SOL    HW1  293   1.404   2.163   1.555  2.9511 -1.3068  0.9474
   98SOL    HW2  294   1.400   2.329   1.578  2.6149 -1.2964 -1.2613
   99SOL     OW  295   2.313   2.133   1.572 -0.0956  0.1942  0.4005
   99SOL    HW1  296   2.407   2.176   1.560  0.0852  0.4370  1.4311
   99SOL    HW2  297   2.287   2.088   1.485  1.8386  0.9458 -0.9022
  100SOL     OW  298   0.614   0.984   2.784  0.2917 -0.3895 -0.4079
  100SOL    HW1  299   0.513   0.958   2.787 -4.3363 -1.1473 -2.4332
  100SOL    HW2  300   0.663   0.970   2.871  1.9573 -2.7077  3.3889
  101SOL     OW  301   2.258   0.319   2.915 -0.2245 -0.0632  0.2315
  101SOL    HW1  302   2.174   0.256   2.927 -1.8898 -1.6610 -2.9974
  101SOL    HW2  303   2.265   0.377   2.993  0.4811 -2.3314 -0.9981
  102SOL     OW  304   0.398   0.811   1.755 -0.6787  0.2546 -0.5070
  102SOL    HW1  305   0.466   0.787   1.827 -0.4428  0.7360  0.1146
  102SOL    HW2  306   0.358   0.906   1.764  0.2776  0.2658 -1.8081
  103SOL     OW  307   3.026   0.496   2.917 -0.2937  0.5216  0.4078
  103SOL    HW1  308   0.014   0.526   2.967  1.0504 -0.0609 -0.2437
  103SOL    HW2  309   3.065   0.450   2.836  0.8810  0.7094  1.8994
  104SOL     OW  310   0.664   0.520   2.713  0.2691 -0.3346 -0.1101
  104SOL    HW1  311   0.706   0.617   2.718 -0.1032  2.9816  0.2626
  104SOL    HW2  312   0.689   0.483   2.623  1.9973 -1.5961  0.7897
  105SOL     OW  313   2.257   1.878   1.727  0.5379 -0.6014  0.0491
  105SOL    HW1  314   2.168   1.878   1.777  2.4281 -0.3831 -1.8989
  105SOL    HW2  315   2.274   1.972   1.685  0.1911 -0.5925 -1.9929
  106SOL     OW  316   2.045   0.540   0.480  0.3375 -0.2950  0.4718
  106SOL    HW1  317   1.957   0.503   0.523 -0.5216  0.2905  0.8473
  106SOL    HW2  318   2.025   0.636   0.450 -0.7220  2.0815  2.4990
  107SOL     OW  319   0.032   1.745   0.807  0.2080  0.1696  0.9078
  107SOL    HW1  320   3.078   1.777   0.891  3.3339 -2.5788 -2.7740
  107SOL    HW2  321   0.092   1.812   0.761  0.4058 -0.2438  0.4905
  108SOL     OW  322   2.693   2.659   1.627  0.3842 -0.7918  0.1225
  108SOL    HW1  323   2.662   2.688   1.718  1.4450  1.8375 -2.5905
  108SOL    HW2  324   2.707   2.732   1.555 -3.1601 -3.9504  0.8384
  109SOL     OW  325   1.785   3.009   0.881 -0.1296 -0.4221  0.3789
  109SOL    HW1  326   1.733   3.029   0.799  3.3281 -0.1874  0.9371
  109SOL    HW2  327   1.884   3.013   0.862 -1.1350  0.2289 -0.6732
  110SOL     OW  328   0.665   2.143   2.736  0.0381 -1.2847  0.5196
  110SOL    HW1  329   0.636   2.060   2.680  0.4818 -0.2119 -0.2999
  110SOL    HW2  330   0.738   2.193   2.682  0.2679  3.0800  0.0852
  111SOL     OW  331   1.482   2.430   2.084  0.4497 -0.3786  0.2964
  111SOL    HW1  332   1.495   2.513   2.029  0.4409  0.1632  0.4732
  111SOL    HW2  333   1.565   2.411   2.136  2.0639 -0.7780 -1.0817
  112SOL     OW  334   2.093   2.423   3.057  0.2370 -0.6684  0.3455
  112SOL    HW1  335   2.188   2.415   0.008  5.1160 -0.4306 -0.6614
  112SOL    HW2  336   2.018   2.366   0.007 -0.5653 -2.6267  3.4732
  113SOL     OW  337   1.454   2.184   1.182  0.5260 -0.2838  0.0027
  113SOL    HW1  338   1.531   2.214   1.238 -1.1063  2.5107  2.6280
  113SOL    HW2  339   1.415   2.100   1.223 -0.2460  1.2637 -1.4727
  114SOL     OW  340   3.045   0.948   0.767  0.0258 -0.1903 -0.1319
  114SOL    HW1  341   3.046   0.937   0.869 -0.0036  1.6325  0.6725
  114SOL    HW2  342   2.972   0.891   0.726 -2.9604 -0.9098  1.4619
  115SOL     OW  343   0.765   0.932   3.036  0.1083  0.4101  0.4113
  115SOL    HW1  344   0.768   1.026   3.073  1.3799 -3.8042 -0.6055
  115SOL    HW2  345   0.730   0.874   0.019  0.4025  2.4093 -2.5440
  116SOL     OW  346   2.577   1.372   2.482 -0.7325 -0.1931 -0.4690
  116SOL    HW1  347   2.523   1.364   2.572 -4.0146  0.7585 -1.1324
  116SOL    HW2  348   2.605   1.282   2.443  1.5572  1.0380  1.6461
  117SOL     OW  349   0.238   2.927   0.784 -0.3707  0.0735 -0.2426
  117SOL    HW1  350   0.286   2.882   0.861  0.4923  2.9543  0.4616
  117SOL    HW2  351   0.243   2.860   0.705  0.4766 -4.0507 -1.9065
  118SOL     OW  352   1.037   2.019   2.479  0.0027  0.4779  0.8012
  118SOL    HW1  353   1.125   2.077   2.481  3.3960 -0.0821  3.1956
  118SOL    HW2  354   1.049   1.952   2.558  0.4007 -1.9112  3.8744
  119SOL     OW  355   0.093   2.333   2.845  0.2013 -0.1863 -0.1998
  119SOL    HW1  356   0.083   2.260   2.911 -0.4749  2.6884 -1.9675
  119SOL    HW2  357   0.148   2.411   2.879 -0.2902 -0.3267 -0.6480
  120SOL     OW  358   1.199   0.597   3.068 -0.2869 -1.1425  0.2134
  120SOL    HW1  359   1.196   0.670   2.999  0.7276 -2.8537  2.8001
  120SOL    HW2  360   1.120   0.535   3.065 -0.9933  0.4626  0.5605
  121SOL     OW  361   1.292   2.863   1.088  0.4558 -0.2833 -0.2055
  121SOL    HW1  362   1.343   2.781   1.049 -0.7943  1.0447 -0.7431
  121SOL    HW2  363   1.363   2.938   1.096  1.5926  0.9293 -0.3429
  122SOL     OW  364   2.454   2.618   1.454 -0.1736 -0.4573 -0.0791
  122SOL    HW1  365   2.449   2.626   1.552  0.9380  0.3547 -1.0483
  122SOL    HW2  366   2.504   2.697   1.420  0.7737 -2.8002  0.1520
  123SOL     OW  367   0.578   2.417   0.575  0.0046  0.6159 -0.1707
  123SOL    HW1  368   0.617   2.511   0.549  0.8816 -1.4779 -2.7006
  123SOL    HW2  369   0.506   2.419   0.641  2.4345  0.2641 -4.2707
  124SOL     OW  370   2.433   0.574   0.188  0.3360  0.1640  0.0563
  124SOL    HW1  371   2.368   0.535   0.113 -0.9740  0.1769 -1.1160
  124SOL    HW2  372   2.526   0.599   0.163 -2.0760 -2.6183  1.4627
  125SOL     OW  373   0.555   1.135   0.334  0.1685 -0.1936  0.0759
  125SOL    HW1  374   0.544   1.096   0.427 -0.2987 -0.0157 -1.1672
  125SOL    HW2  375   0.644   1.104   0.299 -0.4406  2.4442  1.0619
  126SOL     OW  376   0.131   1.487   0.753 -0.0777  0.3088  0.4198
  126SOL    HW1  377   0.099   1.415   0.821 -1.5545 -1.0838  1.2870
  126SOL    HW2  378   0.086   1.578   0.770  2.7720  0.2442 -3.0232
  127SOL     OW  379   0.825   2.012   2.299 -0.4821  0.6025  0.8035
  127SOL    HW1  380   0.863   2.015   2.205  0.6065  2.2657 -0.2854
  127SOL    HW2  381   0.897   2.020   2.374 -0.7350  1.5116  0.5524
  128SOL     OW  382   1.019   0.974   2.928 -0.3934 -0.1177  0.0793
  128SOL    HW1  383   1.036   0.990   2.829  1.1289 -0.2315  1.0706
  128SOL    HW2  384   0.923   0.973   2.959 -0.0930 -0.5170  0.1723
  129SOL     OW  385   2.525   1.391   0.652  0.4536  0.0753  0.5546
  129SOL    HW1  386   2.427   1.393   0.685 -0.7733  0.0214 -0.1402
  129SOL    HW2  387   2.540   1.452   0.572 -2.0538 -3.8729  1.7943
  130SOL     OW  388   2.259   1.336   1.436 -0.1781  0.0611  0.2446
  130SOL    HW1  389   2.241   1.415   1.496 -2.3530 -0.4647  2.2764
  130SOL    HW2  390   2.322   1.272   1.476 -0.1523  1.8081 -1.2369
  131SOL     OW  391   0.126   2.806   0.054 -0.0589 -0.0700 -0.2076
  131SOL    HW1  392   0.035   2.817   0.016  1.1568  3.3204  2.2971
  131SOL    HW2  393   0.123   2.828   0.153  1.3265  0.9534 -0.2686
  132SOL     OW  394   0.478   1.734   0.808  0.0792  0.3099 -0.5608
  132SOL    HW1  395   0.575   1.756   0.790  1.0537 -2.8504 -0.4792
  132SOL    HW2  396   0.417   1.800   0.761 -0.6001 -2.5670 -2.5960
  133SOL     OW  397   0.961   0.482   1.279  0.1953 -0.5533 -0.0833
  133SOL    HW1  398   0.977   0.528   1.369 -1.1688 -0.5272  1.6455
  133SOL    HW2  399   1.041   0.436   1.237  1.4713  0.9511 -0.0455
  134SOL     OW  400   0.055   1.888   0.183  0.3293  0.2394  0.3574
  134SOL    HW1  401   0.009   1.876   0.095 -0.7733 -0.8927 -1.6629
  134SOL    HW2  402   0.018   1.968   0.233 -2.4527  1.2074 -0.6709
  135SOL     OW  403   1.855   0.784   1.717  0.1855  0.3388 -0.4810
  135SOL    HW1  404   1.876   0.858   1.652 -0.7394 -1.4502  1.1903
  135SOL    HW2  405   1.783   0.727   1.674  3.0103 -1.3055 -2.5910
  136SOL     OW  406   0.086   1.280   0.290 -0.2118 -0.2364 -0.7845
  136SOL    HW1  407   0.042   1.354   0.346 -0.7100  0.9575 -2.6352
  136SOL    HW2  408   0.097   1.193   0.340 -1.4357  0.5659  0.4886
  137SOL     OW  409   0.076   1.309   0.931 -0.0350 -0.8505  0.0440
  137SOL    HW1  410   0.140   1.235   0.957  0.9192 -0.2855 -0.2774
  137SOL    HW2  411   3.074   1.290   0.954  0.7324 -1.7167  0.3411
  138SOL     OW  412   1.933   0.729   0.789 -0.3533  0.0257 -0.3767
  138SOL    HW1  413   1.889   0.655   0.845  2.7605  1.1288  0.7858
  138SOL    HW2  414   2.010   0.776   0.831 -0.0804  3.4845 -0.0631
  139SOL     OW  415   1.764   2.779   0.192  0.5249  0.4258  0.0715
  139SOL    HW1  416   1.677   2.801   0.239 -2.8160 -0.9036 -1.3781
  139SOL    HW2  417   1.801   2.696   0.239 -1.1096 -0.3576 -0.7890
  140SOL     OW  418   1.303   1.754   1.504  0.1062 -0.6581 -0.0916
  140SOL    HW1  419   1.307   1.703   1.594 -1.5645 -3.2328  4.6665
  140SOL    HW2  420   1.308   1.693   1.427  0.1736  1.0751  1.1196
  141SOL     OW  421   1.757   1.979   0.538  0.3863  0.2416 -0.1483
  141SOL    HW1  422   1.808   1.956   0.455  3.1738  0.1611 -0.7987
  141SOL    HW2  423   1.772   1.907   0.611 -1.2292  0.6252  0.1418
  142SOL     OW  424   0.983   0.406   3.037 -0.2395 -0.0849  0.1123
  142SOL    HW1  425   0.972   0.328   0.013 -0.0041 -1.7494  2.5249
  142SOL    HW2  426   0.923   0.489   3.052 -1.1211 -0.3936 -0.4995
  143SOL     OW  427   0.367   2.211   0.046  0.3973  0.2721 -0.7560
  143SOL    HW1  428   0.380   2.222   3.036 -2.9165  2.2969 -1.1028
  143SOL    HW2  429   0.439   2.262   0.095 -2.8321 -2.0614 -1.5673
  144SOL     OW  430   1.521   3.084   1.147  0.3837  0.1856 -0.2060
  144SOL    HW1  431   1.497   3.088   1.245 -0.8750 -1.1500 -0.5483
  144SOL    HW2  432   1.610   3.045   1.118 -0.7856 -0.2717 -1.5242
  145SOL     OW  433   2.024   1.207   0.175  0.1979 -0.3205  0.3802
  145SOL    HW1  434   2.013   1.107   0.177  1.3203  4.3860  1.6241
  145SOL    HW2  435   1.928   1.248   0.172  0.6602  1.9303  0.5820
  146SOL     OW  436   0.051   2.310   0.857 -0.1568 -0.0369 -0.7526
  146SOL    HW1  437   3.089   2.276   0.779 -0.6607  0.7091 -2.2014
  146SOL    HW2  438   0.001   2.376   0.917 -0.1291  1.7256  3.2446
  147SOL     OW  439   2.420   3.071   1.600 -0.6554 -0.0765  0.1775
  147SOL    HW1  440   2.494   3.015   1.645  1.0096 -0.3076  3.3501
  147SOL    HW2  441   2.420   3.055   1.497  1.2910 -0.7026 -1.4408
  148SOL     OW  442   1.334   2.879   1.733 -0.3483 -0.3004  0.9686
  148SOL    HW1  443   1.297   2.941   1.665  1.9153 -1.9421 -0.5924
  148SOL    HW2  444   1.269   2.852   1.804  0.0174  0.7269 -2.6030
  149SOL     OW  445   1.754   0.196   2.245  0.3339  0.1439  0.1571
  149SOL    HW1  446   1.697   0.257   2.300  4.1091  0.0660  2.7193
  149SOL    HW2  447   1.830   0.247   2.196  0.1955  2.8166 -1.8886
  150SOL     OW  448   0.016   2.808   0.343  0.9690 -0.1942  0.1032
  150SOL    HW1  449   3.083   2.895   0.293 -1.4170  1.3421  0.2492
  150SOL    HW2  450   3.080   2.834   0.438 -0.3661  1.0481 -2.0980
  151SOL     OW  451   0.564   2.361   0.150 -0.1540 -0.3469  0.0889
  151SOL    HW1  452   0.558   2.456   0.172 -0.0831 -3.5257 -0.4273
  151SOL    HW2  453   0.614   2.315   0.222 -2.4050  0.5146  1.3583
  152SOL     OW  454   2.839   2.991   0.724  0.7252 -0.3361  0.3493
  152SOL    HW1  455   2.879   2.943   0.805 -0.4277  0.8011 -0.1314
  152SOL    HW2  456   2.835   3.088   0.748 -0.5076 -2.2774  1.8610
  153SOL     OW  457   2.476   0.260   1.085 -0.5536  0.1535  1.1583
  153SOL    HW1  458   2.384   0.214   1.084  0.6691  1.3517  1.7082
  153SOL    HW2  459   2.512   0.284   0.992 -0.7441 -3.2361  1.2671
  154SOL     OW  460   0.748   0.348   2.267 -0.6182 -0.6456 -0.6797
  154SOL    HW1  461   0.820   0.344   2.341  2.9154  0.8951  0.1494
  154SOL    HW2  462   0.784   0.398   2.186 -2.5630  1.4898 -1.0917
  155SOL     OW  463   0.141   1.268   1.259 -0.3631 -0.0075 -0.0291
  155SOL    HW1  464   0.221   1.330   1.253 -1.1259  0.5116 -2.0766
  155SOL    HW2  465   0.147   1.199   1.182  0.5443 -0.6094 -0.6360
  156SOL     OW  466   2.565   2.018   2.971  0.4928  0.3810  0.0009
  156SOL    HW1  467   2.584   1.939   3.032 -3.1615  2.8346 -0.5699
  156SOL    HW2  468   2.466   2.012   2.939 -2.5123 -1.6716 -3.0351
  157SOL     OW  469   0.782   0.612   3.051  0.0362 -0.0953 -0.4123
  157SOL    HW1  470   0.761   0.634   0.058 -1.2907 -1.4173  1.2362
  157SOL    HW2  471   0.823   0.693   3.010 -2.1371  0.1777  2.1481
  158SOL     OW  472   2.452   0.001   2.585  0.2200 -0.0763  0.0343
  158SOL    HW1  473   2.458   3.051   2.491 -0.8885 -0.3795 -1.0143
  158SOL    HW2  474   2.472   0.102   2.592  1.5960 -0.8944  1.0336
  159SOL     OW  475   0.529   0.325   0.491  0.1214  0.1203 -0.4900
  159SOL    HW1  476   0.432   0.355   0.499 -1.7382  1.9873  2.1964
  159SOL    HW2  477   0.555   0.255   0.558 -2.5452  2.8011 -0.1341
  160SOL     OW  478   1.303   1.744   2.647 -0.0805  0.1542  0.8605
  160SOL    HW1  479   1.204   1.764   2.639 -0.6071  0.9054 -1.4342
  160SOL    HW2  480   1.361   1.792   2.575 -0.3488  1.9487 -0.2296
  161SOL     OW  481   0.064   1.247   2.674  0.0193  0.7301  0.5140
  161SOL    HW1  482   0.033   1.277   2.583  0.3169  1.5826 -1.0490
  161SOL    HW2  483   3.091   1.289   2.741 -2.0160  0.2559  0.0517
  162SOL     OW  484   0.446   2.519   1.319  0.0380  0.6765  0.2901
  162SOL    HW1  485   0.377   2.547   1.388  2.3868  0.8014 -2.0180
  162SOL    HW2  486   0.407   2.446   1.256  0.4469 -0.3156 -0.3827
  163SOL     OW  487   2.328   0.261   2.281  0.5786  0.0890 -0.0605
  163SOL    HW1  488   2.302   0.163   2.287 -1.4447  0.3272 -1.4637
  163SOL    HW2  489   2.243   0.316   2.287 -0.3663  1.0201 -0.9095
  164SOL     OW  490   2.249   1.226   0.365 -0.2327 -0.2266  0.2567
  164SOL    HW1  491   2.179   1.216   0.289  1.6994 -1.4792  0.0472
  164SOL    HW2  492   2.302   1.311   0.350 -3.6607 -0.3340  1.8713
  165SOL     OW  493   0.260   0.388   1.528 -0.2808 -0.4301 -0.3183
  165SOL    HW1  494   0.264   0.388   1.625 -0.4540  0.3452 -2.2691
  165SOL    HW2  495   0.331   0.328   1.498 -1.9263  1.7173 -0.1071
  166SOL     OW  496   2.041   0.944   0.193  0.1438  0.4480 -0.3609
  166SOL    HW1  497   1.970   0.879   0.230  0.6323  0.7223  3.1483
  166SOL    HW2  498   2.133   0.904   0.194 -3.5547 -2.1707  4.5170
  167SOL     OW  499   2.827   0.575   0.609 -0.3477 -0.5906  0.2229
  167SOL    HW1  500   2.786   0.509   0.541  1.8804  1.7947 -0.5842
  167SOL    HW2  501   2.897   0.538   0.671 -1.8666 -1.5028 -2.4795
  168SOL     OW  502   1.603   2.667   2.342 -0.0278 -0.4957 -0.4632
  168SOL    HW1  503   1.588   2.746   2.281 -0.8033  0.1473 -0.1824
  168SOL    HW2  504   1.513   2.648   2.383  1.1078 -1.1264 -0.1560
  169SOL     OW  505   0.903   1.533   0.676  0.2334  0.0044 -0.1470
  169SOL    HW1  506   1.001   1.532   0.707 -1.3167  1.2014  0.6264
  169SOL    HW2  507   0.883   1.460   0.611 -0.4374  0.8130  3.9860
  170SOL     OW  508   0.122   0.539   1.096  0.5061 -0.0044  0.3304
  170SOL    HW1  509   0.197   0.517   1.032 -1.5840  0.5821 -1.4861
  170SOL    HW2  510   0.037   0.557   1.043 -0.7718 -0.9884 -1.8211
  171SOL     OW  511   1.298   2.234   2.786 -0.1099 -0.2142 -0.3825
  171SOL    HW1  512   1.216   2.184   2.813 -0.3965 -0.0086  0.3022
  171SOL    HW2  513   1.338   2.297   2.854  1.7829  0.1342  0.1035
  172SOL     OW  514   0.109   2.904   1.278 -0.1576  0.9296 -0.2358
  172SOL    HW1  515   0.209   2.900   1.257  1.3726 -0.7261 -0.6998
  172SOL    HW2  516   0.087   3.001   1.290 -1.2628  0.0568  0.4630
  173SOL     OW  517   1.620   0.864   2.680 -0.4333 -0.2399 -0.5381
  173SOL    HW1  518   1.626   0.790   2.750  1.2856  0.0384 -0.1224
  173SOL    HW2  519   1.641   0.817   2.591  0.1195  2.2547  1.0950
  174SOL     OW  520   1.603   2.876   2.781  0.4291  0.4605 -0.1414
  174SOL    HW1  521   1.620   2.893   2.685 -0.2256 -0.1711  3.3591
  174SOL    HW2  522   1.504   2.889   2.803  3.1200  0.4046  1.3902
  175SOL     OW  523   1.998   2.313   0.460  0.7732  0.3429  0.0720
  175SOL    HW1  524   1.981   2.228   0.512  2.1056 -0.8439  0.3345
  175SOL    HW2  525   2.053   2.381   0.509 -3.1662  0.5956 -1.5599
  176SOL     OW  526   1.558   0.188   2.843  0.1280  0.5828 -0.3434
  176SOL    HW1  527   1.547   0.148   2.939 -1.6871 -0.8162  0.8853
  176SOL    HW2  528   1.612   0.272   2.847  2.1570 -0.4806 -1.0382
  177SOL     OW  529   1.081   1.775   0.524  0.1735 -0.2745  0.2078
  177SOL    HW1  530   1.065   1.868   0.520  0.1492 -4.5429  1.7747
  177SOL    HW2  531   1.046   1.737   0.440  1.9609  2.9094 -3.0210
  178SOL     OW  532   2.463   2.265   3.072  0.2558  0.3215 -0.1233
  178SOL    HW1  533   2.505   2.188   3.030 -0.2531 -0.3031  1.2468
  178SOL    HW2  534   2.438   2.244   0.075  1.4703  1.0162 -1.1013
  179SOL     OW  535   0.152   2.758   2.661 -0.6901 -0.5321 -0.6831
  179SOL    HW1  536   0.057   2.780   2.674  4.4504  2.7071  0.0915
  179SOL    HW2  537   0.215   2.841   2.673  0.5662  2.7401 -0.7366
  180SOL     OW  538   1.675   1.354   0.749 -0.1039 -0.0177 -0.2723
  180SOL    HW1  539   1.697   1.385   0.846  1.6449  1.9199  1.7751
  180SOL    HW2  540   1.592   1.301   0.739 -0.3003  1.0260 -2.4865
  181SOL     OW  541   1.856   0.996   1.974  0.0988 -0.3035 -0.3150
  181SOL    HW1  542   1.853   0.986   2.076 -1.6779 -0.6514 -2.0216
  181SOL    HW2  543   1.756   0.988   1.944 -0.0845 -1.7116 -0.5244
  182SOL     OW  544   2.720   2.968   2.327 -0.1691 -0.1968  1.0846
  182SOL    HW1  545   2.713   2.986   2.422 -1.7933 -1.9433 -2.4122
  182SOL    HW2  546   2.787   2.894   2.308  0.4981 -1.2108 -0.5663
  183SOL     OW  547   1.537   0.852   2.235  0.4078  0.1641  0.4082
  183SOL    HW1  548   1.529   0.940   2.181 -2.1743 -1.9661 -1.6692
  183SOL    HW2  549   1.541   0.772   2.169 -0.4148 -3.7758 -0.1125
  184SOL     OW  550   0.333   1.109   1.493  0.6719 -0.1283 -0.1060
  184SOL    HW1  551   0.360   1.207   1.485 -1.4803  2.8394 -0.2969
  184SOL    HW2  552   0.257   1.093   1.564 -0.2017 -0.3382 -0.2920
  185SOL     OW  553   1.804   0.471   0.556  0.0223  0.3494  0.1271
  185SOL    HW1  554   1.770   0.465   0.651 -2.5261  2.1833  0.1208
  185SOL    HW2  555   1.747   0.539   0.498  0.9670 -0.0142 -1.4756
  186SOL     OW  556   0.514   2.614   3.053 -0.0399 -0.2338 -0.3415
  186SOL    HW1  557   0.468   2.690   3.005  0.5258 -2.1538 -0.2433
  186SOL    HW2  558   0.519   2.530   3.001  1.3494 -0.2763 -1.7764
  187SOL     OW  559   2.538   0.815   2.959  0.0281  0.9000 -0.4356
  187SOL    HW1  560   2.448   0.856   2.985 -2.4464  1.0204  3.4421
  187SOL    HW2  561   2.527   0.717   2.922  1.0551 -2.9095 -5.9724
  188SOL     OW  562   3.017   1.563   1.315 -0.8313 -0.2151  0.0889
  188SOL    HW1  563   0.019   1.566   1.275  0.1401  0.3143 -2.3168
  188SOL    HW2  564   3.015   1.540   1.414  0.0769  0.9108  0.9199
  189SOL     OW  565   2.591   0.182   0.146 -0.2892 -0.2019  0.0637
  189SOL    HW1  566   2.654   0.141   0.218 -3.2005 -2.3183  0.4627
  189SOL    HW2  567   2.641   0.261   0.102 -0.9158 -1.8651  0.8225
  190SOL     OW  568   1.214   1.388   2.046 -0.0088  0.1133  0.7325
  190SOL    HW1  569   1.242   1.426   2.134 -2.4492 -1.5726 -3.5219
  190SOL    HW2  570   1.271   1.303   2.027  0.1243 -0.0457  2.3867
  191SOL     OW  571   2.845   0.655   1.648 -0.2149 -0.1804 -0.6698
  191SOL    HW1  572   2.828   0.554   1.654  1.2544  0.9511  0.2132
  191SOL    HW2  573   2.821   0.696   1.737  2.4236 -0.4748 -0.6077
  192SOL     OW  574   2.021   1.469   1.380  0.0910  0.3606 -0.1908
  192SOL    HW1  575   1.973   1.497   1.463 -0.5398 -2.3177  0.6099
  192SOL    HW2  576   2.097   1.402   1.397  0.7839  0.4895  0.6528
  193SOL     OW  577   1.188   0.664   1.166  0.2795  0.1821 -0.1110
  193SOL    HW1  578   1.170   0.690   1.259 -2.4332  0.7308 -0.9064
  193SOL    HW2  579   1.198   0.563   1.161  1.9986  0.2556  0.8871
  194SOL     OW  580   1.269   2.547   1.806  0.2719 -0.1970  0.0628
  194SOL    HW1  581   1.315   2.581   1.723 -2.0387 -0.7808  1.1095
  194SOL    HW2  582   1.173   2.594   1.811 -1.7434 -0.4815  1.3204
  195SOL     OW  583   1.864   0.152   2.873  0.6370  0.6182  0.0909
  195SOL    HW1  584   1.904   0.167   2.778 -1.4660  0.8240 -1.0359
  195SOL    HW2  585   1.935   0.163   2.944 -0.1020 -0.9746 -0.9458
  196SOL     OW  586   1.170   2.331   1.977 -0.3594  0.3213 -0.0514
  196SOL    HW1  587   1.085   2.374   1.951  1.2983 -0.8717 -1.6556
  196SOL    HW2  588   1.240   2.389   1.931  0.3917  1.3564 -0.1729
  197SOL     OW  589   1.013   2.818   1.055  0.4426 -0.3354  0.2099
  197SOL    HW1  590   0.973   2.763   0.974  0.8907  1.0471 -3.5043
  197SOL    HW2  591   1.119   2.830   1.049 -0.0202  0.9936  0.5361
  198SOL     OW  592   1.060   0.913   0.796 -0.7236 -0.1037  0.9028
  198SOL    HW1  593   1.033   0.843   0.858 -1.4387  1.9731 -1.9394
  198SOL    HW2  594   0.994   0.937   0.725  2.5930  0.7076 -2.6246
  199SOL     OW  595   3.000   2.728   1.846  0.1018 -0.1378  0.7143
  199SOL    HW1  596   3.040   2.679   1.764  1.9282  0.1426 -0.6936
  199SOL    HW2  597   2.966   2.821   1.814 -0.7068 -1.5210  0.4353
  200SOL     OW  598   1.954   2.078   2.281  0.9310 -0.2542  0.7282
  200SOL    HW1  599   1.969   2.014   2.357  1.4776  3.7514  1.0008
  200SOL    HW2  600   1.916   2.026   2.200  0.2063 -0.6013  1.7044
  201SOL     OW  601   0.032   1.986   1.847  0.1513 -0.3589 -0.1586
  201SOL    HW1  602   0.130   1.993   1.874 -0.7625  0.8037  1.2677
  201SOL    HW2  603   0.010   1.977   1.747 -3.1776  2.1021  1.3017
  202SOL     OW  604   2.501   0.102   0.623  0.4319 -0.3884 -0.6694
  202SOL    HW1  605   2.497   0.163   0.545  0.3858  1.0087 -0.5277
  202SOL    HW2  606   2.552   0.014   0.601 -1.2867 -2.2924 -1.9734
  203SOL     OW  607   1.069   2.220   2.192  0.0882 -0.0505 -0.2718
  203SOL    HW1  608   1.002   2.289   2.239 -2.9825  1.9167  0.5840
  203SOL    HW2  609   1.123   2.258   2.114  1.3499  0.6636 -0.1147
  204SOL     OW  610   1.174   2.134   1.759 -0.2857 -0.2221 -0.0532
  204SOL    HW1  611   1.252   2.184   1.713  0.9502 -0.5826  0.2105
  204SOL    HW2  612   1.142   2.183   1.845 -0.3342  0.5950  2.4919
  205SOL     OW  613   1.353   1.596   1.703  0.9270 -0.0227  0.1033
  205SOL    HW1  614   1.381   1.502   1.673  3.0445  0.4259  1.5250
  205SOL    HW2  615   1.434   1.653   1.716 -0.4032 -1.9679 -0.1315
  206SOL     OW  616   0.233   0.961   2.392 -0.0576  0.0115  0.6773
  206SOL    HW1  617   0.197   1.015   2.310  1.3288  3.4312 -0.4559
  206SOL    HW2  618   0.336   0.980   2.403  0.8110  2.7963  3.0233
  207SOL     OW  619   1.208   3.053   1.558  0.6307  0.3461 -0.3050
  207SOL    HW1  620   1.228   0.046   1.606  0.3624  1.9466 -2.0984
  207SOL    HW2  621   1.119   3.056   1.504 -1.7249 -1.3779 -0.5129
  208SOL     OW  622   0.486   2.660   1.754  0.0974  0.2852  0.0303
  208SOL    HW1  623   0.515   2.757   1.781 -4.2364  3.9771  1.0086
  208SOL    HW2  624   0.417   2.628   1.828 -0.7628 -2.8199  3.5306
  209SOL     OW  625   1.349   0.611   0.208 -0.4659  0.1954  0.1912
  209SOL    HW1  626   1.443   0.582   0.178 -0.9271 -0.4842 -0.9057
  209SOL    HW2  627   1.289   0.616   0.130  0.6132 -2.1814  1.7041
  210SOL     OW  628   2.859   0.219   0.574 -0.3155  0.2023 -0.3086
  210SOL    HW1  629   2.772   0.255   0.548  3.6709 -0.3326  1.5480
  210SOL    HW2  630   2.938   0.269   0.532  1.5923 -0.0095  0.8970
  211SOL     OW  631   0.591   0.548   1.203  0.7338 -0.7896 -0.1457
  211SOL    HW1  632   0.532   0.631   1.211 -0.4980 -0.6365 -2.9992
  211SOL    HW2  633   0.683   0.572   1.231  2.5093 -1.2025 -0.0302
  212SOL     OW  634   1.133   1.856   1.103 -0.2852  0.2862 -0.2478
  212SOL    HW1  635   1.231   1.845   1.099 -1.2391  0.0884  0.9674
  212SOL    HW2  636   1.095   1.862   1.196  1.3798  0.0455 -0.9968
  213SOL     OW  637   2.099   0.096   1.936 -0.1493  0.2696  0.2174
  213SOL    HW1  638   2.025   0.076   1.863 -0.5611 -1.3260 -0.6582
  213SOL    HW2  639   2.160   0.012   1.939 -0.1707 -2.8319  2.0621
  214SOL     OW  640   0.876   2.397   2.314  0.4571 -0.0265 -0.0665
  214SOL    HW1  641   0.860   2.462   2.239 -1.1999  0.7997  3.9115
  214SOL    HW2  642   0.789   2.346   2.337  1.3118  0.2650  2.8043
  215SOL     OW  643   2.641   1.704   1.541 -0.0176 -0.2142 -0.3783
  215SOL    HW1  644   2.613   1.718   1.635 -0.1382 -0.1097 -3.5774
  215SOL    HW2  645   2.641   1.611   1.507 -0.2275 -0.3312  0.4026
  216SOL     OW  646   0.483   0.874   1.496 -0.3733 -0.4949 -0.3447
  216SOL    HW1  647   0.489   0.858   1.596  0.4735  1.9166  2.2208
  216SOL    HW2  648   0.402   0.939   1.483 -0.6669 -0.7412 -0.0405
  217SOL     OW  649   3.055   0.342   0.435 -0.2046 -0.3998  0.3046
  217SOL    HW1  650   3.016   0.337   0.338 -3.6681 -1.0536 -0.0066
  217SOL    HW2  651   0.041   0.284   0.459 -0.6571  2.2696  2.4652
  218SOL     OW  652   1.887   1.763   1.116 -0.0491  0.8502  0.4102
  218SOL    HW1  653   1.811   1.806   1.064 -5.0036  1.1926 -0.8671
  218SOL    HW2  654   1.922   1.681   1.066  1.4949 -0.9090 -1.9466
  219SOL     OW  655   1.566   0.417   0.031 -0.1220  0.5730  0.0823
  219SOL    HW1  656   1.513   0.449   3.043  0.0372  1.6293 -4.4469
  219SOL    HW2  657   1.582   0.313   0.037  0.6332 -1.6298 -2.1633
  220SOL     OW  658   1.731   1.945   0.978  0.4071 -0.1136 -0.8440
  220SOL    HW1  659   1.752   2.041   1.002  0.0726 -1.8734  0.6006
  220SOL    HW2  660   1.638   1.929   0.995  2.0946  1.2418  0.2271
  221SOL     OW  661   2.840   0.836   0.638 -0.2637  0.4652  0.0247
  221SOL    HW1  662   2.835   0.734   0.626 -0.3023  2.0644 -1.8983
  221SOL    HW2  663   2.765   0.858   0.706  0.3239 -2.5632 -0.5793
  222SOL     OW  664   0.830   2.653   1.626 -0.0475 -0.1543  0.6433
  222SOL    HW1  665   0.909   2.644   1.562 -1.0865 -0.3928 -1.2975
  222SOL    HW2  666   0.750   2.606   1.592  0.7887  0.8724  0.0334
  223SOL     OW  667   1.391   0.465   2.933 -0.3024 -0.5769  0.9338
  223SOL    HW1  668   1.334   0.433   2.852 -2.2731 -1.5356 -0.4625
  223SOL    HW2  669   1.331   0.515   3.000 -1.6432 -0.0151 -0.6898
  224SOL     OW  670   2.724   0.382   1.338  0.2221 -0.3895 -0.2381
  224SOL    HW1  671   2.638   0.360   1.391 -1.7920  0.0003  1.9895
  224SOL    HW2  672   2.727   0.487   1.333 -2.2085  0.3508  2.1072
  225SOL     OW  673   0.717   1.629   1.559  0.2543  0.0079 -0.0858
  225SOL    HW1  674   0.793   1.663   1.498  0.1312  0.1467 -0.1772
  225SOL    HW2  675   0.657   1.564   1.513  2.1318  1.4223 -0.0873
  226SOL     OW  676   1.025   2.985   0.624 -0.2569  0.1026  0.2325
  226SOL    HW1  677   1.036   3.076   0.576 -0.9865 -0.6018 -0.1417
  226SOL    HW2  678   1.076   2.907   0.574  1.0415 -0.6276 -2.4569
  227SOL     OW  679   1.044   1.893   1.657 -0.0625  0.3157  0.1467
  227SOL    HW1  680   1.090   1.878   1.568 -2.1740 -0.3682 -2.8607
  227SOL    HW2  681   1.059   1.992   1.684 -0.4170  1.6578  0.6230
  228SOL     OW  682   0.466   0.295   2.133  0.2229 -0.2955  0.3278
  228SOL    HW1  683   0.547   0.261   2.188  0.3452  0.6328 -1.9129
  228SOL    HW2  684   0.448   0.240   2.044 -1.3424  0.6331 -0.7943
  229SOL     OW  685   2.696   0.662   0.140 -0.6494 -0.3342  0.5063
  229SOL    HW1  686   2.683   0.763   0.115  1.2406 -0.9055 -0.8105
  229SOL    HW2  687   2.789   0.632   0.110 -0.3958  1.0096  1.4025
  230SOL     OW  688   0.100   1.402   1.751  0.2071 -0.4630  0.3616
  230SOL    HW1  689   0.130   1.491   1.788 -1.8056 -2.4782 -2.6799
  230SOL    HW2  690   0.050   1.349   1.823 -1.0008  0.1490 -0.5399
  231SOL     OW  691   0.943   2.856   1.321 -0.4282 -0.0150  0.2258
  231SOL    HW1  692   0.960   2.769   1.371  1.1836 -0.3620 -0.9483
  231SOL    HW2  693   0.965   2.846   1.223  1.7018  1.0334  3.5356
  232SOL     OW  694   2.558   2.520   0.088 -0.2930  0.6419 -0.0964
  232SOL    HW1  695   2.554   2.419   0.059 -0.8963 -1.0996 -2.1309
  232SOL    HW2  696   2.523   2.574   0.011 -0.4682  2.6174 -1.1617
  233SOL     OW  697   1.282   2.580   2.982  0.3773 -0.3643  0.3515
  233SOL    HW1  698   1.185   2.560   2.957 -1.6432  1.0606 -0.9587
  233SOL    HW2  699   1.284   2.646   3.058 -2.3782 -1.8192 -1.2332
  234SOL     OW  700   0.727   1.139   2.058 -0.4510 -0.2836  0.2456
  234SOL    HW1  701   0.711   1.237   2.024  0.4691  0.1731  0.9268
  234SOL    HW2  702   0.803   1.135   2.129  2.3756 -1.9809  1.2324
  235SOL     OW  703   0.131   2.318   0.143  0.4800  0.2938  0.2803
  235SOL    HW1  704   0.225   2.278   0.127  2.1457  0.0487  0.9950
  235SOL    HW2  705   0.112   2.406   0.095  2.6829  1.1427 -1.4954
  236SOL     OW  706   1.989   2.464   2.540 -0.0803  0.4048  0.7124
  236SOL    HW1  707   2.062   2.457   2.610  0.9106 -4.2591  1.0770
  236SOL    HW2  708   1.972   2.370   2.494  0.7779 -2.9470  0.1430
  237SOL     OW  709   2.197   1.071   1.238 -0.2615 -0.1424 -0.3492
  237SOL    HW1  710   2.186   1.161   1.290  0.4368  0.9420  0.4648
  237SOL    HW2  711   2.266   1.077   1.159  0.3844  0.5504 -3.1470
  238SOL     OW  712   1.173   2.831   2.234  0.0520 -0.5335  0.3444
  238SOL    HW1  713   1.153   2.742   2.280 -1.6808 -3.1096 -1.1818
  238SOL    HW2  714   1.192   2.822   2.133  2.1963  0.8832  0.5007
  239SOL     OW  715   0.770   2.122   1.900  0.1191  0.4883  0.2391
  239SOL    HW1  716   0.820   2.066   1.966 -0.3169  1.0706 -1.5092
  239SOL    HW2  717   0.833   2.193   1.867  2.7003 -0.3550 -1.6775
  240SOL     OW  718   3.076   2.909   0.587  0.0261  0.5761  0.2500
  240SOL    HW1  719   3.089   2.809   0.601  1.2886 -2.0760 -0.7501
  240SOL    HW2  720   2.984   2.948   0.605 -1.2208  2.5340  1.5003
  241SOL     OW  721   1.290   1.660   0.017 -0.2111  0.3057  0.7254
  241SOL    HW1  722   1.297   1.600   0.094 -1.6152  1.6213 -1.7434
  241SOL    HW2  723   1.377   1.707   3.089 -2.1099 -2.0153 -0.9344
  242SOL     OW  724   2.297   0.917   3.031  0.1341  0.1066  0.6505
  242SOL    HW1  725   2.274   1.009   3.045 -0.2192 -1.7644 -0.9620
  242SOL    HW2  726   2.314   0.876   0.023 -1.3059 -0.7725 -3.5262
  243SOL     OW  727   0.842   0.450   2.036  0.9231 -0.0089  0.4333
  243SOL    HW1  728   0.933   0.436   2.071 -1.0728 -0.5779  0.2798
  243SOL    HW2  729   0.847   0.522   1.968  0.8616  1.3636  1.2361
  244SOL     OW  730   1.468   2.413   2.906 -0.1477 -0.5978  0.3262
  244SOL    HW1  731   1.525   2.435   2.824 -0.6821 -3.8683 -0.7688
  244SOL    HW2  732   1.401   2.489   2.923 -0.3973 -0.6497 -0.9644
  245SOL     OW  733   1.867   2.669   3.039 -0.4346  0.0336 -0.6866
  245SOL    HW1  734   1.830   2.574   3.038 -2.5069  1.9166 -1.4366
  245SOL    HW2  735   1.834   2.715   0.028  2.1890  0.4254  0.5704
  246SOL     OW  736   1.348   1.041   2.517  0.0588  0.1842  0.6129
  246SOL    HW1  737   1.439   1.057   2.475 -0.4319  2.0631  1.7236
  246SOL    HW2  738   1.280   1.111   2.486 -1.0662 -1.1278 -1.6052
  247SOL     OW  739   2.757   0.994   2.595  0.5111  0.1415 -0.2545
  247SOL    HW1  740   2.728   1.026   2.688  0.3574 -1.9580 -1.8948
  247SOL    HW2  741   2.857   1.015   2.582  1.1190  1.5825  3.4268
  248SOL     OW  742   0.003   1.224   1.920 -0.0533 -0.4734  0.5680
  248SOL    HW1  743   3.031   1.152   1.896  0.0862 -1.7269 -1.0548
  248SOL    HW2  744   0.042   1.213   2.012  2.1955  0.8427  0.1771
  249SOL     OW  745   2.911   0.344   0.209 -0.1524 -0.5316 -0.0415
  249SOL    HW1  746   2.925   0.437   0.170 -2.2011 -1.4150 -0.4517
  249SOL    HW2  747   2.897   0.287   0.132  0.4516  0.3308 -0.1996
  250SOL     OW  748   2.737   0.055   0.327  0.1818 -0.0724 -0.0593
  250SOL    HW1  749   2.837   0.057   0.358  1.8920  0.8231 -0.2257
  250SOL    HW2  750   2.677   0.015   0.396  1.1171  0.2769 -0.1248
  251SOL     OW  751   0.858   1.467   1.753 -0.2895  0.3806  0.1597
  251SOL    HW1  752   0.918   1.539   1.785 -2.6656 -0.5117  2.0108
  251SOL    HW2  753   0.791   1.506   1.682 -2.0048  3.3532 -2.1435
  252SOL     OW  754   1.925   1.793   1.403 -0.0423 -0.6761 -0.4334
  252SOL    HW1  755   2.022   1.789   1.439  1.4356  0.2565 -1.3789
  252SOL    HW2  756   1.909   1.765   1.304  0.2439 -0.5773 -0.3206
  253SOL     OW  757   1.646   2.228   1.788 -0.4395  0.1619 -0.1711
  253SOL    HW1  758   1.596   2.140   1.806 -1.4565  0.6236  2.2495
  253SOL    HW2  759   1.671   2.266   1.878  0.7259 -0.5884 -2.0708
  254SOL     OW  760   0.648   2.235   2.354  0.1808  0.1754  0.0807
  254SOL    HW1  761   0.708   2.151   2.330  0.2283 -2.9883  1.0652
  254SOL    HW2  762   0.600   2.268   2.272 -1.5544  0.9746  0.2911
  255SOL     OW  763   1.415   0.163   0.776 -0.0479 -0.1250 -0.4126
  255SOL    HW1  764   1.509   0.188   0.803  2.2088  0.7292  0.1362
  255SOL    HW2  765   1.357   0.237   0.815  1.3509 -0.7417 -1.0615
  256SOL     OW  766   1.852   2.284   1.273  0.3395  0.0339  0.0979
  256SOL    HW1  767   1.950   2.291   1.304  0.0145 -0.6577  1.1591
  256SOL    HW2  768   1.852   2.263   1.177  1.4798  0.9206  3.7342
  257SOL     OW  769   0.339   2.385   2.591  0.7406 -0.0154 -0.3244
  257SOL    HW1  770   0.440   2.396   2.584  0.7515  1.4966  2.9875
  257SOL    HW2  771   0.322   2.337   2.682  0.5320 -2.1434  1.0202
  258SOL     OW  772   0.529   0.958   2.098 -0.3720 -0.1184  0.0821
  258SOL    HW1  773   0.509   0.947   2.199 -0.2063  0.3305  1.8786
  258SOL    HW2  774   0.603   1.027   2.086  2.8744 -0.2325 -2.0978
  259SOL     OW  775   1.406   0.766   2.451 -0.3206 -0.2319 -0.4323
  259SOL    HW1  776   1.394   0.838   2.519 -1.3011 -1.7518  2.0455
  259SOL    HW2  777   1.461   0.799   2.372 -2.3558  1.6395  0.6586
  260SOL     OW  778   2.224   0.626   0.718 -0.2203  0.0502  0.0676
  260SOL    HW1  779   2.213   0.690   0.793  2.6467 -1.8219 -5.1778
  260SOL    HW2  780   2.148   0.635   0.651 -0.2064 -1.9829  0.2923
  261SOL     OW  781   0.955   0.456   0.433 -0.2502  0.0236 -0.3743
  261SOL    HW1  782   0.941   0.394   0.512 -0.9152  0.5445 -1.1301
  261SOL    HW2  783   0.963   0.554   0.464 -2.4343  1.6775  1.0447
  262SOL     OW  784   1.769   2.621   2.577  0.4285 -0.1609  0.4658
  262SOL    HW1  785   1.822   2.534   2.579  2.4586  0.2195  2.0112
  262SOL    HW2  786   1.752   2.655   2.483  1.2035  1.6530 -4.9934
  263SOL     OW  787   0.652   1.566   3.032 -0.1170  0.3705  0.3422
  263SOL    HW1  788   0.644   1.501   2.955  1.8725 -0.7610  0.7388
  263SOL    HW2  789   0.567   1.564   3.091 -1.5101 -1.0213 -0.5510
  264SOL     OW  790   0.216   1.673   1.745  0.4177 -0.1826 -0.1129
  264SOL    HW1  791   0.305   1.690   1.786 -0.9537  0.1445  3.6763
  264SOL    HW2  792   0.214   1.683   1.641 -0.9956  1.4945  2.2416
  265SOL     OW  793   0.786   1.003   0.273  0.0516 -0.0991 -0.0312
  265SOL    HW1  794   0.818   1.075   0.208 -0.1602 -2.0275 -2.1998
  265SOL    HW2  795   0.847   0.919   0.274  0.8322 -0.7072 -1.1124
  266SOL     OW  796   1.694   1.743   0.223  0.8183 -0.5366  0.2400
  266SOL    HW1  797   1.721   1.658   0.178  1.1972  1.6935 -1.1389
  266SOL    HW2  798   1.615   1.716   0.288 -0.1459 -1.8301  0.0991
  267SOL     OW  799   3.066   0.077   3.064 -0.1571  0.2949  0.3691
  267SOL    HW1  800   2.974   0.125   3.059  0.9781  0.0904  0.7008
  267SOL    HW2  801   0.031   0.151   0.014  0.8054 -0.7792  0.4454
  268SOL     OW  802   0.902   0.365   2.786 -0.6301 -0.3556 -0.2260
  268SOL    HW1  803   0.819   0.425   2.786 -0.3008  0.6702 -0.6214
  268SOL    HW2  804   0.933   0.364   2.884 -0.1956  1.3655  0.1596
  269SOL     OW  805   1.640   0.361   2.473  0.5606  0.4880 -0.2961
  269SOL    HW1  806   1.572   0.416   2.526 -0.2295  1.7836 -1.0961
  269SOL    HW2  807   1.649   0.265   2.504 -2.5980  0.2182  1.1858
  270SOL     OW  808   0.854   1.040   2.492  0.1669 -0.1474  0.5101
  270SOL    HW1  809   0.925   0.978   2.529 -0.3733 -1.4162 -3.0598
  270SOL    HW2  810   0.780   1.047   2.562  0.7723  3.1285 -0.6431
  271SOL     OW  811   0.220   1.010   0.148 -0.4972 -0.6780  0.2689
  271SOL    HW1  812   0.219   1.030   0.250  1.3335 -0.7755  2.9005
  271SOL    HW2  813   0.143   0.956   0.119  2.2782  1.2826 -0.4404
  272SOL     OW  814   2.218   1.331   2.876 -0.1685 -0.2155 -0.0073
  272SOL    HW1  815   2.195   1.431   2.887  0.1577  0.3058 -2.2345
  272SOL    HW2  816   2.139   1.271   2.867  3.1866  4.3557  1.6934
  273SOL     OW  817   2.986   0.260   2.381 -0.0731  0.2977  0.2833
  273SOL    HW1  818   2.982   0.362   2.369  1.4179 -2.0298 -0.8909
  273SOL    HW2  819   2.978   0.228   2.476  1.4573 -1.1870 -1.3071
  274SOL     OW  820   2.924   2.992   1.737  0.4584 -0.3290  0.0492
  274SOL    HW1  821   2.908   3.028   1.829 -1.2593 -0.9447 -2.5811
  274SOL    HW2  822   3.018   3.018   1.694  1.8924  0.1289 -1.6980
  275SOL     OW  823   2.074   1.103   0.531 -0.3359  0.1627 -0.0584
  275SOL    HW1  824   2.140   1.162   0.470  0.2179  2.6703 -0.4211
  275SOL    HW2  825   1.986   1.150   0.540  0.2788 -1.6668  0.3652
  276SOL     OW  826   0.286   1.392   2.748 -1.0402 -0.1148  0.2571
  276SOL    HW1  827   0.208   1.338   2.723  1.5769 -2.5162  3.3092
  276SOL    HW2  828   0.362   1.338   2.789  2.0345 -0.1156  0.5544
  277SOL     OW  829   1.748   2.489   1.953 -0.7026 -0.0272  0.5787
  277SOL    HW1  830   1.769   2.507   2.052  1.8872 -1.5769 -1.5049
  277SOL    HW2  831   1.768   2.576   1.903  3.3649  2.3901 -1.3994
  278SOL     OW  832   2.021   0.186   1.507 -0.4195 -0.1850 -0.1507
  278SOL    HW1  833   2.107   0.233   1.533  2.8869  0.4208 -0.1008
  278SOL    HW2  834   2.021   0.173   1.404  0.3099 -2.1266 -0.4853
  279SOL     OW  835   1.350   1.175   2.941 -0.2834 -0.5094 -0.3379
  279SOL    HW1  836   1.379   1.088   2.890  1.4935 -2.1310  0.2461
  279SOL    HW2  837   1.384   1.171   3.036  0.5760 -3.9760 -0.3375
  280SOL     OW  838   0.489   1.874   0.485 -0.3408 -0.8991 -0.1053
  280SOL    HW1  839   0.435   1.943   0.539  0.0079 -1.5718  0.0553
  280SOL    HW2  840   0.585   1.861   0.517 -1.2388 -2.2826 -0.4173
  281SOL     OW  841   0.225   0.321   2.246 -0.4372  0.2511 -0.5213
  281SOL    HW1  842   0.327   0.340   2.238  2.6104  1.5571  0.3382
  281SOL    HW2  843   0.175   0.382   2.180 -0.0657  1.2227 -1.2795
  282SOL     OW  844   0.189   1.618   1.203 -0.5267  0.4322 -0.0097
  282SOL    HW1  845   0.196   1.699   1.139 -0.5542  0.8718  1.3346
  282SOL    HW2  846   0.253   1.538   1.186  0.5575 -1.0863  3.0726
  283SOL     OW  847   1.719   2.191   2.593  0.0257  0.3036 -0.7513
  283SOL    HW1  848   1.768   2.192   2.685  2.1162 -2.0512 -0.0044
  283SOL    HW2  849   1.666   2.102   2.587  0.1392 -3.3154 -0.9661
  284SOL     OW  850   1.916   0.610   0.159 -0.1621 -0.4910 -0.9078
  284SOL    HW1  851   1.880   0.676   0.225  1.8897 -0.4858  2.2197
  284SOL    HW2  852   1.976   0.650   0.090 -0.6660 -1.3764  2.5068
  285SOL     OW  853   2.987   2.807   2.700 -0.5315  0.0558 -0.5455
  285SOL    HW1  854   2.924   2.874   2.649 -4.2462  1.0238 -2.6904
  285SOL    HW2  855   2.932   2.758   2.770 -0.1696  1.2920  1.1735
  286SOL     OW  856   1.877   2.609   1.090  0.2379 -0.6966 -0.2168
  286SOL    HW1  857   1.866   2.618   1.191 -0.1000  0.5301 -0.9259
  286SOL    HW2  858   1.822   2.680   1.046  1.6369  0.4994  0.9528
  287SOL     OW  859   0.859   0.880   1.148 -0.0221 -0.0258 -0.0030
  287SOL    HW1  860   0.800   0.853   1.226  2.9264 -2.2116 -2.0548
  287SOL    HW2  861   0.899   0.974   1.166  0.0068  2.2821  1.3513
  288SOL     OW  862   1.558   2.470   0.139 -0.3456  0.2730 -0.6697
  288SOL    HW1  863   1.523   2.506   0.229 -0.5774 -0.3542  2.4410
  288SOL    HW2  864   1.492   2.468   0.056  0.2348 -0.7284 -1.4881
  289SOL     OW  865   0.053   2.143   3.042 -0.4950 -0.0535  0.1863
  289SOL    HW1  866   0.093   2.185   0.035 -0.1003  2.8080 -0.3932
  289SOL    HW2  867   3.054   2.114   3.057  1.2807  1.0373 -0.9051
  290SOL     OW  868   1.012   2.510   0.680  0.2964  0.0195  0.2805
  290SOL    HW1  869   0.999   2.431   0.741 -0.7467 -3.0281  2.0723
  290SOL    HW2  870   0.974   2.498   0.584 -0.4327 -0.1733  0.1341
  291SOL     OW  871   2.036   1.664   0.095 -0.2169 -0.6561 -0.2538
  291SOL    HW1  872   2.093   1.640   0.014 -0.6763 -0.4404 -0.1210
  291SOL    HW2  873   1.998   1.758   0.079  0.6993  2.1285  3.0447
  292SOL     OW  874   1.064   1.421   1.577  0.1934  0.2120  0.7147
  292SOL    HW1  875   1.137   1.353   1.596  0.2138  1.7908  0.7922
  292SOL    HW2  876   1.009   1.431   1.665 -1.3700 -1.9627 -0.4487
  293SOL     OW  877   2.135   2.706   1.007 -0.0739 -0.3898 -0.3086
  293SOL    HW1  878   2.171   2.658   0.926 -0.7495  0.3502  3.8180
  293SOL    HW2  879   2.065   2.647   1.052  2.1989 -4.3471 -0.3727
  294SOL     OW  880   3.041   0.993   2.578  0.2733  0.0536 -0.2346
  294SOL    HW1  881   0.020   1.033   2.638 -0.2279 -1.8844 -0.3841
  294SOL    HW2  882   3.073   0.993   2.483  0.2331 -3.2824 -1.3701
  295SOL     OW  883   1.041   1.792   0.042  0.9194 -0.3125  0.0131
  295SOL    HW1  884   1.074   1.888   0.042 -0.1338 -0.6562 -1.0959
  295SOL    HW2  885   1.120   1.728   0.039 -0.4943  1.2325 -0.6135
  296SOL     OW  886   1.980   1.890   2.485 -1.0007  0.4677  0.2200
  296SOL    HW1  887   2.039   1.811   2.476 -2.2126  2.8125  2.4171
  296SOL    HW2  888   1.881   1.871   2.462 -0.9812 -2.2778 -0.0810
  297SOL     OW  889   2.570   0.464   2.856 -0.3917 -0.1395 -1.0587
  297SOL    HW1  890   2.636   0.407   2.813 -0.4525  2.2274 -0.7689
  297SOL    HW2  891   2.541   0.538   2.792 -0.2265  1.1077 -1.8462
  298SOL     OW  892   0.822   2.055   2.971  0.0368 -0.0553 -0.1226
  298SOL    HW1  893   0.794   1.973   3.022 -1.5679 -1.1064 -0.8683
  298SOL    HW2  894   0.768   2.071   2.889  3.3044 -2.2123  0.6968
  299SOL     OW  895   1.080   2.740   2.569 -0.7500  0.3841 -0.0191
  299SOL    HW1  896   1.010   2.813   2.548 -0.8794  1.4295 -0.7378
  299SOL    HW2  897   1.070   2.661   2.506  2.0716 -0.8519  1.6839
  300SOL     OW  898   2.719   0.419   0.409  0.1837 -0.5914  0.3233
  300SOL    HW1  899   2.626   0.380   0.381 -1.5400  0.5460 -0.7086
  300SOL    HW2  900   2.785   0.399   0.337 -1.7232 -0.0386 -0.2947
  301SOL     OW  901   1.328   0.988   1.321 -0.3110 -0.0140 -0.1828
  301SOL    HW1  902   1.261   0.924   1.363 -0.8717 -2.8827 -2.7127
  301SOL    HW2  903   1.286   1.076   1.283 -1.5284  1.8232 -1.4064
  302SOL     OW  904   3.044   2.376   2.598  0.0892 -0.4781  0.2053
  302SOL    HW1  905   0.011   2.362   2.684 -0.1265  1.0069  2.8684
  302SOL    HW2  906   0.006   2.437   2.541  1.2895  1.1500  0.5435
  303SOL     OW  907   3.075   0.068   2.180 -0.2358  0.2765  0.2346
  303SOL    HW1  908   3.040   0.125   2.255 -1.2060  2.0796 -2.0299
  303SOL    HW2  909   0.034   3.079   2.222 -2.1667 -0.0801  3.2572
  304SOL     OW  910   2.881   0.374   1.629 -0.1938  0.4013  0.3173
  304SOL    HW1  911   2.860   0.278   1.659 -0.0298 -2.5093 -2.8541
  304SOL    HW2  912   2.868   0.383   1.530  1.8722  0.1939  1.6197
  305SOL     OW  913   0.409   3.033   2.166 -0.6885  0.0649 -0.8222
  305SOL    HW1  914   0.485   2.972   2.139 -2.1514 -0.0204 -0.5710
  305SOL    HW2  915   0.420   0.036   2.138  0.3729 -2.2807 -0.9243
  306SOL     OW  916   2.460   1.169   1.482  0.0488 -0.0316 -0.2346
  306SOL    HW1  917   2.466   1.136   1.577 -0.8282  0.8567  1.8958
  306SOL    HW2  918   2.547   1.168   1.431 -3.0392  0.6637  0.3390
  307SOL     OW  919   1.719   0.663   1.262 -0.0499  0.0916 -0.1575
  307SOL    HW1  920   1.716   0.640   1.362  2.3119  0.5998  0.1963
  307SOL    HW2  921   1.624   0.686   1.227  2.1454 -0.8026  0.5183
  308SOL     OW  922   0.233   2.159   1.214  1.1265  0.7006  0.3632
  308SOL    HW1  923   0.187   2.221   1.282 -1.4314  2.2065  0.8419
  308SOL    HW2  924   0.151   2.111   1.168 -2.3293 -2.7983 -0.5681
  309SOL     OW  925   2.443   1.790   1.372  0.1549 -0.0096  0.1543
  309SOL    HW1  926   2.456   1.878   1.323 -0.6293  0.6911  3.2170
  309SOL    HW2  927   2.517   1.771   1.434 -0.6422 -1.5380 -0.1674
  310SOL     OW  928   2.853   1.729   0.047  0.6492 -0.1036 -0.6363
  310SOL    HW1  929   2.856   1.746   3.039 -2.0902 -1.2818  0.6952
  310SOL    HW2  930   2.904   1.641   0.065 -0.3397 -0.2571  0.9326
  311SOL     OW  931   2.271   2.046   2.921 -0.5826 -0.1980  0.0037
  311SOL    HW1  932   2.201   2.115   2.928  0.1951 -0.0904  1.2674
  311SOL    HW2  933   2.325   2.049   2.833  1.5918 -0.1415 -2.1962
  312SOL     OW  934   2.501   1.590   0.855  0.1801 -0.1505  0.1917
  312SOL    HW1  935   2.531   1.659   0.784 -3.0220 -0.5656  1.0022
  312SOL    HW2  936   2.495   1.495   0.821 -1.6330 -0.6259 -0.2167
  313SOL     OW  937   2.716   2.527   1.319  0.5766 -0.1922  0.1582
  313SOL    HW1  938   2.654   2.562   1.393 -1.1513 -0.7340  0.9617
  313SOL    HW2  939   2.714   2.585   1.234  1.2754  1.0989 -2.0707
  314SOL     OW  940   0.806   2.030   0.952 -0.1215 -0.3610  0.5380
  314SOL    HW1  941   0.826   2.126   0.935 -1.6632 -1.6349 -1.7821
  314SOL    HW2  942   0.880   1.968   0.917  0.3690  0.0434  1.7649
  315SOL     OW  943   0.592   2.597   2.371  0.1468  0.1985 -0.6250
  315SOL    HW1  944   0.499   2.639   2.359 -2.2954 -2.3798 -0.6305
  315SOL    HW2  945   0.593   2.516   2.430  0.8394  2.3975 -0.0815
  316SOL     OW  946   0.284   1.132   0.623 -0.0144  0.0963  0.0747
  316SOL    HW1  947   0.325   1.095   0.707 -0.9392  0.0162  0.6451
  316SOL    HW2  948   0.319   1.226   0.607 -1.4603  1.1896  0.1913
  317SOL     OW  949   1.933   0.208   0.509  0.3861 -0.2408 -0.1907
  317SOL    HW1  950   1.882   0.294   0.501 -0.6854 -0.3860  0.2027
  317SOL    HW2  951   2.006   0.220   0.578 -1.4351 -1.0915 -1.1237
  318SOL     OW  952   2.871   2.465   0.648  0.3308 -0.0315  0.6388
  318SOL    HW1  953   2.799   2.476   0.576  1.3590 -0.9312 -0.2717
  318SOL    HW2  954   2.907   2.373   0.657 -2.1705 -0.0010 -0.3343
  319SOL     OW  955   0.940   1.505   0.047  0.3537 -0.0246  0.2512
  319SOL    HW1  956   0.973   1.536   3.050  0.3395  2.8726 -0.4611
  319SOL    HW2  957   0.841   1.530   0.063  0.3879  3.3004 -0.2566
  320SOL     OW  958   0.765   2.760   2.279  0.1066  0.1303 -0.1645
  320SOL    HW1  959   0.803   2.797   2.364 -0.4731 -0.7789 -0.4312
  320SOL    HW2  960   0.695   2.689   2.300 -1.4679  0.2733  1.6830
  321SOL     OW  961   1.316   2.919   2.903  0.8188  0.2943  0.4936
  321SOL    HW1  962   1.312   2.819   2.882  2.1391  1.5332  1.5641
  321SOL    HW2  963   1.220   2.954   2.914 -0.8206 -0.1051 -0.5162
  322SOL     OW  964   2.349   1.392   2.091 -0.2646  0.0599 -0.1513
  322SOL    HW1  965   2.336   1.299   2.130  0.1785  1.9277 -2.4636
  322SOL    HW2  966   2.404   1.455   2.154 -1.3156  1.9104 -0.3807
  323SOL     OW  967   2.521   0.669   0.427  0.7281  0.2981  0.0644
  323SOL    HW1  968   2.490   0.613   0.353  0.3018  1.9281  1.8017
  323SOL    HW2  969   2.618   0.686   0.422 -3.1491  0.0899  0.0354
  324SOL     OW  970   0.047   0.309   2.723  0.0029 -0.6516  0.4101
  324SOL    HW1  971   0.145   0.283   2.737 -1.5393  2.0474 -0.8480
  324SOL    HW2  972   3.091   0.236   2.666 -0.4992 -1.7372 -1.6923
  325SOL     OW  973   1.532   0.225   2.028  0.4199  0.1626  0.1487
  325SOL    HW1  974   1.592   0.251   1.954 -0.0893 -0.3860  1.5607
  325SOL    HW2  975   1.591   0.175   2.093  2.4865 -2.3121 -0.4365
  326SOL     OW  976   2.460   2.947   1.322  0.0163 -0.0591 -0.6875
  326SOL    HW1  977   2.504   3.027   1.273 -0.0695 -1.0430 -1.2544
  326SOL    HW2  978   2.395   2.900   1.255 -1.5470  3.9637 -2.8245
  327SOL     OW  979   1.605   0.644   2.859 -0.4465 -0.3564 -0.1089
  327SOL    HW1  980   1.522   0.586   2.862 -0.6544 -0.8858  0.8046
  327SOL    HW2  981   1.684   0.585   2.835  1.9527 -0.9877  0.5404
  328SOL     OW  982   3.045   1.328   2.426  0.2419 -0.1808 -0.0678
  328SOL    HW1  983   3.003   1.239   2.390 -0.8949 -1.6502  0.1313
  328SOL    HW2  984   2.971   1.395   2.429 -0.8627  0.6727  0.8919
  329SOL     OW  985   1.855   2.559   1.604 -0.2757 -0.0612  0.1910
  329SOL    HW1  986   1.762   2.517   1.596 -2.1898 -2.1376 -1.7525
  329SOL    HW2  987   1.853   2.638   1.670  0.5576  0.7025 -1.1540
  330SOL     OW  988   2.491   1.758   1.769 -0.5151  0.1701 -0.0555
  330SOL    HW1  989   2.406   1.809   1.742 -2.2273  1.5512 -0.7973
  330SOL    HW2  990   2.525   1.781   1.866  1.2597  2.5439  0.7420
  331SOL     OW  991   0.250   1.821   1.018 -0.0005 -0.3537  0.3256
  331SOL    HW1  992   0.281   1.756   0.944  2.2122  0.9756 -0.2978
  331SOL    HW2  993   0.177   1.885   0.991 -0.0860 -0.7260 -1.5214
  332SOL     OW  994   0.792   0.416   1.055 -0.4293  0.0601  0.5001
  332SOL    HW1  995   0.701   0.400   1.097 -0.1862  1.1731  0.1342
  332SOL    HW2  996   0.852   0.453   1.127  2.3108  0.7413  2.5097
  333SOL     OW  997   2.073   2.692   2.406 -0.2870  0.0230  0.4125
  333SOL    HW1  998   2.026   2.616   2.452 -0.0115  0.6716 -0.8677
  333SOL    HW2  999   2.163   2.702   2.447 -0.5856 -2.3320 -2.9494
  334SOL     OW 1000   1.216   1.238   1.320  0.5546  0.0380 -0.0790
  334SOL    HW1 1001   1.270   1.320   1.300 -1.1768 -0.3508 -0.2786
  334SOL    HW2 1002   1.203   1.233   1.421 -2.7329 -0.5052 -0.3733
  335SOL     OW 1003   0.520   2.898   2.651  0.1011 -0.2280 -0.0960
  335SOL    HW1 1004   0.461   2.934   2.726  0.2625  0.0873  4.2738
  335SOL    HW2 1005   0.472   2.898   2.559 -0.1161  2.2951  0.3053
  336SOL     OW 1006   2.413   2.360   1.896 -0.6281 -0.1188  0.0049
  336SOL    HW1 1007   2.503   2.322   1.874 -0.5159 -1.0236  2.3646
  336SOL    HW2 1008   2.338   2.304   1.861  1.4669  0.1196 -2.8352
  337SOL     OW 1009   2.398   1.447   0.261 -0.0935  0.2252 -0.3082
  337SOL    HW1 1010   2.394   1.513   0.183  1.6996  1.0541  1.7222
  337SOL    HW2 1011   2.471   1.470   0.330  0.5480 -1.6501 -1.8694
  338SOL     OW 1012   1.130   1.987   1.340  0.0855 -0.7626 -0.6064
  338SOL    HW1 1013   1.226   1.961   1.364  2.8035 -2.6629  2.1014
  338SOL    HW2 1014   1.110   2.080   1.369 -0.6868 -1.2207  2.2084
  339SOL     OW 1015   0.147   0.848   1.930 -0.0671  0.1477 -0.4492
  339SOL    HW1 1016   0.213   0.779   1.967  0.6523  0.6787 -0.5451
  339SOL    HW2 1017   0.203   0.930   1.901 -0.8159  0.2109 -2.4697
  340SOL     OW 1018   1.712   3.008   1.670 -0.2021  0.1295  0.4236
  340SOL    HW1 1019   1.739   2.965   1.578  1.6109 -1.6082 -1.1388
  340SOL    HW2 1020   1.650   3.086   1.657 -1.9257 -0.1844  2.9624
  341SOL     OW 1021   2.126   1.331   0.991  0.4364  0.3574  0.2610
  341SOL    HW1 1022   2.207   1.272   1.018 -1.3807  1.6626  1.8014
  341SOL    HW2 1023   2.163   1.420   0.974 -1.2961 -3.9898 -0.2301
  342SOL     OW 1024   0.366   1.499   0.901 -0.3042  0.0136  0.3158
  342SOL    HW1 1025   0.266   1.499   0.884 -1.5460  2.6039  0.2563
  342SOL    HW2 1026   0.414   1.575   0.851  1.6859 -1.1419 -0.4076
  343SOL     OW 1027   2.313   0.552   1.669  0.7844 -0.3184 -0.0318
  343SOL    HW1 1028   2.255   0.516   1.746  0.1155  0.9303  1.0108
  343SOL    HW2 1029   2.275   0.648   1.650 -1.0776  1.7730 -2.8176
  344SOL     OW 1030   2.060   2.974   0.853 -0.3750 -0.0394 -0.5223
  344SOL    HW1 1031   2.082   2.900   0.919  0.1469  0.6242  3.2107
  344SOL    HW2 1032   2.106   2.958   0.763  0.1778  1.4472  1.9720
  345SOL     OW 1033   2.856   2.979   2.569  0.2335  0.1985  0.8233
  345SOL    HW1 1034   2.791   3.013   2.640 -0.3236 -0.1647 -0.6451
  345SOL    HW2 1035   2.937   3.047   2.547  2.3986  0.5621 -2.6046
  346SOL     OW 1036   3.043   0.855   0.441  0.2846  0.1944 -0.6038
  346SOL    HW1 1037   3.005   0.891   0.355  0.7353  3.5901  0.9180
  346SOL    HW2 1038   2.971   0.871   0.510 -1.7245  1.5168  0.1221
  347SOL     OW 1039   1.743   2.900   1.431 -0.2732 -0.2989 -0.2361
  347SOL    HW1 1040   1.785   2.811   1.414 -1.3610  1.1825 -2.5959
  347SOL    HW2 1041   1.661   2.912   1.374  1.0018  0.5767  0.2257
  348SOL     OW 1042   1.151   1.063   1.792  0.0881  0.3604 -0.1515
  348SOL    HW1 1043   1.193   1.088   1.884  1.4709  2.6778  0.2217
  348SOL    HW2 1044   1.051   1.039   1.795 -1.4064  1.2982  1.5172
  349SOL     OW 1045   2.088   1.439   2.353 -0.1815  0.2351 -0.5079
  349SOL    HW1 1046   2.099   1.338   2.344 -0.4470 -0.2543  1.2673
  349SOL    HW2 1047   2.140   1.491   2.284  0.4258 -1.3219  0.8718
  350SOL     OW 1048   0.270   1.911   0.723 -0.4473  0.3957 -0.3371
  350SOL    HW1 1049   0.270   2.001   0.768 -1.7383  0.6498  0.5016
  350SOL    HW2 1050   0.224   1.909   0.633 -0.4110 -1.3153 -0.5907
  351SOL     OW 1051   0.908   0.657   2.411 -0.0600  0.2578 -0.1025
  351SOL    HW1 1052   0.932   0.585   2.475 -0.2086 -0.4684 -0.2205
  351SOL    HW2 1053   0.988   0.717   2.400  1.1027  1.2538 -2.4613
  352SOL     OW 1054   0.791   2.958   1.685 -0.2881  0.3771 -0.2548
  352SOL    HW1 1055   0.857   2.999   1.620 -0.9326  1.3690  0.9704
  352SOL    HW2 1056   0.790   2.857   1.675 -0.6031 -0.3281  0.1951
  353SOL     OW 1057   0.875   1.560   2.586  0.0291 -0.1745 -0.1596
  353SOL    HW1 1058   0.828   1.642   2.622 -1.7584  2.9097 -1.5282
  353SOL    HW2 1059   0.958   1.574   2.531  0.0362 -1.1149  1.0747
  354SOL     OW 1060   1.857   1.257   0.566 -0.0709  0.5856  0.8979
  354SOL    HW1 1061   1.813   1.247   0.472 -2.3692  1.0924 -1.6995
  354SOL    HW2 1062   1.786   1.267   0.640 -0.0058 -0.5493 -0.8097
  355SOL     OW 1063   2.061   0.138   0.809  0.3909 -0.5083  0.3166
  355SOL    HW1 1064   2.133   0.210   0.827  0.9394  0.1340 -0.0882
  355SOL    HW2 1065   2.082   0.045   0.846  0.0076  2.6978 -0.4001
  356SOL     OW 1066   0.238   1.174   3.024 -0.4538  0.5688  0.0498
  356SOL    HW1 1067   0.236   1.114   0.014  2.3539  0.7512 -0.6499
  356SOL    HW2 1068   0.328   1.199   2.981 -1.3426  3.9413  0.8869
  357SOL     OW 1069   2.860   3.049   1.998 -0.2333 -0.0103 -0.0637
  357SOL    HW1 1070   2.789   0.023   2.011  0.8850 -2.3169 -1.7607
  357SOL    HW2 1071   2.932   3.067   2.063 -0.4404  0.4975  0.5739
  358SOL     OW 1072   0.354   1.444   2.498  0.0554 -0.0178 -0.5038
  358SOL    HW1 1073   0.372   1.541   2.475 -0.5627 -0.7996 -0.7143
  358SOL    HW2 1074   0.333   1.436   2.602 -3.6391  1.1713  2.3472
  359SOL     OW 1075   2.369   2.420   2.418  0.6303 -0.1343 -0.7035
  359SOL    HW1 1076   2.348   2.511   2.457 -1.7865 -3.1686 -2.7149
  359SOL    HW2 1077   2.376   2.433   2.318  0.2476 -0.1928 -0.1470
  360SOL     OW 1078   1.449   1.215   0.771 -0.0877  0.0430 -0.1665
  360SOL    HW1 1079   1.354   1.234   0.740  0.3255 -0.2395  0.7564
  360SOL    HW2 1080   1.445   1.221   0.873 -0.8977  1.3749  1.4539
  361SOL     OW 1081   2.244   2.229   1.062  0.0806 -0.3285 -0.0126
  361SOL    HW1 1082   2.256   2.239   1.167 -1.6662  1.8457  0.3929
  361SOL    HW2 1083   2.163   2.284   1.035  0.5001 -0.6160  1.4307
  362SOL     OW 1084   1.956   1.169   0.858  0.1410 -0.4596 -0.0909
  362SOL    HW1 1085   2.018   1.234   0.911  4.4314  0.8303 -3.5299
  362SOL    HW2 1086   1.910   1.216   0.783 -0.8330 -0.6189 -1.0306
  363SOL     OW 1087   2.566   1.809   0.447 -0.1241 -0.3472 -0.0548
  363SOL    HW1 1088   2.602   1.895   0.398  2.7640  2.2312 -2.5053
  363SOL    HW2 1089   2.469   1.832   0.473 -1.3559  1.0729 -1.4026
  364SOL     OW 1090   2.283   0.233   1.575  0.0681  0.4023  0.0578
  364SOL    HW1 1091   2.331   0.149   1.612 -3.0440  0.4931 -2.6439
  364SOL    HW2 1092   2.343   0.318   1.576  2.4487  3.5485  0.4655
  365SOL     OW 1093   0.257   2.743   0.967  0.2015  0.7179  0.2866
  365SOL    HW1 1094   0.260   2.672   0.890 -1.1136  2.4716  0.9525
  365SOL    HW2 1095   0.174   2.724   1.023 -0.3925  0.1791 -0.2344
  366SOL     OW 1096   0.146   1.047   0.404  0.1436  0.0291 -0.0984
  366SOL    HW1 1097   0.090   0.962   0.426  0.6127 -0.9779  0.3436
  366SOL    HW2 1098   0.224   1.059   0.474  3.2310 -1.9346  1.1684
  367SOL     OW 1099   2.376   2.446   2.909  0.2232  0.2455  0.3440
  367SOL    HW1 1100   2.389   2.374   2.981  0.7551 -3.3981  1.1727
  367SOL    HW2 1101   2.451   2.444   2.842 -2.5005 -0.5816  0.5259
  368SOL     OW 1102   2.743   1.830   1.111 -0.1587 -0.1224  0.0309
  368SOL    HW1 1103   2.715   1.736   1.090  1.4144 -0.7683  1.6832
  368SOL    HW2 1104   2.798   1.836   1.195  0.5749  0.6280  3.8971
  369SOL     OW 1105   0.845   0.941   0.628  0.1918 -0.4541  0.3022
  369SOL    HW1 1106   0.809   0.920   0.721 -0.4955  1.1120  0.3063
  369SOL    HW2 1107   0.766   0.966   0.569 -0.7229 -4.3847 -2.0744
  370SOL     OW 1108   0.614   0.165   0.686  0.1878  0.5221 -0.3316
  370SOL    HW1 1109   0.520   0.146   0.718  0.9650  1.8803  2.2058
  370SOL    HW2 1110   0.682   0.183   0.767  1.9449  0.3018  2.6446
  371SOL     OW 1111   2.245   1.185   0.012  0.7285  0.4940  0.3691
  371SOL    HW1 1112   2.150   1.178   0.051 -1.8927  1.4014 -1.5553
  371SOL    HW2 1113   2.251   1.251   3.024  0.0197  2.5133 -2.6953
  372SOL     OW 1114   0.346   0.941   2.824 -0.1006  0.7508 -0.4968
  372SOL    HW1 1115   0.328   0.893   2.913 -0.6274 -1.5362  1.5612
  372SOL    HW2 1116   0.299   0.882   2.755 -0.3745  0.0341  0.6742
  373SOL     OW 1117   0.171   0.519   3.035 -0.9718 -0.2924 -0.6007
  373SOL    HW1 1118   0.165   0.586   0.019 -0.5220 -0.7350 -0.7519
  373SOL    HW2 1119   0.246   0.545   2.970  1.9095 -0.4974 -1.7403
  374SOL     OW 1120   1.157   2.301   0.083 -0.3653  0.7375 -0.0704
  374SOL    HW1 1121   1.148   2.356   3.091  0.4287  0.7322  0.4680
  374SOL    HW2 1122   1.195   2.357   0.163  1.6420 -0.3967  1.9166
  375SOL     OW 1123   1.035   0.142   0.499  0.3245 -0.5768 -0.4041
  375SOL    HW1 1124   0.999   0.195   0.577  0.2402 -0.2613 -0.3785
  375SOL    HW2 1125   1.130   0.168   0.477  0.1086  2.4992  0.2548
  376SOL     OW 1126   0.235   2.349   2.140  0.0514 -0.5806  0.5079
  376SOL    HW1 1127   0.209   2.350   2.042  2.7004 -0.2029  1.6291
  376SOL    HW2 1128   0.162   2.406   2.190 -1.4309  1.3780 -1.6762
  377SOL     OW 1129   2.874   2.065   2.981  0.1379 -0.1107  0.4989
  377SOL    HW1 1130   2.772   2.060   2.997  1.3250  1.5133  0.2104
  377SOL    HW2 1131   2.909   1.996   2.916  0.2749 -2.7905  0.9634
  378SOL     OW 1132   1.630   0.662   0.450  0.3273 -0.0229  0.0677
  378SOL    HW1 1133   1.600   0.637   0.356  0.0189 -1.0126 -1.8103
  378SOL    HW2 1134   1.550   0.654   0.518 -2.2840 -0.7784  1.9492
  379SOL     OW 1135   1.190   1.292   0.716 -0.5758  0.8577  0.0628
  379SOL    HW1 1136   1.163   1.238   0.634  0.7781  1.1658 -1.2127
  379SOL    HW2 1137   1.170   1.391   0.694  0.0185  1.3963  0.7536
  380SOL     OW 1138   2.150   2.211   1.787  0.2330  0.5318 -0.0784
  380SOL    HW1 1139   2.212   2.179   1.715 -1.2309  0.7718  1.9590
  380SOL    HW2 1140   2.054   2.191   1.760 -0.0154  1.2445 -0.1839
  381SOL     OW 1141   2.991   1.094   2.277 -0.0531 -0.0672  0.3191
  381SOL    HW1 1142   3.079   1.088   2.225  1.0891 -0.2526  0.5501
  381SOL    HW2 1143   2.917   1.034   2.239 -0.0804 -1.3262 -1.0984
  382SOL     OW 1144   2.837   2.335   0.218  0.8435 -0.2401  0.2904
  382SOL    HW1 1145   2.911   2.397   0.255  1.3563  0.3443  0.6969
  382SOL    HW2 1146   2.836   2.338   0.113  1.0678 -0.2837 -2.7442
  383SOL     OW 1147   1.546   1.107   2.110  0.0871  0.2124 -0.1222
  383SOL    HW1 1148   1.604   1.191   2.119 -0.2746 -0.9560 -0.5369
  383SOL    HW2 1149   1.541   1.078   2.012 -1.3188 -1.8133 -1.7089
  384SOL     OW 1150   0.900   2.226   2.622  0.5466  0.4472  0.1130
  384SOL    HW1 1151   0.936   2.182   2.538  0.3339  1.9928 -1.0996
  384SOL    HW2 1152   0.969   2.297   2.656  0.0350 -0.2710  0.3096
  385SOL     OW 1153   2.301   2.468   0.155 -0.5909 -0.1742 -1.1367
  385SOL    HW1 1154   2.398   2.510   0.159  1.7548  2.9156  0.4789
  385SOL    HW2 1155   2.231   2.547   0.146 -2.3161  1.5108 -2.1087
  386SOL     OW 1156   1.527   1.332   0.451 -0.3370  1.2416  0.2940
  386SOL    HW1 1157   1.504   1.415   0.501 -0.4095 -1.5142 -2.3943
  386SOL    HW2 1158   1.504   1.253   0.513  0.8545 -0.2793  2.6060
  387SOL     OW 1159   2.719   0.915   1.269 -0.8342  0.0002  0.1233
  387SOL    HW1 1160   2.626   0.876   1.271  2.8352 -1.2776 -1.1695
  387SOL    HW2 1161   2.716   1.008   1.316 -0.9224 -0.3997 -0.5957
  388SOL     OW 1162   0.051   0.873   1.018  0.0974 -0.3550  0.1159
  388SOL    HW1 1163   0.001   0.885   1.106 -0.6605 -2.3270  0.4969
  388SOL    HW2 1164   0.020   0.782   0.977  0.0582  0.0688 -3.0056
  389SOL     OW 1165   1.802   1.259   2.418 -0.4316  0.1868  0.1006
  389SOL    HW1 1166   1.833   1.245   2.516  1.3542 -0.6719 -0.4680
  389SOL    HW2 1167   1.818   1.356   2.384  2.3031  0.2095 -0.4123
  390SOL     OW 1168   1.556   2.134   0.413  0.3255 -0.0615 -0.0421
  390SOL    HW1 1169   1.616   2.203   0.364 -0.8066  1.7897  2.3580
  390SOL    HW2 1170   1.619   2.084   0.468 -2.1946  2.6017 -3.0688
  391SOL     OW 1171   1.109   2.144   1.026  0.0636 -0.6187  0.0723
  391SOL    HW1 1172   1.079   2.065   1.079 -1.7539  1.6555  1.5231
  391SOL    HW2 1173   1.175   2.112   0.955 -1.6044  1.5107  1.3795
  392SOL     OW 1174   2.304   2.616   1.927  0.0087 -0.7655 -0.1351
  392SOL    HW1 1175   2.231   2.577   1.867 -1.8626 -0.3982 -0.1517
  392SOL    HW2 1176   2.364   2.547   1.968 -1.3880  0.0877 -0.5037
  393SOL     OW 1177   1.599   2.229   3.044 -0.6247  0.1195 -0.1010
  393SOL    HW1 1178   1.532   2.283   2.985 -0.7032  0.6808 -1.2835
  393SOL    HW2 1179   1.673   2.176   2.995  1.7071 -1.2534 -0.6856
  394SOL     OW 1180   0.168   0.472   2.498  0.0563 -0.6667 -0.6973
  394SOL    HW1 1181   0.141   0.430   2.589 -2.0401  0.3573 -1.8248
  394SOL    HW2 1182   0.166   0.408   2.420  0.2248  1.2068 -0.3116
  395SOL     OW 1183   0.477   1.051   0.821 -0.9470 -0.7762 -0.0452
  395SOL    HW1 1184   0.524   1.139   0.810 -3.6553 -0.6998 -0.6318
  395SOL    HW2 1185   0.434   1.048   0.916  1.5061  1.0109  1.1555
  396SOL     OW 1186   2.278   0.842   2.731  0.0908  0.1672 -0.1376
  396SOL    HW1 1187   2.197   0.796   2.776 -2.3527  1.1248  0.3055
  396SOL    HW2 1188   2.253   0.929   2.684 -1.1164  2.7144 -1.5275
  397SOL     OW 1189   3.074   0.810   2.765 -0.4783  0.0634  0.1999
  397SOL    HW1 1190   0.078   0.777   2.745  1.9881  1.2568 -0.0814
  397SOL    HW2 1191   3.033   0.864   2.686 -1.4029 -0.1778 -0.3495
  398SOL     OW 1192   1.528   2.813   0.323 -0.2970 -0.0587 -0.6090
  398SOL    HW1 1193   1.502   2.875   0.398 -2.6365 -1.1925 -1.2695
  398SOL    HW2 1194   1.466   2.822   0.245 -0.4797  1.6790  0.3180
  399SOL     OW 1195   1.911   2.277   1.984  0.8000  0.6900  0.3857
  399SOL    HW1 1196   1.976   2.308   2.054  0.1746 -2.3875  2.1764
  399SOL    HW2 1197   1.850   2.355   1.962  2.2620 -0.7409 -1.4291
  400SOL     OW 1198   0.052   1.684   2.336  0.5937 -0.4010  0.1497
  400SOL    HW1 1199   0.126   1.618   2.328  0.0234 -2.4313  1.1569
  400SOL    HW2 1200   0.076   1.773   2.286  1.8940 -0.2050 -2.6982
  401SOL     OW 1201   0.569   0.983   0.548  0.2369 -0.6550  0.0450
  401SOL    HW1 1202   0.546   0.896   0.499 -1.8201  0.9229  1.0119
  401SOL    HW2 1203   0.522   1.001   0.638 -0.4563  0.3165 -1.4955
  402SOL     OW 1204   0.666   2.961   2.108  0.2748 -0.1337  0.0887
  402SOL    HW1 1205   0.691   3.048   2.156 -0.1081  0.2711 -0.0929
  402SOL    HW2 1206   0.696   2.885   2.163 -0.6290  0.8651 -2.5825
  403SOL     OW 1207   2.858   1.695   2.262 -0.2955 -0.0494 -0.9216
  403SOL    HW1 1208   2.826   1.774   2.315 -0.4471 -1.7051 -1.3547
  403SOL    HW2 1209   2.956   1.689   2.269 -3.4735 -0.6047  1.8074
  404SOL     OW 1210   2.636   2.116   1.949 -0.7290 -0.0807  0.0329
  404SOL    HW1 1211   2.738   2.106   1.960 -0.5572 -1.7972 -0.2094
  404SOL    HW2 1212   2.611   2.086   1.854  0.8211 -3.2723 -0.0948
  405SOL     OW 1213   1.960   0.133   2.608 -0.0145 -0.1014  0.1737
  405SOL    HW1 1214   2.008   0.043   2.618 -1.3968 -2.0711  1.7944
  405SOL    HW2 1215   1.868   0.118   2.570 -0.1958 -2.4541 -3.6474
  406SOL     OW 1216   1.285   1.871   0.277 -0.1947 -0.0490  0.1833
  406SOL    HW1 1217   1.364   1.922   0.233  2.0297 -2.9075  0.6197
  406SOL    HW2 1218   1.218   1.919   0.337  1.5067 -0.2343  1.8141
  407SOL     OW 1219   1.737   1.288   0.309  0.2888  0.2038  0.1498
  407SOL    HW1 1220   1.715   1.198   0.264 -1.1119 -1.9545 -1.2798
  407SOL    HW2 1221   1.651   1.319   0.362 -3.5434  0.1655 -1.0165
  408SOL     OW 1222   0.215   0.697   1.594 -0.9727  0.2878  0.2512
  408SOL    HW1 1223   0.291   0.738   1.649 -1.3400  1.6092 -2.8408
  408SOL    HW2 1224   0.249   0.683   1.495  0.6057  0.7213 -2.5459
  409SOL     OW 1225   3.027   1.390   2.855 -0.0559  0.5021  0.0672
  409SOL    HW1 1226   2.946   1.444   2.818 -0.4872  2.8737 -1.4931
  409SOL    HW2 1227   3.061   1.419   2.947  2.1378  0.8490 -0.2597
  410SOL     OW 1228   2.410   2.128   0.608  0.6276  0.3429 -0.7739
  410SOL    HW1 1229   2.358   2.149   0.693 -0.5801  3.4883  2.3970
  410SOL    HW2 1230   2.368   2.051   0.554  0.7250 -0.8965  1.9084
  411SOL     OW 1231   0.053   0.593   0.446  0.3138 -0.1673 -0.1321
  411SOL    HW1 1232   3.075   0.661   0.436 -0.4273 -1.7980  1.7472
  411SOL    HW2 1233   0.011   0.498   0.458 -1.1199 -3.1267  1.5992
  412SOL     OW 1234   1.623   0.151   0.040  0.2859  0.8373 -0.1326
  412SOL    HW1 1235   1.670   0.183   0.124 -1.4412  0.1768  2.9674
  412SOL    HW2 1236   1.661   0.063   0.001  0.1759  0.5169 -1.8499
  413SOL     OW 1237   1.099   0.372   1.549  0.1954  0.5220  0.2299
  413SOL    HW1 1238   1.169   0.298   1.550 -2.4270 -2.4448  0.1083
  413SOL    HW2 1239   1.013   0.351   1.597  2.4770  1.9791 -0.6041
  414SOL     OW 1240   0.354   1.273   0.198  0.1116 -0.1529 -0.4621
  414SOL    HW1 1241   0.258   1.272   0.233 -0.8180 -1.5730  2.6600
  414SOL    HW2 1242   0.417   1.215   0.248 -2.1104  3.3946 -0.8443
  415SOL     OW 1243   2.893   1.455   0.112  0.1563  0.5041 -0.3547
  415SOL    HW1 1244   2.946   1.374   0.080 -1.6505  0.5098 -1.7100
  415SOL    HW2 1245   2.898   1.465   0.217 -1.7884  0.2864  0.7758
  416SOL     OW 1246   2.640   0.417   0.021  0.1496  0.0841 -0.4250
  416SOL    HW1 1247   2.611   0.431   3.014  1.5020  1.9427 -2.3644
  416SOL    HW2 1248   2.653   0.507   0.070 -1.2162  0.6798  3.2158
  417SOL     OW 1249   2.620   2.725   0.450 -0.0774 -0.5060  0.1263
  417SOL    HW1 1250   2.648   2.628   0.435  1.7513  1.1989 -0.6209
  417SOL    HW2 1251   2.537   2.747   0.394 -1.0995 -3.1453  0.1228
  418SOL     OW 1252   0.140   0.260   0.067 -0.0353  0.0951  0.6108
  418SOL    HW1 1253   0.213   0.257   0.137 -1.4971  1.6928  0.2891
  418SOL    HW2 1254   0.126   0.358   0.042 -0.1949  0.6669 -0.0701
  419SOL     OW 1255   0.760   0.894   0.887 -0.1313 -0.0572  0.1540
  419SOL    HW1 1256   0.783   0.880   0.988 -0.5419 -1.1013  2.8374
  419SOL    HW2 1257   0.673   0.849   0.851  0.2029  1.2508 -2.3409
  420SOL     OW 1258   0.465   0.700   0.933 -0.3688 -0.5181 -0.1033
  420SOL    HW1 1259   0.442   0.724   1.028  3.4393 -0.8501 -1.6816
  420SOL    HW2 1260   0.393   0.747   0.874 -2.7933  0.2118 -1.9640
  421SOL     OW 1261   0.728   2.188   0.302  0.1414 -0.3549 -0.0325
  421SOL    HW1 1262   0.686   2.123   0.232  0.3588 -2.2836  0.7311
  421SOL    HW2 1263   0.827   2.196   0.286 -1.2817  0.2346 -0.3071
  422SOL     OW 1264   2.722   0.619   1.914 -0.4006 -0.3200 -0.0444
  422SOL    HW1 1265   2.736   0.523   1.909  2.1101 -0.0664 -0.7290
  422SOL    HW2 1266   2.725   0.650   2.016 -0.6588  1.2965  3.5249
  423SOL     OW 1267   1.936   2.130   0.095  1.0946 -0.2189  0.1891
  423SOL    HW1 1268   1.981   2.059   0.036 -3.1000 -0.5124 -1.7174
  423SOL    HW2 1269   2.003   2.191   0.142 -1.3909 -0.0386  0.9525
  424SOL     OW 1270   1.597   1.585   2.479 -0.0873 -0.7954  0.3136
  424SOL    HW1 1271   1.681   1.550   2.433 -2.3203  2.7352  1.6788
  424SOL    HW2 1272   1.519   1.516   2.466 -2.1649 -2.3697 -2.1635
  425SOL     OW 1273   3.088   2.861   2.290  0.2046 -0.2138 -0.0427
  425SOL    HW1 1274   2.990   2.833   2.303  3.5628  0.0337  0.4312
  425SOL    HW2 1275   0.053   2.805   2.353 -1.0016 -1.5363  1.4716
  426SOL     OW 1276   2.171   2.755   0.355  0.3490  0.9208 -0.1583
  426SOL    HW1 1277   2.145   2.690   0.281  3.0620  3.1342 -3.3683
  426SOL    HW2 1278   2.267   2.781   0.346 -1.6272 -2.7644 -0.3921
  427SOL     OW 1279   0.543   1.236   2.532  0.1416  0.0946 -0.3247
  427SOL    HW1 1280   0.484   1.319   2.509 -2.2495  0.6868  2.1819
  427SOL    HW2 1281   0.536   1.224   2.631 -2.7909  0.2553 -0.6101
  428SOL     OW 1282   2.506   1.279   2.743  0.5146 -0.0846 -0.0466
  428SOL    HW1 1283   2.557   1.196   2.773  0.6318  1.3996  0.3827
  428SOL    HW2 1284   2.416   1.280   2.790 -2.1465  1.1572  0.2022
  429SOL     OW 1285   2.200   2.860   0.648  0.1494  0.8607  0.6051
  429SOL    HW1 1286   2.234   2.774   0.691  3.6914  2.2986  3.4287
  429SOL    HW2 1287   2.277   2.895   0.593 -0.4589 -0.3567 -0.9864
  430SOL     OW 1288   1.421   1.923   2.464  0.6086 -0.0986 -0.5991
  430SOL    HW1 1289   1.332   1.951   2.420 -0.0326  0.7932  0.7950
  430SOL    HW2 1290   1.443   1.996   2.538  2.0664  3.3230 -0.1863
  431SOL     OW 1291   3.031   2.002   1.598  0.0789  0.0985 -0.5365
  431SOL    HW1 1292   2.930   1.981   1.603 -1.6629 -0.2416 -1.6347
  431SOL    HW2 1293   3.050   2.036   1.506 -2.5054 -3.0308 -0.6365
  432SOL     OW 1294   1.261   2.199   2.515  0.2477  0.2287 -0.1126
  432SOL    HW1 1295   1.339   2.204   2.577 -1.6854  1.6637 -2.1612
  432SOL    HW2 1296   1.276   2.248   2.429  3.0571  0.6867 -0.2761
  433SOL     OW 1297   0.936   2.755   0.787  0.3924 -0.2013  0.2106
  433SOL    HW1 1298   0.970   2.674   0.735  2.3449  0.2902 -1.4326
  433SOL    HW2 1299   0.941   2.836   0.726  0.1534 -0.7292  2.6567
  434SOL     OW 1300   0.354   1.939   2.284  0.8717  0.6440 -0.3394
  434SOL    HW1 1301   0.345   2.023   2.347  1.6599 -1.3812  0.8983
  434SOL    HW2 1302   0.279   1.936   2.209 -1.2477 -0.0665 -1.4228
  435SOL     OW 1303   0.324   1.386   0.607 -0.0013  0.0315  0.3982
  435SOL    HW1 1304   0.403   1.444   0.579 -0.7755 -0.5341  2.3271
  435SOL    HW2 1305   0.257   1.434   0.667  3.3507  2.0224 -0.8971
  436SOL     OW 1306   0.263   2.326   1.632 -0.0925  0.3576 -0.0819
  436SOL    HW1 1307   0.207   2.332   1.545  0.0528  1.3415 -2.7721
  436SOL    HW2 1308   0.320   2.241   1.629 -3.1385  0.5247 -2.1203
  437SOL     OW 1309   0.995   0.705   0.534 -0.2635 -0.0142 -0.1085
  437SOL    HW1 1310   0.934   0.777   0.571 -2.0461 -0.2079 -1.0663
  437SOL    HW2 1311   1.066   0.739   0.466  1.5903  1.2742 -2.1740
  438SOL     OW 1312   0.287   2.159   0.824  0.3571  0.2100  0.5708
  438SOL    HW1 1313   0.210   2.221   0.855 -0.3315  0.6845 -0.1292
  438SOL    HW2 1314   0.376   2.174   0.869  1.4065 -1.0477 -0.0802
  439SOL     OW 1315   1.005   2.654   1.848 -0.5222  0.4053  0.7647
  439SOL    HW1 1316   0.955   2.625   1.933  1.8913 -0.8507 -0.9120
  439SOL    HW2 1317   0.934   2.655   1.771 -2.0070 -2.1241  1.5108
  440SOL     OW 1318   1.590   0.162   1.600 -0.7690  0.0592 -0.1756
  440SOL    HW1 1319   1.633   0.214   1.682  0.4499  2.6175  1.8294
  440SOL    HW2 1320   1.611   0.201   1.510  0.7908  0.1898 -0.3375
  441SOL     OW 1321   0.509   0.281   1.443  0.5852 -0.5053 -0.2227
  441SOL    HW1 1322   0.526   0.212   1.515  0.5213 -1.7726  0.7137
  441SOL    HW2 1323   0.533   0.250   1.348 -0.2378 -2.0720 -0.5004
  442SOL     OW 1324   2.027   1.776   0.459 -0.4182  0.9688  1.0061
  442SOL    HW1 1325   2.088   1.711   0.408  0.6834  0.7396 -0.5354
  442SOL    HW2 1326   1.976   1.837   0.395  0.7490  2.7371 -1.5432
  443SOL     OW 1327   2.574   0.321   2.365  0.1677  0.5449  0.2471
  443SOL    HW1 1328   2.655   0.271   2.326  2.4116 -1.1938  1.9459
  443SOL    HW2 1329   2.479   0.296   2.326 -0.2279  2.3449  1.4859
  444SOL     OW 1330   2.217   1.018   1.770  0.1896  0.5371  0.0938
  444SOL    HW1 1331   2.313   1.037   1.761 -1.5254 -1.4810  2.8416
  444SOL    HW2 1332   2.180   0.986   1.861 -5.8222  0.9441  1.2110
  445SOL     OW 1333   2.618   2.175   1.596  0.4110  0.0297  0.6558
  445SOL    HW1 1334   2.689   2.104   1.614  1.1280 -0.4469  1.4877
  445SOL    HW2 1335   2.637   2.255   1.652 -1.7890  0.3805 -1.5907
  446SOL     OW 1336   2.941   1.370   0.724  0.6083 -0.2718  0.2588
  446SOL    HW1 1337   3.013   1.295   0.719  0.0818 -1.8694  0.0775
  446SOL    HW2 1338   2.857   1.350   0.674 -0.3900  1.4555 -1.4835
  447SOL     OW 1339   1.180   1.586   0.740 -0.2860  0.2584  0.0191
  447SOL    HW1 1340   1.174   1.613   0.837 -0.0013  0.1654  0.9929
  447SOL    HW2 1341   1.154   1.664   0.673 -2.1609  1.7426 -0.8996
  448SOL     OW 1342   1.482   1.346   1.624 -0.0726 -0.2910  0.0890
  448SOL    HW1 1343   1.557   1.383   1.686  2.2264 -0.7889  0.4633
  448SOL    HW2 1344   1.509   1.257   1.581 -0.0341 -0.5018 -0.6762
  449SOL     OW 1345   0.697   1.384   0.194  0.4982 -0.3427 -0.1368
  449SOL    HW1 1346   0.697   1.474   0.231  0.6600 -4.5612  0.1223
  449SOL    HW2 1347   0.603   1.345   0.216 -0.0950  0.4467  1.7603
  450SOL     OW 1348   2.175   2.108   2.045 -0.4088 -0.2717  0.1742
  450SOL    HW1 1349   2.156   2.164   1.962  0.9774  1.4139 -0.0466
  450SOL    HW2 1350   2.101   2.105   2.114  1.8877  0.3362 -0.0457
  451SOL     OW 1351   1.909   3.052   2.243  0.1098  0.5135 -0.0574
  451SOL    HW1 1352   1.996   3.092   2.278  2.7241 -0.8539 -0.8062
  451SOL    HW2 1353   1.841   0.032   2.235  0.3864  2.0997  3.0784
  452SOL     OW 1354   0.967   3.083   1.466  0.5636 -0.2348  0.0401
  452SOL    HW1 1355   0.932   2.992   1.433  0.5633  0.8528 -0.1751
  452SOL    HW2 1356   0.918   0.060   1.414 -0.2748 -2.2896  2.1563
  453SOL     OW 1357   1.049   1.301   0.950  0.2242  0.2686 -1.0452
  453SOL    HW1 1358   0.967   1.262   0.905  2.2906  2.5925  1.2141
  453SOL    HW2 1359   1.123   1.302   0.880 -1.9816  0.3195  1.8443
  454SOL     OW 1360   0.559   1.328   0.812  0.3908  0.6477 -0.1618
  454SOL    HW1 1361   0.608   1.376   0.738  0.2337 -0.4354 -1.4108
  454SOL    HW2 1362   0.473   1.375   0.839 -0.0342  1.8798 -3.9295
  455SOL     OW 1363   2.964   2.833   3.068  0.5300 -0.2800 -0.1109
  455SOL    HW1 1364   2.921   2.753   0.022  2.0173  0.2665  2.5686
  455SOL    HW2 1365   2.930   2.921   0.011  1.2783  0.4912  1.0829
  456SOL     OW 1366   2.332   2.045   0.870 -0.1945  0.4362  0.1383
  456SOL    HW1 1367   2.296   2.109   0.946 -1.2200  1.0711  1.2143
  456SOL    HW2 1368   2.430   2.015   0.889  0.3509 -1.0656  2.1493
  457SOL     OW 1369   1.385   0.104   0.209 -0.2439  0.0656 -0.0579
  457SOL    HW1 1370   1.475   0.095   0.161  0.8614 -0.3371  0.0805
  457SOL    HW2 1371   1.388   0.179   0.276  0.3333 -0.6897  0.4700
  458SOL     OW 1372   2.649   2.985   0.548  0.5003 -0.0628  0.1721
  458SOL    HW1 1373   2.721   2.993   0.622  1.2239 -0.2934  1.1384
  458SOL    HW2 1374   2.664   2.894   0.494  0.0879  1.0391 -1.8565
  459SOL     OW 1375   2.022   0.388   2.551 -0.6712 -0.0021  0.6654
  459SOL    HW1 1376   2.115   0.398   2.589 -1.0493 -1.5548 -2.2068
  459SOL    HW2 1377   1.986   0.293   2.565  0.5279 -0.6383 -0.6762
  460SOL     OW 1378   2.809   3.080   0.060 -0.0191 -0.0486 -0.2190
  460SOL    HW1 1379   2.736   3.032   0.014 -0.3293  0.4031 -0.2999
  460SOL    HW2 1380   2.783   0.010   0.156  2.1043 -1.9737 -0.8211
  461SOL     OW 1381   0.684   1.658   1.166 -0.8146  0.5268 -0.6030
  461SOL    HW1 1382   0.740   1.709   1.237  0.3992  1.2782  0.8256
  461SOL    HW2 1383   0.736   1.663   1.079  0.5461 -0.5470 -0.5014
  462SOL     OW 1384   2.532   2.714   1.841  0.6599  0.2315  0.2426
  462SOL    HW1 1385   2.550   2.777   1.924  1.9543  3.9417  3.3888
  462SOL    HW2 1386   2.441   2.671   1.838  1.1908  1.2535 -1.5843
  463SOL     OW 1387   2.885   0.994   0.247 -0.1159  0.2295  0.6166
  463SOL    HW1 1388   2.804   0.974   0.303 -1.5753 -1.4605  0.3245
  463SOL    HW2 1389   2.856   1.068   0.181 -1.3490  1.5904 -2.3541
  464SOL     OW 1390   0.055   2.675   1.136 -0.2700  0.4049  0.4760
  464SOL    HW1 1391   3.070   2.705   1.083 -0.8625 -3.2729 -0.6621
  464SOL    HW2 1392   0.080   2.748   1.204 -0.8834  0.3098  0.5391
  465SOL     OW 1393   0.571   1.510   0.528  0.4124 -0.7377  0.1640
  465SOL    HW1 1394   0.521   1.547   0.446 -1.7508  0.2762 -0.0223
  465SOL    HW2 1395   0.636   1.581   0.561 -1.6423 -1.1139 -3.4901
  466SOL     OW 1396   0.927   0.298   2.480 -0.3426  0.0583  0.0944
  466SOL    HW1 1397   0.918   0.278   2.579  1.4052 -0.6981 -3.1630
  466SOL    HW2 1398   0.995   0.373   2.466  0.7910  0.8280 -0.6226
  467SOL     OW 1399   1.120   0.819   2.398 -0.1626  0.1545 -0.0997
  467SOL    HW1 1400   1.106   0.871   2.314  1.5228 -0.4786  2.2971
  467SOL    HW2 1401   1.218   0.795   2.413 -0.7401  2.9515  1.6503
  468SOL     OW 1402   0.510   1.015   2.387  0.5739 -0.1013  0.4598
  468SOL    HW1 1403   0.583   0.948   2.421  2.1866 -2.0580  0.9121
  468SOL    HW2 1404   0.523   1.108   2.422  0.2491  0.2505  1.5028
  469SOL     OW 1405   0.324   2.098   0.379 -0.3236 -0.2447 -0.0585
  469SOL    HW1 1406   0.424   2.123   0.398  3.1169  0.1532  1.0258
  469SOL    HW2 1407   0.313   2.020   0.312  0.2415  0.0546 -4.6763
  470SOL     OW 1408   2.753   2.051   2.658  0.5266 -0.4401 -0.1924
  470SOL    HW1 1409   2.704   2.013   2.735 -2.7068  2.4261 -2.1084
  470SOL    HW2 1410   2.708   2.135   2.618 -0.6320  0.6050 -0.7111
  471SOL     OW 1411   2.015   0.622   2.191  0.3194  0.7107  0.0177
  471SOL    HW1 1412   2.005   0.647   2.094  0.7438 -1.4188 -0.3489
  471SOL    HW2 1413   1.934   0.581   2.236 -1.6240  0.6796  1.0828
  472SOL     OW 1414   0.579   2.728   1.197  0.0516 -0.8336 -0.4485
  472SOL    HW1 1415   0.534   2.646   1.238  2.0072  2.2395 -0.9027
  472SOL    HW2 1416   0.649   2.703   1.124 -1.5892 -1.0993 -1.0425
  473SOL     OW 1417   0.674   0.075   2.566  0.5322  0.3358  0.4033
  473SOL    HW1 1418   0.750   0.097   2.627 -0.2004  1.6374 -1.6146
  473SOL    HW2 1419   0.617   3.091   2.594  0.2031  2.0376  1.3026
  474SOL     OW 1420   1.910   0.095   1.747  0.2625  0.2282  0.7038
  474SOL    HW1 1421   1.942   0.141   1.659  0.5040 -0.8389  1.1100
  474SOL    HW2 1422   1.869   0.005   1.717 -0.7820  1.0345 -1.0208
  475SOL     OW 1423   1.954   0.277   1.030 -0.3860 -0.6074  0.4721
  475SOL    HW1 1424   1.962   0.234   0.937 -1.2534 -1.2631  2.9972
  475SOL    HW2 1425   2.037   0.259   1.090  0.0192  1.4023  2.8392
  476SOL     OW 1426   0.700   0.580   0.858  0.2185  0.3742 -0.3110
  476SOL    HW1 1427   0.612   0.597   0.898  2.4413 -2.4206 -0.3766
  476SOL    HW2 1428   0.768   0.543   0.925  2.3706 -2.3517  0.6050
  477SOL     OW 1429   1.255   2.555   0.590 -0.0040 -0.0519 -0.2302
  477SOL    HW1 1430   1.325   2.541   0.665 -1.5305 -0.3699  0.8773
  477SOL    HW2 1431   1.169   2.518   0.618  0.1498  2.6813  0.6391
  478SOL     OW 1432   0.267   2.186   2.393 -0.2736  0.0825 -0.0692
  478SOL    HW1 1433   0.266   2.235   2.308 -0.0471 -2.1259  1.2315
  478SOL    HW2 1434   0.292   2.246   2.470 -0.1364  1.2981  0.0973
  479SOL     OW 1435   2.825   0.330   1.078 -0.3935  0.3322 -0.0552
  479SOL    HW1 1436   2.776   0.357   1.165  2.1935  0.0391 -2.0883
  479SOL    HW2 1437   2.927   0.322   1.098  0.0987 -3.0575  1.6173
  480SOL     OW 1438   0.303   2.724   0.337  0.8225 -0.1485 -0.0759
  480SOL    HW1 1439   0.332   2.823   0.344 -1.1732  0.5028 -0.3489
  480SOL    HW2 1440   0.202   2.721   0.365 -0.0790 -0.5522  2.5547
  481SOL     OW 1441   2.263   2.064   1.303 -0.2683 -0.2408  0.1953
  481SOL    HW1 1442   2.352   2.031   1.266  2.4609 -1.5015 -3.9538
  481SOL    HW2 1443   2.179   2.032   1.253  2.2010  1.2397  1.6970
  482SOL     OW 1444   1.072   2.408   2.934  0.0201  1.2292 -0.5034
  482SOL    HW1 1445   1.086   2.411   2.831 -0.6038  1.1571  0.1616
  482SOL    HW2 1446   0.979   2.445   2.966 -0.4403  3.6293  1.4748
  483SOL     OW 1447   0.497   2.317   2.144 -0.0944 -0.4006 -0.3742
  483SOL    HW1 1448   0.399   2.337   2.154 -2.4408 -0.0795 -3.3068
  483SOL    HW2 1449   0.525   2.328   2.047  0.7838  0.5789 -2.1650
  484SOL     OW 1450   1.242   0.593   1.616 -0.2821 -0.1054 -0.7243
  484SOL    HW1 1451   1.274   0.603   1.712 -1.5792 -1.5179 -0.1280
  484SOL    HW2 1452   1.187   0.505   1.605  0.3475  0.5328  0.6511
  485SOL     OW 1453   2.001   0.857   2.522 -0.2980 -0.5181  0.3273
  485SOL    HW1 1454   2.066   0.827   2.450 -0.1152  0.2178  3.3890
  485SOL    HW2 1455   1.907   0.827   2.506  1.3094  0.3188  1.0737
  486SOL     OW 1456   2.278   2.879   1.132 -0.3136 -0.0590  0.4211
  486SOL    HW1 1457   2.225   2.809   1.080 -0.0749  0.2635  1.2144
  486SOL    HW2 1458   2.353   2.902   1.068  0.5987  2.0679 -1.7057
  487SOL     OW 1459   0.908   2.338   1.853 -0.2970  0.9219 -0.2104
  487SOL    HW1 1460   0.862   2.421   1.881 -0.2944 -1.9755  1.0698
  487SOL    HW2 1461   0.917   2.326   1.752  1.3007 -0.0442 -1.2637
  488SOL     OW 1462   2.591   1.512   2.847 -0.3601 -0.0812  0.0686
  488SOL    HW1 1463   2.563   1.424   2.801 -0.7191  0.3977  1.6677
  488SOL    HW2 1464   2.623   1.486   2.941 -1.5002 -0.3182  1.6404
  489SOL     OW 1465   2.257   0.068   1.081  0.4801  0.1095 -0.2536
  489SOL    HW1 1466   2.312   0.037   1.001  0.0734  1.1635 -0.6924
  489SOL    HW2 1467   2.214   3.077   1.122 -3.8870  1.9556 -0.6629
  490SOL     OW 1468   1.112   1.298   0.112  0.3431  0.0812 -0.2088
  490SOL    HW1 1469   1.202   1.348   0.123 -0.6605  0.6152 -0.6596
  490SOL    HW2 1470   1.032   1.363   0.098 -1.8339  1.7974 -0.3999
  491SOL     OW 1471   0.439   2.309   1.134 -0.3288 -0.1554  1.1716
  491SOL    HW1 1472   0.359   2.254   1.160  2.0103  1.6663 -0.3362
  491SOL    HW2 1473   0.523   2.258   1.143 -1.0410 -2.2244 -0.2325
  492SOL     OW 1474   0.947   1.735   1.865 -0.3597 -0.3574 -0.4182
  492SOL    HW1 1475   1.023   1.662   1.870 -0.6646 -1.1029  1.2123
  492SOL    HW2 1476   0.976   1.793   1.789 -1.6755 -0.0103 -1.6124
  493SOL     OW 1477   2.611   2.238   0.808  0.0095 -0.2386 -0.3631
  493SOL    HW1 1478   2.607   2.250   0.707  0.9333 -0.4171 -0.0393
  493SOL    HW2 1479   2.629   2.144   0.836 -0.8676  0.1291 -1.8614
  494SOL     OW 1480   2.939   1.925   0.560  0.1866  0.2448 -0.4146
  494SOL    HW1 1481   2.907   1.829   0.564  0.7351  0.1567  1.6202
  494SOL    HW2 1482   2.883   1.972   0.489 -0.3803 -0.5756 -2.0215
  495SOL     OW 1483   2.783   2.654   0.110 -0.3523 -0.5820  0.4195
  495SOL    HW1 1484   2.698   2.600   0.094  0.3738 -1.7843  2.3156
  495SOL    HW2 1485   2.833   2.621   0.193 -0.5601  0.2498 -0.9301
  496SOL     OW 1486   2.641   0.096   1.251 -0.4621  0.3640  0.7987
  496SOL    HW1 1487   2.601   0.157   1.183 -0.2025  0.1172  0.3832
  496SOL    HW2 1488   2.717   0.140   1.300 -0.5412  2.7411 -2.0038
  497SOL     OW 1489   2.893   1.159   2.955 -0.1740 -0.0512 -0.3243
  497SOL    HW1 1490   2.958   1.086   2.985  2.0230  1.9422 -0.2477
  497SOL    HW2 1491   2.943   1.246   2.939  1.1450 -2.2666  0.2103
  498SOL     OW 1492   2.926   1.778   1.829  0.5210  0.0556  0.1551
  498SOL    HW1 1493   2.869   1.728   1.902 -1.8030  1.0892  0.1995
  498SOL    HW2 1494   3.024   1.789   1.855  2.2273  0.2343 -0.3968
  499SOL     OW 1495   0.547   2.395   2.883  0.0825 -0.5188 -0.4976
  499SOL    HW1 1496   0.490   2.315   2.843 -2.4147 -1.8078 -0.3808
  499SOL    HW2 1497   0.632   2.362   2.928  1.1388 -1.9908  0.6188
  500SOL     OW 1498   1.873   0.390   3.081  0.1347  0.0708 -0.2178
  500SOL    HW1 1499   1.878   0.462   0.058 -0.0321  0.2201 -0.7560
  500SOL    HW2 1500   1.786   0.337   3.089  1.9802 -0.8782 -2.5152
  501SOL     OW 1501   1.318   0.170   1.678 -0.0740 -0.7603 -0.0958
  501SOL    HW1 1502   1.277   0.242   1.739 -1.4127 -0.7471  0.6350
  501SOL    HW2 1503   1.420   0.165   1.687 -0.0691 -2.8416 -1.9908
  502SOL     OW 1504   2.540   0.749   1.770 -0.0959 -0.1439  0.3333
  502SOL    HW1 1505   2.611   0.691   1.819  2.3636 -0.4531 -1.5397
  502SOL    HW2 1506   2.480   0.684   1.712 -1.1062  1.1502 -1.5427
  503SOL     OW 1507   2.193   1.775   2.126  1.4192  0.7086  0.1118
  503SOL    HW1 1508   2.168   1.857   2.070  1.6831  4.0370 -0.8906
  503SOL    HW2 1509   2.152   1.691   2.087 -0.3294  2.6386  1.2889
  504SOL     OW 1510   1.581   1.128   1.537  0.3502  0.1247 -0.3410
  504SOL    HW1 1511   1.663   1.131   1.591 -0.0012 -0.9972 -4.1543
  504SOL    HW2 1512   1.556   1.036   1.505  2.9839  0.9575  0.5275
  505SOL     OW 1513   0.856   0.709   1.559  0.2420  0.0657  0.4925
  505SOL    HW1 1514   0.786   0.645   1.536 -0.2539  2.3845 -0.4123
  505SOL    HW2 1515   0.895   0.706   1.650  0.0446  0.2152  0.2162
  506SOL     OW 1516   0.317   0.283   2.745 -0.1326  0.5049 -0.3141
  506SOL    HW1 1517   0.346   0.226   2.827 -1.2974 -1.1484 -2.5492
  506SOL    HW2 1518   0.345   0.381   2.740  0.0273  1.0894 -1.0885
  507SOL     OW 1519   0.177   0.097   0.389  0.9132 -0.1682 -0.2604
  507SOL    HW1 1520   0.182   0.133   0.488  1.8304  2.0013  0.5824
  507SOL    HW2 1521   0.257   0.130   0.337 -1.8643  2.7604  1.4733
  508SOL     OW 1522   0.855   0.723   1.861 -0.4537  0.2428 -0.1213
  508SOL    HW1 1523   0.831   0.819   1.848 -0.6530 -0.8855  1.2940
  508SOL    HW2 1524   0.946   0.722   1.911  1.7341 -1.6924  0.7078
  509SOL     OW 1525   1.434   2.260   0.934  0.3100 -0.3283 -0.3117
  509SOL    HW1 1526   1.449   2.231   1.029 -1.3085  1.6086 -0.4201
  509SOL    HW2 1527   1.373   2.194   0.888 -1.2435  0.1733 -0.2268
  510SOL     OW 1528   2.670   1.444   1.886 -0.2549  0.2488  0.0929
  510SOL    HW1 1529   2.664   1.479   1.794  4.3043 -1.3087  1.3140
  510SOL    HW2 1530   2.695   1.515   1.954  3.0312  0.4232 -2.0602
  511SOL     OW 1531   0.882   2.245   1.584 -0.6559 -0.8200 -1.0882
  511SOL    HW1 1532   0.977   2.229   1.548  1.8779  0.3448  0.1680
  511SOL    HW2 1533   0.811   2.186   1.542 -0.5060  1.8201 -1.2800
  512SOL     OW 1534   2.896   1.642   0.669 -0.4221 -0.0025  0.2510
  512SOL    HW1 1535   2.906   1.539   0.665  0.6370  1.7809 -0.7612
  512SOL    HW2 1536   2.980   1.672   0.716 -1.4817 -1.3132 -1.7878
  513SOL     OW 1537   0.068   1.798   2.932  0.3646  0.3145  0.2197
  513SOL    HW1 1538   0.096   1.893   2.901 -1.2215 -1.4611  1.3339
  513SOL    HW2 1539   0.149   1.735   2.925  2.3235 -0.0837 -1.1482
  514SOL     OW 1540   2.556   2.243   2.514  0.1164  0.7861 -0.1525
  514SOL    HW1 1541   2.497   2.323   2.486  0.3518 -1.6860 -3.0513
  514SOL    HW2 1542   2.550   2.175   2.437  1.3303  0.3307 -0.4048
  515SOL     OW 1543   2.407   0.880   0.648 -0.6317  0.0510 -0.6245
  515SOL    HW1 1544   2.371   0.789   0.623 -0.0799 -1.1719 -0.9491
  515SOL    HW2 1545   2.500   0.873   0.693  0.4724 -1.5715  2.6001
  516SOL     OW 1546   2.575   1.803   0.058 -0.0309  0.0067 -0.2345
  516SOL    HW1 1547   2.531   1.719   0.082  0.4194  2.0864  0.5593
  516SOL    HW2 1548   2.674   1.784   0.060 -1.5918 -0.2277 -1.5816
  517SOL     OW 1549   0.756   1.283   2.891  0.0665 -0.6361  0.1079
  517SOL    HW1 1550   0.823   1.355   2.872 -0.9155  0.8900 -1.1600
  517SOL    HW2 1551   0.785   1.233   2.972  0.1240  2.9938 -0.3640
  518SOL     OW 1552   2.752   0.148   2.256  0.0210 -0.3997  0.7631
  518SOL    HW1 1553   2.845   0.192   2.273  3.5712  1.8100 -0.0538
  518SOL    HW2 1554   2.744   0.055   2.302  5.5503  0.2108 -2.2502
  519SOL     OW 1555   1.585   1.329   2.871 -0.4914 -0.5872 -0.5543
  519SOL    HW1 1556   1.484   1.307   2.881 -0.0992 -0.7783  0.0080
  519SOL    HW2 1557   1.602   1.429   2.893 -1.5470  2.1070 -0.1612
  520SOL     OW 1558   2.852   2.724   2.331 -0.1097  0.3185  1.0369
  520SOL    HW1 1559   2.794   2.675   2.265  0.0278 -1.2627  0.8702
  520SOL    HW2 1560   2.818   2.705   2.420  0.7846 -0.7096 -0.6013
  521SOL     OW 1561   0.573   1.598   2.172  0.3887  0.0468 -0.1434
  521SOL    HW1 1562   0.592   1.699   2.195 -0.6457  4.1037 -1.7258
  521SOL    HW2 1563   0.477   1.568   2.192 -0.5521 -1.1961  1.0510
  522SOL     OW 1564   1.159   2.854   1.944 -0.3542  0.1682  0.1708
  522SOL    HW1 1565   1.100   2.779   1.914  0.3868  2.0475  0.1509
  522SOL    HW2 1566   1.100   2.932   1.969  0.1473  0.2958 -0.3839
  523SOL     OW 1567   2.692   2.210   1.321 -0.2212 -0.2033 -0.2263
  523SOL    HW1 1568   2.685   2.303   1.285  4.4533  0.0048 -0.3793
  523SOL    HW2 1569   2.687   2.212   1.427 -1.3203  0.0238  2.0130
  524SOL     OW 1570   1.688   2.403   0.626  0.0871  0.4547  0.2443
  524SOL    HW1 1571   1.619   2.405   0.699  0.1935 -1.2772 -1.2550
  524SOL    HW2 1572   1.648   2.339   0.554 -3.0958 -0.8366 -0.3233
  525SOL     OW 1573   2.727   0.589   1.043  0.4142  0.6737  0.5068
  525SOL    HW1 1574   2.651   0.622   0.981 -1.0474  0.3715 -1.7638
  525SOL    HW2 1575   2.737   0.487   1.043  1.7519 -3.4895  0.8564
  526SOL     OW 1576   1.456   2.649   1.001 -0.3765 -0.1606  0.6937
  526SOL    HW1 1577   1.435   2.584   1.079 -3.0144 -0.9970 -0.9894
  526SOL    HW2 1578   1.556   2.678   1.002 -1.2478  0.4938 -1.6801
  527SOL     OW 1579   2.130   1.902   0.761  0.0614 -0.0738  0.2815
  527SOL    HW1 1580   2.209   1.957   0.786 -0.0777 -0.4913 -0.2908
  527SOL    HW2 1581   2.147   1.803   0.780 -1.4301 -1.7232 -0.5253
  528SOL     OW 1582   2.066   2.930   2.586 -0.0487  0.0653 -0.4514
  528SOL    HW1 1583   1.983   2.898   2.638 -1.8208  0.8928 -0.3867
  528SOL    HW2 1584   2.152   2.894   2.624  0.4117  1.6265  2.4700
  529SOL     OW 1585   1.480   1.659   2.213 -0.2462  0.0020 -0.0447
  529SOL    HW1 1586   1.500   1.652   2.317  1.0712  0.8093  4.1129
  529SOL    HW2 1587   1.550   1.714   2.167 -1.1496  1.5115  1.6417
  530SOL     OW 1588   2.098   1.133   2.364  1.1751 -0.6806 -0.1786
  530SOL    HW1 1589   2.182   1.099   2.313  1.6825 -1.5070  1.0102
  530SOL    HW2 1590   2.021   1.071   2.348 -1.5223  1.1549 -0.2385
  531SOL     OW 1591   0.342   0.818   3.085 -0.4253 -0.3106  0.4833
  531SOL    HW1 1592   0.422   0.771   0.025  0.8643  3.6978 -0.7299
  531SOL    HW2 1593   0.321   0.901   0.043 -0.1541 -1.7915 -0.7918
  532SOL     OW 1594   1.430   1.552   0.587 -0.0331  0.3974 -0.2739
  532SOL    HW1 1595   1.518   1.593   0.624  1.4377  0.2719 -0.6842
  532SOL    HW2 1596   1.349   1.570   0.648  1.8532  0.4055  0.5426
  533SOL     OW 1597   0.317   0.698   2.071  0.6009 -0.1344 -0.0648
  533SOL    HW1 1598   0.413   0.685   2.056 -2.6371  0.7834  3.8988
  533SOL    HW2 1599   0.290   0.655   2.160 -1.0419  2.2831 -0.1552
  534SOL     OW 1600   1.429   0.508   2.584  0.2359 -0.6397 -0.4641
  534SOL    HW1 1601   1.367   0.505   2.664  0.6619 -1.1968  2.7295
  534SOL    HW2 1602   1.428   0.595   2.529  0.7255  1.8642  0.0537
  535SOL     OW 1603   0.413   0.559   0.235  0.2675 -0.7757  0.6047
  535SOL    HW1 1604   0.318   0.596   0.219 -2.2029 -0.6003 -1.7924
  535SOL    HW2 1605   0.446   0.522   0.144  0.0553  1.2110 -3.9233
  536SOL     OW 1606   0.517   0.447   0.007 -0.6658 -0.2712 -0.4181
  536SOL    HW1 1607   0.599   0.500   3.080 -0.9301  0.0736  0.8907
  536SOL    HW2 1608   0.537   0.344   0.004  1.1303 -1.1672 -1.1480
  537SOL     OW 1609   1.442   3.089   1.402  0.1597  0.4541 -0.5038
  537SOL    HW1 1610   1.363   3.042   1.443  2.2477 -0.8924 -2.1409
  537SOL    HW2 1611   1.493   0.048   1.472  1.7031 -1.2176  0.5730
  538SOL     OW 1612   0.345   2.840   2.997 -0.2384  0.7911 -0.3138
  538SOL    HW1 1613   0.340   2.902   2.918  1.4961 -2.5440  2.6152
  538SOL    HW2 1614   0.262   2.835   3.056 -0.7985  1.6109 -0.9611
  539SOL     OW 1615   2.663   1.172   1.932 -0.3869  0.1834 -0.2380
  539SOL    HW1 1616   2.729   1.143   1.864  0.7086 -2.9004  2.2650
  539SOL    HW2 1617   2.646   1.270   1.930 -2.1034 -0.2673 -0.0877
  540SOL     OW 1618   2.187   1.773   1.495 -0.2110  0.8654  0.0573
  540SOL    HW1 1619   2.272   1.758   1.440 -1.3673 -0.1121 -1.8701
  540SOL    HW2 1620   2.208   1.823   1.584 -0.4252 -2.1675 -3.3371
  541SOL     OW 1621   0.538   2.424   1.637  0.0888  0.0883  0.0547
  541SOL    HW1 1622   0.460   2.380   1.601 -0.6722 -0.1666  3.0921
  541SOL    HW2 1623   0.514   2.523   1.662  0.3216  2.4068  0.8512
  542SOL     OW 1624   2.414   0.951   2.016 -0.1895 -0.0205  0.0114
  542SOL    HW1 1625   2.472   1.002   1.957  2.2842 -1.8865  1.6820
  542SOL    HW2 1626   2.323   0.922   1.984 -1.0318  2.1051 -0.0311
  543SOL     OW 1627   1.039   0.543   0.758 -0.0989  0.5154  0.3362
  543SOL    HW1 1628   1.037   0.602   0.678  2.2173 -0.2715  0.7762
  543SOL    HW2 1629   1.029   0.606   0.839 -1.6650 -0.5441  0.4376
  544SOL     OW 1630   2.009   2.001   1.193 -0.1115 -0.0374  0.2434
  544SOL    HW1 1631   1.981   1.910   1.159 -2.4530 -0.5128  1.2232
  544SOL    HW2 1632   1.956   2.069   1.140 -1.1484 -1.3980  0.9985
  545SOL     OW 1633   1.479   1.396   1.189 -0.2232  0.3704 -0.1176
  545SOL    HW1 1634   1.471   1.300   1.148 -0.4509  1.2750  1.5388
  545SOL    HW2 1635   1.560   1.400   1.252  0.9336  0.6657  4.3743
  546SOL     OW 1636   0.031   3.015   2.844 -0.5499  0.9940 -0.4393
  546SOL    HW1 1637   3.048   2.949   2.845 -3.4852  0.7065 -0.1341
  546SOL    HW2 1638   0.013   3.069   2.929 -1.5138 -1.6987 -0.7680
  547SOL     OW 1639   2.271   0.434   2.665  0.6107  0.1469  0.7609
  547SOL    HW1 1640   2.280   0.376   2.753  1.7017 -0.6384 -0.1200
  547SOL    HW2 1641   2.322   0.519   2.665  1.3419  1.1609 -0.8527
  548SOL     OW 1642   2.407   2.033   2.361 -0.2177 -0.5809 -0.0655
  548SOL    HW1 1643   2.325   2.090   2.381  0.1520 -0.3442  1.1264
  548SOL    HW2 1644   2.436   2.047   2.262  1.8493  2.7330  0.0055
  549SOL     OW 1645   2.358   3.079   0.837  0.3923 -0.3842 -0.1248
  549SOL    HW1 1646   2.411   0.040   0.766  0.0996  0.6546 -0.7666
  549SOL    HW2 1647   2.396   2.985   0.852 -0.6300 -0.7394  3.4253
  550SOL     OW 1648   2.669   0.916   0.070  0.3821  0.4566 -0.1127
  550SOL    HW1 1649   2.648   0.908   3.059 -0.9710 -1.2873 -2.0340
  550SOL    HW2 1650   2.618   0.993   0.112  2.2887  1.1411  3.8592
  551SOL     OW 1651   1.282   2.669   1.343 -0.4093 -0.2458 -0.0523
  551SOL    HW1 1652   1.337   2.604   1.281  1.7655  0.4317 -2.3929
  551SOL    HW2 1653   1.239   2.740   1.285  1.1497  1.0265 -0.1586
  552SOL     OW 1654   2.746   2.735   2.876  0.3164 -0.0781 -0.1258
  552SOL    HW1 1655   2.797   2.775   2.952 -1.9331 -0.1831 -0.4788
  552SOL    HW2 1656   2.647   2.733   2.900 -0.2209 -1.4799  4.1046
  553SOL     OW 1657   0.577   2.991   0.576  0.0446 -0.6012  0.2057
  553SOL    HW1 1658   0.583   3.072   0.637  1.7139 -0.6295  2.0379
  553SOL    HW2 1659   0.636   3.004   0.493  1.1566 -0.0906  3.0193
  554SOL     OW 1660   1.908   2.120   1.700 -0.3314 -0.4254  0.2899
  554SOL    HW1 1661   1.835   2.167   1.745  0.8138  0.3462 -0.0930
  554SOL    HW2 1662   1.890   2.105   1.601 -0.4406 -2.5079 -0.9326
  555SOL     OW 1663   1.487   2.673   1.901 -0.1638  0.4949  0.3226
  555SOL    HW1 1664   1.398   2.628   1.871 -1.9218  0.7613 -1.7962
  555SOL    HW2 1665   1.490   2.772   1.891 -1.8958 -2.6570 -0.8289
  556SOL     OW 1666   1.594   1.670   0.774 -0.2515  0.0042  0.0205
  556SOL    HW1 1667   1.616   1.598   0.840  0.7423 -1.2257  0.2785
  556SOL    HW2 1668   1.679   1.720   0.741  1.6970  0.4870  0.2945
  557SOL     OW 1669   1.438   2.009   1.827 -0.4266 -0.7954  0.1692
  557SOL    HW1 1670   1.343   2.009   1.782 -2.5497 -0.1518 -4.6779
  557SOL    HW2 1671   1.433   2.051   1.922  0.1481 -0.1138  0.4075
  558SOL     OW 1672   0.003   0.708   2.219  0.1023  0.9031  0.0204
  558SOL    HW1 1673   0.032   0.637   2.149  0.9027 -2.6531 -0.5518
  558SOL    HW2 1674   0.074   0.763   2.268  1.3955  5.1486  2.6215
  559SOL     OW 1675   2.154   2.745   2.133  0.3183 -0.7885  0.1793
  559SOL    HW1 1676   2.259   2.747   2.115  4.3287  0.1376  0.7848
  559SOL    HW2 1677   2.139   2.729   2.236 -2.6213 -0.6349  2.5046
  560SOL     OW 1678   0.294   3.011   2.785  0.1609 -0.3898 -0.3800
  560SOL    HW1 1679   0.333   3.081   2.847  0.4808 -1.2015  0.8177
  560SOL    HW2 1680   0.192   3.003   2.806 -0.6478 -0.2654  0.8280
  561SOL     OW 1681   1.653   1.021   0.344 -0.0595  0.0979 -0.5088
  561SOL    HW1 1682   1.554   1.004   0.325 -1.7917  1.0777  1.5866
  561SOL    HW2 1683   1.655   1.045   0.441 -1.1543 -1.9541 -1.4590
  562SOL     OW 1684   0.915   1.152   2.248  0.1836 -0.7736  0.1396
  562SOL    HW1 1685   0.879   1.120   2.334  0.6164  2.0473 -1.5150
  562SOL    HW2 1686   0.955   1.243   2.256 -0.6881 -1.7001  2.6345
  563SOL     OW 1687   1.808   2.422   0.042  0.3096  1.1205  1.0782
  563SOL    HW1 1688   1.807   2.320   0.036 -0.0521  2.2987 -1.9795
  563SOL    HW2 1689   1.717   2.452   0.079 -0.7625 -1.0138 -0.6785
  564SOL     OW 1690   0.108   1.941   0.505  0.1900 -0.4347  0.1808
  564SOL    HW1 1691   0.115   2.012   0.432 -0.4716 -0.0701 -3.4526
  564SOL    HW2 1692   0.011   1.936   0.539  0.8418 -0.8438  1.6201
  565SOL     OW 1693   0.807   2.576   2.938  0.0427 -0.1131  0.3067
  565SOL    HW1 1694   0.764   2.508   3.002  0.0684  0.6565 -0.1638
  565SOL    HW2 1695   0.737   2.616   2.873 -3.6311  2.4605 -0.5654
  566SOL     OW 1696   2.074   2.717   2.887 -0.0036  0.0443  0.2602
  566SOL    HW1 1697   1.999   2.742   2.820  1.2259 -0.8414 -0.7751
  566SOL    HW2 1698   2.027   2.686   2.968 -3.7044 -3.6570  0.5561
  567SOL     OW 1699   2.592   1.278   0.922  0.4887  0.1130 -0.4619
  567SOL    HW1 1700   2.677   1.243   0.966  0.3492 -0.2587  0.5086
  567SOL    HW2 1701   2.611   1.298   0.822  0.2256  2.0519  0.4286
  568SOL     OW 1702   1.986   1.220   2.805 -0.0107 -0.6301  0.4516
  568SOL    HW1 1703   2.046   1.182   2.728  0.8444 -0.3806 -0.6155
  568SOL    HW2 1704   1.884   1.209   2.798 -0.9609  2.0429  1.8780
  569SOL     OW 1705   2.138   1.652   2.507 -0.7583  0.3322 -0.5932
  569SOL    HW1 1706   2.228   1.686   2.483  0.2412  0.4105  0.6547
  569SOL    HW2 1707   2.133   1.557   2.469  1.3454 -0.7424  0.7782
  570SOL     OW 1708   2.911   2.572   2.047 -0.2277  0.2528  0.6338
  570SOL    HW1 1709   2.992   2.591   2.102 -0.4599  2.2231  1.3578
  570SOL    HW2 1710   2.935   2.617   1.956  0.7433  1.0720  2.5015
  571SOL     OW 1711   0.396   0.156   1.896  0.1391 -0.3767 -0.0857
  571SOL    HW1 1712   0.337   0.233   1.861 -0.9701 -0.0385  0.4265
  571SOL    HW2 1713   0.339   0.071   1.899 -1.5551  2.3645  2.4562
  572SOL     OW 1714   1.012   1.847   0.856  0.0389  0.1741 -0.4523
  572SOL    HW1 1715   1.080   1.891   0.796  2.9896 -3.9447 -0.3551
  572SOL    HW2 1716   1.053   1.839   0.952  0.2177 -1.4646 -1.9229
  573SOL     OW 1717   1.262   0.466   0.409 -0.2381  0.1328 -0.1481
  573SOL    HW1 1718   1.169   0.489   0.445 -0.3821  1.6783  0.7800
  573SOL    HW2 1719   1.280   0.514   0.326 -3.2758 -1.2797  1.1243
  574SOL     OW 1720   0.353   2.991   0.399 -0.1458 -0.1583 -0.5117
  574SOL    HW1 1721   0.286   3.068   0.393 -0.8357  2.5013 -1.7882
  574SOL    HW2 1722   0.427   3.016   0.468  2.1508  0.7384  1.5375
  575SOL     OW 1723   0.377   1.414   1.167  0.2413  0.4316  0.0816
  575SOL    HW1 1724   0.379   1.444   1.065 -1.3963  2.2895 -1.7291
  575SOL    HW2 1725   0.463   1.366   1.183 -3.9879  3.3407 -1.7868
  576SOL     OW 1726   2.680   0.164   1.991  0.0526 -0.2830 -0.3285
  576SOL    HW1 1727   2.698   0.182   2.093 -1.6446  1.1222 -0.5242
  576SOL    HW2 1728   2.584   0.205   1.975 -2.0626  0.5365 -2.0434
  577SOL     OW 1729   2.739   1.666   2.023  0.8158 -0.0681 -0.1252
  577SOL    HW1 1730   2.655   1.727   2.024 -1.4311  1.8197 -1.3526
  577SOL    HW2 1731   2.787   1.671   2.113  0.5099 -1.2908 -3.6140
  578SOL     OW 1732   0.963   3.053   2.064  0.1743 -0.2148  0.5233
  578SOL    HW1 1733   0.997   0.010   2.140 -0.3207 -1.9536 -1.0657
  578SOL    HW2 1734   0.888   2.989   2.092  0.0660 -1.5515  1.7880
  579SOL     OW 1735   1.903   1.986   2.038 -0.4228  0.1154  0.5572
  579SOL    HW1 1736   1.947   1.937   1.956  2.6885 -0.2124 -0.0395
  579SOL    HW2 1737   1.895   2.085   2.017 -0.3484 -1.0831  1.8153
  580SOL     OW 1738   2.012   1.273   2.051  0.1124  0.4996 -0.0344
  580SOL    HW1 1739   1.974   1.202   1.993  0.3634  2.2784  0.8371
  580SOL    HW2 1740   2.106   1.242   2.081  0.2743  0.1278  2.9177
  581SOL     OW 1741   1.566   1.134   2.399 -0.0361 -0.2951  0.0271
  581SOL    HW1 1742   1.562   1.093   2.308 -0.5071  0.7944  2.4542
  581SOL    HW2 1743   1.655   1.189   2.404 -1.9710 -1.1629 -2.4981
  582SOL     OW 1744   2.985   2.257   1.664 -0.5379 -0.4950  0.0750
  582SOL    HW1 1745   3.042   2.177   1.689  1.0582 -0.7035  1.1411
  582SOL    HW2 1746   2.924   2.287   1.738  0.9128  0.2192 -0.9755
  583SOL     OW 1747   1.711   0.789   0.672  0.6251  0.4568  0.0736
  583SOL    HW1 1748   1.800   0.760   0.706  0.9108  2.2911 -3.3787
  583SOL    HW2 1749   1.698   0.743   0.580  0.8109  0.9504  0.4102
  584SOL     OW 1750   0.963   2.519   0.404  0.0761  0.0852  0.0261
  584SOL    HW1 1751   0.879   2.567   0.370 -0.0395 -0.0464  0.0846
  584SOL    HW2 1752   1.037   2.540   0.342 -2.5450  1.1321 -0.6108
  585SOL     OW 1753   3.059   2.527   0.008  0.4175 -0.5055  0.2160
  585SOL    HW1 1754   2.982   2.466   3.081  0.5216  1.7721 -2.6738
  585SOL    HW2 1755   0.011   2.554   3.014  1.6898 -0.2273  1.2922
  586SOL     OW 1756   2.388   0.996   0.402 -0.2316 -0.0183 -0.1934
  586SOL    HW1 1757   2.378   0.958   0.494 -0.5884  0.6468 -0.4664
  586SOL    HW2 1758   2.323   1.076   0.392 -4.7349  2.8890 -1.0191
  587SOL     OW 1759   0.039   1.507   0.462  0.1629  0.3054 -0.0770
  587SOL    HW1 1760   0.088   1.589   0.423 -2.7816  2.3155 -0.1867
  587SOL    HW2 1761   0.072   1.475   0.554 -0.0469 -1.1813 -0.1971
  588SOL     OW 1762   3.041   0.482   0.741  0.0158 -0.2327  0.4773
  588SOL    HW1 1763   0.033   0.517   0.696  0.3983 -2.3489 -0.2315
  588SOL    HW2 1764   3.054   0.386   0.775  1.0918 -0.3075  0.1566
  589SOL     OW 1765   1.345   2.998   0.752 -0.5598  0.3568  0.6236
  589SOL    HW1 1766   1.272   2.960   0.813 -0.4791 -2.5830  2.9848
  589SOL    HW2 1767   1.360   0.005   0.779 -1.8524  0.0235  2.5092
  590SOL     OW 1768   2.417   2.168   0.226  0.0752 -0.0571 -0.9079
  590SOL    HW1 1769   2.330   2.111   0.229 -1.9145 -1.8976 -0.0493
  590SOL    HW2 1770   2.422   2.239   0.301 -0.4950  1.9748 -0.5732
  591SOL     OW 1771   0.126   2.394   1.870  0.1228 -0.3594  0.9099
  591SOL    HW1 1772   0.188   2.371   1.789  1.3165 -1.3346 -0.2754
  591SOL    HW2 1773   0.024   2.386   1.848 -0.6262  1.1035 -2.1451
  592SOL     OW 1774   0.311   1.552   2.151  0.3610 -0.0765 -0.1109
  592SOL    HW1 1775   0.293   1.450   2.164  0.9295 -0.2159 -0.1875
  592SOL    HW2 1776   0.229   1.600   2.117  0.5350  3.0011  0.5679
  593SOL     OW 1777   1.415   1.959   1.351  0.4252 -0.7258  0.1295
  593SOL    HW1 1778   1.362   1.885   1.404 -2.0626 -0.9561  1.6783
  593SOL    HW2 1779   1.484   2.000   1.417 -0.1700  0.8184  2.2062
  594SOL     OW 1780   0.486   1.225   2.821  0.1826  0.2182  0.1194
  594SOL    HW1 1781   0.446   1.130   2.830 -2.2889 -1.6788 -1.1881
  594SOL    HW2 1782   0.582   1.234   2.851 -0.7877 -2.5740 -0.4995
  595SOL     OW 1783   1.808   0.521   0.987  0.5089  0.1474  0.1374
  595SOL    HW1 1784   1.774   0.576   1.066 -0.5432  0.9251  2.3714
  595SOL    HW2 1785   1.880   0.456   1.015  0.4558  1.0873  1.5105
  596SOL     OW 1786   0.462   1.054   1.232  0.1870  0.0165 -0.2254
  596SOL    HW1 1787   0.555   1.093   1.242 -0.0225  1.3749 -0.1074
  596SOL    HW2 1788   0.405   1.066   1.315  1.9734 -1.8998 -0.2750
  597SOL     OW 1789   0.141   2.568   2.488 -0.6428  0.2438  0.7493
  597SOL    HW1 1790   0.149   2.647   2.551  0.4515 -3.5365  0.0422
  597SOL    HW2 1791   0.201   2.492   2.521 -2.1224 -0.3602 -2.3396
  598SOL     OW 1792   2.167   2.197   2.390 -0.0112 -0.8290  0.3937
  598SOL    HW1 1793   2.090   2.158   2.337  1.0166  0.4587  0.6010
  598SOL    HW2 1794   2.191   2.291   2.360  0.4464  1.6632  1.9873
  599SOL     OW 1795   1.392   0.938   0.495 -0.2314 -0.0050 -0.0548
  599SOL    HW1 1796   1.329   1.016   0.482 -0.7911 -1.2662  0.8129
  599SOL    HW2 1797   1.482   0.966   0.527 -2.9246 -2.1352 -0.6167
  600SOL     OW 1798   1.328   0.211   0.496  0.5948 -0.6539  0.0671
  600SOL    HW1 1799   1.307   0.310   0.486  0.9189 -1.6309  0.3067
  600SOL    HW2 1800   1.368   0.187   0.586 -1.1259 -3.2798  2.1456
  601SOL     OW 1801   0.626   0.492   1.601 -0.0734  0.0305  0.1302
  601SOL    HW1 1802   0.587   0.487   1.696  2.4839  3.0929  3.1445
  601SOL    HW2 1803   0.570   0.445   1.531  0.8069  0.6592 -1.1704
  602SOL     OW 1804   0.198   2.521   0.503  0.3935 -0.0508  0.3697
  602SOL    HW1 1805   0.188   2.422   0.513 -1.5408 -1.3075  0.0418
  602SOL    HW2 1806   0.274   2.550   0.446 -0.7500  1.7185 -1.0544
  603SOL     OW 1807   0.899   2.912   2.492 -0.2855  0.6214  0.2334
  603SOL    HW1 1808   0.891   2.923   2.594 -0.7378 -1.3531 -0.2735
  603SOL    HW2 1809   0.905   3.000   2.440 -0.8273 -1.8329 -0.7761
  604SOL     OW 1810   1.192   2.529   0.254 -0.1775  0.6289  0.0490
  604SOL    HW1 1811   1.284   2.504   0.297 -1.0147 -0.3950  1.2527
  604SOL    HW2 1812   1.206   2.605   0.186  3.2562  2.0707 -2.3312
  605SOL     OW 1813   1.755   1.167   1.737  0.3951 -0.0816 -0.5163
  605SOL    HW1 1814   1.764   1.260   1.777 -0.7332 -2.6341 -1.7261
  605SOL    HW2 1815   1.839   1.142   1.692  1.7426  1.2192  0.4440
  606SOL     OW 1816   1.095   0.947   2.653 -0.5577 -0.1426  0.3801
  606SOL    HW1 1817   1.091   0.867   2.594 -1.6890  0.6711  3.1109
  606SOL    HW2 1818   1.121   1.029   2.602  2.0209  0.1826 -3.1696
  607SOL     OW 1819   0.727   1.136   1.265  0.0892  0.2892  0.1351
  607SOL    HW1 1820   0.716   1.050   1.322  2.1040 -0.3536  0.6907
  607SOL    HW2 1821   0.821   1.149   1.225  3.0106  1.3036  0.6212
  608SOL     OW 1822   2.431   2.091   2.108  0.3466  0.2943 -0.2553
  608SOL    HW1 1823   2.344   2.126   2.072  1.7711  0.8591  0.9953
  608SOL    HW2 1824   2.515   2.126   2.062  0.2805  0.3580  1.0903
  609SOL     OW 1825   2.075   0.112   3.034 -0.4907  0.0837 -1.0635
  609SOL    HW1 1826   2.055   0.186   0.008  1.1666  2.3655 -0.2202
  609SOL    HW2 1827   2.113   0.027   3.078 -0.3448 -1.2288  0.1636
  610SOL     OW 1828   0.265   2.816   1.604 -0.1402  1.0326 -0.2165
  610SOL    HW1 1829   0.284   2.761   1.690  0.8530  2.7435 -0.3010
  610SOL    HW2 1830   0.349   2.857   1.573 -0.4846 -0.6320  0.5409
  611SOL     OW 1831   1.304   1.594   1.234  0.2550 -0.1335  0.4865
  611SOL    HW1 1832   1.208   1.587   1.256  0.8431  2.5568 -0.2622
  611SOL    HW2 1833   1.353   1.504   1.234  0.1520  0.3508  0.4679
  612SOL     OW 1834   0.685   0.096   2.287 -0.4247  0.1442  0.5076
  612SOL    HW1 1835   0.707   0.195   2.278 -1.6207 -0.9302 -0.4324
  612SOL    HW2 1836   0.687   0.057   2.382  0.8312 -0.7956 -1.0792
  613SOL     OW 1837   2.864   1.470   0.392 -0.4194  0.0257 -0.2744
  613SOL    HW1 1838   2.849   1.387   0.446  0.7759  0.8769  0.7991
  613SOL    HW2 1839   2.950   1.519   0.420 -0.0564  0.5016  1.1901
  614SOL     OW 1840   1.696   0.266   1.809  0.7796  0.1054  0.0187
  614SOL    HW1 1841   1.782   0.206   1.808  0.7109  2.6588 -1.4308
  614SOL    HW2 1842   1.718   0.366   1.829 -0.4910  0.7596 -0.1433
  615SOL     OW 1843   0.876   1.773   1.373  0.8295  0.3505 -0.6246
  615SOL    HW1 1844   0.959   1.718   1.343  2.1100  0.6173 -2.0890
  615SOL    HW2 1845   0.900   1.869   1.384  3.3935 -1.1980  0.9046
  616SOL     OW 1846   1.521   1.804   3.089  0.5495 -0.1314  0.2264
  616SOL    HW1 1847   1.591   1.725   3.073  1.4022 -0.4044 -1.2754
  616SOL    HW2 1848   1.554   1.879   0.052  0.6246 -3.1826 -2.4498
  617SOL     OW 1849   1.880   3.011   0.111 -0.1190  0.2379 -0.2434
  617SOL    HW1 1850   1.836   3.013   0.019 -0.8449 -2.2277  2.6555
  617SOL    HW2 1851   1.842   2.933   0.167 -0.7810  2.3762  0.3154
  618SOL     OW 1852   0.767   0.783   2.662  0.5302 -0.8857  0.0073
  618SOL    HW1 1853   0.713   0.852   2.712  0.2731 -0.2100  2.8170
  618SOL    HW2 1854   0.713   0.756   2.580  2.4025 -2.0166 -0.4816
  619SOL     OW 1855   2.749   1.262   0.562 -0.3512  0.2480 -0.8287
  619SOL    HW1 1856   2.730   1.191   0.488  1.3005 -3.6854 -1.0207
  619SOL    HW2 1857   2.665   1.314   0.596 -0.3388  0.4982  1.7669
  620SOL     OW 1858   2.505   2.679   2.982  0.5571 -0.2818  0.7380
  620SOL    HW1 1859   2.433   2.755   2.984  1.2820 -3.3255  2.2165
  620SOL    HW2 1860   2.471   2.596   2.932 -1.1326 -1.3451  1.8725
  621SOL     OW 1861   2.518   1.129   0.139 -0.3712  0.2197 -0.3464
  621SOL    HW1 1862   2.503   1.097   0.235 -1.1253 -0.5473  3.9481
  621SOL    HW2 1863   2.431   1.153   0.098  2.6854  0.4019  2.2932
  622SOL     OW 1864   1.347   2.386   2.317  0.4774  0.5563 -0.3937
  622SOL    HW1 1865   1.382   2.411   2.224 -0.1364  0.0363 -0.6355
  622SOL    HW2 1866   1.419   2.372   2.389 -1.7172 -2.0730  0.7303
  623SOL     OW 1867   0.975   1.667   0.280 -0.5185 -0.0507 -0.6376
  623SOL    HW1 1868   0.980   1.578   0.228 -0.5023  0.2464 -0.5928
  623SOL    HW2 1869   1.016   1.742   0.222  0.6345 -0.0681 -0.2698
  624SOL     OW 1870   0.352   0.120   2.969  0.0527 -0.1644 -0.5377
  624SOL    HW1 1871   0.267   0.135   3.021 -0.7445 -2.3179  1.0196
  624SOL    HW2 1872   0.434   0.114   3.030 -0.7906  0.5658  4.1023
  625SOL     OW 1873   0.812   1.962   0.503  0.3540 -0.2865  1.0406
  625SOL    HW1 1874   0.881   1.969   0.422  1.3548  1.4775 -3.7633
  625SOL    HW2 1875   0.765   2.047   0.523  2.5428  0.2230  0.0631
  626SOL     OW 1876   2.675   3.085   2.735  0.0251  0.0483 -0.5183
  626SOL    HW1 1877   2.581   3.077   2.683 -0.5219  0.7502 -2.1850
  626SOL    HW2 1878   2.653   3.061   2.833 -1.3802  1.2506 -0.4100
  627SOL     OW 1879   1.418   1.358   2.507 -0.6469 -0.0928 -0.1781
  627SOL    HW1 1880   1.378   1.360   2.601  0.4057  1.6456  0.8640
  627SOL    HW2 1881   1.463   1.268   2.484  1.6948 -1.0268  1.1269
  628SOL     OW 1882   0.299   0.602   2.315  0.0333 -0.1647 -0.4447
  628SOL    HW1 1883   0.226   0.557   2.373  0.2913 -0.0395  0.6003
  628SOL    HW2 1884   0.382   0.558   2.348 -2.6742  0.0368 -0.0094
  629SOL     OW 1885   0.105   2.788   2.033  0.7599  0.2887 -0.0989
  629SOL    HW1 1886   0.029   2.767   1.968  2.6275 -1.4588  0.0407
  629SOL    HW2 1887   0.059   2.821   2.124 -2.2074  0.0375 -0.4272
  630SOL     OW 1888   1.596   0.996   1.858 -0.0579 -0.3019 -0.0117
  630SOL    HW1 1889   1.533   0.939   1.800 -1.6313 -1.1051 -1.2287
  630SOL    HW2 1890   1.654   1.066   1.803  0.3510  3.4448 -0.2002
  631SOL     OW 1891   2.279   0.842   0.209 -0.3905  0.1671 -0.5297
  631SOL    HW1 1892   2.323   0.752   0.209  0.2410 -0.5443  3.7947
  631SOL    HW2 1893   2.324   0.903   0.275  3.0448  1.0187 -2.7420
  632SOL     OW 1894   1.982   0.303   2.072 -0.2799  0.0333 -0.5021
  632SOL    HW1 1895   2.044   0.338   2.145  0.5474  1.8952 -0.1309
  632SOL    HW2 1896   2.034   0.227   2.024  3.4564  0.5637 -1.9138
  633SOL     OW 1897   0.863   2.827   3.091 -0.3191 -0.3646  0.2583
  633SOL    HW1 1898   0.884   2.824   0.097  0.0981  0.9805  0.9683
  633SOL    HW2 1899   0.833   2.740   3.054  0.9622 -2.9195  0.8286
  634SOL     OW 1900   1.105   2.401   2.675 -0.0952 -0.4848  0.0293
  634SOL    HW1 1901   1.096   2.465   2.594  0.3707  1.3058  0.0600
  634SOL    HW2 1902   1.190   2.345   2.665  1.8908  0.1850 -1.1431
  635SOL     OW 1903   2.504   0.180   2.942 -0.2458 -0.2180  0.7261
  635SOL    HW1 1904   2.522   0.214   3.039 -0.5740 -2.5944  1.0634
  635SOL    HW2 1905   2.418   0.224   2.901 -0.1791  1.3219 -1.1405
  636SOL     OW 1906   0.810   1.188   0.856  0.5666 -0.5632  0.4464
  636SOL    HW1 1907   0.729   1.235   0.818  0.9989  1.0625  0.2647
  636SOL    HW2 1908   0.796   1.091   0.882  2.2596  1.0597  2.1895
  637SOL     OW 1909   0.184   2.253   0.529 -0.2266  0.1697  0.0856
  637SOL    HW1 1910   0.209   2.216   0.618  0.6098  0.8551  0.5333
  637SOL    HW2 1911   0.242   2.207   0.455  1.8660 -0.4906 -0.1292
  638SOL     OW 1912   0.642   2.979   3.057  0.1714  0.0363 -0.2948
  638SOL    HW1 1913   0.734   2.938   3.062 -0.6691 -1.4148  0.4072
  638SOL    HW2 1914   0.571   2.908   3.054  0.1737  1.5572  0.4394
  639SOL     OW 1915   1.445   1.656   0.312  0.2073 -0.6500 -0.3317
  639SOL    HW1 1916   1.418   1.622   0.403  0.3782  1.1035 -1.2393
  639SOL    HW2 1917   1.391   1.745   0.288 -0.0769  2.9083 -0.5042
  640SOL     OW 1918   1.698   2.759   0.939 -0.3944 -0.1032  0.3717
  640SOL    HW1 1919   1.733   2.704   0.861 -3.1009  1.5882 -0.2480
  640SOL    HW2 1920   1.724   2.858   0.926 -0.7903  1.8526 -3.1059
  641SOL     OW 1921   3.070   2.645   0.622  0.0768 -0.4714 -0.7290
  641SOL    HW1 1922   0.053   2.596   0.572 -2.1406  2.3297  0.4080
  641SOL    HW2 1923   2.996   2.578   0.657 -4.1064  0.3990  0.1437
  642SOL     OW 1924   0.845   0.305   1.677  0.3038 -0.0388  0.7008
  642SOL    HW1 1925   0.854   0.261   1.765  0.7455 -0.3119  0.7970
  642SOL    HW2 1926   0.771   0.373   1.672 -1.4727  0.5060 -0.4891
  643SOL     OW 1927   0.614   1.847   2.243 -0.2479 -0.0944 -0.3405
  643SOL    HW1 1928   0.526   1.899   2.242 -3.9264 -1.3200  0.1588
  643SOL    HW2 1929   0.693   1.907   2.247  0.2669 -0.6560 -0.5689
  644SOL     OW 1930   0.856   0.009   0.373  0.7988 -0.2380  0.1387
  644SOL    HW1 1931   0.892   3.006   0.373  0.0431  2.5414  1.0395
  644SOL    HW2 1932   0.923   0.075   0.413 -0.3075 -0.5081 -0.3023
  645SOL     OW 1933   1.212   1.575   2.844 -0.6003 -0.3017  0.2628
  645SOL    HW1 1934   1.258   1.636   2.779  1.3224 -0.0864  2.7686
  645SOL    HW2 1935   1.241   1.600   2.940  1.7866  2.2297 -1.0769
  646SOL     OW 1936   0.400   1.534   0.078  0.1185  0.1311  0.0010
  646SOL    HW1 1937   0.411   1.595   0.157  1.8850  0.5542 -1.0185
  646SOL    HW2 1938   0.391   1.442   0.119  2.6731  0.0735 -0.3504
  647SOL     OW 1939   1.042   0.047   1.097  0.7519  0.0426 -0.5641
  647SOL    HW1 1940   1.049   0.111   1.178  0.3312 -0.3614 -0.3341
  647SOL    HW2 1941   1.039   3.041   1.124 -2.9580  1.9426  0.5918
  648SOL     OW 1942   2.634   2.877   2.039 -0.2232  0.3344  0.1693
  648SOL    HW1 1943   2.584   2.966   2.052 -1.0337  2.0376  0.2587
  648SOL    HW2 1944   2.729   2.895   2.011 -1.0643  0.2414 -0.1556
  649SOL     OW 1945   0.761   2.322   3.044 -0.1296  0.6870  0.0714
  649SOL    HW1 1946   0.775   2.224   3.026  1.1876  2.7809 -1.0232
  649SOL    HW2 1947   0.706   2.337   0.036 -0.3171 -0.9631 -0.3806
  650SOL     OW 1948   0.311   1.947   1.394 -0.3595 -0.4146  0.2096
  650SOL    HW1 1949   0.378   1.899   1.335  1.2245 -0.0082 -0.4762
  650SOL    HW2 1950   0.259   2.020   1.346 -0.2390  3.7977  1.6246
  651SOL     OW 1951   0.571   0.155   0.040 -0.5121  0.1859  0.0077
  651SOL    HW1 1952   0.616   0.164   0.133  0.8179 -0.3868  0.8260
  651SOL    HW2 1953   0.604   0.065   0.001  1.1974 -0.9367 -0.6567
  652SOL     OW 1954   2.614   1.997   0.242  0.0450  0.5222 -0.3746
  652SOL    HW1 1955   2.608   1.929   0.164  2.2824 -1.8427 -0.6375
  652SOL    HW2 1956   2.547   2.078   0.233 -2.0000  1.9254  0.5511
  653SOL     OW 1957   3.063   0.168   0.744  0.8447 -0.0673 -0.6026
  653SOL    HW1 1958   2.976   0.211   0.711  2.6688 -0.1595 -1.4943
  653SOL    HW2 1959   3.051   0.123   0.836  2.6470 -3.6914  0.8611
  654SOL     OW 1960   1.680   0.107   2.594 -0.9031  0.4198 -0.0934
  654SOL    HW1 1961   1.628   0.125   2.683 -2.7144  2.3884  1.5126
  654SOL    HW2 1962   1.648   0.018   2.560  2.1245 -0.4208 -1.4431
  655SOL     OW 1963   0.698   2.435   1.383 -0.4767  0.3565  0.4572
  655SOL    HW1 1964   0.695   2.387   1.478  0.3035  0.0601  2.5684
  655SOL    HW2 1965   0.604   2.450   1.346 -2.6172  2.2646 -1.7753
  656SOL     OW 1966   0.302   0.389   1.801 -0.0773  0.0411 -0.4538
  656SOL    HW1 1967   0.390   0.383   1.847 -0.3359 -1.0762 -3.4843
  656SOL    HW2 1968   0.237   0.462   1.838 -1.9830 -0.2307  1.4260
  657SOL     OW 1969   2.124   0.930   2.003  0.0712 -0.3353 -0.6546
  657SOL    HW1 1970   2.026   0.955   1.984 -2.1786 -1.0053 -0.7229
  657SOL    HW2 1971   2.122   0.829   2.013  2.0690 -3.2138  0.9705
  658SOL     OW 1972   2.391   1.528   1.246 -0.4853 -0.7035 -0.1190
  658SOL    HW1 1973   2.396   1.617   1.298  0.9367  0.2763 -0.5398
  658SOL    HW2 1974   2.329   1.473   1.303 -0.8324  2.4902  1.6184
  659SOL     OW 1975   2.589   3.021   2.986 -0.2415 -0.0047  0.2411
  659SOL    HW1 1976   2.553   0.022   2.973  2.7545  1.4289  1.0509
  659SOL    HW2 1977   2.512   2.953   2.987 -1.7824  1.1796  1.7317
  660SOL     OW 1978   1.174   1.314   2.770 -0.1776 -0.7770  0.5409
  660SOL    HW1 1979   1.159   1.412   2.791 -2.7268 -0.4614 -0.7259
  660SOL    HW2 1980   1.217   1.264   2.851  1.1279 -1.0814 -0.1595
  661SOL     OW 1981   2.358   2.352   0.855 -0.3272 -0.1546 -0.4458
  661SOL    HW1 1982   2.450   2.314   0.848  0.9397 -2.5225  1.2297
  661SOL    HW2 1983   2.322   2.310   0.941  3.1326  0.2431 -2.9439
  662SOL     OW 1984   0.626   0.821   0.158  0.1977  0.1872  0.5283
  662SOL    HW1 1985   0.645   0.742   0.215  3.5361  1.6309 -1.4179
  662SOL    HW2 1986   0.660   0.908   0.199  1.4896 -1.6377 -0.0689
  663SOL     OW 1987   1.223   2.033   0.014  0.7412 -0.0663 -0.0889
  663SOL    HW1 1988   1.307   1.998   0.055 -1.9182  0.3262 -4.0484
  663SOL    HW2 1989   1.199   2.125   0.047  0.0986 -2.0760  0.6983
  664SOL     OW 1990   0.530   2.880   1.564  0.2504 -0.2932 -0.4505
  664SOL    HW1 1991   0.584   2.922   1.489  0.6377 -0.2118 -1.4658
  664SOL    HW2 1992   0.554   2.914   1.656 -0.6833 -0.3741  2.9265
  665SOL     OW 1993   1.993   1.886   1.799  0.3726  0.4613 -0.0701
  665SOL    HW1 1994   1.971   1.971   1.747  0.4272 -2.8310  0.1498
  665SOL    HW2 1995   1.920   1.814   1.780 -1.0533 -0.6808 -0.7513
  666SOL     OW 1996   0.539   2.635   0.225 -0.1214 -0.5824  0.0656
  666SOL    HW1 1997   0.451   2.681   0.260 -0.3563 -0.9497 -2.3290
  666SOL    HW2 1998   0.535   2.637   0.118  0.9964 -0.5232 -1.4649
  667SOL     OW 1999   1.721   1.672   1.486  0.0912 -0.2570 -0.1286
  667SOL    HW1 2000   1.810   1.720   1.459 -0.1014  0.6409 -1.3545
  667SOL    HW2 2001   1.660   1.737   1.535  0.3552  1.3054  0.4339
  668SOL     OW 2002   0.640   0.738   2.425  0.1055 -0.1523 -0.4231
  668SOL    HW1 2003   0.597   0.648   2.417  1.4230 -0.1138  0.0521
  668SOL    HW2 2004   0.734   0.725   2.392  1.4060 -1.0312  0.8167
  669SOL     OW 2005   1.827   2.286   2.375 -0.4830  0.0475 -0.4603
  669SOL    HW1 2006   1.887   2.213   2.333 -1.0404 -0.9754  0.4991
  669SOL    HW2 2007   1.790   2.248   2.463 -2.5098  0.0794 -0.1197
  670SOL     OW 2008   2.160   1.988   0.254 -0.1325 -0.3899  0.1595
  670SOL    HW1 2009   2.070   1.952   0.232 -0.8200 -0.4275  2.1417
  670SOL    HW2 2010   2.159   2.090   0.271  0.2192  0.9006  0.0071
  671SOL     OW 2011   0.619   1.378   1.261 -0.3619 -0.1017  0.5215
  671SOL    HW1 2012   0.646   1.470   1.220 -0.1846 -0.5785 -0.5381
  671SOL    HW2 2013   0.689   1.303   1.251  2.2631 -3.0027 -2.9644
  672SOL     OW 2014   2.644   1.128   2.380 -1.0886  0.2456 -0.4356
  672SOL    HW1 2015   2.693   1.094   2.300 -2.1096 -0.6387  5.3895
  672SOL    HW2 2016   2.659   1.060   2.453 -2.1319 -1.2064  0.1422
  673SOL     OW 2017   3.030   1.981   2.674 -0.0316 -0.3389 -0.2611
  673SOL    HW1 2018   2.942   2.036   2.655 -0.0344  0.9084 -0.7996
  673SOL    HW2 2019   3.021   1.890   2.632 -0.8897 -2.6846  1.1287
  674SOL     OW 2020   0.890   2.585   2.110  0.2999  0.3345 -0.1135
  674SOL    HW1 2021   0.869   2.665   2.166 -0.9733 -1.9829 -0.3300
  674SOL    HW2 2022   0.814   2.550   2.052  0.4405  2.0693  1.8563
  675SOL     OW 2023   0.716   0.838   1.367  0.0066  0.2833  0.3688
  675SOL    HW1 2024   0.783   0.800   1.436  0.0001 -0.1827 -0.6759
  675SOL    HW2 2025   0.625   0.853   1.412  0.3865 -1.7865  0.9419
  676SOL     OW 2026   1.831   0.811   0.310  0.5467  0.1484  0.0426
  676SOL    HW1 2027   1.762   0.887   0.297 -2.5829  0.3583  1.8602
  676SOL    HW2 2028   1.883   0.819   0.395 -3.3148 -1.1041 -0.1925
  677SOL     OW 2029   2.894   1.768   2.860  0.3339 -0.7185 -0.9490
  677SOL    HW1 2030   2.885   1.688   2.798  0.1400 -2.0135  0.5080
  677SOL    HW2 2031   2.991   1.773   2.886 -1.2730 -2.1505  0.5425
  678SOL     OW 2032   2.994   2.445   1.041  0.5581  0.3404 -0.0705
  678SOL    HW1 2033   3.025   2.517   1.106  0.8599  2.0421 -3.0475
  678SOL    HW2 2034   2.899   2.462   1.012  1.4796 -2.3628 -0.0234
  679SOL     OW 2035   1.929   2.790   0.551 -0.2842  0.1756  0.0869
  679SOL    HW1 2036   1.878   2.872   0.523  0.0873 -1.7102 -0.7559
  679SOL    HW2 2037   2.029   2.813   0.560  0.2556 -1.0690  1.3508
  680SOL     OW 2038   0.006   2.464   2.242 -0.5703  0.2411  0.1700
  680SOL    HW1 2039   3.039   2.383   2.250 -1.1592  0.0980 -0.4189
  680SOL    HW2 2040   0.034   2.498   2.331 -0.6001  0.0823 -1.7362
  681SOL     OW 2041   3.092   1.264   1.513 -0.2245 -0.8176  0.0333
  681SOL    HW1 2042   0.032   1.292   1.419 -2.4370  0.5867  1.6979
  681SOL    HW2 2043   0.071   1.294   1.577  0.4825 -0.5571  0.5149
  682SOL     OW 2044   0.469   1.828   1.209 -0.6485  0.1467 -0.4451
  682SOL    HW1 2045   0.537   1.765   1.167 -0.0278 -1.0830 -0.4586
  682SOL    HW2 2046   0.390   1.841   1.150  2.7841  2.1686  1.1368
  683SOL     OW 2047   2.857   1.798   1.374  0.3266  0.2069  0.0995
  683SOL    HW1 2048   2.933   1.732   1.363  1.4012  2.7062  0.7374
  683SOL    HW2 2049   2.774   1.751   1.416  0.0434 -1.8447  0.2524
  684SOL     OW 2050   0.030   1.314   0.027  1.1353  0.1619  0.1982
  684SOL    HW1 2051   0.033   1.327   0.129  1.2974  1.3160 -1.3064
  684SOL    HW2 2052   0.109   1.262   3.090  0.0165  1.0319  1.3098
  685SOL     OW 2053   0.993   0.834   0.235 -0.3794  0.7104  0.1647
  685SOL    HW1 2054   1.027   0.905   0.173  0.9720 -1.7779  0.8773
  685SOL    HW2 2055   1.074   0.795   0.287 -0.1405 -0.8167 -2.8391
  686SOL     OW 2056   0.084   0.133   1.050 -0.7930  0.5683 -0.2148
  686SOL    HW1 2057   0.035   0.201   1.110  0.1658 -0.3722 -0.5696
  686SOL    HW2 2058   0.179   0.112   1.094  0.2419 -0.8073  1.8215
  687SOL     OW 2059   1.201   1.252   2.343  0.2813  0.5371 -0.3129
  687SOL    HW1 2060   1.131   1.245   2.422 -1.1513 -1.2063  1.8300
  687SOL    HW2 2061   1.235   1.349   2.345  2.0380  0.6747  2.2245
  688SOL     OW 2062   0.704   2.088   1.446 -0.1392  0.2914 -0.3727
  688SOL    HW1 2063   0.693   2.100   1.344  3.1679 -0.4358 -1.7317
  688SOL    HW2 2064   0.623   2.039   1.487 -0.8857 -0.4398 -0.1043
  689SOL     OW 2065   1.970   0.785   1.163 -0.1947  0.5763  0.0395
  689SOL    HW1 2066   1.898   0.756   1.228 -1.7886  1.4464 -1.7041
  689SOL    HW2 2067   1.941   0.865   1.109 -0.3510 -2.6743 -0.7488
  690SOL     OW 2068   2.793   1.054   1.006  0.2968  0.2405 -0.9842
  690SOL    HW1 2069   2.851   1.132   0.989 -1.2334 -0.7824  2.5731
  690SOL    HW2 2070   2.780   1.034   1.105 -1.4632  0.8967 -0.4314
  691SOL     OW 2071   0.145   2.353   1.397  0.1942 -0.1534  0.2049
  691SOL    HW1 2072   0.046   2.356   1.365  0.3572  3.0417 -1.7232
  691SOL    HW2 2073   0.184   2.450   1.401 -0.5060 -1.9928 -1.8865
  692SOL     OW 2074   1.803   3.064   1.140  0.1100  0.1665 -0.1629
  692SOL    HW1 2075   1.829   3.057   1.039  0.9382  0.7018 -0.2513
  692SOL    HW2 2076   1.873   3.014   1.200  0.1717 -0.6533  0.0013
  693SOL     OW 2077   0.369   1.723   2.430  0.0031  1.2349 -0.8321
  693SOL    HW1 2078   0.319   1.746   2.515 -1.6359  1.6567  0.3195
  693SOL    HW2 2079   0.362   1.805   2.372 -2.0138  0.4460  1.3546
  694SOL     OW 2080   2.145   0.847   0.884 -0.1637 -0.2160 -0.6632
  694SOL    HW1 2081   2.173   0.946   0.874  0.9332  2.6362  0.6247
  694SOL    HW2 2082   2.137   0.828   0.984 -0.4396  0.2951  1.7467
  695SOL     OW 2083   0.821   1.175   1.615 -0.2041 -0.4927 -0.1548
  695SOL    HW1 2084   0.722   1.196   1.592 -2.4510  0.4990  0.0512
  695SOL    HW2 2085   0.884   1.243   1.569  3.5667  1.7387  1.1597
  696SOL     OW 2086   1.619   3.068   0.670 -0.3094  0.0158 -0.3524
  696SOL    HW1 2087   1.526   3.036   0.686  2.2601 -0.7432  1.6094
  696SOL    HW2 2088   1.629   0.072   0.696  2.2496 -2.2912 -1.3979
  697SOL     OW 2089   0.808   0.183   0.894 -0.5034 -0.0541  0.5705
  697SOL    HW1 2090   0.899   0.150   0.924  1.3286 -1.1750 -0.5917
  697SOL    HW2 2091   0.772   0.260   0.948 -1.8551 -0.2196 -1.1164
  698SOL     OW 2092   1.725   1.341   2.086 -0.7184 -0.1848 -0.1480
  698SOL    HW1 2093   1.827   1.329   2.092  3.5397  3.5165  1.3595
  698SOL    HW2 2094   1.706   1.439   2.109 -2.3454 -0.9392 -0.3504
  699SOL     OW 2095   1.496   0.735   0.899 -0.3201 -0.1124  0.3023
  699SOL    HW1 2096   1.580   0.742   0.850 -3.6172 -0.2668  3.0804
  699SOL    HW2 2097   1.421   0.779   0.849 -0.7891  1.2349 -1.3277
  700SOL     OW 2098   1.428   2.573   0.366  0.5298 -0.0806  0.2787
  700SOL    HW1 2099   1.473   2.666   0.368  0.7196 -2.5314 -1.3641
  700SOL    HW2 2100   1.375   2.561   0.449 -0.6916 -0.0237  0.2072
  701SOL     OW 2101   2.180   2.497   2.741  0.2933 -0.4058  0.2265
  701SOL    HW1 2102   2.121   2.547   2.806 -0.9483 -1.0958  1.7584
  701SOL    HW2 2103   2.260   2.458   2.791 -1.4275  0.5733  2.2941
  702SOL     OW 2104   0.912   0.307   0.675  0.2624  0.0097 -0.3580
  702SOL    HW1 2105   0.934   0.400   0.714 -0.3869  2.2718  0.7123
  702SOL    HW2 2106   0.867   0.245   0.741  2.1450 -1.2690  4.0045
  703SOL     OW 2107   2.103   0.394   2.297  0.3144  0.0918 -0.1356
  703SOL    HW1 2108   2.088   0.382   2.398 -0.3565 -0.5179 -0.5047
  703SOL    HW2 2109   2.096   0.491   2.268 -0.4486  0.4701  0.6210
  704SOL     OW 2110   3.011   2.215   0.638  0.0760 -0.0100  0.2883
  704SOL    HW1 2111   2.960   2.136   0.595 -1.1659  0.4759 -0.0127
  704SOL    HW2 2112   0.005   2.232   0.584  2.7206 -1.7476 -1.9719
  705SOL     OW 2113   2.643   2.607   2.142 -0.3667  1.1375  0.0072
  705SOL    HW1 2114   2.736   2.567   2.110 -0.7524  0.6201 -0.8544
  705SOL    HW2 2115   2.633   2.705   2.111  1.9459 -0.2049  1.7248
  706SOL     OW 2116   2.292   2.602   0.768  0.1269 -0.0161  0.4228
  706SOL    HW1 2117   2.295   2.509   0.808  0.2805  0.3459  0.5945
  706SOL    HW2 2118   2.386   2.625   0.751 -2.1524 -1.0269 -0.8681
  707SOL     OW 2119   0.583   2.319   1.883  0.2754  0.0973  0.2528
  707SOL    HW1 2120   0.657   2.246   1.880  1.5324  0.2248 -0.6236
  707SOL    HW2 2121   0.554   2.344   1.789  3.5893 -1.6433  0.5168
  708SOL     OW 2122   3.077   2.185   2.411 -0.1972  0.5459  1.3788
  708SOL    HW1 2123   3.045   2.247   2.486 -0.2527  1.7921  1.7540
  708SOL    HW2 2124   0.087   2.169   2.406  0.0856 -1.3034 -2.3842
  709SOL     OW 2125   1.901   2.869   2.037  0.5132 -0.3962 -0.2506
  709SOL    HW1 2126   1.965   2.811   2.087  1.7428  1.9756  2.8269
  709SOL    HW2 2127   1.896   2.964   2.078  1.5174 -0.4218 -0.9669
  710SOL     OW 2128   1.724   0.772   2.415  0.2637  0.5613 -0.8933
  710SOL    HW1 2129   1.747   0.677   2.387  0.9007  0.8702  2.4367
  710SOL    HW2 2130   1.651   0.808   2.353 -0.4884 -3.3428  2.8344
  711SOL     OW 2131   0.759   1.823   0.045  0.0906 -0.4824  0.1725
  711SOL    HW1 2132   0.854   1.783   0.059 -0.6671  0.0839  3.8091
  711SOL    HW2 2133   0.694   1.760   0.000  3.6544  1.2501  3.6041
  712SOL     OW 2134   0.598   2.410   2.553  0.4102  0.1733 -0.6069
  712SOL    HW1 2135   0.615   2.329   2.493  0.3659  0.4231  0.4194
  712SOL    HW2 2136   0.630   2.397   2.647  1.1980  0.4733 -1.1954
  713SOL     OW 2137   1.643   1.577   3.004  0.2902  0.0763 -0.0733
  713SOL    HW1 2138   1.706   1.626   2.942 -2.3269  1.6662  1.1617
  713SOL    HW2 2139   1.694   1.533   3.080  1.1937  0.8446 -1.2923
  714SOL     OW 2140   1.126   1.550   1.844  0.5243 -0.3714 -0.3304
  714SOL    HW1 2141   1.210   1.577   1.793 -1.1048 -0.5682 -1.4430
  714SOL    HW2 2142   1.141   1.476   1.912 -1.3591  0.1414  0.0597
  715SOL     OW 2143   1.822   0.482   2.822  0.0934  0.7034 -0.7102
  715SOL    HW1 2144   1.870   0.470   2.908 -4.2133 -2.3399 -1.8016
  715SOL    HW2 2145   1.876   0.444   2.747 -0.9929  4.1648  0.0815
  716SOL     OW 2146   2.872   2.330   1.927 -0.2271 -0.2199  0.0431
  716SOL    HW1 2147   2.891   2.416   1.987  0.3929  4.6066  2.4423
  716SOL    HW2 2148   2.904   2.237   1.968  1.3265 -4.0993  1.6399
  717SOL     OW 2149   2.640   0.903   0.825  0.2350  0.5801 -0.3197
  717SOL    HW1 2150   2.706   0.960   0.876 -3.1207 -0.9137 -2.2671
  717SOL    HW2 2151   2.589   0.844   0.897  0.2382 -2.7236  3.9566
  718SOL     OW 2152   0.817   1.490   2.229 -0.2346 -0.2712  0.5383
  718SOL    HW1 2153   0.740   1.543   2.187  1.6486 -1.0606  1.9809
  718SOL    HW2 2154   0.791   1.412   2.290 -0.3400 -0.4324 -0.2540
  719SOL     OW 2155   1.938   0.991   2.989 -0.4943  0.1808  0.6368
  719SOL    HW1 2156   1.916   0.920   2.917 -0.5430  0.9152  1.9125
  719SOL    HW2 2157   1.987   1.068   2.947 -0.5297 -0.9673  1.1450
  720SOL     OW 2158   0.699   0.538   0.552 -0.0567  0.7657  0.1050
  720SOL    HW1 2159   0.719   0.541   0.650  1.1184  0.5432 -1.6614
  720SOL    HW2 2160   0.664   0.445   0.530 -1.4117 -1.5802 -0.6160
  721SOL     OW 2161   2.549   0.301   0.807 -0.9695 -0.1824  0.4546
  721SOL    HW1 2162   2.512   0.387   0.767 -0.0319 -0.6292  1.5379
  721SOL    HW2 2163   2.523   0.221   0.746  2.1240 -2.1691 -0.0049
  722SOL     OW 2164   2.705   0.739   2.532  0.2124 -0.6497  0.0186
  722SOL    HW1 2165   2.769   0.682   2.590  1.2610  3.2754 -0.1806
  722SOL    HW2 2166   2.738   0.836   2.533 -1.3610  1.5595 -1.7446
  723SOL     OW 2167   2.464   0.238   0.372 -0.1993 -0.6709  0.1324
  723SOL    HW1 2168   2.495   0.237   0.278 -2.2934 -0.6777  1.4275
  723SOL    HW2 2169   2.379   0.299   0.375  1.3972  1.0712 -0.9948
  724SOL     OW 2170   0.425   1.682   1.895 -0.1132  0.1216 -0.0244
  724SOL    HW1 2171   0.427   1.627   1.982  0.4016 -0.5008  1.1496
  724SOL    HW2 2172   0.519   1.717   1.862  0.1827  0.6569  2.4928
  725SOL     OW 2173   1.731   0.245   1.186 -0.6300 -0.2745  0.3646
  725SOL    HW1 2174   1.816   0.259   1.127  0.2852 -1.0237  0.2653
  725SOL    HW2 2175   1.693   0.150   1.176  1.2006  1.3355  0.3829
  726SOL     OW 2176   2.041   2.582   0.194 -0.4474  0.9206  0.1815
  726SOL    HW1 2177   2.001   2.560   0.101  2.0840  2.7650 -0.4374
  726SOL    HW2 2178   1.986   2.548   0.268 -0.2950  1.4942 -4.3179
  727SOL     OW 2179   1.699   1.355   1.363  0.0437  0.0210 -0.2994
  727SOL    HW1 2180   1.688   1.289   1.445  1.7055 -0.7819  4.3158
  727SOL    HW2 2181   1.715   1.451   1.399  1.7936 -1.2871  3.1921
  728SOL     OW 2182   2.199   2.751   1.640  0.1193  0.0207  0.1931
  728SOL    HW1 2183   2.187   2.774   1.540  1.1308  1.3556  0.6412
  728SOL    HW2 2184   2.165   2.661   1.673  1.6533 -1.3018  2.2657
  729SOL     OW 2185   2.023   1.627   0.810 -0.2996 -0.5871 -0.2335
  729SOL    HW1 2186   2.022   1.577   0.721 -1.3659 -0.8719 -2.5233
  729SOL    HW2 2187   2.101   1.597   0.871  0.3572 -1.5427 -0.5102
  730SOL     OW 2188   1.007   0.669   2.673  0.4324 -0.5832  0.0981
  730SOL    HW1 2189   0.914   0.713   2.670 -3.6091 -0.3807  1.8347
  730SOL    HW2 2190   1.084   0.727   2.701  0.4097  3.0970 -4.2173
  731SOL     OW 2191   0.497   3.088   1.034 -0.4094 -0.3431 -0.0346
  731SOL    HW1 2192   0.562   0.046   1.092 -2.4708 -0.5660 -2.6638
  731SOL    HW2 2193   0.427   3.034   1.083  0.0738  0.7313 -2.2007
  732SOL     OW 2194   1.412   0.581   0.603 -0.2800  0.3193  0.2799
  732SOL    HW1 2195   1.364   0.528   0.527 -1.5512 -2.4123 -0.9480
  732SOL    HW2 2196   1.365   0.660   0.640 -1.9001 -1.8908  0.0836
  733SOL     OW 2197   0.617   2.070   1.182 -0.1899 -0.0429  0.1815
  733SOL    HW1 2198   0.692   2.034   1.126  0.4126  2.1211 -0.1891
  733SOL    HW2 2199   0.553   2.000   1.215 -0.7167  2.1718 -1.0831
  734SOL     OW 2200   2.996   2.577   0.270  0.3955 -0.8052  0.6670
  734SOL    HW1 2201   3.043   2.658   0.312 -1.9194  0.1698 -1.8496
  734SOL    HW2 2202   3.023   2.562   0.176 -1.9459  1.6827 -1.1835
  735SOL     OW 2203   1.272   0.169   1.249 -0.2362 -0.3253  0.1191
  735SOL    HW1 2204   1.294   0.074   1.283 -1.2031  0.6285 -0.9599
  735SOL    HW2 2205   1.355   0.221   1.251 -1.6944 -3.0293  0.8004
  736SOL     OW 2206   2.127   2.265   0.239 -0.2669 -0.5101  0.7115
  736SOL    HW1 2207   2.069   2.279   0.320 -2.0885 -0.9245 -1.5080
  736SOL    HW2 2208   2.201   2.338   0.232  1.0841 -0.5215  1.0883
  737SOL     OW 2209   2.903   1.303   0.984 -0.2081  0.5110 -0.2097
  737SOL    HW1 2210   2.893   1.355   0.897 -0.9823 -1.0016 -1.9979
  737SOL    HW2 2211   2.891   1.351   1.072  2.7606 -0.6741  0.6982
  738SOL     OW 2212   2.093   2.437   2.151 -0.2290  0.0427 -0.0666
  738SOL    HW1 2213   2.147   2.491   2.082  2.4338  0.1887  1.9240
  738SOL    HW2 2214   2.057   2.499   2.225  2.0258  0.4601  0.6548
  739SOL     OW 2215   1.097   2.030   2.866  0.0600  0.2430 -0.4455
  739SOL    HW1 2216   1.153   2.027   2.950 -0.0585 -0.7895 -0.0859
  739SOL    HW2 2217   0.997   2.042   2.896 -2.8371 -1.0985  0.6302
  740SOL     OW 2218   1.486   0.347   1.244  0.3152  0.0977  0.0428
  740SOL    HW1 2219   1.585   0.318   1.226  1.8201  0.1224  1.1318
  740SOL    HW2 2220   1.447   0.395   1.161 -1.8070  3.1017  0.5000
  741SOL     OW 2221   0.238   1.083   1.055  0.0774  0.0807  0.6078
  741SOL    HW1 2222   0.309   1.090   1.132  1.2049  1.1455  0.8721
  741SOL    HW2 2223   0.194   0.992   1.057 -0.2397  0.0802 -1.9259
  742SOL     OW 2224   1.069   1.231   2.558  0.6442 -0.1828 -0.0752
  742SOL    HW1 2225   1.109   1.279   2.637 -0.7574  0.5219 -1.1731
  742SOL    HW2 2226   0.969   1.226   2.552 -0.2433  1.8490 -0.6951
  743SOL     OW 2227   1.053   0.941   2.151 -0.0131  0.3561  0.2901
  743SOL    HW1 2228   0.981   1.006   2.185  0.3844  2.1415 -2.3831
  743SOL    HW2 2229   1.131   0.999   2.117 -1.4027 -0.3423 -1.6667
  744SOL     OW 2230   1.801   0.362   1.447  0.9853  0.6129  0.0362
  744SOL    HW1 2231   1.777   0.333   1.352  0.0642 -2.0494  1.4192
  744SOL    HW2 2232   1.881   0.311   1.480 -1.2037 -0.1078  0.2039
  745SOL     OW 2233   1.827   1.101   1.269  0.1391  0.1513  0.0928
  745SOL    HW1 2234   1.852   1.074   1.174 -0.2038  0.1310  0.1267
  745SOL    HW2 2235   1.815   1.204   1.265  3.2071  4.7767 -1.2262
  746SOL     OW 2236   2.245   1.072   0.749 -0.0360 -0.4750  0.3759
  746SOL    HW1 2237   2.173   1.102   0.688 -1.9509 -0.3012  1.5509
  746SOL    HW2 2238   2.316   1.007   0.712  0.2287  1.2639  1.6568
  747SOL     OW 2239   2.613   1.574   1.102  0.0114  0.0561  0.6525
  747SOL    HW1 2240   2.568   1.587   1.011  1.1495  1.5811 -0.1188
  747SOL    HW2 2241   2.547   1.538   1.170 -0.9556  2.7061  0.2611
  748SOL     OW 2242   0.564   2.164   0.503 -0.0537 -0.3820  0.4072
  748SOL    HW1 2243   0.552   2.267   0.528 -0.4403 -0.9401  3.0527
  748SOL    HW2 2244   0.620   2.159   0.417  1.1114 -1.0787 -1.7712
  749SOL     OW 2245   2.694   2.679   2.582  0.1985  0.0822  0.6084
  749SOL    HW1 2246   2.756   2.697   2.658 -0.9579 -1.7698 -0.1560
  749SOL    HW2 2247   2.616   2.622   2.610  1.7157 -0.8294  0.2547
  750SOL     OW 2248   2.478   0.530   0.678  0.3140  0.1175  0.1903
  750SOL    HW1 2249   2.525   0.564   0.597 -0.1579 -2.5938  1.6909
  750SOL    HW2 2250   2.376   0.546   0.681 -1.5207  1.3714  0.7315
  751SOL     OW 2251   2.502   3.020   0.227  0.4051  0.1141 -0.2096
  751SOL    HW1 2252   2.529   3.088   0.162 -0.1151 -0.6282  1.8547
  751SOL    HW2 2253   2.466   3.069   0.308 -2.8181  0.5832  1.6149
  752SOL     OW 2254   2.998   2.755   0.911  0.3452 -0.4554  0.5459
  752SOL    HW1 2255   3.035   2.852   0.918  1.3261  0.5392 -2.2846
  752SOL    HW2 2256   3.034   2.716   0.828  1.6550 -0.1924  3.1528
  753SOL     OW 2257   1.850   1.005   2.268 -0.5241  0.1128  0.0934
  753SOL    HW1 2258   1.825   1.099   2.298  1.1443 -2.6587  1.3489
  753SOL    HW2 2259   1.825   0.937   2.334 -0.7624  3.1310 -1.8839
  754SOL     OW 2260   1.834   2.046   1.446 -0.2556 -0.1222 -0.2682
  754SOL    HW1 2261   1.853   2.117   1.375  0.7449 -0.9732  0.3214
  754SOL    HW2 2262   1.881   1.960   1.420  2.0485  0.6761 -0.6851
  755SOL     OW 2263   2.682   0.976   0.454 -0.0012  0.1570  0.1374
  755SOL    HW1 2264   2.731   0.914   0.523 -0.0991  1.8563 -0.0305
  755SOL    HW2 2265   2.579   0.960   0.447 -0.9495  0.7046  0.1070
  756SOL     OW 2266   0.940   1.511   2.834 -0.7535 -0.4306 -0.1825
  756SOL    HW1 2267   0.892   1.498   2.742 -0.2989  1.1871  0.2920
  756SOL    HW2 2268   1.019   1.574   2.827  1.7344 -0.5776 -2.1365
  757SOL     OW 2269   1.464   2.472   0.788  0.2988 -0.5582  0.2457
  757SOL    HW1 2270   1.464   2.552   0.845 -0.5534 -1.8551  2.3572
  757SOL    HW2 2271   1.463   2.391   0.845 -0.1033 -0.1416 -1.4242
  758SOL     OW 2272   1.391   2.647   1.590  0.0042  0.0856  0.4444
  758SOL    HW1 2273   1.400   2.741   1.627  1.8899 -1.7603 -0.9399
  758SOL    HW2 2274   1.378   2.656   1.490  1.4549  3.7664  0.3549
  759SOL     OW 2275   0.246   0.843   0.821  0.0532 -0.5702  0.1216
  759SOL    HW1 2276   0.319   0.912   0.813  2.3055 -1.3890  1.0902
  759SOL    HW2 2277   0.157   0.868   0.866 -1.1903 -0.4244  2.9561
  760SOL     OW 2278   2.461   0.866   1.346 -0.8658 -0.6365  0.5260
  760SOL    HW1 2279   2.418   0.959   1.353  1.4950 -0.9358  1.1242
  760SOL    HW2 2280   2.426   0.808   1.429  0.7574 -0.1132  1.3189
  761SOL     OW 2281   1.801   0.149   0.238 -0.1365 -0.3320 -0.0848
  761SOL    HW1 2282   1.820   0.056   0.207 -1.3484  4.4191  0.6633
  761SOL    HW2 2283   1.808   0.164   0.336 -0.6135 -0.6270  0.2034
  762SOL     OW 2284   2.157   1.590   2.950 -0.4062  0.6440 -0.5032
  762SOL    HW1 2285   2.071   1.550   2.925  4.3986 -0.4639  0.5486
  762SOL    HW2 2286   2.171   1.672   2.894  2.6617 -0.7556 -0.1188
  763SOL     OW 2287   0.420   2.136   1.586  0.0712  0.0202 -0.1298
  763SOL    HW1 2288   0.466   2.098   1.670 -0.2989 -0.0553 -1.4939
  763SOL    HW2 2289   0.376   2.062   1.533 -1.4600  0.1391 -0.4083
  764SOL     OW 2290   2.842   2.335   3.051  0.7107  0.2470  0.3689
  764SOL    HW1 2291   2.852   2.235   3.025  0.3152 -1.5770 -0.3124
  764SOL    HW2 2292   2.835   2.387   2.961 -2.0629  1.2693 -3.4035
  765SOL     OW 2293   0.348   2.881   1.185  0.0014 -0.0138 -0.0906
  765SOL    HW1 2294   0.428   2.827   1.212 -0.0506 -0.5471 -1.2051
  765SOL    HW2 2295   0.317   2.845   1.092  1.7854 -0.9665 -0.9902
  766SOL     OW 2296   2.943   1.988   2.232 -0.5816  0.1182  0.2745
  766SOL    HW1 2297   2.972   2.064   2.294 -0.7154 -1.4518 -1.1238
  766SOL    HW2 2298   2.852   1.956   2.271  1.7425 -0.9058  1.5509
  767SOL     OW 2299   2.416   0.749   2.211 -0.4181 -0.0385 -0.0904
  767SOL    HW1 2300   2.432   0.825   2.143  2.9439  1.3801 -0.1042
  767SOL    HW2 2301   2.506   0.705   2.239  0.4276 -1.2310 -0.3934
  768SOL     OW 2302   1.350   0.036   2.715  0.1637 -0.0274 -0.0549
  768SOL    HW1 2303   1.319   3.062   2.790  0.8593  0.9355 -0.0658
  768SOL    HW2 2304   1.421   0.097   2.756 -0.1354 -1.6390  3.2188
  769SOL     OW 2305   2.737   2.658   1.086 -0.3191  0.0422 -0.2762
  769SOL    HW1 2306   2.722   2.681   0.989  0.0921 -1.0840  1.4940
  769SOL    HW2 2307   2.799   2.726   1.131 -1.6882 -0.1282  0.5163
  770SOL     OW 2308   0.438   0.244   2.509 -0.9559 -0.0893 -0.9489
  770SOL    HW1 2309   0.529   0.195   2.525  2.2403  0.5933  0.3379
  770SOL    HW2 2310   0.389   0.257   2.601 -0.3897  1.0322  4.2583
  771SOL     OW 2311   1.194   1.804   2.137 -0.1406  0.1796  0.6034
  771SOL    HW1 2312   1.234   1.763   2.053 -0.7408  2.5261  0.1709
  771SOL    HW2 2313   1.119   1.744   2.175 -3.2297 -2.3656 -0.9267
  772SOL     OW 2314   1.517   2.567   2.680  0.0697 -0.1892 -0.4850
  772SOL    HW1 2315   1.436   2.621   2.641 -2.2613 -3.6279 -0.0212
  772SOL    HW2 2316   1.605   2.617   2.662 -0.6118 -2.1424 -0.3508
  773SOL     OW 2317   1.917   0.943   1.493 -0.0622  1.0078  0.1139
  773SOL    HW1 2318   1.979   0.874   1.452  1.0999 -1.6825 -0.6686
  773SOL    HW2 2319   1.886   1.007   1.421  0.8995 -1.6600  1.5800
  774SOL     OW 2320   1.017   0.729   0.964  0.4439 -0.2605 -0.5705
  774SOL    HW1 2321   1.093   0.691   1.023 -1.7752 -1.7919  0.3850
  774SOL    HW2 2322   0.939   0.767   1.026 -2.0518 -0.1308  1.9721
  775SOL     OW 2323   1.865   2.786   2.742  0.2282 -0.0864 -0.0897
  775SOL    HW1 2324   1.783   2.817   2.788  1.5005 -0.2391 -0.7969
  775SOL    HW2 2325   1.834   2.714   2.678 -0.6625 -1.1143 -0.9749
  776SOL     OW 2326   2.144   0.830   1.362  0.4192 -0.0783 -0.0899
  776SOL    HW1 2327   2.198   0.918   1.346  2.9710 -0.7911  0.5581
  776SOL    HW2 2328   2.085   0.811   1.283  3.5413  0.8733  0.7867
  777SOL     OW 2329   0.147   1.127   2.151 -0.1122  0.2257  0.0777
  777SOL    HW1 2330   0.203   1.104   2.069 -1.3680  0.9936 -0.1420
  777SOL    HW2 2331   0.197   1.193   2.211  1.6192 -1.5942  1.3638
  778SOL     OW 2332   0.020   0.992   2.972 -0.2876  0.3373  0.7181
  778SOL    HW1 2333   3.083   0.934   2.891 -0.2508  1.2609 -1.8776
  778SOL    HW2 2334   0.094   1.054   2.940  1.3926  2.5887  0.4245
  779SOL     OW 2335   0.410   0.509   2.858  0.3702 -0.3239 -0.1420
  779SOL    HW1 2336   0.431   0.470   2.952 -1.6811 -0.4319  1.5031
  779SOL    HW2 2337   0.499   0.498   2.804  2.5444 -1.3336 -1.9598
  780SOL     OW 2338   2.187   1.770   2.737  0.0638 -0.3538  0.0617
  780SOL    HW1 2339   2.173   1.712   2.656  2.5179 -0.3428 -2.0557
  780SOL    HW2 2340   2.259   1.841   2.714 -0.4405  0.8927  0.9403
  781SOL     OW 2341   2.747   1.004   2.155 -0.0214 -0.0338 -0.1112
  781SOL    HW1 2342   2.727   1.041   2.063  0.6291 -1.2400 -1.2314
  781SOL    HW2 2343   2.767   0.904   2.145  0.2108 -3.3560  0.5381
  782SOL     OW 2344   1.057   1.832   2.685  0.5775 -0.1055  0.0915
  782SOL    HW1 2345   0.959   1.812   2.680 -3.5170  0.7929  1.0920
  782SOL    HW2 2346   1.073   1.905   2.755 -1.8784 -1.1932 -2.1113
  783SOL     OW 2347   1.136   2.364   1.194 -0.4923 -0.0060  0.4022
  783SOL    HW1 2348   1.115   2.276   1.150  1.2096  1.2231  0.1995
  783SOL    HW2 2349   1.052   2.422   1.195 -0.3385  0.6027  0.5428
  784SOL     OW 2350   1.834   0.514   2.401 -0.3778  0.2760  0.3819
  784SOL    HW1 2351   1.915   0.470   2.444  0.6363  0.4384  0.0037
  784SOL    HW2 2352   1.755   0.459   2.427  1.8160  0.1996 -0.0352
  785SOL     OW 2353   3.039   0.265   1.995 -0.0706  0.0954 -0.2134
  785SOL    HW1 2354   3.065   0.185   2.056  0.2571 -1.5902  1.9477
  785SOL    HW2 2355   3.060   0.253   1.897 -0.6634 -1.1839  2.4642
  786SOL     OW 2356   1.054   2.018   0.359 -0.4213  0.5218 -0.5697
  786SOL    HW1 2357   1.039   2.023   0.256  1.6815  2.0978 -0.7620
  786SOL    HW2 2358   1.067   2.114   0.396 -2.6197 -0.8228 -1.3345
  787SOL     OW 2359   1.076   0.112   0.845 -0.1709  0.3064  0.6192
  787SOL    HW1 2360   1.041   0.042   0.779  0.3166 -1.6860 -0.1706
  787SOL    HW2 2361   1.070   0.073   0.938  0.8570 -3.0281  0.9708
  788SOL     OW 2362   2.803   1.423   1.238  0.6554  0.4372  0.5541
  788SOL    HW1 2363   2.743   1.478   1.178  1.2167  0.4081 -2.6851
  788SOL    HW2 2364   2.883   1.482   1.262 -2.5189 -0.6586 -0.7133
  789SOL     OW 2365   2.374   1.120   2.214  0.1309  0.5135  0.3066
  789SOL    HW1 2366   2.389   1.046   2.145 -0.7583 -2.6369 -0.2895
  789SOL    HW2 2367   2.458   1.138   2.271 -2.1540  0.5230  1.9471
  790SOL     OW 2368   0.930   0.272   0.212 -0.0701  0.4148 -0.6231
  790SOL    HW1 2369   0.961   0.334   0.287  1.4476 -4.5381 -1.2816
  790SOL    HW2 2370   0.848   0.220   0.240 -1.5865  3.5206  2.5945
  791SOL     OW 2371   3.059   3.051   0.240 -0.3950  0.0899 -0.1694
  791SOL    HW1 2372   3.055   3.088   0.144  0.0022 -2.9355  0.3411
  791SOL    HW2 2373   0.036   0.015   0.298  3.0592  0.1837  2.3846
  792SOL     OW 2374   1.214   0.357   1.844 -0.0486 -0.6651  0.1671
  792SOL    HW1 2375   1.208   0.308   1.933  0.6863  0.9002 -1.8647
  792SOL    HW2 2376   1.254   0.458   1.858 -0.7527  0.6997 -1.4903
  793SOL     OW 2377   3.067   0.331   1.203 -0.1784  0.2105 -0.6003
  793SOL    HW1 2378   0.038   0.406   1.173  0.6695  0.0500 -0.1161
  793SOL    HW2 2379   3.074   0.318   1.309 -2.1772 -0.7338  3.1574
  794SOL     OW 2380   0.055   0.506   2.061 -0.0726  0.6014  0.1841
  794SOL    HW1 2381   0.094   0.527   1.965  2.5760 -1.2241  0.5988
  794SOL    HW2 2382   0.021   0.413   2.055 -0.2078 -1.4211  1.0430
  795SOL     OW 2383   0.769   1.335   0.535 -0.2070 -0.1212  0.3346
  795SOL    HW1 2384   0.801   1.287   0.453 -2.0486 -1.4271  2.6645
  795SOL    HW2 2385   0.683   1.385   0.517  0.2109 -1.3235  0.2044
  796SOL     OW 2386   3.057   0.840   0.084  0.1168  0.3496  0.0266
  796SOL    HW1 2387   3.017   0.893   0.157  3.3429  0.2998  0.3779
  796SOL    HW2 2388   3.060   0.897   3.090  0.3761 -0.6742 -2.0090
  797SOL     OW 2389   1.630   2.929   2.529  0.2373 -0.5669 -0.2228
  797SOL    HW1 2390   1.708   2.874   2.485  2.8102 -0.9563 -0.0442
  797SOL    HW2 2391   1.548   2.933   2.466  0.9468  0.0305 -2.5406
  798SOL     OW 2392   0.050   0.079   1.405 -0.0149  0.7755  0.1401
  798SOL    HW1 2393   0.140   0.091   1.356  2.8221 -0.7395 -1.3248
  798SOL    HW2 2394   3.089   0.158   1.417  0.4130  0.4432 -1.6645
  799SOL     OW 2395   2.854   1.045   1.777 -0.4539  0.3079 -0.4707
  799SOL    HW1 2396   2.858   1.030   1.674  1.0914 -1.0529 -1.7000
  799SOL    HW2 2397   2.901   0.967   1.826  1.6871 -1.5857 -0.3347
  800SOL     OW 2398   0.153   1.721   0.372  0.1549  0.1536  0.2947
  800SOL    HW1 2399   0.150   1.782   0.454 -0.7192 -2.9736 -3.2819
  800SOL    HW2 2400   0.123   1.769   0.289 -2.8361 -2.2914  2.7340
  801SOL     OW 2401   2.047   1.460   0.569 -0.1763 -0.3675 -0.6506
  801SOL    HW1 2402   2.064   1.512   0.487 -0.1128  2.9270  0.9797
  801SOL    HW2 2403   1.974   1.392   0.557 -4.9910  0.7792 -0.1665
  802SOL     OW 2404   1.404   0.976   2.778  0.4792 -0.6754 -0.4551
  802SOL    HW1 2405   1.360   1.017   2.703  0.1260 -0.4504  1.3985
  802SOL    HW2 2406   1.495   0.936   2.761 -0.6991 -0.3156  0.0502
  803SOL     OW 2407   0.524   2.011   1.795 -0.2125 -0.1946 -0.0211
  803SOL    HW1 2408   0.603   2.055   1.842  3.8826  0.0792  1.1279
  803SOL    HW2 2409   0.557   1.918   1.769  0.5643  0.0526 -0.0117
  804SOL     OW 2410   1.245   2.016   0.814  0.1942  0.0068 -0.3963
  804SOL    HW1 2411   1.282   1.922   0.839  0.7747  1.6101  0.5433
  804SOL    HW2 2412   1.269   2.035   0.717  1.3513 -0.7654  1.0255
  805SOL     OW 2413   2.567   2.430   2.725  0.1538 -0.0379 -0.0557
  805SOL    HW1 2414   2.647   2.459   2.776 -0.1263 -2.3545 -1.4049
  805SOL    HW2 2415   2.587   2.344   2.671 -1.6765 -1.3701  0.5157
  806SOL     OW 2416   0.282   0.389   0.498  0.2156 -0.4319  0.8087
  806SOL    HW1 2417   0.251   0.317   0.559 -0.0138 -1.2670 -0.8458
  806SOL    HW2 2418   0.208   0.460   0.496 -1.3131 -0.4747  0.8877
  807SOL     OW 2419   2.842   0.543   2.662 -0.0433 -0.1373  0.2589
  807SOL    HW1 2420   2.887   0.563   2.750  1.3927  1.4637  0.1047
  807SOL    HW2 2421   2.811   0.446   2.649 -0.3204  0.1437 -0.4121
  808SOL     OW 2422   0.817   2.240   0.645  0.0007  0.3953 -0.5926
  808SOL    HW1 2423   0.814   2.250   0.750  0.3947  1.7713  3.0476
  808SOL    HW2 2424   0.738   2.289   0.607  1.7390 -0.4398 -0.0071
  809SOL     OW 2425   2.724   0.269   2.736  0.0511  0.1909 -0.3368
  809SOL    HW1 2426   2.744   0.175   2.760  1.6750 -1.2192  0.7686
  809SOL    HW2 2427   2.646   0.273   2.665 -0.3081  0.2605  1.2844
  810SOL     OW 2428   1.624   1.050   0.609  0.4204  0.6571  0.0886
  810SOL    HW1 2429   1.584   1.106   0.681  0.3296 -1.4075 -3.7838
  810SOL    HW2 2430   1.686   0.972   0.646  3.5366  0.4748 -0.4189
  811SOL     OW 2431   1.829   2.765   1.805 -0.3935  0.1936 -0.1315
  811SOL    HW1 2432   1.768   2.836   1.764 -1.2485  0.9103 -1.7019
  811SOL    HW2 2433   1.877   2.807   1.882  1.6260 -0.7442 -1.7264
  812SOL     OW 2434   1.814   2.592   0.367 -0.3647  0.2694 -0.6096
  812SOL    HW1 2435   1.768   2.516   0.399  3.6628 -1.1701 -1.1909
  812SOL    HW2 2436   1.851   2.649   0.441 -0.6699 -0.9676  0.5026
  813SOL     OW 2437   1.070   0.714   2.011  0.2749  0.2780  0.7698
  813SOL    HW1 2438   1.057   0.630   2.063  1.2033 -0.0738 -0.0458
  813SOL    HW2 2439   1.075   0.793   2.075  0.7520 -4.0509  0.1004
  814SOL     OW 2440   0.299   0.126   1.254 -0.3383  0.5184 -0.2332
  814SOL    HW1 2441   0.325   0.213   1.211 -0.3144 -0.8061 -0.1734
  814SOL    HW2 2442   0.381   0.093   1.312  0.1980  0.1188 -1.3566
  815SOL     OW 2443   0.383   0.073   0.793 -0.4445  0.1344 -0.5249
  815SOL    HW1 2444   0.433   0.066   0.882 -0.4595  1.3616 -1.6112
  815SOL    HW2 2445   0.319   3.087   0.789 -2.4325  1.4245  2.3159
  816SOL     OW 2446   2.808   1.498   2.450 -0.0795 -0.0337  0.2735
  816SOL    HW1 2447   2.713   1.466   2.456  0.7874  2.0258 -0.4400
  816SOL    HW2 2448   2.826   1.574   2.382  0.3270 -0.9180 -1.0318
  817SOL     OW 2449   1.113   0.112   0.089 -0.3329 -0.2260 -0.4014
  817SOL    HW1 2450   1.192   0.122   0.147 -2.1945 -0.1521 -0.0863
  817SOL    HW2 2451   1.033   0.163   0.127  0.2559  1.6157  0.9902
  818SOL     OW 2452   1.622   0.626   0.162  0.7945 -0.0241 -0.2274
  818SOL    HW1 2453   1.721   0.637   0.188  0.8495  1.7449  2.1799
  818SOL    HW2 2454   1.620   0.541   0.103  3.3740 -1.4587 -0.9637
  819SOL     OW 2455   2.286   2.852   2.968  0.0140 -0.3135  0.0261
  819SOL    HW1 2456   2.212   2.787   2.941 -0.5049 -3.0086 -1.5575
  819SOL    HW2 2457   2.256   2.919   3.040  0.9217  1.5550  0.9550
  820SOL     OW 2458   1.729   1.085   0.049 -0.6827  0.1541 -0.9071
  820SOL    HW1 2459   1.697   0.998   0.094  1.7735 -0.2594  2.3534
  820SOL    HW2 2460   1.800   1.067   3.070 -0.5397 -1.3734 -0.2204
  821SOL     OW 2461   0.250   0.600   1.329  0.6798  0.5596  0.3225
  821SOL    HW1 2462   0.267   0.522   1.397  0.0338 -1.0289 -1.2592
  821SOL    HW2 2463   0.193   0.577   1.247 -0.0931  2.4582 -1.8185
  822SOL     OW 2464   1.108   2.519   2.415  0.2700  0.4169 -0.2390
  822SOL    HW1 2465   1.182   2.461   2.381 -0.8733 -0.0754  0.6629
  822SOL    HW2 2466   1.018   2.477   2.389 -2.7866 -0.7766 -2.1492
  823SOL     OW 2467   0.509   1.222   1.791 -0.0503 -0.0418  0.6945
  823SOL    HW1 2468   0.585   1.248   1.854 -1.0065 -3.3139  0.6544
  823SOL    HW2 2469   0.529   1.258   1.698  0.2772  0.2469  0.4612
  824SOL     OW 2470   1.629   2.892   2.163  0.5771  0.2488 -0.0247
  824SOL    HW1 2471   1.714   2.845   2.180 -1.3467  0.5238 -0.0732
  824SOL    HW2 2472   1.616   2.925   2.066  0.6068 -0.5446  0.0487
  825SOL     OW 2473   1.116   1.025   0.087  0.4990  0.2788 -0.1194
  825SOL    HW1 2474   1.136   1.124   0.095 -3.0800  0.4468  0.4443
  825SOL    HW2 2475   1.101   1.000   3.082  1.4056  0.2565  1.9830
  826SOL     OW 2476   2.080   0.716   3.035 -0.6112 -0.0577  0.4523
  826SOL    HW1 2477   2.053   0.734   2.937 -1.9275  2.3440 -0.1786
  826SOL    HW2 2478   2.107   0.805   3.077  3.2852 -0.6150  3.1606
  827SOL     OW 2479   0.412   2.198   2.796  0.5489 -0.4024  0.2725
  827SOL    HW1 2480   0.506   2.153   2.775  0.5111  0.5330  1.5175
  827SOL    HW2 2481   0.334   2.133   2.797 -0.5112 -0.1248 -0.1062
  828SOL     OW 2482   0.020   0.335   1.466 -0.1239 -0.0985 -0.1841
  828SOL    HW1 2483   0.118   0.343   1.494  0.7620  0.8117  1.0949
  828SOL    HW2 2484   3.051   0.375   1.536 -0.0235 -0.7482  2.4400
  829SOL     OW 2485   0.933   1.489   1.128 -0.0982  0.2192  0.8181
  829SOL    HW1 2486   0.874   1.549   1.069  0.2496  0.1201 -2.3483
  829SOL    HW2 2487   0.970   1.415   1.075 -0.3450 -0.1978 -1.0228
  830SOL     OW 2488   0.563   1.308   1.524  0.3340 -0.4043 -0.3836
  830SOL    HW1 2489   0.595   1.328   1.429 -1.2219  1.5117  0.9920
  830SOL    HW2 2490   0.478   1.353   1.537  0.0854 -0.3919  1.1729
  831SOL     OW 2491   0.603   2.028   0.147 -0.1364 -0.3238 -0.0618
  831SOL    HW1 2492   0.667   1.962   0.105  0.6318 -0.7210 -0.9954
  831SOL    HW2 2493   0.513   1.980   0.157  1.9530 -0.1646  2.7625
  832SOL     OW 2494   1.064   2.987   2.979  0.0409 -0.2148  0.1452
  832SOL    HW1 2495   1.088   3.080   3.022 -1.7322  0.8846  0.6553
  832SOL    HW2 2496   0.981   2.943   3.020 -0.9746 -0.7052  0.9609
  833SOL     OW 2497   0.096   0.559   1.801 -0.1047  0.1390 -0.6273
  833SOL    HW1 2498   0.006   0.605   1.813 -3.0579  1.7617 -1.5271
  833SOL    HW2 2499   0.142   0.590   1.720 -1.4137 -0.9208  0.7740
  834SOL     OW 2500   2.985   0.646   0.982 -0.3292 -0.1168  0.6381
  834SOL    HW1 2501   2.893   0.660   1.025  0.2522 -1.8324  0.0085
  834SOL    HW2 2502   2.970   0.596   0.895  1.3996 -0.3444  1.1145
  835SOL     OW 2503   2.730   3.019   1.019 -0.1690  0.0143 -1.0841
  835SOL    HW1 2504   2.720   3.090   0.947 -0.9922 -3.1796 -1.5855
  835SOL    HW2 2505   2.719   3.057   1.112  0.7854 -0.9574  0.1465
  836SOL     OW 2506   0.319   1.959   0.134  0.7502  0.1033 -0.3206
  836SOL    HW1 2507   0.222   1.928   0.125  0.1268 -1.1322 -0.0372
  836SOL    HW2 2508   0.325   2.056   0.108  1.5938  0.4318 -1.9541
  837SOL     OW 2509   1.899   1.859   2.798 -0.1315  0.5171  0.4104
  837SOL    HW1 2510   1.844   1.779   2.774  0.0863  3.4630 -0.2773
  837SOL    HW2 2511   1.982   1.856   2.740  0.8337 -1.6552 -3.3699
  838SOL     OW 2512   2.487   1.040   1.740 -0.2745 -0.5387  0.5473
  838SOL    HW1 2513   2.536   0.952   1.733 -0.6500 -0.7743 -0.8823
  838SOL    HW2 2514   2.544   1.106   1.785 -1.4200  1.0586 -2.7984
  839SOL     OW 2515   1.305   0.819   0.714  0.0718  0.3886  0.3678
  839SOL    HW1 2516   1.209   0.849   0.726 -2.3179  1.1454 -3.5288
  839SOL    HW2 2517   1.348   0.878   0.643 -1.0493 -1.5148  1.5040
  840SOL     OW 2518   1.424   0.454   0.993  0.5336 -0.3480 -0.2345
  840SOL    HW1 2519   1.354   0.414   0.927  2.0788  1.5882 -0.1824
  840SOL    HW2 2520   1.465   0.543   0.965  0.1183 -0.7628  0.9553
  841SOL     OW 2521   0.647   2.716   0.618  0.6989 -0.6070 -0.0113
  841SOL    HW1 2522   0.622   2.688   0.717 -2.0743 -1.4459  1.3944
  841SOL    HW2 2523   0.605   2.811   0.598 -2.0310  3.4601  0.6957
  842SOL     OW 2524   0.508   0.711   0.485 -0.3567 -0.0415  0.1632
  842SOL    HW1 2525   0.594   0.673   0.524 -3.3806  2.0017 -2.3837
  842SOL    HW2 2526   0.448   0.646   0.431  0.2459 -0.0987 -1.2520
  843SOL     OW 2527   0.818   0.999   1.853 -0.7003 -0.1927 -0.3156
  843SOL    HW1 2528   0.775   1.042   1.937  1.3244  0.7482  3.6489
  843SOL    HW2 2529   0.807   1.065   1.778 -0.4365  0.4590  3.3207
  844SOL     OW 2530   1.478   2.040   0.153  0.0069  0.2086  0.4215
  844SOL    HW1 2531   1.521   2.103   0.089 -1.0829  0.0284  0.0104
  844SOL    HW2 2532   1.507   2.067   0.247  0.9986  0.6193 -1.6502
  845SOL     OW 2533   2.425   2.449   2.162  0.6868  0.5637  0.3025
  845SOL    HW1 2534   2.513   2.500   2.177 -0.3477 -0.7121 -1.3521
  845SOL    HW2 2535   2.428   2.392   2.077 -0.3475 -0.8151  2.4623
  846SOL     OW 2536   1.804   2.127   2.861 -0.0342 -0.3438  0.0472
  846SOL    HW1 2537   1.817   2.031   2.836  0.8658  0.7371  2.6731
  846SOL    HW2 2538   1.893   2.175   2.880  0.3920 -1.0884  0.1547
  847SOL     OW 2539   1.853   2.850   2.384  0.1359 -1.1298 -0.3382
  847SOL    HW1 2540   1.889   2.933   2.327 -2.2469  1.0497  2.1417
  847SOL    HW2 2541   1.932   2.798   2.423 -0.0070 -2.3831  2.0026
  848SOL     OW 2542   0.683   0.578   0.257  0.3474 -0.7054 -0.3642
  848SOL    HW1 2543   0.584   0.568   0.280 -0.6273  0.0285 -0.4407
  848SOL    HW2 2544   0.732   0.530   0.330 -2.5057  1.1820  3.1648
  849SOL     OW 2545   0.700   2.943   1.350 -0.1198 -0.0054 -0.9752
  849SOL    HW1 2546   0.642   2.889   1.284 -2.1103 -0.7192  0.0584
  849SOL    HW2 2547   0.789   2.907   1.339 -2.7212  2.7817  1.9515
  850SOL     OW 2548   0.411   1.644   0.349 -0.5608  0.2658 -0.3878
  850SOL    HW1 2549   0.437   1.731   0.398  1.4557  2.5397 -1.4241
  850SOL    HW2 2550   0.312   1.630   0.343 -1.5046 -2.2602  0.6577
  851SOL     OW 2551   0.160   0.668   0.210  0.1528  0.5372  0.2208
  851SOL    HW1 2552   0.087   0.720   0.157 -0.7738  1.0385  1.1878
  851SOL    HW2 2553   0.136   0.652   0.308  0.7201 -1.6248 -3.6300
  852SOL     OW 2554   1.571   2.087   1.534  0.3272 -0.2323  0.6442
  852SOL    HW1 2555   1.580   2.162   1.602 -0.8468 -2.0745  0.3781
  852SOL    HW2 2556   1.666   2.059   1.511  1.6681  0.5389  0.4486
  853SOL     OW 2557   0.707   1.639   0.283 -0.6230  0.0639  0.0032
  853SOL    HW1 2558   0.649   1.721   0.290 -2.2262  0.7978 -3.5637
  853SOL    HW2 2559   0.809   1.669   0.288 -1.3538 -1.0628 -1.7588
  854SOL     OW 2560   1.951   1.414   1.672 -0.8538  0.0381  0.1564
  854SOL    HW1 2561   2.048   1.450   1.662 -0.7443 -0.8745 -2.8739
  854SOL    HW2 2562   1.956   1.311   1.677 -0.2788 -0.4288  1.2413
  855SOL     OW 2563   0.952   2.143   0.120 -0.4454 -0.0809 -0.3377
  855SOL    HW1 2564   1.013   2.222   0.131  1.4364  0.6918 -0.0006
  855SOL    HW2 2565   0.942   2.113   0.022 -2.4499  1.0376 -0.5139
  856SOL     OW 2566   2.842   0.444   2.115  0.2971  0.3273  0.3240
  856SOL    HW1 2567   2.908   0.482   2.188  1.9366  3.2569 -0.4922
  856SOL    HW2 2568   2.891   0.396   2.044  0.5432  0.0214 -1.6308
  857SOL     OW 2569   0.563   0.478   1.871 -0.2601 -0.1392  0.1171
  857SOL    HW1 2570   0.599   0.428   1.951 -3.0537  0.6778  1.1595
  857SOL    HW2 2571   0.568   0.579   1.884  0.9554 -1.8015  1.2913
  858SOL     OW 2572   0.190   1.331   2.314 -0.3981 -0.4534  0.1825
  858SOL    HW1 2573   0.102   1.337   2.368  0.7853  0.2679  0.8187
  858SOL    HW2 2574   0.267   1.346   2.381 -3.5519  0.0950 -2.0337
  859SOL     OW 2575   2.088   2.998   0.344 -0.3259  0.0899 -0.3314
  859SOL    HW1 2576   1.990   3.012   0.373 -2.7383  1.4209  1.0983
  859SOL    HW2 2577   2.115   2.899   0.357  1.5967 -2.0118  0.6142
  860SOL     OW 2578   1.711   3.037   2.964 -0.2181  0.0158 -0.2556
  860SOL    HW1 2579   1.678   2.969   2.895 -2.1548 -0.4158 -2.8136
  860SOL    HW2 2580   1.759   0.020   2.920 -1.7821 -1.6124  0.6852
  861SOL     OW 2581   0.178   0.611   0.675 -0.3349  0.3929 -0.3019
  861SOL    HW1 2582   0.133   0.625   0.586  0.4275 -0.1309  1.3742
  861SOL    HW2 2583   0.204   0.700   0.714  1.4313 -1.7206 -0.8698
  862SOL     OW 2584   1.657   0.588   2.175 -0.1603 -0.2453  0.0738
  862SOL    HW1 2585   1.690   0.563   2.078  2.0341 -0.9120 -0.9699
  862SOL    HW2 2586   1.604   0.512   2.220 -2.7237  0.8264  5.0458
  863SOL     OW 2587   3.012   1.861   1.009 -0.5834  0.1348  0.0967
  863SOL    HW1 2588   2.927   1.831   1.051  0.7617  1.1501  1.4698
  863SOL    HW2 2589   3.034   1.961   1.038 -0.6214 -0.0434  0.4787
  864SOL     OW 2590   2.226   2.911   1.906  0.1555 -0.2964 -0.8061
  864SOL    HW1 2591   2.227   2.867   1.815 -1.8141 -1.2762  4.6673
  864SOL    HW2 2592   2.169   2.849   1.968 -1.8194  0.6914  2.5276
  865SOL     OW 2593   1.144   0.383   1.127 -0.2748  0.4142 -0.1646
  865SOL    HW1 2594   1.185   0.303   1.176  0.1429 -0.2158  1.8637
  865SOL    HW2 2595   1.171   0.383   1.026  2.1883 -2.4802  2.0064
  866SOL     OW 2596   2.556   2.745   0.726  0.3277 -0.0186  0.2059
  866SOL    HW1 2597   2.584   2.774   0.632  0.9898  0.5356  1.0996
  866SOL    HW2 2598   2.605   2.662   0.754 -0.3986  2.3039 -1.1092
  867SOL     OW 2599   2.678   2.546   0.839 -0.1844  0.8391 -0.0924
  867SOL    HW1 2600   2.670   2.522   0.934  0.4093  0.1784 -0.9200
  867SOL    HW2 2601   2.763   2.511   0.791  0.2742 -0.5484  1.5008
  868SOL     OW 2602   1.259   2.030   2.263  0.3978  0.6428 -1.0243
  868SOL    HW1 2603   1.233   1.952   2.205  0.8364  1.0434  0.1472
  868SOL    HW2 2604   1.197   2.108   2.253  0.4787 -0.6736 -1.8246
  869SOL     OW 2605   2.162   1.582   0.332  0.1299 -0.5270 -0.2660
  869SOL    HW1 2606   2.114   1.612   0.246  1.5083  0.1418  0.6218
  869SOL    HW2 2607   2.243   1.529   0.299 -2.2611 -2.7134 -3.2717
  870SOL     OW 2608   2.299   1.909   0.488  0.2924  0.1763 -0.0703
  870SOL    HW1 2609   2.255   1.935   0.399  0.3273  1.5907 -0.1568
  870SOL    HW2 2610   2.226   1.865   0.547 -0.9171 -0.6360  1.1994
  871SOL     OW 2611   2.939   1.064   1.471 -0.1281 -0.2640  0.3339
  871SOL    HW1 2612   3.017   1.129   1.490  1.1095  1.1401  0.2293
  871SOL    HW2 2613   2.975   0.971   1.474 -0.2803 -0.1664 -1.2630
  872SOL     OW 2614   0.590   1.910   2.585  0.8024  0.4747  0.1903
  872SOL    HW1 2615   0.634   1.901   2.493 -0.2826 -3.2851  1.7301
  872SOL    HW2 2616   0.498   1.863   2.598 -0.0335 -1.0403  0.0150
  873SOL     OW 2617   0.268   2.643   1.885  0.0799  0.1999 -0.0984
  873SOL    HW1 2618   0.220   2.554   1.879  1.4731 -0.8368  2.7216
  873SOL    HW2 2619   0.214   2.699   1.952 -1.1258 -1.9069  3.0144
  874SOL     OW 2620   1.267   1.098   2.100 -0.0274  0.4315 -0.4494
  874SOL    HW1 2621   1.232   1.159   2.175  1.7494  0.5712 -0.0208
  874SOL    HW2 2622   1.369   1.099   2.102 -1.8679  1.7401 -2.5602
  875SOL     OW 2623   2.898   2.873   1.240 -0.5856  0.5067  0.2788
  875SOL    HW1 2624   2.972   2.885   1.303 -2.0117  1.4818 -3.9597
  875SOL    HW2 2625   2.914   2.930   1.161  1.5708  2.0361 -0.1629
  876SOL     OW 2626   0.985   1.157   1.174 -0.0169 -0.3470  0.4354
  876SOL    HW1 2627   1.066   1.167   1.233  1.1859  2.2543 -1.4760
  876SOL    HW2 2628   1.004   1.193   1.080 -0.2559 -2.2516 -1.2511
  877SOL     OW 2629   0.407   0.359   1.141 -0.0445 -0.0353 -0.1018
  877SOL    HW1 2630   0.475   0.422   1.177 -1.0510  0.5922  0.6529
  877SOL    HW2 2631   0.391   0.387   1.044 -3.0170 -0.3425  1.3114
  878SOL     OW 2632   2.618   1.782   2.733 -0.2337 -0.4056 -0.0568
  878SOL    HW1 2633   2.716   1.784   2.763  1.2546  2.7753  0.4334
  878SOL    HW2 2634   2.569   1.702   2.774  1.0819 -1.1493  0.0567
  879SOL     OW 2635   2.526   1.995   1.231 -0.1934 -0.2201 -0.2497
  879SOL    HW1 2636   2.582   1.980   1.149  2.6123  0.3788  3.2205
  879SOL    HW2 2637   2.571   2.069   1.287 -1.2269 -0.2983 -0.1429
  880SOL     OW 2638   0.915   2.285   0.923  0.2830 -0.4065 -0.0067
  880SOL    HW1 2639   0.890   2.343   1.001  1.2029 -1.4275  0.3811
  880SOL    HW2 2640   0.995   2.224   0.948 -1.1810  0.0173  1.9810
  881SOL     OW 2641   1.427   1.798   1.123  0.6535 -0.0316  0.3929
  881SOL    HW1 2642   1.378   1.710   1.157 -2.8338 -0.4506  0.7825
  881SOL    HW2 2643   1.462   1.860   1.199 -0.7297 -0.9975 -2.0579
  882SOL     OW 2644   2.171   1.104   2.639 -0.5891 -0.1272  0.4265
  882SOL    HW1 2645   2.258   1.151   2.619 -1.8484  1.2513  2.1321
  882SOL    HW2 2646   2.122   1.077   2.552  0.6691 -1.7009  0.1916
  883SOL     OW 2647   1.206   0.341   0.838 -0.2050  0.1418  0.1696
  883SOL    HW1 2648   1.155   0.417   0.790  0.4508  0.1564  0.9212
  883SOL    HW2 2649   1.153   0.255   0.840 -0.9271  0.9589  0.2937
  884SOL     OW 2650   3.087   3.007   0.924 -0.1196  0.0087  0.5837
  884SOL    HW1 2651   0.061   3.006   0.849 -0.1192 -0.3736 -1.0786
  884SOL    HW2 2652   0.011   3.091   0.982 -1.5008 -1.5088  0.4261
  885SOL     OW 2653   1.231   1.227   1.595 -0.0965 -0.7751 -0.2498
  885SOL    HW1 2654   1.204   1.164   1.669 -0.0534 -1.2217 -0.8550
  885SOL    HW2 2655   1.333   1.247   1.600  2.8967  0.8345 -1.2973
  886SOL     OW 2656   1.208   0.799   2.889  0.2952 -0.3458  0.0237
  886SOL    HW1 2657   1.132   0.863   2.918 -0.3260 -0.5866  0.4030
  886SOL    HW2 2658   1.273   0.851   2.828 -0.1309 -2.6003  2.2759
  887SOL     OW 2659   1.702   0.210   0.776 -0.5530  0.1677  0.9835
  887SOL    HW1 2660   1.683   0.309   0.792 -2.9514  2.1144  0.2679
  887SOL    HW2 2661   1.769   0.174   0.847  0.9615 -0.2561  1.6503
  888SOL     OW 2662   2.301   1.565   1.889 -0.4271  0.3150  0.3411
  888SOL    HW1 2663   2.380   1.627   1.876 -1.7603 -0.0638  0.5399
  888SOL    HW2 2664   2.325   1.502   1.971  1.9219  0.5444  1.9367
  889SOL     OW 2665   3.074   2.109   1.105 -0.6497  0.1975 -0.1836
  889SOL    HW1 2666   3.078   2.189   1.044  1.0184 -0.6861  0.4504
  889SOL    HW2 2667   3.012   2.119   1.191 -0.7184  0.4498  0.7062
  890SOL     OW 2668   1.295   2.076   0.541 -0.0316 -0.2215  0.0151
  890SOL    HW1 2669   1.388   2.082   0.499  0.4325  2.7530  1.9659
  890SOL    HW2 2670   1.238   2.128   0.483  4.7735 -0.5908  1.9102
  891SOL     OW 2671   2.618   0.604   2.327 -0.0399 -0.2400  0.0249
  891SOL    HW1 2672   2.639   0.659   2.413 -0.1237  1.2681 -0.0231
  891SOL    HW2 2673   2.600   0.506   2.336 -1.1088  0.1779 -0.7392
  892SOL     OW 2674   0.208   2.598   1.439 -0.1519  0.2408  0.2125
  892SOL    HW1 2675   0.132   2.622   1.376 -0.9695  0.5201 -0.4108
  892SOL    HW2 2676   0.225   2.678   1.501  1.1398 -0.1504 -1.5514
  893SOL     OW 2677   1.135   0.487   2.436  0.9167 -0.3008  0.4741
  893SOL    HW1 2678   1.130   0.586   2.451 -2.1498 -3.1338  0.2994
  893SOL    HW2 2679   1.223   0.456   2.476 -2.0276 -1.6110 -4.1684
  894SOL     OW 2680   2.784   0.145   0.862  0.2999  0.0450 -0.2020
  894SOL    HW1 2681   2.817   0.179   0.950 -0.6161  1.1758  1.3115
  894SOL    HW2 2682   2.716   0.213   0.829  0.5588  0.5563 -1.0011
  895SOL     OW 2683   1.731   1.841   2.436  0.2076  0.2014 -0.6050
  895SOL    HW1 2684   1.698   1.745   2.456 -2.4360 -0.8477 -0.2928
  895SOL    HW2 2685   1.644   1.893   2.432  2.3148 -0.1858  0.4284
  896SOL     OW 2686   1.710   0.610   1.537  0.6726 -0.3813  0.1446
  896SOL    HW1 2687   1.768   0.527   1.522  1.4154  0.9461  0.5733
  896SOL    HW2 2688   1.613   0.598   1.506  0.3477  0.1034  0.9807
  897SOL     OW 2689   0.658   1.760   1.797 -0.3689  0.1104  0.6095
  897SOL    HW1 2690   0.750   1.766   1.841 -0.3966  1.8262 -1.3506
  897SOL    HW2 2691   0.668   1.726   1.699 -0.6394 -2.0379  0.6901
  898SOL     OW 2692   1.653   1.847   2.060 -0.0199  0.4218 -0.7509
  898SOL    HW1 2693   1.585   1.918   2.039  2.3565 -1.0985 -1.3688
  898SOL    HW2 2694   1.748   1.880   2.077 -0.7798  2.6051 -0.1405
  899SOL     OW 2695   1.992   2.073   0.635 -0.2757 -0.2332 -0.7408
  899SOL    HW1 2696   2.041   1.999   0.683  0.9929  2.5843 -0.4731
  899SOL    HW2 2697   1.901   2.037   0.605  3.3469  2.9092  0.3190
  900SOL     OW 2698   0.916   0.070   2.701  0.4680  0.1660 -0.3388
  900SOL    HW1 2699   0.910   3.070   2.741  0.8573  1.9574 -2.8249
  900SOL    HW2 2700   0.921   0.141   2.776 -0.5212 -1.2983  2.2084
  901SOL     OW 2701   1.244   1.534   2.263  0.4166 -0.1503 -0.6979
  901SOL    HW1 2702   1.164   1.591   2.295 -2.4844  0.1397  0.5059
  901SOL    HW2 2703   1.323   1.589   2.233 -1.6312  0.4508  0.4203
  902SOL     OW 2704   2.214   0.492   0.026 -0.5617 -0.0043  0.4773
  902SOL    HW1 2705   2.160   0.568   3.073 -0.1006  1.4404 -1.8308
  902SOL    HW2 2706   2.153   0.444   0.088  1.3305 -2.5122 -0.8149
  903SOL     OW 2707   2.169   0.789   2.321  0.1663  0.8730  0.1070
  903SOL    HW1 2708   2.112   0.724   2.265  4.2664  0.0861  0.0534
  903SOL    HW2 2709   2.268   0.784   2.291 -3.4039 -1.8404 -1.2767
  904SOL     OW 2710   2.017   1.145   1.638 -0.0878 -0.7700  0.2231
  904SOL    HW1 2711   1.988   1.078   1.568  1.6543  1.6325  0.5908
  904SOL    HW2 2712   2.088   1.101   1.691 -0.1167  1.4215 -1.2772
  905SOL     OW 2713   2.175   0.383   0.847  0.5881 -0.4906  0.0538
  905SOL    HW1 2714   2.203   0.449   0.775 -1.1656 -0.0685  1.4142
  905SOL    HW2 2715   2.138   0.436   0.924  1.6655 -1.2154  1.8437
  906SOL     OW 2716   2.585   1.525   0.422 -0.2031  0.2825 -0.1852
  906SOL    HW1 2717   2.686   1.513   0.405  2.1905  3.1076  1.5134
  906SOL    HW2 2718   2.564   1.626   0.430  0.8314 -0.1996  0.4983
  907SOL     OW 2719   1.355   2.985   0.485 -0.8150  0.3619  0.1350
  907SOL    HW1 2720   1.337   2.996   0.586  1.2075  2.9084  3.3863
  907SOL    HW2 2721   1.380   3.070   0.441 -1.3750 -2.1494 -1.0974
  908SOL     OW 2722   1.455   2.133   2.084  0.0358 -0.7509  0.1240
  908SOL    HW1 2723   1.457   2.232   2.080 -1.9063 -5.1189  3.0097
  908SOL    HW2 2724   1.379   2.096   2.142  2.5788  0.0355 -2.9530
  909SOL     OW 2725   2.362   0.467   2.117 -0.2095  0.3356  0.7849
  909SOL    HW1 2726   2.391   0.556   2.161 -0.7495 -0.6671  0.8164
  909SOL    HW2 2727   2.351   0.392   2.188  0.1951 -0.4348  1.2423
  910SOL     OW 2728   1.171   0.194   2.594  0.3051 -0.1807  0.1300
  910SOL    HW1 2729   1.084   0.141   2.591 -0.7319 -0.0227 -0.8063
  910SOL    HW2 2730   1.242   0.154   2.655 -0.3879 -1.2202 -1.5854
  911SOL     OW 2731   2.666   1.068   2.828  0.3005 -0.0895 -0.2880
  911SOL    HW1 2732   2.648   0.971   2.851 -0.1669  0.6216 -1.7493
  911SOL    HW2 2733   2.748   1.107   2.873 -2.4253 -2.3412 -0.3463
  912SOL     OW 2734   2.955   2.412   1.430 -0.0899 -0.0049 -0.3726
  912SOL    HW1 2735   2.868   2.441   1.387 -0.5085 -0.5140 -0.7100
  912SOL    HW2 2736   2.936   2.340   1.501  0.4327  3.4498 -0.2979
  913SOL     OW 2737   2.717   1.907   2.394  1.3655 -0.2974 -0.3870
  913SOL    HW1 2738   2.733   1.970   2.470  0.0306 -1.6898  1.0132
  913SOL    HW2 2739   2.618   1.889   2.393 -1.2234 -2.3735 -0.0715
  914SOL     OW 2740   2.251   1.374   0.723 -0.1332 -0.3422 -0.4464
  914SOL    HW1 2741   2.171   1.413   0.675  1.1118 -2.5943 -0.7237
  914SOL    HW2 2742   2.225   1.280   0.747  1.6053  1.5101  0.1037
  915SOL     OW 2743   0.721   2.562   1.887 -0.5008  0.6822 -0.5394
  915SOL    HW1 2744   0.650   2.493   1.916 -4.8775  1.3549 -1.6529
  915SOL    HW2 2745   0.686   2.612   1.807 -1.7856 -1.5347  0.8734
  916SOL     OW 2746   0.519   2.642   0.864 -0.2452 -0.1640  0.0068
  916SOL    HW1 2747   0.508   2.537   0.862  0.7759 -0.4520  1.3452
  916SOL    HW2 2748   0.445   2.682   0.921  0.4405 -1.9575 -1.9982
  917SOL     OW 2749   2.466   0.643   2.715  0.3925 -0.0046  0.5229
  917SOL    HW1 2750   2.425   0.733   2.749  2.6860  0.5366  0.8631
  917SOL    HW2 2751   2.521   0.659   2.629 -0.7687 -0.8649 -2.2386
  918SOL     OW 2752   1.537   2.365   2.491  0.0411  0.1433  0.0905
  918SOL    HW1 2753   1.516   2.427   2.571 -3.0879  1.6557  1.6279
  918SOL    HW2 2754   1.605   2.295   2.515 -0.8858 -0.7021  1.3043
  919SOL     OW 2755   1.786   2.210   1.021 -0.7176  0.2002  0.0397
  919SOL    HW1 2756   1.839   2.244   0.941 -0.3006 -2.1253 -2.0031
  919SOL    HW2 2757   1.704   2.262   1.039 -1.7491 -1.1617 -0.3103
  920SOL     OW 2758   1.257   0.096   2.309  0.4389  0.5506  0.4090
  920SOL    HW1 2759   1.238   0.150   2.397  0.9625  1.4639  0.7738
  920SOL    HW2 2760   1.339   0.036   2.319 -1.4816  1.9762  0.5757
  921SOL     OW 2761   0.229   0.788   2.609  0.6043 -0.6950  0.0934
  921SOL    HW1 2762   0.226   0.833   2.514 -0.9856 -1.1931 -2.2744
  921SOL    HW2 2763   0.260   0.695   2.611 -1.9341  1.9744  1.9229
  922SOL     OW 2764   2.920   2.068   1.346  0.1478 -0.2937 -0.1475
  922SOL    HW1 2765   2.905   1.970   1.369 -1.1936  3.5219  1.7741
  922SOL    HW2 2766   2.837   2.117   1.320 -1.1890 -0.0137 -0.2051
  923SOL     OW 2767   3.029   1.730   2.571 -0.5182  0.2758  0.1227
  923SOL    HW1 2768   3.087   1.698   2.493  0.5993  3.2139  0.1890
  923SOL    HW2 2769   3.039   1.661   2.649  1.3357 -2.9951  1.3943
  924SOL     OW 2770   1.274   0.264   2.084 -0.1181 -0.1433 -0.0594
  924SOL    HW1 2771   1.368   0.257   2.050  0.7320  3.5303 -3.2850
  924SOL    HW2 2772   1.261   0.196   2.163  0.8058 -0.5350  2.0268
  925SOL     OW 2773   0.010   1.184   0.650 -0.3570  0.2497 -0.1542
  925SOL    HW1 2774   0.105   1.174   0.613  2.8259 -1.6929 -0.4108
  925SOL    HW2 2775   3.078   1.105   0.709  0.5829  1.0445  1.3444
  926SOL     OW 2776   2.278   0.430   1.265 -0.6979 -0.4741  0.6097
  926SOL    HW1 2777   2.348   0.398   1.195 -1.6805 -2.9592 -3.3533
  926SOL    HW2 2778   2.323   0.466   1.349 -0.0600 -0.0116  2.0023
  927SOL     OW 2779   1.449   0.718   1.157  0.0414  0.1595  0.0162
  927SOL    HW1 2780   1.475   0.735   1.060 -0.6760  1.8375 -0.6425
  927SOL    HW2 2781   1.349   0.704   1.167 -0.8464 -2.7874 -1.5385
  928SOL     OW 2782   2.962   0.532   2.360  0.0987  0.0714  0.2780
  928SOL    HW1 2783   2.928   0.560   2.448  0.2655 -0.3154 -3.0744
  928SOL    HW2 2784   3.031   0.606   2.331  1.0153  2.7073 -1.7319
  929SOL     OW 2785   2.371   0.720   1.138 -0.5126  0.0777 -0.3312
  929SOL    HW1 2786   2.296   0.660   1.174 -2.5559  1.1726 -2.4631
  929SOL    HW2 2787   2.420   0.771   1.212  2.6386 -0.2295  3.7812
  930SOL     OW 2788   2.055   2.388   0.979 -0.0811 -0.1106 -0.3568
  930SOL    HW1 2789   1.998   2.357   0.901 -3.0032  1.2472  1.3126
  930SOL    HW2 2790   2.006   2.465   1.026 -0.5248  2.5159 -0.8607
  931SOL     OW 2791   1.840   0.988   1.014  0.2713 -0.5683  0.5206
  931SOL    HW1 2792   1.742   0.966   1.013  1.0984  0.0063 -2.2475
  931SOL    HW2 2793   1.872   1.048   0.937 -1.6372  0.2714 -1.0502
  932SOL     OW 2794   3.045   0.812   1.540  0.4548  0.7130 -0.4742
  932SOL    HW1 2795   2.975   0.762   1.597 -2.1690 -0.0363 -2.6661
  932SOL    HW2 2796   0.039   0.760   1.554 -0.3118  1.9039  1.7654
  933SOL     OW 2797   1.794   1.613   2.059 -0.0013 -0.1792  0.2856
  933SOL    HW1 2798   1.892   1.595   2.029  2.9021  0.5969  0.8004
  933SOL    HW2 2799   1.749   1.695   2.014  1.3865  0.9831 -4.1130
  934SOL     OW 2800   1.546   2.955   1.919  0.1152  0.2822  0.2011
  934SOL    HW1 2801   1.608   3.003   1.855  1.6884  2.3577  1.2200
  934SOL    HW2 2802   1.448   2.973   1.897 -1.9512  1.4899  1.1047
  935SOL     OW 2803   3.021   0.860   1.260 -0.2282 -1.0076  0.3674
  935SOL    HW1 2804   3.072   0.856   1.348  0.6722  1.2780 -2.0344
  935SOL    HW2 2805   2.922   0.856   1.268  1.5409 -0.5533  0.6322
  936SOL     OW 2806   2.705   0.649   1.420 -0.4342  0.2139  0.1850
  936SOL    HW1 2807   2.764   0.653   1.503 -2.2163 -0.0589 -0.9800
  936SOL    HW2 2808   2.721   0.736   1.364  0.4240  0.7410 -0.5656
  937SOL     OW 2809   0.865   0.237   1.398  0.4965 -0.0168 -0.1168
  937SOL    HW1 2810   0.907   0.326   1.375 -0.7660 -1.4234  0.6826
  937SOL    HW2 2811   0.870   0.231   1.500  1.5583 -1.2960 -2.5097
  938SOL     OW 2812   0.234   2.537   0.767  0.1863 -0.3064 -0.2715
  938SOL    HW1 2813   0.230   2.453   0.822  1.5240 -0.9553 -0.1757
  938SOL    HW2 2814   0.218   2.517   0.669 -2.3814  0.4388 -2.5142
  939SOL     OW 2815   2.833   2.486   2.805 -0.0317  0.1545  0.2483
  939SOL    HW1 2816   2.904   2.460   2.738  0.1729 -1.8038  0.6030
  939SOL    HW2 2817   2.817   2.590   2.820  0.2225  1.2126  1.4348
  940SOL     OW 2818   2.042   1.912   3.022 -0.3367 -0.0305 -0.0040
  940SOL    HW1 2819   2.127   1.946   2.969  0.6537  1.7483 -3.4093
  940SOL    HW2 2820   1.957   1.911   2.968 -3.6760 -1.4210  0.8598
  941SOL     OW 2821   1.817   2.633   0.745 -0.0245  0.3539 -0.1170
  941SOL    HW1 2822   1.759   2.571   0.690  0.3690  1.0199  1.8011
  941SOL    HW2 2823   1.877   2.699   0.691 -3.0736  2.1192 -0.1942
  942SOL     OW 2824   1.915   1.383   1.145 -0.3561 -0.6803 -0.2994
  942SOL    HW1 2825   1.993   1.360   1.079  1.2536 -0.1009  0.2484
  942SOL    HW2 2826   1.947   1.419   1.236  0.7921  0.7443  3.5554
  943SOL     OW 2827   2.008   0.672   1.896  0.6633 -0.0809  0.0983
  943SOL    HW1 2828   1.960   0.729   1.827  1.8171 -0.2230  2.5830
  943SOL    HW2 2829   2.081   0.609   1.868 -1.6464 -0.8779  0.9775
  944SOL     OW 2830   1.350   0.862   1.770 -0.1805 -0.1001 -0.8532
  944SOL    HW1 2831   1.265   0.914   1.755 -1.6303 -0.7510  2.2834
  944SOL    HW2 2832   1.397   0.844   1.684  2.2868 -0.1331  1.4829
  945SOL     OW 2833   2.688   2.815   1.417  0.4524 -0.5128  0.1601
  945SOL    HW1 2834   2.607   2.879   1.395  1.5733  0.5670 -0.0715
  945SOL    HW2 2835   2.763   2.822   1.352  0.8129 -2.1782  2.0699
  946SOL     OW 2836   0.727   1.722   0.609 -0.0173 -0.0487 -0.2727
  946SOL    HW1 2837   0.808   1.665   0.637  0.3948  2.9415  2.6448
  946SOL    HW2 2838   0.758   1.815   0.577  0.2399  1.4208  0.1568
  947SOL     OW 2839   0.872   2.455   1.168  0.0813  0.0639 -0.1933
  947SOL    HW1 2840   0.821   2.513   1.105 -0.3757 -1.7189 -1.6721
  947SOL    HW2 2841   0.821   2.440   1.254  1.0093 -0.0732 -2.4915
  948SOL     OW 2842   0.239   1.682   1.468  0.2201 -0.2555  0.3856
  948SOL    HW1 2843   0.249   1.783   1.469 -0.4662 -1.0314 -2.1227
  948SOL    HW2 2844   0.204   1.660   1.376 -0.0363 -0.7607  1.2940
  949SOL     OW 2845   0.579   0.744   1.954  0.8486  0.3675  0.2659
  949SOL    HW1 2846   0.674   0.743   1.918 -0.5324 -0.3748 -1.0796
  949SOL    HW2 2847   0.561   0.816   2.018 -0.7823 -0.6865  0.2146
  950SOL     OW 2848   0.424   0.756   1.190  0.3960 -0.1448 -0.8991
  950SOL    HW1 2849   0.340   0.706   1.225 -1.9181  2.1022  1.2193
  950SOL    HW2 2850   0.450   0.838   1.247  0.1157  0.2923  0.2064
  951SOL     OW 2851   0.928   1.950   2.050  0.6446  0.6765  0.3463
  951SOL    HW1 2852   0.926   1.856   2.013 -1.2181  1.1057  0.2966
  951SOL    HW2 2853   1.023   1.974   2.076 -0.3285  1.7787  2.9126
  952SOL     OW 2854   1.349   1.435   0.150  0.3866 -0.1009 -0.2309
  952SOL    HW1 2855   1.391   1.456   0.241 -4.2994 -0.1635  0.4983
  952SOL    HW2 2856   1.400   1.355   0.115 -1.5637 -0.9992  0.4750
  953SOL     OW 2857   0.879   2.892   2.768  0.6680 -0.7829 -0.0851
  953SOL    HW1 2858   0.831   2.798   2.762  0.1166 -4.6316  0.0491
  953SOL    HW2 2859   0.965   2.878   2.825  1.2185 -0.1787  1.6117
  954SOL     OW 2860   1.795   1.512   0.140  0.1607 -0.0149  0.2927
  954SOL    HW1 2861   1.798   1.429   0.202  2.4875 -2.9572  0.6228
  954SOL    HW2 2862   1.891   1.538   0.123  0.8819 -1.2670  3.3088
  955SOL     OW 2863   0.208   2.575   2.900 -0.0530  0.8899 -0.3034
  955SOL    HW1 2864   0.254   2.647   2.958  0.2951 -1.1306  0.0260
  955SOL    HW2 2865   0.181   2.622   2.812  0.5241  0.3030 -1.3788
  956SOL     OW 2866   1.461   0.845   1.505  0.3792  0.1767  0.3111
  956SOL    HW1 2867   1.475   0.755   1.457 -0.0931  2.7922 -0.4951
  956SOL    HW2 2868   1.422   0.904   1.430  0.8666 -0.5835  0.1828
  957SOL     OW 2869   1.582   1.795   1.723  0.4354 -0.3911 -0.3899
  957SOL    HW1 2870   1.667   1.770   1.777  3.4257 -0.8398 -1.3251
  957SOL    HW2 2871   1.525   1.868   1.765 -3.0983 -0.2501  1.7536
  958SOL     OW 2872   1.124   2.245   1.434  0.1100 -0.2073  0.2732
  958SOL    HW1 2873   1.211   2.245   1.487 -0.1573 -0.4298  1.6181
  958SOL    HW2 2874   1.130   2.300   1.350 -1.4587 -2.8043 -0.2919
  959SOL     OW 2875   1.430   1.168   1.053 -0.2778 -0.3835  0.1795
  959SOL    HW1 2876   1.495   1.107   1.100 -0.3680  1.7376  0.5471
  959SOL    HW2 2877   1.346   1.118   1.035 -0.7221  1.4393  0.0747
  960SOL     OW 2878   0.283   1.632   2.919 -0.2177 -0.1622  0.1945
  960SOL    HW1 2879   0.322   1.617   3.013 -0.1454 -1.1481 -3.6417
  960SOL    HW2 2880   0.247   1.543   2.882  0.2855 -1.3492 -0.6703
  961SOL     OW 2881   0.686   1.372   1.952  0.2126  0.1388 -0.1328
  961SOL    HW1 2882   0.647   1.464   1.980  2.3467  1.8318  0.1034
  961SOL    HW2 2883   0.773   1.386   1.899 -2.5433 -2.7890 -1.3514
  962SOL     OW 2884   1.369   1.789   0.864 -0.4015  0.1005  0.3763
  962SOL    HW1 2885   1.457   1.748   0.830 -0.9519 -1.4511  0.1606
  962SOL    HW2 2886   1.372   1.788   0.961  1.2489  2.2186 -0.6824
  963SOL     OW 2887   1.481   2.069   2.672  0.0959  0.0881  0.1235
  963SOL    HW1 2888   1.438   2.141   2.732 -0.6084  2.3126  2.4482
  963SOL    HW2 2889   1.500   1.981   2.722 -0.0123 -0.3547 -1.7809
  964SOL     OW 2890   0.664   0.179   0.274 -0.0659  0.2095  0.3276
  964SOL    HW1 2891   0.622   0.235   0.348  1.1340  3.1133 -0.5464
  964SOL    HW2 2892   0.715   0.099   0.315 -0.8942  0.7549 -0.1704
  965SOL     OW 2893   0.743   2.656   0.987  0.0447  0.0139  0.2983
  965SOL    HW1 2894   0.652   2.671   0.935  0.3816 -1.4428 -0.8174
  965SOL    HW2 2895   0.827   2.684   0.935  1.4892  3.9357 -0.8494
  966SOL     OW 2896   0.314   1.827   2.703  0.4358 -0.2246 -0.2063
  966SOL    HW1 2897   0.256   1.896   2.749  1.1681 -0.4351 -2.3172
  966SOL    HW2 2898   0.340   1.753   2.767 -1.4808  0.8861 -1.5308
  967SOL     OW 2899   0.345   2.934   2.431 -0.5097 -0.0889  0.0247
  967SOL    HW1 2900   0.251   2.975   2.442 -1.6401  1.4479 -1.2873
  967SOL    HW2 2901   0.382   2.966   2.342 -1.2347 -0.8439  1.5419
  968SOL     OW 2902   2.264   0.406   0.377 -0.2235  0.3937 -0.5059
  968SOL    HW1 2903   2.194   0.456   0.433  0.7514 -1.3664  1.8631
  968SOL    HW2 2904   2.306   0.471   0.308  0.6370  0.8829 -0.7309
  969SOL     OW 2905   0.124   1.689   1.989 -0.0249 -0.2697  0.3689
  969SOL    HW1 2906   0.125   1.782   2.031  0.9149 -1.6655  1.9230
  969SOL    HW2 2907   0.152   1.696   1.895 -1.0098 -0.7622  1.2256
  970SOL     OW 2908   2.584   1.435   1.477  0.3141 -0.1860  0.5333
  970SOL    HW1 2909   2.674   1.394   1.451 -0.8052  0.5025  0.2343
  970SOL    HW2 2910   2.497   1.397   1.439 -2.9477 -2.1077 -0.6958
  971SOL     OW 2911   2.117   0.216   1.250  0.1744 -0.4515  0.4734
  971SOL    HW1 2912   2.175   0.290   1.293 -1.3690  3.4691 -1.8479
  971SOL    HW2 2913   2.166   0.159   1.182 -0.4454 -1.5460 -1.9684
  972SOL     OW 2914   0.242   3.037   1.874  0.1841  0.1678 -0.5007
  972SOL    HW1 2915   0.206   2.989   1.956 -1.0284  2.0250  0.0971
  972SOL    HW2 2916   0.176   3.025   1.797 -2.2650 -2.2914 -1.5457
  973SOL     OW 2917   2.948   0.578   0.088  0.0365  0.2456  0.1838
  973SOL    HW1 2918   3.001   0.665   0.084  1.6261  1.1858  0.6527
  973SOL    HW2 2919   2.936   0.542   3.084 -2.0441  0.4734 -0.1759
  974SOL     OW 2920   1.831   1.528   2.340  0.7943  0.1340 -0.2622
  974SOL    HW1 2921   1.926   1.504   2.364 -2.6519 -0.1918  1.8706
  974SOL    HW2 2922   1.823   1.589   2.260  2.5756  1.7546  1.2556
  975SOL     OW 2923   0.081   3.015   1.627 -0.6418  0.1202  0.0714
  975SOL    HW1 2924   0.071   3.071   1.541 -0.4194  0.8568  1.3162
  975SOL    HW2 2925   0.131   2.926   1.613  0.7874  0.8194  1.4816
  976SOL     OW 2926   0.288   2.006   1.950 -0.9073 -0.4984 -0.2617
  976SOL    HW1 2927   0.372   2.059   1.924 -0.0526  0.1511 -1.1261
  976SOL    HW2 2928   0.320   1.908   1.964  0.0809  2.6212 -0.2952
  977SOL     OW 2929   0.973   2.816   0.268 -0.3182  0.1557  0.7064
  977SOL    HW1 2930   1.039   2.819   0.343  0.5196  1.1192 -0.8947
  977SOL    HW2 2931   0.896   2.754   0.292 -1.1287 -1.5068 -1.0369
  978SOL     OW 2932   0.156   2.022   2.820 -0.1421  0.3964 -0.2323
  978SOL    HW1 2933   0.093   2.014   2.742  1.8838  1.5588  2.4846
  978SOL    HW2 2934   0.125   2.080   2.896 -0.9613 -2.2653 -1.2452
  979SOL     OW 2935   1.611   2.347   1.361 -0.5092 -0.0406  0.8752
  979SOL    HW1 2936   1.606   2.383   1.454  3.0910 -1.1781 -0.2463
  979SOL    HW2 2937   1.707   2.329   1.341 -2.8815 -0.2789  0.0933
  980SOL     OW 2938   0.792   1.787   2.715 -0.0860  0.4392 -0.7905
  980SOL    HW1 2939   0.711   1.840   2.683  2.1274  2.7433 -0.0917
  980SOL    HW2 2940   0.777   1.732   2.802  0.6858 -3.9870  0.8838
  981SOL     OW 2941   2.457   3.026   2.310  0.7310  0.2284 -0.4235
  981SOL    HW1 2942   2.429   3.056   2.216 -0.5697 -0.6884 -0.2275
  981SOL    HW2 2943   2.554   2.995   2.311  2.0573  1.0887 -1.8236
  982SOL     OW 2944   2.872   0.278   3.003 -0.1384 -0.4343  0.3032
  982SOL    HW1 2945   2.781   0.269   2.962 -0.9011  3.1345  0.9742
  982SOL    HW2 2946   2.922   0.357   2.965 -1.0044 -1.0695 -1.4921
  983SOL     OW 2947   2.043   1.535   1.988  0.1820 -0.5068  0.0003
  983SOL    HW1 2948   2.135   1.554   1.949 -2.2493 -1.4371 -0.4764
  983SOL    HW2 2949   2.043   1.436   2.015  1.1366 -3.5136 -1.1864
  984SOL     OW 2950   1.293   0.613   1.876 -0.0015 -0.2098 -0.8037
  984SOL    HW1 2951   1.197   0.636   1.904 -0.7228  0.4858  0.5272
  984SOL    HW2 2952   1.341   0.704   1.874  1.2681  0.2327 -1.5439
  985SOL     OW 2953   1.710   1.408   1.816  0.4951  0.1887 -0.0199
  985SOL    HW1 2954   1.682   1.431   1.910  1.1194 -2.1402 -0.7212
  985SOL    HW2 2955   1.790   1.456   1.777  1.8534 -0.0207 -0.6099
  986SOL     OW 2956   1.807   0.481   1.945 -0.4627 -0.0488 -0.4796
  986SOL    HW1 2957   1.863   0.400   1.984  0.6495  2.3058  2.6083
  986SOL    HW2 2958   1.865   0.566   1.926  0.9464 -0.9405 -1.3705
  987SOL     OW 2959   2.202   0.451   1.886  0.2186 -0.0947 -0.7958
  987SOL    HW1 2960   2.139   0.379   1.914  2.2599 -2.6058  0.9397
  987SOL    HW2 2961   2.258   0.475   1.972 -0.5398  2.7039  0.2588
  988SOL     OW 2962   2.783   0.738   2.162 -0.1431 -0.1430 -0.3794
  988SOL    HW1 2963   2.728   0.687   2.232  2.7046  1.4250  0.4828
  988SOL    HW2 2964   2.876   0.706   2.175 -1.5282  0.3218  0.1191
  989SOL     OW 2965   2.079   2.215   2.873 -0.2462  0.0227 -0.3049
  989SOL    HW1 2966   2.065   2.200   2.772 -0.1136  0.7801 -0.5702
  989SOL    HW2 2967   2.102   2.314   2.904  0.9435  0.6820 -0.8766
  990SOL     OW 2968   1.198   0.438   2.753  0.2651 -0.2466 -0.2821
  990SOL    HW1 2969   1.170   0.355   2.704  0.6403  1.3600  0.8185
  990SOL    HW2 2970   1.114   0.494   2.768  1.7522 -1.5682  1.4472
  991SOL     OW 2971   1.219   0.771   0.399  0.8996  0.2555  0.0480
  991SOL    HW1 2972   1.285   0.843   0.430 -4.3936  0.7335 -1.2250
  991SOL    HW2 2973   1.269   0.704   0.340 -1.1338 -0.6065  0.0396
  992SOL     OW 2974   2.422   1.994   2.716 -0.0330 -0.2628 -0.5233
  992SOL    HW1 2975   2.501   1.925   2.723  0.4966  0.0885  3.4431
  992SOL    HW2 2976   2.432   2.053   2.635 -0.6566 -1.0378 -0.2889
  993SOL     OW 2977   0.352   0.230   0.222  0.7497 -1.0737 -0.2292
  993SOL    HW1 2978   0.433   0.196   0.174 -2.4715  1.5130 -2.7659
  993SOL    HW2 2979   0.377   0.321   0.256  0.8860 -1.2736  0.8402
  994SOL     OW 2980   0.107   1.909   2.138  0.1537 -1.0259 -0.4101
  994SOL    HW1 2981   0.026   1.954   2.180 -1.4693  0.6305 -1.7515
  994SOL    HW2 2982   0.151   1.977   2.077 -1.2825 -1.4050 -1.0744
  995SOL     OW 2983   1.915   1.505   2.885 -0.3351 -0.4429 -0.5552
  995SOL    HW1 2984   1.847   1.523   2.811 -0.5653  2.7334 -0.6583
  995SOL    HW2 2985   1.940   1.407   2.884  0.7447  1.6686  1.0936
  996SOL     OW 2986   1.694   1.679   2.731  0.1524 -0.6849 -0.3986
  996SOL    HW1 2987   1.645   1.640   2.649 -2.3886 -2.9083 -1.1167
  996SOL    HW2 2988   1.629   1.751   2.767 -1.7860  2.1099  0.2971
  997SOL     OW 2989   2.204   1.529   1.640 -0.0662  0.0297 -0.4662
  997SOL    HW1 2990   2.233   1.549   1.734 -2.2554 -2.4486 -2.9584
  997SOL    HW2 2991   2.201   1.617   1.584 -1.0213 -0.3577  3.5791
  998SOL     OW 2992   2.645   1.404   3.078 -0.0949  0.2403 -0.5527
  998SOL    HW1 2993   2.594   1.323   0.017  0.7113  1.4113  0.3819
  998SOL    HW2 2994   2.739   1.410   0.035  2.2849  1.1831  1.7581
  999SOL     OW 2995   2.658   2.461   0.450 -0.0491  0.6785 -0.2858
  999SOL    HW1 2996   2.568   2.421   0.429  1.2724  0.7843 -1.4402
  999SOL    HW2 2997   2.729   2.438   0.376  1.6813 -0.7181 -1.6240
 1000SOL     OW 2998   0.518   2.902   1.870  0.0428 -0.6027 -0.7543
 1000SOL    HW1 2999   0.419   2.911   1.889 -1.7708  4.8685 -1.3518
 1000SOL    HW2 3000   0.583   2.936   1.946  1.1963  0.3756  2.1033
   3.09320   3.09320   3.09320
