1000 SPC/Fw water molecules t= 153.00000 step= 153000
 3000
    1SOL     OW    1   2.492   2.785   0.592 -0.3303 -0.4258 -0.1979
    1SOL    HW1    2   2.514   2.835   0.499  1.5642  0.8148  2.3108
    1SOL    HW2    3   2.400   2.742   0.590  0.8557 -0.5606  1.1612
    2SOL     OW    4   1.426   2.080   2.352  0.0742 -0.0170  0.5751
    2SOL    HW1    5   1.499   2.151   2.367  2.1559 -0.7990  0.8838
    2SOL    HW2    6   1.438   1.997   2.414 -1.8730 -0.5416  1.0727
    3SOL     OW    7   1.745   2.583   2.033 -0.0335  0.2736 -0.4602
    3SOL    HW1    8   1.736   2.516   2.111  0.8752 -0.7824  2.0948
    3SOL    HW2    9   1.831   2.566   1.984 -0.7374 -1.2281 -1.3238
    4SOL     OW   10   1.974   2.486   1.928  0.0804 -0.0918 -0.0277
    4SOL    HW1   11   2.001   2.389   1.940  0.7666  0.0789  0.2964
    4SOL    HW2   12   2.056   2.534   1.888  0.8077 -0.9037 -2.0015
    5SOL     OW   13   0.575   0.498   1.526  0.0181 -0.2200  0.0734
    5SOL    HW1   14   0.567   0.466   1.430  2.9795 -0.4387 -0.7033
    5SOL    HW2   15   0.484   0.508   1.572 -0.5355 -2.8098 -0.5430
    6SOL     OW   16   2.404   0.969   2.940  0.0768 -0.6066  0.3240
    6SOL    HW1   17   2.399   0.882   2.988 -0.2083  0.1191 -2.0113
    6SOL    HW2   18   2.386   0.953   2.840  4.6049 -1.2729 -2.6475
    7SOL     OW   19   0.562   0.471   1.246  0.5988  0.3762  0.7154
    7SOL    HW1   20   0.659   0.474   1.209  1.2176 -0.7499 -1.8518
    7SOL    HW2   21   0.492   0.533   1.208  1.0207  1.5303  0.7270
    8SOL     OW   22   1.309   2.406   1.447 -0.0193 -0.4602  0.1813
    8SOL    HW1   23   1.232   2.393   1.515 -4.1802 -1.5396  3.2440
    8SOL    HW2   24   1.335   2.316   1.415 -0.5821  5.0417  0.6883
    9SOL     OW   25   0.850   0.944   0.002  0.3849  0.3214 -0.0659
    9SOL    HW1   26   0.793   0.914   3.011 -0.2893 -3.0527  1.7166
    9SOL    HW2   27   0.951   0.931   3.077  2.2246 -0.3419 -0.7282
   10SOL     OW   28   0.461   2.650   2.944  0.3258 -0.3407 -0.6171
   10SOL    HW1   29   0.462   2.550   2.942  1.9253  1.6233  1.7933
   10SOL    HW2   30   0.481   2.692   2.852  3.4553  0.6619 -3.8503
   11SOL     OW   31   0.190   1.438   2.913 -0.4760  0.6272 -0.2058
   11SOL    HW1   32   0.104   1.466   2.866 -3.3636  0.7638 -0.8669
   11SOL    HW2   33   0.227   1.516   2.966 -0.7926  2.8210 -1.0512
   12SOL     OW   34   0.598   3.066   1.448  0.1517 -0.1314 -0.7472
   12SOL    HW1   35   0.551   3.003   1.390  1.7199  2.0915  1.3237
   12SOL    HW2   36   0.601   0.067   1.401  1.7023  1.9618  0.6023
   13SOL     OW   37   0.665   2.618   0.584  0.8799 -0.1886  0.0263
   13SOL    HW1   38   0.688   2.528   0.541 -1.1582  2.4748 -0.6126
   13SOL    HW2   39   0.746   2.680   0.600 -1.3739 -1.7316 -0.8380
   14SOL     OW   40   1.313   1.898   0.821  0.4257 -0.1680  0.4330
   14SOL    HW1   41   1.292   1.999   0.813 -1.4178 -0.3208 -0.6032
   14SOL    HW2   42   1.301   1.861   0.913 -1.3020 -0.4619 -3.0251
   15SOL     OW   43   2.375   0.836   2.321 -0.2603  0.6528 -0.0869
   15SOL    HW1   44   2.329   0.909   2.372  0.7495 -1.4983  0.4971
   15SOL    HW2   45   2.433   0.875   2.247 -2.7529  0.5068 -4.5680
   16SOL     OW   46   1.402   2.922   0.020  0.1463  0.4089 -0.0458
   16SOL    HW1   47   1.502   2.915   0.001 -2.1835  1.4895 -1.5076
   16SOL    HW2   48   1.379   3.006   0.070  0.9527 -2.7095 -1.0176
   17SOL     OW   49   0.802   2.517   1.942 -0.4032  0.3033  0.4649
   17SOL    HW1   50   0.711   2.517   1.903  2.2122 -0.9936  3.2655
   17SOL    HW2   51   0.861   2.595   1.904  1.2920  0.5335 -0.7989
   18SOL     OW   52   1.577   0.838   3.070  0.2803 -0.3077 -0.1044
   18SOL    HW1   53   1.550   0.904   0.052  1.0022 -0.8203 -0.1735
   18SOL    HW2   54   1.546   0.867   2.979  0.7885 -1.5615  0.1356
   19SOL     OW   55   2.377   1.939   2.677 -0.4777  0.2289  0.3680
   19SOL    HW1   56   2.374   1.942   2.779  1.6744  1.4640  4.2250
   19SOL    HW2   57   2.446   1.867   2.648 -0.6661  1.8619  0.4892
   20SOL     OW   58   1.864   1.653   2.123 -0.4955  0.1454 -0.3693
   20SOL    HW1   59   1.951   1.600   2.095  0.5334 -1.4999  0.7583
   20SOL    HW2   60   1.807   1.608   2.195  0.8883 -0.5647 -1.9973
   21SOL     OW   61   0.305   1.694   3.014 -0.3671 -0.0784  0.0451
   21SOL    HW1   62   0.365   1.717   0.003 -0.5423  1.1920 -0.0174
   21SOL    HW2   63   0.345   1.723   2.924 -1.0382  1.4718 -1.6159
   22SOL     OW   64   2.362   3.072   1.419  0.0790 -0.5875  0.0199
   22SOL    HW1   65   2.373   0.039   1.335  0.8856  0.1529 -1.3764
   22SOL    HW2   66   2.450   3.036   1.459 -1.1088 -0.2930  0.2638
   23SOL     OW   67   0.046   1.284   1.692  0.7379 -0.2013 -0.8494
   23SOL    HW1   68   0.062   1.187   1.667 -0.5010  0.1919  0.5636
   23SOL    HW2   69   0.131   1.339   1.705 -1.6003 -0.6080 -1.6957
   24SOL     OW   70   2.541   1.813   1.532  0.3037 -0.4403  0.8805
   24SOL    HW1   71   2.588   1.720   1.554 -1.4244 -0.9614 -0.0247
   24SOL    HW2   72   2.470   1.843   1.600 -0.2038 -0.8392 -0.4885
   25SOL     OW   73   2.001   2.908   2.689  0.0702  0.4389 -0.3580
   25SOL    HW1   74   2.045   2.947   2.608 -0.2103  0.7861  2.2663
   25SOL    HW2   75   1.921   2.860   2.653 -1.5426 -0.0513 -1.8699
   26SOL     OW   76   1.315   2.817   0.576  0.5180 -0.1192 -0.4874
   26SOL    HW1   77   1.325   2.916   0.583 -2.3471 -1.7785  0.7207
   26SOL    HW2   78   1.396   2.773   0.537 -0.4098 -1.6437 -0.3063
   27SOL     OW   79   0.865   2.145   3.037  0.6252  0.5171  0.2751
   27SOL    HW1   80   0.888   2.101   0.035 -1.3128 -1.5954 -0.9088
   27SOL    HW2   81   0.770   2.109   3.011  0.4567 -0.1572 -0.9576
   28SOL     OW   82   2.899   1.727   1.318 -0.3121 -0.7576  0.2837
   28SOL    HW1   83   2.922   1.639   1.276  0.2746  0.0630 -0.0512
   28SOL    HW2   84   2.841   1.781   1.252  0.9500 -0.5389  0.0131
   29SOL     OW   85   2.651   2.244   2.051 -0.2675 -0.1096  0.2382
   29SOL    HW1   86   2.578   2.301   2.094  1.2575  0.2603  1.5071
   29SOL    HW2   87   2.740   2.298   2.043  0.5856  1.7435  1.7946
   30SOL     OW   88   1.080   2.685   1.236  0.1211  0.2963 -0.4981
   30SOL    HW1   89   1.077   2.785   1.259  0.0504 -0.2711 -0.8496
   30SOL    HW2   90   1.026   2.675   1.150 -2.7979 -0.9019 -0.2832
   31SOL     OW   91   3.029   2.220   1.879 -0.5181  0.5839 -0.8424
   31SOL    HW1   92   2.961   2.144   1.866  1.0530 -1.0845 -0.0272
   31SOL    HW2   93   3.083   2.195   1.963 -1.0331 -3.6363  1.3172
   32SOL     OW   94   1.341   0.951   1.958 -0.5411  0.2073 -0.4955
   32SOL    HW1   95   1.297   1.020   1.895 -2.5117  2.6337 -3.0369
   32SOL    HW2   96   1.384   0.988   2.042  0.6707  1.7503  0.9282
   33SOL     OW   97   0.641   3.000   2.587 -0.3975  0.3490  0.4979
   33SOL    HW1   98   0.555   3.022   2.640  0.8783 -3.2520  0.7582
   33SOL    HW2   99   0.708   2.935   2.634 -0.0574  0.1606  0.1438
   34SOL     OW  100   1.732   3.001   1.375  0.2423  0.0994  0.0921
   34SOL    HW1  101   1.759   2.954   1.465  2.3116 -4.8080  0.5077
   34SOL    HW2  102   1.805   2.984   1.311 -2.0545 -0.4212  1.6093
   35SOL     OW  103   2.122   0.561   1.066  0.0796  0.4413  0.2161
   35SOL    HW1  104   2.153   0.561   0.970 -0.1913 -1.4540 -2.4415
   35SOL    HW2  105   2.186   0.615   1.125  2.6237 -0.5798  1.4804
   36SOL     OW  106   2.253   2.755   2.092  0.0360  0.0824 -0.4782
   36SOL    HW1  107   2.247   2.682   2.166  1.0306 -1.5410  1.7607
   36SOL    HW2  108   2.324   2.823   2.119 -0.2934  0.8837  2.1853
   37SOL     OW  109   1.274   2.543   2.530  0.4588  0.4020  0.1053
   37SOL    HW1  110   1.258   2.467   2.598 -1.1973 -0.4425 -0.9140
   37SOL    HW2  111   1.340   2.512   2.459 -1.6540  0.8984 -1.5575
   38SOL     OW  112   2.273   0.391   0.044  0.0136 -0.0805  0.1727
   38SOL    HW1  113   2.336   0.317   0.066 -3.5457  3.3909 -0.0615
   38SOL    HW2  114   2.303   0.444   3.058  2.4633 -3.7933  3.4176
   39SOL     OW  115   1.806   2.051   2.311 -0.0760 -0.0693  0.8118
   39SOL    HW1  116   1.769   2.112   2.383  0.9359  0.9220 -1.7568
   39SOL    HW2  117   1.786   1.954   2.337  0.7127 -1.3702  0.9280
   40SOL     OW  118   0.339   3.054   2.962 -0.1673  0.0697 -0.0618
   40SOL    HW1  119   0.314   3.071   2.863  3.1251 -1.2313  0.8050
   40SOL    HW2  120   0.272   2.990   3.009 -2.6372 -0.8659 -1.5376
   41SOL     OW  121   1.526   0.744   1.534  0.3916 -0.1480  0.1095
   41SOL    HW1  122   1.449   0.685   1.498  1.1798 -2.3476 -0.5027
   41SOL    HW2  123   1.574   0.705   1.614 -0.9282  0.3784  0.2902
   42SOL     OW  124   0.529   0.144   1.676 -0.5635 -0.1314 -0.0760
   42SOL    HW1  125   0.548   0.102   1.582 -0.9536 -1.3341 -2.4588
   42SOL    HW2  126   0.616   0.175   1.725  3.5525  2.2664  0.0446
   43SOL     OW  127   1.565   0.297   2.004  0.2137 -0.2804  0.2541
   43SOL    HW1  128   1.542   0.302   2.106  0.2480  0.7898 -1.3209
   43SOL    HW2  129   1.636   0.364   1.972  0.8089  2.6249  0.5862
   44SOL     OW  130   0.174   2.644   2.648  0.1666 -0.5663  0.2148
   44SOL    HW1  131   0.234   2.725   2.630  3.1414  2.5023  1.6992
   44SOL    HW2  132   0.074   2.683   2.647 -1.2336 -0.6930 -0.5320
   45SOL     OW  133   0.151   2.357   1.440  0.3844 -0.1168 -0.0461
   45SOL    HW1  134   0.084   2.320   1.513 -0.0731 -0.6936  1.5072
   45SOL    HW2  135   0.237   2.406   1.475  2.0639 -1.4145  2.9148
   46SOL     OW  136   2.012   2.213   2.266 -0.1567 -0.2531  0.6052
   46SOL    HW1  137   2.008   2.248   2.169  0.6460  0.7994  1.7088
   46SOL    HW2  138   1.948   2.134   2.273  1.2466  0.1003 -0.7315
   47SOL     OW  139   1.823   1.948   1.591 -0.5128  0.1406 -0.1580
   47SOL    HW1  140   1.760   1.963   1.672 -0.2887  0.1775 -0.7922
   47SOL    HW2  141   1.770   1.891   1.521 -2.8824 -1.8133  1.5129
   48SOL     OW  142   0.219   1.761   0.300  0.3349  0.3951 -0.6917
   48SOL    HW1  143   0.254   1.750   0.395  1.8462  0.5516  2.1794
   48SOL    HW2  144   0.120   1.781   0.303  2.5523  0.2981  1.7511
   49SOL     OW  145   2.660   0.553   2.233 -0.5141  0.0721 -0.0878
   49SOL    HW1  146   2.580   0.541   2.293 -1.2544 -0.5274  0.8492
   49SOL    HW2  147   2.644   0.489   2.153 -0.6194 -1.9221 -1.1594
   50SOL     OW  148   1.875   0.826   0.928  0.5275  0.5097 -0.0134
   50SOL    HW1  149   1.865   0.826   0.825  0.0829 -0.8985 -3.9915
   50SOL    HW2  150   1.815   0.751   0.966 -3.3077 -0.6299  0.3196
   51SOL     OW  151   1.124   0.661   0.951  0.1548  0.2307  0.4222
   51SOL    HW1  152   1.081   0.716   1.024 -1.0224 -3.4489  0.5042
   51SOL    HW2  153   1.197   0.712   0.902 -0.2711 -3.3915 -1.0132
   52SOL     OW  154   1.302   1.284   2.994  0.1507 -0.3853  0.1586
   52SOL    HW1  155   1.307   1.248   3.086  0.6566  1.4503 -1.8926
   52SOL    HW2  156   1.228   1.247   2.936 -0.3850  1.7253  1.3531
   53SOL     OW  157   1.226   2.042   2.647  0.1627 -0.0492  0.5605
   53SOL    HW1  158   1.151   2.024   2.715 -0.4453 -0.8752  2.2927
   53SOL    HW2  159   1.250   2.141   2.631 -0.0495  0.8356 -3.1785
   54SOL     OW  160   1.992   0.582   1.588 -0.4534  0.2134 -0.4181
   54SOL    HW1  161   1.970   0.665   1.532  1.2023  0.7826 -1.7368
   54SOL    HW2  162   1.942   0.578   1.675 -0.8402 -0.1494  1.2546
   55SOL     OW  163   1.901   2.755   0.722  0.3350 -0.2016 -0.0708
   55SOL    HW1  164   1.918   2.772   0.624  0.7876 -1.0136  0.9918
   55SOL    HW2  165   1.806   2.727   0.734  1.8909  2.2185 -0.9162
   56SOL     OW  166   0.907   2.515   1.372  0.8003  0.3918  0.1041
   56SOL    HW1  167   0.981   2.584   1.350  1.2104  1.5304  0.4154
   56SOL    HW2  168   0.866   2.539   1.467 -0.7886 -0.1337 -1.0636
   57SOL     OW  169   1.913   0.898   0.244 -0.0743 -0.2715  0.7148
   57SOL    HW1  170   1.916   0.935   0.145 -3.3214  0.4649 -3.2140
   57SOL    HW2  171   1.818   0.911   0.280 -0.1532 -1.4996 -0.0618
   58SOL     OW  172   0.136   1.192   2.291  0.2422  0.1339  0.0162
   58SOL    HW1  173   0.146   1.111   2.354 -3.2095  0.5780 -0.0389
   58SOL    HW2  174   0.037   1.219   2.281  2.7507  0.8906 -0.7013
   59SOL     OW  175   0.848   2.485   2.420  0.3280  0.0181 -0.0005
   59SOL    HW1  176   0.864   2.588   2.429  0.4848  1.1923 -0.0677
   59SOL    HW2  177   0.805   2.459   2.331 -1.0447  1.1778  0.2169
   60SOL     OW  178   2.573   2.871   0.982  0.1305  0.6223 -0.3203
   60SOL    HW1  179   2.514   2.783   0.987 -2.9195 -2.4653  0.7198
   60SOL    HW2  180   2.539   2.928   0.901  1.8847  3.1420 -3.0806
   61SOL     OW  181   1.289   1.975   0.523  0.0276  0.2682 -0.0798
   61SOL    HW1  182   1.233   1.921   0.586  0.5256  0.5549 -2.9036
   61SOL    HW2  183   1.365   2.025   0.569 -0.4345 -0.6050 -1.2498
   62SOL     OW  184   2.257   2.587   2.983  1.0197  0.0076 -0.2460
   62SOL    HW1  185   2.347   2.571   2.945 -0.3946 -0.0776  0.9896
   62SOL    HW2  186   2.246   2.676   3.034  3.4263  1.5399  2.5028
   63SOL     OW  187   1.806   0.504   0.329  0.1573 -0.4528 -0.1266
   63SOL    HW1  188   1.882   0.488   0.268 -0.0909  0.2626 -0.5509
   63SOL    HW2  189   1.751   0.583   0.293 -1.6696  3.4763 -0.5661
   64SOL     OW  190   0.875   1.056   2.581 -0.0842  0.1589  0.5449
   64SOL    HW1  191   0.824   0.980   2.535  1.2928  1.4212 -2.3970
   64SOL    HW2  192   0.813   1.112   2.638 -0.6037 -1.2438  0.5585
   65SOL     OW  193   1.258   2.302   0.609  0.2836 -0.3213 -0.1295
   65SOL    HW1  194   1.296   2.270   0.524 -0.6107  0.0801  2.4692
   65SOL    HW2  195   1.247   2.224   0.677  0.1136 -0.0583 -1.3192
   66SOL     OW  196   0.556   1.340   1.926 -0.1036  0.0832 -0.2239
   66SOL    HW1  197   0.597   1.338   2.019 -1.7524  2.0449 -1.4311
   66SOL    HW2  198   0.467   1.390   1.928 -0.0063 -0.9850  3.0707
   67SOL     OW  199   2.335   0.092   2.495  0.3383 -0.4356  0.8060
   67SOL    HW1  200   2.350   0.154   2.414 -2.7812  1.2043 -0.7913
   67SOL    HW2  201   2.418   0.041   2.518  0.5476  1.4168 -2.1968
   68SOL     OW  202   0.796   0.779   1.393 -0.2294  0.0881 -0.3939
   68SOL    HW1  203   0.775   0.826   1.482  1.0401  0.5208  2.1813
   68SOL    HW2  204   0.874   0.714   1.393  0.7600  2.6813 -1.7732
   69SOL     OW  205   1.517   2.713   0.437  0.4079  0.0122 -0.3933
   69SOL    HW1  206   1.594   2.772   0.400  0.2985 -0.4022 -0.6756
   69SOL    HW2  207   1.550   2.657   0.515  2.0000 -1.9211  0.1373
   70SOL     OW  208   2.888   0.997   2.339  0.3351  0.4310 -0.4268
   70SOL    HW1  209   2.949   0.916   2.352  0.2840  1.9769 -0.2689
   70SOL    HW2  210   2.797   0.963   2.312  2.7057 -1.9614  2.9786
   71SOL     OW  211   2.844   1.498   3.032  0.4285  0.3308  0.1449
   71SOL    HW1  212   2.761   1.470   2.977 -4.1499 -0.5277  1.4197
   71SOL    HW2  213   2.926   1.508   2.968 -2.5949 -1.7296  0.4491
   72SOL     OW  214   3.043   1.723   0.332 -0.2952  0.4191  0.0426
   72SOL    HW1  215   2.999   1.660   0.402 -0.3170  1.7848  1.8344
   72SOL    HW2  216   3.026   1.819   0.362  0.6730 -0.1212  0.5197
   73SOL     OW  217   0.959   1.571   0.476 -0.5683 -0.0081  0.3877
   73SOL    HW1  218   0.992   1.482   0.509  0.6407  1.5346 -1.0230
   73SOL    HW2  219   0.962   1.566   0.372  1.2490 -0.7832  0.1537
   74SOL     OW  220   0.403   1.901   1.960 -0.0040 -0.0301 -0.3070
   74SOL    HW1  221   0.322   1.881   2.018  0.8496 -0.3538  0.4208
   74SOL    HW2  222   0.432   1.823   1.901  0.4129  2.7871 -1.3305
   75SOL     OW  223   1.765   1.418   1.609 -0.2746 -0.0049  0.3037
   75SOL    HW1  224   1.710   1.346   1.648  0.6629  2.7750 -0.4481
   75SOL    HW2  225   1.745   1.507   1.652  1.0249  0.3306 -2.5993
   76SOL     OW  226   2.207   2.613   1.303 -0.1591  0.4854 -0.3207
   76SOL    HW1  227   2.219   2.516   1.266  1.2054 -0.5045 -0.2600
   76SOL    HW2  228   2.172   2.600   1.397 -2.7245 -3.0471  1.6619
   77SOL     OW  229   2.749   1.041   1.491 -0.5696  0.7676 -0.1221
   77SOL    HW1  230   2.823   0.972   1.516 -0.4212  0.5772 -0.7665
   77SOL    HW2  231   2.720   1.031   1.393 -1.3546  0.2899  0.7491
   78SOL     OW  232   1.196   0.913   0.384 -0.7712  0.2706  0.5430
   78SOL    HW1  233   1.256   0.995   0.384  1.9420  1.9974  1.3563
   78SOL    HW2  234   1.249   0.830   0.415 -0.3780 -1.6956  0.8412
   79SOL     OW  235   2.471   1.282   1.646 -0.1333  0.4551  0.0093
   79SOL    HW1  236   2.435   1.193   1.622  2.3824  0.0312 -1.4244
   79SOL    HW2  237   2.561   1.273   1.699  2.1316  0.3657  1.8127
   80SOL     OW  238   0.820   0.477   1.623  0.9009  0.2674  0.5949
   80SOL    HW1  239   0.720   0.489   1.599 -3.3305 -1.4294  1.4005
   80SOL    HW2  240   0.864   0.437   1.546  0.4174  0.7574 -1.6694
   81SOL     OW  241   0.979   2.914   0.868 -0.2857 -0.2612 -0.2385
   81SOL    HW1  242   1.067   2.858   0.859  2.0332 -0.2969 -0.8759
   81SOL    HW2  243   0.993   3.015   0.841  0.6898  2.5263  1.0953
   82SOL     OW  244   1.287   3.089   1.653  0.4432 -0.5345  0.0581
   82SOL    HW1  245   1.376   0.021   1.612 -2.0150 -0.8164  0.8733
   82SOL    HW2  246   1.264   2.993   1.634 -0.3684  0.8683  0.0387
   83SOL     OW  247   1.203   2.146   0.825 -0.3016  0.1328 -0.3637
   83SOL    HW1  248   1.229   2.211   0.898 -2.6585  1.1960 -0.1037
   83SOL    HW2  249   1.104   2.126   0.831  0.5928  0.8120 -0.0873
   84SOL     OW  250   0.429   1.790   2.739  0.2998  0.2718  0.5309
   84SOL    HW1  251   0.350   1.729   2.710  1.9270  2.0877 -4.1062
   84SOL    HW2  252   0.514   1.733   2.732 -0.1962 -0.0102  0.1727
   85SOL     OW  253   0.134   2.243   1.213 -0.3419 -0.2116  0.4088
   85SOL    HW1  254   0.047   2.187   1.212 -2.5752  1.0696  0.6478
   85SOL    HW2  255   0.146   2.297   1.296  1.6865  0.2669 -0.4186
   86SOL     OW  256   2.457   2.565   1.325 -0.2443 -0.0662  0.0701
   86SOL    HW1  257   2.514   2.574   1.409 -3.2338  1.7054 -1.0932
   86SOL    HW2  258   2.361   2.593   1.338  0.1675  1.3324  2.7133
   87SOL     OW  259   0.099   1.927   0.625 -0.2924 -0.0937 -0.7034
   87SOL    HW1  260   0.149   1.844   0.602 -1.7594  0.3472 -1.6177
   87SOL    HW2  261   0.165   1.999   0.654 -0.0613 -1.6443  0.9353
   88SOL     OW  262   0.684   1.272   1.511  0.4063 -0.3181  0.3914
   88SOL    HW1  263   0.597   1.245   1.554  3.2667  2.6523 -0.0262
   88SOL    HW2  264   0.698   1.234   1.419  0.6100  2.0906 -0.3267
   89SOL     OW  265   1.069   2.873   2.113 -0.2625 -0.6573 -0.5943
   89SOL    HW1  266   1.048   2.968   2.087 -0.8638 -0.4214 -2.2342
   89SOL    HW2  267   0.984   2.822   2.131  1.5378  2.1610 -0.6501
   90SOL     OW  268   0.029   1.877   1.385  0.2108 -0.0272  0.0532
   90SOL    HW1  269   0.069   1.857   1.478  2.1786 -0.2399 -0.3865
   90SOL    HW2  270   3.037   1.822   1.366 -2.1588  1.7829  0.0685
   91SOL     OW  271   1.407   1.807   1.147  0.3276  0.0864  0.0925
   91SOL    HW1  272   1.314   1.811   1.180  0.8492 -2.8091 -0.4533
   91SOL    HW2  273   1.449   1.713   1.148  0.7796 -1.0111 -0.0147
   92SOL     OW  274   2.509   2.680   1.864  0.1012  0.2000 -0.6403
   92SOL    HW1  275   2.440   2.610   1.880  3.4837  2.4842 -1.7067
   92SOL    HW2  276   2.552   2.661   1.770  3.3602 -1.5241 -3.7161
   93SOL     OW  277   2.899   1.447   2.615 -0.0904  0.3593  0.0092
   93SOL    HW1  278   2.950   1.365   2.584 -1.7313 -0.0516  0.4213
   93SOL    HW2  279   2.839   1.428   2.694 -0.5607 -1.3644  0.3635
   94SOL     OW  280   2.639   3.068   2.192  0.5620  0.3735 -0.0473
   94SOL    HW1  281   2.654   0.068   2.231  2.3443 -0.3713  1.1874
   94SOL    HW2  282   2.714   3.050   2.123 -1.0781 -1.0295  0.1306
   95SOL     OW  283   1.333   0.342   1.852  0.3637 -0.3068  0.4324
   95SOL    HW1  284   1.395   0.278   1.899 -0.9947  1.2545 -0.3850
   95SOL    HW2  285   1.338   0.428   1.908  1.1999  2.8201  0.4379
   96SOL     OW  286   2.745   0.464   1.769 -0.7812  0.3639 -0.6484
   96SOL    HW1  287   2.676   0.463   1.694  0.4034 -0.7574  0.6573
   96SOL    HW2  288   2.695   0.467   1.863 -2.7924  0.8705  2.0098
   97SOL     OW  289   2.111   0.436   1.387  0.2924  0.0463  0.1934
   97SOL    HW1  290   2.045   0.462   1.314 -1.0605  0.2975  1.3016
   97SOL    HW2  291   2.078   0.476   1.475  1.2858  1.3519  0.9187
   98SOL     OW  292   1.919   2.698   1.312 -0.2438 -0.4802 -0.1895
   98SOL    HW1  293   1.922   2.742   1.406 -0.0932 -0.8653 -1.2989
   98SOL    HW2  294   2.017   2.689   1.279 -0.4093 -0.6108 -1.6417
   99SOL     OW  295   2.883   0.220   1.772 -0.7042  0.0467  0.0799
   99SOL    HW1  296   2.822   0.299   1.770 -2.7554 -2.4128 -1.8777
   99SOL    HW2  297   2.964   0.246   1.713  0.9620 -0.4039 -0.4927
  100SOL     OW  298   2.655   1.265   1.856  0.0275  0.7354 -0.3964
  100SOL    HW1  299   2.613   1.319   1.930 -1.4860  2.0168 -0.9003
  100SOL    HW2  300   2.754   1.251   1.861 -1.0519  0.0746 -0.3714
  101SOL     OW  301   1.406   0.587   0.728 -0.2555  0.0786 -0.5460
  101SOL    HW1  302   1.486   0.546   0.776  0.0845 -1.6829 -1.4499
  101SOL    HW2  303   1.376   0.673   0.774 -0.1996  1.2536 -1.2567
  102SOL     OW  304   0.368   0.929   1.238  0.0182  0.4533  0.2556
  102SOL    HW1  305   0.303   1.000   1.269 -0.2453 -0.8467 -1.4020
  102SOL    HW2  306   0.411   0.886   1.324 -1.0594 -1.2722  2.2599
  103SOL     OW  307   2.414   0.764   0.026 -0.5737  0.0738  0.1721
  103SOL    HW1  308   2.332   0.740   0.081  0.9425  0.3810 -1.4626
  103SOL    HW2  309   2.455   0.849   0.065  0.2693  1.4488 -0.2449
  104SOL     OW  310   0.006   0.185   1.929 -0.1791 -0.2602 -0.0945
  104SOL    HW1  311   0.077   0.132   1.876 -1.2482  0.0956 -0.6362
  104SOL    HW2  312   3.021   0.209   1.870  1.6545 -1.7321  0.9305
  105SOL     OW  313   1.924   0.746   1.814 -0.2022  0.4910  0.5202
  105SOL    HW1  314   1.834   0.789   1.823 -0.7950 -0.1852  1.6148
  105SOL    HW2  315   1.992   0.811   1.787 -1.7817 -3.2921  3.1580
  106SOL     OW  316   1.662   3.059   1.056  0.2753 -0.1825  0.3844
  106SOL    HW1  317   1.743   3.022   1.002 -0.5710 -5.1901 -0.7977
  106SOL    HW2  318   1.627   2.995   1.125 -1.3593  0.5266  1.0819
  107SOL     OW  319   0.542   1.006   0.704 -0.2430 -0.1510 -0.8454
  107SOL    HW1  320   0.537   0.991   0.604 -2.1576  1.2555 -2.3975
  107SOL    HW2  321   0.445   1.020   0.743 -2.8541  0.6638  1.9042
  108SOL     OW  322   2.614   0.393   1.972  0.2601 -0.1856 -0.7408
  108SOL    HW1  323   2.521   0.392   1.928 -3.3294 -1.3584 -2.9038
  108SOL    HW2  324   2.623   0.309   2.025 -0.7406  0.1776 -2.1742
  109SOL     OW  325   2.335   0.784   0.417 -0.1250  0.0690  0.2710
  109SOL    HW1  326   2.269   0.793   0.493 -0.1126 -0.5429  1.3472
  109SOL    HW2  327   2.385   0.697   0.436 -0.1296 -3.3823  0.3568
  110SOL     OW  328   0.177   2.403   2.810 -0.4353  0.7534 -0.2337
  110SOL    HW1  329   0.165   2.348   2.727  0.1593  0.6208  0.9338
  110SOL    HW2  330   0.161   2.499   2.792 -0.6674 -0.2403  0.0614
  111SOL     OW  331   1.869   3.077   2.029  0.3143  0.0436 -0.0625
  111SOL    HW1  332   1.869   0.055   2.100 -0.1597 -3.5973 -0.0326
  111SOL    HW2  333   1.795   0.008   1.960 -0.4674  0.6992 -1.9157
  112SOL     OW  334   2.209   2.663   0.266 -0.0327  0.1780 -0.0528
  112SOL    HW1  335   2.147   2.619   0.201 -0.0518  1.8799  1.3182
  112SOL    HW2  336   2.307   2.626   0.250  0.6376 -0.9107 -2.3947
  113SOL     OW  337   2.358   2.242   1.418  0.0510 -0.3784  0.2842
  113SOL    HW1  338   2.456   2.214   1.418 -1.1014 -0.5587 -0.3198
  113SOL    HW2  339   2.324   2.272   1.510  0.6918  1.5405 -1.5075
  114SOL     OW  340   2.874   0.957   0.969 -0.3228  0.4675 -0.2460
  114SOL    HW1  341   2.819   1.019   0.911 -0.7091  2.5427  0.2525
  114SOL    HW2  342   2.890   0.871   0.915  2.2475 -1.0411  0.6796
  115SOL     OW  343   2.936   1.713   0.068 -0.1479  0.3503 -0.0221
  115SOL    HW1  344   2.979   1.707   0.159  0.3813  2.7532 -0.9366
  115SOL    HW2  345   2.891   1.629   0.022  1.0387 -0.3893 -1.7447
  116SOL     OW  346   2.995   1.521   2.193 -0.2937 -0.4745  0.1792
  116SOL    HW1  347   2.961   1.427   2.187 -0.3549  0.4718  3.5861
  116SOL    HW2  348   0.002   1.538   2.220 -1.6061  1.8451  2.4771
  117SOL     OW  349   2.450   2.991   0.787  0.1699  0.5643 -0.1768
  117SOL    HW1  350   2.429   3.082   0.754 -2.4925 -0.7788  3.0451
  117SOL    HW2  351   2.437   2.918   0.716  2.0653 -3.3937  2.5073
  118SOL     OW  352   0.410   2.210   1.601 -0.4488  0.5663 -0.3776
  118SOL    HW1  353   0.362   2.213   1.692  0.7141  1.7661  1.0930
  118SOL    HW2  354   0.393   2.289   1.538  0.4741 -1.8559 -3.1577
  119SOL     OW  355   1.813   2.060   0.512 -0.0248 -0.2624 -0.0849
  119SOL    HW1  356   1.910   2.048   0.481 -3.8517  2.4818  0.9869
  119SOL    HW2  357   1.799   2.037   0.613  0.0770  0.2614  1.4686
  120SOL     OW  358   3.010   1.967   2.294  0.0031  0.9439  0.0722
  120SOL    HW1  359   3.080   1.892   2.293  0.9232 -1.7376  0.3001
  120SOL    HW2  360   2.925   1.944   2.248  1.0126  1.0797 -0.4383
  121SOL     OW  361   2.518   1.929   1.286  0.5751 -0.1779  0.3138
  121SOL    HW1  362   2.428   1.904   1.242  1.0540 -1.1196  2.5233
  121SOL    HW2  363   2.521   1.873   1.373  0.1349 -3.4401  0.9876
  122SOL     OW  364   2.164   1.356   2.383  0.1736  0.0216  0.1575
  122SOL    HW1  365   2.235   1.402   2.324  1.1294  0.6595  0.4039
  122SOL    HW2  366   2.202   1.332   2.477  1.8198 -2.9953  0.2316
  123SOL     OW  367   0.012   2.941   0.808  0.7021  0.4790  0.1445
  123SOL    HW1  368   3.066   2.852   0.843  1.2928  2.8213  0.1273
  123SOL    HW2  369   0.114   2.942   0.802 -0.1868  0.8288 -0.9158
  124SOL     OW  370   1.736   0.715   2.669  0.1176  0.0484 -0.3036
  124SOL    HW1  371   1.786   0.804   2.679  1.8075 -3.2970  0.5292
  124SOL    HW2  372   1.655   0.723   2.605 -2.0078  0.2855 -1.6235
  125SOL     OW  373   0.700   1.469   2.932 -0.1846 -0.0898 -0.1962
  125SOL    HW1  374   0.734   1.529   3.006 -1.2599  1.0571  1.9633
  125SOL    HW2  375   0.608   1.432   2.953  2.0194  2.2057  0.9941
  126SOL     OW  376   2.799   1.919   3.028 -0.0424 -0.5239 -0.1016
  126SOL    HW1  377   2.840   1.959   2.948 -2.2870  0.4191  0.0641
  126SOL    HW2  378   2.852   1.842   3.070  2.4695 -1.1225  1.1441
  127SOL     OW  379   0.600   1.854   1.112 -0.2461  0.3525  0.1062
  127SOL    HW1  380   0.501   1.872   1.085  2.0605  0.1148 -0.1085
  127SOL    HW2  381   0.610   1.766   1.157 -1.1134  4.0997 -1.9006
  128SOL     OW  382   1.064   0.754   0.137  0.4300 -0.1560 -0.3025
  128SOL    HW1  383   1.098   0.722   0.048 -0.7377 -0.5467  0.4294
  128SOL    HW2  384   1.113   0.839   0.154 -1.9841  0.3229 -0.2212
  129SOL     OW  385   2.319   1.532   1.024  0.1060 -0.5481  0.0789
  129SOL    HW1  386   2.295   1.589   0.941 -0.9152  2.9062 -0.3058
  129SOL    HW2  387   2.415   1.486   1.024  0.9359 -0.8285  1.2250
  130SOL     OW  388   2.036   1.739   0.760  0.1591 -0.4275 -0.4556
  130SOL    HW1  389   2.061   1.661   0.706 -0.0184  0.7089 -0.4224
  130SOL    HW2  390   1.944   1.722   0.809 -1.6414 -0.0275  1.1763
  131SOL     OW  391   2.827   1.174   2.835 -0.0200  0.4118 -0.1866
  131SOL    HW1  392   2.751   1.134   2.893 -1.6332 -0.4081  0.1349
  131SOL    HW2  393   2.925   1.152   2.867  0.8548 -1.5262  1.7953
  132SOL     OW  394   2.436   1.838   1.966  0.6584 -0.0841 -0.0056
  132SOL    HW1  395   2.469   1.925   1.925 -1.2035  0.4133  0.5685
  132SOL    HW2  396   2.498   1.755   1.952 -0.3857 -0.5461  1.7434
  133SOL     OW  397   3.086   0.964   0.083 -0.3252 -0.1272  0.3746
  133SOL    HW1  398   0.002   0.884   0.148 -3.8297  1.8207  1.8131
  133SOL    HW2  399   0.084   0.984   0.033  0.2124 -1.0687 -1.9365
  134SOL     OW  400   0.245   1.028   0.025 -0.2215 -0.7804 -0.6498
  134SOL    HW1  401   0.334   1.026   3.066  1.8975 -1.8385 -2.0177
  134SOL    HW2  402   0.206   1.127   0.034 -1.5573  1.5219  0.9450
  135SOL     OW  403   2.138   1.594   0.435 -0.3894 -0.0825  0.2513
  135SOL    HW1  404   2.146   1.568   0.533 -1.0327 -2.7246  0.0710
  135SOL    HW2  405   2.216   1.642   0.397 -0.4173  0.6576  2.5263
  136SOL     OW  406   2.082   1.539   1.353  0.0115 -0.1971 -0.1266
  136SOL    HW1  407   2.037   1.459   1.391  0.1364  0.1807  0.9959
  136SOL    HW2  408   2.082   1.546   1.249  0.3275  0.0001 -1.0813
  137SOL     OW  409   2.498   1.849   0.691 -0.0524 -0.4639 -0.3956
  137SOL    HW1  410   2.545   1.939   0.706  1.7445 -0.0811  0.7549
  137SOL    HW2  411   2.466   1.840   0.597 -1.2923 -2.3899 -3.3497
  138SOL     OW  412   1.111   0.251   1.179 -0.2339 -0.1892 -0.5462
  138SOL    HW1  413   1.166   0.338   1.163  2.1913 -1.0167 -2.1811
  138SOL    HW2  414   1.170   0.165   1.174  2.6217 -1.7965  1.1805
  139SOL     OW  415   2.229   0.020   0.138 -0.0696  0.4026 -0.1993
  139SOL    HW1  416   2.182   3.047   0.079  1.7909  0.1287  1.4778
  139SOL    HW2  417   2.319   0.045   0.091  0.3236 -0.0953  0.5684
  140SOL     OW  418   1.532   2.110   2.820 -0.7447  0.2833  0.0262
  140SOL    HW1  419   1.505   2.016   2.805 -0.3169  2.0049  0.1094
  140SOL    HW2  420   1.626   2.109   2.861  0.2805 -0.1728  0.1935
  141SOL     OW  421   0.738   0.950   1.597 -0.4404 -0.0247 -0.5207
  141SOL    HW1  422   0.675   0.974   1.671  4.3972 -1.7805 -2.7890
  141SOL    HW2  423   0.836   0.981   1.602 -0.4061 -0.2719  0.2167
  142SOL     OW  424   2.463   0.144   0.049 -0.2103 -0.3951  0.1557
  142SOL    HW1  425   2.547   0.130   0.103  0.0792  2.3462 -3.6200
  142SOL    HW2  426   2.468   0.088   3.055  0.4465 -1.3186  0.6094
  143SOL     OW  427   0.670   2.374   2.771 -0.3585 -0.2060 -0.0529
  143SOL    HW1  428   0.743   2.448   2.783  3.4960 -0.9703 -1.0612
  143SOL    HW2  429   0.648   2.354   2.674  1.0915  1.5134 -0.6663
  144SOL     OW  430   1.343   2.793   2.596 -0.1475 -0.0110 -0.1820
  144SOL    HW1  431   1.331   2.691   2.583 -1.1577 -1.0452 -2.8128
  144SOL    HW2  432   1.315   2.827   2.686 -1.7934 -1.1721 -1.9175
  145SOL     OW  433   2.432   1.583   3.065 -0.3157 -0.4315 -0.4749
  145SOL    HW1  434   2.482   1.660   3.023  0.8582 -4.1657  1.8391
  145SOL    HW2  435   2.331   1.587   3.051 -0.4052  2.6539 -0.4563
  146SOL     OW  436   2.677   2.697   0.132 -0.4762  0.3640 -0.2612
  146SOL    HW1  437   2.724   2.780   0.172  0.9408 -1.6705  0.1758
  146SOL    HW2  438   2.744   2.625   0.111  0.9342 -0.9287 -3.4233
  147SOL     OW  439   2.587   2.375   1.147 -0.4780 -0.3088 -0.3208
  147SOL    HW1  440   2.531   2.444   1.193  0.9134 -0.8403  2.2503
  147SOL    HW2  441   2.543   2.357   1.056  0.9195 -0.5804  2.2672
  148SOL     OW  442   1.702   0.257   0.292 -0.3241 -0.0838 -0.3674
  148SOL    HW1  443   1.744   0.347   0.324  2.3369  1.5241  0.4840
  148SOL    HW2  444   1.688   0.268   0.193 -1.6039  2.3836  1.1205
  149SOL     OW  445   1.154   1.535   2.736  0.3058 -0.1118 -0.2258
  149SOL    HW1  446   1.125   1.438   2.723 -0.7210  4.1410  1.5498
  149SOL    HW2  447   1.108   1.593   2.662 -1.8397  0.1863 -0.0468
  150SOL     OW  448   0.741   2.400   0.479  0.5511 -0.2876  0.3192
  150SOL    HW1  449   0.696   2.322   0.433 -1.6010  1.9996 -2.0142
  150SOL    HW2  450   0.818   2.364   0.527 -4.2106  2.2680  0.6710
  151SOL     OW  451   0.836   1.636   0.044 -0.5021  0.6000  0.0239
  151SOL    HW1  452   0.901   1.660   3.061 -0.3125 -1.3786 -0.2473
  151SOL    HW2  453   0.826   1.717   0.108 -1.3826 -1.2475  1.9712
  152SOL     OW  454   2.964   1.142   0.478  0.0772  0.1697  0.2489
  152SOL    HW1  455   2.865   1.156   0.501  2.0598  0.5090 -1.4336
  152SOL    HW2  456   3.001   1.069   0.542 -2.3110 -1.3060 -0.0861
  153SOL     OW  457   2.463   2.569   0.268 -0.2382 -0.2549 -0.1393
  153SOL    HW1  458   2.521   2.538   0.346  0.4160  1.0695  1.1119
  153SOL    HW2  459   2.515   2.627   0.206  0.1633  2.0300  1.9860
  154SOL     OW  460   0.577   2.941   1.096  0.0582  0.2284  0.3247
  154SOL    HW1  461   0.504   2.983   1.155  0.1761  1.8796 -2.5852
  154SOL    HW2  462   0.555   2.959   1.002 -1.5690 -1.0854  2.2302
  155SOL     OW  463   0.362   2.031   1.076  0.4902 -0.0111  0.4376
  155SOL    HW1  464   0.296   2.079   1.013  1.2796 -2.2098  1.0568
  155SOL    HW2  465   0.389   2.095   1.153  0.7825  1.5181 -0.6085
  156SOL     OW  466   2.468   2.221   2.838  0.1418  0.5352  0.4478
  156SOL    HW1  467   2.522   2.181   2.758  0.1489 -1.6113 -1.3423
  156SOL    HW2  468   2.532   2.242   2.913  2.4174 -0.4721  0.9980
  157SOL     OW  469   1.178   2.161   1.313 -0.3734 -0.4456 -0.2736
  157SOL    HW1  470   1.106   2.198   1.376  1.5709  2.0162  0.1592
  157SOL    HW2  471   1.158   2.187   1.217 -0.2915  1.8493 -0.5758
  158SOL     OW  472   1.673   0.587   0.006  0.5202 -0.4506  0.0356
  158SOL    HW1  473   1.769   0.585   0.037 -2.3770  1.4540  2.2885
  158SOL    HW2  474   1.643   0.685   3.089  0.9913 -1.3408 -0.7588
  159SOL     OW  475   1.174   0.469   2.675  0.1980 -0.6850  0.2811
  159SOL    HW1  476   1.075   0.483   2.671  1.9270  2.0006  0.9187
  159SOL    HW2  477   1.218   0.429   2.592 -2.0297 -0.1864  1.9783
  160SOL     OW  478   1.233   1.558   0.315  0.3295 -0.4617  0.0978
  160SOL    HW1  479   1.229   1.656   0.290  1.2065 -3.8497  1.2728
  160SOL    HW2  480   1.156   1.505   0.269  0.9092  1.6769 -1.2156
  161SOL     OW  481   0.032   2.216   3.038 -0.1665 -0.7342  0.1043
  161SOL    HW1  482   0.086   2.279   2.987 -1.5897 -3.4885  3.1833
  161SOL    HW2  483   0.073   2.200   0.041 -0.2601  2.3170  2.2318
  162SOL     OW  484   0.628   2.648   1.005 -0.2841 -0.1555  0.8276
  162SOL    HW1  485   0.725   2.621   0.988  0.0770 -2.7397 -0.8277
  162SOL    HW2  486   0.624   2.730   1.064 -0.2261  0.8961 -0.3108
  163SOL     OW  487   2.646   1.069   2.983 -0.3090  0.0706  0.4015
  163SOL    HW1  488   2.563   1.012   2.964  2.6017  0.9482 -0.2375
  163SOL    HW2  489   2.718   1.009   3.008 -1.0015  0.6519 -0.2242
  164SOL     OW  490   0.194   2.811   2.975  0.0343  0.2613 -0.0059
  164SOL    HW1  491   0.275   2.752   2.962  1.5367  0.4047  2.2249
  164SOL    HW2  492   0.105   2.763   3.002  0.2309 -0.4043  0.9938
  165SOL     OW  493   2.235   0.240   1.268  0.2107  0.0697 -0.3650
  165SOL    HW1  494   2.173   0.305   1.317  0.4955 -1.9533  1.8586
  165SOL    HW2  495   2.189   0.220   1.181 -1.5107  2.0264  1.4823
  166SOL     OW  496   1.844   0.192   1.075  0.2162 -0.0055 -0.4010
  166SOL    HW1  497   1.939   0.164   1.046 -0.6370 -0.7101  1.6531
  166SOL    HW2  498   1.786   0.116   1.102 -2.1915  0.5676 -2.3071
  167SOL     OW  499   0.974   0.512   1.988 -0.1736 -0.5836 -0.2655
  167SOL    HW1  500   0.949   0.559   1.904  2.9400  0.0975 -1.9513
  167SOL    HW2  501   0.911   0.535   2.068  1.2500  0.2214 -2.4467
  168SOL     OW  502   2.379   0.420   1.889 -0.3385  0.0753 -0.7694
  168SOL    HW1  503   2.316   0.343   1.911 -3.7998  0.4063 -0.0704
  168SOL    HW2  504   2.347   0.471   1.811  2.5547 -2.6357  0.0828
  169SOL     OW  505   0.405   1.342   0.397 -0.1637 -0.5235 -0.2514
  169SOL    HW1  506   0.468   1.384   0.328  1.3053  2.6804  0.0751
  169SOL    HW2  507   0.362   1.259   0.361 -0.2025 -2.6201 -2.5982
  170SOL     OW  508   0.097   1.013   1.668 -0.1164  0.3219  0.0338
  170SOL    HW1  509   0.152   0.937   1.621  0.1792  2.5893 -2.1244
  170SOL    HW2  510   0.005   0.979   1.695  2.4534  0.1998 -2.0999
  171SOL     OW  511   1.309   2.049   1.904  0.0895  0.1860 -0.0187
  171SOL    HW1  512   1.358   2.137   1.881 -1.0368 -0.8749  2.2566
  171SOL    HW2  513   1.233   2.035   1.838  2.1257 -1.4465 -0.1391
  172SOL     OW  514   0.394   2.467   1.495 -0.2119 -0.0538 -0.4008
  172SOL    HW1  515   0.429   2.531   1.564 -1.1128 -1.2420  1.3817
  172SOL    HW2  516   0.465   2.455   1.424 -0.3703 -2.7577 -1.8300
  173SOL     OW  517   1.195   2.766   0.831 -0.0376  0.2769 -0.0162
  173SOL    HW1  518   1.230   2.800   0.740  1.2088 -2.5645  1.6095
  173SOL    HW2  519   1.220   2.668   0.851 -0.2296 -2.1264  1.0116
  174SOL     OW  520   1.015   2.792   0.222  0.8055  0.4063 -0.4277
  174SOL    HW1  521   1.099   2.761   0.173 -0.6689  0.3240  0.4234
  174SOL    HW2  522   1.013   2.754   0.319 -0.4761 -0.0522 -0.4254
  175SOL     OW  523   1.046   0.923   2.882 -0.4169  0.1240 -0.4267
  175SOL    HW1  524   1.058   1.019   2.850  0.3742 -1.9980 -0.5800
  175SOL    HW2  525   0.995   0.872   2.811  2.2825  1.9461  1.9437
  176SOL     OW  526   1.678   0.912   0.358  0.0179 -0.0001  0.1634
  176SOL    HW1  527   1.620   0.969   0.300 -0.4437 -2.2500  1.4693
  176SOL    HW2  528   1.637   0.909   0.452  0.6840 -0.5209  0.8703
  177SOL     OW  529   1.271   1.210   0.688  0.6810  0.1893  0.5196
  177SOL    HW1  530   1.216   1.131   0.727 -2.8116  0.7733  1.0036
  177SOL    HW2  531   1.344   1.244   0.746 -0.4691  1.8845  0.4929
  178SOL     OW  532   2.645   1.466   2.510  0.3944  0.0874 -0.0162
  178SOL    HW1  533   2.746   1.475   2.540  2.8541 -0.3576 -0.9668
  178SOL    HW2  534   2.627   1.537   2.433  0.5685  1.5136 -1.0424
  179SOL     OW  535   0.649   2.787   0.017 -0.9496 -0.6866  0.0690
  179SOL    HW1  536   0.571   2.727   3.083 -0.5004 -1.9315 -3.4198
  179SOL    HW2  537   0.731   2.727   0.037  0.6298 -2.1249 -0.8980
  180SOL     OW  538   1.781   1.576   1.343  0.0348 -0.2843 -0.1290
  180SOL    HW1  539   1.877   1.566   1.306 -0.5928  0.2262  1.7046
  180SOL    HW2  540   1.774   1.516   1.421 -2.5916  1.7700  2.0310
  181SOL     OW  541   1.071   1.369   2.170 -0.1872 -0.3237 -0.1775
  181SOL    HW1  542   1.060   1.281   2.125  0.3214  0.8405  3.7603
  181SOL    HW2  543   1.128   1.358   2.253  0.0759 -0.3565 -3.5441
  182SOL     OW  544   3.039   0.899   2.712  0.1079 -0.8378  0.0305
  182SOL    HW1  545   0.040   0.942   2.722  2.8581 -0.6757 -0.0400
  182SOL    HW2  546   2.971   0.963   2.756  1.0381  0.5875  1.6815
  183SOL     OW  547   1.478   0.272   2.516 -0.3260  0.2347 -0.1993
  183SOL    HW1  548   1.506   0.292   2.613 -0.0761 -0.6779 -0.5833
  183SOL    HW2  549   1.519   0.191   2.478 -2.6477  1.1233 -1.7885
  184SOL     OW  550   0.161   0.453   1.394 -0.3469  0.5460  0.3178
  184SOL    HW1  551   0.138   0.485   1.486  1.4761  1.8448  0.3552
  184SOL    HW2  552   0.101   0.497   1.321 -0.4218  1.0460  1.2897
  185SOL     OW  553   2.591   1.483   0.994 -0.0217  0.1588  0.5679
  185SOL    HW1  554   2.632   1.519   0.908  2.1361 -0.2423  0.4894
  185SOL    HW2  555   2.652   1.414   1.040  1.7403 -0.6477  0.5854
  186SOL     OW  556   0.133   2.151   2.652 -0.3090 -0.2166 -0.0584
  186SOL    HW1  557   0.110   2.146   2.554  3.1249  2.4477  1.3657
  186SOL    HW2  558   0.060   2.104   2.702 -0.7891  0.0775  0.5760
  187SOL     OW  559   2.565   1.791   2.959 -0.4293 -0.1085 -0.0507
  187SOL    HW1  560   2.643   1.843   2.996  0.0071 -1.3485  0.6102
  187SOL    HW2  561   2.486   1.848   2.950  0.9869 -1.1092 -0.0756
  188SOL     OW  562   0.687   2.159   0.345  0.1935  0.2392  0.0186
  188SOL    HW1  563   0.726   2.114   0.429 -1.4153 -1.1861  0.7268
  188SOL    HW2  564   0.636   2.088   0.293  0.8864 -1.5673 -1.3095
  189SOL     OW  565   2.464   0.980   0.212 -0.0043 -0.1423 -0.0234
  189SOL    HW1  566   2.511   0.930   0.289  0.5997  0.5571  0.8594
  189SOL    HW2  567   2.503   1.073   0.199 -1.3792 -2.1381  0.1594
  190SOL     OW  568   0.701   1.778   1.991 -0.1818 -0.2741 -0.0298
  190SOL    HW1  569   0.715   1.849   2.066 -0.3161  2.0720 -0.4132
  190SOL    HW2  570   0.787   1.767   1.940 -1.2819 -1.7278  1.7828
  191SOL     OW  571   2.543   0.462   1.572  0.3389 -0.2200 -0.0326
  191SOL    HW1  572   2.448   0.482   1.613 -1.9258  0.3012  1.2031
  191SOL    HW2  573   2.531   0.394   1.493 -1.1500 -4.7939 -1.5756
  192SOL     OW  574   2.209   0.227   1.651 -0.2803  0.2611 -0.4257
  192SOL    HW1  575   2.200   0.246   1.551 -1.8330 -0.1879  0.9920
  192SOL    HW2  576   2.143   0.151   1.680  0.4897  0.6473 -0.5668
  193SOL     OW  577   0.252   0.739   0.687  0.5333  0.4498 -0.2125
  193SOL    HW1  578   0.209   0.670   0.630 -0.7801 -1.9383  0.4254
  193SOL    HW2  579   0.354   0.743   0.676  2.1621  0.7459 -0.5376
  194SOL     OW  580   1.659   2.632   1.626 -0.4500 -0.0947 -0.7929
  194SOL    HW1  581   1.737   2.568   1.631  0.7145 -1.1672  2.1569
  194SOL    HW2  582   1.637   2.664   1.722 -0.4324 -0.1760  2.2835
  195SOL     OW  583   2.469   0.630   0.973 -0.4186  0.2371 -0.1856
  195SOL    HW1  584   2.571   0.609   0.981  2.5494  0.4432  0.8247
  195SOL    HW2  585   2.448   0.717   1.021  0.8469 -0.5426  2.6898
  196SOL     OW  586   1.705   2.091   2.059 -0.4926  0.2006 -0.1226
  196SOL    HW1  587   1.725   2.064   2.157 -2.0446 -0.6813 -0.9608
  196SOL    HW2  588   1.623   2.150   2.052 -1.4650 -2.7914  1.5889
  197SOL     OW  589   0.446   0.046   0.143  0.0387  0.2757 -0.1671
  197SOL    HW1  590   0.389   0.034   0.054 -1.5057  2.0092 -2.4897
  197SOL    HW2  591   0.403   0.000   0.219  1.5375 -3.2482 -0.1309
  198SOL     OW  592   0.983   1.343   0.849 -0.1066 -0.0595  0.4716
  198SOL    HW1  593   1.080   1.379   0.848  0.1066 -1.8723 -1.6854
  198SOL    HW2  594   0.945   1.333   0.756  0.0230 -1.1807  1.4305
  199SOL     OW  595   2.357   0.827   1.682 -0.2815  0.0362 -0.1958
  199SOL    HW1  596   2.428   0.826   1.755  0.4662  1.7203  2.3479
  199SOL    HW2  597   2.390   0.873   1.599 -0.1688 -2.3554  2.2695
  200SOL     OW  598   2.521   2.583   2.342 -0.2703 -0.0128 -0.3564
  200SOL    HW1  599   2.535   2.682   2.355  1.0424 -1.9751 -0.1031
  200SOL    HW2  600   2.469   2.547   2.422  1.4795  0.0170 -1.5574
  201SOL     OW  601   2.758   0.079   1.324  0.0492  0.1887  0.0662
  201SOL    HW1  602   2.740   0.011   1.396  0.3424  0.5318 -1.5696
  201SOL    HW2  603   2.713   0.057   1.236  2.1418  2.7133  0.2121
  202SOL     OW  604   1.896   0.101   0.431  0.3449  0.0675 -0.6679
  202SOL    HW1  605   1.995   0.128   0.409  3.2939 -1.2272 -0.7274
  202SOL    HW2  606   1.834   0.152   0.366  3.0016 -2.0742  0.5730
  203SOL     OW  607   1.404   1.905   2.132  0.6403 -0.0667 -0.0028
  203SOL    HW1  608   1.384   1.936   2.037 -1.1071  2.6104  0.3853
  203SOL    HW2  609   1.391   1.979   2.201 -0.2498 -2.9259  2.0114
  204SOL     OW  610   1.059   1.681   2.534  0.2189 -0.1821 -0.4224
  204SOL    HW1  611   1.011   1.630   2.458 -0.0514 -0.4827  0.2332
  204SOL    HW2  612   1.152   1.721   2.504  2.1586  0.2137  0.7094
  205SOL     OW  613   0.962   1.729   1.418 -0.6464 -0.6581 -0.4145
  205SOL    HW1  614   0.959   1.636   1.384 -0.5005  4.0836  0.2314
  205SOL    HW2  615   0.869   1.763   1.446 -2.1818 -1.8195  0.9512
  206SOL     OW  616   2.817   0.590   3.000 -0.4830  0.1801  0.3032
  206SOL    HW1  617   2.747   0.577   2.926  0.0866 -0.5471 -0.0082
  206SOL    HW2  618   2.833   0.500   3.053  1.6050 -1.7580  2.3621
  207SOL     OW  619   1.768   2.813   2.189  0.6314  0.5122  0.3553
  207SOL    HW1  620   1.859   2.840   2.216 -1.4306 -0.4160 -1.0055
  207SOL    HW2  621   1.777   2.746   2.112  0.2096  0.0242 -4.0528
  208SOL     OW  622   0.621   2.447   1.316 -0.2202 -0.3992 -0.1427
  208SOL    HW1  623   0.711   2.490   1.327 -1.1579  0.2792  1.5481
  208SOL    HW2  624   0.592   2.445   1.217  2.4562  1.3002  3.0142
  209SOL     OW  625   1.411   1.066   2.217  0.2740 -0.2510  0.1265
  209SOL    HW1  626   1.424   1.165   2.222  1.0666 -0.3923  1.4619
  209SOL    HW2  627   1.348   1.043   2.294 -2.1908 -1.0316 -1.0837
  210SOL     OW  628   1.872   1.024   1.327 -0.1365 -0.6239  0.0760
  210SOL    HW1  629   1.921   1.038   1.239 -1.4406  3.3001  0.3829
  210SOL    HW2  630   1.764   1.021   1.320 -3.1081 -1.2120 -1.2178
  211SOL     OW  631   0.850   2.805   0.653 -0.3701  0.0833  0.0327
  211SOL    HW1  632   0.823   2.875   0.581 -2.7022  5.1409 -2.9814
  211SOL    HW2  633   0.876   2.853   0.738 -1.3646  1.3766  1.3986
  212SOL     OW  634   1.753   1.655   0.081 -0.1572  0.0531  0.1447
  212SOL    HW1  635   1.789   1.751   0.090  0.7374  2.8077 -1.0281
  212SOL    HW2  636   1.823   1.585   0.096  2.2059  4.6001 -1.1101
  213SOL     OW  637   1.534   0.287   2.775 -0.4061 -0.3162  0.4882
  213SOL    HW1  638   1.519   0.391   2.790 -0.0812  2.4731  0.7401
  213SOL    HW2  639   1.622   0.262   2.813  1.7201  1.5727  0.4940
  214SOL     OW  640   1.166   1.552   1.966 -0.0972  0.5018  0.0756
  214SOL    HW1  641   1.131   1.489   2.038 -1.4288 -0.7564 -0.0349
  214SOL    HW2  642   1.120   1.648   1.966  0.4962  0.7719  1.0567
  215SOL     OW  643   0.754   1.796   0.253 -0.3763  0.3513 -0.4441
  215SOL    HW1  644   0.811   1.880   0.249  3.6618  0.1458  0.1123
  215SOL    HW2  645   0.745   1.760   0.348  1.5563  0.9955 -0.5734
  216SOL     OW  646   0.236   2.945   2.367  0.3155 -0.3013  0.4030
  216SOL    HW1  647   0.259   3.042   2.370 -0.1101  0.3732 -1.1109
  216SOL    HW2  648   0.272   2.891   2.444 -0.8888  0.6863 -2.5782
  217SOL     OW  649   2.315   1.084   1.054  0.1549 -0.3401 -0.5622
  217SOL    HW1  650   2.369   1.158   1.105  0.5827 -2.4638 -1.2920
  217SOL    HW2  651   2.285   1.122   0.964  2.0223  2.2935 -1.5180
  218SOL     OW  652   1.746   1.627   1.779  0.1528  0.3552 -0.7394
  218SOL    HW1  653   1.696   1.663   1.859 -0.6458 -0.5368  0.6590
  218SOL    HW2  654   1.841   1.662   1.773  0.2981  0.9858  0.5657
  219SOL     OW  655   1.759   1.302   2.921 -0.6742  0.2432 -0.1541
  219SOL    HW1  656   1.802   1.314   2.829  1.1319  1.4652  0.8744
  219SOL    HW2  657   1.683   1.372   2.935  1.8453  0.6293  1.3256
  220SOL     OW  658   1.293   1.342   1.049 -0.4496 -0.4905 -0.1083
  220SOL    HW1  659   1.257   1.412   0.984  0.9159  1.0833 -0.9670
  220SOL    HW2  660   1.340   1.270   0.989  1.8925  0.8754  2.6730
  221SOL     OW  661   0.882   0.498   2.588 -0.2230 -0.4256  0.1638
  221SOL    HW1  662   0.834   0.505   2.503  0.6766 -2.0592  0.7560
  221SOL    HW2  663   0.881   0.582   2.643 -1.6047 -0.9918  1.0393
  222SOL     OW  664   1.045   1.328   0.563 -0.1820  0.2637  0.1116
  222SOL    HW1  665   1.121   1.301   0.615 -2.9344  3.9461 -0.6823
  222SOL    HW2  666   1.002   1.247   0.513 -1.5992  1.2861 -0.2673
  223SOL     OW  667   1.023   2.898   2.857  0.1045 -0.2793  0.0805
  223SOL    HW1  668   1.126   2.882   2.853 -0.1277 -1.7191 -1.3361
  223SOL    HW2  669   0.985   2.944   2.937  1.4109  1.3369 -2.0640
  224SOL     OW  670   2.534   0.278   1.380  0.1191 -0.3621  0.1780
  224SOL    HW1  671   2.457   0.273   1.315 -0.0499 -2.4826 -0.9556
  224SOL    HW2  672   2.617   0.223   1.349 -0.0763  1.2417 -2.4189
  225SOL     OW  673   0.607   0.193   1.316 -0.8312 -0.4145  0.4772
  225SOL    HW1  674   0.546   0.268   1.284 -1.4784  0.1158 -0.3592
  225SOL    HW2  675   0.698   0.202   1.276  0.2530 -1.1397  0.0517
  226SOL     OW  676   1.509   1.834   2.863  0.2472 -0.1449  0.5688
  226SOL    HW1  677   1.478   1.781   2.779 -2.8534 -2.4027 -2.2830
  226SOL    HW2  678   1.428   1.847   2.923  1.2739  2.5599 -0.5703
  227SOL     OW  679   0.926   1.508   1.293  0.1748  0.8155 -0.2646
  227SOL    HW1  680   0.877   1.494   1.206 -3.0958  0.4898 -0.0173
  227SOL    HW2  681   1.018   1.454   1.299  3.0595 -0.7522  1.8966
  228SOL     OW  682   0.540   1.711   0.672 -0.2030 -0.1347  0.0141
  228SOL    HW1  683   0.568   1.615   0.698  0.6463  1.3872  1.3878
  228SOL    HW2  684   0.488   1.756   0.748 -0.0026 -3.1770  0.3160
  229SOL     OW  685   0.977   0.443   3.003  0.2002  0.1829 -0.3982
  229SOL    HW1  686   1.020   0.529   2.963  1.4234  1.0362 -1.0579
  229SOL    HW2  687   0.937   0.464   0.001  1.8495 -1.5322 -0.5929
  230SOL     OW  688   1.271   0.560   2.049  0.4541 -1.0240 -0.1907
  230SOL    HW1  689   1.183   0.587   2.017  2.5348 -0.3783  4.0190
  230SOL    HW2  690   1.262   0.476   2.104  0.8378  0.9687  0.9524
  231SOL     OW  691   1.226   1.701   2.259 -0.2282 -0.1131 -0.1221
  231SOL    HW1  692   1.308   1.756   2.230  1.2187  1.1279  1.2854
  231SOL    HW2  693   1.147   1.735   2.208  0.3727 -1.6476  1.2348
  232SOL     OW  694   2.311   1.876   1.121 -0.9312 -0.0032  0.3887
  232SOL    HW1  695   2.321   1.822   1.035  0.6953  1.3857 -0.9430
  232SOL    HW2  696   2.227   1.858   1.172  4.4453  1.5969  1.4984
  233SOL     OW  697   2.545   2.903   0.362  0.0503 -0.0217 -0.2509
  233SOL    HW1  698   2.610   2.980   0.350 -2.7440 -0.2107  0.1927
  233SOL    HW2  699   2.491   2.887   0.278  0.0508  1.4298  0.9935
  234SOL     OW  700   1.081   0.048   2.722  0.0594  0.2163  0.3605
  234SOL    HW1  701   1.050   3.048   2.750  0.8709  0.3583 -1.1545
  234SOL    HW2  702   1.073   0.124   2.793  3.0689  4.6510 -0.1182
  235SOL     OW  703   2.513   0.217   2.779 -0.2772 -0.9252 -0.0405
  235SOL    HW1  704   2.432   0.184   2.828 -0.4172  1.3862  0.8692
  235SOL    HW2  705   2.488   0.292   2.712  0.7553  2.2893 -1.9441
  236SOL     OW  706   2.225   2.540   2.262 -0.2267  0.6145 -0.1940
  236SOL    HW1  707   2.257   2.572   2.352 -0.3729  0.1748 -2.3367
  236SOL    HW2  708   2.124   2.518   2.273 -0.5275 -2.3570  4.1559
  237SOL     OW  709   0.908   1.546   2.314 -0.3966  0.1764 -0.0816
  237SOL    HW1  710   0.928   1.634   2.269  0.7281 -0.4342  1.0214
  237SOL    HW2  711   0.931   1.464   2.261 -2.0483 -1.1907  0.9101
  238SOL     OW  712   1.837   0.067   2.491 -0.0515  0.3576  0.8793
  238SOL    HW1  713   1.745   0.025   2.502  1.3936  0.5647 -1.4325
  238SOL    HW2  714   1.906   0.003   2.520  1.9885  0.0991  0.6738
  239SOL     OW  715   0.151   1.899   1.635 -0.0530 -0.2302  0.1385
  239SOL    HW1  716   0.217   1.839   1.586  0.5400  2.2788  0.7454
  239SOL    HW2  717   0.188   1.930   1.726 -1.3627  0.6788  0.7330
  240SOL     OW  718   2.888   2.562   0.771 -0.3215 -0.4949 -0.2864
  240SOL    HW1  719   2.918   2.479   0.826 -1.6092  0.6480 -0.7634
  240SOL    HW2  720   2.929   2.566   0.676 -0.7387 -1.5192 -1.4127
  241SOL     OW  721   2.164   1.491   0.687 -0.1479 -0.7401  0.2537
  241SOL    HW1  722   2.259   1.453   0.686 -2.3134  0.0186  1.2182
  241SOL    HW2  723   2.098   1.414   0.692  0.3444 -0.7351 -1.3025
  242SOL     OW  724   1.828   1.990   2.681  0.4657  0.3968  0.0653
  242SOL    HW1  725   1.933   1.999   2.690  3.1330 -1.9380  2.2866
  242SOL    HW2  726   1.787   2.006   2.773  2.8201  0.9684 -1.6914
  243SOL     OW  727   0.555   2.512   1.812 -0.3725  0.1089 -0.2589
  243SOL    HW1  728   0.467   2.535   1.856 -2.0545 -1.3952 -1.2015
  243SOL    HW2  729   0.567   2.573   1.732 -1.9895 -0.7878 -1.1651
  244SOL     OW  730   2.218   3.020   2.838  0.0463  0.1956  0.2139
  244SOL    HW1  731   2.210   0.028   2.862  2.9149 -1.7751  0.1929
  244SOL    HW2  732   2.159   2.985   2.762 -0.3858  1.0428  0.5113
  245SOL     OW  733   1.427   2.849   1.071  0.8421  0.0641 -0.3590
  245SOL    HW1  734   1.439   2.856   1.172 -1.0863 -2.5497  3.3657
  245SOL    HW2  735   1.362   2.918   1.036  0.2050 -0.0057 -1.9744
  246SOL     OW  736   1.375   2.544   0.272 -0.1141 -0.1678  0.1576
  246SOL    HW1  737   1.413   2.590   0.352 -1.7869  1.2950 -1.6940
  246SOL    HW2  738   1.437   2.553   0.190  1.4801  4.2663 -0.4461
  247SOL     OW  739   0.806   0.497   2.230 -0.4779  0.6089  0.0152
  247SOL    HW1  740   0.705   0.512   2.239  4.9002 -1.6123  0.0430
  247SOL    HW2  741   0.838   0.423   2.291  0.1038  0.4775 -1.5591
  248SOL     OW  742   0.490   1.705   1.824 -0.0136 -0.0252  0.0781
  248SOL    HW1  743   0.569   1.712   1.894 -2.3093 -1.8493  3.0281
  248SOL    HW2  744   0.509   1.630   1.756  2.0027  0.5662  1.3278
  249SOL     OW  745   2.384   0.479   0.420  0.3922  0.2661 -0.1950
  249SOL    HW1  746   2.420   0.387   0.444 -0.1329  1.5323 -1.1958
  249SOL    HW2  747   2.291   0.493   0.456 -1.4522 -0.7683  1.6359
  250SOL     OW  748   0.580   0.287   0.633 -0.1438  0.5045  0.4650
  250SOL    HW1  749   0.490   0.282   0.588 -0.3311  2.7561  0.7839
  250SOL    HW2  750   0.622   0.200   0.662  0.8680  1.8691 -1.3472
  251SOL     OW  751   1.802   0.244   2.914  0.5414  0.5683 -0.0797
  251SOL    HW1  752   1.864   0.308   2.867  0.2608 -0.6572 -1.3627
  251SOL    HW2  753   1.832   0.149   2.892 -0.9447  4.3077  2.3183
  252SOL     OW  754   1.618   1.764   2.004  0.1587  0.1696  0.0896
  252SOL    HW1  755   1.706   1.729   2.044  0.1980 -2.1830 -2.0624
  252SOL    HW2  756   1.564   1.817   2.072  1.8990  0.6794  0.1269
  253SOL     OW  757   2.706   2.410   1.771  0.1760 -0.3838 -0.5692
  253SOL    HW1  758   2.747   2.409   1.867  2.1341  0.6817  1.3470
  253SOL    HW2  759   2.710   2.327   1.719 -1.1444  3.1308  3.3646
  254SOL     OW  760   0.039   1.301   1.147  0.4305 -0.3032 -0.3718
  254SOL    HW1  761   0.018   1.206   1.168 -0.6049  0.0436  0.6437
  254SOL    HW2  762   0.085   1.345   1.222 -1.8327 -0.8656 -1.7196
  255SOL     OW  763   1.007   0.601   1.391  0.2688 -0.8409 -0.3651
  255SOL    HW1  764   0.959   0.519   1.408  0.9979 -0.0722  0.8865
  255SOL    HW2  765   1.104   0.587   1.414 -1.9549  2.8131  0.4322
  256SOL     OW  766   2.101   2.591   1.549 -0.0034 -0.3173  0.0850
  256SOL    HW1  767   2.112   2.677   1.605 -1.2599  1.8015 -0.9270
  256SOL    HW2  768   2.014   2.538   1.568 -1.4042  0.0330  1.4217
  257SOL     OW  769   0.560   2.655   2.669 -0.5429 -0.1937  0.5175
  257SOL    HW1  770   0.618   2.685   2.588 -3.4308  0.5191  4.1012
  257SOL    HW2  771   0.541   2.556   2.664  2.9449  1.6927 -1.3243
  258SOL     OW  772   0.834   2.598   0.087  0.5237 -0.0372 -0.2920
  258SOL    HW1  773   0.753   2.573   0.151  0.2926  2.6576  0.3110
  258SOL    HW2  774   0.888   2.667   0.136 -1.0591 -2.4684 -1.5985
  259SOL     OW  775   0.979   0.030   1.993  0.5570 -0.2883 -0.6904
  259SOL    HW1  776   1.010   0.111   1.942 -0.1677  1.8213 -0.4438
  259SOL    HW2  777   0.912   3.068   1.942 -0.9224  1.7191 -1.2695
  260SOL     OW  778   1.733   0.675   1.095  1.0208  0.6731  0.4487
  260SOL    HW1  779   1.771   0.601   1.154  2.1659 -1.4636  1.7889
  260SOL    HW2  780   1.731   0.768   1.136  0.3554 -0.2747  1.6922
  261SOL     OW  781   0.568   0.340   2.504 -0.2032  0.5232  0.0062
  261SOL    HW1  782   0.562   0.308   2.602  0.8323 -2.4116 -0.5801
  261SOL    HW2  783   0.645   0.292   2.454 -0.8911  0.9693 -2.4227
  262SOL     OW  784   0.094   2.437   1.893 -0.1104  0.2989  0.1887
  262SOL    HW1  785   0.056   2.504   1.964 -1.1887  1.2769  1.5972
  262SOL    HW2  786   0.030   2.361   1.875  0.0330 -0.1321  0.5778
  263SOL     OW  787   2.762   1.662   2.133  0.1023  0.6147 -0.0946
  263SOL    HW1  788   2.773   1.763   2.116 -0.3261 -0.5101 -1.3947
  263SOL    HW2  789   2.850   1.610   2.128  2.2977 -2.0989 -2.0060
  264SOL     OW  790   0.530   1.039   1.052 -0.4111 -0.1280  0.0300
  264SOL    HW1  791   0.477   1.007   1.132  1.6433  1.5169 -1.7196
  264SOL    HW2  792   0.465   1.055   0.978 -0.6376 -1.2887  2.1289
  265SOL     OW  793   1.027   2.434   0.915 -0.5024  0.0604  0.5527
  265SOL    HW1  794   1.014   2.390   1.008 -0.6596  1.9990  1.9120
  265SOL    HW2  795   1.124   2.432   0.892 -0.0536 -1.3953  0.9011
  266SOL     OW  796   1.491   1.163   0.914 -0.0164 -0.0579  0.4419
  266SOL    HW1  797   1.534   1.137   1.003  1.4602 -1.7492  0.1790
  266SOL    HW2  798   1.558   1.151   0.837  0.5358  1.4029 -2.9664
  267SOL     OW  799   2.603   1.197   0.126  0.2946  0.2088  0.0468
  267SOL    HW1  800   2.681   1.260   0.138 -0.0845 -2.7078  1.6585
  267SOL    HW2  801   2.610   1.153   0.032 -1.3895 -0.0326  0.2384
  268SOL     OW  802   1.201   0.379   0.234  0.4803 -0.1075 -0.0867
  268SOL    HW1  803   1.285   0.390   0.288 -1.1602 -0.8595 -1.3264
  268SOL    HW2  804   1.225   0.347   0.140  0.6547 -1.0277  0.3343
  269SOL     OW  805   2.134   0.660   2.810  0.4107  0.1198  0.0743
  269SOL    HW1  806   2.217   0.604   2.847 -1.3295  1.3920  0.1915
  269SOL    HW2  807   2.117   0.732   2.880  0.5751  0.1448  2.2355
  270SOL     OW  808   0.267   0.743   3.083  0.2412 -1.0316 -0.4017
  270SOL    HW1  809   0.322   0.683   0.056  0.8254  0.4482  2.6746
  270SOL    HW2  810   0.265   0.838   0.025 -0.1296 -0.6315  0.0853
  271SOL     OW  811   2.651   0.930   0.430  0.3941 -0.4879  0.6081
  271SOL    HW1  812   2.713   0.873   0.375  0.7261  1.1944 -0.6030
  271SOL    HW2  813   2.672   1.031   0.424  0.0695 -1.6747  0.9972
  272SOL     OW  814   3.049   2.708   0.106 -0.0912  0.1218 -0.5504
  272SOL    HW1  815   2.971   2.643   0.102  1.2956 -0.1997 -1.5580
  272SOL    HW2  816   0.041   2.660   0.126 -3.9700  3.7423  1.2677
  273SOL     OW  817   2.796   2.958   0.148 -0.1420 -0.3223  0.0887
  273SOL    HW1  818   2.894   2.945   0.163 -4.0688  1.4177  1.3580
  273SOL    HW2  819   2.770   3.050   0.181  0.3825 -0.1905  0.8064
  274SOL     OW  820   0.529   2.376   1.048 -0.0503 -0.2352  0.2741
  274SOL    HW1  821   0.549   2.454   0.983 -0.7735  3.3750 -1.4498
  274SOL    HW2  822   0.555   2.289   1.003 -1.1360 -0.5483 -0.9418
  275SOL     OW  823   2.800   1.363   0.160 -0.2388  0.6244  0.3394
  275SOL    HW1  824   2.828   1.420   0.075 -1.4292  1.5711 -1.1725
  275SOL    HW2  825   2.879   1.300   0.188  1.2829 -2.3332 -0.6607
  276SOL     OW  826   2.936   1.216   1.923 -0.5888 -0.1049 -0.5638
  276SOL    HW1  827   2.931   1.121   1.887  0.1303 -1.8259 -2.6451
  276SOL    HW2  828   3.006   1.269   1.874 -0.9270 -1.7707  1.0684
  277SOL     OW  829   2.128   0.171   1.040 -0.0351 -0.4637  0.2768
  277SOL    HW1  830   2.181   0.086   1.008 -0.2600 -1.7759  1.0578
  277SOL    HW2  831   2.130   0.236   0.964  1.2248 -0.1246 -2.1587
  278SOL     OW  832   1.439   2.490   2.329  0.3616  0.0093 -0.0071
  278SOL    HW1  833   1.483   2.581   2.306  0.3954  1.4952  0.7265
  278SOL    HW2  834   1.395   2.444   2.245  0.2961  0.6534 -2.1989
  279SOL     OW  835   1.655   1.820   0.549  0.1679  0.4120 -0.2590
  279SOL    HW1  836   1.749   1.820   0.510  0.1040 -0.1987 -1.9047
  279SOL    HW2  837   1.589   1.817   0.473 -0.0782 -2.0222 -0.5282
  280SOL     OW  838   0.276   1.300   1.030  0.4114 -0.9914 -0.1237
  280SOL    HW1  839   0.288   1.377   0.963  2.3109 -1.3477  0.9906
  280SOL    HW2  840   0.180   1.295   1.069 -2.2777 -2.0992  2.0274
  281SOL     OW  841   0.163   1.000   2.478  0.1988 -0.0290 -0.2212
  281SOL    HW1  842   0.090   0.932   2.455 -0.1166 -3.5763  0.9774
  281SOL    HW2  843   0.190   0.992   2.578  0.3536  0.2395  4.5041
  282SOL     OW  844   0.667   1.463   0.224  0.4876  0.6516  0.3719
  282SOL    HW1  845   0.586   1.453   0.162 -1.5569 -1.7430 -1.7417
  282SOL    HW2  846   0.754   1.467   0.175  0.5583  0.0080  0.9826
  283SOL     OW  847   2.120   2.317   0.111  0.0756 -0.4919 -0.0487
  283SOL    HW1  848   2.078   2.411   0.112 -1.7265  2.6770  0.3190
  283SOL    HW2  849   2.220   2.315   0.120  0.8822  1.4185 -0.1371
  284SOL     OW  850   1.122   0.082   0.519  0.4905 -0.5030  0.0604
  284SOL    HW1  851   1.099   0.021   0.440  0.1550 -1.1327  0.8413
  284SOL    HW2  852   1.093   0.174   0.494 -1.2774  1.6154 -1.4709
  285SOL     OW  853   2.260   1.174   2.882  0.4248 -0.3559 -0.1295
  285SOL    HW1  854   2.321   1.097   2.922  2.5528 -1.2549 -3.0781
  285SOL    HW2  855   2.316   1.260   2.876  0.8292 -0.5952 -1.3055
  286SOL     OW  856   1.896   2.407   0.964  0.1880 -0.4317  0.2682
  286SOL    HW1  857   1.852   2.440   1.048  3.0047 -1.2877  0.7532
  286SOL    HW2  858   1.827   2.409   0.886 -1.9336 -3.3865 -0.7753
  287SOL     OW  859   1.259   0.350   0.729  0.9557  0.3419  0.0831
  287SOL    HW1  860   1.228   0.339   0.631 -3.1364 -0.3318 -3.2302
  287SOL    HW2  861   1.297   0.450   0.741  0.3498  5.2261 -0.8681
  288SOL     OW  862   1.207   2.307   2.702 -0.5083 -0.6646  0.2798
  288SOL    HW1  863   1.112   2.300   2.737  0.7614 -0.5998  1.0493
  288SOL    HW2  864   1.269   2.338   2.775  0.2999  0.8003 -1.5517
  289SOL     OW  865   0.139   1.416   1.371 -0.1451  0.0770  0.2851
  289SOL    HW1  866   0.166   1.505   1.328  3.2703  0.6112  0.2536
  289SOL    HW2  867   0.125   1.432   1.472 -0.9594 -0.8129 -0.2424
  290SOL     OW  868   1.594   2.166   0.879 -0.0999  0.0632 -0.2680
  290SOL    HW1  869   1.547   2.148   0.968 -2.5560  1.3521  1.9480
  290SOL    HW2  870   1.682   2.111   0.868  1.7667 -0.0366  0.2849
  291SOL     OW  871   1.907   2.908   0.044  0.2559 -0.4548 -0.1044
  291SOL    HW1  872   1.808   2.886   0.041 -1.6568  0.0753  0.7265
  291SOL    HW2  873   1.935   2.943   0.135 -2.9939 -0.5744  1.7628
  292SOL     OW  874   0.761   0.238   1.772 -0.1859 -0.0729  0.3385
  292SOL    HW1  875   0.769   0.335   1.735 -1.4414  1.2684 -1.0411
  292SOL    HW2  876   0.747   0.224   1.873 -2.2281 -0.5081  0.9891
  293SOL     OW  877   2.476   2.311   0.906 -0.1547  0.5558  0.6406
  293SOL    HW1  878   2.530   2.370   0.841 -0.7005 -0.5076 -0.3336
  293SOL    HW2  879   2.388   2.361   0.926 -2.2167  0.9253 -1.4043
  294SOL     OW  880   0.609   0.839   2.164  0.6471  0.0665  0.6777
  294SOL    HW1  881   0.617   0.797   2.070 -0.5919 -0.9462 -0.0587
  294SOL    HW2  882   0.596   0.771   2.233  0.0237  0.7466  0.1890
  295SOL     OW  883   1.576   1.572   1.178  0.4031  0.0270  0.4523
  295SOL    HW1  884   1.664   1.582   1.231 -0.3505  1.8501 -0.4854
  295SOL    HW2  885   1.595   1.561   1.076  0.5831  2.0437 -0.0599
  296SOL     OW  886   2.705   1.980   0.276 -0.4328 -0.3136 -0.1976
  296SOL    HW1  887   2.724   1.931   0.194 -1.8427  2.4736  3.2293
  296SOL    HW2  888   2.636   2.053   0.264  1.0252 -1.2817  0.4357
  297SOL     OW  889   2.146   0.178   0.363  0.1973  0.3620  0.2827
  297SOL    HW1  890   2.175   0.131   0.275 -0.0953 -0.0782 -2.8434
  297SOL    HW2  891   2.228   0.188   0.416 -3.6474  0.0900 -1.2657
  298SOL     OW  892   0.822   2.821   2.690  0.1479 -0.5987  0.0317
  298SOL    HW1  893   0.859   2.799   2.596 -1.3084 -0.2352 -2.0845
  298SOL    HW2  894   0.897   2.843   2.755  3.0033 -2.0976 -0.3376
  299SOL     OW  895   1.098   2.044   2.078  0.0468 -0.3110 -0.7660
  299SOL    HW1  896   1.154   2.053   1.993  0.8695  2.0649 -0.3293
  299SOL    HW2  897   1.141   2.088   2.157  3.6847  0.5649 -0.8253
  300SOL     OW  898   2.769   0.231   2.888  0.0498 -0.5320 -0.0187
  300SOL    HW1  899   2.824   0.150   2.904 -2.5329  3.8258  1.8577
  300SOL    HW2  900   2.700   0.224   2.810  0.3126  0.1633 -3.3766
  301SOL     OW  901   0.995   0.978   1.830 -0.3896  0.1237 -0.1545
  301SOL    HW1  902   0.971   1.011   1.737 -0.5562  1.4996  2.5366
  301SOL    HW2  903   1.033   0.883   1.830  1.2821 -0.0399 -1.2209
  302SOL     OW  904   2.914   2.273   0.445  0.3174  0.4553  0.6795
  302SOL    HW1  905   2.927   2.373   0.457 -0.4783 -0.9731 -2.5997
  302SOL    HW2  906   2.865   2.237   0.525 -0.7675 -0.4091 -4.0893
  303SOL     OW  907   2.443   2.410   1.878 -0.2771 -0.9811 -0.4726
  303SOL    HW1  908   2.536   2.394   1.842 -0.1696  0.4085  1.4286
  303SOL    HW2  909   2.440   2.408   1.979 -3.6272 -1.1901 -1.0469
  304SOL     OW  910   2.942   0.985   1.795 -0.3509 -0.5550  0.4593
  304SOL    HW1  911   2.914   0.941   1.883  1.0848  1.1648  0.7484
  304SOL    HW2  912   2.901   0.939   1.716  1.5284 -0.9625 -2.8498
  305SOL     OW  913   0.614   1.646   1.270 -0.1579  0.1456  0.2484
  305SOL    HW1  914   0.686   1.645   1.341 -1.3100  0.7243 -1.9783
  305SOL    HW2  915   0.594   1.553   1.235  1.6463 -0.3749  0.1990
  306SOL     OW  916   0.192   1.456   2.195  0.0006  0.7817  0.4179
  306SOL    HW1  917   0.173   1.363   2.225 -0.5479  0.0645  1.1642
  306SOL    HW2  918   0.278   1.485   2.237 -0.1530 -3.3137 -3.0402
  307SOL     OW  919   0.928   0.662   1.783  0.2762 -0.1384 -0.7321
  307SOL    HW1  920   0.881   0.623   1.707 -0.7059  1.4500 -0.1977
  307SOL    HW2  921   1.025   0.678   1.770 -3.2234 -1.2561 -0.1922
  308SOL     OW  922   2.987   1.089   1.261 -0.4020 -0.0013 -0.4403
  308SOL    HW1  923   2.973   1.171   1.319  0.3773 -2.0710 -1.7983
  308SOL    HW2  924   2.907   1.063   1.207  2.4154 -5.1973 -0.4553
  309SOL     OW  925   2.673   1.284   1.344  0.1214  0.1390 -0.7631
  309SOL    HW1  926   2.753   1.277   1.408  0.5943  1.5839 -2.2854
  309SOL    HW2  927   2.702   1.282   1.244  1.4793  0.6495  1.1602
  310SOL     OW  928   2.892   2.218   2.707 -0.2557  0.2080 -0.4085
  310SOL    HW1  929   2.943   2.143   2.752 -3.6733  0.8186 -1.7282
  310SOL    HW2  930   2.953   2.289   2.661  0.2357  0.3351  2.7796
  311SOL     OW  931   2.709   2.698   2.785  0.1400  0.3470  0.4014
  311SOL    HW1  932   2.748   2.791   2.802 -2.2197  2.1544  0.9202
  311SOL    HW2  933   2.648   2.687   2.703  0.4390  0.1424 -1.4243
  312SOL     OW  934   2.233   1.857   0.064  0.1868  0.0515 -0.1614
  312SOL    HW1  935   2.157   1.910   0.103  1.4204 -2.4169  0.4245
  312SOL    HW2  936   2.205   1.764   0.028 -1.0919 -2.5753  2.2783
  313SOL     OW  937   2.761   2.954   0.561  0.1711 -0.5767  0.3914
  313SOL    HW1  938   2.685   2.891   0.592 -0.1883 -1.1590  0.5352
  313SOL    HW2  939   2.844   2.898   0.545 -0.7090  0.4948 -4.5847
  314SOL     OW  940   1.732   1.205   0.088 -0.1131 -0.1846 -0.4022
  314SOL    HW1  941   1.742   1.238   3.083 -1.1305 -0.5629 -1.4740
  314SOL    HW2  942   1.687   1.272   0.153 -3.3231  2.0267  0.8242
  315SOL     OW  943   1.337   2.804   2.036 -0.8469  0.1638 -0.1184
  315SOL    HW1  944   1.237   2.808   2.037  0.5464 -1.1267  0.2842
  315SOL    HW2  945   1.379   2.883   1.989 -3.1057 -0.3004 -0.8686
  316SOL     OW  946   2.833   0.882   3.049 -0.3760 -0.3024 -0.0736
  316SOL    HW1  947   2.925   0.887   3.088 -1.8348 -1.0610 -0.1772
  316SOL    HW2  948   2.816   0.783   3.035 -0.5494  0.1795 -0.2621
  317SOL     OW  949   0.632   2.858   0.297 -0.7154 -0.3617  0.4416
  317SOL    HW1  950   0.544   2.881   0.343  0.6794 -2.1347  0.8412
  317SOL    HW2  951   0.630   2.853   0.195 -2.3908  1.1259 -0.6820
  318SOL     OW  952   2.242   2.685   0.565 -0.3926 -0.5072  0.0343
  318SOL    HW1  953   2.256   2.605   0.623  2.1168  1.0520 -1.6138
  318SOL    HW2  954   2.214   2.659   0.466  0.0842 -1.5022 -2.5354
  319SOL     OW  955   1.067   1.957   2.898 -0.3863  0.2337  0.1162
  319SOL    HW1  956   1.033   2.013   2.974 -0.2427 -1.7569 -0.5344
  319SOL    HW2  957   0.987   1.918   2.842 -1.7869 -0.3363 -0.2866
  320SOL     OW  958   0.362   2.155   1.867 -0.6686 -0.2759  0.0935
  320SOL    HW1  959   0.393   2.066   1.911  0.9680 -0.3400  0.3276
  320SOL    HW2  960   0.280   2.179   1.917  0.3378 -0.2258 -2.8632
  321SOL     OW  961   1.166   0.004   2.371 -0.5011 -0.0528  0.6961
  321SOL    HW1  962   1.126   3.003   2.376 -0.6388 -0.5965  1.5799
  321SOL    HW2  963   1.267   3.086   2.374 -1.7335  1.5298  0.0825
  322SOL     OW  964   2.614   1.399   2.086 -0.9896 -0.2854 -0.2666
  322SOL    HW1  965   2.651   1.472   2.146 -2.7624 -2.3525  0.4950
  322SOL    HW2  966   2.573   1.323   2.140  2.0373 -3.3355  0.3548
  323SOL     OW  967   2.433   0.871   1.099  0.2327 -0.5273 -0.2123
  323SOL    HW1  968   2.366   0.948   1.081 -3.7887 -1.7987  0.6283
  323SOL    HW2  969   2.423   0.825   1.191  1.5393  2.6091 -0.3970
  324SOL     OW  970   2.621   0.251   2.206 -0.4581 -0.2147  0.0528
  324SOL    HW1  971   2.673   0.260   2.295 -0.3970  1.1703  1.8884
  324SOL    HW2  972   2.526   0.229   2.220 -0.5265  0.9997 -2.1870
  325SOL     OW  973   1.111   0.770   2.450 -0.3439 -0.2501 -0.7203
  325SOL    HW1  974   1.195   0.711   2.434 -0.5556  0.4348 -0.3842
  325SOL    HW2  975   1.047   0.748   2.372  1.3505  2.3498  1.3629
  326SOL     OW  976   1.958   2.861   1.868  0.0438 -0.4807 -0.4510
  326SOL    HW1  977   1.924   2.941   1.924 -1.4260 -2.0780 -0.3157
  326SOL    HW2  978   1.966   2.783   1.927 -0.7810  0.9929 -1.7158
  327SOL     OW  979   2.051   0.395   0.208  0.2267  0.4448  0.0614
  327SOL    HW1  980   2.063   0.324   0.282  0.3564  0.1917  0.2809
  327SOL    HW2  981   2.131   0.385   0.147  0.9236 -0.5612  1.5111
  328SOL     OW  982   0.217   1.647   2.684 -0.1183  0.6007 -0.2617
  328SOL    HW1  983   0.229   1.549   2.704  0.7578 -3.3812 -1.1015
  328SOL    HW2  984   0.128   1.654   2.637  3.2914 -0.6138  3.8213
  329SOL     OW  985   2.044   0.000   1.706  0.8128 -0.6056 -0.6522
  329SOL    HW1  986   1.985   3.025   1.758 -0.7912 -0.8866  2.1602
  329SOL    HW2  987   2.085   3.045   1.628 -1.6270  0.8161  1.2083
  330SOL     OW  988   0.323   1.080   0.862 -0.0770  0.0256 -0.5014
  330SOL    HW1  989   0.234   1.039   0.854  0.1949  1.9820  0.0948
  330SOL    HW2  990   0.318   1.160   0.925  0.1180  1.3682  1.0139
  331SOL     OW  991   0.168   1.799   2.368  1.0752  0.4914 -0.0276
  331SOL    HW1  992   0.092   1.744   2.413 -3.7660  0.6575  2.6495
  331SOL    HW2  993   0.261   1.766   2.390 -2.8302  0.5240 -2.4189
  332SOL     OW  994   0.024   2.955   1.474  0.2611 -0.3283  0.6749
  332SOL    HW1  995   0.062   2.864   1.489 -0.9773 -0.1364  1.6555
  332SOL    HW2  996   3.031   2.944   1.417  0.4002 -0.2499 -2.8447
  333SOL     OW  997   2.308   0.125   0.704 -0.2168  0.0655  0.5868
  333SOL    HW1  998   2.230   0.061   0.688  0.9112 -0.6804  1.4589
  333SOL    HW2  999   2.286   0.177   0.785  0.1965  2.8579  1.1535
  334SOL     OW 1000   0.519   2.087   0.677 -0.5509  0.0851  0.5267
  334SOL    HW1 1001   0.604   2.065   0.621  1.6161 -0.2900 -2.7230
  334SOL    HW2 1002   0.447   2.116   0.612  2.2219  0.0344  1.0775
  335SOL     OW 1003   0.185   2.575   0.172  0.1854 -0.6844 -0.2113
  335SOL    HW1 1004   0.141   2.512   0.238 -0.1101  1.7443 -0.1821
  335SOL    HW2 1005   0.281   2.544   0.151  1.2677 -0.3247 -0.7969
  336SOL     OW 1006   3.064   3.005   2.384  0.4961 -0.2574 -0.0487
  336SOL    HW1 1007   3.052   3.061   2.298 -0.1348  0.6843 -3.2843
  336SOL    HW2 1008   0.054   2.947   2.369 -2.3433  0.6780  0.4122
  337SOL     OW 1009   2.259   2.153   2.543 -0.0172 -0.3726 -0.3678
  337SOL    HW1 1010   2.304   2.092   2.610  2.6387  0.2525  1.8113
  337SOL    HW2 1011   2.273   2.114   2.450  0.3591  0.6260  0.1166
  338SOL     OW 1012   0.581   0.566   0.537  0.2224 -0.9376 -0.3235
  338SOL    HW1 1013   0.579   0.642   0.605 -0.3267 -2.8144 -0.5417
  338SOL    HW2 1014   0.615   0.477   0.567 -0.0441  3.3340 -1.7680
  339SOL     OW 1015   0.282   0.729   1.919 -0.7575  0.0395  0.4429
  339SOL    HW1 1016   0.291   0.809   1.981 -0.9599 -0.7002 -0.6195
  339SOL    HW2 1017   0.275   0.766   1.824  0.5973  3.1973  2.3071
  340SOL     OW 1018   1.715   2.875   0.311 -0.1198 -0.1131 -0.3807
  340SOL    HW1 1019   1.784   2.897   0.381  0.3081 -0.8402 -4.8089
  340SOL    HW2 1020   1.646   2.948   0.291  1.9402 -1.5003 -0.5324
  341SOL     OW 1021   1.982   1.010   1.087  0.0910  0.4514  0.1556
  341SOL    HW1 1022   1.932   0.949   1.028  1.3940  1.2305  0.7874
  341SOL    HW2 1023   2.058   0.960   1.137 -0.5714 -0.0442  2.3057
  342SOL     OW 1024   2.404   2.859   0.144 -0.7158  0.8591  0.5759
  342SOL    HW1 1025   2.314   2.850   0.098  0.4891 -0.7270 -0.8714
  342SOL    HW2 1026   2.476   2.833   0.071  2.5400 -0.4880 -1.5294
  343SOL     OW 1027   1.475   2.067   1.646 -0.3284 -0.1260 -0.4154
  343SOL    HW1 1028   1.539   2.047   1.727  1.9751 -2.0929  0.0390
  343SOL    HW2 1029   1.464   1.974   1.606 -0.7738  2.7448  2.0715
  344SOL     OW 1030   2.430   2.642   1.013  0.5035 -0.3591  0.7148
  344SOL    HW1 1031   2.377   2.582   0.943 -1.0072  0.3204 -0.8216
  344SOL    HW2 1032   2.409   2.630   1.111 -0.1070 -0.3052 -4.0958
  345SOL     OW 1033   2.621   2.295   3.073 -0.1706 -0.4951 -0.1160
  345SOL    HW1 1034   2.659   2.373   3.023  0.5511 -1.1194  0.0154
  345SOL    HW2 1035   2.685   2.253   0.046  1.3742  0.7670  1.4692
  346SOL     OW 1036   2.661   1.647   0.788 -0.1522 -0.0740 -0.2765
  346SOL    HW1 1037   2.593   1.722   0.778  1.3671  1.3309  1.0626
  346SOL    HW2 1038   2.748   1.671   0.834  0.4534 -0.7396 -0.2222
  347SOL     OW 1039   1.664   1.956   1.821  0.5181 -0.0716  0.2534
  347SOL    HW1 1040   1.700   2.005   1.899 -0.0181  1.5939 -2.0166
  347SOL    HW2 1041   1.614   1.873   1.854  0.5213 -2.7057 -0.2831
  348SOL     OW 1042   0.657   1.652   2.736 -0.2016 -0.6247 -0.0422
  348SOL    HW1 1043   0.733   1.714   2.722  2.1453 -3.0520 -0.8894
  348SOL    HW2 1044   0.671   1.586   2.814 -1.5838 -1.3319 -1.2602
  349SOL     OW 1045   2.403   1.267   1.250 -0.8417 -0.3272  0.1299
  349SOL    HW1 1046   2.363   1.365   1.262 -1.7036  4.2818 -0.1943
  349SOL    HW2 1047   2.496   1.275   1.292  0.7258  0.7389  0.3773
  350SOL     OW 1048   2.855   2.434   1.203  0.5345 -0.3390 -0.1725
  350SOL    HW1 1049   2.860   2.415   1.302 -2.8187 -1.2582 -1.4420
  350SOL    HW2 1050   2.758   2.425   1.170 -2.5743  0.0199 -1.0576
  351SOL     OW 1051   0.558   0.058   2.184 -0.5014  0.0069  0.9352
  351SOL    HW1 1052   0.499   0.134   2.218  1.0294 -1.6449 -1.1079
  351SOL    HW2 1053   0.636   0.035   2.251  0.7628  0.7472  0.7166
  352SOL     OW 1054   0.787   1.641   0.907 -0.0255  0.6352 -0.0323
  352SOL    HW1 1055   0.762   1.579   0.984  1.3761 -1.1501  1.1769
  352SOL    HW2 1056   0.752   1.604   0.819 -1.2454 -0.5584 -1.1097
  353SOL     OW 1057   1.383   1.473   2.281  0.1215 -0.0836 -0.0002
  353SOL    HW1 1058   1.328   1.559   2.261 -1.2751  1.8057  0.2005
  353SOL    HW2 1059   1.316   1.399   2.299 -0.9270 -0.3594  0.8076
  354SOL     OW 1060   1.243   0.156   0.917  0.0631 -0.6578  0.0140
  354SOL    HW1 1061   1.317   0.158   0.980 -1.7212  0.0024  0.3125
  354SOL    HW2 1062   1.258   0.226   0.846 -1.4013 -2.7069  0.1002
  355SOL     OW 1063   2.677   1.195   0.471 -0.3763  0.0279 -0.1320
  355SOL    HW1 1064   2.635   1.256   0.401 -1.9220  0.7509  0.0597
  355SOL    HW2 1065   2.607   1.177   0.540 -0.1923  0.0968 -1.1116
  356SOL     OW 1066   2.363   1.742   2.226 -0.5835 -0.3946  0.1114
  356SOL    HW1 1067   2.320   1.816   2.281  1.5336 -0.2367 -1.4678
  356SOL    HW2 1068   2.394   1.782   2.135  0.4413 -0.6013  0.3803
  357SOL     OW 1069   0.568   2.667   1.601  0.2827 -0.4226  0.1604
  357SOL    HW1 1070   0.524   2.735   1.543  0.8553 -3.7818 -2.5395
  357SOL    HW2 1071   0.669   2.680   1.599  1.7529  0.0308  2.6193
  358SOL     OW 1072   2.281   0.645   1.289 -0.1619  0.4036 -0.5693
  358SOL    HW1 1073   2.366   0.680   1.333  0.6884 -2.6251  0.2135
  358SOL    HW2 1074   2.245   0.564   1.341  0.4513 -1.0320 -2.5732
  359SOL     OW 1075   2.198   2.685   2.707  0.1937  0.5345  0.2548
  359SOL    HW1 1076   2.115   2.739   2.685  1.9383  0.5557 -1.8739
  359SOL    HW2 1077   2.175   2.625   2.782 -1.4591  1.4619 -1.2327
  360SOL     OW 1078   0.974   0.494   0.818  0.0327  0.2803  0.1744
  360SOL    HW1 1079   1.012   0.573   0.871  0.5759  2.6069 -0.9041
  360SOL    HW2 1080   1.057   0.435   0.810  0.6292  1.6301 -1.7952
  361SOL     OW 1081   1.964   3.034   1.201 -0.1361  0.2600  0.4965
  361SOL    HW1 1082   1.948   2.997   1.107 -0.1493 -1.3649  3.0901
  361SOL    HW2 1083   2.019   0.029   1.202 -0.9088 -0.3086  0.1990
  362SOL     OW 1084   1.352   1.152   0.437  0.0116  0.4032  0.2344
  362SOL    HW1 1085   1.445   1.195   0.438  2.1524  0.8914 -5.5708
  362SOL    HW2 1086   1.291   1.186   0.512 -0.1781 -0.0190 -0.1011
  363SOL     OW 1087   2.105   1.612   2.477  0.0945 -0.3660 -0.3382
  363SOL    HW1 1088   2.158   1.610   2.569  1.7141 -0.0376  2.2806
  363SOL    HW2 1089   2.118   1.519   2.435  2.5977  0.6603  3.4685
  364SOL     OW 1090   0.282   0.223   1.237  0.1080  0.3173 -0.8140
  364SOL    HW1 1091   0.295   0.306   1.292  1.8476 -1.5405  2.0856
  364SOL    HW2 1092   0.215   0.161   1.288 -0.6184 -2.9998  1.4380
  365SOL     OW 1093   0.198   2.790   0.386  0.1203  0.1836  0.4160
  365SOL    HW1 1094   0.200   2.756   0.285  1.1750  0.0328 -3.2275
  365SOL    HW2 1095   0.102   2.801   0.422 -0.5731 -0.2039  2.3636
  366SOL     OW 1096   2.355   1.982   2.954 -0.7582  0.1446 -0.1158
  366SOL    HW1 1097   2.294   1.951   3.034 -1.2029  3.7105 -1.8349
  366SOL    HW2 1098   2.363   2.084   2.947 -1.4489  2.1190 -2.1429
  367SOL     OW 1099   2.454   2.500   2.817  0.1395  0.2530 -0.4361
  367SOL    HW1 1100   2.474   2.564   2.739  0.0502 -0.8229 -1.0175
  367SOL    HW2 1101   2.484   2.404   2.800  0.7698  0.2956  0.1584
  368SOL     OW 1102   0.212   1.716   0.963  0.1770 -0.6757 -0.1556
  368SOL    HW1 1103   0.235   1.700   1.060 -0.1985  1.7290 -2.2049
  368SOL    HW2 1104   0.285   1.773   0.911  1.8761  2.9672 -1.2899
  369SOL     OW 1105   0.863   2.533   2.827  0.2186 -0.0263  0.0091
  369SOL    HW1 1106   0.845   2.612   2.763 -1.0194  1.7032 -1.1574
  369SOL    HW2 1107   0.939   2.562   2.894  1.4625  0.2113  4.5955
  370SOL     OW 1108   0.148   0.910   0.457 -0.3315  0.4850 -0.2005
  370SOL    HW1 1109   0.068   0.930   0.514  0.4726 -0.2221 -0.7135
  370SOL    HW2 1110   0.227   0.880   0.514  0.0774  1.0046  0.6071
  371SOL     OW 1111   2.069   2.653   0.922 -0.1906  0.0563 -0.4455
  371SOL    HW1 1112   2.010   2.678   0.841  0.8768  1.0564 -1.1497
  371SOL    HW2 1113   2.025   2.573   0.972 -0.8356  1.0780 -1.9653
  372SOL     OW 1114   0.190   0.994   2.770 -0.2770  0.1797  0.2780
  372SOL    HW1 1115   0.236   1.087   2.776  2.6413 -0.1346 -1.1417
  372SOL    HW2 1116   0.259   0.918   2.791  1.5486  1.3616 -2.1371
  373SOL     OW 1117   2.928   1.886   0.722 -0.0688 -0.7742  0.1192
  373SOL    HW1 1118   2.909   1.838   0.812 -1.3741  0.2092 -0.0847
  373SOL    HW2 1119   3.024   1.871   0.683  1.2607  0.9446 -1.3541
  374SOL     OW 1120   0.094   2.398   0.365  0.4973  0.4299  0.2364
  374SOL    HW1 1121   0.076   2.310   0.313 -0.4988  1.3180 -1.8974
  374SOL    HW2 1122   0.160   2.386   0.444  1.9063 -2.4952  0.2512
  375SOL     OW 1123   0.408   0.557   0.171 -0.2365 -0.2102 -0.0953
  375SOL    HW1 1124   0.494   0.585   0.209 -1.5572  0.1115 -0.3783
  375SOL    HW2 1125   0.391   0.457   0.186  2.6228 -2.0849 -1.6027
  376SOL     OW 1126   0.546   2.255   2.155 -0.6182 -0.2425 -0.2169
  376SOL    HW1 1127   0.573   2.250   2.055 -2.1459 -0.9147 -0.2115
  376SOL    HW2 1128   0.616   2.302   2.212 -2.3020 -0.7999 -2.2712
  377SOL     OW 1129   1.701   2.490   2.721 -0.2833  0.6356  0.9049
  377SOL    HW1 1130   1.606   2.451   2.705 -1.2381 -1.8920  0.3697
  377SOL    HW2 1131   1.769   2.417   2.739  1.0797 -0.5423 -1.4330
  378SOL     OW 1132   0.911   0.866   0.426  0.0179  0.2665 -0.3686
  378SOL    HW1 1133   1.006   0.875   0.393 -1.2169 -2.0926 -1.0511
  378SOL    HW2 1134   0.907   0.786   0.492 -0.0673 -0.5419  0.1487
  379SOL     OW 1135   0.759   1.758   0.520 -0.5510  0.1085  0.6711
  379SOL    HW1 1136   0.673   1.732   0.570  0.1696 -2.9447 -1.1172
  379SOL    HW2 1137   0.826   1.681   0.526  1.6085 -2.3524  3.9052
  380SOL     OW 1138   0.318   2.062   1.379  0.1174  0.1475 -0.0751
  380SOL    HW1 1139   0.217   2.067   1.352 -2.1652 -0.3352 -0.0848
  380SOL    HW2 1140   0.323   2.093   1.479  0.3950  1.9428  0.4574
  381SOL     OW 1141   0.387   1.208   1.637  0.2812  0.0109 -0.7929
  381SOL    HW1 1142   0.375   1.154   1.723  2.7579  1.9757 -1.1206
  381SOL    HW2 1143   0.356   1.304   1.643 -0.1065 -1.3682  2.2037
  382SOL     OW 1144   2.351   2.004   0.456 -0.0160  0.0802  0.4738
  382SOL    HW1 1145   2.380   2.046   0.542 -2.3097  0.6094 -0.4753
  382SOL    HW2 1146   2.414   2.031   0.379 -0.3615 -1.1151  1.7525
  383SOL     OW 1147   2.802   1.932   2.109 -0.0186  0.1537 -0.5454
  383SOL    HW1 1148   2.816   1.952   2.011  3.5146 -1.8345  0.4189
  383SOL    HW2 1149   2.702   1.947   2.132 -0.6759 -2.6012  1.6936
  384SOL     OW 1150   0.156   2.131   2.045  0.2408  0.6111 -0.2986
  384SOL    HW1 1151   0.204   2.175   2.126 -1.9807  0.4199  0.9581
  384SOL    HW2 1152   0.141   2.031   2.058  3.1043 -0.5714 -0.7604
  385SOL     OW 1153   2.976   2.162   0.826 -0.5038 -0.7664  0.2219
  385SOL    HW1 1154   2.967   2.062   0.804 -1.8993 -3.1548 -0.0483
  385SOL    HW2 1155   2.900   2.220   0.790  1.9674 -0.3182  0.1632
  386SOL     OW 1156   1.805   0.788   0.684 -0.3319 -0.5326  0.1761
  386SOL    HW1 1157   1.721   0.847   0.658 -0.4382  0.0258 -1.2514
  386SOL    HW2 1158   1.782   0.691   0.698  0.0297 -1.0776 -0.5870
  387SOL     OW 1159   0.481   0.546   1.911 -0.0477 -0.1197 -0.2425
  387SOL    HW1 1160   0.407   0.625   1.914 -0.6408 -0.1402 -1.6133
  387SOL    HW2 1161   0.577   0.575   1.890  0.1144 -0.5534 -0.7718
  388SOL     OW 1162   2.228   1.026   2.452  0.0644  0.3280 -0.2038
  388SOL    HW1 1163   2.209   1.120   2.490  2.0790  3.4430  2.1873
  388SOL    HW2 1164   2.145   0.993   2.399  0.4259 -0.4904 -1.0129
  389SOL     OW 1165   1.982   1.242   1.991 -0.2687 -0.2083 -0.7906
  389SOL    HW1 1166   1.993   1.297   1.907 -2.6732 -0.1055 -0.2073
  389SOL    HW2 1167   2.039   1.156   1.993  1.8716  1.0359 -2.5048
  390SOL     OW 1168   1.780   2.626   0.219 -0.1753  0.6759 -0.2238
  390SOL    HW1 1169   1.769   2.720   0.257 -1.7881 -0.7599  0.6215
  390SOL    HW2 1170   1.705   2.613   0.153 -1.1978 -0.0940 -2.4929
  391SOL     OW 1171   2.243   2.373   1.188 -0.5581 -0.2132 -0.3586
  391SOL    HW1 1172   2.184   2.297   1.156  0.6921 -1.0248  0.1539
  391SOL    HW2 1173   2.309   2.330   1.252 -0.8345 -1.4424  2.8435
  392SOL     OW 1174   3.008   2.644   1.243 -0.3757 -0.1409 -0.0321
  392SOL    HW1 1175   2.971   2.551   1.246  1.9334  0.4167 -1.3341
  392SOL    HW2 1176   0.016   2.642   1.237 -1.2731 -1.4949 -1.5684
  393SOL     OW 1177   2.154   1.599   3.053 -0.2913 -0.5327 -0.3975
  393SOL    HW1 1178   2.080   1.543   3.090 -0.5823 -1.6596 -0.6465
  393SOL    HW2 1179   2.116   1.649   2.968  0.5755  2.8973 -1.7688
  394SOL     OW 1180   2.998   0.241   0.067 -0.1924 -0.8466  0.7078
  394SOL    HW1 1181   3.022   0.338   0.045  0.1899  0.5090 -2.0925
  394SOL    HW2 1182   2.920   0.234   0.132  0.3717  1.0720 -0.9952
  395SOL     OW 1183   0.993   1.125   1.029  0.9483 -0.0214 -0.0200
  395SOL    HW1 1184   0.994   1.209   0.975  3.0920 -1.7195  2.8722
  395SOL    HW2 1185   0.978   1.038   0.976  0.3849 -1.8460  2.1236
  396SOL     OW 1186   1.324   0.634   2.834 -0.0765  0.0086  0.0687
  396SOL    HW1 1187   1.264   0.585   2.769  0.4516  1.4645  0.3687
  396SOL    HW2 1188   1.421   0.605   2.820 -1.4349  1.1252 -3.5536
  397SOL     OW 1189   0.118   0.532   2.690 -0.0060  0.1970  0.4813
  397SOL    HW1 1190   0.031   0.584   2.666  0.2713 -0.4787 -0.3257
  397SOL    HW2 1191   0.121   0.445   2.636  0.0209  1.3748  2.2625
  398SOL     OW 1192   0.886   0.108   0.237  0.3995  0.3241 -0.4224
  398SOL    HW1 1193   0.877   0.207   0.256 -2.4013 -1.5364 -1.3211
  398SOL    HW2 1194   0.821   0.081   0.164  1.3812  1.4182 -1.2817
  399SOL     OW 1195   2.467   2.943   1.833  0.1230 -0.0726  0.5686
  399SOL    HW1 1196   2.495   2.844   1.854 -3.2720 -2.2403  0.0150
  399SOL    HW2 1197   2.546   3.003   1.824 -0.6540 -0.3870 -0.2637
  400SOL     OW 1198   0.418   1.751   2.437  0.0155 -0.1985 -1.1633
  400SOL    HW1 1199   0.412   1.779   2.535  1.7292 -1.6873  1.8020
  400SOL    HW2 1200   0.464   1.819   2.381  0.2761 -2.2917  1.1743
  401SOL     OW 1201   0.896   0.208   2.632 -0.2142 -0.1430  0.0821
  401SOL    HW1 1202   0.978   0.144   2.630  0.9941 -0.3877 -2.1416
  401SOL    HW2 1203   0.927   0.304   2.643  0.3661 -1.3245 -3.5788
  402SOL     OW 1204   0.001   2.175   1.602 -0.2338  0.0345  0.4830
  402SOL    HW1 1205   0.058   2.092   1.586 -0.1999  1.1130 -0.1290
  402SOL    HW2 1206   3.082   2.207   1.696 -3.6202  0.1493  0.5490
  403SOL     OW 1207   0.574   1.037   1.811 -0.4345 -0.1505  0.3571
  403SOL    HW1 1208   0.576   1.137   1.837  0.1401  0.2418 -0.2358
  403SOL    HW2 1209   0.486   1.003   1.842  0.8095  1.6985 -1.2707
  404SOL     OW 1210   3.029   2.516   1.599  0.3787  0.2500  0.2787
  404SOL    HW1 1211   3.001   2.553   1.689  2.0062 -0.0910  1.2241
  404SOL    HW2 1212   2.966   2.448   1.552 -0.8207 -2.0895 -0.7707
  405SOL     OW 1213   0.352   0.392   1.726  0.2289  0.3118 -0.4172
  405SOL    HW1 1214   0.406   0.433   1.805  0.9256  0.9287  1.8078
  405SOL    HW2 1215   0.378   0.296   1.716  0.0448  2.1048 -0.5188
  406SOL     OW 1216   1.889   2.272   3.045 -0.7244 -0.0660 -0.3113
  406SOL    HW1 1217   1.946   2.301   0.035 -0.2910 -1.4203  4.5816
  406SOL    HW2 1218   1.925   2.314   2.965  0.7916 -1.1783 -0.4980
  407SOL     OW 1219   1.722   0.942   1.908 -0.3176 -0.5095  0.3873
  407SOL    HW1 1220   1.646   0.953   1.839  2.4043 -3.3404 -0.3627
  407SOL    HW2 1221   1.732   1.031   1.954  0.9101 -1.1317 -0.7375
  408SOL     OW 1222   0.703   0.103   2.858 -0.0117 -0.2888 -0.0850
  408SOL    HW1 1223   0.664   0.008   2.849 -1.2552 -2.1449 -1.4343
  408SOL    HW2 1224   0.761   0.121   2.781 -0.0916 -0.9717  0.0515
  409SOL     OW 1225   3.033   1.984   0.412 -0.0114  0.1390  0.1896
  409SOL    HW1 1226   2.982   2.070   0.432 -1.3134  3.8787  0.4529
  409SOL    HW2 1227   3.089   1.973   0.496 -0.5247  0.0720 -1.5649
  410SOL     OW 1228   2.691   1.576   0.311  0.5088 -1.0094  0.0813
  410SOL    HW1 1229   2.639   1.623   0.240  2.4830 -0.6317  0.0724
  410SOL    HW2 1230   2.722   1.490   0.269 -2.2754  2.2905  1.5787
  411SOL     OW 1231   3.012   0.477   0.908 -0.1199 -0.3395 -0.0093
  411SOL    HW1 1232   3.061   0.434   0.833 -1.4240 -0.0379 -0.0324
  411SOL    HW2 1233   3.021   0.418   0.988  0.0079 -0.0811  0.0900
  412SOL     OW 1234   1.329   0.809   0.846 -0.2614  0.4238  0.1312
  412SOL    HW1 1235   1.271   0.875   0.796 -3.5044  0.0582  1.4177
  412SOL    HW2 1236   1.374   0.861   0.927  0.4263  2.6060 -1.4512
  413SOL     OW 1237   0.854   0.184   1.187 -0.1095  0.4439 -0.3485
  413SOL    HW1 1238   0.824   0.091   1.150  0.7875 -1.5085 -0.0455
  413SOL    HW2 1239   0.950   0.197   1.158  0.1883  1.0115  0.1311
  414SOL     OW 1240   3.039   1.543   2.843 -0.0523 -0.0295 -0.3892
  414SOL    HW1 1241   2.993   1.522   2.756  2.6521 -1.1710  0.5010
  414SOL    HW2 1242   3.051   1.643   2.859 -2.5158  1.8540  1.3693
  415SOL     OW 1243   0.404   2.385   2.959 -0.2965  0.6225  0.3457
  415SOL    HW1 1244   0.451   2.295   2.935  1.4503 -0.3302  1.9629
  415SOL    HW2 1245   0.316   2.400   2.901 -2.9117  0.8850 -0.8331
  416SOL     OW 1246   1.326   0.721   0.515 -0.2716 -0.0212  0.0659
  416SOL    HW1 1247   1.248   0.671   0.467  1.4273 -0.3516  1.0691
  416SOL    HW2 1248   1.350   0.664   0.598 -2.8580 -2.3859 -1.2087
  417SOL     OW 1249   0.287   1.099   0.317  0.4600  0.4440 -0.0198
  417SOL    HW1 1250   0.267   1.079   0.222  0.2442 -1.2883 -0.1792
  417SOL    HW2 1251   0.225   1.034   0.367 -1.3055 -3.8060 -0.1882
  418SOL     OW 1252   2.476   1.220   2.247  0.1681  0.2943  0.7182
  418SOL    HW1 1253   2.415   1.302   2.228  0.6711 -1.2914  1.7000
  418SOL    HW2 1254   2.500   1.212   2.342 -0.1503 -1.0226 -2.2430
  419SOL     OW 1255   0.184   0.443   2.929  0.5359 -0.0538 -0.6514
  419SOL    HW1 1256   0.107   0.433   3.000 -0.0686  0.2009 -1.1257
  419SOL    HW2 1257   0.154   0.488   2.841 -3.3241  1.1616 -1.4380
  420SOL     OW 1258   0.594   1.473   0.758  0.0949 -0.2739 -0.4793
  420SOL    HW1 1259   0.501   1.487   0.795  0.9176  1.0271 -0.0931
  420SOL    HW2 1260   0.629   1.379   0.771  2.4620 -1.2082 -0.0786
  421SOL     OW 1261   0.697   2.210   0.833  0.4939  0.2303  0.3252
  421SOL    HW1 1262   0.778   2.242   0.778 -1.9180  2.7043 -2.3260
  421SOL    HW2 1263   0.628   2.163   0.776 -1.3414  1.4571  0.4794
  422SOL     OW 1264   2.931   0.839   1.534  0.2445 -0.2055  0.5437
  422SOL    HW1 1265   3.015   0.849   1.476  2.4000 -1.7974 -1.1562
  422SOL    HW2 1266   2.884   0.750   1.522 -1.3015  0.1053  0.6507
  423SOL     OW 1267   1.368   1.572   1.386  0.3467 -0.0533  0.6038
  423SOL    HW1 1268   1.388   1.553   1.491 -0.6674 -1.2338  5.0741
  423SOL    HW2 1269   1.437   1.523   1.326  2.1301 -0.3698  2.2363
  424SOL     OW 1270   1.962   1.064   0.015 -0.4234 -0.0574  0.0596
  424SOL    HW1 1271   1.887   1.117   0.059  0.2871 -1.8744  0.6988
  424SOL    HW2 1272   1.970   1.100   3.010 -0.6638  2.2138 -1.9327
  425SOL     OW 1273   0.012   0.649   1.949  1.0818  0.0829  0.7806
  425SOL    HW1 1274   0.107   0.679   1.928 -2.0738  2.3537  0.2163
  425SOL    HW2 1275   3.053   0.598   1.870 -0.7141  1.3283 -2.0372
  426SOL     OW 1276   2.456   2.723   2.655 -0.0175  0.1615 -0.4094
  426SOL    HW1 1277   2.362   2.717   2.696 -2.1869  0.0515 -1.2383
  426SOL    HW2 1278   2.454   2.790   2.581  1.4858  1.9324 -0.7220
  427SOL     OW 1279   1.127   0.855   2.100  0.0033  0.2130  0.1158
  427SOL    HW1 1280   1.226   0.846   2.065  3.6091  0.6371  0.9819
  427SOL    HW2 1281   1.090   0.948   2.075  1.2404 -0.0189  1.9407
  428SOL     OW 1282   2.161   1.027   2.044 -0.0935 -0.0207 -0.1514
  428SOL    HW1 1283   2.142   0.933   2.022  1.9362  2.8817  2.3112
  428SOL    HW2 1284   2.165   1.048   2.141 -1.4934 -1.1348 -0.0585
  429SOL     OW 1285   3.045   2.838   0.545 -0.1065  0.6794 -0.0937
  429SOL    HW1 1286   3.069   2.832   0.642 -2.2742  0.8229 -2.4053
  429SOL    HW2 1287   3.035   2.935   0.516  0.0001 -1.4619 -0.8944
  430SOL     OW 1288   1.940   1.253   2.259  0.2749 -0.2563  0.1520
  430SOL    HW1 1289   2.023   1.268   2.317  0.3031 -2.1688 -1.0283
  430SOL    HW2 1290   1.971   1.261   2.163 -1.7409 -0.1541  0.5360
  431SOL     OW 1291   0.236   1.665   1.247 -0.8892 -0.2456 -0.9296
  431SOL    HW1 1292   0.185   1.747   1.278  2.3830  3.5256 -0.9328
  431SOL    HW2 1293   0.319   1.643   1.304  1.6992 -0.8073  0.5981
  432SOL     OW 1294   1.639   3.049   2.269 -0.9423 -0.0282  0.2196
  432SOL    HW1 1295   1.699   0.031   2.244 -3.3826  0.6972 -0.1767
  432SOL    HW2 1296   1.678   2.961   2.245  0.9215 -0.1222  3.6834
  433SOL     OW 1297   1.414   3.011   1.896 -0.1752  0.0745  0.4020
  433SOL    HW1 1298   1.359   3.049   1.819 -0.7541 -0.5828  1.2433
  433SOL    HW2 1299   1.512   3.037   1.887  0.0444  0.4202 -1.2147
  434SOL     OW 1300   0.370   2.496   2.036  0.0143  0.5702 -0.0607
  434SOL    HW1 1301   0.287   2.551   2.027  1.6495  2.4725 -0.6681
  434SOL    HW2 1302   0.342   2.404   2.072 -2.8198 -1.7065  1.4675
  435SOL     OW 1303   0.375   2.225   0.229 -0.7285 -0.2343  0.1504
  435SOL    HW1 1304   0.402   2.309   0.180 -1.7113 -1.9395  3.8643
  435SOL    HW2 1305   0.432   2.146   0.196 -0.6304 -1.7081  1.5572
  436SOL     OW 1306   0.697   0.801   1.911  0.3049  0.0277 -0.1309
  436SOL    HW1 1307   0.790   0.771   1.895  0.4747 -1.6087 -0.5805
  436SOL    HW2 1308   0.674   0.876   1.857  0.4666 -3.3286  4.4515
  437SOL     OW 1309   0.548   2.815   2.396 -0.5274 -0.1871 -0.3829
  437SOL    HW1 1310   0.557   2.865   2.310 -0.0126  0.7271  2.1540
  437SOL    HW2 1311   0.600   2.866   2.465  0.8317  1.3259  1.4475
  438SOL     OW 1312   0.720   1.746   1.558 -0.4816  0.3530  0.1178
  438SOL    HW1 1313   0.665   1.827   1.562 -1.2297  0.0460 -0.8172
  438SOL    HW2 1314   0.661   1.672   1.605 -1.3947 -0.1625 -1.1096
  439SOL     OW 1315   2.087   0.834   3.010 -0.7798 -0.2555 -0.3573
  439SOL    HW1 1316   2.040   0.918   3.017  2.4125 -1.4616  2.5336
  439SOL    HW2 1317   2.075   0.775   3.091  0.0006 -0.6096  1.1330
  440SOL     OW 1318   0.804   0.340   0.339 -0.9240  0.2481 -0.8722
  440SOL    HW1 1319   0.701   0.351   0.345 -2.5245 -1.1249  0.3356
  440SOL    HW2 1320   0.847   0.391   0.264  1.2380 -0.9815  3.1220
  441SOL     OW 1321   0.993   2.267   1.468  0.0542  0.1476 -0.0789
  441SOL    HW1 1322   0.998   2.361   1.436  1.6028  0.2083 -0.4447
  441SOL    HW2 1323   0.901   2.232   1.473  1.4596  0.8298  0.5634
  442SOL     OW 1324   3.019   1.429   0.431 -0.3641 -0.0011  0.0818
  442SOL    HW1 1325   3.001   1.329   0.436 -1.1692  0.8567  1.1158
  442SOL    HW2 1326   2.935   1.484   0.468 -1.6410 -1.0675  0.1177
  443SOL     OW 1327   2.628   1.931   2.481 -0.3389 -0.2587  0.0924
  443SOL    HW1 1328   2.620   1.984   2.395 -0.5115  1.8088  0.3050
  443SOL    HW2 1329   2.601   1.835   2.462  1.0125  1.9635  0.5010
  444SOL     OW 1330   1.540   1.040   0.155  0.5798 -0.2706 -0.4002
  444SOL    HW1 1331   1.608   1.090   0.095  0.0019  2.1841  0.2235
  444SOL    HW2 1332   1.450   1.090   0.152  0.2010  2.0250 -0.2599
  445SOL     OW 1333   2.695   2.710   2.051 -0.2415  0.0178 -0.2499
  445SOL    HW1 1334   2.706   2.809   2.045 -1.3703 -0.8734 -0.3216
  445SOL    HW2 1335   2.621   2.673   1.988 -0.6908  0.5336  1.1232
  446SOL     OW 1336   2.810   1.353   0.674 -0.3078 -0.6789 -0.4241
  446SOL    HW1 1337   2.768   1.308   0.594  1.4032 -0.0662  0.5622
  446SOL    HW2 1338   2.833   1.447   0.662  1.7172 -1.0586  0.6892
  447SOL     OW 1339   1.126   1.823   1.157 -0.0923  0.3389 -0.2333
  447SOL    HW1 1340   1.101   1.776   1.244  0.6428  1.1329  1.5810
  447SOL    HW2 1341   1.039   1.853   1.109 -0.6794  0.5419  1.8003
  448SOL     OW 1342   1.488   1.533   1.617  0.6771  0.8300 -0.1933
  448SOL    HW1 1343   1.564   1.588   1.591  1.5088  1.2383 -2.0025
  448SOL    HW2 1344   1.474   1.549   1.716  0.1979  0.8754  0.3771
  449SOL     OW 1345   2.778   2.591   2.453 -0.0268 -0.2333 -0.3440
  449SOL    HW1 1346   2.684   2.581   2.407 -0.0380  1.2988  0.3764
  449SOL    HW2 1347   2.809   2.499   2.476 -0.6774  0.4522 -0.6555
  450SOL     OW 1348   3.054   1.661   1.971  0.2252 -0.2377  0.2785
  450SOL    HW1 1349   2.978   1.667   1.907 -0.5422  1.1875 -0.5508
  450SOL    HW2 1350   3.028   1.611   2.054  3.5322 -0.3562  0.8686
  451SOL     OW 1351   2.144   0.878   1.305  0.1700 -0.1022  0.6345
  451SOL    HW1 1352   2.175   0.784   1.273  0.5159 -3.5833  0.2536
  451SOL    HW2 1353   2.068   0.867   1.375  0.3871 -0.7320 -1.9774
  452SOL     OW 1354   0.699   1.212   0.785  0.1316  0.0712  0.2049
  452SOL    HW1 1355   0.628   1.144   0.754  3.4915  0.7737 -0.1297
  452SOL    HW2 1356   0.766   1.174   0.850 -0.0798  4.7436 -2.6415
  453SOL     OW 1357   1.500   2.099   0.635  0.0972 -0.0045  0.1522
  453SOL    HW1 1358   1.521   2.148   0.724  0.0634  2.6594  1.2768
  453SOL    HW2 1359   1.590   2.076   0.587  2.4592 -1.7952  1.5756
  454SOL     OW 1360   0.480   1.765   0.151 -0.2729  0.1679 -0.5049
  454SOL    HW1 1361   0.569   1.751   0.199  0.5356 -0.4314  2.5024
  454SOL    HW2 1362   0.407   1.796   0.219 -0.2559  2.4693  3.5010
  455SOL     OW 1363   1.314   1.178   0.158 -0.1281  0.3973  0.7045
  455SOL    HW1 1364   1.213   1.179   0.159  0.3200 -0.4243 -1.1026
  455SOL    HW2 1365   1.347   1.211   0.247  0.0589 -0.9897 -1.2476
  456SOL     OW 1366   2.271   2.503   0.825  0.9240  0.2769  0.1674
  456SOL    HW1 1367   2.233   2.430   0.770 -0.4455 -0.0815  1.4152
  456SOL    HW2 1368   2.191   2.552   0.863 -0.5188 -2.7454 -3.8907
  457SOL     OW 1369   1.671   2.904   3.000  0.3401  0.0065  0.2020
  457SOL    HW1 1370   1.701   2.986   2.947 -0.6721  0.8011  0.6389
  457SOL    HW2 1371   1.663   2.820   2.940  1.7894 -1.8359  1.1581
  458SOL     OW 1372   2.476   1.183   0.667 -0.1975 -0.1583  0.3995
  458SOL    HW1 1373   2.392   1.147   0.619 -2.1685 -0.7096  1.0746
  458SOL    HW2 1374   2.468   1.278   0.701  0.9349 -0.6094  1.0550
  459SOL     OW 1375   2.489   0.409   2.582  0.8267 -0.3675 -0.2419
  459SOL    HW1 1376   2.447   0.486   2.529 -0.6450  1.7012  1.6450
  459SOL    HW2 1377   2.556   0.353   2.526  1.9022  0.9793 -1.4995
  460SOL     OW 1378   2.586   0.824   2.700  0.7208 -0.1966 -0.2510
  460SOL    HW1 1379   2.488   0.839   2.685 -0.0925 -1.3205  1.4236
  460SOL    HW2 1380   2.634   0.904   2.662 -2.0758 -1.7596  1.8143
  461SOL     OW 1381   3.012   2.383   0.955  0.2748 -0.8821 -0.6778
  461SOL    HW1 1382   2.958   2.392   1.043 -2.2910 -0.7972  3.7888
  461SOL    HW2 1383   3.017   2.282   0.937 -0.1049 -0.7967  3.1492
  462SOL     OW 1384   3.053   2.890   1.901  0.0677 -0.3890  0.4745
  462SOL    HW1 1385   0.018   2.939   1.829 -1.1444  0.5118 -0.1806
  462SOL    HW2 1386   0.018   2.865   1.981 -0.4046 -1.2342 -0.1413
  463SOL     OW 1387   2.138   1.868   2.366 -0.2163  0.2392  0.3467
  463SOL    HW1 1388   2.135   1.776   2.414 -0.6390 -1.3675  0.9908
  463SOL    HW2 1389   2.082   1.864   2.284  1.9596 -2.6718 -0.3716
  464SOL     OW 1390   0.845   2.701   1.570  0.3209 -0.1871 -0.5744
  464SOL    HW1 1391   0.891   2.695   1.659 -1.0026 -0.6259  2.6652
  464SOL    HW2 1392   0.891   2.768   1.516 -0.8856 -0.5718  3.0399
  465SOL     OW 1393   0.830   3.068   1.602 -0.0203 -0.6380  0.5539
  465SOL    HW1 1394   0.749   3.041   1.542  0.2246  1.2978 -1.8427
  465SOL    HW2 1395   0.824   0.080   1.617 -1.2451  2.6895  2.2491
  466SOL     OW 1396   1.568   2.699   1.893  0.0944  0.1910  0.0208
  466SOL    HW1 1397   1.639   2.653   1.954 -0.1263 -1.2976  2.0680
  466SOL    HW2 1398   1.482   2.720   1.940 -1.3127 -0.5795 -0.6272
  467SOL     OW 1399   0.591   2.045   1.297  0.0162 -0.6146 -0.4720
  467SOL    HW1 1400   0.592   1.954   1.254  0.7467  0.3491  0.7362
  467SOL    HW2 1401   0.503   2.064   1.337 -0.5927  0.3491 -1.1213
  468SOL     OW 1402   2.592   1.672   2.336 -0.2951  0.1076  0.1383
  468SOL    HW1 1403   2.667   1.656   2.267  0.7843 -0.9966  1.0293
  468SOL    HW2 1404   2.508   1.691   2.289  3.1751 -4.1863 -0.2536
  469SOL     OW 1405   0.964   1.997   0.758 -0.4378  0.2725 -0.2988
  469SOL    HW1 1406   0.998   1.920   0.707 -0.9345  3.3733  3.2150
  469SOL    HW2 1407   0.934   1.959   0.846  1.5721  1.4980 -0.0844
  470SOL     OW 1408   2.180   1.189   1.667  0.0369 -0.2754  0.4687
  470SOL    HW1 1409   2.142   1.278   1.693 -0.2103  0.8076 -0.8407
  470SOL    HW2 1410   2.170   1.167   1.567  1.7551  0.4702 -0.0852
  471SOL     OW 1411   0.425   2.466   0.129  0.4316 -0.0956  0.0944
  471SOL    HW1 1412   0.511   2.498   0.165 -3.7809 -2.3524 -0.7125
  471SOL    HW2 1413   0.440   2.439   0.033 -1.8898  1.0337 -1.4852
  472SOL     OW 1414   2.865   2.014   1.838 -0.0240 -0.4659  0.5182
  472SOL    HW1 1415   2.856   1.914   1.842  0.5373  0.7546  0.9500
  472SOL    HW2 1416   2.797   2.058   1.772  0.7173 -0.7168  1.9962
  473SOL     OW 1417   1.103   3.047   0.281  0.5916 -0.0469  0.2181
  473SOL    HW1 1418   1.089   2.952   0.243 -1.0243  0.6320  1.4857
  473SOL    HW2 1419   1.015   0.006   0.274  2.5001 -2.9039 -0.5537
  474SOL     OW 1420   2.592   2.487   0.712 -1.1872 -0.0245  0.2476
  474SOL    HW1 1421   2.533   2.562   0.671  0.4184  0.5593 -0.5084
  474SOL    HW2 1422   2.679   2.527   0.745 -0.9700 -0.6516 -0.7790
  475SOL     OW 1423   2.243   2.830   1.679  0.3487 -0.7300 -0.2279
  475SOL    HW1 1424   2.200   2.888   1.600 -2.5218  2.6480 -0.3422
  475SOL    HW2 1425   2.327   2.871   1.717 -2.0533  1.4833 -0.9346
  476SOL     OW 1426   0.892   0.921   0.807 -0.3320 -0.3620  0.4968
  476SOL    HW1 1427   0.849   0.951   0.721  1.6849  0.2403 -2.3750
  476SOL    HW2 1428   0.826   0.881   0.871  3.9685 -0.7198  0.1287
  477SOL     OW 1429   0.401   1.889   0.850  0.1647 -0.1523  0.0520
  477SOL    HW1 1430   0.386   1.932   0.939  1.9184 -2.1595 -1.7894
  477SOL    HW2 1431   0.438   1.951   0.777  1.0943  1.6251  1.3443
  478SOL     OW 1432   0.053   2.591   2.123  0.1284  0.1696  0.1371
  478SOL    HW1 1433   3.054   2.601   2.166 -0.9022 -2.8054  0.5958
  478SOL    HW2 1434   0.099   2.680   2.134  1.2036  0.6984  0.4438
  479SOL     OW 1435   0.163   0.569   1.655  0.3638  0.0909 -0.4209
  479SOL    HW1 1436   0.062   0.569   1.674 -1.3030 -1.8467  0.3609
  479SOL    HW2 1437   0.210   0.490   1.689  1.5498 -0.1179  0.1095
  480SOL     OW 1438   2.863   2.509   0.068  0.2061  0.1064  0.4987
  480SOL    HW1 1439   2.839   2.497   3.063 -2.3410 -0.4627 -4.0432
  480SOL    HW2 1440   2.857   2.416   0.113  0.6634  1.2046  0.7614
  481SOL     OW 1441   1.994   1.889   2.141 -0.8177  0.0988  0.1444
  481SOL    HW1 1442   1.909   1.828   2.144 -1.9798  1.1757  4.1220
  481SOL    HW2 1443   1.993   1.939   2.053 -0.1860 -1.2340  0.7977
  482SOL     OW 1444   1.607   2.311   0.026  0.2181 -0.7333  0.1505
  482SOL    HW1 1445   1.616   2.251   0.101 -0.7794  2.0461 -0.0795
  482SOL    HW2 1446   1.693   2.300   3.067 -0.4389  0.0150  0.5840
  483SOL     OW 1447   0.487   1.951   2.263 -0.1588 -0.2225 -0.2185
  483SOL    HW1 1448   0.585   1.942   2.228  0.7151  1.3038 -0.9281
  483SOL    HW2 1449   0.423   2.012   2.213 -1.7530  0.5281 -0.2263
  484SOL     OW 1450   2.871   0.529   1.263  0.1736 -0.6122 -0.2261
  484SOL    HW1 1451   2.959   0.568   1.227 -0.7876 -0.7376  1.0500
  484SOL    HW2 1452   2.807   0.515   1.186  2.4874  2.0844  2.7709
  485SOL     OW 1453   2.159   1.080   0.776  0.1103  1.0999  0.5604
  485SOL    HW1 1454   2.184   1.075   0.675 -0.4646 -0.6154 -0.4118
  485SOL    HW2 1455   2.086   1.151   0.784  2.6399 -0.8102  0.4690
  486SOL     OW 1456   1.590   0.348   2.274 -0.0459 -0.4529 -0.0887
  486SOL    HW1 1457   1.652   0.429   2.260  2.1538  1.8313 -0.3374
  486SOL    HW2 1458   1.542   0.354   2.363 -2.4643 -0.2695 -3.0556
  487SOL     OW 1459   0.823   1.423   1.066  0.0905  0.2745  0.1659
  487SOL    HW1 1460   0.782   1.344   1.109  0.3119  0.0293  2.5168
  487SOL    HW2 1461   0.883   1.398   0.986 -0.2905  0.9707 -1.5686
  488SOL     OW 1462   2.414   1.384   2.846  0.2966 -0.0640  0.3502
  488SOL    HW1 1463   2.356   1.431   2.773 -0.0663 -0.8031 -1.6045
  488SOL    HW2 1464   2.419   1.440   2.933  0.8216  1.8425 -1.4086
  489SOL     OW 1465   2.428   0.221   0.496  0.1190  0.2079 -0.2340
  489SOL    HW1 1466   2.507   0.160   0.478 -0.8510  0.4110 -0.4803
  489SOL    HW2 1467   2.373   0.181   0.569  0.8146 -0.4875  0.1352
  490SOL     OW 1468   1.381   2.286   0.341 -0.9959 -0.0542  0.0102
  490SOL    HW1 1469   1.475   2.248   0.350  0.0748  3.9128 -0.0104
  490SOL    HW2 1470   1.387   2.392   0.333 -0.7246  5.9298  2.3459
  491SOL     OW 1471   1.136   0.959   0.712 -0.2137  0.2661  0.5543
  491SOL    HW1 1472   1.044   0.944   0.752  1.9603  0.4263  1.4056
  491SOL    HW2 1473   1.135   0.946   0.609  0.7286 -0.5607 -1.4759
  492SOL     OW 1474   1.657   0.319   0.035  0.0770  0.6468  0.1556
  492SOL    HW1 1475   1.704   0.272   3.045  1.2914  0.8135 -1.8762
  492SOL    HW2 1476   1.661   0.421   0.034  2.3497  0.4320  2.5504
  493SOL     OW 1477   2.066   2.057   0.202 -0.1202 -0.4325 -0.1881
  493SOL    HW1 1478   2.053   2.150   0.165 -2.3757 -0.8292  2.7999
  493SOL    HW2 1479   2.069   2.066   0.301 -0.1805 -1.3717 -2.2562
  494SOL     OW 1480   0.702   0.883   0.268  0.0629  0.2703 -0.2360
  494SOL    HW1 1481   0.782   0.860   0.322 -2.7444  1.4845 -0.1747
  494SOL    HW2 1482   0.733   0.924   0.176 -0.6662  2.2346 -2.2581
  495SOL     OW 1483   2.954   2.723   0.981  0.4180  0.2214  0.5111
  495SOL    HW1 1484   2.982   2.687   1.074  0.1047 -0.8973 -1.7260
  495SOL    HW2 1485   2.937   2.644   0.914  1.4975 -3.4718 -1.7144
  496SOL     OW 1486   2.500   0.136   1.654 -0.3826  0.0866  0.1364
  496SOL    HW1 1487   2.517   0.186   1.568  0.4393  1.4123 -2.4980
  496SOL    HW2 1488   2.408   0.166   1.682  1.5133 -2.7111 -0.3416
  497SOL     OW 1489   1.880   1.633   2.653 -0.3203 -0.5173 -0.2586
  497SOL    HW1 1490   1.940   1.625   2.571 -0.1347  0.3703  1.2855
  497SOL    HW2 1491   1.811   1.711   2.643 -1.2597  1.6617  0.9072
  498SOL     OW 1492   0.891   1.911   1.034  0.3472  0.4522 -0.4814
  498SOL    HW1 1493   0.857   2.002   1.059  0.6695 -0.7730 -1.7225
  498SOL    HW2 1494   0.817   1.856   1.000  2.4304  0.4134  1.1685
  499SOL     OW 1495   0.728   2.194   1.473  0.3692  0.6857  0.4929
  499SOL    HW1 1496   0.690   2.116   1.426  1.2755  1.9699  0.5847
  499SOL    HW2 1497   0.721   2.284   1.424  1.2247 -1.2570  0.3978
  500SOL     OW 1498   0.906   2.044   0.204 -0.2167  0.8023 -0.2140
  500SOL    HW1 1499   0.851   2.122   0.229  1.0597 -0.4634 -0.0774
  500SOL    HW2 1500   0.992   2.045   0.258 -2.7054  4.9314 -2.4613
  501SOL     OW 1501   2.604   2.967   1.478 -0.2912  0.0931 -0.1556
  501SOL    HW1 1502   2.580   2.892   1.409  1.6912 -0.2516 -0.1196
  501SOL    HW2 1503   2.637   2.924   1.565 -0.5228  1.7882 -1.3732
  502SOL     OW 1504   0.245   0.823   1.584  0.1221  0.1620 -0.1827
  502SOL    HW1 1505   0.196   0.737   1.602  0.4399  3.9075  2.2124
  502SOL    HW2 1506   0.350   0.816   1.565  3.0090 -1.3191  0.1752
  503SOL     OW 1507   2.102   0.934   1.713  0.4607  0.3779 -0.2330
  503SOL    HW1 1508   2.193   0.885   1.735  0.4994 -0.6223  0.2185
  503SOL    HW2 1509   2.123   1.034   1.696  2.1539 -0.8792 -1.9008
  504SOL     OW 1510   1.417   0.696   1.879  0.5281 -0.2808  0.2711
  504SOL    HW1 1511   1.395   0.638   1.960 -0.0886 -1.6575  1.7913
  504SOL    HW2 1512   1.396   0.795   1.897 -0.3315  1.9200  2.8815
  505SOL     OW 1513   0.751   3.050   2.325  0.2119 -0.0823 -0.1333
  505SOL    HW1 1514   0.846   3.080   2.322  2.9208  0.0311  0.3525
  505SOL    HW2 1515   0.729   3.031   2.424 -0.4070  1.7140 -1.7939
  506SOL     OW 1516   0.023   0.320   1.118 -0.9683  0.3175 -0.2139
  506SOL    HW1 1517   0.015   0.227   1.081 -0.3416  0.4752  3.8154
  506SOL    HW2 1518   0.041   0.315   1.216 -2.2440  2.2368 -1.6814
  507SOL     OW 1519   1.301   0.268   0.005  1.0058 -0.5032  0.3914
  507SOL    HW1 1520   1.395   0.304   0.001 -1.9520 -0.5823  0.0624
  507SOL    HW2 1521   1.251   0.259   3.011 -1.2963  0.1301  2.2420
  508SOL     OW 1522   1.914   0.313   2.572 -0.0465  0.6719 -0.0635
  508SOL    HW1 1523   2.013   0.294   2.576  1.3932 -2.3128  1.9257
  508SOL    HW2 1524   1.870   0.231   2.521 -1.0789 -1.2871 -0.9022
  509SOL     OW 1525   0.664   1.290   2.172 -0.2153  0.0722  0.7205
  509SOL    HW1 1526   0.673   1.345   2.259 -0.2199  4.5645  1.0528
  509SOL    HW2 1527   0.702   1.197   2.189 -0.1572 -0.7058 -2.7300
  510SOL     OW 1528   3.032   0.950   0.657 -0.0420 -0.2184  0.0316
  510SOL    HW1 1529   0.005   0.963   0.737  1.3701 -0.0424  0.9502
  510SOL    HW2 1530   2.963   0.885   0.686  2.0517  1.6474 -2.2441
  511SOL     OW 1531   2.119   2.018   0.769  0.0055 -0.4123 -0.2387
  511SOL    HW1 1532   2.208   2.022   0.822  0.4058 -0.8911  0.3935
  511SOL    HW2 1533   2.083   1.924   0.760  3.3495 -2.7101 -0.2664
  512SOL     OW 1534   0.688   1.231   0.387  0.0262  0.2187 -0.1898
  512SOL    HW1 1535   0.603   1.237   0.451 -2.0582  1.3085  3.5849
  512SOL    HW2 1536   0.699   1.320   0.335 -0.0398 -0.7341  1.3435
  513SOL     OW 1537   0.324   2.200   0.518 -0.4685 -0.2424  0.0438
  513SOL    HW1 1538   0.348   2.239   0.424  0.2051  1.4060 -0.3558
  513SOL    HW2 1539   0.268   2.268   0.573 -1.9246 -0.7133  1.7140
  514SOL     OW 1540   2.549   2.057   2.238 -0.4723 -0.0633 -0.1784
  514SOL    HW1 1541   2.449   2.071   2.254  3.6298 -0.4111  2.1291
  514SOL    HW2 1542   2.588   2.133   2.185  1.0746 -3.0375 -0.7604
  515SOL     OW 1543   2.208   1.048   0.247 -0.0161  0.4011  0.0470
  515SOL    HW1 1544   2.145   0.967   0.258  1.2755  0.4862  1.0961
  515SOL    HW2 1545   2.307   1.032   0.225 -1.2512  1.3774 -0.4820
  516SOL     OW 1546   1.814   0.124   0.719  0.1231  0.2795  0.0380
  516SOL    HW1 1547   1.741   0.187   0.756 -0.7821  1.0714 -1.1325
  516SOL    HW2 1548   1.779   0.069   0.641 -1.3080  0.3128 -0.0176
  517SOL     OW 1549   1.417   2.010   0.069  0.1574 -0.5292  0.1191
  517SOL    HW1 1550   1.351   2.093   0.074  0.7381  0.3700  0.2905
  517SOL    HW2 1551   1.383   1.947   3.085 -1.5443 -1.4301  1.6334
  518SOL     OW 1552   1.171   0.752   1.734  0.7048 -0.8691 -0.1189
  518SOL    HW1 1553   1.264   0.756   1.772 -1.8889 -1.1093 -0.1042
  518SOL    HW2 1554   1.153   0.822   1.658  1.2427 -0.7779 -1.2498
  519SOL     OW 1555   0.140   1.264   0.018  0.1668 -0.6156  0.3544
  519SOL    HW1 1556   0.161   1.329   3.035 -0.9718  1.6428 -0.5108
  519SOL    HW2 1557   0.136   1.308   0.106  0.8132  1.1921 -2.6662
  520SOL     OW 1558   2.120   2.173   1.747 -0.0671  0.2028 -0.2033
  520SOL    HW1 1559   2.056   2.155   1.672  0.3700  0.1664  0.7349
  520SOL    HW2 1560   2.177   2.250   1.717  0.5848 -2.6603 -2.6195
  521SOL     OW 1561   0.880   2.753   2.430  0.0991  0.3161  0.2040
  521SOL    HW1 1562   0.817   2.764   2.348  0.9677 -0.7914 -0.2296
  521SOL    HW2 1563   0.981   2.742   2.403  1.1719  0.2298 -1.1505
  522SOL     OW 1564   1.866   0.167   2.220 -0.2445  0.7079 -0.1686
  522SOL    HW1 1565   1.863   0.138   2.319  0.0482  3.0976 -0.2745
  522SOL    HW2 1566   1.797   0.237   2.204  0.5466  0.0318 -2.7210
  523SOL     OW 1567   1.786   2.004   1.206  0.1013  0.1982 -0.4679
  523SOL    HW1 1568   1.746   2.097   1.206  1.3450  1.7535 -0.7197
  523SOL    HW2 1569   1.742   1.937   1.273 -0.6850 -0.0171  0.6729
  524SOL     OW 1570   1.259   2.237   0.111  0.0601  0.6136 -0.3076
  524SOL    HW1 1571   1.169   2.275   0.126  0.6661 -0.1464  0.0937
  524SOL    HW2 1572   1.321   2.240   0.193  1.7419 -3.2989  2.3690
  525SOL     OW 1573   3.089   0.487   0.026 -0.4071 -0.0514  0.2546
  525SOL    HW1 1574   3.038   0.568   3.089  2.1059 -0.8185 -0.2540
  525SOL    HW2 1575   0.059   0.513   0.104  1.8741  4.2963 -0.8388
  526SOL     OW 1576   1.047   2.707   0.466 -0.4568 -0.5555 -0.2437
  526SOL    HW1 1577   0.977   2.724   0.535  0.9362 -0.8306 -1.5982
  526SOL    HW2 1578   1.135   2.752   0.491 -0.5397 -1.4614 -0.0510
  527SOL     OW 1579   2.826   1.603   0.531  0.4737  0.8589 -0.4040
  527SOL    HW1 1580   2.801   1.644   0.621  1.9366 -0.5000 -2.4439
  527SOL    HW2 1581   2.755   1.608   0.463 -0.0043 -2.3781  0.9006
  528SOL     OW 1582   3.079   0.785   2.362 -0.1772 -0.0275 -0.2386
  528SOL    HW1 1583   3.014   0.709   2.389 -0.7980 -4.1799 -0.3904
  528SOL    HW2 1584   0.080   0.744   2.347  1.5711 -1.5770  1.3919
  529SOL     OW 1585   1.408   1.640   2.685 -0.5614 -0.8839 -0.4316
  529SOL    HW1 1586   1.473   1.561   2.673  0.7969  2.6222  2.6144
  529SOL    HW2 1587   1.313   1.611   2.710  0.4298 -1.3699 -0.8416
  530SOL     OW 1588   1.785   1.096   2.509  0.1829 -0.0472  0.3046
  530SOL    HW1 1589   1.734   1.040   2.442  0.4168  1.9423 -0.1904
  530SOL    HW2 1590   1.788   1.194   2.474  0.7406  1.1067  1.4891
  531SOL     OW 1591   0.560   2.109   2.499  0.7387 -0.7234  0.5766
  531SOL    HW1 1592   0.549   2.061   2.412  1.1567  2.6430  1.6692
  531SOL    HW2 1593   0.490   2.074   2.566 -0.7895  0.0951 -0.7413
  532SOL     OW 1594   2.246   1.128   0.523 -0.1897  0.1414 -0.5285
  532SOL    HW1 1595   2.234   1.056   0.454  0.6858  1.4704  2.1281
  532SOL    HW2 1596   2.227   1.219   0.489  0.2780 -1.5001 -0.4678
  533SOL     OW 1597   0.087   3.037   1.716 -0.3260  0.0851  0.2945
  533SOL    HW1 1598   0.188   3.047   1.702  1.7492  3.3833  0.5743
  533SOL    HW2 1599   0.047   2.995   1.631 -2.3218 -1.3036 -0.1967
  534SOL     OW 1600   0.697   0.048   0.044 -0.3965  0.1902  0.0098
  534SOL    HW1 1601   0.686   0.079   3.039 -0.5710  0.8175  2.8525
  534SOL    HW2 1602   0.610   0.050   0.099 -0.3133 -0.2082  0.5470
  535SOL     OW 1603   0.313   0.277   0.493 -0.1925  0.4231  0.4206
  535SOL    HW1 1604   0.225   0.327   0.499 -2.7828 -1.5399  1.7077
  535SOL    HW2 1605   0.300   0.178   0.519  0.5732 -3.2810  1.2244
  536SOL     OW 1606   0.416   1.561   1.490 -0.4484  0.1925 -0.1465
  536SOL    HW1 1607   0.411   1.664   1.481  2.9583  2.8468  2.9263
  536SOL    HW2 1608   0.490   1.523   1.430 -0.1980  0.6193 -0.2523
  537SOL     OW 1609   1.257   2.619   1.849  0.6705 -0.5554 -0.1698
  537SOL    HW1 1610   1.307   2.648   1.934  0.6429 -2.1917  2.8871
  537SOL    HW2 1611   1.204   2.530   1.862  1.8355 -1.9907 -1.4949
  538SOL     OW 1612   0.029   1.802   2.955  0.5617 -0.4423 -0.1512
  538SOL    HW1 1613   3.058   1.761   3.023 -1.7173  1.0264 -1.5276
  538SOL    HW2 1614   0.127   1.781   2.969 -1.3529  0.8686  0.8453
  539SOL     OW 1615   2.724   1.039   2.606  0.5746 -0.2048 -0.8068
  539SOL    HW1 1616   2.770   1.089   2.685  0.4208  1.6805  2.3417
  539SOL    HW2 1617   2.791   1.035   2.530  1.1165  3.7054 -0.2043
  540SOL     OW 1618   1.728   0.609   2.188 -0.1606 -0.0619 -0.0628
  540SOL    HW1 1619   1.727   0.708   2.161 -0.9793  2.2484  0.1927
  540SOL    HW2 1620   1.756   0.596   2.282 -3.8365 -1.5271 -2.6175
  541SOL     OW 1621   0.539   0.489   2.177  0.3620 -0.1185 -0.4859
  541SOL    HW1 1622   0.472   0.436   2.233  0.4405  1.1293 -1.7582
  541SOL    HW2 1623   0.494   0.504   2.087 -1.0847 -0.2509  2.4810
  542SOL     OW 1624   2.171   2.864   3.081 -0.1606  0.2885  0.7677
  542SOL    HW1 1625   2.072   2.854   3.083  2.6396  2.6179  1.6396
  542SOL    HW2 1626   2.199   2.902   2.990 -1.8233  2.1197  0.4775
  543SOL     OW 1627   1.340   0.074   0.195  0.4896 -0.0033 -0.1977
  543SOL    HW1 1628   1.320   0.145   0.128 -1.5433  1.2085 -0.6278
  543SOL    HW2 1629   1.259   0.029   0.236 -0.9292  1.2403 -1.2959
  544SOL     OW 1630   2.580   1.625   1.898  0.1681 -0.1383  0.1895
  544SOL    HW1 1631   2.569   1.554   1.976  0.3004 -1.0129  1.3680
  544SOL    HW2 1632   2.535   1.590   1.815 -0.6414  1.4795  2.2071
  545SOL     OW 1633   2.150   2.074   1.338 -0.4049  0.2022 -0.4699
  545SOL    HW1 1634   2.134   2.097   1.239  0.2009  0.3194 -0.7690
  545SOL    HW2 1635   2.219   2.136   1.378 -0.4217 -2.6772  2.9870
  546SOL     OW 1636   0.106   0.051   2.593  0.5133  0.4037 -0.1481
  546SOL    HW1 1637   0.056   0.004   2.514  2.1541  1.4475  0.2993
  546SOL    HW2 1638   0.083   0.012   2.685  2.1256  0.3314 -1.5032
  547SOL     OW 1639   1.558   0.901   0.600 -0.0755 -0.1152 -0.2353
  547SOL    HW1 1640   1.577   0.994   0.634  0.9256 -2.9620 -0.7858
  547SOL    HW2 1641   1.460   0.876   0.599  0.0135  0.3206  0.2488
  548SOL     OW 1642   1.675   2.175   2.525  0.2284  0.6354  0.2906
  548SOL    HW1 1643   1.618   2.247   2.568  0.7671  0.3295  0.1778
  548SOL    HW2 1644   1.733   2.121   2.591  0.1204  0.0433 -3.3790
  549SOL     OW 1645   2.135   0.544   0.505 -0.3428 -0.5655 -0.1359
  549SOL    HW1 1646   2.074   0.612   0.465  0.4327 -1.6509  0.0734
  549SOL    HW2 1647   2.076   0.481   0.566 -0.9736 -1.1400  0.2522
  550SOL     OW 1648   2.692   2.010   0.541 -0.3248 -0.0810  0.1717
  550SOL    HW1 1649   2.764   1.955   0.583 -2.8492  1.5226  0.2495
  550SOL    HW2 1650   2.682   1.979   0.439  1.5503  4.5910 -1.9726
  551SOL     OW 1651   1.123   2.695   2.356 -0.0205  0.4641 -0.1805
  551SOL    HW1 1652   1.193   2.731   2.295  2.0624 -0.5737  2.6101
  551SOL    HW2 1653   1.166   2.630   2.424  1.9143  0.6673 -3.5171
  552SOL     OW 1654   2.773   2.469   2.898  0.0701 -0.5243 -0.7552
  552SOL    HW1 1655   2.826   2.409   2.837  0.2693 -0.5078 -1.1519
  552SOL    HW2 1656   2.743   2.561   2.856 -0.2290  0.4468  2.3133
  553SOL     OW 1657   3.076   0.136   0.762  0.2806  0.5137 -0.0776
  553SOL    HW1 1658   0.005   0.037   0.759  1.6810  0.8128  1.6583
  553SOL    HW2 1659   3.008   0.144   0.841 -1.9055 -0.1706 -0.2377
  554SOL     OW 1660   2.266   2.383   1.652 -0.5302  0.0470 -0.8631
  554SOL    HW1 1661   2.200   2.454   1.615 -3.2376 -0.6198  2.0430
  554SOL    HW2 1662   2.323   2.426   1.720 -4.3296 -0.2357 -0.2479
  555SOL     OW 1663   1.704   2.403   2.247  0.5934 -0.5105  0.1024
  555SOL    HW1 1664   1.629   2.425   2.313 -1.0776  0.0251  2.2196
  555SOL    HW2 1665   1.786   2.357   2.291 -1.9904 -1.4431 -0.3522
  556SOL     OW 1666   1.172   1.408   1.282  0.0619  0.9565  0.2604
  556SOL    HW1 1667   1.214   1.383   1.192  1.1969  0.9772  0.4579
  556SOL    HW2 1668   1.222   1.485   1.327 -1.6402  1.8508 -2.6102
  557SOL     OW 1669   1.937   2.534   2.410  0.1921 -0.3098 -0.1650
  557SOL    HW1 1670   1.949   2.447   2.468  1.2540 -1.2602 -0.5715
  557SOL    HW2 1671   1.911   2.615   2.468  0.3472 -1.1707 -0.3355
  558SOL     OW 1672   0.196   2.816   2.131 -0.2639 -0.4073 -0.4193
  558SOL    HW1 1673   0.273   2.817   2.069 -1.0020 -0.2140 -1.9808
  558SOL    HW2 1674   0.224   2.865   2.219  1.4686  1.0129  3.9935
  559SOL     OW 1675   2.151   3.000   0.625  0.3452  0.5286  0.1719
  559SOL    HW1 1676   2.199   2.931   0.566 -1.9046  0.2114  0.3943
  559SOL    HW2 1677   2.055   2.968   0.635 -1.6156  1.3836  0.7164
  560SOL     OW 1678   1.646   2.608   0.649 -0.8789 -0.1697 -0.3019
  560SOL    HW1 1679   1.659   2.544   0.728  2.8303  1.9900 -0.1508
  560SOL    HW2 1680   1.624   2.700   0.688  0.1304 -1.9902 -2.2960
  561SOL     OW 1681   1.020   0.078   0.785  0.7269 -0.1760 -0.3460
  561SOL    HW1 1682   1.057   0.080   0.690  0.4950  3.0387 -2.1750
  561SOL    HW2 1683   1.091   0.126   0.839  1.8020  2.4132  0.2440
  562SOL     OW 1684   0.489   0.770   2.427 -0.0118  0.0985  1.0893
  562SOL    HW1 1685   0.469   0.814   2.340 -0.3600 -0.3491  1.9553
  562SOL    HW2 1686   0.445   0.681   2.434 -0.5529  1.7327 -0.0994
  563SOL     OW 1687   1.671   1.811   2.487  0.1522  0.5629  0.1251
  563SOL    HW1 1688   1.715   1.872   2.554 -1.1888 -1.1450 -3.8413
  563SOL    HW2 1689   1.571   1.835   2.483  0.8247  0.2834  0.2695
  564SOL     OW 1690   2.719   0.988   1.208 -0.4776 -0.0892 -0.1925
  564SOL    HW1 1691   2.645   0.923   1.200  0.0733  0.0462  0.5026
  564SOL    HW2 1692   2.770   0.985   1.124 -3.2102  1.4977  0.2442
  565SOL     OW 1693   1.111   0.683   2.979  0.2812  0.6872 -0.1401
  565SOL    HW1 1694   1.201   0.660   2.934  0.1425 -1.6304  2.4282
  565SOL    HW2 1695   1.068   0.765   2.938  0.7170  0.5520 -1.4397
  566SOL     OW 1696   2.228   0.198   2.922 -0.1301  0.1059  0.1082
  566SOL    HW1 1697   2.196   0.236   2.833 -0.6601 -1.4798  2.2457
  566SOL    HW2 1698   2.202   0.257   2.998  2.9551  1.4703  2.3077
  567SOL     OW 1699   2.061   1.308   0.412 -0.3734 -0.0712 -0.3463
  567SOL    HW1 1700   2.093   1.402   0.401  2.9717 -0.8156 -0.2410
  567SOL    HW2 1701   2.061   1.260   0.321  1.3311  0.8353 -1.0081
  568SOL     OW 1702   1.762   1.758   2.927  0.4639 -0.2604  0.0394
  568SOL    HW1 1703   1.668   1.782   2.889  1.0271 -0.3154 -0.6352
  568SOL    HW2 1704   1.756   1.695   3.006  0.2935  2.5120  1.3813
  569SOL     OW 1705   2.011   1.128   2.833  0.1300 -0.4710  0.2113
  569SOL    HW1 1706   1.998   1.198   2.763  1.8317 -2.4836  1.6854
  569SOL    HW2 1707   2.110   1.119   2.859 -0.0551 -1.3343  1.7833
  570SOL     OW 1708   0.614   2.240   1.868  0.1244 -0.0323 -0.0949
  570SOL    HW1 1709   0.603   2.340   1.848 -2.9178  0.6512  0.4626
  570SOL    HW2 1710   0.520   2.198   1.858  1.9078  0.8158  0.3270
  571SOL     OW 1711   0.319   1.035   1.853  0.1990  0.3067 -0.3666
  571SOL    HW1 1712   0.249   1.012   1.784 -2.2732  0.5314  1.5798
  571SOL    HW2 1713   0.279   1.045   1.942 -0.0892  0.3513 -0.6994
  572SOL     OW 1714   1.103   1.779   0.657 -0.2482 -0.0245  0.5195
  572SOL    HW1 1715   1.125   1.758   0.753  0.5363  0.4131 -1.0653
  572SOL    HW2 1716   1.070   1.696   0.612  2.7916  2.1686  0.9292
  573SOL     OW 1717   1.868   1.878   0.136 -0.5371 -0.0313 -0.7999
  573SOL    HW1 1718   1.782   1.937   0.138 -0.5372 -1.5778  2.4676
  573SOL    HW2 1719   1.947   1.936   0.162 -1.7025 -0.6582 -0.1208
  574SOL     OW 1720   0.844   3.012   1.100  0.2723  0.1865 -0.1664
  574SOL    HW1 1721   0.748   2.979   1.115 -2.7333  1.1392  0.5778
  574SOL    HW2 1722   0.883   2.969   1.014  0.3201 -0.4643 -3.2464
  575SOL     OW 1723   0.273   1.142   1.402  0.3756 -0.3863  0.0036
  575SOL    HW1 1724   0.337   1.150   1.478 -1.1895 -0.9621 -1.5575
  575SOL    HW2 1725   0.233   1.237   1.387  1.4172  1.2160 -0.6036
  576SOL     OW 1726   2.532   0.038   1.099  0.0226 -0.5723 -0.2910
  576SOL    HW1 1727   2.437   0.051   1.070  1.6332  1.4628  0.6028
  576SOL    HW2 1728   2.547   3.031   1.085  1.4463  0.0238 -1.2331
  577SOL     OW 1729   1.012   1.121   2.059  0.3526 -0.1710  0.2129
  577SOL    HW1 1730   1.012   1.082   1.963  0.1870 -0.5243 -0.7705
  577SOL    HW2 1731   0.923   1.105   2.099  2.0056 -0.8170 -3.2991
  578SOL     OW 1732   1.891   0.938   2.680 -0.1704  0.3604 -0.1214
  578SOL    HW1 1733   1.845   1.009   2.623 -0.4461  0.3879  2.5171
  578SOL    HW2 1734   1.926   0.989   2.763  1.1504  1.3707  0.2742
  579SOL     OW 1735   1.874   2.449   1.671 -0.4699 -0.8712  0.0787
  579SOL    HW1 1736   1.877   2.448   1.773  0.3590 -1.7984  3.1631
  579SOL    HW2 1737   1.894   2.360   1.632  1.3071 -2.0468  0.3815
  580SOL     OW 1738   1.654   1.584   2.303 -0.2947 -0.0211 -0.3742
  580SOL    HW1 1739   1.648   1.651   2.385 -0.9653  3.2262  1.8933
  580SOL    HW2 1740   1.568   1.534   2.281 -1.7832  0.5901 -0.7083
  581SOL     OW 1741   1.179   1.277   2.394 -0.4472 -0.1086  0.0527
  581SOL    HW1 1742   1.191   1.174   2.383  1.6151 -1.0440  1.4319
  581SOL    HW2 1743   1.108   1.293   2.469 -1.6765 -1.3977  0.2364
  582SOL     OW 1744   0.941   1.178   1.630 -0.2378 -0.2837  0.5134
  582SOL    HW1 1745   1.004   1.259   1.628  0.8307  1.4277 -0.9923
  582SOL    HW2 1746   0.846   1.204   1.601 -2.4375 -2.0862  1.6353
  583SOL     OW 1747   1.284   1.091   1.727 -0.3051 -0.0015 -0.0341
  583SOL    HW1 1748   1.204   1.039   1.696 -0.6790 -0.1751 -1.8756
  583SOL    HW2 1749   1.292   1.177   1.668 -0.6130 -0.4723 -0.4706
  584SOL     OW 1750   2.104   2.904   0.280  0.1157 -1.1552 -0.3534
  584SOL    HW1 1751   2.133   2.806   0.261  0.8921  0.8925 -1.1486
  584SOL    HW2 1752   2.166   2.973   0.236 -3.0995  0.3976  0.2885
  585SOL     OW 1753   1.886   3.081   2.880  0.1608 -0.0734 -0.1584
  585SOL    HW1 1754   1.929   3.051   2.791  1.7729  1.7720 -2.1166
  585SOL    HW2 1755   1.912   3.015   2.950 -1.9190 -1.4098 -1.6057
  586SOL     OW 1756   2.782   1.902   1.134 -0.2529  0.1666  0.4116
  586SOL    HW1 1757   2.687   1.912   1.176 -2.6583 -1.5667 -0.2658
  586SOL    HW2 1758   2.801   1.989   1.083 -1.0483  2.5462 -0.4338
  587SOL     OW 1759   1.292   1.832   3.013  0.6090  0.1907  0.2165
  587SOL    HW1 1760   1.280   1.733   3.041 -0.2921 -0.6043  0.4137
  587SOL    HW2 1761   1.203   1.871   2.978  1.9683  0.4757 -0.4469
  588SOL     OW 1762   0.309   0.257   0.975 -0.0816  0.1551 -0.5146
  588SOL    HW1 1763   0.389   0.314   0.960 -3.8359 -0.8596 -1.4554
  588SOL    HW2 1764   0.303   0.228   1.075 -0.7296  0.3577 -1.2553
  589SOL     OW 1765   1.321   3.084   0.681 -0.6101 -0.3497  0.4916
  589SOL    HW1 1766   1.264   0.032   0.606  1.1432  2.8279  1.8425
  589SOL    HW2 1767   1.318   0.043   0.767 -0.5744  1.0976 -2.9683
  590SOL     OW 1768   1.332   0.912   2.883 -0.0588 -0.3188  0.0248
  590SOL    HW1 1769   1.333   0.813   2.862  1.2685  0.2717 -0.1562
  590SOL    HW2 1770   1.242   0.939   2.921 -0.5724 -0.1221 -0.5175
  591SOL     OW 1771   2.870   2.421   2.005  0.4597  0.0840 -0.0634
  591SOL    HW1 1772   2.892   2.471   2.088 -3.4413  1.3680 -1.4892
  591SOL    HW2 1773   2.949   2.371   1.968  3.7451 -0.2589  0.5901
  592SOL     OW 1774   2.393   1.532   1.703  0.4655 -0.7672 -0.2096
  592SOL    HW1 1775   2.329   1.585   1.642  1.3492  2.5835 -1.7326
  592SOL    HW2 1776   2.423   1.440   1.663  0.1612 -0.8597 -4.0116
  593SOL     OW 1777   1.103   0.916   1.543 -0.0699 -0.1938 -0.2165
  593SOL    HW1 1778   1.153   0.866   1.472 -0.0417  1.6346  2.3243
  593SOL    HW2 1779   1.059   1.002   1.510 -1.2662  3.3173 -0.0666
  594SOL     OW 1780   2.541   1.229   2.511 -0.1231  0.3549 -0.2359
  594SOL    HW1 1781   2.585   1.319   2.523  0.0739  1.9263  2.5376
  594SOL    HW2 1782   2.603   1.155   2.530 -1.9152  1.3685 -4.0443
  595SOL     OW 1783   2.953   0.191   0.546 -0.5104 -0.5279 -0.0657
  595SOL    HW1 1784   2.977   0.159   0.643 -2.0972  0.5450  1.1600
  595SOL    HW2 1785   2.931   0.285   0.545 -0.8023 -2.4530 -1.2076
  596SOL     OW 1786   3.066   1.603   1.064  0.2585  0.4295  0.2769
  596SOL    HW1 1787   3.081   1.508   1.099 -0.4289 -1.1598  2.0657
  596SOL    HW2 1788   0.058   1.645   1.026 -1.0828 -0.6445 -0.3878
  597SOL     OW 1789   1.319   1.560   0.569 -0.1492  0.1324 -0.4449
  597SOL    HW1 1790   1.351   1.657   0.574 -1.6330  0.1195  2.0357
  597SOL    HW2 1791   1.271   1.542   0.478 -0.3444  2.4698 -2.2209
  598SOL     OW 1792   0.373   2.869   1.899 -0.2294  0.5592  0.2252
  598SOL    HW1 1793   0.383   2.940   1.830 -1.1908  0.7869  1.8664
  598SOL    HW2 1794   0.334   2.784   1.855  0.8013 -1.9555 -0.0675
  599SOL     OW 1795   3.084   1.626   2.540 -0.0041 -0.0406  0.5257
  599SOL    HW1 1796   3.013   1.558   2.562 -0.1292 -0.7666 -0.7587
  599SOL    HW2 1797   3.046   1.716   2.554  1.9335  0.6061 -2.8592
  600SOL     OW 1798   0.707   0.850   2.876 -0.1923  0.3797 -0.4495
  600SOL    HW1 1799   0.665   0.766   2.914 -1.2689 -0.2344  0.8602
  600SOL    HW2 1800   0.657   0.868   2.791 -0.3820 -1.9405 -1.8465
  601SOL     OW 1801   0.722   0.861   0.996 -0.2190 -0.5088 -0.2313
  601SOL    HW1 1802   0.672   0.779   0.988  2.7043  0.0961 -0.7857
  601SOL    HW2 1803   0.661   0.940   0.999  1.8705 -0.4824 -2.3002
  602SOL     OW 1804   1.057   2.426   0.434 -1.0642 -0.5643  0.5380
  602SOL    HW1 1805   1.059   2.532   0.437  1.4700  3.0798 -0.2688
  602SOL    HW2 1806   1.136   2.388   0.479  0.1256  4.8013 -1.6440
  603SOL     OW 1807   1.515   2.279   2.041  0.0757 -0.0195  0.3112
  603SOL    HW1 1808   1.583   2.332   2.093 -0.3674 -0.5563  2.6141
  603SOL    HW2 1809   1.482   2.326   1.957 -0.5910 -2.2073  1.2732
  604SOL     OW 1810   0.513   0.268   2.768  0.4686 -0.0329 -0.3864
  604SOL    HW1 1811   0.489   0.342   2.836  0.7454  2.4269  1.1693
  604SOL    HW2 1812   0.593   0.214   2.805  0.4534 -1.0217  1.6014
  605SOL     OW 1813   2.460   1.037   1.493 -0.0591 -0.4035 -0.6934
  605SOL    HW1 1814   2.381   1.075   1.445  3.4656 -0.9535  1.2816
  605SOL    HW2 1815   2.541   1.100   1.480  1.9826 -1.4276 -1.7580
  606SOL     OW 1816   0.869   1.823   2.689  0.1375 -0.4258  0.3691
  606SOL    HW1 1817   0.843   1.911   2.647  1.4639 -1.2764  0.6543
  606SOL    HW2 1818   0.926   1.771   2.626 -2.4200 -1.7494  1.0481
  607SOL     OW 1819   0.720   0.066   0.717 -0.0939  0.5814  0.3552
  607SOL    HW1 1820   0.734   0.024   0.624 -0.0798  1.5025 -0.6518
  607SOL    HW2 1821   0.810   0.096   0.761  2.1054 -3.4053 -0.5941
  608SOL     OW 1822   2.348   1.880   1.695 -1.1059  0.4635  0.3510
  608SOL    HW1 1823   2.344   1.845   1.794  1.8801  1.4821  4.1100
  608SOL    HW2 1824   2.255   1.908   1.668 -0.7691 -0.7775 -1.9114
  609SOL     OW 1825   2.680   0.299   0.652  0.0725  0.5543  0.4150
  609SOL    HW1 1826   2.676   0.218   0.716  1.3444 -0.4479 -0.4731
  609SOL    HW2 1827   2.621   0.375   0.683  0.3990 -0.2794  2.7059
  610SOL     OW 1828   0.277   2.469   1.102 -0.3891  0.5563 -0.0335
  610SOL    HW1 1829   0.219   2.388   1.121 -1.4006  0.1552  2.9144
  610SOL    HW2 1830   0.373   2.442   1.095 -3.8180 -0.4009  1.5068
  611SOL     OW 1831   1.512   1.646   0.167 -0.5677  0.2909 -0.3826
  611SOL    HW1 1832   1.604   1.654   0.120  0.9318 -0.3757 -1.3905
  611SOL    HW2 1833   1.494   1.714   0.246  0.3557  1.6184  2.4265
  612SOL     OW 1834   0.583   2.600   2.181  0.0041 -0.1388  0.3945
  612SOL    HW1 1835   0.525   2.574   2.101  1.1600 -0.9256  3.5766
  612SOL    HW2 1836   0.522   2.652   2.245  1.4247  0.5313 -0.3702
  613SOL     OW 1837   0.521   2.719   0.778 -0.2069  0.3029  0.5042
  613SOL    HW1 1838   0.582   2.677   0.703  1.8560 -2.2160 -1.5586
  613SOL    HW2 1839   0.567   2.695   0.864 -0.4413 -1.4698 -0.1480
  614SOL     OW 1840   2.245   0.204   2.021 -0.3932  0.5397 -0.1782
  614SOL    HW1 1841   2.161   0.260   2.038  1.1444 -1.1928 -0.4560
  614SOL    HW2 1842   2.227   0.115   1.971 -1.5233 -3.0077 -1.6987
  615SOL     OW 1843   1.611   1.394   0.258  0.0553  0.4546 -0.2225
  615SOL    HW1 1844   1.564   1.464   0.197 -1.2186  0.8045 -4.1484
  615SOL    HW2 1845   1.653   1.437   0.340 -0.1914 -0.9000 -0.3946
  616SOL     OW 1846   1.769   1.505   0.446 -0.3210  0.6616 -0.7920
  616SOL    HW1 1847   1.772   1.608   0.442 -0.1322  1.0172 -0.1952
  616SOL    HW2 1848   1.864   1.468   0.464  2.7387  1.1568 -1.3986
  617SOL     OW 1849   1.251   1.011   2.426  0.6078  0.1385  0.1794
  617SOL    HW1 1850   1.184   0.934   2.430  0.0112  1.4833  2.5002
  617SOL    HW2 1851   1.314   1.006   2.504 -4.2342  0.6554  0.8217
  618SOL     OW 1852   0.616   2.929   2.049 -0.3740 -0.2102 -0.5307
  618SOL    HW1 1853   0.528   2.901   2.006 -0.3930 -2.6318 -0.9596
  618SOL    HW2 1854   0.596   3.014   2.104 -1.6544  2.7282 -1.2554
  619SOL     OW 1855   2.828   1.617   1.564  0.2587 -0.1682 -0.3339
  619SOL    HW1 1856   2.848   1.675   1.483 -1.7667 -0.9543  0.1399
  619SOL    HW2 1857   2.743   1.562   1.544 -1.1023 -0.4325 -0.2811
  620SOL     OW 1858   2.640   0.548   2.764  0.5234  0.2740 -0.3397
  620SOL    HW1 1859   2.616   0.642   2.743  1.2900 -3.2656  1.8332
  620SOL    HW2 1860   2.602   0.476   2.702  1.4216 -0.5798  0.6895
  621SOL     OW 1861   2.280   2.086   2.263 -0.4426  0.1647 -0.2154
  621SOL    HW1 1862   2.194   2.141   2.248 -1.0833  1.1744 -1.9432
  621SOL    HW2 1863   2.247   1.998   2.299  0.9672  3.8791 -0.7621
  622SOL     OW 1864   0.910   0.743   2.263  0.1798 -0.0199 -0.2107
  622SOL    HW1 1865   0.887   0.647   2.256  0.2411  0.4142 -0.7971
  622SOL    HW2 1866   0.945   0.783   2.177  2.2400  1.2793  0.4639
  623SOL     OW 1867   0.762   1.044   2.197  0.6094  0.0831 -0.2857
  623SOL    HW1 1868   0.790   1.048   2.293  2.5856  0.7174 -1.2443
  623SOL    HW2 1869   0.687   0.972   2.177 -2.6284 -0.4039  0.6404
  624SOL     OW 1870   2.788   0.671   0.341 -0.0706  0.0047  0.0858
  624SOL    HW1 1871   2.727   0.605   0.292  1.3075  0.5439  0.6380
  624SOL    HW2 1872   2.874   0.687   0.287 -0.2226 -1.8422 -1.1130
  625SOL     OW 1873   0.798   2.141   1.131  0.5520  0.2257 -0.0749
  625SOL    HW1 1874   0.757   2.164   1.040  0.9199  2.4420 -3.5850
  625SOL    HW2 1875   0.721   2.139   1.197  3.9527 -0.2826 -2.5335
  626SOL     OW 1876   2.045   0.722   2.560  0.1617 -0.3504  0.1673
  626SOL    HW1 1877   2.091   0.681   2.639 -1.6074  0.4208  0.4716
  626SOL    HW2 1878   2.000   0.809   2.592 -4.2827  2.9882  2.1920
  627SOL     OW 1879   1.560   2.661   2.899  0.3244  0.1021  0.0136
  627SOL    HW1 1880   1.471   2.615   2.882 -0.4234 -2.4574  1.3807
  627SOL    HW2 1881   1.637   2.610   2.857  1.2969  0.2155  0.8950
  628SOL     OW 1882   2.475   2.893   2.427 -0.4847  0.1030 -0.3980
  628SOL    HW1 1883   2.436   2.937   2.340 -1.3294  0.0796 -0.8779
  628SOL    HW2 1884   2.498   2.969   2.493 -0.3189  0.8510  2.3879
  629SOL     OW 1885   0.978   0.142   2.251  0.4926  0.1960 -0.7767
  629SOL    HW1 1886   0.960   0.107   2.157  0.0407  0.2695 -0.7059
  629SOL    HW2 1887   1.055   0.090   2.297 -1.0468  0.1591 -1.5768
  630SOL     OW 1888   0.810   0.266   2.409 -0.1542  0.0679 -0.0844
  630SOL    HW1 1889   0.834   0.227   2.504  3.2511 -1.7874  1.5604
  630SOL    HW2 1890   0.874   0.230   2.336 -1.7546  1.4560 -0.9862
  631SOL     OW 1891   1.962   1.285   0.762 -0.0174 -0.0557 -0.3771
  631SOL    HW1 1892   1.893   1.258   0.694 -0.7843  2.7561  1.2347
  631SOL    HW2 1893   1.916   1.290   0.854 -1.1722  1.9365  1.9783
  632SOL     OW 1894   2.301   0.557   1.669 -0.5783  0.0151  0.0977
  632SOL    HW1 1895   2.205   0.560   1.654  0.5002 -2.9055 -0.5732
  632SOL    HW2 1896   2.338   0.653   1.682 -0.6206  0.1408  1.5911
  633SOL     OW 1897   1.192   1.815   0.237 -0.2264  0.7464 -0.7594
  633SOL    HW1 1898   1.140   1.887   0.282 -0.4239 -0.9096  1.4145
  633SOL    HW2 1899   1.261   1.848   0.167  0.0377 -0.6524  0.5131
  634SOL     OW 1900   2.678   0.042   1.816  0.3616 -0.2126 -0.0445
  634SOL    HW1 1901   2.601   0.099   1.784  0.2881  0.0188  0.1375
  634SOL    HW2 1902   2.761   0.084   1.778  0.7056 -0.3557 -0.3240
  635SOL     OW 1903   1.612   0.526   0.893 -0.3767  0.3838  0.1852
  635SOL    HW1 1904   1.634   0.582   0.975  0.0378  0.1940  0.8709
  635SOL    HW2 1905   1.651   0.430   0.900 -0.6614  0.6054 -1.1449
  636SOL     OW 1906   0.844   1.215   3.071  0.0034 -0.1251  0.0651
  636SOL    HW1 1907   0.838   1.115   3.067  1.2655  0.2148 -0.2628
  636SOL    HW2 1908   0.765   1.264   3.033  1.1895 -0.2511  1.3040
  637SOL     OW 1909   3.077   2.030   2.833 -0.2472 -0.2858 -0.4592
  637SOL    HW1 1910   0.007   1.937   2.868 -2.0205  4.3594 -0.7163
  637SOL    HW2 1911   3.069   2.088   2.916  1.4061 -2.7018  0.2202
  638SOL     OW 1912   1.483   2.328   2.676 -0.2267 -0.4865  0.4088
  638SOL    HW1 1913   1.380   2.344   2.654 -3.1188  0.2498 -0.8767
  638SOL    HW2 1914   1.504   2.236   2.719  3.0445 -0.3332 -1.4471
  639SOL     OW 1915   1.584   1.786   0.801 -0.2676  0.0361 -0.3723
  639SOL    HW1 1916   1.496   1.834   0.826 -3.9501  0.2380  3.5209
  639SOL    HW2 1917   1.604   1.793   0.701 -1.8125  3.2550  1.4344
  640SOL     OW 1918   1.927   2.926   0.484 -0.0480  0.6106 -0.2365
  640SOL    HW1 1919   2.002   2.898   0.423  0.3429 -0.1439  1.0385
  640SOL    HW2 1920   1.899   3.020   0.456  0.0490  1.2061  0.4329
  641SOL     OW 1921   2.705   0.345   0.074 -0.4002  0.1960  0.2089
  641SOL    HW1 1922   2.656   0.426   0.090  2.5882 -1.0373 -2.1675
  641SOL    HW2 1923   2.679   0.305   3.074  1.2654 -1.2569  0.1127
  642SOL     OW 1924   0.050   0.658   1.206  0.1478 -0.4634 -0.3136
  642SOL    HW1 1925   0.093   0.681   1.117  0.6512  3.3219 -0.5051
  642SOL    HW2 1926   0.027   0.745   1.262 -0.5021 -1.3256 -1.3030
  643SOL     OW 1927   0.422   1.514   2.328  1.0648 -0.1353  0.4748
  643SOL    HW1 1928   0.511   1.469   2.313 -2.3163  0.8032 -1.3586
  643SOL    HW2 1929   0.427   1.601   2.374  0.1690  0.0125  0.6966
  644SOL     OW 1930   2.053   2.359   0.480  0.1063  0.3644  0.6768
  644SOL    HW1 1931   1.962   2.382   0.444 -0.2339 -0.6863 -1.4404
  644SOL    HW2 1932   2.050   2.346   0.579  1.0365  4.4229 -2.0266
  645SOL     OW 1933   2.093   2.155   1.079  0.3239  0.8032 -0.2599
  645SOL    HW1 1934   2.062   2.058   1.095  3.8435 -0.6004  0.1748
  645SOL    HW2 1935   2.032   2.213   1.026  0.2026 -2.3666 -0.8553
  646SOL     OW 1936   0.960   2.284   2.799  0.3554  0.1299 -0.2564
  646SOL    HW1 1937   0.948   2.224   2.884  1.3467 -1.8170  0.2453
  646SOL    HW2 1938   0.912   2.376   2.808  0.0226 -0.9226  1.1178
  647SOL     OW 1939   0.982   2.705   1.835 -0.2536  0.0228 -0.2961
  647SOL    HW1 1940   1.083   2.698   1.855 -1.4140  0.3646  2.6088
  647SOL    HW2 1941   0.946   2.790   1.870  2.1600 -0.6638 -0.4220
  648SOL     OW 1942   1.617   0.397   1.275 -0.0466  0.1673 -0.7808
  648SOL    HW1 1943   1.621   0.392   1.376 -0.1709  0.2435 -0.7310
  648SOL    HW2 1944   1.711   0.427   1.246 -2.9287  3.2256 -1.3459
  649SOL     OW 1945   1.664   2.067   0.157  0.6446  0.4783 -0.4593
  649SOL    HW1 1946   1.571   2.057   0.125  2.0257 -1.3812 -0.2917
  649SOL    HW2 1947   1.672   2.126   0.237 -1.7671 -0.8049  0.7268
  650SOL     OW 1948   2.162   1.674   1.587  0.0339  0.2079  0.4251
  650SOL    HW1 1949   2.129   1.633   1.496 -2.7690 -0.1352 -6.3155
  650SOL    HW2 1950   2.150   1.778   1.589 -0.3172 -2.3615 -1.8848
  651SOL     OW 1951   1.550   2.559   0.073 -0.5277  0.5885 -0.4004
  651SOL    HW1 1952   1.550   2.605   3.075  1.2051 -1.8709  2.1494
  651SOL    HW2 1953   1.564   2.461   0.057 -0.4972 -0.9936  0.7521
  652SOL     OW 1954   0.499   2.054   0.040 -0.3427 -0.2679 -0.6336
  652SOL    HW1 1955   0.488   1.967   3.079  2.0266  0.6843  0.8002
  652SOL    HW2 1956   0.524   2.135   3.075  0.0456  2.0583  0.8182
  653SOL     OW 1957   2.579   2.826   1.271  0.4142 -0.3292 -0.5312
  653SOL    HW1 1958   2.560   2.729   1.285  1.5341  1.1595  0.0929
  653SOL    HW2 1959   2.578   2.846   1.173  0.3597 -3.9187  2.8300
  654SOL     OW 1960   2.805   2.963   1.997  0.0610 -0.0072 -0.1329
  654SOL    HW1 1961   2.905   2.941   1.973 -0.4223 -1.8280  1.1868
  654SOL    HW2 1962   2.768   3.027   1.930  2.6083 -1.3216 -0.1808
  655SOL     OW 1963   2.865   1.737   0.941 -0.4138  0.1831  0.5215
  655SOL    HW1 1964   2.935   1.670   0.969  0.1466  0.0820 -1.8356
  655SOL    HW2 1965   2.841   1.796   1.022 -1.3582  0.1347 -1.8540
  656SOL     OW 1966   2.798   3.055   2.469 -0.0145  0.8289  0.1004
  656SOL    HW1 1967   2.748   3.001   2.400  1.5616 -0.7516  0.9771
  656SOL    HW2 1968   2.893   3.024   2.475  0.0029  1.1824 -0.2158
  657SOL     OW 1969   2.700   1.421   2.804  0.2923 -0.1567 -0.5374
  657SOL    HW1 1970   2.743   1.332   2.831  0.0811 -1.2791 -0.0087
  657SOL    HW2 1971   2.604   1.402   2.785  0.7700 -1.1716 -1.5063
  658SOL     OW 1972   2.292   1.767   0.867  0.0924  0.4007  0.0668
  658SOL    HW1 1973   2.194   1.771   0.831  0.4892  0.6175  1.8593
  658SOL    HW2 1974   2.364   1.794   0.796  2.7142  0.1251 -3.2772
  659SOL     OW 1975   1.643   0.250   0.894 -0.2095 -0.0644 -0.1150
  659SOL    HW1 1976   1.733   0.226   0.937 -0.6570 -0.9021 -1.6170
  659SOL    HW2 1977   1.562   0.217   0.950 -0.6198  2.1101  1.3848
  660SOL     OW 1978   1.548   1.461   2.970  0.4929 -0.3092  0.1978
  660SOL    HW1 1979   1.481   1.387   2.949 -1.7810  0.6387 -0.7332
  660SOL    HW2 1980   1.506   1.539   3.013 -1.8270 -1.7884 -1.1733
  661SOL     OW 1981   0.201   2.176   0.927  0.0344  0.7725  0.3715
  661SOL    HW1 1982   0.169   2.224   0.847  0.6204 -1.3874 -0.5323
  661SOL    HW2 1983   0.183   2.222   1.013  1.7928 -0.0416 -0.3595
  662SOL     OW 1984   2.974   0.639   2.621 -0.1304 -0.1383  0.0077
  662SOL    HW1 1985   2.970   0.735   2.662 -0.3214 -2.5159  0.6395
  662SOL    HW2 1986   2.923   0.635   2.535  0.4204  0.4954  4.8354
  663SOL     OW 1987   1.885   1.647   0.991  0.6141  0.5702 -0.2058
  663SOL    HW1 1988   1.795   1.608   1.000  0.7651  1.0544  0.5829
  663SOL    HW2 1989   1.960   1.580   1.022  0.0720 -0.7089  0.5904
  664SOL     OW 1990   0.856   1.062   1.350  0.5103 -0.3999 -0.1000
  664SOL    HW1 1991   0.841   0.960   1.355 -0.4270 -1.0991  0.4637
  664SOL    HW2 1992   0.956   1.086   1.346 -1.5479  0.0633  0.5985
  665SOL     OW 1993   1.571   2.820   2.489 -0.3616 -0.2526  0.3867
  665SOL    HW1 1994   1.483   2.827   2.539  1.0423  0.8270  0.5037
  665SOL    HW2 1995   1.554   2.791   2.395  2.6422 -3.3114  0.0388
  666SOL     OW 1996   2.890   2.927   2.771  0.1904  0.4241 -0.6799
  666SOL    HW1 1997   2.991   2.941   2.791  3.7381  0.9184  0.8679
  666SOL    HW2 1998   2.833   2.981   2.837 -1.1281  1.3804 -0.6260
  667SOL     OW 1999   2.315   1.432   1.952  0.0131 -0.1360  0.4832
  667SOL    HW1 2000   2.348   1.477   1.869 -1.9260 -2.1508  0.5504
  667SOL    HW2 2001   2.293   1.337   1.926  0.5897 -0.9764  2.5776
  668SOL     OW 2002   0.304   1.225   2.767  0.6140 -0.0459 -0.3241
  668SOL    HW1 2003   0.295   1.302   2.832 -0.1079 -2.0221  1.2056
  668SOL    HW2 2004   0.353   1.263   2.689 -2.3865  0.8716  2.0692
  669SOL     OW 2005   2.039   2.302   2.516  1.3222  0.0286  0.2311
  669SOL    HW1 2006   2.029   2.267   2.422  1.7397 -1.3810  1.1413
  669SOL    HW2 2007   2.128   2.268   2.556 -1.9117 -2.8871 -1.0920
  670SOL     OW 2008   2.333   1.158   1.871 -0.0229  0.2023  0.6529
  670SOL    HW1 2009   2.284   1.102   1.941  0.5524  2.3005  2.5068
  670SOL    HW2 2010   2.280   1.164   1.778 -3.6284  2.0334 -0.5449
  671SOL     OW 2011   2.403   1.385   0.153  0.1283 -0.1341 -0.5809
  671SOL    HW1 2012   2.430   1.296   0.111 -2.6572  0.6014  1.5579
  671SOL    HW2 2013   2.417   1.463   0.087 -0.4581  0.5316 -3.0044
  672SOL     OW 2014   2.508   0.984   2.115  0.1403 -0.1935  0.2749
  672SOL    HW1 2015   2.561   0.980   2.028 -0.1580 -1.4081  0.6419
  672SOL    HW2 2016   2.499   1.076   2.161 -0.3074  0.5221  0.5567
  673SOL     OW 2017   2.669   0.787   1.724  0.0611 -0.1655  0.0449
  673SOL    HW1 2018   2.635   0.884   1.736 -0.5931  2.6197 -0.5666
  673SOL    HW2 2019   2.686   0.756   1.628 -0.5702 -0.5975 -0.7524
  674SOL     OW 2020   2.103   1.948   1.579  0.1880  0.5511  0.1297
  674SOL    HW1 2021   2.004   1.959   1.600 -0.1326 -0.3616  0.2509
  674SOL    HW2 2022   2.121   1.966   1.476 -0.2518  1.7022 -1.2111
  675SOL     OW 2023   0.502   0.632   0.970  0.7206 -0.1327  0.0578
  675SOL    HW1 2024   0.435   0.667   1.037  0.0779  0.1811 -2.4747
  675SOL    HW2 2025   0.509   0.530   0.980 -1.8190 -3.9316  0.2108
  676SOL     OW 2026   1.643   1.254   1.134  0.4772 -0.3729 -0.5619
  676SOL    HW1 2027   1.571   1.326   1.106 -0.7234  0.9336 -0.7026
  676SOL    HW2 2028   1.622   1.210   1.225  3.1054 -3.3660 -0.2680
  677SOL     OW 2029   2.343   1.461   2.210  0.1471 -0.2660  0.0824
  677SOL    HW1 2030   2.320   1.443   2.113 -1.4598 -1.2588  0.1704
  677SOL    HW2 2031   2.372   1.559   2.224  0.9447 -0.7617 -0.8017
  678SOL     OW 2032   0.189   1.428   0.588  0.2917 -0.2139 -0.6993
  678SOL    HW1 2033   0.269   1.392   0.538 -2.3367  3.3600 -0.1014
  678SOL    HW2 2034   0.100   1.431   0.538 -1.5963  0.0654  0.3666
  679SOL     OW 2035   2.618   2.412   0.460 -0.0203  0.1905  0.1013
  679SOL    HW1 2036   2.596   2.430   0.557 -0.0605 -0.8774 -0.6641
  679SOL    HW2 2037   2.702   2.360   0.439  0.1459 -0.2244  0.5118
  680SOL     OW 2038   2.864   2.301   1.473  0.1562 -0.1597  0.2617
  680SOL    HW1 2039   2.779   2.250   1.466  0.3814 -0.0470  0.0878
  680SOL    HW2 2040   2.932   2.247   1.527  1.8921 -1.2312 -1.0112
  681SOL     OW 2041   0.511   1.401   1.235 -0.4933 -0.0384 -0.0930
  681SOL    HW1 2042   0.578   1.326   1.242 -0.5331 -0.1308  0.1963
  681SOL    HW2 2043   0.433   1.374   1.179  1.0513  2.4045  1.2982
  682SOL     OW 2044   1.653   2.436   0.856 -0.3330 -0.0834  0.4534
  682SOL    HW1 2045   1.602   2.480   0.938 -0.4073  0.2676  1.1238
  682SOL    HW2 2046   1.654   2.335   0.864 -0.4384  0.0738  0.3227
  683SOL     OW 2047   2.430   1.438   0.696  0.3622 -0.0398 -0.4447
  683SOL    HW1 2048   2.513   1.491   0.736 -0.0395  2.1525 -1.3313
  683SOL    HW2 2049   2.443   1.447   0.597  1.6146  1.5054  0.4219
  684SOL     OW 2050   0.870   2.159   2.041  0.4691 -0.0623  0.1781
  684SOL    HW1 2051   0.959   2.118   2.049 -1.3026 -1.0889  0.9954
  684SOL    HW2 2052   0.838   2.166   1.944 -0.7659 -0.1576 -0.0148
  685SOL     OW 2053   1.932   1.446   3.085 -0.3704 -0.3780  0.1092
  685SOL    HW1 2054   1.978   1.371   0.045  2.3989 -0.5711 -1.8371
  685SOL    HW2 2055   1.867   1.400   3.018 -1.7257 -1.4162  1.6334
  686SOL     OW 2056   0.151   0.339   0.795 -0.0082  0.8438  0.3321
  686SOL    HW1 2057   0.205   0.310   0.875 -2.5265  2.0185  0.3235
  686SOL    HW2 2058   0.093   0.261   0.770  2.0691  2.4944  0.6557
  687SOL     OW 2059   1.320   2.551   2.876  0.8448  0.0405 -0.1985
  687SOL    HW1 2060   1.221   2.557   2.908 -1.1500 -0.0278  1.6218
  687SOL    HW2 2061   1.370   2.483   2.931 -0.1549  0.1880  3.3361
  688SOL     OW 2062   2.000   1.950   1.857 -0.0215  0.4169 -0.2295
  688SOL    HW1 2063   1.969   1.871   1.800  3.3170 -2.8599 -3.7345
  688SOL    HW2 2064   2.073   2.001   1.812 -3.4462  0.0159 -1.2132
  689SOL     OW 2065   2.281   0.751   2.048 -0.2505 -0.1445 -0.3307
  689SOL    HW1 2066   2.371   0.721   2.004  2.0195  1.9229  0.9757
  689SOL    HW2 2067   2.298   0.812   2.129  0.6348  3.4383  3.0251
  690SOL     OW 2068   1.973   0.841   1.501 -0.2316  0.1649 -0.1454
  690SOL    HW1 2069   1.943   0.929   1.456  1.8542 -3.6014 -1.1456
  690SOL    HW2 2070   2.025   0.856   1.585 -0.5540 -0.1301  1.9586
  691SOL     OW 2071   1.129   1.925   1.476 -0.1403  0.3543 -0.1398
  691SOL    HW1 2072   1.075   1.842   1.441 -0.0194 -0.0163  0.5417
  691SOL    HW2 2073   1.121   2.003   1.413  0.8943 -0.4581  1.3624
  692SOL     OW 2074   1.772   0.183   1.657  0.0819  0.2096 -0.1875
  692SOL    HW1 2075   1.728   0.261   1.612  3.3736 -1.1704  0.2875
  692SOL    HW2 2076   1.841   0.129   1.608 -0.0381 -0.8464  0.2264
  693SOL     OW 2077   0.559   1.122   2.598 -0.1903 -0.2234 -1.1452
  693SOL    HW1 2078   0.540   1.027   2.631 -2.1518 -0.3324  1.0894
  693SOL    HW2 2079   0.479   1.169   2.562  0.7535  1.5127 -0.1465
  694SOL     OW 2080   2.202   2.832   1.120  0.1751  0.2865 -0.3426
  694SOL    HW1 2081   2.173   2.777   1.042 -1.0072 -0.9209  1.1351
  694SOL    HW2 2082   2.236   2.768   1.192  0.9301  1.8039 -1.3032
  695SOL     OW 2083   1.509   1.410   2.073 -0.4811 -0.3931 -0.0194
  695SOL    HW1 2084   1.477   1.436   1.980  0.4132 -2.2129  2.0823
  695SOL    HW2 2085   1.460   1.459   2.150  0.1234  0.4931 -0.3584
  696SOL     OW 2086   1.892   0.450   1.168  0.1151 -0.0529  0.7330
  696SOL    HW1 2087   1.873   0.355   1.130  0.0337 -1.6529 -2.6814
  696SOL    HW2 2088   1.980   0.492   1.134 -0.5482  1.6137 -0.3866
  697SOL     OW 2089   1.434   0.233   1.111  0.3960  0.0364  0.3734
  697SOL    HW1 2090   1.409   0.140   1.155  0.4193 -4.5571 -1.2429
  697SOL    HW2 2091   1.488   0.291   1.177  0.6168  0.2283  0.3503
  698SOL     OW 2092   1.703   1.208   1.987 -0.2608 -0.7097  0.0619
  698SOL    HW1 2093   1.799   1.221   2.012  0.3347  1.9118 -1.6900
  698SOL    HW2 2094   1.649   1.281   2.027 -1.9423  0.1308 -0.1703
  699SOL     OW 2095   1.466   1.191   1.350  0.1672  0.6809 -0.0496
  699SOL    HW1 2096   1.379   1.181   1.298  0.0242 -0.4768  1.7046
  699SOL    HW2 2097   1.452   1.262   1.420 -0.4272 -0.9408  0.7587
  700SOL     OW 2098   1.585   0.011   0.299  0.2506 -0.0414 -0.3577
  700SOL    HW1 2099   1.635   0.092   0.329  0.4181 -2.2376  0.7458
  700SOL    HW2 2100   1.491   0.039   0.265 -2.5009 -3.1544 -1.0905
  701SOL     OW 2101   0.354   3.019   1.689  0.9669 -0.1600  0.1057
  701SOL    HW1 2102   0.427   3.085   1.713 -0.3454 -2.2590  1.3355
  701SOL    HW2 2103   0.363   2.963   1.606 -3.0874 -1.3233 -1.7644
  702SOL     OW 2104   1.229   2.723   0.093  0.1474 -0.2518 -0.2449
  702SOL    HW1 2105   1.269   2.670   0.170  0.3326 -1.4353  0.6938
  702SOL    HW2 2106   1.295   2.792   0.058 -0.2078 -0.7844 -0.6724
  703SOL     OW 2107   2.372   0.236   2.271 -0.3778 -0.5136  0.9756
  703SOL    HW1 2108   2.391   0.332   2.290  2.6699 -2.6876  0.7928
  703SOL    HW2 2109   2.293   0.228   2.208  1.0327  2.6254 -0.4078
  704SOL     OW 2110   1.290   2.271   1.035  0.9299 -0.3510  0.5314
  704SOL    HW1 2111   1.359   2.210   1.081  0.7182 -3.5730  0.3756
  704SOL    HW2 2112   1.286   2.363   1.074 -0.8813 -5.0568 -1.5849
  705SOL     OW 2113   2.937   1.234   2.198  0.0654  0.5077  0.1729
  705SOL    HW1 2114   2.912   1.145   2.250 -1.1402 -2.3770  2.3261
  705SOL    HW2 2115   2.962   1.221   2.101 -0.8970  0.6595  1.4361
  706SOL     OW 2116   1.573   3.071   0.588 -0.5661  0.5389  0.5544
  706SOL    HW1 2117   1.473   3.091   0.619 -1.2674 -1.0651 -0.6814
  706SOL    HW2 2118   1.567   3.052   0.488 -1.8383 -0.5571 -3.4905
  707SOL     OW 2119   1.185   2.175   2.296 -0.4498 -0.0674  0.3963
  707SOL    HW1 2120   1.126   2.154   2.375  2.1454 -1.4386  1.2007
  707SOL    HW2 2121   1.278   2.133   2.317  0.5583  2.7384 -3.3925
  708SOL     OW 2122   3.009   2.103   1.267  0.0710  0.0106  0.1028
  708SOL    HW1 2123   3.062   2.023   1.297  0.6249  1.0147  2.3156
  708SOL    HW2 2124   2.939   2.123   1.341 -0.5122 -0.1714 -0.2697
  709SOL     OW 2125   1.749   0.484   1.950 -0.2438 -0.0479 -0.0831
  709SOL    HW1 2126   1.843   0.454   1.923  2.1335  0.4855 -1.7350
  709SOL    HW2 2127   1.749   0.530   2.043 -2.3316  0.9360  3.0553
  710SOL     OW 2128   2.945   0.274   1.380 -0.5294 -0.3742  0.3758
  710SOL    HW1 2129   2.888   0.203   1.346  3.8006  5.5994 -4.3994
  710SOL    HW2 2130   2.903   0.361   1.347  1.6479  1.1415 -0.1325
  711SOL     OW 2131   0.140   2.528   0.889  0.2939 -0.2990 -0.0713
  711SOL    HW1 2132   0.193   2.507   0.974  1.7018 -1.0784  0.7887
  711SOL    HW2 2133   0.050   2.479   0.893 -0.0339  0.7360  3.0062
  712SOL     OW 2134   3.081   2.231   2.370 -0.4424  0.4816  0.0927
  712SOL    HW1 2135   3.036   2.148   2.328 -0.3464 -3.0027 -1.2450
  712SOL    HW2 2136   0.077   2.250   2.327  2.3832 -3.0223  0.1661
  713SOL     OW 2137   1.556   0.650   0.396 -0.2228  0.0088  0.4207
  713SOL    HW1 2138   1.463   0.674   0.435 -1.8236 -0.9396  0.7263
  713SOL    HW2 2139   1.614   0.737   0.392 -0.3484 -1.9684  0.3028
  714SOL     OW 2140   1.478   1.860   0.338  0.0860  0.2612 -0.6595
  714SOL    HW1 2141   1.497   1.925   0.261  0.2013  1.3528  3.3516
  714SOL    HW2 2142   1.398   1.891   0.392 -0.9561  0.4589 -0.9227
  715SOL     OW 2143   2.682   0.084   0.462  0.0557  0.1650  0.1351
  715SOL    HW1 2144   2.711   0.165   0.520  2.2817  0.8176  1.1107
  715SOL    HW2 2145   2.735   0.000   0.504  0.6003 -1.7180 -1.4722
  716SOL     OW 2146   0.401   0.264   2.296 -0.2362  0.3073  0.1255
  716SOL    HW1 2147   0.446   0.286   2.382  0.8459 -2.0312  0.2735
  716SOL    HW2 2148   0.300   0.281   2.300  0.6884  2.5390 -1.5817
  717SOL     OW 2149   0.035   0.310   2.555  0.8919  0.1303  0.3012
  717SOL    HW1 2150   0.072   0.219   2.577  1.0355  1.3598  0.4914
  717SOL    HW2 2151   3.030   0.320   2.588  0.6054 -0.4506  0.2329
  718SOL     OW 2152   0.953   0.644   0.572 -0.1280  0.2930 -0.7595
  718SOL    HW1 2153   0.934   0.581   0.650 -1.1510  0.4078 -1.2770
  718SOL    HW2 2154   1.018   0.597   0.512 -0.7066  1.6235  2.5065
  719SOL     OW 2155   2.613   2.154   2.634  0.7509  0.0694 -0.5002
  719SOL    HW1 2156   2.605   2.061   2.589 -1.3367 -0.8714  0.3054
  719SOL    HW2 2157   2.708   2.191   2.630 -1.7812  0.6138 -1.2598
  720SOL     OW 2158   1.426   0.924   1.078 -0.1646  0.2603  0.1975
  720SOL    HW1 2159   1.510   0.919   1.137  0.1104  1.2882 -1.1168
  720SOL    HW2 2160   1.340   0.922   1.131  1.3543 -0.6987 -0.1808
  721SOL     OW 2161   2.831   0.765   0.718 -0.2190 -0.0881  0.0387
  721SOL    HW1 2162   2.735   0.782   0.693 -2.3178  0.2326  0.5742
  721SOL    HW2 2163   2.856   0.668   0.724  1.9074  0.7354  0.6298
  722SOL     OW 2164   1.381   1.868   2.532  0.3727 -0.2036  0.2143
  722SOL    HW1 2165   1.329   1.932   2.586  2.6534 -1.2964 -2.3070
  722SOL    HW2 2166   1.396   1.781   2.582 -0.0397 -0.0166 -1.1750
  723SOL     OW 2167   0.638   0.620   0.290 -0.1021  0.4023  0.2649
  723SOL    HW1 2168   0.639   0.580   0.383  2.8685 -0.0957 -2.2457
  723SOL    HW2 2169   0.641   0.721   0.286  0.1027  0.0227  0.4277
  724SOL     OW 2170   1.068   2.025   1.768  0.2105  0.0627  0.3844
  724SOL    HW1 2171   1.090   1.973   1.684 -0.9022 -3.0809  1.1629
  724SOL    HW2 2172   0.984   2.083   1.748 -1.2170  0.7212 -0.6793
  725SOL     OW 2173   0.024   0.872   1.346 -0.8576 -0.4898  0.6072
  725SOL    HW1 2174   3.085   0.966   1.324  1.4116 -1.4760  1.2456
  725SOL    HW2 2175   0.108   0.874   1.405  1.2368 -0.2484  0.5781
  726SOL     OW 2176   1.749   0.490   0.655 -0.0289 -0.4624  0.3717
  726SOL    HW1 2177   1.674   0.483   0.720 -0.8549  0.0608 -1.6935
  726SOL    HW2 2178   1.720   0.486   0.556  0.6164 -1.3903 -2.4273
  727SOL     OW 2179   1.606   0.921   2.341 -0.1926 -0.4598 -0.1431
  727SOL    HW1 2180   1.531   0.975   2.291 -1.1005  3.2559 -0.8429
  727SOL    HW2 2181   1.566   0.850   2.402  1.0652 -2.0451  3.0141
  728SOL     OW 2182   1.731   2.526   1.168  0.4856 -0.3438  0.2110
  728SOL    HW1 2183   1.648   2.570   1.128 -0.4625  2.3886 -1.9454
  728SOL    HW2 2184   1.796   2.585   1.218 -2.9634 -2.2723 -3.5354
  729SOL     OW 2185   1.309   0.567   1.384 -0.1120 -0.2375  0.1667
  729SOL    HW1 2186   1.324   0.518   1.292 -1.2103  1.3468 -2.3510
  729SOL    HW2 2187   1.309   0.497   1.462 -1.7731  1.5005  5.6698
  730SOL     OW 2188   0.833   2.174   1.746 -0.0110 -0.3098  0.6792
  730SOL    HW1 2189   0.748   2.205   1.797  0.7968  0.8569 -1.1017
  730SOL    HW2 2190   0.801   2.171   1.647 -3.2916 -2.0159 -0.2515
  731SOL     OW 2191   0.385   0.290   0.222 -0.5834  0.3904  0.1612
  731SOL    HW1 2192   0.344   0.281   0.314  3.2541 -0.7049 -2.6833
  731SOL    HW2 2193   0.399   0.201   0.173 -0.5911  1.8673 -0.6483
  732SOL     OW 2194   0.723   0.559   2.946 -0.1708  0.0237 -0.1794
  732SOL    HW1 2195   0.811   0.507   2.950  0.8319  0.8053 -1.9822
  732SOL    HW2 2196   0.645   0.497   2.933 -0.5916 -0.7783  4.1723
  733SOL     OW 2197   1.407   1.822   1.486 -0.3271  0.2576 -0.5737
  733SOL    HW1 2198   1.404   1.732   1.445 -3.5012  2.4769 -1.2057
  733SOL    HW2 2199   1.316   1.872   1.475  0.0893 -1.4200 -0.7493
  734SOL     OW 2200   2.996   2.695   2.648 -0.1096  0.2125  0.0842
  734SOL    HW1 2201   2.937   2.673   2.566 -3.3956  0.6293 -0.5239
  734SOL    HW2 2202   2.945   2.767   2.700 -1.0209 -2.3472  0.5936
  735SOL     OW 2203   0.927   2.672   0.987  0.4766  0.2110 -0.0085
  735SOL    HW1 2204   0.956   2.756   0.933 -0.0837  2.0969  2.3385
  735SOL    HW2 2205   0.951   2.585   0.936  2.0977 -0.5452 -0.8903
  736SOL     OW 2206   1.498   0.741   2.516  0.5075 -0.3414  0.0115
  736SOL    HW1 2207   1.422   0.707   2.460  0.1202  1.7861 -1.3740
  736SOL    HW2 2208   1.475   0.829   2.570 -2.6960  1.8656  2.2854
  737SOL     OW 2209   0.002   0.772   0.274 -0.2144 -0.5267 -0.2267
  737SOL    HW1 2210   0.043   0.678   0.261  2.6685 -0.1868  1.6168
  737SOL    HW2 2211   0.061   0.826   0.338 -1.4156  0.2840 -0.9272
  738SOL     OW 2212   0.137   2.688   1.518 -0.4546 -0.1146  0.0266
  738SOL    HW1 2213   0.072   2.617   1.553  0.2221 -0.6150 -0.2639
  738SOL    HW2 2214   0.173   2.666   1.425  1.4237 -0.5657 -0.8886
  739SOL     OW 2215   1.625   2.858   0.771  0.3451  0.3543 -0.0813
  739SOL    HW1 2216   1.550   2.877   0.836  1.3407  0.2327  0.7677
  739SOL    HW2 2217   1.638   2.930   0.702 -3.4034 -0.6918 -0.1623
  740SOL     OW 2218   1.470   2.908   1.324 -0.2510  0.8978  0.2340
  740SOL    HW1 2219   1.559   2.958   1.364  2.3884  2.7731  1.1049
  740SOL    HW2 2220   1.470   2.811   1.357 -0.9147  2.0137  1.5347
  741SOL     OW 2221   1.989   0.376   0.642 -0.5336  0.6105 -0.7161
  741SOL    HW1 2222   1.909   0.433   0.667  3.7813 -0.7584  2.7580
  741SOL    HW2 2223   1.968   0.278   0.641 -0.1872 -0.8145  1.3284
  742SOL     OW 2224   1.408   2.290   1.793 -0.1419 -0.5383 -0.0834
  742SOL    HW1 2225   1.332   2.326   1.735 -2.2965  2.4092 -0.3730
  742SOL    HW2 2226   1.470   2.235   1.727 -0.0089 -2.1037 -1.8623
  743SOL     OW 2227   2.086   0.375   2.160 -0.0482 -0.5400 -0.6928
  743SOL    HW1 2228   2.075   0.464   2.103  2.0352  1.0451 -1.8388
  743SOL    HW2 2229   2.001   0.320   2.155  2.4583 -0.5312  0.3741
  744SOL     OW 2230   2.256   0.580   0.825  0.5711  0.4269 -0.4565
  744SOL    HW1 2231   2.234   0.667   0.774 -2.9683 -0.8977  0.1618
  744SOL    HW2 2232   2.343   0.585   0.880 -1.8158  0.5553 -0.1673
  745SOL     OW 2233   2.006   1.677   1.789  0.0375 -0.0337  0.1038
  745SOL    HW1 2234   2.073   1.683   1.714  0.2297  0.5547  0.9890
  745SOL    HW2 2235   2.055   1.668   1.877 -2.1031 -2.1000 -2.8871
  746SOL     OW 2236   1.086   1.700   0.926  0.3238  0.3140  0.0140
  746SOL    HW1 2237   0.993   1.666   0.938  1.1102  2.4181 -0.7789
  746SOL    HW2 2238   1.124   1.748   1.008  4.5259  2.7483  3.8040
  747SOL     OW 2239   1.890   1.258   1.026  0.1657  0.4244 -0.0575
  747SOL    HW1 2240   1.793   1.254   1.061 -1.4382  0.1637  2.8272
  747SOL    HW2 2241   1.937   1.168   1.046  0.4424  0.9560 -0.1309
  748SOL     OW 2242   0.390   2.966   0.388 -0.0005  0.4073 -0.8664
  748SOL    HW1 2243   0.360   3.031   0.464  0.4640  4.7802  1.7462
  748SOL    HW2 2244   0.319   2.894   0.381  1.5859  0.5195  0.1890
  749SOL     OW 2245   0.130   0.333   2.310 -0.1760  0.1993  0.7118
  749SOL    HW1 2246   0.065   0.341   2.231 -0.1959  0.1954 -0.8525
  749SOL    HW2 2247   0.084   0.337   2.401  0.4654  2.1606 -0.2651
  750SOL     OW 2248   1.858   2.824   1.590  0.4818 -0.0378 -0.5266
  750SOL    HW1 2249   1.888   2.840   1.686  1.0539 -1.0666  0.1700
  750SOL    HW2 2250   1.782   2.756   1.594 -0.8027 -0.6537 -1.0220
  751SOL     OW 2251   2.872   0.488   0.575 -0.1767 -0.3921 -0.1063
  751SOL    HW1 2252   2.833   0.554   0.508 -0.2620 -1.8771  2.6101
  751SOL    HW2 2253   2.796   0.432   0.611  0.2930  0.8358  1.1096
  752SOL     OW 2254   0.202   2.928   1.108  0.1306  0.0256  0.1767
  752SOL    HW1 2255   0.219   2.959   1.017  0.0548 -0.9557  1.5177
  752SOL    HW2 2256   0.125   2.977   1.148  0.2410 -0.6104 -0.0145
  753SOL     OW 2257   0.935   0.354   1.425  0.0781 -0.1496 -0.0298
  753SOL    HW1 2258   0.911   0.305   1.340 -2.0435  2.6392  1.6728
  753SOL    HW2 2259   0.996   0.292   1.472  1.0606  0.5281 -1.6046
  754SOL     OW 2260   0.814   2.776   2.158  0.2068 -0.0767  0.2746
  754SOL    HW1 2261   0.753   2.852   2.129  3.7977  0.4413 -0.7524
  754SOL    HW2 2262   0.751   2.692   2.164  1.2340 -0.8296  0.6271
  755SOL     OW 2263   2.490   1.415   0.410 -0.0241  0.1100 -0.1328
  755SOL    HW1 2264   2.553   1.496   0.389  1.4561  2.3363 -0.5187
  755SOL    HW2 2265   2.446   1.388   0.325  1.5174 -0.0181  1.9095
  756SOL     OW 2266   2.077   2.032   2.763 -0.0098 -0.6766 -0.4577
  756SOL    HW1 2267   2.104   2.100   2.837 -0.9362  0.3784 -0.2337
  756SOL    HW2 2268   2.158   2.012   2.705  0.0169  1.2402 -0.4402
  757SOL     OW 2269   1.909   2.983   0.939  0.3446 -0.2498 -0.6597
  757SOL    HW1 2270   1.929   2.893   0.899  1.1890 -0.1880  3.0171
  757SOL    HW2 2271   1.899   3.051   0.860  0.3499  0.3922  0.2497
  758SOL     OW 2272   1.301   2.477   0.820  0.6119  0.4825 -0.2527
  758SOL    HW1 2273   1.361   2.416   0.882  2.8116 -2.7171  2.8692
  758SOL    HW2 2274   1.295   2.434   0.726  0.7290 -1.3745 -0.7310
  759SOL     OW 2275   2.431   0.358   1.064  0.3128  0.3920  0.1093
  759SOL    HW1 2276   2.434   0.454   1.038 -0.6867 -2.2478 -1.2638
  759SOL    HW2 2277   2.341   0.318   1.046 -0.0283 -0.5648 -0.4702
  760SOL     OW 2278   2.197   1.138   1.402  0.1262 -0.3988  0.0264
  760SOL    HW1 2279   2.163   1.060   1.347  1.8308 -0.3634  0.2079
  760SOL    HW2 2280   2.260   1.193   1.343  0.1067  0.7763  2.2222
  761SOL     OW 2281   0.519   0.735   0.728  0.7377 -0.1459 -0.6803
  761SOL    HW1 2282   0.553   0.832   0.726 -1.5986  1.3319  3.3696
  761SOL    HW2 2283   0.517   0.708   0.831 -0.8736 -1.8379  2.6958
  762SOL     OW 2284   2.004   1.866   1.119  0.2489  0.1054  0.2907
  762SOL    HW1 2285   1.964   1.782   1.074 -1.2528 -2.3678  1.0025
  762SOL    HW2 2286   1.928   1.919   1.161 -0.2222 -0.1856  0.7838
  763SOL     OW 2287   1.085   1.451   1.635 -0.2004  0.0063  0.0024
  763SOL    HW1 2288   1.015   1.517   1.607 -0.3327  0.0529 -1.8809
  763SOL    HW2 2289   1.115   1.467   1.735  0.1902  3.4280  1.9457
  764SOL     OW 2290   0.180   1.828   2.087  0.0989 -0.3456  0.2981
  764SOL    HW1 2291   0.096   1.789   2.040 -0.5850  0.2444 -0.0953
  764SOL    HW2 2292   0.184   1.798   2.185  0.8096 -1.3032  1.0005
  765SOL     OW 2293   1.655   2.257   1.230  0.2735  0.0955  0.2779
  765SOL    HW1 2294   1.575   2.247   1.297  1.7295 -0.9169  1.1588
  765SOL    HW2 2295   1.668   2.355   1.204 -3.4322 -1.8364  1.0347
  766SOL     OW 2296   0.210   2.483   2.404  0.1165  0.5671  0.2529
  766SOL    HW1 2297   0.235   2.535   2.488 -1.0218  1.5138  3.0264
  766SOL    HW2 2298   0.164   2.537   2.334 -0.8552  0.2440 -1.3215
  767SOL     OW 2299   1.315   0.622   2.332 -0.2336 -0.0715  0.0269
  767SOL    HW1 2300   1.294   0.528   2.369 -1.0733 -1.4783  1.4849
  767SOL    HW2 2301   1.315   0.618   2.231 -1.3379  2.3127  1.1603
  768SOL     OW 2302   1.353   2.283   2.956 -0.0190 -0.0089  0.2591
  768SOL    HW1 2303   1.398   2.209   2.908 -0.2299  0.1634 -1.1130
  768SOL    HW2 2304   1.356   2.269   3.058  0.7608  0.5698  1.8765
  769SOL     OW 2305   0.175   2.679   1.233 -0.0473 -0.1341 -0.0535
  769SOL    HW1 2306   0.200   2.761   1.175  1.7514 -1.5382 -1.6573
  769SOL    HW2 2307   0.216   2.596   1.188 -3.6058  1.3129  0.3676
  770SOL     OW 2308   1.582   0.559   2.847 -0.8122 -0.0833 -0.4322
  770SOL    HW1 2309   1.668   0.590   2.796  2.7961  2.0933  0.9968
  770SOL    HW2 2310   1.605   0.557   2.947 -2.3402 -0.7072 -1.3259
  771SOL     OW 2311   0.356   0.027   2.676 -0.0006 -0.0252  0.0272
  771SOL    HW1 2312   0.400   0.112   2.708  0.3367 -1.4998  0.6893
  771SOL    HW2 2313   0.268   0.048   2.631 -0.1006 -2.8502 -0.3630
  772SOL     OW 2314   2.226   3.037   1.935 -0.0229 -0.4386  0.3932
  772SOL    HW1 2315   2.172   3.007   1.855  2.5681 -0.0339  1.2499
  772SOL    HW2 2316   2.319   3.006   1.909 -0.8753 -1.1888 -3.2612
  773SOL     OW 2317   1.053   2.398   1.945 -0.1213  0.3144 -0.2930
  773SOL    HW1 2318   1.110   2.389   2.028  1.5813  2.0851  0.9314
  773SOL    HW2 2319   0.963   2.429   1.968  0.9491 -0.1420  2.4456
  774SOL     OW 2320   1.081   0.267   1.913  0.1958  0.2080 -0.0065
  774SOL    HW1 2321   1.174   0.303   1.888  0.3095  1.7983  1.2879
  774SOL    HW2 2322   1.014   0.342   1.925  0.2690 -1.0728  0.6466
  775SOL     OW 2323   2.007   2.564   0.095 -0.3746 -0.3125  0.0048
  775SOL    HW1 2324   1.936   2.568   0.168  2.5373 -0.1599  1.3234
  775SOL    HW2 2325   1.978   2.618   0.012 -1.1100  0.4296 -2.2421
  776SOL     OW 2326   2.111   0.480   2.411  0.4594  0.2755  0.6506
  776SOL    HW1 2327   2.058   0.554   2.451  2.4925 -2.3431  0.8564
  776SOL    HW2 2328   2.076   0.452   2.317 -1.1312  0.6801 -1.1881
  777SOL     OW 2329   2.284   1.278   2.609  0.2366 -0.0391  0.5396
  777SOL    HW1 2330   2.266   1.212   2.680  0.6648  2.1476 -3.4651
  777SOL    HW2 2331   2.376   1.256   2.571  1.0565 -0.4661 -0.5036
  778SOL     OW 2332   2.039   0.890   2.315  0.3246  0.1486  0.2702
  778SOL    HW1 2333   1.949   0.867   2.273  0.7666  0.3194 -0.1274
  778SOL    HW2 2334   2.069   0.814   2.376  0.6400  0.7126 -0.6655
  779SOL     OW 2335   0.064   0.050   3.039  0.5096  0.6148 -0.5506
  779SOL    HW1 2336   0.157   0.081   3.012 -0.5849  0.0156  2.8883
  779SOL    HW2 2337   0.005   0.122   3.081  0.5890  1.4506  0.1074
  780SOL     OW 2338   2.364   0.567   2.935  0.3794 -0.6572  0.6587
  780SOL    HW1 2339   2.452   0.550   2.887 -0.3391  0.0855  1.9425
  780SOL    HW2 2340   2.390   0.636   3.006 -1.7260  3.3856  1.3630
  781SOL     OW 2341   0.392   2.858   1.468 -0.4039 -0.1332 -0.2519
  781SOL    HW1 2342   0.390   2.927   1.395 -1.4246 -4.2558  6.6423
  781SOL    HW2 2343   0.299   2.808   1.480  0.3512 -0.5705  0.5930
  782SOL     OW 2344   1.772   2.478   0.433  0.1254  0.1014 -0.1771
  782SOL    HW1 2345   1.738   2.530   0.517 -1.0932  0.2041  1.3480
  782SOL    HW2 2346   1.772   2.533   0.350 -1.5933 -3.5514  1.7597
  783SOL     OW 2347   0.638   1.491   1.703  0.2294  0.4509 -0.5968
  783SOL    HW1 2348   0.664   1.418   1.631 -1.1361 -0.7526  0.4137
  783SOL    HW2 2349   0.608   1.443   1.788 -1.0424 -0.9313 -1.4385
  784SOL     OW 2350   1.201   0.355   2.431 -0.6365 -0.4111  0.2159
  784SOL    HW1 2351   1.290   0.306   2.455 -0.6139 -0.1525  1.8601
  784SOL    HW2 2352   1.188   0.333   2.331  3.7514 -0.5630 -1.7226
  785SOL     OW 2353   2.696   0.244   1.068 -0.4062  0.0017 -0.2253
  785SOL    HW1 2354   2.623   0.312   1.093 -0.9976 -1.9389  1.3553
  785SOL    HW2 2355   2.647   0.158   1.063  2.0560  1.0475  1.3104
  786SOL     OW 2356   1.472   2.663   1.441  0.2178  0.4053 -0.4801
  786SOL    HW1 2357   1.563   2.652   1.488  1.3751 -0.5603 -1.2239
  786SOL    HW2 2358   1.410   2.588   1.462 -2.3937  0.7928 -0.0937
  787SOL     OW 2359   1.565   0.029   1.525  0.1726  0.5259 -0.0853
  787SOL    HW1 2360   1.636   3.091   1.452  0.1194 -3.1374 -1.9076
  787SOL    HW2 2361   1.607   0.105   1.584  0.8754  1.6102  0.6785
  788SOL     OW 2362   2.994   1.182   0.193 -0.6016  0.3775 -0.4072
  788SOL    HW1 2363   3.035   1.097   0.147  0.7893 -1.0684  1.7451
  788SOL    HW2 2364   2.984   1.167   0.291  0.2763 -1.3351  1.3979
  789SOL     OW 2365   0.555   1.939   1.641  0.0975 -0.2375  0.9115
  789SOL    HW1 2366   0.553   2.041   1.633 -0.9827  0.1988  1.2988
  789SOL    HW2 2367   0.517   1.907   1.730  0.5687 -2.1344  0.3916
  790SOL     OW 2368   0.381   0.530   2.473 -0.7587 -0.6054  0.1728
  790SOL    HW1 2369   0.469   0.474   2.470  2.5434 -0.3865 -0.1501
  790SOL    HW2 2370   0.324   0.504   2.547  3.0537  2.7384 -2.7749
  791SOL     OW 2371   2.196   0.803   0.696  0.4513  0.0160  0.0369
  791SOL    HW1 2372   2.111   0.782   0.640  4.6537  2.0756 -1.0292
  791SOL    HW2 2373   2.191   0.890   0.747  1.0321  1.2668  0.4902
  792SOL     OW 2374   1.258   2.832   1.611 -0.4486 -0.2476 -0.3694
  792SOL    HW1 2375   1.243   2.768   1.682  1.5938  1.2883 -2.0917
  792SOL    HW2 2376   1.338   2.803   1.554 -0.2900 -1.2280 -2.0697
  793SOL     OW 2377   0.269   0.013   0.856  0.4284 -0.3021 -0.4143
  793SOL    HW1 2378   0.281   0.108   0.895 -1.0269 -1.9350  2.8645
  793SOL    HW2 2379   0.365   3.066   0.844  2.5919 -0.8615 -0.0554
  794SOL     OW 2380   0.214   1.001   2.097  0.3435 -0.5629  0.0522
  794SOL    HW1 2381   0.190   1.095   2.133 -0.3315  1.4960  0.9557
  794SOL    HW2 2382   0.167   0.926   2.140  2.0720  1.2783 -0.6387
  795SOL     OW 2383   0.607   2.394   2.508 -0.2849 -0.8980  0.1038
  795SOL    HW1 2384   0.580   2.300   2.480 -0.3824  2.5120 -0.4143
  795SOL    HW2 2385   0.706   2.413   2.480  2.1860 -0.3084 -0.0021
  796SOL     OW 2386   2.180   0.286   2.641  0.1862 -0.1599 -0.1700
  796SOL    HW1 2387   2.188   0.372   2.588  2.6975  1.6522 -1.5329
  796SOL    HW2 2388   2.249   0.214   2.613  0.2067 -0.5324  0.1248
  797SOL     OW 2389   2.336   2.482   2.530  0.2471  0.2236 -0.0801
  797SOL    HW1 2390   2.351   2.385   2.540 -1.5066  2.0004 -0.0282
  797SOL    HW2 2391   2.304   2.531   2.614  0.8451 -3.4370  2.3168
  798SOL     OW 2392   3.063   0.416   2.102 -0.1352  0.3954 -0.0554
  798SOL    HW1 2393   3.058   0.508   2.060 -0.3858 -1.5436 -2.2712
  798SOL    HW2 2394   3.066   0.345   2.028  0.9323 -0.1112  2.0384
  799SOL     OW 2395   0.785   2.382   2.182 -0.5945  0.0139 -0.0577
  799SOL    HW1 2396   0.815   2.290   2.143 -0.9687 -3.3148 -1.7370
  799SOL    HW2 2397   0.780   2.452   2.108 -0.0491  1.0895 -0.2510
  800SOL     OW 2398   0.089   2.177   0.215  0.2816  0.4201 -0.6571
  800SOL    HW1 2399   0.070   2.088   0.262  3.7517 -1.3393  0.6063
  800SOL    HW2 2400   0.187   2.194   0.207 -0.7330 -0.6201 -0.2379
  801SOL     OW 2401   1.616   1.527   0.911  0.7633  0.6018  0.0691
  801SOL    HW1 2402   1.614   1.455   0.833  0.0212 -1.7012  0.3582
  801SOL    HW2 2403   1.596   1.622   0.879 -1.8940 -0.4344 -1.2264
  802SOL     OW 2404   0.080   0.468   0.566  0.5949  0.6898  0.3745
  802SOL    HW1 2405   0.122   0.425   0.648 -1.8830 -0.5283 -1.4753
  802SOL    HW2 2406   3.074   0.494   0.589 -4.0212  2.2230  2.6271
  803SOL     OW 2407   1.327   1.314   1.581  0.3752  0.5389 -0.8695
  803SOL    HW1 2408   1.404   1.372   1.617 -0.3062  0.0121 -2.2815
  803SOL    HW2 2409   1.238   1.364   1.567 -1.2716 -0.9806 -0.1539
  804SOL     OW 2410   1.823   1.982   0.818 -0.0172 -0.0152  0.0723
  804SOL    HW1 2411   1.885   1.980   0.900  1.8326 -0.1474 -2.0818
  804SOL    HW2 2412   1.745   1.913   0.823  2.1307  0.6888 -0.6732
  805SOL     OW 2413   2.901   1.836   2.527  0.2676  0.4715 -0.2163
  805SOL    HW1 2414   2.935   1.908   2.465 -0.8013 -1.0287  2.4273
  805SOL    HW2 2415   2.809   1.852   2.561 -0.0680 -0.7363 -3.0204
  806SOL     OW 2416   0.655   2.580   0.275 -0.1789 -0.2112 -0.6105
  806SOL    HW1 2417   0.676   2.510   0.351 -0.1373 -0.9853  0.8889
  806SOL    HW2 2418   0.633   2.668   0.319 -0.3144 -0.1029 -0.9978
  807SOL     OW 2419   2.237   1.636   2.723  0.7207 -0.1792 -0.1252
  807SOL    HW1 2420   2.316   1.695   2.740  0.9236  1.8406 -0.0871
  807SOL    HW2 2421   2.148   1.676   2.761 -0.4234  0.2160  0.6024
  808SOL     OW 2422   1.466   2.078   1.117  0.5337 -0.0966  0.2984
  808SOL    HW1 2423   1.444   1.979   1.117 -1.7216 -0.1303 -0.9482
  808SOL    HW2 2424   1.487   2.116   1.211 -1.8084  1.1402  0.1997
  809SOL     OW 2425   0.142   0.548   0.314  0.5068 -0.4048  0.0373
  809SOL    HW1 2426   0.114   0.504   0.402  1.2186 -0.9290 -0.3629
  809SOL    HW2 2427   0.242   0.540   0.292  2.1670  0.7268 -1.0952
  810SOL     OW 2428   1.315   1.574   3.086  0.1105  0.0498 -0.3084
  810SOL    HW1 2429   1.305   1.475   3.060 -2.8036  0.3048 -0.8182
  810SOL    HW2 2430   1.384   1.589   0.072  1.7555  0.9581 -1.6197
  811SOL     OW 2431   2.073   2.317   0.744  0.3484  0.1944  0.0609
  811SOL    HW1 2432   2.091   2.218   0.751  0.8619  1.4070  1.0183
  811SOL    HW2 2433   2.006   2.347   0.815 -0.6897 -1.0628  1.8665
  812SOL     OW 2434   1.302   0.003   1.210  0.3978  0.1520  0.5097
  812SOL    HW1 2435   1.349   3.021   1.255  0.8881 -0.5584 -1.0619
  812SOL    HW2 2436   1.203   3.070   1.221 -0.3485 -2.0192 -2.1296
  813SOL     OW 2437   0.827   2.939   1.862  0.5463  0.3993 -0.3174
  813SOL    HW1 2438   0.818   2.977   1.765 -0.0803 -0.9433 -3.6317
  813SOL    HW2 2439   0.746   2.957   1.919  1.4276  0.7173  1.6285
  814SOL     OW 2440   1.212   2.423   2.163  0.1713 -0.3339  0.1045
  814SOL    HW1 2441   1.189   2.329   2.202 -0.8823 -3.9326 -1.6112
  814SOL    HW2 2442   1.159   2.504   2.203  0.5742  1.1168  0.4008
  815SOL     OW 2443   0.586   2.953   2.895 -0.2698  0.7371 -0.3898
  815SOL    HW1 2444   0.617   2.889   2.966  0.1596 -0.0911  1.0601
  815SOL    HW2 2445   0.505   3.009   2.928  0.8876  0.3515 -1.2393
  816SOL     OW 2446   2.207   0.716   0.173  0.4964  0.3356 -0.0673
  816SOL    HW1 2447   2.167   0.621   0.184  2.3555 -3.1767 -2.1053
  816SOL    HW2 2448   2.224   0.758   0.263  2.3796  3.0780  0.5319
  817SOL     OW 2449   2.892   2.619   2.215 -0.1555 -0.7356  0.0958
  817SOL    HW1 2450   2.814   2.662   2.162 -2.4955  2.6192  0.2774
  817SOL    HW2 2451   2.869   2.594   2.310  0.4589  2.1879  0.7519
  818SOL     OW 2452   0.921   1.124   0.449 -0.0958  0.3512  0.5442
  818SOL    HW1 2453   0.914   1.026   0.433 -1.8065  1.8121 -1.1737
  818SOL    HW2 2454   0.830   1.173   0.440 -2.1984  1.4903 -0.7285
  819SOL     OW 2455   1.624   1.163   2.719 -0.4851  0.4894 -0.3590
  819SOL    HW1 2456   1.699   1.143   2.655 -0.8504  0.9877  1.1729
  819SOL    HW2 2457   1.658   1.190   2.812 -0.1770  0.2163  1.8503
  820SOL     OW 2458   0.488   1.325   3.034  0.4179  0.0648  0.4273
  820SOL    HW1 2459   0.435   1.392   3.090 -0.0856 -1.3032  0.5966
  820SOL    HW2 2460   0.512   1.249   0.006 -1.7612  2.5212 -1.8337
  821SOL     OW 2461   0.517   2.990   0.813 -0.6210 -0.4126 -0.0075
  821SOL    HW1 2462   0.597   3.039   0.775  0.1358  2.4334 -1.6880
  821SOL    HW2 2463   0.516   2.891   0.784 -0.9098  1.2818 -0.1909
  822SOL     OW 2464   2.520   2.763   3.010 -0.3361  0.4411 -0.5053
  822SOL    HW1 2465   2.546   2.711   2.929  0.4540  1.0846 -1.3942
  822SOL    HW2 2466   2.596   2.737   3.073  1.2955 -0.1890  0.6533
  823SOL     OW 2467   1.369   0.060   2.770 -0.6846 -0.2477  0.6739
  823SOL    HW1 2468   1.414   0.149   2.779 -0.1374  0.4899 -2.4163
  823SOL    HW2 2469   1.271   0.069   2.732 -2.6952 -0.4833  1.0487
  824SOL     OW 2470   2.951   2.639   1.832  0.0416  0.3106 -0.1746
  824SOL    HW1 2471   2.983   2.736   1.853  0.7716  0.6505 -0.3769
  824SOL    HW2 2472   2.900   2.605   1.912 -0.5917  2.4424 -1.9840
  825SOL     OW 2473   3.008   2.416   2.570 -0.2593  0.5388 -0.1091
  825SOL    HW1 2474   3.043   2.493   2.623 -1.2267 -3.1096  1.4704
  825SOL    HW2 2475   3.071   2.376   2.498  0.6191 -0.7067 -2.2928
  826SOL     OW 2476   1.948   0.543   3.082  0.1392  0.2414  0.5470
  826SOL    HW1 2477   1.964   0.475   0.064 -1.3976 -0.5719  0.8407
  826SOL    HW2 2478   1.934   0.498   2.993  0.9445 -2.0755  3.0848
  827SOL     OW 2479   2.813   1.712   1.808  0.4483  0.6663  0.4869
  827SOL    HW1 2480   2.836   1.688   1.709 -2.5090  0.4257 -1.4960
  827SOL    HW2 2481   2.729   1.671   1.839  0.8038  1.0844  1.6298
  828SOL     OW 2482   0.079   0.089   1.334  0.0111 -0.1609 -0.4501
  828SOL    HW1 2483   0.081   0.014   1.404 -2.0202  1.1547 -0.6528
  828SOL    HW2 2484   3.091   0.147   1.354  2.5287 -4.4879 -0.5378
  829SOL     OW 2485   0.797   2.011   2.462 -0.5235  0.0661  0.2724
  829SOL    HW1 2486   0.880   2.070   2.477 -1.0440 -0.9055  2.2864
  829SOL    HW2 2487   0.711   2.053   2.489  0.8381 -0.9091 -1.5577
  830SOL     OW 2488   0.503   0.824   1.448 -0.0501  0.7492  0.1716
  830SOL    HW1 2489   0.571   0.889   1.488 -0.5523  0.6611  0.4616
  830SOL    HW2 2490   0.544   0.740   1.407 -0.9450 -0.4759  1.7182
  831SOL     OW 2491   2.542   1.691   2.690  0.5097 -0.0338 -0.4803
  831SOL    HW1 2492   2.591   1.618   2.640  1.6401 -1.4931 -2.3290
  831SOL    HW2 2493   2.594   1.723   2.772 -0.0512  0.3416 -1.1448
  832SOL     OW 2494   2.008   2.501   2.887  0.0390 -0.3979 -0.1468
  832SOL    HW1 2495   1.992   2.431   2.818 -0.2666  0.6660  0.0750
  832SOL    HW2 2496   2.102   2.492   2.929 -0.1444 -1.4848  2.1993
  833SOL     OW 2497   0.699   0.241   2.026 -0.4663  0.5622 -0.6216
  833SOL    HW1 2498   0.652   0.166   2.077 -1.6665  1.2069  0.7426
  833SOL    HW2 2499   0.696   0.327   2.081 -0.2450 -1.2054 -0.7428
  834SOL     OW 2500   3.075   0.313   1.608 -0.3470 -0.3826  0.0471
  834SOL    HW1 2501   0.082   0.277   1.591  3.6202 -2.4852  2.4395
  834SOL    HW2 2502   3.018   0.295   1.527  0.3317  0.7324 -2.1944
  835SOL     OW 2503   2.529   0.512   0.699 -0.4984  0.2755  0.5743
  835SOL    HW1 2504   2.432   0.498   0.668  0.3603 -1.1999  3.8001
  835SOL    HW2 2505   2.557   0.610   0.695 -1.4450  3.7604  1.0119
  836SOL     OW 2506   1.123   2.081   0.344 -0.6388  0.6390  0.0479
  836SOL    HW1 2507   1.182   2.045   0.424  1.6046 -2.2498 -1.4646
  836SOL    HW2 2508   1.138   2.180   0.321 -0.3874  1.3406  1.3173
  837SOL     OW 2509   1.914   1.737   0.373  0.5951 -0.3168  0.1193
  837SOL    HW1 2510   2.010   1.712   0.395  0.8449  0.3455 -1.0355
  837SOL    HW2 2511   1.905   1.791   0.289 -0.2176 -0.9087 -1.0517
  838SOL     OW 2512   1.809   0.871   2.147 -0.3082  0.1905  0.2057
  838SOL    HW1 2513   1.776   0.873   2.050 -1.1042 -3.4357  1.0828
  838SOL    HW2 2514   1.734   0.897   2.211  0.1700 -2.2158  2.3225
  839SOL     OW 2515   0.677   1.435   2.416  0.2957  0.2058  0.1656
  839SOL    HW1 2516   0.686   1.425   2.517 -0.7300  0.0773 -0.3006
  839SOL    HW2 2517   0.749   1.488   2.376  0.7281 -0.6087 -1.7562
  840SOL     OW 2518   1.039   1.193   0.198 -0.8757 -0.0428 -0.2996
  840SOL    HW1 2519   1.018   1.170   0.297  1.1377  0.8510  3.4744
  840SOL    HW2 2520   0.962   1.177   0.135  1.6170 -0.5514 -0.0323
  841SOL     OW 2521   1.666   2.218   0.380  0.5112  0.4364  0.0404
  841SOL    HW1 2522   1.724   2.152   0.430 -0.3475  0.8060 -0.7815
  841SOL    HW2 2523   1.680   2.313   0.414  1.0806  0.0340  0.2094
  842SOL     OW 2524   0.460   0.469   2.946  0.3659 -0.2729  0.5545
  842SOL    HW1 2525   0.362   0.445   2.922 -2.6269 -1.2896 -0.5948
  842SOL    HW2 2526   0.459   0.502   3.042 -0.4540 -1.2374  1.9399
  843SOL     OW 2527   0.568   0.368   0.909  0.4542  0.0794 -0.0301
  843SOL    HW1 2528   0.667   0.386   0.940  2.9880 -0.5600 -1.6080
  843SOL    HW2 2529   0.565   0.343   0.809  1.8035  1.7057 -3.9693
  844SOL     OW 2530   2.034   2.894   2.202  0.3077  0.3363 -0.2847
  844SOL    HW1 2531   2.114   2.830   2.196  0.1062 -1.3337  0.9678
  844SOL    HW2 2532   2.047   2.966   2.130  0.5707 -0.3489 -0.4110
  845SOL     OW 2533   0.235   2.681   1.788 -0.0430  0.2736 -0.0805
  845SOL    HW1 2534   0.191   2.597   1.820  0.1927  2.5637  1.1781
  845SOL    HW2 2535   0.221   2.695   1.686  1.9616 -0.9016  0.3826
  846SOL     OW 2536   1.769   1.351   2.419 -0.1355 -0.9405  0.0763
  846SOL    HW1 2537   1.715   1.425   2.376 -0.4207  0.5673  0.8092
  846SOL    HW2 2538   1.836   1.314   2.350  2.1969  0.7413  1.6866
  847SOL     OW 2539   0.218   0.616   2.266  0.1643 -0.1347  0.1347
  847SOL    HW1 2540   0.269   0.584   2.349 -0.0833 -0.4706 -1.7429
  847SOL    HW2 2541   0.167   0.538   2.222 -0.5862 -0.9777 -2.0600
  848SOL     OW 2542   2.487   3.030   2.924  0.4588 -0.1319  0.0899
  848SOL    HW1 2543   2.509   2.940   2.967  0.6967 -0.3624  1.0193
  848SOL    HW2 2544   2.407   3.016   2.865 -0.6479  0.8194  0.4237
  849SOL     OW 2545   0.380   2.606   0.509 -0.2579 -0.7555 -0.3993
  849SOL    HW1 2546   0.343   2.693   0.463  1.8938  0.4649 -1.4366
  849SOL    HW2 2547   0.476   2.619   0.533 -0.7646  1.2677  1.2042
  850SOL     OW 2548   0.936   2.355   0.670 -0.0695 -0.6047 -0.4718
  850SOL    HW1 2549   0.964   2.406   0.757  0.0542 -1.1007 -0.9090
  850SOL    HW2 2550   1.004   2.385   0.599  2.1444 -0.6651 -0.1131
  851SOL     OW 2551   1.937   0.448   2.812 -0.6346  0.0355 -0.1141
  851SOL    HW1 2552   1.890   0.446   2.722  0.1789 -0.2166  1.5270
  851SOL    HW2 2553   2.009   0.519   2.807 -1.1630 -1.1714  0.5048
  852SOL     OW 2554   1.563   3.078   2.543 -0.3009 -0.0728  0.3028
  852SOL    HW1 2555   1.571   2.986   2.498  2.0390 -1.5212 -0.2189
  852SOL    HW2 2556   1.518   3.071   2.636  0.8020  2.0228  1.8219
  853SOL     OW 2557   3.007   2.533   0.518 -0.0157  0.1054  0.0110
  853SOL    HW1 2558   3.085   2.490   0.471  1.7657  1.7698 -3.8570
  853SOL    HW2 2559   3.003   2.630   0.484 -0.2659 -1.5575  1.3843
  854SOL     OW 2560   1.802   0.538   2.458 -0.2179 -0.1663  0.2353
  854SOL    HW1 2561   1.852   0.453   2.485  1.4191  0.4654  1.6480
  854SOL    HW2 2562   1.783   0.593   2.541 -1.0722 -1.3471  0.6414
  855SOL     OW 2563   0.200   2.435   0.638  0.2190  0.2415  0.0396
  855SOL    HW1 2564   0.157   2.467   0.728  1.9564  0.8953 -1.8024
  855SOL    HW2 2565   0.265   2.509   0.611 -1.4082 -0.2172  1.0146
  856SOL     OW 2566   0.332   2.849   2.601 -0.1454 -0.2694 -0.1241
  856SOL    HW1 2567   0.425   2.808   2.607  2.2108 -0.4067  1.1365
  856SOL    HW2 2568   0.336   2.948   2.620  0.8888  0.8391 -0.8199
  857SOL     OW 2569   1.026   2.914   1.514  0.5306 -0.1398  0.0042
  857SOL    HW1 2570   1.114   2.901   1.562  0.5776 -0.8582  0.9656
  857SOL    HW2 2571   0.972   2.984   1.564  0.0187 -0.2350  0.4712
  858SOL     OW 2572   2.676   2.138   1.662  0.4755  0.2438 -0.0622
  858SOL    HW1 2573   2.623   2.185   1.590  1.8536 -0.0771  1.8422
  858SOL    HW2 2574   2.613   2.077   1.718  0.0625  0.1647  2.3869
  859SOL     OW 2575   1.966   2.203   1.991  0.2015 -0.0710 -0.6765
  859SOL    HW1 2576   1.894   2.132   2.009  3.1061 -0.9671  1.0799
  859SOL    HW2 2577   2.042   2.162   1.930  3.0750 -4.2424 -2.1684
  860SOL     OW 2578   1.445   0.400   0.388  0.3250  0.2162 -0.3697
  860SOL    HW1 2579   1.494   0.485   0.360  2.3926  0.6938  0.6988
  860SOL    HW2 2580   1.518   0.331   0.403  0.2959 -0.9644  1.7348
  861SOL     OW 2581   2.745   0.505   1.004 -0.3905  0.0648 -0.0566
  861SOL    HW1 2582   2.822   0.530   0.941  0.6467 -0.9546  1.8263
  861SOL    HW2 2583   2.736   0.405   1.015 -2.8307  2.0261  1.1107
  862SOL     OW 2584   1.258   0.295   2.139 -0.3500 -0.1748  0.4184
  862SOL    HW1 2585   1.298   0.199   2.136  1.0050 -1.0878  1.6488
  862SOL    HW2 2586   1.180   0.288   2.081  0.8547 -0.5451  0.6422
  863SOL     OW 2587   0.359   0.650   1.208 -0.2142 -0.5225  0.1471
  863SOL    HW1 2588   0.286   0.608   1.259  1.9769  3.0952 -2.8656
  863SOL    HW2 2589   0.351   0.749   1.201 -0.2184  2.7083  1.8385
  864SOL     OW 2590   3.036   0.111   2.179  0.1057  0.3409 -0.0678
  864SOL    HW1 2591   3.085   0.136   2.090 -1.3715 -0.6667  1.1974
  864SOL    HW2 2592   2.945   0.154   2.181  0.3328  0.7010 -0.7224
  865SOL     OW 2593   0.743   1.295   2.699  0.2812 -0.1343  0.6002
  865SOL    HW1 2594   0.713   1.377   2.756  2.2982  2.1615  0.7343
  865SOL    HW2 2595   0.662   1.248   2.673  0.4830  1.8773  1.7750
  866SOL     OW 2596   3.051   2.964   0.153  0.0709 -0.1866 -0.1590
  866SOL    HW1 2597   0.019   3.026   0.094 -2.7794 -3.2376 -0.9860
  866SOL    HW2 2598   3.051   2.860   0.121 -2.3419 -2.0834 -0.7935
  867SOL     OW 2599   0.039   2.984   2.820 -0.1095 -0.4890 -0.6290
  867SOL    HW1 2600   0.103   2.908   2.842  0.1173  2.5436  3.1874
  867SOL    HW2 2601   0.039   3.048   2.899 -0.2285  0.4687 -0.5432
  868SOL     OW 2602   1.434   0.968   2.628  0.0661  0.2478 -0.2425
  868SOL    HW1 2603   1.501   1.044   2.646 -3.2978 -1.3478 -1.5760
  868SOL    HW2 2604   1.385   0.951   2.717 -0.4690  0.1044 -1.1317
  869SOL     OW 2605   0.287   1.699   0.550  0.3347  0.1688  0.1532
  869SOL    HW1 2606   0.379   1.725   0.590 -0.7098  1.7039 -4.7336
  869SOL    HW2 2607   0.276   1.598   0.543 -0.6118  1.0393  2.6929
  870SOL     OW 2608   2.322   1.752   0.328  0.1530  0.3243 -0.1892
  870SOL    HW1 2609   2.317   1.845   0.372  1.3335  3.9785 -2.5236
  870SOL    HW2 2610   2.297   1.771   0.230 -0.7386 -1.7607 -1.9215
  871SOL     OW 2611   0.684   1.189   1.229 -0.3331 -0.3338  0.1210
  871SOL    HW1 2612   0.621   1.131   1.178  2.0973  3.1191  0.0142
  871SOL    HW2 2613   0.751   1.120   1.267  0.7013 -2.0384 -3.0106
  872SOL     OW 2614   1.436   1.598   1.860 -0.3806  0.7964 -0.4208
  872SOL    HW1 2615   1.499   1.663   1.904  5.1476  1.1363  0.3103
  872SOL    HW2 2616   1.338   1.597   1.901  0.1468  1.6664  0.3857
  873SOL     OW 2617   0.764   1.971   2.194  0.0504  0.2335 -0.0240
  873SOL    HW1 2618   0.779   1.999   2.295  1.0037  2.1481  1.0323
  873SOL    HW2 2619   0.792   2.046   2.131  0.7441 -1.1171  0.5394
  874SOL     OW 2620   0.969   2.331   1.158 -0.5433  0.0931  0.9326
  874SOL    HW1 2621   0.904   2.251   1.155 -1.8375  0.6073  0.3931
  874SOL    HW2 2622   0.943   2.397   1.234  0.3458 -0.3773 -2.0030
  875SOL     OW 2623   2.917   0.112   0.963  0.3983  0.4596  0.7622
  875SOL    HW1 2624   2.902   0.017   0.985  0.5910 -2.8859 -0.4441
  875SOL    HW2 2625   2.855   0.171   1.022  1.0666 -1.2932  1.4026
  876SOL     OW 2626   0.866   0.525   0.150  0.4733 -0.6105  0.1307
  876SOL    HW1 2627   0.773   0.569   0.180  0.3426  1.6463 -1.1256
  876SOL    HW2 2628   0.940   0.591   0.173 -1.3681  0.4655  1.2906
  877SOL     OW 2629   2.719   0.633   1.458 -0.3839 -0.6659  0.2466
  877SOL    HW1 2630   2.761   0.591   1.376 -1.2945  0.5933  2.1687
  877SOL    HW2 2631   2.666   0.562   1.507 -0.7947 -0.2469 -2.8684
  878SOL     OW 2632   2.417   2.175   0.658  0.0972  0.4471  0.2014
  878SOL    HW1 2633   2.409   2.264   0.609  0.4218 -4.1921  1.8199
  878SOL    HW2 2634   2.388   2.181   0.756 -1.9173 -0.7039 -0.4083
  879SOL     OW 2635   2.584   1.514   1.457 -0.4430 -0.2814 -0.1036
  879SOL    HW1 2636   2.499   1.557   1.420 -1.7238  1.1493 -0.1802
  879SOL    HW2 2637   2.605   1.434   1.400 -0.8491  1.9591 -0.9197
  880SOL     OW 2638   1.493   2.586   1.066  0.1694  0.5893  0.3960
  880SOL    HW1 2639   1.477   2.680   1.033  1.1520  0.0774  0.4874
  880SOL    HW2 2640   1.428   2.562   1.142 -1.7004 -2.2617  1.4363
  881SOL     OW 2641   1.006   2.329   0.164 -0.1544  0.5550  0.1381
  881SOL    HW1 2642   1.014   2.396   0.241 -0.5344  0.0195 -0.8752
  881SOL    HW2 2643   0.921   2.333   0.121  1.3115 -0.0997  2.6370
  882SOL     OW 2644   1.601   0.945   1.304  0.1434  0.0669  0.0492
  882SOL    HW1 2645   1.522   1.011   1.324 -0.0492  2.0510 -0.1339
  882SOL    HW2 2646   1.594   0.857   1.351 -0.5280  1.8143 -0.6944
  883SOL     OW 2647   1.413   0.066   2.144 -0.7469 -0.1806  0.2764
  883SOL    HW1 2648   1.401   0.015   2.055 -0.3481  0.6032 -0.5201
  883SOL    HW2 2649   1.479   0.019   2.205 -1.1705  0.9506 -0.5242
  884SOL     OW 2650   2.585   0.562   0.203  0.6872  0.1141  0.3689
  884SOL    HW1 2651   2.523   0.536   0.281 -1.0926  0.4294  0.5443
  884SOL    HW2 2652   2.535   0.625   0.141 -4.6159 -1.1523  1.0161
  885SOL     OW 2653   1.044   1.187   2.876  0.1013  0.3413  0.0496
  885SOL    HW1 2654   1.025   1.240   2.785  0.3825  1.3330 -0.1380
  885SOL    HW2 2655   0.977   1.222   2.944  2.9143  1.2789  0.5603
  886SOL     OW 2656   1.555   1.432   2.615  0.0456  0.1092  0.3008
  886SOL    HW1 2657   1.629   1.436   2.541  0.8606  0.0759 -0.7925
  886SOL    HW2 2658   1.572   1.350   2.678 -0.7061 -0.5680  1.1944
  887SOL     OW 2659   1.336   0.352   1.567  0.1871  0.1863  0.0167
  887SOL    HW1 2660   1.260   0.300   1.530  2.8828  2.7768  1.9167
  887SOL    HW2 2661   1.317   0.371   1.666  0.8411 -1.5656  0.8049
  888SOL     OW 2662   2.525   0.690   1.942  0.0771 -0.2155 -0.6496
  888SOL    HW1 2663   2.501   0.592   1.946  1.5720  0.1077 -0.4337
  888SOL    HW2 2664   2.603   0.706   1.882  0.9201  1.3311 -0.1152
  889SOL     OW 2665   0.253   2.760   0.761  0.0221 -0.3590  0.3436
  889SOL    HW1 2666   0.231   2.687   0.829 -2.0422  0.7407  2.0364
  889SOL    HW2 2667   0.352   2.755   0.748 -3.6142  0.0713  0.1301
  890SOL     OW 2668   2.869   2.244   0.129 -0.3988  0.5515 -0.1396
  890SOL    HW1 2669   2.916   2.219   0.215 -2.2243 -0.2134  2.5438
  890SOL    HW2 2670   2.922   2.207   0.053 -1.7301  1.9192  5.2116
  891SOL     OW 2671   1.063   1.632   2.968 -0.0607  0.4647  0.2547
  891SOL    HW1 2672   1.108   1.610   2.877  2.3967 -4.4530  0.6719
  891SOL    HW2 2673   1.121   1.578   3.037 -0.6446 -0.3082 -2.1037
  892SOL     OW 2674   2.847   2.952   1.023 -0.2320  0.5766 -0.8025
  892SOL    HW1 2675   2.750   2.924   0.996 -0.7333  0.3387 -1.7359
  892SOL    HW2 2676   2.907   2.870   1.017  1.0172  2.1004  0.8854
  893SOL     OW 2677   1.048   3.005   1.249 -0.0497 -0.1598  0.5478
  893SOL    HW1 2678   1.030   2.989   1.348 -0.8120  1.8236  1.9129
  893SOL    HW2 2679   0.960   3.017   1.195 -2.4040 -1.5277  0.1804
  894SOL     OW 2680   2.561   0.796   0.652  0.1509 -0.1735 -0.1375
  894SOL    HW1 2681   2.459   0.807   0.663 -3.0361 -0.8575 -1.1308
  894SOL    HW2 2682   2.598   0.844   0.568 -1.1161 -0.9962  0.2680
  895SOL     OW 2683   2.455   2.390   2.150  0.2739 -0.2316  0.0510
  895SOL    HW1 2684   2.360   2.420   2.144 -1.5427 -0.5703  1.1529
  895SOL    HW2 2685   2.501   2.445   2.220 -1.0536  0.8465  1.4073
  896SOL     OW 2686   1.082   0.215   1.620 -0.2782 -0.3423  0.3215
  896SOL    HW1 2687   1.143   0.140   1.637 -3.3812  0.3821 -0.1889
  896SOL    HW2 2688   1.036   0.236   1.707  0.9003  0.6390 -1.9535
  897SOL     OW 2689   0.893   1.654   1.793 -0.3530  0.3146 -0.2930
  897SOL    HW1 2690   0.831   1.579   1.817  1.6493  0.7621  0.0106
  897SOL    HW2 2691   0.857   1.717   1.723  2.6085  1.3989  0.2907
  898SOL     OW 2692   2.194   2.631   1.863  0.2695  0.2372  1.0647
  898SOL    HW1 2693   2.212   2.698   1.790  0.4126 -1.9632  0.6881
  898SOL    HW2 2694   2.219   2.676   1.952  1.5821  0.4715 -1.0367
  899SOL     OW 2695   0.971   0.771   1.157 -0.1265 -0.6549  0.3069
  899SOL    HW1 2696   0.942   0.721   1.242  0.2630 -0.1123  1.7031
  899SOL    HW2 2697   0.888   0.788   1.096 -1.7868  1.4262 -1.3162
  900SOL     OW 2698   1.897   2.291   2.739  0.6114  0.0960  0.3381
  900SOL    HW1 2699   1.925   2.204   2.783  2.8470  0.9623 -0.1787
  900SOL    HW2 2700   1.946   2.299   2.647  1.8577 -0.5618 -0.3866
  901SOL     OW 2701   0.957   2.231   2.488 -0.8010  0.1888  0.4022
  901SOL    HW1 2702   0.965   2.231   2.589 -1.1561 -0.6474  0.3555
  901SOL    HW2 2703   0.926   2.325   2.452 -0.5291  2.9734 -0.6384
  902SOL     OW 2704   2.125   1.297   0.132  0.2936  0.1095 -0.0495
  902SOL    HW1 2705   2.214   1.338   0.155  1.9243  0.2077  1.8601
  902SOL    HW2 2706   2.133   1.193   0.141 -1.1222 -0.3657  2.2286
  903SOL     OW 2707   1.988   0.764   0.472 -0.5056  0.1241  0.1980
  903SOL    HW1 2708   1.921   0.759   0.549  0.2138  1.0655 -1.5948
  903SOL    HW2 2709   1.958   0.813   0.388  1.8583 -0.8391  0.7391
  904SOL     OW 2710   0.952   0.749   2.691  0.3486  0.9970 -0.1166
  904SOL    HW1 2711   0.885   0.813   2.655  3.9150 -2.0137  0.8017
  904SOL    HW2 2712   1.033   0.752   2.624 -0.7857 -1.3284 -2.7413
  905SOL     OW 2713   2.181   0.326   0.834 -0.3680  0.4035  0.4423
  905SOL    HW1 2714   2.108   0.321   0.762  2.8829 -0.5492 -0.5496
  905SOL    HW2 2715   2.228   0.418   0.834  1.3400 -1.8460 -0.1298
  906SOL     OW 2716   2.621   2.600   1.573  0.2484  0.5421  0.0933
  906SOL    HW1 2717   2.668   2.520   1.612 -0.7047  0.8190 -0.4941
  906SOL    HW2 2718   2.669   2.687   1.589 -1.1731  0.0877  2.1437
  907SOL     OW 2719   1.127   0.637   0.354  0.1711  0.0493 -0.1273
  907SOL    HW1 2720   1.095   0.682   0.272  1.7806  0.1155  0.8052
  907SOL    HW2 2721   1.131   0.536   0.337  1.3718  0.8747  1.4419
  908SOL     OW 2722   2.115   2.978   1.478 -0.4551 -0.0205  0.8467
  908SOL    HW1 2723   2.204   3.016   1.445  1.4369 -1.2774 -1.3046
  908SOL    HW2 2724   2.049   2.988   1.402 -0.1286 -0.7738  0.6458
  909SOL     OW 2725   2.504   0.781   1.401  0.5550  0.1253  0.6057
  909SOL    HW1 2726   2.584   0.719   1.422  0.6051 -0.5540  0.0838
  909SOL    HW2 2727   2.514   0.874   1.445 -0.5992  0.6544 -0.0461
  910SOL     OW 2728   1.522   2.731   2.221 -0.0946 -0.4031 -0.4610
  910SOL    HW1 2729   1.616   2.755   2.193 -0.4318  2.1354  3.6589
  910SOL    HW2 2730   1.449   2.764   2.160  1.0261  2.1999  1.6113
  911SOL     OW 2731   2.379   0.561   2.388  0.0610  0.3732 -0.0402
  911SOL    HW1 2732   2.378   0.658   2.364  0.7823 -1.3730 -0.6437
  911SOL    HW2 2733   2.285   0.525   2.395  2.5271  1.6165  2.9865
  912SOL     OW 2734   2.863   1.348   1.535 -0.0573  0.2391  0.2132
  912SOL    HW1 2735   2.879   1.448   1.540 -2.7294  0.0028  1.0110
  912SOL    HW2 2736   2.909   1.298   1.608 -1.7816 -0.5712  0.5795
  913SOL     OW 2737   2.626   2.191   1.382 -0.4700 -0.5299  0.2078
  913SOL    HW1 2738   2.633   2.260   1.302  1.5829  0.9187 -0.6373
  913SOL    HW2 2739   2.607   2.098   1.360  2.0009  3.0775  0.8252
  914SOL     OW 2740   1.942   1.328   1.443  0.2227  0.7710  0.1426
  914SOL    HW1 2741   1.981   1.232   1.451  1.0272 -0.1905 -0.1859
  914SOL    HW2 2742   1.865   1.340   1.507  1.0125 -1.5159  0.2585
  915SOL     OW 2743   1.246   0.818   1.307  0.3757 -0.0911  0.4838
  915SOL    HW1 2744   1.277   0.729   1.340 -0.7508 -1.1281  1.4425
  915SOL    HW2 2745   1.167   0.815   1.238 -0.6619 -0.9443 -4.3198
  916SOL     OW 2746   2.762   2.789   1.707  0.2889  0.1104 -0.1497
  916SOL    HW1 2747   2.835   2.731   1.751  0.9793  0.2638  2.7914
  916SOL    HW2 2748   2.747   2.876   1.754 -0.9259 -0.1411 -1.9236
  917SOL     OW 2749   2.423   2.107   0.206 -0.1882 -0.0008  0.3159
  917SOL    HW1 2750   2.342   2.055   0.176  0.6128  0.9052 -1.2029
  917SOL    HW2 2751   2.410   2.205   0.184 -1.5416  0.0714  2.7563
  918SOL     OW 2752   1.794   2.731   2.596  0.1235 -0.2783  0.5282
  918SOL    HW1 2753   1.708   2.780   2.563 -0.4428 -0.2343 -0.6096
  918SOL    HW2 2754   1.775   2.648   2.652  1.0254 -0.8190  2.3385
  919SOL     OW 2755   1.462   2.155   1.384 -0.2644  0.2997  0.0332
  919SOL    HW1 2756   1.476   2.138   1.481 -0.1418  1.8044 -0.8193
  919SOL    HW2 2757   1.371   2.116   1.352  0.0838  0.2366  0.8080
  920SOL     OW 2758   2.717   0.232   2.465 -0.5518  0.4081  0.2359
  920SOL    HW1 2759   2.737   0.134   2.481 -0.1989  2.0464 -0.1131
  920SOL    HW2 2760   2.781   0.285   2.523  1.5954  1.9345  1.6897
  921SOL     OW 2761   2.945   0.870   2.036  0.0711 -1.0783 -0.0990
  921SOL    HW1 2762   3.004   0.788   2.042 -2.1716 -1.4864 -0.7429
  921SOL    HW2 2763   2.865   0.867   2.106 -2.6704 -0.3068  2.7637
  922SOL     OW 2764   2.091   2.037   0.487  0.0361 -0.0354 -0.1944
  922SOL    HW1 2765   2.187   2.027   0.464 -4.3919  0.4483 -0.2280
  922SOL    HW2 2766   2.077   2.029   0.587 -1.2372 -1.0538  4.1597
  923SOL     OW 2767   0.581   2.155   2.909  0.5149 -0.6041 -0.1600
  923SOL    HW1 2768   0.523   2.113   2.841  0.1364 -0.4317  2.2796
  923SOL    HW2 2769   0.634   2.234   2.864  2.2969  1.1010 -0.9272
  924SOL     OW 2770   1.060   0.366   0.464 -0.3927  0.4649 -0.3269
  924SOL    HW1 2771   0.961   0.370   0.439  0.6491 -0.2824 -2.6400
  924SOL    HW2 2772   1.115   0.360   0.380  2.5421 -0.1372  1.6821
  925SOL     OW 2773   2.595   1.063   0.926 -0.2842 -0.3502  0.1015
  925SOL    HW1 2774   2.533   1.006   0.979  1.7622  1.2278 -2.0056
  925SOL    HW2 2775   2.563   1.080   0.832  1.1105 -2.2352  1.0220
  926SOL     OW 2776   0.074   0.970   0.892 -0.1549 -0.4251 -0.1544
  926SOL    HW1 2777   3.091   0.996   0.954  2.9777  2.5521  1.8159
  926SOL    HW2 2778   0.097   0.877   0.919  0.4046 -0.3085 -2.0859
  927SOL     OW 2779   3.074   1.158   2.895 -0.3911 -0.0235 -0.5170
  927SOL    HW1 2780   0.055   1.093   2.865  0.4590  0.8166 -0.5647
  927SOL    HW2 2781   0.029   1.211   2.970 -2.7088 -1.6697  0.0946
  928SOL     OW 2782   2.929   0.557   2.346 -0.5217 -0.0053  0.3915
  928SOL    HW1 2783   2.839   0.561   2.302  0.4837 -1.9066 -0.7123
  928SOL    HW2 2784   2.995   0.502   2.285  1.3735 -2.3308 -0.6844
  929SOL     OW 2785   2.911   2.895   1.317  0.1618 -0.4998  0.1255
  929SOL    HW1 2786   2.875   2.925   1.226  0.6842 -1.7606 -1.4205
  929SOL    HW2 2787   2.942   2.798   1.308  0.5392 -0.0653 -2.6112
  930SOL     OW 2788   2.012   1.401   1.760 -0.8229 -0.4263 -0.2426
  930SOL    HW1 2789   2.038   1.490   1.801  0.8561  1.7686  0.8351
  930SOL    HW2 2790   1.938   1.407   1.686  0.2923  0.3844 -3.2469
  931SOL     OW 2791   1.586   1.439   0.645  0.0179  0.5329  0.5838
  931SOL    HW1 2792   1.651   1.484   0.576  2.0650  1.3459 -2.4682
  931SOL    HW2 2793   1.487   1.471   0.644  1.1995 -1.2070  0.5544
  932SOL     OW 2794   2.724   1.261   1.050  0.1064  0.3039 -0.0949
  932SOL    HW1 2795   2.683   1.177   1.009  0.6986  3.1601  2.0234
  932SOL    HW2 2796   2.817   1.272   1.017 -2.5376  3.0734  0.0471
  933SOL     OW 2797   2.357   1.556   1.282  0.3016 -0.6949  0.3737
  933SOL    HW1 2798   2.357   1.552   1.179  0.4085 -1.4412  1.9222
  933SOL    HW2 2799   2.264   1.575   1.316 -1.0127  0.5378  0.0827
  934SOL     OW 2800   1.648   0.068   1.868  0.2032 -0.4727 -0.3948
  934SOL    HW1 2801   1.611   0.152   1.914 -1.5638  1.7830  1.6024
  934SOL    HW2 2802   1.697   0.096   1.782  0.7274 -0.4575  1.0053
  935SOL     OW 2803   0.315   1.496   0.833 -0.4006 -0.0137 -0.3014
  935SOL    HW1 2804   0.266   1.457   0.750  0.2982 -0.1840 -0.2647
  935SOL    HW2 2805   0.269   1.574   0.880 -1.4852 -0.4874  0.8433
  936SOL     OW 2806   0.518   0.987   0.431  0.4773 -0.4733  0.2090
  936SOL    HW1 2807   0.431   1.015   0.381 -1.9148 -0.4834 -0.8920
  936SOL    HW2 2808   0.597   0.966   0.372 -2.5772  2.0290  0.1214
  937SOL     OW 2809   2.286   3.056   0.994  0.7563 -0.0019 -0.0789
  937SOL    HW1 2810   2.244   2.980   1.045  2.8684 -0.3277 -2.5444
  937SOL    HW2 2811   2.351   3.032   0.920 -0.1553  0.8396  0.6627
  938SOL     OW 2812   2.736   2.227   0.699 -0.5091 -0.3905  0.1907
  938SOL    HW1 2813   2.702   2.138   0.654 -1.3697  0.2932 -0.7581
  938SOL    HW2 2814   2.657   2.285   0.724 -2.0435  1.4844 -0.6052
  939SOL     OW 2815   0.766   2.028   0.549 -0.4254 -0.0060  0.4805
  939SOL    HW1 2816   0.759   1.927   0.530  0.1188  1.2054 -0.2935
  939SOL    HW2 2817   0.846   2.048   0.614 -0.3602  0.5743  1.2648
  940SOL     OW 2818   2.766   3.065   2.964  0.2669 -0.2703  0.1492
  940SOL    HW1 2819   2.791   3.030   3.057 -2.8471 -1.4547 -0.4032
  940SOL    HW2 2820   2.665   3.068   2.949 -0.6550  1.6930 -0.0334
  941SOL     OW 2821   1.085   0.210   2.923 -0.6192 -0.0397  0.0447
  941SOL    HW1 2822   1.071   0.160   3.009 -1.3158 -0.0009  0.8938
  941SOL    HW2 2823   1.042   0.301   2.930  0.3523  0.7406 -0.3969
  942SOL     OW 2824   1.101   1.134   1.291  0.0984 -0.3593  0.4709
  942SOL    HW1 2825   1.104   1.231   1.316  0.5712 -1.0234  0.2964
  942SOL    HW2 2826   1.056   1.129   1.201  1.3275  4.4119 -1.3137
  943SOL     OW 2827   1.632   1.211   1.722  0.2452 -0.1887  0.5664
  943SOL    HW1 2828   1.660   1.222   1.823  1.7330 -0.0204 -0.1090
  943SOL    HW2 2829   1.576   1.125   1.709 -2.5464 -3.7917 -3.0258
  944SOL     OW 2830   1.617   0.595   1.740 -0.3883 -0.0559  0.0793
  944SOL    HW1 2831   1.543   0.646   1.787  0.6602  1.7831 -1.0433
  944SOL    HW2 2832   1.675   0.547   1.808 -2.5369 -0.2025 -0.7444
  945SOL     OW 2833   0.018   3.090   0.409  0.3068  0.3478  0.2293
  945SOL    HW1 2834   3.046   0.076   0.443 -3.1259  1.5995  1.5141
  945SOL    HW2 2835   3.087   3.057   0.316 -0.1631  0.3796  0.9563
  946SOL     OW 2836   3.000   0.523   1.736 -0.2276 -0.0398  0.1907
  946SOL    HW1 2837   3.024   0.441   1.682  0.4765  0.2008 -1.6586
  946SOL    HW2 2838   2.899   0.527   1.750  3.3656 -0.5737 -0.2139
  947SOL     OW 2839   0.772   3.004   0.476 -0.4049  0.3747 -0.0629
  947SOL    HW1 2840   0.713   2.949   0.413  0.9161  1.4288  0.9080
  947SOL    HW2 2841   0.818   3.075   0.419  1.3475 -1.2004 -0.0492
  948SOL     OW 2842   2.547   1.029   1.790 -0.5456  0.0447  0.4346
  948SOL    HW1 2843   2.463   1.069   1.821  1.9156 -0.2873 -2.8949
  948SOL    HW2 2844   2.621   1.102   1.784 -0.2010 -0.0288  1.7118
  949SOL     OW 2845   0.499   0.869   2.673 -0.3724  0.1993 -0.4446
  949SOL    HW1 2846   0.499   0.833   2.578 -1.3208 -0.4435 -0.6916
  949SOL    HW2 2847   0.416   0.826   2.714  0.4961 -0.7954  1.2299
  950SOL     OW 2848   0.785   0.411   1.056 -0.4711 -0.1625  0.9512
  950SOL    HW1 2849   0.808   0.320   1.099  1.5924  2.5280 -2.9831
  950SOL    HW2 2850   0.863   0.439   1.000 -1.9548 -1.7811  1.3899
  951SOL     OW 2851   0.991   1.815   2.168  0.3112 -0.0252  0.4310
  951SOL    HW1 2852   1.024   1.894   2.109  1.1799 -0.2835  0.6032
  951SOL    HW2 2853   0.898   1.840   2.205 -0.9699 -0.5917 -0.7172
  952SOL     OW 2854   0.984   1.467   0.229 -0.2609 -0.6268 -0.3185
  952SOL    HW1 2855   1.024   1.380   0.197  0.1630  1.2983 -0.0970
  952SOL    HW2 2856   0.934   1.524   0.159 -1.4661  2.0728 -0.3702
  953SOL     OW 2857   2.079   3.034   2.451  0.5368  0.1219  0.1727
  953SOL    HW1 2858   2.045   2.993   2.363 -0.0334  2.7317 -2.1299
  953SOL    HW2 2859   2.157   0.003   2.435 -1.7774 -1.8837  1.9798
  954SOL     OW 2860   1.635   1.154   0.671 -0.0340 -0.6846 -0.9658
  954SOL    HW1 2861   1.724   1.128   0.631 -2.2821 -1.7889  0.3733
  954SOL    HW2 2862   1.611   1.254   0.652  0.7947  1.7854  2.5914
  955SOL     OW 2863   0.293   2.273   2.228 -0.3312  0.1662 -0.0388
  955SOL    HW1 2864   0.391   2.241   2.216  1.2064  0.7498  1.0811
  955SOL    HW2 2865   0.290   2.332   2.310 -0.3536 -1.4844  2.6320
  956SOL     OW 2866   1.609   0.356   1.540  0.2622  0.2368 -0.4305
  956SOL    HW1 2867   1.508   0.344   1.542 -0.3768 -3.4069  0.2474
  956SOL    HW2 2868   1.641   0.437   1.593 -0.1899  2.8826 -2.0056
  957SOL     OW 2869   1.766   2.037   2.935  0.2067  0.8302  0.5682
  957SOL    HW1 2870   1.777   1.937   2.966 -0.2017 -4.0575  1.3781
  957SOL    HW2 2871   1.823   2.103   2.980 -1.9680  0.3289 -1.9597
  958SOL     OW 2872   1.149   2.345   1.677  0.3587 -0.0145 -0.1126
  958SOL    HW1 2873   1.110   2.362   1.771  0.2612 -1.4843  2.6811
  958SOL    HW2 2874   1.082   2.304   1.611  2.8434  0.3541 -1.6645
  959SOL     OW 2875   2.199   2.245   2.901  0.3913  0.5269  0.4537
  959SOL    HW1 2876   2.299   2.246   2.885  0.0558  0.9806  2.0089
  959SOL    HW2 2877   2.172   2.314   2.971 -1.4792 -1.8713  1.8484
  960SOL     OW 2878   2.868   0.360   2.653 -0.3041 -0.1526  0.1364
  960SOL    HW1 2879   2.848   0.331   2.747 -0.9211  0.6708  0.5128
  960SOL    HW2 2880   2.878   0.460   2.645  0.6031  0.2623 -0.0144
  961SOL     OW 2881   0.746   0.858   2.462 -0.3376  0.2654  0.2684
  961SOL    HW1 2882   0.648   0.824   2.452 -1.8101  0.7412 -2.4449
  961SOL    HW2 2883   0.806   0.821   2.388  2.0716  0.0958 -0.6953
  962SOL     OW 2884   1.008   1.285   2.621  0.5866  0.3743  0.0076
  962SOL    HW1 2885   0.916   1.330   2.616  1.2054 -2.0959  0.8579
  962SOL    HW2 2886   0.997   1.184   2.598  2.1152 -3.6552  0.8504
  963SOL     OW 2887   2.405   2.351   0.112 -0.6747  0.2027  0.1605
  963SOL    HW1 2888   2.488   2.332   0.050 -0.2915  0.0628 -2.2283
  963SOL    HW2 2889   2.425   2.420   0.185 -0.0132  0.8795  0.3798
  964SOL     OW 2890   1.269   2.490   1.181 -0.4150 -0.4863 -0.1700
  964SOL    HW1 2891   1.284   2.462   1.279  1.0597  1.3441 -0.3731
  964SOL    HW2 2892   1.213   2.573   1.171 -0.0061 -0.3583 -1.0041
  965SOL     OW 2893   1.213   1.481   0.835 -0.8637  0.0320 -0.2191
  965SOL    HW1 2894   1.266   1.498   0.746 -0.3771 -0.5941  0.3695
  965SOL    HW2 2895   1.172   1.566   0.864  0.5859 -0.5921 -0.7792
  966SOL     OW 2896   0.398   1.493   0.125  0.1853 -0.0720 -0.1913
  966SOL    HW1 2897   0.434   1.587   0.138 -0.3971  1.3108 -0.2831
  966SOL    HW2 2898   0.306   1.479   0.169  1.2588 -1.2247  1.0594
  967SOL     OW 2899   1.943   0.341   1.792 -0.6024  0.1388 -0.6749
  967SOL    HW1 2900   1.895   0.265   1.740  0.1989 -4.0684  0.1185
  967SOL    HW2 2901   2.048   0.323   1.787  0.6883 -1.6676 -0.2075
  968SOL     OW 2902   1.869   1.130   0.530 -0.0089 -0.8016 -0.1151
  968SOL    HW1 2903   1.933   1.199   0.493 -0.5602  0.2046  2.4182
  968SOL    HW2 2904   1.897   1.032   0.509 -2.2958 -0.0962 -0.2546
  969SOL     OW 2905   0.361   1.282   2.477 -0.2397  0.0813 -0.3254
  969SOL    HW1 2906   0.306   1.219   2.420  0.4671  0.8993  1.2679
  969SOL    HW2 2907   0.384   1.365   2.431 -0.8303  0.0727  1.4196
  970SOL     OW 2908   2.069   1.473   1.089 -0.3130  0.3018 -0.4785
  970SOL    HW1 2909   2.010   1.388   1.076  0.2247 -3.2564 -1.3369
  970SOL    HW2 2910   2.162   1.465   1.041  1.0230 -0.3892 -1.9657
  971SOL     OW 2911   0.388   3.037   1.268  0.2184 -0.2461  0.1684
  971SOL    HW1 2912   0.382   0.047   1.290 -0.6976  2.0018  1.1821
  971SOL    HW2 2913   0.318   3.011   1.195  0.6427  0.5635 -2.0776
  972SOL     OW 2914   0.289   0.742   2.804  0.0421  0.3524 -0.1702
  972SOL    HW1 2915   0.236   0.664   2.760 -1.6687 -0.0597 -0.5378
  972SOL    HW2 2916   0.278   0.742   2.903  0.1925  0.2348 -1.6047
  973SOL     OW 2917   0.097   0.696   0.920 -0.4454 -0.6936 -0.5705
  973SOL    HW1 2918   0.167   0.702   0.848  1.8638 -0.3631  1.4419
  973SOL    HW2 2919   0.038   0.613   0.918  1.8542  0.4325 -0.4161
  974SOL     OW 2920   2.085   0.579   1.975 -0.7158 -0.9206 -0.1950
  974SOL    HW1 2921   2.018   0.637   1.922 -0.8136  0.9884  1.8776
  974SOL    HW2 2922   2.166   0.632   2.007 -0.6642 -1.9577 -2.6446
  975SOL     OW 2923   2.697   0.109   0.203  0.2803  0.5121  0.1551
  975SOL    HW1 2924   2.693   0.114   0.307  1.1942 -1.7032  1.3096
  975SOL    HW2 2925   2.707   0.203   0.166  0.5093 -0.6573  0.1205
  976SOL     OW 2926   0.254   1.444   1.693  0.2049 -0.1404 -0.5226
  976SOL    HW1 2927   0.320   1.483   1.626 -1.9497 -0.2316  1.7541
  976SOL    HW2 2928   0.282   1.468   1.790 -1.3863  0.2171  0.5307
  977SOL     OW 2929   1.060   2.606   3.005 -0.1111 -0.4182  0.6407
  977SOL    HW1 2930   1.120   2.666   3.060 -0.4751  2.6103  0.0849
  977SOL    HW2 2931   1.000   2.551   3.061  0.3636 -1.4499  2.2938
  978SOL     OW 2932   0.579   1.163   0.127  0.2515 -0.6181  0.5027
  978SOL    HW1 2933   0.565   1.074   0.084  0.2403 -0.8744  0.3975
  978SOL    HW2 2934   0.645   1.160   0.205 -2.8572 -0.8918 -1.1331
  979SOL     OW 2935   1.679   1.841   1.384 -0.1471 -0.0459 -0.0728
  979SOL    HW1 2936   1.577   1.848   1.404  1.8298 -0.1757  3.4130
  979SOL    HW2 2937   1.714   1.750   1.353  2.6991 -0.7195  0.3004
  980SOL     OW 2938   0.325   1.499   1.937  0.0238 -0.0611  0.2162
  980SOL    HW1 2939   0.380   1.581   1.951  1.0706  1.4215  0.3423
  980SOL    HW2 2940   0.258   1.480   2.014 -2.7792 -1.6549  2.1658
  981SOL     OW 2941   0.124   1.495   0.228  0.6449  0.0489 -0.6252
  981SOL    HW1 2942   0.156   1.594   0.252  3.2716  3.1151 -1.8253
  981SOL    HW2 2943   0.049   1.471   0.295 -1.8658 -0.3105  2.6151
  982SOL     OW 2944   2.398   2.970   2.182  0.1430  0.0393  0.1848
  982SOL    HW1 2945   2.337   3.032   2.125 -0.1978 -0.5995 -1.5901
  982SOL    HW2 2946   2.496   3.000   2.178  0.2714  0.9995  1.4224
  983SOL     OW 2947   1.281   0.461   1.139  0.3932  0.4289 -0.2000
  983SOL    HW1 2948   1.361   0.425   1.089  0.1354  0.7811  3.5091
  983SOL    HW2 2949   1.224   0.514   1.074 -1.3925  0.9206  0.6220
  984SOL     OW 2950   1.282   2.910   2.840  0.4102  0.1025 -0.1022
  984SOL    HW1 2951   1.329   2.862   2.920  2.1170 -0.9005 -0.6754
  984SOL    HW2 2952   1.323   3.002   2.830  0.3341 -0.9204  2.0527
  985SOL     OW 2953   1.918   2.210   1.537  0.7019 -0.1964 -0.0747
  985SOL    HW1 2954   1.881   2.111   1.545 -0.0999 -1.6717 -0.3647
  985SOL    HW2 2955   1.944   2.218   1.438  1.5666  0.4633  0.5247
  986SOL     OW 2956   2.565   3.088   2.608 -0.5617 -0.1386  0.0995
  986SOL    HW1 2957   2.659   3.047   2.599  1.1217 -1.8850  2.7428
  986SOL    HW2 2958   2.551   0.072   2.674 -0.9114  0.8628 -2.7830
  987SOL     OW 2959   2.722   0.826   2.228  0.2516 -0.6078 -0.5595
  987SOL    HW1 2960   2.704   0.725   2.252 -0.9537 -1.1205  2.2725
  987SOL    HW2 2961   2.639   0.872   2.197  0.8013 -0.0872  2.1273
  988SOL     OW 2962   2.311   0.888   2.696 -0.7500 -0.1838  0.8028
  988SOL    HW1 2963   2.231   0.885   2.753  3.4847  2.4444 -0.0445
  988SOL    HW2 2964   2.290   0.919   2.597 -1.5342  3.2725 -1.9118
  989SOL     OW 2965   2.124   1.606   2.010 -0.0982 -0.1033 -0.2508
  989SOL    HW1 2966   2.170   1.680   2.064  1.1519 -0.2232 -2.5312
  989SOL    HW2 2967   2.184   1.525   1.999 -2.2206  2.5798  1.4470
  990SOL     OW 2968   0.470   1.033   2.989 -0.1300 -0.1252  0.1264
  990SOL    HW1 2969   0.466   1.116   2.933 -0.8261  1.1972 -0.5675
  990SOL    HW2 2970   0.523   0.957   2.947  0.8860  0.5839  0.3425
  991SOL     OW 2971   0.376   2.051   2.720 -0.2642 -0.4086  0.5485
  991SOL    HW1 2972   0.396   1.955   2.740  3.0873  2.1424 -2.1921
  991SOL    HW2 2973   0.283   2.088   2.728  1.7840 -2.8172 -1.8367
  992SOL     OW 2974   2.501   2.077   1.884 -0.3866 -0.2128  0.3759
  992SOL    HW1 2975   2.413   2.119   1.854 -0.9625 -1.3407 -0.9514
  992SOL    HW2 2976   2.542   2.133   1.960 -2.0388  0.7441  1.0671
  993SOL     OW 2977   0.258   0.016   0.560  0.4104  0.5879  1.0437
  993SOL    HW1 2978   0.261   3.075   0.656 -0.5832  0.5748  0.7599
  993SOL    HW2 2979   0.163   0.007   0.517 -1.6221  1.1045 -3.3634
  994SOL     OW 2980   0.362   1.819   1.466  0.4453  0.3677  0.2929
  994SOL    HW1 2981   0.338   1.896   1.401 -2.1900  0.4294 -0.5567
  994SOL    HW2 2982   0.431   1.855   1.534 -3.7985 -1.8230 -1.2994
  995SOL     OW 2983   2.055   1.777   2.872  0.0277 -0.0335 -0.2468
  995SOL    HW1 2984   1.954   1.761   2.901 -2.1744 -0.1622 -0.0644
  995SOL    HW2 2985   2.067   1.860   2.815  2.2778 -3.3470  3.6645
  996SOL     OW 2986   1.878   1.361   2.657  0.2264 -0.4199  0.2118
  996SOL    HW1 2987   1.841   1.370   2.559 -1.5548  1.9120 -0.6250
  996SOL    HW2 2988   1.898   1.449   2.700 -1.6271 -0.4698  4.8596
  997SOL     OW 2989   1.520   0.961   1.723  0.6873 -0.3089  0.0433
  997SOL    HW1 2990   1.427   1.001   1.713  2.8944  3.3677  2.2640
  997SOL    HW2 2991   1.545   0.902   1.644  0.2064  2.4379  0.0007
  998SOL     OW 2992   2.359   2.063   0.917 -0.8651 -0.2640  0.6924
  998SOL    HW1 2993   2.427   2.140   0.909  0.0921  0.9341 -0.6585
  998SOL    HW2 2994   2.357   2.015   1.010 -0.6858  1.9420 -0.7245
  999SOL     OW 2995   2.319   2.402   0.517 -0.0271  0.0984 -0.0058
  999SOL    HW1 2996   2.226   2.383   0.486  1.0073 -1.7249 -0.3803
  999SOL    HW2 2997   2.381   2.409   0.438 -1.1044 -1.9816  2.2674
 1000SOL     OW 2998   0.913   2.971   0.003  0.1004 -0.1096 -0.4292
 1000SOL    HW1 2999   0.922   2.901   0.074 -0.2348  2.6832 -0.7269
 1000SOL    HW2 3000   0.818   3.011   0.006 -0.5109  0.7872 -2.4580
   3.09163   3.09163   3.09163
