1000 SPC/Fw water molecules t= 407.00000 step= 407000
 3000
    1SOL     OW    1   0.191   3.113   1.492  0.0936 -0.2756  0.6484
    1SOL    HW1    2   0.100   0.013   1.519  3.8203  0.2344 -0.2643
    1SOL    HW2    3   0.198   3.078   1.395 -1.0866  0.0822  3.7106
    2SOL     OW    4   2.678   2.835   0.239  0.4485 -0.0711  0.2731
    2SOL    HW1    5   2.650   2.911   0.181  0.7182  2.0642  1.5102
    2SOL    HW2    6   2.762   2.791   0.206  1.6588  4.1738 -0.1511
    3SOL     OW    7   1.498   2.562   0.053 -0.8300  0.4955 -0.0913
    3SOL    HW1    8   1.525   2.603   3.090 -0.2139 -2.4553  0.4188
    3SOL    HW2    9   1.420   2.620   0.085  2.9153 -2.2754  0.1925
    4SOL     OW   10   0.982   3.041   2.355  0.1398  0.2995 -0.0450
    4SOL    HW1   11   0.927   3.080   2.278 -1.1980 -0.6650 -0.7002
    4SOL    HW2   12   1.027   2.956   2.323  0.0832 -0.3065  2.0097
    5SOL     OW   13   1.994   3.107   1.872 -0.3508  0.3287  0.3370
    5SOL    HW1   14   2.052   3.076   1.948  1.1199  1.4656  0.6993
    5SOL    HW2   15   2.057   3.118   1.791  0.2411 -0.6053 -0.8949
    6SOL     OW   16   2.449   1.783   0.950 -0.6552 -0.0021  0.3526
    6SOL    HW1   17   2.394   1.857   0.906  0.0340 -0.7676  1.2409
    6SOL    HW2   18   2.507   1.733   0.886 -1.4654  2.3220 -1.2169
    7SOL     OW   19   2.126   1.127   0.668 -0.2506  0.6446  0.6527
    7SOL    HW1   20   2.181   1.165   0.745 -0.8534 -0.7247  0.2355
    7SOL    HW2   21   2.168   1.159   0.581  1.2323  0.7087  0.4048
    8SOL     OW   22   0.681   1.363   0.892 -0.0307 -0.5470 -0.0634
    8SOL    HW1   23   0.760   1.394   0.952 -0.5264 -1.0388 -0.3138
    8SOL    HW2   24   0.689   1.404   0.800  0.6657 -1.4553  1.4950
    9SOL     OW   25   0.188   2.866   1.645  0.0644  0.4397  0.8834
    9SOL    HW1   26   0.166   2.966   1.624  1.0939  1.1870 -2.1792
    9SOL    HW2   27   0.202   2.811   1.559 -0.3629 -0.4677 -2.1840
   10SOL     OW   28   1.259   2.337   0.381 -0.5508  0.1756 -0.3006
   10SOL    HW1   29   1.229   2.300   0.469  2.2883 -1.3970  2.4792
   10SOL    HW2   30   1.303   2.431   0.396  1.4193  1.8825 -0.7827
   11SOL     OW   31   1.675   1.910   0.983  0.1112 -0.1021 -0.0097
   11SOL    HW1   32   1.772   1.916   0.963 -3.2124 -2.1504 -0.6543
   11SOL    HW2   33   1.653   1.997   1.035  1.0145  1.9177 -1.5567
   12SOL     OW   34   2.733   0.594   2.281 -0.0078  0.4450 -0.2635
   12SOL    HW1   35   2.734   0.686   2.322 -1.1887 -3.1363 -0.3259
   12SOL    HW2   36   2.643   0.549   2.310 -0.9017 -0.9319  0.4021
   13SOL     OW   37   2.705   3.030   0.029 -0.0713  0.4101  0.0519
   13SOL    HW1   38   2.758   3.018   3.068 -0.4215 -0.3801  2.3341
   13SOL    HW2   39   2.604   3.042   0.010 -1.2009 -1.5853  2.3101
   14SOL     OW   40   1.725   1.622   3.050  0.3333  0.4914 -0.6186
   14SOL    HW1   41   1.781   1.550   3.011  0.0510  1.8008  3.0629
   14SOL    HW2   42   1.754   1.634   0.025 -1.2600 -0.8600 -1.5251
   15SOL     OW   43   2.807   2.647   1.666 -0.3331 -0.5209 -0.0297
   15SOL    HW1   44   2.816   2.564   1.727  1.6924  2.4905  1.8083
   15SOL    HW2   45   2.892   2.701   1.672  0.3044 -0.8355 -0.0859
   16SOL     OW   46   3.031   0.045   0.969 -0.3100 -0.7910 -0.7603
   16SOL    HW1   47   3.010   0.137   0.934 -1.3620 -1.1987 -1.4174
   16SOL    HW2   48   2.993   3.111   0.896  0.0353  0.6791 -0.0982
   17SOL     OW   49   1.326   0.194   0.753 -0.2101 -0.5449  0.1352
   17SOL    HW1   50   1.401   0.176   0.828  4.8464  3.3428  2.2783
   17SOL    HW2   51   1.235   0.163   0.779 -0.4018 -0.5344 -3.3101
   18SOL     OW   52   1.522   0.137   0.921 -0.1650 -0.0416  0.5528
   18SOL    HW1   53   1.565   0.054   0.885 -1.5536  3.1003 -1.9323
   18SOL    HW2   54   1.508   0.135   1.024 -0.6212  2.7060  1.3557
   19SOL     OW   55   2.214   1.211   0.442  0.2466  0.5013 -1.0681
   19SOL    HW1   56   2.174   1.251   0.358  2.5943  0.9394  1.2141
   19SOL    HW2   57   2.294   1.269   0.466 -5.8390  0.2141 -0.2473
   20SOL     OW   58   2.530   1.515   2.673 -0.3959 -0.2788 -0.6158
   20SOL    HW1   59   2.573   1.593   2.628  0.2937 -1.8069  2.2872
   20SOL    HW2   60   2.456   1.544   2.737  1.4842 -1.2738  1.3374
   21SOL     OW   61   1.544   2.870   0.261  0.3490  0.5172 -0.4411
   21SOL    HW1   62   1.614   2.912   0.321 -0.5793  3.3859  0.6679
   21SOL    HW2   63   1.456   2.881   0.312  1.9141 -0.9974  1.9091
   22SOL     OW   64   2.947   0.974   0.845 -0.0322 -0.5051  0.3417
   22SOL    HW1   65   2.978   0.930   0.928 -0.7040  0.6375 -1.5519
   22SOL    HW2   66   2.854   0.938   0.823 -2.6248 -0.2165  0.3172
   23SOL     OW   67   0.545   0.001   1.999  0.2061 -0.6575 -0.1114
   23SOL    HW1   68   0.605   0.080   1.984 -2.2989 -1.0011 -0.8893
   23SOL    HW2   69   0.458   0.038   2.036  3.1111  0.4412 -0.3026
   24SOL     OW   70   2.387   2.606   0.701  0.2440 -0.1674 -0.0488
   24SOL    HW1   71   2.457   2.585   0.635  1.3495  1.4813 -0.0417
   24SOL    HW2   72   2.422   2.674   0.764 -0.2596  1.9872  0.6350
   25SOL     OW   73   1.810   3.049   2.781  0.0486 -0.3843  0.0650
   25SOL    HW1   74   1.867   0.008   2.770  0.0163  1.1121  1.5003
   25SOL    HW2   75   1.709   3.066   2.778 -0.5440 -0.4116  4.0662
   26SOL     OW   76   1.558   2.267   0.052 -0.4055 -0.0099 -0.5794
   26SOL    HW1   77   1.647   2.264   0.103 -0.1337 -0.6970  0.1551
   26SOL    HW2   78   1.512   2.359   0.063 -2.6318 -0.9847 -0.0500
   27SOL     OW   79   1.672   0.560   1.221  0.0626 -0.0829 -0.3502
   27SOL    HW1   80   1.579   0.529   1.255  0.9877 -0.8024  0.7702
   27SOL    HW2   81   1.690   0.662   1.229  0.6446 -0.1898 -1.0085
   28SOL     OW   82   1.058   1.446   0.458  0.0361  0.2737  0.2842
   28SOL    HW1   83   0.998   1.380   0.507  2.3090 -0.4705  0.9188
   28SOL    HW2   84   1.155   1.438   0.483  1.4112  1.3036 -2.8134
   29SOL     OW   85   2.446   0.369   1.611  0.5381  0.2747  0.1517
   29SOL    HW1   86   2.460   0.341   1.711 -0.0601  0.6205  1.5248
   29SOL    HW2   87   2.437   0.468   1.606 -1.5343  1.6130 -1.2788
   30SOL     OW   88   1.200   2.574   1.517 -0.1024  0.8531  0.2618
   30SOL    HW1   89   1.264   2.601   1.592  0.7164 -1.9939 -0.4766
   30SOL    HW2   90   1.243   2.518   1.448 -2.4368  0.8033  0.6938
   31SOL     OW   91   2.041   2.982   1.387  0.0055 -0.4835 -0.4238
   31SOL    HW1   92   2.012   3.079   1.402  0.4295  0.3064  0.3556
   31SOL    HW2   93   2.019   2.919   1.464  2.7588 -1.3444 -0.6912
   32SOL     OW   94   1.894   1.605   2.655  0.2823  0.4075  0.1326
   32SOL    HW1   95   1.825   1.535   2.644 -1.3103  3.3800  1.7453
   32SOL    HW2   96   1.951   1.603   2.567  1.6566  0.0065  2.1387
   33SOL     OW   97   2.331   0.621   2.425  0.0255  0.0136 -0.3297
   33SOL    HW1   98   2.266   0.580   2.493  1.2673 -2.0397 -0.2716
   33SOL    HW2   99   2.283   0.702   2.384 -0.3179  1.2126  0.8598
   34SOL     OW  100   1.807   0.305   0.157  0.0277 -0.0749 -0.2042
   34SOL    HW1  101   1.829   0.389   0.098 -1.4492  2.3650  1.1182
   34SOL    HW2  102   1.870   0.296   0.238 -1.1107  0.1984  0.8164
   35SOL     OW  103   0.051   2.103   1.938  0.1881  0.2679 -0.7366
   35SOL    HW1  104   3.081   2.141   1.929 -0.7338  0.1748 -0.9004
   35SOL    HW2  105   0.052   2.044   2.025 -1.6886  1.0310  1.1998
   36SOL     OW  106   2.472   1.909   0.081 -0.2759  0.2844 -0.3322
   36SOL    HW1  107   2.450   1.886   3.108  1.5272 -1.8586 -0.0144
   36SOL    HW2  108   2.557   1.964   0.078  1.8931 -1.8709 -1.1481
   37SOL     OW  109   1.919   0.256   1.763 -0.0114  0.2062  0.0510
   37SOL    HW1  110   1.935   0.344   1.816  3.1909  1.0129 -1.2091
   37SOL    HW2  111   1.919   0.172   1.823 -0.0680 -0.5709  0.4638
   38SOL     OW  112   0.304   0.598   2.516  0.0917  0.2014  0.1332
   38SOL    HW1  113   0.310   0.547   2.605 -1.3863  1.4593 -1.5330
   38SOL    HW2  114   0.394   0.593   2.472 -1.5206 -2.4720 -1.0019
   39SOL     OW  115   1.941   0.880   1.410 -0.3648  0.0095 -0.2521
   39SOL    HW1  116   1.894   0.798   1.379  0.9970  3.7471  0.9464
   39SOL    HW2  117   1.925   0.959   1.346  3.6423  0.1378 -0.4066
   40SOL     OW  118   1.167   2.143   0.763 -0.4958  0.2538 -0.0872
   40SOL    HW1  119   1.094   2.141   0.835  1.1289  0.0494  2.1451
   40SOL    HW2  120   1.190   2.041   0.742 -0.0675 -2.9871  2.6306
   41SOL     OW  121   1.900   2.245   0.986  0.1783  0.3514  0.0373
   41SOL    HW1  122   1.888   2.154   0.946 -3.2710  3.1969 -2.6029
   41SOL    HW2  123   1.870   2.249   1.086 -1.6065 -1.0612  2.8329
   42SOL     OW  124   2.457   0.646   1.263  0.5161 -0.8524  0.0592
   42SOL    HW1  125   2.554   0.677   1.259 -2.0792  4.0253 -0.4279
   42SOL    HW2  126   2.425   0.656   1.359  0.5210  0.6153  0.3948
   43SOL     OW  127   0.897   1.437   2.504  1.0616 -0.0956  0.1743
   43SOL    HW1  128   0.980   1.410   2.448  1.3314 -0.5037  0.3977
   43SOL    HW2  129   0.886   1.542   2.502  1.4630  2.3689 -1.8082
   44SOL     OW  130   1.585   2.426   1.425  0.3949  0.3653 -0.0175
   44SOL    HW1  131   1.591   2.514   1.470 -1.8405 -1.7788 -2.0083
   44SOL    HW2  132   1.520   2.439   1.345  1.8119  0.7426 -1.2185
   45SOL     OW  133   0.783   2.960   2.521 -0.0018 -0.0224 -0.0202
   45SOL    HW1  134   0.867   2.996   2.473  1.6776  0.3932 -0.8303
   45SOL    HW2  135   0.786   2.858   2.538 -2.0545  0.5304  1.3506
   46SOL     OW  136   0.873   2.627   2.154 -0.8587  0.0319  0.0528
   46SOL    HW1  137   0.878   2.530   2.120 -2.2412 -0.0810 -2.0283
   46SOL    HW2  138   0.801   2.642   2.222 -1.8154 -1.1323 -2.4772
   47SOL     OW  139   0.973   2.109   0.975  0.4090 -0.3897 -0.4546
   47SOL    HW1  140   0.908   2.187   0.979 -0.3160 -1.1412  3.7366
   47SOL    HW2  141   0.930   2.016   0.984  0.9421  0.0314  1.9473
   48SOL     OW  142   0.636   2.429   1.402 -0.9324 -0.0826  0.1050
   48SOL    HW1  143   0.565   2.426   1.325 -3.7408  1.6738  0.5629
   48SOL    HW2  144   0.734   2.431   1.372 -1.1854 -2.9154  1.8218
   49SOL     OW  145   2.459   0.116   3.007  0.1027 -0.3128  0.0255
   49SOL    HW1  146   2.521   0.195   3.023  0.3118 -2.5505 -0.7104
   49SOL    HW2  147   2.516   0.052   2.950  3.2593  0.7295  0.8678
   50SOL     OW  148   1.548   0.808   0.390 -0.0896 -0.4473 -0.3784
   50SOL    HW1  149   1.609   0.775   0.315 -1.9020  0.1615  0.1449
   50SOL    HW2  150   1.502   0.898   0.373 -1.5837 -0.3331  1.6844
   51SOL     OW  151   2.276   0.527   0.914 -0.2731  0.0149  0.1395
   51SOL    HW1  152   2.185   0.543   0.958  0.9330  2.9090  0.3480
   51SOL    HW2  153   2.290   0.585   0.831  1.6008 -1.1490  2.3009
   52SOL     OW  154   0.746   1.513   0.187  0.2049 -0.2382  0.2368
   52SOL    HW1  155   0.728   1.534   0.091  3.2821 -0.3427  1.2193
   52SOL    HW2  156   0.752   1.411   0.205 -0.6659 -2.9997 -0.8473
   53SOL     OW  157   0.465   1.158   3.031 -0.5830 -0.9425 -0.0495
   53SOL    HW1  158   0.370   1.124   3.040  1.5617  1.4028  0.7341
   53SOL    HW2  159   0.537   1.107   3.081  0.5154 -1.2582  0.1090
   54SOL     OW  160   2.022   1.552   2.415 -0.2729 -0.1027 -0.6588
   54SOL    HW1  161   2.122   1.537   2.433 -0.9506  0.3471 -0.6058
   54SOL    HW2  162   2.015   1.583   2.321 -0.3251  1.6810  3.4406
   55SOL     OW  163   2.761   2.309   0.915  0.0903 -0.0880 -0.1564
   55SOL    HW1  164   2.792   2.376   0.988 -1.7752 -0.3014 -0.5644
   55SOL    HW2  165   2.680   2.263   0.954  3.8328  0.9898 -2.0921
   56SOL     OW  166   2.037   2.890   1.110  0.5278 -0.0094 -0.0119
   56SOL    HW1  167   2.010   2.908   1.204  0.4335 -1.6282 -1.6612
   56SOL    HW2  168   1.955   2.872   1.049 -0.4710  3.2461 -0.5295
   57SOL     OW  169   1.739   1.312   0.532  0.1296  0.0904  0.0593
   57SOL    HW1  170   1.663   1.344   0.590 -1.1889  2.1476 -0.0805
   57SOL    HW2  171   1.784   1.228   0.571  0.5854 -0.7054  3.2417
   58SOL     OW  172   2.333   0.052   1.385 -0.3209  0.2347  0.1521
   58SOL    HW1  173   2.325   3.075   1.393 -0.0879 -3.7705 -0.2037
   58SOL    HW2  174   2.376   0.085   1.298  0.1280 -0.6383 -0.2310
   59SOL     OW  175   1.254   2.821   2.691  0.1301  0.3360  0.0555
   59SOL    HW1  176   1.357   2.829   2.666  4.2045  0.6517 -2.3081
   59SOL    HW2  177   1.220   2.889   2.761  1.4786  2.2420  1.4142
   60SOL     OW  178   0.035   2.644   2.908 -0.4442  0.4379  0.3239
   60SOL    HW1  179   0.048   2.679   3.001 -1.0773 -1.7494  0.2394
   60SOL    HW2  180   3.110   2.717   2.849  1.3639 -1.2562  1.1985
   61SOL     OW  181   0.768   2.280   0.966 -0.1096  0.2504 -0.0915
   61SOL    HW1  182   0.804   2.363   1.005 -1.9431 -0.4475  1.1634
   61SOL    HW2  183   0.672   2.302   0.930 -0.6372 -0.5138 -0.8824
   62SOL     OW  184   1.405   1.765   1.953 -0.1861 -0.0428  0.7018
   62SOL    HW1  185   1.471   1.811   2.019  1.4722  0.6706 -0.6990
   62SOL    HW2  186   1.451   1.745   1.866  2.1897  3.0094  2.5388
   63SOL     OW  187   1.950   1.711   0.369 -1.1495 -1.0140  0.0198
   63SOL    HW1  188   2.007   1.724   0.287 -2.5814 -0.1026  2.4687
   63SOL    HW2  189   1.998   1.763   0.440 -0.6243 -0.3088 -0.2016
   64SOL     OW  190   1.727   1.339   0.260  0.5437 -0.0905 -0.0110
   64SOL    HW1  191   1.759   1.339   0.354  0.8365 -1.1927  1.9108
   64SOL    HW2  192   1.739   1.245   0.225 -0.6695  0.9435  0.3695
   65SOL     OW  193   1.609   2.304   2.308  0.3901  0.0170  0.1121
   65SOL    HW1  194   1.593   2.255   2.397 -2.5787  0.4708 -0.0964
   65SOL    HW2  195   1.571   2.244   2.233 -1.9058 -1.6164  3.0368
   66SOL     OW  196   0.315   1.121   1.433 -0.7717 -0.0235 -0.5591
   66SOL    HW1  197   0.380   1.048   1.398 -0.1416 -0.0828  0.8939
   66SOL    HW2  198   0.311   1.201   1.370 -0.9193 -0.7308 -0.4512
   67SOL     OW  199   2.332   2.795   0.449 -0.2009 -0.4436 -0.5322
   67SOL    HW1  200   2.329   2.885   0.400 -2.4478  3.9031  0.7024
   67SOL    HW2  201   2.292   2.806   0.541  0.1816  2.2203  0.8612
   68SOL     OW  202   2.058   2.443   1.280 -0.1946  0.1507  0.4841
   68SOL    HW1  203   2.130   2.380   1.308  2.8907  2.9356  0.8841
   68SOL    HW2  204   2.043   2.519   1.347 -0.7440 -0.0610 -1.4466
   69SOL     OW  205   2.702   2.044   0.042 -0.5004 -0.1052  0.1164
   69SOL    HW1  206   2.694   2.077   3.071 -0.3376  0.3969  1.9838
   69SOL    HW2  207   2.749   2.113   0.104  0.0948  0.4373 -0.3264
   70SOL     OW  208   0.190   1.070   2.209 -0.5190  0.1503 -0.1043
   70SOL    HW1  209   0.274   1.089   2.154  0.0898 -1.2103 -0.4958
   70SOL    HW2  210   0.165   1.153   2.263  1.3839 -2.4357 -2.1617
   71SOL     OW  211   0.886   1.113   2.445  0.5327  0.6290  0.5133
   71SOL    HW1  212   0.841   1.191   2.405 -1.0158  3.7000  3.8468
   71SOL    HW2  213   0.826   1.037   2.476  2.3716 -0.1882 -0.9811
   72SOL     OW  214   2.515   1.608   2.016  0.5400  0.2579  0.0064
   72SOL    HW1  215   2.514   1.506   2.022  0.7637 -0.0645  0.1794
   72SOL    HW2  216   2.590   1.644   1.956 -0.3977  0.6846 -0.3617
   73SOL     OW  217   1.229   1.956   2.728 -0.5274  0.2769 -0.7854
   73SOL    HW1  218   1.170   2.022   2.776  0.5292  1.2455  1.9959
   73SOL    HW2  219   1.312   1.937   2.783 -1.4091 -0.1678  0.4099
   74SOL     OW  220   2.073   2.950   2.666 -0.5855 -0.0036 -0.1270
   74SOL    HW1  221   1.974   2.974   2.672 -1.6667  2.0703 -0.6955
   74SOL    HW2  222   2.134   3.019   2.705 -0.9619  1.0522 -2.5633
   75SOL     OW  223   1.612   2.424   0.994 -0.4701  0.4708  0.6330
   75SOL    HW1  224   1.710   2.408   0.975 -0.7012 -0.4331  1.5588
   75SOL    HW2  225   1.562   2.376   0.918  0.2085  0.4595 -1.2925
   76SOL     OW  226   2.927   1.881   2.982  0.2678  0.1873 -0.2017
   76SOL    HW1  227   2.880   1.794   2.997  0.3611  1.0259  1.5749
   76SOL    HW2  228   3.002   1.880   3.054  1.2100  0.2531  0.5710
   77SOL     OW  229   0.076   2.716   1.414 -0.2157  0.0907 -0.2469
   77SOL    HW1  230   0.094   2.690   1.315 -3.0287 -0.1234 -2.6404
   77SOL    HW2  231   0.089   2.642   1.484 -0.1170  1.0591 -3.0857
   78SOL     OW  232   2.561   0.825   2.943 -0.6666  0.1342 -0.5564
   78SOL    HW1  233   2.629   0.857   3.010 -1.2379 -1.4563 -0.4630
   78SOL    HW2  234   2.482   0.889   2.930  3.7649  1.0442 -0.6255
   79SOL     OW  235   0.206   1.661   2.608 -0.2433  0.2376  0.3011
   79SOL    HW1  236   0.234   1.570   2.567  1.2523 -0.6036  4.2336
   79SOL    HW2  237   0.178   1.651   2.710  1.9835  2.6295  2.6425
   80SOL     OW  238   1.710   1.512   1.815 -0.6540  0.0067 -0.0286
   80SOL    HW1  239   1.797   1.507   1.763 -2.0093  1.9526  1.5773
   80SOL    HW2  240   1.702   1.431   1.881 -0.5442  0.2392  0.9948
   81SOL     OW  241   2.140   1.274   2.240  0.8490  0.3702  0.4302
   81SOL    HW1  242   2.076   1.236   2.307 -0.4037  0.2542  1.2981
   81SOL    HW2  243   2.175   1.361   2.277  2.1084 -0.8153  2.6022
   82SOL     OW  244   1.283   1.481   1.742  0.1513 -0.2937  0.3745
   82SOL    HW1  245   1.320   1.564   1.692  0.3718 -2.0334 -0.7694
   82SOL    HW2  246   1.361   1.414   1.749  1.7114  0.9227 -0.0927
   83SOL     OW  247   0.006   0.301   0.049  0.3682  0.0026 -0.0436
   83SOL    HW1  248   0.049   0.373   0.109 -1.4521 -0.4674 -0.1995
   83SOL    HW2  249   3.064   0.344   3.108 -0.5292 -0.2035 -2.4865
   84SOL     OW  250   3.003   1.005   0.063 -0.2007 -0.1376 -0.1674
   84SOL    HW1  251   3.089   0.954   0.074 -1.7606  2.6814 -2.4373
   84SOL    HW2  252   3.003   1.087   0.122 -0.7070 -1.7391 -0.2788
   85SOL     OW  253   2.215   1.921   1.892 -0.6895  0.4616  0.0781
   85SOL    HW1  254   2.313   1.893   1.910  2.8941 -0.3465 -2.4515
   85SOL    HW2  255   2.199   2.017   1.905 -0.9917 -0.8312 -0.6278
   86SOL     OW  256   0.484   0.595   1.138 -0.2369 -0.4898 -0.2059
   86SOL    HW1  257   0.455   0.631   1.049  0.3722 -0.9735  0.2399
   86SOL    HW2  258   0.555   0.520   1.132  1.7891 -0.8073 -0.1592
   87SOL     OW  259   2.795   2.039   2.139  0.4267  0.1388 -0.2657
   87SOL    HW1  260   2.690   2.046   2.145 -0.2258  0.3588 -0.5619
   87SOL    HW2  261   2.824   2.045   2.234  0.2641 -0.1785 -1.4018
   88SOL     OW  262   0.608   2.004   0.093  0.4375  0.0091 -0.0047
   88SOL    HW1  263   0.595   1.991   0.194 -2.4798  0.6546  5.2395
   88SOL    HW2  264   0.585   1.919   0.042  1.5442 -0.8026  0.8820
   89SOL     OW  265   1.414   0.723   0.124  0.4408  0.3139 -0.6289
   89SOL    HW1  266   1.369   0.797   0.179  2.5270 -0.4192 -0.6176
   89SOL    HW2  267   1.514   0.746   0.128 -1.0474 -0.2486 -1.0295
   90SOL     OW  268   0.030   1.551   2.308 -0.1278 -0.3309 -0.5665
   90SOL    HW1  269   3.060   1.516   2.340  0.9370  0.1573  1.8973
   90SOL    HW2  270   0.023   1.647   2.292  1.7208 -1.1245 -0.4656
   91SOL     OW  271   2.236   3.057   1.031  0.2108 -0.0876 -0.6803
   91SOL    HW1  272   2.150   3.001   1.044  0.3210  0.1856 -0.7880
   91SOL    HW2  273   2.279   3.052   0.937  1.3194 -0.1896  0.5978
   92SOL     OW  274   2.119   1.406   1.479 -0.0816  0.1999  0.1385
   92SOL    HW1  275   2.144   1.417   1.385  0.4888 -0.4606  2.6744
   92SOL    HW2  276   2.192   1.440   1.542 -0.6936  1.7215 -0.6324
   93SOL     OW  277   3.044   1.237   0.191 -0.0066  0.4268 -0.1238
   93SOL    HW1  278   3.085   1.217   0.278  0.0925  0.2308 -2.9562
   93SOL    HW2  279   3.108   1.276   0.123  0.1445 -1.1946  1.6250
   94SOL     OW  280   1.124   2.361   2.142 -0.7153  0.2904  0.1429
   94SOL    HW1  281   1.182   2.275   2.119 -0.1324  0.0345 -0.6624
   94SOL    HW2  282   1.155   2.409   2.224 -0.0918 -0.3787 -1.5102
   95SOL     OW  283   3.064   0.639   0.949 -0.4877  0.2092 -0.0878
   95SOL    HW1  284   0.016   0.606   1.006  1.1423 -1.0332  1.9806
   95SOL    HW2  285   3.093   0.641   0.853  1.6263  3.0876  1.5369
   96SOL     OW  286   3.057   2.797   1.760 -0.4708 -0.3424  0.4184
   96SOL    HW1  287   0.023   2.839   1.736  0.0665  0.2862  0.8632
   96SOL    HW2  288   3.075   2.711   1.811 -0.6198  0.2307  0.9212
   97SOL     OW  289   2.359   0.616   1.514  0.0336  0.1517 -0.0778
   97SOL    HW1  290   2.352   0.699   1.569 -2.2311 -0.9825 -2.9662
   97SOL    HW2  291   2.271   0.566   1.512  0.9720 -2.1867  0.6318
   98SOL     OW  292   2.372   2.542   1.427  0.7490 -0.2770 -0.6812
   98SOL    HW1  293   2.445   2.599   1.472 -0.0841  2.4600  1.1897
   98SOL    HW2  294   2.382   2.538   1.327 -0.7660 -1.4337 -0.0789
   99SOL     OW  295   0.236   0.313   1.876  0.3997  0.2345 -0.2612
   99SOL    HW1  296   0.204   0.396   1.924  0.4421 -0.6678 -1.4450
   99SOL    HW2  297   0.299   0.332   1.802 -1.1086  0.0111 -0.2524
  100SOL     OW  298   2.018   0.193   2.457 -0.2197 -0.2071  0.8337
  100SOL    HW1  299   1.978   0.117   2.400 -2.7264  2.6941 -1.2449
  100SOL    HW2  300   1.972   0.279   2.422  0.9673  0.6617 -2.4917
  101SOL     OW  301   0.024   0.067   2.442  0.4202  0.1092  0.0006
  101SOL    HW1  302   0.074   0.099   2.362 -0.6255 -1.1853  0.8903
  101SOL    HW2  303   0.033   0.133   2.514 -0.2801 -1.3050 -4.0739
  102SOL     OW  304   0.605   0.413   1.801 -0.1102 -0.5718  0.3261
  102SOL    HW1  305   0.524   0.371   1.757  2.4269 -1.4781 -0.2556
  102SOL    HW2  306   0.662   0.477   1.749  0.1931  2.5761 -1.7549
  103SOL     OW  307   0.960   0.731   2.691  0.1689  0.7114 -0.5386
  103SOL    HW1  308   1.005   0.805   2.749  0.8512 -0.9625  1.4764
  103SOL    HW2  309   1.030   0.668   2.651  1.7397  0.2948 -0.4900
  104SOL     OW  310   3.123   0.629   2.176 -0.0498  0.7447 -0.5130
  104SOL    HW1  311   0.024   0.710   2.229  2.0749  0.2008 -0.5937
  104SOL    HW2  312   3.026   0.649   2.143 -1.6778  0.8106  2.0193
  105SOL     OW  313   2.408   2.015   1.226  0.3645 -0.3349  0.2889
  105SOL    HW1  314   2.381   2.107   1.259 -0.2706  1.0370 -1.1163
  105SOL    HW2  315   2.401   1.945   1.298 -0.0160  2.0168 -0.3918
  106SOL     OW  316   1.720   0.029   0.554  0.0855  0.0161  0.0183
  106SOL    HW1  317   1.781   0.045   0.632 -0.6444 -0.4760 -0.8381
  106SOL    HW2  318   1.680   0.119   0.524 -2.1564 -3.3475 -0.2483
  107SOL     OW  319   2.191   2.199   0.931  0.0180  0.1020 -0.7110
  107SOL    HW1  320   2.097   2.204   0.973 -1.8365  0.7414  1.5249
  107SOL    HW2  321   2.204   2.112   0.886  0.6680 -0.6239  0.6746
  108SOL     OW  322   0.069   2.515   1.041  0.3443 -0.3538  0.2737
  108SOL    HW1  323   3.109   2.517   0.991  3.9848 -0.0985 -1.2959
  108SOL    HW2  324   0.109   2.421   1.042 -2.4077 -0.7667  1.2791
  109SOL     OW  325   1.887   2.480   0.873  0.1635  0.4523 -0.1045
  109SOL    HW1  326   1.983   2.523   0.880  2.8120  0.4381  2.5900
  109SOL    HW2  327   1.890   2.384   0.905  0.4234 -2.4535  0.1631
  110SOL     OW  328   1.787   1.563   1.468  0.0232  0.5418 -0.3217
  110SOL    HW1  329   1.849   1.592   1.390 -0.0558  0.1564 -0.4968
  110SOL    HW2  330   1.795   1.460   1.486  2.7859  1.7001  0.8756
  111SOL     OW  331   1.532   2.237   2.037 -0.4037 -0.0313 -0.1436
  111SOL    HW1  332   1.610   2.218   1.981 -4.4111  0.3905  2.4920
  111SOL    HW2  333   1.532   2.340   2.046 -0.5063 -0.0962 -2.9715
  112SOL     OW  334   2.014   2.129   3.012  0.2227  0.1283  0.7350
  112SOL    HW1  335   1.976   2.070   3.086  0.2199 -1.7289  0.3352
  112SOL    HW2  336   2.115   2.116   3.012  1.4474 -0.2162  0.5218
  113SOL     OW  337   1.961   1.856   1.800 -0.2551  0.2828 -0.1504
  113SOL    HW1  338   2.040   1.895   1.844 -2.2543 -0.8910  1.1597
  113SOL    HW2  339   1.961   1.753   1.803 -1.2924  0.7995  0.0033
  114SOL     OW  340   3.080   1.507   1.778 -0.2476 -0.0047  0.0383
  114SOL    HW1  341   2.994   1.486   1.732 -0.7793  0.9438  2.5240
  114SOL    HW2  342   3.076   1.495   1.878 -1.7938 -0.1656 -2.2120
  115SOL     OW  343   0.127   0.915   0.164  0.0332 -0.2349  0.4822
  115SOL    HW1  344   0.095   0.831   0.214  1.5680  0.5074  0.1185
  115SOL    HW2  345   0.206   0.952   0.217  1.0071  1.3987  2.3566
  116SOL     OW  346   2.614   1.142   2.933 -0.5845 -0.2589 -0.4632
  116SOL    HW1  347   2.616   1.200   3.018  0.1063  1.2321  0.6917
  116SOL    HW2  348   2.531   1.087   2.919 -2.3245 -1.9018  0.8937
  117SOL     OW  349   3.038   2.466   0.177  0.2124  0.0531 -0.1588
  117SOL    HW1  350   3.020   2.366   0.158 -2.1872 -2.0982 -3.2062
  117SOL    HW2  351   2.981   2.529   0.116  1.3804 -1.0943 -0.4424
  118SOL     OW  352   0.813   2.133   2.903 -0.6473 -0.4556  0.0794
  118SOL    HW1  353   0.902   2.096   2.941  0.2764 -0.1452  0.4028
  118SOL    HW2  354   0.745   2.059   2.900  0.4618 -0.2597  0.3034
  119SOL     OW  355   0.644   2.625   0.690 -0.4719  0.3194 -0.1017
  119SOL    HW1  356   0.715   2.556   0.714  0.5068  1.5092  0.5614
  119SOL    HW2  357   0.566   2.624   0.753  0.1229  0.2007 -2.9542
  120SOL     OW  358   1.389   0.415   0.305  0.1526 -0.1062  0.0030
  120SOL    HW1  359   1.435   0.365   0.231  2.0495  1.5326  0.9326
  120SOL    HW2  360   1.319   0.490   0.277 -2.8406  2.5529  0.6747
  121SOL     OW  361   1.481   2.615   1.169  0.1312  0.5845  0.6917
  121SOL    HW1  362   1.485   2.713   1.138  0.3453  0.3960  1.4530
  121SOL    HW2  363   1.532   2.550   1.105  1.2494  0.9010 -2.1511
  122SOL     OW  364   2.583   1.705   2.467 -0.2208 -0.1297 -0.0061
  122SOL    HW1  365   2.671   1.667   2.429  1.3594 -0.4009 -0.8552
  122SOL    HW2  366   2.512   1.715   2.392  0.0011  2.8687  0.2055
  123SOL     OW  367   1.390   1.407   0.987 -0.2309 -0.0279 -0.3241
  123SOL    HW1  368   1.427   1.367   1.069  0.2494 -1.0081  1.9780
  123SOL    HW2  369   1.318   1.483   0.999  0.6587  2.5914 -0.3873
  124SOL     OW  370   0.308   0.470   2.746 -0.4806 -0.3251 -0.3839
  124SOL    HW1  371   0.306   0.371   2.767 -0.0045  1.5106 -1.1564
  124SOL    HW2  372   0.400   0.512   2.771  0.6874  2.3034  1.6832
  125SOL     OW  373   0.466   0.463   0.096  0.2642  0.2241  1.0095
  125SOL    HW1  374   0.392   0.537   0.091  0.3589  1.0423  1.0072
  125SOL    HW2  375   0.436   0.368   0.071  0.5680  0.6299 -0.9003
  126SOL     OW  376   0.354   1.755   0.537 -0.1846  0.2519 -0.5968
  126SOL    HW1  377   0.427   1.742   0.469  0.4893 -0.1951  1.0997
  126SOL    HW2  378   0.333   1.658   0.565  1.2919  0.4413  1.7420
  127SOL     OW  379   1.008   2.554   1.747 -0.0690  0.3515 -0.3842
  127SOL    HW1  380   0.922   2.613   1.746 -2.1158  0.5088  0.1481
  127SOL    HW2  381   1.050   2.545   1.657 -0.1032  1.5808  2.6224
  128SOL     OW  382   1.282   1.499   0.180 -0.0249 -0.6951  0.0244
  128SOL    HW1  383   1.189   1.541   0.193 -3.9078 -1.6399  1.2670
  128SOL    HW2  384   1.339   1.525   0.098  2.4149 -0.9741 -2.0295
  129SOL     OW  385   1.708   1.922   1.855 -0.0756 -0.6570  0.0289
  129SOL    HW1  386   1.652   1.843   1.821 -0.1559 -1.3015  0.3929
  129SOL    HW2  387   1.804   1.911   1.821 -3.9115 -0.6551 -0.4927
  130SOL     OW  388   1.684   2.180   1.822 -0.3148  0.3284 -0.5921
  130SOL    HW1  389   1.691   2.076   1.811 -0.6969 -0.8360 -0.8420
  130SOL    HW2  390   1.614   2.215   1.757  3.1319  1.6848  1.3269
  131SOL     OW  391   0.055   2.369   2.020  0.6525  0.2849 -0.3544
  131SOL    HW1  392   0.084   2.273   2.003 -0.8471  1.2705  2.2087
  131SOL    HW2  393   3.102   2.361   2.083 -0.7436 -0.5880 -1.5262
  132SOL     OW  394   2.923   1.991   0.831  0.8412  0.5566  0.2173
  132SOL    HW1  395   2.965   1.916   0.778  0.8071 -0.0952  1.4395
  132SOL    HW2  396   2.914   1.963   0.930  0.2663 -0.9887  3.1924
  133SOL     OW  397   0.575   0.723   1.804 -0.0090 -0.4354 -0.3818
  133SOL    HW1  398   0.567   0.684   1.709  0.6768  1.0977  0.2675
  133SOL    HW2  399   0.662   0.692   1.849  1.0776 -0.9495 -0.4140
  134SOL     OW  400   2.824   1.804   0.168  0.0138  0.4704  0.0514
  134SOL    HW1  401   2.829   1.800   0.271  1.0510  0.8428 -1.9752
  134SOL    HW2  402   2.793   1.896   0.129 -0.2525  0.4860  0.1359
  135SOL     OW  403   1.809   1.059   2.621  0.4216 -0.3972 -0.3669
  135SOL    HW1  404   1.834   0.983   2.559 -3.3226  2.6679  3.2030
  135SOL    HW2  405   1.724   1.043   2.672  0.4982 -1.0998  3.4159
  136SOL     OW  406   2.387   1.634   1.164  0.0964 -0.2045  0.0394
  136SOL    HW1  407   2.408   1.675   1.075 -3.1174  1.8561 -0.2505
  136SOL    HW2  408   2.388   1.704   1.235 -1.0626  1.2912 -0.0079
  137SOL     OW  409   2.554   1.582   0.816  0.3266  0.0659 -0.5677
  137SOL    HW1  410   2.615   1.500   0.843  0.6989 -0.9560 -0.4376
  137SOL    HW2  411   2.571   1.595   0.717  3.5258  3.1438  1.9456
  138SOL     OW  412   2.708   0.543   0.808  0.3342  0.0905  0.0415
  138SOL    HW1  413   2.741   0.559   0.902 -0.0587  0.0244 -1.0992
  138SOL    HW2  414   2.609   0.563   0.803 -2.2736  0.1903 -0.8594
  139SOL     OW  415   3.042   2.838   3.100  0.1649  0.0795  0.4302
  139SOL    HW1  416   3.014   2.878   3.009  1.4325 -0.6864 -1.3958
  139SOL    HW2  417   3.101   2.903   0.026  0.0269  3.3140  0.1960
  140SOL     OW  418   0.780   1.380   1.399 -0.5988 -1.0697  0.4058
  140SOL    HW1  419   0.817   1.285   1.386 -0.3352 -1.5542 -1.3257
  140SOL    HW2  420   0.714   1.406   1.329 -1.4583  1.3612  0.9939
  141SOL     OW  421   1.244   1.882   0.834  0.5553  0.1829 -0.3700
  141SOL    HW1  422   1.211   1.860   0.924  0.2510  1.5983 -1.1012
  141SOL    HW2  423   1.346   1.887   0.838  0.3427 -0.7831  0.1340
  142SOL     OW  424   0.824   0.561   0.961  0.1196 -0.1794  0.2619
  142SOL    HW1  425   0.781   0.510   1.036 -0.7928 -0.3624  0.0314
  142SOL    HW2  426   0.884   0.632   1.006 -0.3095 -3.5954 -0.7392
  143SOL     OW  427   0.674   1.286   2.376  0.2146 -0.4055  0.0169
  143SOL    HW1  428   0.594   1.345   2.346 -0.6685  1.0688 -3.0964
  143SOL    HW2  429   0.730   1.341   2.442  0.4141 -2.0820  0.1975
  144SOL     OW  430   2.398   3.030   0.811  0.0263  0.3095  0.0977
  144SOL    HW1  431   2.443   3.119   0.780 -0.2041  1.0675 -0.7697
  144SOL    HW2  432   2.463   2.956   0.841 -1.7563 -0.8576 -0.3460
  145SOL     OW  433   1.945   0.150   2.721  0.0545  0.0965 -0.4925
  145SOL    HW1  434   2.037   0.121   2.769  1.7432  0.2927 -0.6043
  145SOL    HW2  435   1.965   0.160   2.620  3.1429  0.6222 -1.7730
  146SOL     OW  436   3.048   2.922   0.340  0.6541 -0.0200 -0.1225
  146SOL    HW1  437   3.096   2.951   0.251  0.5671 -1.4820 -0.2841
  146SOL    HW2  438   3.019   3.004   0.395 -2.2158 -0.9242  0.2658
  147SOL     OW  439   1.039   1.151   2.670  0.3654 -0.1348 -0.4421
  147SOL    HW1  440   1.002   1.145   2.578  0.1442  0.3845 -1.5090
  147SOL    HW2  441   1.105   1.227   2.687  1.8166 -0.2546  0.5299
  148SOL     OW  442   1.539   3.090   2.745 -0.3368 -0.7740 -0.3706
  148SOL    HW1  443   1.481   0.032   2.798 -3.8745  2.5410  1.8823
  148SOL    HW2  444   1.528   3.003   2.797 -1.5767  0.6673 -1.8161
  149SOL     OW  445   1.381   0.076   2.000 -0.0469  0.8459  0.2664
  149SOL    HW1  446   1.305   0.115   2.056 -0.5847  0.5543 -0.6885
  149SOL    HW2  447   1.466   0.077   2.056 -3.3849  1.5462 -3.3459
  150SOL     OW  448   2.421   2.731   0.027  0.9160 -0.1583  0.5064
  150SOL    HW1  449   2.321   2.709   0.016 -3.5523  1.7794  0.9867
  150SOL    HW2  450   2.467   2.666   0.087  1.9169  0.5031 -2.0159
  151SOL     OW  451   0.716   1.547   3.045 -0.0481 -0.0708  0.0066
  151SOL    HW1  452   0.629   1.502   3.026 -0.3014  1.1001  0.3316
  151SOL    HW2  453   0.798   1.496   3.010 -1.2117 -1.4102 -0.0358
  152SOL     OW  454   0.410   0.069   1.652  0.0198  0.2474  0.5605
  152SOL    HW1  455   0.343   0.042   1.575  0.4619 -1.5306 -2.3510
  152SOL    HW2  456   0.423   3.114   1.719  1.2554 -1.4204  1.9058
  153SOL     OW  457   2.419   3.002   1.820  0.3548  0.5698 -0.7832
  153SOL    HW1  458   2.515   3.013   1.789 -1.7009 -0.2895 -1.9188
  153SOL    HW2  459   2.411   3.019   1.918  0.2422  0.3579 -1.5079
  154SOL     OW  460   2.492   3.060   2.572 -0.4375  0.0722  0.2690
  154SOL    HW1  461   2.424   0.007   2.579  0.8836 -3.0016 -0.1698
  154SOL    HW2  462   2.580   3.098   2.537  0.2936  0.7815  2.0315
  155SOL     OW  463   3.114   1.195   0.469  0.6874  0.3303 -0.0399
  155SOL    HW1  464   0.074   1.247   0.459 -4.0174 -1.4912  2.2624
  155SOL    HW2  465   3.045   1.245   0.526 -1.6430 -0.7745  1.6364
  156SOL     OW  466   2.948   1.571   0.558 -0.1429  0.3575 -0.0703
  156SOL    HW1  467   2.970   1.613   0.650 -0.8693  2.0948  1.3175
  156SOL    HW2  468   2.916   1.644   0.496 -0.6580 -0.8704 -1.0112
  157SOL     OW  469   0.819   0.535   0.479 -0.6485 -0.0563 -0.3284
  157SOL    HW1  470   0.812   0.432   0.468 -1.5408  0.0584  0.0560
  157SOL    HW2  471   0.914   0.571   0.485 -0.2441  0.3484  0.3505
  158SOL     OW  472   1.906   1.079   1.211  0.1857 -0.1452 -0.6668
  158SOL    HW1  473   1.939   1.114   1.124  0.5079 -0.6019 -2.7941
  158SOL    HW2  474   1.845   1.148   1.260 -2.4566  0.2420 -0.2597
  159SOL     OW  475   0.072   0.478   0.236  0.4130 -0.4145  0.4463
  159SOL    HW1  476   0.035   0.567   0.276 -0.8222  1.9992  0.6599
  159SOL    HW2  477   0.092   0.412   0.311  0.5355 -0.1334  0.9236
  160SOL     OW  478   2.088   2.174   1.929 -0.5002 -0.1166  0.4498
  160SOL    HW1  479   2.102   2.215   2.022 -2.4905  0.0783  1.5927
  160SOL    HW2  480   2.049   2.234   1.858  0.1126 -2.0145  0.2699
  161SOL     OW  481   0.228   1.035   3.066 -0.1875 -0.9349 -0.5507
  161SOL    HW1  482   0.199   0.992   2.979  0.7639  1.2402 -0.6999
  161SOL    HW2  483   0.175   0.997   0.018  0.0880  0.1834 -0.5062
  162SOL     OW  484   0.745   0.194   1.926  0.0618 -0.4328  0.0325
  162SOL    HW1  485   0.782   0.156   1.840 -0.0585  0.4867 -2.0073
  162SOL    HW2  486   0.739   0.290   1.913 -0.2563 -2.5887 -1.4568
  163SOL     OW  487   2.872   2.856   2.531 -0.0623 -0.3702  0.8653
  163SOL    HW1  488   2.826   2.945   2.532  1.1704  0.9822 -0.1065
  163SOL    HW2  489   2.846   2.794   2.454 -0.3696  1.3708  3.2729
  164SOL     OW  490   2.326   1.944   0.526  0.2252  0.0084  0.3705
  164SOL    HW1  491   2.357   1.867   0.469 -0.4025 -1.0534 -0.2172
  164SOL    HW2  492   2.359   2.033   0.491  0.5322  0.5963 -0.8717
  165SOL     OW  493   0.462   0.200   1.352 -0.4940  0.3051 -0.7582
  165SOL    HW1  494   0.371   0.179   1.315  3.1488  0.8552 -0.3733
  165SOL    HW2  495   0.528   0.178   1.280 -0.5339 -0.5126  0.5053
  166SOL     OW  496   2.228   0.653   0.687  0.3628  0.0941 -0.1696
  166SOL    HW1  497   2.208   0.578   0.619 -3.8694  2.3874  2.1301
  166SOL    HW2  498   2.146   0.718   0.700  0.1357  1.4782 -1.6891
  167SOL     OW  499   2.348   0.908   0.083 -0.4549  0.3901  0.6804
  167SOL    HW1  500   2.325   0.814   0.105 -1.5979  0.7544 -0.6119
  167SOL    HW2  501   2.370   0.913   3.109  2.4726  1.9160 -0.6539
  168SOL     OW  502   1.496   0.095   2.503 -0.4366  0.1047  0.5537
  168SOL    HW1  503   1.529   0.005   2.545 -1.7472 -2.0626 -1.3298
  168SOL    HW2  504   1.509   0.172   2.566 -0.7843 -1.0811 -0.1391
  169SOL     OW  505   0.723   1.865   0.775  0.1209 -0.2795  0.4689
  169SOL    HW1  506   0.631   1.916   0.778 -0.0528  2.4377  0.0381
  169SOL    HW2  507   0.780   1.863   0.857  0.9797 -0.1288 -3.5672
  170SOL     OW  508   2.926   0.872   1.342  0.3119  0.3641  0.0430
  170SOL    HW1  509   2.931   0.890   1.242  0.0573  0.2059  2.1396
  170SOL    HW2  510   3.004   0.810   1.371  1.6051 -2.7090 -0.7096
  171SOL     OW  511   2.910   1.497   2.406  0.3625  0.0179  0.4887
  171SOL    HW1  512   2.869   1.424   2.466 -1.9824  1.4299  0.9993
  171SOL    HW2  513   2.845   1.525   2.329  0.0480  0.5147 -0.6419
  172SOL     OW  514   0.793   1.655   1.454  0.5635 -0.1957  0.0255
  172SOL    HW1  515   0.712   1.711   1.458  1.5001 -1.1511  1.5600
  172SOL    HW2  516   0.770   1.561   1.422  0.0226  1.1079 -0.9461
  173SOL     OW  517   2.074   1.811   3.057  0.0596  0.0045  0.3083
  173SOL    HW1  518   1.991   1.864   3.083 -0.0279 -0.4354 -0.1413
  173SOL    HW2  519   2.136   1.877   3.009  1.1497  2.1836 -0.0750
  174SOL     OW  520   1.722   0.602   2.758  0.0031  0.1338  0.3039
  174SOL    HW1  521   1.745   0.509   2.783 -1.5162  1.5139 -2.1827
  174SOL    HW2  522   1.625   0.628   2.773 -1.7318 -1.8497  1.7837
  175SOL     OW  523   1.207   1.596   1.009  0.1863  0.0246  0.2797
  175SOL    HW1  524   1.172   1.686   1.025 -2.1281 -1.1038 -2.2457
  175SOL    HW2  525   1.133   1.534   0.979  0.3775 -2.7631  0.7900
  176SOL     OW  526   1.291   0.019   0.255 -1.0098  0.2896 -0.6681
  176SOL    HW1  527   1.354   3.062   0.272  1.9355 -0.9663 -0.9963
  176SOL    HW2  528   1.294   0.081   0.336  1.9323 -2.6301  0.5650
  177SOL     OW  529   0.146   1.328   0.052 -0.0109  0.0199 -0.1170
  177SOL    HW1  530   0.228   1.288   0.105  0.5220  1.2937 -0.0536
  177SOL    HW2  531   0.142   1.286   3.083  0.1059 -2.8002  0.2865
  178SOL     OW  532   2.935   2.328   2.697 -0.1843  0.6617 -0.2886
  178SOL    HW1  533   2.918   2.380   2.784  1.2012 -1.2183  0.4477
  178SOL    HW2  534   3.032   2.309   2.688 -1.3838  1.0556 -0.7842
  179SOL     OW  535   2.715   2.566   2.660  0.3043 -0.6257  0.1534
  179SOL    HW1  536   2.672   2.635   2.599  0.2070  0.5587 -1.1215
  179SOL    HW2  537   2.747   2.487   2.613  0.3511  0.8308 -0.9695
  180SOL     OW  538   2.315   0.815   1.123  0.2723 -0.8025  0.3442
  180SOL    HW1  539   2.303   0.898   1.186  0.4208 -0.0152 -0.6971
  180SOL    HW2  540   2.336   0.726   1.161 -1.9424  1.8144 -0.5256
  181SOL     OW  541   2.156   0.562   2.623  0.0801  0.1786  0.2281
  181SOL    HW1  542   2.193   0.538   2.715  0.0453 -0.1425 -0.7126
  181SOL    HW2  543   2.078   0.500   2.599 -0.4037 -1.3399  1.5672
  182SOL     OW  544   2.602   2.400   2.376  0.0055 -0.2231 -0.6020
  182SOL    HW1  545   2.589   2.497   2.403  0.6023 -0.2101  0.3580
  182SOL    HW2  546   2.702   2.369   2.394  3.0306  0.0522 -3.0340
  183SOL     OW  547   2.027   0.886   1.911  0.2002 -0.3416 -0.0894
  183SOL    HW1  548   2.122   0.916   1.932  1.5935  1.2094  1.6279
  183SOL    HW2  549   2.029   0.817   1.836  0.3465  0.7389  0.6618
  184SOL     OW  550   0.414   1.656   0.837 -0.1017 -0.0805 -0.4316
  184SOL    HW1  551   0.415   1.565   0.886  0.1022  2.7402  1.1825
  184SOL    HW2  552   0.475   1.651   0.755 -0.1519 -0.1281  4.2680
  185SOL     OW  553   2.883   0.223   0.551  0.2057 -0.4373 -0.4305
  185SOL    HW1  554   2.814   0.237   0.624 -0.2879 -0.3687  1.2434
  185SOL    HW2  555   2.955   0.295   0.559 -0.9191  0.6380  0.6610
  186SOL     OW  556   2.282   2.494   2.569 -0.7261  0.2859 -0.4095
  186SOL    HW1  557   2.188   2.456   2.569  2.3028 -1.2388 -1.0410
  186SOL    HW2  558   2.285   2.593   2.607  0.4636  1.3954  2.2657
  187SOL     OW  559   0.647   1.463   0.635  0.4401  0.0132  0.0459
  187SOL    HW1  560   0.738   1.507   0.636  0.5319  0.7978 -1.4411
  187SOL    HW2  561   0.586   1.497   0.561  1.2601 -1.2944 -0.2743
  188SOL     OW  562   2.300   1.302   0.982  0.2536  0.2971  0.2221
  188SOL    HW1  563   2.389   1.273   0.938  0.4452 -2.5269  0.5404
  188SOL    HW2  564   2.279   1.395   0.949 -0.8572 -3.3660  0.4028
  189SOL     OW  565   0.171   1.583   2.882  0.6938  0.8318  0.1417
  189SOL    HW1  566   0.246   1.622   2.940 -2.2029 -0.6437  0.3809
  189SOL    HW2  567   0.173   1.477   2.871 -1.4763 -3.8699  1.8660
  190SOL     OW  568   2.318   0.162   2.091 -0.0652  0.5178 -0.0169
  190SOL    HW1  569   2.267   0.075   2.094  1.5987  0.9719 -2.2565
  190SOL    HW2  570   2.397   0.161   2.159  2.3539 -1.3260 -1.2946
  191SOL     OW  571   0.927   0.493   2.091  0.2445  0.3857 -0.5161
  191SOL    HW1  572   1.025   0.475   2.063  1.0682  0.0080 -1.6543
  191SOL    HW2  573   0.884   0.417   2.145  1.1380  0.7491  1.9553
  192SOL     OW  574   1.043   1.406   1.655 -0.9390  0.3788  0.1020
  192SOL    HW1  575   1.143   1.431   1.676  1.0181 -1.5847 -0.5640
  192SOL    HW2  576   0.973   1.474   1.680  1.6780 -1.0000 -0.4895
  193SOL     OW  577   1.204   2.812   0.870 -0.3516 -0.1138 -0.4721
  193SOL    HW1  578   1.203   2.865   0.958 -1.1651 -1.1028  0.8661
  193SOL    HW2  579   1.244   2.717   0.884 -1.4352 -4.0135  1.4045
  194SOL     OW  580   0.443   1.842   1.999  0.3349 -0.3291  1.0020
  194SOL    HW1  581   0.447   1.935   2.046  0.9228 -0.8807 -0.3062
  194SOL    HW2  582   0.502   1.844   1.918 -1.5725  0.9937  0.3717
  195SOL     OW  583   1.766   0.655   0.795  0.1495  0.0967  0.0525
  195SOL    HW1  584   1.734   0.736   0.741 -0.4010 -0.5227  0.8933
  195SOL    HW2  585   1.805   0.681   0.885  0.5991 -1.8205 -1.8647
  196SOL     OW  586   1.097   1.466   1.967 -0.1032  0.1657 -0.1264
  196SOL    HW1  587   1.161   1.489   1.890 -0.7560  0.9375  1.9458
  196SOL    HW2  588   1.090   1.368   1.986 -1.0860 -0.8375 -0.2253
  197SOL     OW  589   3.007   0.390   1.812 -0.2840 -0.6614  0.1971
  197SOL    HW1  590   3.022   0.334   1.894 -1.0377  2.6477  1.7843
  197SOL    HW2  591   3.050   0.482   1.830  0.2438  1.5477  0.3792
  198SOL     OW  592   0.643   0.821   1.219  0.1098  0.4293 -0.3010
  198SOL    HW1  593   0.679   0.877   1.143 -0.7552  0.6028  1.0893
  198SOL    HW2  594   0.596   0.746   1.178  3.0880  2.6450 -1.4872
  199SOL     OW  595   0.269   2.614   1.178  0.4874 -0.4742  0.0982
  199SOL    HW1  596   0.286   2.711   1.151 -1.8688 -0.3368 -1.0860
  199SOL    HW2  597   0.197   2.577   1.116 -2.6086 -1.6043  2.2417
  200SOL     OW  598   1.581   1.660   2.715 -0.7571 -0.2309  0.3644
  200SOL    HW1  599   1.559   1.562   2.741 -1.9835 -0.4957  1.9297
  200SOL    HW2  600   1.673   1.696   2.745  1.5871  0.6600  0.9881
  201SOL     OW  601   0.391   2.428   1.751  0.1929 -0.5343 -0.7192
  201SOL    HW1  602   0.429   2.475   1.665 -1.7389  1.3617 -1.4309
  201SOL    HW2  603   0.315   2.361   1.729 -0.4753 -3.2603  0.0583
  202SOL     OW  604   1.351   2.883   3.086 -0.1922 -0.1843  0.1935
  202SOL    HW1  605   1.275   2.893   3.023  2.9265 -2.1821 -0.0089
  202SOL    HW2  606   1.375   2.972   0.006 -1.9414  0.8771 -1.2327
  203SOL     OW  607   1.571   0.582   2.342 -0.2005  0.6110  0.2309
  203SOL    HW1  608   1.578   0.502   2.282  3.1058  2.6766  0.7667
  203SOL    HW2  609   1.655   0.586   2.404  1.8420 -0.0049 -0.3883
  204SOL     OW  610   0.678   1.023   1.528 -0.2476 -0.1874 -0.1474
  204SOL    HW1  611   0.646   1.066   1.616 -2.0633 -1.9882  0.2586
  204SOL    HW2  612   0.598   1.001   1.466  0.8332  0.7444 -2.8353
  205SOL     OW  613   2.108   0.929   2.793 -0.0605 -0.5265 -0.4866
  205SOL    HW1  614   2.050   0.847   2.788  2.4770 -0.3276  1.4793
  205SOL    HW2  615   2.114   0.962   2.692 -0.2370 -0.8826 -2.9875
  206SOL     OW  616   0.544   1.825   2.984 -0.1714 -0.8656 -0.2991
  206SOL    HW1  617   0.622   1.765   2.980 -1.9985  3.8285 -0.8899
  206SOL    HW2  618   0.559   1.903   2.922 -1.2224  1.0173 -0.7199
  207SOL     OW  619   0.351   0.198   2.094  0.3032  0.0649  0.1399
  207SOL    HW1  620   0.420   0.274   2.093 -0.9906  1.1429  0.8211
  207SOL    HW2  621   0.290   0.214   2.009 -0.2392 -1.8081 -1.0151
  208SOL     OW  622   0.506   2.592   1.564  0.7286  0.4032 -0.0246
  208SOL    HW1  623   0.440   2.651   1.508  0.2320  0.3951  1.6790
  208SOL    HW2  624   0.559   2.527   1.509 -1.7721  1.1285  2.6079
  209SOL     OW  625   1.258   2.684   0.124 -0.3131  0.1451 -0.3416
  209SOL    HW1  626   1.195   2.719   0.201 -1.6888 -0.3447 -0.4537
  209SOL    HW2  627   1.289   2.765   0.069 -1.1063 -0.8643 -0.5136
  210SOL     OW  628   2.815   1.472   1.679  0.1201  0.0078  0.6993
  210SOL    HW1  629   2.798   1.497   1.582 -2.1096  0.5201 -1.3328
  210SOL    HW2  630   2.759   1.391   1.709  1.3456  0.6494 -0.5316
  211SOL     OW  631   1.099   0.211   1.721 -0.1814 -0.5044  0.3462
  211SOL    HW1  632   1.095   0.303   1.682  0.4017  2.6375  0.1885
  211SOL    HW2  633   1.192   0.171   1.728 -3.8862  1.4909 -0.5275
  212SOL     OW  634   0.996   2.172   1.639  0.1611  0.1773  0.4056
  212SOL    HW1  635   0.926   2.217   1.698  2.0430 -2.2566  0.9594
  212SOL    HW2  636   1.086   2.182   1.682 -2.1813 -2.2523 -1.0708
  213SOL     OW  637   2.533   0.289   1.877 -0.1932  0.0153 -0.3974
  213SOL    HW1  638   2.579   0.366   1.929  3.5043 -0.2314  1.5095
  213SOL    HW2  639   2.482   0.236   1.941 -1.9677  0.4426 -0.3300
  214SOL     OW  640   0.631   1.827   1.786  0.8141  0.1872  0.1956
  214SOL    HW1  641   0.665   1.745   1.836 -1.0639 -1.5041 -1.2330
  214SOL    HW2  642   0.694   1.910   1.800  1.7371  1.0358 -0.4962
  215SOL     OW  643   2.684   1.915   1.258 -0.1484  0.1731 -0.0990
  215SOL    HW1  644   2.599   1.911   1.199 -1.8768  1.0041 -3.1567
  215SOL    HW2  645   2.674   1.985   1.328 -1.3583 -2.3214 -3.5263
  216SOL     OW  646   0.066   1.028   1.449  0.2424  0.1590 -0.6085
  216SOL    HW1  647   0.009   1.037   1.365  2.4373 -0.6458 -2.3727
  216SOL    HW2  648   0.164   1.047   1.434  0.2167 -0.2399  1.7806
  217SOL     OW  649   2.705   0.338   1.488  0.5592  0.3734  0.4261
  217SOL    HW1  650   2.727   0.382   1.400  1.9950 -0.7239  1.9086
  217SOL    HW2  651   2.607   0.325   1.496  1.6809  0.9110 -0.4849
  218SOL     OW  652   1.362   2.252   1.130 -0.2920 -0.4155 -0.5553
  218SOL    HW1  653   1.449   2.206   1.148 -1.4288  1.1580  1.8385
  218SOL    HW2  654   1.346   2.260   1.027  1.3760  3.0463 -2.9768
  219SOL     OW  655   1.831   2.289   0.121  0.1412  0.5076  0.1692
  219SOL    HW1  656   1.862   2.313   0.023 -1.7554  1.4446 -3.2910
  219SOL    HW2  657   1.901   2.234   0.172 -1.7023  3.0326 -1.7794
  220SOL     OW  658   2.023   2.561   0.043  0.2965 -0.1721 -0.1282
  220SOL    HW1  659   1.968   2.635   0.091  1.1641  0.7729 -0.3678
  220SOL    HW2  660   2.095   2.512   0.099 -1.4037  1.3965  2.0184
  221SOL     OW  661   2.934   1.936   1.091  0.3579 -0.1676  0.5446
  221SOL    HW1  662   3.004   1.863   1.091 -4.2455  2.2237 -1.8463
  221SOL    HW2  663   2.847   1.906   1.138 -1.2403  2.4077 -0.2098
  222SOL     OW  664   1.386   2.289   0.832 -0.0623 -0.1224  0.1554
  222SOL    HW1  665   1.466   2.284   0.766 -1.4453 -1.2597 -1.1751
  222SOL    HW2  666   1.311   2.230   0.789 -1.4009 -4.7476 -0.6004
  223SOL     OW  667   0.811   2.700   2.568 -0.0144  0.1343 -0.2934
  223SOL    HW1  668   0.766   2.612   2.591  0.0563  0.7960 -0.8881
  223SOL    HW2  669   0.916   2.696   2.580  0.6863  1.7835 -0.6668
  224SOL     OW  670   2.913   1.568   1.027 -0.2729  0.1882  0.2158
  224SOL    HW1  671   2.818   1.551   1.038  0.5630  0.2120  0.9534
  224SOL    HW2  672   2.957   1.608   1.114  0.8823  0.6540  0.0876
  225SOL     OW  673   2.188   1.446   1.221  0.5668  0.0003  0.2719
  225SOL    HW1  674   2.262   1.509   1.199  0.4119  2.1878  0.6784
  225SOL    HW2  675   2.193   1.363   1.161 -2.2887  0.1413 -1.6736
  226SOL     OW  676   1.387   2.585   0.417 -0.1232 -0.4174  0.3548
  226SOL    HW1  677   1.418   2.626   0.503  1.3982 -2.1037  2.5210
  226SOL    HW2  678   1.372   2.649   0.341 -0.0636 -0.9521  2.0188
  227SOL     OW  679   1.318   1.042   1.541  0.3047 -0.5878  0.1091
  227SOL    HW1  680   1.257   1.119   1.512  1.8526  3.2945  1.7915
  227SOL    HW2  681   1.413   1.071   1.527 -3.4301 -0.4042 -0.4227
  228SOL     OW  682   1.297   0.717   2.149 -0.4946 -0.0793  0.5513
  228SOL    HW1  683   1.247   0.787   2.090 -0.9271 -0.3998  0.6171
  228SOL    HW2  684   1.381   0.685   2.102 -0.6186  0.7382  0.0964
  229SOL     OW  685   2.659   0.701   2.716  0.3885  0.0670  0.4986
  229SOL    HW1  686   2.613   0.618   2.678 -1.7862  0.3585  0.0354
  229SOL    HW2  687   2.620   0.753   2.798  0.4570  0.2921  1.1157
  230SOL     OW  688   1.033   1.015   0.798  0.2350  0.1748  0.2795
  230SOL    HW1  689   1.102   0.946   0.800 -2.5516  3.3628 -0.8144
  230SOL    HW2  690   1.032   1.077   0.874  1.3653 -0.9229  0.1736
  231SOL     OW  691   2.394   2.873   2.102  0.1097 -0.0613  0.0613
  231SOL    HW1  692   2.480   2.831   2.075  0.0268  0.4884  0.7434
  231SOL    HW2  693   2.379   2.862   2.200 -0.7767  0.7336 -2.8149
  232SOL     OW  694   0.652   2.005   0.377 -0.3819  0.2519 -0.2801
  232SOL    HW1  695   0.705   1.924   0.413  0.8884  0.5722  0.4318
  232SOL    HW2  696   0.725   2.058   0.330  2.2425 -0.3099  1.6799
  233SOL     OW  697   1.225   2.461   2.376  0.3369 -0.2216  0.5477
  233SOL    HW1  698   1.265   2.379   2.429  0.6697 -0.2528 -0.4806
  233SOL    HW2  699   1.183   2.533   2.432  0.0760 -0.7437 -1.2388
  234SOL     OW  700   0.923   1.116   1.733  0.0545 -0.3334  0.0471
  234SOL    HW1  701   0.968   1.204   1.716 -1.6337 -0.4867 -0.8613
  234SOL    HW2  702   0.826   1.136   1.746  0.1223 -0.2052 -0.3909
  235SOL     OW  703   0.543   1.756   1.503 -0.0406 -1.2500 -0.4657
  235SOL    HW1  704   0.560   1.761   1.607  0.4441  0.8922  2.5190
  235SOL    HW2  705   0.478   1.830   1.473  0.7307  1.9115  0.2505
  236SOL     OW  706   1.757   2.887   2.544 -0.3812 -0.7262  0.4379
  236SOL    HW1  707   1.692   2.810   2.570 -0.1206  0.3937 -1.8621
  236SOL    HW2  708   1.797   2.934   2.629  2.3922  0.9707  1.0190
  237SOL     OW  709   1.336   2.985   0.700 -0.3095  0.3063  0.0707
  237SOL    HW1  710   1.298   2.928   0.776 -2.0333  0.6407  3.5981
  237SOL    HW2  711   1.287   3.074   0.692 -0.4954  0.7445  1.4603
  238SOL     OW  712   1.432   0.647   2.820 -0.2599 -0.1584 -0.4499
  238SOL    HW1  713   1.411   0.688   2.730 -1.7491  0.4705 -1.4734
  238SOL    HW2  714   1.371   0.567   2.826 -1.8414 -1.7878 -1.6802
  239SOL     OW  715   0.523   0.420   2.054 -0.2476 -0.2576  0.0128
  239SOL    HW1  716   0.483   0.510   2.072 -1.0406  0.4363 -3.4826
  239SOL    HW2  717   0.535   0.413   1.950  3.9304  0.0005 -0.6659
  240SOL     OW  718   2.148   2.587   0.835  0.2993  0.1612  0.3571
  240SOL    HW1  719   2.234   2.610   0.787 -1.1299  1.1606  0.8655
  240SOL    HW2  720   2.173   2.578   0.936  1.5238 -2.0890  3.8021
  241SOL     OW  721   1.326   1.321   1.260 -0.7157 -0.3550  0.3657
  241SOL    HW1  722   1.268   1.290   1.336 -2.7033 -1.3678 -2.8102
  241SOL    HW2  723   1.368   1.416   1.283  1.9176  5.2317  0.5784
  242SOL     OW  724   0.034   0.662   0.687 -0.6833 -0.4886 -0.7359
  242SOL    HW1  725   0.019   0.762   0.685  0.1663 -0.9589  1.3620
  242SOL    HW2  726   0.120   0.643   0.638 -2.8798  2.1231 -0.9393
  243SOL     OW  727   0.430   0.647   1.567 -0.0062 -0.2809 -0.3904
  243SOL    HW1  728   0.361   0.646   1.645  0.3783 -1.8302  3.3271
  243SOL    HW2  729   0.424   0.567   1.502  1.7638  0.0046  0.5304
  244SOL     OW  730   1.001   0.497   2.960 -0.3189 -0.2281  0.0710
  244SOL    HW1  731   0.996   0.445   3.041 -1.1560 -0.6958 -1.3185
  244SOL    HW2  732   0.948   0.580   2.971 -0.3032 -1.1337  0.3160
  245SOL     OW  733   2.088   0.875   3.067  0.8274 -0.1543  0.3254
  245SOL    HW1  734   2.113   0.902   2.969 -1.6497  0.0083 -2.0422
  245SOL    HW2  735   2.163   0.909   0.005  0.8245 -0.9313 -1.3193
  246SOL     OW  736   0.085   0.872   1.831 -0.6010  0.2045 -0.2644
  246SOL    HW1  737   0.035   0.953   1.792  0.0834  0.8928  1.1841
  246SOL    HW2  738   0.184   0.894   1.841 -1.4166  1.1702  0.1927
  247SOL     OW  739   0.589   3.011   2.237 -0.5992 -0.2460  0.0421
  247SOL    HW1  740   0.582   3.035   2.140  0.8311 -0.0832  3.2333
  247SOL    HW2  741   0.631   3.081   2.291  0.5880 -2.1297 -2.6430
  248SOL     OW  742   0.462   1.402   2.265 -0.0305  0.2271  0.0408
  248SOL    HW1  743   0.468   1.504   2.247  1.6676 -0.0429 -0.8920
  248SOL    HW2  744   0.394   1.359   2.205  3.1162  0.2063 -0.3410
  249SOL     OW  745   0.266   0.202   2.791  0.6637  0.5001 -0.2081
  249SOL    HW1  746   0.303   0.176   2.887  3.1508  0.5109 -0.4629
  249SOL    HW2  747   0.324   0.153   2.724  0.1435 -1.4199 -1.8205
  250SOL     OW  748   0.063   3.014   2.847  0.3463  0.5973  0.3343
  250SOL    HW1  749   0.148   2.968   2.864 -3.5580  1.2467 -2.5679
  250SOL    HW2  750   0.030   3.015   2.748 -0.6060  1.1500  0.1006
  251SOL     OW  751   0.387   1.459   0.554 -0.1313  0.1213 -0.3847
  251SOL    HW1  752   0.291   1.445   0.588  0.0004 -0.1671  1.5396
  251SOL    HW2  753   0.441   1.376   0.567 -0.5323  0.1984 -1.7287
  252SOL     OW  754   1.513   2.808   2.173  0.0902  0.0784 -0.2548
  252SOL    HW1  755   1.415   2.794   2.134 -2.3226  0.2845  3.2275
  252SOL    HW2  756   1.526   2.748   2.253  1.4433 -1.1388  0.7773
  253SOL     OW  757   2.010   1.857   2.641  0.3146 -0.2092 -0.0090
  253SOL    HW1  758   2.004   1.887   2.546  0.8277  0.6442 -1.0391
  253SOL    HW2  759   1.934   1.793   2.671 -0.7154 -1.2037 -1.6409
  254SOL     OW  760   0.431   1.459   1.806  0.1014 -0.4825  0.4350
  254SOL    HW1  761   0.393   1.368   1.781 -1.9371 -2.0403 -1.4583
  254SOL    HW2  762   0.530   1.471   1.787 -0.4647  1.1356  4.2152
  255SOL     OW  763   0.897   0.033   1.724  0.2886 -0.3625  0.5309
  255SOL    HW1  764   0.932   3.064   1.737 -1.6003  1.4885 -1.3461
  255SOL    HW2  765   0.974   0.100   1.750  0.5083 -0.5712  0.3309
  256SOL     OW  766   3.067   2.197   1.084  0.4186 -0.0886 -0.0967
  256SOL    HW1  767   3.003   2.237   1.153 -0.9906  1.1103  0.3713
  256SOL    HW2  768   3.029   2.111   1.052 -0.9284 -0.9982  0.4060
  257SOL     OW  769   0.277   2.884   0.256 -0.3855 -0.7443 -0.1654
  257SOL    HW1  770   0.282   2.916   0.354 -0.9255 -0.5267  0.9151
  257SOL    HW2  771   0.261   2.780   0.249  1.0723 -2.0544  1.0698
  258SOL     OW  772   0.820   1.957   2.123 -0.0361  0.1326  0.3660
  258SOL    HW1  773   0.915   1.914   2.114  2.7552 -0.1616 -3.0780
  258SOL    HW2  774   0.791   1.998   2.032 -0.6535  0.5590  1.4493
  259SOL     OW  775   1.102   1.880   2.503  0.0040 -0.0717  0.0056
  259SOL    HW1  776   1.080   1.958   2.443 -1.0831  0.0827 -0.7989
  259SOL    HW2  777   1.138   1.922   2.591 -2.1672 -0.8123 -3.4612
  260SOL     OW  778   2.232   0.875   2.324  0.2106 -0.2384 -0.1042
  260SOL    HW1  779   2.151   0.848   2.272  1.5878 -0.2526  0.0787
  260SOL    HW2  780   2.321   0.868   2.270 -1.3851 -0.5383  1.3130
  261SOL     OW  781   1.424   0.763   0.991 -0.4320 -0.5596 -0.7069
  261SOL    HW1  782   1.474   0.679   1.013 -1.4339 -1.6628 -0.1860
  261SOL    HW2  783   1.329   0.759   1.027  0.8477  0.0315  0.6187
  262SOL     OW  784   2.066   2.329   2.579 -0.6618  0.3900  0.2662
  262SOL    HW1  785   2.003   2.335   2.498 -3.0795 -1.1726  4.2661
  262SOL    HW2  786   2.039   2.246   2.634  0.0241  1.2439 -1.0409
  263SOL     OW  787   0.583   2.431   0.494  0.0272  0.2241 -0.3290
  263SOL    HW1  788   0.574   2.514   0.550 -0.2299  0.6614 -2.2674
  263SOL    HW2  789   0.681   2.422   0.465 -1.7979  1.9118 -1.1057
  264SOL     OW  790   0.253   2.237   0.560 -0.2521 -0.0827  0.0135
  264SOL    HW1  791   0.353   2.231   0.548  1.6243 -1.3743 -1.8192
  264SOL    HW2  792   0.201   2.292   0.491  0.7760  0.5445  0.4667
  265SOL     OW  793   0.609   1.213   0.308  0.5326 -0.2627 -0.1128
  265SOL    HW1  794   0.584   1.217   0.409 -1.8336 -0.3479 -0.9176
  265SOL    HW2  795   0.706   1.236   0.287 -0.4906 -0.5949  3.4379
  266SOL     OW  796   0.674   1.874   2.322 -0.2906 -0.7801 -0.2923
  266SOL    HW1  797   0.713   1.881   2.418  0.1355  0.4063 -2.4106
  266SOL    HW2  798   0.733   1.907   2.246 -2.0362 -0.4886 -0.1485
  267SOL     OW  799   1.772   0.606   2.492  0.2245 -0.5334  0.1048
  267SOL    HW1  800   1.741   0.619   2.586  1.3082 -0.3550  0.1119
  267SOL    HW2  801   1.839   0.684   2.469  2.0265  0.6576 -1.7290
  268SOL     OW  802   0.709   0.978   0.048  0.3711 -1.0065  0.2238
  268SOL    HW1  803   0.621   0.942   0.080  1.0414  0.5997  0.3105
  268SOL    HW2  804   0.779   0.978   0.123  0.3406  0.5834 -0.1070
  269SOL     OW  805   2.506   2.170   2.484 -0.4469 -0.3005 -0.3029
  269SOL    HW1  806   2.576   2.098   2.511 -0.7814 -1.8955 -3.1630
  269SOL    HW2  807   2.537   2.266   2.477 -2.3819 -1.6302 -0.9017
  270SOL     OW  808   1.771   1.799   2.853  0.2131 -0.7395 -0.3658
  270SOL    HW1  809   1.737   1.887   2.895  0.7480  0.7600 -1.1209
  270SOL    HW2  810   1.750   1.726   2.918 -0.6162  0.1850 -5.7569
  271SOL     OW  811   0.391   0.165   0.063 -0.3338 -0.0681 -0.2920
  271SOL    HW1  812   0.467   0.109   0.029  0.4699 -0.5311 -0.4097
  271SOL    HW2  813   0.310   0.134   0.006  1.5472 -1.6440 -2.8319
  272SOL     OW  814   2.642   0.511   0.360  0.4104  0.2688 -0.1668
  272SOL    HW1  815   2.694   0.567   0.427 -3.5379  0.5932  0.0172
  272SOL    HW2  816   2.544   0.532   0.369  0.3503 -2.1307 -0.6560
  273SOL     OW  817   0.497   2.968   1.792  0.0570 -0.7073 -0.4041
  273SOL    HW1  818   0.508   3.036   1.865  1.3217  1.7189 -1.7506
  273SOL    HW2  819   0.453   2.881   1.824 -0.7337  0.3716  0.2662
  274SOL     OW  820   2.940   0.606   1.579 -0.0904 -0.2359  0.3762
  274SOL    HW1  821   2.920   0.682   1.647  1.2899 -0.7412  1.0190
  274SOL    HW2  822   2.927   0.517   1.623 -0.5668 -0.3486 -2.6514
  275SOL     OW  823   0.858   1.625   0.733 -0.4750 -0.3625 -0.0972
  275SOL    HW1  824   0.955   1.633   0.701 -1.4023  2.8066  0.9124
  275SOL    HW2  825   0.818   1.717   0.743 -1.3115 -2.3565  0.0791
  276SOL     OW  826   0.529   0.812   2.218  0.2544  0.2160 -0.2076
  276SOL    HW1  827   0.533   0.900   2.266 -0.8863 -2.4720 -1.1093
  276SOL    HW2  828   0.611   0.757   2.233 -3.0076  1.1229 -0.5773
  277SOL     OW  829   1.210   2.538   1.945  0.4176 -0.2479  0.0127
  277SOL    HW1  830   1.124   2.537   1.890 -1.1079  1.0927  0.7678
  277SOL    HW2  831   1.189   2.471   2.017 -0.4584  0.8637 -1.0911
  278SOL     OW  832   1.680   2.772   1.951  0.1239 -0.4079 -0.3793
  278SOL    HW1  833   1.613   2.799   2.022 -1.1343 -0.2987  0.4877
  278SOL    HW2  834   1.722   2.855   1.906  0.1459  3.7773 -2.0350
  279SOL     OW  835   1.511   1.507   0.341  0.0120 -0.2831  0.0614
  279SOL    HW1  836   1.437   1.516   0.273  2.2151 -0.4834  0.7631
  279SOL    HW2  837   1.560   1.420   0.329 -1.3740 -0.2019  1.5931
  280SOL     OW  838   1.307   1.226   0.138 -0.1854 -0.2477  0.2937
  280SOL    HW1  839   1.209   1.214   0.108  0.8675 -1.7848 -1.7897
  280SOL    HW2  840   1.318   1.321   0.171 -2.9476 -0.5643 -0.8391
  281SOL     OW  841   0.384   0.339   1.655 -0.1030  0.3951 -0.0046
  281SOL    HW1  842   0.345   0.376   1.570  0.8421  0.4722 -0.0616
  281SOL    HW2  843   0.399   0.236   1.641  1.3688  0.4037 -1.7029
  282SOL     OW  844   0.143   2.708   0.577  0.6626  0.1716 -0.3232
  282SOL    HW1  845   0.103   2.679   0.487  0.4666  1.5568 -0.2068
  282SOL    HW2  846   0.174   2.625   0.625 -1.0030  1.7974 -0.8491
  283SOL     OW  847   1.266   2.139   2.084 -0.1654  0.5892 -0.1117
  283SOL    HW1  848   1.222   2.068   2.030 -0.7372 -1.2719  3.0502
  283SOL    HW2  849   1.362   2.154   2.061 -3.1813 -1.8522 -2.9282
  284SOL     OW  850   2.851   2.866   1.083  0.1982  0.0328 -0.1569
  284SOL    HW1  851   2.808   2.948   1.040  0.3078 -0.1734  2.0462
  284SOL    HW2  852   2.883   2.892   1.176 -1.8737  1.0681 -0.8631
  285SOL     OW  853   0.323   2.189   2.525 -0.7280 -0.1773 -0.1637
  285SOL    HW1  854   0.332   2.249   2.445  0.2748 -1.9422  1.4002
  285SOL    HW2  855   0.397   2.208   2.588  1.5839 -0.8689 -0.2979
  286SOL     OW  856   0.176   0.050   0.631  0.4759  0.1170  0.0821
  286SOL    HW1  857   0.205   0.137   0.675  2.3764 -1.2774  1.1009
  286SOL    HW2  858   0.075   0.046   0.614 -1.4260  1.2097 -1.3001
  287SOL     OW  859   0.631   0.910   0.546  0.3310  0.0476 -0.6266
  287SOL    HW1  860   0.729   0.909   0.575  2.8157 -2.7263 -1.0409
  287SOL    HW2  861   0.597   1.007   0.551 -0.6304  1.8339 -1.4362
  288SOL     OW  862   2.249   1.941   2.802 -0.2384  0.4013 -0.3500
  288SOL    HW1  863   2.266   2.017   2.739 -0.9040 -2.2775 -0.2893
  288SOL    HW2  864   2.164   1.890   2.770 -0.3038 -1.8237 -0.6226
  289SOL     OW  865   0.144   2.009   2.843 -0.2124 -0.5682 -0.6925
  289SOL    HW1  866   0.219   1.963   2.792  0.7785 -2.7397 -0.2183
  289SOL    HW2  867   0.054   1.984   2.806 -1.1973 -0.7745  1.6605
  290SOL     OW  868   1.386   1.591   1.264  0.3158 -0.1150 -0.0250
  290SOL    HW1  869   1.312   1.610   1.199 -1.9267 -1.1269  0.8824
  290SOL    HW2  870   1.468   1.654   1.243  2.5918  0.7894 -0.9571
  291SOL     OW  871   1.502   1.301   2.929  0.0648 -0.1669  0.1591
  291SOL    HW1  872   1.480   1.374   2.993 -0.4359 -0.9272 -0.8349
  291SOL    HW2  873   1.470   1.213   2.973 -1.1670 -2.3100  3.4714
  292SOL     OW  874   1.012   1.589   0.249  0.1598  0.2766  0.0592
  292SOL    HW1  875   1.032   1.526   0.328 -1.1128 -0.2352  0.1729
  292SOL    HW2  876   0.917   1.574   0.217  0.1187  0.1845 -0.3105
  293SOL     OW  877   1.485   2.866   1.044  0.3949  0.0947  0.0638
  293SOL    HW1  878   1.395   2.904   1.068 -2.2527 -0.7577  0.4774
  293SOL    HW2  879   1.489   2.839   0.945 -0.6929  0.3972  1.6786
  294SOL     OW  880   1.927   1.245   2.437 -0.0363  0.4205  0.7760
  294SOL    HW1  881   1.890   1.196   2.520 -2.1687  1.2747 -0.4803
  294SOL    HW2  882   1.913   1.345   2.454 -1.8899 -0.5408  0.1159
  295SOL     OW  883   1.905   1.969   0.101 -0.1124  0.1701 -0.2977
  295SOL    HW1  884   1.835   1.922   0.159 -0.7375 -1.7295 -0.7382
  295SOL    HW2  885   1.949   2.044   0.155 -3.0807  2.1281 -0.0576
  296SOL     OW  886   1.291   0.658   1.775  0.0933 -0.4177  0.3721
  296SOL    HW1  887   1.361   0.589   1.796  1.7275 -1.2006 -0.9594
  296SOL    HW2  888   1.326   0.709   1.695 -0.7799 -0.8663 -3.3068
  297SOL     OW  889   2.868   0.698   2.083 -0.1276  0.6042 -0.0103
  297SOL    HW1  890   2.809   0.778   2.049 -1.7236  0.5123 -2.4894
  297SOL    HW2  891   2.820   0.656   2.164 -1.6974 -1.7949  2.2441
  298SOL     OW  892   0.892   1.619   1.698 -0.0186  0.3299  0.1210
  298SOL    HW1  893   0.888   1.708   1.749 -2.4469  0.6091  2.2239
  298SOL    HW2  894   0.876   1.637   1.596  3.5470  2.4962 -0.1735
  299SOL     OW  895   1.056   0.110   2.564 -0.0717 -0.0567 -0.7243
  299SOL    HW1  896   1.147   0.145   2.534  0.0558  2.7712  0.6283
  299SOL    HW2  897   1.023   0.041   2.498 -1.8021 -0.1506 -1.7114
  300SOL     OW  898   3.029   1.132   2.955  0.2736 -0.0075 -0.3149
  300SOL    HW1  899   2.957   1.134   2.879  2.2487 -0.5233  0.6510
  300SOL    HW2  900   2.996   1.097   3.042  1.5864  2.2335  0.1560
  301SOL     OW  901   1.928   0.823   2.447  0.1532 -0.2410  0.0440
  301SOL    HW1  902   1.955   0.817   2.345  0.0831 -1.6331 -0.6412
  301SOL    HW2  903   1.990   0.889   2.491 -0.4792  2.2934  1.9076
  302SOL     OW  904   2.464   1.857   2.945 -0.6839 -0.2615 -0.2950
  302SOL    HW1  905   2.388   1.887   2.886 -1.9092  2.0408 -0.2601
  302SOL    HW2  906   2.554   1.890   2.912 -1.8297 -2.2893 -3.6147
  303SOL     OW  907   0.453   2.405   2.933  0.1853 -0.1798  0.4016
  303SOL    HW1  908   0.435   2.495   2.985 -0.2925 -0.1231 -3.6802
  303SOL    HW2  909   0.483   2.338   2.999  1.6707  3.2447 -1.5380
  304SOL     OW  910   0.187   1.700   1.296 -0.2569  0.5757 -0.1377
  304SOL    HW1  911   0.145   1.757   1.371  1.3876 -0.2271 -3.5244
  304SOL    HW2  912   0.249   1.630   1.335  0.0680 -0.4195  1.0318
  305SOL     OW  913   2.428   0.858   2.135 -0.0951 -0.0871  0.4696
  305SOL    HW1  914   2.408   0.773   2.080  0.1904 -2.1653  0.1968
  305SOL    HW2  915   2.526   0.870   2.160 -2.3136 -1.7206  2.3239
  306SOL     OW  916   1.852   1.311   1.496 -0.1528 -0.1751 -0.0844
  306SOL    HW1  917   1.854   1.212   1.525  1.1719  1.8070 -0.3542
  306SOL    HW2  918   1.948   1.342   1.488 -0.2576 -1.6133 -1.2682
  307SOL     OW  919   3.009   0.302   0.847 -0.2094 -0.3743 -0.0934
  307SOL    HW1  920   3.046   0.355   0.770 -1.0042  0.2040  1.3421
  307SOL    HW2  921   2.908   0.281   0.834 -3.1240 -2.1605  0.2728
  308SOL     OW  922   3.005   1.670   1.553  0.4197 -0.5791 -0.6331
  308SOL    HW1  923   3.077   1.739   1.521  0.0460  0.3376  0.6540
  308SOL    HW2  924   3.036   1.614   1.637 -0.4762 -0.7359  3.7045
  309SOL     OW  925   2.453   2.489   1.796 -0.2163 -0.0293 -0.0884
  309SOL    HW1  926   2.429   2.561   1.726  4.3918  1.2101  2.2474
  309SOL    HW2  927   2.431   2.516   1.890 -2.0146 -0.4926  0.2927
  310SOL     OW  928   2.355   1.296   2.604 -0.2291  0.3341 -0.1245
  310SOL    HW1  929   2.419   1.363   2.646 -1.1982  0.6490 -2.1267
  310SOL    HW2  930   2.259   1.314   2.635  2.0068 -2.5860 -2.0230
  311SOL     OW  931   1.809   1.343   2.975 -0.1703  0.3723  0.5266
  311SOL    HW1  932   1.712   1.306   2.994 -1.1377  1.4983 -1.0861
  311SOL    HW2  933   1.869   1.278   2.921  3.9896  4.4614 -0.5204
  312SOL     OW  934   1.084   2.123   2.381 -0.7543  0.5055 -0.6242
  312SOL    HW1  935   1.094   2.117   2.279 -2.0305  1.0717  0.5684
  312SOL    HW2  936   1.177   2.149   2.421 -0.4160 -0.7128 -0.4951
  313SOL     OW  937   0.115   0.323   1.005 -0.4935 -0.9154  0.3392
  313SOL    HW1  938   0.025   0.316   0.960 -4.0959  0.1205 -1.4756
  313SOL    HW2  939   0.110   0.405   1.067 -1.8874  1.4845  0.4690
  314SOL     OW  940   0.540   2.020   1.147 -0.1010  0.1663  0.0647
  314SOL    HW1  941   0.601   2.065   1.213 -0.7779  0.4397 -2.0798
  314SOL    HW2  942   0.496   1.932   1.173 -1.0099 -2.0473  0.6177
  315SOL     OW  943   0.440   2.158   2.030  0.1860 -0.3651  0.2395
  315SOL    HW1  944   0.399   2.252   2.033 -1.2476 -0.5589  1.9685
  315SOL    HW2  945   0.468   2.130   2.124  2.4985  0.0077 -1.6785
  316SOL     OW  946   0.378   2.579   0.828  0.2254 -0.7487  0.2625
  316SOL    HW1  947   0.319   2.574   0.744  0.8870  0.6930 -0.8264
  316SOL    HW2  948   0.324   2.608   0.907 -2.2282 -1.2233 -0.3791
  317SOL     OW  949   2.820   0.051   1.523  0.3985  0.0166 -0.4792
  317SOL    HW1  950   2.790   0.147   1.526 -0.1333 -0.4736  0.5050
  317SOL    HW2  951   2.742   3.117   1.486 -1.5669  2.0277  0.7511
  318SOL     OW  952   2.243   2.444   0.143  0.7397  0.3968  0.3344
  318SOL    HW1  953   2.336   2.463   0.107 -1.1785 -0.1929  2.3087
  318SOL    HW2  954   2.237   2.483   0.238 -2.8922 -1.4233 -0.3873
  319SOL     OW  955   1.469   1.272   2.659 -0.1981  0.1946  0.1706
  319SOL    HW1  956   1.476   1.292   2.757  0.5140 -1.3963 -1.7410
  319SOL    HW2  957   1.494   1.173   2.643  1.8722  0.9784 -2.8655
  320SOL     OW  958   0.300   2.416   2.341  0.0348  0.1311  0.0239
  320SOL    HW1  959   0.219   2.454   2.291  0.4554 -2.0291 -0.9839
  320SOL    HW2  960   0.390   2.440   2.300  1.7738  0.9530  1.9081
  321SOL     OW  961   0.892   2.358   0.149 -0.0606  0.0144 -0.4429
  321SOL    HW1  962   0.985   2.388   0.133  0.6809 -3.2602  1.5662
  321SOL    HW2  963   0.818   2.420   0.110 -1.1654 -2.3566 -2.9550
  322SOL     OW  964   2.509   0.452   2.304 -0.6221  0.1810 -0.6512
  322SOL    HW1  965   2.491   0.420   2.213  1.1489  1.3439  0.0616
  322SOL    HW2  966   2.424   0.499   2.340 -0.5887 -0.0663 -1.1860
  323SOL     OW  967   2.951   1.244   0.837 -0.0764  0.4264 -0.0274
  323SOL    HW1  968   3.017   1.277   0.900 -1.7282 -1.7514 -1.2148
  323SOL    HW2  969   2.951   1.141   0.839  1.7689  1.2191 -0.6058
  324SOL     OW  970   0.186   0.610   1.712 -0.1637  0.4530  0.0609
  324SOL    HW1  971   0.163   0.593   1.809 -0.8523 -0.2232 -0.3144
  324SOL    HW2  972   0.106   0.660   1.668 -0.9914  1.0845 -5.1453
  325SOL     OW  973   0.073   0.047   1.857 -0.0393  0.4923  0.1521
  325SOL    HW1  974   0.042   0.037   1.760 -1.3913  1.9293 -2.7840
  325SOL    HW2  975   0.139   0.126   1.864  0.3134  3.4050 -0.6935
  326SOL     OW  976   2.144   2.858   0.164 -1.0828  0.6307  0.1592
  326SOL    HW1  977   2.194   2.889   0.246 -2.1173  1.7080  0.6212
  326SOL    HW2  978   2.067   2.794   0.191 -0.3906  2.4178 -1.6189
  327SOL     OW  979   2.191   1.610   0.574  0.5338 -0.0166 -0.0892
  327SOL    HW1  980   2.142   1.697   0.577  0.1814 -1.1520  2.7213
  327SOL    HW2  981   2.174   1.561   0.490 -2.0128 -0.6144  3.7392
  328SOL     OW  982   3.078   2.098   2.545 -0.3483 -0.0582 -0.0931
  328SOL    HW1  983   3.061   2.037   2.630  0.0424 -0.2140 -1.7681
  328SOL    HW2  984   3.108   2.191   2.580 -0.8206 -0.5046 -0.0777
  329SOL     OW  985   0.198   2.251   1.529 -0.3809 -0.2817  0.0999
  329SOL    HW1  986   0.229   2.237   1.432  0.6980  1.1838 -2.7892
  329SOL    HW2  987   0.243   2.188   1.594 -0.9991  2.8017  0.4572
  330SOL     OW  988   2.530   1.132   2.484 -0.2766  0.0071  0.2762
  330SOL    HW1  989   2.519   1.035   2.468 -0.1871  1.6383 -0.3511
  330SOL    HW2  990   2.446   1.173   2.529 -0.1682  2.6574  0.2932
  331SOL     OW  991   2.787   2.456   1.144  0.4315 -0.2170 -0.1788
  331SOL    HW1  992   2.840   2.388   1.195 -0.9134 -0.7098  0.8376
  331SOL    HW2  993   2.729   2.514   1.207  2.7561 -0.8599 -1.6202
  332SOL     OW  994   0.642   3.096   0.835 -0.2643  0.7267  0.0264
  332SOL    HW1  995   0.561   0.011   0.875  1.6332 -0.8622 -1.8713
  332SOL    HW2  996   0.664   3.003   0.870 -2.8039 -1.0595  0.6990
  333SOL     OW  997   2.304   2.156   2.669  0.7299  0.4368  0.2462
  333SOL    HW1  998   2.246   2.236   2.663 -1.2318 -0.7228 -0.8341
  333SOL    HW2  999   2.382   2.163   2.604 -0.8481 -2.2760  0.2986
  334SOL     OW 1000   0.550   1.183   0.569  0.1207  0.9857  0.1288
  334SOL    HW1 1001   0.473   1.146   0.620  2.0918  0.6083 -1.1613
  334SOL    HW2 1002   0.593   1.261   0.624  0.0626  1.7218  1.5723
  335SOL     OW 1003   2.823   2.042   2.394 -0.5004  0.1426 -0.5198
  335SOL    HW1 1004   2.916   2.044   2.438 -0.5845 -1.3954  0.4175
  335SOL    HW2 1005   2.754   2.008   2.460 -1.6134 -0.6532 -1.3822
  336SOL     OW 1006   2.358   2.901   2.390  0.1585 -0.1633  0.6828
  336SOL    HW1 1007   2.408   2.948   2.466  0.6713 -0.7587 -0.6383
  336SOL    HW2 1008   2.260   2.872   2.410  0.8040 -0.1166 -1.2306
  337SOL     OW 1009   0.713   0.794   0.830 -0.2398 -0.0803  0.8132
  337SOL    HW1 1010   0.723   0.700   0.865  0.3223  3.2883  0.7021
  337SOL    HW2 1011   0.731   0.792   0.732 -0.0523 -0.8816 -0.3782
  338SOL     OW 1012   1.164   1.841   1.118 -0.7264 -0.4615  0.1727
  338SOL    HW1 1013   1.065   1.839   1.154 -0.7014 -1.3872 -1.3086
  338SOL    HW2 1014   1.222   1.885   1.192 -0.9706  0.1267  2.5114
  339SOL     OW 1015   0.080   1.849   1.503 -0.3720  0.1391  0.1615
  339SOL    HW1 1016   0.046   1.928   1.454 -3.4933  1.4066  1.7506
  339SOL    HW2 1017   0.094   1.873   1.598  0.0144  1.2200 -0.5452
  340SOL     OW 1018   1.370   2.628   1.730  0.0873 -0.1624  0.3054
  340SOL    HW1 1019   1.471   2.614   1.741 -0.7294  1.4677 -0.6965
  340SOL    HW2 1020   1.326   2.579   1.808 -0.1360 -0.2679  0.8709
  341SOL     OW 1021   1.650   1.487   1.106  0.4545 -0.2465  0.3767
  341SOL    HW1 1022   1.595   1.461   1.026 -0.4006  0.6436  1.1750
  341SOL    HW2 1023   1.625   1.582   1.140 -0.6396 -1.2026 -0.7408
  342SOL     OW 1024   2.594   1.445   1.188  0.8820  0.0167  0.2466
  342SOL    HW1 1025   2.513   1.504   1.166 -0.3014 -2.7768 -0.3756
  342SOL    HW2 1026   2.624   1.401   1.100 -1.3410  0.5739  0.1359
  343SOL     OW 1027   2.365   0.409   1.135 -0.1359 -0.6160  0.7231
  343SOL    HW1 1028   2.402   0.484   1.185 -2.7103 -3.2404 -1.8653
  343SOL    HW2 1029   2.316   0.437   1.049 -0.7440 -0.2545 -2.2004
  344SOL     OW 1030   2.097   0.091   0.588  0.2543  0.4002 -0.0742
  344SOL    HW1 1031   2.163   0.150   0.638  1.9150  0.1348 -0.9967
  344SOL    HW2 1032   2.018   0.079   0.653  1.0426  1.0025  1.8210
  345SOL     OW 1033   0.798   2.803   1.975  0.0998  0.0519 -0.3025
  345SOL    HW1 1034   0.818   2.726   2.038 -2.3266 -0.7079 -0.3701
  345SOL    HW2 1035   0.763   2.768   1.883  0.3912 -1.9102 -1.5772
  346SOL     OW 1036   2.814   2.161   0.662  0.1188 -0.2767 -0.2318
  346SOL    HW1 1037   2.866   2.085   0.698 -0.5155 -0.5099 -1.7938
  346SOL    HW2 1038   2.790   2.228   0.735 -1.4009 -0.8407  0.6268
  347SOL     OW 1039   2.461   2.960   1.159 -0.2501 -0.0868  0.1981
  347SOL    HW1 1040   2.419   2.907   1.231  0.7578  0.6549  0.4903
  347SOL    HW2 1041   2.387   3.000   1.098 -1.5374  0.0533  1.5660
  348SOL     OW 1042   1.122   0.957   1.188 -0.6763  0.2305 -0.5142
  348SOL    HW1 1043   1.205   1.008   1.155 -0.3653  0.4949 -1.8824
  348SOL    HW2 1044   1.153   0.858   1.189  1.3010 -2.9972  1.2875
  349SOL     OW 1045   2.241   0.413   2.011 -0.1676  0.0147  0.3282
  349SOL    HW1 1046   2.156   0.441   2.058  2.2829  0.0297 -0.4389
  349SOL    HW2 1047   2.266   0.321   2.038 -0.7524  2.4607  0.3003
  350SOL     OW 1048   2.245   2.525   0.387 -0.5464 -0.1444 -0.1653
  350SOL    HW1 1049   2.292   2.608   0.414  1.2488 -0.0014  1.7606
  350SOL    HW2 1050   2.219   2.474   0.468  0.7361  1.3773  0.7516
  351SOL     OW 1051   1.239   0.423   2.833  0.5758  0.0598  0.2076
  351SOL    HW1 1052   1.226   0.327   2.871  0.1012 -0.1615 -0.5908
  351SOL    HW2 1053   1.162   0.480   2.868  0.3318 -1.1938 -1.3898
  352SOL     OW 1054   1.989   2.623   2.292 -0.0739 -0.2934  0.0118
  352SOL    HW1 1055   1.928   2.599   2.372  0.6876  1.5528  1.3452
  352SOL    HW2 1056   1.944   2.599   2.203 -1.0418 -0.7175  1.4258
  353SOL     OW 1057   0.412   1.053   2.498  0.5999 -0.0901 -0.1458
  353SOL    HW1 1058   0.436   1.060   2.401  1.9135 -0.9151  4.3669
  353SOL    HW2 1059   0.451   0.966   2.536  0.9223 -0.8473 -3.0584
  354SOL     OW 1060   0.417   2.876   2.667  0.4056  0.0901 -0.4036
  354SOL    HW1 1061   0.384   2.785   2.632  1.5317  1.4267 -2.6114
  354SOL    HW2 1062   0.470   2.869   2.753  1.6854  2.1152 -1.6845
  355SOL     OW 1063   2.303   2.875   1.396 -0.0414 -0.2552  0.0077
  355SOL    HW1 1064   2.209   2.905   1.369  2.0279 -1.7887 -1.4982
  355SOL    HW2 1065   2.297   2.833   1.487 -1.7425  2.0929 -0.7051
  356SOL     OW 1066   2.411   0.661   0.397 -0.5982  0.3121  0.0700
  356SOL    HW1 1067   2.446   0.740   0.454  0.9430  0.1611  2.0959
  356SOL    HW2 1068   2.312   0.653   0.393  1.3596 -0.6106 -1.9400
  357SOL     OW 1069   3.083   0.067   1.604  0.5358  0.7465  0.1930
  357SOL    HW1 1070   3.087   0.159   1.557  0.4514  0.2676 -2.0923
  357SOL    HW2 1071   2.988   0.028   1.601  0.3459 -0.8687  0.4674
  358SOL     OW 1072   2.931   1.546   1.327  0.5103  0.5679 -0.1461
  358SOL    HW1 1073   2.961   1.595   1.410  1.8397 -0.0635 -2.3341
  358SOL    HW2 1074   2.832   1.538   1.331  0.9459  0.8786  2.3183
  359SOL     OW 1075   2.585   3.027   2.835  0.0969  0.0097 -0.4196
  359SOL    HW1 1076   2.560   3.038   2.738 -1.0245  1.4621  0.1496
  359SOL    HW2 1077   2.685   3.032   2.856 -0.8103 -1.9825  0.0422
  360SOL     OW 1078   1.224   0.576   1.393  0.1405 -0.0269  0.0450
  360SOL    HW1 1079   1.171   0.510   1.450  0.2719  0.1891 -0.9580
  360SOL    HW2 1080   1.249   0.661   1.450  0.6216 -2.5559 -1.6096
  361SOL     OW 1081   2.588   2.704   1.526  0.5956  0.0507 -0.3039
  361SOL    HW1 1082   2.657   2.671   1.588 -3.0879  0.7731 -2.7300
  361SOL    HW2 1083   2.629   2.713   1.436  0.3494 -0.9429  3.9216
  362SOL     OW 1084   1.534   0.437   0.784 -0.1892  0.0353  0.2752
  362SOL    HW1 1085   1.564   0.497   0.703  1.4597 -1.2742 -3.5216
  362SOL    HW2 1086   1.525   0.343   0.753  0.5219 -0.7998 -2.9015
  363SOL     OW 1087   1.826   1.355   0.961  0.1904 -0.0025  0.4017
  363SOL    HW1 1088   1.869   1.428   0.900  0.6752  3.4319 -0.7348
  363SOL    HW2 1089   1.759   1.399   1.030  0.0531 -0.3181  2.1111
  364SOL     OW 1090   0.345   0.901   1.864  0.0074  0.2470  0.1520
  364SOL    HW1 1091   0.333   0.825   1.933 -1.8467 -0.7388  2.5505
  364SOL    HW2 1092   0.416   0.874   1.794 -0.5109 -5.5352  0.5541
  365SOL     OW 1093   2.791   0.620   1.064  0.0929 -0.4792  0.1470
  365SOL    HW1 1094   2.885   0.639   1.030  2.0822 -1.4038 -1.0583
  365SOL    HW2 1095   2.761   0.673   1.144 -2.7165 -0.2392 -2.0945
  366SOL     OW 1096   2.733   1.095   0.402 -1.0425  0.3008  0.9213
  366SOL    HW1 1097   2.672   1.097   0.318 -1.9722 -1.5911 -2.6991
  366SOL    HW2 1098   2.798   1.174   0.412 -0.0079  3.5631 -1.9151
  367SOL     OW 1099   2.313   2.070   2.285  0.1897  0.2802 -0.1858
  367SOL    HW1 1100   2.234   2.136   2.288  0.5018  0.3082 -0.5492
  367SOL    HW2 1101   2.365   2.084   2.372 -0.5111  2.3917 -0.2549
  368SOL     OW 1102   2.575   2.145   1.054  0.2947  0.4604  0.1984
  368SOL    HW1 1103   2.501   2.112   1.115 -0.8221  1.8503 -0.7120
  368SOL    HW2 1104   2.645   2.069   1.038 -0.2504 -1.3403  1.5305
  369SOL     OW 1105   2.173   0.046   2.815 -0.1118 -0.4815  0.0633
  369SOL    HW1 1106   2.179   3.125   2.903 -1.6344 -0.1473  1.2701
  369SOL    HW2 1107   2.244   0.120   2.816  0.5990 -6.1830 -2.3818
  370SOL     OW 1108   0.686   0.427   1.158  0.2094  0.3648  0.4884
  370SOL    HW1 1109   0.641   0.342   1.127  2.7912 -0.8528 -3.2725
  370SOL    HW2 1110   0.748   0.416   1.239  2.1649 -0.5008  1.5434
  371SOL     OW 1111   0.354   1.515   0.262 -0.1230  0.4753  0.0438
  371SOL    HW1 1112   0.316   1.566   0.182  1.9360  1.3688 -2.8146
  371SOL    HW2 1113   0.449   1.552   0.290  1.8816  1.0536  0.7922
  372SOL     OW 1114   0.483   0.806   2.609  0.0639  0.2477  0.6142
  372SOL    HW1 1115   0.461   0.748   2.689 -0.6742  1.4652  3.4111
  372SOL    HW2 1116   0.583   0.800   2.586 -0.3247 -3.0971  1.3867
  373SOL     OW 1117   1.166   2.988   2.925  0.8893 -0.1965 -0.0341
  373SOL    HW1 1118   1.073   2.941   2.947 -1.1810 -1.0299 -2.4314
  373SOL    HW2 1119   1.150   3.083   2.891 -0.7105 -0.9577 -0.3650
  374SOL     OW 1120   1.050   1.785   0.419 -0.1018 -0.0640 -0.0411
  374SOL    HW1 1121   1.092   1.753   0.506  0.4061  1.3137  0.0391
  374SOL    HW2 1122   1.046   1.705   0.354 -1.7261  0.4230  0.1371
  375SOL     OW 1123   0.409   0.676   2.013 -0.2925 -0.3144  0.0343
  375SOL    HW1 1124   0.449   0.730   2.093 -0.7746  0.0139  0.0262
  375SOL    HW2 1125   0.468   0.689   1.934 -1.6191  1.1232  1.2291
  376SOL     OW 1126   0.072   2.495   1.586  0.4044  0.0961  0.2092
  376SOL    HW1 1127   0.119   2.414   1.552 -2.6581  1.0629 -0.3733
  376SOL    HW2 1128   0.073   2.503   1.687  1.7535 -1.0608 -1.8115
  377SOL     OW 1129   2.769   1.627   2.923  0.1758  0.3367 -0.5616
  377SOL    HW1 1130   2.694   1.652   2.861  1.2597  1.2655  1.5916
  377SOL    HW2 1131   2.853   1.600   2.875 -0.2848 -0.4719  2.2232
  378SOL     OW 1132   2.075   2.975   3.069  0.3524  0.4167 -0.0275
  378SOL    HW1 1133   2.104   2.906   0.013  1.1081 -1.9087  0.4812
  378SOL    HW2 1134   1.987   2.949   3.014 -2.9218 -2.1794 -5.5899
  379SOL     OW 1135   1.853   0.463   0.603  0.5032  0.9186  0.2909
  379SOL    HW1 1136   1.936   0.429   0.654  1.2018  1.9547  1.7743
  379SOL    HW2 1137   1.814   0.549   0.647  1.1161 -0.9325  0.0265
  380SOL     OW 1138   2.745   2.157   1.855  0.2936  0.2706  0.3131
  380SOL    HW1 1139   2.733   2.122   1.949  1.1960  2.0779  0.1996
  380SOL    HW2 1140   2.718   2.081   1.795  3.7134  0.1032 -3.6359
  381SOL     OW 1141   2.290   1.508   2.399  0.3331  0.3305 -0.3948
  381SOL    HW1 1142   2.341   1.593   2.370  0.7942  3.4643 -0.8306
  381SOL    HW2 1143   2.340   1.460   2.474 -0.3759 -0.6094  2.0474
  382SOL     OW 1144   2.943   2.794   2.797 -0.2214 -0.2398 -0.5158
  382SOL    HW1 1145   2.881   2.730   2.842 -0.8694  1.5130 -0.9114
  382SOL    HW2 1146   2.910   2.813   2.703 -0.3186 -1.2149  1.3782
  383SOL     OW 1147   1.065   1.256   0.026 -0.2126 -0.4003 -0.1392
  383SOL    HW1 1148   1.018   1.176   3.116  2.3897  0.9675  0.3203
  383SOL    HW2 1149   1.041   1.337   3.087 -0.3820 -0.2264 -2.5364
  384SOL     OW 1150   1.323   1.935   1.557  0.2236 -0.2582 -0.4022
  384SOL    HW1 1151   1.243   2.002   1.569 -3.4826  0.2250  0.0139
  384SOL    HW2 1152   1.366   1.926   1.651  0.9985  0.3878  1.0404
  385SOL     OW 1153   1.724   2.608   0.696  0.4753  0.1917 -0.2928
  385SOL    HW1 1154   1.774   2.573   0.775 -1.6225 -1.4219 -2.2873
  385SOL    HW2 1155   1.773   2.693   0.669  0.7645  1.1492  0.3684
  386SOL     OW 1156   1.929   1.519   0.776  0.4530 -0.4888 -0.3092
  386SOL    HW1 1157   1.984   1.587   0.830 -1.2448  0.0683  1.8427
  386SOL    HW2 1158   1.963   1.513   0.680 -0.4860 -1.3929  1.3194
  387SOL     OW 1159   2.887   2.280   1.310  0.2515  0.0421 -0.2853
  387SOL    HW1 1160   2.919   2.328   1.395 -0.9285  0.2682  1.0624
  387SOL    HW2 1161   2.835   2.195   1.335 -0.5206  0.7731 -0.5732
  388SOL     OW 1162   3.108   1.099   1.701  0.5416  0.3933 -0.6972
  388SOL    HW1 1163   3.122   1.202   1.698  0.0032  2.6816 -0.6842
  388SOL    HW2 1164   0.016   1.063   1.612  0.8304  1.1182  2.5972
  389SOL     OW 1165   2.009   0.537   0.088  0.7559 -0.2477  0.0860
  389SOL    HW1 1166   1.964   0.549   0.179 -2.3336  0.4317  0.9376
  389SOL    HW2 1167   2.107   0.572   0.087  4.3217 -0.1936  1.1990
  390SOL     OW 1168   1.276   1.692   2.947  0.5250  0.0052 -0.1311
  390SOL    HW1 1169   1.340   1.761   2.906  1.8896 -0.4808  0.7286
  390SOL    HW2 1170   1.210   1.655   2.881 -0.2891 -1.5331  0.7726
  391SOL     OW 1171   1.380   2.186   2.982  0.4349 -0.0317  1.0980
  391SOL    HW1 1172   1.457   2.220   3.043 -1.1033 -0.5884 -0.1500
  391SOL    HW2 1173   1.330   2.117   3.032 -0.2478 -2.4486  1.1760
  392SOL     OW 1174   0.050   2.581   1.854 -0.1471 -0.6038  0.0932
  392SOL    HW1 1175   0.091   2.658   1.904  0.8513 -2.7355 -1.7518
  392SOL    HW2 1176   0.043   2.494   1.909 -0.0935  0.0575  2.3966
  393SOL     OW 1177   1.419   2.143   0.278 -0.7568  0.0498  0.0849
  393SOL    HW1 1178   1.356   2.215   0.316  1.4948 -1.3155  0.9676
  393SOL    HW2 1179   1.477   2.181   0.203 -1.8313  0.2477 -2.4690
  394SOL     OW 1180   0.575   0.497   2.422 -0.0898 -0.5752  0.2190
  394SOL    HW1 1181   0.631   0.516   2.505  1.4836 -0.7215  4.0085
  394SOL    HW2 1182   0.526   0.410   2.438 -0.1267  2.4163  0.9624
  395SOL     OW 1183   0.428   1.408   0.976  0.1260 -0.4465 -0.7541
  395SOL    HW1 1184   0.516   1.366   0.955 -0.9338  1.7370  3.0210
  395SOL    HW2 1185   0.352   1.361   0.918  0.0072  0.7504 -0.5624
  396SOL     OW 1186   1.809   1.082   2.251  0.1820 -0.0403 -0.8073
  396SOL    HW1 1187   1.705   1.076   2.250 -2.9097 -1.3341  1.1340
  396SOL    HW2 1188   1.837   1.137   2.330 -0.4997 -0.4542 -2.8551
  397SOL     OW 1189   0.729   0.533   0.141  0.2591 -0.0777 -0.3330
  397SOL    HW1 1190   0.635   0.505   0.104  0.8691  0.2178 -0.5303
  397SOL    HW2 1191   0.711   0.588   0.220 -0.7053 -1.3633 -1.0702
  398SOL     OW 1192   1.174   2.344   3.001  0.1061  0.4630 -0.2114
  398SOL    HW1 1193   1.254   2.284   2.970  0.1798 -0.2466  0.8990
  398SOL    HW2 1194   1.192   2.376   3.100 -0.7258 -1.6763 -0.9265
  399SOL     OW 1195   1.467   1.981   2.351  0.2874 -0.1427 -0.4197
  399SOL    HW1 1196   1.460   1.886   2.393 -0.3972  0.4628 -0.7647
  399SOL    HW2 1197   1.483   1.975   2.253 -0.2685  0.4556  1.5779
  400SOL     OW 1198   2.126   1.721   1.492  0.4347  0.2020  0.1378
  400SOL    HW1 1199   2.109   1.630   1.451  0.7713 -2.7357  3.1572
  400SOL    HW2 1200   2.155   1.712   1.591  2.1360  0.3157  2.6163
  401SOL     OW 1201   1.227   1.284   0.806  0.2599  0.2257 -0.2778
  401SOL    HW1 1202   1.300   1.331   0.862  0.8841  1.2676  2.1455
  401SOL    HW2 1203   1.262   1.216   0.739  4.8902  0.2286 -1.1673
  402SOL     OW 1204   0.099   2.604   2.238  0.2393  0.1753 -0.0426
  402SOL    HW1 1205   0.076   2.646   2.146  0.7539 -3.0729  0.2507
  402SOL    HW2 1206   0.123   2.679   2.301  0.4694 -0.1466 -2.5392
  403SOL     OW 1207   2.785   1.931   1.585  0.9073 -0.3235  0.2972
  403SOL    HW1 1208   2.860   2.003   1.570  1.7223 -1.1976 -0.5730
  403SOL    HW2 1209   2.830   1.840   1.590  0.4047  0.1144 -1.1685
  404SOL     OW 1210   2.122   1.890   1.136  0.1187 -0.7207 -0.3287
  404SOL    HW1 1211   2.225   1.893   1.130  0.9604 -0.5106  1.8011
  404SOL    HW2 1212   2.090   1.978   1.179  1.4666 -0.5195 -1.4507
  405SOL     OW 1213   2.627   0.222   2.764  0.1031  0.8804 -0.1696
  405SOL    HW1 1214   2.704   0.256   2.822  0.7843  0.9221 -1.1212
  405SOL    HW2 1215   2.626   0.272   2.681  0.4035 -2.0798 -0.8618
  406SOL     OW 1216   0.920   1.698   2.575 -0.2783 -0.3226  0.7732
  406SOL    HW1 1217   0.832   1.748   2.591  0.3122 -0.4043  3.3597
  406SOL    HW2 1218   0.991   1.769   2.552  0.6655 -1.2502 -0.9060
  407SOL     OW 1219   1.910   2.733   0.231  0.4325 -0.2033  0.7493
  407SOL    HW1 1220   1.848   2.653   0.257 -2.6723 -0.2022  1.0111
  407SOL    HW2 1221   1.862   2.820   0.212  0.0034 -0.4700  1.2428
  408SOL     OW 1222   0.430   0.113   0.937  0.4431 -0.5635 -0.2736
  408SOL    HW1 1223   0.434   0.212   0.951  0.0726 -0.0110  1.0042
  408SOL    HW2 1224   0.341   0.075   0.968  1.2727  0.0937 -0.2455
  409SOL     OW 1225   2.348   1.985   0.793  0.9851 -0.4978 -0.4411
  409SOL    HW1 1226   2.337   1.955   0.697 -1.0400  4.1424  1.3038
  409SOL    HW2 1227   2.389   2.076   0.793  0.1411 -1.8527 -1.9822
  410SOL     OW 1228   2.283   2.119   3.012 -0.2885 -0.2373  0.0495
  410SOL    HW1 1229   2.285   2.050   2.940  0.9604  2.5679  2.2683
  410SOL    HW2 1230   2.322   2.210   2.988  2.1095  1.8555  1.7504
  411SOL     OW 1231   0.171   0.324   0.478  0.2142 -1.1190  0.2297
  411SOL    HW1 1232   0.204   0.241   0.434  0.7184  1.3276  1.1761
  411SOL    HW2 1233   0.181   0.311   0.574 -0.9808  0.8314 -0.9829
  412SOL     OW 1234   1.747   2.510   0.237  0.4751 -0.4449 -0.0181
  412SOL    HW1 1235   1.783   2.423   0.198 -0.3689 -0.3009  0.3413
  412SOL    HW2 1236   1.667   2.547   0.190 -2.9260 -0.3153  3.9077
  413SOL     OW 1237   2.005   0.497   2.123 -0.7050 -0.0473 -0.2246
  413SOL    HW1 1238   1.931   0.508   2.055  1.1522  0.6382  0.5171
  413SOL    HW2 1239   1.963   0.470   2.209  0.3926  0.3169 -1.1187
  414SOL     OW 1240   3.074   0.423   0.607 -0.1416  0.4126  0.1688
  414SOL    HW1 1241   3.085   0.513   0.653 -1.5625  1.9617 -2.0260
  414SOL    HW2 1242   0.030   0.411   0.547  0.2239  0.5065  0.0398
  415SOL     OW 1243   0.364   1.790   1.066 -0.6667 -0.3467 -0.8415
  415SOL    HW1 1244   0.321   1.731   1.138  1.6742 -0.8277  2.1541
  415SOL    HW2 1245   0.391   1.732   0.987  1.9616 -1.3450  0.0007
  416SOL     OW 1246   0.086   3.009   0.127  0.1740 -0.0184 -0.0389
  416SOL    HW1 1247   0.102   3.100   0.080 -1.0063  0.4181 -0.2853
  416SOL    HW2 1248   0.171   2.977   0.173 -1.4098 -2.4767 -1.1306
  417SOL     OW 1249   2.660   3.049   0.999 -0.2099 -0.4095 -0.1703
  417SOL    HW1 1250   2.580   3.051   1.065 -3.4270 -1.1115  0.6582
  417SOL    HW2 1251   2.702   0.013   1.000  0.3609 -0.5850 -0.4041
  418SOL     OW 1252   0.488   0.271   2.554  0.4359 -0.1109 -0.1780
  418SOL    HW1 1253   0.532   0.290   2.645  0.3236  0.9748  2.5143
  418SOL    HW2 1254   0.433   0.184   2.563  0.8675 -3.2813 -1.3414
  419SOL     OW 1255   0.338   1.121   0.726  0.1124  0.1598  0.2362
  419SOL    HW1 1256   0.296   1.037   0.697  0.0465  3.5993  0.5499
  419SOL    HW2 1257   0.276   1.190   0.772  1.5459  4.0275 -1.0764
  420SOL     OW 1258   1.920   1.986   0.855 -0.2475 -0.6411 -0.1052
  420SOL    HW1 1259   1.874   2.003   0.762  0.0397 -1.8421  2.4511
  420SOL    HW2 1260   1.981   1.904   0.848 -1.8218 -0.3375 -0.1538
  421SOL     OW 1261   1.889   2.058   2.444 -0.3671  0.7900  0.0663
  421SOL    HW1 1262   1.859   1.988   2.375  0.7458 -1.4566 -1.5528
  421SOL    HW2 1263   1.818   2.115   2.488 -0.1529  0.6466 -0.3220
  422SOL     OW 1264   3.004   0.505   3.046  0.2965 -0.1246 -0.2845
  422SOL    HW1 1265   3.079   0.574   3.027 -0.7619 -0.4400  2.1060
  422SOL    HW2 1266   2.913   0.546   3.075 -2.0716  0.0812 -0.1038
  423SOL     OW 1267   1.502   1.852   0.796  0.3730  0.0933 -0.2303
  423SOL    HW1 1268   1.554   1.856   0.886 -0.5370 -0.6414  1.3051
  423SOL    HW2 1269   1.503   1.759   0.762  0.7966  1.4936  1.1105
  424SOL     OW 1270   0.388   1.559   1.412  0.2150 -0.3356  0.1584
  424SOL    HW1 1271   0.392   1.473   1.464  1.6964 -1.0078  1.4947
  424SOL    HW2 1272   0.453   1.621   1.452 -2.5749 -2.7830 -3.1559
  425SOL     OW 1273   2.631   2.771   2.016 -0.0111 -0.5916  0.2283
  425SOL    HW1 1274   2.670   2.676   2.030  1.3362  1.1277 -0.7092
  425SOL    HW2 1275   2.698   2.837   1.977 -0.4934 -4.6260  2.4544
  426SOL     OW 1276   1.925   2.816   0.596 -0.1884 -0.1093  0.2165
  426SOL    HW1 1277   1.977   2.737   0.557  0.5432  0.4213 -0.2695
  426SOL    HW2 1278   1.995   2.876   0.639  0.9296 -0.1432 -1.6613
  427SOL     OW 1279   0.622   0.878   2.925  0.2471 -0.4165 -0.2557
  427SOL    HW1 1280   0.579   0.945   2.859  0.2918  0.0762 -0.1499
  427SOL    HW2 1281   0.634   0.921   3.016 -1.2276 -0.0352 -0.3850
  428SOL     OW 1282   2.064   1.282   0.205  0.1504 -0.2202 -0.1531
  428SOL    HW1 1283   2.008   1.196   0.215 -1.2104  0.6161  0.2130
  428SOL    HW2 1284   2.022   1.337   0.130  1.5848  0.5197 -2.7447
  429SOL     OW 1285   2.793   0.100   0.314 -0.1470 -0.6634  0.1619
  429SOL    HW1 1286   2.764   0.010   0.344 -0.7242 -0.6725  1.4038
  429SOL    HW2 1287   2.829   0.156   0.390  0.1884  0.2791  4.1986
  430SOL     OW 1288   0.868   0.017   2.110 -0.1694  0.4489  0.3509
  430SOL    HW1 1289   0.843   0.096   2.055  1.7911 -1.6477 -0.8087
  430SOL    HW2 1290   0.830   3.056   2.068 -2.1331 -0.9545 -2.5496
  431SOL     OW 1291   3.017   1.298   1.415 -0.5651 -0.2382  0.3440
  431SOL    HW1 1292   3.024   1.396   1.382 -0.6545 -0.4764  2.0090
  431SOL    HW2 1293   3.083   1.274   1.492 -1.1972  0.7494  0.0233
  432SOL     OW 1294   2.055   2.628   1.780 -0.2375 -0.1825  0.5677
  432SOL    HW1 1295   2.155   2.628   1.812  1.4046 -1.2822  0.8623
  432SOL    HW2 1296   1.993   2.598   1.858 -3.6195  0.6339  2.4836
  433SOL     OW 1297   1.172   1.741   0.068 -0.1955  0.7370 -0.1739
  433SOL    HW1 1298   1.105   1.689   0.128 -0.1811  0.6494 -0.5984
  433SOL    HW2 1299   1.190   1.700   3.105 -2.1521 -0.6557  0.8649
  434SOL     OW 1300   0.078   2.318   2.631 -0.3447  0.2201 -0.5097
  434SOL    HW1 1301   0.156   2.262   2.593  0.4818  1.1587 -1.1305
  434SOL    HW2 1302   0.113   2.385   2.699  1.5037  1.3916 -0.2862
  435SOL     OW 1303   0.222   0.639   0.487 -0.3658 -0.3399  0.0038
  435SOL    HW1 1304   0.266   0.565   0.433  1.1071  1.6560  0.1695
  435SOL    HW2 1305   0.292   0.712   0.509  0.4920 -0.2190  1.1756
  436SOL     OW 1306   0.328   2.736   1.843 -0.0061 -0.0543  0.6453
  436SOL    HW1 1307   0.362   2.646   1.857 -0.2069 -0.3046  0.7250
  436SOL    HW2 1308   0.288   2.754   1.748 -1.7985  0.2882 -0.8092
  437SOL     OW 1309   0.931   2.070   1.387  0.1950  0.1342 -0.0040
  437SOL    HW1 1310   0.944   2.101   1.482 -0.1599  1.2741 -1.6290
  437SOL    HW2 1311   0.990   2.115   1.320 -0.6596  1.3217  2.1110
  438SOL     OW 1312   0.021   2.159   0.700  0.3852  0.1027 -0.1393
  438SOL    HW1 1313   0.019   2.214   0.784  0.7602  1.5017 -0.2912
  438SOL    HW2 1314   0.089   2.192   0.638 -2.2125 -0.1789  0.6870
  439SOL     OW 1315   0.112   0.537   1.157  0.4013  0.2514  0.2016
  439SOL    HW1 1316   0.043   0.543   1.235 -0.2026 -1.8303 -1.5057
  439SOL    HW2 1317   0.182   0.604   1.178 -2.5431 -2.9768  2.0934
  440SOL     OW 1318   2.762   2.780   2.292 -0.1594  0.0231  0.0744
  440SOL    HW1 1319   2.812   2.867   2.274  2.0506 -0.1137 -1.2131
  440SOL    HW2 1320   2.772   2.710   2.219 -0.7325  2.0721  1.5106
  441SOL     OW 1321   3.056   0.660   1.883  0.2798  0.4190 -0.0883
  441SOL    HW1 1322   2.972   0.683   1.937 -1.3583 -0.6370  1.6263
  441SOL    HW2 1323   3.119   0.740   1.876 -1.5817  1.1479  0.0426
  442SOL     OW 1324   1.913   2.396   2.995  0.3386  0.4196  0.1279
  442SOL    HW1 1325   1.977   2.322   2.977 -0.6140  1.8924  0.0719
  442SOL    HW2 1326   1.950   2.468   3.057 -0.7530 -0.8300  0.3474
  443SOL     OW 1327   0.488   0.828   0.138 -0.1125 -0.0420 -0.1774
  443SOL    HW1 1328   0.401   0.792   0.090 -2.9703 -0.9807  0.9127
  443SOL    HW2 1329   0.536   0.768   0.200  0.7701  2.5963  0.7269
  444SOL     OW 1330   1.351   1.547   2.142 -0.0177 -0.2474 -0.0105
  444SOL    HW1 1331   1.351   1.614   2.067 -1.6810 -1.4711  1.1553
  444SOL    HW2 1332   1.256   1.509   2.152 -1.8347 -2.4955 -0.8477
  445SOL     OW 1333   0.189   3.072   0.958  0.0428  0.3394  0.7716
  445SOL    HW1 1334   0.102   3.116   0.995 -0.1967 -0.6334 -0.3212
  445SOL    HW2 1335   0.185   3.052   0.859 -4.0214 -0.5676  2.8066
  446SOL     OW 1336   2.171   1.007   1.482 -0.5037 -0.6708  0.6681
  446SOL    HW1 1337   2.094   0.945   1.475  1.9408  2.9561 -0.0622
  446SOL    HW2 1338   2.211   1.004   1.389 -0.5461 -0.0974  2.4689
  447SOL     OW 1339   0.245   0.613   0.055 -0.3291 -0.3055 -0.2646
  447SOL    HW1 1340   0.179   0.560   0.108  1.0758 -0.2375  0.3045
  447SOL    HW2 1341   0.197   0.638   3.093  1.3309  1.2235  1.6469
  448SOL     OW 1342   1.218   2.216   1.771 -0.2025  0.8330 -0.3045
  448SOL    HW1 1343   1.307   2.252   1.738  1.4654 -0.7397 -2.3661
  448SOL    HW2 1344   1.218   2.204   1.872  0.7913 -1.3801 -0.4722
  449SOL     OW 1345   1.324   1.478   0.556  0.2173 -0.3049  0.1496
  449SOL    HW1 1346   1.370   1.407   0.614  0.4222  0.0146  0.6605
  449SOL    HW2 1347   1.380   1.516   0.480 -1.5895  2.3705  1.2439
  450SOL     OW 1348   2.482   1.911   1.929 -0.1036  0.6537 -0.8255
  450SOL    HW1 1349   2.489   1.997   1.979  0.5798  1.9616 -0.5484
  450SOL    HW2 1350   2.541   1.837   1.968  0.2174 -3.6451 -2.0925
  451SOL     OW 1351   3.025   1.577   2.842 -0.4815  0.4263 -0.0798
  451SOL    HW1 1352   0.001   1.581   2.868 -1.3869  0.8950  0.7431
  451SOL    HW2 1353   2.988   1.482   2.836 -2.3151 -0.2677  0.2645
  452SOL     OW 1354   1.528   1.052   1.257  0.3843  0.6807  0.3361
  452SOL    HW1 1355   1.442   1.052   1.207 -0.7229 -0.3957  0.2818
  452SOL    HW2 1356   1.561   1.145   1.276  0.8352  0.7208  1.8980
  453SOL     OW 1357   2.101   0.908   0.982  0.0666 -0.4875 -0.0047
  453SOL    HW1 1358   2.176   0.870   1.040 -0.6821  1.6952 -1.5315
  453SOL    HW2 1359   2.089   1.006   0.992 -1.8066 -0.8048  3.5772
  454SOL     OW 1360   2.855   0.831   0.378 -0.1505 -0.0830 -0.2579
  454SOL    HW1 1361   2.807   0.764   0.438 -0.2762  0.7130  0.2494
  454SOL    HW2 1362   2.811   0.924   0.380  0.6579 -2.5994 -1.4609
  455SOL     OW 1363   2.906   2.638   0.953 -0.1346 -0.4698 -0.2344
  455SOL    HW1 1364   2.889   2.726   1.007 -1.7262  0.7056  0.0363
  455SOL    HW2 1365   2.850   2.558   0.986 -0.9602  2.8952 -2.5342
  456SOL     OW 1366   0.845   0.001   1.132 -0.0969  0.6449 -0.5754
  456SOL    HW1 1367   0.855   3.034   1.087 -1.3212  3.2818  0.1955
  456SOL    HW2 1368   0.858   3.123   1.238 -1.3151 -0.5785  5.2641
  457SOL     OW 1369   1.809   2.925   0.943  0.0594  0.3362 -0.1832
  457SOL    HW1 1370   1.781   2.957   1.034 -1.3874  0.4124 -2.7085
  457SOL    HW2 1371   1.733   2.932   0.875  0.3568 -3.7986 -0.8142
  458SOL     OW 1372   2.748   0.267   0.805 -0.6537  0.6485  0.2886
  458SOL    HW1 1373   2.716   0.234   0.901  0.0441 -1.3056  3.7062
  458SOL    HW2 1374   2.726   0.366   0.802  0.8431  1.5678 -1.4021
  459SOL     OW 1375   1.842   0.781   3.059  0.0798 -0.1749  0.6700
  459SOL    HW1 1376   1.931   0.819   3.088 -0.6332 -0.0619 -0.3264
  459SOL    HW2 1377   1.854   0.725   2.973 -0.9247  1.7208 -1.9259
  460SOL     OW 1378   2.919   2.424   2.948  0.5978 -0.1573 -0.2898
  460SOL    HW1 1379   2.934   2.521   2.976 -4.4823 -0.7930 -0.1666
  460SOL    HW2 1380   2.977   2.357   3.006 -0.0699 -1.8713 -0.3914
  461SOL     OW 1381   0.583   1.645   0.377 -0.0223  0.4584  0.0132
  461SOL    HW1 1382   0.639   1.702   0.443  0.0274 -0.2294  2.2089
  461SOL    HW2 1383   0.640   1.595   0.306  1.9314 -1.6442 -1.2592
  462SOL     OW 1384   2.532   2.629   0.475  0.5795 -0.1884  0.2075
  462SOL    HW1 1385   2.619   2.662   0.435  1.9005  1.7786 -2.8624
  462SOL    HW2 1386   2.460   2.690   0.435 -1.1890 -0.2329 -0.6199
  463SOL     OW 1387   2.800   0.621   0.562 -0.2345  0.2084 -0.0671
  463SOL    HW1 1388   2.758   0.605   0.652 -0.3501  1.5711  0.8013
  463SOL    HW2 1389   2.897   0.591   0.564  0.0247  0.0196  0.9117
  464SOL     OW 1390   1.097   2.780   0.357  0.0220 -0.5432 -0.1756
  464SOL    HW1 1391   1.058   2.855   0.301 -1.1583 -1.5942 -3.2414
  464SOL    HW2 1392   1.028   2.723   0.406  1.1712  2.0225  1.1157
  465SOL     OW 1393   2.394   0.872   0.601  0.3615  0.4805  0.7024
  465SOL    HW1 1394   2.351   0.797   0.651  0.0474  1.3804 -0.1213
  465SOL    HW2 1395   2.339   0.907   0.522  0.4123 -0.5632 -0.8263
  466SOL     OW 1396   2.440   3.006   0.016  0.2420 -0.2269 -0.1941
  466SOL    HW1 1397   2.363   3.046   3.087 -2.6699  1.0553 -3.0709
  466SOL    HW2 1398   2.419   2.908   0.041 -1.1783 -1.1240  1.9471
  467SOL     OW 1399   1.035   0.579   1.777 -0.0212 -0.4749 -0.5823
  467SOL    HW1 1400   0.954   0.622   1.821 -0.0017  2.0299 -0.0707
  467SOL    HW2 1401   1.119   0.637   1.778  0.4121  1.5778 -0.5135
  468SOL     OW 1402   0.106   0.470   2.384  0.2079  0.3223 -0.6365
  468SOL    HW1 1403   0.179   0.520   2.438  2.1307 -0.3126 -1.5615
  468SOL    HW2 1404   0.077   0.524   2.303  0.9988  0.6302 -2.5272
  469SOL     OW 1405   0.683   3.037   2.754 -0.4508  0.1607  0.2863
  469SOL    HW1 1406   0.624   2.970   2.810 -0.9031 -0.4552  0.8849
  469SOL    HW2 1407   0.714   3.000   2.664 -0.8262 -2.7506 -1.7088
  470SOL     OW 1408   1.739   1.528   2.347 -0.2293  0.0495 -0.3005
  470SOL    HW1 1409   1.677   1.610   2.351 -1.9129 -1.1536 -1.5311
  470SOL    HW2 1410   1.836   1.549   2.350 -0.9904 -3.8458 -0.6316
  471SOL     OW 1411   2.832   1.174   2.776 -0.2394  0.8891 -0.1776
  471SOL    HW1 1412   2.803   1.233   2.697 -1.0838  0.4560  2.6109
  471SOL    HW2 1413   2.753   1.153   2.843 -1.6885 -2.1369  2.2833
  472SOL     OW 1414   0.514   2.424   0.230 -0.3366  0.5482  0.4141
  472SOL    HW1 1415   0.432   2.480   0.233  0.9408 -0.9292  0.4970
  472SOL    HW2 1416   0.523   2.385   0.327  2.3393  1.1963  1.0579
  473SOL     OW 1417   0.720   0.121   2.910 -0.0235 -0.1690  0.2066
  473SOL    HW1 1418   0.725   0.043   2.842  0.8401  0.4187 -0.9678
  473SOL    HW2 1419   0.664   0.092   2.990  2.5441 -1.1616 -0.1883
  474SOL     OW 1420   1.650   0.373   2.164  0.0770 -0.5066  0.3455
  474SOL    HW1 1421   1.563   0.395   2.118 -0.9435  0.3595 -0.4224
  474SOL    HW2 1422   1.647   0.278   2.190 -1.7043  2.3684  0.6237
  475SOL     OW 1423   0.670   2.806   0.265 -0.1627  0.5623  0.0721
  475SOL    HW1 1424   0.617   2.816   0.353  0.3819 -0.8490 -1.0663
  475SOL    HW2 1425   0.749   2.870   0.264 -0.1411 -1.9892  1.4526
  476SOL     OW 1426   0.148   1.022   1.129 -0.6238 -0.0262  0.4338
  476SOL    HW1 1427   0.182   1.119   1.149 -0.2331  0.1574 -0.0516
  476SOL    HW2 1428   0.203   0.976   1.052 -0.9962  0.3839 -0.2410
  477SOL     OW 1429   1.603   2.116   1.149  0.5611 -0.4325  0.4000
  477SOL    HW1 1430   1.660   2.184   1.200  2.0081 -2.2317 -1.7014
  477SOL    HW2 1431   1.550   2.058   1.218  0.7119  2.6907 -0.0375
  478SOL     OW 1432   0.692   1.346   1.972  0.0138 -0.5757  0.5267
  478SOL    HW1 1433   0.591   1.329   1.986 -0.7008  0.0900  0.4986
  478SOL    HW2 1434   0.757   1.279   2.015  1.4956 -0.0795  0.0107
  479SOL     OW 1435   0.606   0.156   1.135 -0.0127  0.0943 -0.1385
  479SOL    HW1 1436   0.561   0.124   1.050  0.4328  0.8506  0.8863
  479SOL    HW2 1437   0.704   0.121   1.135  2.2392 -0.8271 -1.2850
  480SOL     OW 1438   2.512   2.476   0.131  0.0733 -0.5620 -0.2203
  480SOL    HW1 1439   2.568   2.468   0.219  0.2317  0.7076 -1.3082
  480SOL    HW2 1440   2.562   2.432   0.055  2.8336  2.4231 -0.2110
  481SOL     OW 1441   2.776   0.391   1.227  0.8711  0.4285  0.1066
  481SOL    HW1 1442   2.781   0.484   1.185 -0.1332  0.2111  1.3859
  481SOL    HW2 1443   2.866   0.372   1.264 -4.6247 -0.5636  1.2869
  482SOL     OW 1444   1.532   2.500   2.044 -0.0012  0.1888 -0.0010
  482SOL    HW1 1445   1.602   2.547   1.984  1.6889  1.6104  2.1342
  482SOL    HW2 1446   1.520   2.546   2.132  0.2073 -0.1111 -0.8015
  483SOL     OW 1447   0.400   1.402   2.752 -0.5392 -0.1282  0.0962
  483SOL    HW1 1448   0.419   1.437   2.660  3.4444  1.2735  1.8447
  483SOL    HW2 1449   0.344   1.318   2.749  0.1834 -1.9361  1.2465
  484SOL     OW 1450   0.982   1.726   2.026  0.6873  0.3379 -0.0142
  484SOL    HW1 1451   1.035   1.649   1.984  4.0376 -0.8175 -1.2803
  484SOL    HW2 1452   0.883   1.705   2.031  2.2850 -0.1040  0.6387
  485SOL     OW 1453   2.844   0.286   2.951 -0.3926  0.1351  0.1303
  485SOL    HW1 1454   2.905   0.359   2.985  2.0934 -0.8292 -0.4021
  485SOL    HW2 1455   2.856   0.202   3.005 -5.4996 -0.2867  1.3514
  486SOL     OW 1456   1.606   3.011   0.778 -0.7384  0.5829  0.1160
  486SOL    HW1 1457   1.652   3.065   0.705 -2.8728  1.3442 -0.8296
  486SOL    HW2 1458   1.513   2.981   0.753  0.0863 -0.8756  2.1211
  487SOL     OW 1459   1.328   2.578   0.912  0.3122 -0.0726  0.8944
  487SOL    HW1 1460   1.361   2.487   0.884  0.9932  1.5038  0.5765
  487SOL    HW2 1461   1.316   2.570   1.012 -1.6869 -0.5479  0.4336
  488SOL     OW 1462   2.257   0.950   0.372 -0.2950 -0.0835 -0.0089
  488SOL    HW1 1463   2.232   1.042   0.394  2.5172 -4.6055 -1.9964
  488SOL    HW2 1464   2.303   0.957   0.283  0.1242 -0.0373  1.9196
  489SOL     OW 1465   1.125   2.785   1.368 -0.6833  0.0512 -0.2028
  489SOL    HW1 1466   1.163   2.722   1.437 -1.3493  0.9560 -3.8815
  489SOL    HW2 1467   1.068   2.858   1.418 -1.6332  1.4368  2.0028
  490SOL     OW 1468   0.907   0.936   0.247 -0.7417  0.0709 -0.0858
  490SOL    HW1 1469   0.904   0.898   0.341  0.2570  0.6831 -0.1815
  490SOL    HW2 1470   0.974   0.891   0.189 -0.0347  0.2801  0.1223
  491SOL     OW 1471   1.332   2.917   0.423  0.1011 -0.3046  0.3873
  491SOL    HW1 1472   1.345   2.928   0.525 -0.2022  0.9157  1.8628
  491SOL    HW2 1473   1.245   2.862   0.409  1.5348 -2.3677 -1.5420
  492SOL     OW 1474   1.132   1.221   2.172  0.8667  0.3203  0.3188
  492SOL    HW1 1475   1.140   1.213   2.070 -0.9446  0.7720  1.7034
  492SOL    HW2 1476   1.114   1.131   2.219 -1.4483 -4.1318  1.8664
  493SOL     OW 1477   0.014   2.063   0.255 -0.3410  0.6543 -0.1116
  493SOL    HW1 1478   0.023   1.982   0.188  0.2445 -1.4816 -0.3337
  493SOL    HW2 1479   0.064   2.042   0.343 -0.8235  2.1716 -0.8264
  494SOL     OW 1480   2.190   1.517   0.322  0.2115  0.3754  0.1915
  494SOL    HW1 1481   2.168   1.607   0.275 -0.7614 -0.8281  0.4519
  494SOL    HW2 1482   2.146   1.434   0.279 -3.4174 -1.3629  0.7157
  495SOL     OW 1483   0.133   0.965   2.822  0.6072 -0.4364 -0.6077
  495SOL    HW1 1484   0.107   0.885   2.763  2.5399  2.9208  0.9843
  495SOL    HW2 1485   0.049   1.011   2.852 -2.4749  1.6733  0.6093
  496SOL     OW 1486   2.920   2.974   2.198 -0.0923  0.0354  0.4258
  496SOL    HW1 1487   3.017   3.001   2.179 -1.5752  1.9633 -1.3960
  496SOL    HW2 1488   2.861   3.062   2.197 -0.2317  3.4891 -0.1053
  497SOL     OW 1489   2.682   0.882   0.860 -0.1421 -0.4562  0.0546
  497SOL    HW1 1490   2.620   0.814   0.906 -1.0750 -0.4441  0.1018
  497SOL    HW2 1491   2.631   0.912   0.773 -0.4211 -0.4109  1.6681
  498SOL     OW 1492   0.490   2.243   0.012  0.6961  0.0707 -0.2760
  498SOL    HW1 1493   0.544   2.159   0.028  0.4045  1.6792  1.7105
  498SOL    HW2 1494   0.499   2.313   0.088 -1.5493  2.8219 -2.6199
  499SOL     OW 1495   0.877   2.416   0.735  0.0825  0.5079  0.2254
  499SOL    HW1 1496   0.882   2.352   0.814 -0.2588  2.1195 -1.6141
  499SOL    HW2 1497   0.942   2.380   0.660  0.5956 -1.2638 -1.8174
  500SOL     OW 1498   0.936   0.341   2.494 -0.0520 -0.1906  0.4680
  500SOL    HW1 1499   1.000   0.277   2.530 -0.3088  1.8563  2.3231
  500SOL    HW2 1500   0.860   0.298   2.438 -1.0502  1.5212 -0.5039
  501SOL     OW 1501   0.895   3.092   1.396  0.6296  0.5939  1.0552
  501SOL    HW1 1502   0.971   3.043   1.448  0.0978 -0.7050  3.0487
  501SOL    HW2 1503   0.845   0.029   1.460 -1.7753  0.0098  0.4215
  502SOL     OW 1504   3.064   0.238   2.029  0.2109 -0.1926  0.1417
  502SOL    HW1 1505   3.076   0.164   1.962 -1.5036  0.7041 -1.3143
  502SOL    HW2 1506   3.124   0.225   2.106  1.1697  0.2028 -1.5996
  503SOL     OW 1507   1.928   2.292   2.346  0.0318  0.4902 -0.0438
  503SOL    HW1 1508   1.832   2.321   2.330  2.1399  2.4519  0.2329
  503SOL    HW2 1509   1.927   2.194   2.371 -2.4286  3.9726 -2.0278
  504SOL     OW 1510   1.881   0.556   1.889 -0.3406 -0.4410  0.6401
  504SOL    HW1 1511   1.804   0.618   1.867  1.6803  0.3449  1.1391
  504SOL    HW2 1512   1.958   0.584   1.828 -1.0867  0.2862 -0.4172
  505SOL     OW 1513   2.885   1.142   1.855 -0.1291  0.9891  0.0766
  505SOL    HW1 1514   2.950   1.097   1.790  1.7842  1.1814  0.0356
  505SOL    HW2 1515   2.817   1.197   1.807  0.7303 -1.8341 -1.3985
  506SOL     OW 1516   0.295   1.413   2.504 -0.5641 -0.0178 -0.0965
  506SOL    HW1 1517   0.259   1.320   2.493  1.0470  0.3737 -2.1285
  506SOL    HW2 1518   0.340   1.439   2.416 -2.5216 -1.2834 -2.9388
  507SOL     OW 1519   0.293   3.013   2.240  0.2506 -0.4174  0.0799
  507SOL    HW1 1520   0.390   2.996   2.223  0.0355 -0.4329  0.9324
  507SOL    HW2 1521   0.260   2.942   2.301 -0.3932  2.1211  0.0072
  508SOL     OW 1522   1.364   0.781   1.544  0.0088 -0.4578  0.0801
  508SOL    HW1 1523   1.339   0.878   1.541  0.0681 -0.2744 -2.8706
  508SOL    HW2 1524   1.464   0.777   1.546  0.4856  0.7901  1.5942
  509SOL     OW 1525   0.943   1.822   1.279 -0.0715 -0.6361 -0.0391
  509SOL    HW1 1526   0.928   1.912   1.328  1.8585  1.9239  3.4316
  509SOL    HW2 1527   0.912   1.744   1.340 -0.5860 -0.4714  0.6912
  510SOL     OW 1528   2.580   0.816   2.482 -0.2795  0.1577 -0.1913
  510SOL    HW1 1529   2.621   0.797   2.572 -0.5033  2.1778 -1.6971
  510SOL    HW2 1530   2.494   0.762   2.463  0.3692  3.8214 -0.8029
  511SOL     OW 1531   0.576   1.460   1.228  0.4730 -0.0859  0.0596
  511SOL    HW1 1532   0.536   1.530   1.289 -0.9003 -2.1758 -1.8550
  511SOL    HW2 1533   0.519   1.440   1.148  0.2241  0.7705 -0.5208
  512SOL     OW 1534   2.954   2.476   0.756 -0.2055 -0.0554  0.6793
  512SOL    HW1 1535   2.905   2.388   0.765 -0.8971  1.8650  1.1652
  512SOL    HW2 1536   2.927   2.546   0.829  0.1668  2.2598 -1.3925
  513SOL     OW 1537   0.464   1.431   3.017  0.6873 -0.0637 -0.4870
  513SOL    HW1 1538   0.454   1.331   3.045 -0.3897 -2.5252 -0.9525
  513SOL    HW2 1539   0.444   1.449   2.920 -0.5988 -0.6757  0.3344
  514SOL     OW 1540   0.177   2.468   0.042  0.3118  0.0073  0.5583
  514SOL    HW1 1541   0.086   2.447   0.080  0.8506  0.0496  0.5178
  514SOL    HW2 1542   0.193   2.399   3.092  1.9037 -1.8216  0.0393
  515SOL     OW 1543   1.536   1.084   2.218 -0.7551 -0.4341  0.1857
  515SOL    HW1 1544   1.499   1.175   2.206  0.3813 -3.2128  0.4812
  515SOL    HW2 1545   1.482   1.020   2.275  0.8452  1.5664  1.2242
  516SOL     OW 1546   2.445   2.230   0.673 -0.4534  0.1631  0.2476
  516SOL    HW1 1547   2.525   2.280   0.716 -1.4197  3.8743 -2.8093
  516SOL    HW2 1548   2.445   2.235   0.572  2.1684 -0.1034  1.0489
  517SOL     OW 1549   1.504   1.135   0.414  0.4748  0.2938  0.4555
  517SOL    HW1 1550   1.448   1.112   0.499  0.0309  0.6056  0.9534
  517SOL    HW2 1551   1.595   1.171   0.440  1.2763 -1.2059 -0.5415
  518SOL     OW 1552   2.247   2.524   2.300  0.0274 -0.1632 -0.5694
  518SOL    HW1 1553   2.152   2.556   2.313  0.6221 -1.0968 -2.1888
  518SOL    HW2 1554   2.285   2.496   2.391 -0.7655 -0.5791 -1.1637
  519SOL     OW 1555   1.805   2.301   1.262  0.4520 -0.0976 -0.1112
  519SOL    HW1 1556   1.894   2.348   1.271  1.7425  2.0572  2.8103
  519SOL    HW2 1557   1.732   2.358   1.306  2.0254 -1.8433  1.4055
  520SOL     OW 1558   2.488   2.415   2.718 -0.3294  0.1644 -0.0951
  520SOL    HW1 1559   2.563   2.485   2.714  2.8474 -1.4726 -1.5552
  520SOL    HW2 1560   2.412   2.446   2.660  1.3080 -0.4424  1.8993
  521SOL     OW 1561   0.292   1.391   2.027  0.0989  0.3948  0.4384
  521SOL    HW1 1562   0.342   1.441   1.952 -1.3249  1.5971 -0.8008
  521SOL    HW2 1563   0.192   1.416   2.031 -0.4577 -1.1046 -1.1313
  522SOL     OW 1564   1.176   0.388   1.966 -0.1954  0.2023  0.1598
  522SOL    HW1 1565   1.131   0.448   1.899 -1.0930  0.7088  2.1769
  522SOL    HW2 1566   1.151   0.288   1.946 -0.5437 -0.3605 -3.4497
  523SOL     OW 1567   0.507   2.351   0.919  0.3628  0.0488 -0.3520
  523SOL    HW1 1568   0.443   2.271   0.931  1.3526  2.2932 -1.3896
  523SOL    HW2 1569   0.453   2.424   0.870 -0.8596  0.1623 -0.3410
  524SOL     OW 1570   1.460   2.666   0.676  0.1448  0.0745  0.0442
  524SOL    HW1 1571   1.557   2.633   0.691  0.2039  0.3927 -2.4812
  524SOL    HW2 1572   1.400   2.660   0.760  1.3537 -2.0447  4.2691
  525SOL     OW 1573   2.372   0.906   1.614  0.2472 -0.9634  0.0193
  525SOL    HW1 1574   2.312   0.957   1.549  3.1104  0.9297  0.5282
  525SOL    HW2 1575   2.446   0.969   1.644 -2.1838 -1.8494 -0.6294
  526SOL     OW 1576   0.971   2.697   0.829  0.0665 -0.3625 -0.1196
  526SOL    HW1 1577   0.972   2.663   0.732 -1.0994  1.2489 -1.7445
  526SOL    HW2 1578   1.056   2.752   0.846  1.1310  1.5219  0.2483
  527SOL     OW 1579   2.923   2.306   0.458 -0.2333 -0.2184 -0.0115
  527SOL    HW1 1580   2.875   2.251   0.532  1.1467 -0.2260 -0.0844
  527SOL    HW2 1581   3.022   2.317   0.478 -1.9981  2.8064  0.5505
  528SOL     OW 1582   1.987   0.182   0.342  0.4108  0.1888  0.1322
  528SOL    HW1 1583   1.988   0.102   0.281  0.0051  0.1568  1.2662
  528SOL    HW2 1584   2.044   0.170   0.424 -1.5090  2.4823  0.8540
  529SOL     OW 1585   1.536   1.681   2.285 -0.5715  0.6939  0.3380
  529SOL    HW1 1586   1.471   1.703   2.364 -1.2545  2.9398  0.9090
  529SOL    HW2 1587   1.482   1.637   2.213 -0.1281 -0.6789  1.2070
  530SOL     OW 1588   2.457   0.583   3.024  0.0821  0.5484 -0.1613
  530SOL    HW1 1589   2.526   0.515   3.055 -1.1557  0.3974  0.6894
  530SOL    HW2 1590   2.503   0.667   2.988  0.8804 -0.8313 -0.9605
  531SOL     OW 1591   1.430   1.065   3.076  0.3417 -0.5220 -0.3466
  531SOL    HW1 1592   1.372   1.122   0.016  1.0042  0.6309  3.6130
  531SOL    HW2 1593   1.378   0.994   3.031  2.7089  0.7165  0.0562
  532SOL     OW 1594   1.712   0.420   1.000  0.1147 -0.3558 -0.2588
  532SOL    HW1 1595   1.692   0.472   1.085 -1.5547 -1.7888 -1.1329
  532SOL    HW2 1596   1.658   0.457   0.923 -0.8546 -0.2074 -1.7804
  533SOL     OW 1597   0.956   0.919   2.029 -0.3290 -0.0137 -0.4462
  533SOL    HW1 1598   0.975   0.945   2.128 -0.6500 -1.2252  0.5591
  533SOL    HW2 1599   1.046   0.910   1.987 -0.1627 -3.8362 -1.6715
  534SOL     OW 1600   1.457   0.356   2.666 -0.3436  0.4507  0.0262
  534SOL    HW1 1601   1.389   0.393   2.731  0.3274  1.1827 -3.0100
  534SOL    HW2 1602   1.555   0.349   2.705  3.1870 -0.9902  1.5577
  535SOL     OW 1603   0.429   0.447   0.383 -0.0722 -0.0784  0.1953
  535SOL    HW1 1604   0.450   0.433   0.285 -1.8533 -2.3884  0.7804
  535SOL    HW2 1605   0.410   0.356   0.422 -0.8048  1.2159 -2.2746
  536SOL     OW 1606   1.032   0.135   0.554  0.0309  0.5979  0.1519
  536SOL    HW1 1607   1.108   0.174   0.496  1.5598 -0.9629 -0.8533
  536SOL    HW2 1608   1.043   0.155   0.651 -1.5783 -1.2468 -3.3256
  537SOL     OW 1609   1.634   1.146   0.885 -0.1387  0.4592 -0.0137
  537SOL    HW1 1610   1.699   1.211   0.931 -1.3752 -1.3410  1.5529
  537SOL    HW2 1611   1.637   1.059   0.936  2.8094  2.3620  0.2544
  538SOL     OW 1612   3.105   2.222   0.025  0.3513  0.5729 -0.3464
  538SOL    HW1 1613   3.113   2.150   0.100 -2.1950 -0.2623  1.3365
  538SOL    HW2 1614   0.071   2.234   3.107  2.3959 -0.3781  0.3782
  539SOL     OW 1615   2.416   1.767   0.301  0.2212 -0.6544 -0.3513
  539SOL    HW1 1616   2.445   1.825   0.222  2.0964 -0.0234  0.1378
  539SOL    HW2 1617   2.369   1.679   0.277 -0.8202 -0.3405 -0.6033
  540SOL     OW 1618   0.348   2.729   1.408  0.1450  0.2077 -0.0480
  540SOL    HW1 1619   0.328   2.670   1.330 -0.8923  1.7825  1.3917
  540SOL    HW2 1620   0.350   2.826   1.371 -0.3432 -0.0941  2.4240
  541SOL     OW 1621   1.966   3.054   2.297  0.4203 -0.0826  0.1419
  541SOL    HW1 1622   2.007   2.980   2.353  2.6014  0.9307 -0.4686
  541SOL    HW2 1623   1.867   3.047   2.299 -2.1729  1.1139  2.3538
  542SOL     OW 1624   2.623   0.455   2.563 -0.0523  0.4261  0.0048
  542SOL    HW1 1625   2.720   0.423   2.561  2.9324 -1.4994  0.4302
  542SOL    HW2 1626   2.576   0.420   2.478  2.6332  0.3228 -2.1652
  543SOL     OW 1627   0.206   0.891   0.894  0.0445 -0.3074  0.1446
  543SOL    HW1 1628   0.286   0.831   0.870  1.3949  0.5884 -0.4697
  543SOL    HW2 1629   0.146   0.904   0.812  2.6423 -1.1248  0.2646
  544SOL     OW 1630   0.009   0.008   1.210  0.5369  0.3390  0.2158
  544SOL    HW1 1631   3.090   0.017   1.120  1.5463 -1.3847  0.6183
  544SOL    HW2 1632   3.095   3.055   1.261 -0.8254  0.5956 -0.4793
  545SOL     OW 1633   1.582   2.291   0.654  0.1163  0.7735  0.4953
  545SOL    HW1 1634   1.654   2.355   0.618  2.1568 -0.4880  1.8172
  545SOL    HW2 1635   1.556   2.220   0.587  0.0087  2.3556  0.0872
  546SOL     OW 1636   1.777   2.939   1.760  0.6021 -0.4175  0.1973
  546SOL    HW1 1637   1.871   2.917   1.718 -0.3372  0.0039  0.4408
  546SOL    HW2 1638   1.777   3.026   1.817 -0.9729 -0.0410  1.7775
  547SOL     OW 1639   0.112   0.223   2.229 -0.0617  0.0840  0.3848
  547SOL    HW1 1640   0.206   0.197   2.199 -0.7403  0.7536 -1.6516
  547SOL    HW2 1641   0.111   0.322   2.268 -1.8045  3.3485  2.6379
  548SOL     OW 1642   2.089   1.626   2.837 -0.2766  0.6269  0.1888
  548SOL    HW1 1643   2.060   1.675   2.923 -0.1438 -2.5496  1.0591
  548SOL    HW2 1644   2.015   1.626   2.766  0.3469 -2.0822 -0.4600
  549SOL     OW 1645   0.031   0.961   0.677 -0.5287  0.2057  0.5312
  549SOL    HW1 1646   0.019   1.006   0.588  4.6034 -1.4965 -3.3848
  549SOL    HW2 1647   3.089   0.991   0.750 -0.5237  1.6523  1.3182
  550SOL     OW 1648   1.839   2.038   0.605  0.5352  0.7567  0.5147
  550SOL    HW1 1649   1.746   2.013   0.568 -1.0740  0.4320  0.1854
  550SOL    HW2 1650   1.878   2.124   0.559  0.1858  3.1329  2.7671
  551SOL     OW 1651   1.363   0.411   0.996 -0.7145  0.2473  0.2826
  551SOL    HW1 1652   1.283   0.423   0.931  0.5638 -0.1658 -2.7252
  551SOL    HW2 1653   1.442   0.415   0.938 -2.3319  0.0074 -0.4334
  552SOL     OW 1654   2.555   2.682   2.442 -0.5003 -0.5120  0.5949
  552SOL    HW1 1655   2.635   2.735   2.393  4.0033  0.7597 -2.1139
  552SOL    HW2 1656   2.469   2.734   2.434 -0.8425 -2.2056  1.2584
  553SOL     OW 1657   3.118   2.982   2.600 -0.0886 -0.6614  0.4564
  553SOL    HW1 1658   0.015   3.057   2.542 -1.4185 -0.4934  1.9039
  553SOL    HW2 1659   3.033   2.937   2.571 -0.2840  0.4969 -0.3059
  554SOL     OW 1660   0.867   2.718   1.256  0.4617 -0.2763 -0.7181
  554SOL    HW1 1661   0.808   2.723   1.340  1.5762 -0.5795  4.4844
  554SOL    HW2 1662   0.965   2.736   1.281  0.3642  0.2632  0.0194
  555SOL     OW 1663   2.301   2.626   2.028 -0.2515  0.4330 -0.0540
  555SOL    HW1 1664   2.347   2.713   2.023 -1.2643 -0.6625  0.7149
  555SOL    HW2 1665   2.266   2.608   2.122  0.0937  0.5173 -4.1910
  556SOL     OW 1666   1.147   0.117   2.847  0.2254  0.0662  0.3758
  556SOL    HW1 1667   1.248   0.123   2.851  0.4379 -1.0133 -0.6973
  556SOL    HW2 1668   1.108   0.094   2.759 -0.7799 -1.4285  0.6804
  557SOL     OW 1669   0.129   1.845   2.384 -0.2418  0.3663  0.4033
  557SOL    HW1 1670   0.103   1.939   2.414 -3.5694 -0.3577 -0.9601
  557SOL    HW2 1671   0.163   1.788   2.462  0.5071 -0.7653  2.6679
  558SOL     OW 1672   2.124   1.032   2.528 -0.8225  0.1493 -0.6201
  558SOL    HW1 1673   2.173   0.989   2.451  2.6567  1.6934 -0.0930
  558SOL    HW2 1674   2.129   1.137   2.515 -1.1825  3.0267  0.9321
  559SOL     OW 1675   2.515   2.406   2.125 -0.2936  0.3309 -0.2748
  559SOL    HW1 1676   2.551   2.397   2.222  1.8362  2.1953 -1.8273
  559SOL    HW2 1677   2.432   2.463   2.130 -0.9806  0.8803 -1.3301
  560SOL     OW 1678   2.692   0.882   2.243  0.0546  0.1944  0.0296
  560SOL    HW1 1679   2.627   0.885   2.322 -0.5827 -0.8686 -0.3114
  560SOL    HW2 1680   2.775   0.939   2.258 -0.0772 -0.7848 -0.9354
  561SOL     OW 1681   0.578   0.559   0.593  0.0300 -0.0867  0.2441
  561SOL    HW1 1682   0.674   0.550   0.562 -1.5020 -1.2920 -2.9997
  561SOL    HW2 1683   0.513   0.548   0.510 -2.2174  0.1567 -2.5115
  562SOL     OW 1684   1.147   1.236   1.472 -0.5242 -0.0484  0.2348
  562SOL    HW1 1685   1.103   1.298   1.545  1.9300  0.1936  0.5163
  562SOL    HW2 1686   1.075   1.188   1.417  1.0266 -2.0017  0.5505
  563SOL     OW 1687   1.689   2.857   0.048 -0.0781  0.2386 -0.4964
  563SOL    HW1 1688   1.635   2.838   0.133 -2.4663 -1.3126 -1.2019
  563SOL    HW2 1689   1.679   2.954   0.037 -0.2032  0.5162 -1.1646
  564SOL     OW 1690   0.166   2.267   0.950  0.0710  0.5363  0.5491
  564SOL    HW1 1691   0.080   2.234   1.000  0.3825  0.5463  0.6392
  564SOL    HW2 1692   0.245   2.206   0.957 -0.7679 -0.6787  0.9576
  565SOL     OW 1693   0.663   2.257   2.224  0.0677 -0.2223  0.0940
  565SOL    HW1 1694   0.603   2.179   2.244  3.1892  1.0130 -0.1280
  565SOL    HW2 1695   0.616   2.344   2.231 -1.7613 -0.6877 -2.7290
  566SOL     OW 1696   1.088   2.683   2.546 -0.6993  0.0798  0.1556
  566SOL    HW1 1697   1.142   2.742   2.614 -1.9037  0.6761  0.7705
  566SOL    HW2 1698   1.075   2.728   2.457 -1.7125 -0.3133  1.8084
  567SOL     OW 1699   2.426   2.374   0.983 -0.2879  0.5000  0.1570
  567SOL    HW1 1700   2.479   2.290   1.013 -0.5686  1.7733 -1.0446
  567SOL    HW2 1701   2.338   2.344   0.941 -0.0334  0.2333 -1.0227
  568SOL     OW 1702   1.888   0.540   0.332  0.6277 -0.4432 -0.1612
  568SOL    HW1 1703   1.956   0.612   0.353  2.1504  0.6532  0.8628
  568SOL    HW2 1704   1.864   0.491   0.417  0.7180 -0.8213 -2.2862
  569SOL     OW 1705   2.966   1.702   2.610 -0.1420 -0.3178  0.0422
  569SOL    HW1 1706   3.001   1.653   2.529  1.3983 -0.8856  0.7418
  569SOL    HW2 1707   2.993   1.652   2.697  1.2246 -2.8526 -0.8964
  570SOL     OW 1708   0.245   0.145   1.185 -0.4653 -0.0112 -0.2287
  570SOL    HW1 1709   0.194   0.224   1.143 -0.8424  2.4321  0.2081
  570SOL    HW2 1710   0.185   0.067   1.197 -1.0365 -0.2752  0.8613
  571SOL     OW 1711   0.020   0.584   1.402  0.2968 -0.0121 -0.1525
  571SOL    HW1 1712   0.072   0.672   1.402  0.3458  1.5652  1.6885
  571SOL    HW2 1713   3.060   0.587   1.458 -1.5188  0.0052  2.5727
  572SOL     OW 1714   3.085   2.767   0.770 -0.4988 -1.0392  0.0306
  572SOL    HW1 1715   3.069   2.695   0.834  0.8372 -0.7199 -1.9921
  572SOL    HW2 1716   0.036   2.745   0.702 -1.5850 -1.5381 -1.1359
  573SOL     OW 1717   0.850   0.691   3.061 -0.2335 -0.0757 -0.1780
  573SOL    HW1 1718   0.800   0.637   0.009 -3.3445  1.1868  0.5057
  573SOL    HW2 1719   0.785   0.747   3.010 -0.0717 -0.6803  1.3278
  574SOL     OW 1720   2.888   2.626   0.023 -0.0041 -0.1592 -0.0875
  574SOL    HW1 1721   2.809   2.621   3.086 -0.5763 -2.2083 -0.5610
  574SOL    HW2 1722   2.953   2.702   3.119  1.1185 -1.4363 -0.5775
  575SOL     OW 1723   1.105   2.170   1.201  0.0923 -0.3930 -0.3547
  575SOL    HW1 1724   1.070   2.144   1.111  1.3714  1.9080  0.2816
  575SOL    HW2 1725   1.203   2.197   1.192 -2.4967  0.0271 -0.5015
  576SOL     OW 1726   0.602   2.862   1.174  0.5557 -0.6738 -0.1096
  576SOL    HW1 1727   0.629   2.858   1.271 -2.9286 -0.1265 -0.6145
  576SOL    HW2 1728   0.671   2.839   1.101 -1.7949  2.7471  2.8602
  577SOL     OW 1729   1.961   1.631   1.257  0.5534 -0.2909  0.0226
  577SOL    HW1 1730   1.954   1.728   1.241  1.5825 -0.3179  1.8769
  577SOL    HW2 1731   2.043   1.587   1.216  1.9191 -0.8013  3.0357
  578SOL     OW 1732   1.646   0.294   0.534 -0.6845  0.5421 -0.0850
  578SOL    HW1 1733   1.581   0.366   0.506  1.3610 -3.2246  1.0866
  578SOL    HW2 1734   1.735   0.338   0.566 -1.7398 -0.0681  1.7946
  579SOL     OW 1735   2.728   1.350   2.588  0.3289  0.3306  0.3433
  579SOL    HW1 1736   2.673   1.423   2.634  0.9079 -1.6714  0.5982
  579SOL    HW2 1737   2.666   1.276   2.562 -1.1388 -0.4908  1.2741
  580SOL     OW 1738   1.634   0.721   1.596  0.1094  0.0567  0.0717
  580SOL    HW1 1739   1.673   0.770   1.679  2.0797 -1.7614  2.4375
  580SOL    HW2 1740   1.634   0.619   1.610 -0.0739  0.6692 -1.0571
  581SOL     OW 1741   0.951   1.100   1.359  0.0356 -0.0497  0.1887
  581SOL    HW1 1742   0.895   1.072   1.439  2.8771 -1.4166  2.7613
  581SOL    HW2 1743   0.980   1.022   1.306  1.5235  1.6259  2.6037
  582SOL     OW 1744   2.795   0.097   2.246 -0.4671  0.3076 -0.1088
  582SOL    HW1 1745   2.693   0.107   2.236  3.9681 -0.0015 -0.9883
  582SOL    HW2 1746   2.846   0.185   2.267  0.8124  2.9860 -0.1464
  583SOL     OW 1747   2.347   0.657   1.960  0.0395 -0.0674  0.6144
  583SOL    HW1 1748   2.289   0.573   1.948  0.2397  0.4130  0.8200
  583SOL    HW2 1749   2.441   0.631   1.947  2.7436  0.3355  1.1152
  584SOL     OW 1750   1.462   1.874   2.864 -0.3068 -0.0446  0.0354
  584SOL    HW1 1751   1.528   1.926   2.917 -2.2327  0.4279 -0.3509
  584SOL    HW2 1752   1.521   1.803   2.814  2.2217 -0.3777 -1.4974
  585SOL     OW 1753   0.322   0.155   0.318  0.4284  0.1868  0.6265
  585SOL    HW1 1754   0.329   0.064   0.365  1.1988 -0.4132  0.0211
  585SOL    HW2 1755   0.345   0.157   0.219 -1.2591  3.2115 -1.6913
  586SOL     OW 1756   1.641   2.146   2.538  0.5951 -0.6372  0.0717
  586SOL    HW1 1757   1.574   2.171   2.614 -1.1261  1.2873  2.2785
  586SOL    HW2 1758   1.603   2.067   2.480 -2.2903  1.3123 -2.0275
  587SOL     OW 1759   2.653   2.411   0.365 -0.3295 -0.5624  0.3818
  587SOL    HW1 1760   2.594   2.475   0.418 -1.4471  0.9020  0.8665
  587SOL    HW2 1761   2.723   2.372   0.421 -2.2476 -0.5515  1.3230
  588SOL     OW 1762   2.652   0.199   1.055  0.0016  0.0057  0.2493
  588SOL    HW1 1763   2.713   0.237   1.129 -0.8728 -0.3125 -2.2505
  588SOL    HW2 1764   2.561   0.178   1.091 -0.1889 -1.7432 -0.7995
  589SOL     OW 1765   0.425   0.744   0.822 -0.7036  0.5838  0.1542
  589SOL    HW1 1766   0.513   0.799   0.829  0.2372  1.2911 -1.2481
  589SOL    HW2 1767   0.397   0.713   0.724 -1.5465 -0.7607 -1.3950
  590SOL     OW 1768   2.277   1.558   0.808  0.0119  0.7664  0.2637
  590SOL    HW1 1769   2.380   1.559   0.810 -0.7522 -0.2850  2.4571
  590SOL    HW2 1770   2.248   1.588   0.717 -1.7248  0.4356  1.6113
  591SOL     OW 1771   0.445   2.405   1.185  0.1502  0.0951 -0.7257
  591SOL    HW1 1772   0.470   2.387   1.092  1.0950 -1.2162  0.8276
  591SOL    HW2 1773   0.374   2.471   1.186  2.1712 -2.7527 -0.1412
  592SOL     OW 1774   1.208   0.704   1.148  0.1285  0.3394  0.8496
  592SOL    HW1 1775   1.231   0.645   1.231  0.1413  0.3774  0.6129
  592SOL    HW2 1776   1.107   0.708   1.132 -0.0447  0.4167 -2.1389
  593SOL     OW 1777   0.983   1.174   1.018  0.2034  0.5359 -0.7045
  593SOL    HW1 1778   0.983   1.275   1.011  0.8423  0.6320 -0.8540
  593SOL    HW2 1779   1.044   1.138   1.094 -0.2665 -1.3043  0.3118
  594SOL     OW 1780   1.071   2.042   0.360 -0.1987  0.3828  0.2342
  594SOL    HW1 1781   1.025   2.071   0.271 -1.5824  2.3616 -3.2974
  594SOL    HW2 1782   1.068   1.942   0.372  0.6234  2.0100  0.2057
  595SOL     OW 1783   1.633   0.245   1.217  0.1144  1.1446  0.2688
  595SOL    HW1 1784   1.696   0.289   1.151 -1.6459 -0.8121 -0.3130
  595SOL    HW2 1785   1.564   0.311   1.258 -0.8814 -0.8046  1.4567
  596SOL     OW 1786   3.015   1.658   0.791 -0.4066 -0.3260 -0.2463
  596SOL    HW1 1787   2.974   1.652   0.888 -1.9704  3.2683  1.8966
  596SOL    HW2 1788   3.092   1.725   0.781 -0.7525 -0.3786  1.0137
  597SOL     OW 1789   0.234   2.467   2.789 -0.5815  0.5572 -0.0334
  597SOL    HW1 1790   0.307   2.421   2.843  0.8283  0.9925  0.0855
  597SOL    HW2 1791   0.180   2.536   2.839 -1.0229  1.6823  0.4028
  598SOL     OW 1792   2.766   2.533   2.097 -0.1659 -0.6537  0.2030
  598SOL    HW1 1793   2.848   2.492   2.143  1.7576 -2.2247 -0.9696
  598SOL    HW2 1794   2.695   2.462   2.076 -0.7688  1.5861 -0.3057
  599SOL     OW 1795   0.957   0.402   0.120  0.8833 -0.4892  0.1768
  599SOL    HW1 1796   0.870   0.451   0.140 -0.8637  1.4431 -3.1601
  599SOL    HW2 1797   0.948   0.306   0.083  1.1841 -2.2647 -1.7796
  600SOL     OW 1798   0.698   2.569   0.108 -0.1858 -0.3227 -0.7571
  600SOL    HW1 1799   0.698   2.658   0.151  0.4104 -1.5650 -3.4988
  600SOL    HW2 1800   0.619   2.518   0.134  2.1849  2.8961  0.2779
  601SOL     OW 1801   0.463   0.887   1.403  0.2182 -0.6800 -0.0513
  601SOL    HW1 1802   0.520   0.854   1.327 -0.8789  2.4693 -1.1812
  601SOL    HW2 1803   0.448   0.818   1.475  1.6322  0.6931  1.9199
  602SOL     OW 1804   0.837   2.869   1.037  0.4649  0.5233 -0.1587
  602SOL    HW1 1805   0.861   2.794   0.974 -1.4317 -2.4119  1.6028
  602SOL    HW2 1806   0.861   2.836   1.131  0.0812  0.3145 -0.5227
  603SOL     OW 1807   0.760   0.307   2.194  0.0760 -0.6388  0.1898
  603SOL    HW1 1808   0.757   0.211   2.224  1.2246  0.6396 -4.0115
  603SOL    HW2 1809   0.670   0.332   2.152  1.0150  1.9914  0.0315
  604SOL     OW 1810   0.761   2.684   1.734  0.1456  0.1271 -0.1286
  604SOL    HW1 1811   0.766   2.779   1.694 -1.4108 -1.2363 -1.7845
  604SOL    HW2 1812   0.678   2.633   1.708 -1.9230  0.4729  2.2139
  605SOL     OW 1813   1.697   0.802   1.862 -0.0306  0.6817  0.4125
  605SOL    HW1 1814   1.696   0.897   1.853  1.1713 -3.6883  1.9806
  605SOL    HW2 1815   1.673   0.774   1.959 -0.8385  1.0528  2.1835
  606SOL     OW 1816   2.504   2.774   2.893  0.1336 -0.3122 -0.2122
  606SOL    HW1 1817   2.456   2.743   2.978 -1.1094  1.2296  2.1339
  606SOL    HW2 1818   2.534   2.871   2.913 -0.9161  2.2853 -0.8644
  607SOL     OW 1819   0.932   0.745   1.131  0.3281  0.0244 -0.7520
  607SOL    HW1 1820   0.917   0.833   1.083  1.9914  2.5594  1.7604
  607SOL    HW2 1821   0.880   0.746   1.222 -2.7390  0.5871  0.1997
  608SOL     OW 1822   0.334   1.904   2.670  0.5295  0.0476  0.1937
  608SOL    HW1 1823   0.334   1.965   2.589  1.6596  2.0629  4.0713
  608SOL    HW2 1824   0.288   1.814   2.655  1.4827 -1.4982 -0.3043
  609SOL     OW 1825   1.623   1.065   0.163 -0.6687  0.0198  0.4673
  609SOL    HW1 1826   1.564   1.088   0.244  0.9400 -1.3522 -0.4962
  609SOL    HW2 1827   1.566   1.076   0.078 -2.2027  0.6444  3.0314
  610SOL     OW 1828   0.399   0.458   1.376 -0.2513  1.2514 -0.0131
  610SOL    HW1 1829   0.436   0.368   1.348  0.7249  2.3910  0.3033
  610SOL    HW2 1830   0.407   0.519   1.298  0.1337 -0.3584 -1.2996
  611SOL     OW 1831   1.644   0.934   1.036 -0.2214  0.2039  0.0443
  611SOL    HW1 1832   1.557   0.884   1.020 -1.1748  1.6617  1.7122
  611SOL    HW2 1833   1.655   0.970   1.131  1.4567 -1.3122 -2.4935
  612SOL     OW 1834   1.905   1.062   0.188  0.3425  0.2043 -0.5646
  612SOL    HW1 1835   1.807   1.073   0.172  1.7334 -1.8521 -1.2320
  612SOL    HW2 1836   1.933   0.966   0.170  0.3780  0.1804  0.7213
  613SOL     OW 1837   2.181   0.485   0.478  0.5574 -0.1127  0.2516
  613SOL    HW1 1838   2.100   0.501   0.420 -1.0860  0.1961 -1.2126
  613SOL    HW2 1839   2.253   0.429   0.425  4.6900 -0.5483  0.5703
  614SOL     OW 1840   2.756   0.021   2.511  0.0150 -0.0678 -0.3166
  614SOL    HW1 1841   2.788   0.037   2.413  2.1474  0.7286 -0.2726
  614SOL    HW2 1842   2.811   0.073   2.578  0.5588 -0.2652  1.3255
  615SOL     OW 1843   0.812   1.886   1.041  0.3122 -0.2944 -0.0675
  615SOL    HW1 1844   0.837   1.818   1.109 -2.4489 -0.3172  0.5957
  615SOL    HW2 1845   0.726   1.933   1.078  3.4873  0.3299  0.3610
  616SOL     OW 1846   1.713   1.410   2.602  0.2137 -0.2975 -0.3854
  616SOL    HW1 1847   1.705   1.429   2.503  3.7272  0.9554 -0.0744
  616SOL    HW2 1848   1.643   1.350   2.639  2.5752  3.4394 -0.8840
  617SOL     OW 1849   1.426   0.141   2.913 -0.7725 -0.5297 -0.3008
  617SOL    HW1 1850   1.514   0.190   2.892  3.4549 -1.0125  0.6831
  617SOL    HW2 1851   1.429   0.121   3.012  0.3190 -0.8703 -0.6034
  618SOL     OW 1852   1.316   2.192   2.491  0.1761 -0.3481 -0.1213
  618SOL    HW1 1853   1.355   2.106   2.456 -1.9820 -2.2579  2.2279
  618SOL    HW2 1854   1.336   2.210   2.588 -0.6958  1.5684 -2.5687
  619SOL     OW 1855   2.680   1.347   0.932  0.5373 -0.1624  0.1617
  619SOL    HW1 1856   2.776   1.366   0.891  0.3679  1.8788 -1.8699
  619SOL    HW2 1857   2.629   1.282   0.872 -1.1638  1.1768  0.6265
  620SOL     OW 1858   2.101   2.822   2.441 -0.4409 -0.1274 -0.0160
  620SOL    HW1 1859   2.066   2.852   2.532  1.7350 -0.8780 -1.4009
  620SOL    HW2 1860   2.060   2.735   2.408 -0.9491  1.4186  0.3304
  621SOL     OW 1861   2.881   1.303   0.576 -0.3353 -0.2738  0.1249
  621SOL    HW1 1862   2.903   1.288   0.675 -0.2194 -1.8713 -1.4332
  621SOL    HW2 1863   2.901   1.400   0.547 -1.9887 -0.7334  0.7861
  622SOL     OW 1864   1.420   1.776   2.522  0.0353  0.5608  0.7677
  622SOL    HW1 1865   1.327   1.777   2.563 -0.2355  1.6927 -0.9138
  622SOL    HW2 1866   1.475   1.714   2.578 -2.9118 -1.9365  2.1191
  623SOL     OW 1867   0.326   2.637   2.559  0.8396 -0.2954  0.1314
  623SOL    HW1 1868   0.342   2.552   2.500  1.7685  0.5256 -0.0337
  623SOL    HW2 1869   0.282   2.608   2.643  0.2972  0.7066 -0.5123
  624SOL     OW 1870   0.789   2.643   2.978 -0.1603 -0.1177 -0.0922
  624SOL    HW1 1871   0.838   2.561   2.943 -0.1711 -2.6396  0.1473
  624SOL    HW2 1872   0.756   2.625   3.071  1.1633 -0.3386  0.1736
  625SOL     OW 1873   0.388   2.445   2.007 -0.1110 -0.7007  0.1885
  625SOL    HW1 1874   0.426   2.447   1.911 -1.4380  1.0763 -0.3110
  625SOL    HW2 1875   0.289   2.454   2.012  0.7246  0.2451  1.1232
  626SOL     OW 1876   0.159   0.106   3.066  0.1346 -0.5944  0.2190
  626SOL    HW1 1877   0.103   0.189   3.102 -1.7811  3.6750  3.3343
  626SOL    HW2 1878   0.113   0.073   2.983 -0.4449 -1.3182 -3.1993
  627SOL     OW 1879   2.143   1.737   0.180 -0.4801  0.2576 -0.5307
  627SOL    HW1 1880   2.194   1.807   0.237  1.5927  0.8369  2.6477
  627SOL    HW2 1881   2.118   1.778   0.090  1.9675 -2.3909  1.4833
  628SOL     OW 1882   1.683   1.911   0.266 -0.1104 -0.0965  0.0068
  628SOL    HW1 1883   1.734   1.892   0.350  1.0086  1.5323  0.1276
  628SOL    HW2 1884   1.584   1.889   0.279 -2.7423 -0.7907  4.1832
  629SOL     OW 1885   0.007   0.349   1.536  0.5879  0.3136  0.0854
  629SOL    HW1 1886   3.100   0.364   1.633  2.3097 -1.9962  0.3361
  629SOL    HW2 1887   0.085   0.405   1.511 -2.7911 -1.9113  1.7130
  630SOL     OW 1888   2.222   1.202   1.687 -0.6369 -0.4946 -0.7848
  630SOL    HW1 1889   2.183   1.142   1.615 -3.8867 -1.0965  2.0960
  630SOL    HW2 1890   2.262   1.148   1.763 -0.0315  2.5338 -0.8446
  631SOL     OW 1891   1.890   0.040   0.774 -0.2301 -0.1170  0.0018
  631SOL    HW1 1892   1.860   3.098   0.842 -1.0125  1.1256  0.1120
  631SOL    HW2 1893   1.886   0.139   0.803  0.3928 -0.2394  0.6338
  632SOL     OW 1894   2.738   0.908   1.979  0.4272  0.4214  0.0111
  632SOL    HW1 1895   2.798   0.989   1.950  4.1358  0.0021 -0.8770
  632SOL    HW2 1896   2.700   0.923   2.069 -0.0583 -4.4661 -1.6406
  633SOL     OW 1897   0.755   0.533   2.627  0.1085  0.5970  0.6043
  633SOL    HW1 1898   0.815   0.607   2.654 -1.9472  0.5180 -0.4242
  633SOL    HW2 1899   0.816   0.458   2.593  0.9038  0.8633 -1.3796
  634SOL     OW 1900   0.557   2.817   2.897 -0.2947  0.0623 -0.1696
  634SOL    HW1 1901   0.630   2.749   2.918 -1.4417  1.3347 -1.1351
  634SOL    HW2 1902   0.487   2.812   2.971  0.3939 -1.1267  1.1154
  635SOL     OW 1903   3.120   1.379   1.031 -0.2721 -0.2288  0.1180
  635SOL    HW1 1904   3.070   1.465   1.016  3.0125 -2.1702 -0.8034
  635SOL    HW2 1905   3.069   1.306   1.078  0.9186 -0.7885  1.2448
  636SOL     OW 1906   0.127   1.584   0.114 -0.2018  0.1488  0.3894
  636SOL    HW1 1907   0.117   1.482   0.108  4.7014  1.5285  0.8745
  636SOL    HW2 1908   0.207   1.610   0.053 -0.8313 -4.3524 -1.2783
  637SOL     OW 1909   0.280   2.608   0.237  0.5796 -0.2692 -0.1865
  637SOL    HW1 1910   0.253   2.552   0.156 -0.6379  2.8852  1.0131
  637SOL    HW2 1911   0.197   2.613   0.291  2.0578 -1.4125 -2.5538
  638SOL     OW 1912   2.845   2.616   0.535  0.3777  0.0052 -0.0778
  638SOL    HW1 1913   2.934   2.659   0.516  0.9567  0.3268 -1.4016
  638SOL    HW2 1914   2.865   2.543   0.602 -1.4701 -0.3428  0.8645
  639SOL     OW 1915   1.290   0.963   0.234 -0.2864 -0.7194 -0.1493
  639SOL    HW1 1916   1.304   1.064   0.220 -0.3824  1.2572  1.0197
  639SOL    HW2 1917   1.189   0.941   0.217 -3.1706  2.1872 -0.1212
  640SOL     OW 1918   1.875   2.396   1.814 -0.3161  0.3426  0.9166
  640SOL    HW1 1919   1.812   2.320   1.799  2.7401  1.5102  2.4664
  640SOL    HW2 1920   1.900   2.445   1.730  1.1743 -2.4175  0.3090
  641SOL     OW 1921   3.028   3.121   0.552 -0.2415  0.0750 -0.6754
  641SOL    HW1 1922   2.988   3.064   0.626 -0.9334 -0.3041 -4.0760
  641SOL    HW2 1923   2.987   0.090   0.554 -0.9962  2.2272 -1.7233
  642SOL     OW 1924   1.205   0.879   1.941 -0.5008 -0.0834 -0.4793
  642SOL    HW1 1925   1.254   0.966   1.929 -0.9787 -0.7487 -0.8221
  642SOL    HW2 1926   1.237   0.819   1.867 -0.0532 -0.0979 -0.2980
  643SOL     OW 1927   0.748   1.930   2.600  0.0631 -0.0333 -0.6199
  643SOL    HW1 1928   0.797   2.015   2.576 -0.2627 -1.8306 -1.0157
  643SOL    HW2 1929   0.679   1.944   2.670  1.3206  2.4640 -0.8373
  644SOL     OW 1930   1.210   2.453   2.751  0.2749 -0.3302 -0.0770
  644SOL    HW1 1931   1.177   2.451   2.847 -0.7463  0.7869 -0.5251
  644SOL    HW2 1932   1.150   2.510   2.694  0.3490 -0.8210 -0.5336
  645SOL     OW 1933   1.447   1.268   1.761 -0.2112  0.3342  0.1556
  645SOL    HW1 1934   1.514   1.284   1.833 -1.9307 -0.6883 -2.7581
  645SOL    HW2 1935   1.479   1.187   1.702  0.8397 -0.3902 -1.5964
  646SOL     OW 1936   0.909   2.868   2.891 -0.1361 -0.4749 -0.1647
  646SOL    HW1 1937   0.866   2.780   2.929 -0.3552 -1.8967 -1.4640
  646SOL    HW2 1938   0.845   2.924   2.835  2.7542  0.0233  0.1591
  647SOL     OW 1939   0.916   2.998   0.555 -0.0149  0.3682  0.0764
  647SOL    HW1 1940   0.826   3.044   0.563  3.1252  1.3161 -1.9177
  647SOL    HW2 1941   0.991   3.060   0.590  0.5110  0.7908  2.9201
  648SOL     OW 1942   2.656   2.994   1.405  0.1231 -0.1551 -0.1922
  648SOL    HW1 1943   2.638   2.979   1.309  1.2981  0.8096 -0.9807
  648SOL    HW2 1944   2.611   2.933   1.474 -1.1115  1.7964 -0.1733
  649SOL     OW 1945   0.904   2.391   2.892  0.0639 -0.0239  0.0546
  649SOL    HW1 1946   1.002   2.387   2.920  0.0032  0.2350  1.6130
  649SOL    HW2 1947   0.864   2.296   2.895 -0.2610 -1.8721  0.7501
  650SOL     OW 1948   2.511   2.118   2.081  0.2142 -0.5379 -0.2089
  650SOL    HW1 1949   2.442   2.098   2.160 -1.0917 -0.9851  2.1390
  650SOL    HW2 1950   2.510   2.223   2.062 -0.8719  2.1571 -1.3959
  651SOL     OW 1951   3.023   2.421   2.226  0.3482 -0.1362  0.6856
  651SOL    HW1 1952   3.094   2.495   2.244  0.1074 -1.7639  1.4768
  651SOL    HW2 1953   2.977   2.394   2.309 -0.9810  1.6255 -1.5155
  652SOL     OW 1954   2.694   1.977   0.521 -0.2673  0.2021 -0.3210
  652SOL    HW1 1955   2.739   2.041   0.586 -0.0345  1.4582  0.3887
  652SOL    HW2 1956   2.596   2.001   0.500 -1.9997  1.3241 -0.6387
  653SOL     OW 1957   2.748   1.010   1.106  0.6553 -0.5075 -0.1288
  653SOL    HW1 1958   2.731   0.933   1.040 -0.5819 -1.3343 -2.8854
  653SOL    HW2 1959   2.663   1.040   1.143  1.1133  3.0935  0.5099
  654SOL     OW 1960   0.963   0.168   3.065 -0.1039  0.6536  0.0096
  654SOL    HW1 1961   1.031   0.139   2.997  1.7153 -0.1217 -0.9550
  654SOL    HW2 1962   0.872   0.172   3.022  1.2186 -1.7451  2.5290
  655SOL     OW 1963   1.110   0.168   1.378  0.0658  0.0428 -0.6130
  655SOL    HW1 1964   1.039   0.109   1.420 -0.1708 -1.7101  2.5165
  655SOL    HW2 1965   1.109   0.251   1.440 -0.9248  2.1763 -0.1528
  656SOL     OW 1966   0.106   2.774   2.018  0.3378 -0.6054  0.2497
  656SOL    HW1 1967   0.201   2.785   1.976  2.9330 -1.7828 -2.4874
  656SOL    HW2 1968   0.065   2.863   2.035  2.4555 -1.8820  0.8027
  657SOL     OW 1969   2.274   0.600   0.114 -0.3893  0.1253 -0.2295
  657SOL    HW1 1970   2.296   0.570   0.211  1.2343  0.8400 -1.0576
  657SOL    HW2 1971   2.354   0.588   0.047 -0.0220  1.9775 -1.5513
  658SOL     OW 1972   2.077   1.727   0.920  0.0341 -0.2313  0.2148
  658SOL    HW1 1973   2.085   1.777   1.006 -1.2904  0.6178 -2.3773
  658SOL    HW2 1974   2.164   1.672   0.905 -0.5290 -2.0802 -0.4368
  659SOL     OW 1975   2.693   2.239   2.727  0.4431 -0.7918 -0.2089
  659SOL    HW1 1976   2.616   2.304   2.716  2.3118  1.9062  0.9237
  659SOL    HW2 1977   2.782   2.287   2.732 -0.6238  0.7864 -0.3533
  660SOL     OW 1978   1.571   0.065   0.045  0.2024  0.2641 -0.0890
  660SOL    HW1 1979   1.556   0.125   0.126 -0.1268  0.6378  0.7378
  660SOL    HW2 1980   1.669   0.075   0.023 -1.0766 -1.9671  0.7148
  661SOL     OW 1981   2.286   0.132   0.081 -0.0700  0.3030 -0.1855
  661SOL    HW1 1982   2.264   0.034   0.101  1.2710  0.6246 -0.2948
  661SOL    HW2 1983   2.372   0.138   0.027  0.9330 -1.4921  2.5564
  662SOL     OW 1984   0.784   0.224   0.869 -0.4108  0.0566  0.2083
  662SOL    HW1 1985   0.715   0.299   0.854 -0.0888  0.6091  2.0339
  662SOL    HW2 1986   0.751   0.129   0.845 -0.2540  0.0094  0.7598
  663SOL     OW 1987   1.345   0.451   2.378  0.4926 -0.1597  0.0448
  663SOL    HW1 1988   1.301   0.472   2.291 -1.8650  2.1825  0.1335
  663SOL    HW2 1989   1.412   0.518   2.410 -1.8836 -0.4943  1.4351
  664SOL     OW 1990   0.674   2.772   1.451  0.0393  0.4582 -0.2974
  664SOL    HW1 1991   0.604   2.718   1.499 -0.5641  1.3176 -1.0606
  664SOL    HW2 1992   0.700   2.854   1.502 -1.2575 -0.9781 -4.6202
  665SOL     OW 1993   0.858   2.338   1.826 -0.1427 -0.0683 -0.2395
  665SOL    HW1 1994   0.912   2.412   1.780 -0.4068 -0.6253 -0.2753
  665SOL    HW2 1995   0.851   2.352   1.928 -0.3255  1.0461 -0.4352
  666SOL     OW 1996   0.371   3.122   2.567 -0.3880 -0.6433  0.5182
  666SOL    HW1 1997   0.389   3.032   2.607 -0.1882  0.2937 -0.9086
  666SOL    HW2 1998   0.341   3.118   2.471 -0.6376  0.6570  1.1996
  667SOL     OW 1999   1.710   1.823   1.420  0.4651 -0.3277  0.0721
  667SOL    HW1 2000   1.738   1.731   1.455 -0.5189 -1.2542 -1.2221
  667SOL    HW2 2001   1.778   1.886   1.463  1.8289 -1.3870 -0.4280
  668SOL     OW 2002   1.520   0.409   1.773  0.2054 -0.1653  0.1631
  668SOL    HW1 2003   1.615   0.414   1.750 -1.7407  0.5339  2.6789
  668SOL    HW2 2004   1.476   0.326   1.740 -1.6822  2.1000 -0.2711
  669SOL     OW 2005   2.673   2.711   1.263 -0.0892 -0.2333  0.1037
  669SOL    HW1 2006   2.585   2.667   1.230  0.2755 -1.5643  1.1739
  669SOL    HW2 2007   2.724   2.771   1.198 -2.5635  1.9230  0.9573
  670SOL     OW 2008   1.488   2.220   2.743  0.0390 -0.1368 -0.0648
  670SOL    HW1 2009   1.455   2.162   2.814  0.9413  0.5406 -1.3600
  670SOL    HW2 2010   1.561   2.290   2.766  1.3277 -0.5522 -1.2882
  671SOL     OW 2011   0.926   1.261   0.603 -0.7354  0.2596 -0.1123
  671SOL    HW1 2012   0.843   1.229   0.656 -1.4508 -0.9026 -3.8147
  671SOL    HW2 2013   1.015   1.217   0.622  2.7830 -1.1789  1.9931
  672SOL     OW 2014   3.026   1.100   2.520  0.1479  0.1081 -0.0355
  672SOL    HW1 2015   3.015   1.106   2.623 -1.4912  1.2711 -1.9944
  672SOL    HW2 2016   3.027   1.000   2.489  1.4980 -2.6870 -0.5807
  673SOL     OW 2017   2.665   2.122   1.425  0.4265 -0.4832  0.5342
  673SOL    HW1 2018   2.702   2.065   1.501 -1.1369 -0.6310 -3.0028
  673SOL    HW2 2019   2.598   2.188   1.467  0.0285  0.8052  1.5312
  674SOL     OW 2020   0.533   2.488   2.242  0.3429  0.0113  0.0473
  674SOL    HW1 2021   0.484   2.494   2.148 -0.8127  0.2179  0.8473
  674SOL    HW2 2022   0.559   2.580   2.271 -1.1055 -0.9467 -1.8692
  675SOL     OW 2023   0.840   0.796   1.559  0.2097 -0.5120  0.3602
  675SOL    HW1 2024   0.928   0.837   1.588 -2.2281 -0.1508  0.9670
  675SOL    HW2 2025   0.779   0.876   1.527 -0.1281  0.3282 -1.6884
  676SOL     OW 2026   2.413   0.134   1.154  0.3092  0.3837 -0.3968
  676SOL    HW1 2027   2.353   0.065   1.110  0.4007 -0.9577 -2.1205
  676SOL    HW2 2028   2.369   0.225   1.165  0.2956 -0.0633 -1.0715
  677SOL     OW 2029   2.345   1.446   3.081 -0.0235  0.2696  0.5776
  677SOL    HW1 2030   2.275   1.489   0.011 -0.7562 -0.3401 -1.6034
  677SOL    HW2 2031   2.386   1.510   3.009  1.1667 -0.2468 -2.4432
  678SOL     OW 2032   2.968   1.178   1.160 -0.2697 -0.3539 -0.2447
  678SOL    HW1 2033   2.981   1.188   1.263 -0.8266  0.1730  1.9249
  678SOL    HW2 2034   2.885   1.134   1.128  1.1003  1.1276 -2.6253
  679SOL     OW 2035   2.607   0.335   3.074  0.9429  0.2417 -0.6926
  679SOL    HW1 2036   2.610   0.327   0.053  1.7263  1.2993 -0.9901
  679SOL    HW2 2037   2.704   0.337   3.032  1.9588 -0.2228  0.9316
  680SOL     OW 2038   0.135   1.905   1.757  0.0290  0.2941 -0.0385
  680SOL    HW1 2039   0.090   1.983   1.811 -0.7000  0.1794  1.2933
  680SOL    HW2 2040   0.161   1.830   1.821  1.9572 -1.2369  0.3714
  681SOL     OW 2041   2.001   2.131   1.365 -0.4557  0.3419  0.2535
  681SOL    HW1 2042   1.998   2.060   1.434 -1.6033  3.0830 -0.5358
  681SOL    HW2 2043   1.911   2.177   1.360 -1.3808  3.9951  1.0595
  682SOL     OW 2044   0.352   1.659   3.115 -0.2661 -0.4542  0.0429
  682SOL    HW1 2045   0.407   1.741   3.084  1.5345  1.3476  1.2120
  682SOL    HW2 2046   0.416   1.581   3.107  2.4611 -1.1229 -0.9432
  683SOL     OW 2047   0.042   2.052   1.306  0.3444  0.1737  0.2087
  683SOL    HW1 2048   0.140   2.066   1.320  0.0685  0.3309 -0.8344
  683SOL    HW2 2049   0.004   2.104   1.229  1.2197 -0.8404 -1.1714
  684SOL     OW 2050   2.969   1.282   2.072  0.2873  0.3825  0.2187
  684SOL    HW1 2051   2.959   1.227   1.987  0.9151  1.4731 -1.4965
  684SOL    HW2 2052   2.956   1.221   2.150  0.4107 -1.0519  3.1218
  685SOL     OW 2053   1.373   1.074   0.692  0.5019  0.6915  0.0016
  685SOL    HW1 2054   1.460   1.088   0.740 -0.4448 -2.8683 -1.7811
  685SOL    HW2 2055   1.322   0.993   0.731 -2.8100 -1.8161  1.3551
  686SOL     OW 2056   0.480   0.361   0.752 -0.3164 -0.1299  0.0024
  686SOL    HW1 2057   0.534   0.449   0.738 -0.7166  0.0916 -1.1002
  686SOL    HW2 2058   0.497   0.295   0.674 -0.7329  1.1558 -1.4076
  687SOL     OW 2059   1.091   2.091   2.937  0.1269  0.1466  0.5201
  687SOL    HW1 2060   1.123   2.035   3.014 -0.5308  2.1571  0.7842
  687SOL    HW2 2061   1.102   2.190   2.950 -1.7221 -1.2545  1.0899
  688SOL     OW 2062   1.655   0.812   1.348 -0.3642  0.0694 -0.0186
  688SOL    HW1 2063   1.588   0.886   1.327 -1.5847  0.4299  0.7085
  688SOL    HW2 2064   1.657   0.779   1.447 -1.8262  0.1160 -1.2606
  689SOL     OW 2065   1.903   0.267   0.908  1.0648  0.2694 -0.1433
  689SOL    HW1 2066   1.981   0.269   0.975  0.1243 -0.0798 -0.5206
  689SOL    HW2 2067   1.837   0.343   0.936 -1.5962  1.4872  0.1281
  690SOL     OW 2068   0.109   1.485   0.673 -0.1775 -0.0349 -0.2161
  690SOL    HW1 2069   0.064   1.559   0.725 -0.5032 -1.2537 -1.2602
  690SOL    HW2 2070   0.075   1.481   0.576 -0.7374 -0.2923 -0.7064
  691SOL     OW 2071   0.287   2.176   1.288 -0.7067 -0.1898  0.1561
  691SOL    HW1 2072   0.332   2.086   1.276  2.0559  0.2911  0.7338
  691SOL    HW2 2073   0.342   2.259   1.259  2.2378  1.6301 -2.1790
  692SOL     OW 2074   1.997   0.110   1.536  0.4268 -0.2465  0.8176
  692SOL    HW1 2075   1.968   0.147   1.626  0.6615  0.6521 -0.6970
  692SOL    HW2 2076   2.092   0.141   1.517 -1.4278  2.2270 -3.8915
  693SOL     OW 2077   0.531   1.682   2.195  0.0925 -0.2999  0.2778
  693SOL    HW1 2078   0.490   1.737   2.122  1.8998 -1.2599 -0.1517
  693SOL    HW2 2079   0.574   1.746   2.260  1.6048 -1.2066 -0.2394
  694SOL     OW 2080   2.052   1.187   1.002 -0.1201  0.1840 -0.2065
  694SOL    HW1 2081   1.974   1.250   0.982 -0.0270 -1.1067  0.4967
  694SOL    HW2 2082   2.136   1.238   0.983 -1.2123 -2.2653 -1.9818
  695SOL     OW 2083   1.252   0.837   0.782  0.0055  0.4685  0.0222
  695SOL    HW1 2084   1.242   0.754   0.721  1.3606 -0.7769 -2.2300
  695SOL    HW2 2085   1.330   0.809   0.842  0.7227 -0.1897 -0.6398
  696SOL     OW 2086   0.529   0.183   0.529  0.4628 -0.0931 -0.2624
  696SOL    HW1 2087   0.487   0.196   0.437 -2.2000 -1.5469  0.6444
  696SOL    HW2 2088   0.571   0.092   0.534 -3.7645  1.7785 -3.0507
  697SOL     OW 2089   2.083   0.553   1.088  0.1143  0.3370  0.2980
  697SOL    HW1 2090   2.099   0.497   1.169 -0.9200  3.2138 -0.3038
  697SOL    HW2 2091   2.014   0.625   1.101 -0.6779  0.7676 -1.7036
  698SOL     OW 2092   1.552   1.353   2.192  0.0606 -0.4090 -0.3839
  698SOL    HW1 2093   1.486   1.427   2.177  0.8878  1.7427 -0.3347
  698SOL    HW2 2094   1.630   1.398   2.243  0.4780  1.3406 -0.3347
  699SOL     OW 2095   2.615   0.529   1.995  0.0235  0.2094  0.1404
  699SOL    HW1 2096   2.665   0.555   2.079  0.7595  1.2985  1.3740
  699SOL    HW2 2097   2.676   0.519   1.914 -1.9713 -1.4832  0.8355
  700SOL     OW 2098   1.740   2.432   0.495 -0.0226  0.2584  0.3002
  700SOL    HW1 2099   1.737   2.507   0.566  0.8398 -0.9697 -0.4825
  700SOL    HW2 2100   1.734   2.465   0.398 -0.6539 -0.0977  0.9732
  701SOL     OW 2101   2.647   1.945   2.577 -0.2996  0.7881  0.1969
  701SOL    HW1 2102   2.608   1.852   2.554 -1.9659  1.5412  0.6715
  701SOL    HW2 2103   2.657   1.956   2.677  1.1292 -1.5900 -1.0411
  702SOL     OW 2104   0.665   3.075   0.566 -0.2469 -0.1170  0.2448
  702SOL    HW1 2105   0.663   3.085   0.668  0.2668 -0.2202 -0.9532
  702SOL    HW2 2106   0.632   2.981   0.533 -0.0925 -2.1797 -2.0557
  703SOL     OW 2107   1.709   2.993   2.277  0.0279 -0.3213  0.4656
  703SOL    HW1 2108   1.638   2.946   2.226  0.8825  2.8002  0.4118
  703SOL    HW2 2109   1.730   2.939   2.361 -1.4307  0.9602 -1.2970
  704SOL     OW 2110   2.803   2.211   0.221 -0.1069 -0.5842 -0.5445
  704SOL    HW1 2111   2.886   2.212   0.286  2.3804  0.3728  3.6880
  704SOL    HW2 2112   2.736   2.289   0.235  0.0190 -0.0464  1.4544
  705SOL     OW 2113   2.844   2.314   2.424  0.0537 -0.3147 -0.1538
  705SOL    HW1 2114   2.824   2.216   2.407  2.0849  3.0577  0.3272
  705SOL    HW2 2115   2.895   2.329   2.512 -0.3848  0.1378 -2.5326
  706SOL     OW 2116   2.504   0.118   0.456  0.0162  0.8488  0.0753
  706SOL    HW1 2117   2.532   0.175   0.373 -0.7854  0.8314 -1.5223
  706SOL    HW2 2118   2.544   0.023   0.446  0.9063 -2.4803 -1.2296
  707SOL     OW 2119   1.119   0.522   2.542  0.2875 -0.1926 -0.4740
  707SOL    HW1 2120   1.037   0.462   2.517 -1.0215  1.3147  0.4690
  707SOL    HW2 2121   1.206   0.469   2.539  0.8952 -2.5031 -2.6247
  708SOL     OW 2122   0.327   2.092   1.709 -0.1608  0.2502 -0.2565
  708SOL    HW1 2123   0.250   2.024   1.716  0.4837  0.8944 -0.0036
  708SOL    HW2 2124   0.369   2.104   1.803  1.5956 -1.8489  3.1330
  709SOL     OW 2125   1.241   2.965   1.915 -0.5283 -0.6075  0.0478
  709SOL    HW1 2126   1.259   3.054   1.960  0.7538  0.9670  1.1727
  709SOL    HW2 2127   1.291   2.947   1.825 -0.2428  0.1204 -4.0137
  710SOL     OW 2128   1.467   2.581   2.766  0.0561 -0.3004 -0.3561
  710SOL    HW1 2129   1.368   2.549   2.756 -0.4532  1.4805  0.1285
  710SOL    HW2 2130   1.532   2.513   2.806  1.0107 -0.3519  0.1625
  711SOL     OW 2131   0.769   2.427   2.652 -0.2513 -0.5229  0.1791
  711SOL    HW1 2132   0.788   2.366   2.571  0.2322 -2.1181 -1.0345
  711SOL    HW2 2133   0.831   2.414   2.735  1.1092  0.4229  1.3726
  712SOL     OW 2134   1.245   2.020   0.044 -0.0790  0.6997 -0.6043
  712SOL    HW1 2135   1.203   1.926   0.055 -0.5801 -0.5682  1.0352
  712SOL    HW2 2136   1.257   2.067   0.131 -0.2195 -1.4732 -0.8358
  713SOL     OW 2137   1.994   1.304   1.826  0.1857  0.3462  0.3056
  713SOL    HW1 2138   2.067   1.259   1.771 -1.2666 -1.6306  3.1606
  713SOL    HW2 2139   1.957   1.240   1.897  0.6538 -1.0991 -0.1622
  714SOL     OW 2140   0.708   1.035   1.992  0.1120  0.1599 -0.1814
  714SOL    HW1 2141   0.651   0.971   2.042  0.1454  1.4374  1.2543
  714SOL    HW2 2142   0.803   1.001   1.988 -2.1679 -0.7161  0.1511
  715SOL     OW 2143   2.603   0.278   0.224  0.4344 -0.4175  0.7369
  715SOL    HW1 2144   2.667   0.200   0.241 -3.1813  0.0462 -1.4118
  715SOL    HW2 2145   2.649   0.364   0.252 -2.8225 -0.2145 -2.7256
  716SOL     OW 2146   0.315   2.890   1.130 -0.0604 -0.5422 -0.0107
  716SOL    HW1 2147   0.413   2.894   1.144 -0.1604 -1.5054 -1.6979
  716SOL    HW2 2148   0.275   2.958   1.064  1.5579  2.1697  0.9131
  717SOL     OW 2149   2.481   0.715   0.928  0.6447 -0.4996 -0.8075
  717SOL    HW1 2150   2.455   0.617   0.931 -0.5973  0.2443  0.7069
  717SOL    HW2 2151   2.429   0.779   0.991 -1.2460  0.9556 -0.0883
  718SOL     OW 2152   1.571   1.099   1.550 -0.1664 -0.5210 -0.2355
  718SOL    HW1 2153   1.580   1.168   1.475  0.9639 -0.9249  1.7640
  718SOL    HW2 2154   1.659   1.073   1.594  0.2292  1.6069 -0.3060
  719SOL     OW 2155   2.752   2.655   2.913  0.0041 -0.7269  0.3912
  719SOL    HW1 2156   2.670   2.714   2.914  0.5684 -1.2156 -2.0614
  719SOL    HW2 2157   2.744   2.609   2.824  1.7800  0.2468 -2.4191
  720SOL     OW 2158   1.087   0.463   0.868  0.1367 -0.0343  0.0810
  720SOL    HW1 2159   1.000   0.512   0.889 -0.7339 -2.2304  0.2546
  720SOL    HW2 2160   1.077   0.360   0.879  0.5028 -1.4240  1.2828
  721SOL     OW 2161   2.124   0.183   1.024  0.6325 -0.8050  0.4637
  721SOL    HW1 2162   2.144   0.085   1.027 -0.0091  3.5110 -1.4739
  721SOL    HW2 2163   2.137   0.201   0.921  0.7760 -1.7737 -3.3052
  722SOL     OW 2164   0.702   2.081   1.898  0.8797 -0.0668 -0.3238
  722SOL    HW1 2165   0.611   2.103   1.935  0.4527 -4.0239  0.6013
  722SOL    HW2 2166   0.756   2.169   1.884 -1.5635 -1.7307 -2.4313
  723SOL     OW 2167   1.072   2.963   1.561 -0.0680 -0.3734  0.2616
  723SOL    HW1 2168   1.171   2.952   1.578 -3.8863  0.1139 -0.9264
  723SOL    HW2 2169   1.019   2.933   1.646  0.7586  1.8923  0.9485
  724SOL     OW 2170   1.496   1.972   1.339  0.0418 -0.2662  0.2453
  724SOL    HW1 2171   1.433   1.939   1.418 -2.4985 -2.6265  0.7610
  724SOL    HW2 2172   1.581   1.931   1.360 -2.9892  0.3671  0.2472
  725SOL     OW 2173   1.318   2.452   1.293  0.2250  0.2646 -0.2627
  725SOL    HW1 2174   1.315   2.375   1.226 -1.0750  0.2504  1.3356
  725SOL    HW2 2175   1.354   2.536   1.249 -0.3658 -1.4251  1.4678
  726SOL     OW 2176   1.597   0.200   0.298  0.6576 -0.4630  0.6412
  726SOL    HW1 2177   1.592   0.241   0.393 -0.4445  2.1139  4.3357
  726SOL    HW2 2178   1.668   0.246   0.244 -1.7492  0.5182  0.4026
  727SOL     OW 2179   1.685   1.676   0.467  0.5511  0.0297  0.3065
  727SOL    HW1 2180   1.615   1.628   0.413  1.2542 -1.4308  0.9129
  727SOL    HW2 2181   1.776   1.672   0.424  0.1965 -2.9223  1.7115
  728SOL     OW 2182   1.876   2.563   2.038 -0.4522  0.4186 -0.1748
  728SOL    HW1 2183   1.886   2.485   1.973  0.8740  1.4215 -4.3819
  728SOL    HW2 2184   1.811   2.635   2.007  0.8914 -0.1472  0.9933
  729SOL     OW 2185   2.119   2.592   1.503  0.1617 -0.1464  0.2706
  729SOL    HW1 2186   2.138   2.619   1.600 -1.1199  0.0349 -0.7761
  729SOL    HW2 2187   2.204   2.550   1.456  2.2664 -0.7982 -1.5810
  730SOL     OW 2188   1.534   0.998   2.687  0.5095 -0.6784 -0.3681
  730SOL    HW1 2189   1.582   0.968   2.776  2.2004 -0.0551  0.8064
  730SOL    HW2 2190   1.467   0.933   2.655  0.1136  3.5201  0.8761
  731SOL     OW 2191   0.721   0.121   1.525 -1.0236 -0.1775 -0.3279
  731SOL    HW1 2192   0.618   0.134   1.528 -1.3982  1.2511 -0.0781
  731SOL    HW2 2193   0.769   0.100   1.610  1.5982 -0.7990 -1.5931
  732SOL     OW 2194   1.227   2.932   1.106 -0.6389  0.4989  0.4304
  732SOL    HW1 2195   1.192   2.883   1.187 -0.5263 -1.1523 -0.1751
  732SOL    HW2 2196   1.212   3.034   1.102 -0.6135  0.9551  0.4537
  733SOL     OW 2197   1.307   1.129   1.076 -0.0105  0.1893 -0.2072
  733SOL    HW1 2198   1.296   1.145   0.978  1.4702  0.9438 -0.2461
  733SOL    HW2 2199   1.297   1.213   1.133 -1.0285  0.2958  0.5681
  734SOL     OW 2200   2.451   2.181   0.382 -0.6445  0.0960 -0.2476
  734SOL    HW1 2201   2.380   2.177   0.306 -2.1677  2.0155 -2.3134
  734SOL    HW2 2202   2.513   2.258   0.357 -0.7644  0.2383 -0.1713
  735SOL     OW 2203   0.790   0.259   0.451 -0.9091 -0.2880 -0.4876
  735SOL    HW1 2204   0.875   0.225   0.496  2.1467  1.7408  0.7711
  735SOL    HW2 2205   0.714   0.205   0.480  0.8308 -2.3113 -0.9236
  736SOL     OW 2206   1.946   2.136   2.738  0.0638  0.0401  0.0613
  736SOL    HW1 2207   1.977   2.111   2.831 -1.0078 -0.1050 -0.8852
  736SOL    HW2 2208   1.951   2.054   2.678 -1.1698  1.0856  0.1680
  737SOL     OW 2209   0.857   2.531   1.048 -0.1096 -0.0740  0.4421
  737SOL    HW1 2210   0.903   2.576   0.963  2.4903  0.2736 -0.4848
  737SOL    HW2 2211   0.855   2.608   1.116 -0.5341  0.5203 -1.5005
  738SOL     OW 2212   1.583   0.107   2.223 -0.3392 -0.5696 -0.0321
  738SOL    HW1 2213   1.537   0.093   2.315 -2.6143 -1.7192  2.2459
  738SOL    HW2 2214   1.656   0.035   2.215  0.6176 -2.1824 -1.2096
  739SOL     OW 2215   0.865   2.367   2.092  0.1920 -0.1695  0.0700
  739SOL    HW1 2216   0.965   2.360   2.119  1.5358  0.5080 -3.6721
  739SOL    HW2 2217   0.798   2.319   2.154 -0.8678  2.1797  0.8545
  740SOL     OW 2218   1.505   2.306   1.656  0.0858  0.6655 -0.2117
  740SOL    HW1 2219   1.503   2.399   1.683 -2.9268 -0.0185 -1.8941
  740SOL    HW2 2220   1.525   2.305   1.558 -0.4696  1.5314  0.6605
  741SOL     OW 2221   2.589   1.316   0.029 -0.5536 -0.4166 -0.1674
  741SOL    HW1 2222   2.662   1.386   0.065  5.4069  0.7549  0.1478
  741SOL    HW2 2223   2.501   1.359   0.002 -0.8611 -1.4035 -0.2011
  742SOL     OW 2224   0.712   1.621   1.978 -0.2782 -0.1612  0.1820
  742SOL    HW1 2225   0.644   1.656   2.048 -2.2941 -0.9599  0.2730
  742SOL    HW2 2226   0.727   1.519   1.986  0.0586 -3.5454  2.3035
  743SOL     OW 2227   3.032   0.837   2.440 -0.8259 -0.0048  0.4595
  743SOL    HW1 2228   0.007   0.826   2.413  0.1885  1.4333  0.0971
  743SOL    HW2 2229   3.011   0.772   2.513 -0.4190  2.4118 -0.5300
  744SOL     OW 2230   2.283   2.232   1.368  0.2511  0.2575 -1.0015
  744SOL    HW1 2231   2.187   2.199   1.388  0.1683 -0.2341 -1.3053
  744SOL    HW2 2232   2.320   2.294   1.436  0.6701 -2.5394 -0.1076
  745SOL     OW 2233   2.385   1.802   1.406 -0.1335 -0.1334  0.2240
  745SOL    HW1 2234   2.295   1.768   1.425 -0.1105 -1.1066 -0.1237
  745SOL    HW2 2235   2.442   1.826   1.486  0.1192  1.7987 -0.7003
  746SOL     OW 2236   2.585   1.050   0.652  0.0357 -0.2897 -0.4546
  746SOL    HW1 2237   2.522   0.976   0.622  1.2439 -1.1093 -0.1049
  746SOL    HW2 2238   2.660   1.058   0.589 -0.3101 -1.4446  4.0925
  747SOL     OW 2239   1.956   2.255   0.506  0.1355 -0.5601 -0.0159
  747SOL    HW1 2240   2.027   2.302   0.563 -1.4583  0.5594 -0.4333
  747SOL    HW2 2241   1.881   2.321   0.481 -1.3684 -1.5270 -1.9789
  748SOL     OW 2242   1.029   2.247   0.559  0.8613  0.3738  0.0260
  748SOL    HW1 2243   1.037   2.177   0.484 -0.9762  0.3231 -2.3411
  748SOL    HW2 2244   1.081   2.219   0.646 -0.4262  0.4222 -0.0006
  749SOL     OW 2245   2.900   0.415   2.520 -0.4560  0.3249  0.4986
  749SOL    HW1 2246   2.922   0.381   2.426  0.0460 -0.8371 -0.3456
  749SOL    HW2 2247   2.919   0.339   2.588  0.9675 -0.7917  0.8041
  750SOL     OW 2248   1.721   0.016   1.400  0.2108  0.5404 -0.0126
  750SOL    HW1 2249   1.791   0.058   1.463 -1.0229  3.5180  2.2785
  750SOL    HW2 2250   1.673   0.079   1.339  0.0846 -0.9668  1.4791
  751SOL     OW 2251   1.718   2.398   2.783  0.1435 -0.4322 -0.6398
  751SOL    HW1 2252   1.786   2.378   2.864  2.6048 -1.1919  2.3168
  751SOL    HW2 2253   1.762   2.368   2.696 -3.5087 -0.3809 -0.6712
  752SOL     OW 2254   2.025   2.160   0.260  0.6404  0.3131  0.0699
  752SOL    HW1 2255   1.996   2.198   0.348 -0.5462  2.0516 -0.1788
  752SOL    HW2 2256   2.123   2.152   0.244 -2.7837 -1.5128 -0.2019
  753SOL     OW 2257   1.693   0.744   2.139 -0.8727 -0.4655  0.4626
  753SOL    HW1 2258   1.776   0.775   2.182 -2.3386  0.5898 -0.3124
  753SOL    HW2 2259   1.646   0.685   2.209  1.1275 -1.2971 -0.6796
  754SOL     OW 2260   0.252   2.956   0.511  0.1786  0.6610 -0.4730
  754SOL    HW1 2261   0.215   2.874   0.552  0.4263 -2.4037  0.5413
  754SOL    HW2 2262   0.220   3.047   0.551  0.9199  0.5106 -0.3657
  755SOL     OW 2263   2.090   0.299   1.269 -0.3784 -0.7324  0.2699
  755SOL    HW1 2264   2.170   0.272   1.329 -0.9698  0.9651 -0.2470
  755SOL    HW2 2265   2.108   0.266   1.176 -0.4119 -0.3295 -2.0753
  756SOL     OW 2266   1.195   1.364   2.631 -0.1036  0.0533  0.4752
  756SOL    HW1 2267   1.291   1.323   2.641  3.9806 -2.3936 -2.8072
  756SOL    HW2 2268   1.171   1.377   2.530 -0.4474  1.2391  0.8477
  757SOL     OW 2269   2.956   2.938   1.337  0.1884 -0.9597  0.3613
  757SOL    HW1 2270   2.984   2.849   1.373 -0.2501  1.3153  1.4540
  757SOL    HW2 2271   2.878   2.979   1.386 -0.8115  1.8611 -2.3488
  758SOL     OW 2272   0.727   2.946   1.666  0.3447  0.0202  0.0745
  758SOL    HW1 2273   0.635   2.964   1.710  1.6559  1.9399 -2.1720
  758SOL    HW2 2274   0.774   3.026   1.634  0.1257 -4.4709 -1.1460
  759SOL     OW 2275   2.479   1.270   0.772 -0.1202  0.0559 -0.5102
  759SOL    HW1 2276   2.457   1.334   0.700 -1.2862  1.4678  0.8373
  759SOL    HW2 2277   2.513   1.182   0.729 -2.0129 -0.3274  0.3488
  760SOL     OW 2278   2.105   0.497   1.526 -0.0123  0.2379  0.0594
  760SOL    HW1 2279   2.022   0.509   1.470 -0.6246  0.9641 -1.0707
  760SOL    HW2 2280   2.139   0.398   1.525  2.1863 -4.8773  0.4463
  761SOL     OW 2281   1.941   3.085   0.184  0.1307  0.3387 -0.8251
  761SOL    HW1 2282   1.899   3.046   0.269 -1.2229  0.4354 -1.2615
  761SOL    HW2 2283   2.008   3.028   0.137 -1.2469  1.3254  0.2242
  762SOL     OW 2284   2.280   2.173   0.176 -0.0734  0.0809  0.2083
  762SOL    HW1 2285   2.262   2.267   0.146 -0.0814 -0.7152  2.3582
  762SOL    HW2 2286   2.311   2.107   0.103 -0.8902 -0.6390 -0.0762
  763SOL     OW 2287   0.808   0.956   1.027  0.1945 -0.2885  0.4600
  763SOL    HW1 2288   0.781   0.898   0.946  1.6844 -1.2859  0.0150
  763SOL    HW2 2289   0.855   1.044   1.010 -1.5996 -0.9200  1.8160
  764SOL     OW 2290   2.632   2.335   3.041 -0.4226  0.2807 -0.6333
  764SOL    HW1 2291   2.729   2.353   3.006  1.5872  0.5339  0.1338
  764SOL    HW2 2292   2.570   2.348   2.961 -0.8917  1.8500  1.3820
  765SOL     OW 2293   0.756   0.651   2.273 -0.1180  0.0420 -0.1053
  765SOL    HW1 2294   0.700   0.568   2.288  0.1007  1.6862 -0.2944
  765SOL    HW2 2295   0.828   0.627   2.209 -0.1221 -0.8412  1.8378
  766SOL     OW 2296   0.065   1.269   2.353  0.0371  0.1878  0.1257
  766SOL    HW1 2297   0.002   1.221   2.413 -0.3275  0.0626 -1.3704
  766SOL    HW2 2298   0.055   1.369   2.371 -2.4946 -0.0688  0.9551
  767SOL     OW 2299   0.077   1.878   2.117 -0.0655  0.6469  0.0017
  767SOL    HW1 2300   0.115   1.809   2.051  1.8254  1.3465 -1.0414
  767SOL    HW2 2301   0.109   1.864   2.212  1.4390 -0.5858 -1.4265
  768SOL     OW 2302   1.076   0.939   2.826  0.2579 -0.1594 -0.1718
  768SOL    HW1 2303   1.010   0.973   2.895 -1.1052  0.8380  3.0408
  768SOL    HW2 2304   1.089   1.015   2.752  0.8009  1.2773 -0.7902
  769SOL     OW 2305   1.848   2.840   2.951 -0.1010 -0.1405 -0.0817
  769SOL    HW1 2306   1.790   2.836   3.036 -2.8781 -0.7358 -2.0306
  769SOL    HW2 2307   1.825   2.919   2.893 -0.9936 -0.2965 -0.6112
  770SOL     OW 2308   2.950   0.673   2.641  0.0163  0.1700  0.7739
  770SOL    HW1 2309   2.947   0.574   2.616 -0.2088 -0.7535  0.4479
  770SOL    HW2 2310   2.856   0.695   2.669  0.0081 -0.6930 -1.5191
  771SOL     OW 2311   0.668   2.161   1.373  0.0801  0.2192  0.1922
  771SOL    HW1 2312   0.765   2.118   1.373 -0.1127  0.2578  0.6907
  771SOL    HW2 2313   0.666   2.261   1.405 -1.9962  0.5131  2.5218
  772SOL     OW 2314   0.546   0.609   2.792  0.3018 -0.5002  0.0520
  772SOL    HW1 2315   0.624   0.590   2.727  0.8010 -0.6553 -1.6093
  772SOL    HW2 2316   0.569   0.685   2.853  0.1024 -1.5380 -1.8243
  773SOL     OW 2317   2.357   1.465   1.629  0.5046 -0.5004 -0.0229
  773SOL    HW1 2318   2.435   1.460   1.565  0.1830  2.0972  1.1379
  773SOL    HW2 2319   2.355   1.382   1.683  0.5781 -1.5495  0.4205
  774SOL     OW 2320   1.063   0.697   0.465 -0.0699  0.3472 -0.2025
  774SOL    HW1 2321   1.088   0.682   0.371 -1.6514  3.4435  2.1763
  774SOL    HW2 2322   1.136   0.670   0.525 -3.1311  0.8755 -1.4730
  775SOL     OW 2323   2.187   2.624   2.955  0.1348  0.5274 -0.1258
  775SOL    HW1 2324   2.154   2.624   2.855  0.3022 -2.7285 -3.2207
  775SOL    HW2 2325   2.102   2.618   3.014  0.2872  0.9180 -0.2776
  776SOL     OW 2326   2.152   3.063   2.104  0.7555 -0.0388  0.5217
  776SOL    HW1 2327   2.091   3.061   2.184  1.6687 -0.4943 -1.6166
  776SOL    HW2 2328   2.221   2.992   2.098 -2.8670  0.4495 -1.3532
  777SOL     OW 2329   0.579   1.105   2.765  0.4113  0.0524  0.3235
  777SOL    HW1 2330   0.518   1.124   2.688  0.4663 -0.1619  2.1277
  777SOL    HW2 2331   0.553   1.159   2.853 -1.4949  1.4415  1.0622
  778SOL     OW 2332   0.745   0.070   0.201  0.5675  0.0009  0.5085
  778SOL    HW1 2333   0.784   3.100   0.202 -0.3383 -3.3862  0.2789
  778SOL    HW2 2334   0.814   0.143   0.228  2.5145  0.3577 -2.9377
  779SOL     OW 2335   0.102   1.296   2.874  0.3516 -0.0136 -0.1755
  779SOL    HW1 2336   0.025   1.251   2.921  0.1908 -2.2165 -0.0995
  779SOL    HW2 2337   0.138   1.234   2.801  0.0877  0.2849  2.3851
  780SOL     OW 2338   1.961   0.712   2.744 -0.0341  0.2057  0.4301
  780SOL    HW1 2339   2.031   0.665   2.689 -0.3607 -1.8696  0.6864
  780SOL    HW2 2340   1.870   0.668   2.731  3.9227  1.9836  0.4945
  781SOL     OW 2341   2.257   1.274   2.002 -0.0287 -0.3225  0.1660
  781SOL    HW1 2342   2.214   1.267   2.097 -2.6219 -0.8751  2.1142
  781SOL    HW2 2343   2.196   1.316   1.934 -0.6738  2.4129  0.6784
  782SOL     OW 2344   1.067   1.633   2.286  0.4194 -0.0498  0.6680
  782SOL    HW1 2345   1.017   1.679   2.209 -2.0285 -1.1919  0.5683
  782SOL    HW2 2346   1.092   1.694   2.364  3.0881  0.2399  4.8100
  783SOL     OW 2347   1.101   0.063   1.118  0.2077 -0.0726  0.4995
  783SOL    HW1 2348   1.112   0.115   1.210  0.8665  1.5253  1.7027
  783SOL    HW2 2349   1.001   0.045   1.113  0.0443  0.7932  0.7840
  784SOL     OW 2350   1.518   0.540   3.077  0.4963 -0.4228  0.3505
  784SOL    HW1 2351   1.490   0.571   2.987  1.7066  1.6337 -1.0142
  784SOL    HW2 2352   1.475   0.597   0.021 -0.5153 -1.3151 -2.2025
  785SOL     OW 2353   1.663   0.323   3.018  0.3511  0.1103  0.1068
  785SOL    HW1 2354   1.613   0.406   3.053  0.3098  0.5933 -0.1363
  785SOL    HW2 2355   1.713   0.262   3.087  0.6685 -0.7758 -2.2053
  786SOL     OW 2356   0.028   1.477   0.411  0.4504  0.3547  0.1674
  786SOL    HW1 2357   3.077   1.518   0.470 -0.2130  1.1985 -1.1779
  786SOL    HW2 2358   0.029   1.518   0.318  2.4678  2.3100 -0.7571
  787SOL     OW 2359   1.808   1.598   0.187 -0.3179 -0.9781  0.3712
  787SOL    HW1 2360   1.872   1.629   0.262 -2.3152  2.1277 -1.5069
  787SOL    HW2 2361   1.768   1.506   0.204  0.5954  0.3155  0.7885
  788SOL     OW 2362   1.603   1.727   1.175 -0.0625 -0.4990  0.2170
  788SOL    HW1 2363   1.640   1.764   1.262 -0.1374  0.3282 -0.9249
  788SOL    HW2 2364   1.611   1.797   1.099 -0.5774  1.0556 -0.8983
  789SOL     OW 2365   0.006   1.486   2.046 -0.2735 -0.7913 -0.3524
  789SOL    HW1 2366   0.032   1.511   2.141 -0.7548  1.6568 -1.0228
  789SOL    HW2 2367   3.061   1.413   2.046 -1.9017 -0.0698 -0.3132
  790SOL     OW 2368   0.592   0.010   3.110 -0.4174  0.4376 -0.4171
  790SOL    HW1 2369   0.585   3.044   3.071  0.3889  0.8196  2.9940
  790SOL    HW2 2370   0.634   0.017   0.077 -0.3221 -2.4186 -1.0408
  791SOL     OW 2371   0.703   0.124   2.442 -0.1481 -0.3886 -0.0785
  791SOL    HW1 2372   0.631   0.177   2.498 -2.3228 -0.8959  1.4686
  791SOL    HW2 2373   0.724   0.033   2.488 -2.0950 -2.7631  4.5521
  792SOL     OW 2374   1.872   0.410   2.348 -0.3449 -0.1567  0.3807
  792SOL    HW1 2375   1.820   0.476   2.408 -0.3791  2.1345  0.7293
  792SOL    HW2 2376   1.815   0.359   2.281  2.0478 -2.5459 -0.1875
  793SOL     OW 2377   2.713   0.698   1.337 -0.4991 -0.0439  0.1546
  793SOL    HW1 2378   2.766   0.623   1.387 -1.0544 -1.3706 -1.3984
  793SOL    HW2 2379   2.764   0.786   1.336 -2.2382 -2.2345  0.7992
  794SOL     OW 2380   0.184   0.541   1.998 -0.3446  0.0166  0.5590
  794SOL    HW1 2381   0.105   0.576   2.052  1.5212  0.5802 -1.6664
  794SOL    HW2 2382   0.274   0.589   2.024 -0.6170  2.1114  0.5337
  795SOL     OW 2383   2.811   1.354   0.246  0.1100  0.4356 -0.1160
  795SOL    HW1 2384   2.786   1.420   0.174  1.3879 -0.4206  1.5708
  795SOL    HW2 2385   2.904   1.312   0.225 -0.2030 -0.8927  2.0859
  796SOL     OW 2386   0.002   2.655   0.354 -0.2818  0.3201  0.3662
  796SOL    HW1 2387   3.086   2.751   0.345 -0.8853 -1.9330 -0.2103
  796SOL    HW2 2388   3.070   2.591   0.298 -1.8595  2.4130  1.4789
  797SOL     OW 2389   1.844   2.544   2.505 -0.2059 -0.5843 -0.4335
  797SOL    HW1 2390   1.886   2.599   2.583  1.2510  1.3251  2.5277
  797SOL    HW2 2391   1.744   2.573   2.500  0.9991 -1.8800 -1.7187
  798SOL     OW 2392   0.203   1.309   0.853 -0.1165  0.9559  0.0472
  798SOL    HW1 2393   0.139   1.299   0.930 -0.7339  0.6143 -2.0956
  798SOL    HW2 2394   0.173   1.378   0.786 -0.4615  0.5900 -0.4924
  799SOL     OW 2395   0.128   0.628   2.930 -0.9230  0.0508 -0.3720
  799SOL    HW1 2396   0.099   0.700   2.858 -0.4079  0.5848 -2.2357
  799SOL    HW2 2397   0.178   0.551   2.884 -0.4015 -2.4013 -0.6616
  800SOL     OW 2398   2.850   1.793   0.441 -0.5398  0.0789 -0.4552
  800SOL    HW1 2399   2.933   1.836   0.479 -1.7727  0.0305  0.5548
  800SOL    HW2 2400   2.772   1.857   0.469 -0.5221 -1.8783  2.1670
  801SOL     OW 2401   1.660   1.283   1.291  0.1987  0.2489  0.2266
  801SOL    HW1 2402   1.722   1.324   1.363 -1.5850  0.8610  0.0680
  801SOL    HW2 2403   1.661   1.345   1.208  1.8314  1.7982 -0.5019
  802SOL     OW 2404   0.912   1.905   1.773 -0.1928 -0.2021  0.8701
  802SOL    HW1 2405   0.991   1.923   1.838  1.1993  0.5561  2.0864
  802SOL    HW2 2406   0.897   1.989   1.720  2.0379  1.7872  1.2154
  803SOL     OW 2407   0.139   1.791   0.806 -0.3447 -0.4285 -0.2876
  803SOL    HW1 2408   0.231   1.776   0.848  0.6390  3.7599 -0.8337
  803SOL    HW2 2409   0.156   1.861   0.738  1.1328 -1.8745 -0.2855
  804SOL     OW 2410   0.885   2.386   1.329  0.3525  0.4272  0.2317
  804SOL    HW1 2411   0.866   2.311   1.264  1.4520 -0.3512 -1.3410
  804SOL    HW2 2412   0.985   2.405   1.315  1.3532 -3.0777  0.8012
  805SOL     OW 2413   2.003   1.462   0.024  0.0168 -0.2463  0.1245
  805SOL    HW1 2414   1.964   1.541   0.074  2.8906  0.3167 -2.7694
  805SOL    HW2 2415   1.935   1.427   3.083 -1.1347 -0.5556 -1.4992
  806SOL     OW 2416   1.699   2.952   1.175 -0.1946 -0.3237  0.1008
  806SOL    HW1 2417   1.698   3.006   1.263 -1.3196  1.4593  0.1972
  806SOL    HW2 2418   1.608   2.954   1.127 -1.8880  1.1757 -0.6390
  807SOL     OW 2419   2.345   0.261   2.750  0.2571  0.5242 -0.0757
  807SOL    HW1 2420   2.310   0.346   2.795  0.9233 -0.6667 -0.2482
  807SOL    HW2 2421   2.435   0.233   2.783 -0.2796 -0.7745 -1.5961
  808SOL     OW 2422   0.339   1.008   0.309 -0.2967  0.0424  0.3717
  808SOL    HW1 2423   0.390   0.937   0.255  1.8466 -0.7037  1.6007
  808SOL    HW2 2424   0.328   1.102   0.267 -2.5603  3.0454  1.4350
  809SOL     OW 2425   2.905   1.075   2.237  0.0719  0.0524  0.1808
  809SOL    HW1 2426   2.971   1.013   2.188 -1.4225  1.3419 -0.3509
  809SOL    HW2 2427   2.941   1.085   2.333 -1.2459 -3.3150  3.0492
  810SOL     OW 2428   1.743   0.456   1.623 -0.3950 -0.0269 -0.3141
  810SOL    HW1 2429   1.818   0.415   1.677 -1.6988  0.2558 -0.5202
  810SOL    HW2 2430   1.760   0.457   1.523 -2.4840  0.5124 -2.9998
  811SOL     OW 2431   2.042   2.864   1.643  0.2757 -0.0392 -0.2542
  811SOL    HW1 2432   2.058   2.776   1.698 -0.8080 -3.7685  1.9818
  811SOL    HW2 2433   2.110   2.935   1.668  0.1023 -1.2491 -2.2574
  812SOL     OW 2434   1.818   0.077   3.087  0.3596 -0.6015  0.1876
  812SOL    HW1 2435   1.872   0.091   0.045 -0.5204 -0.6961 -0.2500
  812SOL    HW2 2436   1.874   0.092   3.002  1.0264 -2.6328 -0.6261
  813SOL     OW 2437   1.890   1.126   1.983 -0.5835 -0.2017 -0.3033
  813SOL    HW1 2438   1.889   1.118   2.088 -0.6166 -1.1918  1.2361
  813SOL    HW2 2439   1.914   1.037   1.941  0.5348 -0.9968 -0.4665
  814SOL     OW 2440   1.651   1.265   1.944  0.3010  0.1619  0.4708
  814SOL    HW1 2441   1.731   1.201   1.949 -0.4064 -3.8122  2.5609
  814SOL    HW2 2442   1.617   1.276   2.039 -0.1704 -2.2560 -0.3545
  815SOL     OW 2443   0.657   0.701   0.335 -0.1900  0.0375 -0.0366
  815SOL    HW1 2444   0.646   0.782   0.390  2.1456 -0.8495 -1.1911
  815SOL    HW2 2445   0.731   0.646   0.375 -2.6043 -1.4982  0.8479
  816SOL     OW 2446   2.352   1.624   2.852  0.1478  0.0703  0.4314
  816SOL    HW1 2447   2.252   1.620   2.831  1.2106  2.9918  0.6294
  816SOL    HW2 2448   2.384   1.711   2.901 -0.4000 -2.5818 -2.6464
  817SOL     OW 2449   0.530   2.848   0.500 -0.1926  0.6388 -0.2275
  817SOL    HW1 2450   0.540   2.777   0.568 -0.4193  1.1041 -1.8910
  817SOL    HW2 2451   0.431   2.871   0.498  2.1200  0.8040 -1.5104
  818SOL     OW 2452   1.740   0.329   2.756  0.4515  0.4454 -0.3258
  818SOL    HW1 2453   1.808   0.262   2.720  2.2499 -0.5640 -0.5665
  818SOL    HW2 2454   1.727   0.321   2.860 -1.0873  1.3921  1.4094
  819SOL     OW 2455   1.525   0.546   0.516 -0.1672 -0.0465 -0.1608
  819SOL    HW1 2456   1.460   0.533   0.441  1.0321 -1.1153  0.3974
  819SOL    HW2 2457   1.552   0.641   0.502 -1.8254  0.4186  0.1288
  820SOL     OW 2458   1.736   0.829   0.579  0.0815  0.0274 -0.5240
  820SOL    HW1 2459   1.759   0.927   0.591 -0.7437  1.5915  3.8402
  820SOL    HW2 2460   1.667   0.810   0.513  2.1944  3.0879  0.9936
  821SOL     OW 2461   2.341   3.049   0.298  0.1086 -0.1604 -1.0318
  821SOL    HW1 2462   2.361   0.004   0.362 -0.2975  2.4317  3.0940
  821SOL    HW2 2463   2.403   3.048   0.215  0.6165 -1.4216 -1.6818
  822SOL     OW 2464   0.056   3.024   2.085  0.3169 -1.0642  0.2821
  822SOL    HW1 2465   0.137   3.027   2.147  0.0838 -1.9716 -0.0303
  822SOL    HW2 2466   0.077   3.076   2.000  0.2243 -2.4008  2.1893
  823SOL     OW 2467   2.773   2.425   1.786  0.1848  0.1817 -0.6246
  823SOL    HW1 2468   2.676   2.449   1.803 -0.1100 -0.2813 -1.8093
  823SOL    HW2 2469   2.776   2.333   1.818 -1.2336  3.4770 -0.3734
  824SOL     OW 2470   1.062   2.784   2.286 -0.4138  0.2649  0.4049
  824SOL    HW1 2471   1.006   2.721   2.231  0.1566  0.4355  0.1372
  824SOL    HW2 2472   1.155   2.781   2.249 -0.6614 -0.1897 -0.2517
  825SOL     OW 2473   1.641   1.629   0.733 -0.3261 -0.1048 -0.1891
  825SOL    HW1 2474   1.740   1.616   0.749  0.5401  0.3403 -0.9583
  825SOL    HW2 2475   1.628   1.637   0.629 -0.1532  1.9488  1.3148
  826SOL     OW 2476   1.698   0.696   0.180  0.4427 -0.2950  0.0002
  826SOL    HW1 2477   1.746   0.642   0.248  1.4047 -0.4570 -0.8281
  826SOL    HW2 2478   1.766   0.733   0.113 -0.2586  0.9132 -1.3369
  827SOL     OW 2479   0.207   1.287   1.175 -0.4161  0.1561  0.2485
  827SOL    HW1 2480   0.111   1.322   1.155 -1.3843  2.4244  3.3776
  827SOL    HW2 2481   0.281   1.349   1.142  2.1729 -0.2712  0.7216
  828SOL     OW 2482   2.005   1.586   1.884 -0.3912 -0.6108 -0.1219
  828SOL    HW1 2483   1.995   1.484   1.873  1.2492  2.6984 -1.8805
  828SOL    HW2 2484   2.080   1.623   1.819  0.9833  1.4536 -3.9091
  829SOL     OW 2485   0.179   1.981   0.475 -0.7519  0.4307 -0.1693
  829SOL    HW1 2486   0.249   1.906   0.486 -1.2034  0.3007 -1.1104
  829SOL    HW2 2487   0.210   2.067   0.516  0.0006  0.1256  1.0804
  830SOL     OW 2488   1.227   0.591   0.655 -0.2885  0.4847 -0.3680
  830SOL    HW1 2489   1.309   0.552   0.614 -3.0669  0.4050 -2.3341
  830SOL    HW2 2490   1.186   0.530   0.727 -1.7131 -1.3647 -1.2680
  831SOL     OW 2491   2.724   1.562   0.075  0.0599  0.5642  0.1199
  831SOL    HW1 2492   2.736   1.584   3.105 -0.2706  0.4966  1.8207
  831SOL    HW2 2493   2.759   1.636   0.132 -0.4114 -1.1682 -0.9953
  832SOL     OW 2494   0.897   2.982   0.281 -0.2946 -0.1769  0.4339
  832SOL    HW1 2495   0.961   3.055   0.246 -3.7282  5.5174  0.3621
  832SOL    HW2 2496   0.900   2.986   0.386  3.2945  0.0304  2.4313
  833SOL     OW 2497   0.837   0.685   1.920 -0.4172  0.2623 -0.5628
  833SOL    HW1 2498   0.870   0.615   1.986  1.2902 -2.5042  1.2108
  833SOL    HW2 2499   0.875   0.776   1.946  2.4299 -1.5932 -0.5893
  834SOL     OW 2500   0.224   0.789   1.252 -0.1180 -0.0668 -0.0227
  834SOL    HW1 2501   0.193   0.862   1.187 -0.2128  1.8069 -0.6940
  834SOL    HW2 2502   0.317   0.817   1.291  0.8792 -0.8050 -0.4276
  835SOL     OW 2503   2.749   0.474   1.757 -0.2902  0.2280 -0.6294
  835SOL    HW1 2504   2.718   0.420   1.681  0.0103  0.9820 -0.7616
  835SOL    HW2 2505   2.845   0.441   1.789  2.8651  0.2231  0.5687
  836SOL     OW 2506   0.533   2.166   0.555 -0.1167  0.2034 -0.4066
  836SOL    HW1 2507   0.558   2.268   0.544 -3.5300  3.5761 -0.0432
  836SOL    HW2 2508   0.570   2.107   0.482  0.2736  0.2801  1.7319
  837SOL     OW 2509   2.215   1.836   2.172  0.5886  0.8382  0.1150
  837SOL    HW1 2510   2.212   1.850   2.069 -2.1335  0.6487 -1.4659
  837SOL    HW2 2511   2.245   1.926   2.206  0.1793 -1.5275 -0.0529
  838SOL     OW 2512   0.114   1.343   1.602 -0.0583  0.3475 -0.1879
  838SOL    HW1 2513   0.205   1.306   1.615 -2.8860  0.9095 -0.1341
  838SOL    HW2 2514   0.089   1.412   1.670 -1.0583 -2.8351 -0.5756
  839SOL     OW 2515   0.229   0.282   0.760 -0.2439 -0.0756 -0.3575
  839SOL    HW1 2516   0.199   0.311   0.854 -1.0988  1.9457 -0.7780
  839SOL    HW2 2517   0.329   0.303   0.760 -0.0165  0.4768 -0.8223
  840SOL     OW 2518   2.927   0.152   2.684 -0.0498  0.2130  0.1453
  840SOL    HW1 2519   3.021   0.162   2.645 -0.0042 -0.1857 -2.8261
  840SOL    HW2 2520   2.922   0.198   2.774 -1.6550 -0.8356  0.8933
  841SOL     OW 2521   0.473   2.802   0.077  0.2297 -0.0383 -0.1792
  841SOL    HW1 2522   0.414   2.848   0.146  0.0242  0.9462  0.9815
  841SOL    HW2 2523   0.560   2.779   0.123  1.6432 -0.3661  2.6657
  842SOL     OW 2524   1.047   0.184   0.880  0.0532 -0.1042 -0.3387
  842SOL    HW1 2525   0.946   0.201   0.867 -1.0738 -1.3743  0.5199
  842SOL    HW2 2526   1.074   0.148   0.970 -2.4190  0.1576 -0.4246
  843SOL     OW 2527   0.262   1.156   2.679 -0.2884  0.7984  0.0145
  843SOL    HW1 2528   0.210   1.080   2.730  0.3332 -0.3090  3.3141
  843SOL    HW2 2529   0.315   1.104   2.605 -1.9579  0.7196  0.9143
  844SOL     OW 2530   0.812   2.174   2.489 -0.3762  0.1496 -0.1822
  844SOL    HW1 2531   0.757   2.221   2.413 -0.5206  2.0030  0.8907
  844SOL    HW2 2532   0.909   2.159   2.452  0.5532  0.3705 -1.2381
  845SOL     OW 2533   2.305   2.750   2.663  0.0472  0.6843 -0.3035
  845SOL    HW1 2534   2.358   2.768   2.746  0.7743  0.2288 -0.5563
  845SOL    HW2 2535   2.218   2.800   2.660 -2.3601  0.6057  1.2252
  846SOL     OW 2536   1.797   1.841   2.283  0.5307 -0.1462 -0.2201
  846SOL    HW1 2537   1.881   1.800   2.239  2.3253 -2.2092 -0.0206
  846SOL    HW2 2538   1.715   1.785   2.264  0.1946 -0.1595  1.2989
  847SOL     OW 2539   2.843   3.002   2.911  0.2065 -0.3371 -0.2597
  847SOL    HW1 2540   2.867   2.916   2.862 -3.6783 -0.5725  0.9117
  847SOL    HW2 2541   2.914   3.078   2.910  1.5200 -0.0304 -0.7922
  848SOL     OW 2542   0.008   0.739   0.314  0.3236  0.1045 -0.1364
  848SOL    HW1 2543   3.040   0.778   0.324 -1.6660  1.1644  1.0182
  848SOL    HW2 2544   0.052   0.709   0.400 -0.1194 -1.4542 -2.3732
  849SOL     OW 2545   1.132   0.091   2.124  0.1434  0.5279 -0.0384
  849SOL    HW1 2546   1.033   0.067   2.115 -0.0052  0.4799 -0.0362
  849SOL    HW2 2547   1.149   0.132   2.216  1.7253 -1.5918  4.4052
  850SOL     OW 2548   0.353   0.884   0.551  0.2372  0.1078 -0.5335
  850SOL    HW1 2549   0.319   0.942   0.476 -1.0016  2.3528 -0.2186
  850SOL    HW2 2550   0.452   0.874   0.548 -1.3288 -1.8087  0.6943
  851SOL     OW 2551   0.365   1.256   0.214  0.2992 -0.0768  0.1499
  851SOL    HW1 2552   0.361   1.352   0.242  0.7580 -0.5791  1.0162
  851SOL    HW2 2553   0.458   1.227   0.243  3.0817  0.5732  0.9033
  852SOL     OW 2554   1.444   1.007   1.979  0.4436 -0.2182  0.1978
  852SOL    HW1 2555   1.491   1.092   1.941  0.3572 -2.1241 -3.8990
  852SOL    HW2 2556   1.442   1.000   2.079  3.3758  0.8694 -2.4150
  853SOL     OW 2557   2.650   1.397   0.455  0.1059 -0.0104  0.3174
  853SOL    HW1 2558   2.676   1.340   0.533  0.0628  1.9147 -0.1515
  853SOL    HW2 2559   2.703   1.374   0.372 -0.6699 -1.5860 -0.2691
  854SOL     OW 2560   1.075   0.980   2.302  0.4254  0.1417  0.0230
  854SOL    HW1 2561   1.017   1.038   2.365 -1.4104 -1.3102  2.1655
  854SOL    HW2 2562   1.131   0.920   2.365 -0.8461 -0.7657 -1.2838
  855SOL     OW 2563   0.362   2.622   3.047 -0.1108 -0.3537  0.1433
  855SOL    HW1 2564   0.400   2.694   3.109 -1.0040 -0.1810 -1.5634
  855SOL    HW2 2565   0.280   2.576   3.091  1.1979 -0.1459 -2.5194
  856SOL     OW 2566   1.183   0.748   2.399 -0.3854 -0.3590  0.5493
  856SOL    HW1 2567   1.224   0.723   2.306  3.6395  0.7540 -2.1620
  856SOL    HW2 2568   1.146   0.669   2.440  0.9213  3.2990 -0.7129
  857SOL     OW 2569   1.398   0.754   2.578  0.5676 -0.2853  0.1609
  857SOL    HW1 2570   1.464   0.746   2.502  1.0424 -0.2582  1.4402
  857SOL    HW2 2571   1.305   0.747   2.539  2.4503 -3.3034 -2.6950
  858SOL     OW 2572   3.110   0.952   2.081  0.0593 -0.3851  0.5230
  858SOL    HW1 2573   0.012   0.917   1.989 -0.1458  2.2818  0.1608
  858SOL    HW2 2574   0.065   0.991   2.132  0.7173  0.2645 -1.0587
  859SOL     OW 2575   2.492   0.142   0.734 -0.3514 -0.1519  0.0649
  859SOL    HW1 2576   2.587   0.142   0.767  0.6877  0.4668  0.7720
  859SOL    HW2 2577   2.491   0.148   0.631 -1.0422  2.5752  0.5626
  860SOL     OW 2578   1.821   2.965   0.383 -0.6853  0.0521  0.7607
  860SOL    HW1 2579   1.763   3.038   0.422 -0.2061 -2.0853 -2.1145
  860SOL    HW2 2580   1.854   2.891   0.446  0.2263 -3.5433 -0.3468
  861SOL     OW 2581   1.438   0.432   1.286  0.0525  0.5014 -0.1172
  861SOL    HW1 2582   1.359   0.462   1.336  0.3020 -0.3598  0.5423
  861SOL    HW2 2583   1.409   0.422   1.189  1.2585  0.9995 -0.0300
  862SOL     OW 2584   1.259   0.190   2.409  0.1356 -0.2465  0.7247
  862SOL    HW1 2585   1.337   0.141   2.449 -0.1402  1.1053 -0.4675
  862SOL    HW2 2586   1.288   0.287   2.392  1.7205  1.6887 -1.9046
  863SOL     OW 2587   2.926   2.998   0.786  0.0521 -0.2719 -0.4933
  863SOL    HW1 2588   2.834   2.969   0.755  0.9123 -1.1528  2.3549
  863SOL    HW2 2589   2.989   2.918   0.786 -2.0914  1.8814 -1.6093
  864SOL     OW 2590   2.524   0.187   2.298 -0.0844  0.3646  0.1902
  864SOL    HW1 2591   2.537   0.289   2.315 -1.9802  0.6115  1.0764
  864SOL    HW2 2592   2.449   0.146   2.355 -0.3531  0.0048  0.8226
  865SOL     OW 2593   1.185   1.194   1.911 -0.6916 -0.1906 -0.7044
  865SOL    HW1 2594   1.094   1.187   1.863  1.3651 -0.9998 -0.8635
  865SOL    HW2 2595   1.260   1.215   1.842  0.8197 -1.9701 -0.9239
  866SOL     OW 2596   2.172   2.626   1.095 -0.1124  0.2173 -0.5435
  866SOL    HW1 2597   2.131   2.718   1.088  1.7289 -1.1936 -1.1799
  866SOL    HW2 2598   2.120   2.569   1.165  0.2826 -2.1907  0.2392
  867SOL     OW 2599   2.173   2.944   0.629  0.5601 -0.1130 -0.2067
  867SOL    HW1 2600   2.246   2.976   0.692 -1.3745 -2.6333 -2.9647
  867SOL    HW2 2601   2.126   3.020   0.583 -0.1434 -1.6064  1.0019
  868SOL     OW 2602   2.977   2.086   1.493 -0.3117  0.0947  0.1737
  868SOL    HW1 2603   3.036   2.064   1.413  0.0568 -1.4680  0.9515
  868SOL    HW2 2604   2.989   2.184   1.521 -1.7260  0.0351 -2.7765
  869SOL     OW 2605   2.157   2.279   2.196 -0.1414 -0.0166  0.1849
  869SOL    HW1 2606   2.059   2.291   2.231 -0.0412  2.1673 -2.6749
  869SOL    HW2 2607   2.213   2.360   2.224  1.4047  0.6187 -0.6110
  870SOL     OW 2608   1.520   1.390   0.738  0.3782  0.2825  0.3251
  870SOL    HW1 2609   1.572   1.474   0.728  1.0322 -1.3813 -3.1838
  870SOL    HW2 2610   1.475   1.388   0.828  0.8979 -0.9413  0.1366
  871SOL     OW 2611   2.925   1.807   2.085  0.0707  0.7375 -0.0313
  871SOL    HW1 2612   2.872   1.885   2.123  0.9553 -1.0052 -1.5299
  871SOL    HW2 2613   3.017   1.844   2.065 -0.1579  0.0275 -1.3094
  872SOL     OW 2614   1.100   1.571   2.756 -0.2990  0.2892 -0.5801
  872SOL    HW1 2615   1.039   1.617   2.688 -1.0597 -0.7716 -0.6294
  872SOL    HW2 2616   1.132   1.483   2.714  0.9181  1.4891 -3.1104
  873SOL     OW 2617   0.609   1.140   1.761  0.4280  0.4633 -0.2641
  873SOL    HW1 2618   0.628   1.241   1.754 -0.4880  0.9452  0.7941
  873SOL    HW2 2619   0.655   1.107   1.849  1.1841  1.7362  3.5696
  874SOL     OW 2620   1.821   1.024   1.615 -0.2967  0.3591 -0.2566
  874SOL    HW1 2621   1.854   0.953   1.553 -1.8571 -2.5816 -0.1594
  874SOL    HW2 2622   1.898   1.075   1.668  2.2027 -0.1393  2.5388
  875SOL     OW 2623   2.867   0.121   0.030 -0.2877  0.0121  0.2735
  875SOL    HW1 2624   2.810   0.035   0.049 -0.5799 -1.5993 -3.3024
  875SOL    HW2 2625   2.923   0.132   0.114 -0.4990  1.0797 -3.7350
  876SOL     OW 2626   0.917   1.243   0.244  0.5261 -0.0869 -0.4120
  876SOL    HW1 2627   0.924   1.145   0.263  0.9822 -0.5470 -1.2947
  876SOL    HW2 2628   0.976   1.281   0.170 -2.4734 -1.8616 -1.2235
  877SOL     OW 2629   2.705   2.867   0.666  0.4020 -0.1178  0.2935
  877SOL    HW1 2630   2.661   2.840   0.752  2.4434  1.1044 -1.0372
  877SOL    HW2 2631   2.756   2.791   0.618 -4.8574  1.8027 -1.1100
  878SOL     OW 2632   2.089   1.859   0.545 -0.2537 -0.4175  0.2152
  878SOL    HW1 2633   2.179   1.902   0.542 -3.8123 -0.8041 -0.9625
  878SOL    HW2 2634   2.011   1.920   0.572  1.7934  0.1404 -1.4386
  879SOL     OW 2635   2.756   1.690   1.903  0.0935 -0.3146  0.9620
  879SOL    HW1 2636   2.793   1.631   1.831  1.0742  2.3760  2.1284
  879SOL    HW2 2637   2.819   1.719   1.976  0.8576  3.0376  0.9373
  880SOL     OW 2638   0.382   2.117   0.934  0.1868  0.7780  0.1340
  880SOL    HW1 2639   0.436   2.071   1.007  1.5402  1.9396  1.3893
  880SOL    HW2 2640   0.393   2.076   0.840  2.4287 -0.7228  0.5342
  881SOL     OW 2641   0.826   0.370   1.422  0.4209 -0.6171  0.0600
  881SOL    HW1 2642   0.786   0.442   1.484 -0.9366 -1.5624  0.3175
  881SOL    HW2 2643   0.771   0.282   1.439  1.8967 -0.1439  2.0743
  882SOL     OW 2644   2.284   1.059   1.225  0.4970  0.1753 -0.5577
  882SOL    HW1 2645   2.236   1.132   1.177  0.4065 -0.9803  0.7234
  882SOL    HW2 2646   2.373   1.085   1.264  0.5147 -0.7450 -0.3986
  883SOL     OW 2647   1.364   0.131   1.748  0.1757  0.2582  0.2151
  883SOL    HW1 2648   1.376   0.091   1.842 -0.4834  0.4038 -0.7972
  883SOL    HW2 2649   1.427   0.085   1.685  1.6779 -1.4496  2.4978
  884SOL     OW 2650   2.879   0.348   2.244 -0.1729  0.2492  0.0880
  884SOL    HW1 2651   2.839   0.444   2.256 -4.2277  2.1232 -1.1927
  884SOL    HW2 2652   2.964   0.344   2.189 -2.6840 -2.7619  1.2096
  885SOL     OW 2653   1.452   1.527   3.071 -0.3420 -0.0257 -0.0661
  885SOL    HW1 2654   1.388   1.604   3.040  1.0731  0.6586  1.3701
  885SOL    HW2 2655   1.548   1.567   3.070  2.3876  2.3632  0.7716
  886SOL     OW 2656   2.053   0.297   3.033 -0.1371  0.2763 -0.1538
  886SOL    HW1 2657   2.124   0.228   3.070 -2.1014 -2.8353  2.1047
  886SOL    HW2 2658   2.029   0.365   3.107 -0.5094 -0.9300  0.1352
  887SOL     OW 2659   1.332   2.903   1.653  0.3125 -0.3809  0.0068
  887SOL    HW1 2660   1.407   2.941   1.599  0.1243  0.6125  0.0378
  887SOL    HW2 2661   1.348   2.799   1.664  1.8158  2.7647 -1.4209
  888SOL     OW 2662   1.987   1.669   2.162 -0.2108 -0.2674  0.1595
  888SOL    HW1 2663   1.986   1.642   2.063  2.3966 -0.1896  0.6584
  888SOL    HW2 2664   2.077   1.718   2.175  0.1512 -1.6469  1.3710
  889SOL     OW 2665   2.195   2.351   0.635 -0.1610 -0.3476  0.0136
  889SOL    HW1 2666   2.273   2.304   0.679 -6.7001 -0.2205 -1.6945
  889SOL    HW2 2667   2.154   2.420   0.700  2.0447  2.0225 -0.1043
  890SOL     OW 2668   1.574   1.986   0.530  0.6485  0.2123 -0.2967
  890SOL    HW1 2669   1.514   1.954   0.454 -0.1815  1.9819 -0.9179
  890SOL    HW2 2670   1.542   1.941   0.622 -0.8903 -1.9264  3.0865
  891SOL     OW 2671   2.752   0.899   0.019  0.4098  0.0113  0.7993
  891SOL    HW1 2672   2.712   0.971   0.079  0.6836 -3.0314 -1.6369
  891SOL    HW2 2673   2.855   0.916   0.012  0.2923  0.2840 -2.1144
  892SOL     OW 2674   2.201   1.218   3.053 -0.2626  0.0011 -0.6835
  892SOL    HW1 2675   2.144   1.211   0.010  1.9678 -0.9359 -0.1391
  892SOL    HW2 2676   2.250   1.308   3.064 -1.5016  2.4915  2.3170
  893SOL     OW 2677   1.839   2.569   1.582  0.8584  0.2648  0.6520
  893SOL    HW1 2678   1.785   2.651   1.557 -0.2182 -2.0483  2.3425
  893SOL    HW2 2679   1.935   2.572   1.557 -0.1613 -0.4294 -4.0639
  894SOL     OW 2680   2.660   3.018   0.435 -0.0878 -0.2022 -0.1581
  894SOL    HW1 2681   2.666   2.945   0.361  0.2367 -0.5602  0.1168
  894SOL    HW2 2682   2.697   2.984   0.526 -1.1519 -1.2181  2.1875
  895SOL     OW 2683   2.333   2.394   2.934 -0.3096 -0.1186 -0.1355
  895SOL    HW1 2684   2.393   2.404   2.855 -1.2877  2.4645  3.6927
  895SOL    HW2 2685   2.279   2.480   2.945 -0.8897  1.0066  2.0665
  896SOL     OW 2686   2.301   0.169   2.516  0.3259 -0.1500  0.1970
  896SOL    HW1 2687   2.317   0.212   2.605  1.6665 -1.1242 -0.7381
  896SOL    HW2 2688   2.203   0.150   2.497 -1.0078  1.0956 -0.7722
  897SOL     OW 2689   0.182   1.702   1.945  0.0656  0.2440 -0.5401
  897SOL    HW1 2690   0.125   1.623   1.909  1.4893  1.2336  0.5154
  897SOL    HW2 2691   0.278   1.675   1.956  0.2893  1.1686 -0.7577
  898SOL     OW 2692   2.531   1.823   1.644  0.0297  0.2816  0.4233
  898SOL    HW1 2693   2.502   1.843   1.739 -2.0195 -1.2795  0.4806
  898SOL    HW2 2694   2.625   1.850   1.625  1.6707 -0.0598 -1.6327
  899SOL     OW 2695   1.672   2.722   1.457 -0.5976 -0.2605 -0.3241
  899SOL    HW1 2696   1.656   2.820   1.488  1.3989 -0.8875 -0.1236
  899SOL    HW2 2697   1.650   2.704   1.359  2.9260 -0.0342 -1.6861
  900SOL     OW 2698   1.062   0.795   0.078 -0.0737  0.9113 -0.2888
  900SOL    HW1 2699   1.122   0.838   0.008  3.0660 -2.0933 -0.4287
  900SOL    HW2 2700   0.985   0.744   0.033  2.0746  1.0982  1.3142
  901SOL     OW 2701   1.152   1.398   2.372 -0.1859 -0.5070 -0.1602
  901SOL    HW1 2702   1.146   1.340   2.288 -0.3875 -1.4956 -1.9297
  901SOL    HW2 2703   1.140   1.498   2.346 -2.2115  0.3919  1.7867
  902SOL     OW 2704   0.079   2.315   0.365 -0.2276  0.0847 -0.7453
  902SOL    HW1 2705   0.066   2.216   0.338 -2.8910 -0.5041  2.6508
  902SOL    HW2 2706   0.070   2.378   0.291  1.1527 -0.6077  0.5059
  903SOL     OW 2707   2.275   1.017   1.918  0.2090  0.2250  0.5680
  903SOL    HW1 2708   2.334   0.954   1.969 -1.3834  1.1810 -0.7700
  903SOL    HW2 2709   2.279   1.111   1.953  1.5822 -2.3167 -0.2021
  904SOL     OW 2710   1.639   0.946   2.919 -0.6105  0.6027 -0.2569
  904SOL    HW1 2711   1.576   0.983   2.983 -1.2902 -2.3258  1.0109
  904SOL    HW2 2712   1.725   0.910   2.967  2.4331 -0.3484 -0.5063
  905SOL     OW 2713   2.453   2.585   1.120  0.2215  0.3899 -0.8177
  905SOL    HW1 2714   2.358   2.618   1.130 -3.1275 -1.2320 -2.5350
  905SOL    HW2 2715   2.447   2.499   1.063 -1.1895 -0.2193  0.4631
  906SOL     OW 2716   1.652   1.992   3.009 -0.0777 -0.3379  0.4737
  906SOL    HW1 2717   1.672   1.971   3.104  0.6211 -1.2548  1.3134
  906SOL    HW2 2718   1.699   2.072   2.966 -1.6669  1.2048 -0.2976
  907SOL     OW 2719   0.893   2.644   0.482  0.0862 -0.0795 -0.2426
  907SOL    HW1 2720   0.819   2.690   0.533  2.0373  0.8867  1.2331
  907SOL    HW2 2721   0.880   2.546   0.457  2.1883 -1.4460  0.2260
  908SOL     OW 2722   1.271   2.759   2.080 -0.0732 -0.3755  0.5298
  908SOL    HW1 2723   1.258   2.675   2.018 -1.9476 -2.8858  1.7943
  908SOL    HW2 2724   1.247   2.846   2.026  0.4810  2.9593 -2.5753
  909SOL     OW 2725   1.865   0.445   1.385  0.3992 -0.3082 -0.3641
  909SOL    HW1 2726   1.924   0.369   1.363 -1.6540 -0.1794  1.2206
  909SOL    HW2 2727   1.812   0.488   1.308  3.0110  2.4761  1.1440
  910SOL     OW 2728   1.268   0.844   2.996  0.1103  0.1764 -0.8735
  910SOL    HW1 2729   1.214   0.866   2.909 -0.9311  1.1361  2.8676
  910SOL    HW2 2730   1.353   0.792   2.979 -1.5687  1.9839  0.7122
  911SOL     OW 2731   2.784   0.605   0.021 -0.0892  0.1204  0.6821
  911SOL    HW1 2732   2.784   0.709   0.026  1.7082 -6.0719  0.2464
  911SOL    HW2 2733   2.781   0.565   0.113 -1.0755 -0.9601 -0.3636
  912SOL     OW 2734   0.230   2.222   3.044  0.4517 -0.4498  0.8640
  912SOL    HW1 2735   0.212   2.141   2.982  0.9759  0.6553 -3.4060
  912SOL    HW2 2736   0.324   2.212   3.077 -1.8361 -1.1091 -2.3446
  913SOL     OW 2737   2.698   1.986   2.858  0.3973 -0.4341  0.8071
  913SOL    HW1 2738   2.707   2.084   2.838 -1.6616 -1.3058 -0.5033
  913SOL    HW2 2739   2.786   1.949   2.889  2.9983  0.5166  2.8741
  914SOL     OW 2740   1.364   1.672   1.543 -0.4922  0.1700  0.3060
  914SOL    HW1 2741   1.373   1.625   1.451 -0.2220 -3.5922  0.5379
  914SOL    HW2 2742   1.328   1.764   1.533 -0.4330 -0.3279  1.3140
  915SOL     OW 2743   0.685   2.720   2.316 -0.2947  0.1688  0.1084
  915SOL    HW1 2744   0.663   2.809   2.267 -0.1628  2.4314 -1.4852
  915SOL    HW2 2745   0.691   2.729   2.415 -0.6762  0.9100 -1.6383
  916SOL     OW 2746   0.353   1.197   1.702  0.5688  0.2083 -0.5503
  916SOL    HW1 2747   0.444   1.175   1.738 -3.5721  1.2073 -0.7993
  916SOL    HW2 2748   0.329   1.144   1.619  0.4733  0.7836  1.5264
  917SOL     OW 2749   2.328   0.344   0.296 -0.2947  0.1251 -0.2217
  917SOL    HW1 2750   2.281   0.292   0.218 -0.4141 -1.0527 -0.0356
  917SOL    HW2 2751   2.427   0.325   0.291 -0.3591 -1.7627 -1.5864
  918SOL     OW 2752   1.475   2.562   2.318  0.9046 -0.1764  0.2563
  918SOL    HW1 2753   1.534   2.480   2.311 -2.1611  1.7054  0.8866
  918SOL    HW2 2754   1.375   2.530   2.320 -0.6532 -0.2976 -0.0473
  919SOL     OW 2755   1.624   2.563   1.757  0.3093  0.6272 -1.0021
  919SOL    HW1 2756   1.670   2.636   1.813 -1.1518  0.9963  1.7608
  919SOL    HW2 2757   1.677   2.533   1.676 -1.4784  0.7981 -2.1191
  920SOL     OW 2758   0.905   1.059   3.007 -0.0021  0.2482 -0.0847
  920SOL    HW1 2759   0.868   1.129   2.945  2.3083 -1.2715  1.2629
  920SOL    HW2 2760   0.830   1.003   3.051 -2.2963  0.8899 -1.9942
  921SOL     OW 2761   0.096   0.737   2.692  0.1967  0.2487 -0.0477
  921SOL    HW1 2762   0.008   0.690   2.680  0.0613 -0.7642  1.9175
  921SOL    HW2 2763   0.169   0.716   2.622 -0.5158  0.2622  1.1413
  922SOL     OW 2764   0.776   1.821   0.520  0.1788  0.7123 -0.3969
  922SOL    HW1 2765   0.875   1.810   0.497  0.0443  1.3427  0.8050
  922SOL    HW2 2766   0.771   1.862   0.614 -0.3266  1.2192 -2.1217
  923SOL     OW 2767   0.406   1.145   2.023  0.4440  0.4218 -0.1953
  923SOL    HW1 2768   0.389   1.074   1.950  0.3220 -1.7316 -0.2762
  923SOL    HW2 2769   0.360   1.234   1.992 -0.7282 -0.2932  1.6244
  924SOL     OW 2770   1.501   2.863   2.876 -0.2475 -0.0222 -0.4383
  924SOL    HW1 2771   1.501   2.770   2.838 -3.2576 -0.6343 -0.7582
  924SOL    HW2 2772   1.444   2.867   2.965 -2.1627  2.6840  1.2679
  925SOL     OW 2773   2.640   1.535   1.465  0.3053  0.3850  0.0693
  925SOL    HW1 2774   2.628   1.638   1.468  0.3960  1.1510  0.4263
  925SOL    HW2 2775   2.630   1.492   1.370  0.4078 -1.2033  0.7777
  926SOL     OW 2776   2.096   0.705   1.715 -0.7841  0.2410 -0.7992
  926SOL    HW1 2777   2.110   0.657   1.629 -1.2528  1.4218 -0.4496
  926SOL    HW2 2778   2.184   0.746   1.740 -3.2224 -1.7530 -0.5834
  927SOL     OW 2779   2.376   2.749   1.686  0.2189  0.0629 -0.1853
  927SOL    HW1 2780   2.399   2.826   1.749 -1.3146 -1.3150  0.3256
  927SOL    HW2 2781   2.452   2.733   1.620 -0.5244 -0.1196  0.6219
  928SOL     OW 2782   0.193   0.829   2.380 -0.1363  0.2731  0.5024
  928SOL    HW1 2783   0.178   0.904   2.310  1.9130  1.6277  1.4503
  928SOL    HW2 2784   0.291   0.821   2.404  1.4181  1.5920  2.5249
  929SOL     OW 2785   2.211   0.264   0.762 -0.1428 -0.5865  0.4367
  929SOL    HW1 2786   2.311   0.244   0.735 -1.5392 -1.9731  1.0820
  929SOL    HW2 2787   2.192   0.363   0.779 -1.2073  2.4310 -0.9294
  930SOL     OW 2788   2.871   2.947   1.906  0.2766 -0.2199  0.3761
  930SOL    HW1 2789   2.909   2.961   1.997  0.7061 -1.3720 -2.1002
  930SOL    HW2 2790   2.946   2.901   1.850  1.2302 -3.9105  3.7670
  931SOL     OW 2791   2.001   0.780   0.424  0.1484  0.0582  0.3101
  931SOL    HW1 2792   1.946   0.793   0.509 -1.3102  0.0384 -0.8642
  931SOL    HW2 2793   2.085   0.837   0.419  0.3553 -2.3951  0.4422
  932SOL     OW 2794   2.653   1.273   1.775  0.4648  0.0037  0.4120
  932SOL    HW1 2795   2.627   1.302   1.870 -4.0133 -3.5211 -0.0577
  932SOL    HW2 2796   2.613   1.180   1.758 -1.1726 -2.4893 -1.5614
  933SOL     OW 2797   2.951   2.355   1.560  0.2334 -0.2416  0.5811
  933SOL    HW1 2798   2.898   2.388   1.643  2.8924  1.7067 -0.4842
  933SOL    HW2 2799   3.044   2.388   1.568 -2.0984  1.4311 -0.3937
  934SOL     OW 2800   0.447   1.996   1.443  0.5392  0.5277  0.1953
  934SOL    HW1 2801   0.521   2.053   1.408 -3.7571 -3.0081  1.3657
  934SOL    HW2 2802   0.405   2.040   1.528 -2.0861 -0.0566  2.3260
  935SOL     OW 2803   2.730   1.598   2.218 -0.8404 -0.1836 -0.2354
  935SOL    HW1 2804   2.803   1.625   2.158 -2.5758 -2.2516 -0.2041
  935SOL    HW2 2805   2.652   1.581   2.161  1.5798 -2.4801  2.1327
  936SOL     OW 2806   2.426   1.700   2.243  0.2275  0.2891 -0.6703
  936SOL    HW1 2807   2.463   1.661   2.153 -0.1106 -0.4800 -0.9322
  936SOL    HW2 2808   2.341   1.750   2.234 -0.5070 -1.0195 -0.1646
  937SOL     OW 2809   2.222   1.662   1.735 -0.6326  0.4251  0.7082
  937SOL    HW1 2810   2.300   1.606   1.694 -2.5073  1.9023 -1.3107
  937SOL    HW2 2811   2.258   1.728   1.801  0.7893  2.4827  0.3281
  938SOL     OW 2812   0.523   2.301   2.696  0.4755 -0.1263 -0.1139
  938SOL    HW1 2813   0.604   2.357   2.670  1.7111  1.0234  0.6789
  938SOL    HW2 2814   0.488   2.333   2.786  1.4444  0.6526 -0.8298
  939SOL     OW 2815   2.360   1.023   2.920  0.3915  1.2696 -0.1172
  939SOL    HW1 2816   2.306   0.989   2.843 -0.6197 -0.4892  1.4760
  939SOL    HW2 2817   2.311   1.107   2.951  1.7380 -1.2121  1.8181
  940SOL     OW 2818   1.147   1.657   0.663  0.0959  0.3275  0.3186
  940SOL    HW1 2819   1.204   1.572   0.642  0.9683  0.2766 -2.4246
  940SOL    HW2 2820   1.207   1.731   0.700  1.9848 -0.3166  1.0103
  941SOL     OW 2821   1.600   2.648   2.534  0.0087 -0.5116 -0.4500
  941SOL    HW1 2822   1.573   2.594   2.617 -1.8419 -0.5902  1.0105
  941SOL    HW2 2823   1.542   2.627   2.452  2.5246 -2.4393 -0.6240
  942SOL     OW 2824   0.836   2.399   0.425  0.0651 -0.5329  0.2623
  942SOL    HW1 2825   0.845   2.390   0.328 -0.6908 -2.0213  0.2297
  942SOL    HW2 2826   0.919   2.361   0.469  0.6785 -0.5461 -2.1198
  943SOL     OW 2827   1.591   2.979   1.563 -0.3518 -0.0405  0.2775
  943SOL    HW1 2828   1.646   2.965   1.645  1.2084  2.0421 -1.1403
  943SOL    HW2 2829   1.638   3.035   1.495  0.2888 -0.9392 -0.0838
  944SOL     OW 2830   0.954   1.436   2.958 -0.1830 -0.8543  0.1410
  944SOL    HW1 2831   1.003   1.501   2.892  1.4476  0.0589  0.5267
  944SOL    HW2 2832   0.908   1.362   2.910  1.7318  0.3307  0.7585
  945SOL     OW 2833   0.116   2.473   0.722  0.1208  0.3705  0.2468
  945SOL    HW1 2834   0.015   2.485   0.728 -1.1937 -0.5081 -1.0221
  945SOL    HW2 2835   0.150   2.405   0.787 -0.0981  1.2890  0.1716
  946SOL     OW 2836   0.819   1.240   2.826  0.0824  0.0340  0.1909
  946SOL    HW1 2837   0.905   1.213   2.765  1.1181 -1.9958 -2.2174
  946SOL    HW2 2838   0.725   1.218   2.786 -3.1345  2.5430  1.0953
  947SOL     OW 2839   2.673   3.039   1.759 -0.2751 -0.4206 -0.3341
  947SOL    HW1 2840   2.757   3.005   1.814  0.9135 -1.7480  1.0787
  947SOL    HW2 2841   2.706   3.101   1.690 -1.0004  0.0551  3.4037
  948SOL     OW 2842   0.033   1.790   1.061 -0.2926  0.0720 -0.0591
  948SOL    HW1 2843   0.082   1.830   0.981  0.9347  0.2432 -0.7200
  948SOL    HW2 2844   0.093   1.752   1.135  2.8283  2.5196  0.4198
  949SOL     OW 2845   1.069   0.924   1.618  0.4291  0.2938  0.5951
  949SOL    HW1 2846   1.158   0.975   1.594  0.5983  1.0766 -0.8454
  949SOL    HW2 2847   1.010   0.983   1.679  0.8609 -0.3350 -2.0733
  950SOL     OW 2848   3.053   0.877   1.088 -0.0613 -0.2868 -0.4729
  950SOL    HW1 2849   3.079   0.790   1.040 -1.8516 -1.1991 -1.2870
  950SOL    HW2 2850   0.009   0.939   1.107  3.4118 -2.2435  1.0930
  951SOL     OW 2851   0.494   2.064   2.270 -0.1150  0.1025  0.2439
  951SOL    HW1 2852   0.551   1.980   2.279 -2.3478  1.7473  1.3374
  951SOL    HW2 2853   0.410   2.059   2.327 -0.3574 -1.5004 -4.0408
  952SOL     OW 2854   1.434   1.886   0.319  0.1717 -0.2761  0.1232
  952SOL    HW1 2855   1.397   1.983   0.300 -1.7383 -1.6371 -2.4354
  952SOL    HW2 2856   1.377   1.809   0.292 -1.9948 -0.7063 -0.6295
  953SOL     OW 2857   1.144   0.583   0.242 -0.0227  0.1635  0.4191
  953SOL    HW1 2858   1.091   0.509   0.200  2.5936  2.1251 -2.3877
  953SOL    HW2 2859   1.137   0.663   0.183 -0.5210 -0.0199  0.7914
  954SOL     OW 2860   2.043   0.850   0.702  0.1332 -0.3121 -0.0232
  954SOL    HW1 2861   2.089   0.929   0.657  0.8878 -1.2900  0.6623
  954SOL    HW2 2862   2.047   0.864   0.801  0.0265 -1.7234  0.9543
  955SOL     OW 2863   2.392   1.381   0.530  0.1276  0.1615 -0.8817
  955SOL    HW1 2864   2.349   1.472   0.528  3.9910  0.3042  1.4288
  955SOL    HW2 2865   2.492   1.385   0.505 -2.1188 -0.2832  0.4584
  956SOL     OW 2866   0.703   0.575   1.540 -0.2904 -0.1489 -0.0947
  956SOL    HW1 2867   0.604   0.592   1.528 -1.3030  0.0621 -1.5726
  956SOL    HW2 2868   0.759   0.663   1.539  0.0802  0.7616 -0.5434
  957SOL     OW 2869   1.877   0.783   1.070 -0.0101  0.3242  0.0824
  957SOL    HW1 2870   1.954   0.847   1.046 -1.0308  1.5974 -2.4716
  957SOL    HW2 2871   1.789   0.828   1.046 -2.1408  2.0442  0.5060
  958SOL     OW 2872   0.468   1.969   0.724  0.2926  0.2558  0.1938
  958SOL    HW1 2873   0.433   1.883   0.686 -0.6522  0.5886  2.9539
  958SOL    HW2 2874   0.479   2.044   0.657 -0.3827  0.6424  2.7629
  959SOL     OW 2875   1.957   1.928   1.539  0.3744 -0.3037 -0.3625
  959SOL    HW1 2876   1.954   1.920   1.645 -2.7416 -1.6093  1.8488
  959SOL    HW2 2877   2.026   1.866   1.496 -1.2183  1.5760 -1.4042
  960SOL     OW 2878   3.039   1.927   2.754  0.4203  0.1876  0.1647
  960SOL    HW1 2879   3.006   1.905   2.849 -0.6519  0.3080 -2.4377
  960SOL    HW2 2880   3.026   1.845   2.696 -1.2461  1.1790 -1.1743
  961SOL     OW 2881   0.993   1.438   0.905 -0.2304  0.4617  0.2634
  961SOL    HW1 2882   0.941   1.507   0.854  1.5953 -0.2606  2.0494
  961SOL    HW2 2883   1.058   1.384   0.845 -1.7032 -2.0370  0.1096
  962SOL     OW 2884   0.901   0.850   0.607 -0.1941  0.1819  0.2603
  962SOL    HW1 2885   0.947   0.895   0.684  0.6289 -0.0398  0.8224
  962SOL    HW2 2886   0.968   0.794   0.551 -2.0151 -0.5408  0.4692
  963SOL     OW 2887   1.169   1.911   1.956 -0.3128  0.0762  0.4465
  963SOL    HW1 2888   1.100   1.843   1.992 -0.5982 -3.3857 -0.2897
  963SOL    HW2 2889   1.258   1.872   1.926 -1.9559  0.3028  1.0781
  964SOL     OW 2890   0.181   2.817   2.405 -0.6558 -0.2110 -0.2666
  964SOL    HW1 2891   0.255   2.777   2.469  1.6682 -0.1789 -1.7000
  964SOL    HW2 2892   0.118   2.882   2.453 -1.0506 -0.8650 -0.9003
  965SOL     OW 2893   0.839   2.101   0.201  0.5644  0.3636 -0.1444
  965SOL    HW1 2894   0.855   2.187   0.151 -0.2262 -1.4123 -2.4300
  965SOL    HW2 2895   0.787   2.038   0.137 -2.5969  0.1021  0.8845
  966SOL     OW 2896   3.095   1.827   0.083 -0.2092 -0.2581 -0.9873
  966SOL    HW1 2897   2.999   1.811   0.107  0.5966  2.7848  1.3275
  966SOL    HW2 2898   0.023   1.738   0.091 -0.4417  3.0567  0.1187
  967SOL     OW 2899   1.965   2.623   2.750  0.4361 -0.1630  0.3783
  967SOL    HW1 2900   1.944   2.525   2.772 -0.2562 -1.5885 -0.0986
  967SOL    HW2 2901   1.917   2.690   2.810 -1.4316  0.2267  2.0798
  968SOL     OW 2902   2.576   2.771   0.907  0.4908 -0.5503 -0.1472
  968SOL    HW1 2903   2.617   2.838   0.977  3.0395  1.1286  3.5431
  968SOL    HW2 2904   2.550   2.690   0.960 -0.3070  0.9804 -1.5546
  969SOL     OW 2905   0.522   1.079   2.262  0.0087 -1.1160  0.4783
  969SOL    HW1 2906   0.589   1.141   2.310 -0.6382 -0.2861  2.0243
  969SOL    HW2 2907   0.500   1.115   2.169 -0.8739  1.0218 -0.6375
  970SOL     OW 2908   1.863   1.128   0.691 -0.1162 -0.1404  0.2832
  970SOL    HW1 2909   1.837   1.128   0.787  1.2678 -0.4643 -3.6260
  970SOL    HW2 2910   1.967   1.127   0.683 -0.3327  1.2237 -0.2267
  971SOL     OW 2911   2.222   3.092   1.671 -0.0289 -0.6237 -0.0998
  971SOL    HW1 2912   2.299   3.049   1.724 -0.3936 -1.8771 -1.7668
  971SOL    HW2 2913   2.259   0.027   1.599 -2.0414  1.3667  1.0216
  972SOL     OW 2914   3.016   0.329   1.298  0.3942 -0.2325  0.1192
  972SOL    HW1 2915   3.053   0.241   1.261  1.5962 -0.3594  2.2928
  972SOL    HW2 2916   3.063   0.367   1.380  2.6765  1.2824 -0.6035
  973SOL     OW 2917   0.050   0.285   2.610 -0.0274 -0.0354  0.0805
  973SOL    HW1 2918   0.121   0.267   2.682 -2.9755 -1.9055 -1.0258
  973SOL    HW2 2919   0.062   0.377   2.566  0.5704  0.2301  0.3391
  974SOL     OW 2920   2.531   1.315   2.027 -0.0226 -0.2124 -0.3845
  974SOL    HW1 2921   2.431   1.303   2.001 -0.9304  0.3570  0.9821
  974SOL    HW2 2922   2.560   1.269   2.115 -2.9743 -1.2742 -1.2089
  975SOL     OW 2923   1.063   0.426   1.538 -0.1655  0.0218  0.6238
  975SOL    HW1 2924   0.982   0.434   1.483  1.6022 -2.1348  0.0221
  975SOL    HW2 2925   1.051   0.480   1.622 -1.4800  1.3881 -2.3889
  976SOL     OW 2926   0.703   1.396   1.656 -0.0395  0.0697  0.0832
  976SOL    HW1 2927   0.766   1.473   1.665 -2.7419 -5.1792  1.4279
  976SOL    HW2 2928   0.723   1.361   1.561  0.3733 -0.2701 -1.4569
  977SOL     OW 2929   1.033   0.065   0.191 -0.3771  0.3491  0.1330
  977SOL    HW1 2930   1.021   0.096   0.096 -1.2983 -1.2447 -0.8071
  977SOL    HW2 2931   1.130   0.050   0.216 -2.9109  2.1695 -0.0636
  978SOL     OW 2932   2.644   1.184   2.231 -0.2938  0.5704  0.0439
  978SOL    HW1 2933   2.601   1.177   2.324 -3.9440 -2.4505 -0.9006
  978SOL    HW2 2934   2.745   1.201   2.234  1.4193  1.8854 -2.1856
  979SOL     OW 2935   1.425   0.448   2.040  0.1655 -0.1879  0.2010
  979SOL    HW1 2936   1.329   0.422   2.012 -0.5783 -3.5117  0.6696
  979SOL    HW2 2937   1.489   0.470   1.961  2.4133  0.4404 -2.5362
  980SOL     OW 2938   1.560   1.716   1.742 -0.0247 -1.1143  0.3871
  980SOL    HW1 2939   1.510   1.684   1.660 -0.6125  1.3152 -1.5761
  980SOL    HW2 2940   1.630   1.649   1.770 -1.7222 -2.3524 -2.3068
  981SOL     OW 2941   2.628   1.041   1.655 -0.1979  0.0302  0.3450
  981SOL    HW1 2942   2.688   1.071   1.574 -1.3442  0.8858 -1.6745
  981SOL    HW2 2943   2.663   0.954   1.694  3.2081 -0.3775 -3.6776
  982SOL     OW 2944   0.603   0.327   2.785  0.0118 -0.7543  0.2802
  982SOL    HW1 2945   0.633   0.423   2.796  2.4901 -2.3907  0.3450
  982SOL    HW2 2946   0.663   0.258   2.838  1.0205 -2.7555  2.6527
  983SOL     OW 2947   2.254   0.507   2.861 -0.1236 -0.5323 -0.5259
  983SOL    HW1 2948   2.339   0.543   2.912 -1.1409 -0.3661 -0.8268
  983SOL    HW2 2949   2.173   0.499   2.921  0.3685  2.8656  2.0255
  984SOL     OW 2950   0.993   2.906   1.814  0.2363 -0.1236  0.0959
  984SOL    HW1 2951   1.079   2.928   1.870  5.3217 -1.9505  0.3010
  984SOL    HW2 2952   0.924   2.867   1.878  1.5121 -2.1844  0.9443
  985SOL     OW 2953   1.539   1.959   2.079  0.2890 -0.4247 -0.0197
  985SOL    HW1 2954   1.625   1.908   2.070 -2.9548  2.2829 -0.8013
  985SOL    HW2 2955   1.540   2.058   2.064 -1.8101 -2.1828  0.5074
  986SOL     OW 2956   2.231   0.253   1.499 -0.5476  0.6218  0.2105
  986SOL    HW1 2957   2.308   0.299   1.551  0.4838 -2.4466  0.0510
  986SOL    HW2 2958   2.275   0.168   1.458 -1.4691 -0.4249 -2.1844
  987SOL     OW 2959   2.537   1.127   1.317 -0.3732  0.8191  0.5218
  987SOL    HW1 2960   2.537   1.227   1.299  0.2866 -1.8145 -2.1303
  987SOL    HW2 2961   2.623   1.105   1.367 -1.2483  2.1413  0.9163
  988SOL     OW 2962   2.511   2.258   1.618 -0.2830  0.0279 -0.1861
  988SOL    HW1 2963   2.508   2.352   1.653 -1.8044 -2.0767 -0.9706
  988SOL    HW2 2964   2.510   2.190   1.695 -1.6238 -0.9465 -0.8929
  989SOL     OW 2965   1.229   2.421   0.130  0.1974 -0.0556 -0.7480
  989SOL    HW1 2966   1.235   2.520   0.155  0.5929  0.2691 -0.8570
  989SOL    HW2 2967   1.241   2.363   0.210  0.7786 -0.8327 -0.7452
  990SOL     OW 2968   1.950   1.162   2.829  0.3821 -0.1619 -0.1534
  990SOL    HW1 2969   2.008   1.090   2.867 -2.0449  4.0089 -0.5182
  990SOL    HW2 2970   1.900   1.124   2.749 -1.4126 -0.9671  1.7590
  991SOL     OW 2971   1.278   0.229   0.462 -0.0258  0.1071  0.5378
  991SOL    HW1 2972   1.324   0.212   0.549 -1.1931 -0.5389  0.2849
  991SOL    HW2 2973   1.336   0.282   0.396 -1.0500  0.2244 -0.2791
  992SOL     OW 2974   2.804   1.111   1.448  0.3992  0.4482  0.4930
  992SOL    HW1 2975   2.850   1.025   1.410 -1.1903 -3.7801 -1.9975
  992SOL    HW2 2976   2.869   1.189   1.445  0.5608  1.2840 -0.9329
  993SOL     OW 2977   2.809   0.753   1.778 -0.9185 -0.2714 -0.4024
  993SOL    HW1 2978   2.770   0.660   1.759  1.5325  0.4728  2.5492
  993SOL    HW2 2979   2.762   0.795   1.859  0.3794 -0.0319  2.2985
  994SOL     OW 2980   0.562   2.005   2.782  0.1913  0.8336 -0.0609
  994SOL    HW1 2981   0.559   2.106   2.797 -4.1303 -1.2084  1.5758
  994SOL    HW2 2982   0.472   1.971   2.747 -0.9954  0.7142 -2.8439
  995SOL     OW 2983   2.132   1.345   2.719 -0.2711  0.0632 -0.1325
  995SOL    HW1 2984   2.060   1.272   2.736 -1.2723 -3.1426  2.0626
  995SOL    HW2 2985   2.128   1.419   2.786  0.9658 -3.2491  0.6907
  996SOL     OW 2986   2.625   1.638   0.569  0.2200  0.1497 -0.0498
  996SOL    HW1 2987   2.694   1.700   0.525  4.2170 -0.9223  0.3426
  996SOL    HW2 2988   2.642   1.547   0.535 -0.1314 -0.9988  1.1839
  997SOL     OW 2989   2.003   0.772   2.184  0.6332  1.0571 -0.3963
  997SOL    HW1 2990   2.003   0.814   2.095  1.2050  0.5475  0.2602
  997SOL    HW2 2991   1.988   0.670   2.175  0.9282 -1.4989  0.9001
  998SOL     OW 2992   2.611   1.090   0.160 -0.2922  0.2892 -0.5337
  998SOL    HW1 2993   2.520   1.053   0.148  0.6405  0.5241 -3.2358
  998SOL    HW2 2994   2.621   1.181   0.119  1.9113  0.9299 -0.8253
  999SOL     OW 2995   3.061   1.909   0.575 -0.1156  0.4596  0.1780
  999SOL    HW1 2996   0.027   1.910   0.525  0.8643 -4.0009 -0.5908
  999SOL    HW2 2997   3.045   2.000   0.614  0.3739 -2.7242  0.2442
 1000SOL     OW 2998   0.781   0.847   2.492 -0.0875 -0.6269 -0.4211
 1000SOL    HW1 2999   0.843   0.803   2.557  0.7781 -0.5795 -2.9953
 1000SOL    HW2 3000   0.788   0.800   2.402  1.9750 -2.2924  0.1935
   3.12489   3.12489   3.12489
