1000 SPC/Fw water molecules t= 335.00000 step= 335000
 3000
    1SOL     OW    1   2.466   0.174   1.349  0.0786  0.2437 -0.1356
    1SOL    HW1    2   2.555   0.124   1.354 -1.9311  0.2140  0.1077
    1SOL    HW2    3   2.460   0.245   1.421 -0.4356 -0.4421  0.3920
    2SOL     OW    4   2.506   2.460   0.931 -0.0433  0.0608 -0.6787
    2SOL    HW1    5   2.591   2.469   0.984  1.9602  1.3848  0.6170
    2SOL    HW2    6   2.427   2.411   0.979  0.8981 -0.3323  1.5061
    3SOL     OW    7   1.147   2.952   2.823 -0.2760  0.1960  0.3112
    3SOL    HW1    8   1.190   2.980   2.914  1.5689  0.1670  3.9302
    3SOL    HW2    9   1.055   2.914   2.844  0.7704 -0.8432  0.7811
    4SOL     OW   10   1.890   2.528   2.078 -0.3317 -0.2296 -0.1145
    4SOL    HW1   11   1.884   2.611   2.018 -1.3300 -1.8588 -0.0649
    4SOL    HW2   12   1.924   2.447   2.028 -0.9786  0.9428  1.3946
    5SOL     OW   13   1.422   1.053   1.721  0.5731  0.3272 -0.0768
    5SOL    HW1   14   1.344   1.108   1.686 -3.6124  0.9390  2.4699
    5SOL    HW2   15   1.387   0.987   1.793 -1.4120  0.9277 -1.2264
    6SOL     OW   16   2.015   2.745   0.763 -0.0208  0.0168 -0.9589
    6SOL    HW1   17   1.941   2.686   0.740 -1.1582 -0.3774  0.5946
    6SOL    HW2   18   2.034   2.756   0.865  0.7899 -0.1891 -1.0180
    7SOL     OW   19   2.127   1.213   1.109  0.2208  0.1778  0.2050
    7SOL    HW1   20   2.066   1.262   1.175  0.1409 -0.7431 -0.2084
    7SOL    HW2   21   2.080   1.196   1.020 -0.2579 -0.6516 -1.0397
    8SOL     OW   22   0.688   1.732   1.248  0.5275 -0.0022  0.2512
    8SOL    HW1   23   0.596   1.694   1.215 -2.9788  1.2929  0.7269
    8SOL    HW2   24   0.672   1.814   1.305  0.1808  0.3214 -0.6707
    9SOL     OW   25   1.213   2.525   2.223  0.1853 -0.4520  0.1968
    9SOL    HW1   26   1.248   2.569   2.308  0.2977  0.4535  0.2733
    9SOL    HW2   27   1.144   2.586   2.176 -2.4044  1.6494  2.7238
   10SOL     OW   28   0.288   2.031   0.835 -0.2044 -0.1754 -0.0040
   10SOL    HW1   29   0.343   1.956   0.876 -0.8943  0.1225 -0.4304
   10SOL    HW2   30   0.246   2.078   0.914  2.4479 -0.1925 -0.1925
   11SOL     OW   31   1.549   1.983   1.130 -0.2740  0.1013 -0.1130
   11SOL    HW1   32   1.545   2.061   1.198 -0.1553  0.5383 -0.9757
   11SOL    HW2   33   1.487   2.000   1.050  0.4346  0.2121  0.8684
   12SOL     OW   34   2.379   0.258   2.137  0.0995 -0.7069 -0.4324
   12SOL    HW1   35   2.439   0.330   2.093 -0.8562 -0.0513  2.6983
   12SOL    HW2   36   2.339   0.197   2.063  0.2299 -0.1275  0.1793
   13SOL     OW   37   2.799   2.995   0.496  0.1493  0.4041 -0.5356
   13SOL    HW1   38   2.737   3.008   0.576  2.0098  1.2165 -0.3233
   13SOL    HW2   39   2.860   2.914   0.511 -1.5059  1.4040 -0.3184
   14SOL     OW   40   1.532   1.808   2.880 -0.2697  0.0925  0.3250
   14SOL    HW1   41   1.593   1.787   2.964  1.2596  0.9013 -1.0021
   14SOL    HW2   42   1.594   1.841   2.806  0.1877  0.0549  2.3022
   15SOL     OW   43   2.708   2.667   1.577  0.5764 -0.2945  0.3598
   15SOL    HW1   44   2.748   2.707   1.662 -0.2770  0.9156 -1.5151
   15SOL    HW2   45   2.640   2.726   1.525 -3.2121  3.2029 -2.8179
   16SOL     OW   46   2.864   2.926   0.220 -0.5773 -0.2150  0.4991
   16SOL    HW1   47   2.840   2.951   0.317  1.5739  0.2801  0.5000
   16SOL    HW2   48   2.965   2.939   0.217 -2.2644 -0.7832  1.0381
   17SOL     OW   49   0.333   0.301   1.345  0.2995 -0.0462  0.4243
   17SOL    HW1   50   0.259   0.297   1.275  0.5189 -1.2305  0.8558
   17SOL    HW2   51   0.346   0.213   1.386  0.2921  0.4238 -1.2764
   18SOL     OW   52   2.328   0.826   0.660 -0.0531  0.1098  0.3161
   18SOL    HW1   53   2.411   0.869   0.615  0.7401  4.7513 -2.7091
   18SOL    HW2   54   2.357   0.793   0.750  0.6000 -2.3880 -2.3513
   19SOL     OW   55   1.599   1.723   0.221  0.4445  0.1056 -0.0019
   19SOL    HW1   56   1.681   1.727   0.285  0.7998 -0.2948  1.5430
   19SOL    HW2   57   1.625   1.736   0.127 -0.8119  1.9467 -1.8854
   20SOL     OW   58   2.386   2.010   2.273 -0.0222  0.1696  0.1370
   20SOL    HW1   59   2.311   1.955   2.229  1.0035 -1.5344 -2.5273
   20SOL    HW2   60   2.366   2.103   2.295 -0.6079 -2.2782 -1.8077
   21SOL     OW   61   1.707   0.119   0.640 -0.1238  0.3241  0.4330
   21SOL    HW1   62   1.658   0.068   0.712 -1.2860  1.2639 -0.6782
   21SOL    HW2   63   1.792   0.069   0.622 -1.8365  2.3149 -1.1994
   22SOL     OW   64   2.487   0.387   1.542  0.0368 -0.5217 -0.0495
   22SOL    HW1   65   2.517   0.319   1.620  0.2681 -0.0715  1.5000
   22SOL    HW2   66   2.391   0.423   1.553  0.6990  0.7980 -2.0855
   23SOL     OW   67   0.491   0.537   1.648 -0.9243 -0.2166  0.0232
   23SOL    HW1   68   0.529   0.635   1.660 -0.8929  0.4857  0.7174
   23SOL    HW2   69   0.485   0.513   1.551 -2.2663 -1.5034 -0.7527
   24SOL     OW   70   2.625   2.670   0.603  0.3080  0.2379 -0.0898
   24SOL    HW1   71   2.701   2.624   0.548  2.4192 -1.1380 -0.0459
   24SOL    HW2   72   2.650   2.747   0.657 -1.3866  0.7362 -0.7560
   25SOL     OW   73   1.204   2.762   2.647 -0.1008 -1.0313  0.5225
   25SOL    HW1   74   1.177   2.834   2.715  1.9495  1.8085 -0.0124
   25SOL    HW2   75   1.165   2.785   2.552 -0.0507  3.0711 -2.9146
   26SOL     OW   76   1.353   2.392   0.093 -0.2214 -0.4814  0.1362
   26SOL    HW1   77   1.328   2.488   0.077  1.3423 -1.7112 -1.1199
   26SOL    HW2   78   1.364   2.365   0.192  1.0652  1.5389  3.2905
   27SOL     OW   79   2.283   0.938   2.967 -0.6001  0.0521 -0.6180
   27SOL    HW1   80   2.227   1.029   2.975 -0.4501  2.6757  0.6741
   27SOL    HW2   81   2.374   0.948   2.917 -0.1991 -2.8260 -1.0086
   28SOL     OW   82   1.141   1.579   1.073  0.3565  0.2633 -0.0747
   28SOL    HW1   83   1.144   1.495   1.134  2.2028 -2.2115  2.3123
   28SOL    HW2   84   1.050   1.627   1.078 -1.8650 -0.9335 -1.7337
   29SOL     OW   85   2.926   2.726   1.854 -0.1848  0.3647 -0.1485
   29SOL    HW1   86   3.019   2.715   1.809 -0.0096 -0.8126 -0.0334
   29SOL    HW2   87   2.878   2.642   1.861  2.3591  0.5631  2.1818
   30SOL     OW   88   1.339   0.108   1.145  0.3514  0.5815 -0.1667
   30SOL    HW1   89   1.411   0.050   1.174 -2.1095  2.0277  0.2088
   30SOL    HW2   90   1.372   0.207   1.135 -0.4462  1.3576 -3.4554
   31SOL     OW   91   2.116   3.080   2.387 -0.4925  0.0750  0.2803
   31SOL    HW1   92   2.114   3.067   2.488  2.4103  0.7981 -0.3375
   31SOL    HW2   93   2.043   0.032   2.349  1.2113  1.1845  1.5381
   32SOL     OW   94   0.769   1.436   0.190 -0.2715  0.0454  0.0964
   32SOL    HW1   95   0.835   1.356   0.197 -3.0632 -2.9845  1.0030
   32SOL    HW2   96   0.820   1.521   0.174 -0.3187  1.2430 -1.8510
   33SOL     OW   97   0.139   0.872   2.474 -0.5360  0.0383 -0.3828
   33SOL    HW1   98   0.187   0.786   2.442 -0.9947 -2.5702  1.4745
   33SOL    HW2   99   0.112   0.932   2.396  0.1211 -1.1280  0.8575
   34SOL     OW  100   2.605   3.073   0.665  0.1365 -0.0275 -0.0387
   34SOL    HW1  101   2.518   3.019   0.646  1.3354 -0.1026 -0.3891
   34SOL    HW2  102   2.633   3.048   0.756 -1.3756 -1.9323 -1.2539
   35SOL     OW  103   2.383   2.961   1.927 -0.3634 -0.5718 -0.2133
   35SOL    HW1  104   2.328   2.876   1.901 -2.9323 -1.7905 -0.2320
   35SOL    HW2  105   2.323   3.037   1.958 -2.6432  0.2914  2.8520
   36SOL     OW  106   2.180   2.255   2.821 -0.1567  0.2765  0.6944
   36SOL    HW1  107   2.221   2.345   2.819 -2.8910 -2.0575  0.0851
   36SOL    HW2  108   2.083   2.259   2.844  0.4691  0.5326 -0.5793
   37SOL     OW  109   1.588   0.443   2.183  0.1923  0.0770  0.1880
   37SOL    HW1  110   1.578   0.541   2.219  0.7057 -1.1017  2.5489
   37SOL    HW2  111   1.555   0.379   2.257 -2.0911 -0.3025  0.7588
   38SOL     OW  112   0.218   0.395   2.762 -0.5945  0.2820 -0.4954
   38SOL    HW1  113   0.282   0.337   2.815  2.1835  1.9122 -0.2955
   38SOL    HW2  114   0.263   0.411   2.669 -0.4867 -1.4695 -0.9756
   39SOL     OW  115   2.008   1.361   1.726 -0.1343 -0.0618  0.1477
   39SOL    HW1  116   2.096   1.394   1.683 -0.6180  3.0190 -2.7114
   39SOL    HW2  117   2.020   1.352   1.825 -0.8465 -0.3308 -2.3305
   40SOL     OW  118   1.455   2.683   0.380 -0.3285 -0.3577  0.3861
   40SOL    HW1  119   1.462   2.708   0.481  2.2082 -0.5924  2.0361
   40SOL    HW2  120   1.449   2.583   0.377  0.3304  0.2556 -0.2048
   41SOL     OW  121   2.421   1.330   0.814  0.3454 -0.0665 -0.3366
   41SOL    HW1  122   2.432   1.293   0.906 -1.4984  3.2567  0.9321
   41SOL    HW2  123   2.513   1.347   0.769 -0.3383  0.1842  0.8575
   42SOL     OW  124   0.744   0.257   1.206  0.3230 -0.2089 -0.0265
   42SOL    HW1  125   0.834   0.289   1.168  2.0880  0.6265 -1.5245
   42SOL    HW2  126   0.756   0.172   1.260 -3.2843 -1.4903  0.5432
   43SOL     OW  127   0.080   1.371   2.390 -0.4008 -0.3876  0.0709
   43SOL    HW1  128   0.087   1.315   2.474 -0.7359  1.1334 -0.1689
   43SOL    HW2  129   0.144   1.452   2.394 -1.8572  0.9757 -1.2395
   44SOL     OW  130   2.592   0.196   1.695  0.5212 -0.1168  0.4747
   44SOL    HW1  131   2.628   0.188   1.788 -1.4384 -2.9502 -0.2223
   44SOL    HW2  132   2.568   0.104   1.661  0.4662 -2.4340 -0.4714
   45SOL     OW  133   1.431   2.977   2.318  0.1956 -0.2455  0.1028
   45SOL    HW1  134   1.423   2.879   2.348  1.6742 -2.2494 -0.0904
   45SOL    HW2  135   1.403   3.054   2.378  0.6675  1.5814 -0.6418
   46SOL     OW  136   1.067   2.531   2.571 -0.3338 -0.3438  0.8747
   46SOL    HW1  137   1.111   2.615   2.606  0.8556  0.2258 -0.3559
   46SOL    HW2  138   0.972   2.547   2.528 -1.5061 -2.2973  0.6919
   47SOL     OW  139   1.511   1.548   0.798  0.0741  0.6276 -0.0212
   47SOL    HW1  140   1.486   1.580   0.705  4.1218  1.5203  0.8794
   47SOL    HW2  141   1.605   1.512   0.792  2.2054  0.3246  1.0950
   48SOL     OW  142   1.258   2.115   0.680  0.0026  0.7637  0.3384
   48SOL    HW1  143   1.253   2.142   0.581  1.8286  0.6114  1.3712
   48SOL    HW2  144   1.224   2.021   0.676 -2.1166  2.2750 -0.9360
   49SOL     OW  145   2.068   0.102   2.766  0.2849  0.0147 -0.2570
   49SOL    HW1  146   2.039   0.012   2.724 -0.1861 -2.7547 -1.4310
   49SOL    HW2  147   2.157   0.134   2.725  0.3739 -1.7390  0.5142
   50SOL     OW  148   1.845   0.073   0.035 -0.0668 -0.7065 -0.2760
   50SOL    HW1  149   1.922   0.073   0.100  1.9760  3.1595 -2.4818
   50SOL    HW2  150   1.798   0.165   0.037 -1.1394  1.4033 -1.0267
   51SOL     OW  151   2.249   0.773   1.347  0.0840 -0.5382 -0.4001
   51SOL    HW1  152   2.299   0.720   1.275  0.2490 -1.8336 -0.5588
   51SOL    HW2  153   2.318   0.824   1.405  1.3587  2.5940  0.4185
   52SOL     OW  154   1.010   1.530   0.599 -0.2220  0.1936 -0.3733
   52SOL    HW1  155   1.008   1.614   0.543  0.2900 -1.7712 -0.7158
   52SOL    HW2  156   1.072   1.539   0.679 -0.8619  1.4816 -2.4273
   53SOL     OW  157   0.297   1.798   2.531 -0.4126 -0.0027  0.1412
   53SOL    HW1  158   0.298   1.860   2.612  0.0677  3.7408 -0.3215
   53SOL    HW2  159   0.373   1.828   2.468 -0.3385 -1.0703  1.3046
   54SOL     OW  160   2.700   1.298   1.731  0.2663  0.7648  0.4449
   54SOL    HW1  161   2.798   1.284   1.699 -0.4052 -0.2139 -0.8492
   54SOL    HW2  162   2.688   1.381   1.789  0.7769 -3.0417 -0.2081
   55SOL     OW  163   2.466   1.886   0.675 -0.8156  0.2876 -0.6656
   55SOL    HW1  164   2.386   1.818   0.672  1.3064 -2.4091  0.5273
   55SOL    HW2  165   2.450   1.971   0.731  1.3193  0.0704  1.3840
   56SOL     OW  166   1.392   0.137   1.543 -0.1334  0.4927  0.1751
   56SOL    HW1  167   1.303   0.152   1.497  2.5939 -0.0518 -1.0882
   56SOL    HW2  168   1.379   0.175   1.636  0.1707 -0.7188  0.0983
   57SOL     OW  169   1.565   1.142   2.674  0.1687  0.0809 -0.1049
   57SOL    HW1  170   1.576   1.055   2.722  0.4713 -1.0764 -4.5489
   57SOL    HW2  171   1.468   1.179   2.677  1.1768  1.0643 -0.4643
   58SOL     OW  172   0.212   0.606   1.349 -0.2784 -0.4446  0.0080
   58SOL    HW1  173   0.298   0.568   1.323 -1.5871 -0.0910 -1.0384
   58SOL    HW2  174   0.217   0.689   1.411  0.8923  1.4295  0.0395
   59SOL     OW  175   1.638   2.779   0.185 -0.0715  0.1146 -0.8196
   59SOL    HW1  176   1.628   2.878   0.170  0.8563 -0.7897  0.7515
   59SOL    HW2  177   1.568   2.748   0.253  0.3640  2.0814  0.0484
   60SOL     OW  178   2.886   1.904   3.009  0.1223 -0.1452 -1.0921
   60SOL    HW1  179   2.936   1.826   3.047 -0.0807  3.9540 -1.7530
   60SOL    HW2  180   2.817   1.863   2.947 -2.2041 -1.2667  1.4914
   61SOL     OW  181   0.838   2.590   0.844 -0.0089 -0.0330 -0.1999
   61SOL    HW1  182   0.875   2.678   0.874 -1.2810 -1.1361  2.6766
   61SOL    HW2  183   0.835   2.530   0.927  1.2960 -1.2192 -3.9588
   62SOL     OW  184   2.029   1.532   2.679 -0.5874  0.3043 -0.2305
   62SOL    HW1  185   2.123   1.550   2.649 -0.7659 -1.4220 -0.8718
   62SOL    HW2  186   1.994   1.615   2.725  2.3733  2.3824  1.0115
   63SOL     OW  187   2.285   2.106   0.483  0.3661  0.2122 -0.1100
   63SOL    HW1  188   2.297   2.066   0.580  1.7112 -0.4079 -0.4472
   63SOL    HW2  189   2.372   2.152   0.449  2.0395  0.1044  1.0890
   64SOL     OW  190   1.721   1.230   3.002  0.2291 -0.3294  0.3636
   64SOL    HW1  191   1.641   1.170   2.987 -0.7804  1.6312 -1.9836
   64SOL    HW2  192   1.807   1.184   2.972 -0.5217 -0.8544  0.6876
   65SOL     OW  193   1.856   1.675   2.271 -0.0907 -0.2623  0.2199
   65SOL    HW1  194   1.959   1.678   2.280 -0.5054  0.1451 -0.0183
   65SOL    HW2  195   1.814   1.733   2.207  0.4228 -0.6400  1.1895
   66SOL     OW  196   0.280   0.971   1.206  0.1208  0.0668 -0.1644
   66SOL    HW1  197   0.381   0.983   1.199  0.5741  1.5457  1.7938
   66SOL    HW2  198   0.236   1.061   1.180  1.0033  2.4537 -1.0715
   67SOL     OW  199   2.143   2.829   2.731  0.2999 -0.1287 -0.1828
   67SOL    HW1  200   2.099   2.904   2.679  1.5210  1.0165 -0.0412
   67SOL    HW2  201   2.187   2.757   2.668 -0.0721  1.0676 -1.0434
   68SOL     OW  202   1.148   2.484   1.289  0.4683  0.1821  0.0405
   68SOL    HW1  203   1.225   2.502   1.222  0.5741  0.1140 -1.5513
   68SOL    HW2  204   1.180   2.434   1.368 -0.0396 -0.5610 -1.6564
   69SOL     OW  205   0.741   2.411   3.075 -0.0013 -0.2072  0.3604
   69SOL    HW1  206   0.662   2.391   0.034 -1.3928 -0.3458  2.9273
   69SOL    HW2  207   0.835   2.398   0.013  1.1688 -1.4279 -0.1218
   70SOL     OW  208   3.010   0.504   2.506  0.0125  0.2547  0.6452
   70SOL    HW1  209   2.999   0.507   2.404 -1.4899  1.7512  0.8449
   70SOL    HW2  210   3.018   0.596   2.547 -0.4424  1.1116  0.3449
   71SOL     OW  211   0.617   1.706   2.806  0.0261  0.0484  0.5749
   71SOL    HW1  212   0.673   1.656   2.874 -0.3949  0.3811  2.2386
   71SOL    HW2  213   0.531   1.734   2.849  1.6910 -0.4647 -2.6442
   72SOL     OW  214   0.041   1.722   2.260 -0.6661 -0.0552 -0.3892
   72SOL    HW1  215   0.128   1.680   2.297  0.2009 -0.8936  0.7239
   72SOL    HW2  216   0.056   1.822   2.253  0.1402  0.1269 -2.6981
   73SOL     OW  217   1.620   1.466   0.474  0.1279  0.1909 -0.4886
   73SOL    HW1  218   1.647   1.385   0.527  0.9612  1.9652 -1.0395
   73SOL    HW2  219   1.696   1.532   0.459  0.9147  0.3026  1.6957
   74SOL     OW  220   2.292   2.725   2.941 -0.0550 -0.0580  0.8652
   74SOL    HW1  221   2.220   2.751   2.876  3.3693 -0.1973 -0.4083
   74SOL    HW2  222   2.281   2.628   2.963  0.0200  0.0221  0.3817
   75SOL     OW  223   2.157   1.974   0.938  0.4387 -0.7111 -0.3362
   75SOL    HW1  224   2.081   2.038   0.967 -0.5103 -0.6879 -2.6362
   75SOL    HW2  225   2.139   1.876   0.962 -3.4625  0.4460  1.5939
   76SOL     OW  226   2.576   2.048   2.051 -0.4540  0.3129 -0.1423
   76SOL    HW1  227   2.510   2.017   2.122  0.4715 -0.0877  0.7699
   76SOL    HW2  228   2.593   2.152   2.062 -0.0011  0.6924 -2.5008
   77SOL     OW  229   2.772   0.236   2.346 -0.0040  0.0583  0.1276
   77SOL    HW1  230   2.703   0.182   2.297 -0.6146  1.6065  0.6449
   77SOL    HW2  231   2.862   0.200   2.323  1.7513  0.0786  2.1795
   78SOL     OW  232   1.983   1.133   2.981 -0.1150 -0.1806 -0.6286
   78SOL    HW1  233   1.964   1.155   3.076  1.0956 -2.3617  0.0258
   78SOL    HW2  234   2.047   1.207   2.950 -1.3294  0.1898  0.8151
   79SOL     OW  235   2.739   1.476   2.521 -0.2021 -0.1733  0.5501
   79SOL    HW1  236   2.645   1.493   2.561 -1.8031 -0.4157 -0.3722
   79SOL    HW2  237   2.784   1.569   2.510 -1.9620  3.2578 -0.2750
   80SOL     OW  238   1.469   1.645   1.629  0.3039  0.4212 -0.5446
   80SOL    HW1  239   1.417   1.736   1.645  0.6832  0.7540 -0.4853
   80SOL    HW2  240   1.490   1.592   1.713  1.1875  0.1421 -1.8629
   81SOL     OW  241   1.632   0.852   1.864 -0.4403  0.2225 -0.3939
   81SOL    HW1  242   1.704   0.806   1.920 -2.1997 -2.3758 -0.9741
   81SOL    HW2  243   1.670   0.931   1.817  1.0039 -1.7790  3.4800
   82SOL     OW  244   1.835   2.078   1.611 -0.3949  0.2279 -0.8370
   82SOL    HW1  245   1.815   2.067   1.513 -2.5732 -2.6102  0.8003
   82SOL    HW2  246   1.936   2.081   1.633  1.4221 -1.6815 -2.7484
   83SOL     OW  247   3.067   0.072   0.280 -0.1401  0.6642 -0.2148
   83SOL    HW1  248   0.015   0.150   0.323  0.7894  0.0488 -0.4844
   83SOL    HW2  249   2.981   0.110   0.237 -0.9139  1.3465  0.9973
   84SOL     OW  250   0.658   1.008   0.077  0.7828  0.2856  1.4362
   84SOL    HW1  251   0.652   0.919   0.124 -0.5362 -0.0096  0.6947
   84SOL    HW2  252   0.561   1.042   0.062 -1.6519 -0.9111 -1.5988
   85SOL     OW  253   2.513   2.021   1.496 -0.3019  0.3192 -0.4161
   85SOL    HW1  254   2.537   1.930   1.461  1.1236  0.9435  3.2539
   85SOL    HW2  255   2.574   2.090   1.452  0.4898 -1.0422  0.0971
   86SOL     OW  256   0.537   2.713   1.254 -0.1887  0.1286 -0.0345
   86SOL    HW1  257   0.625   2.762   1.236 -1.2917 -2.4093  2.1626
   86SOL    HW2  258   0.477   2.722   1.169  1.7297  1.6821 -0.0261
   87SOL     OW  259   0.464   2.420   2.440 -0.5913 -0.4318 -0.5514
   87SOL    HW1  260   0.523   2.425   2.355  2.2714  0.8057 -2.8494
   87SOL    HW2  261   0.381   2.364   2.423 -1.9068 -2.5215 -0.2887
   88SOL     OW  262   0.151   2.315   0.416 -0.5507 -0.0291 -0.4335
   88SOL    HW1  263   0.085   2.256   0.368  2.4595  2.0051 -0.9157
   88SOL    HW2  264   0.190   2.280   0.502 -1.8177 -0.4577 -0.1358
   89SOL     OW  265   0.841   1.045   0.848  0.2866  0.3265 -0.2843
   89SOL    HW1  266   0.912   0.972   0.851 -1.4535  1.2342  1.4316
   89SOL    HW2  267   0.760   1.028   0.904 -0.6829 -1.3268 -3.2973
   90SOL     OW  268   0.266   1.070   1.774  0.1408  0.3684  0.2408
   90SOL    HW1  269   0.221   1.132   1.702 -0.4158 -1.4625  0.6173
   90SOL    HW2  270   0.357   1.038   1.746 -2.2633  0.2059  0.0621
   91SOL     OW  271   1.035   0.836   0.912  0.1585  0.0216 -0.0785
   91SOL    HW1  272   1.051   0.777   0.833  0.3096 -1.3519  0.9953
   91SOL    HW2  273   1.122   0.835   0.963 -0.2299 -0.0698  1.7618
   92SOL     OW  274   1.955   1.181   0.907  0.3307  0.3194 -0.3980
   92SOL    HW1  275   1.896   1.141   0.984 -0.5771 -3.9460  1.1247
   92SOL    HW2  276   1.947   1.132   0.820 -1.6223  0.8955 -2.0817
   93SOL     OW  277   2.554   0.944   2.424 -0.1531  1.1488 -0.2809
   93SOL    HW1  278   2.640   0.890   2.407 -0.4209 -1.1019  0.4011
   93SOL    HW2  279   2.477   0.879   2.423 -1.2583 -1.5427  1.4177
   94SOL     OW  280   2.016   1.772   2.802  0.0162  0.0853  0.0545
   94SOL    HW1  281   1.991   1.866   2.824 -1.0322  0.4445 -1.8423
   94SOL    HW2  282   2.079   1.778   2.720  0.1022  1.9459 -1.8715
   95SOL     OW  283   2.605   0.725   1.405 -0.1591 -0.4989 -0.1183
   95SOL    HW1  284   2.566   0.790   1.337  3.0341  0.3349  1.9983
   95SOL    HW2  285   2.632   0.635   1.364  0.7139 -0.8365  0.7228
   96SOL     OW  286   2.541   3.018   1.720 -0.5529  0.0685  0.1824
   96SOL    HW1  287   2.635   3.009   1.753 -0.3863  0.9319 -1.3840
   96SOL    HW2  288   2.473   3.004   1.796  0.5258 -1.6380 -2.3061
   97SOL     OW  289   2.391   1.059   1.401  0.5977  0.1847 -0.1067
   97SOL    HW1  290   2.482   1.083   1.441 -1.3102 -0.0711  0.3608
   97SOL    HW2  291   2.337   1.142   1.386  1.2549  1.5690 -0.9568
   98SOL     OW  292   1.608   2.377   1.711  0.0261  0.4718 -0.0829
   98SOL    HW1  293   1.600   2.276   1.713  1.8593  0.2311  0.7117
   98SOL    HW2  294   1.519   2.418   1.689  3.7363  1.7657 -1.3295
   99SOL     OW  295   0.508   2.339   1.607 -0.0386  0.1620  0.2305
   99SOL    HW1  296   0.547   2.340   1.515 -2.2732 -0.2741  2.4343
   99SOL    HW2  297   0.515   2.430   1.651  0.3481  2.0005 -0.3324
  100SOL     OW  298   1.283   0.547   3.034 -0.1715  0.2989  0.0866
  100SOL    HW1  299   1.271   0.503   0.023 -0.0319  1.5185 -1.0461
  100SOL    HW2  300   1.322   0.476   2.971  1.3162 -0.9959  1.0660
  101SOL     OW  301   2.356   0.180   2.631  0.0488  0.3122 -0.5066
  101SOL    HW1  302   2.398   0.088   2.609 -0.7090 -0.7103 -0.5012
  101SOL    HW2  303   2.405   0.228   2.708  0.1261 -2.5959  0.2420
  102SOL     OW  304   0.507   0.510   1.373  0.4499 -0.0869 -0.2426
  102SOL    HW1  305   0.452   0.428   1.361  0.8692 -0.3495 -1.7615
  102SOL    HW2  306   0.581   0.512   1.306  0.3232  0.4393 -0.6253
  103SOL     OW  307   0.613   0.443   2.675  0.5681  0.5188  0.1813
  103SOL    HW1  308   0.648   0.535   2.706 -1.1171  1.5240 -1.4498
  103SOL    HW2  309   0.605   0.390   2.760 -0.1587  0.1830  0.4715
  104SOL     OW  310   1.036   0.791   2.557  0.5650  0.8411  0.4599
  104SOL    HW1  311   1.032   0.838   2.643  0.1612 -0.9833 -1.7758
  104SOL    HW2  312   1.087   0.705   2.576  1.2113 -0.6040  0.1625
  105SOL     OW  313   2.160   2.034   1.731 -0.0927  0.1781 -0.3445
  105SOL    HW1  314   2.197   2.058   1.823 -0.4398 -1.4349  0.0583
  105SOL    HW2  315   2.215   2.075   1.655 -2.9563 -0.7331 -0.3834
  106SOL     OW  316   1.931   3.016   0.641 -0.0941 -0.0481  0.3395
  106SOL    HW1  317   1.949   2.923   0.676  0.1825  2.6309 -0.2801
  106SOL    HW2  318   2.005   3.052   0.579  1.1964  0.6932  1.3284
  107SOL     OW  319   2.530   1.941   1.084  0.5367 -0.3634  0.3215
  107SOL    HW1  320   2.526   1.849   1.037  2.1346  1.2293 -4.8959
  107SOL    HW2  321   2.594   1.999   1.030  0.9159 -0.7014  1.3637
  108SOL     OW  322   2.667   3.072   1.367 -0.1997  0.1494 -0.1155
  108SOL    HW1  323   2.624   2.989   1.405 -0.3676 -0.4265 -0.1137
  108SOL    HW2  324   2.716   0.017   1.440 -0.0230  1.9754  1.5352
  109SOL     OW  325   2.058   2.502   1.063  0.0754  0.0722 -0.1802
  109SOL    HW1  326   1.984   2.515   1.131 -1.2042  0.2427  2.0670
  109SOL    HW2  327   2.115   2.582   1.069 -2.0906 -5.3970  1.1017
  110SOL     OW  328   0.582   1.755   1.866 -0.8172  0.0028 -0.3051
  110SOL    HW1  329   0.546   1.670   1.821 -1.9816  2.7374  1.1477
  110SOL    HW2  330   0.567   1.755   1.968  1.9372  0.4193 -1.6575
  111SOL     OW  331   1.594   2.331   2.324  0.5522 -0.1561  0.3564
  111SOL    HW1  332   1.695   2.340   2.307  2.2975 -0.4313 -1.7784
  111SOL    HW2  333   1.540   2.355   2.240 -0.8852 -3.0255 -1.9394
  112SOL     OW  334   1.692   1.786   2.456  0.1488  0.2591  0.1686
  112SOL    HW1  335   1.666   1.870   2.403 -1.1811 -1.4167  0.8582
  112SOL    HW2  336   1.747   1.725   2.399  0.4926  2.0022 -1.1536
  113SOL     OW  337   1.603   2.106   1.726 -0.0501  0.1887 -0.5198
  113SOL    HW1  338   1.520   2.050   1.732 -2.4726  0.0515 -0.8359
  113SOL    HW2  339   1.687   2.065   1.688  2.1363  1.4860 -1.4964
  114SOL     OW  340   2.893   0.770   0.874 -0.0775  0.4158 -0.2995
  114SOL    HW1  341   2.987   0.817   0.882  4.4497  2.3153  0.7305
  114SOL    HW2  342   2.813   0.812   0.914  1.1458  0.0300 -1.2646
  115SOL     OW  343   0.648   0.777   0.234 -0.0516  0.0263 -0.8747
  115SOL    HW1  344   0.595   0.805   0.319  2.6245 -0.3545  1.2690
  115SOL    HW2  345   0.603   0.694   0.198  1.4042  1.8849 -0.9958
  116SOL     OW  346   2.794   1.749   2.509  0.2391 -0.5385  0.1705
  116SOL    HW1  347   2.731   1.828   2.489 -0.1169 -0.2151  2.4882
  116SOL    HW2  348   2.874   1.776   2.567 -0.7476 -0.9612  1.5707
  117SOL     OW  349   3.022   2.830   0.591  0.5714  0.0456  0.7305
  117SOL    HW1  350   3.089   2.757   0.575 -1.2507  0.7666  0.3140
  117SOL    HW2  351   2.977   2.812   0.679 -0.0648  1.6921  2.0550
  118SOL     OW  352   0.983   1.512   2.663 -0.2686 -0.3455  0.1257
  118SOL    HW1  353   0.884   1.497   2.633 -0.8012 -0.9772  0.2337
  118SOL    HW2  354   1.043   1.523   2.583 -0.4131  1.3953  1.1439
  119SOL     OW  355   0.331   2.133   0.080 -0.3160 -0.0319  0.1410
  119SOL    HW1  356   0.240   2.179   0.081  1.5917  2.0747 -1.1996
  119SOL    HW2  357   0.334   2.063   0.153 -0.6097  1.8034  1.1156
  120SOL     OW  358   1.367   0.723   0.363 -0.0857 -0.2915 -0.3530
  120SOL    HW1  359   1.409   0.643   0.418 -0.1458 -2.0809 -1.2560
  120SOL    HW2  360   1.370   0.804   0.422  2.7547 -0.3619 -2.0571
  121SOL     OW  361   1.373   2.389   0.374  0.4219 -0.1657 -0.1281
  121SOL    HW1  362   1.470   2.388   0.406 -1.1028 -1.9397 -0.4009
  121SOL    HW2  363   1.327   2.304   0.405  0.9312  0.1736  1.6799
  122SOL     OW  364   2.547   2.327   1.784 -0.0618  0.2609  0.2729
  122SOL    HW1  365   2.535   2.363   1.689  0.8528  0.1228  3.4293
  122SOL    HW2  366   2.532   2.225   1.795  0.6749 -0.0268  2.9711
  123SOL     OW  367   0.750   1.991   0.583 -0.1620  0.0586 -0.3049
  123SOL    HW1  368   0.694   1.987   0.502  3.7355  1.5537  1.8216
  123SOL    HW2  369   0.778   2.088   0.605  0.1954  1.5151  1.7315
  124SOL     OW  370   0.001   0.731   0.217 -0.2949 -0.2406 -0.1688
  124SOL    HW1  371   0.090   0.690   0.184 -2.0999 -0.7982  0.9194
  124SOL    HW2  372   3.089   0.703   0.313 -0.3536 -0.3231  1.8395
  125SOL     OW  373   0.528   0.902   0.450  0.0904 -0.3232  0.3476
  125SOL    HW1  374   0.475   0.841   0.510  1.6913  1.0360  0.2019
  125SOL    HW2  375   0.620   0.914   0.487  0.5302  0.2845 -1.3360
  126SOL     OW  376   3.003   1.851   0.745  0.0371  0.0720  0.0032
  126SOL    HW1  377   3.001   1.857   0.844  0.1786  1.4634 -0.9751
  126SOL    HW2  378   3.098   1.855   0.712  1.5598  2.8803  3.1804
  127SOL     OW  379   1.407   1.922   1.755  0.4989 -0.0752  0.5448
  127SOL    HW1  380   1.464   1.887   1.831 -0.1623 -0.8469  0.3651
  127SOL    HW2  381   1.315   1.936   1.797 -1.5130  1.6239  3.1850
  128SOL     OW  382   0.881   1.197   0.143 -0.8106  0.1701  0.1147
  128SOL    HW1  383   0.831   1.138   0.082  1.1049  2.9274  3.8839
  128SOL    HW2  384   0.974   1.211   0.114  1.1628  1.5881  1.4354
  129SOL     OW  385   1.767   1.541   1.177 -0.4953  0.1017  0.3702
  129SOL    HW1  386   1.684   1.572   1.124 -0.1231 -0.2071  3.7055
  129SOL    HW2  387   1.755   1.589   1.266  0.6819  0.8610  1.3297
  130SOL     OW  388   2.321   1.657   1.644 -0.2681 -0.8611 -0.2498
  130SOL    HW1  389   2.229   1.703   1.634  0.4224 -0.2133  3.3068
  130SOL    HW2  390   2.381   1.707   1.707 -2.3033 -2.6278 -0.8950
  131SOL     OW  391   0.025   2.617   2.890 -0.3234 -0.1692 -0.4500
  131SOL    HW1  392   3.038   2.661   2.909  2.0620 -1.3190 -2.7636
  131SOL    HW2  393   0.071   2.671   2.815  1.8967 -0.4146  1.1824
  132SOL     OW  394   2.817   1.652   0.650 -0.1776  0.5444 -0.2455
  132SOL    HW1  395   2.882   1.728   0.679 -2.7819 -0.7533  0.5540
  132SOL    HW2  396   2.791   1.589   0.733 -3.9771 -2.6531  1.7800
  133SOL     OW  397   0.577   2.983   1.851 -0.2723 -0.1562 -0.1400
  133SOL    HW1  398   0.580   3.040   1.934  1.8973 -0.1194  1.4374
  133SOL    HW2  399   0.614   2.889   1.868  0.9233 -0.0584  3.1734
  134SOL     OW  400   0.118   1.809   2.973  0.0720 -0.2024 -0.1070
  134SOL    HW1  401   0.034   1.786   3.025  0.2888  0.7313 -0.9551
  134SOL    HW2  402   0.124   1.909   2.953  0.9985 -0.2894 -2.1102
  135SOL     OW  403   1.403   0.720   1.859  0.2886 -0.5756 -0.2935
  135SOL    HW1  404   1.318   0.780   1.862  1.0405 -0.3971 -1.7873
  135SOL    HW2  405   1.488   0.782   1.879  1.9152 -0.6690 -1.2691
  136SOL     OW  406   2.828   1.332   0.315  0.1137  0.0909  0.3034
  136SOL    HW1  407   2.902   1.389   0.356 -1.5330  1.2715  1.1595
  136SOL    HW2  408   2.772   1.387   0.245  0.1301  0.9303 -0.0063
  137SOL     OW  409   3.096   1.912   1.008  0.0790 -0.4076 -0.4200
  137SOL    HW1  410   0.043   1.875   1.091  1.3730  0.8869  1.8385
  137SOL    HW2  411   0.050   1.997   0.979  0.1492  0.4335  0.4120
  138SOL     OW  412   2.380   0.601   1.159  0.4399  0.0672 -0.6164
  138SOL    HW1  413   2.450   0.555   1.214 -2.8173 -1.0469  0.6847
  138SOL    HW2  414   2.296   0.546   1.152  1.8965 -1.4541  0.4489
  139SOL     OW  415   1.337   2.681   3.086 -0.2523 -0.5390 -0.1762
  139SOL    HW1  416   1.394   2.753   3.037 -0.5267  0.8658 -1.1686
  139SOL    HW2  417   1.240   2.707   3.092  0.9035 -2.6616  1.2460
  140SOL     OW  418   1.373   1.765   1.191  0.1509  0.5823  0.0380
  140SOL    HW1  419   1.295   1.752   1.129 -2.6039 -0.3804  0.0214
  140SOL    HW2  420   1.424   1.850   1.169 -0.5719 -1.3745 -0.5893
  141SOL     OW  421   1.274   2.126   0.408 -0.1874  0.4082  0.4549
  141SOL    HW1  422   1.179   2.123   0.379  0.6946  2.8816 -0.3565
  141SOL    HW2  423   1.339   2.072   0.347  0.1976  0.7050 -1.5930
  142SOL     OW  424   1.090   0.390   0.830 -0.2107 -0.3063 -0.4299
  142SOL    HW1  425   1.166   0.452   0.807  0.5285 -0.7153 -2.1002
  142SOL    HW2  426   1.058   0.344   0.749 -1.2817  2.3936  2.2794
  143SOL     OW  427   0.872   1.601   2.903  0.1127 -0.1374  0.2557
  143SOL    HW1  428   0.956   1.605   2.850 -1.5392  0.8368  2.0273
  143SOL    HW2  429   0.823   1.513   2.890 -0.2083 -0.5432  0.7822
  144SOL     OW  430   1.792   2.576   0.740 -0.4699 -0.9089 -0.0692
  144SOL    HW1  431   1.706   2.551   0.687  0.3447 -3.0909  0.6637
  144SOL    HW2  432   1.855   2.498   0.731 -0.2283 -1.2492  1.9411
  145SOL     OW  433   2.040   0.467   2.667  0.1790  0.3547 -0.6889
  145SOL    HW1  434   2.032   0.475   2.563  0.6195  2.0715 -2.3509
  145SOL    HW2  435   2.133   0.440   2.707  2.1520 -0.4803 -0.7025
  146SOL     OW  436   0.286   2.928   0.501  0.1726 -0.2746 -0.3410
  146SOL    HW1  437   0.196   2.956   0.545 -0.5769  0.5328  1.5614
  146SOL    HW2  438   0.304   2.994   0.424  2.4922  0.3194  1.2767
  147SOL     OW  439   1.932   0.332   1.908  0.5940 -0.2464  0.3693
  147SOL    HW1  440   1.885   0.372   1.993  0.2985 -0.5262 -0.2962
  147SOL    HW2  441   2.027   0.370   1.910 -0.6495  1.3823  1.6893
  148SOL     OW  442   1.091   0.167   2.072  0.3349  0.0439 -0.7735
  148SOL    HW1  443   1.029   0.226   2.017  0.4023  0.6231 -1.3081
  148SOL    HW2  444   1.174   0.221   2.088  0.3581  1.7841 -1.6903
  149SOL     OW  445   1.511   0.437   1.893 -0.1594 -0.8393 -0.5857
  149SOL    HW1  446   1.455   0.521   1.878  0.3484  2.7529 -0.0417
  149SOL    HW2  447   1.532   0.425   1.993 -0.0953 -0.8418  0.5571
  150SOL     OW  448   3.096   0.280   3.066 -0.6533 -0.9210 -0.0120
  150SOL    HW1  449   3.012   0.262   0.018 -0.0200  1.5475 -0.7370
  150SOL    HW2  450   3.070   0.338   2.987 -0.0210  1.0155 -0.2719
  151SOL     OW  451   0.513   1.394   0.075 -0.3349 -0.5170 -0.4260
  151SOL    HW1  452   0.514   1.345   3.091  1.4036  0.0817  0.3046
  151SOL    HW2  453   0.606   1.403   0.124  0.4154  1.2087  0.8992
  152SOL     OW  454   2.990   0.361   0.460  0.0777  0.0283  0.2550
  152SOL    HW1  455   2.917   0.392   0.396 -0.9111  1.0825  1.0970
  152SOL    HW2  456   3.027   0.442   0.512  0.6083 -1.4239  2.5035
  153SOL     OW  457   2.581   0.473   1.310  0.4329  0.6235 -0.4325
  153SOL    HW1  458   2.541   0.440   1.400  0.9284  2.8712 -1.0092
  153SOL    HW2  459   2.638   0.400   1.265 -0.6293 -0.2392 -1.8956
  154SOL     OW  460   1.692   3.048   2.213  0.1349  0.9335  0.0445
  154SOL    HW1  461   1.697   3.034   2.112 -0.1007 -4.9774 -1.2996
  154SOL    HW2  462   1.601   3.041   2.249  1.5407  0.7405 -3.2255
  155SOL     OW  463   0.157   1.850   0.681  0.5815  0.0046  0.4841
  155SOL    HW1  464   0.202   1.932   0.725  0.4964  0.4431 -2.7553
  155SOL    HW2  465   0.198   1.759   0.711 -1.8779 -0.5673 -4.0038
  156SOL     OW  466   2.234   2.087   3.040  0.0763  0.7378 -0.0370
  156SOL    HW1  467   2.145   2.045   3.061 -0.0103 -2.9336 -0.8525
  156SOL    HW2  468   2.222   2.163   2.977  0.1014 -2.4707  3.2651
  157SOL     OW  469   1.012   0.275   0.598 -0.2119 -0.0855 -0.2331
  157SOL    HW1  470   0.983   0.365   0.554 -1.5622 -0.2075  0.2725
  157SOL    HW2  471   1.088   0.228   0.543  0.5957  0.0048 -1.4916
  158SOL     OW  472   2.264   0.576   2.269 -0.5357 -0.2972 -0.0057
  158SOL    HW1  473   2.280   0.478   2.292 -2.7607 -1.7021  1.8653
  158SOL    HW2  474   2.299   0.612   2.183 -1.1172  0.0610  1.5931
  159SOL     OW  475   0.117   0.257   0.392 -0.2582 -0.0231 -0.0813
  159SOL    HW1  476   0.031   0.286   0.440 -1.7045  2.6935  1.3852
  159SOL    HW2  477   0.192   0.246   0.463  0.4242 -1.3825  2.2554
  160SOL     OW  478   1.506   2.066   2.104  0.3423 -0.5529  0.1956
  160SOL    HW1  479   1.404   2.084   2.108 -2.6339 -2.9176 -1.0272
  160SOL    HW2  480   1.524   1.978   2.058  1.7364  1.5220 -0.3526
  161SOL     OW  481   2.655   0.713   2.747  0.3821 -0.4149 -0.2087
  161SOL    HW1  482   2.743   0.744   2.708  0.8105 -1.9686  3.5803
  161SOL    HW2  483   2.634   0.617   2.722  0.9938 -1.3358  0.5273
  162SOL     OW  484   0.795   2.480   1.522 -0.0457 -0.1668 -0.3905
  162SOL    HW1  485   0.819   2.459   1.430  0.3958 -1.8243 -0.1157
  162SOL    HW2  486   0.701   2.496   1.525  2.3891 -0.4893 -1.9848
  163SOL     OW  487   2.673   0.271   2.587 -0.7568  0.6354 -0.1740
  163SOL    HW1  488   2.720   0.274   2.496  0.7584  0.7650 -0.7844
  163SOL    HW2  489   2.593   0.336   2.579  0.7114  0.4420 -0.2982
  164SOL     OW  490   2.096   1.648   0.193 -0.4151  0.0028  0.3851
  164SOL    HW1  491   2.041   1.676   0.116  1.1907 -0.7054  2.8083
  164SOL    HW2  492   2.191   1.685   0.182 -1.4358 -3.6158 -0.3718
  165SOL     OW  493   2.893   0.447   1.593  0.1338 -0.2727 -0.5798
  165SOL    HW1  494   2.894   0.530   1.651 -2.4551 -0.7074 -1.4379
  165SOL    HW2  495   2.973   0.440   1.530 -1.3178 -1.0140 -1.3755
  166SOL     OW  496   2.312   0.686   3.101 -0.1837  0.5659  0.1675
  166SOL    HW1  497   2.400   0.654   3.059 -0.3892  2.5946 -0.5103
  166SOL    HW2  498   2.284   0.765   3.046  2.7816  0.2519 -1.0722
  167SOL     OW  499   2.881   0.649   0.102  0.3147 -0.4982 -0.3537
  167SOL    HW1  500   2.956   0.706   0.137 -0.7531 -1.9736 -0.2686
  167SOL    HW2  501   2.905   0.606   0.013  1.2352 -0.5854 -0.7731
  168SOL     OW  502   1.850   3.000   2.864 -0.4308 -0.2825  0.6475
  168SOL    HW1  503   1.883   2.953   2.943 -1.7022 -2.7898  0.4644
  168SOL    HW2  504   1.778   3.064   2.884  3.0437  0.4596  0.1913
  169SOL     OW  505   0.083   1.453   0.839 -0.3898  0.2964 -0.0834
  169SOL    HW1  506   3.091   1.426   0.824 -0.7717  0.4993  2.3049
  169SOL    HW2  507   0.140   1.378   0.878  0.5711 -1.5606  0.5242
  170SOL     OW  508   2.963   0.631   1.346 -0.7634  0.5498  0.5397
  170SOL    HW1  509   2.911   0.646   1.431  2.1068  2.4217  0.2928
  170SOL    HW2  510   3.064   0.619   1.365  1.1350  1.6502  1.6562
  171SOL     OW  511   1.969   2.281   1.961  0.1214  0.8361  0.0025
  171SOL    HW1  512   1.892   2.216   1.985 -0.7422  0.3929  0.3709
  171SOL    HW2  513   2.059   2.229   1.968  1.7273  0.3448 -2.5014
  172SOL     OW  514   0.262   2.335   1.471  0.1052 -0.3413 -0.8452
  172SOL    HW1  515   0.194   2.270   1.506  1.0270 -0.3788 -0.0587
  172SOL    HW2  516   0.348   2.324   1.525  1.5769  0.9715 -2.9840
  173SOL     OW  517   1.448   1.131   0.090  0.5555 -0.4052 -0.1270
  173SOL    HW1  518   1.457   1.127   0.195  0.3551  2.6195  2.0255
  173SOL    HW2  519   1.513   1.063   0.049 -2.9148  2.4609  1.9524
  174SOL     OW  520   1.385   0.060   2.497  0.1271  0.3297 -0.0499
  174SOL    HW1  521   1.452   0.039   2.574  2.0625 -1.6310 -0.5560
  174SOL    HW2  522   1.294   0.074   2.542  2.0608 -5.0119  1.1840
  175SOL     OW  523   1.864   1.748   0.949 -0.1683 -0.5905 -0.4438
  175SOL    HW1  524   1.957   1.710   0.962 -0.9414 -0.3306 -1.7426
  175SOL    HW2  525   1.792   1.686   0.980  0.2220  0.7642 -2.1356
  176SOL     OW  526   1.494   0.121   0.253 -0.6291  0.0418 -0.3260
  176SOL    HW1  527   1.592   0.139   0.266 -1.4976 -2.5880 -1.0127
  176SOL    HW2  528   1.436   0.194   0.289  0.9801 -0.4886  2.2680
  177SOL     OW  529   0.521   1.258   2.954  0.2570 -0.1100 -0.5513
  177SOL    HW1  530   0.516   1.268   2.854 -0.9455  0.3790 -0.4475
  177SOL    HW2  531   0.467   1.180   2.993 -1.7285  1.2815  0.0579
  178SOL     OW  532   2.584   2.285   2.703 -0.0220  0.2443  0.0291
  178SOL    HW1  533   2.661   2.284   2.639  1.0891 -1.1464  0.0260
  178SOL    HW2  534   2.500   2.328   2.656  0.1472 -0.4489  1.5356
  179SOL     OW  535   2.669   0.165   2.936 -0.1958  0.0823 -0.3915
  179SOL    HW1  536   2.706   0.135   2.846  1.6424  0.3477  0.7414
  179SOL    HW2  537   2.597   0.093   2.968 -2.0427 -0.3613 -1.0611
  180SOL     OW  538   1.698   1.187   0.518  0.1330  0.1020 -0.0524
  180SOL    HW1  539   1.647   1.177   0.606 -0.0135 -1.8884  3.0702
  180SOL    HW2  540   1.787   1.233   0.529  0.0794  0.3256  0.5270
  181SOL     OW  541   1.902   1.333   2.482  0.7229 -0.0528  0.4541
  181SOL    HW1  542   1.855   1.275   2.551  2.4406 -0.1905 -0.9973
  181SOL    HW2  543   1.979   1.380   2.522  1.0038  4.0332  0.5753
  182SOL     OW  544   2.492   2.790   2.566 -0.5114  0.2005  0.1970
  182SOL    HW1  545   2.538   2.733   2.638 -2.0551  3.1851  1.3675
  182SOL    HW2  546   2.485   2.890   2.591 -1.6702 -3.2368  3.9240
  183SOL     OW  547   1.838   0.722   1.991 -0.7561  0.0175  0.3388
  183SOL    HW1  548   1.903   0.745   1.912  1.6662 -0.1963  0.4575
  183SOL    HW2  549   1.861   0.630   2.025  0.0995 -1.0529  0.8340
  184SOL     OW  550   0.129   1.243   1.594  0.1329  0.3752 -0.0184
  184SOL    HW1  551   0.152   1.264   1.499  0.0600  1.5093 -1.3240
  184SOL    HW2  552   0.029   1.263   1.611 -1.1388  1.6538  3.2233
  185SOL     OW  553   1.722   0.405   0.909  0.3060 -0.2858  0.4915
  185SOL    HW1  554   1.711   0.350   0.994  0.4121  0.1346  2.0383
  185SOL    HW2  555   1.643   0.406   0.843  2.5842 -2.0252  1.9933
  186SOL     OW  556   0.281   2.346   2.836  0.3662  0.6799  0.2380
  186SOL    HW1  557   0.186   2.364   2.812  3.3072  0.3505 -0.1869
  186SOL    HW2  558   0.298   2.246   2.815 -0.4331 -0.1573 -0.3392
  187SOL     OW  559   2.939   1.076   0.313  0.1864 -0.1374  0.1584
  187SOL    HW1  560   2.900   1.169   0.324  2.9220  1.0219 -0.2661
  187SOL    HW2  561   2.871   1.016   0.260 -2.1917  0.3161 -0.4561
  188SOL     OW  562   2.537   1.371   1.286  0.0833 -0.1652 -0.1192
  188SOL    HW1  563   2.567   1.323   1.372  1.1505  1.3950  0.7855
  188SOL    HW2  564   2.617   1.421   1.246  1.0511 -3.3561 -1.2470
  189SOL     OW  565   2.816   0.463   2.717 -0.5303 -0.6421  0.0089
  189SOL    HW1  566   2.786   0.375   2.672 -1.0329 -0.0921 -1.6227
  189SOL    HW2  567   2.875   0.509   2.651 -4.0549 -1.0468 -1.0195
  190SOL     OW  568   1.194   1.192   1.586  0.0329 -0.3876 -0.3455
  190SOL    HW1  569   1.226   1.283   1.553 -1.7005  2.3257  1.7249
  190SOL    HW2  570   1.101   1.202   1.620  1.5988  3.1370 -1.1015
  191SOL     OW  571   0.598   0.435   2.150 -0.1054 -0.3445  0.2388
  191SOL    HW1  572   0.501   0.424   2.180  2.8876  2.0043  0.6746
  191SOL    HW2  573   0.621   0.354   2.093  1.6582 -2.4562 -0.9273
  192SOL     OW  574   1.741   1.839   1.314  0.4398  0.2488 -0.2739
  192SOL    HW1  575   1.674   1.886   1.253 -1.7100  2.3624  2.1128
  192SOL    HW2  576   1.697   1.773   1.378  0.2497  1.3495  0.1326
  193SOL     OW  577   1.630   0.869   1.141 -0.4678  0.1656 -1.2595
  193SOL    HW1  578   1.616   0.871   1.245 -2.2851 -0.8913  2.5481
  193SOL    HW2  579   1.675   0.786   1.101  0.6795 -1.8395  0.1432
  194SOL     OW  580   0.540   2.162   1.288 -0.0313 -0.6963 -0.0352
  194SOL    HW1  581   0.568   2.263   1.298  1.0858  3.6739 -0.9949
  194SOL    HW2  582   0.563   2.123   1.197 -0.6548  0.2441  0.0219
  195SOL     OW  583   1.739   0.227   0.366 -0.3842 -0.0713  0.1380
  195SOL    HW1  584   1.751   0.219   0.469 -2.6440  1.3142  1.7263
  195SOL    HW2  585   1.772   0.317   0.328 -0.4826  0.7942  1.5914
  196SOL     OW  586   0.182   1.309   1.342  0.3828  1.2837  0.6782
  196SOL    HW1  587   0.189   1.411   1.337 -0.4546 -1.4034 -1.9991
  196SOL    HW2  588   0.267   1.265   1.364  1.1399  3.7724 -0.6008
  197SOL     OW  589   1.085   0.065   1.687  0.3245  0.0059  0.1726
  197SOL    HW1  590   1.113   0.005   1.609  1.6585 -1.5204 -3.8808
  197SOL    HW2  591   1.149   0.053   1.767  0.7162  1.2534  0.7894
  198SOL     OW  592   0.639   1.265   1.130  0.1890  0.4209  0.2186
  198SOL    HW1  593   0.586   1.191   1.186 -0.9442 -1.1943  0.0740
  198SOL    HW2  594   0.611   1.269   1.031 -2.2167  0.1437  1.3511
  199SOL     OW  595   3.071   2.414   1.768  0.0352 -0.3660 -0.2240
  199SOL    HW1  596   0.030   2.495   1.776  0.1705  1.0054  0.0933
  199SOL    HW2  597   3.011   2.438   1.688  0.8231  2.1909 -1.6361
  200SOL     OW  598   1.752   1.643   1.838 -0.4358 -0.2870  0.0883
  200SOL    HW1  599   1.830   1.667   1.898  0.9035 -0.1541 -1.8202
  200SOL    HW2  600   1.795   1.638   1.746 -1.0020 -2.9174  0.3209
  201SOL     OW  601   0.500   1.751   2.195  0.5977  0.4737  0.0753
  201SOL    HW1  602   0.513   1.803   2.281  2.0274  1.4642  4.2266
  201SOL    HW2  603   0.411   1.783   2.153 -0.9936  1.8174 -0.0390
  202SOL     OW  604   1.653   0.600   0.079  0.0129 -0.5848  0.0111
  202SOL    HW1  605   1.642   0.596   3.080 -0.2659  1.4009 -3.7312
  202SOL    HW2  606   1.678   0.691   0.115 -0.5444 -1.8306 -1.4214
  203SOL     OW  607   1.353   2.779   1.726  0.0071 -0.1104 -0.4499
  203SOL    HW1  608   1.411   2.830   1.794 -2.4569 -2.3435 -0.8774
  203SOL    HW2  609   1.260   2.755   1.760  0.4818 -0.8515  0.1145
  204SOL     OW  610   0.339   1.889   1.545 -0.0517 -0.0213  0.0370
  204SOL    HW1  611   0.321   1.926   1.452 -1.8407 -0.0111  0.1311
  204SOL    HW2  612   0.292   1.802   1.564  1.4353  0.0278  1.1324
  205SOL     OW  613   1.544   1.804   1.959  0.2226  0.3324 -0.0896
  205SOL    HW1  614   1.632   1.770   1.915  0.8013 -0.9158 -0.9527
  205SOL    HW2  615   1.491   1.737   2.020 -2.3038  1.8586  1.5098
  206SOL     OW  616   0.076   1.326   2.097  0.0448  0.4553  0.5636
  206SOL    HW1  617   0.162   1.303   2.052  1.7120  1.6212 -0.3738
  206SOL    HW2  618   0.097   1.361   2.190  0.5335  1.0317 -0.2448
  207SOL     OW  619   0.835   2.808   2.160 -0.3684 -0.3561 -0.1454
  207SOL    HW1  620   0.785   2.780   2.243  0.9552  0.8878  1.2796
  207SOL    HW2  621   0.830   2.904   2.143  1.2149 -0.6783  0.8388
  208SOL     OW  622   0.647   2.693   1.875  0.1452 -0.4251 -0.2707
  208SOL    HW1  623   0.741   2.731   1.864 -1.4301 -1.4079 -0.5209
  208SOL    HW2  624   0.653   2.602   1.922 -0.5761 -1.5577 -2.3633
  209SOL     OW  625   1.419   2.953   0.510 -0.5023 -0.3770  0.3936
  209SOL    HW1  626   1.496   2.971   0.447 -3.8397  1.6188 -1.2084
  209SOL    HW2  627   1.407   3.037   0.571  1.8337  2.9672  1.7421
  210SOL     OW  628   2.612   0.675   0.724  0.1371  0.0737  0.1516
  210SOL    HW1  629   2.627   0.595   0.665 -1.6622  0.6862  2.8161
  210SOL    HW2  630   2.670   0.743   0.685 -0.0865  0.3594  3.2869
  211SOL     OW  631   0.683   0.355   1.706  0.5232 -0.0082  0.2193
  211SOL    HW1  632   0.601   0.411   1.704  3.3914  0.8452  1.1170
  211SOL    HW2  633   0.755   0.378   1.640  0.6166 -1.3855  3.3716
  212SOL     OW  634   1.511   2.152   1.322  0.0879  0.6226 -0.0017
  212SOL    HW1  635   1.446   2.092   1.383 -0.6831 -0.6204  1.0927
  212SOL    HW2  636   1.502   2.253   1.342 -1.3913 -0.0275  1.9025
  213SOL     OW  637   2.802   0.366   1.866 -0.3445  0.0823 -0.1098
  213SOL    HW1  638   2.788   0.406   1.772 -0.1664  1.4678 -0.2010
  213SOL    HW2  639   2.898   0.377   1.895 -0.2100  1.3582 -0.1798
  214SOL     OW  640   0.628   2.435   2.252  0.0879 -0.1255  0.3630
  214SOL    HW1  641   0.618   2.480   2.158 -1.9477 -0.9114 -0.9902
  214SOL    HW2  642   0.720   2.401   2.261 -2.6900  0.6642  2.4828
  215SOL     OW  643   2.723   1.613   1.588  0.3128 -0.5259  0.2337
  215SOL    HW1  644   2.819   1.590   1.622  3.7311 -1.4265  0.9886
  215SOL    HW2  645   2.721   1.651   1.495 -0.3526 -0.5166  0.8441
  216SOL     OW  646   0.704   0.739   1.996  0.1291 -0.0736 -0.2513
  216SOL    HW1  647   0.603   0.713   2.014 -2.2808 -0.0106 -0.3109
  216SOL    HW2  648   0.729   0.828   2.052  0.8963  2.8421  4.4287
  217SOL     OW  649   2.762   0.292   1.163  0.6201 -0.7251 -0.0547
  217SOL    HW1  650   2.791   0.341   1.075 -2.3548  0.2350  0.1357
  217SOL    HW2  651   2.846   0.253   1.210  1.5168  0.5757  0.0027
  218SOL     OW  652   1.365   1.998   0.946 -0.6592  0.0806  0.4155
  218SOL    HW1  653   1.379   1.949   0.856  1.1166 -1.2153 -1.0520
  218SOL    HW2  654   1.284   2.054   0.946  2.9174 -1.8918  0.6259
  219SOL     OW  655   2.219   2.741   0.593  0.4107 -0.0165 -0.0503
  219SOL    HW1  656   2.149   2.744   0.666  2.0248  1.9214 -1.2300
  219SOL    HW2  657   2.175   2.754   0.507  1.8980  1.0930  2.0262
  220SOL     OW  658   1.876   2.414   0.181  0.3807  1.0265  0.8058
  220SOL    HW1  659   1.819   2.387   0.103 -0.1486  0.2135 -0.2727
  220SOL    HW2  660   1.970   2.372   0.173  0.6402 -1.7149 -0.0206
  221SOL     OW  661   3.051   1.727   0.299  0.3409 -0.4599  0.6868
  221SOL    HW1  662   2.960   1.777   0.311 -1.1042  1.6583 -0.9520
  221SOL    HW2  663   3.048   1.647   0.363  0.6257  3.8593 -0.0409
  222SOL     OW  664   0.609   2.283   0.876 -0.1480  0.1819 -0.0446
  222SOL    HW1  665   0.569   2.297   0.780  0.1828 -2.3981 -0.2975
  222SOL    HW2  666   0.708   2.311   0.889  1.7792 -0.0354  0.1858
  223SOL     OW  667   1.181   0.099   0.421  0.1760  0.5768 -0.4941
  223SOL    HW1  668   1.235   0.083   0.505  0.7460  3.8455  1.6946
  223SOL    HW2  669   1.126   0.019   0.396  0.5063 -0.1476  1.0303
  224SOL     OW  670   2.899   1.079   0.785  0.2236  0.7860  0.5503
  224SOL    HW1  671   2.800   1.068   0.787  1.0508 -0.9178 -1.3672
  224SOL    HW2  672   2.937   1.062   0.881 -0.5181 -0.7895  0.6273
  225SOL     OW  673   0.170   1.826   1.195 -0.0582 -0.0712 -0.1194
  225SOL    HW1  674   0.223   1.898   1.244  2.6908  3.9060 -1.1760
  225SOL    HW2  675   0.153   1.748   1.251 -0.5888  4.5380  1.8793
  226SOL     OW  676   0.707   3.071   0.961 -0.6421 -0.1910  0.3375
  226SOL    HW1  677   0.651   0.027   0.899 -0.0832 -2.2240 -1.6579
  226SOL    HW2  678   0.779   0.018   1.010  0.0478  1.8094  1.6892
  227SOL     OW  679   1.173   1.475   1.719 -0.0287  0.1098  0.0059
  227SOL    HW1  680   1.163   1.564   1.766 -0.5235  1.1569  0.6271
  227SOL    HW2  681   1.132   1.477   1.626  0.5732  0.6025  2.4125
  228SOL     OW  682   0.659   0.215   2.009  0.6012 -0.4519 -0.3299
  228SOL    HW1  683   0.604   0.131   2.014  0.6434  0.6192 -1.9393
  228SOL    HW2  684   0.748   0.208   1.959 -1.0956  0.2719 -0.8455
  229SOL     OW  685   3.005   0.767   2.542  0.1277 -0.5680 -0.0079
  229SOL    HW1  686   2.947   0.818   2.609 -1.7856 -0.6542  0.6022
  229SOL    HW2  687   3.094   0.816   2.520  2.2079  0.0110 -1.0895
  230SOL     OW  688   0.269   0.806   0.988  0.0880  0.1459 -0.4367
  230SOL    HW1  689   0.339   0.833   0.926 -2.5542  2.8162  0.3076
  230SOL    HW2  690   0.275   0.862   1.076 -2.0059  0.5895  4.4567
  231SOL     OW  691   1.279   0.014   1.914 -0.5596  0.7944 -0.1494
  231SOL    HW1  692   1.212   0.059   1.970  3.0296  0.4741  0.1370
  231SOL    HW2  693   1.325   3.036   1.960  1.3885  0.7349 -1.9989
  232SOL     OW  694   3.079   2.129   0.329 -0.9069  0.5050 -0.1853
  232SOL    HW1  695   0.044   2.061   0.366  0.5852  2.9802  1.6856
  232SOL    HW2  696   2.992   2.090   0.294  1.2750  0.3838  0.4571
  233SOL     OW  697   1.344   2.541   2.700 -0.2064 -0.1642  0.0212
  233SOL    HW1  698   1.355   2.497   2.607  2.3456  0.7872  0.3779
  233SOL    HW2  699   1.285   2.626   2.685 -0.3845  0.9615  1.2714
  234SOL     OW  700   0.528   1.089   1.659 -0.0096 -0.1410  0.5167
  234SOL    HW1  701   0.613   1.078   1.606  1.8632  1.8793 -0.1381
  234SOL    HW2  702   0.534   1.155   1.736 -0.8012  0.8500  0.4615
  235SOL     OW  703   0.013   2.414   2.501 -0.0117 -0.2287  0.3510
  235SOL    HW1  704   0.088   2.355   2.463  0.3108 -4.4641 -0.8765
  235SOL    HW2  705   0.013   2.404   2.604  0.8328  0.5402  1.0855
  236SOL     OW  706   1.693   1.920   2.704  0.1920  0.1735 -0.4883
  236SOL    HW1  707   1.696   1.856   2.625 -1.5841  3.5945  0.4287
  236SOL    HW2  708   1.661   2.006   2.667  0.1600 -0.9915  0.9694
  237SOL     OW  709   1.449   0.800   0.708  0.3238  0.0071  0.6989
  237SOL    HW1  710   1.541   0.784   0.665 -1.4186 -0.0274 -0.6031
  237SOL    HW2  711   1.447   0.820   0.808 -1.7916  3.5851 -1.2783
  238SOL     OW  712   1.047   2.670   2.082  0.2350 -0.6863 -0.2729
  238SOL    HW1  713   0.958   2.718   2.113 -2.2369  3.1841  2.8448
  238SOL    HW2  714   1.081   2.718   2.002  1.3672 -0.0688  0.4922
  239SOL     OW  715   1.105   2.673   1.809  0.0234 -0.1919 -0.2727
  239SOL    HW1  716   1.020   2.702   1.777  5.1055  0.7709 -0.8069
  239SOL    HW2  717   1.116   2.573   1.803  0.8940  0.9369 -0.6084
  240SOL     OW  718   2.033   3.088   0.906 -0.2745  0.4993 -0.2644
  240SOL    HW1  719   1.992   3.053   0.816  0.1330 -0.0526  0.0276
  240SOL    HW2  720   2.132   3.066   0.914 -0.4893 -0.2662 -0.3587
  241SOL     OW  721   1.188   1.314   2.464 -0.2026  0.4639  0.0122
  241SOL    HW1  722   1.090   1.295   2.473  2.4558  2.0266  0.8981
  241SOL    HW2  723   1.207   1.413   2.458  0.9634  0.3452  2.2197
  242SOL     OW  724   2.605   0.676   3.013  0.6398 -0.2887  0.4066
  242SOL    HW1  725   2.632   0.579   3.028 -0.7339  0.5390  1.7607
  242SOL    HW2  726   2.652   0.718   2.933  0.8773  1.1895 -1.1341
  243SOL     OW  727   0.813   0.575   1.295  0.0201 -0.2166 -0.1207
  243SOL    HW1  728   0.811   0.504   1.372  1.4831 -2.3549  2.4742
  243SOL    HW2  729   0.906   0.616   1.293 -3.4050  0.8468 -0.3549
  244SOL     OW  730   1.395   2.982   3.021  0.0280 -0.0049  0.6168
  244SOL    HW1  731   1.326   3.057   3.041  0.5619  1.8863 -0.2223
  244SOL    HW2  732   1.475   2.999   3.078 -1.0630 -0.2751  0.9925
  245SOL     OW  733   1.940   2.816   3.062  0.3162 -0.3967  0.0647
  245SOL    HW1  734   1.917   2.772   0.048 -0.2252  0.4274 -0.6392
  245SOL    HW2  735   2.033   2.858   3.068 -1.7670 -0.7941  1.8716
  246SOL     OW  736   0.648   0.804   1.387  0.1554  0.0849 -0.3457
  246SOL    HW1  737   0.592   0.765   1.462 -1.4904  0.0359  2.7756
  246SOL    HW2  738   0.713   0.738   1.356 -2.7844  0.1825  0.6174
  247SOL     OW  739   0.337   0.300   2.108  0.3255 -0.5037  0.3767
  247SOL    HW1  740   0.242   0.272   2.127  3.8274  0.7874 -0.2875
  247SOL    HW2  741   0.345   0.338   2.012 -1.0418 -0.9458 -1.3334
  248SOL     OW  742   2.960   1.321   1.972  0.4291  0.1669  0.2788
  248SOL    HW1  743   2.897   1.381   2.030 -0.8077  2.7994 -0.2109
  248SOL    HW2  744   3.047   1.308   2.028 -1.5303 -2.9911  0.2200
  249SOL     OW  745   0.151   0.395   0.139 -0.2121  0.2327 -0.2590
  249SOL    HW1  746   0.149   0.340   0.223 -0.4772  1.4724 -0.0957
  249SOL    HW2  747   0.085   0.359   0.068 -0.5122  0.9423 -1.3163
  250SOL     OW  748   2.890   0.229   0.141  0.1694 -0.3360 -0.2243
  250SOL    HW1  749   2.865   0.311   0.198  0.9897  1.2737 -1.1022
  250SOL    HW2  750   2.813   0.162   0.120  2.6120  0.6459 -0.3089
  251SOL     OW  751   0.804   1.835   1.645 -0.0758 -0.7092  0.6259
  251SOL    HW1  752   0.844   1.926   1.655  0.8124 -1.5096  1.1367
  251SOL    HW2  753   0.745   1.800   1.724 -0.1516 -2.9891 -1.3187
  252SOL     OW  754   1.983   2.207   1.005  0.0295 -0.1981  0.3487
  252SOL    HW1  755   1.902   2.149   1.016 -0.4609 -0.3036  0.2888
  252SOL    HW2  756   1.980   2.294   1.054  1.7266 -1.7489  0.2392
  253SOL     OW  757   1.695   1.982   2.292 -0.1442  0.0035 -0.2364
  253SOL    HW1  758   1.761   1.954   2.220 -1.9640  0.8135  3.8597
  253SOL    HW2  759   1.614   2.024   2.250  0.7518 -2.5570  0.2331
  254SOL     OW  760   0.657   2.455   1.989 -0.1004  0.2708  0.1490
  254SOL    HW1  761   0.637   2.368   1.942 -0.0154  0.7002  1.8272
  254SOL    HW2  762   0.754   2.461   2.014 -0.8184  1.1987 -2.1793
  255SOL     OW  763   1.187   0.167   1.342  0.0907 -0.6246 -0.6284
  255SOL    HW1  764   1.229   0.132   1.256 -0.6560 -0.3497  1.2116
  255SOL    HW2  765   1.147   0.095   1.396  1.7229 -0.1522  2.6729
  256SOL     OW  766   2.283   2.131   1.523 -0.1386 -0.4385  0.2766
  256SOL    HW1  767   2.218   2.112   1.451  1.8026 -1.8485  3.0601
  256SOL    HW2  768   2.380   2.091   1.514  1.2163  1.3783 -0.1439
  257SOL     OW  769   0.763   2.150   2.729  0.5715  0.5502  0.1875
  257SOL    HW1  770   0.716   2.234   2.746  2.2427 -1.0226 -1.6871
  257SOL    HW2  771   0.834   2.126   2.796 -0.8416  2.3796 -2.9683
  258SOL     OW  772   0.501   0.873   2.260 -0.2260  0.0638  0.2724
  258SOL    HW1  773   0.500   0.826   2.345  0.0930  0.2230 -2.4259
  258SOL    HW2  774   0.440   0.828   2.194  1.5300  2.0464  1.8675
  259SOL     OW  775   0.614   1.311   2.154 -0.0382 -0.5180 -0.3019
  259SOL    HW1  776   0.635   1.269   2.064 -0.4753  1.1948  0.6490
  259SOL    HW2  777   0.702   1.342   2.195 -1.6652  0.1898 -3.1831
  260SOL     OW  778   1.901   0.963   1.570 -0.4951 -0.2445  0.1842
  260SOL    HW1  779   1.909   1.049   1.518 -0.7458 -1.9379 -0.3779
  260SOL    HW2  780   1.891   0.980   1.672  1.7982  1.6017 -0.7994
  261SOL     OW  781   1.077   3.010   0.703 -0.8114  0.1322  0.0699
  261SOL    HW1  782   0.986   3.049   0.666 -0.3826 -1.6326 -1.0799
  261SOL    HW2  783   1.105   2.923   0.660  1.4060 -0.5136  0.1887
  262SOL     OW  784   2.160   2.215   2.468  0.2888  0.2210  0.8689
  262SOL    HW1  785   2.070   2.171   2.458  1.2708 -2.1173  1.3392
  262SOL    HW2  786   2.156   2.297   2.530  1.1845 -2.6212  1.6421
  263SOL     OW  787   0.128   1.555   2.891 -0.2914  0.2100  0.5237
  263SOL    HW1  788   0.132   1.654   2.908  0.0910 -0.7716  0.2494
  263SOL    HW2  789   0.161   1.499   2.970 -1.8457  0.0343 -0.3027
  264SOL     OW  790   0.286   2.061   1.315  0.4772 -0.5237  0.5033
  264SOL    HW1  791   0.376   2.108   1.312 -0.0032  2.4788  0.9255
  264SOL    HW2  792   0.220   2.117   1.372  0.5921  1.5631 -1.6803
  265SOL     OW  793   0.742   0.989   0.603 -0.2426 -0.5481  0.2723
  265SOL    HW1  794   0.787   1.032   0.682  0.8401 -1.7228  0.4954
  265SOL    HW2  795   0.718   1.059   0.532  0.7415 -3.2138  2.3015
  266SOL     OW  796   1.328   1.724   3.027 -0.1119 -0.3126 -0.0908
  266SOL    HW1  797   1.399   1.771   2.967  0.5398 -1.8775  0.6052
  266SOL    HW2  798   1.315   1.628   2.998 -1.8413 -0.2877  0.5891
  267SOL     OW  799   0.752   0.757   2.509  0.2641 -0.3928 -0.1830
  267SOL    HW1  800   0.836   0.806   2.487 -1.6252  1.8425 -0.2994
  267SOL    HW2  801   0.749   0.668   2.455  0.3238  1.0001 -1.1195
  268SOL     OW  802   1.003   0.626   3.010 -0.3217 -0.0982  0.6105
  268SOL    HW1  803   0.971   0.724   3.023 -2.2909 -0.5091 -0.9748
  268SOL    HW2  804   1.103   0.611   2.994 -0.3588 -0.5244 -0.3508
  269SOL     OW  805   1.954   3.011   2.620 -0.0697 -0.0674 -0.0592
  269SOL    HW1  806   1.893   3.018   2.542 -0.6206 -0.4714 -0.9169
  269SOL    HW2  807   1.899   3.002   2.709 -4.2224  1.3836  0.2484
  270SOL     OW  808   0.993   0.940   2.771  0.6952 -0.1740 -0.7479
  270SOL    HW1  809   1.090   0.972   2.795  1.0026  0.9871  1.0057
  270SOL    HW2  810   0.945   0.907   2.857 -0.0109  0.2846  0.0479
  271SOL     OW  811   0.255   0.656   0.179  0.3542  0.0060  0.3193
  271SOL    HW1  812   0.291   0.712   0.103 -1.5927  0.4384  1.2851
  271SOL    HW2  813   0.223   0.562   0.155 -0.3004 -0.3585 -2.3024
  272SOL     OW  814   2.382   1.284   2.718 -0.2793  0.0143 -0.0076
  272SOL    HW1  815   2.352   1.251   2.808  0.6454 -2.6432 -1.0173
  272SOL    HW2  816   2.453   1.217   2.684 -0.7906 -1.0378  1.4551
  273SOL     OW  817   0.134   0.242   2.389 -0.5064 -0.2887  0.7354
  273SOL    HW1  818   0.104   0.261   2.485  1.3471  3.6637  0.2831
  273SOL    HW2  819   0.239   0.237   2.387  0.9377  1.4820  3.7388
  274SOL     OW  820   0.069   0.194   2.073  0.7744  0.1658 -0.3165
  274SOL    HW1  821   0.091   0.122   2.002 -0.7273  1.2472  0.1395
  274SOL    HW2  822   0.010   0.151   2.145  1.2929 -0.5997  2.0424
  275SOL     OW  823   1.915   1.371   0.534  0.4015 -0.1114  0.6583
  275SOL    HW1  824   2.004   1.375   0.580 -1.9131 -0.2991  2.4589
  275SOL    HW2  825   1.926   1.398   0.435 -2.0134 -1.6080 -0.3301
  276SOL     OW  826   0.312   0.898   2.670  0.2036 -0.2384  0.1512
  276SOL    HW1  827   0.405   0.928   2.643  0.6558 -0.5407 -0.9945
  276SOL    HW2  828   0.242   0.912   2.595 -1.7308  1.5655 -0.1589
  277SOL     OW  829   1.747   2.624   2.507  0.6991 -0.4820 -0.0732
  277SOL    HW1  830   1.829   2.639   2.447  0.8157 -1.3851 -1.0596
  277SOL    HW2  831   1.751   2.684   2.592 -0.3977  1.8121  2.2593
  278SOL     OW  832   1.854   0.042   1.598  0.0658 -0.0447 -0.6521
  278SOL    HW1  833   1.786   0.119   1.617  1.5604 -1.4913  0.7709
  278SOL    HW2  834   1.952   0.076   1.605 -0.0302 -0.3818 -1.5312
  279SOL     OW  835   1.390   1.353   3.027  0.1650  0.0608  0.1283
  279SOL    HW1  836   1.414   1.267   3.078  0.9348  0.0177  0.7740
  279SOL    HW2  837   1.320   1.335   2.953  2.0341  0.8529 -0.2691
  280SOL     OW  838   0.784   1.334   2.923  0.6452  0.2385  0.4524
  280SOL    HW1  839   0.831   1.357   3.007 -0.8048  0.3562  1.2585
  280SOL    HW2  840   0.692   1.293   2.936 -0.0090 -2.5775 -1.1922
  281SOL     OW  841   3.057   2.944   1.476  0.0328  0.5243  0.3671
  281SOL    HW1  842   0.044   2.899   1.505  1.6039 -1.5134  3.7780
  281SOL    HW2  843   3.028   3.002   1.553 -1.0250 -2.9591 -1.8820
  282SOL     OW  844   0.185   2.412   0.850 -0.4511  0.1506 -0.5204
  282SOL    HW1  845   0.187   2.350   0.769 -0.5804 -0.7361  0.1296
  282SOL    HW2  846   0.204   2.508   0.825  1.2075 -2.0442  3.1811
  283SOL     OW  847   0.960   2.148   1.966  0.5566  0.3798 -0.1378
  283SOL    HW1  848   0.955   2.243   2.000  2.0054  1.4396 -1.1451
  283SOL    HW2  849   0.902   2.093   2.029  0.7584  2.4993  2.5858
  284SOL     OW  850   2.195   0.666   0.477  0.3354 -0.3329  0.3066
  284SOL    HW1  851   2.223   0.586   0.536  0.4118  2.2150 -0.1377
  284SOL    HW2  852   2.227   0.753   0.516 -0.4263 -2.2138 -0.9833
  285SOL     OW  853   0.163   2.725   2.686  0.0318 -0.9755  0.1878
  285SOL    HW1  854   0.117   2.735   2.596 -0.5372  1.2467  0.4849
  285SOL    HW2  855   0.252   2.676   2.671 -1.8213  0.7758  1.1152
  286SOL     OW  856   1.895   2.525   1.517  0.4303 -0.1019  0.6063
  286SOL    HW1  857   1.865   2.509   1.609 -0.4471  0.7902  0.3603
  286SOL    HW2  858   1.838   2.601   1.481 -0.4628 -0.1832  1.0428
  287SOL     OW  859   0.860   1.563   1.085  0.2069  0.1385  0.0109
  287SOL    HW1  860   0.862   1.478   1.027  1.2271  1.2007 -1.5018
  287SOL    HW2  861   0.767   1.577   1.129 -2.0861  0.4567  0.9722
  288SOL     OW  862   1.925   2.255   2.904  0.1262 -0.1479 -0.0077
  288SOL    HW1  863   1.846   2.290   2.961  1.0753 -2.3371  0.2663
  288SOL    HW2  864   1.917   2.150   2.896 -0.0573 -0.3540  1.7809
  289SOL     OW  865   0.511   1.912   2.402  0.3468  0.0978 -0.8544
  289SOL    HW1  866   0.510   1.994   2.344  0.5520  0.4763  0.9712
  289SOL    HW2  867   0.533   1.937   2.500 -0.5158  0.3418  1.0292
  290SOL     OW  868   1.178   2.171   1.002 -0.1848  0.1694  0.3057
  290SOL    HW1  869   1.260   2.224   1.039  0.5678  2.7303  0.6916
  290SOL    HW2  870   1.095   2.167   1.065 -4.3263 -1.3903  0.9915
  291SOL     OW  871   1.696   1.641   3.057  0.2800  0.3341 -0.0390
  291SOL    HW1  872   1.684   1.605   2.959 -1.9530  0.0787  1.5447
  291SOL    HW2  873   1.711   1.562   0.018  0.9891  2.9733  1.2265
  292SOL     OW  874   1.446   1.352   1.005  0.0831 -0.0311  0.6642
  292SOL    HW1  875   1.477   1.414   0.932 -1.4238 -1.6229 -0.2630
  292SOL    HW2  876   1.448   1.395   1.095  0.3855  2.4153  1.6407
  293SOL     OW  877   1.482   2.827   0.945  0.1771 -0.1899 -0.3361
  293SOL    HW1  878   1.540   2.736   0.950 -0.4215 -3.3980  1.4867
  293SOL    HW2  879   1.387   2.793   0.950 -0.7894 -1.2337  0.0453
  294SOL     OW  880   2.955   1.075   2.496  0.2895 -0.0291  0.3093
  294SOL    HW1  881   2.901   1.144   2.544  0.5325 -1.0768 -1.0253
  294SOL    HW2  882   2.923   1.053   2.399  0.2695  0.7068 -0.7550
  295SOL     OW  883   1.392   2.272   2.736  0.0916 -0.0738  0.2182
  295SOL    HW1  884   1.386   2.371   2.745  0.8994 -3.3576  2.8637
  295SOL    HW2  885   1.481   2.239   2.696  0.0513 -1.1384  1.3456
  296SOL     OW  886   1.948   0.894   2.323  0.2291 -0.3359 -0.0454
  296SOL    HW1  887   1.870   0.936   2.272 -0.5444 -0.8262  0.7659
  296SOL    HW2  888   1.964   0.943   2.410  0.2616  0.4004 -0.1416
  297SOL     OW  889   0.175   0.590   2.109 -0.6328 -0.1670 -0.4000
  297SOL    HW1  890   0.134   0.501   2.129 -0.8493  2.0981  0.5695
  297SOL    HW2  891   0.106   0.662   2.084  0.0612 -2.0242  0.3099
  298SOL     OW  892   0.931   2.419   2.040 -0.5309 -0.0386 -0.4488
  298SOL    HW1  893   0.975   2.516   2.022  1.5566  1.4688  0.2043
  298SOL    HW2  894   0.963   2.390   2.133  1.2111  1.6090  0.5881
  299SOL     OW  895   0.551   2.916   2.745  0.1298 -0.0382 -0.4644
  299SOL    HW1  896   0.644   2.926   2.705 -1.2724  1.2164  3.2551
  299SOL    HW2  897   0.555   2.829   2.799  3.1187  0.5022 -0.1106
  300SOL     OW  898   0.127   0.864   2.873  0.2553  0.4209  0.0842
  300SOL    HW1  899   0.135   0.940   2.937 -1.4766  0.5081  0.6152
  300SOL    HW2  900   0.196   0.868   2.798  2.7690 -0.9915  0.2254
  301SOL     OW  901   1.601   1.210   1.573  0.5495  0.1599 -0.3696
  301SOL    HW1  902   1.574   1.122   1.614  1.2291  2.4629  1.3353
  301SOL    HW2  903   1.606   1.282   1.642 -0.6074 -2.6034 -2.2395
  302SOL     OW  904   2.659   1.986   2.365 -0.0397 -0.4573 -0.0340
  302SOL    HW1  905   2.712   2.058   2.421 -1.6734 -0.4021  1.6929
  302SOL    HW2  906   2.566   2.024   2.346 -0.1212  2.8582  0.2285
  303SOL     OW  907   3.030   0.058   2.744  0.7287 -0.4699 -0.1673
  303SOL    HW1  908   0.017   0.018   2.723 -1.6201  3.1421  0.9140
  303SOL    HW2  909   3.039   0.153   2.707  0.8663 -0.4205 -0.1795
  304SOL     OW  910   2.968   0.720   1.656 -0.2181 -0.6190 -0.1607
  304SOL    HW1  911   3.068   0.755   1.660  2.8697  2.5311  0.7582
  304SOL    HW2  912   2.922   0.756   1.742  0.6305 -1.4900  2.1437
  305SOL     OW  913   2.986   3.097   1.680 -0.5940 -0.2030  0.3485
  305SOL    HW1  914   2.908   3.054   1.730  0.3194 -0.5835 -1.9378
  305SOL    HW2  915   2.952   0.077   1.628  1.7617  0.4147  1.7309
  306SOL     OW  916   2.614   1.198   1.477  0.1332 -0.4813 -0.5091
  306SOL    HW1  917   2.622   1.244   1.572 -1.5725  0.8143 -1.8324
  306SOL    HW2  918   2.705   1.200   1.434  1.3607 -2.7146  0.0934
  307SOL     OW  919   2.116   0.436   1.132 -0.1871 -0.0013  0.1042
  307SOL    HW1  920   2.078   0.362   1.075  0.4057 -2.7880  1.1124
  307SOL    HW2  921   2.063   0.521   1.142 -1.7751 -0.7638  1.3769
  308SOL     OW  922   2.894   1.932   1.214  0.3947 -0.0482  0.0965
  308SOL    HW1  923   2.935   1.904   1.125 -0.4308  0.1044  0.3521
  308SOL    HW2  924   2.832   2.013   1.191  0.0535  1.8000 -3.6135
  309SOL     OW  925   2.080   1.801   1.623 -0.9281  0.0944  0.9415
  309SOL    HW1  926   2.031   1.814   1.537 -1.0020  0.6144 -1.9121
  309SOL    HW2  927   2.107   1.894   1.667  0.5616  1.6821 -1.0097
  310SOL     OW  928   2.465   1.558   3.083 -0.1260  0.1606 -0.3554
  310SOL    HW1  929   2.430   1.638   0.035 -1.5514  0.8971  2.6791
  310SOL    HW2  930   2.492   1.586   2.990  2.5208  0.0026  2.2420
  311SOL     OW  931   2.269   1.223   2.963 -0.0019 -0.5983  0.3734
  311SOL    HW1  932   2.346   1.238   3.032  1.0062  1.6940  2.0200
  311SOL    HW2  933   2.215   1.309   2.951 -1.0060 -0.2340  3.7456
  312SOL     OW  934   1.241   2.297   1.491  0.2604  0.7854 -0.4008
  312SOL    HW1  935   1.332   2.342   1.510 -1.4850 -1.7633 -1.7977
  312SOL    HW2  936   1.192   2.276   1.582 -0.8783 -1.3816  1.8821
  313SOL     OW  937   0.375   2.711   1.033  0.9998  0.0447 -0.2756
  313SOL    HW1  938   0.289   2.742   1.084 -0.6266  0.4135 -2.2722
  313SOL    HW2  939   0.355   2.616   1.000 -0.9427  0.5290  0.4821
  314SOL     OW  940   0.908   1.705   1.413 -0.6804 -0.0327 -0.1341
  314SOL    HW1  941   0.819   1.710   1.355 -0.3647  2.3162  0.4707
  314SOL    HW2  942   0.894   1.743   1.507 -0.4390 -0.1243 -2.2660
  315SOL     OW  943   0.423   2.850   2.415 -0.3205 -0.5566 -0.1762
  315SOL    HW1  944   0.366   2.912   2.472 -1.2319  0.6643 -0.5940
  315SOL    HW2  945   0.381   2.837   2.318 -0.9934 -0.5104 -0.7289
  316SOL     OW  946   3.067   2.393   1.103 -0.1691  0.4622 -0.6594
  316SOL    HW1  947   3.060   2.424   1.006 -1.9118  1.2302  0.2662
  316SOL    HW2  948   0.060   2.412   1.134 -0.0970  0.8760  1.0604
  317SOL     OW  949   1.825   0.662   0.391  0.0226 -0.7812  0.0376
  317SOL    HW1  950   1.844   0.574   0.347 -1.4688  1.4956  0.8644
  317SOL    HW2  951   1.913   0.696   0.426  0.0612 -2.9738 -0.4268
  318SOL     OW  952   2.913   2.512   0.109 -0.2027  0.2482  0.0015
  318SOL    HW1  953   2.844   2.583   0.082  1.5897 -0.4824 -0.6633
  318SOL    HW2  954   2.978   2.538   0.186 -0.7705  0.5897 -0.6137
  319SOL     OW  955   1.493   1.468   0.222  0.1985  0.9974 -0.0321
  319SOL    HW1  956   1.523   1.428   0.313  0.6324 -0.9934 -0.1512
  319SOL    HW2  957   1.512   1.568   0.217 -1.6303 -0.5579  0.5543
  320SOL     OW  958   0.658   2.410   2.620 -0.5611  0.4549 -0.1970
  320SOL    HW1  959   0.602   2.398   2.536  0.5557 -1.8608  0.6242
  320SOL    HW2  960   0.600   2.407   2.707 -0.0671  1.3378  1.5955
  321SOL     OW  961   1.049   2.986   0.313 -0.4844  0.3296  0.0518
  321SOL    HW1  962   1.007   2.916   0.377 -0.4565 -0.1072  1.1174
  321SOL    HW2  963   1.142   2.956   0.284  1.4684 -3.3483 -1.3592
  322SOL     OW  964   2.173   0.930   2.206  0.4260  0.1432 -0.4429
  322SOL    HW1  965   2.081   0.914   2.242 -0.1916  2.2860  2.1828
  322SOL    HW2  966   2.248   0.928   2.274 -2.4925  0.2403  1.0570
  323SOL     OW  967   3.014   0.717   0.477  0.5730  0.9196 -0.1212
  323SOL    HW1  968   3.095   0.664   0.509  1.0382 -0.4362 -0.3199
  323SOL    HW2  969   3.016   0.814   0.517 -0.3100  2.4574 -3.6006
  324SOL     OW  970   3.093   0.295   2.646  0.3548 -0.2480 -0.5052
  324SOL    HW1  971   3.053   0.365   2.585 -0.3309 -0.4802  0.6896
  324SOL    HW2  972   0.056   0.343   2.707 -0.4150  1.0917  2.0965
  325SOL     OW  973   0.818   3.036   2.418  0.1012  0.7358 -0.6119
  325SOL    HW1  974   0.863   0.010   2.368 -0.3828 -1.5077  1.8902
  325SOL    HW2  975   0.804   3.057   2.512 -1.6422  0.4944 -0.4646
  326SOL     OW  976   2.585   2.766   1.125  0.2084 -0.4401 -0.1356
  326SOL    HW1  977   2.526   2.771   1.043  0.5220  0.3205 -1.4296
  326SOL    HW2  978   2.660   2.837   1.128 -1.1125  1.9168  3.5824
  327SOL     OW  979   1.717   0.864   0.234 -0.3147 -0.0767  0.0388
  327SOL    HW1  980   1.755   0.800   0.304  0.8145 -0.0293 -1.6709
  327SOL    HW2  981   1.643   0.926   0.270  0.1727  1.6808  2.0026
  328SOL     OW  982   2.876   1.695   2.002  0.1624  0.4221  0.1656
  328SOL    HW1  983   2.903   1.690   2.099 -0.5484  1.6453  3.0064
  328SOL    HW2  984   2.848   1.791   1.979  0.4622 -1.2287 -1.2909
  329SOL     OW  985   2.252   2.746   1.820 -0.0403 -0.4244 -0.0951
  329SOL    HW1  986   2.298   2.662   1.780 -0.4976 -0.6428 -0.9477
  329SOL    HW2  987   2.149   2.751   1.797 -0.9274 -0.6562 -0.1190
  330SOL     OW  988   2.359   1.702   1.954  0.2254 -0.3120  0.3412
  330SOL    HW1  989   2.378   1.608   1.986 -3.2165  0.5871 -0.5040
  330SOL    HW2  990   2.440   1.743   1.911  0.5261 -1.1301  0.2700
  331SOL     OW  991   2.800   2.201   1.123 -0.2877  0.2963  0.7555
  331SOL    HW1  992   2.892   2.244   1.102  0.1679  3.9555  0.3653
  331SOL    HW2  993   2.744   2.180   1.038  0.2541  1.3228  0.1721
  332SOL     OW  994   0.893   2.725   0.208 -0.1208 -0.0003 -0.1485
  332SOL    HW1  995   0.802   2.697   0.167 -3.8297 -1.5001 -0.9573
  332SOL    HW2  996   0.883   2.751   0.305 -0.8665 -1.5980 -1.2371
  333SOL     OW  997   1.795   0.290   2.480  0.1243 -0.4054  0.4297
  333SOL    HW1  998   1.783   0.187   2.481  3.6703  1.8449  0.2221
  333SOL    HW2  999   1.891   0.311   2.442  1.7708  0.3732  1.2427
  334SOL     OW 1000   0.560   1.424   0.637  0.1035 -0.0004 -0.7832
  334SOL    HW1 1001   0.665   1.417   0.632  3.5489  0.2943 -0.4967
  334SOL    HW2 1002   0.523   1.399   0.546 -1.1509  0.9361  0.1193
  335SOL     OW 1003   0.054   2.967   2.146  0.2012 -0.1192 -0.2796
  335SOL    HW1 1004   0.028   3.013   2.233  1.1420 -1.4642  3.1890
  335SOL    HW2 1005   0.056   3.032   2.066 -0.7822 -0.2218 -0.3188
  336SOL     OW 1006   2.674   0.135   1.974  0.4074  0.1627  0.2796
  336SOL    HW1 1007   2.638   0.115   2.070  1.3937  1.6358 -0.4916
  336SOL    HW2 1008   2.739   0.215   1.971 -0.7926  1.6056 -0.2541
  337SOL     OW 1009   1.786   1.516   0.746  0.0137  0.2107  0.1898
  337SOL    HW1 1010   1.836   1.476   0.826 -1.3705 -0.2349 -1.0372
  337SOL    HW2 1011   1.826   1.472   0.664  0.8173  0.6771  0.4160
  338SOL     OW 1012   0.950   1.741   0.862  0.2993 -0.4492 -0.3082
  338SOL    HW1 1013   0.911   1.658   0.908 -0.2064  0.4139 -0.3533
  338SOL    HW2 1014   0.927   1.827   0.915  0.0161  4.6291  1.9123
  339SOL     OW 1015   2.981   1.040   1.046  0.1326  0.3919 -0.0928
  339SOL    HW1 1016   3.071   1.059   1.089  2.1708 -4.2531  0.8762
  339SOL    HW2 1017   2.935   0.966   1.103  0.0150  0.3156  0.7328
  340SOL     OW 1018   1.562   2.697   2.115 -0.1631 -0.2181 -0.6182
  340SOL    HW1 1019   1.539   2.676   2.215  2.8030 -1.4031  0.1600
  340SOL    HW2 1020   1.658   2.727   2.109 -0.8025 -0.7048 -2.2730
  341SOL     OW 1021   2.156   1.483   0.778  0.6774  0.6549  0.0463
  341SOL    HW1 1022   2.241   1.437   0.802 -1.0926 -2.5546 -0.1375
  341SOL    HW2 1023   2.080   1.465   0.846 -0.7815  0.5373 -0.5810
  342SOL     OW 1024   2.958   1.362   0.737 -0.0899 -0.1959  0.1181
  342SOL    HW1 1025   2.964   1.267   0.772  0.6174 -1.9282 -1.2405
  342SOL    HW2 1026   2.889   1.384   0.667 -2.3341 -1.3025  0.9242
  343SOL     OW 1027   2.445   1.289   1.838 -0.1884  0.0718 -0.0748
  343SOL    HW1 1028   2.440   1.191   1.864  2.0776 -0.2705  1.3939
  343SOL    HW2 1029   2.536   1.308   1.804 -0.8546 -0.3306 -0.4275
  344SOL     OW 1030   1.999   0.677   1.100  0.1295  0.4462 -0.4133
  344SOL    HW1 1031   1.899   0.666   1.116  0.5876 -0.4920  2.2917
  344SOL    HW2 1032   2.036   0.766   1.127 -2.9923  0.6818 -0.3407
  345SOL     OW 1033   0.160   3.023   2.691 -0.0339 -0.6819 -0.6117
  345SOL    HW1 1034   0.192   2.930   2.712  0.2957 -0.3846 -1.2939
  345SOL    HW2 1035   0.221   3.074   2.625 -0.6448 -1.2124 -1.6887
  346SOL     OW 1036   2.695   1.483   0.124 -0.1693  0.0441 -0.4647
  346SOL    HW1 1037   2.660   1.545   0.199 -1.7260  0.6046  2.7478
  346SOL    HW2 1038   2.629   1.462   0.048 -1.4082 -0.8032 -0.9045
  347SOL     OW 1039   1.973   2.718   1.791  0.4278  0.1889 -0.3601
  347SOL    HW1 1040   1.928   2.627   1.781 -2.5607  0.2946 -0.6230
  347SOL    HW2 1041   1.937   2.781   1.720  0.6085 -1.2876 -0.7569
  348SOL     OW 1042   0.952   1.274   1.715  0.4271 -0.0303  0.5205
  348SOL    HW1 1043   1.004   1.358   1.718 -4.1292 -2.2314 -0.3672
  348SOL    HW2 1044   0.872   1.295   1.655  0.8484  2.5851 -2.0659
  349SOL     OW 1045   2.200   1.178   2.105 -0.2770  0.0001  0.3347
  349SOL    HW1 1046   2.161   1.093   2.150 -0.3190 -3.5721 -1.5885
  349SOL    HW2 1047   2.266   1.231   2.165  0.3326 -0.3681 -1.2002
  350SOL     OW 1048   2.521   2.265   0.453 -0.1722 -0.4583 -0.1148
  350SOL    HW1 1049   2.530   2.326   0.374  1.0934 -0.3688  0.3031
  350SOL    HW2 1050   2.531   2.328   0.535  0.1898  2.5714  0.0773
  351SOL     OW 1051   0.362   0.200   1.676  0.1574 -0.5464 -0.2263
  351SOL    HW1 1052   0.366   0.254   1.763 -0.0350 -0.7514  0.2912
  351SOL    HW2 1053   0.307   0.247   1.605 -1.0118 -0.1939  0.1025
  352SOL     OW 1054   1.348   2.483   1.676 -0.2320 -0.0816  0.0433
  352SOL    HW1 1055   1.347   2.577   1.716 -0.6439 -3.0166 -1.1678
  352SOL    HW2 1056   1.259   2.435   1.690  0.4007 -0.4566 -0.1812
  353SOL     OW 1057   0.930   1.205   2.447  0.0567  0.4175 -0.5928
  353SOL    HW1 1058   0.887   1.187   2.537  0.2644  0.2031 -0.5261
  353SOL    HW2 1059   0.952   1.115   2.404 -0.3061  2.2572 -0.5556
  354SOL     OW 1060   1.423   1.652   0.535  0.0649  0.1549 -0.2862
  354SOL    HW1 1061   1.340   1.649   0.475 -0.6923 -1.5940 -0.2578
  354SOL    HW2 1062   1.491   1.581   0.495 -1.2384  0.0173 -0.3295
  355SOL     OW 1063   1.960   0.273   0.999 -0.7468 -0.1375 -0.2803
  355SOL    HW1 1064   1.977   0.173   0.976  1.8859 -1.9750  1.8909
  355SOL    HW2 1065   1.876   0.314   0.955 -0.4966  0.0515  0.7538
  356SOL     OW 1066   2.890   1.230   2.950  0.1682 -0.1143 -0.1689
  356SOL    HW1 1067   2.985   1.240   2.913  2.0039 -0.8655 -1.1805
  356SOL    HW2 1068   2.868   1.133   2.986 -0.3904 -3.0732 -1.2390
  357SOL     OW 1069   0.093   3.092   1.898  0.2605 -0.1258 -0.0457
  357SOL    HW1 1070   0.182   3.069   1.854 -0.3397 -0.2483 -0.7833
  357SOL    HW2 1071   0.020   3.081   1.829  1.4980 -1.2511 -0.1155
  358SOL     OW 1072   0.529   1.325   2.703  0.3717  0.5355  0.8632
  358SOL    HW1 1073   0.454   1.288   2.647  0.5961 -2.0763  1.0699
  358SOL    HW2 1074   0.581   1.403   2.659  0.2211 -0.2028  0.3985
  359SOL     OW 1075   2.769   2.795   2.466 -0.3888  0.0692  0.1550
  359SOL    HW1 1076   2.685   2.741   2.467 -0.5825  0.3562 -0.2072
  359SOL    HW2 1077   2.849   2.732   2.470 -2.9999  3.2843 -1.5576
  360SOL     OW 1078   1.572   1.211   1.270  0.0123  0.3638 -0.0551
  360SOL    HW1 1079   1.572   1.200   1.371  0.6217 -0.2085  2.4261
  360SOL    HW2 1080   1.545   1.306   1.242  1.8948  0.4829  2.2569
  361SOL     OW 1081   1.903   2.336   1.277 -0.2128  0.4402  0.0076
  361SOL    HW1 1082   1.874   2.248   1.325 -0.2370  0.4305  1.3276
  361SOL    HW2 1083   1.934   2.412   1.344 -1.1826  3.2007  0.7477
  362SOL     OW 1084   1.782   1.104   1.116 -0.0913 -0.4720  0.3903
  362SOL    HW1 1085   1.746   1.012   1.123  1.1186  1.2105  1.4897
  362SOL    HW2 1086   1.730   1.154   1.189 -1.2798 -0.9877  2.7435
  363SOL     OW 1087   2.223   2.335   0.632  0.4595 -0.1971  0.0136
  363SOL    HW1 1088   2.253   2.277   0.555  1.4640 -0.7330 -0.9787
  363SOL    HW2 1089   2.295   2.403   0.650  0.4611 -1.3890 -1.4100
  364SOL     OW 1090   0.181   0.253   1.111 -0.0034  0.0603  0.0113
  364SOL    HW1 1091   0.111   0.187   1.086 -2.2218 -0.6532 -1.0286
  364SOL    HW2 1092   0.274   0.230   1.083 -1.9952 -0.0660 -1.6335
  365SOL     OW 1093   0.487   2.807   0.657  0.1706 -0.0352  1.1239
  365SOL    HW1 1094   0.410   2.854   0.608 -1.3680 -0.1757  0.9418
  365SOL    HW2 1095   0.522   2.866   0.731  0.6134 -0.5802 -3.4709
  366SOL     OW 1096   0.176   1.491   0.309  0.1046  0.3446 -0.7740
  366SOL    HW1 1097   0.166   1.493   0.411  1.1279 -1.0321 -0.3043
  366SOL    HW2 1098   0.274   1.502   0.283  1.7550 -0.7961  0.1092
  367SOL     OW 1099   2.589   2.338   2.960 -0.0388 -0.1212 -0.3636
  367SOL    HW1 1100   2.662   2.294   3.017 -1.6558 -1.0077  2.3798
  367SOL    HW2 1101   2.582   2.314   2.864  0.7688 -0.2017  5.1428
  368SOL     OW 1102   2.579   1.744   0.918  0.3653  0.1848 -0.7308
  368SOL    HW1 1103   2.555   1.765   0.824 -0.3432 -5.3537  1.3153
  368SOL    HW2 1104   2.640   1.661   0.919  0.1585 -1.3804 -3.2212
  369SOL     OW 1105   1.184   1.070   0.340  0.1067 -0.0499 -0.4363
  369SOL    HW1 1106   1.170   1.169   0.356  1.4482 -1.7184 -1.5005
  369SOL    HW2 1107   1.250   1.034   0.410  0.5468 -2.8372  2.3819
  370SOL     OW 1108   0.484   2.934   0.907 -0.3547 -0.3601 -0.5298
  370SOL    HW1 1109   0.454   2.848   0.959  1.1140 -2.8441  1.2786
  370SOL    HW2 1110   0.578   2.969   0.936  0.2579  0.6576  0.4670
  371SOL     OW 1111   2.825   1.266   2.656  0.2676 -0.1750  0.5861
  371SOL    HW1 1112   2.785   1.346   2.603 -1.8236  3.0692 -1.2784
  371SOL    HW2 1113   2.871   1.299   2.740 -0.5732  1.0054 -0.0332
  372SOL     OW 1114   0.750   0.487   2.410  0.2435  0.3867  0.1161
  372SOL    HW1 1115   0.674   0.478   2.339  1.4052  0.7900 -2.7481
  372SOL    HW2 1116   0.718   0.458   2.504  1.3748 -0.2656 -0.7547
  373SOL     OW 1117   0.794   0.460   0.033  0.5026 -0.7306 -0.0722
  373SOL    HW1 1118   0.888   0.498   0.017 -0.2830 -0.5131 -1.8574
  373SOL    HW2 1119   0.808   0.384   0.095 -2.5431  1.5923  0.3419
  374SOL     OW 1120   1.133   2.069   0.059 -0.4582 -0.1905  0.4545
  374SOL    HW1 1121   1.223   2.113   0.031  0.6847  1.8105  2.1082
  374SOL    HW2 1122   1.150   1.970   0.089 -2.2523  2.4247  0.2562
  375SOL     OW 1123   0.892   2.853   1.566  0.5803  0.0898  0.0132
  375SOL    HW1 1124   0.884   2.763   1.524 -2.1702  1.9587 -0.2618
  375SOL    HW2 1125   0.803   2.908   1.550 -1.4348 -0.3306 -0.7900
  376SOL     OW 1126   0.318   2.623   1.966 -0.3442 -0.1837 -0.0660
  376SOL    HW1 1127   0.417   2.642   1.957 -3.1235 -0.7610 -1.3393
  376SOL    HW2 1128   0.304   2.525   1.987  0.8168  0.8767 -0.4485
  377SOL     OW 1129   2.475   1.956   3.094 -0.0950  0.1777  0.4913
  377SOL    HW1 1130   2.379   1.991   3.069 -2.2687 -1.8109  1.4320
  377SOL    HW2 1131   2.524   1.923   3.011 -1.4414  1.2537  0.4966
  378SOL     OW 1132   2.292   0.200   0.706 -0.1940  0.2300 -0.3035
  378SOL    HW1 1133   2.232   0.278   0.684 -3.7176  0.2561  1.5278
  378SOL    HW2 1134   2.394   0.225   0.719  1.1206  1.1130  1.0194
  379SOL     OW 1135   1.084   0.735   0.671  0.3107  0.7433 -0.0400
  379SOL    HW1 1136   1.121   0.774   0.585 -1.2969  1.4610  1.0410
  379SOL    HW2 1137   0.982   0.713   0.655 -0.8814  0.0037 -0.6802
  380SOL     OW 1138   2.596   2.324   2.068 -0.5944 -0.2484  0.0179
  380SOL    HW1 1139   2.669   2.399   2.077  1.8259  2.2362  1.0064
  380SOL    HW2 1140   2.563   2.324   1.970 -0.5711  0.6671  1.5231
  381SOL     OW 1141   2.663   1.511   1.924  0.5704  0.1547 -0.1708
  381SOL    HW1 1142   2.742   1.569   1.944 -4.6345  1.6302  0.3420
  381SOL    HW2 1143   2.585   1.545   1.980 -0.2262  1.1507  0.9972
  382SOL     OW 1144   2.983   2.142   2.923  0.4380 -0.0005  0.1516
  382SOL    HW1 1145   2.926   2.202   2.983  1.4322 -1.5880 -1.4898
  382SOL    HW2 1146   2.958   2.048   2.944 -0.4794  1.2397  0.0104
  383SOL     OW 1147   1.372   0.786   2.586  0.7810  0.0985  0.2414
  383SOL    HW1 1148   1.322   0.857   2.640 -0.1729  0.8442 -1.5828
  383SOL    HW2 1149   1.386   0.819   2.492  0.7830  1.7724  0.5513
  384SOL     OW 1150   1.232   2.107   2.132  0.5092 -0.0874  0.1001
  384SOL    HW1 1151   1.231   2.202   2.100  1.7168  0.4477  2.0028
  384SOL    HW2 1152   1.151   2.082   2.188 -0.8617  1.1122 -2.1014
  385SOL     OW 1153   2.730   2.716   0.038  0.0935 -0.3499 -0.4444
  385SOL    HW1 1154   2.640   2.702   0.084 -1.7117  1.5266 -1.0473
  385SOL    HW2 1155   2.787   2.791   0.081  0.6204 -3.5310  0.3702
  386SOL     OW 1156   1.616   1.238   0.784 -0.0668  0.1401 -0.0892
  386SOL    HW1 1157   1.514   1.248   0.794 -0.5710  2.2537 -2.6868
  386SOL    HW2 1158   1.660   1.194   0.862 -2.1782  1.3036 -1.2684
  387SOL     OW 1159   3.066   1.847   1.698 -0.2939  0.8701 -0.1221
  387SOL    HW1 1160   0.023   1.911   1.749 -0.6118 -1.9193  0.9161
  387SOL    HW2 1161   3.017   1.894   1.622  0.2297 -2.4110  0.3576
  388SOL     OW 1162   0.436   1.179   1.403 -0.6340 -0.2970  0.0702
  388SOL    HW1 1163   0.474   1.155   1.498 -1.1391 -0.4859  2.9574
  388SOL    HW2 1164   0.468   1.115   1.331  0.5504  1.4159  1.3011
  389SOL     OW 1165   2.069   1.017   2.592  0.0566 -0.2404 -0.2976
  389SOL    HW1 1166   2.118   0.934   2.633  1.5554 -0.0971  1.5790
  389SOL    HW2 1167   2.004   1.055   2.655  1.5261 -1.5214 -1.9879
  390SOL     OW 1168   0.894   1.656   0.076  0.3974 -0.4253  0.2285
  390SOL    HW1 1169   0.850   1.721   0.139  2.1512  0.0534 -1.5003
  390SOL    HW2 1170   0.857   1.662   3.082 -0.2877  2.3615  0.8747
  391SOL     OW 1171   1.181   1.667   0.388 -0.0846  0.2817 -0.4404
  391SOL    HW1 1172   1.099   1.723   0.421  0.6647  1.1763  0.5176
  391SOL    HW2 1173   1.189   1.690   0.290 -1.6269 -0.3842  2.4263
  392SOL     OW 1174   2.559   2.936   2.276  0.3831  0.0032  0.0340
  392SOL    HW1 1175   2.599   2.872   2.207 -2.9140 -0.0204  1.0500
  392SOL    HW2 1176   2.578   2.900   2.365  2.9867  0.7286 -0.2184
  393SOL     OW 1177   1.564   2.085   0.109 -0.0792 -0.0250  0.4424
  393SOL    HW1 1178   1.518   2.012   0.163  3.5937 -2.6021 -0.4709
  393SOL    HW2 1179   1.495   2.133   0.056  0.8355 -2.3865 -0.6986
  394SOL     OW 1180   0.660   0.189   2.335  0.3784  0.1715  0.0736
  394SOL    HW1 1181   0.744   0.238   2.315 -2.5287 -1.0722 -0.3722
  394SOL    HW2 1182   0.658   0.107   2.273 -0.1213  1.2993 -0.6780
  395SOL     OW 1183   0.178   1.581   1.315  0.5151 -0.2593  0.5046
  395SOL    HW1 1184   0.157   1.611   1.409 -0.5136  1.0997 -2.1773
  395SOL    HW2 1185   0.093   1.570   1.259 -1.2680 -0.7779  1.6438
  396SOL     OW 1186   2.073   1.426   2.919  0.1288 -0.2912  0.6818
  396SOL    HW1 1187   2.050   1.447   2.821  0.9714  2.3390 -2.3146
  396SOL    HW2 1188   2.046   1.501   2.982 -0.5994 -0.4499 -0.7691
  397SOL     OW 1189   0.426   0.686   2.808 -0.1651 -0.3893 -0.1561
  397SOL    HW1 1190   0.514   0.654   2.770  0.6905  0.2242  1.6524
  397SOL    HW2 1191   0.382   0.766   2.752  0.6865 -0.0590  3.2367
  398SOL     OW 1192   1.114   2.465   0.312  0.3445 -0.4665 -0.0221
  398SOL    HW1 1193   1.210   2.453   0.338 -1.3148  0.4391  0.7994
  398SOL    HW2 1194   1.092   2.565   0.300 -0.8860  0.6794 -0.5771
  399SOL     OW 1195   1.857   2.371   2.293  0.3117  0.6667  0.3748
  399SOL    HW1 1196   1.870   2.428   2.379 -1.1017  0.5901  1.2270
  399SOL    HW2 1197   1.858   2.425   2.206 -1.7159  0.6738 -4.1464
  400SOL     OW 1198   0.013   1.073   1.919 -0.1390  0.8031 -0.8546
  400SOL    HW1 1199   3.071   1.162   1.919  2.2073 -0.5910 -1.2017
  400SOL    HW2 1200   0.109   1.084   1.899 -1.8312  0.6367  1.3020
  401SOL     OW 1201   0.806   0.728   0.648 -0.1394 -0.7484  0.2337
  401SOL    HW1 1202   0.747   0.678   0.588 -3.3931  1.9559  3.5385
  401SOL    HW2 1203   0.795   0.827   0.635  0.8372 -0.8974 -0.6284
  402SOL     OW 1204   0.790   3.050   2.693 -0.0259 -0.1909 -0.0127
  402SOL    HW1 1205   0.769   0.034   2.744 -2.8624  0.9834 -0.1898
  402SOL    HW2 1206   0.858   2.996   2.750 -0.9906  1.0469 -0.3321
  403SOL     OW 1207   2.571   1.786   1.762  0.2107 -0.0738 -0.1967
  403SOL    HW1 1208   2.640   1.838   1.813  0.4144 -2.5939 -1.0441
  403SOL    HW2 1209   2.616   1.711   1.718 -0.0496 -0.7124 -0.7576
  404SOL     OW 1210   2.562   2.431   1.539 -0.1822 -0.1959  0.1828
  404SOL    HW1 1211   2.603   2.527   1.540  2.6911 -1.4936 -0.7882
  404SOL    HW2 1212   2.587   2.377   1.459 -0.9410  0.1038 -0.4049
  405SOL     OW 1213   1.901   0.290   2.867 -0.3166 -0.4775  0.0773
  405SOL    HW1 1214   1.949   0.220   2.811  2.6732  2.4563  0.6595
  405SOL    HW2 1215   1.879   0.369   2.807  1.2774 -1.2117  1.3685
  406SOL     OW 1216   1.153   1.796   0.127  0.0634 -0.0046 -0.0577
  406SOL    HW1 1217   1.222   1.768   0.056 -0.5598 -2.3279 -0.1285
  406SOL    HW2 1218   1.062   1.763   0.108  0.5282 -2.3527  0.2310
  407SOL     OW 1219   1.835   1.761   0.640  0.8660  0.5384  0.0400
  407SOL    HW1 1220   1.796   1.686   0.698 -1.9499  1.9818 -1.0252
  407SOL    HW2 1221   1.806   1.846   0.681  0.7866  0.6669 -0.6313
  408SOL     OW 1222   0.045   0.439   1.485  0.0396 -0.1141 -0.1017
  408SOL    HW1 1223   0.123   0.477   1.429 -1.6552 -1.5080 -0.5661
  408SOL    HW2 1224   0.058   0.341   1.511  1.5426 -0.5257  1.7236
  409SOL     OW 1225   2.461   1.233   0.054 -0.3768  0.0609 -0.4453
  409SOL    HW1 1226   2.461   1.133   0.076  1.8033 -1.6061 -0.7601
  409SOL    HW2 1227   2.401   1.282   0.129 -1.9982  0.8607  0.2609
  410SOL     OW 1228   2.296   2.361   1.054 -0.0753 -0.4047  0.1321
  410SOL    HW1 1229   2.297   2.282   1.114 -0.7876  2.1328 -0.6631
  410SOL    HW2 1230   2.208   2.411   1.065  0.6283 -0.1479 -0.1791
  411SOL     OW 1231   0.293   0.025   0.311  0.0098  0.1794 -0.5108
  411SOL    HW1 1232   0.242   0.112   0.329 -0.8620  0.2084 -0.4717
  411SOL    HW2 1233   0.291   0.008   0.207 -2.0940  1.9226  0.8909
  412SOL     OW 1234   1.668   3.006   0.407 -0.3742 -0.9635 -0.1579
  412SOL    HW1 1235   1.684   0.003   0.439 -1.0823  2.0575  4.6773
  412SOL    HW2 1236   1.742   2.949   0.435  0.8826  0.8721  2.9684
  413SOL     OW 1237   1.833   0.469   2.117 -0.8375 -0.1456  0.2500
  413SOL    HW1 1238   1.877   0.524   2.193  2.1657 -0.0215 -0.1374
  413SOL    HW2 1239   1.738   0.453   2.144  0.7630  1.1608  2.3781
  414SOL     OW 1240   0.117   0.549   0.497 -0.1408 -0.1220 -0.3547
  414SOL    HW1 1241   0.136   0.468   0.437  0.4508  0.1392 -1.7249
  414SOL    HW2 1242   0.187   0.554   0.568 -0.6479  0.6960 -2.0988
  415SOL     OW 1243   2.980   0.976   0.551 -0.0795  0.4651  0.3220
  415SOL    HW1 1244   2.953   1.011   0.455 -0.9389  0.9214 -1.1539
  415SOL    HW2 1245   2.965   1.046   0.621 -3.9224 -2.3501  0.6206
  416SOL     OW 1246   0.089   0.598   2.894  0.4745  0.8044  0.1105
  416SOL    HW1 1247   0.159   0.539   2.850 -0.8625  0.9695  0.3198
  416SOL    HW2 1248   0.106   0.700   2.875  1.1772  2.2666  1.1448
  417SOL     OW 1249   2.559   0.191   1.022  0.9778 -0.2146  0.1573
  417SOL    HW1 1250   2.466   0.199   1.068  1.3701 -2.0513 -1.3919
  417SOL    HW2 1251   2.631   0.231   1.084 -1.1628  2.3486  1.5802
  418SOL     OW 1252   0.901   2.851   2.854 -0.1123  0.0134  0.3761
  418SOL    HW1 1253   0.851   2.871   2.937 -0.5556 -1.7115  0.4134
  418SOL    HW2 1254   0.885   2.754   2.819 -1.0314  0.7278 -2.1863
  419SOL     OW 1255   0.424   0.926   0.783 -0.2753  0.4381  0.3914
  419SOL    HW1 1256   0.350   0.990   0.756 -0.5264 -2.4878  0.0775
  419SOL    HW2 1257   0.410   0.847   0.720 -4.1614 -0.6655 -2.6679
  420SOL     OW 1258   2.929   1.187   1.456 -0.7315 -0.1947 -0.3065
  420SOL    HW1 1259   2.936   1.221   1.551  1.7211 -1.8112  0.7350
  420SOL    HW2 1260   2.971   1.091   1.444 -0.6202  1.0591 -0.6724
  421SOL     OW 1261   1.124   1.813   2.760  0.1237  0.1874 -0.4266
  421SOL    HW1 1262   1.115   1.788   2.862  0.6523 -2.0923  2.3210
  421SOL    HW2 1263   1.206   1.866   2.744 -2.6731 -2.7304 -0.9533
  422SOL     OW 1264   2.298   0.819   2.423 -0.2131 -0.0804 -0.0989
  422SOL    HW1 1265   2.268   0.802   2.517  0.2878  0.9163  2.4492
  422SOL    HW2 1266   2.291   0.732   2.365  0.9437 -0.5110 -0.4221
  423SOL     OW 1267   1.944   1.451   0.297  0.3849  0.4957 -0.0816
  423SOL    HW1 1268   2.003   1.515   0.245 -2.8369 -0.6903  0.0175
  423SOL    HW2 1269   1.857   1.434   0.246 -0.5283  0.4505  1.0739
  424SOL     OW 1270   0.825   0.812   1.757  0.0151  0.1494 -0.0327
  424SOL    HW1 1271   0.789   0.772   1.845  0.3061  0.3759 -1.9639
  424SOL    HW2 1272   0.889   0.893   1.773 -0.8528 -0.6551 -0.4584
  425SOL     OW 1273   2.988   2.737   2.135 -0.2777  0.0219 -0.0080
  425SOL    HW1 1274   2.944   2.752   2.045  1.6468  0.0970  1.8237
  425SOL    HW2 1275   3.053   2.813   2.149  0.6263  0.7547 -0.6924
  426SOL     OW 1276   2.427   2.695   0.408 -0.1958 -0.4293 -0.8309
  426SOL    HW1 1277   2.508   2.689   0.471 -1.6005 -0.0613  2.5658
  426SOL    HW2 1278   2.347   2.708   0.468 -0.0021  0.6815  1.4569
  427SOL     OW 1279   0.709   0.660   2.764  0.0343 -0.4212  0.3744
  427SOL    HW1 1280   0.734   0.712   2.684 -0.9273 -1.0969  3.9385
  427SOL    HW2 1281   0.760   0.696   2.842 -4.1052  0.7120 -0.5864
  428SOL     OW 1282   2.629   1.355   2.947 -0.0400  0.1485  0.1008
  428SOL    HW1 1283   2.566   1.308   3.014 -0.3062 -1.6797  1.8759
  428SOL    HW2 1284   2.717   1.301   2.954  1.1292 -3.5489  0.9123
  429SOL     OW 1285   2.557   0.405   0.343 -0.8044 -0.4510 -0.2103
  429SOL    HW1 1286   2.585   0.417   0.441  0.4315  0.9313  2.6904
  429SOL    HW2 1287   2.473   0.456   0.321  1.4302  1.4383 -0.6616
  430SOL     OW 1288   1.248   2.352   2.032  0.7274 -0.2954  0.2654
  430SOL    HW1 1289   1.333   2.358   1.976  0.4423  2.0805 -0.0461
  430SOL    HW2 1290   1.246   2.429   2.101 -0.9564 -0.6620 -4.8444
  431SOL     OW 1291   0.095   2.130   1.514 -0.2016 -0.0359  0.0472
  431SOL    HW1 1292   0.006   2.105   1.469 -1.1237  1.3313 -0.0543
  431SOL    HW2 1293   0.112   2.093   1.605  1.7706 -0.2661 -1.2825
  432SOL     OW 1294   1.843   2.826   2.110 -0.4194 -0.1123 -0.5580
  432SOL    HW1 1295   1.944   2.813   2.116  1.4887  2.0436 -2.3782
  432SOL    HW2 1296   1.809   2.895   2.179 -4.4225  0.0186  0.9607
  433SOL     OW 1297   1.024   2.024   0.355 -0.2281  0.2545 -0.1307
  433SOL    HW1 1298   0.990   2.003   0.259 -0.7551  0.6722  0.5361
  433SOL    HW2 1299   1.010   1.945   0.418  2.0909 -0.6798 -0.9210
  434SOL     OW 1300   0.312   2.012   2.715 -0.0693  0.4652 -0.1615
  434SOL    HW1 1301   0.411   2.022   2.732 -0.5657 -0.8725 -0.9068
  434SOL    HW2 1302   0.251   2.019   2.798  1.8798 -0.0242  1.7431
  435SOL     OW 1303   0.225   0.852   0.397 -0.2124 -0.0268  1.0215
  435SOL    HW1 1304   0.185   0.937   0.353  0.0435  1.8090  1.0660
  435SOL    HW2 1305   0.227   0.780   0.321 -0.4813 -1.6506 -2.2403
  436SOL     OW 1306   0.560   2.602   1.637  0.3979 -0.5072 -0.3968
  436SOL    HW1 1307   0.495   2.677   1.614  1.4967  2.3508 -2.0530
  436SOL    HW2 1308   0.595   2.621   1.734  3.3435  1.1627  3.5176
  437SOL     OW 1309   0.842   0.069   0.656  0.2005  0.2955 -0.2177
  437SOL    HW1 1310   0.912   0.138   0.645 -0.4099 -0.8430  2.1968
  437SOL    HW2 1311   0.751   0.102   0.686 -0.5435  0.2832 -0.0812
  438SOL     OW 1312   0.281   2.231   0.653 -0.0684 -0.3290 -0.2630
  438SOL    HW1 1313   0.363   2.274   0.618  1.0354  0.2633  1.3717
  438SOL    HW2 1314   0.292   2.144   0.700 -0.4104  1.0720 -3.8299
  439SOL     OW 1315   0.880   2.394   1.745  0.0267  0.2442 -0.0690
  439SOL    HW1 1316   0.795   2.339   1.765 -0.4747 -2.7806  2.0770
  439SOL    HW2 1317   0.864   2.435   1.653 -0.0767  0.0494 -0.0275
  440SOL     OW 1318   1.933   0.089   2.202 -0.0286 -0.2225 -0.2210
  440SOL    HW1 1319   1.972   0.088   2.105  0.9904 -0.0416 -0.0736
  440SOL    HW2 1320   1.850   0.035   2.214  1.1442 -0.7355 -2.7028
  441SOL     OW 1321   3.057   0.440   1.953 -0.3896  0.0276 -0.0709
  441SOL    HW1 1322   3.099   0.357   1.994 -1.3159  1.0952  0.2141
  441SOL    HW2 1323   0.017   0.484   1.884  1.5262  2.2349  2.6669
  442SOL     OW 1324   1.975   2.345   0.745 -0.0694  0.0013  0.0264
  442SOL    HW1 1325   2.065   2.380   0.714  1.1303  2.7551 -0.4771
  442SOL    HW2 1326   1.980   2.296   0.838 -2.3050 -1.5139 -0.6508
  443SOL     OW 1327   2.797   0.872   2.335  0.2031 -0.2476 -0.2465
  443SOL    HW1 1328   2.860   0.831   2.403 -0.1346 -1.7544 -2.1252
  443SOL    HW2 1329   2.841   0.948   2.284  2.6255 -0.9730  0.2159
  444SOL     OW 1330   1.693   0.968   2.216 -0.2432  0.0432  0.0643
  444SOL    HW1 1331   1.642   1.005   2.135  0.5006  0.2806 -0.8481
  444SOL    HW2 1332   1.649   1.006   2.298 -1.5670 -0.4705 -1.9293
  445SOL     OW 1333   2.909   2.507   1.284 -0.4393  0.3162 -0.0741
  445SOL    HW1 1334   2.916   2.610   1.284  0.4225 -0.2723  0.0269
  445SOL    HW2 1335   2.974   2.461   1.223 -0.1633  1.8933 -1.7144
  446SOL     OW 1336   2.745   1.486   1.172 -0.4639 -0.5008 -0.5212
  446SOL    HW1 1337   2.768   1.559   1.237 -0.3286 -0.6485 -2.0380
  446SOL    HW2 1338   2.820   1.416   1.179 -1.5245  0.8061 -1.7736
  447SOL     OW 1339   0.541   1.235   0.846  0.2181 -0.0563  0.2975
  447SOL    HW1 1340   0.613   1.166   0.821  0.0486  0.1775  0.0586
  447SOL    HW2 1341   0.552   1.318   0.787 -0.8689  0.4431 -1.4435
  448SOL     OW 1342   1.354   1.635   2.067 -0.2221  0.3181 -0.2476
  448SOL    HW1 1343   1.290   1.663   1.995  0.1428 -1.5996 -1.9421
  448SOL    HW2 1344   1.393   1.544   2.051 -0.0007  1.0201 -2.6778
  449SOL     OW 1345   1.262   1.356   0.174 -0.0177  0.1258 -0.0161
  449SOL    HW1 1346   1.339   1.418   0.175 -1.4451 -0.1133  2.5878
  449SOL    HW2 1347   1.286   1.265   0.144 -0.0499 -1.6824  0.4015
  450SOL     OW 1348   2.804   2.544   2.167  0.0977 -0.3529 -0.0291
  450SOL    HW1 1349   2.892   2.597   2.153 -0.9672  0.6544  0.6412
  450SOL    HW2 1350   2.730   2.612   2.158 -0.5267 -0.1983  2.1434
  451SOL     OW 1351   2.316   0.314   2.389 -0.2993 -0.3577 -0.3309
  451SOL    HW1 1352   2.343   0.273   2.298  2.6762 -0.7281 -0.6581
  451SOL    HW2 1353   2.329   0.244   2.462  0.2813 -1.1683 -1.4561
  452SOL     OW 1354   1.673   0.208   1.092 -0.6355 -0.0125  0.4896
  452SOL    HW1 1355   1.578   0.244   1.077 -1.9087 -1.0423  0.1348
  452SOL    HW2 1356   1.694   0.215   1.192 -0.0900  0.1819  1.3693
  453SOL     OW 1357   1.690   0.782   1.466 -0.2686  0.0797 -0.0629
  453SOL    HW1 1358   1.726   0.689   1.455  0.7892 -0.6469 -1.8438
  453SOL    HW2 1359   1.758   0.857   1.473 -0.2643  1.0152  0.9156
  454SOL     OW 1360   3.008   1.520   0.470  0.4007 -0.0365 -0.2694
  454SOL    HW1 1361   3.100   1.502   0.505 -3.0956 -1.7407  0.9383
  454SOL    HW2 1362   2.957   1.567   0.545  0.4080  3.2197 -0.4988
  455SOL     OW 1363   3.004   0.120   0.586  0.5574  0.0522  0.0200
  455SOL    HW1 1364   2.996   0.207   0.536 -1.5792 -2.5187 -1.0888
  455SOL    HW2 1365   2.941   0.052   0.545  0.3604  0.9498  0.3297
  456SOL     OW 1366   0.140   2.721   1.211  0.4503  0.6363 -0.3958
  456SOL    HW1 1367   0.043   2.751   1.217 -0.6904 -1.7444  0.6883
  456SOL    HW2 1368   0.175   2.663   1.289 -0.1429 -0.3487  1.2502
  457SOL     OW 1369   1.295   0.078   0.644 -0.5552  0.7323  0.5030
  457SOL    HW1 1370   1.228   0.033   0.704  0.5586  1.6549  0.4934
  457SOL    HW2 1371   1.340   0.153   0.699  2.2636 -0.8654 -1.4765
  458SOL     OW 1372   2.557   0.221   0.745  0.1422 -0.2564 -0.6157
  458SOL    HW1 1373   2.558   0.222   0.848 -1.4834 -4.2762  1.6472
  458SOL    HW2 1374   2.592   0.132   0.710 -0.5030  2.6646  1.3934
  459SOL     OW 1375   2.351   0.560   2.714 -0.2743 -0.5269 -0.0884
  459SOL    HW1 1376   2.403   0.517   2.636 -2.2934  0.7021  0.1958
  459SOL    HW2 1377   2.378   0.511   2.799 -1.7658  1.3702 -1.0165
  460SOL     OW 1378   3.003   2.927   2.912 -0.0941 -0.1340 -0.7072
  460SOL    HW1 1379   3.027   3.003   2.855 -1.5029 -1.9176  1.4181
  460SOL    HW2 1380   3.065   2.907   2.992  2.8234 -0.3029  0.0939
  461SOL     OW 1381   0.985   1.810   0.514  0.0201 -0.4628  0.0059
  461SOL    HW1 1382   1.049   1.821   0.594  2.2401  1.6838 -2.0985
  461SOL    HW2 1383   0.887   1.831   0.537  1.2164 -1.2253  1.1207
  462SOL     OW 1384   2.354   2.150   1.209  0.0889 -0.3269  0.0190
  462SOL    HW1 1385   2.274   2.110   1.257  0.6542  2.3264  0.3766
  462SOL    HW2 1386   2.400   2.079   1.148  0.2117 -1.4396  0.5960
  463SOL     OW 1387   2.549   0.930   0.551 -0.3757  0.0609  0.3943
  463SOL    HW1 1388   2.506   0.997   0.490  1.2877  0.4944  1.1801
  463SOL    HW2 1389   2.616   0.870   0.512 -0.9652  3.9347  1.1067
  464SOL     OW 1390   0.315   0.035   1.402  0.3702 -0.0317 -0.1195
  464SOL    HW1 1391   0.353   0.056   1.306  0.2408  2.3179 -5.2510
  464SOL    HW2 1392   0.359   3.052   1.438  0.5073  3.5821 -0.3217
  465SOL     OW 1393   2.949   1.425   0.043  0.4830 -0.1721 -0.4718
  465SOL    HW1 1394   2.873   1.475   0.092 -2.8372  2.4167  2.1360
  465SOL    HW2 1395   2.913   1.360   3.073 -2.6934 -0.7985 -1.7296
  466SOL     OW 1396   1.668   0.185   2.865  0.6424  0.2435  0.1135
  466SOL    HW1 1397   1.766   0.219   2.880  4.3267  1.7990 -1.6845
  466SOL    HW2 1398   1.597   0.248   2.907 -0.2192  0.2299 -0.5076
  467SOL     OW 1399   0.900   0.474   1.541  0.1232 -0.4464  0.2239
  467SOL    HW1 1400   0.959   0.420   1.601 -3.2849 -0.0994 -1.2668
  467SOL    HW2 1401   0.923   0.571   1.554 -1.8291 -2.1977 -0.9075
  468SOL     OW 1402   0.591   0.980   2.604  0.1080  0.0688 -0.0460
  468SOL    HW1 1403   0.654   1.031   2.669 -2.0025 -1.1398 -0.1946
  468SOL    HW2 1404   0.640   0.909   2.552  1.0182 -0.2178  1.5918
  469SOL     OW 1405   0.082   2.179   0.081  0.1372 -0.0605  0.2601
  469SOL    HW1 1406   0.050   2.273   0.053 -1.3665 -1.6073  1.3757
  469SOL    HW2 1407   0.043   2.154   0.170  2.9764  0.5459 -2.0152
  470SOL     OW 1408   2.211   1.798   2.619  0.4572 -0.0322  0.0611
  470SOL    HW1 1409   2.290   1.731   2.622  1.6417 -0.3336  0.2044
  470SOL    HW2 1410   2.243   1.889   2.649  0.8901 -2.3877  1.0973
  471SOL     OW 1411   2.577   1.176   2.262  0.3238 -0.0609  0.3506
  471SOL    HW1 1412   2.569   1.094   2.329 -1.3311  0.8281  2.6099
  471SOL    HW2 1413   2.646   1.177   2.185  1.8525 -1.0790 -0.6807
  472SOL     OW 1414   0.584   2.634   0.468 -0.2933 -0.2691  0.3208
  472SOL    HW1 1415   0.510   2.650   0.400  0.4989  2.5062 -0.1491
  472SOL    HW2 1416   0.577   2.700   0.546 -0.1058 -1.1991 -0.3604
  473SOL     OW 1417   0.609   3.084   2.978  0.4580 -0.5718 -0.3170
  473SOL    HW1 1418   0.668   3.030   3.042 -2.2255  0.8656 -1.0050
  473SOL    HW2 1419   0.658   0.052   2.930 -2.4568 -2.7384 -2.5341
  474SOL     OW 1420   1.750   0.029   2.474 -0.0932  0.3131 -0.5486
  474SOL    HW1 1421   1.691   0.001   2.556 -1.1144 -0.2510 -0.7572
  474SOL    HW2 1422   1.718   3.079   2.394  2.1103 -0.4524  2.0712
  475SOL     OW 1423   1.717   2.347   0.392 -0.1786 -0.2306 -0.2797
  475SOL    HW1 1424   1.763   2.273   0.447  0.1238 -0.4585  3.1888
  475SOL    HW2 1425   1.767   2.379   0.315 -1.2410  0.9097  0.0951
  476SOL     OW 1426   0.135   0.476   0.942 -0.0055  0.3551 -0.4283
  476SOL    HW1 1427   0.066   0.537   0.985  0.3637 -0.6251 -0.5543
  476SOL    HW2 1428   0.152   0.393   1.000 -0.4799  1.4775 -1.0756
  477SOL     OW 1429   1.503   2.219   0.746 -0.1767  0.4907 -0.0155
  477SOL    HW1 1430   1.573   2.138   0.750  0.4762 -1.0994 -1.5717
  477SOL    HW2 1431   1.407   2.185   0.723 -1.1191 -0.9340  0.1056
  478SOL     OW 1432   0.217   2.301   2.344 -0.2893  0.1829 -0.4944
  478SOL    HW1 1433   0.199   2.201   2.336  0.4853  0.9643 -1.0552
  478SOL    HW2 1434   0.213   2.356   2.258  2.7225  0.2180  0.9102
  479SOL     OW 1435   2.384   0.580   0.830  0.6618 -0.6474 -0.4128
  479SOL    HW1 1436   2.472   0.619   0.794 -0.8362 -0.4529 -2.2692
  479SOL    HW2 1437   2.394   0.559   0.926 -1.5974  2.7336 -2.3135
  480SOL     OW 1438   0.034   2.905   0.188 -0.3445 -0.1886 -0.2512
  480SOL    HW1 1439   0.062   3.000   0.212  1.1251  0.4438  1.9125
  480SOL    HW2 1440   0.083   2.859   0.110 -0.6131  0.9985 -1.6840
  481SOL     OW 1441   2.721   2.528   1.106  0.2756  0.8954 -0.2825
  481SOL    HW1 1442   2.781   2.496   1.183  0.4802 -2.3662  1.4947
  481SOL    HW2 1443   2.667   2.607   1.134  4.2092  0.9014 -1.7225
  482SOL     OW 1444   1.121   2.320   2.759  0.0652 -0.6152  0.1683
  482SOL    HW1 1445   1.221   2.297   2.757  3.7628 -0.3452 -0.2730
  482SOL    HW2 1446   1.094   2.393   2.700 -1.4034 -1.8545  0.8825
  483SOL     OW 1447   0.573   1.940   2.655  0.6756  0.3146  0.1801
  483SOL    HW1 1448   0.585   1.857   2.714  1.0705  2.3263 -1.2896
  483SOL    HW2 1449   0.647   2.005   2.662 -2.3250 -0.7806  2.5535
  484SOL     OW 1450   0.929   0.977   1.153 -0.8844 -0.4032  0.0736
  484SOL    HW1 1451   0.901   0.922   1.069 -1.7537 -0.9545 -1.9066
  484SOL    HW2 1452   1.015   0.938   1.192 -0.6458  3.0251 -0.7810
  485SOL     OW 1453   2.367   0.598   0.274 -0.6925  0.7681 -0.0798
  485SOL    HW1 1454   2.288   0.630   0.331  1.2119 -1.3875 -1.7251
  485SOL    HW2 1455   2.353   0.616   0.172  2.6372  0.8410 -1.6756
  486SOL     OW 1456   1.932   3.078   1.330 -0.0505  0.3709  0.0927
  486SOL    HW1 1457   1.830   3.093   1.325 -2.1987  1.0689  1.1848
  486SOL    HW2 1458   1.978   0.029   1.400 -0.4186 -2.0039 -0.2358
  487SOL     OW 1459   0.205   2.419   1.219  0.1207  0.0803  0.5327
  487SOL    HW1 1460   0.295   2.429   1.173 -0.4722 -0.2387  0.3673
  487SOL    HW2 1461   0.223   2.389   1.316 -2.5869  2.1798  1.2359
  488SOL     OW 1462   2.741   0.927   0.193  0.0386 -0.3642  0.1298
  488SOL    HW1 1463   2.656   0.980   0.166 -0.4511 -0.2217 -1.6698
  488SOL    HW2 1464   2.717   0.829   0.195 -2.7911  0.7039  0.6751
  489SOL     OW 1465   1.790   3.076   1.063  0.2004  0.8531 -0.1577
  489SOL    HW1 1466   1.885   3.067   1.030  0.3922  0.1087 -0.1349
  489SOL    HW2 1467   1.752   0.071   1.061  1.3215  2.9517  1.1676
  490SOL     OW 1468   0.951   0.494   0.479 -0.0051  0.1429 -0.5761
  490SOL    HW1 1469   0.854   0.532   0.492  1.0706 -0.6925 -0.0247
  490SOL    HW2 1470   1.011   0.570   0.444 -0.1529  0.6292 -1.9545
  491SOL     OW 1471   0.522   2.372   0.614  0.0259  0.6819 -0.5545
  491SOL    HW1 1472   0.593   2.375   0.539  1.9943  0.0141  2.1917
  491SOL    HW2 1473   0.504   2.461   0.651  0.4630 -2.2811 -0.2347
  492SOL     OW 1474   1.195   1.577   2.464 -0.5341 -0.1094  0.7576
  492SOL    HW1 1475   1.252   1.609   2.547  1.3051 -0.0644  0.5849
  492SOL    HW2 1476   1.186   1.656   2.395 -0.3837 -0.0238  1.8818
  493SOL     OW 1477   0.054   2.727   0.941 -0.2211 -0.1844 -0.1859
  493SOL    HW1 1478   3.093   2.648   0.925 -2.1460 -2.0222  0.6564
  493SOL    HW2 1479   0.090   2.737   1.037 -0.7906  0.9913 -1.2304
  494SOL     OW 1480   2.868   2.045   0.136 -0.1026  0.1707 -0.0876
  494SOL    HW1 1481   2.840   1.961   0.190 -1.3716 -2.2215  0.3925
  494SOL    HW2 1482   2.883   2.015   0.040 -0.7252 -1.0045  0.0051
  495SOL     OW 1483   2.697   1.823   2.844  0.5976  0.3478  0.5599
  495SOL    HW1 1484   2.645   1.892   2.787 -3.9299 -0.8911  0.8343
  495SOL    HW2 1485   2.667   1.729   2.816 -1.0457  1.2928 -2.8311
  496SOL     OW 1486   2.838   0.166   1.533 -0.1158  0.5442  0.0013
  496SOL    HW1 1487   2.852   0.201   1.439 -0.1304  0.8802 -0.6288
  496SOL    HW2 1488   2.791   0.233   1.588 -2.2864 -1.2909  0.1656
  497SOL     OW 1489   2.791   0.981   2.969  0.7453  0.3504  0.0907
  497SOL    HW1 1490   2.692   0.965   2.951 -1.1040 -1.6506  0.7050
  497SOL    HW2 1491   2.830   0.900   3.019  0.8427  0.1225  1.2655
  498SOL     OW 1492   0.096   1.986   2.210  0.1266 -0.0301  0.8859
  498SOL    HW1 1493   0.012   2.028   2.175 -0.8522  0.5161 -1.4625
  498SOL    HW2 1494   0.117   2.007   2.309 -0.5139 -0.2940  0.5028
  499SOL     OW 1495   0.985   2.132   2.913  0.4324  0.1604 -0.1165
  499SOL    HW1 1496   1.058   2.110   2.979 -1.3914  2.1072  0.0223
  499SOL    HW2 1497   1.027   2.181   2.836 -1.3577  1.4767  4.3973
  500SOL     OW 1498   1.615   3.040   0.086 -0.1869 -0.1023 -0.1319
  500SOL    HW1 1499   1.711   3.076   0.065  2.6194  1.7740 -3.0489
  500SOL    HW2 1500   1.566   0.004   0.147 -0.6040  0.7770 -0.6512
  501SOL     OW 1501   1.608   3.074   1.465  0.3241 -0.3920 -0.4377
  501SOL    HW1 1502   1.698   0.000   1.490 -3.7767  0.1559  0.3339
  501SOL    HW2 1503   1.533   0.029   1.512 -3.4968  2.0829  2.6314
  502SOL     OW 1504   2.651   0.734   2.140  0.1585  0.0897 -0.1005
  502SOL    HW1 1505   2.685   0.653   2.193 -0.0583 -0.1469 -1.0936
  502SOL    HW2 1506   2.681   0.818   2.190 -0.2196  2.5281 -0.2710
  503SOL     OW 1507   2.243   2.238   2.221  0.1616 -0.0147  0.1568
  503SOL    HW1 1508   2.228   2.243   2.324  1.2635  0.8145  0.7125
  503SOL    HW2 1509   2.197   2.319   2.178 -0.5806  1.1139  1.4869
  504SOL     OW 1510   1.428   0.722   1.575 -0.4875 -0.0494  0.3079
  504SOL    HW1 1511   1.520   0.756   1.553  0.5161 -2.3675 -0.1548
  504SOL    HW2 1512   1.417   0.719   1.677 -0.1148 -0.8556  1.0350
  505SOL     OW 1513   0.756   1.033   1.525  0.3479 -0.5729  0.1716
  505SOL    HW1 1514   0.766   0.938   1.495  1.4320 -0.3529 -0.2508
  505SOL    HW2 1515   0.809   1.098   1.472 -1.2070  0.7350 -1.6747
  506SOL     OW 1516   0.284   0.652   2.371  0.0807 -0.1954 -0.4863
  506SOL    HW1 1517   0.262   0.635   2.273 -0.1790  2.5516  0.0252
  506SOL    HW2 1518   0.302   0.564   2.418 -1.0802  0.8352  0.4969
  507SOL     OW 1519   0.318   3.098   0.047 -0.0222 -0.0199 -0.2923
  507SOL    HW1 1520   0.357   3.008   0.021  2.7074 -1.1065 -3.5319
  507SOL    HW2 1521   0.244   0.019   3.087 -0.0858  0.9884  0.1658
  508SOL     OW 1522   1.205   0.910   1.566  0.6721  0.1441  0.2894
  508SOL    HW1 1523   1.298   0.864   1.578 -0.6878 -0.3115 -1.6164
  508SOL    HW2 1524   1.199   1.010   1.581 -0.3642 -1.3156  1.7020
  509SOL     OW 1525   1.084   2.084   1.379  0.3636 -0.5818 -0.2418
  509SOL    HW1 1526   1.112   1.998   1.429 -1.0384  1.5108  1.6952
  509SOL    HW2 1527   1.160   2.154   1.389 -0.2394  1.4669  0.4196
  510SOL     OW 1528   2.357   1.341   2.279  0.0176 -0.5695  0.3106
  510SOL    HW1 1529   2.297   1.308   2.354 -0.4529  0.0849 -0.0506
  510SOL    HW2 1530   2.442   1.288   2.273 -3.1424  1.2877 -0.1484
  511SOL     OW 1531   0.815   1.931   1.056  0.2534  0.3242 -0.0505
  511SOL    HW1 1532   0.735   1.979   1.013 -0.2337  0.3902 -2.2260
  511SOL    HW2 1533   0.783   1.858   1.123  0.0807  0.1575  1.5991
  512SOL     OW 1534   2.625   2.003   0.464  0.0394 -0.7178 -0.1371
  512SOL    HW1 1535   2.579   2.092   0.437 -2.1751  3.3263 -2.0937
  512SOL    HW2 1536   2.570   1.956   0.532  0.6852 -0.8976 -3.7135
  513SOL     OW 1537   3.081   1.798   2.589 -0.0502  0.2809  0.0477
  513SOL    HW1 1538   0.068   1.833   2.562 -1.1231  0.1194  0.5291
  513SOL    HW2 1539   3.074   1.697   2.583 -0.4183  2.4336  1.3524
  514SOL     OW 1540   0.033   2.661   2.387 -0.0687  0.2559 -0.4713
  514SOL    HW1 1541   0.043   2.573   2.436  1.0933  1.2309  1.3474
  514SOL    HW2 1542   3.080   2.656   2.308 -1.7670  1.4971  2.0064
  515SOL     OW 1543   2.170   1.237   1.439  0.0741 -0.1530  0.1744
  515SOL    HW1 1544   2.115   1.289   1.372  0.2054  1.5840  2.4574
  515SOL    HW2 1545   2.196   1.293   1.516 -2.2318  1.1022 -0.8315
  516SOL     OW 1546   2.537   2.172   0.153 -0.0047  0.3478 -0.4450
  516SOL    HW1 1547   2.478   2.226   0.092  0.1925  1.9288  0.8559
  516SOL    HW2 1548   2.538   2.076   0.124  0.5644  0.9793  2.3170
  517SOL     OW 1549   1.413   0.881   2.968 -0.5817 -0.3107 -0.3884
  517SOL    HW1 1550   1.510   0.913   2.979  0.8666  0.9234 -0.8394
  517SOL    HW2 1551   1.379   0.850   3.059  0.4002 -2.1476 -1.5553
  518SOL     OW 1552   3.037   0.092   2.293 -0.0329  0.6452 -0.0408
  518SOL    HW1 1553   0.018   0.131   2.342  1.1639  1.4158  0.4239
  518SOL    HW2 1554   2.975   0.040   2.355  1.8167  0.0948 -3.8981
  519SOL     OW 1555   1.155   1.730   2.244 -0.2825  0.6343  0.7757
  519SOL    HW1 1556   1.238   1.729   2.183 -1.4552 -2.5436  1.7197
  519SOL    HW2 1557   1.100   1.810   2.226  1.3436 -3.1786 -0.1635
  520SOL     OW 1558   2.860   3.050   2.448  0.0159 -0.4687  0.1578
  520SOL    HW1 1559   2.822   2.955   2.435 -0.1692 -0.8630  0.8670
  520SOL    HW2 1560   2.813   3.098   2.522 -0.5507 -0.1270 -0.2052
  521SOL     OW 1561   0.219   1.592   2.030  0.2076 -0.1323 -0.4966
  521SOL    HW1 1562   0.306   1.547   2.062 -0.6743  0.6800 -3.7003
  521SOL    HW2 1563   0.142   1.576   2.098  1.0556 -2.2879  1.2345
  522SOL     OW 1564   0.878   2.819   1.838 -0.3411 -0.1750  0.4310
  522SOL    HW1 1565   0.891   2.856   1.743 -0.2612  2.4078 -1.7302
  522SOL    HW2 1566   0.899   2.886   1.911  3.3542 -1.2989 -0.9484
  523SOL     OW 1567   0.158   2.594   1.472  0.0350 -0.0030  0.2711
  523SOL    HW1 1568   0.197   2.500   1.471 -1.4187  0.0022  0.5056
  523SOL    HW2 1569   0.130   2.626   1.561 -0.8290 -0.7182 -0.0942
  524SOL     OW 1570   1.575   2.428   0.599  0.3209  0.0465  0.2724
  524SOL    HW1 1571   1.644   2.405   0.526  2.3274  0.5645 -0.4912
  524SOL    HW2 1572   1.574   2.351   0.662 -2.2177 -0.1284 -0.1070
  525SOL     OW 1573   2.437   1.029   0.954 -0.1712 -0.1422 -0.0351
  525SOL    HW1 1574   2.425   1.118   1.005 -0.6956 -0.5733  0.6370
  525SOL    HW2 1575   2.346   0.980   0.948  1.1126  1.3241  1.1831
  526SOL     OW 1576   0.988   2.216   0.709 -0.3718 -0.4726  1.1339
  526SOL    HW1 1577   0.997   2.239   0.607 -1.9602 -0.0613 -0.7931
  526SOL    HW2 1578   1.070   2.165   0.740 -1.3220  3.7083 -0.6998
  527SOL     OW 1579   2.655   2.143   0.891  0.1309 -0.0638 -0.2336
  527SOL    HW1 1580   2.726   2.099   0.834 -2.0158  1.8001  2.2717
  527SOL    HW2 1581   2.564   2.166   0.847  0.4750 -1.4805 -1.0273
  528SOL     OW 1582   2.068   0.599   0.050 -0.1649 -0.3355 -0.5437
  528SOL    HW1 1583   2.170   0.617   0.032 -0.1171  1.4957  2.3366
  528SOL    HW2 1584   2.047   0.499   0.055 -3.0345  1.0505  0.0887
  529SOL     OW 1585   0.982   1.032   1.823  0.1523 -0.3464 -0.3515
  529SOL    HW1 1586   0.959   1.058   1.922 -2.0371  0.9648 -0.5705
  529SOL    HW2 1587   0.960   1.117   1.773  2.4452 -1.1501  0.0166
  530SOL     OW 1588   2.563   1.118   2.625  0.2278  0.4131  0.2483
  530SOL    HW1 1589   2.662   1.143   2.640  1.7922  0.1852 -0.2294
  530SOL    HW2 1590   2.537   1.045   2.556 -1.7609  1.0423  2.2397
  531SOL     OW 1591   1.087   0.966   0.125 -0.7168  0.1945 -0.5616
  531SOL    HW1 1592   1.161   0.892   0.108  0.9568  0.2399 -1.3580
  531SOL    HW2 1593   1.125   1.026   0.196  0.1199 -0.3636  0.6879
  532SOL     OW 1594   1.976   0.823   0.657  0.1124  0.3032 -0.3241
  532SOL    HW1 1595   1.967   0.753   0.725  0.6946 -0.8521 -1.0310
  532SOL    HW2 1596   2.053   0.809   0.595  0.8310  1.7211 -1.5357
  533SOL     OW 1597   0.434   0.658   2.101 -0.1377  0.5729 -0.1292
  533SOL    HW1 1598   0.336   0.633   2.091 -1.2368 -1.4282 -2.6687
  533SOL    HW2 1599   0.496   0.580   2.085 -0.4734 -0.5258 -0.4455
  534SOL     OW 1600   1.601   0.000   2.678 -0.0569  0.1080 -0.3013
  534SOL    HW1 1601   1.612   0.069   2.755 -0.9525  0.6870  1.2961
  534SOL    HW2 1602   1.574   3.012   2.716 -0.7457 -1.5019 -2.3598
  535SOL     OW 1603   0.859   0.087   0.362  0.2387  0.1160  0.1523
  535SOL    HW1 1604   0.822   0.083   0.458 -0.3348  2.3647 -0.2118
  535SOL    HW2 1605   0.897   3.099   0.333  0.4687 -2.3457 -0.7649
  536SOL     OW 1606   1.171   3.046   0.972 -0.5398 -0.1559  0.0999
  536SOL    HW1 1607   1.224   0.022   0.999 -1.5824 -2.7556 -0.7252
  536SOL    HW2 1608   1.172   3.030   0.875 -0.6369  1.4604 -0.4192
  537SOL     OW 1609   1.492   2.888   1.920  0.3686 -0.3389 -0.4981
  537SOL    HW1 1610   1.502   2.820   1.996 -0.0469 -0.7058 -2.7613
  537SOL    HW2 1611   1.576   2.946   1.904  1.4469  1.6533 -0.2726
  538SOL     OW 1612   0.561   2.656   2.850  0.1219  0.0790  0.0403
  538SOL    HW1 1613   0.652   2.623   2.885  2.2178  0.3152 -0.8635
  538SOL    HW2 1614   0.545   2.617   2.756  1.4099 -1.0379  0.2798
  539SOL     OW 1615   2.981   1.603   1.744  0.0075  0.0627 -0.6240
  539SOL    HW1 1616   3.006   1.704   1.730  0.4349  1.1618 -0.7069
  539SOL    HW2 1617   2.967   1.590   1.849 -0.5782 -1.1099 -0.3969
  540SOL     OW 1618   2.437   2.484   2.238 -0.2930  0.3883 -0.2856
  540SOL    HW1 1619   2.336   2.468   2.225  0.0867 -1.8972 -0.0577
  540SOL    HW2 1620   2.484   2.414   2.178  0.0635 -0.7685 -0.5708
  541SOL     OW 1621   0.220   2.846   1.590 -0.0372  0.2740  0.1866
  541SOL    HW1 1622   0.253   2.910   1.661  1.2260  1.8760  2.5594
  541SOL    HW2 1623   0.286   2.860   1.514  1.8121 -1.6879 -0.2408
  542SOL     OW 1624   2.962   0.564   2.189 -0.8406 -0.3737  0.4146
  542SOL    HW1 1625   3.014   0.650   2.181  0.1526 -0.4774  0.3767
  542SOL    HW2 1626   2.984   0.507   2.107  2.2436  0.7567  1.4479
  543SOL     OW 1627   0.842   0.554   0.856 -0.2379 -0.2284 -0.5951
  543SOL    HW1 1628   0.940   0.524   0.868  3.4868 -0.4611 -1.2730
  543SOL    HW2 1629   0.826   0.606   0.766  1.1830 -0.2109 -1.7689
  544SOL     OW 1630   2.104   2.089   1.340  0.1813  0.0473  0.3975
  544SOL    HW1 1631   2.052   2.002   1.357  4.1334  1.2339 -0.5156
  544SOL    HW2 1632   2.052   2.150   1.280  0.3889 -2.2036  0.0351
  545SOL     OW 1633   1.196   1.536   0.796  0.1920  0.6905  0.3985
  545SOL    HW1 1634   1.295   1.548   0.780 -1.4297  2.0945 -2.1406
  545SOL    HW2 1635   1.174   1.556   0.897 -0.1869 -1.3917  2.1786
  546SOL     OW 1636   2.711   0.480   2.283  0.4635  0.2096  0.0269
  546SOL    HW1 1637   2.724   0.379   2.298  1.3476  0.4985  0.2247
  546SOL    HW2 1638   2.805   0.519   2.271 -0.5503 -1.8319  0.0381
  547SOL     OW 1639   2.947   0.518   2.945  0.4461  0.2217  0.3497
  547SOL    HW1 1640   2.897   0.499   2.855  0.3735 -1.9340  0.4374
  547SOL    HW2 1641   3.040   0.556   2.924 -2.2030 -1.3650  0.3022
  548SOL     OW 1642   2.546   1.996   2.714  0.0954 -0.1192 -0.0084
  548SOL    HW1 1643   2.598   2.076   2.685  0.2440 -0.5627  1.8801
  548SOL    HW2 1644   2.449   2.002   2.695  0.7459 -3.2864  2.3660
  549SOL     OW 1645   2.190   0.475   0.683  0.3986  0.1944 -0.2329
  549SOL    HW1 1646   2.097   0.500   0.726 -0.7560 -0.5231  1.7768
  549SOL    HW2 1647   2.270   0.523   0.729  0.5955  1.8754 -1.6849
  550SOL     OW 1648   2.613   1.307   0.484  0.0568  0.0162 -0.4394
  550SOL    HW1 1649   2.545   1.246   0.442  1.1022 -0.8854  2.4810
  550SOL    HW2 1650   2.695   1.318   0.424  1.4307 -0.6725 -1.0098
  551SOL     OW 1651   1.452   2.646   1.338  0.5508  0.2742  0.1444
  551SOL    HW1 1652   1.395   2.642   1.254 -0.4756 -0.8022 -0.6197
  551SOL    HW2 1653   1.415   2.722   1.397  1.9063  1.6019 -0.3643
  552SOL     OW 1654   2.446   2.467   2.534  0.3153  1.0329  0.0942
  552SOL    HW1 1655   2.438   2.493   2.434 -2.0073  0.3641 -1.4894
  552SOL    HW2 1656   2.350   2.453   2.573 -2.6907 -1.2025  1.5556
  553SOL     OW 1657   0.830   2.544   0.559 -0.1676  0.5504 -0.2271
  553SOL    HW1 1658   0.808   2.552   0.655  2.0813 -0.1119 -0.9160
  553SOL    HW2 1659   0.750   2.576   0.511  1.8551 -0.9973 -2.1916
  554SOL     OW 1660   1.853   2.451   1.776  0.4229  0.4114 -0.3313
  554SOL    HW1 1661   1.757   2.414   1.759  1.6523  0.8353  0.4215
  554SOL    HW2 1662   1.904   2.383   1.828 -0.8983  0.6856 -1.0701
  555SOL     OW 1663   1.536   2.427   2.038 -0.0057 -0.4000  0.0378
  555SOL    HW1 1664   1.600   2.392   1.968  0.1940 -1.7610  0.1777
  555SOL    HW2 1665   1.545   2.525   2.055  0.7020 -0.7935 -0.4649
  556SOL     OW 1666   1.275   0.547   0.742 -0.4988 -0.6937  0.0522
  556SOL    HW1 1667   1.316   0.552   0.832  0.2306 -1.5760 -0.1893
  556SOL    HW2 1668   1.228   0.635   0.716  1.7844 -3.2722 -0.8983
  557SOL     OW 1669   0.943   2.084   1.693 -0.0815  0.6294 -0.4055
  557SOL    HW1 1670   0.943   2.140   1.608  1.1477 -0.4359 -1.3052
  557SOL    HW2 1671   0.910   2.129   1.779  1.3128 -0.6892 -0.3224
  558SOL     OW 1672   2.913   1.319   2.289 -0.1895  0.5505  0.0139
  558SOL    HW1 1673   2.844   1.387   2.320 -0.2254 -3.3919 -2.6252
  558SOL    HW2 1674   3.006   1.330   2.331 -1.3519  0.7273 -0.7129
  559SOL     OW 1675   2.195   2.468   2.091 -0.2452 -0.2711  0.1697
  559SOL    HW1 1676   2.222   2.464   1.992 -1.2655 -2.8700 -0.7425
  559SOL    HW2 1677   2.128   2.540   2.097 -0.3468 -1.6950  1.0887
  560SOL     OW 1678   0.415   0.206   2.401 -0.3548  0.1262  0.1976
  560SOL    HW1 1679   0.510   0.195   2.357 -0.4848 -2.2763 -1.7516
  560SOL    HW2 1680   0.408   0.151   2.487 -4.3399 -1.0140  0.8792
  561SOL     OW 1681   1.098   0.685   0.397  0.0211  0.1138  0.7406
  561SOL    HW1 1682   1.194   0.697   0.370 -2.3565 -0.9959  1.1170
  561SOL    HW2 1683   1.031   0.690   0.318 -0.7455  0.7845 -1.7567
  562SOL     OW 1684   0.597   1.260   1.852 -0.2818 -0.8403  0.2651
  562SOL    HW1 1685   0.570   1.360   1.833 -1.3114  2.2343 -0.4392
  562SOL    HW2 1686   0.696   1.240   1.835 -0.1800  0.4537  2.1168
  563SOL     OW 1687   2.097   2.269   0.149 -0.2087  0.1564 -0.1049
  563SOL    HW1 1688   2.193   2.279   0.132 -2.7464 -0.2370  0.6544
  563SOL    HW2 1689   2.074   2.179   0.184  1.4494  1.4038  0.9532
  564SOL     OW 1690   2.869   2.347   0.724 -0.4562  0.4196  0.0501
  564SOL    HW1 1691   2.787   2.376   0.678 -2.2658 -1.3041  0.6294
  564SOL    HW2 1692   2.869   2.246   0.732 -1.6997 -0.5827  2.7198
  565SOL     OW 1693   0.409   0.035   2.629  0.2836  0.1692 -0.0520
  565SOL    HW1 1694   0.401   0.089   2.718  1.5091  2.8953  4.7414
  565SOL    HW2 1695   0.478   3.064   2.646  1.0517  0.9021 -1.4437
  566SOL     OW 1696   1.496   2.856   2.771  0.2962  0.3038  0.4896
  566SOL    HW1 1697   1.435   2.786   2.731  2.1990 -0.0840 -0.0831
  566SOL    HW2 1698   1.449   2.902   2.851 -0.9016  1.1028 -0.9809
  567SOL     OW 1699   1.999   1.834   1.374  0.4106 -0.7577 -0.4678
  567SOL    HW1 1700   2.065   1.770   1.333 -1.3285 -2.6856 -1.8130
  567SOL    HW2 1701   1.908   1.825   1.327 -0.1808 -2.5050 -1.9021
  568SOL     OW 1702   1.864   0.879   2.931 -0.2434  0.7047 -0.1875
  568SOL    HW1 1703   1.917   0.795   2.907 -0.6429  1.0981  0.6640
  568SOL    HW2 1704   1.926   0.955   2.963  0.2885 -3.4526  0.2469
  569SOL     OW 1705   2.210   2.090   1.995  0.1469  0.0875  0.1882
  569SOL    HW1 1706   2.202   1.999   2.042  0.0312  0.3975  0.4473
  569SOL    HW2 1707   2.224   2.159   2.069 -2.2918 -0.0948 -0.4959
  570SOL     OW 1708   2.793   2.961   1.825  0.1643  0.4783 -0.4692
  570SOL    HW1 1709   2.752   3.006   1.904  0.9847  1.9396 -1.6863
  570SOL    HW2 1710   2.838   2.874   1.855 -0.5520 -0.3747  0.8561
  571SOL     OW 1711   0.165   0.861   1.437 -0.3217 -0.3742 -0.1067
  571SOL    HW1 1712   0.220   0.900   1.362 -0.0787 -1.1605  3.7532
  571SOL    HW2 1713   0.069   0.896   1.430  0.2788  0.5070 -0.9266
  572SOL     OW 1714   3.068   1.583   1.159  0.2300 -0.5453  0.2343
  572SOL    HW1 1715   3.024   1.496   1.188  0.7799 -0.4321  0.2472
  572SOL    HW2 1716   3.028   1.623   1.076  2.7070  0.4236 -0.7235
  573SOL     OW 1717   0.939   0.720   0.182 -0.1964  0.0105 -0.3002
  573SOL    HW1 1718   0.840   0.724   0.194  0.0398  2.9686  0.9538
  573SOL    HW2 1719   0.970   0.818   0.161 -0.4213 -0.3012 -1.1076
  574SOL     OW 1720   0.510   0.216   0.214 -0.4390  0.5765 -0.2763
  574SOL    HW1 1721   0.604   0.192   0.224 -0.2200  1.4243  0.2270
  574SOL    HW2 1722   0.451   0.128   0.215 -2.0475 -0.6647 -1.6462
  575SOL     OW 1723   0.869   2.310   0.947  0.1035 -0.1630  0.5068
  575SOL    HW1 1724   0.920   2.275   0.864  0.6407  0.1314  0.1129
  575SOL    HW2 1725   0.896   2.258   1.032  0.0524 -0.3876  0.6105
  576SOL     OW 1726   2.972   2.761   1.255  0.0648 -0.5824  0.1235
  576SOL    HW1 1727   2.898   2.804   1.198 -1.3530 -0.5660 -2.4463
  576SOL    HW2 1728   2.976   2.811   1.345  0.3251 -2.1378  0.5040
  577SOL     OW 1729   2.767   1.935   1.905  0.2311  0.0200 -0.0001
  577SOL    HW1 1730   2.701   1.967   1.973 -0.7844 -0.4105 -1.3786
  577SOL    HW2 1731   2.799   2.010   1.848 -1.1386 -1.0031 -0.5910
  578SOL     OW 1732   1.158   0.039   2.627  0.3187 -0.1371 -0.3241
  578SOL    HW1 1733   1.099   0.005   2.549 -0.2740  0.7243  0.6289
  578SOL    HW2 1734   1.152   3.084   2.713 -2.2729 -2.0659 -0.0363
  579SOL     OW 1735   1.844   1.885   2.095  0.2200 -0.3006  0.1176
  579SOL    HW1 1736   1.825   1.947   2.016  1.3816  0.9899  1.7630
  579SOL    HW2 1737   1.921   1.821   2.065 -0.7680 -1.7117 -0.5148
  580SOL     OW 1738   1.638   0.705   2.267 -0.0465 -0.1989 -0.4005
  580SOL    HW1 1739   1.691   0.788   2.240 -1.0460  1.2833 -2.1866
  580SOL    HW2 1740   1.681   0.649   2.343  1.4417  2.3677  1.7864
  581SOL     OW 1741   0.857   1.352   2.250 -0.0448  0.2653 -0.2372
  581SOL    HW1 1742   0.891   1.448   2.249 -0.0445 -0.4514  0.3459
  581SOL    HW2 1743   0.883   1.307   2.345 -2.7095 -0.4208  0.5073
  582SOL     OW 1744   0.110   2.696   1.787 -0.1030  0.2376 -1.0625
  582SOL    HW1 1745   0.173   2.675   1.866  0.8684  0.3577  0.7938
  582SOL    HW2 1746   0.166   2.739   1.710 -0.2991 -1.9953 -0.9446
  583SOL     OW 1747   1.384   1.395   1.512  0.3873  0.1686  0.4315
  583SOL    HW1 1748   1.467   1.340   1.521 -2.5585  0.4108 -0.1027
  583SOL    HW2 1749   1.400   1.486   1.552  0.7332 -1.5100 -1.3251
  584SOL     OW 1750   1.332   1.991   2.713  0.9601  0.6623 -0.1254
  584SOL    HW1 1751   1.410   1.950   2.764 -1.9485 -0.3196 -1.0310
  584SOL    HW2 1752   1.344   2.090   2.687 -2.2750  1.5894  1.6012
  585SOL     OW 1753   0.282   2.425   0.210  0.2960 -0.5139  0.0865
  585SOL    HW1 1754   0.208   2.431   0.140 -0.0300 -1.9290 -1.0185
  585SOL    HW2 1755   0.247   2.384   0.298 -1.8292 -2.3213 -1.2422
  586SOL     OW 1756   2.101   1.906   0.691  0.5582  0.1592 -0.1347
  586SOL    HW1 1757   2.009   1.872   0.689  2.1666  0.3767  0.8474
  586SOL    HW2 1758   2.115   1.956   0.777 -2.1295 -0.8354 -1.0478
  587SOL     OW 1759   2.819   2.054   0.695 -0.0066  0.5464  0.3930
  587SOL    HW1 1760   2.881   1.974   0.703  1.9242  0.2625 -0.8145
  587SOL    HW2 1761   2.772   2.061   0.602 -2.1217 -1.8962 -0.5850
  588SOL     OW 1762   2.292   0.212   1.132  0.2901 -0.1240 -0.6082
  588SOL    HW1 1763   2.331   0.197   1.228  0.3764 -1.2105  2.2375
  588SOL    HW2 1764   2.236   0.298   1.131 -0.7979  0.4750 -0.7105
  589SOL     OW 1765   0.704   0.664   1.054 -0.0695 -0.0758  0.6173
  589SOL    HW1 1766   0.762   0.608   0.989  0.7677  1.4243  0.6258
  589SOL    HW2 1767   0.739   0.647   1.148 -0.6078  1.6664 -0.1886
  590SOL     OW 1768   2.673   2.402   0.248  0.0604  0.5215  0.3119
  590SOL    HW1 1769   2.661   2.308   0.209  1.3959 -0.9450 -0.1060
  590SOL    HW2 1770   2.767   2.434   0.234 -1.9858 -0.2118 -1.7781
  591SOL     OW 1771   0.642   2.234   1.843 -0.1841 -0.3364  0.0198
  591SOL    HW1 1772   0.620   2.137   1.825  0.9537 -0.0990 -0.4374
  591SOL    HW2 1773   0.581   2.295   1.788 -1.3802  1.0080 -2.1073
  592SOL     OW 1774   0.566   1.438   1.494 -0.3417  0.6524  0.6304
  592SOL    HW1 1775   0.667   1.430   1.483 -1.2348 -0.2636 -0.2818
  592SOL    HW2 1776   0.520   1.353   1.456 -2.6728  0.3649 -0.8048
  593SOL     OW 1777   0.947   2.154   1.158 -0.4886 -0.1351 -0.7925
  593SOL    HW1 1778   0.978   2.122   1.250 -0.0047 -0.0909  2.3999
  593SOL    HW2 1779   0.908   2.079   1.100  0.8460  0.1115 -2.0500
  594SOL     OW 1780   0.812   1.119   2.728  0.0496 -0.6250  0.0108
  594SOL    HW1 1781   0.896   1.067   2.749  1.6310  1.8126  1.4356
  594SOL    HW2 1782   0.799   1.201   2.788 -0.8978  1.5191  0.4397
  595SOL     OW 1783   1.327   0.612   1.036  0.0632  0.1694 -0.3421
  595SOL    HW1 1784   1.368   0.706   1.018  1.2717 -1.3492 -2.5123
  595SOL    HW2 1785   1.233   0.620   1.083 -0.5278 -0.8185  1.0800
  596SOL     OW 1786   0.245   1.247   0.894 -0.1646  0.1922 -0.1240
  596SOL    HW1 1787   0.347   1.266   0.882  1.7717  1.0967  0.7228
  596SOL    HW2 1788   0.200   1.185   0.820  0.0425 -1.2946 -2.1063
  597SOL     OW 1789   0.139   2.070   2.939 -0.1117  0.0740  0.2405
  597SOL    HW1 1790   0.044   2.094   2.913  0.5783  2.6258  1.3933
  597SOL    HW2 1791   0.160   2.118   3.026 -1.5883  1.4884 -0.9752
  598SOL     OW 1792   1.923   2.109   2.389  0.4660  0.6610 -0.6542
  598SOL    HW1 1793   1.905   2.205   2.360  1.9309  1.1934  0.0710
  598SOL    HW2 1794   1.840   2.045   2.373 -2.1032 -1.8829 -1.0595
  599SOL     OW 1795   1.412   0.511   0.503 -0.4719 -0.5458 -0.1496
  599SOL    HW1 1796   1.351   0.451   0.449 -1.4165  1.3452  0.3877
  599SOL    HW2 1797   1.368   0.540   0.590  0.8181  0.8633 -0.1103
  600SOL     OW 1798   0.955   2.804   0.481  0.2436  0.0222  0.0087
  600SOL    HW1 1799   0.914   2.722   0.526  1.1975 -1.0281  0.8163
  600SOL    HW2 1800   1.053   2.810   0.500 -0.6606  1.8758  1.2186
  601SOL     OW 1801   0.514   0.276   1.051 -0.0006  0.5461  0.2067
  601SOL    HW1 1802   0.473   0.368   1.041 -0.7505 -1.0025 -1.8521
  601SOL    HW2 1803   0.606   0.280   1.097 -3.6567 -1.5397  0.6026
  602SOL     OW 1804   0.079   3.035   0.649  0.0471 -0.1657  0.0012
  602SOL    HW1 1805   0.031   2.953   0.616  0.9018  2.5387  0.9691
  602SOL    HW2 1806   0.022   0.012   0.632 -1.1645 -0.1188 -2.7250
  603SOL     OW 1807   0.793   2.582   2.470  0.3715 -0.0354 -1.0889
  603SOL    HW1 1808   0.745   2.669   2.443  1.1683  1.5606  0.1121
  603SOL    HW2 1809   0.738   2.532   2.541 -2.5568  0.8768 -0.4820
  604SOL     OW 1810   1.046   2.511   2.987 -0.1545  0.0722  0.2915
  604SOL    HW1 1811   1.017   2.462   3.068  3.0497  0.1028 -2.6493
  604SOL    HW2 1812   1.101   2.440   2.931  2.4304  0.2432 -2.0842
  605SOL     OW 1813   0.965   0.729   1.546  0.3009 -0.0427  0.2005
  605SOL    HW1 1814   1.045   0.791   1.557 -2.1711  0.3246 -1.2237
  605SOL    HW2 1815   0.901   0.732   1.628 -0.2065  2.3266  0.1660
  606SOL     OW 1816   1.360   0.409   2.692  1.0207  0.1266  0.2095
  606SOL    HW1 1817   1.442   0.462   2.701 -1.7473 -1.5537 -3.4189
  606SOL    HW2 1818   1.357   0.331   2.759 -1.5491 -1.7135 -0.8161
  607SOL     OW 1819   0.105   1.182   1.104  0.1711  0.3820  0.1851
  607SOL    HW1 1820   0.116   1.235   1.189 -1.5035  1.1829 -1.0694
  607SOL    HW2 1821   0.163   1.208   1.026  0.4485 -2.0518 -0.2228
  608SOL     OW 1822   2.943   2.329   2.323  0.4479 -1.3765  0.1412
  608SOL    HW1 1823   2.895   2.407   2.271  1.1662 -0.5568  0.9899
  608SOL    HW2 1824   3.005   2.371   2.392 -0.3247  2.7859  1.4655
  609SOL     OW 1825   1.837   0.455   0.211 -0.3878 -0.1443  0.0963
  609SOL    HW1 1826   1.920   0.438   0.154 -3.2280 -3.5725 -2.7936
  609SOL    HW2 1827   1.772   0.516   0.163  1.9844 -0.6015  1.5982
  610SOL     OW 1828   0.904   2.894   0.923  0.7536 -0.4553  0.3823
  610SOL    HW1 1829   0.826   2.957   0.930 -1.2122 -1.7705  0.7406
  610SOL    HW2 1830   0.983   2.943   0.885 -1.2299  1.1292  2.3082
  611SOL     OW 1831   0.512   1.328   0.372  0.0626 -0.6254 -0.2554
  611SOL    HW1 1832   0.508   1.384   0.290  0.3982  0.3735  2.3771
  611SOL    HW2 1833   0.466   1.238   0.358  1.4432  1.5726 -2.1944
  612SOL     OW 1834   1.007   0.366   2.468 -0.0264 -0.2125 -0.4050
  612SOL    HW1 1835   0.913   0.393   2.440  0.1567  0.5803 -2.6531
  612SOL    HW2 1836   1.056   0.452   2.500  1.6827  2.6852  0.5860
  613SOL     OW 1837   2.389   1.100   0.416 -0.2462  0.2859 -0.0657
  613SOL    HW1 1838   2.341   1.118   0.509 -2.1525 -2.8212  3.8330
  613SOL    HW2 1839   2.317   1.068   0.348  0.4822  1.1158 -1.6878
  614SOL     OW 1840   1.713   0.371   1.726 -0.2960  0.3842  0.0752
  614SOL    HW1 1841   1.625   0.384   1.775 -2.4362 -1.5343  0.6386
  614SOL    HW2 1842   1.800   0.363   1.788  2.1440 -1.9080  1.6224
  615SOL     OW 1843   0.574   2.059   1.049 -0.1514  0.7732  0.0527
  615SOL    HW1 1844   0.529   1.975   1.005 -4.6051 -1.1904 -1.2799
  615SOL    HW2 1845   0.587   2.133   0.979 -0.8530  0.3970 -2.0608
  616SOL     OW 1846   1.577   1.108   2.412  0.5324 -0.5782  0.1864
  616SOL    HW1 1847   1.550   1.197   2.365  0.2954 -0.5417  1.2522
  616SOL    HW2 1848   1.587   1.122   2.512  2.6528 -0.3267 -3.0023
  617SOL     OW 1849   1.893   2.687   0.195  0.0322  0.2681  0.1965
  617SOL    HW1 1850   1.803   2.727   0.196  1.5572 -3.2165  0.8490
  617SOL    HW2 1851   1.894   2.586   0.192  2.2037  1.4562 -1.7798
  618SOL     OW 1852   0.922   0.898   3.029  0.0820  0.0437  0.2088
  618SOL    HW1 1853   0.825   0.919   3.050  3.8581  0.5131 -1.5542
  618SOL    HW2 1854   0.995   0.933   3.098  3.2730  0.4457  2.4394
  619SOL     OW 1855   2.680   1.318   0.744 -0.2727 -0.1466  0.1645
  619SOL    HW1 1856   2.670   1.220   0.779 -0.1888 -0.8158 -0.8926
  619SOL    HW2 1857   2.641   1.321   0.647 -0.3724  2.1132  0.5552
  620SOL     OW 1858   2.518   2.834   2.846  0.0034  0.2323  0.1770
  620SOL    HW1 1859   2.433   2.787   2.885 -1.4586 -2.2216  0.3622
  620SOL    HW2 1860   2.587   2.770   2.806 -0.0290  1.6118  1.0438
  621SOL     OW 1861   2.185   1.002   0.237  0.2782 -0.5314  0.4082
  621SOL    HW1 1862   2.118   0.924   0.224 -0.8837 -0.9714  1.4802
  621SOL    HW2 1863   2.143   1.088   0.195 -1.0782  3.2529 -0.9362
  622SOL     OW 1864   1.109   2.285   2.416  0.0126  0.3112  0.2055
  622SOL    HW1 1865   1.119   2.205   2.480  0.4873  0.5581  1.5116
  622SOL    HW2 1866   1.128   2.373   2.465 -0.1487 -1.3696 -4.4214
  623SOL     OW 1867   0.394   1.804   2.957 -0.0792  0.0331  0.4855
  623SOL    HW1 1868   0.298   1.781   2.983  2.0116  1.2754  1.7272
  623SOL    HW2 1869   0.412   1.899   2.980 -0.0140 -3.0044  0.9733
  624SOL     OW 1870   0.396   0.195   2.857 -0.1624 -0.7502  0.4313
  624SOL    HW1 1871   0.475   0.209   2.913 -2.4926 -2.6337 -0.2255
  624SOL    HW2 1872   0.324   0.137   2.906 -0.0776 -1.0010 -1.0089
  625SOL     OW 1873   0.832   1.909   0.170  0.4949  0.3776 -0.1371
  625SOL    HW1 1874   0.808   1.915   0.072 -1.4527 -2.5081  0.2557
  625SOL    HW2 1875   0.764   1.958   0.226 -1.9437 -0.2479 -0.5026
  626SOL     OW 1876   2.461   0.210   0.212  0.1233 -0.1407  0.3257
  626SOL    HW1 1877   2.539   0.152   0.181 -2.2195  1.4455  0.3006
  626SOL    HW2 1878   2.494   0.283   0.270 -1.6040  1.3567 -1.8916
  627SOL     OW 1879   1.276   0.971   2.763 -0.7053  0.0059 -0.3764
  627SOL    HW1 1880   1.328   0.941   2.853  2.2587  2.6591  2.0602
  627SOL    HW2 1881   1.303   1.062   2.740  1.8963 -0.1754  0.6459
  628SOL     OW 1882   1.192   0.564   2.581  0.2717 -0.5975  0.4635
  628SOL    HW1 1883   1.239   0.478   2.603  1.1803 -1.0723 -0.9340
  628SOL    HW2 1884   1.255   0.638   2.547 -0.2289  0.8388 -1.1065
  629SOL     OW 1885   0.335   3.047   1.749  0.0857 -0.7733  0.4746
  629SOL    HW1 1886   0.425   3.022   1.794  1.9665 -0.2730 -1.0894
  629SOL    HW2 1887   0.344   0.037   1.714 -0.7281 -1.4470  0.0962
  630SOL     OW 1888   2.448   1.040   1.911  0.1781 -0.0840  0.1996
  630SOL    HW1 1889   2.401   1.047   1.997 -1.7502  0.4039 -1.4655
  630SOL    HW2 1890   2.503   0.957   1.895 -1.3327  0.7563 -1.0812
  631SOL     OW 1891   2.288   1.140   0.655 -0.3960 -0.0663  0.4523
  631SOL    HW1 1892   2.338   1.205   0.716  2.6568 -0.0604 -0.5997
  631SOL    HW2 1893   2.276   1.047   0.694  0.7261  0.0573  1.4323
  632SOL     OW 1894   2.578   0.666   1.662 -0.0029 -0.4017  0.7379
  632SOL    HW1 1895   2.546   0.570   1.656 -0.8298 -0.3940 -1.2999
  632SOL    HW2 1896   2.605   0.696   1.566  2.0193  1.5220 -2.1101
  633SOL     OW 1897   1.079   2.748   0.001 -0.0150  0.0736  0.0657
  633SOL    HW1 1898   1.059   2.664   3.051 -2.2209  1.3985  1.1312
  633SOL    HW2 1899   1.037   2.733   0.094  2.0639  0.6522  1.9167
  634SOL     OW 1900   1.673   2.717   3.034  0.1892  0.1768  0.2323
  634SOL    HW1 1901   1.648   2.733   0.031 -2.7687  2.2019 -0.7166
  634SOL    HW2 1902   1.765   2.758   3.020  0.0373  1.2594 -1.7582
  635SOL     OW 1903   2.810   0.450   0.277  0.6585  0.1883  0.4670
  635SOL    HW1 1904   2.815   0.524   0.207  0.5823  0.3162 -1.2150
  635SOL    HW2 1905   2.712   0.420   0.300  3.0750 -1.3120 -1.0883
  636SOL     OW 1906   0.413   1.650   0.636 -0.0790  0.1822 -0.2041
  636SOL    HW1 1907   0.483   1.725   0.641  1.3285 -1.0336 -0.9750
  636SOL    HW2 1908   0.462   1.568   0.675  0.1536 -0.8747  0.8326
  637SOL     OW 1909   0.378   2.695   0.259 -0.0172 -0.0494  0.3408
  637SOL    HW1 1910   0.325   2.611   0.243  0.4357  2.7327  2.8124
  637SOL    HW2 1911   0.332   2.761   0.316  0.7123 -0.5643 -0.3587
  638SOL     OW 1912   3.044   2.661   0.296 -0.0342 -0.1076 -0.1942
  638SOL    HW1 1913   3.071   2.750   0.255  0.2993  0.8400  2.8338
  638SOL    HW2 1914   0.014   2.636   0.365 -0.2512  1.0484 -2.5168
  639SOL     OW 1915   1.248   1.374   0.456  0.2174 -0.7161 -0.2182
  639SOL    HW1 1916   1.251   1.383   0.354 -3.3840  0.5887  0.3191
  639SOL    HW2 1917   1.187   1.446   0.490  1.2988 -1.4623 -2.2329
  640SOL     OW 1918   1.462   2.353   0.978  0.3184 -0.2622 -0.2866
  640SOL    HW1 1919   1.546   2.341   1.040  0.5935  0.5903  0.7143
  640SOL    HW2 1920   1.483   2.307   0.891  0.1443  1.3851  1.9512
  641SOL     OW 1921   2.960   2.562   0.897  0.5584  0.1164  0.7066
  641SOL    HW1 1922   2.948   2.508   0.808 -2.2063 -2.9472 -0.8337
  641SOL    HW2 1923   2.889   2.551   0.973  0.7613  0.3665 -1.9286
  642SOL     OW 1924   0.932   3.040   2.001  0.2101  0.1675  0.1159
  642SOL    HW1 1925   0.986   3.101   2.059  0.6884 -1.7286 -0.4355
  642SOL    HW2 1926   0.891   3.094   1.924 -0.3341  0.3959 -0.4745
  643SOL     OW 1927   0.856   2.147   2.464 -0.4119 -0.1086  0.4187
  643SOL    HW1 1928   0.889   2.241   2.439 -0.5645 -0.4962 -1.7958
  643SOL    HW2 1929   0.839   2.145   2.565  2.6381  0.5973 -0.4012
  644SOL     OW 1930   1.120   2.478   0.645  0.1279 -0.0161 -0.3628
  644SOL    HW1 1931   1.112   2.414   0.723 -0.0395 -1.0412 -0.5158
  644SOL    HW2 1932   1.055   2.462   0.573  0.5822 -0.2139  1.5859
  645SOL     OW 1933   1.350   1.368   1.906  0.4012  0.3515 -0.2437
  645SOL    HW1 1934   1.277   1.390   1.843  0.7915  0.5458  0.0516
  645SOL    HW2 1935   1.311   1.303   1.979 -2.0491 -1.6060  3.9383
  646SOL     OW 1936   0.399   1.085   0.068  0.2030 -0.1445 -1.0892
  646SOL    HW1 1937   0.313   1.119   0.030  0.7741 -2.3766 -0.3314
  646SOL    HW2 1938   0.409   1.120   0.163  1.3913 -2.8463  2.3454
  647SOL     OW 1939   1.436   0.211   0.824  0.6715 -0.1042 -0.3153
  647SOL    HW1 1940   1.481   0.124   0.854  0.4442 -0.3053 -1.2893
  647SOL    HW2 1941   1.507   0.275   0.786  3.4935  1.3729  0.6208
  648SOL     OW 1942   2.528   2.828   1.411  0.9852 -0.2318 -0.1738
  648SOL    HW1 1943   2.424   2.819   1.429 -1.5458 -1.3469  1.5427
  648SOL    HW2 1944   2.547   2.812   1.312  0.7383 -1.0371  1.1112
  649SOL     OW 1945   0.783   1.963   2.998 -0.1790 -0.4754 -0.4441
  649SOL    HW1 1946   0.851   2.008   2.941 -1.9225 -2.0390 -2.2848
  649SOL    HW2 1947   0.691   2.008   2.988  1.7417  1.7003  0.8151
  650SOL     OW 1948   2.811   2.205   1.505 -0.6794 -0.0342 -0.2068
  650SOL    HW1 1949   2.842   2.298   1.526 -1.1872 -0.8801  3.2172
  650SOL    HW2 1950   2.731   2.210   1.445  0.7266  0.9532  0.1362
  651SOL     OW 1951   0.141   0.092   2.972 -0.4367  0.1051  0.1462
  651SOL    HW1 1952   0.085   0.097   2.890  0.9157 -1.5695  1.2214
  651SOL    HW2 1953   0.103   0.167   3.034 -1.1368 -0.4706  0.2358
  652SOL     OW 1954   2.361   1.762   0.136  0.3442 -0.5182  0.5135
  652SOL    HW1 1955   2.396   1.840   0.075  1.5191  3.8576 -0.9487
  652SOL    HW2 1956   2.397   1.771   0.230 -0.6800 -2.2956 -0.5634
  653SOL     OW 1957   0.360   0.014   0.736  0.7448  0.1107  0.3942
  653SOL    HW1 1958   0.370   3.037   0.793 -0.3134 -0.8122 -1.1151
  653SOL    HW2 1959   0.267   0.018   0.690 -1.4192 -1.4632 -1.1650
  654SOL     OW 1960   1.297   2.911   0.230  0.4005 -0.0433 -0.3820
  654SOL    HW1 1961   1.321   2.811   0.229 -0.8801  1.0485 -0.2918
  654SOL    HW2 1962   1.352   2.961   0.298  1.2714 -0.1671 -2.3538
  655SOL     OW 1963   0.780   2.830   1.192 -0.0112  0.0537  0.3190
  655SOL    HW1 1964   0.797   2.884   1.108 -0.7991  0.1954 -0.4859
  655SOL    HW2 1965   0.871   2.788   1.218  1.4103 -0.0997  0.0512
  656SOL     OW 1966   0.454   0.039   2.086 -0.1061 -0.1196 -0.4849
  656SOL    HW1 1967   0.421   3.092   2.164 -0.8911  2.0514  0.9369
  656SOL    HW2 1968   0.412   0.130   2.071  1.2309 -0.9632  0.0478
  657SOL     OW 1969   1.795   0.591   2.472 -0.1940 -0.2160  0.0740
  657SOL    HW1 1970   1.765   0.493   2.497 -2.3629 -3.4531  1.1155
  657SOL    HW2 1971   1.881   0.580   2.419 -0.2518 -0.1116  1.1846
  658SOL     OW 1972   2.122   1.613   1.248  0.3514  0.2970 -0.1866
  658SOL    HW1 1973   2.052   1.543   1.252  0.3265  4.0567  0.1379
  658SOL    HW2 1974   2.208   1.580   1.286 -1.7789  4.1941  0.1271
  659SOL     OW 1975   2.881   2.708   2.908 -0.2313  0.3636 -0.1093
  659SOL    HW1 1976   2.923   2.804   2.885  0.7747  2.4288 -0.5705
  659SOL    HW2 1977   2.834   2.700   2.998  1.4128 -1.5559 -3.3110
  660SOL     OW 1978   1.272   0.782   0.103 -0.3486  0.7409  0.4116
  660SOL    HW1 1979   1.272   0.712   0.028 -0.9864  0.2696  1.3575
  660SOL    HW2 1980   1.329   0.751   0.185  3.0638  0.4163  0.1103
  661SOL     OW 1981   2.415   2.713   0.910  0.2285  0.2400 -0.0921
  661SOL    HW1 1982   2.435   2.762   0.827 -1.3016 -0.1101  2.2665
  661SOL    HW2 1983   2.447   2.617   0.900 -1.2489 -1.6456 -1.7678
  662SOL     OW 1984   0.660   0.523   0.510  0.1473 -0.4038 -0.0868
  662SOL    HW1 1985   0.626   0.479   0.599 -1.6622  1.5814  1.1041
  662SOL    HW2 1986   0.585   0.522   0.439  2.3881  1.5971  1.6413
  663SOL     OW 1987   1.365   2.417   2.448  0.1935 -0.2595  0.3026
  663SOL    HW1 1988   1.455   2.385   2.421 -1.6530  3.4931  4.0876
  663SOL    HW2 1989   1.285   2.371   2.404 -0.4231  0.5671  1.0228
  664SOL     OW 1990   0.600   2.426   1.272  0.7900  0.2791  0.5774
  664SOL    HW1 1991   0.692   2.442   1.232  0.2774 -0.4571  0.1075
  664SOL    HW2 1992   0.556   2.518   1.277  1.2907 -1.8343  0.3413
  665SOL     OW 1993   1.362   2.000   1.491  0.3457  0.2111 -0.1041
  665SOL    HW1 1994   1.385   1.978   1.588 -1.2866  0.9254 -2.4570
  665SOL    HW2 1995   1.294   1.940   1.445  0.4857  2.3415 -2.1109
  666SOL     OW 1996   0.439   2.879   3.032  0.1152  0.2320  0.2754
  666SOL    HW1 1997   0.486   2.965   3.006  0.8684 -0.0899 -0.9396
  666SOL    HW2 1998   0.485   2.795   2.996  4.1881  0.0169  2.1898
  667SOL     OW 1999   1.683   1.580   1.467  0.5442 -0.1553 -0.1290
  667SOL    HW1 2000   1.778   1.563   1.499  0.2389  1.9264 -1.3712
  667SOL    HW2 2001   1.601   1.551   1.531 -0.2292 -2.7665 -0.6917
  668SOL     OW 2002   0.968   0.134   2.313  0.5852 -0.7125 -0.2350
  668SOL    HW1 2003   1.021   0.129   2.225  2.3832 -1.0441  1.2548
  668SOL    HW2 2004   1.006   0.201   2.380  0.0791  1.7607  0.9502
  669SOL     OW 2005   2.325   2.463   1.815 -0.3426 -0.3378 -0.2988
  669SOL    HW1 2006   2.258   2.411   1.762  3.3579  4.1006 -0.5446
  669SOL    HW2 2007   2.417   2.409   1.811 -0.7999 -1.5550 -0.1754
  670SOL     OW 2008   2.419   1.769   0.394  0.2660  0.0934  0.7118
  670SOL    HW1 2009   2.438   1.860   0.434  0.7923  1.2291 -0.4645
  670SOL    HW2 2010   2.371   1.717   0.465  1.7391  2.3549  0.9892
  671SOL     OW 2011   1.296   1.134   1.241 -0.2679  0.4589 -0.6820
  671SOL    HW1 2012   1.283   1.125   1.144 -1.7855 -1.0113 -0.9540
  671SOL    HW2 2013   1.392   1.165   1.257 -0.4060  2.2525  0.0949
  672SOL     OW 2014   2.403   1.609   2.331 -0.1194  0.0041 -0.4535
  672SOL    HW1 2015   2.479   1.663   2.294 -0.6146 -0.3062  3.2645
  672SOL    HW2 2016   2.403   1.515   2.303 -0.0049  2.6718  1.7008
  673SOL     OW 2017   2.629   1.752   2.219  0.5282  0.2785  0.3009
  673SOL    HW1 2018   2.648   1.841   2.265 -0.5916  0.2599  0.5711
  673SOL    HW2 2019   2.712   1.702   2.241  1.7814 -0.6338  0.2365
  674SOL     OW 2020   1.102   2.884   2.425 -0.6828 -0.0835  0.0191
  674SOL    HW1 2021   1.008   2.919   2.430 -0.8647  0.5717 -0.9248
  674SOL    HW2 2022   1.137   2.915   2.333 -0.3854 -1.6715 -1.8719
  675SOL     OW 2023   0.545   1.001   1.213 -0.4188 -0.3132 -0.4608
  675SOL    HW1 2024   0.591   1.001   1.122 -0.7970  1.3498 -0.6119
  675SOL    HW2 2025   0.575   0.929   1.271  0.3234  1.6520 -1.7406
  676SOL     OW 2026   1.991   0.619   0.827 -0.2383 -0.3004 -0.0480
  676SOL    HW1 2027   1.913   0.554   0.835  0.3374  0.7325  1.7128
  676SOL    HW2 2028   2.020   0.634   0.924  0.3460 -1.6220 -2.0094
  677SOL     OW 2029   2.569   1.583   2.827  0.6161 -0.3582 -0.1494
  677SOL    HW1 2030   2.618   1.501   2.861  1.7417  3.6186 -2.3815
  677SOL    HW2 2031   2.491   1.562   2.769 -3.5518  2.9781  5.0538
  678SOL     OW 2032   3.063   0.070   1.022  0.3726 -0.5374 -0.2035
  678SOL    HW1 2033   2.992   0.099   0.955  0.4110  1.6649  0.0031
  678SOL    HW2 2034   3.098   3.084   0.996 -1.4662  1.6043  1.6319
  679SOL     OW 2035   2.411   0.011   0.405 -0.4583 -0.4441  0.1306
  679SOL    HW1 2036   2.438   0.083   0.341 -0.2265 -1.1589  0.7999
  679SOL    HW2 2037   2.473   0.012   0.486 -0.3041  0.0958  0.3607
  680SOL     OW 2038   0.299   2.336   2.023 -0.0603  0.1390  0.5566
  680SOL    HW1 2039   0.341   2.253   1.979 -1.1139 -0.1702  1.2590
  680SOL    HW2 2040   0.200   2.315   2.025  3.8016  0.5049  0.5275
  681SOL     OW 2041   2.771   1.690   1.316 -0.3800 -0.5349 -0.4718
  681SOL    HW1 2042   2.847   1.757   1.283  1.5714  1.6987 -0.9925
  681SOL    HW2 2043   2.685   1.746   1.308  1.2099  0.9213 -1.3273
  682SOL     OW 2044   0.039   2.276   1.994  0.3341 -0.4758  0.0099
  682SOL    HW1 2045   0.025   2.302   1.895  1.0261 -1.1662 -2.0261
  682SOL    HW2 2046   3.073   2.211   2.022  0.1701  1.0817 -0.7778
  683SOL     OW 2047   2.882   2.165   1.775 -0.2306 -0.4350  0.2119
  683SOL    HW1 2048   2.960   2.229   1.783  2.2861  0.8111  0.9035
  683SOL    HW2 2049   2.849   2.157   1.681  0.2277 -1.3356  1.2511
  684SOL     OW 2050   2.355   1.542   2.616 -0.0545 -0.1774  0.1646
  684SOL    HW1 2051   2.367   1.556   2.515 -2.3540  1.0006  0.4699
  684SOL    HW2 2052   2.365   1.451   2.643  0.0973  1.6834 -2.0170
  685SOL     OW 2053   1.538   1.047   0.342 -0.0406  0.6818 -0.4425
  685SOL    HW1 2054   1.474   1.008   0.414  0.5971 -1.3154 -0.0129
  685SOL    HW2 2055   1.623   1.084   0.384  0.0602  1.9686 -2.4446
  686SOL     OW 2056   0.597   0.126   0.771 -0.1725 -0.2598  0.2176
  686SOL    HW1 2057   0.599   0.227   0.784 -1.0482  0.5760  0.8796
  686SOL    HW2 2058   0.503   0.093   0.759 -0.0615  0.0136  1.9215
  687SOL     OW 2059   1.347   1.222   2.168  0.1669  0.0710  0.5233
  687SOL    HW1 2060   1.409   1.287   2.220  1.7819  0.7211  1.2295
  687SOL    HW2 2061   1.279   1.183   2.227  2.0475  1.3386 -0.7042
  688SOL     OW 2062   1.172   1.799   1.445 -0.5090 -1.0849  0.0133
  688SOL    HW1 2063   1.241   1.729   1.406  0.5092 -0.2563 -0.9809
  688SOL    HW2 2064   1.079   1.764   1.435 -0.1404  0.6194  0.7118
  689SOL     OW 2065   2.066   0.379   1.406 -0.8026 -0.0834 -0.2735
  689SOL    HW1 2066   2.085   0.372   1.303  0.8251  2.0421 -1.0890
  689SOL    HW2 2067   1.976   0.418   1.425 -0.6726 -2.3669 -0.2650
  690SOL     OW 2068   2.946   1.317   1.208 -0.4366  0.0069  0.4098
  690SOL    HW1 2069   2.934   1.256   1.288  3.1531 -1.0578 -0.8684
  690SOL    HW2 2070   2.993   1.260   1.135 -2.9197 -0.4980 -0.3161
  691SOL     OW 2071   0.401   2.437   1.030  0.0754  0.0846 -0.0068
  691SOL    HW1 2072   0.487   2.383   1.010  1.8285  1.6662  0.4647
  691SOL    HW2 2073   0.325   2.404   0.967  0.2234 -2.4898 -2.0291
  692SOL     OW 2074   2.248   0.454   1.593  0.5808  0.6005  0.5807
  692SOL    HW1 2075   2.170   0.409   1.540 -0.1109  2.1831 -1.0075
  692SOL    HW2 2076   2.229   0.465   1.692 -2.2358 -0.8147 -1.7358
  693SOL     OW 2077   0.276   1.856   2.038 -0.1331 -0.2254  0.2813
  693SOL    HW1 2078   0.257   1.761   2.010 -0.1357 -0.0986 -0.1095
  693SOL    HW2 2079   0.191   1.902   2.086 -4.0021  1.7556  2.7946
  694SOL     OW 2080   1.606   1.401   1.767  0.7380  0.2864 -0.0630
  694SOL    HW1 2081   1.662   1.474   1.810  1.0427  1.3225 -0.3187
  694SOL    HW2 2082   1.527   1.371   1.825  0.6392 -0.4471  1.0216
  695SOL     OW 2083   0.623   0.944   0.969 -0.3027 -0.4311  0.2235
  695SOL    HW1 2084   0.561   0.965   0.891  1.3577 -1.4862  1.3129
  695SOL    HW2 2085   0.630   0.842   0.985 -0.2982 -0.6974 -0.5087
  696SOL     OW 2086   1.605   3.077   0.857 -0.0133  0.6686 -0.7047
  696SOL    HW1 2087   1.674   3.083   0.930 -2.6200  1.5487 -1.4188
  696SOL    HW2 2088   1.555   2.986   0.869  0.1163 -0.3792 -0.0746
  697SOL     OW 2089   1.124   0.434   1.330  0.0100  0.0186 -0.3114
  697SOL    HW1 2090   1.074   0.420   1.417 -0.1047 -1.4739 -0.5354
  697SOL    HW2 2091   1.172   0.347   1.308 -0.6032  0.1947 -0.1627
  698SOL     OW 2092   1.765   1.273   2.021 -0.1715 -0.3242  0.7703
  698SOL    HW1 2093   1.677   1.226   2.002  1.2066 -1.1188  2.1624
  698SOL    HW2 2094   1.771   1.321   2.110  2.0799 -0.8409 -0.3856
  699SOL     OW 2095   2.043   0.730   1.521 -0.2856  0.4817 -0.0562
  699SOL    HW1 2096   2.128   0.724   1.467 -0.0580  1.1946  1.2053
  699SOL    HW2 2097   2.003   0.823   1.529  1.1306 -1.2266  0.1597
  700SOL     OW 2098   0.988   2.336   0.083  0.0285 -0.2381  0.2677
  700SOL    HW1 2099   1.038   2.383   0.157 -1.3253  1.3601 -0.8882
  700SOL    HW2 2100   1.004   2.238   0.081 -2.2721  1.7858 -2.1124
  701SOL     OW 2101   2.168   2.464   2.599 -0.6481 -0.0236  0.2846
  701SOL    HW1 2102   2.192   2.557   2.577 -2.6080 -2.6111 -0.8036
  701SOL    HW2 2103   2.086   2.465   2.658  2.7555 -1.3914 -2.3776
  702SOL     OW 2104   0.940   0.054   1.051 -0.0446  0.0017  0.2567
  702SOL    HW1 2105   0.973   0.151   1.041 -0.2416 -1.4459 -2.7984
  702SOL    HW2 2106   1.013   3.094   1.019 -1.4457 -1.0645 -1.8219
  703SOL     OW 2107   2.033   0.310   2.366 -0.1712 -0.2245 -0.2430
  703SOL    HW1 2108   2.135   0.320   2.377 -1.0143 -0.6818  0.6271
  703SOL    HW2 2109   2.004   0.233   2.300  2.5138 -3.2035 -0.1786
  704SOL     OW 2110   2.849   2.576   0.494 -0.1459  0.0225 -0.1858
  704SOL    HW1 2111   2.888   2.637   0.424 -0.1746 -2.2462 -0.4363
  704SOL    HW2 2112   2.924   2.525   0.536 -2.4821 -2.1075  0.6704
  705SOL     OW 2113   2.587   0.089   2.221 -0.8370  0.1160 -0.3278
  705SOL    HW1 2114   2.501   0.147   2.208 -3.3248 -1.6840  1.5005
  705SOL    HW2 2115   2.563   3.096   2.253  0.7005 -1.6990  1.0921
  706SOL     OW 2116   2.262   2.845   1.381 -0.4259  0.5904 -0.6033
  706SOL    HW1 2117   2.211   2.760   1.420 -2.5879  0.7695 -0.4024
  706SOL    HW2 2118   2.211   2.878   1.299 -1.0383 -0.8967 -2.7810
  707SOL     OW 2119   0.693   2.815   2.393  0.2179  0.2293 -0.7126
  707SOL    HW1 2120   0.593   2.835   2.402 -0.6705  0.5690 -2.1366
  707SOL    HW2 2121   0.745   2.902   2.414  0.8064  1.1630  2.1654
  708SOL     OW 2122   2.775   2.452   1.841 -0.0397  0.5695  0.0257
  708SOL    HW1 2123   2.686   2.407   1.817 -1.9734  0.1764  1.6338
  708SOL    HW2 2124   2.853   2.392   1.853 -1.2103 -0.8737 -1.5901
  709SOL     OW 2125   1.666   0.253   1.497 -0.2721  0.3441 -0.2860
  709SOL    HW1 2126   1.691   0.317   1.570  0.5191 -0.3171 -2.5089
  709SOL    HW2 2127   1.567   0.239   1.497  0.5123  1.0571  0.3617
  710SOL     OW 2128   1.194   0.154   2.952 -0.2978 -0.3176  0.7130
  710SOL    HW1 2129   1.142   0.196   2.880  1.1720  2.1823  0.0486
  710SOL    HW2 2130   1.151   0.064   2.983 -1.2318 -1.8183  0.9902
  711SOL     OW 2131   0.746   1.745   2.433 -0.0306 -0.5271 -0.0719
  711SOL    HW1 2132   0.796   1.783   2.511  1.3393 -0.7683 -0.3696
  711SOL    HW2 2133   0.652   1.788   2.430 -0.6945  2.9475 -0.3537
  712SOL     OW 2134   0.870   1.815   2.660 -0.3414 -0.1917  0.3973
  712SOL    HW1 2135   0.802   1.777   2.725  0.1475  1.3845  0.6996
  712SOL    HW2 2136   0.965   1.792   2.688  0.9306  1.4206  1.7450
  713SOL     OW 2137   1.845   1.141   2.716  0.0801 -0.4764  0.3726
  713SOL    HW1 2138   1.739   1.141   2.716 -4.1566  1.5319  1.6886
  713SOL    HW2 2139   1.875   1.171   2.809 -0.7129 -0.2755 -0.6439
  714SOL     OW 2140   1.129   1.700   1.894 -0.4096 -0.3323  0.2849
  714SOL    HW1 2141   1.028   1.690   1.895 -1.2631 -0.1592 -0.9783
  714SOL    HW2 2142   1.159   1.796   1.863  2.0859  0.3832  0.4471
  715SOL     OW 2143   2.001   0.337   0.008 -0.2892  0.2250  0.1618
  715SOL    HW1 2144   2.091   0.301   0.024 -3.8734 -0.0630 -3.9088
  715SOL    HW2 2145   1.956   0.298   3.029  2.7760 -1.5075  4.0732
  716SOL     OW 2146   2.894   2.457   1.551 -0.1728 -0.7006 -0.3394
  716SOL    HW1 2147   2.826   2.526   1.591 -3.4291  0.2308 -0.3382
  716SOL    HW2 2148   2.900   2.473   1.450  0.8445  1.5636 -1.1942
  717SOL     OW 2149   2.627   1.052   0.772  0.1067 -0.1405 -0.2090
  717SOL    HW1 2150   2.553   1.026   0.838 -2.4294  1.5015  0.4198
  717SOL    HW2 2151   2.604   1.018   0.679 -0.0623 -1.5894 -2.3367
  718SOL     OW 2152   1.170   1.983   1.862 -0.5316 -0.0398 -0.7070
  718SOL    HW1 2153   1.103   2.024   1.797 -1.5563  1.3899  3.4205
  718SOL    HW2 2154   1.161   2.035   1.947 -1.9729  2.5122 -1.8072
  719SOL     OW 2155   2.424   0.424   2.934  0.1792  0.7068 -0.5186
  719SOL    HW1 2156   2.359   0.373   2.993 -0.8213 -0.6502  0.6692
  719SOL    HW2 2157   2.525   0.417   2.969  4.2407 -1.5003 -0.4336
  720SOL     OW 2158   0.995   0.333   1.073  0.4977  0.5968  0.0444
  720SOL    HW1 2159   1.038   0.397   1.142 -2.2654  0.1351  1.9510
  720SOL    HW2 2160   1.020   0.353   0.976 -1.8944  1.5997 -0.6917
  721SOL     OW 2161   2.748   0.733   0.487 -0.3196 -0.2501 -0.2156
  721SOL    HW1 2162   2.705   0.731   0.395 -0.3006  0.7783 -0.6611
  721SOL    HW2 2163   2.850   0.719   0.477 -1.0039 -2.6178  1.5598
  722SOL     OW 2164   0.409   2.611   2.597 -0.2245  0.6557 -0.1775
  722SOL    HW1 2165   0.433   2.525   2.549 -0.1662  3.0538 -0.2785
  722SOL    HW2 2166   0.418   2.691   2.534 -0.7202  0.6793  0.1578
  723SOL     OW 2167   1.585   0.386   0.665 -0.5069  0.2735 -0.1724
  723SOL    HW1 2168   1.628   0.304   0.626 -0.2914  0.0498  0.1052
  723SOL    HW2 2169   1.529   0.435   0.597  2.2113 -2.4230  0.1885
  724SOL     OW 2170   0.861   1.663   1.964  0.5793 -0.0817  0.3600
  724SOL    HW1 2171   0.896   1.658   2.057  0.3547  0.8756 -2.9016
  724SOL    HW2 2172   0.766   1.685   1.951  2.1076 -2.3696  1.6070
  725SOL     OW 2173   1.523   3.022   1.233 -0.1635 -0.0566  0.3100
  725SOL    HW1 2174   1.551   3.033   1.333 -3.8740 -2.6431  1.2553
  725SOL    HW2 2175   1.573   2.947   1.190 -0.4922  2.0014  0.7954
  726SOL     OW 2176   2.348   2.907   0.237 -0.5577 -0.5195 -0.2926
  726SOL    HW1 2177   2.361   2.994   0.292 -1.7669  1.0271  0.7909
  726SOL    HW2 2178   2.388   2.828   0.286 -0.3842  1.9645 -0.6573
  727SOL     OW 2179   1.463   1.875   0.718 -0.1494  0.3139  0.3219
  727SOL    HW1 2180   1.549   1.927   0.706 -0.5833  0.8590 -1.6123
  727SOL    HW2 2181   1.465   1.787   0.666  0.8054  1.5914  0.9899
  728SOL     OW 2182   2.112   2.762   2.119 -0.2002  0.5706 -0.3505
  728SOL    HW1 2183   2.160   2.747   2.030  4.0247 -0.5530  2.3355
  728SOL    HW2 2184   2.181   2.805   2.187 -0.1358  1.8987 -0.5499
  729SOL     OW 2185   1.786   2.099   1.345  0.0371  0.2644  0.2667
  729SOL    HW1 2186   1.694   2.145   1.349 -0.4383  0.2688  0.8044
  729SOL    HW2 2187   1.778   1.997   1.325 -2.3382 -1.8790 -0.0080
  730SOL     OW 2188   1.652   0.963   3.078  0.5029  0.5116  0.5454
  730SOL    HW1 2189   1.657   0.941   0.074 -1.3545 -0.0231  0.4861
  730SOL    HW2 2190   1.733   0.916   3.034  1.1616 -0.3586  0.7674
  731SOL     OW 2191   0.816   0.012   1.293  0.1657  0.3159  0.5039
  731SOL    HW1 2192   0.892   0.011   1.223 -1.6099 -1.2605 -2.4703
  731SOL    HW2 2193   0.796   3.016   1.308  2.8370  2.3650 -1.1770
  732SOL     OW 2194   1.398   0.345   1.069 -0.4833  0.0805  0.2157
  732SOL    HW1 2195   1.371   0.439   1.096 -1.5804 -0.9931 -0.2252
  732SOL    HW2 2196   1.352   0.318   0.979  0.0334 -2.3320  2.5636
  733SOL     OW 2197   0.883   1.213   1.257 -0.8289  0.1681  0.0440
  733SOL    HW1 2198   0.913   1.119   1.219  1.2372 -1.2441  0.7453
  733SOL    HW2 2199   0.792   1.233   1.221  1.4676  0.1090 -1.4948
  734SOL     OW 2200   2.660   2.618   2.747  0.0903 -0.6508  0.5459
  734SOL    HW1 2201   2.741   2.643   2.800 -1.3409  0.0564 -0.7477
  734SOL    HW2 2202   2.652   2.517   2.744 -1.4307  0.5182 -0.7012
  735SOL     OW 2203   1.206   2.902   1.198 -0.1804 -1.0096 -0.1700
  735SOL    HW1 2204   1.196   2.947   1.107  2.0574  3.1516  1.4621
  735SOL    HW2 2205   1.280   2.950   1.248 -1.0614 -1.7990 -1.4159
  736SOL     OW 2206   1.804   1.943   0.043 -0.6198 -0.2375 -0.3162
  736SOL    HW1 2207   1.730   2.006   0.070 -1.4213 -0.4315 -1.1922
  736SOL    HW2 2208   1.859   1.914   0.128 -0.4481  2.5112  1.5889
  737SOL     OW 2209   2.956   1.980   1.478 -0.0197  0.6535 -0.0689
  737SOL    HW1 2210   2.939   1.963   1.381  0.7377  1.2554  0.1353
  737SOL    HW2 2211   2.902   2.062   1.503 -0.4361  0.6853 -0.1697
  738SOL     OW 2212   1.637   2.423   2.648 -0.3833  0.2137  0.1892
  738SOL    HW1 2213   1.652   2.469   2.739 -1.2911 -0.8580  1.1322
  738SOL    HW2 2214   1.646   2.488   2.565  1.3149 -0.6152 -5.9974
  739SOL     OW 2215   1.128   2.043   2.560 -0.3812  0.4623  0.3549
  739SOL    HW1 2216   1.209   2.007   2.617  1.8615 -1.2561 -0.4272
  739SOL    HW2 2217   1.038   1.993   2.569 -0.6502  3.1134  2.8759
  740SOL     OW 2218   1.233   2.695   0.898 -0.1874  0.1492 -0.4975
  740SOL    HW1 2219   1.133   2.698   0.871 -1.7051  1.6835 -0.8556
  740SOL    HW2 2220   1.283   2.644   0.826 -2.1132 -0.9772 -2.3264
  741SOL     OW 2221   0.113   1.076   0.288 -0.2230  0.0639  0.4763
  741SOL    HW1 2222   0.030   1.023   0.305  2.7706  2.6829  0.1615
  741SOL    HW2 2223   0.090   1.163   0.236  0.4655 -2.2257 -0.4240
  742SOL     OW 2224   0.914   1.603   2.235 -0.1664  0.2341 -0.2932
  742SOL    HW1 2225   1.014   1.625   2.248 -2.6638  0.4317 -0.0195
  742SOL    HW2 2226   0.855   1.656   2.302 -0.8575 -0.1850  4.4526
  743SOL     OW 2227   0.990   0.965   2.351 -0.4113  0.8218  0.0078
  743SOL    HW1 2228   1.015   0.912   2.436 -1.1212  2.4444  2.4569
  743SOL    HW2 2229   1.064   0.948   2.278  2.8109 -0.2394  0.6354
  744SOL     OW 2230   2.334   3.064   1.549  0.2951 -0.0526 -0.3269
  744SOL    HW1 2231   2.423   3.055   1.595  1.0203  0.1513 -0.4122
  744SOL    HW2 2232   2.304   2.978   1.500 -2.7555 -1.3094 -2.0281
  745SOL     OW 2233   1.956   1.360   1.282 -0.0807  0.7324  0.2132
  745SOL    HW1 2234   1.881   1.411   1.235  1.9042  4.2214 -1.0080
  745SOL    HW2 2235   1.923   1.307   1.365 -1.9915 -0.1186  0.3410
  746SOL     OW 2236   2.000   1.089   0.662 -0.5918 -0.0537 -0.4255
  746SOL    HW1 2237   2.091   1.129   0.646  0.2661  0.9657  2.6172
  746SOL    HW2 2238   1.995   0.988   0.647 -0.6442  1.5438 -1.5631
  747SOL     OW 2239   2.256   1.689   0.646  0.3170 -1.3397  0.7232
  747SOL    HW1 2240   2.213   1.609   0.692  0.9191  0.6680  2.7949
  747SOL    HW2 2241   2.189   1.768   0.647  1.0922  4.1360  2.2421
  748SOL     OW 2242   0.383   1.902   0.263  0.0835 -0.1043 -0.2464
  748SOL    HW1 2243   0.306   1.886   0.327  0.2862 -1.9018  3.5066
  748SOL    HW2 2244   0.414   1.809   0.224  2.0113 -0.5510  0.2591
  749SOL     OW 2245   0.007   2.353   2.778  0.2542 -0.1704 -0.1091
  749SOL    HW1 2246   3.061   2.288   2.839 -2.1474  0.5467 -2.4567
  749SOL    HW2 2247   3.095   2.450   2.808 -0.9216 -0.8593  2.6788
  750SOL     OW 2248   2.198   0.898   0.919  0.1660 -0.4546 -0.4191
  750SOL    HW1 2249   2.157   0.815   0.877 -0.3589  1.2381 -2.8112
  750SOL    HW2 2250   2.163   0.916   1.010  1.0092 -3.6781 -2.9376
  751SOL     OW 2251   2.694   0.021   0.118  0.4008 -0.2003 -0.0068
  751SOL    HW1 2252   2.649   3.103   0.025  0.3162 -0.1469 -3.8726
  751SOL    HW2 2253   2.730   3.040   0.161 -0.5656  1.2029  1.0174
  752SOL     OW 2254   2.401   2.907   0.703 -0.2210  0.5424  0.4090
  752SOL    HW1 2255   2.344   2.937   0.781 -1.8121  0.8435  0.5948
  752SOL    HW2 2256   2.342   2.854   0.639  0.0240 -0.3564 -0.7508
  753SOL     OW 2257   1.784   1.399   2.247 -0.2089 -0.0859  0.1360
  753SOL    HW1 2258   1.833   1.376   2.332 -0.3191 -3.7337  0.9675
  753SOL    HW2 2259   1.791   1.500   2.225  3.2221 -1.4954 -1.0996
  754SOL     OW 2260   2.144   2.323   1.674  0.4719 -0.3310  0.0403
  754SOL    HW1 2261   2.203   2.258   1.624 -0.5746  0.8035 -0.7753
  754SOL    HW2 2262   2.059   2.276   1.709 -0.0750  0.1158 -1.2026
  755SOL     OW 2263   2.518   0.907   1.205  0.3901 -0.1277  0.6488
  755SOL    HW1 2264   2.504   0.912   1.102 -1.4919  0.5772 -0.6913
  755SOL    HW2 2265   2.476   0.983   1.252  2.9938 -0.9955 -2.0237
  756SOL     OW 2266   1.142   1.363   2.839  0.1098  0.9630 -0.6135
  756SOL    HW1 2267   1.097   1.361   2.930  1.4643  0.7865  0.4769
  756SOL    HW2 2268   1.102   1.426   2.775  1.3401 -1.3048  3.2860
  757SOL     OW 2269   1.666   2.633   0.975 -0.2474 -0.3910 -0.3411
  757SOL    HW1 2270   1.728   2.618   0.896  0.6632  2.8275 -0.9661
  757SOL    HW2 2271   1.669   2.564   1.048 -0.9988 -0.6335  0.3403
  758SOL     OW 2272   0.896   2.383   1.282 -0.0529  0.0418  0.1027
  758SOL    HW1 2273   0.984   2.430   1.283 -1.3658 -2.1400 -2.5113
  758SOL    HW2 2274   0.907   2.299   1.229  1.3062 -1.5329 -0.5734
  759SOL     OW 2275   2.403   1.266   1.078  0.2119  0.0416 -0.0023
  759SOL    HW1 2276   2.458   1.297   1.158  2.5860  2.1950  1.6415
  759SOL    HW2 2277   2.303   1.263   1.097 -0.2172  1.4846 -2.8282
  760SOL     OW 2278   1.870   1.017   1.847  0.2537 -0.1612  0.0452
  760SOL    HW1 2279   1.972   1.000   1.856 -1.0924 -0.0762  1.0940
  760SOL    HW2 2280   1.833   1.066   1.930 -0.0942 -0.0585 -0.8646
  761SOL     OW 2281   2.098   2.787   0.346 -0.5357  0.3170 -0.1412
  761SOL    HW1 2282   2.024   2.748   0.293  3.5308  1.3100  1.3525
  761SOL    HW2 2283   2.169   2.826   0.284 -2.2158  1.6371 -0.1279
  762SOL     OW 2284   1.985   1.680   3.051  0.6474  0.2858  0.1548
  762SOL    HW1 2285   1.886   1.651   3.053  0.3007  1.7271 -1.0935
  762SOL    HW2 2286   2.011   1.712   2.955  0.7243 -1.3843 -0.9175
  763SOL     OW 2287   0.468   1.580   1.239 -0.2377  0.2074  0.1729
  763SOL    HW1 2288   0.373   1.542   1.234 -3.1123 -1.3595  2.4147
  763SOL    HW2 2289   0.516   1.553   1.328  1.0980 -0.5498 -0.2183
  764SOL     OW 2290   0.066   2.454   0.019  0.1451 -0.8275 -0.8252
  764SOL    HW1 2291   3.075   2.490   0.027  1.3197  3.1235 -0.8523
  764SOL    HW2 2292   0.100   2.479   3.033 -0.2862  0.7444  0.9292
  765SOL     OW 2293   0.686   3.052   1.524  0.1815  0.0144  0.4808
  765SOL    HW1 2294   0.732   0.001   1.445  3.4301 -0.4768 -1.5740
  765SOL    HW2 2295   0.692   0.004   1.612  2.3166  1.6238  1.2394
  766SOL     OW 2296   2.974   2.116   2.140 -0.1869  0.4160  0.0607
  766SOL    HW1 2297   2.962   2.202   2.194  1.6690  1.3047  2.1997
  766SOL    HW2 2298   2.892   2.083   2.089  0.3322  1.2046 -2.1609
  767SOL     OW 2299   2.735   1.138   1.986 -0.2125  0.3911 -0.0682
  767SOL    HW1 2300   2.643   1.104   1.960  2.3862 -0.9930 -0.1084
  767SOL    HW2 2301   2.766   1.202   1.916 -3.5983 -1.2217  2.2401
  768SOL     OW 2302   0.780   0.160   2.863  0.0585  0.2046 -0.0598
  768SOL    HW1 2303   0.729   0.237   2.909  0.3675 -0.1974  0.2262
  768SOL    HW2 2304   0.877   0.187   2.850  0.4403  0.6750 -0.2742
  769SOL     OW 2305   2.181   2.756   1.050 -0.2786  0.7647  0.5024
  769SOL    HW1 2306   2.278   2.754   1.014  0.8304 -2.6662 -0.0945
  769SOL    HW2 2307   2.155   2.841   1.098  2.6399 -4.3948 -1.4918
  770SOL     OW 2308   2.771   0.050   2.688 -0.1217 -0.3244 -0.2869
  770SOL    HW1 2309   2.737   0.134   2.637 -1.0759 -0.8086 -0.1144
  770SOL    HW2 2310   2.869   0.047   2.717 -1.6078  1.0420 -0.6325
  771SOL     OW 2311   1.728   2.111   1.979  0.1066 -0.3126  0.2918
  771SOL    HW1 2312   1.705   2.101   1.877 -1.3457  0.8992 -1.4744
  771SOL    HW2 2313   1.643   2.112   2.032 -0.0104 -4.6947  0.4614
  772SOL     OW 2314   1.285   0.338   0.338 -0.0664 -0.4955 -0.0815
  772SOL    HW1 2315   1.238   0.249   0.365  0.0620 -3.5620  0.7376
  772SOL    HW2 2316   1.225   0.386   0.270 -0.6265  0.1255  1.0233
  773SOL     OW 2317   2.619   0.837   1.883 -0.3038 -0.3823  0.2317
  773SOL    HW1 2318   2.645   0.806   1.978  2.8497 -1.2968 -1.0740
  773SOL    HW2 2319   2.622   0.758   1.820  1.5156  1.0009  0.7408
  774SOL     OW 2320   1.117   1.217   0.831 -1.2877  0.4012 -0.0394
  774SOL    HW1 2321   1.080   1.301   0.869  1.8336 -0.1910 -0.5877
  774SOL    HW2 2322   1.055   1.137   0.846  0.4870  0.2272  0.4749
  775SOL     OW 2323   2.498   3.072   2.979  0.7847  0.2036 -0.0274
  775SOL    HW1 2324   2.399   3.101   2.978  2.7134 -1.5290  1.8014
  775SOL    HW2 2325   2.512   2.980   2.932 -0.9995 -0.8759 -1.6452
  776SOL     OW 2326   2.424   1.459   2.050  0.0193  0.0726 -0.3600
  776SOL    HW1 2327   2.379   1.434   2.140 -1.2525 -3.8510 -2.3854
  776SOL    HW2 2328   2.400   1.385   1.978 -1.1507  1.3465 -1.4580
  777SOL     OW 2329   0.382   1.128   2.533  0.4904 -1.2520 -0.3925
  777SOL    HW1 2330   0.386   1.164   2.439  1.9300 -1.1963 -2.0445
  777SOL    HW2 2331   0.468   1.078   2.556  0.3209  1.4209  1.3030
  778SOL     OW 2332   0.562   0.574   0.085 -0.0880 -0.4646  0.2297
  778SOL    HW1 2333   0.652   0.545   0.050 -3.0745 -1.3797  0.7413
  778SOL    HW2 2334   0.487   0.547   0.022  1.8438  1.2621  1.5567
  779SOL     OW 2335   0.384   0.446   2.529  0.3545 -0.0084  0.2228
  779SOL    HW1 2336   0.463   0.486   2.578  0.9978 -0.4249 -0.4115
  779SOL    HW2 2337   0.401   0.351   2.494 -3.0660 -0.1285  2.1711
  780SOL     OW 2338   2.234   0.783   2.697  0.2458  0.3064 -0.0663
  780SOL    HW1 2339   2.240   0.826   2.787  0.1530 -0.9932 -2.8565
  780SOL    HW2 2340   2.276   0.690   2.699 -1.5246 -1.1870  0.2929
  781SOL     OW 2341   2.914   0.887   1.890  0.2106  0.0057  0.8614
  781SOL    HW1 2342   2.827   0.931   1.863  1.0634  1.4103  2.0983
  781SOL    HW2 2343   2.990   0.951   1.897  0.8771 -0.8673 -2.4110
  782SOL     OW 2344   0.706   1.523   2.605  0.1870 -0.1122 -0.6229
  782SOL    HW1 2345   0.673   1.586   2.679 -4.4144 -2.7923 -1.2939
  782SOL    HW2 2346   0.703   1.579   2.513 -0.5683 -0.1714 -1.4638
  783SOL     OW 2347   1.033   2.745   1.335 -0.0251 -0.0776 -0.3385
  783SOL    HW1 2348   1.097   2.802   1.279 -2.2482 -3.2783  1.6261
  783SOL    HW2 2349   1.067   2.652   1.334  2.1516 -1.9995  1.7107
  784SOL     OW 2350   1.458   0.396   0.107  0.0233  0.1025  0.5282
  784SOL    HW1 2351   1.412   0.377   0.194 -1.1416 -0.7873 -1.8627
  784SOL    HW2 2352   1.528   0.473   0.115  2.8867  1.7634  0.6899
  785SOL     OW 2353   0.922   0.312   1.937 -0.2572  0.0893 -0.3672
  785SOL    HW1 2354   0.967   0.318   1.847 -2.3352 -1.3215 -0.4057
  785SOL    HW2 2355   0.848   0.381   1.946 -0.1204  1.4679 -1.0570
  786SOL     OW 2356   0.639   2.021   0.341 -0.3333  0.0324 -0.2878
  786SOL    HW1 2357   0.541   1.988   0.343 -2.4868  2.8553  0.2445
  786SOL    HW2 2358   0.648   2.121   0.361 -1.7988  1.0247  2.6923
  787SOL     OW 2359   1.368   0.992   0.542  0.3670 -0.0809  0.4445
  787SOL    HW1 2360   1.371   1.071   0.604 -0.0286  0.9239 -0.5287
  787SOL    HW2 2361   1.397   0.915   0.602 -1.5458  0.7536  1.3169
  788SOL     OW 2362   2.339   1.578   1.388  0.6108 -0.4950  0.2573
  788SOL    HW1 2363   2.392   1.489   1.380 -1.0230 -2.5046  1.7754
  788SOL    HW2 2364   2.344   1.621   1.483 -0.1006  2.7762 -2.0195
  789SOL     OW 2365   2.900   1.082   2.174 -0.0032  0.1435 -0.2497
  789SOL    HW1 2366   2.837   1.086   2.091 -3.0219  4.0369 -1.0263
  789SOL    HW2 2367   2.902   1.175   2.222 -2.8563 -0.6424  0.7267
  790SOL     OW 2368   0.766   2.878   0.001  0.3499  0.1792 -0.3758
  790SOL    HW1 2369   0.682   2.818   0.024 -2.2966 -2.5959 -1.1978
  790SOL    HW2 2370   0.828   2.870   0.076  1.4182  1.5996 -2.6952
  791SOL     OW 2371   0.341   0.821   3.085 -0.0393 -0.1096  0.1706
  791SOL    HW1 2372   0.353   0.917   0.002  0.8304  0.3381 -0.5354
  791SOL    HW2 2373   0.362   0.799   2.986  2.2902  3.2670 -2.6341
  792SOL     OW 2374   1.571   0.622   2.648 -0.0957 -0.2475 -0.8082
  792SOL    HW1 2375   1.492   0.684   2.636 -3.4395  1.7940  0.6942
  792SOL    HW2 2376   1.650   0.675   2.613 -1.3373 -2.3011 -0.5971
  793SOL     OW 2377   2.966   0.526   0.713  0.2451 -0.0181  0.3216
  793SOL    HW1 2378   3.059   0.533   0.741 -2.1511  0.2659 -1.0743
  793SOL    HW2 2379   2.914   0.615   0.706  1.2066  2.3849 -0.9734
  794SOL     OW 2380   0.325   0.426   1.857 -0.1145  0.1056  0.7700
  794SOL    HW1 2381   0.405   0.471   1.808  2.2653  1.6612  2.2018
  794SOL    HW2 2382   0.234   0.467   1.838  0.9034  0.4764 -2.9093
  795SOL     OW 2383   0.231   1.414   3.090 -0.4055 -0.0845  0.2530
  795SOL    HW1 2384   0.321   1.411   0.028 -3.1987 -0.6285 -2.5484
  795SOL    HW2 2385   0.169   1.366   0.045  4.1125  0.9561 -0.4719
  796SOL     OW 2386   0.156   1.122   3.033  0.0089  0.3671 -0.2644
  796SOL    HW1 2387   0.075   1.075   3.078 -1.3361  1.0302 -1.4253
  796SOL    HW2 2388   0.129   1.196   2.971 -3.2009  0.1479  1.5808
  797SOL     OW 2389   1.575   2.504   2.915  0.4292 -0.0214 -0.0583
  797SOL    HW1 2390   1.608   2.585   2.969  2.0075 -0.8090 -2.4423
  797SOL    HW2 2391   1.487   2.532   2.875 -1.8005  2.0134 -0.7491
  798SOL     OW 2392   3.034   0.594   1.067  0.1758 -0.1656 -0.1412
  798SOL    HW1 2393   3.035   0.605   1.169  3.9319 -1.3516  2.4701
  798SOL    HW2 2394   2.969   0.655   1.020  2.2941 -1.5528 -0.8101
  799SOL     OW 2395   2.253   0.719   2.042 -0.2495  0.3530  0.5332
  799SOL    HW1 2396   2.242   0.808   2.095 -0.3649 -2.1112  3.1705
  799SOL    HW2 2397   2.298   0.740   1.952 -3.1748 -0.9815  0.3962
  800SOL     OW 2398   0.109   1.902   0.402 -0.2212 -0.5248  0.3235
  800SOL    HW1 2399   0.112   1.881   0.499 -1.8156 -0.5023 -3.4422
  800SOL    HW2 2400   0.053   1.836   0.349  0.7670  0.1664 -2.0689
  801SOL     OW 2401   1.735   2.046   0.749 -0.2535  0.4062 -0.0347
  801SOL    HW1 2402   1.789   2.115   0.689  0.6683 -0.5168 -0.1388
  801SOL    HW2 2403   1.780   2.030   0.838 -0.6181  0.6632  0.9539
  802SOL     OW 2404   1.374   1.587   2.719  0.1413  0.6093  0.5366
  802SOL    HW1 2405   1.388   1.486   2.725  1.6491  0.6563  0.5416
  802SOL    HW2 2406   1.428   1.643   2.784  1.1460  1.0276 -0.5778
  803SOL     OW 2407   0.198   2.026   1.739  0.2154 -0.3408 -0.6429
  803SOL    HW1 2408   0.253   2.061   1.817  1.1803  0.1690 -1.3467
  803SOL    HW2 2409   0.253   1.972   1.674  2.5490  1.1304  2.3689
  804SOL     OW 2410   1.309   2.537   1.098  0.1586  0.6815  0.1724
  804SOL    HW1 2411   1.376   2.469   1.051  2.2245 -0.1323  1.1246
  804SOL    HW2 2412   1.271   2.606   1.030 -1.8030 -0.2917 -2.1650
  805SOL     OW 2413   2.288   2.054   2.671 -0.0912  0.1584 -0.0307
  805SOL    HW1 2414   2.261   2.080   2.573  0.8617 -1.2735  0.1069
  805SOL    HW2 2415   2.242   2.110   2.740  0.6694 -0.9875 -2.5010
  806SOL     OW 2416   2.304   3.084   0.906  0.0510 -0.2866  0.3638
  806SOL    HW1 2417   2.366   3.090   0.989  2.2426  0.2304 -0.0989
  806SOL    HW2 2418   2.303   0.074   0.860  1.0963  2.0708  0.2476
  807SOL     OW 2419   0.109   1.204   2.588 -0.7152  0.6276 -0.3713
  807SOL    HW1 2420   0.195   1.150   2.599  1.6727 -0.9652  2.8182
  807SOL    HW2 2421   0.035   1.146   2.552 -0.8688  0.4634  1.4484
  808SOL     OW 2422   0.629   1.791   0.743  0.5294  0.0515  0.1225
  808SOL    HW1 2423   0.695   1.748   0.805  0.4216  0.0237  0.1728
  808SOL    HW2 2424   0.667   1.868   0.695 -0.1075 -0.9121  2.0099
  809SOL     OW 2425   2.574   0.415   2.044  0.2440  0.4755  0.4128
  809SOL    HW1 2426   2.658   0.389   1.996  0.7856  1.3057  0.3967
  809SOL    HW2 2427   2.599   0.477   2.119  0.7954  0.6623 -1.3588
  810SOL     OW 2428   1.397   0.506   1.388 -0.3289  0.1853  0.4706
  810SOL    HW1 2429   1.304   0.461   1.398 -2.6436 -2.1792  0.5069
  810SOL    HW2 2430   1.398   0.594   1.436 -0.4818 -3.2398 -1.7243
  811SOL     OW 2431   2.009   0.077   1.935  0.4304  0.3747 -0.1729
  811SOL    HW1 2432   1.974   0.170   1.901 -1.4406  1.1409 -0.7336
  811SOL    HW2 2433   2.038   0.024   1.856 -1.3793  0.6291  2.9302
  812SOL     OW 2434   1.816   1.685   0.389  0.2268 -0.1347 -0.0788
  812SOL    HW1 2435   1.899   1.637   0.355 -1.5632 -0.6409  1.0086
  812SOL    HW2 2436   1.840   1.741   0.474  0.7821  0.5683  2.5095
  813SOL     OW 2437   1.179   0.545   1.880 -0.0935  0.0952  0.0786
  813SOL    HW1 2438   1.179   0.534   1.981  2.7606  0.5286 -0.8220
  813SOL    HW2 2439   1.258   0.605   1.852  1.1631  0.3062 -0.3315
  814SOL     OW 2440   0.387   0.066   1.146  0.3669  0.4965  0.2309
  814SOL    HW1 2441   0.390   3.101   1.069  0.0270 -2.8149 -2.5753
  814SOL    HW2 2442   0.443   0.150   1.123 -0.9591 -3.6513  1.4004
  815SOL     OW 2443   0.333   0.225   0.558  0.1500  0.0371 -0.6094
  815SOL    HW1 2444   0.366   0.137   0.610 -0.8721 -2.1774  2.0830
  815SOL    HW2 2445   0.408   0.280   0.513  1.3608 -2.8711 -0.2776
  816SOL     OW 2446   2.144   1.719   2.337 -0.4561  0.2805 -0.1889
  816SOL    HW1 2447   2.236   1.682   2.355 -3.3103  2.3281 -0.4965
  816SOL    HW2 2448   2.117   1.773   2.419 -1.1627 -0.9903 -1.7285
  817SOL     OW 2449   1.212   2.801   0.583 -0.3507  0.0644  0.3497
  817SOL    HW1 2450   1.281   2.871   0.554 -0.7226 -1.2462  3.1653
  817SOL    HW2 2451   1.258   2.718   0.607 -2.2014 -0.1638 -2.5558
  818SOL     OW 2452   1.676   0.594   2.912  0.5769  0.1189  0.1616
  818SOL    HW1 2453   1.624   0.578   2.822 -2.9151  1.3478 -5.8785
  818SOL    HW2 2454   1.769   0.627   2.882  0.3960 -1.5176  3.2353
  819SOL     OW 2455   2.282   0.279   0.004  0.1128 -0.1755 -0.6900
  819SOL    HW1 2456   2.350   0.273   0.080 -0.1190 -1.9311 -3.6480
  819SOL    HW2 2457   2.275   0.188   3.063 -0.4904 -1.2561 -0.4344
  820SOL     OW 2458   1.968   0.640   2.887 -0.1353 -0.1276  0.1571
  820SOL    HW1 2459   2.007   0.609   2.977 -0.5723 -1.4950 -1.8367
  820SOL    HW2 2460   1.995   0.581   2.805  0.0710 -1.2174 -1.1526
  821SOL     OW 2461   2.881   0.403   0.948  0.0576  0.2152 -0.1161
  821SOL    HW1 2462   2.955   0.433   1.010 -0.1972  1.2338 -0.5339
  821SOL    HW2 2463   2.864   0.473   0.877  0.5327 -0.5357  0.4656
  822SOL     OW 2464   0.880   2.388   2.318 -0.3397 -0.1851 -0.6751
  822SOL    HW1 2465   0.977   2.349   2.334  3.9420 -2.3184 -2.0648
  822SOL    HW2 2466   0.861   2.472   2.372 -0.2975 -1.0800 -1.1052
  823SOL     OW 2467   0.223   1.481   1.750  0.2059  0.0528 -0.2571
  823SOL    HW1 2468   0.179   1.478   1.843  0.8477 -1.0397 -1.2490
  823SOL    HW2 2469   0.186   1.404   1.695  1.7174 -1.0706  0.6149
  824SOL     OW 2470   1.531   2.745   2.390 -0.0187 -0.5406  0.4278
  824SOL    HW1 2471   1.455   2.700   2.436 -2.7524  0.4249 -2.1113
  824SOL    HW2 2472   1.621   2.714   2.426 -1.4093 -1.2863  2.1153
  825SOL     OW 2473   1.697   0.788   0.607  0.2080 -0.1954 -0.3833
  825SOL    HW1 2474   1.785   0.810   0.656 -1.3502 -2.2497 -0.2691
  825SOL    HW2 2475   1.713   0.728   0.525  0.6323  0.9317 -0.7126
  826SOL     OW 2476   2.017   0.813   0.194 -0.0702  0.3964  0.1141
  826SOL    HW1 2477   1.916   0.829   0.198  1.0347  0.3451 -0.2481
  826SOL    HW2 2478   2.038   0.718   0.161 -2.1166  2.5481 -0.5807
  827SOL     OW 2479   0.428   1.498   2.202  0.0267  0.0499 -0.1211
  827SOL    HW1 2480   0.466   1.592   2.216 -0.7185 -0.4637 -0.0074
  827SOL    HW2 2481   0.492   1.420   2.208 -0.4658 -0.6579 -0.2710
  828SOL     OW 2482   2.259   1.399   1.673  0.0371 -0.3193  0.2316
  828SOL    HW1 2483   2.295   1.496   1.687  1.7241  0.3455  0.2833
  828SOL    HW2 2484   2.316   1.337   1.730 -1.0615 -1.1657 -2.4000
  829SOL     OW 2485   0.169   1.537   0.585 -0.2051 -0.2945  0.0951
  829SOL    HW1 2486   0.150   1.496   0.679  0.4032  0.2367 -2.3868
  829SOL    HW2 2487   0.261   1.583   0.581 -0.9087 -0.3929 -1.1549
  830SOL     OW 2488   1.422   0.874   0.967 -0.2393 -0.1406 -0.0790
  830SOL    HW1 2489   1.373   0.961   0.982 -1.6643 -4.5941  0.6051
  830SOL    HW2 2490   1.501   0.873   1.034 -0.7006  2.9128  0.8181
  831SOL     OW 2491   3.011   1.688   0.036 -0.1896 -0.5048 -0.7222
  831SOL    HW1 2492   3.032   1.687   0.136 -1.1434  1.5206 -2.3010
  831SOL    HW2 2493   2.984   1.595   0.003  0.1244  0.9807 -0.1175
  832SOL     OW 2494   0.900   0.336   0.272  0.5376  0.7043 -0.1139
  832SOL    HW1 2495   0.909   0.394   0.358 -2.8219 -1.3802  0.6744
  832SOL    HW2 2496   0.892   0.237   0.296 -0.0755 -1.8479 -0.0786
  833SOL     OW 2497   0.870   0.556   2.112 -0.4130  0.0341  0.0993
  833SOL    HW1 2498   0.825   0.632   2.056 -2.4282 -0.5923 -1.1626
  833SOL    HW2 2499   0.794   0.500   2.151  0.0914 -0.4199  1.0224
  834SOL     OW 2500   0.292   0.520   0.710  0.5044 -0.1051  0.0995
  834SOL    HW1 2501   0.229   0.530   0.788  0.6509 -1.1645  2.6095
  834SOL    HW2 2502   0.327   0.425   0.721 -2.1960 -0.0702 -1.5012
  835SOL     OW 2503   2.809   2.962   1.163 -0.1728 -0.2693 -0.0796
  835SOL    HW1 2504   2.772   3.002   1.249 -0.1087  0.2206  0.2621
  835SOL    HW2 2505   2.821   3.022   1.085 -0.1389 -1.1983 -0.6457
  836SOL     OW 2506   0.469   2.069   2.963  0.0142  0.0359  0.1176
  836SOL    HW1 2507   0.518   2.138   2.904  1.8059 -0.4425 -1.9754
  836SOL    HW2 2508   0.421   2.109   3.046 -0.8151  0.9633 -1.8496
  837SOL     OW 2509   1.522   1.355   2.301  0.1461 -0.2693  0.2921
  837SOL    HW1 2510   1.502   1.430   2.367  0.1772 -3.3745  2.3205
  837SOL    HW2 2511   1.620   1.369   2.265  3.1351  0.4562 -0.1937
  838SOL     OW 2512   0.117   0.817   1.709 -0.1286  0.3773  0.4316
  838SOL    HW1 2513   0.149   0.821   1.614  1.2499 -0.8722  1.5374
  838SOL    HW2 2514   0.162   0.882   1.771  0.4906  0.0041  3.1338
  839SOL     OW 2515   0.862   1.350   0.919  0.0335  0.6869 -0.4095
  839SOL    HW1 2516   0.876   1.247   0.922  0.0506 -2.1100  1.5116
  839SOL    HW2 2517   0.844   1.373   0.823 -0.9990  1.8437 -1.1670
  840SOL     OW 2518   1.728   2.992   1.938  0.3491  0.1906  0.0234
  840SOL    HW1 2519   1.793   2.931   1.983 -1.1373 -0.9428 -0.5477
  840SOL    HW2 2520   1.763   3.016   1.845 -1.3467 -0.0204 -1.1136
  841SOL     OW 2521   0.699   2.290   0.384 -0.1321  0.1967 -0.3841
  841SOL    HW1 2522   0.795   2.317   0.394 -0.4808 -0.3344 -0.8718
  841SOL    HW2 2523   0.663   2.343   0.303  1.9708  1.1603 -2.7096
  842SOL     OW 2524   0.620   0.406   0.772 -0.2321 -0.3925  0.6609
  842SOL    HW1 2525   0.547   0.457   0.824 -0.5424  0.2356  0.9234
  842SOL    HW2 2526   0.708   0.441   0.810 -0.0372  1.6898  1.2843
  843SOL     OW 2527   0.756   0.986   2.211 -0.1622 -0.1038 -1.1426
  843SOL    HW1 2528   0.663   0.937   2.222 -3.5206 -0.2156  0.2894
  843SOL    HW2 2529   0.817   0.963   2.291 -2.4518 -2.9233  3.0355
  844SOL     OW 2530   1.351   2.190   3.031  0.3843  0.4737 -0.0395
  844SOL    HW1 2531   1.371   2.205   2.931 -2.1291 -1.0108 -0.8736
  844SOL    HW2 2532   1.333   2.272   3.090  1.2032  0.1345  1.7010
  845SOL     OW 2533   2.252   2.697   2.498  0.0232 -0.3193 -0.1356
  845SOL    HW1 2534   2.216   2.759   2.427  1.5031  1.0336  0.3807
  845SOL    HW2 2535   2.353   2.708   2.513 -0.1663  0.0295 -0.0988
  846SOL     OW 2536   1.882   1.991   2.890  0.2326  0.0557  0.4055
  846SOL    HW1 2537   1.806   1.963   2.822 -2.5428  0.2852 -1.5385
  846SOL    HW2 2538   1.849   1.969   2.984 -1.1106 -0.7979 -0.9775
  847SOL     OW 2539   2.225   0.051   2.973 -0.4840 -0.0523  0.2091
  847SOL    HW1 2540   2.193   3.063   3.011 -3.0286 -3.6736  1.5246
  847SOL    HW2 2541   2.161   0.071   2.899  0.0783  2.4910 -1.2533
  848SOL     OW 2542   0.374   0.748   0.605 -0.1517  0.1218 -0.2852
  848SOL    HW1 2543   0.317   0.785   0.528  1.0238 -1.1119 -5.1015
  848SOL    HW2 2544   0.345   0.655   0.639  2.2667 -0.2068 -1.6354
  849SOL     OW 2545   1.367   2.873   1.476  0.1974 -0.4572  0.0014
  849SOL    HW1 2546   1.451   2.934   1.471  0.9674  1.2655 -1.7642
  849SOL    HW2 2547   1.350   2.830   1.569 -2.4324  0.7667 -1.4180
  850SOL     OW 2548   0.478   1.667   0.119 -0.5883 -0.3136 -0.0797
  850SOL    HW1 2549   0.481   1.723   0.033  1.8433  0.2218 -0.0616
  850SOL    HW2 2550   0.475   1.566   0.094 -0.7585 -1.6550 -1.3498
  851SOL     OW 2551   0.171   1.068   0.734  0.1865 -0.1244  0.4002
  851SOL    HW1 2552   0.139   1.094   0.642  1.2562 -1.5058  1.4847
  851SOL    HW2 2553   0.100   1.006   0.768  1.2580  1.9405 -1.4372
  852SOL     OW 2554   1.503   2.394   1.402  0.5092  0.0788 -0.0452
  852SOL    HW1 2555   1.582   2.394   1.469 -0.2274 -0.8687  0.6507
  852SOL    HW2 2556   1.475   2.495   1.382 -2.6884  0.5365  3.0889
  853SOL     OW 2557   0.067   1.290   0.157  0.3642 -0.0608 -0.1962
  853SOL    HW1 2558   3.082   1.312   0.110 -0.5941  1.0760  0.2021
  853SOL    HW2 2559   0.100   1.370   0.209 -0.9992 -1.7631 -1.1149
  854SOL     OW 2560   1.546   1.088   2.019 -0.5474  0.2326  0.6171
  854SOL    HW1 2561   1.466   1.134   2.072 -2.4179  2.1590  1.9223
  854SOL    HW2 2562   1.508   1.025   1.952 -0.0578 -1.1863  3.1516
  855SOL     OW 2563   0.561   2.310   2.865 -0.1770  0.2321  0.7454
  855SOL    HW1 2564   0.462   2.339   2.864 -1.6042  1.8750  0.0111
  855SOL    HW2 2565   0.626   2.368   2.920 -3.5764  0.6324 -0.1703
  856SOL     OW 2566   0.107   0.551   1.747 -0.0490  0.0319  0.2746
  856SOL    HW1 2567   0.089   0.505   1.656 -0.0888 -0.9975  0.1844
  856SOL    HW2 2568   0.117   0.652   1.741  3.5773 -0.0069  0.8687
  857SOL     OW 2569   0.901   1.171   2.040 -0.0874  0.2769  0.0895
  857SOL    HW1 2570   0.851   1.103   2.096  1.4892 -2.0559 -1.9116
  857SOL    HW2 2571   0.924   1.251   2.101  1.9683  0.1777 -0.1867
  858SOL     OW 2572   0.235   1.584   2.380  0.1253  0.2072  0.8263
  858SOL    HW1 2573   0.266   1.650   2.454  0.9064  3.0271  2.3618
  858SOL    HW2 2574   0.318   1.540   2.342  1.0961  1.0819  0.6968
  859SOL     OW 2575   2.711   3.075   0.924  0.1547  0.1113 -0.6952
  859SOL    HW1 2576   2.649   0.034   0.975 -0.4086  2.6909  0.8540
  859SOL    HW2 2577   2.782   0.033   0.876 -0.1526 -2.2969 -2.8341
  860SOL     OW 2578   2.207   2.921   3.096  0.0441  0.4769 -0.1097
  860SOL    HW1 2579   2.247   2.913   0.086  2.7646  0.4032 -0.9190
  860SOL    HW2 2580   2.241   2.842   3.036 -0.1960 -0.3964 -0.2796
  861SOL     OW 2581   0.398   0.450   0.362  0.0717  0.2458 -0.2708
  861SOL    HW1 2582   0.328   0.508   0.320 -4.0945 -0.2870  1.2081
  861SOL    HW2 2583   0.442   0.387   0.295  3.2435 -2.4474 -1.4058
  862SOL     OW 2584   1.348   0.240   1.782 -0.1569  0.1431  0.2267
  862SOL    HW1 2585   1.331   0.158   1.840 -0.6276  2.8228 -0.2181
  862SOL    HW2 2586   1.396   0.315   1.832  1.4362  0.1168  1.3595
  863SOL     OW 2587   2.611   2.236   1.317 -0.4984 -0.1659  0.4182
  863SOL    HW1 2588   2.522   2.211   1.269 -1.2124 -0.9194 -3.1321
  863SOL    HW2 2589   2.685   2.220   1.251 -3.2193 -3.3766  3.6780
  864SOL     OW 2590   2.259   2.889   2.296  0.3290  0.0671  0.3959
  864SOL    HW1 2591   2.209   2.981   2.319 -2.0274  2.3562 -1.7689
  864SOL    HW2 2592   2.359   2.912   2.285  1.7599 -1.5762  0.7087
  865SOL     OW 2593   1.075   0.364   1.716  0.1284  0.5339  0.4624
  865SOL    HW1 2594   1.128   0.279   1.701  0.0869 -1.1246 -0.2195
  865SOL    HW2 2595   1.118   0.424   1.786  0.9130 -1.1241 -2.1483
  866SOL     OW 2596   2.118   2.996   1.172 -0.0118  0.1813  0.1925
  866SOL    HW1 2597   2.140   3.068   1.108  1.3716  3.2843  1.5889
  866SOL    HW2 2598   2.021   3.014   1.207 -3.7972  1.0948 -1.9113
  867SOL     OW 2599   2.465   2.451   0.670  0.0697 -0.2484 -0.0940
  867SOL    HW1 2600   2.478   2.436   0.769  0.9863  0.0305 -0.6159
  867SOL    HW2 2601   2.472   2.548   0.646 -0.3154  0.0017  2.5205
  868SOL     OW 2602   0.659   1.938   1.412 -0.3131 -0.4746 -0.0589
  868SOL    HW1 2603   0.689   1.935   1.511 -0.7881  0.2852  0.4946
  868SOL    HW2 2604   0.604   2.021   1.389 -0.5796 -2.2297  2.7937
  869SOL     OW 2605   2.376   2.458   3.031 -0.2501 -0.0825  0.3257
  869SOL    HW1 2606   2.466   2.414   3.005  1.9699  0.4314 -0.0031
  869SOL    HW2 2607   2.385   2.490   0.020  1.2840 -0.5181 -0.6612
  870SOL     OW 2608   2.147   1.713   0.955  0.7001  0.0573 -0.3013
  870SOL    HW1 2609   2.186   1.654   0.884  0.1590  1.7216  1.6102
  870SOL    HW2 2610   2.139   1.666   1.048 -4.3090  2.6514  1.5292
  871SOL     OW 2611   0.154   1.668   1.591  0.5869 -0.2577 -0.1167
  871SOL    HW1 2612   0.079   1.729   1.629  1.3023 -2.2272  0.0102
  871SOL    HW2 2613   0.194   1.608   1.659  0.4124  1.2012 -4.2190
  872SOL     OW 2614   0.429   1.139   2.219  0.1089 -0.5833  0.6832
  872SOL    HW1 2615   0.506   1.207   2.208  1.2287  0.5336 -0.4351
  872SOL    HW2 2616   0.456   1.046   2.247  0.3749  0.3038 -3.9195
  873SOL     OW 2617   1.148   2.337   1.769 -0.8800  0.1627  0.0430
  873SOL    HW1 2618   1.171   2.314   1.867  1.2610 -1.1220 -1.9186
  873SOL    HW2 2619   1.051   2.351   1.750 -1.0903 -1.0878 -0.5589
  874SOL     OW 2620   1.236   0.923   1.918  0.2633  0.0043  0.0967
  874SOL    HW1 2621   1.161   0.983   1.885  0.3851 -1.5845  1.4904
  874SOL    HW2 2622   1.221   0.921   2.020  0.8918  2.0098  0.8360
  875SOL     OW 2623   2.779   2.829   0.799  0.1503 -0.1859 -0.6703
  875SOL    HW1 2624   2.803   2.738   0.833 -1.6266  0.9258 -2.6052
  875SOL    HW2 2625   2.765   2.902   0.866  0.8452 -1.2572 -1.4381
  876SOL     OW 2626   0.735   1.200   0.409  0.4124  0.1418  0.3451
  876SOL    HW1 2627   0.783   1.205   0.322 -2.3921  0.9899 -0.0620
  876SOL    HW2 2628   0.652   1.259   0.412  1.3472 -0.2619  0.3875
  877SOL     OW 2629   2.982   0.171   1.264 -0.0126 -0.3455 -0.5821
  877SOL    HW1 2630   2.990   0.124   1.177  0.4837 -0.2236  3.5775
  877SOL    HW2 2631   3.047   0.139   1.333  0.0163  3.4773 -2.1138
  878SOL     OW 2632   2.673   1.643   0.385  0.0181 -0.1702 -0.2613
  878SOL    HW1 2633   2.717   1.635   0.477 -0.4688  0.1267  1.6138
  878SOL    HW2 2634   2.578   1.673   0.398 -0.9204 -3.0791 -0.3539
  879SOL     OW 2635   2.513   1.800   1.327 -0.5698 -0.5016  0.1555
  879SOL    HW1 2636   2.433   1.739   1.351  0.3828 -1.2101 -2.3222
  879SOL    HW2 2637   2.515   1.820   1.226  2.2469 -0.4660  1.2592
  880SOL     OW 2638   0.251   2.655   0.754 -0.3112 -0.2026 -0.0005
  880SOL    HW1 2639   0.197   2.710   0.821 -1.1008  1.3792  1.6188
  880SOL    HW2 2640   0.338   2.697   0.725 -0.6239  0.7823  0.7838
  881SOL     OW 2641   1.320   1.122   0.980  0.1111  0.6393  0.1643
  881SOL    HW1 2642   1.393   1.195   0.989  1.0801  0.4745 -1.2913
  881SOL    HW2 2643   1.246   1.152   0.919  0.8602 -1.9670  2.3499
  882SOL     OW 2644   2.511   0.941   2.823 -0.6403  0.1177 -0.0758
  882SOL    HW1 2645   2.532   1.012   2.757  0.8807 -0.7751  2.5367
  882SOL    HW2 2646   2.544   0.852   2.792 -3.4513  4.4160 -1.5548
  883SOL     OW 2647   1.135   3.006   1.467 -0.1283 -0.0791 -0.3988
  883SOL    HW1 2648   1.061   2.939   1.483  0.2551 -3.9668 -1.5333
  883SOL    HW2 2649   1.222   2.956   1.453 -1.2941 -1.4874  1.8948
  884SOL     OW 2650   2.886   0.158   0.836 -0.0967 -0.6329 -0.7678
  884SOL    HW1 2651   2.902   0.158   0.733 -1.6418 -1.0569 -1.0861
  884SOL    HW2 2652   2.884   0.247   0.884  2.5289 -0.4367 -0.9969
  885SOL     OW 2653   1.183   0.886   1.295 -0.0345 -0.2409 -0.3472
  885SOL    HW1 2654   1.174   0.898   1.397  1.5440 -1.4132 -1.9399
  885SOL    HW2 2655   1.250   0.955   1.262 -0.8211  1.4071 -0.3515
  886SOL     OW 2656   1.645   0.909   2.783  0.4289  0.5514  0.4892
  886SOL    HW1 2657   1.586   0.826   2.797 -3.5578  1.2514 -1.7869
  886SOL    HW2 2658   1.741   0.893   2.821  4.3270 -1.1473 -1.9809
  887SOL     OW 2659   1.732   0.638   1.076 -0.1450 -0.7232 -0.0290
  887SOL    HW1 2660   1.686   0.580   1.147 -0.2665 -0.3817 -2.9272
  887SOL    HW2 2661   1.698   0.619   0.983 -0.8720  1.3738 -0.1982
  888SOL     OW 2662   2.004   1.691   2.028 -0.5497 -0.2912  0.4271
  888SOL    HW1 2663   2.027   1.589   2.024  2.3252 -3.8891  0.0245
  888SOL    HW2 2664   2.088   1.747   2.057  0.2410 -2.6976  0.7053
  889SOL     OW 2665   2.388   2.122   0.800 -0.1026 -0.0980  0.0509
  889SOL    HW1 2666   2.357   2.213   0.765 -0.3191  0.3330  0.2462
  889SOL    HW2 2667   2.329   2.083   0.873 -0.3127  0.6550  1.3157
  890SOL     OW 2668   1.147   1.857   0.709 -0.2111  0.4211 -0.8325
  890SOL    HW1 2669   1.240   1.833   0.744  0.7034  0.0673  0.3434
  890SOL    HW2 2670   1.070   1.821   0.769  0.6500 -2.4947  0.1151
  891SOL     OW 2671   2.521   0.468   2.507  0.4088 -0.1321 -0.2797
  891SOL    HW1 2672   2.584   0.514   2.444 -0.5486  1.2208 -0.8524
  891SOL    HW2 2673   2.443   0.437   2.450  0.8062  1.5429 -1.4998
  892SOL     OW 2674   1.246   0.356   2.328 -0.4979 -1.0657 -0.4374
  892SOL    HW1 2675   1.327   0.389   2.385  0.0266  0.4528 -0.6314
  892SOL    HW2 2676   1.156   0.366   2.384 -2.8269  0.7719  3.1781
  893SOL     OW 2677   1.630   0.480   1.250 -0.0971 -0.1734  0.6928
  893SOL    HW1 2678   1.697   0.476   1.329  2.8948  0.0542 -0.7447
  893SOL    HW2 2679   1.536   0.470   1.285  0.2881  2.5378 -1.8401
  894SOL     OW 2680   2.678   0.415   0.592  0.0394  0.4087  0.3164
  894SOL    HW1 2681   2.638   0.329   0.635 -0.9869 -0.5697  0.8035
  894SOL    HW2 2682   2.773   0.431   0.624 -3.6673 -2.2392  0.8911
  895SOL     OW 2683   1.965   2.502   2.764  0.6451  0.1782 -0.0762
  895SOL    HW1 2684   1.885   2.570   2.768 -3.8575 -0.1955 -0.8150
  895SOL    HW2 2685   1.951   2.441   2.839 -0.2811  1.8411 -1.3732
  896SOL     OW 2686   1.868   2.885   1.619  0.3835 -0.5740 -0.0354
  896SOL    HW1 2687   1.870   2.988   1.615  2.9572  3.4932  1.4360
  896SOL    HW2 2688   1.796   2.843   1.555 -0.4037  1.5942 -1.1552
  897SOL     OW 2689   0.367   2.087   1.940 -0.5210 -0.0897 -0.2239
  897SOL    HW1 2690   0.439   2.059   1.877 -2.4162  1.4707  0.5162
  897SOL    HW2 2691   0.323   2.005   1.978  1.7290  0.2851  0.0058
  898SOL     OW 2692   2.217   1.844   2.120  0.2842  0.3728 -0.4724
  898SOL    HW1 2693   2.276   1.799   2.047 -1.6944 -1.5122  1.2930
  898SOL    HW2 2694   2.197   1.778   2.196  0.0122 -1.2765  0.0707
  899SOL     OW 2695   1.867   2.200   0.533 -0.1482 -0.1680 -0.5790
  899SOL    HW1 2696   1.927   2.252   0.598 -1.9588 -0.7177  1.1924
  899SOL    HW2 2697   1.927   2.158   0.463 -0.2569  1.5712 -0.1053
  900SOL     OW 2698   1.101   0.490   0.150 -0.1910  0.2107 -0.1218
  900SOL    HW1 2699   1.063   0.580   0.120 -0.6404 -0.0832 -1.5943
  900SOL    HW2 2700   1.023   0.427   0.158  0.1313  0.5986  0.5748
  901SOL     OW 2701   1.037   1.988   2.270 -0.0099 -0.3996  0.5210
  901SOL    HW1 2702   0.942   1.997   2.232 -1.5760 -0.4661 -0.7323
  901SOL    HW2 2703   1.047   2.041   2.357 -0.9972  0.8273 -0.6533
  902SOL     OW 2704   2.694   0.412   3.035 -0.0258  0.5749 -0.4809
  902SOL    HW1 2705   2.797   0.431   3.038 -1.0731  3.3523  3.2978
  902SOL    HW2 2706   2.672   0.317   3.005 -0.1264 -1.8062 -4.4386
  903SOL     OW 2707   1.987   0.603   2.294 -0.2739 -0.6030 -0.3667
  903SOL    HW1 2708   1.958   0.701   2.289  0.6913 -0.0523 -0.9218
  903SOL    HW2 2709   2.090   0.601   2.274  2.4943 -0.3669  0.5469
  904SOL     OW 2710   1.395   0.866   2.319 -0.1297 -0.2666  0.0060
  904SOL    HW1 2711   1.435   0.958   2.341  0.3373 -0.9602 -0.9084
  904SOL    HW2 2712   1.459   0.805   2.265 -0.2417  0.3303 -0.5617
  905SOL     OW 2713   2.099   3.006   1.732  0.0313 -0.4105  0.0271
  905SOL    HW1 2714   2.190   2.982   1.699 -1.1468  0.5077  0.9947
  905SOL    HW2 2715   2.031   2.941   1.692 -0.7585 -2.0462 -0.2083
  906SOL     OW 2716   2.041   2.043   0.368 -0.1792  0.8755 -0.3615
  906SOL    HW1 2717   2.132   2.076   0.405  0.7059 -0.7482 -0.9213
  906SOL    HW2 2718   2.039   1.943   0.380 -0.6274  0.5883  1.1854
  907SOL     OW 2719   1.364   2.585   0.657 -0.4281  0.0398  0.2806
  907SOL    HW1 2720   1.440   2.518   0.641 -0.6729  0.0371 -0.0808
  907SOL    HW2 2721   1.273   2.541   0.648  0.5946  2.4881  4.6608
  908SOL     OW 2722   1.610   2.157   2.595  0.4682  0.2799  0.2806
  908SOL    HW1 2723   1.647   2.251   2.627  0.6288  1.2460  2.8684
  908SOL    HW2 2724   1.587   2.167   2.499 -1.3057  0.9508  0.3492
  909SOL     OW 2725   2.163   0.478   1.874 -0.8115  0.6256  0.4532
  909SOL    HW1 2726   2.124   0.570   1.847 -2.5293  3.1230 -1.7123
  909SOL    HW2 2727   2.220   0.491   1.960 -1.0605  2.0166  3.5301
  910SOL     OW 2728   1.437   0.312   2.953 -0.8083 -0.6659  0.3473
  910SOL    HW1 2729   1.457   0.343   3.048 -1.0997  3.2166 -1.1775
  910SOL    HW2 2730   1.353   0.253   2.949  0.7675 -1.2360  0.8999
  911SOL     OW 2731   3.077   0.946   0.032  0.4274  0.4835  0.3438
  911SOL    HW1 2732   2.981   0.962   0.011  2.5485  2.3020 -0.3882
  911SOL    HW2 2733   3.092   0.877   0.101 -0.2027 -2.4738 -0.7087
  912SOL     OW 2734   0.091   2.584   0.529 -0.7522 -0.3086 -0.2461
  912SOL    HW1 2735   0.119   2.494   0.495  0.0205 -0.4727 -1.1946
  912SOL    HW2 2736   0.145   2.612   0.606  0.7136  2.6975 -0.3141
  913SOL     OW 2737   2.803   2.175   2.515 -0.0005  0.1752  0.0583
  913SOL    HW1 2738   2.831   2.230   2.433 -0.0802 -1.7024  0.4394
  913SOL    HW2 2739   2.886   2.129   2.551  1.3255  0.9323  1.0460
  914SOL     OW 2740   1.600   1.668   1.025  0.2409  0.6224 -0.0926
  914SOL    HW1 2741   1.570   1.625   0.937  1.6671 -3.2725  1.2516
  914SOL    HW2 2742   1.525   1.720   1.068  0.8988 -0.2485 -1.5630
  915SOL     OW 2743   0.300   2.840   2.172  0.0383 -0.1058 -0.3188
  915SOL    HW1 2744   0.324   2.789   2.086  0.3479  0.5131 -2.5072
  915SOL    HW2 2745   0.202   2.877   2.158 -0.5814  1.5777 -3.7039
  916SOL     OW 2746   0.822   0.105   1.722 -0.1052 -0.0134  0.1024
  916SOL    HW1 2747   0.917   0.102   1.680  2.1542  1.5439 -0.3683
  916SOL    HW2 2748   0.781   0.200   1.727  0.2954  0.7408 -0.0112
  917SOL     OW 2749   2.613   0.697   0.227  0.5355 -0.3233 -0.0872
  917SOL    HW1 2750   2.658   0.636   0.163 -1.5281  2.0822  0.1224
  917SOL    HW2 2751   2.522   0.658   0.250 -0.8105 -3.3357 -0.3380
  918SOL     OW 2752   1.714   2.332   3.072 -0.1294 -0.0613 -0.3373
  918SOL    HW1 2753   1.650   2.398   3.024 -1.4189  1.6727 -0.4244
  918SOL    HW2 2754   1.654   2.254   3.100 -0.9109  0.8590 -0.1280
  919SOL     OW 2755   1.736   2.828   1.160  0.0245 -0.2343 -0.1800
  919SOL    HW1 2756   1.732   2.925   1.133  1.1904  0.5290  1.8066
  919SOL    HW2 2757   1.707   2.765   1.079  0.7530 -1.8159  1.5998
  920SOL     OW 2758   1.519   0.280   2.392 -0.3412 -0.0227  0.6247
  920SOL    HW1 2759   1.476   0.199   2.440 -1.4534  0.5338  0.2083
  920SOL    HW2 2760   1.619   0.285   2.423  1.7201  0.0092 -0.3950
  921SOL     OW 2761   2.859   0.916   2.694 -0.2334  0.1063  0.4593
  921SOL    HW1 2762   2.892   0.990   2.632 -1.0952 -2.1313  1.7043
  921SOL    HW2 2763   2.859   0.948   2.795 -0.2222  0.9391  3.0547
  922SOL     OW 2764   0.140   2.142   1.061 -0.1898  0.1869  0.5345
  922SOL    HW1 2765   0.193   2.125   1.145 -0.5819  2.0811  0.9242
  922SOL    HW2 2766   0.104   2.238   1.058 -0.0194 -0.1399  3.2514
  923SOL     OW 2767   0.498   1.508   1.742  0.6356 -0.2314  0.3421
  923SOL    HW1 2768   0.513   1.485   1.643  0.0548 -2.4017  0.5664
  923SOL    HW2 2769   0.395   1.517   1.763 -0.7885 -0.9945  0.8936
  924SOL     OW 2770   1.766   2.755   2.757 -0.4079  0.0605 -0.4317
  924SOL    HW1 2771   1.673   2.781   2.774  0.5405  1.2633 -1.6678
  924SOL    HW2 2772   1.826   2.811   2.814  0.9200  0.9630  0.0650
  925SOL     OW 2773   2.749   1.525   0.908 -0.0739  0.6385  0.0540
  925SOL    HW1 2774   2.719   1.440   0.862  2.4035 -1.3828  1.0842
  925SOL    HW2 2775   2.747   1.514   1.009 -0.6508 -0.6958  1.3654
  926SOL     OW 2776   2.070   0.932   1.162  0.0763 -0.4694 -0.3179
  926SOL    HW1 2777   2.103   0.905   1.254 -2.1686 -0.4817 -3.1673
  926SOL    HW2 2778   2.080   1.035   1.154  0.6938  1.3825 -0.1987
  927SOL     OW 2779   2.101   0.120   1.509  0.1149  0.1488  0.2085
  927SOL    HW1 2780   2.093   0.198   1.440  1.4574 -1.5635  1.3126
  927SOL    HW2 2781   2.195   0.084   1.516 -0.1446  1.0636 -3.0307
  928SOL     OW 2782   0.134   1.026   2.197 -0.1229  0.4061  0.0684
  928SOL    HW1 2783   0.215   1.084   2.218  3.7407 -0.5245 -0.8309
  928SOL    HW2 2784   0.067   1.075   2.137  0.5709 -1.4602  0.1256
  929SOL     OW 2785   2.246   0.960   1.602  0.8601 -0.4555 -0.4184
  929SOL    HW1 2786   2.148   0.964   1.580 -1.6532  0.5358  1.2634
  929SOL    HW2 2787   2.299   0.990   1.524 -0.4603 -0.8394  0.5488
  930SOL     OW 2788   2.581   2.699   2.101 -0.4914 -0.0430  0.5271
  930SOL    HW1 2789   2.548   2.719   2.008 -1.1532 -0.8769 -1.0097
  930SOL    HW2 2790   2.522   2.631   2.149  2.1445 -1.7152 -1.3178
  931SOL     OW 2791   1.877   1.245   1.511  0.8607 -0.1016 -0.3650
  931SOL    HW1 2792   1.782   1.220   1.534  1.2975  0.8579  1.3817
  931SOL    HW2 2793   1.934   1.280   1.590 -1.6358  3.5587  0.3290
  932SOL     OW 2794   0.562   0.808   1.709 -0.3319 -0.4109  0.7061
  932SOL    HW1 2795   0.536   0.906   1.684  0.4438  1.0214  0.7541
  932SOL    HW2 2796   0.665   0.805   1.721 -0.6957  4.6764 -1.1580
  933SOL     OW 2797   2.469   2.077   1.787 -0.1875 -0.1205  0.1908
  933SOL    HW1 2798   2.484   1.993   1.737  1.4468 -0.3893  2.0503
  933SOL    HW2 2799   2.465   2.057   1.888 -0.5782  1.2463 -3.1157
  934SOL     OW 2800   0.527   1.987   1.752 -0.5168 -0.6315 -0.5242
  934SOL    HW1 2801   0.569   1.911   1.806  0.5401 -2.0826  2.5673
  934SOL    HW2 2802   0.465   1.951   1.683  0.1946  1.8272  0.2993
  935SOL     OW 2803   2.977   1.342   1.695  0.5989 -0.0703  0.0975
  935SOL    HW1 2804   2.992   1.443   1.683  0.5284  0.3551  1.8104
  935SOL    HW2 2805   2.981   1.317   1.797 -0.6300 -1.7573  2.7720
  936SOL     OW 2806   3.016   0.927   1.432  0.8360  0.0012  0.3788
  936SOL    HW1 2807   2.949   0.909   1.354  2.2500 -1.8880  0.0207
  936SOL    HW2 2808   2.985   0.891   1.522  0.4617 -0.3032  1.1048
  937SOL     OW 2809   1.846   0.554   1.481 -0.2703 -0.5002 -0.3662
  937SOL    HW1 2810   1.918   0.621   1.499  3.1327  0.3333 -0.1191
  937SOL    HW2 2811   1.821   0.499   1.562  0.8937  1.2695 -1.0009
  938SOL     OW 2812   0.600   2.660   0.103  0.1874  0.8317  0.0610
  938SOL    HW1 2813   0.530   2.695   0.168 -1.6429  0.2922 -2.4562
  938SOL    HW2 2814   0.560   2.574   0.058 -1.6407 -0.5148  1.5159
  939SOL     OW 2815   2.991   2.056   2.651  0.0528 -0.0479  0.4455
  939SOL    HW1 2816   3.015   1.956   2.649 -0.8917  0.0245  0.6504
  939SOL    HW2 2817   2.959   2.086   2.745 -2.4018  0.6352 -0.0429
  940SOL     OW 2818   1.401   1.917   0.232 -0.4895  0.4934 -0.0409
  940SOL    HW1 2819   1.468   1.838   0.241  2.4880  0.0538  1.3983
  940SOL    HW2 2820   1.304   1.882   0.235 -1.2718 -1.7844 -0.2383
  941SOL     OW 2821   2.474   2.565   0.175 -0.1653 -0.1843 -0.1530
  941SOL    HW1 2822   2.438   2.602   0.260  1.1076  0.8703 -3.4402
  941SOL    HW2 2823   2.556   2.505   0.185 -0.8278 -1.3273 -0.5605
  942SOL     OW 2824   1.784   2.003   1.014 -0.6737  0.3226  0.8879
  942SOL    HW1 2825   1.817   1.908   1.016  1.0345 -0.6167  1.4356
  942SOL    HW2 2826   1.695   2.012   1.071 -2.3513  0.3732  0.8684
  943SOL     OW 2827   2.043   0.705   1.801  0.3809 -0.9151  0.5533
  943SOL    HW1 2828   2.029   0.698   1.695 -3.4694 -0.4733 -0.6827
  943SOL    HW2 2829   2.095   0.786   1.829 -0.0707  1.2151  1.5341
  944SOL     OW 2830   1.174   0.861   2.175  0.0299  0.1589  0.4605
  944SOL    HW1 2831   1.260   0.879   2.230  1.5566 -1.1890  1.8602
  944SOL    HW2 2832   1.154   0.762   2.162  3.7797  2.3716  2.2823
  945SOL     OW 2833   2.168   2.618   1.493 -0.8974 -0.0166 -0.5876
  945SOL    HW1 2834   2.253   2.570   1.524  0.8978  0.6824  1.9756
  945SOL    HW2 2835   2.089   2.565   1.521  0.7794  0.2476  0.1837
  946SOL     OW 2836   0.361   1.116   0.352 -0.5696  0.0754  0.1396
  946SOL    HW1 2837   0.265   1.131   0.340  0.7941  1.6745  0.3491
  946SOL    HW2 2838   0.389   1.030   0.399  1.8211 -0.9024 -0.7793
  947SOL     OW 2839   1.672   2.427   1.166  0.3790 -0.0445  0.6619
  947SOL    HW1 2840   1.602   2.437   1.238  2.5144 -0.5412  3.2009
  947SOL    HW2 2841   1.761   2.392   1.198 -2.3914  1.3972 -1.0989
  948SOL     OW 2842   0.241   1.675   0.981  0.0120  0.1068  0.5229
  948SOL    HW1 2843   0.209   1.718   1.070 -0.8415 -0.0662 -1.4391
  948SOL    HW2 2844   0.170   1.614   0.940  1.8563  0.5857 -4.3067
  949SOL     OW 2845   1.140   1.358   1.241 -0.5667  0.1807 -0.2570
  949SOL    HW1 2846   1.044   1.340   1.230  0.6542  2.4029 -1.8212
  949SOL    HW2 2847   1.194   1.269   1.240  1.4901  0.1971 -0.5042
  950SOL     OW 2848   0.469   0.531   0.953  0.3339  0.9074 -0.2009
  950SOL    HW1 2849   0.541   0.592   0.986 -3.1316 -2.0584 -1.5715
  950SOL    HW2 2850   0.374   0.563   0.963 -0.7142 -0.7198 -1.9009
  951SOL     OW 2851   0.479   2.115   2.205 -0.4098  0.0500  0.5859
  951SOL    HW1 2852   0.435   2.098   2.113  1.0785  0.4517  1.3414
  951SOL    HW2 2853   0.458   2.210   2.241  0.7737  3.2835  3.3470
  952SOL     OW 2854   1.028   1.382   0.002  0.7610  0.5152 -0.6075
  952SOL    HW1 2855   0.981   1.469   0.020 -0.6378 -1.4583  0.7607
  952SOL    HW2 2856   1.119   1.383   0.053 -2.2035 -1.3042  2.0477
  953SOL     OW 2857   1.114   3.037   3.087 -0.4257 -0.7636 -0.2368
  953SOL    HW1 2858   1.132   3.038   0.084  1.7994 -0.9267  0.6456
  953SOL    HW2 2859   1.058   2.952   3.061 -0.6311 -1.9522  0.8222
  954SOL     OW 2860   1.733   1.413   0.096  0.0928  0.0645 -0.6183
  954SOL    HW1 2861   1.718   1.352   0.018 -0.0763 -1.2409  3.0575
  954SOL    HW2 2862   1.643   1.426   0.145  0.9750 -0.2244 -0.4636
  955SOL     OW 2863   0.199   2.798   0.006 -0.4454  0.3473  0.4824
  955SOL    HW1 2864   0.294   2.813   3.072  0.4850  2.0081 -1.3708
  955SOL    HW2 2865   0.150   2.716   3.067 -2.4008 -0.7233 -0.7999
  956SOL     OW 2866   1.100   0.648   1.174  0.3710 -0.4340 -0.2067
  956SOL    HW1 2867   1.133   0.718   1.241  0.8577  1.0546 -0.4461
  956SOL    HW2 2868   1.124   0.563   1.218 -0.9962  1.2834 -1.0748
  957SOL     OW 2869   1.069   1.488   1.479  0.1220  0.8151  0.5935
  957SOL    HW1 2870   1.008   1.567   1.468  2.1744 -1.4220  1.1481
  957SOL    HW2 2871   1.125   1.474   1.395 -3.7698  1.0376  2.6789
  958SOL     OW 2872   0.466   1.827   0.959 -0.0660  0.0058 -0.0732
  958SOL    HW1 2873   0.397   1.755   0.978  1.8242 -0.7886  0.8470
  958SOL    HW2 2874   0.524   1.805   0.881 -0.3974  1.9693  1.9322
  959SOL     OW 2875   1.440   1.470   1.242 -0.0129  0.1488 -0.3449
  959SOL    HW1 2876   1.407   1.561   1.225  2.1913 -2.1974 -0.0892
  959SOL    HW2 2877   1.401   1.430   1.328 -0.3751  2.5960 -0.9344
  960SOL     OW 2878   0.034   1.296   2.840  0.2321 -0.4203 -0.5211
  960SOL    HW1 2879   0.061   1.394   2.865  2.5363  0.4778  0.7186
  960SOL    HW2 2880   0.058   1.274   2.747 -3.0436  1.1953  1.3032
  961SOL     OW 2881   0.832   1.350   1.484 -0.1147  0.1672  1.1649
  961SOL    HW1 2882   0.839   1.301   1.393  1.9087 -1.1219 -2.9355
  961SOL    HW2 2883   0.925   1.400   1.497  3.2472  3.4338  1.1904
  962SOL     OW 2884   0.826   1.355   0.638  0.4300 -0.0029  0.0573
  962SOL    HW1 2885   0.904   1.422   0.630 -0.2409 -0.8673 -1.2671
  962SOL    HW2 2886   0.824   1.290   0.558  2.0505  0.4448 -1.0662
  963SOL     OW 2887   1.501   1.563   2.479 -0.1751  0.0574  0.0892
  963SOL    HW1 2888   1.560   1.641   2.468 -3.0100  0.7275  0.4979
  963SOL    HW2 2889   1.441   1.568   2.558 -0.3990 -1.0321  0.0441
  964SOL     OW 2890   0.831   2.580   2.822 -0.1947  0.4514  0.2181
  964SOL    HW1 2891   0.815   2.502   2.753  0.9092 -4.8459 -3.1916
  964SOL    HW2 2892   0.871   2.546   2.910 -1.9169 -0.1011 -1.9375
  965SOL     OW 2893   0.521   2.366   0.117 -0.1009 -0.2722 -0.5344
  965SOL    HW1 2894   0.506   2.270   0.081  1.9738 -2.7094  0.8188
  965SOL    HW2 2895   0.438   2.404   0.160  1.2681 -1.3398  1.2562
  966SOL     OW 2896   0.004   1.544   2.620  0.0293 -0.0732  0.0478
  966SOL    HW1 2897   0.063   1.491   2.557 -0.2598  2.3373  0.4181
  966SOL    HW2 2898   0.037   1.530   2.716  0.4331  0.7355 -1.3396
  967SOL     OW 2899   2.536   3.064   2.592 -0.7663 -0.0530  0.9095
  967SOL    HW1 2900   2.610   3.075   2.526 -2.7861  0.7249  0.8410
  967SOL    HW2 2901   2.579   3.048   2.684  1.3340 -1.3955  1.5011
  968SOL     OW 2902   2.128   0.059   0.514  0.0165  0.3129 -0.2185
  968SOL    HW1 2903   2.185   0.031   0.436 -2.9172 -0.5856  0.4197
  968SOL    HW2 2904   2.178   0.101   0.588  0.0194  0.1943 -1.8348
  969SOL     OW 2905   0.293   1.240   1.991 -0.5791  0.0537 -0.3565
  969SOL    HW1 2906   0.300   1.176   1.911 -0.6171  1.8175 -3.1934
  969SOL    HW2 2907   0.366   1.219   2.061  0.7748 -2.2625  0.2634
  970SOL     OW 2908   1.955   1.457   0.951  0.0226 -0.8994 -0.1514
  970SOL    HW1 2909   1.892   1.490   1.025 -5.4782 -2.9429 -0.3719
  970SOL    HW2 2910   1.951   1.354   0.952 -1.0667  2.4641  0.9114
  971SOL     OW 2911   2.440   3.024   1.163  0.3658  0.2929 -0.1434
  971SOL    HW1 2912   2.355   2.993   1.210 -0.1617 -0.3172  1.5141
  971SOL    HW2 2913   2.475   0.005   1.212 -1.7730  1.4418  0.0405
  972SOL     OW 2914   0.477   2.893   1.476  0.7719  0.0605  0.2333
  972SOL    HW1 2915   0.511   2.824   1.411  2.0811 -2.6272 -1.4860
  972SOL    HW2 2916   0.557   2.948   1.513 -0.1722 -1.5711  2.7578
  973SOL     OW 2917   0.608   0.320   2.984  0.1151  0.4044 -0.3835
  973SOL    HW1 2918   0.688   0.347   3.042  0.5384  0.9306  0.1379
  973SOL    HW2 2919   0.529   0.372   3.018  0.0495  0.7272  0.4985
  974SOL     OW 2920   2.020   1.391   1.988 -0.2044  0.0016  0.1695
  974SOL    HW1 2921   1.922   1.364   2.000 -0.1476 -0.1296 -0.6060
  974SOL    HW2 2922   2.082   1.332   2.047  0.7858  1.6421  2.2154
  975SOL     OW 2923   0.089   0.176   1.523 -0.1839 -0.1738 -0.3641
  975SOL    HW1 2924   0.046   0.125   1.601 -3.2179 -2.7988 -2.5791
  975SOL    HW2 2925   0.152   0.114   1.470  1.4820  2.6039  0.7301
  976SOL     OW 2926   0.773   2.101   2.199  0.6570 -0.1845  0.2976
  976SOL    HW1 2927   0.787   2.122   2.298 -0.6169  2.0233  0.1370
  976SOL    HW2 2928   0.675   2.106   2.169  1.6806 -1.4464  1.1603
  977SOL     OW 2929   0.968   2.283   0.434  0.4166 -0.3835  0.1462
  977SOL    HW1 2930   1.012   2.357   0.378  1.7517  0.6498 -0.4421
  977SOL    HW2 2931   0.990   2.187   0.404 -0.8997 -3.3418 -1.2062
  978SOL     OW 2932   2.883   1.658   2.281  0.4745 -0.2142  0.5047
  978SOL    HW1 2933   2.981   1.678   2.267 -0.4831 -0.6295 -2.5443
  978SOL    HW2 2934   2.847   1.691   2.370 -0.2157 -2.0859  1.2809
  979SOL     OW 2935   1.722   2.739   1.439 -0.7410  0.3552  0.7043
  979SOL    HW1 2936   1.770   2.798   1.368 -0.5047 -1.2155 -1.2859
  979SOL    HW2 2937   1.642   2.689   1.401 -1.2345  1.5893  2.0963
  980SOL     OW 2938   1.309   1.238   2.686  0.0802 -0.0830  0.2222
  980SOL    HW1 2939   1.281   1.271   2.592 -0.9566 -0.4796  0.4873
  980SOL    HW2 2940   1.245   1.277   2.752  1.4144  0.9470 -2.9892
  981SOL     OW 2941   2.279   0.165   1.924  0.5116  0.1146  0.5084
  981SOL    HW1 2942   2.300   0.230   1.845 -0.4694 -1.2654 -1.3815
  981SOL    HW2 2943   2.184   0.134   1.925  0.2748  0.6445 -0.8889
  982SOL     OW 2944   0.400   0.496   2.993 -0.0204 -0.4522  0.3709
  982SOL    HW1 2945   0.302   0.484   3.021  0.9235  1.2521  2.2297
  982SOL    HW2 2946   0.409   0.569   2.921  2.5783  4.6274  0.0918
  983SOL     OW 2947   2.215   1.262   2.508 -0.2540  0.3723  0.2004
  983SOL    HW1 2948   2.276   1.268   2.594 -0.0223  0.3992 -0.7872
  983SOL    HW2 2949   2.149   1.190   2.527  3.3455 -0.1268  1.1654
  984SOL     OW 2950   1.355   0.269   2.091  0.2335  0.0184  0.1649
  984SOL    HW1 2951   1.344   0.305   2.186 -0.8554  0.2212 -0.9135
  984SOL    HW2 2952   1.429   0.207   2.083 -1.5713  1.7983  2.1453
  985SOL     OW 2953   1.898   1.591   1.625  0.0546 -0.3251  0.1592
  985SOL    HW1 2954   1.926   1.500   1.663 -0.7937  0.7021 -0.1008
  985SOL    HW2 2955   1.976   1.654   1.643  3.2110  0.2879 -1.3671
  986SOL     OW 2956   2.346   0.753   1.772  0.1929  0.0046  0.1314
  986SOL    HW1 2957   2.438   0.726   1.738  1.8730  1.1670  0.3341
  986SOL    HW2 2958   2.310   0.822   1.708  0.4464 -0.9533  0.2105
  987SOL     OW 2959   2.839   0.864   1.205  0.0341  0.3265  0.0692
  987SOL    HW1 2960   2.846   0.768   1.240  2.5639 -2.1410  1.6194
  987SOL    HW2 2961   2.743   0.880   1.178  2.0169 -0.7512  0.0374
  988SOL     OW 2962   3.097   0.784   2.096 -0.4080 -0.5443 -0.5422
  988SOL    HW1 2963   0.022   0.884   2.105  1.4651  1.3152 -1.8824
  988SOL    HW2 2964   3.026   0.781   2.023 -0.8470 -1.2125  0.6037
  989SOL     OW 2965   2.285   1.431   0.152  0.4267 -0.2623 -0.2256
  989SOL    HW1 2966   2.222   1.504   0.188  0.5753  0.5815 -1.1999
  989SOL    HW2 2967   2.350   1.467   0.084 -2.2506  1.3093 -1.0277
  990SOL     OW 2968   1.034   0.273   2.763 -0.1114  0.0512 -0.4253
  990SOL    HW1 2969   1.082   0.360   2.775  0.1840 -1.3415 -1.6745
  990SOL    HW2 2970   1.015   0.260   2.664  1.9144  0.9686 -2.8720
  991SOL     OW 2971   1.340   1.232   0.671 -0.4795 -0.1080 -0.2112
  991SOL    HW1 2972   1.316   1.290   0.593  0.8493 -0.3914  1.1523
  991SOL    HW2 2973   1.267   1.225   0.740 -0.6450 -0.5917  0.4204
  992SOL     OW 2974   2.085   1.244   0.171 -0.2966 -0.6034  0.0708
  992SOL    HW1 2975   2.015   1.296   0.227 -0.9686  0.2248  0.2004
  992SOL    HW2 2976   2.167   1.304   0.146  2.6655 -0.2684 -1.4065
  993SOL     OW 2977   0.047   0.861   0.857  0.2945 -0.4271 -0.0008
  993SOL    HW1 2978   0.120   0.857   0.927 -1.3844  0.0385 -1.4060
  993SOL    HW2 2979   0.083   0.828   0.767 -1.3076 -1.1419  0.8470
  994SOL     OW 2980   0.126   2.048   2.476 -0.3858 -0.3089  0.5069
  994SOL    HW1 2981   0.039   2.052   2.529 -0.6992  1.5555  1.3587
  994SOL    HW2 2982   0.206   2.033   2.544 -0.4489  1.5999  1.3138
  995SOL     OW 2983   1.675   1.493   2.832  0.0013 -0.0446 -0.0645
  995SOL    HW1 2984   1.650   1.399   2.845 -0.9652  1.3612 -0.3782
  995SOL    HW2 2985   1.691   1.507   2.734 -2.0188 -1.5981  0.0977
  996SOL     OW 2986   2.430   0.971   0.126  0.3279  0.1421 -0.2786
  996SOL    HW1 2987   2.337   0.969   0.167 -0.8523  0.6480  0.2714
  996SOL    HW2 2988   2.426   0.877   0.085 -1.9568 -0.9607  4.1692
  997SOL     OW 2989   2.143   1.003   1.841  0.2371  0.0577  0.1128
  997SOL    HW1 2990   2.198   1.010   1.753 -1.9387  0.5133 -0.4540
  997SOL    HW2 2991   2.181   1.058   1.920  2.8055 -4.0063  0.1098
  998SOL     OW 2992   2.802   1.872   0.325  0.4281 -0.2200 -0.2599
  998SOL    HW1 2993   2.760   1.781   0.319 -0.3001  1.4250  4.5222
  998SOL    HW2 2994   2.737   1.932   0.369  0.8180  0.4417 -3.3925
  999SOL     OW 2995   2.793   2.252   3.091 -0.2631 -0.1972  0.6953
  999SOL    HW1 2996   2.803   2.174   0.056  2.8689 -0.7424  1.8862
  999SOL    HW2 2997   2.824   2.341   0.027 -1.8040 -2.6423  1.9248
 1000SOL     OW 2998   1.149   0.575   2.151 -0.3505  0.2293  0.2532
 1000SOL    HW1 2999   1.182   0.520   2.227 -0.0461  4.0221  1.9683
 1000SOL    HW2 3000   1.049   0.563   2.135  0.1543  2.0035  1.1864
   3.10340   3.10340   3.10340
