1000 SPC/Fw water molecules t= 208.00000 step= 208000
 3000
    1SOL     OW    1   2.923   3.027   0.846 -0.5834 -0.0738 -0.6849
    1SOL    HW1    2   2.961   2.933   0.831  1.0710  0.8105  1.0195
    1SOL    HW2    3   2.870   3.062   0.769  0.0362 -1.9532  2.0151
    2SOL     OW    4   1.948   1.495   2.130 -0.2928  0.9371  0.3847
    2SOL    HW1    5   1.997   1.580   2.164  0.6395 -1.3861  1.9426
    2SOL    HW2    6   1.972   1.428   2.202 -0.7286 -0.0059 -0.7884
    3SOL     OW    7   1.924   2.568   2.227 -0.2607 -0.3737  0.1038
    3SOL    HW1    8   1.881   2.588   2.133 -0.2775  1.0567 -1.7535
    3SOL    HW2    9   1.931   2.469   2.250  0.6465  0.3824  0.3101
    4SOL     OW   10   1.950   1.714   2.453  0.1696  0.0090  0.2627
    4SOL    HW1   11   2.002   1.737   2.374 -2.4271 -2.1905  3.8805
    4SOL    HW2   12   1.991   1.648   2.519 -0.5135 -0.9784  0.7602
    5SOL     OW   13   1.474   0.612   1.707 -0.5610  0.3189 -0.2059
    5SOL    HW1   14   1.393   0.625   1.647 -1.1626 -0.5290  3.3854
    5SOL    HW2   15   1.495   0.513   1.719 -2.6588  0.8552  1.2125
    6SOL     OW   16   2.767   0.711   2.875 -0.4048 -0.0823  0.0245
    6SOL    HW1   17   2.847   0.656   2.844  0.0828 -1.6514  0.5735
    6SOL    HW2   18   2.687   0.650   2.885  0.7627 -0.6095 -3.7672
    7SOL     OW   19   0.735   1.389   1.467 -0.0117  0.0341 -0.2147
    7SOL    HW1   20   0.784   1.437   1.392  0.3129 -0.7315  1.5011
    7SOL    HW2   21   0.632   1.393   1.451 -0.9753  0.0658 -0.4105
    8SOL     OW   22   1.331   0.595   0.865 -0.1059  0.1998 -0.1496
    8SOL    HW1   23   1.235   0.592   0.820 -0.3739 -0.4331 -3.5138
    8SOL    HW2   24   1.360   0.514   0.920  0.8047  0.4803 -1.6544
    9SOL     OW   25   1.087   0.684   2.590  0.2786 -0.2093  0.1086
    9SOL    HW1   26   1.148   0.663   2.667  0.4850  3.2449 -0.5211
    9SOL    HW2   27   1.141   0.695   2.503  0.0551  0.9858  2.7425
   10SOL     OW   28   0.233   2.584   0.248 -0.1371 -0.6688 -0.0790
   10SOL    HW1   29   0.298   2.512   0.214 -0.1380  0.0039 -0.3415
   10SOL    HW2   30   0.253   2.678   0.208 -1.7281  1.3174  2.1143
   11SOL     OW   31   0.683   1.306   3.050  0.5561 -0.9205 -0.1948
   11SOL    HW1   32   0.631   1.233   2.999  0.5467 -0.5858  1.1783
   11SOL    HW2   33   0.618   1.350   0.025 -0.0271  0.8194  1.2559
   12SOL     OW   34   0.443   0.443   1.463  0.2638 -0.6455  0.3236
   12SOL    HW1   35   0.379   0.388   1.411  2.0252  2.1361 -1.8671
   12SOL    HW2   36   0.501   0.385   1.525  0.3706 -0.3350 -2.5248
   13SOL     OW   37   1.049   0.254   0.356  0.2003 -0.0196 -0.3629
   13SOL    HW1   38   1.097   0.236   0.271  0.7373 -1.5744 -0.1261
   13SOL    HW2   39   1.025   0.165   0.398  1.6891 -3.1747 -3.0276
   14SOL     OW   40   1.230   2.366   1.323  0.3705 -0.0841  0.0137
   14SOL    HW1   41   1.137   2.407   1.306 -3.6223  1.2060 -1.4489
   14SOL    HW2   42   1.271   2.407   1.405 -1.8853  1.1833  2.5410
   15SOL     OW   43   2.754   1.054   1.839  0.6372 -0.1379 -0.1529
   15SOL    HW1   44   2.771   0.962   1.796  1.6568 -1.6952 -1.0343
   15SOL    HW2   45   2.782   1.127   1.772  0.7441  2.7998  0.9824
   16SOL     OW   46   1.268   2.849   0.060  0.3831  0.0344  0.2151
   16SOL    HW1   47   1.313   2.936   0.092 -3.2879  0.4733  0.3533
   16SOL    HW2   48   1.280   2.783   0.133  0.4792  1.5109  0.5536
   17SOL     OW   49   0.815   0.190   1.309 -0.2360  0.2375  0.2628
   17SOL    HW1   50   0.768   0.128   1.241 -0.2363  1.2141  0.6575
   17SOL    HW2   51   0.757   0.263   1.334  0.6009 -3.4002  0.3183
   18SOL     OW   52   1.166   0.759   3.041 -0.0356  0.0541  0.1705
   18SOL    HW1   53   1.256   0.808   3.071  3.5678  1.9293  0.0284
   18SOL    HW2   54   1.090   0.818   3.060  1.6837 -1.5168 -0.5000
   19SOL     OW   55   2.106   1.615   3.012  0.7615  0.4679  0.3494
   19SOL    HW1   56   2.074   1.692   3.074  0.5931  3.3304  0.2983
   19SOL    HW2   57   2.032   1.546   3.019  2.0895  1.3026 -0.6653
   20SOL     OW   58   1.936   1.804   1.665 -0.2124  1.1447 -0.1083
   20SOL    HW1   59   1.897   1.814   1.761 -0.3883  0.3038  1.6666
   20SOL    HW2   60   1.867   1.767   1.597 -1.7971  2.6578  0.3934
   21SOL     OW   61   0.907   1.212   0.078 -1.1398  0.1877  0.0391
   21SOL    HW1   62   0.898   1.253   0.168 -2.2158 -1.0703 -1.6571
   21SOL    HW2   63   0.827   1.245   0.019 -1.8643 -0.0566 -0.6849
   22SOL     OW   64   2.253   3.080   1.210 -0.2029 -0.1850 -0.2667
   22SOL    HW1   65   2.179   0.022   1.148 -1.3645 -0.0310  0.3251
   22SOL    HW2   66   2.323   3.020   1.163  3.5444 -3.1258  0.8115
   23SOL     OW   67   3.081   0.782   1.734  0.7072 -0.1299  0.1098
   23SOL    HW1   68   3.080   0.691   1.682 -0.6178 -0.0974  0.4995
   23SOL    HW2   69   0.011   0.857   1.670  0.0717  0.8913  3.5580
   24SOL     OW   70   2.109   2.572   1.160 -0.7531 -0.1398 -0.3317
   24SOL    HW1   71   2.121   2.664   1.118 -1.6859  0.3504  0.0916
   24SOL    HW2   72   2.010   2.544   1.149 -0.8072 -1.0622 -0.2741
   25SOL     OW   73   1.772   2.881   2.870 -0.0245  0.6185  0.4272
   25SOL    HW1   74   1.673   2.919   2.870 -2.2050  0.4426  1.4969
   25SOL    HW2   75   1.806   2.865   2.778 -1.1247 -0.1924  1.7597
   26SOL     OW   76   1.317   2.690   0.277  0.4753  0.2061  0.0746
   26SOL    HW1   77   1.231   2.708   0.324 -1.9714 -1.7081  2.1760
   26SOL    HW2   78   1.317   2.592   0.245  0.6719 -1.1341 -0.8084
   27SOL     OW   79   0.502   1.672   2.641  0.5487 -0.7675  0.5790
   27SOL    HW1   80   0.448   1.760   2.623 -0.1164  0.2643 -0.9447
   27SOL    HW2   81   0.485   1.595   2.577  0.8513 -0.0351  1.2949
   28SOL     OW   82   0.058   1.241   1.583  0.2462  0.1225  0.1139
   28SOL    HW1   83   0.044   1.322   1.525  2.0279  0.1545  1.4722
   28SOL    HW2   84   0.158   1.235   1.614  0.5687  0.4564 -0.8377
   29SOL     OW   85   2.680   2.083   2.225  0.1079 -0.0459 -0.1333
   29SOL    HW1   86   2.767   2.032   2.230 -0.6530 -0.6372  1.2957
   29SOL    HW2   87   2.692   2.169   2.176  1.1483 -3.2163  0.6159
   30SOL     OW   88   1.382   3.071   0.127 -0.3465  0.0274  0.4214
   30SOL    HW1   89   1.400   0.037   0.044  0.8459 -0.7362  0.6158
   30SOL    HW2   90   1.404   0.031   0.211  1.7638 -0.6894 -0.9556
   31SOL     OW   91   2.565   2.510   1.888  0.0031  0.1442 -0.5527
   31SOL    HW1   92   2.516   2.573   1.949  0.1658 -2.3166 -0.3844
   31SOL    HW2   93   2.656   2.545   1.867 -2.0507 -1.7941  0.0623
   32SOL     OW   94   1.324   1.179   1.477 -0.4354 -0.1472  0.7134
   32SOL    HW1   95   1.339   1.277   1.489  0.4778 -1.8884 -1.5491
   32SOL    HW2   96   1.224   1.154   1.479  0.5734 -0.9983 -0.1948
   33SOL     OW   97   3.058   2.574   2.520 -0.6008  0.2444 -0.2381
   33SOL    HW1   98   0.034   2.597   2.443  1.5714 -0.5584 -0.3957
   33SOL    HW2   99   2.972   2.623   2.515 -0.1213 -0.7367 -0.4667
   34SOL     OW  100   1.832   0.290   0.905  0.0749 -0.1718 -0.7618
   34SOL    HW1  101   1.918   0.311   0.857 -1.3067 -1.3549  3.0581
   34SOL    HW2  102   1.830   0.194   0.927 -1.3464 -1.5429  1.3442
   35SOL     OW  103   2.309   0.173   0.690 -0.6335  0.3915  0.4249
   35SOL    HW1  104   2.331   0.071   0.686  2.8652  0.8068 -0.2691
   35SOL    HW2  105   2.317   0.214   0.594  0.4668  1.3722 -3.8537
   36SOL     OW  106   1.921   2.816   2.634  0.3725 -0.2108 -0.5543
   36SOL    HW1  107   1.985   2.873   2.576 -0.5330 -0.1022 -0.2409
   36SOL    HW2  108   1.879   2.744   2.577  0.7885 -1.1067 -1.2598
   37SOL     OW  109   1.100   2.538   2.529  0.3087 -0.2544  0.2228
   37SOL    HW1  110   1.021   2.535   2.596 -1.3434 -2.2536 -2.7872
   37SOL    HW2  111   1.182   2.593   2.568  3.8470 -0.4278 -1.0735
   38SOL     OW  112   2.844   0.290   2.694  0.1965 -0.1042  0.4748
   38SOL    HW1  113   2.747   0.309   2.726 -1.7982 -1.6985  1.0658
   38SOL    HW2  114   2.891   0.221   2.755 -0.1992 -0.1516 -1.7453
   39SOL     OW  115   2.130   1.601   1.750 -0.2981  0.0658  0.0908
   39SOL    HW1  116   2.187   1.535   1.695  2.6601 -4.8089 -0.3561
   39SOL    HW2  117   2.095   1.680   1.697  0.0321  0.7046 -0.8765
   40SOL     OW  118   0.237   2.861   2.597  0.4330 -0.1009  0.0807
   40SOL    HW1  119   0.266   2.926   2.670  0.7955 -1.2823  1.1893
   40SOL    HW2  120   0.160   2.802   2.630  1.3884 -1.2144  0.2298
   41SOL     OW  121   1.682   0.467   0.765  0.3024 -0.9702  0.1843
   41SOL    HW1  122   1.668   0.563   0.805 -2.8475 -0.3290 -0.9300
   41SOL    HW2  123   1.701   0.398   0.832  0.0541  1.4316 -3.1076
   42SOL     OW  124   0.622   0.689   1.346 -0.3921 -0.1457  0.0158
   42SOL    HW1  125   0.553   0.627   1.380  1.4166  3.0945 -3.9578
   42SOL    HW2  126   0.620   0.779   1.395 -1.9650 -0.9711 -0.6052
   43SOL     OW  127   2.568   1.409   2.331  0.2815  0.3284 -0.5407
   43SOL    HW1  128   2.540   1.366   2.245  0.3441  1.6561  3.7828
   43SOL    HW2  129   2.579   1.350   2.413  1.2609  2.2584  0.2834
   44SOL     OW  130   2.770   2.849   0.642  0.0419  0.2880  0.3646
   44SOL    HW1  131   2.764   2.951   0.635 -0.5561 -1.7476 -0.2739
   44SOL    HW2  132   2.846   2.819   0.705 -0.4941 -1.3853  0.3524
   45SOL     OW  133   2.996   2.331   1.970 -0.3731 -0.4921  0.3029
   45SOL    HW1  134   2.943   2.388   1.909  3.0364 -1.6437 -2.8175
   45SOL    HW2  135   3.086   2.314   1.934 -1.1088  0.3111  2.9262
   46SOL     OW  136   2.217   2.247   2.354  0.2729  0.2891  0.5570
   46SOL    HW1  137   2.223   2.153   2.391 -5.2472 -2.8194 -2.6868
   46SOL    HW2  138   2.265   2.252   2.263 -0.6550  1.4650  0.0228
   47SOL     OW  139   1.990   2.092   1.619 -0.2141 -0.3394  0.0073
   47SOL    HW1  140   2.007   2.007   1.671  0.7744  0.3017  1.7238
   47SOL    HW2  141   1.899   2.083   1.569 -1.7781  1.1308 -1.0649
   48SOL     OW  142   0.646   1.635   0.478 -0.1955  0.5113 -0.5930
   48SOL    HW1  143   0.569   1.599   0.420 -2.1273 -0.0360 -1.5933
   48SOL    HW2  144   0.732   1.619   0.423  0.3150  1.5095 -0.3847
   49SOL     OW  145   2.432   0.277   2.483 -0.3397 -0.0497 -0.1490
   49SOL    HW1  146   2.377   0.263   2.569  0.4657 -0.0978  2.0180
   49SOL    HW2  147   2.493   0.360   2.492  3.2786  0.0685  0.1599
   50SOL     OW  148   2.369   1.023   0.286 -0.4512 -0.5169 -0.5404
   50SOL    HW1  149   2.444   0.972   0.333  0.1113  0.7305 -0.7703
   50SOL    HW2  150   2.338   0.973   0.201 -0.0881 -2.2001 -2.1689
   51SOL     OW  151   2.014   0.692   1.084  0.4558  0.4731 -0.2353
   51SOL    HW1  152   1.964   0.605   1.118 -0.3092 -0.8251  1.5157
   51SOL    HW2  153   2.112   0.692   1.107 -0.0114  1.3336 -0.3024
   52SOL     OW  154   1.212   1.481   2.853  0.0053 -0.0826 -0.7734
   52SOL    HW1  155   1.195   1.444   2.951  0.5072 -1.7570  1.0760
   52SOL    HW2  156   1.186   1.578   2.846 -1.4330  3.0170  0.5445
   53SOL     OW  157   1.073   1.575   2.012  0.2375 -0.7179  0.0197
   53SOL    HW1  158   0.987   1.625   2.030  0.2911 -1.0110 -1.2189
   53SOL    HW2  159   1.062   1.515   1.932 -2.2979  0.4635 -0.2671
   54SOL     OW  160   2.247   0.319   1.076 -0.8224  0.5409 -0.0781
   54SOL    HW1  161   2.178   0.244   1.074  1.2213 -0.2387  1.7606
   54SOL    HW2  162   2.317   0.309   0.998  3.1469 -3.7874 -1.2809
   55SOL     OW  163   2.509   2.730   0.712  0.5351 -0.3007 -0.1194
   55SOL    HW1  164   2.470   2.664   0.651  0.5223  1.8154  3.2295
   55SOL    HW2  165   2.598   2.771   0.686 -0.2956  1.2727  2.8704
   56SOL     OW  166   0.797   2.810   1.496 -0.5642 -0.1258 -0.2237
   56SOL    HW1  167   0.790   2.780   1.395  0.1749 -0.1922 -3.3749
   56SOL    HW2  168   0.899   2.828   1.515  3.1707  1.2494 -2.0926
   57SOL     OW  169   1.534   1.313   0.328  0.2655 -0.0905  0.2009
   57SOL    HW1  170   1.460   1.270   0.392  0.0719 -0.3619 -0.8516
   57SOL    HW2  171   1.580   1.390   0.374 -1.0200  0.0866 -1.7785
   58SOL     OW  172   0.029   0.439   2.233  0.6048 -0.7966 -0.4321
   58SOL    HW1  173   3.057   0.516   2.265 -1.1529  1.7369 -0.6332
   58SOL    HW2  174   3.086   0.352   2.270  2.9181  2.2728 -3.9982
   59SOL     OW  175   0.939   2.787   2.758 -0.3329  0.4715  0.3283
   59SOL    HW1  176   1.009   2.825   2.821  2.0007 -2.6527  1.2421
   59SOL    HW2  177   0.938   2.685   2.768  1.0684 -1.1487 -1.1865
   60SOL     OW  178   2.189   2.713   0.552  0.0505 -0.1104  0.0566
   60SOL    HW1  179   2.273   2.656   0.556  0.7519 -0.2838 -2.7109
   60SOL    HW2  180   2.193   2.775   0.466  1.8864 -2.1703 -2.3482
   61SOL     OW  181   1.212   2.297   0.856 -0.1741  0.5589  0.0354
   61SOL    HW1  182   1.183   2.280   0.757  0.4946 -0.9940 -4.1977
   61SOL    HW2  183   1.278   2.376   0.866 -1.2103  2.2838  3.5280
   62SOL     OW  184   2.412   2.138   2.765  0.3736 -0.0395 -0.2627
   62SOL    HW1  185   2.324   2.103   2.727 -0.4505 -0.3192 -0.1726
   62SOL    HW2  186   2.496   2.078   2.752  1.0282  0.3324 -1.0954
   63SOL     OW  187   2.391   0.713   2.677  0.0738 -0.4206  0.3561
   63SOL    HW1  188   2.382   0.690   2.580 -0.5586 -0.5302  1.9939
   63SOL    HW2  189   2.440   0.645   2.732  0.3405  0.2494  0.3001
   64SOL     OW  190   1.279   0.640   2.841  0.0144  0.4013  0.5087
   64SOL    HW1  191   1.225   0.685   2.911  1.1046 -1.4599  0.0651
   64SOL    HW2  192   1.345   0.576   2.880 -2.3631  3.2956  1.1714
   65SOL     OW  193   0.990   1.901   0.565 -0.3284  0.6910  0.3452
   65SOL    HW1  194   0.914   1.913   0.501 -0.6425 -0.3785 -0.5561
   65SOL    HW2  195   1.075   1.937   0.520  4.3982 -0.0281 -1.5388
   66SOL     OW  196   0.254   1.067   1.905  0.1416  0.6278 -0.2866
   66SOL    HW1  197   0.266   1.164   1.930 -0.1368  0.6437  0.8540
   66SOL    HW2  198   0.345   1.021   1.914 -1.5998  2.8240 -0.6034
   67SOL     OW  199   2.288   3.052   2.352 -0.0827  0.1841  0.1648
   67SOL    HW1  200   2.389   3.047   2.365 -2.3503 -1.2961 -0.2619
   67SOL    HW2  201   2.250   2.965   2.382  1.9180 -0.4993 -1.1836
   68SOL     OW  202   0.678   2.063   1.159 -0.3163  0.1252 -0.0835
   68SOL    HW1  203   0.684   1.965   1.126  1.6575 -5.1586 -2.4206
   68SOL    HW2  204   0.584   2.091   1.175 -0.9592  1.9622 -0.2125
   69SOL     OW  205   1.080   2.493   0.460 -0.1008 -0.1350 -0.3661
   69SOL    HW1  206   0.981   2.511   0.476  1.1288 -0.0803 -0.8874
   69SOL    HW2  207   1.146   2.538   0.528  2.8194  0.7270  2.4387
   70SOL     OW  208   3.016   1.009   2.923 -0.0194  0.1121  0.3367
   70SOL    HW1  209   3.033   1.114   2.916  0.4241  3.6686  1.0667
   70SOL    HW2  210   3.026   0.972   2.829  0.0634  0.2742 -1.5916
   71SOL     OW  211   2.934   1.448   2.731  0.0365  0.2749 -0.0938
   71SOL    HW1  212   2.991   1.411   2.652  1.1164 -4.1160  2.3915
   71SOL    HW2  213   2.855   1.500   2.689  0.0580 -0.2739 -0.6185
   72SOL     OW  214   3.026   2.227   0.305  0.5062 -0.4352  0.4180
   72SOL    HW1  215   2.996   2.140   0.260  0.1493  1.2086  1.9353
   72SOL    HW2  216   3.066   2.210   0.400  1.8726 -0.7307 -0.3464
   73SOL     OW  217   0.860   1.340   0.316  0.3877 -0.2400 -0.2952
   73SOL    HW1  218   0.923   1.325   0.394  2.7403 -2.3755  0.8783
   73SOL    HW2  219   0.877   1.435   0.279  0.0785  2.8837 -1.2675
   74SOL     OW  220   2.844   0.479   3.077  0.5077  0.3465 -0.2222
   74SOL    HW1  221   2.770   0.411   3.077  2.4064 -0.4287  1.1889
   74SOL    HW2  222   2.892   0.477   2.992 -1.9218  0.9349  0.4506
   75SOL     OW  223   2.069   1.396   1.905 -0.3614 -0.2404  0.3506
   75SOL    HW1  224   2.087   1.480   1.844 -1.7100 -0.0332 -0.5645
   75SOL    HW2  225   2.044   1.431   2.001  0.1877  1.4750  2.5163
   76SOL     OW  226   2.081   2.706   1.532 -0.1170 -0.7173  0.2147
   76SOL    HW1  227   2.159   2.637   1.528  1.6729 -0.8189 -3.3116
   76SOL    HW2  228   2.013   2.674   1.596  3.0784  0.5724 -3.7204
   77SOL     OW  229   2.673   0.408   1.245 -0.1040  0.0910 -0.2841
   77SOL    HW1  230   2.764   0.417   1.191  2.5754 -2.4235 -1.4328
   77SOL    HW2  231   2.623   0.321   1.213 -1.7190 -0.1247  1.1739
   78SOL     OW  232   1.397   0.911   0.016  0.1523  0.4792 -0.1131
   78SOL    HW1  233   1.477   0.881   3.053 -1.8427  2.0013 -0.0023
   78SOL    HW2  234   1.354   0.994   3.068  0.0542 -2.0506 -1.2990
   79SOL     OW  235   0.573   1.830   1.742  0.0573 -0.2868 -0.3627
   79SOL    HW1  236   0.605   1.925   1.734 -1.9956 -1.6648  1.6968
   79SOL    HW2  237   0.650   1.767   1.735 -2.2467  3.1545 -2.0391
   80SOL     OW  238   1.571   0.964   1.012 -0.3779 -0.3592 -0.0170
   80SOL    HW1  239   1.520   1.005   1.088 -0.6049 -0.3352 -3.1260
   80SOL    HW2  240   1.629   1.032   0.959  1.6967 -2.5966 -0.9332
   81SOL     OW  241   0.396   0.134   1.044 -0.5553  0.2245  0.0996
   81SOL    HW1  242   0.305   0.080   1.039 -2.0232  0.2322  0.0218
   81SOL    HW2  243   0.463   0.110   0.973 -2.2311  1.8956 -2.7258
   82SOL     OW  244   1.671   2.823   1.749  0.2831 -0.1235  0.3797
   82SOL    HW1  245   1.569   2.807   1.742 -1.7273  2.1534  1.6505
   82SOL    HW2  246   1.698   2.876   1.834 -2.1428 -1.0847 -0.2882
   83SOL     OW  247   0.570   2.908   1.219 -0.4411  0.1992  0.0240
   83SOL    HW1  248   0.497   2.860   1.167  0.4618  1.6437 -0.8176
   83SOL    HW2  249   0.642   2.842   1.247  2.0001  4.3823 -1.0494
   84SOL     OW  250   0.265   1.176   2.824 -0.1085  0.3332 -0.2484
   84SOL    HW1  251   0.186   1.229   2.781 -2.0387  0.2362 -2.1909
   84SOL    HW2  252   0.332   1.147   2.752 -0.1090 -0.8647  1.2315
   85SOL     OW  253   2.957   2.300   1.581 -0.3133  0.2201  0.1801
   85SOL    HW1  254   2.962   2.365   1.498 -1.1095  1.4542  0.2397
   85SOL    HW2  255   2.874   2.240   1.573  0.9671  0.4665 -0.0461
   86SOL     OW  256   2.676   2.546   1.346 -0.5015  0.1974 -0.9172
   86SOL    HW1  257   2.776   2.516   1.342 -1.3675 -0.4679  2.5540
   86SOL    HW2  258   2.621   2.464   1.317 -0.0142 -1.1911 -0.2511
   87SOL     OW  259   2.723   2.445   2.751 -0.0067 -0.2312  0.3444
   87SOL    HW1  260   2.773   2.528   2.776 -1.0508 -0.0366  0.7260
   87SOL    HW2  261   2.795   2.376   2.733 -0.5397  2.6096  0.0465
   88SOL     OW  262   0.315   1.818   1.251  0.2141 -0.1433 -0.3202
   88SOL    HW1  263   0.380   1.778   1.320 -0.5439 -1.6934 -1.1776
   88SOL    HW2  264   0.309   1.767   1.164 -0.9048  0.6837  4.6917
   89SOL     OW  265   0.960   0.084   1.866  0.2542 -0.0722 -0.1657
   89SOL    HW1  266   0.931   0.077   1.769  1.2069 -2.5217  3.3238
   89SOL    HW2  267   0.975   3.081   1.898  1.8717 -2.0046 -3.8046
   90SOL     OW  268   0.169   1.991   1.780  0.1639 -0.3402 -0.3568
   90SOL    HW1  269   0.104   1.962   1.854 -1.0981  1.5104 -0.0145
   90SOL    HW2  270   0.234   2.066   1.800 -0.0819 -1.3510 -0.7978
   91SOL     OW  271   1.010   1.615   0.606  0.3683 -0.6404  0.1584
   91SOL    HW1  272   1.062   1.563   0.536  2.2109  2.3287 -0.2381
   91SOL    HW2  273   1.003   1.713   0.579  1.4138  0.5372 -1.8139
   92SOL     OW  274   2.514   0.187   1.155  0.0905 -0.4523 -0.0405
   92SOL    HW1  275   2.413   0.197   1.178 -0.6505  0.4038 -0.4660
   92SOL    HW2  276   2.517   0.146   1.059 -1.8729 -0.0724  2.4105
   93SOL     OW  277   2.474   1.438   2.948 -0.3904 -0.0199  0.6711
   93SOL    HW1  278   2.519   1.392   3.026 -0.6875 -0.2712 -0.2565
   93SOL    HW2  279   2.438   1.380   2.870 -1.3490 -0.8587 -1.0072
   94SOL     OW  280   2.554   2.418   2.551  0.2317 -0.7661 -0.0442
   94SOL    HW1  281   2.612   2.399   2.631  1.7392  1.9672  0.3053
   94SOL    HW2  282   2.576   2.508   2.503  0.2895 -2.4945 -0.7042
   95SOL     OW  283   1.821   0.504   1.523  0.2787  0.2710 -0.0360
   95SOL    HW1  284   1.794   0.465   1.612  1.7890  0.0703  2.0888
   95SOL    HW2  285   1.853   0.422   1.468 -0.1890 -3.7890  2.6541
   96SOL     OW  286   2.950   2.650   1.594 -0.0396 -0.1361  0.8171
   96SOL    HW1  287   2.901   2.592   1.523 -0.1811  0.5544 -2.3834
   96SOL    HW2  288   2.926   2.747   1.594  0.8912 -0.7295  0.8869
   97SOL     OW  289   2.294   0.113   1.494 -0.6273 -0.0543 -0.4834
   97SOL    HW1  290   2.261   0.066   1.408 -0.6807 -0.5117 -3.0735
   97SOL    HW2  291   2.298   0.210   1.481  0.3931 -4.0623  2.5343
   98SOL     OW  292   1.570   2.393   1.563  0.0351  0.0823 -0.4928
   98SOL    HW1  293   1.631   2.346   1.496  0.7842  0.6839 -1.0997
   98SOL    HW2  294   1.538   2.333   1.640 -1.7293 -2.0411  3.1703
   99SOL     OW  295   0.098   2.783   1.693 -0.2269 -0.2428 -0.0159
   99SOL    HW1  296   0.133   2.786   1.595  0.1868 -1.1553 -1.8792
   99SOL    HW2  297   0.036   2.703   1.699  0.3751  1.4349  0.5826
  100SOL     OW  298   0.045   0.968   2.441 -0.0667  0.5319  0.0849
  100SOL    HW1  299   0.012   0.954   2.344 -1.1738 -1.0679 -2.6869
  100SOL    HW2  300   0.094   1.057   2.454  0.9247 -0.5446  0.9740
  101SOL     OW  301   1.982   0.640   0.048  0.0987 -0.2800  0.0509
  101SOL    HW1  302   1.968   0.541   0.067  1.5815  1.3021  1.1233
  101SOL    HW2  303   1.970   0.691   0.133 -0.3173  1.6903 -2.8118
  102SOL     OW  304   0.278   0.573   1.147  0.4245 -0.1521  0.0065
  102SOL    HW1  305   0.346   0.514   1.098  0.8077  0.9879  0.8512
  102SOL    HW2  306   0.246   0.651   1.091  0.1776  0.1556  2.1627
  103SOL     OW  307   2.611   0.726   2.315 -0.2195  0.4255 -0.1460
  103SOL    HW1  308   2.559   0.805   2.271  0.7489 -1.3611 -1.3858
  103SOL    HW2  309   2.650   0.664   2.243  2.8414 -1.7234 -0.3946
  104SOL     OW  310   0.336   0.173   2.504 -0.6649  0.3182  0.0914
  104SOL    HW1  311   0.422   0.198   2.460 -0.4298  0.4061 -0.6140
  104SOL    HW2  312   0.359   0.136   2.595 -0.0770  1.1762  2.4957
  105SOL     OW  313   2.114   1.170   1.621  0.2431  0.3522 -0.0318
  105SOL    HW1  314   2.105   1.085   1.560  1.0453 -5.5852 -1.6654
  105SOL    HW2  315   2.023   1.198   1.658 -0.6135  0.9618  1.3475
  106SOL     OW  316   1.024   3.077   0.378 -0.0817 -0.3609 -0.5289
  106SOL    HW1  317   0.994   3.034   0.463  0.1063  0.2535 -1.8168
  106SOL    HW2  318   0.980   3.044   0.294 -0.9548  0.7488  0.5846
  107SOL     OW  319   0.479   1.693   1.437  0.0974  0.1319  0.2575
  107SOL    HW1  320   0.420   1.716   1.518  2.2821  1.7900 -1.2240
  107SOL    HW2  321   0.576   1.708   1.451 -1.9164 -0.1391  0.0584
  108SOL     OW  322   0.229   2.879   2.139  0.0692  0.0765  0.6992
  108SOL    HW1  323   0.287   2.844   2.213  0.3640  0.3547 -2.1800
  108SOL    HW2  324   0.231   2.980   2.132  0.9522 -1.3976 -2.0132
  109SOL     OW  325   1.858   0.393   0.167 -0.3784  0.2002  0.0023
  109SOL    HW1  326   1.781   0.447   0.212  0.7049  1.4222 -0.4545
  109SOL    HW2  327   1.822   0.311   0.123  0.3532 -1.3332  2.2871
  110SOL     OW  328   0.351   2.397   2.401  0.2033 -0.1961 -0.1029
  110SOL    HW1  329   0.296   2.384   2.316 -1.0524 -1.4135  3.5252
  110SOL    HW2  330   0.389   2.492   2.405 -0.7014 -1.0075 -2.0813
  111SOL     OW  331   1.358   2.564   2.147  0.0222  0.0936  0.0200
  111SOL    HW1  332   1.295   2.622   2.098 -1.4700 -2.0196  3.2824
  111SOL    HW2  333   1.369   2.592   2.246  0.9541  2.6156  0.9193
  112SOL     OW  334   1.983   2.135   2.562 -0.2915  0.3257  0.4576
  112SOL    HW1  335   2.065   2.101   2.613  0.6139 -0.0920 -0.1298
  112SOL    HW2  336   1.911   2.058   2.553 -3.0186 -2.4416  0.0760
  113SOL     OW  337   2.185   2.763   1.836 -0.3801 -0.0721  0.7235
  113SOL    HW1  338   2.119   2.693   1.796 -3.6457 -4.1031 -2.2708
  113SOL    HW2  339   2.215   2.822   1.760 -1.6350 -1.0376 -1.6844
  114SOL     OW  340   2.961   0.905   0.789  0.2069 -0.1944 -0.5723
  114SOL    HW1  341   3.016   0.944   0.866 -3.4605 -0.1132 -3.5874
  114SOL    HW2  342   2.946   0.968   0.704 -3.4416  0.4195 -2.6413
  115SOL     OW  343   0.214   1.646   2.868  0.9203 -0.1846  0.2590
  115SOL    HW1  344   0.308   1.680   2.861 -0.5848 -0.9056  1.2852
  115SOL    HW2  345   0.146   1.716   2.839  1.4521  0.5678  0.4140
  116SOL     OW  346   0.299   1.325   2.005  0.0628 -0.2482  0.1137
  116SOL    HW1  347   0.304   1.408   1.951 -0.7202  0.2281 -0.6701
  116SOL    HW2  348   0.237   1.343   2.082 -0.3137 -0.9204  0.2570
  117SOL     OW  349   2.763   0.017   0.620  0.4303 -0.7696 -0.2041
  117SOL    HW1  350   2.690   0.083   0.649 -2.5242  1.5226  0.8480
  117SOL    HW2  351   2.815   0.051   0.540  1.9917  4.2215 -0.5681
  118SOL     OW  352   1.159   1.943   1.651 -0.4937 -0.0813 -0.2866
  118SOL    HW1  353   1.084   1.886   1.613 -2.7420  3.6887 -0.9095
  118SOL    HW2  354   1.154   1.940   1.755  1.3829 -4.0594  1.7180
  119SOL     OW  355   1.249   2.201   0.330 -0.1829  0.7527 -0.3323
  119SOL    HW1  356   1.259   2.272   0.400 -1.5535 -0.0021 -3.6157
  119SOL    HW2  357   1.229   2.111   0.373  0.1652 -0.2390  0.7416
  120SOL     OW  358   0.192   1.183   2.455 -0.3550 -0.5978 -0.0070
  120SOL    HW1  359   0.205   1.285   2.440  1.1512 -0.7626  3.5162
  120SOL    HW2  360   0.265   1.120   2.411  1.3191 -0.5677 -2.5933
  121SOL     OW  361   2.206   2.800   1.060 -0.0459  0.4543 -0.5125
  121SOL    HW1  362   2.204   2.802   0.960  1.8524  1.4451  3.0759
  121SOL    HW2  363   2.304   2.799   1.094  1.0515 -1.3159  1.3874
  122SOL     OW  364   2.236   2.020   1.907  0.5174  0.6720  0.3761
  122SOL    HW1  365   2.287   1.991   1.989 -1.1806 -0.4257 -0.2849
  122SOL    HW2  366   2.233   2.123   1.895  4.2076  2.4288 -0.1450
  123SOL     OW  367   0.038   0.026   0.577  0.2009 -0.4431  0.2212
  123SOL    HW1  368   3.051   0.071   0.521 -1.8986 -0.7822 -1.2772
  123SOL    HW2  369   0.046   3.023   0.552 -1.4660  3.0521 -1.3253
  124SOL     OW  370   1.855   0.733   2.415  0.3549  0.2896 -0.3048
  124SOL    HW1  371   1.763   0.766   2.384 -0.2763  0.3004  0.0168
  124SOL    HW2  372   1.919   0.714   2.338  2.6137 -0.7131  0.2877
  125SOL     OW  373   0.410   1.216   0.543 -0.0984  0.3562 -0.1597
  125SOL    HW1  374   0.480   1.209   0.467  1.3370 -0.3118  0.3933
  125SOL    HW2  375   0.446   1.161   0.623  3.7886 -0.0822  1.1351
  126SOL     OW  376   2.348   1.608   0.642  0.4026  0.2200  0.4212
  126SOL    HW1  377   2.298   1.563   0.565 -0.0707  0.0460 -2.9425
  126SOL    HW2  378   2.374   1.551   0.720  1.0081 -0.2488 -1.1361
  127SOL     OW  379   0.022   2.052   1.549 -0.2604 -0.5489 -0.4956
  127SOL    HW1  380   0.100   2.018   1.607  0.3100  1.0474  2.2408
  127SOL    HW2  381   3.083   2.143   1.580 -0.6695 -2.4559 -0.5972
  128SOL     OW  382   0.843   0.629   2.461  0.1459 -0.3067  0.2795
  128SOL    HW1  383   0.849   0.613   2.357  0.4983  0.5387 -0.6171
  128SOL    HW2  384   0.926   0.667   2.502 -0.1080 -2.0485  2.0523
  129SOL     OW  385   2.203   1.225   1.284  0.0423  0.1925 -0.1792
  129SOL    HW1  386   2.246   1.133   1.311  0.7660 -0.6059  0.3118
  129SOL    HW2  387   2.216   1.293   1.360  2.3983  0.5509 -0.4759
  130SOL     OW  388   2.498   1.405   1.614 -0.2693  0.1687  0.3447
  130SOL    HW1  389   2.565   1.438   1.547  0.7290 -2.3692 -0.1157
  130SOL    HW2  390   2.522   1.418   1.711 -1.7681  1.2083  0.1347
  131SOL     OW  391   2.719   0.964   2.899 -0.0771 -0.3082 -0.4652
  131SOL    HW1  392   2.806   1.001   2.937 -1.5801 -1.8121 -1.3729
  131SOL    HW2  393   2.741   0.867   2.861  0.0780 -1.6066  0.9385
  132SOL     OW  394   2.362   2.258   2.123  0.9916  0.5014 -0.0221
  132SOL    HW1  395   2.302   2.269   2.042 -1.4985  1.0103 -1.1944
  132SOL    HW2  396   2.401   2.348   2.150 -2.9802 -0.0026 -1.5912
  133SOL     OW  397   0.508   1.125   0.799  0.1009  0.2935  0.2645
  133SOL    HW1  398   0.471   1.220   0.790 -2.9579  0.8402  1.3916
  133SOL    HW2  399   0.532   1.104   0.895 -0.5642 -2.4164  0.5390
  134SOL     OW  400   0.283   1.321   3.056 -0.4107  0.0259  0.7029
  134SOL    HW1  401   0.192   1.306   0.003 -0.3000  2.7774  1.1440
  134SOL    HW2  402   0.285   1.277   2.961 -3.0021 -2.1713 -2.3211
  135SOL     OW  403   2.055   1.588   1.369  1.1436 -0.4576  0.3539
  135SOL    HW1  404   2.120   1.527   1.409 -2.3437  3.7993  3.4147
  135SOL    HW2  405   2.019   1.555   1.278 -2.4221 -2.0302  0.9673
  136SOL     OW  406   2.374   1.143   0.707 -0.2641  0.2307 -0.5759
  136SOL    HW1  407   2.400   1.170   0.613  0.3300 -2.0992 -1.4019
  136SOL    HW2  408   2.272   1.142   0.718  2.6042 -0.1573  0.8856
  137SOL     OW  409   2.581   1.779   0.988  0.0102 -0.0098  0.3143
  137SOL    HW1  410   2.502   1.752   1.047 -0.6325  0.5303 -3.4923
  137SOL    HW2  411   2.601   1.878   1.011 -0.6650  0.7601  1.2718
  138SOL     OW  412   1.763   0.467   1.804 -0.4333  0.0693  0.3138
  138SOL    HW1  413   1.755   0.491   1.903 -3.8500 -1.1627 -0.6589
  138SOL    HW2  414   1.718   0.374   1.790 -1.3166 -0.4712 -0.3696
  139SOL     OW  415   2.281   2.973   2.686  0.0189  0.1816  0.1682
  139SOL    HW1  416   2.192   3.016   2.662 -0.5205 -0.4675 -0.2151
  139SOL    HW2  417   2.261   2.904   2.761 -2.0796 -0.4792 -0.2965
  140SOL     OW  418   1.672   1.770   2.139  0.5115 -0.2203 -0.0490
  140SOL    HW1  419   1.588   1.711   2.144 -1.4678  0.0250  0.1285
  140SOL    HW2  420   1.756   1.715   2.152  0.8524  1.2418 -1.9540
  141SOL     OW  421   1.856   2.038   1.161 -0.1467  0.2617  0.0074
  141SOL    HW1  422   1.951   2.049   1.199  0.2349 -1.5904 -1.4931
  141SOL    HW2  423   1.804   1.980   1.225 -0.3409 -0.0074  1.0100
  142SOL     OW  424   3.085   0.615   0.093  0.5780  0.2795 -0.0826
  142SOL    HW1  425   2.997   0.577   0.059 -3.3470 -1.1223 -0.9384
  142SOL    HW2  426   3.080   0.648   0.189 -0.0648 -1.2611  0.9249
  143SOL     OW  427   0.380   2.116   2.905  0.3828  0.2731 -0.2274
  143SOL    HW1  428   0.376   2.011   2.907  0.3737 -3.9369  1.7283
  143SOL    HW2  429   0.451   2.146   2.836  3.8548  0.1327  4.3588
  144SOL     OW  430   1.028   2.907   1.851 -0.4481  0.4753 -0.2961
  144SOL    HW1  431   1.024   2.884   1.753 -1.8798  0.7003  2.8610
  144SOL    HW2  432   1.058   2.820   1.898 -0.1021 -1.0050 -0.6415
  145SOL     OW  433   2.006   1.428   0.423  0.2932  0.2734 -0.0789
  145SOL    HW1  434   1.939   1.472   0.359  1.5760  0.3439  0.1023
  145SOL    HW2  435   2.103   1.446   0.403 -0.9139  0.4388  0.8484
  146SOL     OW  436   2.501   0.051   2.760  0.8069 -0.1112  0.3010
  146SOL    HW1  437   2.430   3.074   2.723  1.8800  0.7616 -2.8201
  146SOL    HW2  438   2.594   0.013   2.764 -2.7646  2.2939 -0.4327
  147SOL     OW  439   2.877   2.565   0.879  0.2383  0.0423 -0.5443
  147SOL    HW1  440   2.876   2.476   0.832  2.1288  2.9821  0.9249
  147SOL    HW2  441   2.786   2.588   0.918 -1.5022  0.0301  1.1350
  148SOL     OW  442   1.500   2.947   2.874 -0.4769  0.0990  0.1438
  148SOL    HW1  443   1.451   2.901   2.956 -1.3484 -3.9876  1.2133
  148SOL    HW2  444   1.441   2.963   2.796 -1.1934  1.1784  2.1299
  149SOL     OW  445   1.192   0.364   2.458  0.1764 -0.4456 -0.3649
  149SOL    HW1  446   1.267   0.385   2.524  0.1335  1.3618  1.9736
  149SOL    HW2  447   1.097   0.365   2.497  0.3300 -1.2046 -0.3293
  150SOL     OW  448   0.819   2.581   0.507 -0.1124 -0.2324 -0.0825
  150SOL    HW1  449   0.776   2.625   0.428 -4.0805 -2.1635  1.4712
  150SOL    HW2  450   0.795   2.641   0.587  2.0914  2.5717  1.7682
  151SOL     OW  451   2.893   1.848   0.170 -0.6881  0.0444  0.6236
  151SOL    HW1  452   2.812   1.814   0.108 -1.2974 -0.2121 -3.2243
  151SOL    HW2  453   2.960   1.894   0.110  0.3239  2.1475 -1.0461
  152SOL     OW  454   0.228   1.192   0.927  0.4002 -0.0409  0.4944
  152SOL    HW1  455   0.260   1.114   0.865  0.6206  2.6609 -0.1443
  152SOL    HW2  456   0.285   1.275   0.912 -2.5331 -2.6285 -0.8025
  153SOL     OW  457   2.255   2.854   0.338  0.3199  0.1885  0.2185
  153SOL    HW1  458   2.261   2.957   0.317  2.1297  0.8873 -3.2792
  153SOL    HW2  459   2.184   2.803   0.284 -2.1000 -2.2225  1.4461
  154SOL     OW  460   0.950   0.452   1.533 -0.6770 -0.1046 -0.3273
  154SOL    HW1  461   0.919   0.544   1.563  0.6461 -1.9320  0.8827
  154SOL    HW2  462   0.901   0.381   1.584 -2.7249 -0.1586 -0.4661
  155SOL     OW  463   2.966   1.944   1.171 -0.0309  0.1630 -0.2947
  155SOL    HW1  464   3.032   1.916   1.246  1.6214 -1.6018 -1.0986
  155SOL    HW2  465   2.881   1.890   1.184 -0.4807  0.4636 -1.4067
  156SOL     OW  466   2.053   2.213   0.248  1.0525 -0.4587  0.6047
  156SOL    HW1  467   2.126   2.152   0.277 -2.9946  1.9323 -1.5502
  156SOL    HW2  468   2.063   2.237   0.150 -0.3590  1.5526  0.2705
  157SOL     OW  469   1.027   2.706   0.957  0.9180  0.4150 -0.0425
  157SOL    HW1  470   0.977   2.616   0.950 -2.9361  0.6584 -0.1184
  157SOL    HW2  471   1.094   2.711   0.886  0.2496 -1.1857  2.3122
  158SOL     OW  472   2.510   0.522   2.446 -0.1674  0.1485  0.0760
  158SOL    HW1  473   2.422   0.571   2.457 -0.2167  1.7548  2.6374
  158SOL    HW2  474   2.573   0.588   2.398 -1.3049  1.2378  1.4599
  159SOL     OW  475   0.610   0.417   2.884 -0.2253  0.2027 -0.1486
  159SOL    HW1  476   0.640   0.476   2.962 -0.7890  3.0594 -1.0991
  159SOL    HW2  477   0.507   0.429   2.875 -0.3794  0.1002  0.4310
  160SOL     OW  478   0.783   1.970   0.155  0.3884 -0.0241 -0.1947
  160SOL    HW1  479   0.781   2.060   0.107  0.0215 -0.5242  1.7360
  160SOL    HW2  480   0.850   1.902   0.115  0.2239 -0.7337 -0.7641
  161SOL     OW  481   2.989   2.102   2.908  0.4697 -0.2753 -0.5918
  161SOL    HW1  482   3.030   2.123   2.816 -0.2238  1.9680 -1.0856
  161SOL    HW2  483   2.974   2.188   2.960  3.4743 -1.0175  2.3005
  162SOL     OW  484   0.373   2.789   1.097  0.0752  0.1586  0.5720
  162SOL    HW1  485   0.277   2.766   1.118  0.5852  2.9630  1.0836
  162SOL    HW2  486   0.380   2.835   1.006 -0.2919 -0.4060 -1.1881
  163SOL     OW  487   2.224   0.530   2.982 -0.3458  0.5012  0.0501
  163SOL    HW1  488   2.136   0.492   2.948 -0.6448  0.5203 -1.9144
  163SOL    HW2  489   2.217   0.552   3.075 -0.0776 -1.7942 -2.4057
  164SOL     OW  490   2.914   2.049   0.723 -0.0568 -0.2628  0.0127
  164SOL    HW1  491   2.979   2.003   0.792 -0.8092  0.3112  1.5153
  164SOL    HW2  492   2.846   2.110   0.769 -1.1734  0.0540 -0.2162
  165SOL     OW  493   2.842   2.914   1.586  0.3852 -0.0047  0.2535
  165SOL    HW1  494   2.885   2.999   1.556 -2.1200  1.3560 -1.6206
  165SOL    HW2  495   2.750   2.913   1.538 -0.3657 -1.4020 -0.7941
  166SOL     OW  496   2.053   0.319   0.754 -0.2358 -0.0938 -0.2381
  166SOL    HW1  497   2.077   0.417   0.757  1.6292 -3.8226 -0.6049
  166SOL    HW2  498   2.134   0.259   0.746  2.6201 -1.5841  1.6993
  167SOL     OW  499   0.470   0.397   1.014  0.6346 -0.2059  0.1112
  167SOL    HW1  500   0.570   0.392   1.033 -1.1447 -4.0685 -2.5589
  167SOL    HW2  501   0.425   0.307   1.023  0.9092 -1.6600  2.9716
  168SOL     OW  502   2.093   2.907   2.034 -0.3901  0.3257 -0.2462
  168SOL    HW1  503   2.019   2.839   2.056 -0.4847 -1.3420 -0.6504
  168SOL    HW2  504   2.144   2.863   1.954 -0.8124 -1.7916  0.3208
  169SOL     OW  505   0.109   1.397   0.618 -0.5092  0.6989  0.0057
  169SOL    HW1  506   0.180   1.462   0.648  2.0160  0.2411 -0.6440
  169SOL    HW2  507   0.131   1.357   0.529 -0.6610  0.7380  0.6082
  170SOL     OW  508   2.696   0.915   1.192  0.5002 -0.2273  0.5920
  170SOL    HW1  509   2.739   0.826   1.163  0.6901  2.3932 -0.5418
  170SOL    HW2  510   2.625   0.898   1.261  4.0563 -2.7751  2.1580
  171SOL     OW  511   1.156   2.635   1.693 -1.0173 -0.4676 -0.0760
  171SOL    HW1  512   1.205   2.560   1.641  0.2324 -1.3363 -0.1252
  171SOL    HW2  513   1.108   2.597   1.772  1.4156  1.5039 -0.8805
  172SOL     OW  514   0.279   2.471   1.322 -0.1117 -0.2767 -0.1391
  172SOL    HW1  515   0.332   2.522   1.390  0.9415  1.2073  0.4922
  172SOL    HW2  516   0.205   2.533   1.290  0.2023 -1.4197 -0.0430
  173SOL     OW  517   1.402   0.153   2.985 -0.3345  0.1736 -0.4801
  173SOL    HW1  518   1.412   0.123   2.886 -2.2225  2.6597  4.2713
  173SOL    HW2  519   1.490   0.190   3.021  1.9341  0.6718  3.7443
  174SOL     OW  520   1.189   2.378   2.896 -0.0717 -0.1408  0.0137
  174SOL    HW1  521   1.197   2.374   2.995  1.2224  1.7498 -1.0206
  174SOL    HW2  522   1.097   2.339   2.873 -0.3289  1.9851  0.8582
  175SOL     OW  523   1.678   3.048   0.079 -0.6710 -0.4810  0.5580
  175SOL    HW1  524   1.701   3.024   0.180  0.3006 -1.6062  2.6751
  175SOL    HW2  525   1.671   2.968   0.022  1.7386 -0.6646  1.3631
  176SOL     OW  526   1.408   0.095   2.708 -0.1861 -0.0480  1.0023
  176SOL    HW1  527   1.488   0.059   2.647  1.9237 -3.2273 -1.9852
  176SOL    HW2  528   1.337   0.021   2.706 -0.5458  0.1364  2.5477
  177SOL     OW  529   0.913   1.433   0.889 -0.4613  0.2344 -0.2896
  177SOL    HW1  530   0.978   1.372   0.931 -2.8968 -2.2668  0.7754
  177SOL    HW2  531   0.962   1.510   0.843  1.1165 -0.7973 -1.3211
  178SOL     OW  532   2.954   1.697   2.240  0.0365 -0.0412 -0.0544
  178SOL    HW1  533   2.924   1.667   2.145  0.6628 -0.9964  1.6530
  178SOL    HW2  534   2.918   1.623   2.305  3.7949 -1.6321  2.5422
  179SOL     OW  535   0.500   2.576   2.824  0.8125  0.8193 -0.0208
  179SOL    HW1  536   0.494   2.675   2.826 -0.3491 -0.5917  0.7323
  179SOL    HW2  537   0.539   2.550   2.732 -0.9063  3.1413 -1.5699
  180SOL     OW  538   1.795   1.881   1.911  0.1689 -0.1499 -0.1694
  180SOL    HW1  539   1.871   1.925   1.961  2.0578  3.7634  1.0698
  180SOL    HW2  540   1.732   1.841   1.979  0.5353 -0.8032 -0.1598
  181SOL     OW  541   1.027   1.162   2.330 -0.2934  0.5546  0.3791
  181SOL    HW1  542   1.046   1.147   2.425  0.3480  3.0324  0.3677
  181SOL    HW2  543   1.028   1.261   2.308 -1.0705  0.9526 -0.5765
  182SOL     OW  544   0.105   0.290   2.617  0.0044 -0.5975 -0.0588
  182SOL    HW1  545   0.043   0.278   2.539  2.3453 -0.8990  4.0255
  182SOL    HW2  546   0.202   0.268   2.595 -0.1526 -1.7634  1.4691
  183SOL     OW  547   1.163   0.304   2.865  0.0849  0.2148 -0.2875
  183SOL    HW1  548   1.226   0.331   2.786 -1.1900 -0.5252 -2.6140
  183SOL    HW2  549   1.220   0.266   2.944  3.3438  1.6307 -1.9123
  184SOL     OW  550   1.024   1.314   1.413 -0.6383  0.0927  0.2060
  184SOL    HW1  551   0.987   1.225   1.383  0.8767  2.7818  1.2477
  184SOL    HW2  552   0.966   1.394   1.377 -0.0459  1.9145  1.1661
  185SOL     OW  553   3.009   1.180   1.221  0.6679  0.1981  0.4327
  185SOL    HW1  554   0.010   1.197   1.259  1.8866 -2.0299 -1.0223
  185SOL    HW2  555   2.947   1.263   1.232 -2.5601 -0.9127  0.5022
  186SOL     OW  556   0.718   1.756   2.463  0.2701  0.7204 -0.3212
  186SOL    HW1  557   0.740   1.689   2.384 -0.0259  0.5538 -1.4861
  186SOL    HW2  558   0.626   1.728   2.495 -2.1526  0.4551  1.4640
  187SOL     OW  559   2.628   1.541   0.207 -0.4687  0.0742 -0.3759
  187SOL    HW1  560   2.655   1.448   0.174  2.9770  1.3587 -0.5388
  187SOL    HW2  561   2.654   1.545   0.307  1.3219  0.3701  0.8464
  188SOL     OW  562   0.160   2.282   0.698  0.0417 -0.2259 -0.2879
  188SOL    HW1  563   0.258   2.250   0.719  1.8795  2.3562  1.2379
  188SOL    HW2  564   0.108   2.219   0.641 -1.0042  1.3170  0.0026
  189SOL     OW  565   2.587   1.026   0.040 -0.4807 -0.2143 -0.0687
  189SOL    HW1  566   2.629   1.015   3.040 -0.2047 -0.6054 -0.8258
  189SOL    HW2  567   2.638   0.973   0.107 -0.1187  2.1622 -0.9427
  190SOL     OW  568   1.059   1.443   2.242  0.5385  0.2837  0.2731
  190SOL    HW1  569   1.142   1.449   2.303  0.7855  0.6715  1.7855
  190SOL    HW2  570   1.073   1.500   2.157 -2.2458  0.3275 -0.3293
  191SOL     OW  571   2.399   0.338   1.804 -0.3052  0.1814  0.1460
  191SOL    HW1  572   2.423   0.364   1.707 -1.3334 -1.9279 -2.2325
  191SOL    HW2  573   2.354   0.250   1.810  0.9583  1.2120 -1.4684
  192SOL     OW  574   2.111   0.312   1.646  0.0420  0.1885 -0.2234
  192SOL    HW1  575   2.173   0.253   1.705  2.2054  0.2879 -0.5802
  192SOL    HW2  576   2.111   0.406   1.683  0.8892 -0.1083  0.2671
  193SOL     OW  577   0.734   0.417   0.567 -0.0898  0.1608  0.3234
  193SOL    HW1  578   0.791   0.441   0.653  0.1234  0.5600  0.3420
  193SOL    HW2  579   0.750   0.494   0.501  2.5026 -0.5410  0.0721
  194SOL     OW  580   1.204   3.068   1.215 -0.4223  0.4705  0.1942
  194SOL    HW1  581   1.294   3.091   1.266  0.0858 -0.2734  1.2574
  194SOL    HW2  582   1.138   0.062   1.206 -1.1419  1.7561 -1.5233
  195SOL     OW  583   2.567   0.866   0.419  0.2383 -0.0716 -0.5679
  195SOL    HW1  584   2.639   0.881   0.348 -1.6280  1.4998 -0.3439
  195SOL    HW2  585   2.591   0.889   0.516  1.4181  0.3483  1.7485
  196SOL     OW  586   1.555   1.587   1.717 -0.2846 -0.1254  0.9918
  196SOL    HW1  587   1.622   1.542   1.784  0.2905 -2.6054 -0.3021
  196SOL    HW2  588   1.479   1.636   1.765 -1.2853 -1.8012 -1.1599
  197SOL     OW  589   0.029   2.879   0.429  0.1606  0.2051 -0.7195
  197SOL    HW1  590   3.022   2.858   0.401  2.0970  2.6595  0.4201
  197SOL    HW2  591   0.084   2.792   0.440 -0.3305  2.9449 -1.6420
  198SOL     OW  592   0.912   1.245   0.675  0.4184 -0.3537  0.3057
  198SOL    HW1  593   0.877   1.324   0.724 -0.6116 -0.1482  1.7376
  198SOL    HW2  594   0.836   1.187   0.630  1.5882 -1.5884  0.8173
  199SOL     OW  595   2.923   0.600   1.898 -0.0548  0.2192  0.1315
  199SOL    HW1  596   2.866   0.624   1.979  1.1351 -0.2913 -0.9700
  199SOL    HW2  597   2.972   0.681   1.862 -0.5976  0.2140  2.2899
  200SOL     OW  598   2.180   1.970   2.666  0.3528 -0.0412  0.0208
  200SOL    HW1  599   2.224   1.961   2.571  2.2322 -1.9156 -3.2410
  200SOL    HW2  600   2.192   1.883   2.715 -2.4666 -0.0499  0.1461
  201SOL     OW  601   2.367   2.960   0.759 -0.1529  0.0030  0.1388
  201SOL    HW1  602   2.431   2.891   0.722 -2.0017  0.0882 -1.6316
  201SOL    HW2  603   2.274   2.917   0.773  1.3533  0.6407 -0.1560
  202SOL     OW  604   2.709   0.623   0.172 -0.0760  0.0497  0.6521
  202SOL    HW1  605   2.609   0.612   0.167  1.7494  1.1220  1.2213
  202SOL    HW2  606   2.763   0.583   0.095 -2.3444 -0.2940 -3.0325
  203SOL     OW  607   1.364   1.351   2.309  0.1036  0.2260 -0.1959
  203SOL    HW1  608   1.389   1.318   2.214  0.6905 -1.1839 -4.6556
  203SOL    HW2  609   1.346   1.272   2.375  3.6241 -1.3099  1.1823
  204SOL     OW  610   0.823   1.707   2.093  0.0503 -0.0748 -0.7731
  204SOL    HW1  611   0.766   1.791   2.088  1.3702  1.3962  1.2397
  204SOL    HW2  612   0.801   1.647   2.177 -0.7366 -0.4907 -1.4647
  205SOL     OW  613   1.407   1.912   1.549  0.4132 -0.7038  0.3259
  205SOL    HW1  614   1.314   1.921   1.594 -1.2945  0.2290 -0.9302
  205SOL    HW2  615   1.476   1.916   1.624 -1.9596 -0.8738  1.5699
  206SOL     OW  616   0.140   0.525   2.748 -0.0563  0.2110  0.0796
  206SOL    HW1  617   0.126   0.440   2.697  1.3344  1.6319 -1.3888
  206SOL    HW2  618   0.145   0.605   2.683  0.4105  0.4805  0.4243
  207SOL     OW  619   1.776   2.648   2.484 -0.0643 -0.5229 -0.4420
  207SOL    HW1  620   1.829   2.613   2.405 -0.7840  0.4939  2.5977
  207SOL    HW2  621   1.700   2.585   2.504  1.8792  0.8085 -0.2329
  208SOL     OW  622   0.362   2.223   1.774 -0.3297 -0.0214  0.0617
  208SOL    HW1  623   0.390   2.204   1.676  0.8145 -2.0849  0.2601
  208SOL    HW2  624   0.423   2.296   1.808 -0.3400 -1.6835  3.0311
  209SOL     OW  625   1.706   0.735   2.792 -0.2781 -0.6938 -0.2284
  209SOL    HW1  626   1.716   0.820   2.740  1.2915 -0.2499  1.0885
  209SOL    HW2  627   1.688   0.656   2.735 -0.7490  0.0156 -1.0129
  210SOL     OW  628   2.657   0.914   0.693  0.2883  0.4034 -0.3947
  210SOL    HW1  629   2.742   0.972   0.674 -0.5016  2.7012 -0.7310
  210SOL    HW2  630   2.679   0.839   0.759 -0.0819 -0.2495 -2.2460
  211SOL     OW  631   0.871   0.499   0.779  0.4701  0.1885 -0.1451
  211SOL    HW1  632   0.865   0.588   0.830  1.7318  3.1124  2.1568
  211SOL    HW2  633   0.883   0.419   0.842 -0.8627 -0.6608  0.2088
  212SOL     OW  634   1.170   1.488   0.394 -0.2800  0.0778 -0.4677
  212SOL    HW1  635   1.179   1.388   0.419  1.3092 -0.8030  1.0255
  212SOL    HW2  636   1.226   1.515   0.313 -2.4950 -1.1471 -2.1008
  213SOL     OW  637   1.379   3.029   1.776 -0.2016 -0.7210 -0.1591
  213SOL    HW1  638   1.292   3.065   1.730 -1.2878 -0.6463 -2.9120
  213SOL    HW2  639   1.372   3.050   1.875  0.3340  0.1803 -2.6180
  214SOL     OW  640   1.365   1.130   2.486 -0.2199 -0.0580  0.0810
  214SOL    HW1  641   1.287   1.136   2.549 -2.2272  1.4136 -1.5807
  214SOL    HW2  642   1.448   1.088   2.528 -1.5022 -0.8143  0.0386
  215SOL     OW  643   0.268   1.643   1.027  0.0624  0.2962 -0.2153
  215SOL    HW1  644   0.208   1.571   1.079 -3.2659 -2.3001  2.6278
  215SOL    HW2  645   0.222   1.686   0.949  2.9579  0.1956  1.1031
  216SOL     OW  646   0.567   2.950   2.353 -0.5438  0.5224 -0.2510
  216SOL    HW1  647   0.582   2.995   2.259 -0.3345  0.4117  1.1995
  216SOL    HW2  648   0.563   3.020   2.425 -0.6092  1.2295 -1.7025
  217SOL     OW  649   2.360   0.870   0.030 -0.3908 -0.7188 -0.1785
  217SOL    HW1  650   2.370   0.775   0.062 -0.1513  2.4829  1.1558
  217SOL    HW2  651   2.452   0.911   0.028  1.7849 -0.7234  0.2692
  218SOL     OW  652   2.060   1.742   2.199  0.4778 -0.4851  0.3712
  218SOL    HW1  653   2.154   1.707   2.192  1.5646 -0.9637  1.3011
  218SOL    HW2  654   2.045   1.823   2.138 -0.3789 -1.5263 -0.4151
  219SOL     OW  655   1.648   1.073   0.325 -0.3832 -0.4713 -0.0323
  219SOL    HW1  656   1.599   1.161   0.321  0.1592 -2.0855  1.4524
  219SOL    HW2  657   1.721   1.076   0.395 -0.4334 -1.0563 -0.2309
  220SOL     OW  658   1.514   1.737   1.103  0.0001 -0.1203 -0.3981
  220SOL    HW1  659   1.480   1.834   1.084 -0.0617  2.8761 -1.0300
  220SOL    HW2  660   1.591   1.712   1.045 -0.3668 -1.3449 -2.1424
  221SOL     OW  661   0.332   0.485   2.920 -0.2504  0.0609  0.2909
  221SOL    HW1  662   0.254   0.511   2.860 -2.8537 -1.7233 -0.9949
  221SOL    HW2  663   0.334   0.536   3.007  0.8991 -0.9724  0.3982
  222SOL     OW  664   1.310   2.444   1.581  0.0510  0.2224 -0.3982
  222SOL    HW1  665   1.250   2.358   1.593 -1.2424 -1.7058  2.4311
  222SOL    HW2  666   1.408   2.425   1.581 -3.3616 -0.1272 -0.2594
  223SOL     OW  667   1.410   2.505   2.827 -0.5077 -0.1464 -0.3381
  223SOL    HW1  668   1.464   2.499   2.916  2.2476 -1.8874  0.3527
  223SOL    HW2  669   1.323   2.448   2.845 -2.1616 -0.1257  0.2781
  224SOL     OW  670   2.743   1.329   0.992 -0.4701  0.6428  0.0035
  224SOL    HW1  671   2.750   1.227   0.996  0.2057  0.7780  1.8435
  224SOL    HW2  672   2.715   1.349   0.894  1.1973  0.7924 -2.9496
  225SOL     OW  673   1.444   1.059   1.260 -0.2800  0.3648 -0.3228
  225SOL    HW1  674   1.385   1.104   1.330 -0.6851  1.1243  0.7889
  225SOL    HW2  675   1.513   1.002   1.313  1.1054 -0.4943 -0.1946
  226SOL     OW  676   1.432   2.177   3.059 -0.3891 -0.3341 -0.5787
  226SOL    HW1  677   1.532   2.176   0.002  1.6723 -0.8524  3.9023
  226SOL    HW2  678   1.421   2.235   2.976 -4.3353  1.3072 -1.9605
  227SOL     OW  679   0.888   2.159   1.303  0.3069 -0.3788  0.4136
  227SOL    HW1  680   0.820   2.109   1.243 -1.1822 -1.5087  0.8595
  227SOL    HW2  681   0.912   2.250   1.262 -1.6154  1.7304 -1.4200
  228SOL     OW  682   0.405   2.077   1.178  0.4536  0.5374 -0.1468
  228SOL    HW1  683   0.334   2.118   1.241 -1.6653  3.0063  1.2329
  228SOL    HW2  684   0.391   1.975   1.179 -2.6315  3.1262 -1.6353
  229SOL     OW  685   2.115   0.851   2.987 -0.4698  0.4366  0.3737
  229SOL    HW1  686   2.203   0.885   3.035  2.7932  1.1446 -0.6458
  229SOL    HW2  687   2.064   0.784   3.041  2.6711 -0.3330  1.3484
  230SOL     OW  688   0.939   0.788   1.963 -0.3454  0.4243  0.1759
  230SOL    HW1  689   0.844   0.808   1.991  3.0314  2.3655 -3.0733
  230SOL    HW2  690   1.000   0.850   2.015 -0.5271  1.8481 -2.9233
  231SOL     OW  691   1.453   1.605   2.103 -0.0307 -0.3396  0.2006
  231SOL    HW1  692   1.413   1.613   2.010 -0.8150 -2.8582  1.0019
  231SOL    HW2  693   1.472   1.507   2.112  1.9026  0.4101 -1.3370
  232SOL     OW  694   2.120   2.262   1.443  0.1860  0.1543 -0.6437
  232SOL    HW1  695   2.086   2.202   1.516  0.0829  1.1352 -0.9306
  232SOL    HW2  696   2.051   2.338   1.430  1.0794  0.3044  0.1070
  233SOL     OW  697   1.865   2.349   2.677  0.3364 -0.3345  0.0576
  233SOL    HW1  698   1.891   2.259   2.635  1.2921  4.5854  1.1001
  233SOL    HW2  699   1.947   2.407   2.687  0.3784  0.3447 -2.2762
  234SOL     OW  700   1.096   2.910   2.952  0.7522  0.4625 -1.0956
  234SOL    HW1  701   1.160   2.882   3.029  0.6159  3.4415 -0.4918
  234SOL    HW2  702   1.059   3.005   2.967 -1.0563 -0.0394  1.2815
  235SOL     OW  703   2.407   3.054   3.021 -0.1238 -0.0697  0.4666
  235SOL    HW1  704   2.458   3.077   2.938  2.3245 -1.9965  1.6383
  235SOL    HW2  705   2.436   2.963   3.065  0.6963 -2.3327 -1.1651
  236SOL     OW  706   2.273   2.422   2.550 -0.6314 -0.0328  0.2863
  236SOL    HW1  707   2.239   2.347   2.489 -1.0130 -0.5333  2.4253
  236SOL    HW2  708   2.376   2.411   2.565  0.9779 -1.5778 -1.3368
  237SOL     OW  709   1.578   1.222   1.698  0.3074  0.2748 -0.1767
  237SOL    HW1  710   1.592   1.119   1.701 -4.2865 -1.1578  0.8434
  237SOL    HW2  711   1.606   1.262   1.611  0.3513 -0.4156  0.9002
  238SOL     OW  712   2.133   0.329   2.046 -0.0669 -0.0082  0.2741
  238SOL    HW1  713   2.230   0.364   2.038  4.1547 -1.2613 -3.5756
  238SOL    HW2  714   2.136   0.246   2.106  1.7599 -0.7667  1.9341
  239SOL     OW  715   0.522   1.541   2.145 -0.4161  0.2051  0.1734
  239SOL    HW1  716   0.617   1.516   2.112 -0.0791 -2.3293  0.1356
  239SOL    HW2  717   0.476   1.618   2.097 -1.3055 -1.5294 -0.6287
  240SOL     OW  718   2.997   2.777   0.774  0.4304 -0.1204 -0.1325
  240SOL    HW1  719   0.003   2.758   0.770  0.0880  0.6430 -0.6114
  240SOL    HW2  720   2.947   2.695   0.810  1.7631  1.2219  0.1727
  241SOL     OW  721   1.643   2.150   1.003 -0.2099  0.7603 -0.4054
  241SOL    HW1  722   1.728   2.133   1.059  1.2698 -0.3764  1.1436
  241SOL    HW2  723   1.664   2.117   0.909  0.0600 -1.6986 -0.6425
  242SOL     OW  724   1.220   1.756   2.889 -0.4775  0.5341  0.1314
  242SOL    HW1  725   1.321   1.754   2.870 -1.3988 -0.8612 -3.1738
  242SOL    HW2  726   1.201   1.851   2.920 -0.3163 -0.6207  2.3235
  243SOL     OW  727   1.001   2.615   2.236 -0.2182  0.0540  0.0728
  243SOL    HW1  728   0.905   2.611   2.214  0.8740  1.1109 -0.6225
  243SOL    HW2  729   1.028   2.608   2.333  2.3992  0.2625  0.0857
  244SOL     OW  730   1.795   0.024   2.580 -0.3232  0.2295 -0.2713
  244SOL    HW1  731   1.895   0.010   2.574 -0.2255  2.4944 -0.4303
  244SOL    HW2  732   1.766   0.102   2.643  1.2035  0.5794  0.4655
  245SOL     OW  733   1.392   2.896   0.605 -0.6162  0.2687  0.2846
  245SOL    HW1  734   1.443   2.882   0.515 -1.3607 -0.5461 -0.0289
  245SOL    HW2  735   1.341   2.987   0.595  0.2471  0.3097  2.0886
  246SOL     OW  736   1.013   0.049   3.033  0.1505 -0.5032 -0.4806
  246SOL    HW1  737   0.916   0.080   3.017 -1.1028 -1.1121 -1.8719
  246SOL    HW2  738   1.048   0.087   0.033  2.6755  2.8357  1.7295
  247SOL     OW  739   0.262   0.766   2.151  0.2476  0.0359 -0.5799
  247SOL    HW1  740   0.270   0.728   2.059  1.3205  3.1470  3.1643
  247SOL    HW2  741   0.243   0.701   2.230  0.4470 -2.6774  0.9344
  248SOL     OW  742   0.865   1.054   2.014 -0.0178 -0.0210  0.0754
  248SOL    HW1  743   0.868   1.011   2.107  0.2087  0.9890  3.0983
  248SOL    HW2  744   0.799   1.129   2.011  0.2682 -2.2703 -0.7386
  249SOL     OW  745   2.027   0.494   0.398  0.1475 -0.1317 -0.2563
  249SOL    HW1  746   1.968   0.458   0.322 -0.2057  1.0571  0.5825
  249SOL    HW2  747   1.965   0.554   0.458 -1.1665  0.9510  0.1164
  250SOL     OW  748   0.735   3.040   0.425  0.6855  0.2737  0.2623
  250SOL    HW1  749   0.635   3.050   0.397  0.3202  1.0698  0.1895
  250SOL    HW2  750   0.779   2.977   0.358 -1.1700  0.9801  1.8575
  251SOL     OW  751   1.265   2.932   2.732  0.1251  0.0337 -0.1947
  251SOL    HW1  752   1.223   2.924   2.823  0.4492  2.9971 -1.8028
  251SOL    HW2  753   1.261   2.846   2.685  2.6953 -0.2814  1.8483
  252SOL     OW  754   1.999   1.287   2.284 -0.2226  0.1221 -0.4400
  252SOL    HW1  755   1.962   1.273   2.379  0.4558 -0.9618 -0.0701
  252SOL    HW2  756   1.982   1.208   2.222  3.6894 -0.0495  1.8558
  253SOL     OW  757   2.427   2.504   2.193 -0.5115  0.6046  1.0712
  253SOL    HW1  758   2.530   2.506   2.208  0.4755 -2.0508  0.4129
  253SOL    HW2  759   2.375   2.552   2.264  2.0539 -0.9356 -1.4918
  254SOL     OW  760   1.145   2.208   1.606 -0.0456  0.1360 -0.3317
  254SOL    HW1  761   1.043   2.223   1.599  0.9913 -0.7945 -0.1033
  254SOL    HW2  762   1.164   2.107   1.603  3.5922  1.8757  0.6335
  255SOL     OW  763   0.976   0.999   0.773 -0.0275 -0.0175 -0.2033
  255SOL    HW1  764   1.074   0.999   0.806  1.4380  1.8813 -1.0352
  255SOL    HW2  765   0.948   1.091   0.741  0.4311 -1.7348 -2.8282
  256SOL     OW  766   1.662   2.038   2.184  0.0332  0.0199 -0.0444
  256SOL    HW1  767   1.742   2.087   2.150 -0.8867 -0.6017 -0.3980
  256SOL    HW2  768   1.660   1.943   2.147 -0.1441 -0.6829 -0.0695
  257SOL     OW  769   0.227   2.588   2.892 -0.4729  0.1163 -0.3260
  257SOL    HW1  770   0.303   2.620   2.834 -1.1466  0.6658  0.9910
  257SOL    HW2  771   0.218   2.488   2.901  0.0719  2.4123  1.5644
  258SOL     OW  772   0.841   0.115   2.116  0.0134 -0.0730  0.3100
  258SOL    HW1  773   0.925   0.133   2.178  0.7401  2.2860  1.9202
  258SOL    HW2  774   0.869   0.134   2.020 -2.6182  1.2650  3.7411
  259SOL     OW  775   1.087   0.144   2.208 -0.3566 -0.2760 -0.0465
  259SOL    HW1  776   1.117   0.046   2.192 -0.1226 -2.0727 -1.9949
  259SOL    HW2  777   1.160   0.204   2.251  2.1396 -1.3569 -1.6642
  260SOL     OW  778   1.643   0.730   0.901  0.0052  0.1123 -0.3262
  260SOL    HW1  779   1.632   0.825   0.943 -0.6077  2.4085  0.3522
  260SOL    HW2  780   1.592   0.724   0.813  1.2018 -1.0404 -0.8159
  261SOL     OW  781   0.412   0.148   2.752  0.3756 -0.2301  0.1251
  261SOL    HW1  782   0.349   0.093   2.802 -1.3304  2.2953  1.3898
  261SOL    HW2  783   0.482   0.194   2.814  2.7987  1.3872  0.4775
  262SOL     OW  784   2.564   2.828   2.213 -0.0452  0.4276 -0.1878
  262SOL    HW1  785   2.509   2.813   2.130  1.7502  1.1787 -0.0328
  262SOL    HW2  786   2.621   2.911   2.201  1.7036 -0.6327  0.7251
  263SOL     OW  787   0.189   2.029   2.328  0.0681  0.6056  0.5711
  263SOL    HW1  788   0.133   1.945   2.352 -1.7014  1.4287  0.8280
  263SOL    HW2  789   0.259   2.053   2.394 -1.4076 -0.5328 -0.6668
  264SOL     OW  790   0.899   1.119   1.071 -0.0633 -0.2927 -0.3986
  264SOL    HW1  791   0.980   1.188   1.070  3.1201 -0.2186  1.4918
  264SOL    HW2  792   0.907   1.055   0.988 -0.7452  2.5465 -0.8858
  265SOL     OW  793   0.511   1.900   0.120  0.2661  0.0341 -0.2329
  265SOL    HW1  794   0.461   1.896   0.209  1.3293 -1.8848 -4.3451
  265SOL    HW2  795   0.609   1.920   0.138 -0.0417  0.9462  0.9887
  266SOL     OW  796   1.126   0.982   0.381 -0.1230  0.1535  0.4215
  266SOL    HW1  797   1.215   0.952   0.344 -0.4429 -3.9995  0.5523
  266SOL    HW2  798   1.097   0.921   0.456 -0.3122  0.7761 -1.6079
  267SOL     OW  799   2.889   1.195   0.273  0.0785 -0.0219  0.5146
  267SOL    HW1  800   2.972   1.259   0.281  4.4640 -2.9673  0.3057
  267SOL    HW2  801   2.908   1.131   0.193  1.2091  0.5877  1.4561
  268SOL     OW  802   2.272   0.223   2.716 -0.8711 -0.0704  0.0778
  268SOL    HW1  803   2.351   0.166   2.744 -0.3806 -0.3373 -0.8311
  268SOL    HW2  804   2.194   0.226   2.781  3.0035 -1.8049 -3.1724
  269SOL     OW  805   1.562   0.551   2.628  0.5027 -0.4374 -0.0225
  269SOL    HW1  806   1.594   0.476   2.568 -0.8556 -0.2739  0.3234
  269SOL    HW2  807   1.522   0.629   2.572 -0.2489  1.1620 -0.3755
  270SOL     OW  808   0.859   0.835   2.629 -0.1926 -0.4136 -0.1302
  270SOL    HW1  809   0.952   0.795   2.629 -0.7262 -1.3617  1.0710
  270SOL    HW2  810   0.801   0.773   2.569  0.5338 -1.9249 -0.9323
  271SOL     OW  811   2.710   1.284   0.448  0.0431 -0.0620 -0.3389
  271SOL    HW1  812   2.775   1.261   0.377  0.6950  2.1342  1.9643
  271SOL    HW2  813   2.701   1.383   0.459  0.2805 -1.9472  0.3336
  272SOL     OW  814   2.915   1.612   2.942 -0.1237 -0.2943 -0.1270
  272SOL    HW1  815   2.928   1.523   2.893  1.4303  0.9371  0.3012
  272SOL    HW2  816   2.968   1.690   2.905  1.3281 -0.5501 -1.6546
  273SOL     OW  817   2.295   0.027   0.271 -0.1905  0.3249 -0.0315
  273SOL    HW1  818   2.390   0.067   0.262  1.4641  2.3961  1.2319
  273SOL    HW2  819   2.238   0.057   0.192  0.0413  1.5002 -0.6756
  274SOL     OW  820   0.362   2.431   1.054  0.6677 -0.0591 -0.2043
  274SOL    HW1  821   0.452   2.382   1.046  0.1220  0.0425 -2.1922
  274SOL    HW2  822   0.330   2.443   1.151 -0.3112 -2.0694 -3.4209
  275SOL     OW  823   2.285   1.468   0.389  0.3484 -0.1151 -0.1475
  275SOL    HW1  824   2.289   1.497   0.292 -0.3988 -0.5600 -0.5227
  275SOL    HW2  825   2.328   1.374   0.406  0.4445  0.1609  2.3849
  276SOL     OW  826   3.018   1.301   2.458 -0.0322  0.1507  0.5675
  276SOL    HW1  827   0.023   1.276   2.472  0.0063  0.0948 -0.3989
  276SOL    HW2  828   2.954   1.232   2.414 -2.0897 -0.3163 -0.0599
  277SOL     OW  829   1.997   2.875   1.314 -0.4353  0.0814  0.2386
  277SOL    HW1  830   2.067   2.865   1.238 -0.6614 -0.7146 -0.4746
  277SOL    HW2  831   2.032   2.828   1.398  0.2559 -0.0602 -3.1934
  278SOL     OW  832   1.183   3.004   2.095  0.6411  0.3773 -0.2878
  278SOL    HW1  833   1.127   2.988   2.009 -1.0215  2.2148 -0.2389
  278SOL    HW2  834   1.283   3.016   2.077  0.3262 -0.6353 -0.8177
  279SOL     OW  835   1.623   1.818   0.495  0.2613 -0.3733 -0.1374
  279SOL    HW1  836   1.581   1.839   0.589 -1.5795 -1.3432  0.8939
  279SOL    HW2  837   1.721   1.851   0.493  1.1952 -1.5631 -0.9679
  280SOL     OW  838   0.300   1.575   0.732  0.3674  0.0872 -0.2711
  280SOL    HW1  839   0.394   1.615   0.719 -0.9506  0.2987 -0.8311
  280SOL    HW2  840   0.227   1.644   0.737  1.3121  2.1233 -0.8080
  281SOL     OW  841   3.004   0.292   2.436  0.3296 -0.3544  0.1661
  281SOL    HW1  842   2.961   0.214   2.385  0.7376  0.4706 -0.7127
  281SOL    HW2  843   2.945   0.322   2.514  1.3754 -0.4876  0.5486
  282SOL     OW  844   0.431   0.876   0.570 -0.5181 -0.2943  0.3666
  282SOL    HW1  845   0.499   0.828   0.631  1.6960  0.3852  1.7018
  282SOL    HW2  846   0.364   0.810   0.533 -2.4219  1.3676  2.5531
  283SOL     OW  847   1.795   1.812   0.147  0.1261 -0.4069  0.2360
  283SOL    HW1  848   1.765   1.902   0.187 -1.8161  1.3562 -3.2293
  283SOL    HW2  849   1.880   1.823   0.098 -0.9428 -0.9357  1.9625
  284SOL     OW  850   1.441   0.901   0.311  0.1064  0.6974  0.4130
  284SOL    HW1  851   1.437   0.895   0.208 -1.0422 -0.4878  0.8577
  284SOL    HW2  852   1.517   0.970   0.334  0.7244 -0.1394 -0.1231
  285SOL     OW  853   2.255   0.635   2.427 -0.1150  0.0962  0.5054
  285SOL    HW1  854   2.222   0.705   2.357  0.4296  0.1344  0.2150
  285SOL    HW2  855   2.182   0.575   2.460  3.7690  0.2316  2.5839
  286SOL     OW  856   1.727   2.765   1.324  0.3214 -0.5219  0.4680
  286SOL    HW1  857   1.744   2.696   1.398  1.8170  0.1380  1.3501
  286SOL    HW2  858   1.816   2.775   1.277  4.7813  0.5529  3.0176
  287SOL     OW  859   1.250   1.058   0.891  0.2413 -0.4405  0.0298
  287SOL    HW1  860   1.250   0.965   0.936 -0.8376 -0.3949  0.7464
  287SOL    HW2  861   1.276   1.132   0.957  0.2152  0.9463  1.5161
  288SOL     OW  862   0.761   2.703   3.087  0.2567  0.0519 -0.2478
  288SOL    HW1  863   0.733   2.803   0.004 -0.9077  1.4693  0.4498
  288SOL    HW2  864   0.847   2.689   0.048  1.9934 -0.6046  0.1004
  289SOL     OW  865   0.352   1.547   1.858  0.6860 -0.3917  0.1274
  289SOL    HW1  866   0.446   1.547   1.890 -0.0370 -1.2015  1.4869
  289SOL    HW2  867   0.318   1.629   1.802 -0.2072  0.3949  0.4639
  290SOL     OW  868   1.579   2.393   1.141  0.7261  0.1465 -0.0656
  290SOL    HW1  869   1.575   2.312   1.075 -1.1290 -1.0822 -2.2720
  290SOL    HW2  870   1.490   2.436   1.157  1.5006  2.9052 -2.1686
  291SOL     OW  871   1.870   2.430   3.074  0.4467 -0.3531  0.9647
  291SOL    HW1  872   1.961   2.402   3.036  0.8488 -2.5031  1.2397
  291SOL    HW2  873   1.891   2.476   0.071  0.1616 -1.9917  0.0871
  292SOL     OW  874   0.964   0.755   1.623 -0.5915  0.0527 -0.3148
  292SOL    HW1  875   1.038   0.718   1.680  0.0280  3.8743  0.8276
  292SOL    HW2  876   0.998   0.833   1.568 -0.9763  1.2721  0.3301
  293SOL     OW  877   1.935   2.686   0.928  0.5673 -0.3823 -0.3515
  293SOL    HW1  878   1.866   2.756   0.955 -0.5863  0.0990 -0.4995
  293SOL    HW2  879   2.025   2.730   0.914 -2.4520 -1.5362  2.4895
  294SOL     OW  880   0.404   0.867   2.538 -0.1478  1.0039  0.0043
  294SOL    HW1  881   0.314   0.820   2.555 -0.4252  1.0207 -3.0950
  294SOL    HW2  882   0.480   0.800   2.543 -1.8419  0.0573  0.0155
  295SOL     OW  883   1.477   1.528   0.752  0.3760 -0.0074 -0.3900
  295SOL    HW1  884   1.523   1.445   0.711  2.8061 -0.9093  0.3775
  295SOL    HW2  885   1.370   1.525   0.748 -3.4994  0.2547 -0.0305
  296SOL     OW  886   2.273   2.068   0.343 -0.1604  0.1666  0.0242
  296SOL    HW1  887   2.329   2.043   0.260  1.7487  1.6838 -1.3352
  296SOL    HW2  888   2.263   1.988   0.402  2.7960  2.1676 -0.1453
  297SOL     OW  889   2.229   0.140   0.009 -0.0774 -0.2390  0.1364
  297SOL    HW1  890   2.287   0.056   3.083  0.7927 -3.0224 -0.2100
  297SOL    HW2  891   2.178   0.177   3.013  1.3737  1.7245  2.1847
  298SOL     OW  892   1.208   2.165   2.707 -0.3725 -0.3220 -0.1929
  298SOL    HW1  893   1.154   2.108   2.773 -1.1579 -0.1171  1.7078
  298SOL    HW2  894   1.187   2.263   2.710  0.7724 -0.3445 -1.2634
  299SOL     OW  895   1.294   2.665   2.657  0.0308  0.5794 -0.1712
  299SOL    HW1  896   1.353   2.677   2.578 -0.4099 -0.3346  0.9708
  299SOL    HW2  897   1.338   2.604   2.726  1.5326  2.3004 -0.7486
  300SOL     OW  898   2.073   0.059   2.539  0.5576 -0.0584 -0.3123
  300SOL    HW1  899   2.041   0.150   2.500 -2.4687  1.3566 -0.5490
  300SOL    HW2  900   2.155   0.022   2.492  0.7388 -3.4113  0.2030
  301SOL     OW  901   1.397   0.969   2.070  0.0168 -0.2317 -0.1785
  301SOL    HW1  902   1.485   1.025   2.072 -2.3203 -1.7017 -4.4875
  301SOL    HW2  903   1.422   0.873   2.036  1.2530  3.4251  2.1022
  302SOL     OW  904   2.764   2.348   0.020 -0.5805  0.5453  0.0940
  302SOL    HW1  905   2.724   2.441   0.003 -0.1666  0.9022  0.5830
  302SOL    HW2  906   2.863   2.352   3.089 -0.2492  0.2735  1.5741
  303SOL     OW  907   2.705   2.432   2.240 -0.0983 -0.0347 -0.2997
  303SOL    HW1  908   2.796   2.403   2.272 -3.1184 -1.4389  0.6287
  303SOL    HW2  909   2.685   2.396   2.146 -1.5169 -1.1394 -2.5701
  304SOL     OW  910   2.884   0.594   1.615  0.5579  0.2227 -0.0757
  304SOL    HW1  911   2.896   0.585   1.712 -1.2572 -2.3384 -2.3783
  304SOL    HW2  912   2.807   0.531   1.586 -1.1001 -1.2748  2.3107
  305SOL     OW  913   0.718   2.098   1.698  0.6748  0.0848  0.0078
  305SOL    HW1  914   0.705   2.202   1.712 -0.9003  2.1817  1.4123
  305SOL    HW2  915   0.717   2.075   1.599  1.5525  2.0699 -2.3772
  306SOL     OW  916   2.760   0.831   1.660  0.0584 -0.1452  0.2212
  306SOL    HW1  917   2.669   0.781   1.673 -3.9032  0.1856  0.3107
  306SOL    HW2  918   2.826   0.755   1.637  4.7581 -1.8574  1.2021
  307SOL     OW  919   1.480   0.729   1.950  0.0506  0.2349  0.0624
  307SOL    HW1  920   1.570   0.690   1.978  0.0470  2.3697  0.7191
  307SOL    HW2  921   1.464   0.701   1.847  2.0563  1.4392 -1.6684
  308SOL     OW  922   2.828   1.701   1.224  0.0767 -0.7240  0.0667
  308SOL    HW1  923   2.900   1.648   1.176 -1.1179 -1.1469 -0.4667
  308SOL    HW2  924   2.745   1.639   1.217  0.7335 -2.2957 -1.7665
  309SOL     OW  925   2.633   1.519   1.155 -0.3062 -0.1764 -0.3517
  309SOL    HW1  926   2.556   1.581   1.123 -2.8429 -0.1630 -0.2025
  309SOL    HW2  927   2.648   1.440   1.096 -0.4546  0.8737  0.1172
  310SOL     OW  928   2.745   1.933   2.515 -0.2224  0.1028 -0.2804
  310SOL    HW1  929   2.648   1.909   2.518  1.1595  0.4067  1.1972
  310SOL    HW2  930   2.761   1.996   2.592 -1.7440 -1.5414  0.2920
  311SOL     OW  931   2.945   2.693   0.147 -0.5281  0.4948  0.3399
  311SOL    HW1  932   2.916   2.739   0.233 -0.4512  4.4098 -0.0449
  311SOL    HW2  933   2.997   2.608   0.171 -0.4185  1.1446 -0.1301
  312SOL     OW  934   1.832   1.638   0.726 -0.3430 -0.4922 -0.4275
  312SOL    HW1  935   1.795   1.573   0.658 -0.5471 -1.8025 -0.6821
  312SOL    HW2  936   1.892   1.591   0.794 -0.5459 -0.3995  0.0363
  313SOL     OW  937   2.511   0.013   0.944  0.4434  0.0959 -0.0616
  313SOL    HW1  938   2.440   3.052   0.898 -0.0972 -0.3598  0.1238
  313SOL    HW2  939   2.562   0.065   0.873  0.8490 -0.5118 -1.3185
  314SOL     OW  940   1.308   1.579   0.174 -0.2486 -0.2855  0.2575
  314SOL    HW1  941   1.407   1.581   0.146 -0.1800  2.1082 -1.0314
  314SOL    HW2  942   1.265   1.669   0.140 -2.6643  1.6299 -2.0984
  315SOL     OW  943   1.342   2.298   2.125  0.1031 -0.6650  0.7529
  315SOL    HW1  944   1.341   2.401   2.130  0.7157  0.4335 -0.5220
  315SOL    HW2  945   1.307   2.260   2.035 -0.9852 -1.9955 -0.1148
  316SOL     OW  946   0.014   0.976   0.383  0.5118 -0.4806  0.0613
  316SOL    HW1  947   3.014   1.020   0.379 -1.8917 -0.3312  0.2817
  316SOL    HW2  948   0.078   1.016   0.451  0.1400  1.1716  0.5205
  317SOL     OW  949   0.488   0.035   0.271 -0.3816 -0.2418 -0.5803
  317SOL    HW1  950   0.422   0.035   0.353 -0.8483 -0.2290  1.4935
  317SOL    HW2  951   0.488   3.038   0.223 -2.1455  2.4972 -0.5245
  318SOL     OW  952   2.650   2.139   0.438  0.0320  0.4060 -0.4825
  318SOL    HW1  953   2.600   2.127   0.526  1.4892 -1.1803 -0.1020
  318SOL    HW2  954   2.681   2.043   0.410  0.9181 -1.3870  0.4053
  319SOL     OW  955   0.817   1.271   2.767  0.4244  0.4338  0.8764
  319SOL    HW1  956   0.783   1.319   2.849  2.1982 -0.9752  0.0678
  319SOL    HW2  957   0.880   1.334   2.715  1.2528 -1.4695  2.5439
  320SOL     OW  958   0.704   2.355   1.796  0.0271 -0.6310 -0.3652
  320SOL    HW1  959   0.640   2.427   1.762 -0.1261  0.0567 -1.3399
  320SOL    HW2  960   0.794   2.352   1.747  2.6097 -0.0005 -1.9402
  321SOL     OW  961   1.683   2.162   0.043 -0.0525 -0.6145  0.1551
  321SOL    HW1  962   1.735   2.249   0.031 -2.4204  1.2468 -0.1336
  321SOL    HW2  963   1.721   2.090   3.072 -0.3574 -0.3684 -2.6998
  322SOL     OW  964   3.008   1.292   2.116 -0.0847 -0.1411 -0.3791
  322SOL    HW1  965   2.965   1.226   2.179 -0.0130  1.7296 -1.2757
  322SOL    HW2  966   3.034   1.249   2.025 -0.9669 -2.4892 -2.2507
  323SOL     OW  967   2.437   1.231   0.435  0.1338  0.7105 -0.3428
  323SOL    HW1  968   2.409   1.159   0.367  1.3408  1.6017  0.2886
  323SOL    HW2  969   2.536   1.238   0.432 -2.1765 -1.6050  2.9419
  324SOL     OW  970   0.034   2.726   2.742  0.0166 -0.0536  0.4537
  324SOL    HW1  971   0.026   2.663   2.661  1.5155 -1.5666 -0.5928
  324SOL    HW2  972   0.108   2.695   2.806  0.4114  0.5840  0.8932
  325SOL     OW  973   1.407   0.215   2.372  0.1520 -0.5229  0.3608
  325SOL    HW1  974   1.418   0.115   2.380  0.1956 -1.0028 -1.1875
  325SOL    HW2  975   1.324   0.256   2.422 -1.7204  2.3814 -0.9501
  326SOL     OW  976   2.261   2.512   1.529 -0.0129  0.0370  0.0742
  326SOL    HW1  977   2.298   2.455   1.602 -0.4956 -1.3818 -0.9297
  326SOL    HW2  978   2.284   2.467   1.443 -1.0400  1.7977  3.5634
  327SOL     OW  979   1.702   0.126   2.829 -0.2815 -0.2226  0.0932
  327SOL    HW1  980   1.624   0.065   2.803 -0.9239 -0.3216 -1.3771
  327SOL    HW2  981   1.775   0.075   2.888  4.3754 -1.5518  1.6049
  328SOL     OW  982   2.978   0.667   2.298 -0.3888 -0.2783 -0.4719
  328SOL    HW1  983   3.011   0.758   2.266  1.4076  0.6241 -2.1917
  328SOL    HW2  984   2.912   0.674   2.373  2.8935 -1.9072 -1.7285
  329SOL     OW  985   1.438   3.076   2.051 -0.0967  0.5801 -0.0707
  329SOL    HW1  986   1.429   0.085   2.056  0.5700  0.3044 -1.9933
  329SOL    HW2  987   1.509   3.033   2.110 -1.8549  3.5929  1.0275
  330SOL     OW  988   2.730   1.877   1.433  0.0204 -0.2353  0.1838
  330SOL    HW1  989   2.761   1.808   1.363  0.1430 -0.1522 -0.9997
  330SOL    HW2  990   2.696   1.826   1.515  2.2666 -0.5063  4.5825
  331SOL     OW  991   0.490   1.534   2.402  1.0517  0.2374 -0.4655
  331SOL    HW1  992   0.497   1.561   2.304  0.3468 -0.0232 -0.1620
  331SOL    HW2  993   0.556   1.461   2.427 -1.5156  2.2812  1.0773
  332SOL     OW  994   0.118   2.871   1.428 -0.2805  0.3482  0.5561
  332SOL    HW1  995   0.212   2.899   1.407 -1.6214  0.6038  1.4139
  332SOL    HW2  996   0.070   2.959   1.457  0.0880 -1.1943 -0.9751
  333SOL     OW  997   2.450   2.725   1.406  0.4117  0.4681  0.0385
  333SOL    HW1  998   2.511   2.652   1.365  1.2425 -1.5493 -0.2046
  333SOL    HW2  999   2.436   2.700   1.503 -1.0183 -1.5999 -2.7514
  334SOL     OW 1000   0.918   1.790   1.126 -0.3308  0.4404 -0.4761
  334SOL    HW1 1001   0.931   1.815   1.029 -0.8428  1.2658 -1.0650
  334SOL    HW2 1002   0.833   1.740   1.143 -0.2584 -2.0185  0.8360
  335SOL     OW 1003   0.418   2.150   0.079  0.2300 -0.2674  0.0261
  335SOL    HW1 1004   0.399   2.146   3.070  0.8213 -0.5282 -0.7441
  335SOL    HW2 1005   0.429   2.061   0.121  0.2023  0.7833  0.0632
  336SOL     OW 1006   0.451   0.107   1.694  0.1400 -0.6068  0.1449
  336SOL    HW1 1007   0.348   0.104   1.685 -0.8955 -0.3854 -0.3223
  336SOL    HW2 1008   0.489   0.191   1.651  4.2410  2.4653  1.7466
  337SOL     OW 1009   2.565   1.895   2.941  0.0884 -0.2187 -0.0855
  337SOL    HW1 1010   2.490   1.936   2.994 -1.5832  1.4572 -0.4477
  337SOL    HW2 1011   2.614   1.826   2.995 -0.3264 -0.1857 -0.5912
  338SOL     OW 1012   1.131   1.644   1.261  0.1313 -0.2105  0.3542
  338SOL    HW1 1013   1.222   1.636   1.304 -2.9832  0.1708 -2.1228
  338SOL    HW2 1014   1.113   1.741   1.233 -0.0436 -1.0305 -0.0242
  339SOL     OW 1015   0.011   0.355   1.882  0.4785 -0.2069  0.3205
  339SOL    HW1 1016   3.046   0.438   1.883  0.2461 -3.0159 -0.6471
  339SOL    HW2 1017   0.095   0.361   1.934 -0.3374 -1.3694 -0.9937
  340SOL     OW 1018   1.612   2.600   0.424 -0.2648  0.5263  0.2008
  340SOL    HW1 1019   1.580   2.527   0.358  0.0686 -2.8696 -1.7682
  340SOL    HW2 1020   1.600   2.563   0.520 -1.9903 -0.4311  0.6428
  341SOL     OW 1021   1.841   1.436   1.175  0.7925 -0.3977 -0.0304
  341SOL    HW1 1022   1.853   1.336   1.160 -1.7339  0.2695 -0.9136
  341SOL    HW2 1023   1.751   1.452   1.225 -2.0227  2.1490  2.3333
  342SOL     OW 1024   0.013   2.105   0.539  0.5649  0.6033 -0.2475
  342SOL    HW1 1025   3.031   2.079   0.607 -1.6632  0.7173  1.8824
  342SOL    HW2 1026   0.071   2.025   0.513  1.1094  3.0582 -0.8926
  343SOL     OW 1027   1.313   2.553   1.135 -0.2661 -0.4255 -0.1630
  343SOL    HW1 1028   1.254   2.626   1.169  1.4873 -1.9601  0.0638
  343SOL    HW2 1029   1.292   2.462   1.184 -2.3710  0.4278 -1.6153
  344SOL     OW 1030   2.137   2.828   0.790 -0.2126 -0.5340 -0.1636
  344SOL    HW1 1031   2.078   2.895   0.746 -0.0096  0.3514  0.1081
  344SOL    HW2 1032   2.158   2.767   0.709 -2.2294  0.6827 -2.4087
  345SOL     OW 1033   2.751   2.034   2.767  0.0440 -0.3027 -0.1518
  345SOL    HW1 1034   2.683   1.970   2.806  0.0870 -2.4534 -2.9811
  345SOL    HW2 1035   2.834   2.038   2.820 -1.5207  1.2219  0.6541
  346SOL     OW 1036   0.097   1.758   0.772  0.2121  0.8752 -0.0361
  346SOL    HW1 1037   0.008   1.701   0.772 -0.4628 -0.5403  1.2636
  346SOL    HW2 1038   0.085   1.840   0.832  2.4755  2.6976 -2.0842
  347SOL     OW 1039   1.932   2.439   1.399 -1.0976  0.0353 -0.6700
  347SOL    HW1 1040   1.919   2.506   1.478 -1.0191  0.9653 -1.1512
  347SOL    HW2 1041   1.928   2.484   1.305 -2.8210  1.2954  1.6580
  348SOL     OW 1042   0.970   1.695   2.600  0.1023  0.1355  0.3698
  348SOL    HW1 1043   0.888   1.688   2.548  2.4129  0.2905  1.4746
  348SOL    HW2 1044   1.011   1.792   2.605  1.3689  0.7976 -1.8027
  349SOL     OW 1045   2.470   1.295   2.089 -0.6163 -0.0487 -0.3276
  349SOL    HW1 1046   2.392   1.234   2.062 -0.5748  0.5220 -0.8230
  349SOL    HW2 1047   2.467   1.383   2.041  0.6221 -1.6828  0.3645
  350SOL     OW 1048   2.946   2.451   1.350  0.1906 -0.5794  0.6282
  350SOL    HW1 1049   3.003   2.532   1.323 -0.5207 -1.7892  0.6573
  350SOL    HW2 1050   2.970   2.367   1.295 -0.0223  1.0515  1.0544
  351SOL     OW 1051   0.381   0.466   2.572 -0.2630 -0.1209 -0.0436
  351SOL    HW1 1052   0.425   0.374   2.578  1.0209  0.6105 -2.7638
  351SOL    HW2 1053   0.322   0.481   2.655  1.0700 -1.8183 -0.0193
  352SOL     OW 1054   0.742   2.535   1.532 -0.4912  0.0628 -0.4144
  352SOL    HW1 1055   0.741   2.637   1.542  0.2034 -0.1331 -1.3949
  352SOL    HW2 1056   0.648   2.507   1.497 -1.1282  0.1686 -0.1257
  353SOL     OW 1057   0.796   1.552   2.309  0.7843  0.3604  0.1775
  353SOL    HW1 1058   0.742   1.495   2.377 -0.9486  1.9221  1.3715
  353SOL    HW2 1059   0.890   1.513   2.284 -1.9035 -0.2978 -0.0549
  354SOL     OW 1060   1.749   0.889   0.566  0.0886 -0.0278 -0.5301
  354SOL    HW1 1061   1.786   0.792   0.554  0.4687  1.0723  0.7471
  354SOL    HW2 1062   1.650   0.898   0.543 -4.0817  2.7305 -0.3023
  355SOL     OW 1063   2.873   0.548   0.372  0.0399 -0.3280  0.3382
  355SOL    HW1 1064   2.801   0.575   0.307  0.3877  0.7626 -0.0587
  355SOL    HW2 1065   2.953   0.606   0.365 -0.9914 -0.5553  1.2339
  356SOL     OW 1066   2.679   0.935   2.581 -0.2192  0.0959 -0.2212
  356SOL    HW1 1067   2.777   0.956   2.607  0.8018  2.3205  0.7865
  356SOL    HW2 1068   2.607   0.920   2.657 -0.3473 -0.2340  3.2614
  357SOL     OW 1069   0.686   2.721   1.742 -0.2127 -1.1232  0.3447
  357SOL    HW1 1070   0.712   2.792   1.669 -0.6600  0.3320 -3.7076
  357SOL    HW2 1071   0.691   2.763   1.838  3.3298  1.1835  2.5294
  358SOL     OW 1072   2.240   1.185   1.995 -0.0077 -0.0185 -0.1205
  358SOL    HW1 1073   2.169   1.256   1.981  1.0433 -2.7129  1.0708
  358SOL    HW2 1074   2.296   1.166   1.912  1.1371  0.4733 -2.9485
  359SOL     OW 1075   2.141   2.371   2.970  0.0051  0.1358  0.7247
  359SOL    HW1 1076   2.151   2.414   2.877 -0.6252  0.0751 -0.5721
  359SOL    HW2 1077   2.226   2.373   3.025  2.9575 -0.4927  0.0428
  360SOL     OW 1078   2.228   0.558   0.766 -0.0370 -0.1060  0.1182
  360SOL    HW1 1079   2.307   0.501   0.796  5.0341 -1.3160  1.0827
  360SOL    HW2 1080   2.255   0.648   0.796  1.2296  0.3018  1.5460
  361SOL     OW 1081   1.829   3.085   0.915  0.3825  0.1051  1.1114
  361SOL    HW1 1082   1.852   3.084   0.815  2.7527 -1.4391 -1.0675
  361SOL    HW2 1083   1.756   3.019   0.944 -0.8363 -0.1355  0.1583
  362SOL     OW 1084   1.366   1.183   0.495 -0.5204 -0.2729 -0.1612
  362SOL    HW1 1085   1.265   1.199   0.485  2.8561  1.5142 -3.0844
  362SOL    HW2 1086   1.397   1.122   0.570  2.5142  0.8294 -0.4533
  363SOL     OW 1087   2.545   1.670   2.302 -0.2730 -0.0412 -0.0667
  363SOL    HW1 1088   2.566   1.575   2.335 -0.6519  0.5328 -0.4471
  363SOL    HW2 1089   2.538   1.734   2.379  1.9233 -0.0312  0.1814
  364SOL     OW 1090   1.253   0.722   1.405 -0.2271 -0.4422  0.2776
  364SOL    HW1 1091   1.205   0.704   1.317 -0.3899  2.4956  1.1572
  364SOL    HW2 1092   1.232   0.651   1.477  0.8777 -3.2572  3.2849
  365SOL     OW 1093   0.158   3.085   0.986 -0.8557 -0.6214  0.0007
  365SOL    HW1 1094   0.132   0.068   0.917  0.4135  0.5078  2.5774
  365SOL    HW2 1095   0.089   3.012   1.009 -0.2150  3.2008 -1.5474
  366SOL     OW 1096   2.739   1.586   0.440  0.5554  0.1841  0.7682
  366SOL    HW1 1097   2.685   1.642   0.507 -0.5781 -1.7021  0.3079
  366SOL    HW2 1098   2.821   1.642   0.416 -1.7356 -0.5805 -1.8416
  367SOL     OW 1099   3.027   2.365   3.046  0.2973  0.0345 -0.2451
  367SOL    HW1 1100   0.020   2.341   2.991 -1.0162  1.2434 -3.0558
  367SOL    HW2 1101   3.044   2.411   0.045  0.4901 -0.5366  1.1343
  368SOL     OW 1102   3.060   2.253   0.921 -0.0791  0.3289  0.3487
  368SOL    HW1 1103   0.022   2.295   0.836  0.8784  0.0594 -0.4938
  368SOL    HW2 1104   2.960   2.252   0.910 -2.0308 -1.0255 -0.2988
  369SOL     OW 1105   0.558   0.295   0.261 -0.4121  0.0852  0.0792
  369SOL    HW1 1106   0.523   0.198   0.245  1.3640 -1.7451  2.2634
  369SOL    HW2 1107   0.662   0.292   0.249  3.8579 -0.2578  0.1212
  370SOL     OW 1108   0.432   1.157   1.412  0.1444  0.0318 -0.0255
  370SOL    HW1 1109   0.485   1.115   1.493 -2.8455  0.0103 -0.6272
  370SOL    HW2 1110   0.425   1.257   1.405  1.2646 -3.7268  0.7279
  371SOL     OW 1111   1.961   2.242   0.946  0.0845  0.0338  0.6664
  371SOL    HW1 1112   1.983   2.169   1.007  0.7510  2.6016 -2.4681
  371SOL    HW2 1113   1.924   2.207   0.853 -0.9439 -1.3658 -1.1526
  372SOL     OW 1114   2.932   0.934   2.634  0.3660  0.0016 -0.3451
  372SOL    HW1 1115   2.943   0.835   2.608 -0.1419 -0.9700  0.7147
  372SOL    HW2 1116   2.989   0.985   2.569  0.3077 -2.2289 -0.7455
  373SOL     OW 1117   2.684   1.627   0.773  0.5546 -0.1021  0.4316
  373SOL    HW1 1118   2.647   1.680   0.850  3.0086  0.6412 -3.1010
  373SOL    HW2 1119   2.653   1.527   0.779 -0.1240  0.1130 -2.3298
  374SOL     OW 1120   0.340   2.276   0.431  0.2372 -0.2222  0.2933
  374SOL    HW1 1121   0.374   2.186   0.409 -1.2328 -1.5017 -1.2369
  374SOL    HW2 1122   0.325   2.328   0.347 -0.5223 -0.4535 -1.6344
  375SOL     OW 1123   0.809   0.300   0.229 -0.3803  0.0562  0.5163
  375SOL    HW1 1124   0.895   0.280   0.282  1.8828 -0.1992 -0.4518
  375SOL    HW2 1125   0.798   0.407   0.215 -1.1116  0.4963 -1.2062
  376SOL     OW 1126   0.438   3.038   1.905 -0.8128  0.0041  0.3509
  376SOL    HW1 1127   0.435   0.008   1.819 -0.4409  1.8470 -1.4827
  376SOL    HW2 1128   0.416   2.942   1.883 -2.0021  0.0854  2.9722
  377SOL     OW 1129   1.014   2.303   2.384  0.2266  0.0637  0.1509
  377SOL    HW1 1130   1.082   2.228   2.362  0.7004 -2.7508 -1.4627
  377SOL    HW2 1131   1.056   2.373   2.444  0.0405  1.5681  0.0646
  378SOL     OW 1132   1.037   0.824   0.591  0.1766  0.1713  0.0815
  378SOL    HW1 1133   0.997   0.874   0.672 -3.2411 -0.9332 -0.3632
  378SOL    HW2 1134   1.063   0.726   0.608  2.4713 -1.4737 -2.4774
  379SOL     OW 1135   0.894   1.727   2.863 -0.0033  0.0879  0.4866
  379SOL    HW1 1136   0.880   1.636   2.913 -1.5711 -1.6605  1.0029
  379SOL    HW2 1137   0.983   1.724   2.819 -2.6372 -1.3455  1.0841
  380SOL     OW 1138   2.934   1.891   1.718  0.0094 -0.3492  0.8586
  380SOL    HW1 1139   2.907   1.924   1.812 -0.6483 -1.7867  0.7187
  380SOL    HW2 1140   2.973   1.964   1.662 -0.7207 -1.4339  1.0296
  381SOL     OW 1141   3.090   0.977   1.923  0.1466 -0.1265 -0.3133
  381SOL    HW1 1142   0.099   1.009   1.932 -0.6456  2.4490  0.3233
  381SOL    HW2 1143   3.073   0.905   1.850 -0.0773 -2.1489 -1.4313
  382SOL     OW 1144   2.397   2.358   0.023  0.2176 -0.2674 -0.9754
  382SOL    HW1 1145   2.449   2.378   3.028  1.3366  0.8665 -0.2190
  382SOL    HW2 1146   2.457   2.309   0.090 -0.1479  1.9610  2.5074
  383SOL     OW 1147   2.381   1.978   2.161 -0.3413  0.3016 -0.6760
  383SOL    HW1 1148   2.463   1.933   2.112  0.2528 -1.7634 -1.3177
  383SOL    HW2 1149   2.381   2.078   2.142  2.6719  3.2831 -2.3023
  384SOL     OW 1150   0.947   2.306   2.106 -0.4981 -0.3692 -0.5740
  384SOL    HW1 1151   0.981   2.314   2.206  0.7783 -1.4773  2.0580
  384SOL    HW2 1152   0.861   2.355   2.099 -2.6305 -1.9937 -0.6991
  385SOL     OW 1153   2.595   2.042   1.051  0.7293  0.0987  0.8990
  385SOL    HW1 1154   2.538   2.101   0.987 -1.9528  0.8262  0.9573
  385SOL    HW2 1155   2.552   2.032   1.144  1.7955  1.8486  1.1266
  386SOL     OW 1156   1.944   0.490   2.922  0.5771  0.3528  0.3553
  386SOL    HW1 1157   1.848   0.454   2.910 -0.3948  1.2866  0.2613
  386SOL    HW2 1158   1.950   0.564   2.995  0.7823  0.3467  0.4561
  387SOL     OW 1159   0.576   0.474   1.917  0.6040  0.4653  0.1271
  387SOL    HW1 1160   0.497   0.476   1.856 -1.8202  0.3688  1.0458
  387SOL    HW2 1161   0.554   0.441   2.010 -1.0419 -0.5643  0.1520
  388SOL     OW 1162   2.871   1.081   1.582 -0.3237  0.1782 -0.1430
  388SOL    HW1 1163   2.815   0.997   1.602 -0.1499 -1.8686  1.6800
  388SOL    HW2 1164   2.972   1.055   1.576 -3.1061 -1.7515  0.4766
  389SOL     OW 1165   1.649   0.816   2.264 -0.2108 -0.1635 -0.4631
  389SOL    HW1 1166   1.621   0.903   2.221  3.1371  0.3748 -1.3308
  389SOL    HW2 1167   1.646   0.738   2.197 -0.3393  0.6979 -2.7738
  390SOL     OW 1168   2.018   2.277   0.592  0.1667  0.7441  0.6000
  390SOL    HW1 1169   2.119   2.294   0.578 -0.7558 -1.1835 -0.7858
  390SOL    HW2 1170   1.973   2.367   0.566  1.6573 -0.7749 -0.2441
  391SOL     OW 1171   1.696   2.837   1.041 -0.3561 -0.3135 -0.8448
  391SOL    HW1 1172   1.642   2.855   0.954  0.3577 -0.9982  0.8947
  391SOL    HW2 1173   1.646   2.783   1.115 -0.8285  0.0472 -0.2964
  392SOL     OW 1174   2.593   2.562   0.977 -0.1269 -0.3814  0.0001
  392SOL    HW1 1175   2.539   2.641   0.947  0.0100 -3.1071 -2.1283
  392SOL    HW2 1176   2.534   2.480   0.987 -0.8918  0.5611 -1.3251
  393SOL     OW 1177   1.754   1.711   2.878  0.0141  0.0195  0.2814
  393SOL    HW1 1178   1.795   1.799   2.848  0.9638 -0.8039  0.7374
  393SOL    HW2 1179   1.809   1.681   2.958 -1.2817 -1.9072 -1.2647
  394SOL     OW 1180   0.293   2.775   0.037 -0.1314  0.1260 -1.0033
  394SOL    HW1 1181   0.312   2.707   3.054  0.6779 -0.1338 -0.0237
  394SOL    HW2 1182   0.195   2.801   0.033 -0.8189 -0.6581  0.0938
  395SOL     OW 1183   1.341   1.242   1.084  0.0712  0.3205 -0.1495
  395SOL    HW1 1184   1.378   1.163   1.136 -1.0180  1.5217 -0.2550
  395SOL    HW2 1185   1.414   1.311   1.058  0.2739 -0.2348 -1.4750
  396SOL     OW 1186   2.131   0.818   2.711 -0.1066  0.0317 -0.0123
  396SOL    HW1 1187   2.115   0.831   2.808  0.0893  0.5434  0.5395
  396SOL    HW2 1188   2.214   0.766   2.693  3.5904 -0.7659  2.0315
  397SOL     OW 1189   0.157   0.779   2.595  0.0456 -0.2104 -0.5582
  397SOL    HW1 1190   0.113   0.842   2.525  1.2095 -1.1006  2.0622
  397SOL    HW2 1191   0.161   0.825   2.684  0.1643 -0.8800 -3.7486
  398SOL     OW 1192   1.331   0.431   0.073  0.9285  0.3570  0.4601
  398SOL    HW1 1193   1.389   0.496   0.019  1.5430 -0.9108 -1.2317
  398SOL    HW2 1194   1.230   0.451   0.070 -0.5249 -2.7150  0.7895
  399SOL     OW 1195   1.988   3.083   1.818 -0.1696  0.2981 -0.4720
  399SOL    HW1 1196   2.076   3.036   1.797  1.4951 -0.0008  3.1549
  399SOL    HW2 1197   1.929   0.006   1.739 -0.5894  0.4993 -0.3515
  400SOL     OW 1198   0.079   1.821   2.431 -0.2840 -0.1470 -0.3596
  400SOL    HW1 1199   0.069   1.769   2.343 -1.6238  1.3257 -0.7333
  400SOL    HW2 1200   3.089   1.798   2.493 -2.1816 -1.1704  4.8575
  401SOL     OW 1201   0.794   0.193   3.071 -0.5098 -0.4536  0.0243
  401SOL    HW1 1202   0.810   0.220   0.076 -1.4823  0.6844 -0.6835
  401SOL    HW2 1203   0.780   0.270   3.009  0.6168 -2.4473  0.0798
  402SOL     OW 1204   0.492   2.439   1.488  0.2544 -0.0226 -0.0502
  402SOL    HW1 1205   0.497   2.336   1.490 -0.9068 -1.7771 -0.5066
  402SOL    HW2 1206   0.469   2.478   1.582  1.1541  0.4605  1.0974
  403SOL     OW 1207   0.466   1.430   1.422 -0.4118 -0.0080 -0.0569
  403SOL    HW1 1208   0.400   1.411   1.498 -0.6953  1.9839  0.6860
  403SOL    HW2 1209   0.470   1.531   1.414  1.1384 -0.8150 -2.1411
  404SOL     OW 1210   2.836   2.558   1.831 -0.1773  0.0315 -0.1235
  404SOL    HW1 1211   2.875   2.600   1.749 -0.5812 -1.5009  0.2861
  404SOL    HW2 1212   2.845   2.620   1.911  0.6965 -4.1675 -1.0872
  405SOL     OW 1213   2.731   0.306   2.198 -0.3473 -0.7052  0.3725
  405SOL    HW1 1214   2.638   0.296   2.244  0.3080 -0.3809 -0.0468
  405SOL    HW2 1215   2.798   0.245   2.240 -1.1784  3.2410 -0.6663
  406SOL     OW 1216   1.869   2.438   0.290  0.1609 -0.0579  0.3882
  406SOL    HW1 1217   1.921   2.353   0.272 -1.0758  2.0889 -0.1269
  406SOL    HW2 1218   1.899   2.487   0.373  1.5326  2.6460 -0.5944
  407SOL     OW 1219   1.742   1.778   0.927  0.3281  0.0270 -0.2659
  407SOL    HW1 1220   1.771   1.734   0.838  2.0834 -1.8764 -0.0315
  407SOL    HW2 1221   1.810   1.839   0.965 -1.6182 -0.4790  1.8089
  408SOL     OW 1222   0.718   0.354   2.260 -0.0827 -0.5966 -0.0603
  408SOL    HW1 1223   0.768   0.441   2.238  1.8435  1.0845  1.8690
  408SOL    HW2 1224   0.773   0.273   2.229  0.6457 -0.8614  0.5394
  409SOL     OW 1225   2.408   1.858   0.739 -0.2270 -0.0734 -0.6715
  409SOL    HW1 1226   2.468   1.854   0.822  1.2157 -0.1634 -2.6935
  409SOL    HW2 1227   2.381   1.763   0.711 -2.1399 -2.1434 -1.4164
  410SOL     OW 1228   2.405   1.477   0.895  0.3192  0.5155 -0.0586
  410SOL    HW1 1229   2.330   1.409   0.902  0.0860 -1.3397  2.4625
  410SOL    HW2 1230   2.387   1.549   0.960  0.4576 -2.0014 -3.8648
  411SOL     OW 1231   3.086   0.716   0.346 -0.2580  0.0291 -0.3630
  411SOL    HW1 1232   0.013   0.649   0.421 -1.3153  0.1705 -0.8394
  411SOL    HW2 1233   0.026   0.809   0.359 -0.0530 -2.7498  0.0315
  412SOL     OW 1234   1.719   0.620   0.263  0.1347  0.2817 -0.0308
  412SOL    HW1 1235   1.692   0.637   0.167 -0.2205 -1.2451 -1.6732
  412SOL    HW2 1236   1.643   0.617   0.330  1.8968 -1.4832 -1.8958
  413SOL     OW 1237   0.894   1.069   1.327 -0.0613 -0.2038  0.2210
  413SOL    HW1 1238   0.824   1.007   1.368  1.9343 -1.4848 -0.6095
  413SOL    HW2 1239   0.881   1.090   1.229 -0.0200 -2.2221  1.4439
  414SOL     OW 1240   3.059   1.270   2.943 -0.5369 -0.0413 -0.3194
  414SOL    HW1 1241   3.082   1.334   3.016 -0.9485 -2.1348 -2.1922
  414SOL    HW2 1242   3.046   1.315   2.857 -0.5232 -1.4387  2.1401
  415SOL     OW 1243   0.118   1.653   0.043  0.0337  0.5121  0.2729
  415SOL    HW1 1244   0.166   1.651   3.043  0.8453 -1.4909 -1.6053
  415SOL    HW2 1245   0.043   1.579   0.048 -0.0287  0.9820  1.4684
  416SOL     OW 1246   1.771   0.943   0.096 -0.1977  0.4430 -0.9603
  416SOL    HW1 1247   1.845   0.900   0.155  0.8312  1.2973  3.0015
  416SOL    HW2 1248   1.713   1.007   0.148  1.1436  1.5052 -3.5592
  417SOL     OW 1249   0.188   0.811   1.075 -1.0581  0.0795  0.3467
  417SOL    HW1 1250   0.197   0.869   1.159  1.2818  0.1132  1.5937
  417SOL    HW2 1251   0.231   0.860   0.994 -1.6434  2.8151 -1.2687
  418SOL     OW 1252   2.267   1.072   2.613  0.2752  0.1716 -0.1684
  418SOL    HW1 1253   2.180   1.020   2.626 -0.8150 -1.6059 -0.6224
  418SOL    HW2 1254   2.345   1.034   2.666  3.0663  0.5908  0.4296
  419SOL     OW 1255   0.400   0.497   0.219  0.2610 -0.3783  0.1152
  419SOL    HW1 1256   0.471   0.428   0.219  0.8207  0.1226 -2.5419
  419SOL    HW2 1257   0.314   0.460   0.179 -0.0636  2.4677  0.3628
  420SOL     OW 1258   0.410   1.385   0.891  0.4080  0.0426  0.1070
  420SOL    HW1 1259   0.443   1.408   0.986 -0.6654 -1.5568  1.1744
  420SOL    HW2 1260   0.359   1.459   0.846  0.5292 -0.3086 -2.0621
  421SOL     OW 1261   0.380   1.973   0.357 -0.1202 -0.1627  0.4723
  421SOL    HW1 1262   0.290   1.994   0.308 -2.5033  0.6671  0.3597
  421SOL    HW2 1263   0.373   1.947   0.455  0.6253 -2.8775  0.9192
  422SOL     OW 1264   2.724   0.425   1.500  0.0984 -0.0658 -0.4364
  422SOL    HW1 1265   2.706   0.424   1.401 -0.0915  2.1202 -1.3762
  422SOL    HW2 1266   2.771   0.337   1.538  1.6005 -0.4267  1.3767
  423SOL     OW 1267   2.000   1.500   0.909 -0.0074 -0.3509  0.1864
  423SOL    HW1 1268   1.922   1.480   0.967 -0.1502 -1.4634 -1.4947
  423SOL    HW2 1269   2.068   1.417   0.915  1.4253 -4.2910 -0.3669
  424SOL     OW 1270   1.883   1.224   0.140 -0.0739 -0.4743  0.6320
  424SOL    HW1 1271   1.961   1.233   0.076 -2.4473 -2.8280 -0.4253
  424SOL    HW2 1272   1.797   1.270   0.112  0.1567 -2.5735  1.2649
  425SOL     OW 1273   0.273   2.764   1.890  0.1208 -0.2506  0.0452
  425SOL    HW1 1274   0.242   2.819   1.970 -2.3145 -0.4199 -1.4736
  425SOL    HW2 1275   0.210   2.769   1.806 -1.8639  0.9816 -0.8058
  426SOL     OW 1276   2.633   2.824   2.765 -0.2283 -0.1766  0.3243
  426SOL    HW1 1277   2.604   2.847   2.667 -0.8194 -1.3357  1.0680
  426SOL    HW2 1278   2.550   2.790   2.803  0.4085  2.3595 -0.5280
  427SOL     OW 1279   0.592   0.839   2.267  0.1120 -0.0148 -0.2650
  427SOL    HW1 1280   0.501   0.890   2.257 -3.9309 -2.9324 -1.8320
  427SOL    HW2 1281   0.669   0.900   2.302 -0.2704 -0.1049 -0.4861
  428SOL     OW 1282   2.173   0.795   2.220  0.0696  0.3636 -0.2327
  428SOL    HW1 1283   2.244   0.783   2.148 -0.8660  1.8989  0.3258
  428SOL    HW2 1284   2.158   0.892   2.236  1.0182 -0.5915  1.8629
  429SOL     OW 1285   2.349   0.316   0.416  0.3097  0.1131  0.4099
  429SOL    HW1 1286   2.452   0.318   0.420  2.0762  2.1661 -0.0406
  429SOL    HW2 1287   2.307   0.406   0.396  0.3050  1.2204 -0.9122
  430SOL     OW 1288   1.945   1.045   2.152 -0.2502 -0.5679 -0.4988
  430SOL    HW1 1289   2.047   1.029   2.160  2.1978  1.4205 -1.3944
  430SOL    HW2 1290   1.903   1.010   2.068 -1.6090 -2.6112 -0.7030
  431SOL     OW 1291   2.760   2.132   1.482  0.7528  0.3905  0.0581
  431SOL    HW1 1292   2.734   2.033   1.460 -1.9295 -2.5982  1.4344
  431SOL    HW2 1293   2.769   2.184   1.395  1.4598  0.7130  1.0906
  432SOL     OW 1294   1.410   2.723   2.399  0.0429  0.0525 -0.4219
  432SOL    HW1 1295   1.498   2.775   2.415 -1.6978  0.4675  2.3767
  432SOL    HW2 1296   1.332   2.787   2.380 -0.1645  0.7540  0.0904
  433SOL     OW 1297   1.435   0.032   1.348 -0.2509 -0.2256 -0.1496
  433SOL    HW1 1298   1.519   0.029   1.289  0.5469  0.9280 -1.0563
  433SOL    HW2 1299   1.429   3.037   1.401  1.9823  2.2890 -1.1487
  434SOL     OW 1300   2.987   2.391   2.239  0.2438 -0.0627 -0.0000
  434SOL    HW1 1301   2.972   2.364   2.144 -0.5162 -0.1304  1.3549
  434SOL    HW2 1302   3.078   2.443   2.249  2.1197  3.1193 -1.4170
  435SOL     OW 1303   0.290   1.629   0.271  0.0508  0.4524 -0.2856
  435SOL    HW1 1304   0.392   1.628   0.263  2.4816  1.3029 -1.1552
  435SOL    HW2 1305   0.244   1.649   0.179 -0.8852 -0.1534  0.5140
  436SOL     OW 1306   0.554   1.074   1.640  0.1414  0.5480  0.1006
  436SOL    HW1 1307   0.634   1.125   1.677 -0.9874 -0.3973  0.7732
  436SOL    HW2 1308   0.496   1.039   1.713 -0.6575 -0.9073 -1.6175
  437SOL     OW 1309   0.925   0.438   2.936  0.2355  0.1625 -0.5376
  437SOL    HW1 1310   0.898   0.507   2.869  1.7112 -1.4888  0.3099
  437SOL    HW2 1311   1.027   0.416   2.927  1.6524  0.9001 -1.3878
  438SOL     OW 1312   0.655   2.022   1.436  0.0786 -0.7736  0.9058
  438SOL    HW1 1313   0.705   2.088   1.383  0.2448  0.2264  6.5745
  438SOL    HW2 1314   0.685   1.927   1.428  0.9851  3.4374  2.1842
  439SOL     OW 1315   1.867   1.478   3.025  0.0454  0.2354  0.2616
  439SOL    HW1 1316   1.919   1.393   3.000 -1.8544  0.4323 -0.9327
  439SOL    HW2 1317   1.796   1.443   3.087 -1.1710  0.0219  0.2880
  440SOL     OW 1318   1.469   0.644   0.405  0.4838 -0.1907  0.3127
  440SOL    HW1 1319   1.446   0.740   0.375  1.4347  1.6393 -0.1725
  440SOL    HW2 1320   1.426   0.574   0.341 -1.6579  0.4204  0.9069
  441SOL     OW 1321   0.477   2.526   1.765 -0.8241 -0.5067 -0.1102
  441SOL    HW1 1322   0.540   2.609   1.767 -0.5095 -0.2371 -0.5011
  441SOL    HW2 1323   0.392   2.534   1.824 -1.8880  0.7936 -1.4574
  442SOL     OW 1324   2.210   2.390   0.903  0.0408  0.7185  0.0623
  442SOL    HW1 1325   2.128   2.326   0.914  0.6228 -1.3916  1.3625
  442SOL    HW2 1326   2.205   2.473   0.963 -0.7633  1.8954 -1.0114
  443SOL     OW 1327   2.597   1.197   2.486  0.2509 -0.2297 -0.1627
  443SOL    HW1 1328   2.506   1.182   2.449  1.9744  0.8631  0.5968
  443SOL    HW2 1329   2.642   1.110   2.511  3.3855 -0.7568 -1.2114
  444SOL     OW 1330   1.457   0.716   2.444  0.5701  0.4828  0.4307
  444SOL    HW1 1331   1.518   0.770   2.379  0.4808 -0.6085  0.0899
  444SOL    HW2 1332   1.358   0.739   2.438 -0.8784  2.3837  1.2368
  445SOL     OW 1333   2.417   2.382   1.700  0.1053  0.2737  0.0046
  445SOL    HW1 1334   2.446   2.305   1.638  0.8481 -0.6780  0.1647
  445SOL    HW2 1335   2.497   2.420   1.752 -1.3827 -0.6955  2.2017
  446SOL     OW 1336   2.968   1.702   0.379  0.0114 -0.4819  0.2743
  446SOL    HW1 1337   2.938   1.760   0.302 -0.3656  1.2937  1.2375
  446SOL    HW2 1338   3.051   1.742   0.425  1.3463  2.0687  0.4282
  447SOL     OW 1339   1.048   2.581   1.372 -0.0975 -0.1197 -0.7812
  447SOL    HW1 1340   1.107   2.661   1.336  1.0746  3.7180  0.1214
  447SOL    HW2 1341   1.038   2.587   1.470 -2.2629  1.8745 -0.9607
  448SOL     OW 1342   1.700   1.459   1.886 -0.0448  0.0579  0.0880
  448SOL    HW1 1343   1.779   1.457   1.945  0.0767 -0.6250  1.3999
  448SOL    HW2 1344   1.627   1.397   1.926 -1.6556  1.3976 -1.3876
  449SOL     OW 1345   0.411   2.125   2.488  0.6718 -0.1243  0.5122
  449SOL    HW1 1346   0.498   2.142   2.541 -0.6072  1.2208  0.5340
  449SOL    HW2 1347   0.380   2.222   2.464 -0.7486  0.2886 -2.0453
  450SOL     OW 1348   2.944   1.737   2.562  0.2481  0.0280 -0.1293
  450SOL    HW1 1349   2.912   1.657   2.510 -1.8895 -2.1348  1.2020
  450SOL    HW2 1350   2.870   1.805   2.563  0.7482 -0.7564 -2.5877
  451SOL     OW 1351   2.516   0.626   1.226  0.0597  0.3424 -0.1815
  451SOL    HW1 1352   2.585   0.547   1.221  0.2859 -3.1616  1.1541
  451SOL    HW2 1353   2.512   0.661   1.326  1.2345  0.2160  1.8682
  452SOL     OW 1354   0.946   2.398   1.198 -0.1075  0.0214 -0.2688
  452SOL    HW1 1355   0.972   2.482   1.252  0.4686  0.9213  1.0345
  452SOL    HW2 1356   0.952   2.410   1.094  0.3027  0.2342 -1.0231
  453SOL     OW 1357   1.192   2.050   0.928 -0.3089 -0.4409 -0.0690
  453SOL    HW1 1358   1.243   2.028   1.013 -3.0009  0.4218  1.2562
  453SOL    HW2 1359   1.190   2.144   0.905  1.5411 -2.7256  1.6441
  454SOL     OW 1360   2.983   1.268   0.740 -0.4036  0.4222  0.5294
  454SOL    HW1 1361   2.992   1.213   0.825 -2.0677  0.7768 -0.6437
  454SOL    HW2 1362   3.076   1.293   0.701 -0.3610 -0.5943  2.3508
  455SOL     OW 1363   0.616   0.838   0.372 -0.4107  0.1550  0.1082
  455SOL    HW1 1364   0.610   0.909   0.295 -1.9521 -0.2421  2.0286
  455SOL    HW2 1365   0.540   0.837   0.438  2.3896 -4.8525 -3.0798
  456SOL     OW 1366   1.850   2.466   1.140  0.2370  0.0926  0.0765
  456SOL    HW1 1367   1.748   2.454   1.147 -0.2437  1.9435 -1.0986
  456SOL    HW2 1368   1.888   2.399   1.076 -0.1494  3.3942  1.3283
  457SOL     OW 1369   1.589   2.502   3.053 -0.6473 -0.2603  0.5467
  457SOL    HW1 1370   1.686   2.476   3.034 -0.6535 -0.3540  2.4694
  457SOL    HW2 1371   1.568   2.473   0.059  0.5537 -2.4576 -0.7195
  458SOL     OW 1372   2.610   0.302   2.801  0.4794  0.6835 -0.0441
  458SOL    HW1 1373   2.576   0.208   2.785  1.4269 -1.8990  0.3201
  458SOL    HW2 1374   2.629   0.311   2.900 -1.5580 -1.3026 -2.4201
  459SOL     OW 1375   2.266   0.120   1.818 -0.0497  0.0383 -0.1383
  459SOL    HW1 1376   2.268   0.020   1.795  0.7378 -2.0031  1.9792
  459SOL    HW2 1377   2.267   0.142   1.919 -0.8508  1.4342  0.4859
  460SOL     OW 1378   2.970   0.514   2.834  0.0244  0.3206  0.4774
  460SOL    HW1 1379   3.074   0.517   2.830  1.2148  1.9228  2.1968
  460SOL    HW2 1380   2.932   0.459   2.757 -0.0593 -1.1071 -0.7744
  461SOL     OW 1381   0.013   1.970   0.929 -0.5455 -0.6107  0.1695
  461SOL    HW1 1382   3.064   1.932   1.011 -0.2705 -1.6764 -2.1295
  461SOL    HW2 1383   0.005   2.071   0.930 -0.5250 -2.1268 -0.4365
  462SOL     OW 1384   0.080   0.176   0.792  0.1342  0.4058 -0.2386
  462SOL    HW1 1385   0.059   0.101   0.730  1.4642  1.1094  0.4794
  462SOL    HW2 1386   3.080   0.224   0.818 -2.5280  0.1645  0.4057
  463SOL     OW 1387   2.300   1.513   0.104 -0.4083  0.4172  0.3642
  463SOL    HW1 1388   2.236   1.543   0.033 -0.8994 -0.7178 -2.0331
  463SOL    HW2 1389   2.372   1.457   0.058 -1.6711 -0.3486 -0.3776
  464SOL     OW 1390   0.734   3.087   1.105 -0.9272 -0.7623 -0.1400
  464SOL    HW1 1391   0.667   3.027   1.152  2.8910  0.6151 -0.1448
  464SOL    HW2 1392   0.814   3.040   1.062  1.9197  0.6283 -1.5164
  465SOL     OW 1393   1.125   0.629   1.122 -0.5989 -0.0247 -0.2702
  465SOL    HW1 1394   1.143   0.722   1.087 -0.0783  1.3420  1.2627
  465SOL    HW2 1395   1.046   0.633   1.187 -1.1975 -0.7186 -0.7217
  466SOL     OW 1396   1.632   2.519   2.145  0.0683 -0.6297  0.1509
  466SOL    HW1 1397   1.533   2.540   2.125 -1.7545  1.1920 -2.7755
  466SOL    HW2 1398   1.630   2.441   2.212 -1.2905 -2.4289  2.1752
  467SOL     OW 1399   0.757   2.836   1.980  0.2668  0.7693  0.3940
  467SOL    HW1 1400   0.717   2.898   2.052 -0.4323  1.2850 -0.0733
  467SOL    HW2 1401   0.851   2.862   1.947  1.4088  0.2119  0.5935
  468SOL     OW 1402   0.119   1.440   2.187  0.0018  0.0563  0.2003
  468SOL    HW1 1403   0.026   1.405   2.161 -2.4042 -1.1897  1.6719
  468SOL    HW2 1404   0.135   1.534   2.167  0.0813 -3.0921 -0.2334
  469SOL     OW 1405   0.971   1.861   0.870 -0.2408  0.2413 -0.0724
  469SOL    HW1 1406   0.955   1.853   0.769 -1.6036 -1.1877  1.6931
  469SOL    HW2 1407   1.036   1.935   0.899 -0.8385 -0.7711  1.6475
  470SOL     OW 1408   2.202   1.053   2.224  0.2717  0.1160 -0.0296
  470SOL    HW1 1409   2.222   1.098   2.135  1.0271 -1.3561 -1.1353
  470SOL    HW2 1410   2.251   1.109   2.297  1.4978  1.1635  0.7681
  471SOL     OW 1411   0.436   2.417   0.144 -0.3060  0.8145 -0.2036
  471SOL    HW1 1412   0.413   2.317   0.130 -0.4513 -0.3864 -1.2350
  471SOL    HW2 1413   0.480   2.451   0.062 -0.7739 -0.0349  2.2783
  472SOL     OW 1414   3.041   2.793   2.213 -0.0391  0.1447 -0.4471
  472SOL    HW1 1415   3.046   2.696   2.225  2.2537  0.2446  0.6681
  472SOL    HW2 1416   0.035   2.829   2.168 -2.1951  2.9796 -0.3931
  473SOL     OW 1417   0.699   2.995   3.052  0.5497 -0.5128 -0.0404
  473SOL    HW1 1418   0.712   2.958   2.958 -2.2905  0.9739  1.7448
  473SOL    HW2 1419   0.687   0.004   3.048 -0.3187 -0.4216  1.5598
  474SOL     OW 1420   1.513   0.237   0.725 -0.1713  0.0320  0.3257
  474SOL    HW1 1421   1.537   0.160   0.658  0.5251 -0.3707 -1.7490
  474SOL    HW2 1422   1.580   0.312   0.723 -0.4333  0.6601 -0.1762
  475SOL     OW 1423   1.303   0.239   1.475  0.2183 -0.1250  0.5436
  475SOL    HW1 1424   1.292   0.317   1.406 -1.4442  0.4386  1.3135
  475SOL    HW2 1425   1.365   0.170   1.431 -2.0521  0.6715  1.1794
  476SOL     OW 1426   0.199   1.230   1.202 -0.7677 -0.1047  0.1546
  476SOL    HW1 1427   0.238   1.157   1.262 -1.7703  1.4678 -0.6746
  476SOL    HW2 1428   0.237   1.223   1.109  0.7001 -0.3945  3.1738
  477SOL     OW 1429   0.693   1.909   0.870  0.6262  0.2269 -0.4205
  477SOL    HW1 1430   0.791   1.890   0.880  0.9393 -0.6207 -1.5903
  477SOL    HW2 1431   0.644   1.896   0.961 -2.6515  1.0339  0.1445
  478SOL     OW 1432   0.119   2.565   2.292 -0.2882 -0.1061  0.3773
  478SOL    HW1 1433   0.168   2.479   2.267  0.4720  2.3976 -0.1088
  478SOL    HW2 1434   0.185   2.641   2.295  0.7210  0.4574 -0.9758
  479SOL     OW 1435   0.019   0.464   1.243 -0.0299  0.0280  0.1715
  479SOL    HW1 1436   3.061   0.545   1.282  0.0658 -2.0557 -2.2743
  479SOL    HW2 1437   0.109   0.480   1.201 -2.4407 -2.2599  0.8540
  480SOL     OW 1438   2.746   2.643   3.062  0.4080  0.2579  0.3461
  480SOL    HW1 1439   2.786   2.663   2.973  1.1556  0.0942  1.2961
  480SOL    HW2 1440   2.822   2.649   0.037 -1.4543  0.3945 -2.5321
  481SOL     OW 1441   2.411   1.981   1.707  0.1600 -0.3258 -0.1150
  481SOL    HW1 1442   2.407   2.035   1.621  1.0485  0.1044  0.5085
  481SOL    HW2 1443   2.323   1.985   1.759 -2.7097 -0.7365  0.9402
  482SOL     OW 1444   1.715   1.541   2.472 -0.5133  0.7605  0.2837
  482SOL    HW1 1445   1.739   1.513   2.564  0.8256 -1.0376 -3.1196
  482SOL    HW2 1446   1.791   1.590   2.430 -1.4838 -0.9571 -3.0104
  483SOL     OW 1447   1.024   1.383   1.835  0.2957  0.6540  0.2477
  483SOL    HW1 1448   1.082   1.414   1.756  0.2881  0.4532  1.8059
  483SOL    HW2 1449   1.008   1.280   1.820  1.8269 -2.1901 -0.0992
  484SOL     OW 1450   0.320   0.664   1.399 -0.1903 -0.3579  0.4108
  484SOL    HW1 1451   0.368   0.580   1.431 -1.5491  0.4397 -0.5678
  484SOL    HW2 1452   0.299   0.651   1.300  1.2871 -0.3424  1.4523
  485SOL     OW 1453   2.281   1.165   0.014  0.1804 -0.0101  0.0283
  485SOL    HW1 1454   2.359   1.143   3.042 -1.1123  0.2863  0.2801
  485SOL    HW2 1455   2.310   1.168   0.111  1.0779  0.3586  0.3534
  486SOL     OW 1456   1.161   0.010   1.584 -0.0316 -0.1864  0.0692
  486SOL    HW1 1457   1.069   0.048   1.616  2.1189 -1.8041  0.6117
  486SOL    HW2 1458   1.217   0.092   1.556 -0.0088 -1.8632 -2.3191
  487SOL     OW 1459   0.899   2.289   1.547  0.2720 -0.3143  0.0702
  487SOL    HW1 1460   0.842   2.372   1.534  1.5672  1.8907  2.0738
  487SOL    HW2 1461   0.908   2.231   1.457  1.4951 -0.8247 -3.2784
  488SOL     OW 1462   2.464   1.678   2.800  0.1590  0.0503 -0.0395
  488SOL    HW1 1463   2.503   1.760   2.853 -0.5072  3.7288 -0.9964
  488SOL    HW2 1464   2.480   1.590   2.844 -1.2393  0.2497 -0.2059
  489SOL     OW 1465   1.974   3.002   0.677  0.1209 -0.6698 -0.2337
  489SOL    HW1 1466   1.890   2.961   0.637 -0.5256  0.7762  1.8568
  489SOL    HW2 1467   2.023   3.060   0.613 -0.7543 -3.8590 -0.7175
  490SOL     OW 1468   0.728   2.206   0.034  0.0980  0.0222  0.2366
  490SOL    HW1 1469   0.711   2.301   0.002  1.1361  0.3300 -0.6244
  490SOL    HW2 1470   0.644   2.152   0.055 -0.0990 -2.2086 -2.7422
  491SOL     OW 1471   0.755   1.248   1.695  0.0395  0.0207 -0.3216
  491SOL    HW1 1472   0.761   1.299   1.611 -0.6805  0.8519 -0.3816
  491SOL    HW2 1473   0.841   1.208   1.728 -0.0766  1.5005  2.0469
  492SOL     OW 1474   1.111   0.601   1.836 -0.4331 -0.2844 -0.0663
  492SOL    HW1 1475   1.111   0.516   1.888 -0.9120 -0.4579 -2.2685
  492SOL    HW2 1476   1.042   0.666   1.872 -2.9441 -0.9620 -0.7555
  493SOL     OW 1477   2.130   1.922   0.803 -0.3455 -0.2782  0.1721
  493SOL    HW1 1478   2.072   1.970   0.734  1.3538  0.9693  1.0463
  493SOL    HW2 1479   2.223   1.893   0.760  0.5765 -0.4330 -0.2754
  494SOL     OW 1480   0.706   1.556   1.026  0.3066 -0.3916 -0.5482
  494SOL    HW1 1481   0.783   1.513   0.978 -1.8379  2.0410  1.7242
  494SOL    HW2 1482   0.634   1.488   1.045  0.6154  0.9822 -0.0154
  495SOL     OW 1483   2.402   2.538   0.544 -0.2120  0.1190  0.3160
  495SOL    HW1 1484   2.484   2.525   0.482 -0.9258  0.3709 -1.7130
  495SOL    HW2 1485   2.352   2.448   0.542  0.6621 -2.3562  1.2302
  496SOL     OW 1486   2.723   0.045   1.259 -0.0856  0.4594 -0.6251
  496SOL    HW1 1487   2.642   0.094   1.225  1.2643  0.9306  0.6456
  496SOL    HW2 1488   2.700   3.062   1.323 -0.2671  1.4892 -0.8773
  497SOL     OW 1489   2.339   1.185   2.401 -0.8590 -0.2001 -0.1665
  497SOL    HW1 1490   2.315   1.283   2.411  0.4461  3.5393 -1.3253
  497SOL    HW2 1491   2.313   1.135   2.488  0.2135 -0.1728  1.2764
  498SOL     OW 1492   0.228   2.215   1.356 -0.7452 -0.0748  0.5476
  498SOL    HW1 1493   0.135   2.196   1.329  1.0077 -0.4119 -0.1006
  498SOL    HW2 1494   0.242   2.316   1.333 -0.6474  1.9890 -2.3291
  499SOL     OW 1495   1.118   2.434   1.923  0.3310  0.6794 -1.0730
  499SOL    HW1 1496   1.089   2.381   2.006 -2.1591  0.4835  1.7323
  499SOL    HW2 1497   1.175   2.372   1.869 -2.9102  0.2488  0.8710
  500SOL     OW 1498   0.756   1.916   0.423 -0.4473  0.3062  0.4791
  500SOL    HW1 1499   0.765   1.943   0.325 -0.1094 -0.1806 -3.0433
  500SOL    HW2 1500   0.710   1.826   0.428  1.0849 -0.2210 -0.1617
  501SOL     OW 1501   2.038   0.117   1.079  0.2056  0.1602  0.1490
  501SOL    HW1 1502   1.981   0.069   1.011 -1.4707  2.0204 -0.6994
  501SOL    HW2 1503   1.999   0.096   1.169  2.4133 -0.0655 -1.0340
  502SOL     OW 1504   2.792   0.204   1.670 -0.3435  0.0320 -0.2660
  502SOL    HW1 1505   2.883   0.255   1.664 -2.0656  0.1672  1.3085
  502SOL    HW2 1506   2.761   0.203   1.770  0.9660 -1.0540  1.7774
  503SOL     OW 1507   2.502   1.128   1.525  0.3073 -0.0907  0.0690
  503SOL    HW1 1508   2.520   1.227   1.530  0.5562 -2.3874 -0.5440
  503SOL    HW2 1509   2.569   1.085   1.463 -0.9480 -1.3978  0.9937
  504SOL     OW 1510   1.608   0.957   1.666  0.2713  0.0813  0.1337
  504SOL    HW1 1511   1.510   0.927   1.652 -0.5560  1.1506  0.6563
  504SOL    HW2 1512   1.669   0.874   1.679 -0.7777 -2.2102  2.3341
  505SOL     OW 1513   0.648   3.065   1.524 -0.1425  0.2611  0.1990
  505SOL    HW1 1514   0.675   2.976   1.479  1.4418 -0.6696 -0.9516
  505SOL    HW2 1515   0.552   3.078   1.543 -1.6880 -0.9252 -3.7100
  506SOL     OW 1516   0.086   0.271   0.363 -0.2716 -0.1255  0.7326
  506SOL    HW1 1517   0.092   0.339   0.286 -2.3789  1.4038 -0.0480
  506SOL    HW2 1518   0.134   0.303   0.448 -0.7234  1.7521 -0.4055
  507SOL     OW 1519   2.428   0.592   0.148 -0.1887 -0.5423  0.9612
  507SOL    HW1 1520   2.430   0.490   0.131  0.6155 -2.1304  0.6631
  507SOL    HW2 1521   2.376   0.608   0.229  0.5489  0.8570 -1.4250
  508SOL     OW 1522   1.363   0.236   1.973 -0.0112 -0.5139 -0.2101
  508SOL    HW1 1523   1.268   0.252   1.997  0.7522 -1.2194 -1.2570
  508SOL    HW2 1524   1.390   0.276   1.883 -1.0426  1.2246 -2.6058
  509SOL     OW 1525   1.731   1.821   1.304  0.0598  0.1811 -0.5731
  509SOL    HW1 1526   1.735   1.749   1.380  2.4107  0.2316  2.2629
  509SOL    HW2 1527   1.700   1.780   1.218  0.4890  1.0345  1.6030
  510SOL     OW 1528   2.737   1.158   1.362  0.4016  0.6066  0.1074
  510SOL    HW1 1529   2.780   1.137   1.456  0.5430  0.1583 -2.3227
  510SOL    HW2 1530   2.776   1.092   1.290  1.0628 -0.4003  0.6107
  511SOL     OW 1531   1.749   2.022   1.488  0.0451 -0.4703 -0.8461
  511SOL    HW1 1532   1.717   1.947   1.425 -0.6439 -3.0724  0.4315
  511SOL    HW2 1533   1.753   2.115   1.445 -0.8793  0.7240 -1.5423
  512SOL     OW 1534   0.219   1.353   0.368  0.0092 -0.4173  0.1366
  512SOL    HW1 1535   0.284   1.298   0.426  0.2508  1.0449 -2.1480
  512SOL    HW2 1536   0.268   1.426   0.313  1.2979  3.5930 -2.3871
  513SOL     OW 1537   0.014   1.913   0.016 -0.5342  0.1891 -0.7850
  513SOL    HW1 1538   0.014   1.972   3.023 -0.1953 -1.5533 -1.4892
  513SOL    HW2 1539   0.049   1.820   3.084 -2.6065  1.1196  0.4382
  514SOL     OW 1540   2.900   1.943   2.295 -0.1094 -0.1534  0.6028
  514SOL    HW1 1541   2.844   1.922   2.382  0.6187 -1.1087  2.5320
  514SOL    HW2 1542   2.931   1.857   2.250 -0.8379 -0.2626  0.1840
  515SOL     OW 1543   2.110   1.135   0.779 -0.1801 -0.4153  0.5737
  515SOL    HW1 1544   2.093   1.228   0.733  0.7691  0.7074 -1.2542
  515SOL    HW2 1545   2.073   1.063   0.721 -1.8277 -0.4110  0.9156
  516SOL     OW 1546   2.064   2.732   0.175  0.1239  0.0862  0.0076
  516SOL    HW1 1547   1.976   2.705   0.212 -1.2711  0.4649  0.1427
  516SOL    HW2 1548   2.119   2.650   0.144 -3.5752 -1.8717 -1.5363
  517SOL     OW 1549   1.019   1.965   2.529  0.1057 -0.0618 -0.0019
  517SOL    HW1 1550   1.103   2.018   2.504 -1.1235  1.0473 -0.5886
  517SOL    HW2 1551   0.947   1.983   2.459 -0.0972  2.4928  0.0491
  518SOL     OW 1552   0.286   0.074   2.097  0.1569 -0.1456  0.3254
  518SOL    HW1 1553   0.350   0.044   2.021  0.6176 -0.6452 -0.6345
  518SOL    HW2 1554   0.240   0.163   2.071 -1.3778  1.2061 -0.6838
  519SOL     OW 1555   0.475   1.399   0.122 -0.5480 -0.2340  0.2342
  519SOL    HW1 1556   0.404   1.366   0.055 -1.0868  0.3899 -0.6977
  519SOL    HW2 1557   0.496   1.330   0.195 -1.0430  1.6354 -2.7114
  520SOL     OW 1558   2.887   2.068   1.969  0.3408  0.3350  0.4165
  520SOL    HW1 1559   2.788   2.087   1.948 -1.3042  0.4035 -1.7001
  520SOL    HW2 1560   2.927   2.157   1.995 -0.1487  1.4629  1.9112
  521SOL     OW 1561   0.646   2.503   2.579 -0.7201  0.1767  0.3710
  521SOL    HW1 1562   0.675   2.421   2.522 -3.8534 -0.1491 -0.5982
  521SOL    HW2 1563   0.641   2.589   2.522  0.0783 -0.2889 -1.9421
  522SOL     OW 1564   1.788   2.947   1.954  0.3912 -0.7311  0.6081
  522SOL    HW1 1565   1.776   2.998   2.043 -0.5348 -0.5065 -0.0525
  522SOL    HW2 1566   1.871   2.981   1.901  0.0189 -1.8398  0.6081
  523SOL     OW 1567   2.016   1.974   2.068  0.2359  0.0771 -0.0708
  523SOL    HW1 1568   2.093   1.998   2.005  2.5135 -1.1928 -1.4787
  523SOL    HW2 1569   1.961   2.057   2.092  1.1436  2.2148  0.3881
  524SOL     OW 1570   0.900   2.963   0.161 -0.1136 -0.2959  0.0332
  524SOL    HW1 1571   0.953   2.875   0.159  2.1995 -2.5311 -0.3269
  524SOL    HW2 1572   0.851   2.977   0.073  1.0151  1.4190  1.9697
  525SOL     OW 1573   0.314   0.695   0.394 -0.1223  0.3882  0.6277
  525SOL    HW1 1574   0.362   0.612   0.351 -1.8932 -0.6646  0.1598
  525SOL    HW2 1575   0.235   0.668   0.456  0.3735  0.7532 -0.2836
  526SOL     OW 1576   0.767   2.770   0.707 -0.4076  0.4790  0.3705
  526SOL    HW1 1577   0.719   2.689   0.748  1.2735 -0.6433 -1.5296
  526SOL    HW2 1578   0.700   2.847   0.700 -0.8610  1.3134  1.0153
  527SOL     OW 1579   2.145   1.709   1.003  0.3385  0.5605  0.0765
  527SOL    HW1 1580   2.132   1.783   0.937 -2.1610  2.0179 -0.2446
  527SOL    HW2 1581   2.087   1.626   0.982 -1.2149 -2.2729  0.9409
  528SOL     OW 1582   2.852   2.744   2.449  0.1892 -0.0467  0.3065
  528SOL    HW1 1583   2.752   2.740   2.439  1.8885 -0.0573  2.4303
  528SOL    HW2 1584   2.884   2.838   2.433  0.5294  1.8714  0.6499
  529SOL     OW 1585   1.450   1.565   2.460  0.6351 -0.1339  0.4897
  529SOL    HW1 1586   1.404   1.496   2.395 -2.0822  0.1618 -0.1723
  529SOL    HW2 1587   1.549   1.575   2.447 -1.7161  0.3215  0.3067
  530SOL     OW 1588   1.539   1.278   2.915 -0.1132  0.6041 -0.3312
  530SOL    HW1 1589   1.525   1.361   2.852  0.8631  0.2915 -1.0505
  530SOL    HW2 1590   1.455   1.218   2.916 -0.6898 -1.2299  0.5688
  531SOL     OW 1591   0.573   1.034   2.932  0.4947 -0.4344  0.3075
  531SOL    HW1 1592   0.540   1.069   2.842 -1.5859  3.2545 -1.9043
  531SOL    HW2 1593   0.522   0.944   2.949 -0.5937 -2.5453 -1.2792
  532SOL     OW 1594   1.640   1.518   0.469 -0.2737  0.2852 -0.4487
  532SOL    HW1 1595   1.615   1.458   0.549 -0.7363 -1.2870  1.9894
  532SOL    HW2 1596   1.583   1.600   0.480 -1.4296 -0.8720  1.7874
  533SOL     OW 1597   0.586   0.292   2.483 -0.2148  0.6591 -0.7138
  533SOL    HW1 1598   0.632   0.317   2.392  0.6164  1.8029 -0.5464
  533SOL    HW2 1599   0.662   0.265   2.549  0.6628 -0.1272  0.0269
  534SOL     OW 1600   0.643   2.457   3.037 -0.1223 -0.1606 -0.0164
  534SOL    HW1 1601   0.615   2.468   2.939 -0.1449 -1.3117 -2.1021
  534SOL    HW2 1602   0.683   2.545   3.073  2.4375  0.5509 -0.2572
  535SOL     OW 1603   0.099   0.001   0.248  0.2069  1.0378 -0.2076
  535SOL    HW1 1604   0.070   3.005   0.302 -1.5417 -2.2749  0.2691
  535SOL    HW2 1605   0.061   0.079   0.294  0.6896 -1.8206 -1.6598
  536SOL     OW 1606   3.091   0.881   2.181  0.4204  0.1305  0.0920
  536SOL    HW1 1607   3.069   0.953   2.111 -0.0382 -0.9464  2.0686
  536SOL    HW2 1608   0.047   0.802   2.131  0.5938  0.0505 -0.5560
  537SOL     OW 1609   1.054   0.203   1.187 -0.2705  0.3560  0.3953
  537SOL    HW1 1610   0.972   0.184   1.242  2.2746 -1.5901 -4.8462
  537SOL    HW2 1611   1.107   0.283   1.222  1.0042  1.9025 -0.9897
  538SOL     OW 1612   0.132   1.739   0.467  0.2525  0.1051 -0.2362
  538SOL    HW1 1613   0.185   1.684   0.395  0.6735 -1.4206 -0.5395
  538SOL    HW2 1614   0.198   1.786   0.532  1.5423  0.9913  2.2133
  539SOL     OW 1615   2.696   1.114   2.100 -0.3204 -0.4219 -0.7772
  539SOL    HW1 1616   2.643   1.201   2.107 -0.0916  2.2069 -0.5272
  539SOL    HW2 1617   2.693   1.084   2.001  3.2646  1.5609 -1.9913
  540SOL     OW 1618   1.629   1.099   2.122 -0.8578 -0.5849 -0.6328
  540SOL    HW1 1619   1.647   1.139   2.217  2.5539  1.0571 -0.2662
  540SOL    HW2 1620   1.721   1.084   2.073  3.5913  1.2319 -0.2144
  541SOL     OW 1621   0.991   1.106   1.785 -0.5152  0.4751  0.1039
  541SOL    HW1 1622   0.937   1.068   1.861  0.8700  0.1967 -2.0510
  541SOL    HW2 1623   1.092   1.087   1.809 -0.0086 -0.6587 -0.4111
  542SOL     OW 1624   1.806   0.226   2.271  0.5404 -0.0200 -0.5879
  542SOL    HW1 1625   1.890   0.261   2.320  1.3007  0.9304 -0.5049
  542SOL    HW2 1626   1.827   0.206   2.172  1.6217  0.1983  1.3512
  543SOL     OW 1627   1.193   0.449   0.464  0.1465  0.0800 -0.0694
  543SOL    HW1 1628   1.131   0.379   0.430  0.7114  1.5922 -1.6239
  543SOL    HW2 1629   1.283   0.442   0.424 -1.5867 -1.4573  0.8429
  544SOL     OW 1630   2.589   1.798   2.051 -0.2572 -0.7019 -0.5768
  544SOL    HW1 1631   2.645   1.737   1.993 -1.1564 -2.9702 -0.4461
  544SOL    HW2 1632   2.566   1.753   2.139 -0.7907 -3.4133  0.0849
  545SOL     OW 1633   1.848   2.215   2.076 -0.1198  0.6831  0.1798
  545SOL    HW1 1634   1.883   2.252   2.164  1.1133 -0.3673  0.3150
  545SOL    HW2 1635   1.800   2.288   2.026  0.5121 -2.9691  0.6320
  546SOL     OW 1636   0.231   3.054   2.894  0.3922  0.1631  0.1130
  546SOL    HW1 1637   0.160   0.038   2.875  3.0324  3.8182  0.6972
  546SOL    HW2 1638   0.219   3.008   2.983 -1.1382 -0.2231  2.1652
  547SOL     OW 1639   1.938   0.780   0.276 -0.1110 -0.6821 -0.8664
  547SOL    HW1 1640   1.872   0.722   0.324  0.6851 -1.6591 -0.3721
  547SOL    HW2 1641   2.004   0.811   0.349  1.0710  2.7946  2.4196
  548SOL     OW 1642   2.290   1.577   2.199 -0.1824  0.0793 -0.2445
  548SOL    HW1 1643   2.246   1.530   2.278 -0.5942  2.0046 -0.3994
  548SOL    HW2 1644   2.379   1.608   2.230 -0.9193  0.8215  1.7848
  549SOL     OW 1645   1.846   0.228   0.565  0.4211  0.1671  0.0448
  549SOL    HW1 1646   1.788   0.283   0.510 -1.2492 -0.5685 -1.9348
  549SOL    HW2 1647   1.898   0.278   0.640  0.1304 -0.8648 -0.6772
  550SOL     OW 1648   2.416   2.191   0.914  0.5168  0.1922  0.3037
  550SOL    HW1 1649   2.358   2.110   0.940  2.6319 -0.3224 -0.9996
  550SOL    HW2 1650   2.353   2.267   0.893  0.1316  2.7752  2.3359
  551SOL     OW 1651   1.043   2.851   1.578  0.1280  0.4048  0.3377
  551SOL    HW1 1652   1.100   2.778   1.619 -0.7294 -0.3192 -0.2043
  551SOL    HW2 1653   1.107   2.927   1.551 -1.9554  1.6502 -2.3498
  552SOL     OW 1654   2.853   2.241   2.658 -0.0484  0.2665  0.2086
  552SOL    HW1 1655   2.797   2.168   2.702  0.2345  0.0034  0.0268
  552SOL    HW2 1656   2.872   2.220   2.562  0.5130  0.3437 -0.7598
  553SOL     OW 1657   0.295   0.072   0.474  0.5054  0.2481 -0.0802
  553SOL    HW1 1658   0.227   0.112   0.410 -2.1321  1.5154 -0.8436
  553SOL    HW2 1659   0.251   0.063   0.564  0.0242 -0.3950 -1.1186
  554SOL     OW 1660   2.207   2.271   1.859 -0.0536 -0.4145 -0.4431
  554SOL    HW1 1661   2.112   2.279   1.815  0.3986  0.6945  0.4933
  554SOL    HW2 1662   2.266   2.338   1.813 -2.3082 -1.0607  1.7146
  555SOL     OW 1663   1.256   2.181   1.873  0.0963  0.5268 -0.1169
  555SOL    HW1 1664   1.207   2.199   1.781  0.8137 -1.7831 -0.1353
  555SOL    HW2 1665   1.241   2.083   1.899  1.7524 -0.9790 -0.6654
  556SOL     OW 1666   1.385   1.441   1.519  0.2018  0.2668  0.2897
  556SOL    HW1 1667   1.376   1.508   1.439 -0.1919  2.7734 -1.9755
  556SOL    HW2 1668   1.438   1.478   1.595  0.7270 -1.2212 -1.2529
  557SOL     OW 1669   1.955   2.316   2.316  0.7317 -0.1738  0.3451
  557SOL    HW1 1670   2.051   2.288   2.328  0.0610 -0.1126 -2.4377
  557SOL    HW2 1671   1.901   2.303   2.403  0.4610  0.3911 -0.0603
  558SOL     OW 1672   0.622   3.036   2.106  0.1266 -0.1216  0.1588
  558SOL    HW1 1673   0.557   3.040   2.028  2.3522 -1.9611 -1.4971
  558SOL    HW2 1674   0.687   0.022   2.099 -0.7426 -2.4146  1.1516
  559SOL     OW 1675   2.464   2.817   1.137  0.0135  0.0598 -0.0062
  559SOL    HW1 1676   2.460   2.782   1.230 -0.6819  0.6592 -0.1812
  559SOL    HW2 1677   2.559   2.834   1.101 -1.2926 -0.6018  0.1845
  560SOL     OW 1678   1.110   2.209   0.614  0.6935 -0.1747  0.2280
  560SOL    HW1 1679   1.094   2.290   0.556 -0.2168  0.7540  0.8378
  560SOL    HW2 1680   1.016   2.183   0.651 -4.0644  0.2479  0.0170
  561SOL     OW 1681   1.072   0.483   0.064  0.0457 -0.3173 -0.0444
  561SOL    HW1 1682   0.999   0.461   0.000  0.7769  1.5360  0.2900
  561SOL    HW2 1683   1.044   0.555   0.129 -0.7672  0.0672  3.6803
  562SOL     OW 1684   0.758   0.250   2.676 -0.1919  0.2683  0.6912
  562SOL    HW1 1685   0.716   0.317   2.743  0.7164 -0.4245  3.3366
  562SOL    HW2 1686   0.846   0.217   2.711  0.8680 -0.2967 -1.2130
  563SOL     OW 1687   1.478   1.798   2.846  0.1270 -0.0924 -0.5406
  563SOL    HW1 1688   1.563   1.741   2.832  0.3695  1.2187 -1.3401
  563SOL    HW2 1689   1.460   1.861   2.766  1.7855 -3.0305 -1.0161
  564SOL     OW 1690   2.467   1.014   0.937 -0.8588  0.2799  0.0292
  564SOL    HW1 1691   2.569   1.009   0.927  0.8182 -2.7543  1.3829
  564SOL    HW2 1692   2.425   1.056   0.854  1.8729 -0.5031  0.9815
  565SOL     OW 1693   0.993   0.135   2.737 -0.1873  0.4072  0.4327
  565SOL    HW1 1694   1.005   0.066   2.812  0.9714 -0.2813 -0.2353
  565SOL    HW2 1695   1.049   0.217   2.755 -0.0445  1.7085  1.0385
  566SOL     OW 1696   1.401   3.038   2.434 -0.3794  1.0674  0.3926
  566SOL    HW1 1697   1.328   2.978   2.393  2.2675 -0.3455  1.0423
  566SOL    HW2 1698   1.484   2.990   2.467  2.9176  0.6767 -2.4626
  567SOL     OW 1699   1.996   1.357   0.670  0.0141  0.2769 -0.0010
  567SOL    HW1 1700   2.011   1.379   0.570 -2.8990 -0.8057 -0.3550
  567SOL    HW2 1701   2.009   1.444   0.723  0.5838 -1.1067 -2.5991
  568SOL     OW 1702   1.936   2.039   0.658 -0.2057  0.2704  0.3052
  568SOL    HW1 1703   1.948   1.982   0.572  2.8632 -1.3066 -1.5268
  568SOL    HW2 1704   1.964   2.137   0.644  0.3574  1.6821 -1.0738
  569SOL     OW 1705   2.046   1.262   3.023  0.0755  0.1236  0.5016
  569SOL    HW1 1706   1.997   1.176   2.991 -2.6554  0.9976  0.8109
  569SOL    HW2 1707   2.140   1.253   3.054 -1.2002 -1.9656  0.8276
  570SOL     OW 1708   0.257   2.494   1.930  0.1092  0.0717 -0.4192
  570SOL    HW1 1709   0.191   2.467   1.857  0.5118 -2.6750 -1.1502
  570SOL    HW2 1710   0.271   2.593   1.928 -0.3483 -0.0635 -2.6878
  571SOL     OW 1711   0.249   0.353   2.058 -0.1804  0.4651  0.2690
  571SOL    HW1 1712   0.345   0.399   2.065  2.5874  1.4492 -0.2243
  571SOL    HW2 1713   0.183   0.400   2.123  0.8414  2.9480  0.3546
  572SOL     OW 1714   1.206   1.576   0.792  0.2474  0.5826 -0.3753
  572SOL    HW1 1715   1.217   1.650   0.858 -2.2630  3.0832 -0.5494
  572SOL    HW2 1716   1.129   1.592   0.729  0.6473  2.1881  0.4359
  573SOL     OW 1717   1.166   1.866   0.155 -0.0163  0.0105 -0.0012
  573SOL    HW1 1718   1.235   1.889   0.088 -2.8628 -1.4375  1.7547
  573SOL    HW2 1719   1.205   1.888   0.245 -1.1115  1.2192 -1.1681
  574SOL     OW 1720   1.005   2.896   0.639 -0.0228 -0.1291  0.0919
  574SOL    HW1 1721   0.927   2.857   0.689  0.0944 -0.1147  0.5692
  574SOL    HW2 1722   1.024   2.991   0.678  3.3066 -1.2462 -0.8633
  575SOL     OW 1723   0.018   0.959   1.541  0.2050 -0.0168 -0.2450
  575SOL    HW1 1724   0.007   0.936   1.443  0.9960 -1.6125 -0.4179
  575SOL    HW2 1725   0.054   1.057   1.550  0.6797  0.3381 -1.0182
  576SOL     OW 1726   1.922   0.035   1.339 -0.1273  0.1086 -0.7682
  576SOL    HW1 1727   1.959   3.031   1.350 -1.0996 -1.2551 -1.7783
  576SOL    HW2 1728   1.822   0.032   1.313 -2.1753  2.2886  1.6486
  577SOL     OW 1729   0.509   1.001   1.938  0.6042 -0.4901  0.1342
  577SOL    HW1 1730   0.572   1.078   1.963  1.0879  1.9192 -0.0616
  577SOL    HW2 1731   0.560   0.914   1.954  1.3921  2.7353  0.3634
  578SOL     OW 1732   2.025   0.326   2.394  0.2888 -0.1783  0.6814
  578SOL    HW1 1733   2.112   0.323   2.348 -0.7471  0.0927 -1.1808
  578SOL    HW2 1734   2.020   0.404   2.463  0.1122  2.2288 -0.4830
  579SOL     OW 1735   2.620   2.038   1.914 -0.6001 -0.3337  0.1738
  579SOL    HW1 1736   2.553   2.036   1.833 -0.6663 -0.3521  1.5360
  579SOL    HW2 1737   2.607   1.953   1.972 -2.8968 -1.2574  1.2734
  580SOL     OW 1738   1.895   1.215   2.521 -0.1301  0.2606 -0.2373
  580SOL    HW1 1739   1.872   1.247   2.614 -1.8509  1.4648 -4.6191
  580SOL    HW2 1740   1.937   1.124   2.523 -0.8748  0.8899  0.7370
  581SOL     OW 1741   1.309   1.125   2.907 -0.1119  0.2793  0.3376
  581SOL    HW1 1742   1.208   1.121   2.918  1.4698 -3.3546  0.7957
  581SOL    HW2 1743   1.341   1.054   2.844 -0.4092  0.2577  4.3500
  582SOL     OW 1744   1.127   1.459   1.603  0.3130  0.3827  0.1139
  582SOL    HW1 1745   1.089   1.395   1.534  1.9565  0.3778 -1.0575
  582SOL    HW2 1746   1.229   1.465   1.579  3.7429 -0.4079  1.2080
  583SOL     OW 1747   1.660   1.232   1.434 -0.0992  0.0678  0.7978
  583SOL    HW1 1748   1.644   1.137   1.405 -3.8566 -1.3577 -1.6702
  583SOL    HW2 1749   1.599   1.301   1.391  0.4803 -4.1486  2.8044
  584SOL     OW 1750   1.765   2.604   0.716  0.5648 -0.1112 -0.3051
  584SOL    HW1 1751   1.679   2.555   0.723  3.8945  0.4094  1.2648
  584SOL    HW2 1752   1.824   2.592   0.801 -1.1058 -2.3126  2.0772
  585SOL     OW 1753   2.123   2.768   2.796  0.0312  0.4722 -0.5966
  585SOL    HW1 1754   2.042   2.785   2.735 -1.3116 -1.7036 -2.3844
  585SOL    HW2 1755   2.092   2.775   2.896 -0.0489  1.3774 -0.5829
  586SOL     OW 1756   2.794   2.260   0.894  0.1453  0.0883  0.4502
  586SOL    HW1 1757   2.729   2.287   0.820 -1.2795  1.0924 -1.1310
  586SOL    HW2 1758   2.748   2.202   0.962 -0.8624 -1.3099 -0.1739
  587SOL     OW 1759   0.937   1.775   0.057 -0.2138  0.2309 -0.3005
  587SOL    HW1 1760   1.037   1.788   0.084 -1.0833  1.3826 -0.2080
  587SOL    HW2 1761   0.933   1.749   3.045 -0.2655 -2.8326  0.2315
  588SOL     OW 1762   0.631   0.091   0.849 -0.5107 -0.0238  0.8222
  588SOL    HW1 1763   0.676   0.103   0.940 -0.9200 -0.9803  0.1141
  588SOL    HW2 1764   0.691   0.105   0.768 -0.9302 -0.2581 -1.5016
  589SOL     OW 1765   1.493   0.726   0.673  0.0867  0.2659 -0.3652
  589SOL    HW1 1766   1.475   0.694   0.578 -2.6825  1.1189 -3.1058
  589SOL    HW2 1767   1.421   0.693   0.739 -1.8238  0.1340  1.6440
  590SOL     OW 1768   1.688   2.755   3.088 -0.0518 -0.4228 -0.3560
  590SOL    HW1 1769   1.761   2.785   3.022  0.3017 -1.1354  0.5403
  590SOL    HW2 1770   1.632   2.677   3.055  1.5064  0.1058 -0.7656
  591SOL     OW 1771   0.170   2.347   2.630  0.5912 -0.0018 -0.2131
  591SOL    HW1 1772   0.226   2.363   2.547 -0.4459 -1.0086 -0.4185
  591SOL    HW2 1773   0.072   2.339   2.601 -0.4103  0.5875 -1.6587
  592SOL     OW 1774   2.926   1.623   1.961  0.5659  0.4103  0.2187
  592SOL    HW1 1775   2.827   1.603   1.934 -1.0257  1.9339  2.3771
  592SOL    HW2 1776   2.974   1.532   1.974  0.9784 -1.4539 -0.5177
  593SOL     OW 1777   1.752   1.628   1.519 -0.3797  0.1758  0.0468
  593SOL    HW1 1778   1.815   1.546   1.532  2.4198 -4.8909  0.8234
  593SOL    HW2 1779   1.682   1.633   1.590  1.1657 -0.9994 -2.1036
  594SOL     OW 1780   2.675   1.279   0.083 -0.3369  0.0483  0.1198
  594SOL    HW1 1781   2.762   1.246   0.128  5.3101  1.0204 -0.1675
  594SOL    HW2 1782   2.616   1.203   0.054 -0.0410  0.9711 -0.5828
  595SOL     OW 1783   0.824   0.682   0.468 -0.0315 -0.2016  0.1457
  595SOL    HW1 1784   0.752   0.741   0.435 -2.1291  2.4395  0.0201
  595SOL    HW2 1785   0.909   0.733   0.492 -0.5753 -0.2469  0.9307
  596SOL     OW 1786   0.032   1.455   1.432  0.2085  0.6039 -0.3889
  596SOL    HW1 1787   0.052   1.478   1.337 -2.5868 -2.7435  2.9064
  596SOL    HW2 1788   3.079   1.527   1.480 -0.7243 -2.7304 -1.9263
  597SOL     OW 1789   1.034   1.916   1.341 -0.8517 -0.3741 -0.2415
  597SOL    HW1 1790   1.033   2.018   1.338  1.3775  1.8401 -0.3516
  597SOL    HW2 1791   0.979   1.875   1.266  0.5400 -2.6411 -0.6894
  598SOL     OW 1792   0.023   3.019   1.803  0.3064 -0.0879  0.7736
  598SOL    HW1 1793   0.064   2.931   1.773  0.2227  2.5708  0.1217
  598SOL    HW2 1794   3.012   3.011   1.803  1.1183 -0.7458  1.2337
  599SOL     OW 1795   0.134   1.397   2.704  0.1977 -0.3005  0.3998
  599SOL    HW1 1796   0.166   1.470   2.774  0.7850 -1.2751  2.2329
  599SOL    HW2 1797   0.163   1.422   2.607  1.0355  1.3329 -4.3856
  600SOL     OW 1798   0.454   0.779   2.834  0.2614  0.0227  0.0144
  600SOL    HW1 1799   0.503   0.750   2.746 -0.6106 -1.9769 -0.1262
  600SOL    HW2 1800   0.487   0.734   2.918 -0.0763  1.0228 -2.6591
  601SOL     OW 1801   0.704   0.765   1.708 -0.0931 -0.1557 -0.2885
  601SOL    HW1 1802   0.790   0.732   1.667 -2.6071  2.3635  0.5612
  601SOL    HW2 1803   0.726   0.811   1.796  0.9828  1.2496 -2.7504
  602SOL     OW 1804   0.239   0.155   0.080 -0.6396  0.2540  0.6406
  602SOL    HW1 1805   0.336   0.145   0.108 -2.3698  1.3816  0.1752
  602SOL    HW2 1806   0.185   0.091   0.141  0.6234 -0.3890 -0.2181
  603SOL     OW 1807   1.613   2.481   2.625  0.3196  0.2633  0.2445
  603SOL    HW1 1808   1.708   2.449   2.652  2.9227 -1.8783 -0.0986
  603SOL    HW2 1809   1.548   2.462   2.701  1.1341  1.0957 -1.6131
  604SOL     OW 1810   0.169   2.302   2.890 -0.0608 -0.7728 -0.4762
  604SOL    HW1 1811   0.227   2.219   2.904 -0.8599 -0.1646 -0.0920
  604SOL    HW2 1812   0.185   2.339   2.799 -2.0568 -0.6795  0.8030
  605SOL     OW 1813   2.286   0.968   1.327  0.0386 -0.1309 -0.2187
  605SOL    HW1 1814   2.254   0.954   1.232  1.0554  0.3389  0.8629
  605SOL    HW2 1815   2.217   0.932   1.393  2.0163 -1.3083  0.1363
  606SOL     OW 1816   0.743   1.076   2.573 -0.0731  0.3332  0.1055
  606SOL    HW1 1817   0.759   1.157   2.635  1.3664  1.3984 -0.6614
  606SOL    HW2 1818   0.793   0.991   2.593 -0.8820 -0.2895 -0.0840
  607SOL     OW 1819   0.740   0.418   1.069 -0.0151 -0.2101  0.2854
  607SOL    HW1 1820   0.785   0.485   1.133  1.8639 -0.8607 -0.4915
  607SOL    HW2 1821   0.813   0.356   1.029 -0.9534  0.6347 -0.2360
  608SOL     OW 1822   3.079   1.890   1.999 -0.3157 -0.5453 -0.0754
  608SOL    HW1 1823   3.042   1.793   2.004  0.1392  3.0837 -0.7588
  608SOL    HW2 1824   3.001   1.960   2.005 -3.5386  1.1999  0.1216
  609SOL     OW 1825   2.499   0.623   0.521 -0.1342 -0.7698 -0.5358
  609SOL    HW1 1826   2.538   0.721   0.520  1.0132  1.3765 -0.4310
  609SOL    HW2 1827   2.423   0.609   0.457 -0.1234  0.0310  0.3495
  610SOL     OW 1828   0.045   2.638   1.306  0.4363  0.0970  0.4085
  610SOL    HW1 1829   0.052   2.733   1.338  2.6056 -1.1437 -3.3294
  610SOL    HW2 1830   0.012   2.644   1.208  1.2247  0.5010 -2.2709
  611SOL     OW 1831   1.596   2.148   0.356 -0.1730  0.3154  0.2357
  611SOL    HW1 1832   1.685   2.102   0.327 -1.7898 -0.8078  0.6974
  611SOL    HW2 1833   1.521   2.087   0.326 -0.9887 -1.8425  2.8530
  612SOL     OW 1834   0.785   0.390   1.762 -0.4543  0.3605 -0.0034
  612SOL    HW1 1835   0.834   0.308   1.804 -1.3135 -1.1649  1.3393
  612SOL    HW2 1836   0.714   0.421   1.828 -1.3132 -1.6401 -1.9882
  613SOL     OW 1837   0.319   2.055   0.824  0.1991  0.5186 -0.2358
  613SOL    HW1 1838   0.258   2.020   0.899  1.1126 -1.0651  0.1747
  613SOL    HW2 1839   0.401   2.103   0.863 -0.7473 -0.3192 -0.5429
  614SOL     OW 1840   1.678   0.194   1.754  0.0437 -0.2128 -0.3282
  614SOL    HW1 1841   1.692   0.182   1.852  0.7351  0.2576 -0.1516
  614SOL    HW2 1842   1.703   0.109   1.698 -2.8428  2.6533 -0.7499
  615SOL     OW 1843   1.582   1.309   0.664  0.3158  0.3454 -0.3352
  615SOL    HW1 1844   1.672   1.271   0.697 -0.2955  1.8389  1.5262
  615SOL    HW2 1845   1.510   1.233   0.652 -1.1850  0.6761 -0.2375
  616SOL     OW 1846   1.840   1.596   0.319 -0.3262  0.0507  0.1794
  616SOL    HW1 1847   1.766   1.559   0.387 -2.3393 -0.9657  1.5685
  616SOL    HW2 1848   1.811   1.677   0.262 -0.1188  1.7150  1.4308
  617SOL     OW 1849   1.624   0.806   3.037  0.3592 -0.6289 -0.2003
  617SOL    HW1 1850   1.679   0.862   0.017  0.3355  3.3804  2.5969
  617SOL    HW2 1851   1.664   0.797   2.947 -4.4171  1.0156 -1.9002
  618SOL     OW 1852   0.662   0.735   2.018 -0.4394 -0.1103  0.3024
  618SOL    HW1 1853   0.613   0.749   2.108 -1.3651 -1.9883  1.3534
  618SOL    HW2 1854   0.625   0.649   1.967 -2.3246 -1.4793  0.0003
  619SOL     OW 1855   3.075   1.700   1.561 -0.4661 -0.3673  0.5628
  619SOL    HW1 1856   3.017   1.753   1.626  0.6708 -2.9434 -0.5469
  619SOL    HW2 1857   0.003   1.752   1.472  1.8180  2.2948 -3.0967
  620SOL     OW 1858   2.502   2.878   2.538  0.0295 -0.2733 -0.7540
  620SOL    HW1 1859   2.511   2.969   2.488 -0.2294 -1.2543 -0.0584
  620SOL    HW2 1860   2.406   2.869   2.574 -0.0443  1.1213  1.3428
  621SOL     OW 1861   2.430   2.033   0.058 -0.0870  0.6946 -0.0396
  621SOL    HW1 1862   2.428   1.949   0.116  0.5567  1.0403  0.5171
  621SOL    HW2 1863   2.493   2.110   0.090  0.6836  3.7573  2.2052
  622SOL     OW 1864   1.353   0.373   2.674  0.3711 -0.7624  0.6707
  622SOL    HW1 1865   1.397   0.282   2.690  4.4019 -0.8240  2.8773
  622SOL    HW2 1866   1.422   0.449   2.670 -2.1349  0.6647 -0.4140
  623SOL     OW 1867   0.741   1.764   1.440  0.3286  0.2878 -0.4984
  623SOL    HW1 1868   0.765   1.688   1.377 -0.6809 -4.0190 -2.6517
  623SOL    HW2 1869   0.817   1.771   1.513 -0.7185 -1.4216 -0.2044
  624SOL     OW 1870   2.751   3.084   3.077  0.1027  0.2191  0.1392
  624SOL    HW1 1871   2.757   3.085   2.974  0.8522 -1.7692 -0.7092
  624SOL    HW2 1872   2.834   0.027   0.032 -3.1033  2.3865 -2.6272
  625SOL     OW 1873   0.660   2.048   0.639  0.5434  0.2832  0.3831
  625SOL    HW1 1874   0.663   1.985   0.717  0.1423  1.7835 -3.4587
  625SOL    HW2 1875   0.693   2.007   0.552 -1.5848  1.0739  0.8854
  626SOL     OW 1876   2.817   0.691   2.533 -0.1064  0.0707  0.0056
  626SOL    HW1 1877   2.759   0.640   2.602 -0.8521  1.1872 -0.3411
  626SOL    HW2 1878   2.755   0.753   2.486  2.4350  0.8080 -0.2616
  627SOL     OW 1879   1.380   1.908   0.021 -0.6975 -0.1246  0.5442
  627SOL    HW1 1880   1.413   2.006   0.009  1.8941 -3.2767  0.9221
  627SOL    HW2 1881   1.428   1.853   3.043 -0.6054  0.8031 -0.7156
  628SOL     OW 1882   2.869   2.688   2.839  0.0567  0.0483 -0.5107
  628SOL    HW1 1883   2.971   2.687   2.816 -0.6721 -2.4899  1.2455
  628SOL    HW2 1884   2.823   2.738   2.763 -1.0329 -3.7416 -0.2611
  629SOL     OW 1885   0.713   2.922   2.793  0.0819  0.1710  0.5254
  629SOL    HW1 1886   0.795   2.867   2.773  0.5213 -0.2379  2.3066
  629SOL    HW2 1887   0.697   2.997   2.730  1.5809 -0.0955  0.7875
  630SOL     OW 1888   1.116   0.313   1.970 -0.4807  0.0812 -0.0855
  630SOL    HW1 1889   1.057   0.228   1.952  2.0278  0.1898 -0.7187
  630SOL    HW2 1890   1.102   0.358   2.062  1.4532  1.0088 -1.8114
  631SOL     OW 1891   2.185   0.888   0.425 -0.1713 -0.0465  0.1988
  631SOL    HW1 1892   2.259   0.956   0.406  2.7029  0.6219 -1.9680
  631SOL    HW2 1893   2.130   0.914   0.504  0.5394  2.4723 -0.0057
  632SOL     OW 1894   2.527   0.050   1.638 -0.0652  0.0150 -0.1434
  632SOL    HW1 1895   2.455   0.071   1.570 -1.1061  2.7782 -0.8369
  632SOL    HW2 1896   2.595   0.128   1.649  1.2129  2.8511 -0.2058
  633SOL     OW 1897   1.100   1.247   0.474  0.4541 -0.0704 -0.1558
  633SOL    HW1 1898   1.030   1.251   0.548  2.0760 -1.7178 -0.5758
  633SOL    HW2 1899   1.105   1.152   0.436 -0.6655 -0.1402  1.2094
  634SOL     OW 1900   2.601   2.633   2.400  0.1094 -0.2289  0.5100
  634SOL    HW1 1901   2.651   2.562   2.345 -1.4047  0.0626  0.1618
  634SOL    HW2 1902   2.570   2.714   2.337  0.2794  3.0535 -0.6271
  635SOL     OW 1903   1.855   0.637   0.545 -0.0229  0.1282  0.6531
  635SOL    HW1 1904   1.884   0.645   0.642  0.3325 -1.6719 -0.0579
  635SOL    HW2 1905   1.798   0.555   0.536  0.4187  0.5796 -0.0748
  636SOL     OW 1906   0.703   1.079   0.625  0.2381 -1.0056 -0.3013
  636SOL    HW1 1907   0.619   1.101   0.686 -0.8032 -0.4320 -2.7154
  636SOL    HW2 1908   0.700   0.980   0.596  1.7477  0.4770 -1.5932
  637SOL     OW 1909   2.591   2.213   0.176 -0.2347 -0.0378  0.1151
  637SOL    HW1 1910   2.608   2.181   0.269 -0.1101 -0.6861  0.4184
  637SOL    HW2 1911   2.677   2.253   0.136 -1.2350 -2.5745 -0.2274
  638SOL     OW 1912   1.609   2.333   2.352  0.1154 -0.0993 -0.2977
  638SOL    HW1 1913   1.613   2.235   2.341  2.8017 -1.6357 -1.2794
  638SOL    HW2 1914   1.603   2.368   2.447 -3.0933 -1.8862 -3.2928
  639SOL     OW 1915   1.318   1.995   0.690  0.0651  0.1886 -0.0524
  639SOL    HW1 1916   1.257   1.990   0.770 -0.6217  0.2927  1.2753
  639SOL    HW2 1917   1.394   1.930   0.701 -0.8139  3.5374 -0.3221
  640SOL     OW 1918   2.072   0.080   0.462 -0.0026 -0.2703  0.1283
  640SOL    HW1 1919   2.160   0.113   0.423  0.3215  0.7897 -1.6491
  640SOL    HW2 1920   2.011   0.156   0.488 -1.5630  0.2366 -0.5122
  641SOL     OW 1921   2.674   0.279   3.056  1.3216 -0.8372 -0.4213
  641SOL    HW1 1922   2.581   0.298   0.004 -0.7635  0.4341 -2.4262
  641SOL    HW2 1923   2.710   0.186   3.082 -1.0678 -2.3298  0.4368
  642SOL     OW 1924   0.578   0.833   1.074 -0.2440  0.1721 -0.4956
  642SOL    HW1 1925   0.513   0.780   1.020 -1.4917 -0.5236 -2.9761
  642SOL    HW2 1926   0.599   0.779   1.157  2.7922  0.7471 -0.0400
  643SOL     OW 1927   0.671   1.348   2.413 -0.3051  0.0802 -0.4614
  643SOL    HW1 1928   0.744   1.295   2.463  0.9423  0.1780  1.7092
  643SOL    HW2 1929   0.618   1.287   2.350  0.1986  0.1229 -0.5863
  644SOL     OW 1930   1.499   2.213   0.599 -0.3059  0.5602 -0.3873
  644SOL    HW1 1931   1.427   2.149   0.638  0.4854  2.3792  1.0171
  644SOL    HW2 1932   1.526   2.181   0.504  1.3396 -1.1109 -1.8815
  645SOL     OW 1933   1.242   1.958   0.447 -0.1373  0.1139  0.1085
  645SOL    HW1 1934   1.322   1.917   0.394 -1.0107 -0.6565  1.0193
  645SOL    HW2 1935   1.254   1.977   0.549 -0.6603  1.8028  1.3048
  646SOL     OW 1936   0.020   1.803   2.798 -0.0680 -0.3056 -0.0168
  646SOL    HW1 1937   3.069   1.759   2.718 -1.1414  1.1764  0.5433
  646SOL    HW2 1938   0.015   1.906   2.789  1.3154  2.6642 -1.5732
  647SOL     OW 1939   0.935   0.270   0.942 -0.4466  0.0061  0.5501
  647SOL    HW1 1940   0.923   0.179   0.902  0.4130  2.2767 -3.5857
  647SOL    HW2 1941   0.999   0.269   1.020 -2.3458  2.4055  0.3212
  648SOL     OW 1942   1.672   0.581   1.148 -0.0433  0.1111  0.0006
  648SOL    HW1 1943   1.671   0.640   1.065 -1.6527 -0.0425 -3.0824
  648SOL    HW2 1944   1.753   0.514   1.151 -1.3851 -1.6811 -1.5978
  649SOL     OW 1945   0.917   1.605   0.286 -0.0480  0.5196 -0.7521
  649SOL    HW1 1946   0.896   1.671   0.210  2.7567  0.8250  0.6370
  649SOL    HW2 1947   1.018   1.591   0.297 -0.2021  1.1558 -0.1714
  650SOL     OW 1948   2.411   1.533   1.907 -0.3028  0.4941  0.5645
  650SOL    HW1 1949   2.349   1.569   1.981 -1.2741  0.1479  0.6610
  650SOL    HW2 1950   2.401   1.578   1.821 -0.0951 -0.4429  0.9001
  651SOL     OW 1951   1.762   2.142   2.845 -0.1147  0.3800 -0.2074
  651SOL    HW1 1952   1.810   2.225   2.825 -5.7369 -0.6721 -0.3800
  651SOL    HW2 1953   1.695   2.117   2.768 -0.2306 -0.1816 -2.1036
  652SOL     OW 1954   2.486   1.804   0.217  0.2284  0.0527  0.1766
  652SOL    HW1 1955   2.518   1.710   0.202 -2.7398 -1.5108 -0.1390
  652SOL    HW2 1956   2.554   1.860   0.271 -0.4680  0.3130  2.5461
  653SOL     OW 1957   0.186   0.355   0.602  0.2830  0.6802  0.2710
  653SOL    HW1 1958   0.284   0.382   0.609 -2.0567  1.4199  1.4417
  653SOL    HW2 1959   0.163   0.290   0.675  1.8636 -0.1784  0.9051
  654SOL     OW 1960   2.649   0.001   2.162 -0.1502 -0.0364 -0.2383
  654SOL    HW1 1961   2.739   0.042   2.126  0.7128  0.3137 -0.5557
  654SOL    HW2 1962   2.577   0.022   2.099  1.0232 -0.1350 -1.2019
  655SOL     OW 1963   0.629   2.566   0.797  0.0737 -0.0826 -0.6599
  655SOL    HW1 1964   0.607   2.534   0.890 -1.3321  1.4842 -4.4829
  655SOL    HW2 1965   0.551   2.538   0.736  0.5871 -0.3998 -0.8427
  656SOL     OW 1966   3.030   3.004   2.715 -0.3377  0.2094  0.6519
  656SOL    HW1 1967   3.017   3.020   2.614 -2.7002 -0.0536 -5.1029
  656SOL    HW2 1968   3.071   2.913   2.732  0.5481 -0.5206 -4.9603
  657SOL     OW 1969   2.982   0.978   0.108  0.1307 -0.1749  0.3603
  657SOL    HW1 1970   3.007   0.984   0.007  1.3350 -0.5529 -1.0460
  657SOL    HW2 1971   3.065   0.946   0.161  0.8625 -0.5380 -0.5761
  658SOL     OW 1972   2.359   1.745   1.408  0.0028  0.1481  0.8000
  658SOL    HW1 1973   2.266   1.777   1.429 -1.4732 -0.5283 -2.2479
  658SOL    HW2 1974   2.416   1.717   1.492  0.7872 -0.3808 -0.3477
  659SOL     OW 1975   1.775   2.748   0.264 -0.4810 -0.4142 -0.3051
  659SOL    HW1 1976   1.718   2.691   0.325  1.2456  0.0926 -0.0215
  659SOL    HW2 1977   1.741   2.746   0.171 -0.0550 -0.4655  0.6610
  660SOL     OW 1978   1.700   1.002   2.653 -0.1506  0.0444 -0.0823
  660SOL    HW1 1979   1.720   1.095   2.691  2.5098  3.0113 -0.1188
  660SOL    HW2 1980   1.739   1.003   2.559 -1.1402  0.5903 -0.8946
  661SOL     OW 1981   0.006   2.194   1.179  0.3988 -0.5275 -0.5273
  661SOL    HW1 1982   0.019   2.227   1.086 -1.1488  0.3044 -1.6262
  661SOL    HW2 1983   3.023   2.127   1.189  0.8239  1.9780  0.4923
  662SOL     OW 1984   0.444   0.711   0.051 -0.4971 -0.1366  0.0645
  662SOL    HW1 1985   0.373   0.781   0.073 -1.4218  3.1468  0.1228
  662SOL    HW2 1986   0.442   0.641   0.125 -0.0657 -0.5754  0.5305
  663SOL     OW 1987   2.121   2.066   1.248 -0.0633  1.0554  0.7535
  663SOL    HW1 1988   2.121   2.148   1.306 -1.8892 -1.5498 -1.1366
  663SOL    HW2 1989   2.102   1.982   1.305 -2.0678 -1.6685  0.2006
  664SOL     OW 1990   0.889   1.519   1.292 -0.0642 -0.5413 -0.2860
  664SOL    HW1 1991   0.851   1.516   1.197  0.1222  0.0466  0.3935
  664SOL    HW2 1992   0.986   1.555   1.292  0.9938  0.7216 -0.8950
  665SOL     OW 1993   1.807   2.658   1.988 -0.0362 -0.3902  0.1313
  665SOL    HW1 1994   1.803   2.761   1.975 -1.6172  3.7397 -0.7698
  665SOL    HW2 1995   1.729   2.633   2.054 -0.3325 -1.2752 -2.2385
  666SOL     OW 1996   2.861   2.818   0.378 -0.2362 -0.1092  0.2235
  666SOL    HW1 1997   2.791   2.849   0.308 -3.9967 -0.1067  0.5685
  666SOL    HW2 1998   2.836   2.856   0.472  0.3623  1.2457  1.3491
  667SOL     OW 1999   2.810   1.379   1.697  0.1725 -0.4979 -0.4355
  667SOL    HW1 2000   2.790   1.376   1.598 -2.7475 -0.3585  1.4172
  667SOL    HW2 2001   2.895   1.335   1.727  0.5391  0.6632  0.5984
  668SOL     OW 2002   0.255   0.558   2.329 -0.2886 -0.3447 -0.8991
  668SOL    HW1 2003   0.281   0.517   2.419  0.9624 -0.7555 -0.3684
  668SOL    HW2 2004   0.173   0.513   2.290  0.0849  0.9825 -1.7836
  669SOL     OW 2005   2.310   1.988   2.430  0.2613  0.7247  0.0645
  669SOL    HW1 2006   2.393   2.049   2.446  2.3749 -0.1022 -1.5610
  669SOL    HW2 2007   2.280   1.993   2.331 -0.7109  1.7963  0.4851
  670SOL     OW 2008   2.682   1.544   1.886 -0.4299  0.4036  0.4378
  670SOL    HW1 2009   2.581   1.531   1.896  1.4112  5.0013  0.5983
  670SOL    HW2 2010   2.718   1.483   1.815 -0.1391  0.6794  0.5349
  671SOL     OW 2011   2.955   1.594   0.780 -0.4055 -0.1099 -0.2218
  671SOL    HW1 2012   2.991   1.497   0.764  3.9812 -0.0555 -1.4355
  671SOL    HW2 2013   2.854   1.602   0.764 -0.1223 -1.9098 -1.7222
  672SOL     OW 2014   2.378   0.751   2.052 -0.4139  0.1516 -0.2449
  672SOL    HW1 2015   2.350   0.787   1.960 -0.3348 -0.2307  1.1510
  672SOL    HW2 2016   2.436   0.826   2.099  1.4295  1.8530 -1.0421
  673SOL     OW 2017   2.438   2.776   1.967  0.5652  0.2172 -0.2179
  673SOL    HW1 2018   2.489   2.851   1.921  1.3701 -2.2119 -1.3060
  673SOL    HW2 2019   2.347   2.756   1.929  2.3249  1.3507 -1.1660
  674SOL     OW 2020   1.749   2.597   1.549  0.0413  0.2477  0.1272
  674SOL    HW1 2021   1.753   2.648   1.637  2.2036  0.0104 -1.6433
  674SOL    HW2 2022   1.683   2.519   1.552 -0.7257  0.7098 -0.3949
  675SOL     OW 2023   0.604   0.701   0.714  0.6590  0.4375 -0.4343
  675SOL    HW1 2024   0.689   0.716   0.765 -1.4232  1.4645  0.6625
  675SOL    HW2 2025   0.597   0.610   0.665 -0.0381 -3.5440 -1.6205
  676SOL     OW 2026   1.807   1.150   0.680  0.3042 -0.0636  0.1856
  676SOL    HW1 2027   1.784   1.072   0.615 -0.1806 -0.4356  0.6578
  676SOL    HW2 2028   1.879   1.215   0.643  3.8230 -0.4683 -1.6425
  677SOL     OW 2029   2.826   1.501   2.401  0.3177  0.2544  0.2847
  677SOL    HW1 2030   2.724   1.502   2.373 -2.0284 -0.1309 -0.4090
  677SOL    HW2 2031   2.870   1.409   2.400  1.4699  2.6412  1.9181
  678SOL     OW 2032   2.501   1.971   1.306  0.1315 -0.5126 -0.1848
  678SOL    HW1 2033   2.588   1.937   1.351  0.2021 -0.6037 -0.9552
  678SOL    HW2 2034   2.425   1.907   1.320  3.1198 -0.6679 -0.8383
  679SOL     OW 2035   1.949   2.531   0.548  0.5056 -0.3815  0.0799
  679SOL    HW1 2036   2.016   2.601   0.568 -0.4653  0.3532  0.4497
  679SOL    HW2 2037   1.866   2.544   0.611 -1.5559  1.1986  3.1615
  680SOL     OW 2038   2.658   2.283   2.015  0.9011  0.3265 -0.2140
  680SOL    HW1 2039   2.594   2.356   1.976  0.0004 -1.0728 -2.6516
  680SOL    HW2 2040   2.642   2.187   1.979  3.3807 -1.6929  0.5582
  681SOL     OW 2041   0.319   1.303   1.675  0.5807  0.2648 -0.1263
  681SOL    HW1 2042   0.391   1.238   1.695  1.9856  2.6955  1.1811
  681SOL    HW2 2043   0.322   1.386   1.739 -2.3051  0.3814  0.8108
  682SOL     OW 2044   1.197   2.722   0.716  0.7924  0.0248 -0.4029
  682SOL    HW1 2045   1.121   2.775   0.678  3.2741 -3.5224  0.1484
  682SOL    HW2 2046   1.279   2.762   0.673 -3.0492 -1.5077  0.8569
  683SOL     OW 2047   2.181   1.313   0.986  0.1953  0.3090 -0.2108
  683SOL    HW1 2048   2.200   1.282   1.078 -1.5341 -1.8939 -1.9776
  683SOL    HW2 2049   2.188   1.242   0.914  1.7381 -1.2010  1.6935
  684SOL     OW 2050   0.585   2.144   2.182  0.1763 -0.4801 -0.2324
  684SOL    HW1 2051   0.588   2.162   2.283  1.2240 -1.5878  0.1082
  684SOL    HW2 2052   0.494   2.117   2.145  0.8463  0.7018 -1.6724
  685SOL     OW 2053   1.557   1.676   0.088 -0.0049  0.1506 -0.1999
  685SOL    HW1 2054   1.651   1.709   0.113  0.7984  0.5275 -0.2571
  685SOL    HW2 2055   1.555   1.602   0.015 -0.7398  1.2917 -2.6499
  686SOL     OW 2056   2.989   0.663   1.374  0.2628  0.0540 -0.5514
  686SOL    HW1 2057   2.933   0.638   1.450  1.1236  1.9553 -0.4974
  686SOL    HW2 2058   2.991   0.767   1.364 -0.5783  0.5844 -2.1369
  687SOL     OW 2059   0.925   2.262   2.892 -0.2401  0.6227 -0.2699
  687SOL    HW1 2060   0.907   2.270   2.993  0.9099 -1.6937  2.0138
  687SOL    HW2 2061   0.879   2.179   2.850 -0.9456  1.5662  0.7738
  688SOL     OW 2062   0.126   2.122   2.095 -0.1252  0.0813  0.2025
  688SOL    HW1 2063   0.064   2.076   2.032 -0.3948  1.6755  0.8767
  688SOL    HW2 2064   0.121   2.085   2.191  0.1081  1.5423  0.0557
  689SOL     OW 2065   2.010   0.821   1.944  0.3199  0.1647  0.6192
  689SOL    HW1 2066   1.944   0.895   1.934  0.3820 -1.1364  0.4611
  689SOL    HW2 2067   1.968   0.742   1.994 -0.7139 -0.1756 -0.2849
  690SOL     OW 2068   2.407   0.725   0.916 -0.2139  0.0349  0.2538
  690SOL    HW1 2069   2.346   0.686   0.989 -1.2362  0.0580 -0.2994
  690SOL    HW2 2070   2.419   0.826   0.938  0.2092 -0.8293 -0.4812
  691SOL     OW 2071   0.801   1.675   1.813 -0.1537  0.0578  0.0138
  691SOL    HW1 2072   0.818   1.676   1.911 -2.1154  2.0073 -2.7035
  691SOL    HW2 2073   0.871   1.715   1.751 -0.8285  1.1757 -3.4120
  692SOL     OW 2074   2.266   0.378   1.365  0.3186  0.6231 -0.7462
  692SOL    HW1 2075   2.180   0.354   1.412 -1.1155 -2.6475 -2.4316
  692SOL    HW2 2076   2.258   0.392   1.267  0.0010 -1.3158  0.9981
  693SOL     OW 2077   0.473   1.232   2.195  0.0606  0.4143 -0.0821
  693SOL    HW1 2078   0.426   1.157   2.241 -3.4910  0.1036 -3.0596
  693SOL    HW2 2079   0.416   1.269   2.123  2.2334 -2.1789 -0.4344
  694SOL     OW 2080   1.668   0.002   1.188  0.2080  0.4234 -0.3033
  694SOL    HW1 2081   1.622   0.036   1.104 -0.8285 -2.4046  2.2165
  694SOL    HW2 2082   1.677   2.993   1.184  0.5905 -0.1783  0.4646
  695SOL     OW 2083   1.257   1.054   1.819 -0.2362  0.6898  0.0104
  695SOL    HW1 2084   1.291   1.018   1.730  1.3277 -0.1762  3.6864
  695SOL    HW2 2085   1.299   1.010   1.898 -1.6591  0.5520 -0.8752
  696SOL     OW 2086   1.292   0.034   0.496 -0.0513 -0.2810 -0.0237
  696SOL    HW1 2087   1.322   0.124   0.537 -0.8936  0.6655 -0.0918
  696SOL    HW2 2088   1.195   0.030   0.464 -0.0889 -0.2069  3.7735
  697SOL     OW 2089   1.128   0.546   0.711  0.5077 -0.0017  0.7168
  697SOL    HW1 2090   1.039   0.516   0.747 -0.1685 -1.8717 -3.3325
  697SOL    HW2 2091   1.141   0.510   0.615 -1.5665  2.2055 -2.6926
  698SOL     OW 2092   1.063   1.155   2.596 -0.7926  0.4674  0.2427
  698SOL    HW1 2093   1.040   1.252   2.603  0.1167 -3.0044  1.1958
  698SOL    HW2 2094   1.036   1.105   2.682  0.7029  2.7364 -1.7105
  699SOL     OW 2095   1.581   1.457   1.276 -0.2983  0.0862  0.6028
  699SOL    HW1 2096   1.544   1.546   1.311  0.4692  1.7274 -1.4378
  699SOL    HW2 2097   1.547   1.434   1.183 -3.5287 -1.7771  0.7671
  700SOL     OW 2098   1.517   0.117   0.326 -0.2291 -0.2163 -0.2368
  700SOL    HW1 2099   1.465   0.069   0.398 -0.4677 -1.1891  1.7472
  700SOL    HW2 2100   1.615   0.088   0.338  0.7357 -1.0327  0.3077
  701SOL     OW 2101   2.925   0.111   2.260  0.5446 -0.0710  0.4426
  701SOL    HW1 2102   2.977   0.118   2.171 -2.0296 -1.7644  0.3256
  701SOL    HW2 2103   2.933   0.018   2.300  0.3271 -2.5650 -1.1725
  702SOL     OW 2104   1.175   0.199   0.127  0.0599 -0.1275  0.0556
  702SOL    HW1 2105   1.223   0.279   0.083  4.8889  0.9999 -2.1716
  702SOL    HW2 2106   1.230   0.116   0.116 -1.3274 -1.1932  2.5331
  703SOL     OW 2107   2.330   2.665   2.460  0.3756  0.3919  0.0960
  703SOL    HW1 2108   2.316   2.587   2.522  0.7733 -2.4648  1.6798
  703SOL    HW2 2109   2.431   2.672   2.445  0.0293  0.5398 -1.7002
  704SOL     OW 2110   0.624   2.338   1.038 -0.1482 -0.1113  0.2893
  704SOL    HW1 2111   0.602   2.278   0.957  0.0120 -1.4060  2.1529
  704SOL    HW2 2112   0.687   2.289   1.102  1.3758 -0.3420 -0.6047
  705SOL     OW 2113   2.763   0.184   1.949 -0.3232 -0.2307 -0.3371
  705SOL    HW1 2114   2.858   0.156   1.968 -1.3753 -1.4050 -1.5908
  705SOL    HW2 2115   2.723   0.243   2.022  1.2060 -1.5810 -0.5571
  706SOL     OW 2116   1.639   0.033   0.605  0.1398  0.2325 -0.1388
  706SOL    HW1 2117   1.672   3.026   0.611 -2.2168 -0.5339 -1.9681
  706SOL    HW2 2118   1.723   0.084   0.573  0.4459 -1.9027 -0.3900
  707SOL     OW 2119   1.302   1.868   2.131  0.2411 -0.4950  0.0862
  707SOL    HW1 2120   1.352   1.780   2.156  1.1159  1.4048  1.9166
  707SOL    HW2 2121   1.325   1.943   2.197  0.1950  1.3574  1.3232
  708SOL     OW 2122   0.079   2.400   1.759  0.4909  0.2063  0.0729
  708SOL    HW1 2123   0.133   2.344   1.697 -0.9773  2.5433  1.8036
  708SOL    HW2 2124   3.073   2.386   1.745  1.6849  2.5890 -0.1570
  709SOL     OW 2125   1.879   0.211   1.987 -0.3438  0.0235  0.1408
  709SOL    HW1 2126   1.919   0.138   1.925 -0.2766 -2.1018 -0.3080
  709SOL    HW2 2127   1.956   0.271   2.017 -2.1791 -0.9732 -0.2364
  710SOL     OW 2128   2.489   0.466   1.589  0.2710 -0.4535  0.1614
  710SOL    HW1 2129   2.434   0.454   1.508 -0.7018  0.6102  2.7104
  710SOL    HW2 2130   2.584   0.446   1.569 -0.6305  0.8170 -1.9622
  711SOL     OW 2131   0.333   1.886   0.610 -0.3297 -0.1992  0.6659
  711SOL    HW1 2132   0.305   1.948   0.685  1.3675  1.1438 -0.9957
  711SOL    HW2 2133   0.411   1.825   0.634  2.8980 -1.6508 -0.3646
  712SOL     OW 2134   0.713   2.727   2.403 -0.2041 -0.3805 -0.4316
  712SOL    HW1 2135   0.718   2.683   2.313 -2.0975 -0.6263  0.4970
  712SOL    HW2 2136   0.657   2.809   2.392  0.4409 -0.7084  0.5149
  713SOL     OW 2137   1.897   1.035   2.955 -0.0764  0.1213  0.1409
  713SOL    HW1 2138   1.837   1.001   3.027  4.2307 -0.0052  0.7214
  713SOL    HW2 2139   1.978   0.971   2.960  0.6893 -0.8829 -1.5445
  714SOL     OW 2140   0.618   1.784   1.115 -0.1083 -0.3013 -0.1210
  714SOL    HW1 2141   0.619   1.707   1.045 -1.5911 -0.7070 -2.2428
  714SOL    HW2 2142   0.560   1.759   1.190  2.3898 -2.4837 -1.3026
  715SOL     OW 2143   1.924   3.081   2.958 -0.5405  0.1159 -0.2635
  715SOL    HW1 2144   2.012   3.046   2.997  1.1071  1.5641  1.4180
  715SOL    HW2 2145   1.857   3.010   2.927 -1.9262 -0.7434  0.2699
  716SOL     OW 2146   0.193   0.110   1.713  0.1395 -0.3508  0.1344
  716SOL    HW1 2147   0.129   0.180   1.745  0.1111  3.4957 -0.6550
  716SOL    HW2 2148   0.145   0.018   1.732 -2.2646 -2.3367  0.4686
  717SOL     OW 2149   0.322   0.928   0.242 -0.2532 -0.4586 -0.2140
  717SOL    HW1 2150   0.237   0.935   0.188  1.0934  0.8741 -1.4730
  717SOL    HW2 2151   0.322   0.833   0.282 -0.3813  0.2597  0.6603
  718SOL     OW 2152   1.413   0.911   2.772  0.7114 -0.2811  0.1080
  718SOL    HW1 2153   1.387   0.816   2.781  0.9188  3.8234  2.3256
  718SOL    HW2 2154   1.503   0.924   2.724  1.9707  0.7674 -0.5018
  719SOL     OW 2155   2.707   1.716   0.009 -0.1970  0.5870  0.1794
  719SOL    HW1 2156   2.671   1.638   0.062  0.6270 -0.2763 -1.6877
  719SOL    HW2 2157   2.777   1.676   3.040  0.0814 -1.0705 -1.3407
  720SOL     OW 2158   1.283   0.805   1.002  0.5720  0.7153  0.6201
  720SOL    HW1 2159   1.294   0.708   0.965  2.1662 -0.4249  0.8596
  720SOL    HW2 2160   1.366   0.861   0.985 -0.8530  1.4829 -0.5326
  721SOL     OW 2161   2.757   0.896   0.219 -0.0801  0.4371  0.1263
  721SOL    HW1 2162   2.725   0.797   0.205  0.6404 -1.8231  0.8769
  721SOL    HW2 2163   2.850   0.916   0.170  0.6745  0.0635 -1.5003
  722SOL     OW 2164   1.009   1.051   2.874 -0.4396 -0.0945 -0.4690
  722SOL    HW1 2165   1.028   0.951   2.882 -0.4122  1.4795 -0.6058
  722SOL    HW2 2166   0.946   1.087   2.943  1.4770  0.2320 -0.3109
  723SOL     OW 2167   0.200   1.037   0.583  0.1582  0.0679  0.0340
  723SOL    HW1 2168   0.209   1.134   0.588 -2.7881 -2.0452 -0.5354
  723SOL    HW2 2169   0.293   0.995   0.575  2.1988  0.2274 -0.4376
  724SOL     OW 2170   0.918   2.097   1.932 -0.0434 -0.1393 -0.1979
  724SOL    HW1 2171   0.931   2.177   1.988  0.4630 -2.4050 -0.9925
  724SOL    HW2 2172   0.855   2.120   1.853 -3.3734  0.2718 -1.4849
  725SOL     OW 2173   2.516   0.864   1.406  0.0380  0.3430  0.7637
  725SOL    HW1 2174   2.438   0.923   1.385 -1.0367  0.2213 -2.8638
  725SOL    HW2 2175   2.511   0.822   1.498  0.3116 -0.4127  1.0846
  726SOL     OW 2176   1.738   2.862   0.598 -0.2101 -0.3693  0.3423
  726SOL    HW1 2177   1.741   2.784   0.663  1.1806  1.3072  0.3245
  726SOL    HW2 2178   1.747   2.821   0.503  0.1414 -2.0042 -1.3512
  727SOL     OW 2179   1.147   0.956   2.194 -0.2861 -0.5902  0.4258
  727SOL    HW1 2180   1.107   1.039   2.241 -1.7656 -1.4417  0.1171
  727SOL    HW2 2181   1.236   0.975   2.144 -0.9603 -0.8894 -1.7983
  728SOL     OW 2182   1.220   2.784   1.251 -0.0230 -0.0566 -0.0360
  728SOL    HW1 2183   1.311   2.786   1.299  3.5878  3.3000 -0.0301
  728SOL    HW2 2184   1.198   2.882   1.237  1.0187 -2.5126  0.5450
  729SOL     OW 2185   1.941   0.893   1.277 -0.2432 -0.3552  0.0250
  729SOL    HW1 2186   1.869   0.832   1.321  0.0108 -0.4141  1.1985
  729SOL    HW2 2187   1.971   0.846   1.195 -0.8349 -0.2322  1.8296
  730SOL     OW 2188   0.752   1.966   2.098 -0.0637  0.0985 -0.2027
  730SOL    HW1 2189   0.812   2.005   2.027 -1.7205  1.0172 -0.1548
  730SOL    HW2 2190   0.680   2.032   2.133 -0.8712 -0.0179  2.1355
  731SOL     OW 2191   0.463   0.351   0.544 -0.0413 -0.5935 -0.1679
  731SOL    HW1 2192   0.491   0.349   0.443 -1.9708  1.2220  0.1239
  731SOL    HW2 2193   0.549   0.339   0.597  0.6455  0.4663  1.4822
  732SOL     OW 2194   0.706   0.652   3.021  0.4378  0.4855  0.3697
  732SOL    HW1 2195   0.620   0.667   3.079 -2.7435 -0.2619  2.7669
  732SOL    HW2 2196   0.737   0.738   2.978 -0.3365 -0.3356 -1.4408
  733SOL     OW 2197   0.983   2.419   0.914 -0.5907  0.1656  0.1792
  733SOL    HW1 2198   1.078   2.389   0.902 -3.3186  0.3707  0.1989
  733SOL    HW2 2199   0.929   2.390   0.838  2.2035  0.4287  1.2376
  734SOL     OW 2200   0.059   2.069   2.653  0.8066  0.0070 -0.2693
  734SOL    HW1 2201   0.029   2.081   2.561  1.8297  0.9677  4.2401
  734SOL    HW2 2202   0.113   2.152   2.677 -0.9555  0.6482 -1.3351
  735SOL     OW 2203   0.931   2.962   0.969  0.4608  0.0267  0.1316
  735SOL    HW1 2204   0.960   2.862   0.970 -2.1558 -1.5908  0.4041
  735SOL    HW2 2205   0.975   3.024   0.903  2.3889  0.6021 -0.1413
  736SOL     OW 2206   1.788   0.182   0.026 -0.0778 -0.1303  0.1126
  736SOL    HW1 2207   1.729   0.105   0.043 -0.8764  2.1030 -3.0911
  736SOL    HW2 2208   1.874   0.147   3.075 -1.7767 -2.4269 -1.4342
  737SOL     OW 2209   2.933   0.172   0.440  0.4118 -0.1441  0.0001
  737SOL    HW1 2210   3.010   0.228   0.408  0.4911  1.3544  0.7148
  737SOL    HW2 2211   2.847   0.232   0.451 -4.0872  1.3782  0.2919
  738SOL     OW 2212   2.712   2.931   1.022 -0.6076  0.4976  0.6389
  738SOL    HW1 2213   2.781   2.958   0.956  0.6677 -1.9774  4.5976
  738SOL    HW2 2214   2.633   2.996   1.025 -3.1238 -1.3568  1.7248
  739SOL     OW 2215   1.606   2.396   0.218  0.1267 -0.2898 -0.5831
  739SOL    HW1 2216   1.588   2.297   0.230 -0.3281 -0.1466 -0.4371
  739SOL    HW2 2217   1.697   2.423   0.257  0.8446  2.1226 -1.5923
  740SOL     OW 2218   1.522   0.097   0.959 -0.4551  0.3304 -0.5939
  740SOL    HW1 2219   1.443   0.034   0.939  2.2530  0.1087 -0.7123
  740SOL    HW2 2220   1.534   0.157   0.881  1.1904 -1.6240  1.9409
  741SOL     OW 2221   2.261   0.622   0.366 -0.1355 -0.2915 -0.0417
  741SOL    HW1 2222   2.238   0.721   0.385  2.7748 -0.4963 -0.5294
  741SOL    HW2 2223   2.180   0.558   0.373 -1.3318  1.7495  2.5645
  742SOL     OW 2224   1.201   2.141   2.430  0.3151  0.1650 -0.2987
  742SOL    HW1 2225   1.234   2.167   2.525 -1.8392  0.3538 -4.1112
  742SOL    HW2 2226   1.276   2.090   2.386  0.1184  1.6318 -0.7528
  743SOL     OW 2227   2.221   0.557   1.758 -0.5028 -0.1103  0.0217
  743SOL    HW1 2228   2.239   0.644   1.808  1.0102  1.1250 -0.2160
  743SOL    HW2 2229   2.300   0.497   1.778  1.2341 -2.5465  1.3603
  744SOL     OW 2230   2.419   0.366   0.865  0.6411  0.6491 -0.6106
  744SOL    HW1 2231   2.385   0.308   0.785  3.0184 -0.4787  0.8065
  744SOL    HW2 2232   2.492   0.426   0.828 -0.2065 -1.2060 -1.9814
  745SOL     OW 2233   1.883   1.380   1.504  0.5389  0.1752  0.2231
  745SOL    HW1 2234   1.951   1.403   1.436 -1.7673  1.6653  0.8344
  745SOL    HW2 2235   1.809   1.325   1.464 -1.5443 -2.0518  1.0198
  746SOL     OW 2236   1.560   1.377   1.009 -0.3736  0.0454  0.2691
  746SOL    HW1 2237   1.560   1.460   0.948  1.4674 -0.4601  1.6361
  746SOL    HW2 2238   1.616   1.293   0.981  2.5107 -0.3952  2.2220
  747SOL     OW 2239   1.940   1.167   1.188 -0.6107  0.0255  0.0383
  747SOL    HW1 2240   2.030   1.208   1.211  3.3335  2.8739  0.9734
  747SOL    HW2 2241   1.919   1.085   1.245  0.4021  0.3214  2.0945
  748SOL     OW 2242   0.163   2.479   0.870  0.1493  0.2580 -0.4706
  748SOL    HW1 2243   0.235   2.446   0.937  1.9887  0.9118  0.3653
  748SOL    HW2 2244   0.140   2.419   0.789 -2.4072  2.4818 -2.5159
  749SOL     OW 2245   3.018   2.980   2.406 -0.1207 -0.0173  0.2342
  749SOL    HW1 2246   0.025   3.015   2.410  0.9336  1.5874  1.8404
  749SOL    HW2 2247   3.018   2.907   2.338  1.7464  2.2260  1.1849
  750SOL     OW 2248   2.668   0.708   0.873  0.3266  0.1546  0.1301
  750SOL    HW1 2249   2.714   0.727   0.963 -0.6080  0.7253  0.1102
  750SOL    HW2 2250   2.564   0.725   0.879 -3.1851 -0.1149  0.3336
  751SOL     OW 2251   2.733   0.349   0.475  0.0445  0.2510 -0.1257
  751SOL    HW1 2252   2.794   0.422   0.437 -0.2458  0.9788 -0.0285
  751SOL    HW2 2253   2.699   0.376   0.568  0.9511 -2.7748  2.1549
  752SOL     OW 2254   0.331   2.918   0.865 -0.1335 -0.3422  0.0648
  752SOL    HW1 2255   0.278   2.998   0.904  0.6756  1.8573  0.1982
  752SOL    HW2 2256   0.266   2.846   0.834  0.8990  0.2805  2.0541
  753SOL     OW 2257   1.345   0.588   2.142 -0.4831 -0.2890 -0.4082
  753SOL    HW1 2258   1.415   0.515   2.162 -1.9056  1.5693 -0.8041
  753SOL    HW2 2259   1.379   0.650   2.065  0.6150  4.1943  1.5021
  754SOL     OW 2260   1.728   2.385   1.883 -0.5022  0.4662  0.6723
  754SOL    HW1 2261   1.689   2.469   1.924 -3.0925  2.3445  1.6338
  754SOL    HW2 2262   1.659   2.313   1.876  0.7231  0.8836  0.7989
  755SOL     OW 2263   2.852   1.074   0.596  0.3236 -0.2823 -0.9580
  755SOL    HW1 2264   2.884   1.149   0.658  0.2089  2.9029  2.5556
  755SOL    HW2 2265   2.780   1.112   0.533 -0.4229  0.5225  2.8696
  756SOL     OW 2266   1.482   1.501   2.754  0.3030 -0.4522  0.1027
  756SOL    HW1 2267   1.390   1.514   2.796  0.7204  1.7702  1.5192
  756SOL    HW2 2268   1.484   1.524   2.652  0.2660 -2.3170 -1.3031
  757SOL     OW 2269   1.516   2.894   0.359  0.0953 -0.1170 -0.2177
  757SOL    HW1 2270   1.485   2.948   0.282  0.7793 -0.1728  1.7897
  757SOL    HW2 2271   1.491   2.798   0.336  0.6875 -1.4642 -0.0728
  758SOL     OW 2272   0.335   0.248   1.295 -0.1842  0.1645  0.4111
  758SOL    HW1 2273   0.236   0.225   1.283  0.3061 -0.7095  1.0012
  758SOL    HW2 2274   0.391   0.204   1.218  1.2985 -2.0223 -2.0996
  759SOL     OW 2275   0.274   0.979   1.302 -0.2121 -0.0123 -0.2187
  759SOL    HW1 2276   0.355   1.037   1.332  3.3177  0.4611 -0.9361
  759SOL    HW2 2277   0.268   0.892   1.359 -0.5522 -1.2847  3.4661
  760SOL     OW 2278   2.203   0.967   1.080 -0.0066  0.0920 -0.4539
  760SOL    HW1 2279   2.148   1.009   1.006 -0.2631 -1.4446  1.7383
  760SOL    HW2 2280   2.303   0.977   1.066 -2.3066  1.6281 -0.6536
  761SOL     OW 2281   1.447   1.016   0.719  0.1977 -0.2906  1.0106
  761SOL    HW1 2282   1.491   0.922   0.718 -0.1555 -1.8723 -1.3806
  761SOL    HW2 2283   1.384   1.036   0.799  0.4742 -0.7825  3.2087
  762SOL     OW 2284   2.298   2.415   1.281  0.1895 -0.5387  0.0650
  762SOL    HW1 2285   2.245   2.340   1.330  2.2126 -1.6260 -0.8779
  762SOL    HW2 2286   2.243   2.481   1.226 -0.3287 -0.1839 -0.8892
  763SOL     OW 2287   1.512   1.330   2.048 -0.5847 -0.8816  0.0363
  763SOL    HW1 2288   1.557   1.241   2.066  1.5063  0.5789  0.2342
  763SOL    HW2 2289   1.449   1.317   1.966 -1.8526  0.0233  2.4336
  764SOL     OW 2290   0.367   1.867   2.528  0.4183  0.3944  0.5343
  764SOL    HW1 2291   0.266   1.851   2.517 -2.5171  2.7468  0.2848
  764SOL    HW2 2292   0.390   1.966   2.501 -1.7661  0.6518  0.1695
  765SOL     OW 2293   0.801   2.744   1.236 -0.1634  0.1003 -0.1435
  765SOL    HW1 2294   0.874   2.742   1.165  0.6079 -0.1796  1.5001
  765SOL    HW2 2295   0.726   2.678   1.221 -1.5540 -1.5965  0.0130
  766SOL     OW 2296   0.753   2.270   2.446  0.1028  0.0834  0.0839
  766SOL    HW1 2297   0.840   2.308   2.407  0.5449  1.5276 -1.7860
  766SOL    HW2 2298   0.766   2.170   2.445  1.5105  1.8512  1.0215
  767SOL     OW 2299   1.625   0.342   2.468  0.1587 -0.3236 -0.1233
  767SOL    HW1 2300   1.539   0.284   2.453  0.6825 -0.6837 -1.3436
  767SOL    HW2 2301   1.698   0.305   2.408  0.6214  0.9031  0.9398
  768SOL     OW 2302   1.202   2.226   0.075 -0.2926  0.5878  0.0806
  768SOL    HW1 2303   1.206   2.211   0.178  0.7196 -0.5664  0.4030
  768SOL    HW2 2304   1.292   2.201   0.035  0.2057  0.5501 -1.5455
  769SOL     OW 2305   3.068   2.635   1.046  0.3789  0.1815 -0.0015
  769SOL    HW1 2306   2.979   2.605   1.003 -0.7476 -0.9129 -1.2338
  769SOL    HW2 2307   0.055   2.593   1.000 -5.8631  1.1592  3.1247
  770SOL     OW 2308   0.426   2.861   2.847 -0.3881 -0.0570  0.1023
  770SOL    HW1 2309   0.364   2.937   2.881 -3.0938 -0.9083  3.4159
  770SOL    HW2 2310   0.522   2.896   2.830  2.6528 -1.1155 -1.4277
  771SOL     OW 2311   0.903   2.496   2.741  0.4065 -0.5056  0.4986
  771SOL    HW1 2312   0.893   2.421   2.810 -1.7791 -2.6867  1.5521
  771SOL    HW2 2313   0.806   2.514   2.711 -1.3655  0.4734 -0.3363
  772SOL     OW 2314   2.548   3.028   1.879 -0.4032 -0.2329 -0.2410
  772SOL    HW1 2315   2.483   3.066   1.947  0.8327 -0.9641 -1.9562
  772SOL    HW2 2316   2.556   0.001   1.799 -0.7852  1.2489  0.5051
  773SOL     OW 2317   1.107   2.696   2.011 -0.2917  0.0561 -0.6819
  773SOL    HW1 2318   1.107   2.594   1.989  0.6843 -0.3402 -1.0434
  773SOL    HW2 2319   1.066   2.708   2.105  0.9042 -2.8185  2.8196
  774SOL     OW 2320   1.507   0.390   2.152 -0.0061  0.2263  0.2704
  774SOL    HW1 2321   1.509   0.327   2.234  2.1302  2.2555 -0.2409
  774SOL    HW2 2322   1.464   0.347   2.070 -1.1805  2.7032  2.1566
  775SOL     OW 2323   2.147   2.889   3.061 -0.0933  0.0790 -0.2585
  775SOL    HW1 2324   2.127   2.829   0.054 -0.2268  0.6822 -1.7239
  775SOL    HW2 2325   2.242   2.903   3.039 -2.3485  1.3385 -1.0925
  776SOL     OW 2326   2.273   0.829   1.835  0.3211 -0.1433  0.9922
  776SOL    HW1 2327   2.180   0.819   1.874  1.3988  0.7737 -1.6652
  776SOL    HW2 2328   2.282   0.926   1.805 -0.4321  1.1212 -0.2448
  777SOL     OW 2329   2.853   1.102   2.332 -0.3234 -0.0209 -0.0233
  777SOL    HW1 2330   2.803   1.038   2.392  0.8834  5.4020 -1.6500
  777SOL    HW2 2331   2.804   1.111   2.240 -1.7034 -0.2474  1.2723
  778SOL     OW 2332   2.374   0.489   2.049 -0.2923 -0.3655 -0.3347
  778SOL    HW1 2333   2.398   0.589   2.062 -0.2431  1.0512  1.0691
  778SOL    HW2 2334   2.400   0.446   1.962 -1.8960 -0.4606 -0.1230
  779SOL     OW 2335   3.003   0.089   0.025 -0.1167 -0.1916  0.5770
  779SOL    HW1 2336   3.036   0.106   3.026  0.9833 -1.7287  2.3714
  779SOL    HW2 2337   3.066   0.115   0.096 -1.4728 -3.3371 -1.5481
  780SOL     OW 2338   2.113   0.089   2.191 -0.1459 -0.2095  0.1659
  780SOL    HW1 2339   2.059   0.006   2.164  1.1153 -1.1069 -1.5823
  780SOL    HW2 2340   2.194   0.058   2.246  2.0829 -1.3670  0.3868
  781SOL     OW 2341   0.453   0.628   1.699  0.4269  0.5265  0.0754
  781SOL    HW1 2342   0.437   0.576   1.613 -1.8944  3.6304 -1.6037
  781SOL    HW2 2343   0.546   0.666   1.710 -0.1032  1.4921  0.5749
  782SOL     OW 2344   1.836   2.037   0.308 -0.1928 -0.2186  0.3426
  782SOL    HW1 2345   1.885   2.123   0.285  0.6761 -1.1068 -0.7910
  782SOL    HW2 2346   1.897   1.963   0.347 -0.3709 -1.6139 -0.6711
  783SOL     OW 2347   0.993   1.725   1.583 -0.4739 -0.1701 -0.1270
  783SOL    HW1 2348   1.021   1.758   1.489  3.7580 -0.6589  1.8970
  783SOL    HW2 2349   1.056   1.642   1.605  0.8241 -0.8540  1.6062
  784SOL     OW 2350   1.987   0.605   2.152  0.1703  0.8564  0.1826
  784SOL    HW1 2351   2.020   0.509   2.130 -1.8029  1.0411 -0.0882
  784SOL    HW2 2352   2.061   0.670   2.183 -0.1060 -0.1131 -0.6373
  785SOL     OW 2353   2.934   0.322   0.830  0.3266  0.0502 -0.0474
  785SOL    HW1 2354   2.917   0.357   0.927 -0.4779  1.1683  2.0038
  785SOL    HW2 2355   2.935   0.407   0.769 -0.9131  0.6169 -0.9322
  786SOL     OW 2356   1.789   3.037   0.320  0.3423  0.4742  0.0775
  786SOL    HW1 2357   1.876   0.002   0.326  2.8056  2.6088 -0.8699
  786SOL    HW2 2358   1.812   2.939   0.319  0.6755 -0.5436  0.3376
  787SOL     OW 2359   1.050   0.062   0.742  0.2808  0.1094  0.4915
  787SOL    HW1 2360   1.132   0.124   0.725  2.5854  2.1263  1.0295
  787SOL    HW2 2361   0.968   0.098   0.693 -0.1192  0.9288 -0.4793
  788SOL     OW 2362   0.062   1.868   1.355  0.2329  0.1430  0.1688
  788SOL    HW1 2363   0.061   1.948   1.420  1.2801  0.1644 -0.1218
  788SOL    HW2 2364   0.159   1.857   1.324 -0.6564  0.3686 -0.8550
  789SOL     OW 2365   2.756   0.567   2.141 -1.5427 -0.4040 -0.1274
  789SOL    HW1 2366   2.758   0.470   2.170 -1.2223 -1.7337  0.7335
  789SOL    HW2 2367   2.839   0.609   2.180  1.4437  1.7889  1.1581
  790SOL     OW 2368   0.581   0.660   2.600 -0.2181  0.2913  0.4306
  790SOL    HW1 2369   0.662   0.623   2.553 -1.9357 -0.0667 -1.0601
  790SOL    HW2 2370   0.498   0.604   2.580  0.6415  0.3512 -0.2907
  791SOL     OW 2371   2.515   0.556   2.861  0.1960  0.0596 -0.7331
  791SOL    HW1 2372   2.424   0.547   2.905 -0.7389 -0.4569  2.0555
  791SOL    HW2 2373   2.552   0.466   2.830 -0.5019 -2.4907 -0.2678
  792SOL     OW 2374   1.739   0.720   1.377 -0.6101 -0.3161 -0.3964
  792SOL    HW1 2375   1.704   0.673   1.296 -1.6197  0.7542  0.5096
  792SOL    HW2 2376   1.772   0.650   1.446  3.1143 -0.8003  1.6310
  793SOL     OW 2377   0.013   0.006   1.498 -0.3700 -0.2215  0.1744
  793SOL    HW1 2378   0.056   0.070   1.566 -0.6982  2.5752  2.1262
  793SOL    HW2 2379   0.015   0.055   1.405  1.1128 -2.6143 -1.6113
  794SOL     OW 2380   3.032   0.098   2.021 -0.1818 -0.1191 -0.5792
  794SOL    HW1 2381   3.034   0.189   1.977  3.2217 -2.1724  2.0277
  794SOL    HW2 2382   0.014   0.039   1.981  0.1357 -0.8818  1.8242
  795SOL     OW 2383   0.604   2.187   2.713 -0.1854 -0.2793 -0.8470
  795SOL    HW1 2384   0.694   2.141   2.724  3.5842 -0.3817 -1.8459
  795SOL    HW2 2385   0.616   2.273   2.657  0.2012 -0.4478 -1.8625
  796SOL     OW 2386   2.015   0.558   2.550  0.1952 -0.0480  0.2447
  796SOL    HW1 2387   1.956   0.621   2.498  1.9903 -0.0240 -0.3666
  796SOL    HW2 2388   2.001   0.560   2.651  1.5981  2.4306 -3.5437
  797SOL     OW 2389   2.180   2.137   0.007 -0.5254  0.3175 -0.0357
  797SOL    HW1 2390   2.163   2.208   3.033 -0.9054 -0.7223 -0.4527
  797SOL    HW2 2391   2.281   2.114   0.012  2.8405 -1.3844  0.5101
  798SOL     OW 2392   0.095   0.585   1.555  0.5910  0.1029 -0.3444
  798SOL    HW1 2393   0.184   0.629   1.525 -2.1696  0.9840  1.6548
  798SOL    HW2 2394   0.026   0.601   1.482 -1.1837 -0.7904 -0.5528
  799SOL     OW 2395   0.628   0.252   1.564  0.0590 -0.0400  0.2301
  799SOL    HW1 2396   0.671   0.284   1.649  0.1382  1.8323 -1.6427
  799SOL    HW2 2397   0.642   0.149   1.554 -1.3598 -1.3811  0.8916
  800SOL     OW 2398   3.074   2.472   0.191  0.5657 -0.1242 -0.1758
  800SOL    HW1 2399   3.080   2.380   0.234  1.6942 -1.0280  1.1771
  800SOL    HW2 2400   0.076   2.517   0.213 -1.0083 -0.8429 -0.1307
  801SOL     OW 2401   1.501   1.787   0.738  0.1580 -0.6337 -0.7602
  801SOL    HW1 2402   1.559   1.810   0.822 -0.4865 -0.3626  1.4113
  801SOL    HW2 2403   1.475   1.687   0.742  1.1068  1.0946 -2.9514
  802SOL     OW 2404   0.780   0.559   0.182  0.5976  0.5162  0.2086
  802SOL    HW1 2405   0.804   0.637   0.240 -2.7998 -0.0794 -1.7783
  802SOL    HW2 2406   0.777   0.573   0.081 -0.4842 -1.4806  0.4681
  803SOL     OW 2407   1.356   1.290   1.831  0.0160 -0.0432  0.1315
  803SOL    HW1 2408   1.299   1.210   1.838  0.7842  1.1892 -1.9560
  803SOL    HW2 2409   1.440   1.280   1.775  0.2739  2.1489 -0.7355
  804SOL     OW 2410   1.739   2.268   1.371  1.0991 -1.1072  0.3607
  804SOL    HW1 2411   1.820   2.332   1.371  0.4010 -0.3901 -0.4657
  804SOL    HW2 2412   1.677   2.297   1.287 -3.0954  1.6216 -4.1324
  805SOL     OW 2413   3.001   2.147   2.412 -0.1103 -0.3600 -0.3399
  805SOL    HW1 2414   2.969   2.062   2.359  1.6801 -0.9883 -1.6505
  805SOL    HW2 2415   2.985   2.227   2.354 -0.2749 -2.3222  0.7002
  806SOL     OW 2416   0.618   2.670   0.334 -0.0118 -0.2962 -0.1960
  806SOL    HW1 2417   0.616   2.742   0.269  1.9997 -4.2686  2.8011
  806SOL    HW2 2418   0.630   2.584   0.283  3.1596  0.2674 -0.2703
  807SOL     OW 2419   2.474   0.961   2.783  0.6514  0.2055 -0.0618
  807SOL    HW1 2420   2.563   0.961   2.836 -0.9210 -2.2461  2.2887
  807SOL    HW2 2421   2.433   0.870   2.776 -1.8031 -0.6382 -0.0033
  808SOL     OW 2422   1.423   2.005   1.072  0.1394 -0.4530 -0.5052
  808SOL    HW1 2423   1.506   2.049   1.033 -2.8854  0.2676 -1.1910
  808SOL    HW2 2424   1.410   2.034   1.171 -2.2228  1.5529 -0.8980
  809SOL     OW 2425   0.074   0.595   0.579 -0.3070  0.3113 -0.7306
  809SOL    HW1 2426   3.086   0.601   0.642  0.7554 -1.2218 -0.4143
  809SOL    HW2 2427   0.125   0.509   0.598  2.3961 -1.0855 -1.8614
  810SOL     OW 2428   1.115   1.414   0.020 -0.2627 -0.1514  0.0050
  810SOL    HW1 2429   1.196   1.433   0.078 -2.0091  1.6102  2.4003
  810SOL    HW2 2430   1.075   1.323   0.049  1.0205 -1.4649 -0.2843
  811SOL     OW 2431   1.470   2.807   1.396  0.8073 -0.0960 -0.4612
  811SOL    HW1 2432   1.566   2.783   1.374 -1.4985  0.1988  1.9190
  811SOL    HW2 2433   1.437   2.743   1.467 -2.2504  2.1821  0.1980
  812SOL     OW 2434   1.247   0.255   0.694 -0.0082 -0.5145  0.0767
  812SOL    HW1 2435   1.233   0.341   0.637  1.7539  0.0152 -0.9126
  812SOL    HW2 2436   1.347   0.247   0.719 -0.2975  1.5758 -1.9915
  813SOL     OW 2437   1.199   2.873   2.351  0.4053 -0.4477 -0.0139
  813SOL    HW1 2438   1.110   2.865   2.400  0.9627  1.0411 -1.2241
  813SOL    HW2 2439   1.179   2.893   2.253  1.0982  1.8244  1.8560
  814SOL     OW 2440   1.413   2.771   1.679 -0.1229 -0.1670 -0.8447
  814SOL    HW1 2441   1.331   2.723   1.710  0.7759  2.2959 -0.7790
  814SOL    HW2 2442   1.397   2.872   1.690 -1.6625 -2.1609  3.3711
  815SOL     OW 2443   0.020   2.868   0.037 -0.2665  0.1126 -0.1868
  815SOL    HW1 2444   3.082   2.957   0.006  1.4707  0.3298  1.6742
  815SOL    HW2 2445   3.032   2.807   0.052  1.7630 -1.1476  0.4778
  816SOL     OW 2446   2.398   1.289   2.731 -0.1030 -0.2266  0.3430
  816SOL    HW1 2447   2.318   1.241   2.700  0.9719  1.3073  1.3045
  816SOL    HW2 2448   2.484   1.252   2.687 -0.5314 -1.3620  0.8158
  817SOL     OW 2449   2.541   2.144   2.457  0.3128 -0.3326 -0.4123
  817SOL    HW1 2450   2.588   2.125   2.369 -0.1359 -0.8793 -2.3462
  817SOL    HW2 2451   2.550   2.239   2.490 -3.7703 -2.5512 -0.5457
  818SOL     OW 2452   1.030   0.958   0.075 -0.9457 -0.0843 -0.2346
  818SOL    HW1 2453   1.071   0.929   0.165 -0.6426 -0.2280  0.9111
  818SOL    HW2 2454   0.983   1.046   0.086 -1.7621 -0.0494  2.1033
  819SOL     OW 2455   1.651   1.341   0.074  0.1489 -0.9134  0.2500
  819SOL    HW1 2456   1.596   1.319   3.084 -0.5512  2.2345  1.2158
  819SOL    HW2 2457   1.589   1.344   0.156 -0.1096  1.6946  0.4013
  820SOL     OW 2458   0.186   0.896   0.803 -0.1498 -0.0804 -0.3653
  820SOL    HW1 2459   0.211   0.800   0.780 -2.1218 -2.1377 -0.2207
  820SOL    HW2 2460   0.181   0.952   0.716 -1.4288 -0.2424  1.3944
  821SOL     OW 2461   0.353   3.071   1.352  0.0975 -0.3001  0.9753
  821SOL    HW1 2462   0.368   0.078   1.354 -1.7948  0.7393  1.9754
  821SOL    HW2 2463   0.403   3.022   1.277 -0.6326 -0.5605 -3.4879
  822SOL     OW 2464   1.929   1.948   2.813 -0.3672 -0.2143 -0.4005
  822SOL    HW1 2465   1.883   2.037   2.815 -0.3527  1.2914  1.7349
  822SOL    HW2 2466   2.017   1.956   2.758 -0.5554  1.1542  3.4624
  823SOL     OW 2467   0.849   0.571   2.183  0.3606  0.2790  0.4695
  823SOL    HW1 2468   0.951   0.565   2.179  0.2810  1.0716 -0.9910
  823SOL    HW2 2469   0.818   0.647   2.119 -0.5466 -0.2696  0.3833
  824SOL     OW 2470   2.623   2.950   1.442  0.2397  0.1748 -0.1713
  824SOL    HW1 2471   2.576   3.008   1.512 -1.2412 -0.9833 -0.7388
  824SOL    HW2 2472   2.559   2.882   1.405 -0.2326 -0.5768  1.8992
  825SOL     OW 2473   0.218   1.458   2.435 -0.6307  0.1255 -0.2583
  825SOL    HW1 2474   0.314   1.495   2.426  2.1004 -0.1378  2.5581
  825SOL    HW2 2475   0.164   1.463   2.348  1.0128  1.4336 -2.1517
  826SOL     OW 2476   1.674   0.413   2.843  0.4535  0.4379 -0.0549
  826SOL    HW1 2477   1.626   0.469   2.768  0.1796 -0.1814 -0.7162
  826SOL    HW2 2478   1.691   0.318   2.806 -0.4638 -2.7215 -2.7717
  827SOL     OW 2479   0.242   2.358   2.175 -0.0298  0.2177  0.0409
  827SOL    HW1 2480   0.193   2.273   2.147  0.0692 -2.1056  1.3603
  827SOL    HW2 2481   0.263   2.412   2.092 -1.7854  0.7364 -1.4301
  828SOL     OW 2482   0.058   0.180   1.272 -0.3361  0.2064  0.4227
  828SOL    HW1 2483   0.055   0.272   1.315 -0.4881 -0.6857  1.3042
  828SOL    HW2 2484   0.001   0.174   1.190 -0.0144  0.0601  2.2632
  829SOL     OW 2485   1.323   1.595   1.872 -0.4436 -0.1412  0.3792
  829SOL    HW1 2486   1.309   1.501   1.843 -0.5359  1.4022 -1.3495
  829SOL    HW2 2487   1.246   1.632   1.925  2.4151 -0.2430  0.7839
  830SOL     OW 2488   1.053   1.034   1.521 -0.6475 -0.1708 -0.3020
  830SOL    HW1 2489   0.985   1.036   1.440  0.0099  3.4808 -2.3727
  830SOL    HW2 2490   1.026   1.065   1.613  2.2406  3.2604  0.4645
  831SOL     OW 2491   2.707   1.904   0.350 -0.2982 -0.1496  0.7634
  831SOL    HW1 2492   2.789   1.877   0.293 -0.7740 -2.4416 -0.3015
  831SOL    HW2 2493   2.713   1.881   0.452  1.3593  2.0214 -2.1548
  832SOL     OW 2494   1.157   2.462   0.182  0.2006 -0.3951  0.3722
  832SOL    HW1 2495   1.141   2.446   0.282  1.4215 -2.1843  0.9781
  832SOL    HW2 2496   1.172   2.370   0.140  0.4581  0.3616  0.9042
  833SOL     OW 2497   3.057   0.326   1.620  0.1636 -0.3737 -0.3773
  833SOL    HW1 2498   3.086   0.399   1.551  1.7827  0.0611  0.3746
  833SOL    HW2 2499   0.016   0.338   1.710  1.3669  1.4644  2.5115
  834SOL     OW 2500   3.037   0.729   0.971  0.2477 -0.1998  0.1951
  834SOL    HW1 2501   0.029   0.759   1.022  0.3703 -3.4057  2.0788
  834SOL    HW2 2502   3.010   0.782   0.887  0.8665 -2.1017 -0.5412
  835SOL     OW 2503   2.635   0.121   0.239  0.7852 -0.4077  0.0890
  835SOL    HW1 2504   2.703   0.183   0.284  0.2883 -0.8416 -0.9489
  835SOL    HW2 2505   2.672   0.036   0.211  1.0338  1.9354 -1.8350
  836SOL     OW 2506   0.842   2.053   2.731  0.7703 -0.0162  0.3427
  836SOL    HW1 2507   0.793   1.964   2.749  0.5355 -3.3156 -0.3608
  836SOL    HW2 2508   0.890   2.047   2.640 -1.3492 -0.9942  0.3747
  837SOL     OW 2509   1.452   1.915   0.288  0.6697  0.0390  0.0753
  837SOL    HW1 2510   1.534   1.875   0.337 -1.0378  1.7234  0.7789
  837SOL    HW2 2511   1.445   1.875   0.195  1.0876  0.9130  0.3765
  838SOL     OW 2512   2.493   0.953   2.206  0.3173  0.5777  0.0372
  838SOL    HW1 2513   2.426   1.002   2.262 -0.2131  2.9365  2.1037
  838SOL    HW2 2514   2.568   1.021   2.191  0.9951 -1.8872 -2.2151
  839SOL     OW 2515   0.800   1.020   2.320 -0.1846 -0.0195 -0.1025
  839SOL    HW1 2516   0.887   1.064   2.291  0.6524  0.5545  1.0358
  839SOL    HW2 2517   0.769   1.039   2.414 -0.5753 -3.4318 -1.8662
  840SOL     OW 2518   0.770   0.863   2.883  0.4485  0.1316  0.0763
  840SOL    HW1 2519   0.703   0.944   2.896 -2.8330  2.0076 -0.0696
  840SOL    HW2 2520   0.796   0.857   2.783 -0.5348 -1.4989 -1.6863
  841SOL     OW 2521   0.816   2.335   0.655 -0.0766  0.0800  0.4630
  841SOL    HW1 2522   0.739   2.271   0.650  0.3957 -0.7304  0.4674
  841SOL    HW2 2523   0.791   2.423   0.607 -0.7110  2.7182  1.4632
  842SOL     OW 2524   0.432   0.650   0.929  0.0826 -0.2710 -0.0156
  842SOL    HW1 2525   0.480   0.662   0.837  2.0782  2.3623  2.0164
  842SOL    HW2 2526   0.444   0.556   0.967 -0.2240  0.0033 -0.8688
  843SOL     OW 2527   0.689   0.911   1.473 -0.0154  0.0821 -0.5324
  843SOL    HW1 2528   0.725   0.853   1.551 -0.9404  0.0079  1.8652
  843SOL    HW2 2529   0.630   0.981   1.511 -1.3055  0.8446 -0.7761
  844SOL     OW 2530   2.082   2.514   2.723  0.0308 -0.2496  0.2080
  844SOL    HW1 2531   2.085   2.615   2.729 -2.8887 -1.1341 -2.4115
  844SOL    HW2 2532   2.151   2.485   2.651  1.0468  1.0930  0.2417
  845SOL     OW 2533   2.210   2.938   1.619  0.2453 -0.2215  0.1991
  845SOL    HW1 2534   2.212   3.018   1.556 -0.7469 -2.1578  1.6778
  845SOL    HW2 2535   2.182   2.856   1.563 -0.8637 -2.5684 -0.1058
  846SOL     OW 2536   1.994   0.966   2.557 -0.7749 -0.6135 -0.1462
  846SOL    HW1 2537   1.937   0.902   2.501  0.8475 -2.2380  1.4502
  846SOL    HW2 2538   2.053   0.907   2.614 -1.2503 -0.2206 -1.0534
  847SOL     OW 2539   2.822   2.948   1.846 -0.0443 -0.0952 -0.0364
  847SOL    HW1 2540   2.734   2.967   1.892  1.5308  1.1476  1.6991
  847SOL    HW2 2541   2.816   2.939   1.745 -0.4301  1.3127  1.1131
  848SOL     OW 2542   2.494   2.814   0.022  0.3281 -0.1843 -0.8098
  848SOL    HW1 2543   2.560   2.762   3.057  0.9304  0.6395 -0.5667
  848SOL    HW2 2544   2.490   2.798   0.122 -2.7888  1.1551 -0.4695
  849SOL     OW 2545   0.551   2.920   0.725  0.2376  0.7091  0.2900
  849SOL    HW1 2546   0.461   2.904   0.767  0.0094  0.1704 -1.6319
  849SOL    HW2 2547   0.590   3.005   0.759 -0.8150 -0.6553 -1.4399
  850SOL     OW 2548   0.527   2.238   0.792  0.3102 -0.0376 -0.3244
  850SOL    HW1 2549   0.494   2.319   0.737  0.0936  1.8108 -0.9680
  850SOL    HW2 2550   0.573   2.167   0.739  0.4819 -0.3543  2.7127
  851SOL     OW 2551   2.047   0.217   2.904  0.3168 -0.0835  0.1342
  851SOL    HW1 2552   1.989   0.297   2.898 -1.2155  0.3448 -1.0234
  851SOL    HW2 2553   1.986   0.136   2.916  0.5008 -0.4348 -1.1644
  852SOL     OW 2554   1.621   2.037   2.653 -0.0211  0.2202 -0.5072
  852SOL    HW1 2555   1.523   2.005   2.653  0.6600 -2.6856  1.6816
  852SOL    HW2 2556   1.677   2.006   2.569 -0.7586 -0.7131 -1.3958
  853SOL     OW 2557   0.129   1.968   0.263  0.7340  0.8115 -0.4078
  853SOL    HW1 2558   0.109   1.971   0.165  2.1444  1.4110 -1.7073
  853SOL    HW2 2559   0.097   1.876   0.294 -4.3261  1.4885  1.7905
  854SOL     OW 2560   1.702   0.572   2.083 -0.0387 -0.2206  0.4529
  854SOL    HW1 2561   1.639   0.502   2.126  0.6761 -0.0245  1.8848
  854SOL    HW2 2562   1.800   0.566   2.113 -0.1766  1.2606 -0.3872
  855SOL     OW 2563   0.202   2.671   0.492 -0.1334 -0.0529  0.0097
  855SOL    HW1 2564   0.298   2.673   0.523 -2.0474  1.4398  1.1796
  855SOL    HW2 2565   0.187   2.612   0.404  0.2734 -0.5406 -3.7249
  856SOL     OW 2566   0.357   2.748   2.371  0.1824  0.5172  0.4226
  856SOL    HW1 2567   0.298   2.792   2.444  0.5796  0.6476  1.6770
  856SOL    HW2 2568   0.438   2.809   2.357 -0.0488  2.7313 -1.4721
  857SOL     OW 2569   0.875   0.096   1.609  0.1088  0.0225 -0.0317
  857SOL    HW1 2570   0.891   0.166   1.539 -0.8869 -0.3131 -3.0930
  857SOL    HW2 2571   0.803   0.034   1.584 -0.2843 -0.9381  2.2407
  858SOL     OW 2572   0.386   2.043   2.016  0.2616 -0.0914  0.2126
  858SOL    HW1 2573   0.291   2.078   2.041 -2.1782  0.3711 -2.0650
  858SOL    HW2 2574   0.419   2.082   1.925  3.0073  0.3155 -2.4192
  859SOL     OW 2575   1.966   2.597   1.777 -0.3164  0.4672  0.2150
  859SOL    HW1 2576   1.915   2.627   1.859 -1.0332 -1.2552  0.5822
  859SOL    HW2 2577   1.951   2.503   1.760 -0.9464  4.5517 -1.9046
  860SOL     OW 2578   1.641   0.435   0.475  0.3910 -0.3790  0.2346
  860SOL    HW1 2579   1.557   0.449   0.427  3.1313  3.0243 -0.7496
  860SOL    HW2 2580   1.635   0.434   0.579  0.1091  0.0693  2.1175
  861SOL     OW 2581   2.901   0.563   0.660  0.7031  0.5617 -0.0355
  861SOL    HW1 2582   2.850   0.641   0.701 -1.6402 -1.9370 -0.1882
  861SOL    HW2 2583   2.898   0.567   0.555  1.4197 -2.1849 -4.5196
  862SOL     OW 2584   2.010   0.675   1.618  0.4984  0.0341 -0.0229
  862SOL    HW1 2585   1.934   0.618   1.574 -0.1305 -0.3859  1.6654
  862SOL    HW2 2586   2.069   0.623   1.684  2.5850  0.5936  1.0816
  863SOL     OW 2587   0.631   1.098   1.060 -0.2904 -0.0047 -0.2685
  863SOL    HW1 2588   0.614   0.997   1.055  1.4893 -1.3670 -0.2043
  863SOL    HW2 2589   0.729   1.119   1.088  1.9826 -0.1979  2.4545
  864SOL     OW 2590   2.864   2.737   2.010 -0.4407  0.1680 -0.0748
  864SOL    HW1 2591   2.915   2.758   2.093 -1.1949 -2.7717 -1.6146
  864SOL    HW2 2592   2.845   2.820   1.956 -1.3923  1.3000 -1.4652
  865SOL     OW 2593   1.096   0.460   2.204 -0.5361 -0.8971 -0.3770
  865SOL    HW1 2594   1.105   0.424   2.305  1.5180 -1.8595 -0.4923
  865SOL    HW2 2595   1.176   0.518   2.176 -0.6380  2.3959 -0.1293
  866SOL     OW 2596   2.500   2.768   0.299 -0.0996 -0.8223  0.3183
  866SOL    HW1 2597   2.411   2.807   0.331  0.0338 -0.6863  0.1242
  866SOL    HW2 2598   2.541   2.714   0.373 -1.5376  0.6646  1.7256
  867SOL     OW 2599   2.652   2.596   0.469 -0.1571 -0.5485  0.1569
  867SOL    HW1 2600   2.700   2.513   0.431  0.5017 -2.9557 -1.6646
  867SOL    HW2 2601   2.716   2.655   0.524  0.9462  0.2241 -0.5280
  868SOL     OW 2602   1.781   1.221   2.790 -0.6417 -1.3456 -0.0732
  868SOL    HW1 2603   1.840   1.152   2.835  0.9852  0.3300  0.0084
  868SOL    HW2 2604   1.699   1.246   2.847 -0.2074 -1.0084  2.6498
  869SOL     OW 2605   2.797   2.371   0.419 -0.2036 -0.0034 -0.1725
  869SOL    HW1 2606   2.773   2.274   0.421 -0.7273  0.4749 -0.0833
  869SOL    HW2 2607   2.875   2.381   0.351 -0.4301  1.4197 -0.9904
  870SOL     OW 2608   2.505   2.108   0.659  0.4468  0.2659 -0.5301
  870SOL    HW1 2609   2.481   2.130   0.755  1.2566  2.4763  0.1584
  870SOL    HW2 2610   2.474   2.012   0.645 -0.6066 -1.5240 -1.7491
  871SOL     OW 2611   0.537   1.376   1.136  0.5591 -0.3236 -0.1206
  871SOL    HW1 2612   0.588   1.291   1.113 -0.4937 -0.7650  1.5070
  871SOL    HW2 2613   0.497   1.388   1.231  0.3158  3.2307 -0.2288
  872SOL     OW 2614   1.248   1.773   2.461 -0.7230  0.5956  0.2060
  872SOL    HW1 2615   1.164   1.730   2.426  0.9354 -1.2893  0.2920
  872SOL    HW2 2616   1.328   1.711   2.467  2.5235  1.2033  0.3102
  873SOL     OW 2617   0.740   2.619   2.159  0.6782  0.0959  0.5220
  873SOL    HW1 2618   0.743   2.699   2.097  0.5511  0.4203  0.9062
  873SOL    HW2 2619   0.701   2.535   2.113 -2.0785 -2.9833  1.2860
  874SOL     OW 2620   0.875   0.597   1.251  0.3078  0.4729 -0.3664
  874SOL    HW1 2621   0.784   0.646   1.272 -1.1292 -0.8793 -0.1755
  874SOL    HW2 2622   0.894   0.529   1.318  0.0688  0.9714  0.6832
  875SOL     OW 2623   2.893   0.394   1.073  0.5515  0.6447 -0.1381
  875SOL    HW1 2624   2.978   0.426   1.121  0.9193  0.0854 -0.8459
  875SOL    HW2 2625   2.896   0.290   1.083 -0.2978  0.0728  0.6803
  876SOL     OW 2626   0.554   1.026   0.146  0.3441 -0.1854 -0.1789
  876SOL    HW1 2627   0.465   0.985   0.180 -0.6471 -3.4992  0.5820
  876SOL    HW2 2628   0.563   1.004   0.047  1.0182  0.6223  0.5070
  877SOL     OW 2629   1.334   0.925   1.599 -0.2582 -0.0354 -0.5799
  877SOL    HW1 2630   1.290   0.846   1.559  0.5578 -0.4690 -1.9931
  877SOL    HW2 2631   1.335   1.008   1.542 -1.7199  1.5956  1.9831
  878SOL     OW 2632   2.299   2.283   0.540  0.2350 -0.0893 -0.5587
  878SOL    HW1 2633   2.272   2.223   0.465  1.3285  1.0009  3.4994
  878SOL    HW2 2634   2.381   2.242   0.578 -1.3493  0.3008  0.8480
  879SOL     OW 2635   2.745   1.684   1.629 -0.1819 -0.0864  0.3388
  879SOL    HW1 2636   2.793   1.761   1.675 -0.7581 -0.0848  0.5584
  879SOL    HW2 2637   2.792   1.598   1.653  0.0765  0.1974 -1.5186
  880SOL     OW 2638   1.540   2.464   0.667 -0.2035  0.1317  0.2389
  880SOL    HW1 2639   1.476   2.488   0.740 -0.2570 -0.5627  0.4836
  880SOL    HW2 2640   1.533   2.364   0.643 -0.3433 -1.1443  1.1787
  881SOL     OW 2641   0.440   2.432   0.630 -0.4384 -0.6500 -0.7020
  881SOL    HW1 2642   0.413   2.383   0.547 -0.6353 -0.4812  1.1618
  881SOL    HW2 2643   0.423   2.537   0.621 -0.8412  2.0579 -3.3767
  882SOL     OW 2644   1.983   0.677   0.784 -0.4689  0.0944  0.3780
  882SOL    HW1 2645   2.060   0.613   0.771 -2.7449  1.4516  1.4172
  882SOL    HW2 2646   1.977   0.701   0.882 -0.2970 -3.0676 -1.0791
  883SOL     OW 2647   1.754   0.753   1.717 -0.7700  0.2473  0.5622
  883SOL    HW1 2648   1.698   0.668   1.732  1.8503  2.1457  1.1941
  883SOL    HW2 2649   1.851   0.740   1.688  0.5959 -2.7320 -0.2171
  884SOL     OW 2650   2.440   0.316   0.095 -0.1263 -0.1055 -0.0218
  884SOL    HW1 2651   2.489   0.249   0.160 -0.6585 -0.9554 -0.7087
  884SOL    HW2 2652   2.348   0.273   0.070 -2.4240 -0.2347 -1.5375
  885SOL     OW 2653   1.012   1.426   2.636 -0.7914 -0.2047 -0.3686
  885SOL    HW1 2654   1.090   1.411   2.696 -0.3814 -2.7983  1.6673
  885SOL    HW2 2655   1.005   1.526   2.609  0.7141  3.3229  0.1654
  886SOL     OW 2656   1.366   1.947   2.643 -0.1099 -0.6273  0.0711
  886SOL    HW1 2657   1.312   1.881   2.596 -0.7284 -0.0955 -0.0601
  886SOL    HW2 2658   1.310   2.033   2.656  0.2094  0.2887 -0.9443
  887SOL     OW 2659   1.231   0.412   1.254 -0.0967  0.7094  0.1882
  887SOL    HW1 2660   1.322   0.382   1.210  2.8084 -1.7846 -0.7015
  887SOL    HW2 2661   1.190   0.487   1.196  1.3752  3.2957 -1.7533
  888SOL     OW 2662   2.512   0.746   1.678  0.3654 -0.7583 -0.2571
  888SOL    HW1 2663   2.449   0.801   1.740 -1.8591  1.3072  2.3579
  888SOL    HW2 2664   2.479   0.649   1.662 -3.2127  0.2975 -0.1064
  889SOL     OW 2665   0.175   2.733   0.765 -0.3162 -0.4001  0.7869
  889SOL    HW1 2666   0.172   2.721   0.663  1.8899  0.9730 -0.9049
  889SOL    HW2 2667   0.174   2.637   0.811 -1.6749 -2.3855 -2.1431
  890SOL     OW 2668   1.666   2.043   0.760  0.5733  0.3679 -0.2782
  890SOL    HW1 2669   1.764   2.033   0.728  2.6471  1.6631  1.6780
  890SOL    HW2 2670   1.615   2.108   0.703  3.1748 -0.3228  2.1596
  891SOL     OW 2671   0.214   0.906   2.841  0.4945  0.3404  0.2194
  891SOL    HW1 2672   0.221   1.009   2.848  0.7613 -0.8234 -2.0751
  891SOL    HW2 2673   0.303   0.861   2.838  3.4251  2.0493  1.9700
  892SOL     OW 2674   2.767   2.228   1.235 -0.2403  0.0704  0.2340
  892SOL    HW1 2675   2.821   2.173   1.165  1.5162 -1.8075 -2.1939
  892SOL    HW2 2676   2.675   2.253   1.197  1.4701 -1.6806 -2.0677
  893SOL     OW 2677   1.469   0.393   1.104 -0.2574  0.2374  0.8717
  893SOL    HW1 2678   1.507   0.301   1.086 -0.1178  0.6977  1.6079
  893SOL    HW2 2679   1.532   0.452   1.157 -2.4526 -0.6234  0.4304
  894SOL     OW 2680   2.621   0.470   0.713 -0.0466  0.2011  0.2268
  894SOL    HW1 2681   2.653   0.554   0.761 -0.0150 -0.9882 -1.7325
  894SOL    HW2 2682   2.562   0.508   0.634 -3.3817  2.4885  0.3986
  895SOL     OW 2683   1.677   1.202   2.370  0.0712  0.1810 -0.0555
  895SOL    HW1 2684   1.628   1.283   2.389  0.1718 -2.4672 -1.1823
  895SOL    HW2 2685   1.769   1.208   2.420  0.3088 -0.2198  3.7939
  896SOL     OW 2686   1.450   0.337   1.737  0.2125 -0.5582 -0.5057
  896SOL    HW1 2687   1.533   0.287   1.697  1.4545 -1.7132 -1.7933
  896SOL    HW2 2688   1.380   0.361   1.667 -0.9182  1.9595 -4.2899
  897SOL     OW 2689   0.649   1.451   1.850  0.2337 -0.0642 -0.1124
  897SOL    HW1 2690   0.666   1.396   1.769 -0.5659 -1.8132  0.9378
  897SOL    HW2 2691   0.715   1.530   1.848 -2.2988 -0.7845 -0.1348
  898SOL     OW 2692   2.100   2.818   2.405 -0.3648  0.2702  0.3527
  898SOL    HW1 2693   2.058   2.769   2.321 -2.8645 -0.6236 -4.2447
  898SOL    HW2 2694   2.189   2.773   2.425  0.9581 -0.4992  0.4875
  899SOL     OW 2695   1.083   1.297   1.132  0.2543 -0.4110 -0.1068
  899SOL    HW1 2696   1.178   1.285   1.098  0.3967  0.1007 -1.8806
  899SOL    HW2 2697   1.071   1.312   1.234 -0.4178 -0.0051  1.3369
  900SOL     OW 2698   1.108   2.026   2.917  0.7478 -0.0361 -0.0360
  900SOL    HW1 2699   1.113   2.099   2.986  0.6173 -4.5330 -1.2159
  900SOL    HW2 2700   1.015   1.982   2.920  0.4014  0.0149  0.2616
  901SOL     OW 2701   0.795   2.003   2.369  0.0726  0.0253  0.4404
  901SOL    HW1 2702   0.796   1.997   2.265  0.4705  1.5841  0.9631
  901SOL    HW2 2703   0.753   1.918   2.406  0.6459  2.9750  0.7141
  902SOL     OW 2704   2.316   1.796   0.437 -0.2242  0.6499 -0.7886
  902SOL    HW1 2705   2.353   1.762   0.350 -1.2650 -1.2588 -1.8572
  902SOL    HW2 2706   2.365   1.749   0.510 -0.2936  1.8086 -3.0118
  903SOL     OW 2707   1.991   1.809   0.406  0.1175 -0.0893  0.1992
  903SOL    HW1 2708   1.951   1.716   0.393 -1.6803 -0.0850  0.2653
  903SOL    HW2 2709   2.090   1.806   0.403  1.7567  0.3228  2.3141
  904SOL     OW 2710   1.206   0.723   2.357 -0.1156 -0.0020  0.2258
  904SOL    HW1 2711   1.166   0.801   2.303 -1.0642 -0.0990 -0.3462
  904SOL    HW2 2712   1.242   0.656   2.289  0.2741 -2.0025 -0.2925
  905SOL     OW 2713   2.661   0.205   0.790  0.6448 -0.0153 -0.3430
  905SOL    HW1 2714   2.618   0.298   0.807 -1.6729  1.5257  1.0215
  905SOL    HW2 2715   2.763   0.211   0.778  2.0057 -0.1027 -2.0392
  906SOL     OW 2716   2.753   1.861   0.613 -0.2324 -0.1004  0.0275
  906SOL    HW1 2717   2.761   1.779   0.675  0.0557 -1.7480  1.4806
  906SOL    HW2 2718   2.819   1.930   0.644  1.5121 -0.0202 -0.1670
  907SOL     OW 2719   1.418   0.368   0.315 -0.1901 -0.1715  0.3084
  907SOL    HW1 2720   1.469   0.278   0.325  0.9941 -1.8058  2.5813
  907SOL    HW2 2721   1.391   0.393   0.218 -0.4570 -3.1437  0.1195
  908SOL     OW 2722   2.006   0.298   1.403 -0.0807 -0.0741 -0.2407
  908SOL    HW1 2723   1.973   0.200   1.386  1.4455 -3.7109 -2.6022
  908SOL    HW2 2724   2.038   0.303   1.499 -2.0030  1.5192 -1.2182
  909SOL     OW 2725   2.823   0.685   1.113  0.0184 -0.3121  0.4514
  909SOL    HW1 2726   2.921   0.697   1.077  2.6060  0.5708  1.1782
  909SOL    HW2 2727   2.795   0.584   1.103  0.8409 -2.6535 -0.3945
  910SOL     OW 2728   0.953   2.824   2.479  0.4369 -0.0034 -1.0168
  910SOL    HW1 2729   0.969   2.821   2.581 -0.7564  1.5254  0.1524
  910SOL    HW2 2730   0.868   2.779   2.451 -1.3768  1.0819 -0.5032
  911SOL     OW 2731   2.339   1.112   1.757  0.2303  0.3896  0.4183
  911SOL    HW1 2732   2.413   1.125   1.688  0.9583  1.4694 -0.0168
  911SOL    HW2 2733   2.248   1.118   1.708  0.0695  1.0036 -1.5966
  912SOL     OW 2734   2.492   2.199   1.527 -0.4648 -0.6029 -0.0398
  912SOL    HW1 2735   2.584   2.220   1.570  2.3140  0.2711  0.4138
  912SOL    HW2 2736   2.506   2.151   1.436 -0.9069 -2.2511  1.2818
  913SOL     OW 2737   2.501   2.339   1.158  0.0081 -0.2709 -0.1098
  913SOL    HW1 2738   2.453   2.272   1.097  1.3719 -0.2413 -2.2437
  913SOL    HW2 2739   2.432   2.370   1.228 -2.4214 -0.0774  1.1270
  914SOL     OW 2740   2.075   1.861   1.426 -0.5639 -0.3577 -0.3440
  914SOL    HW1 2741   2.055   1.766   1.387  0.5803  1.5568  1.4251
  914SOL    HW2 2742   2.053   1.860   1.530 -0.0291  0.6725 -0.2673
  915SOL     OW 2743   1.430   1.680   1.368  0.0180  0.3497  0.1450
  915SOL    HW1 2744   1.422   1.751   1.438 -0.7812  0.3247 -1.2045
  915SOL    HW2 2745   1.417   1.722   1.275 -1.4622 -1.6911 -4.1910
  916SOL     OW 2746   2.874   2.792   1.272 -0.4682  0.6633  0.6444
  916SOL    HW1 2747   2.847   2.862   1.201 -0.3037  1.0795 -2.1241
  916SOL    HW2 2748   2.796   2.731   1.292 -0.5470 -1.1991 -0.7466
  917SOL     OW 2749   2.496   1.767   2.556  0.1031  0.3563  0.1430
  917SOL    HW1 2750   2.414   1.817   2.536  1.7788  0.2394 -0.7202
  917SOL    HW2 2751   2.495   1.722   2.646  0.9523  1.4036 -1.0384
  918SOL     OW 2752   1.796   1.943   2.441 -0.4882  0.3124 -0.5930
  918SOL    HW1 2753   1.759   1.943   2.347  1.4524  0.7574  1.5777
  918SOL    HW2 2754   1.840   1.850   2.458  3.0528  0.1938 -0.6283
  919SOL     OW 2755   1.516   2.211   1.770 -0.1156 -0.5086 -0.1529
  919SOL    HW1 2756   1.435   2.206   1.833 -0.5152  1.9766 -2.8742
  919SOL    HW2 2757   1.537   2.115   1.736  0.0377  1.2204  1.0996
  920SOL     OW 2758   0.014   0.124   2.865  0.3363 -0.2884  0.1318
  920SOL    HW1 2759   0.042   0.199   2.806 -0.2052 -0.8645  0.4931
  920SOL    HW2 2760   3.082   0.040   2.813 -0.9993  1.8107  1.5956
  921SOL     OW 2761   2.559   0.023   2.434 -0.5734 -0.1927  0.1765
  921SOL    HW1 2762   2.629   0.017   2.357  2.0282  2.4581  0.6819
  921SOL    HW2 2763   2.527   0.116   2.443  0.8280 -2.9504  0.9735
  922SOL     OW 2764   2.371   1.649   1.133 -0.0837  0.4299 -0.4284
  922SOL    HW1 2765   2.359   1.651   1.232 -0.2900 -1.0964  0.5871
  922SOL    HW2 2766   2.297   1.708   1.094 -2.4098 -0.2169 -3.0270
  923SOL     OW 2767   0.558   1.697   0.734  0.3125  0.4411  0.4999
  923SOL    HW1 2768   0.605   1.667   0.648  2.1589 -2.0117 -2.8192
  923SOL    HW2 2769   0.629   1.748   0.789  0.8953  1.8895  2.1585
  924SOL     OW 2770   1.513   0.549   2.982 -0.1159 -0.1284  0.0949
  924SOL    HW1 2771   1.564   0.635   3.005  1.2121 -0.2014 -1.0263
  924SOL    HW2 2772   1.580   0.492   2.935 -0.4975  0.9040  1.1946
  925SOL     OW 2773   2.662   1.353   0.737  0.1609 -0.1055 -0.1681
  925SOL    HW1 2774   2.596   1.279   0.716  2.5048 -0.0122 -0.7950
  925SOL    HW2 2775   2.752   1.345   0.692  0.2127  1.3884  2.8411
  926SOL     OW 2776   2.761   1.054   0.977 -0.0275 -0.1895 -0.7223
  926SOL    HW1 2777   2.743   0.995   1.060  1.7483 -1.4895  1.6517
  926SOL    HW2 2778   2.858   1.037   0.939 -0.0441 -0.5604 -0.1940
  927SOL     OW 2779   0.586   1.238   0.315 -0.4954 -0.4916 -0.0178
  927SOL    HW1 2780   0.594   1.167   0.244 -2.6377  3.0002  3.4302
  927SOL    HW2 2781   0.678   1.273   0.339 -1.4275 -0.4980  0.2327
  928SOL     OW 2782   0.163   0.009   2.366 -0.1507  0.1636 -0.1466
  928SOL    HW1 2783   0.226   0.058   2.437  1.1841  1.9675  1.0907
  928SOL    HW2 2784   0.204   0.040   2.279 -1.1360 -0.3191  1.8210
  929SOL     OW 2785   2.938   0.144   1.102 -0.0854  0.5320 -0.2710
  929SOL    HW1 2786   2.958   0.092   1.015  1.6530  1.6962 -2.6171
  929SOL    HW2 2787   2.871   0.096   1.167 -1.2767 -2.3659  0.6384
  930SOL     OW 2788   1.966   2.325   1.749  0.0094 -0.2356  0.0090
  930SOL    HW1 2789   1.871   2.332   1.790  0.4383 -0.3579  1.0115
  930SOL    HW2 2790   1.967   2.235   1.701 -0.4512  1.1644  0.4087
  931SOL     OW 2791   1.775   1.157   0.969 -0.0124  0.1746  0.8093
  931SOL    HW1 2792   1.840   1.146   1.048 -0.8033 -0.6356 -3.5845
  931SOL    HW2 2793   1.818   1.134   0.878 -1.9145  0.5447 -0.5817
  932SOL     OW 2794   2.963   0.930   1.298 -0.2838 -0.3395 -0.3529
  932SOL    HW1 2795   2.874   0.921   1.249  2.2604 -0.0559  1.5198
  932SOL    HW2 2796   3.004   1.022   1.269  1.9046 -1.1383 -2.4715
  933SOL     OW 2797   2.476   1.723   1.667  0.3727 -0.1238 -0.0871
  933SOL    HW1 2798   2.461   1.823   1.685  0.8777  2.9014 -3.1349
  933SOL    HW2 2799   2.575   1.694   1.685  2.1031 -0.2780 -2.2502
  934SOL     OW 2800   1.905   0.439   1.162  0.0144  0.3843  0.4827
  934SOL    HW1 2801   1.942   0.392   1.246 -0.3241  1.1569 -0.8766
  934SOL    HW2 2802   1.902   0.372   1.081  2.0968 -2.4554  0.0331
  935SOL     OW 2803   0.109   1.476   1.173  0.0527 -0.3409 -0.1120
  935SOL    HW1 2804   0.012   1.478   1.132 -0.7537 -0.1262 -0.5739
  935SOL    HW2 2805   0.131   1.381   1.198 -0.8295  1.5937 -2.2011
  936SOL     OW 2806   3.035   1.112   0.950 -0.2207 -0.4615 -0.0290
  936SOL    HW1 2807   3.017   1.145   1.044  1.2029  0.9925  2.0878
  936SOL    HW2 2808   0.043   1.136   0.938 -1.4350  2.5705  1.1416
  937SOL     OW 2809   1.539   2.886   0.846 -0.7227 -0.4152  0.0865
  937SOL    HW1 2810   1.462   2.940   0.890 -1.4774  1.1412  3.3306
  937SOL    HW2 2811   1.508   2.854   0.755  1.4427 -0.8200 -0.6745
  938SOL     OW 2812   2.665   2.373   0.695  0.7064 -0.3225 -0.1615
  938SOL    HW1 2813   2.693   2.370   0.601 -3.7241 -1.2894  0.7578
  938SOL    HW2 2814   2.609   2.454   0.716 -0.3551  0.4782 -1.0273
  939SOL     OW 2815   0.440   1.831   2.962 -0.1710 -0.2206  0.1079
  939SOL    HW1 2816   0.520   1.831   2.895  1.4825  2.7701 -4.2508
  939SOL    HW2 2817   0.474   1.837   3.056  1.3966 -2.2964 -1.9071
  940SOL     OW 2818   2.766   3.062   2.795 -0.0591  0.1595  0.0886
  940SOL    HW1 2819   2.869   3.056   2.787 -1.0749  0.3854  2.3260
  940SOL    HW2 2820   2.734   2.972   2.761  3.4559  2.3389 -1.9660
  941SOL     OW 2821   1.031   2.694   0.112  0.6979  0.0171  0.1704
  941SOL    HW1 2822   1.070   2.601   0.123  1.8862  0.9943 -0.8479
  941SOL    HW2 2823   1.086   2.752   0.046  1.2837  2.0358  0.2249
  942SOL     OW 2824   1.600   1.955   1.718  0.2626 -0.3688 -0.2799
  942SOL    HW1 2825   1.665   1.941   1.794  0.3877  0.5737  1.0901
  942SOL    HW2 2826   1.654   1.968   1.631  3.6054 -0.3719 -2.8416
  943SOL     OW 2827   2.227   1.398   1.518 -0.7038 -0.6495  0.0906
  943SOL    HW1 2828   2.320   1.422   1.551 -0.6407  1.4483  2.2356
  943SOL    HW2 2829   2.193   1.315   1.564 -0.3430 -1.4009  0.5817
  944SOL     OW 2830   2.082   0.925   1.508 -0.0924  0.0937 -0.1083
  944SOL    HW1 2831   2.052   0.915   1.409  0.7193  1.0756 -2.0059
  944SOL    HW2 2832   2.065   0.839   1.559 -0.1715  1.5007  1.2182
  945SOL     OW 2833   3.091   2.890   1.084 -0.0352  0.3650 -0.0118
  945SOL    HW1 2834   3.076   2.793   1.051 -0.0063 -1.5660 -0.7029
  945SOL    HW2 2835   3.016   2.919   1.147 -0.6572 -1.3538  1.8742
  946SOL     OW 2836   0.244   0.678   1.875  0.2796 -0.1822 -0.0878
  946SOL    HW1 2837   0.159   0.703   1.824 -1.9785 -1.0330  0.9649
  946SOL    HW2 2838   0.326   0.669   1.816 -0.6422  1.5338  0.1540
  947SOL     OW 2839   0.460   2.707   0.558  0.0746 -0.7028 -0.1355
  947SOL    HW1 2840   0.528   2.694   0.482 -1.1816  1.3682  0.2500
  947SOL    HW2 2841   0.493   2.783   0.620  1.5802  0.0087  1.1472
  948SOL     OW 2842   3.032   1.231   1.844 -0.3084  0.0763 -0.3513
  948SOL    HW1 2843   3.076   1.251   1.754 -1.7246 -0.0670 -0.0727
  948SOL    HW2 2844   3.033   1.132   1.868  1.0420 -0.2162  0.6934
  949SOL     OW 2845   0.370   0.999   2.314 -0.1072  0.0667  0.1440
  949SOL    HW1 2846   0.385   0.962   2.414 -0.6243  0.0896  3.8533
  949SOL    HW2 2847   0.316   0.938   2.253 -1.4219 -1.2497 -0.1846
  950SOL     OW 2848   0.809   0.786   0.881  0.0878  0.7297 -0.5455
  950SOL    HW1 2849   0.766   0.826   0.964  1.1982 -0.1922  0.1751
  950SOL    HW2 2850   0.851   0.865   0.831  2.6765  1.5619  0.8203
  951SOL     OW 2851   1.152   1.928   1.925  0.0722 -0.3062 -0.2508
  951SOL    HW1 2852   1.201   1.887   2.003  0.1027  1.3527 -0.9695
  951SOL    HW2 2853   1.059   1.959   1.950  0.1073  0.4916  0.1261
  952SOL     OW 2854   0.650   1.831   2.793 -0.5447  0.3802  0.1047
  952SOL    HW1 2855   0.738   1.789   2.829  2.3728  1.7717  1.4563
  952SOL    HW2 2856   0.601   1.766   2.725 -1.1205 -1.7618  3.0682
  953SOL     OW 2857   1.752   3.036   2.225  0.1100 -0.4552 -0.4283
  953SOL    HW1 2858   1.785   0.035   2.262  3.4202  1.5631 -0.5222
  953SOL    HW2 2859   1.723   2.976   2.303 -1.4445 -1.3508  1.7647
  954SOL     OW 2860   1.915   1.144   0.402  0.6030 -0.1624 -0.1227
  954SOL    HW1 2861   1.939   1.237   0.426  0.9849 -1.6250 -0.4682
  954SOL    HW2 2862   1.893   1.154   0.305 -1.1773 -2.7656 -1.1142
  955SOL     OW 2863   0.690   2.376   2.063  0.5156 -0.1109  0.2458
  955SOL    HW1 2864   0.669   2.285   2.106  0.2282 -0.2423 -0.7720
  955SOL    HW2 2865   0.672   2.361   1.963  0.1593 -1.6584 -1.4164
  956SOL     OW 2866   1.659   0.966   1.390  0.2534 -0.4273 -0.1699
  956SOL    HW1 2867   1.676   0.866   1.366 -0.9122  0.6840  1.0650
  956SOL    HW2 2868   1.691   0.984   1.490  0.4066 -2.1142  0.8083
  957SOL     OW 2869   2.188   1.446   2.393  0.5955 -0.6362 -0.8179
  957SOL    HW1 2870   2.148   1.479   2.483  0.1395  0.4613 -1.3825
  957SOL    HW2 2871   2.120   1.388   2.345  0.5191  1.1214  1.1415
  958SOL     OW 2872   1.351   2.527   0.853 -0.6405  0.3135 -0.3296
  958SOL    HW1 2873   1.298   2.607   0.818  1.2085 -2.0409  0.4427
  958SOL    HW2 2874   1.360   2.533   0.953  0.2906 -0.3916 -0.1836
  959SOL     OW 2875   1.805   1.489   2.724 -0.1168 -0.0630  0.4945
  959SOL    HW1 2876   1.770   1.398   2.753 -2.4654 -0.2408 -0.4891
  959SOL    HW2 2877   1.770   1.555   2.793  1.5844 -2.0462 -1.1642
  960SOL     OW 2878   0.160   0.409   0.136  0.0748  0.2905  0.2975
  960SOL    HW1 2879   0.101   0.478   0.093 -1.6444  0.4493 -0.0889
  960SOL    HW2 2880   0.177   0.327   0.075 -0.5126  1.4664  2.3959
  961SOL     OW 2881   0.478   0.466   2.172 -0.2906 -0.4475  0.2820
  961SOL    HW1 2882   0.553   0.423   2.227  0.5513  0.5313 -1.9692
  961SOL    HW2 2883   0.401   0.503   2.229 -0.4654 -0.3603  0.6477
  962SOL     OW 2884   0.850   1.497   2.983  0.0912 -0.0008  0.3089
  962SOL    HW1 2885   0.936   1.474   3.033  0.2813 -0.8992 -0.3356
  962SOL    HW2 2886   0.775   1.441   3.011  3.9414  0.3543  0.7086
  963SOL     OW 2887   2.042   1.883   3.066 -0.7266  0.1438 -0.3693
  963SOL    HW1 2888   1.981   1.911   2.994  1.0569  1.7049  0.6544
  963SOL    HW2 2889   2.110   1.958   3.080  1.4930  1.3513 -2.4931
  964SOL     OW 2890   1.323   3.018   0.943 -0.2572  0.2631  0.5366
  964SOL    HW1 2891   1.248   2.985   0.880 -3.7949  0.8620 -0.8928
  964SOL    HW2 2892   1.286   3.002   1.036  2.1630 -0.3648  0.2696
  965SOL     OW 2893   0.586   2.599   1.162 -0.6051 -0.3356 -0.2200
  965SOL    HW1 2894   0.497   2.648   1.149  2.5699 -0.5735 -0.2468
  965SOL    HW2 2895   0.586   2.504   1.115  0.4955 -3.1246 -0.7404
  966SOL     OW 2896   3.031   1.458   0.058  0.0978  0.5209  0.6700
  966SOL    HW1 2897   2.959   1.512   0.012  1.9702 -0.7146 -0.0713
  966SOL    HW2 2898   3.026   1.445   0.157 -1.5239 -1.6559 -1.4531
  967SOL     OW 2899   1.765   3.048   1.618  0.1923 -0.0026 -0.0654
  967SOL    HW1 2900   1.724   3.063   1.531  3.3055 -0.5197  0.1993
  967SOL    HW2 2901   1.745   2.955   1.655 -1.2239 -0.5424 -0.7674
  968SOL     OW 2902   2.029   0.912   0.643 -0.4618  0.5297 -0.3218
  968SOL    HW1 2903   1.936   0.931   0.600 -2.9646  0.1480  0.5571
  968SOL    HW2 2904   2.021   0.827   0.698 -0.7773  2.1186  0.4917
  969SOL     OW 2905   0.425   1.778   2.009 -0.3579 -0.0086 -0.2042
  969SOL    HW1 2906   0.486   1.776   1.927 -0.6688 -1.3592 -1.3209
  969SOL    HW2 2907   0.399   1.869   2.043 -0.9778 -3.1441  2.2687
  970SOL     OW 2908   2.684   1.411   1.409 -0.3715 -0.2179  0.1019
  970SOL    HW1 2909   2.717   1.312   1.392  0.9532  0.5701  0.4599
  970SOL    HW2 2910   2.672   1.461   1.321  1.5404 -1.0683 -3.0664
  971SOL     OW 2911   1.216   0.522   1.603 -0.3627 -0.0710  0.3103
  971SOL    HW1 2912   1.140   0.471   1.553  0.8624 -0.1594 -1.7012
  971SOL    HW2 2913   1.193   0.536   1.702 -1.8792  1.6400  1.7428
  972SOL     OW 2914   0.949   0.377   2.530  0.2405 -0.4939  0.6345
  972SOL    HW1 2915   0.888   0.301   2.544  1.8193  2.0179  4.1754
  972SOL    HW2 2916   0.902   0.469   2.534 -0.7936  0.4365 -0.1205
  973SOL     OW 2917   2.946   1.503   1.053 -0.1529 -0.4599  0.0454
  973SOL    HW1 2918   2.854   1.459   1.042  0.7680 -1.3546  3.4778
  973SOL    HW2 2919   2.977   1.537   0.959 -0.5203  2.0221  2.3252
  974SOL     OW 2920   1.819   1.002   1.911 -0.6433 -0.2686 -0.0849
  974SOL    HW1 2921   1.878   1.067   1.859  1.1707 -1.1780  2.1571
  974SOL    HW2 2922   1.759   0.954   1.847  4.1030  1.9445  0.7882
  975SOL     OW 2923   2.699   2.944   0.211  0.1105  0.8303  0.1029
  975SOL    HW1 2924   2.622   2.880   0.233 -1.0474 -1.6954 -1.4826
  975SOL    HW2 2925   2.700   2.964   0.110  0.2873  1.7095  0.5054
  976SOL     OW 2926   0.232   1.731   1.696 -0.0610  0.1976  0.9910
  976SOL    HW1 2927   0.218   1.820   1.744  0.0922  0.2650  1.3732
  976SOL    HW2 2928   0.152   1.704   1.634 -0.4390  0.9299 -0.7697
  977SOL     OW 2929   0.520   2.892   0.134  0.0804  0.4465 -0.3114
  977SOL    HW1 2930   0.595   2.921   0.066  2.2601 -0.4079 -2.8041
  977SOL    HW2 2931   0.436   2.850   0.089  0.5960 -1.9487 -2.2367
  978SOL     OW 2932   0.583   1.626   0.210  0.4203 -0.1077  0.1874
  978SOL    HW1 2933   0.546   1.536   0.172  0.3316 -0.0151 -3.7241
  978SOL    HW2 2934   0.574   1.692   0.136  0.8039 -1.8100 -1.7409
  979SOL     OW 2935   1.393   2.073   1.323 -0.4516  0.1096 -0.8512
  979SOL    HW1 2936   1.328   2.151   1.342 -3.5657  1.8750 -0.1127
  979SOL    HW2 2937   1.408   2.015   1.405 -1.5158  0.5264  3.6137
  980SOL     OW 2938   0.668   1.224   2.003 -0.2187  0.2959  0.4100
  980SOL    HW1 2939   0.650   1.303   1.938 -2.7361  1.5589 -0.0712
  980SOL    HW2 2940   0.615   1.245   2.085 -0.1556  1.3927 -4.2477
  981SOL     OW 2941   3.031   1.438   0.311 -0.0584 -0.1261  0.0001
  981SOL    HW1 2942   0.036   1.419   0.330 -1.9063  0.8471  1.6274
  981SOL    HW2 2943   2.999   1.522   0.358 -1.1573 -0.5462  1.3495
  982SOL     OW 2944   2.398   2.652   2.836  0.2169 -0.4056  0.2249
  982SOL    HW1 2945   2.444   2.563   2.854  0.6277 -2.4368  2.7799
  982SOL    HW2 2946   2.298   2.644   2.815 -3.3791  1.3364 -1.1770
  983SOL     OW 2947   2.287   0.605   1.103 -0.1239 -0.0734  0.0342
  983SOL    HW1 2948   2.367   0.630   1.160 -0.2813  1.5292  0.2632
  983SOL    HW2 2949   2.273   0.504   1.097  0.9727  1.8248  0.0739
  984SOL     OW 2950   0.876   0.001   2.460 -0.1041 -0.3436  0.4091
  984SOL    HW1 2951   0.935   0.067   2.513  0.9911 -0.3816 -0.7110
  984SOL    HW2 2952   0.918   3.000   2.463 -1.6546 -0.4413  0.7926
  985SOL     OW 2953   1.403   2.065   2.294 -0.4822  0.2498  0.4617
  985SOL    HW1 2954   1.373   2.139   2.232 -0.3479 -0.3568 -1.0796
  985SOL    HW2 2955   1.504   2.048   2.272  1.1519  0.6041 -1.2592
  986SOL     OW 2956   1.657   2.905   2.474 -0.2623  0.2831  0.5021
  986SOL    HW1 2957   1.715   2.984   2.501  0.3081  1.4285 -0.6258
  986SOL    HW2 2958   1.709   2.822   2.486 -1.6012  2.2816  1.1273
  987SOL     OW 2959   2.389   0.038   2.080 -0.1962  0.3827  0.5031
  987SOL    HW1 2960   2.404   0.122   2.139 -0.6493 -1.0179 -0.2973
  987SOL    HW2 2961   2.323   3.064   2.128  1.8497  1.7388  1.7482
  988SOL     OW 2962   2.431   0.269   2.213  0.1289  0.0177  0.0025
  988SOL    HW1 2963   2.419   0.283   2.316 -2.1242  3.1305  1.2640
  988SOL    HW2 2964   2.419   0.355   2.162  1.0869 -1.9085  0.7238
  989SOL     OW 2965   2.495   2.385   2.866 -0.9313  0.7327 -0.0616
  989SOL    HW1 2966   2.580   2.422   2.824 -1.0059 -0.5838 -0.9713
  989SOL    HW2 2967   2.469   2.300   2.818  2.8804 -1.5600  0.4374
  990SOL     OW 2968   0.164   0.841   0.024 -0.2104 -0.1619  0.0612
  990SOL    HW1 2969   0.115   0.756   0.046  0.8543 -2.6147  1.3553
  990SOL    HW2 2970   0.174   0.868   3.012 -0.1343  2.4341 -0.9551
  991SOL     OW 2971   0.489   1.076   2.674  0.4565 -0.2190 -0.2392
  991SOL    HW1 2972   0.584   1.093   2.628 -0.6987 -3.2583  0.1579
  991SOL    HW2 2973   0.461   0.987   2.635  4.1227  2.4720  3.2758
  992SOL     OW 2974   0.186   1.701   2.129 -0.6772  0.2532 -0.3293
  992SOL    HW1 2975   0.277   1.721   2.089 -1.0208 -2.2151  1.3220
  992SOL    HW2 2976   0.120   1.767   2.100  0.6600 -1.6333  0.3949
  993SOL     OW 2977   0.808   0.132   0.616 -0.3989  0.5311  0.2839
  993SOL    HW1 2978   0.799   0.216   0.565  1.3059 -1.2218  2.4783
  993SOL    HW2 2979   0.774   0.060   0.553 -0.1736  0.1585  1.5252
  994SOL     OW 2980   0.435   2.177   1.515  0.4875  0.1886  0.2524
  994SOL    HW1 2981   0.362   2.177   1.446  2.3005  1.3751  0.6049
  994SOL    HW2 2982   0.500   2.104   1.496 -0.0033  2.0741 -1.9236
  995SOL     OW 2983   2.193   1.716   2.786 -0.2762 -0.0410  0.5240
  995SOL    HW1 2984   2.287   1.679   2.791  0.2101  0.9043 -1.3501
  995SOL    HW2 2985   2.147   1.690   2.873 -2.4680  1.1205  0.4751
  996SOL     OW 2986   2.054   1.536   2.601  0.6361 -0.0713 -0.1730
  996SOL    HW1 2987   1.975   1.492   2.651 -1.7042 -1.0683  1.1957
  996SOL    HW2 2988   2.109   1.589   2.666  0.1411 -0.1690  2.1799
  997SOL     OW 2989   1.888   1.233   1.774 -0.0063 -0.3327  0.2977
  997SOL    HW1 2990   1.946   1.306   1.824  1.4374  0.5704 -0.0859
  997SOL    HW2 2991   1.796   1.263   1.739 -1.4121 -0.5676 -3.0338
  998SOL     OW 2992   2.270   2.011   1.023 -0.3697  0.1585  0.3841
  998SOL    HW1 2993   2.222   2.035   1.107 -0.3879 -0.3293 -0.3237
  998SOL    HW2 2994   2.208   1.989   0.941 -0.3655  1.0783 -0.1910
  999SOL     OW 2995   2.261   2.596   0.068 -0.6596  0.3143 -0.4623
  999SOL    HW1 2996   2.318   2.666   0.016  2.6983 -0.4214 -0.9185
  999SOL    HW2 2997   2.312   2.505   0.072  2.4309 -3.0778  2.1594
 1000SOL     OW 2998   0.644   3.082   2.597  0.3345  0.4908 -0.7554
 1000SOL    HW1 2999   0.589   0.074   2.621 -3.0718  1.5547 -2.3335
 1000SOL    HW2 3000   0.732   0.010   2.550 -0.1968 -3.1305  3.4891
   3.09100   3.09100   3.09100
