1000 SPC/Fw water molecules t=  42.00000 step= 42000
 3000
    1SOL     OW    1   1.923   2.645   0.484 -0.3559 -0.0523  0.4981
    1SOL    HW1    2   1.964   2.690   0.402  0.4075  2.2379 -2.2630
    1SOL    HW2    3   1.838   2.596   0.467  1.4455  0.5396 -0.7996
    2SOL     OW    4   1.238   0.730   2.213 -0.0920 -0.0765 -0.1680
    2SOL    HW1    5   1.329   0.697   2.248  0.8320  1.0784 -2.9735
    2SOL    HW2    6   1.175   0.750   2.290  0.9040 -0.5401  1.5593
    3SOL     OW    7   1.042   2.801   2.750 -0.0139 -0.6205  0.5247
    3SOL    HW1    8   1.073   2.845   2.837  1.0502  2.1951  0.7212
    3SOL    HW2    9   1.044   2.700   2.755  3.8129 -1.3158  1.8257
    4SOL     OW   10   1.337   1.434   2.853 -0.5865 -0.2073  0.0650
    4SOL    HW1   11   1.344   1.342   2.814  0.4260  0.7834  2.4392
    4SOL    HW2   12   1.429   1.469   2.869 -1.9978  0.5894  2.3619
    5SOL     OW   13   0.775   1.230   2.208  0.1820 -0.2755  0.3574
    5SOL    HW1   14   0.841   1.153   2.206 -1.2394  0.7982 -2.0802
    5SOL    HW2   15   0.780   1.289   2.121 -1.6356  0.3574 -1.1563
    6SOL     OW   16   2.080   0.790   2.463  0.1904 -0.1164 -0.4587
    6SOL    HW1   17   2.098   0.691   2.485  0.1879 -2.9532 -3.0163
    6SOL    HW2   18   2.142   0.822   2.389 -0.0974  0.4091  0.7342
    7SOL     OW   19   0.448   0.713   1.343 -0.3979 -0.1931 -0.5385
    7SOL    HW1   20   0.441   0.651   1.259 -1.7181 -0.7428 -2.4676
    7SOL    HW2   21   0.468   0.644   1.415 -2.0390 -0.1772  1.7810
    8SOL     OW   22   1.975   2.859   1.886  0.3566 -0.0097  0.1445
    8SOL    HW1   23   1.877   2.872   1.906 -0.4693 -1.4005 -0.0734
    8SOL    HW2   24   2.003   2.902   1.795  1.1215  0.4746  0.4545
    9SOL     OW   25   0.217   3.031   0.747 -0.0059  0.5043 -0.1362
    9SOL    HW1   26   0.276   0.016   0.741 -0.4606  0.0813 -0.5853
    9SOL    HW2   27   0.126   3.049   0.785 -2.2443  0.6841  0.3293
   10SOL     OW   28   0.158   2.221   2.507 -0.1326  0.4499 -0.0844
   10SOL    HW1   29   0.242   2.276   2.493 -2.1508  0.4304 -0.4538
   10SOL    HW2   30   0.139   2.208   2.610 -0.6111  1.4210 -2.6288
   11SOL     OW   31   0.822   1.576   2.977  0.4501 -0.1732 -0.6938
   11SOL    HW1   32   0.755   1.519   3.025 -0.3365  1.3430 -1.4406
   11SOL    HW2   33   0.915   1.539   2.975 -1.8970 -0.7826 -1.8936
   12SOL     OW   34   2.258   2.674   1.101  0.3134 -0.3576  0.3662
   12SOL    HW1   35   2.336   2.668   1.033 -1.2058 -2.7902 -1.5656
   12SOL    HW2   36   2.171   2.685   1.055  3.8183 -1.7492  2.3055
   13SOL     OW   37   0.363   2.831   3.023  0.3631 -0.0854  0.8627
   13SOL    HW1   38   0.384   2.893   3.099  2.0755 -0.6652  0.1249
   13SOL    HW2   39   0.444   2.781   2.988 -1.7465 -0.2751 -0.2663
   14SOL     OW   40   1.274   1.468   1.417  0.2244  0.0975 -0.0374
   14SOL    HW1   41   1.333   1.396   1.459  2.3188  1.9446  0.3283
   14SOL    HW2   42   1.216   1.506   1.491  1.3756 -2.0240  1.1271
   15SOL     OW   43   0.413   1.464   2.231 -0.4372  0.5389  0.2866
   15SOL    HW1   44   0.402   1.555   2.182  1.3936  1.6564 -0.7335
   15SOL    HW2   45   0.327   1.410   2.239  0.0288 -1.8216  1.0485
   16SOL     OW   46   1.686   0.656   2.681 -0.2418 -0.5368  0.1033
   16SOL    HW1   47   1.609   0.629   2.746 -1.8481 -1.1648  1.4805
   16SOL    HW2   48   1.693   0.758   2.673  1.2954 -0.7833  2.0652
   17SOL     OW   49   2.987   2.731   2.474 -0.1318  0.4013 -0.2853
   17SOL    HW1   50   2.889   2.717   2.496 -0.4686 -0.1289 -0.2286
   17SOL    HW2   51   3.046   2.680   2.535 -3.1329 -0.3053 -3.9906
   18SOL     OW   52   1.453   1.149   0.466 -0.4839 -0.4382 -0.4736
   18SOL    HW1   53   1.378   1.187   0.527  0.5425 -1.1375  2.1077
   18SOL    HW2   54   1.524   1.095   0.519  2.9846 -3.1281  3.1080
   19SOL     OW   55   3.006   1.642   2.307 -0.0599  0.0433  0.1000
   19SOL    HW1   56   3.041   1.701   2.234  2.5878 -2.5292 -2.3026
   19SOL    HW2   57   3.071   1.632   2.380 -1.8313  0.7409  0.0764
   20SOL     OW   58   2.239   2.571   2.495 -0.0174 -0.2344 -0.2090
   20SOL    HW1   59   2.157   2.566   2.436  0.0016  1.1444 -0.4296
   20SOL    HW2   60   2.307   2.494   2.490  2.7127 -1.5982  2.1095
   21SOL     OW   61   1.577   1.952   0.794  0.2525 -0.6033 -0.1703
   21SOL    HW1   62   1.637   1.969   0.713 -2.5802  1.5958  0.3226
   21SOL    HW2   63   1.601   2.010   0.875 -2.6544 -0.6553  0.8067
   22SOL     OW   64   2.312   2.188   1.314  0.2935 -0.1018 -0.4237
   22SOL    HW1   65   2.272   2.101   1.275  1.2547 -3.9718 -1.8086
   22SOL    HW2   66   2.266   2.271   1.279 -0.3525 -1.7249  1.7842
   23SOL     OW   67   3.028   1.393   1.219  0.2867  0.0502 -0.3823
   23SOL    HW1   68   0.016   1.436   1.194  0.6512  1.3940  0.4233
   23SOL    HW2   69   2.956   1.462   1.244 -1.6770  0.9887 -2.5424
   24SOL     OW   70   1.918   1.140   1.908  0.5887 -0.2042  0.2797
   24SOL    HW1   71   1.830   1.117   1.859 -2.3538  0.8159  0.9868
   24SOL    HW2   72   1.947   1.241   1.901  0.5124  0.7230  0.8840
   25SOL     OW   73   1.827   3.094   2.322 -0.1668  0.1231 -0.4399
   25SOL    HW1   74   1.873   0.031   2.405 -0.9290 -1.4795  2.3281
   25SOL    HW2   75   1.894   3.067   2.248 -0.3481 -0.5347  1.0739
   26SOL     OW   76   0.906   0.426   0.431  0.1101  0.0546 -0.8729
   26SOL    HW1   77   0.899   0.380   0.342 -0.0650 -0.5812  0.9822
   26SOL    HW2   78   1.003   0.444   0.450  0.8152 -2.1836  0.5531
   27SOL     OW   79   0.942   1.474   0.695  0.0979  0.4378 -0.2717
   27SOL    HW1   80   0.935   1.573   0.676  0.8447 -0.9868 -0.1463
   27SOL    HW2   81   0.984   1.459   0.785 -1.0422  0.0990 -1.9535
   28SOL     OW   82   2.182   2.247   1.022 -0.6917 -0.2136  0.5871
   28SOL    HW1   83   2.190   2.313   1.096 -1.6601 -2.3170 -2.7886
   28SOL    HW2   84   2.178   2.300   0.937  1.0237 -0.1752 -1.0425
   29SOL     OW   85   2.253   3.098   2.006  0.1978 -0.1783 -0.7221
   29SOL    HW1   86   2.244   0.086   1.959 -0.7059  2.1479 -0.0613
   29SOL    HW2   87   2.303   3.031   1.950  0.0174 -1.3454  0.0502
   30SOL     OW   88   3.080   2.813   1.772  0.1698 -0.0210  0.3517
   30SOL    HW1   89   0.035   2.834   1.691  1.4910  0.9854  1.5610
   30SOL    HW2   90   2.982   2.810   1.746 -2.1893 -2.8212  0.0973
   31SOL     OW   91   0.016   1.807   2.110 -0.7409  0.4021  0.0649
   31SOL    HW1   92   3.097   1.905   2.115 -2.7207  1.2257 -2.0779
   31SOL    HW2   93   0.042   1.772   2.019  2.5518  0.1634  0.7583
   32SOL     OW   94   1.639   2.421   2.220 -0.5605 -0.1954  0.1859
   32SOL    HW1   95   1.550   2.424   2.166 -0.0299 -1.1506 -2.8320
   32SOL    HW2   96   1.627   2.427   2.321 -0.8803  0.1558 -1.1127
   33SOL     OW   97   0.297   0.219   2.720  0.8747  0.4484  0.3636
   33SOL    HW1   98   0.397   0.203   2.692  1.2869 -1.5749  1.6533
   33SOL    HW2   99   0.259   0.136   2.766 -0.4155 -2.2143 -0.4009
   34SOL     OW  100   2.659   0.094   0.319  0.0788  0.1711  0.2496
   34SOL    HW1  101   2.751   0.082   0.355 -0.1139  0.2254  0.0341
   34SOL    HW2  102   2.591   0.141   0.377 -0.2044 -0.1691 -0.3982
   35SOL     OW  103   2.815   2.800   1.683 -0.0987 -0.1356  0.4591
   35SOL    HW1  104   2.746   2.813   1.607 -1.3604  0.8079  1.0567
   35SOL    HW2  105   2.768   2.732   1.748 -0.6131 -1.8108  1.5720
   36SOL     OW  106   2.714   0.032   2.293 -0.2958 -0.2104 -0.2888
   36SOL    HW1  107   2.735   0.030   2.393  1.1480  0.5545 -1.0528
   36SOL    HW2  108   2.773   0.099   2.241  0.9150  0.7187 -2.4513
   37SOL     OW  109   1.428   0.035   0.047  1.0886 -0.1660  0.1143
   37SOL    HW1  110   1.493   0.067   0.116 -0.9658  2.4722 -1.6121
   37SOL    HW2  111   1.383   3.046   0.068  0.9302 -1.6668 -1.0505
   38SOL     OW  112   0.302   0.475   0.065  0.1924 -0.0061 -0.1011
   38SOL    HW1  113   0.376   0.526   0.119  0.4581 -0.2306 -1.4512
   38SOL    HW2  114   0.327   0.451   3.071 -0.0775  1.4408  0.7493
   39SOL     OW  115   1.401   1.645   2.121  0.0846 -0.6771 -0.0430
   39SOL    HW1  116   1.409   1.543   2.120 -0.5698 -1.4879 -0.0355
   39SOL    HW2  117   1.399   1.680   2.217 -0.3517 -0.2545 -1.1482
   40SOL     OW  118   0.114   0.637   2.556 -0.1520  0.3965  0.1508
   40SOL    HW1  119   0.175   0.700   2.505  0.2458 -3.2093  2.1430
   40SOL    HW2  120   0.148   0.544   2.534  0.4653  4.6101  1.1084
   41SOL     OW  121   1.511   1.007   2.008 -0.2731  0.2856 -0.4043
   41SOL    HW1  122   1.585   0.973   1.944  1.4997 -1.2574 -0.3499
   41SOL    HW2  123   1.545   0.988   2.105  2.3061  0.7192  2.7640
   42SOL     OW  124   2.808   0.079   1.553 -0.0095 -0.2203  0.1007
   42SOL    HW1  125   2.848   0.152   1.612  1.9518  0.7434  0.1984
   42SOL    HW2  126   2.872   0.018   1.500 -0.1221  0.4862  0.0737
   43SOL     OW  127   1.252   1.081   1.601 -0.0607  0.4296  0.2816
   43SOL    HW1  128   1.295   1.096   1.694  0.3245 -4.3813  0.1265
   43SOL    HW2  129   1.190   1.000   1.601  0.9017  2.4982  3.0822
   44SOL     OW  130   3.050   0.140   3.092 -0.3876 -0.1166  0.2875
   44SOL    HW1  131   0.020   0.176   0.055 -0.3033 -2.1872  3.4594
   44SOL    HW2  132   2.987   0.080   0.046 -1.3120  0.8745  1.2161
   45SOL     OW  133   0.423   1.859   1.637 -0.0925  1.1177  0.2727
   45SOL    HW1  134   0.497   1.927   1.625 -0.8281  0.0699 -0.9594
   45SOL    HW2  135   0.453   1.762   1.640  0.1528  4.1110 -2.6768
   46SOL     OW  136   2.395   2.903   1.848  0.5747 -0.1893  1.1451
   46SOL    HW1  137   2.462   2.977   1.838  1.3610 -1.6199  1.6791
   46SOL    HW2  138   2.432   2.824   1.900 -0.9011 -0.6976 -0.4773
   47SOL     OW  139   0.534   1.896   1.229 -0.0069 -0.6805  0.3513
   47SOL    HW1  140   0.578   1.810   1.265 -2.0941 -2.1073 -0.8170
   47SOL    HW2  141   0.461   1.880   1.158 -0.3459 -1.1260  0.4943
   48SOL     OW  142   0.612   2.736   2.874  0.5116  0.1520 -0.0422
   48SOL    HW1  143   0.665   2.714   2.788  0.1960 -3.6831 -0.8055
   48SOL    HW2  144   0.643   2.695   2.960  1.0035  1.1839 -0.2916
   49SOL     OW  145   2.934   1.557   1.744  0.1329  0.0486  0.0062
   49SOL    HW1  146   2.983   1.472   1.709 -1.9672 -2.2299 -0.9268
   49SOL    HW2  147   2.842   1.550   1.697 -2.3603  0.0122 -1.7037
   50SOL     OW  148   1.374   2.815   0.602 -0.0270 -0.2766 -0.3133
   50SOL    HW1  149   1.376   2.800   0.705  0.7716 -2.9325 -1.1537
   50SOL    HW2  150   1.298   2.881   0.587 -2.5377  1.2352  0.4309
   51SOL     OW  151   1.037   3.007   1.059  0.0437  0.0601 -0.1270
   51SOL    HW1  152   1.107   3.062   1.008  0.0184 -3.0292 -0.8588
   51SOL    HW2  153   0.946   3.045   1.042 -0.4344 -0.0073 -2.7780
   52SOL     OW  154   0.768   1.332   0.443 -0.3533  0.0209 -0.3574
   52SOL    HW1  155   0.782   1.309   0.345 -0.0195  1.4573  3.1641
   52SOL    HW2  156   0.695   1.272   0.482 -2.6157 -3.1849 -0.0016
   53SOL     OW  157   1.330   2.791   2.672 -0.2917  0.0473 -0.1900
   53SOL    HW1  158   1.381   2.864   2.722  1.1442 -0.5821  1.4254
   53SOL    HW2  159   1.227   2.793   2.686 -0.9956 -0.3772 -0.7721
   54SOL     OW  160   1.943   0.560   1.781 -0.2474  0.4482  0.0879
   54SOL    HW1  161   1.936   0.519   1.688 -0.8632 -0.6231 -0.4947
   54SOL    HW2  162   1.953   0.486   1.857 -0.0560  0.7615  4.9438
   55SOL     OW  163   0.101   2.463   0.546  0.2275  0.2561 -0.2889
   55SOL    HW1  164   0.067   2.556   0.559  2.5970 -1.3262 -0.9710
   55SOL    HW2  165   0.184   2.465   0.489 -1.2837  0.1224  1.9457
   56SOL     OW  166   1.018   2.842   1.791 -0.5418 -0.1357 -0.4367
   56SOL    HW1  167   1.007   2.937   1.757  0.2176  0.4095  0.9643
   56SOL    HW2  168   0.933   2.793   1.763 -2.5231 -0.3810  0.0089
   57SOL     OW  169   1.850   0.977   2.398 -0.1551  0.1019  0.0396
   57SOL    HW1  170   1.931   0.914   2.413 -0.7982 -3.2046  1.7471
   57SOL    HW2  171   1.877   1.048   2.331 -0.4211  0.6155  0.0183
   58SOL     OW  172   0.111   0.931   2.101 -0.2237  0.0501  0.6814
   58SOL    HW1  173   0.073   0.837   2.113 -0.0553 -0.1744 -0.5188
   58SOL    HW2  174   0.184   0.931   2.028 -1.6751  0.2785 -1.0425
   59SOL     OW  175   0.965   2.408   1.858 -0.3378  0.6575  0.3067
   59SOL    HW1  176   0.898   2.398   1.781  2.5864  0.2049  0.6081
   59SOL    HW2  177   1.030   2.483   1.846 -1.2612  0.5984  0.7486
   60SOL     OW  178   2.093   2.636   0.248 -0.0552  0.2300 -0.0948
   60SOL    HW1  179   2.167   2.567   0.224  0.9530  1.6289  1.6707
   60SOL    HW2  180   2.122   2.726   0.211  1.1351  0.4822  1.9243
   61SOL     OW  181   1.518   2.471   0.691 -0.1209  0.1912  0.3724
   61SOL    HW1  182   1.561   2.411   0.761  1.7143 -0.1354 -2.1448
   61SOL    HW2  183   1.450   2.531   0.737  2.2674 -0.9387  1.2976
   62SOL     OW  184   1.750   3.088   3.075 -0.3439  0.2231  0.5606
   62SOL    HW1  185   1.822   3.047   0.041  1.3717 -2.3728  3.5132
   62SOL    HW2  186   1.660   3.062   0.005  0.7543  2.3341  0.5282
   63SOL     OW  187   2.449   0.445   3.012  0.8932 -0.2712  0.1450
   63SOL    HW1  188   2.455   0.546   2.998  2.3638  3.1452 -1.9550
   63SOL    HW2  189   2.519   0.391   2.961  0.6935 -0.2866 -1.8119
   64SOL     OW  190   1.475   0.945   2.855 -0.1962 -0.1590  0.6270
   64SOL    HW1  191   1.422   0.861   2.845  0.5861 -3.0923 -0.7836
   64SOL    HW2  192   1.439   1.009   2.927 -1.9980  0.0426 -0.2679
   65SOL     OW  193   0.639   2.856   1.555  0.0535  0.2695  0.1377
   65SOL    HW1  194   0.674   2.800   1.473  1.5045 -0.2719  0.1230
   65SOL    HW2  195   0.556   2.814   1.597  2.2810 -0.7234  1.5401
   66SOL     OW  196   1.038   1.170   1.433 -0.5935  0.0445 -0.1811
   66SOL    HW1  197   1.044   1.127   1.341  0.1160  3.3752  1.2297
   66SOL    HW2  198   1.126   1.170   1.483  0.2077  1.6881  0.5443
   67SOL     OW  199   2.224   2.167   1.966  0.5247  0.0632 -0.1823
   67SOL    HW1  200   2.291   2.236   2.003 -0.7408 -2.4435 -0.0274
   67SOL    HW2  201   2.213   2.186   1.869  3.2406  2.2492  0.7038
   68SOL     OW  202   0.780   1.394   1.991 -0.4441 -0.1193 -0.1728
   68SOL    HW1  203   0.744   1.490   1.991 -1.8358 -1.8109  0.3085
   68SOL    HW2  204   0.827   1.371   1.903 -0.5709  1.3169  2.5151
   69SOL     OW  205   2.796   2.617   0.270  0.4111 -0.0324 -0.0363
   69SOL    HW1  206   2.886   2.575   0.248 -0.9009  2.1008  2.7131
   69SOL    HW2  207   2.817   2.699   0.329  0.3898  3.4454  3.0892
   70SOL     OW  208   2.295   0.863   2.253 -0.1508  0.0760  0.0076
   70SOL    HW1  209   2.318   0.786   2.189 -2.7859  2.4394 -0.8879
   70SOL    HW2  210   2.378   0.898   2.304 -1.3992  2.6515 -2.4401
   71SOL     OW  211   0.504   2.011   0.856 -0.3444 -0.3710  0.3483
   71SOL    HW1  212   0.447   1.962   0.923 -0.1080  0.7595 -3.3188
   71SOL    HW2  213   0.483   2.110   0.854  0.6376 -1.6877 -1.9721
   72SOL     OW  214   2.676   2.096   0.716 -0.3043 -0.0419 -0.2106
   72SOL    HW1  215   2.586   2.129   0.686 -0.3347 -0.9193 -0.4187
   72SOL    HW2  216   2.708   2.146   0.797  0.8934 -1.3488  1.1440
   73SOL     OW  217   1.264   0.449   0.643  0.1803 -0.5781  0.0740
   73SOL    HW1  218   1.239   0.494   0.555  1.6280  1.7377  0.2561
   73SOL    HW2  219   1.337   0.504   0.693 -0.4376  0.2211  0.8563
   74SOL     OW  220   2.571   2.182   1.976 -0.0866  0.4959  0.2387
   74SOL    HW1  221   2.524   2.106   1.937  1.7031  2.6352  3.1156
   74SOL    HW2  222   2.507   2.258   2.011 -0.5765  0.8602  3.0204
   75SOL     OW  223   1.428   1.487   1.812 -0.1162  0.3213 -0.2052
   75SOL    HW1  224   1.410   1.554   1.887 -2.0536  4.1515  0.5618
   75SOL    HW2  225   1.487   1.408   1.841 -0.7231 -2.0021 -0.4571
   76SOL     OW  226   1.102   1.764   1.117  0.5813 -0.1852  0.1834
   76SOL    HW1  227   1.166   1.810   1.180  0.4395 -0.6799  0.9325
   76SOL    HW2  228   1.103   1.664   1.134 -2.2866 -0.3896 -0.7640
   77SOL     OW  229   2.776   1.375   1.930  0.2972 -0.0512  0.0315
   77SOL    HW1  230   2.762   1.394   2.028  0.3719  2.8346 -3.7857
   77SOL    HW2  231   2.836   1.444   1.883 -2.0299 -1.0609 -3.3577
   78SOL     OW  232   1.732   0.726   0.230 -0.2798  0.5300  0.0286
   78SOL    HW1  233   1.755   0.664   0.150  1.0244 -1.2293 -2.1189
   78SOL    HW2  234   1.789   0.692   0.311 -0.6642 -3.0581 -1.8199
   79SOL     OW  235   1.393   1.367   2.099 -0.2850 -0.0505 -0.1142
   79SOL    HW1  236   1.478   1.335   2.139  0.6824  0.8766 -1.8347
   79SOL    HW2  237   1.310   1.321   2.142 -2.2743 -2.5600 -2.2081
   80SOL     OW  238   0.964   0.454   1.728 -0.1931  0.1070 -0.1299
   80SOL    HW1  239   0.964   0.402   1.635 -1.6040 -1.9668 -0.7877
   80SOL    HW2  240   1.056   0.446   1.770 -0.1684  1.7890 -0.5449
   81SOL     OW  241   0.713   2.358   0.385  0.4292  0.3050 -0.3366
   81SOL    HW1  242   0.695   2.374   0.286  0.2145 -0.4673  2.0476
   81SOL    HW2  243   0.811   2.343   0.403 -0.0858  2.6347  0.1894
   82SOL     OW  244   1.214   0.471   1.830  0.2530  0.4719 -0.4003
   82SOL    HW1  245   1.281   0.495   1.754  3.2600 -0.2615 -2.3669
   82SOL    HW2  246   1.265   0.423   1.903 -1.8124 -0.6303 -0.0713
   83SOL     OW  247   0.455   2.279   0.828  0.0985  0.2926 -0.0711
   83SOL    HW1  248   0.457   2.333   0.915 -0.9673 -0.2186  1.0301
   83SOL    HW2  249   0.359   2.267   0.805  1.8860 -0.9153 -0.1510
   84SOL     OW  250   2.756   1.576   0.569 -0.4436  0.2299 -0.1438
   84SOL    HW1  251   2.802   1.485   0.568  1.1556  2.9167  0.0996
   84SOL    HW2  252   2.706   1.594   0.657 -3.3208 -1.8755  0.8310
   85SOL     OW  253   2.393   2.072   1.548 -0.3016  0.4516  0.7743
   85SOL    HW1  254   2.367   2.121   1.463 -1.6349  1.7950 -0.7232
   85SOL    HW2  255   2.463   2.004   1.531 -1.4333  0.3150  0.2510
   86SOL     OW  256   1.526   2.298   1.183  0.4301  0.3144  0.2585
   86SOL    HW1  257   1.558   2.369   1.119  0.2732 -2.0231  3.5027
   86SOL    HW2  258   1.579   2.309   1.267 -1.4964 -2.5218 -2.1139
   87SOL     OW  259   2.276   1.577   0.562 -0.2144  0.0373  0.4033
   87SOL    HW1  260   2.197   1.573   0.496 -1.8228 -1.5369 -0.5538
   87SOL    HW2  261   2.361   1.560   0.509 -0.6884 -0.6199  0.2377
   88SOL     OW  262   0.784   0.006   1.028 -0.4019  0.0701 -0.5738
   88SOL    HW1  263   0.730   3.040   0.975 -1.3622  1.1097  2.3476
   88SOL    HW2  264   0.801   0.091   0.976  1.8918 -0.7029  2.0787
   89SOL     OW  265   0.703   0.102   1.813 -0.0859  0.2416  0.0559
   89SOL    HW1  266   0.744   0.176   1.872 -0.9424 -2.4156 -0.4672
   89SOL    HW2  267   0.607   0.131   1.787  1.6726  0.1466 -1.7571
   90SOL     OW  268   3.092   1.843   0.451 -0.5043 -0.3358  0.4895
   90SOL    HW1  269   3.022   1.808   0.387 -0.0586 -0.3806  3.4794
   90SOL    HW2  270   3.058   1.853   0.546 -0.2477  0.0391  0.9996
   91SOL     OW  271   0.968   1.509   0.965 -0.2005  0.2822 -0.3987
   91SOL    HW1  272   0.886   1.572   0.982 -2.0070  1.5543 -2.0604
   91SOL    HW2  273   1.013   1.495   1.057 -1.3360 -2.4197  1.0926
   92SOL     OW  274   2.338   3.088   1.463 -0.4005  0.0886  0.1691
   92SOL    HW1  275   2.418   0.044   1.499 -1.5464 -0.1401 -0.2790
   92SOL    HW2  276   2.318   3.015   1.529 -0.1483  0.6089 -3.0973
   93SOL     OW  277   0.507   1.118   2.773 -0.1851  0.5423  0.5669
   93SOL    HW1  278   0.552   1.194   2.827 -0.4247  0.1941 -3.9159
   93SOL    HW2  279   0.503   1.146   2.675 -0.6935  1.8449  1.0178
   94SOL     OW  280   2.570   0.010   1.849 -0.1688  0.2724  0.0544
   94SOL    HW1  281   2.577   0.101   1.902  0.3201  1.4491 -1.0522
   94SOL    HW2  282   2.646   3.047   1.875  0.8978 -0.4935 -2.8561
   95SOL     OW  283   2.086   0.781   1.734  0.0391  0.6995  0.2343
   95SOL    HW1  284   2.067   0.837   1.651  1.7744 -2.5235  0.5992
   95SOL    HW2  285   2.021   0.696   1.738 -1.3577 -0.0811 -1.1091
   96SOL     OW  286   2.884   0.267   1.739  0.2287  0.3309  0.2845
   96SOL    HW1  287   2.807   0.281   1.805 -4.9695 -0.6879  2.4862
   96SOL    HW2  288   2.895   0.342   1.673  1.9904  1.0463  1.9292
   97SOL     OW  289   2.203   0.179   1.315 -0.2975  0.6258 -1.2370
   97SOL    HW1  290   2.123   0.148   1.263  2.2253  0.1179 -0.9892
   97SOL    HW2  291   2.234   0.118   1.389 -0.0728  2.6227  1.4785
   98SOL     OW  292   1.989   2.521   1.714 -0.4027  0.2833 -0.6967
   98SOL    HW1  293   2.040   2.539   1.799  0.5763  1.5936  0.9287
   98SOL    HW2  294   1.901   2.573   1.714 -0.3509  0.9922 -1.7078
   99SOL     OW  295   3.054   0.802   0.960 -0.3770  0.0679 -0.3605
   99SOL    HW1  296   2.996   0.778   1.039 -0.1232  0.1393 -0.4906
   99SOL    HW2  297   0.010   0.888   0.986  2.3179  0.6552  0.8370
  100SOL     OW  298   2.468   1.953   1.861 -0.7051 -0.4626  0.4118
  100SOL    HW1  299   2.403   1.876   1.866  0.4377 -1.0010 -0.2831
  100SOL    HW2  300   2.555   1.921   1.815  0.5074 -1.7240 -0.0428
  101SOL     OW  301   2.156   0.082   0.034 -0.1497  0.3460 -0.6837
  101SOL    HW1  302   2.253   0.117   0.033  1.2211 -0.6400 -1.7927
  101SOL    HW2  303   2.161   3.086   0.076 -1.5501 -1.5526 -0.0047
  102SOL     OW  304   0.718   0.379   1.348 -0.3555 -0.2582 -0.2112
  102SOL    HW1  305   0.641   0.405   1.407  0.5479 -0.8660 -1.2564
  102SOL    HW2  306   0.691   0.295   1.296  0.2409  0.0761 -1.5138
  103SOL     OW  307   3.009   0.106   2.694  0.1112  0.0151  0.0888
  103SOL    HW1  308   2.988   0.041   2.768  0.1328  1.9064  1.6977
  103SOL    HW2  309   3.077   0.067   2.632 -0.2277  1.5795 -2.6703
  104SOL     OW  310   0.328   2.070   1.361  0.1099 -0.2548  0.2838
  104SOL    HW1  311   0.394   2.001   1.329 -0.7870 -0.1226  2.2637
  104SOL    HW2  312   0.377   2.156   1.395  3.8220 -0.1786  0.6705
  105SOL     OW  313   0.720   1.661   2.068  0.0714  0.5143 -0.7213
  105SOL    HW1  314   0.788   1.665   2.147  0.8390  2.7384 -1.0370
  105SOL    HW2  315   0.746   1.723   1.992  1.2080 -0.4692 -0.3739
  106SOL     OW  316   2.022   0.310   0.690 -0.1530  0.3538  0.1681
  106SOL    HW1  317   1.978   0.329   0.778 -0.0155 -0.5213  1.1258
  106SOL    HW2  318   2.044   0.211   0.683  1.8474  0.7814  3.4300
  107SOL     OW  319   0.632   1.011   1.270  0.1688  0.0638  0.5835
  107SOL    HW1  320   0.605   0.951   1.191  0.9504 -0.1895 -0.3593
  107SOL    HW2  321   0.695   1.082   1.229 -1.5597 -0.9157  0.6463
  108SOL     OW  322   2.765   0.902   2.181 -0.3261  0.4165  0.4664
  108SOL    HW1  323   2.830   0.863   2.113 -0.1753  0.2707 -0.9623
  108SOL    HW2  324   2.712   0.823   2.221  0.3714 -0.1944 -1.8672
  109SOL     OW  325   1.808   0.018   2.818 -0.7033 -0.1832 -0.5794
  109SOL    HW1  326   1.902   0.053   2.822 -0.2463  2.5863 -1.8935
  109SOL    HW2  327   1.785   0.003   2.919  2.0916 -0.6864 -0.3196
  110SOL     OW  328   0.271   1.901   2.999 -0.3407  0.3107 -0.0673
  110SOL    HW1  329   0.186   1.889   3.059 -2.3175  0.7706  3.0240
  110SOL    HW2  330   0.356   1.933   3.046 -1.2262  2.2239 -1.4588
  111SOL     OW  331   2.645   0.663   2.241  0.4038 -0.9386 -0.3523
  111SOL    HW1  332   2.553   0.637   2.210 -2.0550  0.5218  1.2910
  111SOL    HW2  333   2.658   0.642   2.340  0.8647 -0.7309  0.3242
  112SOL     OW  334   2.313   2.701   1.378 -0.0053  0.0299 -0.2345
  112SOL    HW1  335   2.281   2.708   1.285 -1.3797  0.5319  2.8160
  112SOL    HW2  336   2.412   2.710   1.390 -0.6340  0.7088 -0.9534
  113SOL     OW  337   1.995   2.146   2.110 -0.7358 -0.0888  0.1124
  113SOL    HW1  338   1.982   2.051   2.151  2.2349 -1.0309 -0.0961
  113SOL    HW2  339   2.070   2.151   2.043 -3.3291 -2.6131 -0.3490
  114SOL     OW  340   0.299   0.157   0.402 -0.1993  0.0723 -0.3194
  114SOL    HW1  341   0.265   0.070   0.447 -2.1368 -1.9063  1.2348
  114SOL    HW2  342   0.393   0.176   0.434  0.0265  3.7341  1.5403
  115SOL     OW  343   2.810   1.710   0.102  0.3208  0.4600  0.2515
  115SOL    HW1  344   2.893   1.722   0.043 -0.3494  0.7291 -0.4744
  115SOL    HW2  345   2.829   1.731   0.203 -0.8439  0.8628  3.2798
  116SOL     OW  346   3.083   0.761   1.429 -0.2336 -0.4288 -0.0304
  116SOL    HW1  347   3.083   0.688   1.505 -0.7432  0.8825 -3.6019
  116SOL    HW2  348   3.035   0.846   1.465 -1.1454  1.0455  0.0288
  117SOL     OW  349   2.490   0.222   1.304 -0.0466  0.5258 -0.2816
  117SOL    HW1  350   2.396   0.190   1.329 -1.3946  0.2821 -0.3944
  117SOL    HW2  351   2.529   0.269   1.382 -0.6609 -1.9080 -4.1926
  118SOL     OW  352   2.809   2.167   2.142  0.7590 -0.2076 -0.4439
  118SOL    HW1  353   2.838   2.266   2.160  0.7784  0.7683  1.1079
  118SOL    HW2  354   2.730   2.167   2.073 -0.7710  2.3691 -1.6935
  119SOL     OW  355   0.735   1.629   1.055  0.2136 -0.0711 -0.3791
  119SOL    HW1  356   0.728   1.717   0.994 -2.6240  0.3736 -0.1527
  119SOL    HW2  357   0.679   1.641   1.144 -1.2204  0.9194  0.6186
  120SOL     OW  358   0.406   1.511   1.405 -0.0513  0.4865 -0.0342
  120SOL    HW1  359   0.427   1.415   1.379 -0.6026  1.1037 -0.7932
  120SOL    HW2  360   0.310   1.537   1.374  0.3482 -0.3783  0.4859
  121SOL     OW  361   1.775   1.296   0.992 -0.5299  0.4511 -0.2853
  121SOL    HW1  362   1.799   1.196   1.007  0.2537 -1.2418  3.5434
  121SOL    HW2  363   1.856   1.354   1.011 -0.5810 -1.3500 -0.1793
  122SOL     OW  364   1.792   2.615   2.639 -0.2366  0.3253 -0.0446
  122SOL    HW1  365   1.809   2.556   2.719 -0.3085  1.1517 -1.4155
  122SOL    HW2  366   1.803   2.711   2.660  0.2839 -3.2364 -1.8478
  123SOL     OW  367   2.913   0.006   0.361 -0.6287 -0.0053 -0.4772
  123SOL    HW1  368   2.922   3.064   0.457  1.0168  0.5757  4.3076
  123SOL    HW2  369   2.969   0.089   0.365  0.6888  1.9244 -0.3092
  124SOL     OW  370   1.135   1.214   0.273  0.0872  0.0846  0.2697
  124SOL    HW1  371   1.076   1.227   0.356  1.3217  2.0579  1.7972
  124SOL    HW2  372   1.172   1.119   0.269  2.0378  2.6772 -2.3230
  125SOL     OW  373   0.262   1.042   2.308 -0.2986  0.1850 -1.3257
  125SOL    HW1  374   0.241   1.141   2.324 -1.2782 -1.7576 -0.2679
  125SOL    HW2  375   0.202   1.007   2.235  1.3854  0.5243  2.5456
  126SOL     OW  376   3.014   2.520   0.166  0.1740  0.1350  0.3360
  126SOL    HW1  377   3.093   2.468   0.200 -0.4963 -0.2524 -0.6500
  126SOL    HW2  378   3.042   2.619   0.150  1.3127  0.9624  2.2238
  127SOL     OW  379   2.825   1.766   0.371 -0.1919 -0.0418  0.4581
  127SOL    HW1  380   2.776   1.686   0.412 -0.1664  1.9838  0.3489
  127SOL    HW2  381   2.775   1.853   0.385  0.7087 -0.3667  1.0571
  128SOL     OW  382   1.339   0.795   0.902 -0.2108  0.0813 -0.0634
  128SOL    HW1  383   1.387   0.882   0.922  1.4646  2.3415  1.3193
  128SOL    HW2  384   1.256   0.803   0.848 -1.5018  1.5949 -0.3500
  129SOL     OW  385   2.757   1.994   1.073 -0.4259 -0.5449 -0.7245
  129SOL    HW1  386   2.856   1.968   1.049  1.6058 -0.4207 -2.0891
  129SOL    HW2  387   2.748   2.085   1.121  2.3935  0.9042  1.8733
  130SOL     OW  388   2.120   1.065   0.675 -0.2796  0.8724 -0.2767
  130SOL    HW1  389   2.119   1.099   0.581  0.5773 -1.2658 -1.4032
  130SOL    HW2  390   2.203   1.101   0.726  1.5367 -1.3174  1.7393
  131SOL     OW  391   3.058   1.234   2.402  0.2421  0.1392 -0.4366
  131SOL    HW1  392   2.976   1.294   2.409  0.4002 -1.3403  0.4271
  131SOL    HW2  393   3.035   1.147   2.360  1.3083  1.6834 -0.1723
  132SOL     OW  394   1.209   1.291   2.281  0.6466  0.6687 -0.1702
  132SOL    HW1  395   1.138   1.297   2.211 -0.3997 -2.7947  3.1908
  132SOL    HW2  396   1.174   1.233   2.358  2.1186  1.1444  0.9330
  133SOL     OW  397   0.257   1.313   0.366 -0.1251 -0.6157  0.3118
  133SOL    HW1  398   0.267   1.372   0.284  0.9417  2.1333  0.2947
  133SOL    HW2  399   0.280   1.220   0.346 -2.2828  3.7952 -0.0765
  134SOL     OW  400   2.732   0.941   0.094  0.0249  0.0754  0.3498
  134SOL    HW1  401   2.737   0.900   3.099 -0.4441 -0.9435 -0.8096
  134SOL    HW2  402   2.722   1.045   0.093 -1.1623  2.4378  2.5557
  135SOL     OW  403   1.635   0.832   3.038  0.2128 -0.0867 -0.5454
  135SOL    HW1  404   1.585   0.888   2.970  0.8644 -3.8845  2.1295
  135SOL    HW2  405   1.734   0.820   3.014 -1.5384 -0.7397 -2.0621
  136SOL     OW  406   1.764   1.571   1.786 -0.1850 -0.6835 -0.1961
  136SOL    HW1  407   1.686   1.584   1.724  3.6162 -0.2072  1.7339
  136SOL    HW2  408   1.853   1.588   1.745  0.7635  1.0156  2.2894
  137SOL     OW  409   2.197   2.373   0.790  0.1641  0.0162  0.1752
  137SOL    HW1  410   2.138   2.354   0.701 -1.0616 -1.5657  0.2677
  137SOL    HW2  411   2.191   2.471   0.814  3.3302 -4.8135 -0.1315
  138SOL     OW  412   2.441   0.713   1.496 -0.8677 -0.2994  0.1504
  138SOL    HW1  413   2.441   0.750   1.592  0.2608  1.0172 -0.0270
  138SOL    HW2  414   2.415   0.781   1.421 -0.8252  0.6797  1.8436
  139SOL     OW  415   2.493   2.868   2.781  0.4176 -0.0063  1.0027
  139SOL    HW1  416   2.571   2.801   2.776  4.8081  0.3624 -0.8147
  139SOL    HW2  417   2.427   2.857   2.702 -3.1995 -2.4220 -2.3850
  140SOL     OW  418   1.529   1.905   2.427  0.0243  0.1270 -0.5021
  140SOL    HW1  419   1.596   1.835   2.399  0.4285 -1.9192  0.1233
  140SOL    HW2  420   1.438   1.876   2.396  1.2703 -1.7240  1.3154
  141SOL     OW  421   0.893   1.165   2.517 -0.0766 -0.3384 -0.2504
  141SOL    HW1  422   0.841   1.077   2.525  0.8204 -1.5316 -0.3924
  141SOL    HW2  423   0.842   1.246   2.486 -1.6875  0.4054 -0.2064
  142SOL     OW  424   2.528   2.745   2.018  0.2296  0.6233  0.2486
  142SOL    HW1  425   2.583   2.777   2.093 -0.0187  3.7773 -1.9495
  142SOL    HW2  426   2.457   2.675   2.046  0.0395 -0.2177  2.3435
  143SOL     OW  427   1.198   2.298   0.275  0.1064  0.5729 -0.1230
  143SOL    HW1  428   1.277   2.328   0.335  0.3626  1.6176 -0.6085
  143SOL    HW2  429   1.114   2.298   0.333  0.9663  2.5762  2.0382
  144SOL     OW  430   1.134   2.486   0.571 -0.0367  0.5383 -0.0005
  144SOL    HW1  431   1.201   2.531   0.512  1.5044 -0.6272 -0.2672
  144SOL    HW2  432   1.184   2.457   0.657 -0.8208 -1.8325 -0.6188
  145SOL     OW  433   1.500   2.763   2.452 -0.2416  0.4127  0.4524
  145SOL    HW1  434   1.548   2.672   2.434 -2.1457 -3.9581 -0.9957
  145SOL    HW2  435   1.429   2.746   2.524  0.1975 -1.2840  4.9265
  146SOL     OW  436   2.060   0.093   2.862  0.4073 -0.4874 -0.0719
  146SOL    HW1  437   2.100   0.160   2.793 -1.6139 -1.1034 -1.1399
  146SOL    HW2  438   2.097   0.102   2.954 -3.1554 -1.8509 -1.5116
  147SOL     OW  439   2.859   1.594   1.232 -0.6644  0.2087 -0.0697
  147SOL    HW1  440   2.867   1.617   1.131 -0.6989  0.9181  0.5918
  147SOL    HW2  441   2.837   1.678   1.283 -0.1869 -4.8799 -2.5543
  148SOL     OW  442   2.204   2.896   0.130 -0.7561 -0.3343  0.1841
  148SOL    HW1  443   2.260   2.899   0.213  0.6980 -1.5921 -0.9510
  148SOL    HW2  444   2.264   2.894   0.047 -0.9686  0.7882  2.4461
  149SOL     OW  445   0.673   1.802   2.876  0.0069  0.0975  0.2875
  149SOL    HW1  446   0.739   1.722   2.884 -1.8680 -3.6474  0.3162
  149SOL    HW2  447   0.618   1.794   2.790 -1.7558  1.4949 -1.3039
  150SOL     OW  448   0.539   2.686   1.026 -0.6107 -0.0512  0.2358
  150SOL    HW1  449   0.519   2.715   1.125 -1.5017  1.1642  0.6149
  150SOL    HW2  450   0.487   2.745   0.963  0.1706 -1.0263  1.1162
  151SOL     OW  451   0.211   1.042   3.074 -0.3990  0.0524 -0.1386
  151SOL    HW1  452   0.311   1.025   3.058 -0.6250 -0.2614  0.1105
  151SOL    HW2  453   0.177   1.043   2.978  2.3321  3.2205 -0.4063
  152SOL     OW  454   3.011   1.880   1.006 -0.1292  0.5070  0.4404
  152SOL    HW1  455   3.086   1.919   0.943 -0.8656  0.1155 -0.2403
  152SOL    HW2  456   2.989   1.780   0.979 -0.3195 -0.3719 -0.4105
  153SOL     OW  457   1.684   2.332   0.849  0.3759  0.2143 -0.6700
  153SOL    HW1  458   1.771   2.318   0.799  1.0809  0.1880  0.9033
  153SOL    HW2  459   1.669   2.259   0.918  2.8799 -0.7914  0.1188
  154SOL     OW  460   0.465   2.739   1.286 -0.1617  0.0746 -0.6218
  154SOL    HW1  461   0.418   2.830   1.278 -0.0798  2.6496  0.8149
  154SOL    HW2  462   0.557   2.741   1.323 -3.6504  2.7522 -0.3474
  155SOL     OW  463   2.926   2.041   0.679 -0.1313 -0.1558 -0.2219
  155SOL    HW1  464   2.990   2.121   0.700  0.7174  0.0309 -0.7578
  155SOL    HW2  465   2.826   2.071   0.675  4.4047 -1.1485  0.8040
  156SOL     OW  466   2.540   2.251   0.474  0.3857  0.0957  0.0281
  156SOL    HW1  467   2.620   2.307   0.500  4.1012  2.5951 -1.2872
  156SOL    HW2  468   2.563   2.153   0.477  0.3398 -0.6624  0.7812
  157SOL     OW  469   0.330   2.408   1.797 -0.1125 -0.1978  0.3296
  157SOL    HW1  470   0.277   2.321   1.787  0.3602  2.8887 -1.3968
  157SOL    HW2  471   0.366   2.419   1.894  1.7797 -1.3788  0.3124
  158SOL     OW  472   1.465   0.359   0.988  0.2019  0.1673 -0.2703
  158SOL    HW1  473   1.377   0.332   0.944 -0.6386  0.3959 -2.8690
  158SOL    HW2  474   1.445   0.378   1.088 -1.4298  0.4918  0.2911
  159SOL     OW  475   1.766   0.991   0.148  0.2853 -0.5902  0.6711
  159SOL    HW1  476   1.750   0.905   0.200  0.7244 -0.7784  0.6672
  159SOL    HW2  477   1.711   0.982   0.060 -0.9464 -0.1600 -0.1846
  160SOL     OW  478   1.144   1.777   0.310 -0.7937 -0.5557  0.3029
  160SOL    HW1  479   1.197   1.857   0.268 -1.7105 -1.1883 -0.3259
  160SOL    HW2  480   1.064   1.759   0.247 -0.6681 -2.7475 -0.6778
  161SOL     OW  481   2.809   2.174   2.613 -0.2869 -0.0983 -0.0362
  161SOL    HW1  482   2.777   2.211   2.703 -0.2226 -2.1389  2.5489
  161SOL    HW2  483   2.880   2.103   2.634  2.7080 -2.7645 -0.8519
  162SOL     OW  484   0.108   2.200   1.269 -0.0298  0.5316 -0.6808
  162SOL    HW1  485   0.064   2.224   1.358 -1.0801 -2.5462  0.2611
  162SOL    HW2  486   0.198   2.151   1.286  1.9286 -0.0249  0.4012
  163SOL     OW  487   0.315   0.445   2.861  0.1421  0.2234 -0.0240
  163SOL    HW1  488   0.296   0.365   2.803  2.1345 -0.1569 -0.5096
  163SOL    HW2  489   0.230   0.501   2.860  0.9591  2.2209  0.4148
  164SOL     OW  490   0.241   2.718   2.405  0.8145 -0.5913  0.3289
  164SOL    HW1  491   0.290   2.799   2.437  0.2930 -0.9183 -2.4642
  164SOL    HW2  492   0.166   2.699   2.471 -1.4837  3.0356  0.6586
  165SOL     OW  493   2.682   1.011   1.635 -0.2968 -0.0537 -0.1293
  165SOL    HW1  494   2.710   1.044   1.727  1.3696 -0.9065 -0.5933
  165SOL    HW2  495   2.587   1.032   1.612  0.8071 -2.1865  1.7736
  166SOL     OW  496   1.921   1.891   1.594 -0.1532 -0.4676 -0.0000
  166SOL    HW1  497   2.005   1.866   1.650  3.5094  2.8542 -0.8000
  166SOL    HW2  498   1.875   1.806   1.554  1.3320 -0.2535  1.4786
  167SOL     OW  499   0.413   0.622   2.315  0.0306 -0.0301 -0.1995
  167SOL    HW1  500   0.382   0.657   2.225  0.3834 -0.7832  1.3390
  167SOL    HW2  501   0.383   0.694   2.379  2.1088 -0.3324 -2.8035
  168SOL     OW  502   2.061   0.206   2.207 -0.7472 -0.1254 -0.3984
  168SOL    HW1  503   2.119   0.151   2.273  0.8601  0.3387  4.3337
  168SOL    HW2  504   2.012   0.144   2.148 -1.6421  4.2420  1.3521
  169SOL     OW  505   0.455   0.974   2.991 -0.1728 -0.5166  0.4420
  169SOL    HW1  506   0.465   1.009   2.897  1.9831  0.3977 -1.6566
  169SOL    HW2  507   0.499   0.883   3.006 -0.1148  2.1084 -0.0156
  170SOL     OW  508   0.898   1.395   1.423 -0.1850  0.3726  0.0539
  170SOL    HW1  509   0.959   1.312   1.438 -0.6371 -1.8642 -0.0508
  170SOL    HW2  510   0.799   1.374   1.412 -3.2244 -2.2005  1.4331
  171SOL     OW  511   1.168   2.618   1.858  0.5258 -0.0328 -0.1177
  171SOL    HW1  512   1.092   2.680   1.838 -2.4301  1.3426  1.2214
  171SOL    HW2  513   1.222   2.593   1.771 -0.7869  1.7876  1.1879
  172SOL     OW  514   1.160   0.095   1.941 -0.7410  0.6367 -0.5463
  172SOL    HW1  515   1.185   0.019   2.004  0.1369 -3.7530  0.1833
  172SOL    HW2  516   1.119   0.173   1.990 -0.6409 -0.0537  0.5475
  173SOL     OW  517   1.234   2.407   0.803  0.0663 -0.1575  0.5582
  173SOL    HW1  518   1.260   2.413   0.900  1.8680 -1.5038 -0.4487
  173SOL    HW2  519   1.244   2.310   0.769  1.4980 -0.3311 -1.5358
  174SOL     OW  520   2.314   0.013   0.557 -0.6060 -0.7314 -0.5321
  174SOL    HW1  521   2.223   0.003   0.602  1.2208 -0.4663 -0.7437
  174SOL    HW2  522   2.314   0.093   0.493  2.2100 -2.3525  1.5779
  175SOL     OW  523   1.250   1.176   0.633  0.3253  0.0282 -0.4163
  175SOL    HW1  524   1.262   1.265   0.682 -0.9587 -0.4242 -1.2004
  175SOL    HW2  525   1.161   1.167   0.581 -0.6508 -1.9935 -1.0396
  176SOL     OW  526   0.751   1.601   0.463  0.0682 -0.5921 -0.1060
  176SOL    HW1  527   0.799   1.644   0.542 -0.0490 -1.4170  0.0255
  176SOL    HW2  528   0.757   1.498   0.468 -2.8130  0.2518 -1.7148
  177SOL     OW  529   1.295   1.233   0.977  0.6811 -0.3467  0.5358
  177SOL    HW1  530   1.340   1.285   1.054 -4.1575  1.5150  0.7620
  177SOL    HW2  531   1.342   1.146   0.962 -1.1557  1.5479 -0.4478
  178SOL     OW  532   2.478   1.799   0.420  0.4753  0.0360 -0.1464
  178SOL    HW1  533   2.413   1.839   0.486 -1.1047  0.4189  1.2941
  178SOL    HW2  534   2.489   1.695   0.426  1.4525  0.5675 -0.7658
  179SOL     OW  535   1.297   2.889   0.095  0.3209 -0.6295 -0.2561
  179SOL    HW1  536   1.230   2.906   0.172 -0.2012 -0.9448 -1.4350
  179SOL    HW2  537   1.336   2.796   0.105  1.5978 -1.0011 -2.0590
  180SOL     OW  538   1.955   1.390   1.588 -0.0053  0.0648 -0.6137
  180SOL    HW1  539   2.027   1.380   1.659  3.2824 -0.6394  3.1851
  180SOL    HW2  540   1.957   1.481   1.551 -0.4045  0.4561  1.7480
  181SOL     OW  541   1.032   0.625   2.019 -0.1299  0.2085  0.0716
  181SOL    HW1  542   1.083   0.647   2.103  1.6659 -0.7064 -2.9662
  181SOL    HW2  543   1.103   0.587   1.957  3.6540 -1.2628  0.7684
  182SOL     OW  544   0.173   1.323   2.254 -0.2514 -0.2623 -0.4175
  182SOL    HW1  545   0.093   1.289   2.308  1.3837  0.0603 -1.2781
  182SOL    HW2  546   0.149   1.303   2.154 -2.1721 -0.0503  0.5580
  183SOL     OW  547   1.468   0.621   2.341 -0.3897  0.3199  0.2715
  183SOL    HW1  548   1.567   0.611   2.371 -0.4785 -0.1722 -2.9142
  183SOL    HW2  549   1.401   0.575   2.398 -2.3653  0.4479 -1.0391
  184SOL     OW  550   0.702   0.561   1.134 -0.4120 -0.2254  0.1375
  184SOL    HW1  551   0.745   0.654   1.139  1.3996 -0.3338 -1.0831
  184SOL    HW2  552   0.729   0.511   1.218  0.5812 -3.3290  2.6935
  185SOL     OW  553   2.218   1.621   0.816 -0.3184  0.2420  0.0840
  185SOL    HW1  554   2.230   1.626   0.715  0.6646 -0.6088 -1.1440
  185SOL    HW2  555   2.126   1.593   0.850 -1.7917  0.4224  2.4817
  186SOL     OW  556   0.290   1.880   0.230 -0.0565  0.2114 -0.2669
  186SOL    HW1  557   0.374   1.928   0.256  0.4245 -1.1831 -1.2021
  186SOL    HW2  558   0.286   1.797   0.291 -0.8683  0.5622  0.3613
  187SOL     OW  559   1.999   2.147   0.062  0.0499  0.5179  0.3678
  187SOL    HW1  560   1.972   2.085   0.138 -1.2840  1.5562  0.0676
  187SOL    HW2  561   2.032   2.236   0.099 -1.1307 -0.3682  1.6588
  188SOL     OW  562   1.151   2.204   1.218 -0.4153  0.1008 -0.6283
  188SOL    HW1  563   1.131   2.195   1.123  0.3047 -1.4796  1.3361
  188SOL    HW2  564   1.065   2.215   1.275  2.5709  0.0066  1.4610
  189SOL     OW  565   2.092   1.577   2.542 -0.2126  0.3544 -0.2750
  189SOL    HW1  566   2.004   1.539   2.581 -2.5583 -0.3268 -1.3924
  189SOL    HW2  567   2.066   1.670   2.502 -2.5192  0.8381 -1.1498
  190SOL     OW  568   0.991   2.407   2.291  0.1769 -0.9138  0.6330
  190SOL    HW1  569   1.015   2.357   2.208  1.9651  2.8812  3.0481
  190SOL    HW2  570   0.972   2.504   2.260 -0.0668  2.8042  0.0268
  191SOL     OW  571   2.516   0.886   1.184 -0.0152 -0.0766 -0.4885
  191SOL    HW1  572   2.602   0.859   1.242  3.8867 -0.9373  0.2881
  191SOL    HW2  573   2.517   0.838   1.093  1.6699  1.1539 -0.9882
  192SOL     OW  574   2.707   0.743   1.569 -0.5734  0.0995 -0.1260
  192SOL    HW1  575   2.618   0.708   1.538  0.9199  0.8802 -2.6159
  192SOL    HW2  576   2.699   0.836   1.613 -0.6656  1.3925 -1.4162
  193SOL     OW  577   0.851   0.314   0.177  0.3406  0.0860 -0.1411
  193SOL    HW1  578   0.942   0.293   0.147  0.3109 -0.1046  0.5140
  193SOL    HW2  579   0.799   0.381   0.111 -4.0691 -0.4032 -1.6391
  194SOL     OW  580   0.944   2.427   1.449  0.8253  0.2628  0.1066
  194SOL    HW1  581   0.961   2.331   1.443  0.0081  2.2068  0.8736
  194SOL    HW2  582   1.021   2.477   1.493 -2.3572  0.5569  0.3978
  195SOL     OW  583   2.506   1.302   0.272 -0.0379 -0.3441 -0.2951
  195SOL    HW1  584   2.424   1.267   0.326 -0.6188  0.1895 -0.8732
  195SOL    HW2  585   2.471   1.334   0.186  1.8855  1.6865  0.2153
  196SOL     OW  586   0.539   2.288   1.651  0.2750  0.7501 -0.5346
  196SOL    HW1  587   0.473   2.298   1.576 -1.3662 -1.0785 -1.5458
  196SOL    HW2  588   0.482   2.318   1.728 -2.6243 -0.5565  1.9079
  197SOL     OW  589   3.085   0.678   2.140  0.4000 -0.5890 -0.2306
  197SOL    HW1  590   0.033   0.596   2.101  0.1305 -3.5392 -1.4308
  197SOL    HW2  591   3.043   0.660   2.230  0.7616  0.9589 -1.2983
  198SOL     OW  592   1.886   1.075   0.414  0.2371  0.1626 -0.4456
  198SOL    HW1  593   1.870   1.050   0.318 -2.8617 -0.2430  0.6184
  198SOL    HW2  594   1.899   1.176   0.427 -0.0637  2.5503  0.6274
  199SOL     OW  595   2.540   0.458   1.502  0.2230  0.2576 -0.2738
  199SOL    HW1  596   2.476   0.536   1.497  0.3932  1.9284 -1.4434
  199SOL    HW2  597   2.580   0.448   1.595 -2.4151 -0.7714  1.2396
  200SOL     OW  598   2.134   0.277   2.710  0.2883  0.2418 -0.3739
  200SOL    HW1  599   2.234   0.257   2.678  2.0160  0.2876 -0.7906
  200SOL    HW2  600   2.131   0.341   2.789  0.6102  0.0823 -1.9440
  201SOL     OW  601   2.563   0.188   1.038  0.1913  0.1296 -0.7753
  201SOL    HW1  602   2.532   0.198   1.136  0.6275  2.3475 -0.2471
  201SOL    HW2  603   2.628   0.258   1.008  0.5434 -1.6856 -0.0355
  202SOL     OW  604   0.073   2.745   0.325  0.0938 -0.2690 -0.0769
  202SOL    HW1  605   0.034   2.742   0.421  0.4782  0.1383  1.0054
  202SOL    HW2  606   0.173   2.759   0.324 -0.6363 -0.2087 -3.0059
  203SOL     OW  607   1.394   1.611   0.145 -0.1086  0.5792 -0.4331
  203SOL    HW1  608   1.347   1.597   0.232 -1.3637 -0.1025 -1.2382
  203SOL    HW2  609   1.461   1.538   0.115 -0.9572  0.5665 -2.8858
  204SOL     OW  610   0.485   1.986   2.274 -0.0202  0.0605  0.1246
  204SOL    HW1  611   0.523   1.996   2.180 -0.8035 -0.0134  0.7084
  204SOL    HW2  612   0.395   1.939   2.265  1.6623  1.2240 -0.1851
  205SOL     OW  613   1.086   0.614   0.834 -0.2255 -0.1456 -0.1262
  205SOL    HW1  614   1.107   0.536   0.907  2.2983 -1.8256  1.2756
  205SOL    HW2  615   1.135   0.607   0.748 -0.9602 -0.0613 -1.8687
  206SOL     OW  616   0.485   0.644   2.774  0.2294 -0.0600  0.1267
  206SOL    HW1  617   0.435   0.732   2.758 -0.6343 -0.4806 -0.2155
  206SOL    HW2  618   0.424   0.569   2.807  0.2281 -1.2650  0.4746
  207SOL     OW  619   1.404   2.468   1.645 -0.4670  0.4508 -0.0100
  207SOL    HW1  620   1.486   2.529   1.662 -0.3383  2.4337  0.0822
  207SOL    HW2  621   1.388   2.410   1.726 -3.2168  0.2928 -1.6288
  208SOL     OW  622   0.006   2.874   1.204  0.0419 -0.2564  0.4222
  208SOL    HW1  623   0.093   2.885   1.148  1.8089 -0.3910  1.6152
  208SOL    HW2  624   3.040   2.941   1.167 -0.2104 -0.9271  0.6519
  209SOL     OW  625   1.646   0.973   0.548 -0.2762  0.3203 -0.0377
  209SOL    HW1  626   1.666   0.922   0.633 -1.2139 -0.7971 -0.1730
  209SOL    HW2  627   1.735   1.005   0.507  2.9088  2.6592 -1.2568
  210SOL     OW  628   2.602   0.861   0.292  0.0818 -0.0329  0.1566
  210SOL    HW1  629   2.594   0.928   0.374 -3.1883  1.5212  2.8846
  210SOL    HW2  630   2.645   0.914   0.211 -1.1001  4.2332 -1.2493
  211SOL     OW  631   1.233   0.168   0.291  0.4312 -0.5910  0.0835
  211SOL    HW1  632   1.176   0.165   0.206 -1.3478 -0.3887  1.2229
  211SOL    HW2  633   1.329   0.157   0.264 -2.8928 -1.0853 -0.5386
  212SOL     OW  634   1.765   2.015   0.609  0.0256  0.2705 -0.2814
  212SOL    HW1  635   1.824   2.096   0.631 -0.4576 -0.4648 -1.9944
  212SOL    HW2  636   1.776   1.992   0.511 -0.4449  0.9974  2.9579
  213SOL     OW  637   2.363   0.206   2.589 -0.3876  0.3147  0.2232
  213SOL    HW1  638   2.392   0.143   2.662  2.0729  1.4048  5.7412
  213SOL    HW2  639   2.429   0.279   2.577 -2.7655 -1.7252 -3.4338
  214SOL     OW  640   1.017   1.985   2.201  0.0369 -0.0332  0.2978
  214SOL    HW1  641   1.096   2.028   2.154  0.3376 -1.5291  0.3551
  214SOL    HW2  642   0.940   2.056   2.210  0.1324  1.2507 -0.8821
  215SOL     OW  643   0.270   1.266   1.088  0.2229 -0.3159  0.3889
  215SOL    HW1  644   0.234   1.360   1.106  0.1122  1.4493  0.0798
  215SOL    HW2  645   0.346   1.254   1.154 -0.5489 -0.4522 -2.7660
  216SOL     OW  646   0.176   2.184   2.783  0.1202  0.3070 -0.6185
  216SOL    HW1  647   0.115   2.148   2.857 -3.9420 -0.8385  2.2210
  216SOL    HW2  648   0.245   2.244   2.821 -1.1660 -3.4292  0.7518
  217SOL     OW  649   2.668   1.265   1.472 -0.0832 -0.0529  0.3454
  217SOL    HW1  650   2.689   1.180   1.417 -0.2609  1.9796 -0.2701
  217SOL    HW2  651   2.665   1.243   1.572 -0.3895 -1.5746  3.0107
  218SOL     OW  652   0.756   2.277   2.011 -0.1556 -0.1512  0.1691
  218SOL    HW1  653   0.834   2.328   1.964 -0.9901 -0.1679  2.5868
  218SOL    HW2  654   0.780   2.259   2.110 -0.2856  0.4046  0.7489
  219SOL     OW  655   2.068   1.595   0.382  0.3060 -0.1357  0.2751
  219SOL    HW1  656   2.150   1.634   0.333  1.9915 -0.6979  1.0098
  219SOL    HW2  657   2.024   1.674   0.435  0.5191  1.2009  0.9071
  220SOL     OW  658   2.018   0.848   0.484 -0.7769 -0.0069 -0.0450
  220SOL    HW1  659   1.974   0.938   0.493 -0.3930  0.6744 -0.6365
  220SOL    HW2  660   1.954   0.773   0.516  0.6263  0.2198  1.4386
  221SOL     OW  661   2.771   0.474   0.158  0.0044  0.5361 -0.1606
  221SOL    HW1  662   2.704   0.545   0.198  1.4406  3.6813  2.9649
  221SOL    HW2  663   2.855   0.478   0.210 -1.7204  0.6588 -2.8358
  222SOL     OW  664   1.539   1.444   0.596 -0.4483 -0.7770 -0.2515
  222SOL    HW1  665   1.569   1.390   0.515 -1.4460 -2.1155 -0.0269
  222SOL    HW2  666   1.435   1.455   0.603 -1.6371  2.5852  2.3728
  223SOL     OW  667   1.090   0.040   2.948 -0.1908 -0.7395 -0.6242
  223SOL    HW1  668   1.164   0.044   2.876 -1.1504  0.3413  0.8789
  223SOL    HW2  669   1.090   3.054   2.997 -1.5460 -0.2684  0.1083
  224SOL     OW  670   1.014   2.837   1.296 -0.1480  0.4313 -0.2472
  224SOL    HW1  671   1.025   2.891   1.213  2.3079  0.7595 -0.1106
  224SOL    HW2  672   1.040   2.900   1.374 -1.0829  1.8253  1.3452
  225SOL     OW  673   0.481   2.685   1.992 -0.1381  0.0306  0.5640
  225SOL    HW1  674   0.401   2.728   2.041  0.1665  1.1146  1.9308
  225SOL    HW2  675   0.489   2.586   2.001  0.2858  0.5243  0.2668
  226SOL     OW  676   1.494   1.342   0.286 -0.1579  0.3921 -0.7250
  226SOL    HW1  677   1.489   1.256   0.342  0.9546 -1.8172  0.1195
  226SOL    HW2  678   1.407   1.388   0.282  0.6707 -3.3037 -2.4950
  227SOL     OW  679   0.487   1.531   0.791  0.0993 -0.1288  0.4438
  227SOL    HW1  680   0.527   1.603   0.729 -0.1780  2.4577  1.0932
  227SOL    HW2  681   0.438   1.459   0.738 -0.9829 -1.4994  2.3635
  228SOL     OW  682   0.094   1.781   0.738 -0.1072 -0.7154 -0.3148
  228SOL    HW1  683   3.097   1.752   0.722  1.1497 -1.8629 -1.5680
  228SOL    HW2  684   0.104   1.881   0.738 -0.0640  0.7214  0.9209
  229SOL     OW  685   2.710   0.111   2.931 -0.3373 -0.0690  0.2115
  229SOL    HW1  686   2.696   0.148   3.025 -0.3552 -2.5139 -0.4114
  229SOL    HW2  687   2.807   0.082   2.913 -0.2544 -1.8867 -0.7798
  230SOL     OW  688   2.347   1.131   0.826  0.6254  0.0569  0.1557
  230SOL    HW1  689   2.359   1.224   0.784  0.5629  3.7558 -1.5026
  230SOL    HW2  690   2.374   1.132   0.924  1.6407 -0.5438  2.0645
  231SOL     OW  691   1.695   1.319   2.947 -0.6179 -0.2943  0.2781
  231SOL    HW1  692   1.682   1.397   2.888 -0.7128 -1.3177  2.0001
  231SOL    HW2  693   1.692   1.353   3.040  1.0524 -0.8215 -4.0935
  232SOL     OW  694   2.131   1.979   0.949  0.1669 -0.2842 -0.1309
  232SOL    HW1  695   2.200   1.922   0.996  0.3743 -2.0311  1.2553
  232SOL    HW2  696   2.157   2.076   0.965 -1.0241 -4.0080 -0.0624
  233SOL     OW  697   0.230   2.916   1.052  0.4116  0.4941  0.1434
  233SOL    HW1  698   0.305   2.932   1.122 -1.0882 -1.9705 -2.3597
  233SOL    HW2  699   0.229   2.996   0.990  1.6969 -2.3496 -0.3343
  234SOL     OW  700   0.838   0.184   2.602 -0.3643  0.1901  0.2359
  234SOL    HW1  701   0.928   0.142   2.571  2.2912 -1.5886  0.2511
  234SOL    HW2  702   0.848   0.247   2.684  0.9475  2.5590  0.2429
  235SOL     OW  703   2.996   1.002   2.263 -0.4546 -0.3555 -0.2170
  235SOL    HW1  704   2.902   0.978   2.225  1.5406  0.6656  1.4945
  235SOL    HW2  705   3.068   0.980   2.191 -0.2844 -0.1204  0.1607
  236SOL     OW  706   1.555   3.008   1.733 -0.0686 -0.1492  0.0616
  236SOL    HW1  707   1.481   3.062   1.776  0.2827  2.8974 -2.5535
  236SOL    HW2  708   1.525   2.923   1.685 -1.3914 -1.2054  0.3081
  237SOL     OW  709   0.785   1.425   2.568  0.1774 -0.1879  0.3910
  237SOL    HW1  710   0.720   1.402   2.495  1.6187 -0.3097  2.4129
  237SOL    HW2  711   0.809   1.526   2.570  0.8314  2.9373  0.1121
  238SOL     OW  712   1.055   0.536   2.432  0.4611  0.0357 -0.3315
  238SOL    HW1  713   1.079   0.629   2.398  0.0610 -4.2795 -0.7686
  238SOL    HW2  714   0.966   0.501   2.399 -0.4771 -1.5873  0.1481
  239SOL     OW  715   0.157   2.275   2.081  0.2859 -0.0395  0.1180
  239SOL    HW1  716   0.169   2.239   1.987 -0.4772 -2.4824 -1.5546
  239SOL    HW2  717   0.242   2.266   2.140  0.0928 -0.5726  2.7051
  240SOL     OW  718   2.529   0.134   0.725 -0.4585  0.5934  0.2393
  240SOL    HW1  719   2.479   0.209   0.768 -0.1729  0.1172 -1.1843
  240SOL    HW2  720   2.462   0.069   0.685  1.1145  3.7269  0.9418
  241SOL     OW  721   0.084   0.848   0.120 -0.2776 -0.2018  0.3081
  241SOL    HW1  722   0.106   0.759   0.072 -0.0192 -2.1521 -0.6727
  241SOL    HW2  723   0.118   0.927   0.065  0.2339 -0.7308  3.8764
  242SOL     OW  724   1.685   2.546   1.737  0.1492 -0.0331 -0.4798
  242SOL    HW1  725   1.690   2.448   1.717  1.1542  0.8976  1.3082
  242SOL    HW2  726   1.678   2.573   1.839  1.0661  0.0159 -1.9541
  243SOL     OW  727   0.493   2.412   2.030 -0.1707  0.6793  0.3248
  243SOL    HW1  728   0.591   2.373   2.012  0.6773 -3.1418 -1.7210
  243SOL    HW2  729   0.453   2.364   2.114 -1.4607 -0.1940  0.5754
  244SOL     OW  730   2.396   0.414   2.164  0.1925  0.0043 -0.2944
  244SOL    HW1  731   2.304   0.414   2.209  0.6143 -0.1371 -3.3524
  244SOL    HW2  732   2.409   0.510   2.126  1.3398  0.9494 -0.3908
  245SOL     OW  733   1.406   3.074   1.060  0.0550 -0.0901  0.0950
  245SOL    HW1  734   1.388   0.040   1.136 -2.0066  0.7251  1.3160
  245SOL    HW2  735   1.339   3.083   0.987  1.4674  1.5541  0.5403
  246SOL     OW  736   1.628   2.876   0.517  0.4236 -0.7420  0.1627
  246SOL    HW1  737   1.625   2.819   0.435  0.3818  0.8295  1.0388
  246SOL    HW2  738   1.548   2.853   0.579 -2.0303 -4.2829  2.5027
  247SOL     OW  739   1.494   0.610   1.913 -0.2339 -0.1262 -0.1385
  247SOL    HW1  740   1.469   0.517   1.924  1.9997 -1.7763  0.3477
  247SOL    HW2  741   1.596   0.624   1.914  3.1223  0.0896 -0.5204
  248SOL     OW  742   3.022   2.088   1.699 -0.0497 -0.3953 -0.4841
  248SOL    HW1  743   2.978   1.997   1.708  0.4927 -0.2294  0.8234
  248SOL    HW2  744   3.010   2.154   1.782  1.9981  2.7654  2.7413
  249SOL     OW  745   3.034   0.237   0.339 -0.1146 -0.1012  0.1723
  249SOL    HW1  746   3.041   0.309   0.409  2.8372  0.2147 -0.5399
  249SOL    HW2  747   0.016   0.246   0.278  2.3455  1.1286 -0.9320
  250SOL     OW  748   2.751   0.053   2.551 -0.2450  0.5523  0.4991
  250SOL    HW1  749   2.843   0.012   2.576  1.2914  0.6559 -1.0294
  250SOL    HW2  750   2.686   0.044   2.626  0.6418 -0.6773  1.0147
  251SOL     OW  751   1.466   0.785   0.151  0.4113  0.5699  0.0244
  251SOL    HW1  752   1.496   0.818   0.058 -0.1857 -2.4535  2.0797
  251SOL    HW2  753   1.552   0.768   0.207 -1.5799 -3.5072 -2.0457
  252SOL     OW  754   1.364   2.318   1.884  0.1153  0.2929  0.1317
  252SOL    HW1  755   1.378   2.224   1.928 -2.7127 -3.9290  2.4499
  252SOL    HW2  756   1.390   2.395   1.946 -0.9820 -0.7352  0.4839
  253SOL     OW  757   2.068   2.584   0.914 -1.1387  0.2164 -0.0572
  253SOL    HW1  758   2.027   2.491   0.936  0.4380  1.6871  1.1523
  253SOL    HW2  759   1.999   2.650   0.882  0.2799  1.6608 -0.2038
  254SOL     OW  760   2.402   1.421   0.836 -0.3232  0.0749  0.4384
  254SOL    HW1  761   2.330   1.490   0.811 -0.6003  0.4447  0.6292
  254SOL    HW2  762   2.427   1.438   0.932  0.4217 -1.2191 -2.0219
  255SOL     OW  763   0.744   2.727   1.346  0.2064 -0.1892  0.2963
  255SOL    HW1  764   0.834   2.778   1.345  0.6684  0.6430 -0.1636
  255SOL    HW2  765   0.756   2.631   1.311  0.2449 -1.4659 -0.7982
  256SOL     OW  766   1.709   2.023   1.707 -0.1214 -0.3771 -0.0665
  256SOL    HW1  767   1.780   1.960   1.667  1.7107  1.7228 -0.6136
  256SOL    HW2  768   1.640   2.046   1.636  1.0009 -2.1844 -4.2919
  257SOL     OW  769   0.370   2.451   2.438 -0.5236  0.2896  0.3974
  257SOL    HW1  770   0.390   2.474   2.533 -1.6319 -0.8255 -2.3250
  257SOL    HW2  771   0.341   2.537   2.388  0.1701 -1.1360  0.2335
  258SOL     OW  772   0.759   2.620   0.859  0.3740  0.0700  0.6471
  258SOL    HW1  773   0.831   2.687   0.873 -2.8176 -0.1482  1.7554
  258SOL    HW2  774   0.682   2.627   0.925 -0.9798  1.4916 -0.4159
  259SOL     OW  775   1.453   0.615   2.843 -0.3441  0.0450 -0.2148
  259SOL    HW1  776   1.504   0.555   2.913  2.5787 -1.0596  1.8609
  259SOL    HW2  777   1.377   0.670   2.891  0.4967  2.2626 -0.5957
  260SOL     OW  778   3.004   1.134   1.139 -0.2603  0.9304  0.1838
  260SOL    HW1  779   3.019   1.225   1.173 -2.3286 -2.5478 -0.4556
  260SOL    HW2  780   3.090   1.098   1.089  2.4532 -2.3692  0.0058
  261SOL     OW  781   0.842   0.349   2.369 -0.1534  0.3128 -0.4876
  261SOL    HW1  782   0.804   0.281   2.437  1.5184 -0.4424  0.6602
  261SOL    HW2  783   0.871   0.293   2.290 -1.3570  0.1567  0.6255
  262SOL     OW  784   1.094   2.281   2.084 -0.4420  0.2469  0.1258
  262SOL    HW1  785   1.078   2.309   1.990  0.9934 -3.5464  0.0527
  262SOL    HW2  786   1.173   2.214   2.099  4.3000 -0.8480  1.1646
  263SOL     OW  787   0.577   2.164   2.953  0.0164 -0.6601  0.0806
  263SOL    HW1  788   0.661   2.219   2.973 -0.9702  1.4177 -2.2983
  263SOL    HW2  789   0.573   2.082   3.011 -0.9863  2.1946  1.0743
  264SOL     OW  790   1.076   1.504   1.224 -0.3526 -0.1751 -0.0107
  264SOL    HW1  791   1.166   1.492   1.269  1.0833  0.6567  1.7865
  264SOL    HW2  792   1.007   1.486   1.300 -0.5965  0.0949  0.8066
  265SOL     OW  793   0.975   2.324   0.422 -0.6230  0.2502  0.1433
  265SOL    HW1  794   0.945   2.234   0.462  1.8062 -0.1503 -1.0015
  265SOL    HW2  795   1.022   2.385   0.483 -2.4908  0.8162  0.0589
  266SOL     OW  796   2.588   0.757   0.964  0.3825  0.4232  0.1212
  266SOL    HW1  797   2.683   0.733   0.937  0.1680 -0.4082 -1.3690
  266SOL    HW2  798   2.534   0.774   0.881  2.2994  0.2565 -0.7567
  267SOL     OW  799   2.947   1.266   2.863 -0.2875 -0.0896  0.2885
  267SOL    HW1  800   3.001   1.286   2.946  0.3049  1.3642 -1.9761
  267SOL    HW2  801   3.015   1.238   2.790 -0.3377 -0.5820 -0.3058
  268SOL     OW  802   1.587   0.143   0.251 -0.6050  0.1718 -0.2286
  268SOL    HW1  803   1.605   0.103   0.343  0.1950 -4.5454 -1.8496
  268SOL    HW2  804   1.619   0.242   0.243 -0.0153  0.0681 -1.5931
  269SOL     OW  805   2.946   0.949   2.541  0.0394 -0.0434  0.1404
  269SOL    HW1  806   2.864   1.003   2.547  2.6449 -1.5640  0.3416
  269SOL    HW2  807   2.978   0.951   2.442  1.0677 -0.1644 -3.8614
  270SOL     OW  808   0.005   1.271   3.085  0.3673 -0.0204  0.5492
  270SOL    HW1  809   3.068   1.263   0.079 -1.7572 -1.7496  2.1497
  270SOL    HW2  810   0.080   1.200   3.072 -0.1752 -0.7443 -0.0433
  271SOL     OW  811   2.581   1.629   2.512 -0.1441 -0.0521 -0.6721
  271SOL    HW1  812   2.654   1.624   2.583  1.4069 -2.5619  1.9887
  271SOL    HW2  813   2.552   1.535   2.483  1.5188 -3.4471  0.1840
  272SOL     OW  814   2.353   2.507   1.800  0.1128  0.4279 -0.6343
  272SOL    HW1  815   2.312   2.420   1.756  2.0905 -0.4534 -0.7795
  272SOL    HW2  816   2.296   2.585   1.802  0.0331 -0.5747  0.7842
  273SOL     OW  817   0.256   2.405   0.008 -0.6012 -0.5317 -0.1189
  273SOL    HW1  818   0.233   2.503   3.099  0.1877  0.6414 -1.0349
  273SOL    HW2  819   0.190   2.361   0.073 -0.5445 -0.9029  1.2778
  274SOL     OW  820   0.937   2.316   0.796  0.2163 -0.4110 -0.7579
  274SOL    HW1  821   0.846   2.274   0.763 -1.0361 -1.1942  1.0275
  274SOL    HW2  822   0.989   2.386   0.733 -0.7953  0.8630 -3.1591
  275SOL     OW  823   2.278   1.662   0.225  0.5149 -0.0572  0.0790
  275SOL    HW1  824   2.339   1.720   0.280  3.1625 -1.2515  0.1478
  275SOL    HW2  825   2.309   1.670   0.130  0.3424 -1.5275 -1.1984
  276SOL     OW  826   2.461   1.444   1.704  0.2053  0.1709  0.8673
  276SOL    HW1  827   2.445   1.474   1.795  3.9174  0.2163 -4.7639
  276SOL    HW2  828   2.543   1.489   1.666  1.3961  1.1795 -0.6269
  277SOL     OW  829   2.406   0.345   0.836 -0.0831  0.1477 -0.0004
  277SOL    HW1  830   2.343   0.413   0.792 -1.0334  1.3931 -1.3408
  277SOL    HW2  831   2.361   0.305   0.920 -0.6077  1.3634 -2.1102
  278SOL     OW  832   1.729   0.575   2.425  0.5113  0.0689  0.0462
  278SOL    HW1  833   1.704   0.608   2.522 -0.0285 -1.6282  0.0327
  278SOL    HW2  834   1.759   0.479   2.430  1.1947 -1.0335 -1.6057
  279SOL     OW  835   1.226   2.682   1.299 -0.2367 -0.3925 -0.0480
  279SOL    HW1  836   1.264   2.665   1.207 -0.4757  2.8966  1.9236
  279SOL    HW2  837   1.142   2.745   1.300  1.0967 -0.4457  0.7503
  280SOL     OW  838   1.081   0.819   0.313 -0.9662 -0.3156  0.2337
  280SOL    HW1  839   1.032   0.782   0.232  4.9541  0.9825  1.7820
  280SOL    HW2  840   1.157   0.886   0.290 -1.1962  2.0407 -0.6482
  281SOL     OW  841   2.589   1.569   0.000 -0.1432 -0.1859 -0.0989
  281SOL    HW1  842   2.674   1.606   0.045 -2.0431 -2.0278  1.3504
  281SOL    HW2  843   2.531   1.657   3.085 -1.3234  1.2905  0.2982
  282SOL     OW  844   2.713   1.203   0.152  0.4233 -0.0841  0.0578
  282SOL    HW1  845   2.631   1.243   0.194  1.6387  1.7632 -1.9773
  282SOL    HW2  846   2.794   1.248   0.186 -1.2132 -0.4374 -1.4447
  283SOL     OW  847   1.534   3.036   2.705  0.0420  0.0993  0.0396
  283SOL    HW1  848   1.561   3.026   2.606 -0.1240  1.0540 -0.4269
  283SOL    HW2  849   1.614   3.072   2.762 -1.3146  2.3573  2.5740
  284SOL     OW  850   0.829   0.064   2.893 -0.2213 -0.1583 -0.2066
  284SOL    HW1  851   0.820   0.163   2.863 -2.3394  0.3610 -0.5718
  284SOL    HW2  852   0.928   0.048   2.915  1.2510 -1.5564  1.5637
  285SOL     OW  853   1.969   1.961   2.766 -0.1244  0.6751  0.1229
  285SOL    HW1  854   2.056   1.975   2.710  3.2675 -0.9748  0.6882
  285SOL    HW2  855   1.962   2.045   2.823  1.1754 -0.2637 -1.1025
  286SOL     OW  856   1.205   1.660   0.838  0.5604  0.2318 -0.1786
  286SOL    HW1  857   1.109   1.654   0.870  1.6312  1.0705  0.7391
  286SOL    HW2  858   1.276   1.643   0.911  0.8953 -0.8495  0.8870
  287SOL     OW  859   1.673   0.226   1.400 -0.0062  0.6414 -0.4038
  287SOL    HW1  860   1.692   0.165   1.480 -1.5671 -1.2405 -0.5697
  287SOL    HW2  861   1.583   0.269   1.422  1.3233  0.2437 -2.0248
  288SOL     OW  862   0.938   2.674   2.213 -0.6791  0.1343 -0.0775
  288SOL    HW1  863   0.931   2.758   2.268  1.5132 -0.4317 -0.8106
  288SOL    HW2  864   0.879   2.684   2.131  2.6455 -0.7089 -0.4833
  289SOL     OW  865   0.270   1.287   0.828 -0.2521  0.1194 -0.6660
  289SOL    HW1  866   0.218   1.218   0.778  3.2138  1.0996 -3.1047
  289SOL    HW2  867   0.290   1.259   0.925  2.0410 -0.4924  1.7408
  290SOL     OW  868   1.141   2.081   1.597  0.4848 -0.4332  0.4534
  290SOL    HW1  869   1.177   2.002   1.640  2.6871  1.6105 -1.1841
  290SOL    HW2  870   1.219   2.139   1.571 -0.8283 -3.2374  1.0407
  291SOL     OW  871   2.053   0.005   0.681  0.1528 -0.1081 -0.1284
  291SOL    HW1  872   1.965   0.012   0.730  1.0038  0.3488  1.1683
  291SOL    HW2  873   2.039   0.032   0.584 -1.3605 -0.0108  1.6422
  292SOL     OW  874   0.247   0.311   1.556  0.3576  0.1794 -0.5432
  292SOL    HW1  875   0.243   0.365   1.471 -0.6382 -1.0463 -1.3567
  292SOL    HW2  876   0.209   0.374   1.634  0.0583  0.6914  1.6610
  293SOL     OW  877   2.352   1.781   0.995  0.0309 -0.1672 -0.1226
  293SOL    HW1  878   2.447   1.803   0.971 -0.6294 -2.2237  1.0386
  293SOL    HW2  879   2.312   1.704   0.940 -0.0378 -1.8844  0.8380
  294SOL     OW  880   0.379   0.350   2.324 -0.1338 -0.0871 -0.7565
  294SOL    HW1  881   0.397   0.451   2.326  1.4939  1.9161 -0.9252
  294SOL    HW2  882   0.462   0.292   2.342 -0.1571  2.6022 -0.2379
  295SOL     OW  883   1.000   1.198   0.520 -0.5142 -0.2175 -0.1097
  295SOL    HW1  884   0.946   1.114   0.539 -0.6394 -1.7307  1.7381
  295SOL    HW2  885   0.942   1.280   0.542 -1.6242  1.1304  0.4781
  296SOL     OW  886   1.930   1.957   1.117  0.2333 -0.0441 -0.0939
  296SOL    HW1  887   1.898   1.863   1.132 -0.4511  0.6054  1.9848
  296SOL    HW2  888   1.978   1.976   1.030 -1.1834  0.7739  0.5950
  297SOL     OW  889   1.898   0.468   2.707  0.1103 -0.8716  0.1861
  297SOL    HW1  890   1.973   0.474   2.638  1.3184  0.9896 -0.9081
  297SOL    HW2  891   1.830   0.546   2.703 -0.2687  0.9878 -0.8846
  298SOL     OW  892   1.312   0.086   2.776 -0.2894  0.2946  0.3862
  298SOL    HW1  893   1.377   0.024   2.724  1.8131  0.1920 -2.9587
  298SOL    HW2  894   1.365   0.138   2.842 -1.2929 -0.4779  0.7729
  299SOL     OW  895   1.021   0.268   2.121  0.0228  0.0028  0.5453
  299SOL    HW1  896   1.081   0.313   2.189  0.5355 -0.9791 -1.5816
  299SOL    HW2  897   0.986   0.179   2.154 -2.1139 -0.4513 -1.0387
  300SOL     OW  898   2.540   0.098   1.595 -0.0638 -0.0023  0.4300
  300SOL    HW1  899   2.534   0.081   1.696  0.3905 -1.4314  0.4506
  300SOL    HW2  900   2.639   0.100   1.566  3.1991  1.0572 -0.1105
  301SOL     OW  901   2.317   0.617   1.748  0.0519  0.4794  0.3696
  301SOL    HW1  902   2.391   0.684   1.779  1.1663  0.1763  3.1437
  301SOL    HW2  903   2.228   0.665   1.732  3.1679 -1.5408  1.5872
  302SOL     OW  904   0.787   2.754   0.266  0.1890  0.0893  0.5052
  302SOL    HW1  905   0.865   2.704   0.311 -1.1508 -0.3154  2.4240
  302SOL    HW2  906   0.749   2.821   0.334  0.3095 -0.3284 -1.3069
  303SOL     OW  907   1.753   1.723   2.014  0.3005  0.2496 -0.4611
  303SOL    HW1  908   1.777   1.674   1.929 -1.3983  1.2933 -2.8716
  303SOL    HW2  909   1.718   1.820   2.002 -0.9998 -0.8052 -0.8090
  304SOL     OW  910   0.583   0.294   0.851  0.2241  0.0344  0.1299
  304SOL    HW1  911   0.539   0.277   0.943 -1.0794  0.0042 -0.8999
  304SOL    HW2  912   0.544   0.381   0.817 -0.2195  1.8195 -1.1472
  305SOL     OW  913   0.779   0.726   0.651  0.2498  0.1791 -0.1763
  305SOL    HW1  914   0.729   0.655   0.599  0.4793  1.1412  3.1665
  305SOL    HW2  915   0.809   0.689   0.743  1.9364 -2.1204  0.6572
  306SOL     OW  916   0.623   1.324   2.887  0.0058 -0.0581  0.2929
  306SOL    HW1  917   0.725   1.319   2.870  3.4172  1.1241  0.7846
  306SOL    HW2  918   0.613   1.345   2.985  2.2666  0.8920  2.3557
  307SOL     OW  919   0.819   0.347   1.948 -0.2253 -0.4611  0.1156
  307SOL    HW1  920   0.857   0.390   1.862  0.2640 -0.2145 -2.4708
  307SOL    HW2  921   0.890   0.337   2.026  0.0129 -0.2574  1.8394
  308SOL     OW  922   0.833   0.195   0.838 -0.3840 -0.4802  0.6453
  308SOL    HW1  923   0.737   0.233   0.846 -0.6695  0.9791  2.9492
  308SOL    HW2  924   0.889   0.246   0.763  2.5106  3.5186 -2.1634
  309SOL     OW  925   2.323   1.174   0.451 -0.0454  0.2845  0.0580
  309SOL    HW1  926   2.396   1.222   0.504 -0.4718 -0.5125 -1.2583
  309SOL    HW2  927   2.340   1.075   0.440 -1.7830 -1.7601 -1.6616
  310SOL     OW  928   1.091   1.498   2.972 -0.5762  0.0402  0.3040
  310SOL    HW1  929   1.185   1.477   2.938 -0.5807 -0.8030 -1.8055
  310SOL    HW2  930   1.064   1.421   3.031  1.0314 -2.7665  2.7150
  311SOL     OW  931   1.877   2.522   2.181  0.0582 -0.5591 -0.3087
  311SOL    HW1  932   1.794   2.466   2.212 -3.3121 -2.3614  0.6610
  311SOL    HW2  933   1.922   2.563   2.263 -1.8556  0.4441 -0.8648
  312SOL     OW  934   2.305   2.870   2.969 -0.1528  0.2662  0.2950
  312SOL    HW1  935   2.230   2.864   2.905  2.3328  0.7819 -0.8505
  312SOL    HW2  936   2.390   2.874   2.912  1.6223 -0.0496  3.2938
  313SOL     OW  937   0.448   0.201   0.092 -0.2745 -0.0922  0.1582
  313SOL    HW1  938   0.459   0.288   0.043  1.6367 -0.1821 -0.2084
  313SOL    HW2  939   0.363   0.192   0.144  0.3538  1.3607  0.1577
  314SOL     OW  940   2.538   1.564   2.816  0.4117  0.1497 -0.6770
  314SOL    HW1  941   2.568   1.553   2.913  3.4905 -1.8979  0.8608
  314SOL    HW2  942   2.547   1.666   2.799 -0.1711  2.0678 -2.0252
  315SOL     OW  943   1.864   0.684   2.196 -0.1292 -0.7344  0.3965
  315SOL    HW1  944   1.832   0.668   2.292  0.6851 -3.7725  1.8537
  315SOL    HW2  945   1.937   0.758   2.194  3.1436  0.6483 -0.2430
  316SOL     OW  946   2.923   1.101   0.407 -0.5460 -0.3119 -0.0290
  316SOL    HW1  947   2.908   1.009   0.357 -1.6170 -1.8031 -0.8187
  316SOL    HW2  948   2.944   1.080   0.502  2.3515  2.3164 -0.9519
  317SOL     OW  949   0.502   2.965   0.166  0.0549 -1.2849 -0.2061
  317SOL    HW1  950   0.557   2.970   0.249  1.0859  0.8421  1.8265
  317SOL    HW2  951   0.563   3.005   0.093 -0.4270  0.7961 -0.6276
  318SOL     OW  952   1.937   2.705   1.308 -0.0034  0.5707  0.1549
  318SOL    HW1  953   1.877   2.772   1.356  2.2527  3.0307 -0.0369
  318SOL    HW2  954   2.002   2.664   1.378 -0.6112  1.7068 -1.6293
  319SOL     OW  955   1.252   1.528   0.364  0.3535  0.0770 -0.4429
  319SOL    HW1  956   1.178   1.596   0.355 -2.6037  0.6915 -1.0986
  319SOL    HW2  957   1.216   1.439   0.392  3.1493  0.8356 -0.9480
  320SOL     OW  958   0.713   1.837   0.895 -0.4248 -0.0360  0.0877
  320SOL    HW1  959   0.797   1.883   0.939  2.2202  0.6718  0.1564
  320SOL    HW2  960   0.634   1.900   0.890  2.3172 -0.7455 -0.0296
  321SOL     OW  961   2.156   2.653   1.944 -0.2179 -0.0048  0.0441
  321SOL    HW1  962   2.212   2.666   2.031 -0.3310 -2.3424  1.9200
  321SOL    HW2  963   2.078   2.722   1.935  1.7877  1.8343  1.4587
  322SOL     OW  964   2.231   2.186   2.380 -0.5538  0.5900 -0.2851
  322SOL    HW1  965   2.224   2.118   2.457 -0.2467  3.1543 -1.4700
  322SOL    HW2  966   2.284   2.151   2.298 -2.4607 -0.1785 -0.9133
  323SOL     OW  967   2.671   0.391   0.866 -0.2123  0.2099  0.5697
  323SOL    HW1  968   2.571   0.366   0.844  0.9862 -1.0058 -2.2074
  323SOL    HW2  969   2.699   0.455   0.792 -0.2387 -0.0769 -1.4137
  324SOL     OW  970   2.439   2.373   2.493 -0.3847 -0.3247 -0.0156
  324SOL    HW1  971   2.385   2.300   2.451  1.8213  0.3178 -1.1197
  324SOL    HW2  972   2.532   2.378   2.450  0.9270 -0.9672 -1.3378
  325SOL     OW  973   1.330   0.530   2.613  0.0875  0.3360 -0.0931
  325SOL    HW1  974   1.245   0.476   2.640 -3.2302 -0.7525  1.7192
  325SOL    HW2  975   1.379   0.559   2.698  3.0145  0.8581 -0.6797
  326SOL     OW  976   2.485   2.583   0.957 -0.2607 -0.5047  0.4517
  326SOL    HW1  977   2.548   2.657   0.925  1.0641 -0.1376 -0.2416
  326SOL    HW2  978   2.434   2.541   0.882 -0.7857  2.3943  0.8644
  327SOL     OW  979   2.603   2.936   0.281 -0.3575 -0.3094 -0.2252
  327SOL    HW1  980   2.632   2.890   0.196  1.2308 -0.9226  0.4297
  327SOL    HW2  981   2.618   3.039   0.288  1.8632 -0.7248  0.9717
  328SOL     OW  982   0.814   0.562   0.879 -0.7689 -0.5173 -0.4915
  328SOL    HW1  983   0.771   0.548   0.971 -1.7782 -0.3723 -1.5458
  328SOL    HW2  984   0.912   0.583   0.885 -0.6985  0.4945 -2.9687
  329SOL     OW  985   2.007   0.680   1.401 -0.2654 -0.2825  0.4416
  329SOL    HW1  986   2.037   0.767   1.452  0.8985 -2.0020  2.0501
  329SOL    HW2  987   2.077   0.605   1.396  0.7602  0.3095  0.6735
  330SOL     OW  988   0.665   0.561   0.434  0.1171  0.2270  0.2815
  330SOL    HW1  989   0.663   0.627   0.362  1.4811  0.9698  0.6079
  330SOL    HW2  990   0.759   0.523   0.446  0.3975  2.9323  2.7212
  331SOL     OW  991   0.754   1.822   1.869  0.1739  0.0353  0.0491
  331SOL    HW1  992   0.806   1.904   1.835  0.5032  0.4684  0.8589
  331SOL    HW2  993   0.728   1.763   1.790  2.2692  0.1948  2.1917
  332SOL     OW  994   2.173   2.401   2.228 -0.3740 -0.0000 -0.0402
  332SOL    HW1  995   2.092   2.400   2.170 -0.0148 -0.3511  1.6099
  332SOL    HW2  996   2.167   2.338   2.304  0.5248  0.9509 -1.5460
  333SOL     OW  997   2.960   3.058   1.115  0.4034  0.0859  0.0709
  333SOL    HW1  998   2.963   0.038   1.180 -0.6965 -1.0555 -0.2284
  333SOL    HW2  999   2.860   3.040   1.089 -3.8565 -2.3450  0.6405
  334SOL     OW 1000   2.981   1.437   0.781  0.2164  0.2684 -0.6809
  334SOL    HW1 1001   2.926   1.390   0.704 -0.0443  0.4031 -0.9745
  334SOL    HW2 1002   3.079   1.457   0.765 -0.3761 -1.3846 -0.6207
  335SOL     OW 1003   0.409   2.528   2.684 -0.2898 -0.1732  0.2104
  335SOL    HW1 1004   0.430   2.457   2.753 -1.0412 -2.3407 -0.2760
  335SOL    HW2 1005   0.433   2.623   2.705 -0.1027  0.4542 -2.6579
  336SOL     OW 1006   2.949   2.714   2.188  0.1450 -0.6159  0.3052
  336SOL    HW1 1007   2.985   2.707   2.284  0.6065  1.1775  0.7037
  336SOL    HW2 1008   2.858   2.760   2.179 -1.0341  1.1409 -1.7329
  337SOL     OW 1009   1.259   1.865   1.740 -0.6290 -0.2751  0.2249
  337SOL    HW1 1010   1.168   1.828   1.757  1.5541 -1.1148  0.2790
  337SOL    HW2 1011   1.313   1.874   1.827 -0.9351  1.6105 -1.0384
  338SOL     OW 1012   1.127   0.121   2.565 -0.3464  0.3722 -0.7070
  338SOL    HW1 1013   1.149   0.086   2.469 -0.1708  0.9335 -0.5788
  338SOL    HW2 1014   1.203   0.092   2.628  1.4425 -1.5133 -0.7809
  339SOL     OW 1015   0.287   0.807   2.458 -0.4693  0.6900  0.3616
  339SOL    HW1 1016   0.295   0.883   2.392 -1.1013 -0.8989 -0.5472
  339SOL    HW2 1017   0.297   0.839   2.554  0.9419  3.0953 -3.4426
  340SOL     OW 1018   2.196   0.443   1.376 -0.8198 -0.3914 -0.0775
  340SOL    HW1 1019   2.273   0.486   1.321  2.2428 -0.5109 -4.3047
  340SOL    HW2 1020   2.189   0.348   1.346  0.8600  3.2951 -1.3303
  341SOL     OW 1021   2.459   1.512   1.093  0.4284 -0.3977  0.0624
  341SOL    HW1 1022   2.415   1.581   1.153  0.4431 -0.6651  0.1308
  341SOL    HW2 1023   2.512   1.443   1.149 -0.8011 -2.6017  0.5880
  342SOL     OW 1024   2.105   2.917   2.784  0.1764  0.1867 -0.2981
  342SOL    HW1 1025   2.086   3.012   2.817 -1.1890  2.8619 -1.1756
  342SOL    HW2 1026   2.013   2.881   2.755 -0.3719 -0.3361 -2.2101
  343SOL     OW 1027   0.019   2.422   1.108 -0.1655  0.2142  0.6229
  343SOL    HW1 1028   0.059   2.337   1.146  3.8143 -0.6350  2.8809
  343SOL    HW2 1029   0.018   2.488   1.181 -1.4324 -1.0057 -2.6826
  344SOL     OW 1030   2.322   2.967   1.201  0.0472  0.2549 -0.2189
  344SOL    HW1 1031   2.229   2.927   1.187 -0.7047 -1.7313  2.9350
  344SOL    HW2 1032   2.330   3.009   1.296  2.5747 -1.2267  0.9810
  345SOL     OW 1033   2.407   2.180   0.719 -0.4794  0.1246 -0.9123
  345SOL    HW1 1034   2.419   2.231   0.629 -1.0001 -0.7268 -0.5396
  345SOL    HW2 1035   2.398   2.247   0.796  0.4053  2.8018  1.4379
  346SOL     OW 1036   1.513   2.041   1.508  0.8485  0.4239  0.2268
  346SOL    HW1 1037   1.455   1.962   1.538 -0.4870  0.6480  1.3937
  346SOL    HW2 1038   1.453   2.127   1.509  1.2846  2.7251  1.6259
  347SOL     OW 1039   0.953   1.855   1.392  0.0486 -0.0228  0.1456
  347SOL    HW1 1040   0.950   1.773   1.331 -1.7340 -1.0446 -1.1475
  347SOL    HW2 1041   1.040   1.900   1.371 -1.2561 -1.5691  2.5348
  348SOL     OW 1042   0.365   1.993   1.868 -0.2026  0.4573  0.0549
  348SOL    HW1 1043   0.450   2.011   1.922 -3.3743 -0.5234  0.9331
  348SOL    HW2 1044   0.384   1.923   1.799  0.2894  1.4405  0.4330
  349SOL     OW 1045   1.556   1.607   1.608 -0.7794 -0.0051 -0.7427
  349SOL    HW1 1046   1.502   1.550   1.676 -0.4232 -1.1952 -2.7728
  349SOL    HW2 1047   1.498   1.679   1.565  0.2407  0.2344  1.5490
  350SOL     OW 1048   2.045   2.402   0.543  0.0130  0.1496  0.0055
  350SOL    HW1 1049   2.124   2.367   0.482  4.6688 -0.2264 -2.0622
  350SOL    HW2 1050   2.023   2.496   0.529  2.7260 -0.9154  2.4328
  351SOL     OW 1051   0.326   3.009   1.754 -0.0469  0.0829  0.3664
  351SOL    HW1 1052   0.356   2.922   1.704  0.8454  0.2591 -0.0923
  351SOL    HW2 1053   0.233   3.046   1.717 -2.9061  2.6669  0.0193
  352SOL     OW 1054   0.691   1.011   0.664  0.6051 -0.0933  0.0416
  352SOL    HW1 1055   0.753   1.079   0.708 -1.6491 -0.9890  0.9664
  352SOL    HW2 1056   0.733   0.916   0.654 -3.3499  0.3697  0.2965
  353SOL     OW 1057   1.228   1.823   2.695 -0.0502  0.4427  0.2568
  353SOL    HW1 1058   1.214   1.865   2.601  0.9890  0.3375  0.2047
  353SOL    HW2 1059   1.140   1.782   2.727  0.8749  0.0216 -0.5241
  354SOL     OW 1060   1.714   2.617   1.992  0.0736 -0.3559 -0.3940
  354SOL    HW1 1061   1.763   2.563   2.067 -1.2263  1.3479 -0.6861
  354SOL    HW2 1062   1.741   2.715   1.975 -1.8362 -0.5396  2.7180
  355SOL     OW 1063   2.252   1.125   0.124  0.8713 -0.1854 -0.5002
  355SOL    HW1 1064   2.293   1.216   0.112 -0.4109  0.0694 -2.7326
  355SOL    HW2 1065   2.151   1.130   0.108 -2.3055  2.0294 -1.2672
  356SOL     OW 1066   0.343   1.861   1.036  0.2797  0.1302  0.0167
  356SOL    HW1 1067   0.325   1.767   1.000 -2.8144 -0.8130 -1.8209
  356SOL    HW2 1068   0.261   1.893   1.089 -2.7589  0.8002  2.0064
  357SOL     OW 1069   2.968   3.010   1.440  0.1060  0.2065 -0.9536
  357SOL    HW1 1070   2.916   2.930   1.476  0.8897 -0.1015 -0.9785
  357SOL    HW2 1071   3.029   2.992   1.360 -0.0564 -0.3653 -1.4867
  358SOL     OW 1072   2.256   1.836   1.685 -0.4412  0.0063 -0.0302
  358SOL    HW1 1073   2.289   1.933   1.677  0.3770 -2.1386  1.0866
  358SOL    HW2 1074   2.251   1.806   1.592  0.6108  0.7355  0.9415
  359SOL     OW 1075   2.279   2.821   2.584 -0.3663 -0.0559 -0.0679
  359SOL    HW1 1076   2.221   2.842   2.665  2.5480  0.0076 -2.3011
  359SOL    HW2 1077   2.259   2.723   2.557 -1.4552  0.3533 -0.3878
  360SOL     OW 1078   0.991   2.761   0.932 -0.4467  0.1558  0.2081
  360SOL    HW1 1079   1.014   2.670   0.968  2.8303 -1.4630  2.2882
  360SOL    HW2 1080   1.012   2.834   0.997 -1.6436 -2.4230  0.4310
  361SOL     OW 1081   1.925   0.342   0.409 -0.0678  0.1766  0.1338
  361SOL    HW1 1082   2.009   0.378   0.356  0.6485  2.2010  0.2042
  361SOL    HW2 1083   1.944   0.323   0.508  0.3464  1.2446 -1.6688
  362SOL     OW 1084   1.647   0.788   1.154  0.4173  0.3771 -0.1875
  362SOL    HW1 1085   1.706   0.715   1.123 -1.8674  1.9571  1.1185
  362SOL    HW2 1086   1.551   0.752   1.162  0.4844  0.1842  0.1136
  363SOL     OW 1087   2.055   1.479   2.185  0.1717  0.6237 -0.0432
  363SOL    HW1 1088   2.095   1.423   2.262 -0.7667 -2.9784  1.8375
  363SOL    HW2 1089   2.123   1.546   2.161 -0.3216 -1.3878  0.8189
  364SOL     OW 1090   0.427   0.542   1.135  0.4066 -0.4677  0.2476
  364SOL    HW1 1091   0.380   0.548   1.044  0.0216 -2.5031  1.2338
  364SOL    HW2 1092   0.532   0.532   1.121  0.3611  0.8099 -2.3966
  365SOL     OW 1093   0.579   0.161   2.365  0.1783  0.2300 -0.4349
  365SOL    HW1 1094   0.648   0.144   2.438  1.8485 -0.7843  4.4659
  365SOL    HW2 1095   0.595   0.091   2.290 -1.0104 -1.4701  0.5844
  366SOL     OW 1096   2.187   1.997   2.619  0.5745 -0.5011  0.1001
  366SOL    HW1 1097   2.268   1.944   2.594 -0.1616  0.8670 -1.7791
  366SOL    HW2 1098   2.211   2.078   2.676 -0.1006 -2.0645  0.0015
  367SOL     OW 1099   2.569   2.506   0.145 -0.2654 -0.2260 -0.5062
  367SOL    HW1 1100   2.643   2.533   0.204  1.1114  0.3020 -1.1825
  367SOL    HW2 1101   2.605   2.493   0.050 -0.9580 -1.3121  2.3369
  368SOL     OW 1102   2.894   1.625   0.943 -0.0993 -0.0335 -0.5948
  368SOL    HW1 1103   2.806   1.624   0.896  1.8202  1.8485  3.7071
  368SOL    HW2 1104   2.959   1.553   0.905 -0.3473 -1.6845 -0.4104
  369SOL     OW 1105   0.822   2.946   2.387  0.3997 -0.2726 -0.6195
  369SOL    HW1 1106   0.817   2.977   2.483 -0.5936 -0.6526 -2.0133
  369SOL    HW2 1107   0.856   3.015   2.322 -1.4400 -2.9311 -1.6511
  370SOL     OW 1108   3.031   0.212   0.731  0.2541 -0.3391  0.3083
  370SOL    HW1 1109   3.076   0.271   0.666  0.2641 -1.1203  1.5336
  370SOL    HW2 1110   2.932   0.191   0.702 -1.1944  0.7468 -1.9428
  371SOL     OW 1111   1.333   2.255   1.459  0.4870  0.5315  0.4515
  371SOL    HW1 1112   1.300   2.271   1.362 -1.0601 -1.6401 -0.8018
  371SOL    HW2 1113   1.356   2.342   1.500 -0.0398 -0.1844 -0.5930
  372SOL     OW 1114   2.977   0.690   2.396 -0.0064  0.2781  0.3484
  372SOL    HW1 1115   3.053   0.685   2.461 -3.3243  3.3436  0.0421
  372SOL    HW2 1116   2.907   0.759   2.426 -0.0535 -0.0977 -1.6953
  373SOL     OW 1117   0.078   2.063   0.836 -0.0588  0.4313  0.3663
  373SOL    HW1 1118   0.150   2.109   0.775 -0.0149 -0.0400 -3.7998
  373SOL    HW2 1119   3.098   2.127   0.843  0.1490 -1.6481 -0.1594
  374SOL     OW 1120   0.401   2.928   2.494 -0.3070 -0.5131  0.2935
  374SOL    HW1 1121   0.465   2.928   2.569 -2.2787 -1.4951 -0.6773
  374SOL    HW2 1122   0.442   2.980   2.413  1.3566 -0.5102  0.9743
  375SOL     OW 1123   0.580   0.163   2.698  0.1066 -0.3627 -0.1783
  375SOL    HW1 1124   0.568   0.060   2.701  0.6952 -3.6802 -0.8283
  375SOL    HW2 1125   0.675   0.176   2.664 -0.1425 -0.0357  3.1463
  376SOL     OW 1126   2.787   2.297   1.786  0.8554 -0.3432  0.3111
  376SOL    HW1 1127   2.870   2.277   1.842  0.5237 -3.7711 -2.9641
  376SOL    HW2 1128   2.699   2.260   1.831 -2.0224  0.5775  2.4214
  377SOL     OW 1129   1.623   2.542   3.017 -0.2030  0.0716 -0.2830
  377SOL    HW1 1130   1.628   2.645   3.029 -1.4145  2.0380 -0.1739
  377SOL    HW2 1131   1.537   2.508   3.058 -0.1474 -2.2037  0.7513
  378SOL     OW 1132   0.027   0.340   2.332  0.5427 -0.3678 -0.1169
  378SOL    HW1 1133   0.090   0.341   2.412  0.7153  0.9435  0.3836
  378SOL    HW2 1134   3.041   0.389   2.352 -0.0074 -1.7134  2.9476
  379SOL     OW 1135   0.359   1.074   0.317  0.1113  0.3405  0.0292
  379SOL    HW1 1136   0.444   1.091   0.375  1.6868 -0.8103  0.5886
  379SOL    HW2 1137   0.323   0.984   0.333  2.2978  0.8970 -1.1422
  380SOL     OW 1138   0.329   1.540   1.851  0.3111 -0.2559  0.6446
  380SOL    HW1 1139   0.396   1.550   1.774 -3.8323 -1.4308 -1.0451
  380SOL    HW2 1140   0.361   1.586   1.939 -0.2974  1.0282  1.1536
  381SOL     OW 1141   0.423   1.216   2.111 -0.2768  0.6671 -0.1840
  381SOL    HW1 1142   0.327   1.205   2.082  1.5186 -0.9153  0.3060
  381SOL    HW2 1143   0.458   1.308   2.114 -1.3804 -0.3369 -1.0430
  382SOL     OW 1144   2.303   1.941   0.618  0.2704  0.4606 -0.0388
  382SOL    HW1 1145   2.338   2.016   0.678 -1.0325  3.4061  1.9358
  382SOL    HW2 1146   2.226   1.890   0.664 -1.5384 -0.3802  1.2530
  383SOL     OW 1147   0.540   1.938   3.088  0.0855  0.5221  0.8267
  383SOL    HW1 1148   0.542   1.916   0.086 -1.8945 -0.8861  0.7663
  383SOL    HW2 1149   0.608   1.885   3.039 -0.3870 -0.4390  1.4248
  384SOL     OW 1150   0.892   2.123   2.618  0.2381 -0.2357  0.5889
  384SOL    HW1 1151   0.788   2.140   2.607 -2.4251 -1.1836 -0.0949
  384SOL    HW2 1152   0.933   2.215   2.602  1.0048 -0.4707  3.2020
  385SOL     OW 1153   1.984   1.830   0.771 -0.0223  0.4427 -0.1408
  385SOL    HW1 1154   2.036   1.902   0.826 -0.9446  0.2898  1.1789
  385SOL    HW2 1155   1.974   1.747   0.830 -0.8182 -0.6448  0.7035
  386SOL     OW 1156   2.350   1.054   1.616 -0.5695 -0.0012  0.1917
  386SOL    HW1 1157   2.305   1.048   1.523 -1.9228 -0.6372 -3.3717
  386SOL    HW2 1158   2.305   1.124   1.674 -0.9000  0.8278 -2.2465
  387SOL     OW 1159   2.710   1.427   2.196  0.2999 -0.7929 -0.1739
  387SOL    HW1 1160   2.634   1.505   2.187 -3.0511  0.5077 -2.9261
  387SOL    HW2 1161   2.770   1.443   2.275 -1.9705 -1.1618  0.4592
  388SOL     OW 1162   0.445   1.670   2.072  0.4466 -0.0611  0.9843
  388SOL    HW1 1163   0.546   1.655   2.075 -1.2151  0.6724 -0.9187
  388SOL    HW2 1164   0.419   1.766   2.095  0.4660 -1.7154  1.7004
  389SOL     OW 1165   0.989   1.050   2.012 -0.1085 -0.3760  0.4857
  389SOL    HW1 1166   0.915   0.979   2.012  0.5584 -0.7205 -0.6716
  389SOL    HW2 1167   1.084   1.007   2.017  1.1184  2.6547  0.3537
  390SOL     OW 1168   2.238   0.251   1.050 -0.7594  0.5606  0.2446
  390SOL    HW1 1169   2.244   0.226   1.146  0.5854  0.1931 -3.7482
  390SOL    HW2 1170   2.189   0.175   1.002  0.0399  0.1950  0.4702
  391SOL     OW 1171   1.859   1.502   1.306 -0.1371  0.1044 -0.0047
  391SOL    HW1 1172   1.956   1.534   1.314  2.6270 -0.4391 -0.6003
  391SOL    HW2 1173   1.852   1.401   1.310  2.2755  2.1019 -0.4137
  392SOL     OW 1174   2.768   2.814   0.457 -0.0461 -0.4576 -0.0254
  392SOL    HW1 1175   2.699   2.856   0.397 -0.0517 -2.1813  0.3635
  392SOL    HW2 1176   2.829   2.880   0.501  1.6307 -1.3445 -1.8769
  393SOL     OW 1177   1.920   2.186   2.898  0.1420  0.5178 -0.2297
  393SOL    HW1 1178   1.928   2.282   2.868 -1.6399 -2.1510 -2.3212
  393SOL    HW2 1179   1.956   2.173   2.994 -0.8068 -0.7596  0.4582
  394SOL     OW 1180   0.076   2.631   2.628 -0.3332  0.4087 -0.0442
  394SOL    HW1 1181   0.071   2.652   2.726 -1.3967 -2.0301  1.4941
  394SOL    HW2 1182   0.094   2.535   2.607  0.3466 -1.1663 -2.1848
  395SOL     OW 1183   0.375   0.141   0.718  0.1438 -0.0982 -0.1329
  395SOL    HW1 1184   0.327   0.214   0.673  0.6967  0.0184  0.9097
  395SOL    HW2 1185   0.468   0.177   0.742 -1.7739 -0.6725 -0.7237
  396SOL     OW 1186   1.814   0.672   0.527  0.8657 -0.0394  0.2295
  396SOL    HW1 1187   1.721   0.636   0.510  1.0251  0.5565 -1.5149
  396SOL    HW2 1188   1.845   0.638   0.618  1.5043 -0.7511 -1.4204
  397SOL     OW 1189   0.364   0.581   2.045 -0.4479  0.3234 -0.2659
  397SOL    HW1 1190   0.436   0.515   2.023  0.4948  0.5570 -0.4379
  397SOL    HW2 1191   0.282   0.531   2.072  3.8804  2.5343 -1.8963
  398SOL     OW 1192   0.808   3.074   0.671  0.5174 -0.2457 -0.1331
  398SOL    HW1 1193   0.840   0.041   0.743  1.3996  2.3313 -0.9734
  398SOL    HW2 1194   0.871   2.995   0.672 -0.5660  4.8494  2.0976
  399SOL     OW 1195   2.347   0.343   1.705  0.1655 -0.3121 -0.1780
  399SOL    HW1 1196   2.327   0.442   1.727 -1.8233  2.1738  1.1880
  399SOL    HW2 1197   2.397   0.330   1.616  1.2536 -2.5406 -1.7585
  400SOL     OW 1198   1.130   2.012   2.477 -0.1078 -0.2426 -0.0103
  400SOL    HW1 1199   1.043   2.028   2.529  1.1445 -1.1297  1.4173
  400SOL    HW2 1200   1.132   2.072   2.396 -0.8194 -0.3734 -1.9272
  401SOL     OW 1201   0.731   0.946   2.573  0.0648 -0.0027  0.6351
  401SOL    HW1 1202   0.747   0.879   2.498 -1.7616 -0.2344  0.1907
  401SOL    HW2 1203   0.636   0.967   2.580  2.0738 -3.6524  3.1377
  402SOL     OW 1204   0.229   2.207   0.637  0.2541 -0.2024 -0.4363
  402SOL    HW1 1205   0.298   2.155   0.589  0.2660  0.6544 -1.1985
  402SOL    HW2 1206   0.176   2.266   0.578  0.4729 -0.3997 -0.6170
  403SOL     OW 1207   0.094   1.262   2.008 -0.0254  0.2314 -0.1606
  403SOL    HW1 1208   0.134   1.289   1.921  2.4606 -0.8551 -1.2656
  403SOL    HW2 1209   0.009   1.212   1.998  0.4687  2.7701 -1.3492
  404SOL     OW 1210   2.712   2.377   2.432  0.8303  0.1701  0.2519
  404SOL    HW1 1211   2.753   2.311   2.499 -2.0819  3.1649  1.7600
  404SOL    HW2 1212   2.756   2.365   2.339  0.0223  0.6265 -1.2242
  405SOL     OW 1213   0.213   0.305   1.904  0.3217  0.0800  0.5277
  405SOL    HW1 1214   0.282   0.261   1.962 -0.7026  1.3469  0.8019
  405SOL    HW2 1215   0.160   0.234   1.855 -0.3735  0.3911  0.7018
  406SOL     OW 1216   1.471   1.595   2.528 -0.1354 -0.1379 -0.2907
  406SOL    HW1 1217   1.441   1.664   2.598  0.3306  2.2591  0.2933
  406SOL    HW2 1218   1.554   1.626   2.475 -0.7233 -2.0185  1.1584
  407SOL     OW 1219   1.736   0.918   2.629  0.1375 -0.3426  0.1783
  407SOL    HW1 1220   1.754   0.985   2.707  1.9508  2.1694  1.2445
  407SOL    HW2 1221   1.780   0.954   2.546 -0.4464  2.4470  1.8178
  408SOL     OW 1222   0.570   3.002   2.259 -0.2120  0.3394 -0.0410
  408SOL    HW1 1223   0.664   2.976   2.289  2.5315  1.5462 -0.4675
  408SOL    HW2 1224   0.537   2.939   2.187  1.5321 -0.4616 -1.2778
  409SOL     OW 1225   0.117   1.914   1.184 -0.2342  0.2676  0.3978
  409SOL    HW1 1226   0.042   1.878   1.128 -0.9505 -0.5264  0.2137
  409SOL    HW2 1227   0.108   2.011   1.212  1.7304 -2.5233 -2.1263
  410SOL     OW 1228   2.531   1.534   0.406  0.0021 -0.4440  0.1472
  410SOL    HW1 1229   2.518   1.453   0.349  0.9928 -0.6275  2.2118
  410SOL    HW2 1230   2.615   1.532   0.468 -0.0413 -0.8356 -0.1877
  411SOL     OW 1231   2.976   0.186   1.276  0.1635 -0.1603 -0.2659
  411SOL    HW1 1232   3.025   0.186   1.364 -2.8888 -0.7868 -0.2626
  411SOL    HW2 1233   2.901   0.259   1.269  0.3930  1.3223  0.6810
  412SOL     OW 1234   1.987   0.390   1.558 -0.6331 -0.5853  0.3068
  412SOL    HW1 1235   1.946   0.436   1.474 -0.4478  0.1149 -3.1603
  412SOL    HW2 1236   2.091   0.390   1.547  2.1687 -0.0643 -0.8058
  413SOL     OW 1237   0.563   0.398   1.977 -0.1044  0.2255  0.2534
  413SOL    HW1 1238   0.512   0.312   1.999  1.8933 -0.2333 -4.0317
  413SOL    HW2 1239   0.664   0.381   1.976 -1.6604  2.6027 -2.9776
  414SOL     OW 1240   2.800   1.497   2.694 -0.0428 -0.7099  0.3053
  414SOL    HW1 1241   2.864   1.427   2.734  3.1295 -2.1895 -0.4730
  414SOL    HW2 1242   2.708   1.492   2.739  3.0523 -1.7749 -0.5961
  415SOL     OW 1243   0.729   2.642   0.019  1.0288 -0.0014  0.0721
  415SOL    HW1 1244   0.822   2.621   3.082  0.2598  0.9970 -0.0426
  415SOL    HW2 1245   0.731   2.689   0.110 -0.2300  1.0574 -2.0443
  416SOL     OW 1246   1.705   0.287   2.777 -0.3108 -0.3997 -0.1943
  416SOL    HW1 1247   1.741   0.189   2.775 -0.2635  0.8614  1.2332
  416SOL    HW2 1248   1.776   0.354   2.740 -0.8790 -2.6640 -2.4887
  417SOL     OW 1249   0.246   0.394   0.693  0.3727 -0.7455 -0.6072
  417SOL    HW1 1250   0.311   0.456   0.643 -1.8514  3.4355  1.8541
  417SOL    HW2 1251   0.241   0.426   0.790 -0.3198 -0.6349 -1.7319
  418SOL     OW 1252   2.782   0.188   0.652  0.0120  0.5153 -0.0622
  418SOL    HW1 1253   2.690   0.175   0.692 -1.0863  0.6445 -1.8991
  418SOL    HW2 1254   2.790   0.280   0.619  1.7015 -0.1834  2.1529
  419SOL     OW 1255   0.008   2.752   0.590 -0.3440 -0.3143 -0.0221
  419SOL    HW1 1256   0.049   2.756   0.683  1.4417  0.6636 -1.3638
  419SOL    HW2 1257   3.033   2.822   0.582  0.6003  0.3049  0.5500
  420SOL     OW 1258   0.218   1.296   1.784 -0.1232  0.5914 -0.4027
  420SOL    HW1 1259   0.248   1.390   1.807 -1.2730  0.6792 -0.7703
  420SOL    HW2 1260   0.291   1.226   1.817  1.6256 -1.0553  0.9958
  421SOL     OW 1261   1.613   2.531   1.016  0.0824  0.1211  0.3131
  421SOL    HW1 1262   1.657   2.623   1.020 -0.0601  2.4811 -0.5137
  421SOL    HW2 1263   1.655   2.464   0.949  0.1320 -3.3071  1.5107
  422SOL     OW 1264   0.511   0.470   1.484 -0.0138  0.4666 -0.2709
  422SOL    HW1 1265   0.519   0.497   1.581 -1.2515  0.2494 -0.5151
  422SOL    HW2 1266   0.434   0.409   1.465  0.9142  1.8359  1.3138
  423SOL     OW 1267   0.875   1.305   1.742  0.6567 -0.6377  0.2756
  423SOL    HW1 1268   0.976   1.324   1.717 -0.1589  0.0789  0.7142
  423SOL    HW2 1269   0.859   1.212   1.702 -2.4640 -2.1909  0.4066
  424SOL     OW 1270   1.800   2.252   0.337  0.0229 -0.0092  0.6092
  424SOL    HW1 1271   1.842   2.308   0.264 -1.8344 -1.5338  1.5301
  424SOL    HW2 1272   1.700   2.228   0.326  1.4542 -0.0874  1.5819
  425SOL     OW 1273   2.794   2.984   1.942 -0.1400 -0.2989 -0.2808
  425SOL    HW1 1274   2.859   3.036   2.003 -0.0223 -1.8332  2.2354
  425SOL    HW2 1275   2.837   2.960   1.853  3.3829  0.0152  2.8989
  426SOL     OW 1276   3.065   2.630   2.895  0.5659 -0.6242 -0.4443
  426SOL    HW1 1277   0.048   2.643   2.955 -0.9769 -0.0042  0.6875
  426SOL    HW2 1278   3.025   2.538   2.907 -1.3259  0.1724 -1.4935
  427SOL     OW 1279   1.154   0.571   3.092  0.0298  0.2704  0.1051
  427SOL    HW1 1280   1.218   0.546   0.070  1.2656  1.2022  0.3036
  427SOL    HW2 1281   1.154   0.498   3.019  4.2458  2.7794  0.4217
  428SOL     OW 1282   2.755   0.810   1.317  0.6118  0.0500 -0.6755
  428SOL    HW1 1283   2.832   0.772   1.263  1.4697 -0.6451 -1.7911
  428SOL    HW2 1284   2.755   0.775   1.413  2.3460 -0.2632 -1.4614
  429SOL     OW 1285   2.054   2.890   1.161 -0.1337  0.2336 -0.6775
  429SOL    HW1 1286   2.001   2.812   1.201 -1.5303 -1.8349 -1.8994
  429SOL    HW2 1287   2.075   2.872   1.066  2.7666  1.3691  0.0248
  430SOL     OW 1288   1.191   1.552   2.351 -0.0351 -0.3212 -0.0922
  430SOL    HW1 1289   1.178   1.550   2.455  0.9615 -1.8471  2.3491
  430SOL    HW2 1290   1.220   1.464   2.307 -0.8864 -0.6163 -0.3936
  431SOL     OW 1291   2.548   1.896   1.391  0.0357  0.2722  0.0834
  431SOL    HW1 1292   2.636   1.846   1.383 -0.0585 -0.1482  0.0629
  431SOL    HW2 1293   2.566   1.997   1.380 -0.3780  1.3850  1.5267
  432SOL     OW 1294   1.188   0.010   2.324  0.1310 -0.2918  0.1195
  432SOL    HW1 1295   1.226   3.015   2.332 -0.7499 -2.0690 -0.1143
  432SOL    HW2 1296   1.262   0.075   2.298 -0.8806  1.9293 -0.0277
  433SOL     OW 1297   1.824   0.398   2.153  0.0457 -0.0844  0.1065
  433SOL    HW1 1298   1.838   0.332   2.231  0.4546 -0.5241 -1.9236
  433SOL    HW2 1299   1.828   0.495   2.184 -3.7040  0.0330  1.4933
  434SOL     OW 1300   0.390   2.248   2.234  1.0041  0.0544 -0.3490
  434SOL    HW1 1301   0.376   2.316   2.307 -1.1913  1.7473  2.0898
  434SOL    HW2 1302   0.412   2.158   2.272 -0.3534  2.0601 -0.9451
  435SOL     OW 1303   0.221   3.010   0.481  0.0426  0.2132  0.9176
  435SOL    HW1 1304   0.263   2.949   0.410 -1.2849  0.4804 -1.6447
  435SOL    HW2 1305   0.215   2.968   0.571 -1.1696 -1.1250 -1.2387
  436SOL     OW 1306   0.410   0.844   1.987 -0.2254 -0.3094  0.1030
  436SOL    HW1 1307   0.388   0.745   1.993  0.6524  0.2930  1.4568
  436SOL    HW2 1308   0.479   0.856   1.910 -1.2303  1.3376  0.6547
  437SOL     OW 1309   0.715   2.615   2.643  0.1138 -0.1897 -0.1865
  437SOL    HW1 1310   0.729   2.689   2.575  0.3090  3.0573  1.9040
  437SOL    HW2 1311   0.640   2.549   2.624  1.5061  1.2451  2.0851
  438SOL     OW 1312   1.028   1.160   0.947 -0.2230 -0.7012 -0.1033
  438SOL    HW1 1313   0.975   1.199   0.870 -0.6785  0.4315 -1.8411
  438SOL    HW2 1314   1.127   1.186   0.945 -0.5264  1.2220 -0.1353
  439SOL     OW 1315   2.547   1.333   2.467 -0.0566 -0.0350  0.2294
  439SOL    HW1 1316   2.628   1.298   2.425 -2.2411 -0.2573  0.5927
  439SOL    HW2 1317   2.501   1.258   2.517 -2.0019  0.7317 -2.4486
  440SOL     OW 1318   0.034   0.526   2.809 -0.3351 -0.5036 -0.1763
  440SOL    HW1 1319   0.062   0.580   2.726 -0.0854  0.5700  0.7761
  440SOL    HW2 1320   3.068   0.451   2.787  2.4818  1.2053 -0.2393
  441SOL     OW 1321   0.964   2.173   1.417 -0.1460 -0.6242 -0.1108
  441SOL    HW1 1322   0.899   2.114   1.365  0.7702 -0.3340 -0.2130
  441SOL    HW2 1323   1.013   2.115   1.482  1.8950  0.6142 -0.4189
  442SOL     OW 1324   1.634   1.467   0.850  0.0004  0.4088 -0.9614
  442SOL    HW1 1325   1.679   1.384   0.896  2.0093 -5.5673  1.7770
  442SOL    HW2 1326   1.606   1.444   0.756 -1.7245  0.1875  2.1774
  443SOL     OW 1327   2.246   2.158   2.833  0.6616  0.6096  0.0724
  443SOL    HW1 1328   2.345   2.163   2.843 -1.7132  0.4893 -1.1628
  443SOL    HW2 1329   2.207   2.244   2.860  1.7061 -1.5799 -1.4643
  444SOL     OW 1330   2.128   1.604   2.865  0.7045 -0.0900  0.1866
  444SOL    HW1 1331   2.061   1.637   2.935 -4.0441 -1.5286  2.8431
  444SOL    HW2 1332   2.171   1.679   2.818 -0.9107 -3.1642  0.1728
  445SOL     OW 1333   3.011   2.540   1.941 -0.2295  0.0886 -0.0248
  445SOL    HW1 1334   3.057   2.619   1.992  0.3293  0.9096  3.1087
  445SOL    HW2 1335   2.917   2.562   1.924  1.9154 -3.4159  0.0591
  446SOL     OW 1336   1.029   0.897   1.720  0.2118 -0.4019  0.2952
  446SOL    HW1 1337   1.070   0.876   1.809 -1.4302  0.9169 -3.0075
  446SOL    HW2 1338   0.987   0.809   1.688 -1.2108  1.9613 -0.8565
  447SOL     OW 1339   0.975   0.882   0.940  0.3386  0.2119  0.3088
  447SOL    HW1 1340   1.030   0.812   0.886  2.0242 -1.4902 -1.3190
  447SOL    HW2 1341   1.013   0.976   0.927  0.1669 -2.0705  1.0336
  448SOL     OW 1342   1.150   1.263   2.573  0.1687  0.1025  0.5117
  448SOL    HW1 1343   1.053   1.226   2.553  1.4018  0.2752  2.3961
  448SOL    HW2 1344   1.151   1.363   2.597 -0.0104  3.1819 -0.1159
  449SOL     OW 1345   3.042   1.936   2.472  0.0329 -0.2042 -0.4264
  449SOL    HW1 1346   0.027   1.877   2.472 -0.9656 -1.3387  1.2647
  449SOL    HW2 1347   3.019   1.975   2.382  1.7659 -0.3098 -0.4580
  450SOL     OW 1348   2.221   1.642   2.064  0.0828  0.4746 -0.9137
  450SOL    HW1 1349   2.308   1.597   2.032  3.3726 -1.6241 -1.3965
  450SOL    HW2 1350   2.222   1.742   2.047  1.5226 -0.6125  0.6496
  451SOL     OW 1351   2.717   1.555   1.588  0.7078  0.1073 -0.4818
  451SOL    HW1 1352   2.749   1.630   1.530  1.2075 -0.5194  0.1008
  451SOL    HW2 1353   2.696   1.472   1.536 -0.6647  2.0114  4.4998
  452SOL     OW 1354   0.423   1.050   1.431 -0.2414  0.0104  0.3416
  452SOL    HW1 1355   0.345   0.985   1.437  3.1742 -1.1697  1.0645
  452SOL    HW2 1356   0.501   1.012   1.374 -0.0918 -2.2383  0.2889
  453SOL     OW 1357   0.398   1.362   0.603 -0.8261 -0.2510  0.9578
  453SOL    HW1 1358   0.361   1.349   0.504 -0.3309  0.8375 -0.3623
  453SOL    HW2 1359   0.348   1.325   0.678  0.2500  3.8626 -4.5132
  454SOL     OW 1360   0.927   1.729   0.178  0.3295  0.5238  0.3501
  454SOL    HW1 1361   0.953   1.784   0.092 -0.5281  0.8825 -0.3958
  454SOL    HW2 1362   0.835   1.686   0.172  0.7922  1.1051  0.5265
  455SOL     OW 1363   1.793   0.422   1.117  0.3478  0.0481 -0.1699
  455SOL    HW1 1364   1.775   0.461   1.212  1.0908  0.1409  0.9150
  455SOL    HW2 1365   1.877   0.456   1.083 -1.7302  2.6625  2.1193
  456SOL     OW 1366   1.701   2.801   0.958  0.1720  0.1403 -0.0575
  456SOL    HW1 1367   1.755   2.794   0.871 -1.5998 -1.0316  1.4035
  456SOL    HW2 1368   1.675   2.896   0.975  0.1478 -2.3519 -0.9227
  457SOL     OW 1369   2.097   0.496   2.513 -0.2107  0.7149  0.3743
  457SOL    HW1 1370   2.185   0.484   2.559 -2.5186  1.1301 -0.7715
  457SOL    HW2 1371   2.104   0.480   2.412  0.4800 -1.4980 -0.4666
  458SOL     OW 1372   2.693   0.705   2.499 -0.2667  0.0998 -0.0574
  458SOL    HW1 1373   2.687   0.800   2.533 -1.6224 -0.5477 -0.0359
  458SOL    HW2 1374   2.761   0.653   2.559  2.7756 -2.5295 -1.2751
  459SOL     OW 1375   2.513   1.614   2.211 -0.1459 -0.6675  0.0875
  459SOL    HW1 1376   2.512   1.719   2.221  0.4925  2.0976  0.2968
  459SOL    HW2 1377   2.441   1.579   2.271 -0.1804  1.8829 -0.3138
  460SOL     OW 1378   0.581   0.751   3.026 -0.0880  0.3012 -0.6528
  460SOL    HW1 1379   0.657   0.713   3.081  0.6632 -1.2227  1.0317
  460SOL    HW2 1380   0.563   0.701   2.940  1.9135  0.1055  2.7153
  461SOL     OW 1381   0.117   2.363   0.257  0.2191 -0.4133 -0.9138
  461SOL    HW1 1382   0.151   2.444   0.308 -3.1469  1.0102  1.1227
  461SOL    HW2 1383   0.111   2.286   0.323 -0.1976  0.1046 -0.9442
  462SOL     OW 1384   0.193   2.603   1.644 -0.6418 -0.1351 -0.0474
  462SOL    HW1 1385   0.094   2.573   1.635 -2.3501 -0.1356  0.0531
  462SOL    HW2 1386   0.238   2.548   1.717 -0.9135  0.4177 -1.3229
  463SOL     OW 1387   1.645   1.973   1.971  0.0676 -0.4626 -0.3144
  463SOL    HW1 1388   1.689   1.984   1.878  0.7192  2.1228 -1.4121
  463SOL    HW2 1389   1.672   2.051   2.036  1.4950 -1.5406  1.4341
  464SOL     OW 1390   2.668   2.749   0.857  0.5824 -0.6402 -0.0911
  464SOL    HW1 1391   2.656   2.852   0.842 -0.3475  1.1657 -1.0605
  464SOL    HW2 1392   2.763   2.747   0.891  1.0172  1.0699 -2.0336
  465SOL     OW 1393   0.166   0.092   1.396  0.6922  0.8096 -0.2786
  465SOL    HW1 1394   0.136   0.036   1.482  0.0808 -0.9739 -0.0660
  465SOL    HW2 1395   0.204   0.181   1.424  1.3691 -2.3717  0.3030
  466SOL     OW 1396   1.344   2.482   2.479  0.4333 -0.4349 -0.2115
  466SOL    HW1 1397   1.319   2.523   2.386  1.8985  1.1293 -0.7849
  466SOL    HW2 1398   1.442   2.489   2.500  0.3775  1.2911 -1.8188
  467SOL     OW 1399   2.945   1.749   0.662 -0.5049  0.3355 -0.0625
  467SOL    HW1 1400   2.916   1.844   0.680 -0.2448 -0.3942 -0.8547
  467SOL    HW2 1401   2.874   1.697   0.612 -2.4836 -0.1888 -0.6419
  468SOL     OW 1402   2.221   1.938   3.036 -0.3053  0.5504 -0.7358
  468SOL    HW1 1403   2.123   1.904   3.028 -2.4305 -0.1240 -1.5923
  468SOL    HW2 1404   2.232   2.023   2.986  2.3207  2.1931 -0.7258
  469SOL     OW 1405   1.282   2.150   0.731 -0.7986  0.3054 -0.0314
  469SOL    HW1 1406   1.278   2.155   0.631 -0.6568  1.5818  1.1400
  469SOL    HW2 1407   1.317   2.054   0.754  1.1561 -2.0752  1.9410
  470SOL     OW 1408   1.831   1.215   1.308 -0.1928 -0.0320 -0.0472
  470SOL    HW1 1409   1.843   1.170   1.218 -0.9062 -1.6624 -0.4452
  470SOL    HW2 1410   1.910   1.199   1.369  0.9946 -1.1309 -3.3115
  471SOL     OW 1411   0.429   2.291   0.221  0.0314 -0.0525 -0.4387
  471SOL    HW1 1412   0.353   2.310   0.157  2.9996 -0.2026 -0.5402
  471SOL    HW2 1413   0.511   2.344   0.198 -1.1553 -1.8830  2.5266
  472SOL     OW 1414   2.414   1.839   2.502 -0.3235 -0.5085 -0.7253
  472SOL    HW1 1415   2.473   1.910   2.543  1.3218 -2.3767 -2.0387
  472SOL    HW2 1416   2.470   1.750   2.513  0.9340 -0.7825  0.8747
  473SOL     OW 1417   1.101   2.173   0.948 -0.3102  0.1738 -0.6210
  473SOL    HW1 1418   1.170   2.159   0.875 -1.2596  2.8097  1.3647
  473SOL    HW2 1419   1.025   2.229   0.904 -1.1427  0.9548 -3.6427
  474SOL     OW 1420   0.027   0.379   1.132  0.5646 -0.2125 -0.0069
  474SOL    HW1 1421   3.077   0.298   1.169 -0.9439 -0.8584 -1.1322
  474SOL    HW2 1422   3.068   0.429   1.064 -0.0980 -0.0889 -2.3773
  475SOL     OW 1423   2.241   2.869   1.614 -0.2421 -0.1378 -0.1026
  475SOL    HW1 1424   2.312   2.846   1.685 -0.6103 -3.5718  1.8959
  475SOL    HW2 1425   2.260   2.812   1.528 -0.8530 -0.2169 -0.0667
  476SOL     OW 1426   0.430   0.549   0.596  0.3445 -0.4915  0.2644
  476SOL    HW1 1427   0.493   0.529   0.519 -0.7980  0.8840 -0.7869
  476SOL    HW2 1428   0.475   0.596   0.675 -0.9657  1.5827  1.8341
  477SOL     OW 1429   0.944   1.945   1.005 -0.7873 -0.6319 -0.0789
  477SOL    HW1 1430   0.999   1.870   1.043 -2.4710 -0.9586  1.3729
  477SOL    HW2 1431   1.000   2.029   0.996 -0.7909 -1.5511  2.0049
  478SOL     OW 1432   1.283   2.209   2.823 -0.3388 -0.8644  0.2277
  478SOL    HW1 1433   1.311   2.146   2.747 -1.7651  0.8668 -0.6597
  478SOL    HW2 1434   1.326   2.299   2.794  3.0203  3.6820  1.0959
  479SOL     OW 1435   3.004   1.111   1.893 -0.2882  0.2744  0.1182
  479SOL    HW1 1436   2.989   1.183   1.822 -0.8181  0.5845  0.9064
  479SOL    HW2 1437   3.014   1.021   1.846  2.1307 -1.0293 -0.6700
  480SOL     OW 1438   2.984   2.388   2.995  0.1989 -0.3088 -0.3278
  480SOL    HW1 1439   2.993   2.398   3.097 -1.9889  0.5416 -0.6451
  480SOL    HW2 1440   2.993   2.293   2.969  1.3975  1.8643  0.3102
  481SOL     OW 1441   1.615   0.010   2.128  0.1480 -0.8666  0.2654
  481SOL    HW1 1442   1.705   3.094   2.167 -1.3704  3.0118 -0.5686
  481SOL    HW2 1443   1.609   0.108   2.100 -0.9211  0.3933 -0.8785
  482SOL     OW 1444   1.649   2.147   2.899  0.5029 -0.4094  0.0274
  482SOL    HW1 1445   1.743   2.169   2.930 -0.1626  2.5448 -0.4003
  482SOL    HW2 1446   1.650   2.072   2.836  0.9027 -0.4112  1.4512
  483SOL     OW 1447   0.951   2.529   2.742  0.5562  0.0268  0.6057
  483SOL    HW1 1448   0.861   2.550   2.702  2.4896  1.1088  1.0359
  483SOL    HW2 1449   0.994   2.461   2.683 -1.8303  0.9787  1.5261
  484SOL     OW 1450   0.290   2.565   1.383 -0.3684 -0.2830 -0.3575
  484SOL    HW1 1451   0.265   2.590   1.478 -0.4151 -0.0895  0.8153
  484SOL    HW2 1452   0.353   2.634   1.335  0.2089  1.5228 -2.3391
  485SOL     OW 1453   2.261   0.711   0.587 -0.7475 -0.1946  0.0185
  485SOL    HW1 1454   2.186   0.776   0.561 -0.2376 -0.4634  0.7377
  485SOL    HW2 1455   2.326   0.758   0.650 -0.0828 -2.1496  0.0639
  486SOL     OW 1456   2.462   2.776   2.371 -0.0888 -0.4549 -0.3729
  486SOL    HW1 1457   2.461   2.862   2.317 -3.2600  0.7749  0.5487
  486SOL    HW2 1458   2.401   2.792   2.451 -0.9241  2.3627  2.5355
  487SOL     OW 1459   1.193   0.929   0.708  0.2283  0.2887  0.5109
  487SOL    HW1 1460   1.217   1.023   0.682 -0.6011 -0.8801 -1.0914
  487SOL    HW2 1461   1.102   0.906   0.666 -3.1228 -1.7353 -0.9392
  488SOL     OW 1462   2.531   0.031   2.763 -0.4020  0.3426  0.0783
  488SOL    HW1 1463   2.514   3.029   2.773  3.7485  0.9408  2.2581
  488SOL    HW2 1464   2.598   0.058   2.838 -0.2874 -0.6861  3.0192
  489SOL     OW 1465   2.051   0.107   0.444 -0.5100  0.4040 -0.0272
  489SOL    HW1 1466   2.136   0.111   0.388 -0.5892 -1.1832  1.0957
  489SOL    HW2 1467   1.986   0.180   0.408  0.8381 -0.0025 -0.8844
  490SOL     OW 1468   1.620   0.442   2.963 -0.9804 -0.9713 -0.1715
  490SOL    HW1 1469   1.684   0.470   3.043 -1.5412  0.4537  0.8240
  490SOL    HW2 1470   1.662   0.380   2.895 -0.7360  2.5711  0.1376
  491SOL     OW 1471   0.610   0.092   1.249  0.1360  0.2899  0.3934
  491SOL    HW1 1472   0.623   0.072   1.348  0.5152 -2.6902 -0.9750
  491SOL    HW2 1473   0.684   0.049   1.198 -2.3571  2.9945  0.0946
  492SOL     OW 1474   1.678   0.049   0.506 -0.1720 -0.5949  0.3773
  492SOL    HW1 1475   1.729   0.065   0.596  1.2951  0.2503  4.4210
  492SOL    HW2 1476   1.660   3.051   0.497  1.7151  0.2283  2.4093
  493SOL     OW 1477   1.074   2.173   2.981 -0.1295 -0.5343 -0.3209
  493SOL    HW1 1478   1.015   2.096   2.946 -2.1768 -0.9963  1.0866
  493SOL    HW2 1479   1.152   2.190   2.915  0.7908 -0.9355 -0.6369
  494SOL     OW 1480   0.715   0.839   1.032 -0.2970  0.7065 -0.3133
  494SOL    HW1 1481   0.651   0.870   0.960  0.4617 -1.2335 -0.1390
  494SOL    HW2 1482   0.810   0.865   1.012 -1.9967 -0.3606 -0.8670
  495SOL     OW 1483   2.866   0.491   1.555  0.3511  0.1387 -0.3354
  495SOL    HW1 1484   2.953   0.519   1.598 -0.9871  0.7771  0.0953
  495SOL    HW2 1485   2.787   0.547   1.590 -0.1899 -3.0765  1.3387
  496SOL     OW 1486   2.304   2.650   2.160 -0.1789 -0.0359  0.8301
  496SOL    HW1 1487   2.369   2.690   2.228 -1.9894  1.6323 -0.3618
  496SOL    HW2 1488   2.254   2.569   2.194  2.0401  0.8624 -0.5254
  497SOL     OW 1489   1.787   1.100   2.830 -0.6390 -0.6366 -0.5743
  497SOL    HW1 1490   1.886   1.132   2.805  3.5055 -0.1804 -2.2508
  497SOL    HW2 1491   1.743   1.181   2.873  1.6031 -0.7006 -0.9096
  498SOL     OW 1492   0.919   2.095   0.517  0.2661 -0.0979  0.5147
  498SOL    HW1 1493   0.981   2.014   0.518 -0.3710  0.8699  0.0209
  498SOL    HW2 1494   0.846   2.094   0.589  2.6689 -0.2353  1.6268
  499SOL     OW 1495   0.269   1.655   0.910  0.4838 -0.4185 -0.0575
  499SOL    HW1 1496   0.223   1.706   0.833 -0.3087 -0.7535 -1.7006
  499SOL    HW2 1497   0.339   1.601   0.866 -1.2312  2.5189 -0.9775
  500SOL     OW 1498   1.247   2.675   0.390  0.1153 -0.4144 -0.1013
  500SOL    HW1 1499   1.193   2.746   0.341  0.5211  1.2700 -1.6042
  500SOL    HW2 1500   1.313   2.721   0.454 -0.1534  3.9000 -1.6442
  501SOL     OW 1501   1.819   2.803   0.699  0.1000  0.0493 -0.2378
  501SOL    HW1 1502   1.883   2.753   0.640  1.8790 -1.2011  2.6721
  501SOL    HW2 1503   1.747   2.854   0.650 -0.7059  1.1722  3.3076
  502SOL     OW 1504   0.238   0.427   1.301  0.2210 -0.4790  0.0716
  502SOL    HW1 1505   0.161   0.418   1.236  0.3490 -1.0443 -0.8864
  502SOL    HW2 1506   0.305   0.497   1.265  0.5494  0.7641 -1.7213
  503SOL     OW 1507   2.008   3.018   1.668  0.0381 -0.0649  0.2737
  503SOL    HW1 1508   2.015   0.019   1.690 -3.5884  0.0136  0.1602
  503SOL    HW2 1509   2.099   2.983   1.636  0.6159 -0.5711  2.7128
  504SOL     OW 1510   2.173   1.023   1.873  0.2728  0.1629 -0.3572
  504SOL    HW1 1511   2.169   0.939   1.816 -1.1998  1.1757  0.4821
  504SOL    HW2 1512   2.078   1.064   1.889 -1.9851  0.2008 -1.8740
  505SOL     OW 1513   1.412   0.162   2.386  0.7730  0.3440  0.0328
  505SOL    HW1 1514   1.452   0.245   2.433 -1.5340  1.1618 -0.0959
  505SOL    HW2 1515   1.477   0.089   2.387 -0.1698  3.1499  0.6537
  506SOL     OW 1516   0.542   0.554   1.741  0.9932 -0.4760  0.7849
  506SOL    HW1 1517   0.545   0.486   1.814 -1.1040  0.7191 -3.0543
  506SOL    HW2 1518   0.586   0.644   1.757  1.2056  0.2188 -0.1095
  507SOL     OW 1519   1.802   0.506   0.078  0.1798 -0.2182 -0.2237
  507SOL    HW1 1520   1.758   0.486   0.167  1.6212  0.4455  2.0829
  507SOL    HW2 1521   1.875   0.434   0.061  2.8394 -1.0409  0.5730
  508SOL     OW 1522   2.161   0.674   2.037 -0.1806 -0.6443 -0.2589
  508SOL    HW1 1523   2.102   0.750   2.062 -0.9083 -2.0281 -3.4832
  508SOL    HW2 1524   2.148   0.643   1.941 -0.2046  0.1176  1.2189
  509SOL     OW 1525   0.808   1.700   2.536  0.2171  0.0254  0.2393
  509SOL    HW1 1526   0.711   1.689   2.500  0.1015 -0.2491  1.4108
  509SOL    HW2 1527   0.872   1.706   2.455 -1.7362 -1.8448 -3.0709
  510SOL     OW 1528   2.978   0.643   0.451 -0.3799  0.0415  0.4988
  510SOL    HW1 1529   2.974   0.713   0.380  0.3809 -0.5592 -0.0741
  510SOL    HW2 1530   3.000   0.674   0.545  1.2379  1.5692  0.4827
  511SOL     OW 1531   1.729   1.242   1.651  0.3627  0.4034  0.4770
  511SOL    HW1 1532   1.693   1.275   1.741  2.2439 -1.6620 -0.2704
  511SOL    HW2 1533   1.804   1.307   1.617  1.8054  0.7676 -0.5428
  512SOL     OW 1534   0.544   1.717   0.595 -0.3718 -0.8129 -0.1618
  512SOL    HW1 1535   0.628   1.674   0.552  2.2019 -0.8101 -1.5434
  512SOL    HW2 1536   0.572   1.814   0.629 -0.9401  0.5712 -0.9767
  513SOL     OW 1537   0.446   2.435   1.061 -0.2162 -0.0309  0.2270
  513SOL    HW1 1538   0.494   2.524   1.041 -2.3549  1.5286  1.6232
  513SOL    HW2 1539   0.505   2.380   1.124  0.2490 -0.6767  1.0456
  514SOL     OW 1540   0.530   2.149   0.431  0.1448  0.1008  0.1805
  514SOL    HW1 1541   0.479   2.172   0.341 -1.1501 -1.3016 -0.4303
  514SOL    HW2 1542   0.598   2.222   0.435 -2.1424 -0.4581  0.2636
  515SOL     OW 1543   3.064   2.817   0.102  0.1376  0.3641  0.3788
  515SOL    HW1 1544   0.002   2.802   0.198 -0.0568  0.5539 -0.9913
  515SOL    HW2 1545   2.998   2.894   0.108 -0.1898 -1.9425 -0.9870
  516SOL     OW 1546   2.024   0.065   1.174  0.2323 -0.0042  1.0948
  516SOL    HW1 1547   1.936   0.114   1.162 -1.1753 -2.0252  2.0335
  516SOL    HW2 1548   2.008   3.063   1.156 -1.5163 -1.3940  0.6634
  517SOL     OW 1549   1.662   1.665   0.502 -1.0948  0.1392  0.2522
  517SOL    HW1 1550   1.576   1.718   0.482 -2.4494  4.0135 -0.7384
  517SOL    HW2 1551   1.638   1.576   0.551 -1.7788 -1.8841  1.8172
  518SOL     OW 1552   1.206   0.032   0.874 -0.1355 -0.1354 -0.3426
  518SOL    HW1 1553   1.210   0.131   0.855 -3.8579 -1.0041 -0.0892
  518SOL    HW2 1554   1.189   3.071   0.793  1.4638  0.7495  0.9252
  519SOL     OW 1555   2.804   2.363   0.541 -0.3213 -0.2379  0.2498
  519SOL    HW1 1556   2.847   2.304   0.614  1.6086  0.6811  0.7267
  519SOL    HW2 1557   2.786   2.453   0.583 -0.0964 -1.5154 -1.4055
  520SOL     OW 1558   1.718   2.186   2.112  0.2068  0.2222 -0.1213
  520SOL    HW1 1559   1.817   2.177   2.102 -2.9884 -0.8856 -0.7930
  520SOL    HW2 1560   1.689   2.281   2.146 -1.3862  2.6175  1.6533
  521SOL     OW 1561   1.355   3.026   2.074 -0.2103 -0.5935 -0.0652
  521SOL    HW1 1562   1.349   2.943   2.135  0.9035 -0.1493  0.2406
  521SOL    HW2 1563   1.450   3.061   2.077 -3.2874 -2.2264 -1.8906
  522SOL     OW 1564   0.042   2.795   2.030 -0.1713  0.5268 -0.2459
  522SOL    HW1 1565   0.022   2.829   1.933 -0.3371 -0.9820  0.8267
  522SOL    HW2 1566   3.056   2.801   2.081  0.0270 -0.1797 -0.7573
  523SOL     OW 1567   0.918   2.064   1.788  0.4462  0.1692  0.7407
  523SOL    HW1 1568   0.907   2.144   1.853 -0.1381  2.7120 -0.8506
  523SOL    HW2 1569   1.006   2.060   1.735  0.6271 -1.8968  0.1080
  524SOL     OW 1570   2.275   2.296   0.398 -0.3776 -0.3928 -0.3061
  524SOL    HW1 1571   2.376   2.300   0.419  2.2396  0.3581  1.2218
  524SOL    HW2 1572   2.244   2.200   0.392 -0.5949 -0.7163  1.4993
  525SOL     OW 1573   2.836   0.499   2.964 -0.0075  0.2981  0.1370
  525SOL    HW1 1574   2.819   0.542   3.058 -0.3360  0.5456  1.2846
  525SOL    HW2 1575   2.896   0.415   2.963 -1.4547 -1.5593 -0.1559
  526SOL     OW 1576   0.388   2.832   0.786 -0.0981 -0.5708  0.5017
  526SOL    HW1 1577   0.301   2.885   0.771  0.7674 -0.7714  2.2147
  526SOL    HW2 1578   0.467   2.897   0.788  1.2046 -1.6338 -0.4725
  527SOL     OW 1579   2.850   1.300   0.611  0.2909  0.1138  0.0922
  527SOL    HW1 1580   2.859   1.269   0.515 -1.9121  1.3342  0.7661
  527SOL    HW2 1581   2.779   1.245   0.659  0.6995 -1.9150  1.8766
  528SOL     OW 1582   0.764   0.843   2.314 -0.1029 -0.1009  0.1073
  528SOL    HW1 1583   0.754   0.741   2.330 -1.6672 -3.4942  0.2462
  528SOL    HW2 1584   0.675   0.879   2.275 -1.5403  0.5867  1.3871
  529SOL     OW 1585   0.557   1.476   0.012 -0.8548 -0.1141 -0.5168
  529SOL    HW1 1586   0.600   1.536   0.080  1.1904  0.0225  1.6985
  529SOL    HW2 1587   0.504   1.531   3.045  1.1804  1.3151  0.3256
  530SOL     OW 1588   1.241   0.931   2.024 -0.1796 -0.1034 -0.0044
  530SOL    HW1 1589   1.333   0.973   2.014 -1.0032  0.3241 -0.0803
  530SOL    HW2 1590   1.245   0.845   2.079  3.2637 -0.4099 -0.2694
  531SOL     OW 1591   1.116   2.392   0.046 -0.2705 -0.1417  0.1729
  531SOL    HW1 1592   1.092   2.309   3.092  1.6002  2.5132  1.0096
  531SOL    HW2 1593   1.155   2.362   0.137  0.1336 -2.7445  1.8902
  532SOL     OW 1594   2.314   1.167   2.572 -0.1292  0.2167  0.4901
  532SOL    HW1 1595   2.276   1.098   2.635 -2.9928  1.3701 -0.0099
  532SOL    HW2 1596   2.297   1.266   2.601  1.0924  0.3506  2.3992
  533SOL     OW 1597   0.008   0.111   1.798 -0.2695 -0.3677  0.5708
  533SOL    HW1 1598   3.083   0.063   1.880  0.0709  0.4593 -0.4227
  533SOL    HW2 1599   3.031   0.178   1.778 -0.7682  1.4040  2.6574
  534SOL     OW 1600   2.316   0.169   0.343  0.2447  0.7377  0.3200
  534SOL    HW1 1601   2.291   0.191   0.244 -1.5389  1.7252 -3.8977
  534SOL    HW2 1602   2.417   0.209   0.358  1.7018  0.6547  1.9388
  535SOL     OW 1603   0.604   3.082   3.041  0.3478  0.4968  0.0285
  535SOL    HW1 1604   0.678   0.004   2.971 -2.2494  3.3471  0.7920
  535SOL    HW2 1605   0.535   0.057   3.047  1.0565  0.0149 -1.4975
  536SOL     OW 1606   0.745   1.829   1.547  0.0260  0.7756 -0.1416
  536SOL    HW1 1607   0.719   1.915   1.584  0.9864 -1.7917 -0.3425
  536SOL    HW2 1608   0.820   1.849   1.485 -2.7056  2.7415  1.5869
  537SOL     OW 1609   3.051   2.516   1.627  0.2454 -0.5222  1.0371
  537SOL    HW1 1610   2.986   2.568   1.566 -0.7717  2.0167 -1.1607
  537SOL    HW2 1611   3.021   2.525   1.723 -0.7028 -0.1290 -1.2300
  538SOL     OW 1612   0.018   2.129   0.361 -0.1022 -0.2602 -0.0719
  538SOL    HW1 1613   3.038   2.179   0.325  0.1330 -0.8348  0.0957
  538SOL    HW2 1614   3.085   2.036   0.386 -2.6680 -0.1394 -0.3102
  539SOL     OW 1615   2.474   1.013   2.390 -0.0507  0.9714  0.1671
  539SOL    HW1 1616   2.414   1.074   2.446  2.4254 -1.5888 -1.3722
  539SOL    HW2 1617   2.535   1.074   2.334 -0.5853  1.3421 -0.0177
  540SOL     OW 1618   1.901   0.883   2.966  0.3762 -0.5465  0.5841
  540SOL    HW1 1619   1.860   0.955   2.903  0.3850 -1.0215  0.7771
  540SOL    HW2 1620   1.950   0.936   3.043  3.2273  2.5781  0.4049
  541SOL     OW 1621   0.696   0.577   2.378 -0.4205 -0.1465 -0.4116
  541SOL    HW1 1622   0.745   0.488   2.355  1.9198 -0.8144 -0.9131
  541SOL    HW2 1623   0.596   0.581   2.371  1.1977 -0.4720 -0.0790
  542SOL     OW 1624   1.428   2.535   2.058 -0.3881 -0.3330  0.3020
  542SOL    HW1 1625   1.353   2.601   2.076  0.1380 -3.6883  0.9693
  542SOL    HW2 1626   1.522   2.580   2.061 -2.2636 -0.4376  1.1159
  543SOL     OW 1627   0.929   2.672   0.503 -0.3342  0.2119 -0.0879
  543SOL    HW1 1628   0.998   2.596   0.518  1.6143 -1.9322 -2.9678
  543SOL    HW2 1629   0.836   2.641   0.535  0.6733 -1.8704 -1.3866
  544SOL     OW 1630   2.775   1.876   2.487 -0.1583  0.4233  0.1111
  544SOL    HW1 1631   2.775   1.778   2.460  1.5482  0.4800 -0.8370
  544SOL    HW2 1632   2.873   1.908   2.499  1.1805  1.7846  0.1604
  545SOL     OW 1633   1.365   1.807   1.514 -0.6388 -0.0786 -0.2916
  545SOL    HW1 1634   1.322   1.809   1.606  1.8744  1.1929 -3.6795
  545SOL    HW2 1635   1.311   1.855   1.443  1.1307 -1.6417 -1.6544
  546SOL     OW 1636   0.206   0.391   2.536 -0.1691  0.7864 -0.1648
  546SOL    HW1 1637   0.258   0.371   2.447  3.9120 -0.5630 -1.9666
  546SOL    HW2 1638   0.216   0.315   2.601 -2.8036  1.7861 -2.3185
  547SOL     OW 1639   0.969   0.241   0.605  0.3331  0.0813  0.2143
  547SOL    HW1 1640   0.934   0.314   0.541  0.2892  1.7154 -3.9297
  547SOL    HW2 1641   1.066   0.205   0.585 -1.0467 -0.2020  0.9896
  548SOL     OW 1642   1.489   1.916   3.072  0.2862 -0.7528  0.6953
  548SOL    HW1 1643   1.408   1.862   3.038 -2.4794  0.1860 -1.4851
  548SOL    HW2 1644   1.491   2.011   3.022  0.4929  1.4826 -4.6806
  549SOL     OW 1645   2.355   0.864   0.107 -0.5021 -0.0828 -0.2310
  549SOL    HW1 1646   2.320   0.961   0.122 -0.3416  2.2909 -0.4975
  549SOL    HW2 1647   2.416   0.843   0.188 -0.1495  0.0696  1.1063
  550SOL     OW 1648   2.704   2.310   0.878  0.0945 -0.1195 -0.6959
  550SOL    HW1 1649   2.613   2.345   0.869  1.6973  1.8426  1.0616
  550SOL    HW2 1650   2.764   2.394   0.879 -0.1130  0.7090 -1.4892
  551SOL     OW 1651   0.986   0.367   1.450  0.1658  0.6745  0.5079
  551SOL    HW1 1652   0.976   0.267   1.438 -0.5633  1.4715  0.0109
  551SOL    HW2 1653   0.899   0.412   1.404  0.2762 -0.7672 -2.8592
  552SOL     OW 1654   2.881   1.733   2.813  0.0697  0.0297 -0.0538
  552SOL    HW1 1655   2.860   1.637   2.785  1.2109 -0.4265 -0.3866
  552SOL    HW2 1656   2.945   1.736   2.894  1.3416  0.8963  4.7472
  553SOL     OW 1657   2.712   2.614   0.629 -0.6837 -0.0054 -0.2729
  553SOL    HW1 1658   2.707   2.682   0.557 -1.1431 -1.1123 -1.5275
  553SOL    HW2 1659   2.709   2.661   0.721  0.3749 -0.7345 -0.4393
  554SOL     OW 1660   2.086   1.173   1.429  0.7009  0.0556 -0.2935
  554SOL    HW1 1661   2.156   1.220   1.377 -3.0825 -2.4518 -0.6997
  554SOL    HW2 1662   2.042   1.242   1.494 -2.9059  1.0213  2.7047
  555SOL     OW 1663   1.287   2.093   2.118  0.0034 -0.4697  0.2443
  555SOL    HW1 1664   1.303   2.001   2.070  0.0245 -1.9362 -0.9660
  555SOL    HW2 1665   1.365   2.129   2.173 -0.7920  0.1147  3.1217
  556SOL     OW 1666   1.139   1.340   1.715  0.5752  0.0101  0.6584
  556SOL    HW1 1667   1.191   1.421   1.753  1.7206 -0.9010 -0.8448
  556SOL    HW2 1668   1.180   1.255   1.749  0.0013 -0.5145  0.4179
  557SOL     OW 1669   1.352   0.066   1.516  0.0125 -0.2327 -0.2015
  557SOL    HW1 1670   1.375   3.075   1.506  2.4480  1.2435  1.3610
  557SOL    HW2 1671   1.356   0.099   1.611  0.1402  0.9245 -0.3754
  558SOL     OW 1672   0.908   2.932   2.026 -0.2484 -0.3008 -0.0506
  558SOL    HW1 1673   0.828   2.871   2.023 -0.8708  1.4477  0.4976
  558SOL    HW2 1674   0.972   2.910   1.953  0.4040  0.7883 -1.3942
  559SOL     OW 1675   1.646   2.718   0.263 -0.4717 -0.4438  0.0638
  559SOL    HW1 1676   1.550   2.713   0.225 -2.3494  1.0230 -1.3927
  559SOL    HW2 1677   1.679   2.633   0.317  1.0241 -1.4654  0.7764
  560SOL     OW 1678   1.531   2.182   0.288  0.1617 -0.4410 -0.4431
  560SOL    HW1 1679   1.560   2.086   0.265  0.3887 -0.8278  0.4202
  560SOL    HW2 1680   1.484   2.222   0.206  0.1224  2.0794  0.8733
  561SOL     OW 1681   1.492   0.238   0.620  0.1847 -0.4874 -0.0005
  561SOL    HW1 1682   1.537   0.157   0.580 -0.1677 -0.1475  0.1541
  561SOL    HW2 1683   1.393   0.227   0.600  0.8723  2.9034  0.2278
  562SOL     OW 1684   0.378   1.090   1.849  0.0584  0.1991  0.4208
  562SOL    HW1 1685   0.460   1.090   1.783  0.4896  0.3975  0.4749
  562SOL    HW2 1686   0.399   1.020   1.919 -1.1073  3.4577 -1.8771
  563SOL     OW 1687   1.530   2.302   2.698  0.3984 -0.1231  0.4725
  563SOL    HW1 1688   1.462   2.229   2.671  1.1718  0.6829 -1.8910
  563SOL    HW2 1689   1.578   2.266   2.778 -0.9535  1.0554 -0.9103
  564SOL     OW 1690   3.012   1.019   0.665  0.1952 -0.6903 -0.1406
  564SOL    HW1 1691   2.994   1.069   0.752  1.3573  0.4079 -0.8672
  564SOL    HW2 1692   3.030   0.917   0.678  1.7166 -4.0555  0.5842
  565SOL     OW 1693   0.745   1.257   0.169 -0.0355  0.5525 -0.1599
  565SOL    HW1 1694   0.691   1.343   0.156  1.4834  0.1567 -0.9229
  565SOL    HW2 1695   0.830   1.251   0.111  0.4775 -1.4935  0.2111
  566SOL     OW 1696   2.226   2.602   3.055  0.5034  0.0888  0.3141
  566SOL    HW1 1697   2.267   2.553   0.036 -2.6852 -0.5924  0.0591
  566SOL    HW2 1698   2.267   2.693   3.040 -1.3019 -0.6682  0.8784
  567SOL     OW 1699   1.444   1.274   1.509  0.0409  0.4102  0.4164
  567SOL    HW1 1700   1.535   1.256   1.546 -1.8030 -0.3996 -1.6420
  567SOL    HW2 1701   1.384   1.190   1.504 -0.3462 -2.3600 -1.2897
  568SOL     OW 1702   1.405   1.188   2.753  0.2510 -0.1625 -0.1174
  568SOL    HW1 1703   1.457   1.099   2.771 -1.4841 -1.2354  1.5857
  568SOL    HW2 1704   1.441   1.229   2.668 -0.8111  1.6290  1.0477
  569SOL     OW 1705   1.903   1.760   0.512  0.0511 -0.1897  0.3964
  569SOL    HW1 1706   1.934   1.788   0.604  0.5946 -1.6376 -1.2647
  569SOL    HW2 1707   1.811   1.716   0.515  0.7182  1.0807 -0.3633
  570SOL     OW 1708   2.657   2.059   2.322 -0.3025  0.1470  0.1338
  570SOL    HW1 1709   2.708   2.103   2.247 -0.5374  2.0065  2.4288
  570SOL    HW2 1710   2.711   1.994   2.380  0.7856 -0.8241  2.7621
  571SOL     OW 1711   2.688   1.882   1.730  0.2129 -0.6502 -0.1621
  571SOL    HW1 1712   2.682   1.960   1.660 -0.8287  0.3602 -1.4955
  571SOL    HW2 1713   2.780   1.838   1.731 -1.2996 -0.2528 -0.8657
  572SOL     OW 1714   1.389   2.637   0.134 -0.3271 -0.6040  0.0088
  572SOL    HW1 1715   1.353   2.613   0.219  1.6953  3.0166 -1.4840
  572SOL    HW2 1716   1.362   2.572   0.059 -0.8458 -2.5689  0.5010
  573SOL     OW 1717   1.331   1.873   0.741 -0.0507  0.2706 -0.5726
  573SOL    HW1 1718   1.432   1.889   0.761  2.5718  0.5545  2.2030
  573SOL    HW2 1719   1.299   1.791   0.796  0.9708 -1.0022 -0.4542
  574SOL     OW 1720   1.090   2.992   1.502  0.0773  0.0858  0.1264
  574SOL    HW1 1721   1.191   2.999   1.487 -0.7244 -0.5249 -0.0085
  574SOL    HW2 1722   1.053   3.025   1.591  0.3008  0.8072  3.1808
  575SOL     OW 1723   0.995   0.678   1.154  0.7863 -0.7544  0.2795
  575SOL    HW1 1724   1.002   0.755   1.088  1.4768  0.0807  1.8891
  575SOL    HW2 1725   0.937   0.711   1.236 -1.0457 -0.7717 -1.0076
  576SOL     OW 1726   2.810   0.404   1.312  0.2792 -0.4457 -0.0550
  576SOL    HW1 1727   2.723   0.433   1.265 -0.5448 -2.0753  0.1644
  576SOL    HW2 1728   2.811   0.435   1.410 -1.2551 -1.9149 -1.4719
  577SOL     OW 1729   2.396   0.638   2.619 -0.1013 -0.4751 -0.2818
  577SOL    HW1 1730   2.342   0.680   2.697  0.5216  0.7225  1.9578
  577SOL    HW2 1731   2.442   0.708   2.560  1.7425  1.4471 -2.2273
  578SOL     OW 1732   1.784   1.547   2.200 -0.4802 -0.4586 -0.0883
  578SOL    HW1 1733   1.882   1.518   2.200 -0.2441  1.0048  0.3036
  578SOL    HW2 1734   1.765   1.605   2.119 -0.4748  3.8832  0.3687
  579SOL     OW 1735   0.663   1.385   0.947 -0.1295 -0.0903 -0.1546
  579SOL    HW1 1736   0.585   1.425   0.894 -2.2596 -2.0268 -0.1056
  579SOL    HW2 1737   0.732   1.458   0.971 -0.8868 -1.2664 -1.6838
  580SOL     OW 1738   1.347   2.465   3.020 -0.3114  0.0455  0.9073
  580SOL    HW1 1739   1.256   2.431   3.054 -0.9990  1.2021 -0.9287
  580SOL    HW2 1740   1.339   2.504   2.929  0.7958  0.7483  1.0349
  581SOL     OW 1741   0.845   0.831   2.015 -0.7853 -0.3510 -0.1056
  581SOL    HW1 1742   0.808   0.833   2.110  0.1544 -0.8979  2.5185
  581SOL    HW2 1743   0.913   0.755   2.008 -0.2064  0.6984  0.7920
  582SOL     OW 1744   0.513   0.952   0.861  0.0495  0.2502 -0.1916
  582SOL    HW1 1745   0.415   0.968   0.835  3.8826 -0.5813  1.6365
  582SOL    HW2 1746   0.577   0.963   0.783 -0.8868 -1.8490  0.8117
  583SOL     OW 1747   1.130   1.584   2.014  0.3655 -0.2626  0.1152
  583SOL    HW1 1748   1.206   1.625   2.067  0.1449  0.7476 -0.2238
  583SOL    HW2 1749   1.102   1.491   2.046  0.3236 -0.0197  0.0659
  584SOL     OW 1750   2.340   2.912   0.362 -0.0402 -0.2864  0.2240
  584SOL    HW1 1751   2.442   2.890   0.339  1.4746 -1.9048 -2.7334
  584SOL    HW2 1752   2.334   2.994   0.425 -0.6776 -0.5691 -0.1203
  585SOL     OW 1753   2.073   0.688   3.046  0.2190 -0.6637  0.3060
  585SOL    HW1 1754   2.004   0.756   3.016  1.6316 -0.7335  2.0565
  585SOL    HW2 1755   2.067   0.664   0.040  0.5199 -1.5899 -1.3412
  586SOL     OW 1756   0.334   1.695   0.432 -0.1319  0.5817  0.5833
  586SOL    HW1 1757   0.248   1.712   0.484 -0.0768  0.9400 -0.8496
  586SOL    HW2 1758   0.411   1.695   0.499  0.9516 -2.2223 -0.0920
  587SOL     OW 1759   1.672   2.123   1.023 -0.1170 -0.0863  0.0138
  587SOL    HW1 1760   1.764   2.114   1.065 -0.9757  2.2992 -2.9029
  587SOL    HW2 1761   1.610   2.145   1.102 -0.0808  0.2932 -0.5759
  588SOL     OW 1762   0.562   0.628   0.840  0.8439  0.5443 -0.8453
  588SOL    HW1 1763   0.664   0.605   0.836  2.5892 -0.7747 -0.7286
  588SOL    HW2 1764   0.533   0.710   0.890 -1.0226 -0.7771 -1.9198
  589SOL     OW 1765   1.226   0.313   0.866  0.2729 -0.0243 -0.6570
  589SOL    HW1 1766   1.206   0.362   0.776 -1.4212 -1.1316 -0.7388
  589SOL    HW2 1767   1.167   0.361   0.940  0.6870  1.2680  3.6297
  590SOL     OW 1768   1.318   0.974   0.267  0.1968  0.0961  0.3123
  590SOL    HW1 1769   1.358   1.008   0.354  0.4050  1.9253 -0.0175
  590SOL    HW2 1770   1.372   0.896   0.227  1.4979 -0.4431 -0.3591
  591SOL     OW 1771   2.389   2.368   2.046  0.0394 -1.0297 -0.2483
  591SOL    HW1 1772   2.373   2.419   1.955 -3.2905 -1.2902 -0.2416
  591SOL    HW2 1773   2.314   2.408   2.108 -1.2989  3.0186  0.0754
  592SOL     OW 1774   1.254   1.933   1.278 -0.1217  0.2865 -0.5934
  592SOL    HW1 1775   1.353   1.923   1.263 -3.1995  0.6907  1.0290
  592SOL    HW2 1776   1.222   2.031   1.275 -0.7680  1.1064 -1.4783
  593SOL     OW 1777   0.979   2.874   0.672  0.6061 -0.5560  0.5322
  593SOL    HW1 1778   0.997   2.839   0.765  0.4678  2.2848  0.2025
  593SOL    HW2 1779   0.929   2.799   0.623 -0.9089  0.2630 -1.8590
  594SOL     OW 1780   0.237   0.878   1.711 -0.1851 -0.1079 -0.1790
  594SOL    HW1 1781   0.267   0.872   1.612 -0.8777  0.3271 -1.5375
  594SOL    HW2 1782   0.283   0.953   1.763  1.6186  0.8868 -1.3175
  595SOL     OW 1783   2.943   2.749   0.991  0.1217  0.4458  0.0199
  595SOL    HW1 1784   3.008   2.731   0.917 -0.2956  0.8367  1.8245
  595SOL    HW2 1785   2.997   2.769   1.074  1.5287 -1.5249  0.0991
  596SOL     OW 1786   3.086   0.597   1.641 -0.1665  0.1700 -0.5438
  596SOL    HW1 1787   0.072   0.552   1.671 -0.2474 -0.7457 -1.4318
  596SOL    HW2 1788   3.074   0.680   1.700 -1.3948 -2.4951 -2.1691
  597SOL     OW 1789   1.963   1.539   0.861  0.3668 -0.3271 -0.3177
  597SOL    HW1 1790   1.870   1.584   0.872 -2.2197  3.3120  1.3162
  597SOL    HW2 1791   1.957   1.444   0.820  1.2661 -2.1124  1.8780
  598SOL     OW 1792   0.759   2.715   2.008 -0.0439 -0.5665  0.0234
  598SOL    HW1 1793   0.785   2.711   1.906  0.3466 -1.6328 -1.6104
  598SOL    HW2 1794   0.656   2.718   2.016 -0.8382 -0.0306  0.9516
  599SOL     OW 1795   2.646   1.965   0.134 -0.4993 -0.4131 -0.0054
  599SOL    HW1 1796   2.649   1.862   0.128 -0.7149 -0.0878 -0.7602
  599SOL    HW2 1797   2.550   1.993   0.135  0.8071 -0.3359  1.6442
  600SOL     OW 1798   0.842   0.950   3.083  0.7729  0.3075  0.6893
  600SOL    HW1 1799   0.832   0.950   2.980  0.3308 -1.4371  0.1364
  600SOL    HW2 1800   0.753   0.980   0.028 -0.9455  1.5021  2.9463
  601SOL     OW 1801   1.105   1.144   2.936 -0.3714  0.3844  0.4711
  601SOL    HW1 1802   1.037   1.072   2.943 -2.1854 -0.1873 -0.0488
  601SOL    HW2 1803   1.189   1.098   2.915 -0.2350  0.6239 -0.5938
  602SOL     OW 1804   1.464   2.817   1.133  0.0523 -0.2946 -0.0296
  602SOL    HW1 1805   1.558   2.796   1.108 -0.5317 -0.6332  0.3328
  602SOL    HW2 1806   1.436   2.912   1.126  0.2813  0.5775  0.4050
  603SOL     OW 1807   0.952   0.019   2.219 -0.6906  0.0234  0.0260
  603SOL    HW1 1808   0.942   3.065   2.132  0.1747  0.6885 -1.5887
  603SOL    HW2 1809   1.045   0.013   2.263 -1.8662  1.2895  3.0317
  604SOL     OW 1810   3.050   0.092   2.265  0.1984 -0.1777 -0.1376
  604SOL    HW1 1811   3.059   0.030   2.344  1.9630 -0.6759 -2.2781
  604SOL    HW2 1812   3.092   0.187   2.282  0.4984  3.1946 -2.2230
  605SOL     OW 1813   2.562   2.332   1.329 -0.2377 -0.2162 -0.1273
  605SOL    HW1 1814   2.485   2.269   1.327  2.2684  0.1248  1.4655
  605SOL    HW2 1815   2.605   2.337   1.422  1.6482  2.2488 -1.1420
  606SOL     OW 1816   0.404   1.654   2.960  0.8650 -0.1671 -0.0395
  606SOL    HW1 1817   0.311   1.646   2.999 -1.6734  0.6847  2.0246
  606SOL    HW2 1818   0.423   1.746   2.924  1.9009  0.3641 -1.2321
  607SOL     OW 1819   1.194   0.552   0.385  0.4665 -0.2324  0.3534
  607SOL    HW1 1820   1.246   0.510   0.306 -0.4844  2.0073  1.2204
  607SOL    HW2 1821   1.174   0.649   0.368 -0.2974 -3.3287 -0.4610
  608SOL     OW 1822   1.896   1.338   2.565 -0.5033  0.0969  0.1783
  608SOL    HW1 1823   1.821   1.289   2.515  4.5178 -0.6406 -1.0005
  608SOL    HW2 1824   1.868   1.408   2.632 -0.3155 -0.7759  0.8045
  609SOL     OW 1825   2.987   0.434   0.899  0.3709 -0.3554  0.3168
  609SOL    HW1 1826   3.050   0.396   0.834 -1.3806 -1.4733  3.5303
  609SOL    HW2 1827   2.895   0.390   0.895  1.7974  0.4548 -1.4965
  610SOL     OW 1828   0.385   2.352   2.884  0.2738 -0.5376 -0.9474
  610SOL    HW1 1829   0.462   2.284   2.911  1.3285 -2.0311  1.1362
  610SOL    HW2 1830   0.333   2.380   2.969  0.0928  0.3921  0.8880
  611SOL     OW 1831   2.069   1.317   0.441 -0.1205 -0.1313  0.2345
  611SOL    HW1 1832   2.168   1.289   0.437  2.7754  0.5970  0.6745
  611SOL    HW2 1833   2.055   1.414   0.414  0.2810  2.4942 -1.7169
  612SOL     OW 1834   1.075   2.348   2.546  0.0592  0.2422  0.1153
  612SOL    HW1 1835   1.175   2.332   2.533 -0.6483  0.9399 -1.2064
  612SOL    HW2 1836   1.030   2.379   2.465 -0.8848 -2.0416  2.8220
  613SOL     OW 1837   1.286   1.746   3.040 -0.0868  0.0321 -0.2758
  613SOL    HW1 1838   1.329   1.706   0.025  0.3610 -0.2738  0.2267
  613SOL    HW2 1839   1.264   1.678   2.973  0.5499  1.6728 -0.1646
  614SOL     OW 1840   2.698   2.607   1.833 -0.3157  0.2500  0.3318
  614SOL    HW1 1841   2.609   2.646   1.867 -0.4947 -0.4229 -1.8870
  614SOL    HW2 1842   2.679   2.517   1.785  0.4018 -2.8651 -1.5434
  615SOL     OW 1843   2.402   1.376   0.031  0.1793 -0.0586 -0.4243
  615SOL    HW1 1844   2.343   1.369   3.044 -0.7547 -1.2826  0.0173
  615SOL    HW2 1845   2.479   1.442   0.021 -3.3331 -3.4762 -0.8127
  616SOL     OW 1846   1.677   0.349   0.795 -0.1794  0.0979  0.1001
  616SOL    HW1 1847   1.643   0.331   0.890  1.7862 -1.0276 -0.9414
  616SOL    HW2 1848   1.605   0.326   0.723 -1.0252 -0.3489 -0.2187
  617SOL     OW 1849   0.860   1.012   2.802 -0.4349  0.0794 -0.1170
  617SOL    HW1 1850   0.820   0.990   2.711  2.1158  0.9983 -0.2004
  617SOL    HW2 1851   0.849   1.111   2.828  0.2484  2.5567 -0.2340
  618SOL     OW 1852   0.641   0.795   1.815 -0.0846 -0.1767  0.5471
  618SOL    HW1 1853   0.637   0.868   1.744  1.6528 -1.1763  1.7050
  618SOL    HW2 1854   0.711   0.822   1.884 -0.3795  0.7391 -2.3462
  619SOL     OW 1855   0.248   0.848   1.452 -0.1219 -0.7154 -0.3008
  619SOL    HW1 1856   0.152   0.824   1.440 -0.4793 -2.5266 -1.6723
  619SOL    HW2 1857   0.310   0.792   1.400 -0.8821  2.8609 -0.0507
  620SOL     OW 1858   1.996   1.133   0.060  0.0808  0.3070 -0.2035
  620SOL    HW1 1859   1.921   1.076   0.092  1.2089  0.1543 -1.6787
  620SOL    HW2 1860   1.967   1.224   0.026  0.7691  1.1078  1.0759
  621SOL     OW 1861   2.422   3.035   0.955  0.6203  0.0229 -1.0410
  621SOL    HW1 1862   2.439   0.033   0.972  1.1629 -0.4044 -0.7051
  621SOL    HW2 1863   2.373   3.003   1.039 -0.7980  1.1986 -0.1113
  622SOL     OW 1864   1.625   0.906   2.244  0.0932 -0.1873 -0.0595
  622SOL    HW1 1865   1.711   0.938   2.276 -1.8012 -0.2695 -0.7835
  622SOL    HW2 1866   1.621   0.807   2.243  1.2888  0.9365  2.3610
  623SOL     OW 1867   0.889   0.328   2.843  0.1305  0.7838  0.1431
  623SOL    HW1 1868   0.988   0.332   2.868  0.0691  0.4129 -1.1941
  623SOL    HW2 1869   0.840   0.418   2.856 -2.0986  0.1785  0.9246
  624SOL     OW 1870   1.674   0.413   0.317  0.1891 -0.1701  0.2841
  624SOL    HW1 1871   1.615   0.479   0.373 -1.7292 -2.0109  0.2098
  624SOL    HW2 1872   1.749   0.377   0.372 -1.9467  1.8795 -3.1386
  625SOL     OW 1873   0.811   1.239   0.764 -0.2819 -0.2501 -0.4180
  625SOL    HW1 1874   0.862   1.318   0.725  0.8670 -0.3607  0.8045
  625SOL    HW2 1875   0.751   1.269   0.842 -0.6767 -1.8675 -1.9663
  626SOL     OW 1876   1.429   1.058   0.014 -0.0248  0.1953  0.2357
  626SOL    HW1 1877   1.490   1.121   0.061 -2.7159 -1.1113  0.1405
  626SOL    HW2 1878   1.367   1.021   0.090 -0.6213 -1.8824  2.1354
  627SOL     OW 1879   0.965   3.094   1.740 -0.0986  0.0061  0.3877
  627SOL    HW1 1880   1.014   0.042   1.815  1.3972 -2.0951 -4.0358
  627SOL    HW2 1881   0.863   0.002   1.755  3.0253 -0.1978 -1.5734
  628SOL     OW 1882   2.594   0.226   2.006 -0.0550 -0.1512  0.0454
  628SOL    HW1 1883   2.678   0.204   2.060 -0.0330 -1.8731 -2.5952
  628SOL    HW2 1884   2.531   0.287   2.053  2.6555 -0.2182  0.2412
  629SOL     OW 1885   0.881   1.277   2.807 -0.0302  0.0291  0.7387
  629SOL    HW1 1886   0.978   1.257   2.829  0.3308 -1.2435  0.8018
  629SOL    HW2 1887   0.871   1.305   2.708  0.4409  1.3639 -2.6686
  630SOL     OW 1888   1.212   0.348   2.319  0.0491 -0.0064  0.0233
  630SOL    HW1 1889   1.152   0.404   2.381 -1.2545  0.1363 -1.4766
  630SOL    HW2 1890   1.274   0.285   2.363  1.3996 -0.7528 -0.2888
  631SOL     OW 1891   2.661   0.937   0.573 -0.0884 -0.3750  0.1354
  631SOL    HW1 1892   2.700   0.982   0.659  1.2225  4.6956  0.9384
  631SOL    HW2 1893   2.712   0.855   0.544  0.7803  2.8203  0.1024
  632SOL     OW 1894   2.540   1.132   1.047 -0.3217 -0.4212 -0.2279
  632SOL    HW1 1895   2.509   1.047   1.096 -0.2261 -1.4185 -0.5229
  632SOL    HW2 1896   2.595   1.194   1.106  1.9296  2.4184  2.7226
  633SOL     OW 1897   1.479   1.022   0.959  0.1958  0.2557  0.3776
  633SOL    HW1 1898   1.547   0.987   0.893  0.2793 -1.0486 -0.4931
  633SOL    HW2 1899   1.520   1.035   1.051  2.0948  0.7558  0.4823
  634SOL     OW 1900   1.805   0.091   0.750 -0.0892 -0.1892 -0.0659
  634SOL    HW1 1901   1.784   0.191   0.749 -2.0417  3.2184 -0.5400
  634SOL    HW2 1902   1.756   0.043   0.828  0.8216  1.1394 -0.3451
  635SOL     OW 1903   1.773   0.565   1.355 -0.1528  0.0109 -0.0554
  635SOL    HW1 1904   1.858   0.621   1.364  1.4072  0.4392 -2.7231
  635SOL    HW2 1905   1.709   0.595   1.427 -2.1226 -1.1634  0.9715
  636SOL     OW 1906   0.972   0.897   0.566  0.2366  0.1067  0.2621
  636SOL    HW1 1907   1.016   0.876   0.476  0.0576 -0.4897  0.4563
  636SOL    HW2 1908   0.900   0.821   0.570 -0.4701  0.6073  0.0637
  637SOL     OW 1909   1.466   2.218   0.009 -0.2163  0.0194  0.8943
  637SOL    HW1 1910   1.402   2.299   3.098  0.7728  1.4303  0.0560
  637SOL    HW2 1911   1.539   2.218   3.038 -0.8086  0.5501 -1.6616
  638SOL     OW 1912   1.112   2.848   3.005 -0.6777  0.2520 -0.7027
  638SOL    HW1 1913   1.195   2.867   3.063  2.3553  0.1628  0.0361
  638SOL    HW2 1914   1.073   2.758   3.021  0.6566  0.6947  0.2219
  639SOL     OW 1915   0.773   2.027   1.268  0.5964  0.0113  0.0378
  639SOL    HW1 1916   0.849   1.974   1.305  2.1233  0.2438 -1.8634
  639SOL    HW2 1917   0.690   1.974   1.247  2.2769  2.4245  0.1226
  640SOL     OW 1918   0.342   2.825   0.319  0.2294 -0.3229  0.3070
  640SOL    HW1 1919   0.382   2.731   0.342  0.7201 -1.2669 -0.9145
  640SOL    HW2 1920   0.400   2.874   0.246  3.2541  0.9449  0.6155
  641SOL     OW 1921   0.164   0.271   0.189 -0.6190 -0.1750  0.7601
  641SOL    HW1 1922   0.211   0.235   0.271  0.1513 -0.1132  0.0936
  641SOL    HW2 1923   0.216   0.347   0.142  0.3692  2.3855  0.4892
  642SOL     OW 1924   0.153   1.537   1.136 -0.0837  0.1867 -0.5781
  642SOL    HW1 1925   0.198   1.573   1.053  0.1373  0.4194  1.0535
  642SOL    HW2 1926   0.129   1.611   1.199  2.5144 -4.0055 -3.0977
  643SOL     OW 1927   0.959   1.727   2.299  0.5001 -0.1758  0.7923
  643SOL    HW1 1928   1.041   1.665   2.291 -0.1333 -0.8513 -1.1318
  643SOL    HW2 1929   0.981   1.815   2.264 -4.0881 -2.2410 -2.6058
  644SOL     OW 1930   1.711   2.500   0.484  0.0082 -0.3317  0.1612
  644SOL    HW1 1931   1.756   2.413   0.470  2.1774  0.8047 -1.0027
  644SOL    HW2 1932   1.647   2.496   0.564 -1.4183  1.0234  0.6585
  645SOL     OW 1933   1.713   2.289   1.400 -0.2388 -0.4282  0.3710
  645SOL    HW1 1934   1.712   2.286   1.500 -0.4572 -0.2478  1.4451
  645SOL    HW2 1935   1.770   2.205   1.369  3.1076 -0.5409 -2.1454
  646SOL     OW 1936   1.112   2.903   0.294  0.0960  0.0131 -0.2998
  646SOL    HW1 1937   1.027   2.946   0.260  0.1312  1.3150  0.0724
  646SOL    HW2 1938   1.140   2.938   0.384  1.2864  0.8999  2.1016
  647SOL     OW 1939   0.263   3.027   2.044 -0.1797 -0.0409 -0.4207
  647SOL    HW1 1940   0.266   2.930   2.080 -0.1816 -0.2886 -0.0608
  647SOL    HW2 1941   0.298   3.033   1.949 -0.0671  1.3183  1.5824
  648SOL     OW 1942   2.425   0.884   0.732 -0.0872  0.6414 -0.2530
  648SOL    HW1 1943   2.378   0.962   0.773 -0.9027  0.3561 -0.3469
  648SOL    HW2 1944   2.509   0.908   0.677  3.1702  1.6959 -2.1960
  649SOL     OW 1945   1.871   2.486   2.872 -0.2578  0.8858 -0.2576
  649SOL    HW1 1946   1.903   2.568   2.918 -3.4401 -2.0331  0.1280
  649SOL    HW2 1947   1.783   2.468   2.915  2.2735  0.0637  0.4682
  650SOL     OW 1948   2.437   1.483   1.979  0.1610 -0.3806  0.3248
  650SOL    HW1 1949   2.492   1.547   2.031  0.1061 -2.7697  0.8443
  650SOL    HW2 1950   2.430   1.404   2.039  1.3136  0.6243 -1.7913
  651SOL     OW 1951   1.634   1.582   2.877 -0.5198 -0.3852 -0.8013
  651SOL    HW1 1952   1.655   1.612   2.975 -1.2410  1.1080  0.5693
  651SOL    HW2 1953   1.587   1.652   2.818 -2.2722  0.0358  2.1880
  652SOL     OW 1954   0.845   2.976   2.661 -0.2379  0.1954  0.2871
  652SOL    HW1 1955   0.914   2.903   2.684  1.0022 -0.8520 -0.7301
  652SOL    HW2 1956   0.869   3.057   2.717  1.3587  0.1122 -0.6380
  653SOL     OW 1957   1.943   2.355   0.987 -0.4821  0.2519  0.4513
  653SOL    HW1 1958   1.884   2.386   1.069 -1.0128 -0.0228  2.0464
  653SOL    HW2 1959   2.008   2.277   1.013  2.2093 -4.0452 -0.8657
  654SOL     OW 1960   2.706   2.881   2.174  0.4562  0.2814  0.1925
  654SOL    HW1 1961   2.720   2.967   2.230  0.1716  2.2128  2.1190
  654SOL    HW2 1962   2.740   2.903   2.080 -0.7380 -1.4061  1.4032
  655SOL     OW 1963   2.718   2.241   1.149  0.2175  0.0681 -0.1906
  655SOL    HW1 1964   2.718   2.280   1.052  3.3320  0.3300 -2.0273
  655SOL    HW2 1965   2.657   2.293   1.214  1.4674  1.0969  0.9673
  656SOL     OW 1966   2.983   1.972   2.731 -0.0714 -0.2983 -0.5967
  656SOL    HW1 1967   3.020   1.965   2.634  0.7061  1.8706 -1.8635
  656SOL    HW2 1968   2.916   1.897   2.755 -0.4123  1.6084 -0.1048
  657SOL     OW 1969   2.957   0.864   0.280 -0.0890  0.2967  0.2102
  657SOL    HW1 1970   2.887   0.883   0.209  2.0871 -0.1325 -2.0723
  657SOL    HW2 1971   3.052   0.871   0.240  0.9178 -2.3100  0.4089
  658SOL     OW 1972   1.428   1.611   1.237  0.0269 -0.1576  0.6646
  658SOL    HW1 1973   1.361   1.576   1.300  0.2085  0.1859 -1.2093
  658SOL    HW2 1974   1.469   1.699   1.276  0.7030  1.5919 -0.6406
  659SOL     OW 1975   1.090   0.234   1.197 -0.0991  0.5657  0.8427
  659SOL    HW1 1976   1.184   0.208   1.212 -1.5606  1.7756 -1.1835
  659SOL    HW2 1977   1.022   0.168   1.235  0.9711 -1.1764 -0.2913
  660SOL     OW 1978   2.139   1.368   0.997 -0.2656  0.0694 -0.3491
  660SOL    HW1 1979   2.096   1.433   0.931 -0.9412 -0.9605 -0.3386
  660SOL    HW2 1980   2.229   1.397   1.037  2.0639  0.8830  0.8591
  661SOL     OW 1981   0.317   1.503   0.165 -0.0748  0.5655  0.1299
  661SOL    HW1 1982   0.337   1.570   0.237  0.5580  2.1915  0.5812
  661SOL    HW2 1983   0.402   1.480   0.111 -0.0129 -0.0243 -0.4316
  662SOL     OW 1984   2.732   0.573   1.993 -0.3568  0.4002 -0.1718
  662SOL    HW1 1985   2.718   0.612   2.089 -0.3969 -0.4530  1.2002
  662SOL    HW2 1986   2.757   0.655   1.943 -0.1356  0.0421  0.4372
  663SOL     OW 1987   2.131   1.532   1.330  0.3731  0.0972 -0.3240
  663SOL    HW1 1988   2.179   1.623   1.343  1.2213 -1.4357 -1.9207
  663SOL    HW2 1989   2.205   1.464   1.315  1.5305 -2.4738 -0.0192
  664SOL     OW 1990   0.380   3.005   1.295 -0.0218 -0.0870 -0.2630
  664SOL    HW1 1991   0.311   3.054   1.348 -0.3383  0.7307  0.0156
  664SOL    HW2 1992   0.450   3.075   1.280 -2.4311 -3.9619 -0.1198
  665SOL     OW 1993   1.376   0.250   2.974  0.2045  0.5098 -0.4083
  665SOL    HW1 1994   1.459   0.298   2.943  1.5997 -0.6267 -1.5385
  665SOL    HW2 1995   1.405   0.175   3.036 -1.5220 -0.9030 -2.1237
  666SOL     OW 1996   0.370   0.187   2.097  0.0912 -0.0855  0.2144
  666SOL    HW1 1997   0.326   0.095   2.100  1.6176 -1.7213 -0.2009
  666SOL    HW2 1998   0.350   0.237   2.184 -1.2872  0.3853  1.1352
  667SOL     OW 1999   1.656   1.323   1.901 -0.0592  0.0176 -0.5598
  667SOL    HW1 2000   1.706   1.411   1.906 -1.9243  0.5984 -0.3135
  667SOL    HW2 2001   1.630   1.292   1.996  1.3399  0.8378  1.8021
  668SOL     OW 2002   0.130   1.523   2.461  0.0527  0.1865  0.1070
  668SOL    HW1 2003   0.167   1.449   2.528 -1.8562 -1.9935  2.5769
  668SOL    HW2 2004   0.130   1.492   2.364  0.1129  0.5104 -4.6466
  669SOL     OW 2005   2.226   0.070   2.394 -0.1850 -0.6383 -0.4380
  669SOL    HW1 2006   2.287   0.026   2.327  2.6673 -1.2401  3.3069
  669SOL    HW2 2007   2.278   0.132   2.456  0.6387  1.3918  3.4791
  670SOL     OW 2008   2.653   1.162   2.245 -0.1127  0.7777 -0.0964
  670SOL    HW1 2009   2.717   1.085   2.225  1.8186 -0.6756  2.4624
  670SOL    HW2 2010   2.676   1.251   2.197  0.0028  0.3817 -0.9306
  671SOL     OW 2011   2.667   1.981   0.415  0.4388  0.3175  0.0986
  671SOL    HW1 2012   2.670   2.015   0.317 -2.4240  1.1453  0.0987
  671SOL    HW2 2013   2.591   1.913   0.429  2.3303  1.3123 -1.4611
  672SOL     OW 2014   1.630   1.325   2.206  0.3051  0.2049  0.2762
  672SOL    HW1 2015   1.617   1.273   2.295  0.0552  0.7612  0.3561
  672SOL    HW2 2016   1.700   1.396   2.216 -2.9482 -1.6297  0.6686
  673SOL     OW 2017   2.832   1.827   1.406 -0.3844 -0.1524 -0.0682
  673SOL    HW1 2018   2.866   1.916   1.360  1.6290  2.5606 -0.0788
  673SOL    HW2 2019   2.903   1.797   1.465 -1.7601  1.9556 -1.1872
  674SOL     OW 2020   1.034   1.749   1.816 -0.5822 -0.0320 -0.1009
  674SOL    HW1 2021   1.069   1.674   1.878  0.5343 -1.3840 -1.0306
  674SOL    HW2 2022   0.939   1.772   1.844 -1.6429  0.3998  2.1463
  675SOL     OW 2023   3.082   0.758   0.680 -0.2036  0.1521 -0.3204
  675SOL    HW1 2024   0.073   0.751   0.631  0.4105  0.4668 -1.0209
  675SOL    HW2 2025   3.097   0.745   0.780 -1.4532  2.2185  1.5160
  676SOL     OW 2026   2.933   1.183   0.884  0.1334 -0.4536 -0.1416
  676SOL    HW1 2027   2.939   1.277   0.848 -1.7370 -1.3956 -0.6508
  676SOL    HW2 2028   2.958   1.178   0.982  0.9141  1.7736  0.4210
  677SOL     OW 2029   1.717   1.702   2.416 -0.1861  0.2997  0.2133
  677SOL    HW1 2030   1.742   1.639   2.341 -2.3669  1.0659 -0.6581
  677SOL    HW2 2031   1.770   1.682   2.502  1.0859 -1.6282  1.1225
  678SOL     OW 2032   2.649   1.623   0.806  0.0738  0.1910  0.2341
  678SOL    HW1 2033   2.628   1.712   0.850  2.3151  0.9377 -0.4797
  678SOL    HW2 2034   2.571   1.559   0.821  1.0653 -2.1171  1.1382
  679SOL     OW 2035   0.676   2.607   0.606 -0.1234 -0.5168  0.0610
  679SOL    HW1 2036   0.576   2.591   0.598  0.5883 -1.6197  0.3863
  679SOL    HW2 2037   0.698   2.620   0.704 -1.1308  1.3012  0.3106
  680SOL     OW 2038   0.168   1.718   1.374 -0.2445  0.0441 -0.5732
  680SOL    HW1 2039   0.147   1.784   1.301  4.3856 -0.3810 -0.4217
  680SOL    HW2 2040   0.142   1.753   1.467 -0.9770  0.3661 -1.0591
  681SOL     OW 2041   1.112   0.455   1.061  0.0174 -0.1825 -0.0203
  681SOL    HW1 2042   1.067   0.543   1.090  1.4423  0.9434 -2.1118
  681SOL    HW2 2043   1.099   0.384   1.128 -1.2749  1.9316 -1.9240
  682SOL     OW 2044   1.816   2.863   1.500  0.3153  0.3097  0.2502
  682SOL    HW1 2045   1.888   2.907   1.552  1.4372 -1.0764 -0.8290
  682SOL    HW2 2046   1.754   2.929   1.450  1.7729 -1.3113  1.1636
  683SOL     OW 2047   2.336   1.317   1.358  0.0766 -0.1565 -0.0059
  683SOL    HW1 2048   2.348   1.345   1.455  0.7145  0.6556 -0.5614
  683SOL    HW2 2049   2.344   1.215   1.346 -1.6616 -1.1195  0.5163
  684SOL     OW 2050   0.079   1.652   1.889  0.0067  0.7369 -0.2972
  684SOL    HW1 2051   3.097   1.615   1.853  0.8011  0.3746  2.4218
  684SOL    HW2 2052   0.164   1.613   1.855  0.6252  1.0696 -1.0634
  685SOL     OW 2053   1.935   2.006   0.311  0.0924 -0.0357 -0.5837
  685SOL    HW1 2054   1.875   2.091   0.324 -2.3546  1.3913  0.6121
  685SOL    HW2 2055   1.886   1.918   0.329 -1.3282 -2.0501 -1.0654
  686SOL     OW 2056   2.607   0.518   1.109 -0.1087  0.3622 -0.2534
  686SOL    HW1 2057   2.599   0.610   1.071  0.9258 -0.6704  0.5846
  686SOL    HW2 2058   2.649   0.453   1.044  0.4586  2.4818 -2.1013
  687SOL     OW 2059   1.776   0.300   2.418  0.0396  0.4409 -0.3018
  687SOL    HW1 2060   1.844   0.233   2.457  0.0376 -0.6662 -2.0602
  687SOL    HW2 2061   1.690   0.301   2.480  1.5166  0.0263  1.9922
  688SOL     OW 2062   1.370   2.080   2.596 -0.2892  0.1489 -0.5924
  688SOL    HW1 2063   1.444   2.029   2.541  0.3450 -1.7440 -1.6719
  688SOL    HW2 2064   1.277   2.049   2.564 -2.8210  1.5090  1.5935
  689SOL     OW 2065   2.234   1.269   1.781  0.3020  0.0668 -0.1093
  689SOL    HW1 2066   2.324   1.312   1.756  1.9373 -1.6751 -1.2911
  689SOL    HW2 2067   2.230   1.191   1.846 -0.5543  0.3521  0.3822
  690SOL     OW 2068   1.803   1.680   1.491 -0.3326 -0.2504 -0.0588
  690SOL    HW1 2069   1.715   1.653   1.537 -0.4464  2.2173 -3.0399
  690SOL    HW2 2070   1.815   1.621   1.409 -2.6200  1.3835  3.1063
  691SOL     OW 2071   0.112   1.481   0.670  0.1683  0.3193 -0.2382
  691SOL    HW1 2072   0.122   1.580   0.654  3.1014 -0.6834  1.3356
  691SOL    HW2 2073   0.200   1.433   0.671 -0.5475  2.2740  1.1257
  692SOL     OW 2074   2.688   2.647   2.507 -0.4462 -0.0301 -0.2141
  692SOL    HW1 2075   2.625   2.716   2.461  1.3929 -3.4802  1.6052
  692SOL    HW2 2076   2.690   2.563   2.452  0.4475  2.9301  1.0575
  693SOL     OW 2077   2.859   1.425   2.442  0.1875 -0.4452 -0.0941
  693SOL    HW1 2078   2.840   1.453   2.539  0.8300  0.2364 -3.4367
  693SOL    HW2 2079   2.888   1.508   2.386  2.5591  0.7164 -0.6590
  694SOL     OW 2080   2.235   0.267   1.941  0.2389 -0.1874  0.3349
  694SOL    HW1 2081   2.272   0.293   1.849 -2.2688 -1.8257 -0.6521
  694SOL    HW2 2082   2.292   0.289   2.020 -1.9138 -0.9619 -1.5922
  695SOL     OW 2083   1.038   0.803   2.379 -0.3025  0.3459 -0.4138
  695SOL    HW1 2084   0.950   0.849   2.355 -2.2671 -0.8134 -0.5218
  695SOL    HW2 2085   1.085   0.852   2.453 -1.0813  1.3969  0.6995
  696SOL     OW 2086   1.730   0.081   1.632  0.0699  0.5529  0.1490
  696SOL    HW1 2087   1.829   0.077   1.656  1.8375  1.3825 -1.5270
  696SOL    HW2 2088   1.681   3.100   1.666 -0.6792  3.0867  2.9779
  697SOL     OW 2089   1.623   0.261   2.015  0.0721 -0.3193  0.0149
  697SOL    HW1 2090   1.687   0.327   2.060  1.1870  0.5589  1.0987
  697SOL    HW2 2091   1.631   0.259   1.912  0.1796 -0.3104 -0.3551
  698SOL     OW 2092   2.011   1.815   2.437  0.8217  0.3260 -0.1479
  698SOL    HW1 2093   2.037   1.900   2.491  0.3681  2.3688 -0.7158
  698SOL    HW2 2094   1.979   1.840   2.345 -0.0322 -2.0481  2.9930
  699SOL     OW 2095   2.143   0.729   0.249  0.0787 -0.1946 -0.2162
  699SOL    HW1 2096   2.104   0.781   0.328 -0.8736 -1.3144 -1.1860
  699SOL    HW2 2097   2.200   0.786   0.187 -2.1121 -1.6124  0.5769
  700SOL     OW 2098   1.222   0.206   0.547 -0.1528  0.3128  0.7502
  700SOL    HW1 2099   1.217   0.305   0.577  1.4931  3.4050 -1.1965
  700SOL    HW2 2100   1.244   0.194   0.443  1.7045 -2.3668 -1.1902
  701SOL     OW 2101   0.237   0.946   0.735  0.4177  0.0531 -0.6944
  701SOL    HW1 2102   0.261   0.858   0.687 -0.9330 -1.2060  2.0161
  701SOL    HW2 2103   0.228   1.024   0.663 -2.3481 -0.6680 -2.3256
  702SOL     OW 2104   1.970   0.171   1.722  0.3015  0.6594  0.1904
  702SOL    HW1 2105   1.953   0.218   1.810 -0.9613  2.0705  1.9509
  702SOL    HW2 2106   1.973   0.234   1.645 -3.0926 -4.4356 -0.1949
  703SOL     OW 2107   2.798   1.083   1.304  0.7702  0.4912 -0.3747
  703SOL    HW1 2108   2.875   1.101   1.247 -1.2093 -1.0329  4.6191
  703SOL    HW2 2109   2.775   0.982   1.311  1.6902 -0.1918 -1.3124
  704SOL     OW 2110   0.838   2.479   1.215 -0.2917  0.1475 -0.2693
  704SOL    HW1 2111   0.899   2.485   1.132  1.9123  1.0762 -2.6774
  704SOL    HW2 2112   0.898   2.462   1.298  1.0728  0.3257 -0.4393
  705SOL     OW 2113   0.290   1.344   2.647  0.2907  0.0734 -0.3238
  705SOL    HW1 2114   0.331   1.258   2.605 -1.2342 -1.5160 -0.9285
  705SOL    HW2 2115   0.364   1.387   2.699 -0.2487  0.1993 -1.1783
  706SOL     OW 2116   2.877   3.030   0.084  0.7944  0.4127 -0.2968
  706SOL    HW1 2117   2.800   2.969   0.059  1.4957 -1.3624 -0.3339
  706SOL    HW2 2118   2.894   3.040   0.186  0.5758  1.1963  1.7475
  707SOL     OW 2119   1.570   3.026   2.418 -0.2605 -0.3219 -0.0960
  707SOL    HW1 2120   1.658   3.042   2.371  3.3040 -0.3374 -1.0868
  707SOL    HW2 2121   1.539   2.929   2.423 -2.0380 -1.5164 -1.2764
  708SOL     OW 2122   0.429   2.756   1.683 -0.0900  0.2244 -0.4143
  708SOL    HW1 2123   0.471   2.735   1.776 -0.7077 -1.7674  0.4484
  708SOL    HW2 2124   0.358   2.688   1.655  0.5711  0.1835  0.1019
  709SOL     OW 2125   2.903   0.785   1.969  0.4312  0.1056  0.2992
  709SOL    HW1 2126   2.951   0.820   1.887 -1.8520 -0.9216 -0.4673
  709SOL    HW2 2127   2.960   0.715   2.016 -0.2101  0.4013  0.8347
  710SOL     OW 2128   0.108   1.027   0.992  0.1905  0.3413  0.3184
  710SOL    HW1 2129   0.181   1.029   1.062 -1.1609 -1.6014  0.3287
  710SOL    HW2 2130   0.145   1.005   0.902  2.9476 -1.4876  1.1142
  711SOL     OW 2131   2.572   2.874   1.238  0.3727 -0.7928  0.2988
  711SOL    HW1 2132   2.580   2.773   1.244 -1.1944 -0.1689  2.9120
  711SOL    HW2 2133   2.477   2.908   1.204 -5.0254 -0.0051  0.9672
  712SOL     OW 2134   0.192   3.054   2.635  0.2061  0.3891 -0.1701
  712SOL    HW1 2135   0.208   3.035   2.735  0.7815 -0.6103  1.0177
  712SOL    HW2 2136   0.257   2.998   2.575 -0.8213  0.8507 -1.7074
  713SOL     OW 2137   2.526   0.301   0.453  0.1828 -0.3893  0.0197
  713SOL    HW1 2138   2.474   0.391   0.441  1.7580  2.5671  2.8087
  713SOL    HW2 2139   2.619   0.330   0.480  0.1911 -1.2234 -0.5566
  714SOL     OW 2140   1.700   1.730   0.013  0.0786 -0.5227  0.0439
  714SOL    HW1 2141   1.629   1.802   0.011  0.0028 -1.0651 -2.0891
  714SOL    HW2 2142   1.726   1.706   0.109  0.9512  3.2591 -0.9292
  715SOL     OW 2143   0.241   0.433   0.956  0.0961  0.5975 -0.0087
  715SOL    HW1 2144   0.308   0.351   0.961  2.0952 -5.4666 -2.0630
  715SOL    HW2 2145   0.178   0.445   1.032  0.9449  0.0018 -0.2872
  716SOL     OW 2146   0.874   0.692   1.640 -0.4330  0.1458 -0.0240
  716SOL    HW1 2147   0.913   0.596   1.658  1.2737  0.0786 -1.6237
  716SOL    HW2 2148   0.786   0.693   1.690  0.7127  0.7888 -0.7036
  717SOL     OW 2149   0.560   0.348   2.953 -0.0092 -0.2155  0.3009
  717SOL    HW1 2150   0.469   0.373   2.924  4.5833 -1.7389  1.0766
  717SOL    HW2 2151   0.581   0.270   2.889  1.2189  0.1543 -0.5079
  718SOL     OW 2152   1.363   0.537   0.167 -0.0887  0.4621 -0.1369
  718SOL    HW1 2153   1.377   0.635   0.174  1.5927 -0.7896  0.0732
  718SOL    HW2 2154   1.436   0.490   0.114  1.4233 -0.4321 -1.7750
  719SOL     OW 2155   2.570   2.245   2.794 -0.4333  0.2890  0.0294
  719SOL    HW1 2156   2.581   2.233   2.895  1.6600  0.7936  1.0502
  719SOL    HW2 2157   2.505   2.318   2.780  2.2398 -2.2458  0.7223
  720SOL     OW 2158   1.249   0.487   1.441  0.9725  0.3196 -0.3089
  720SOL    HW1 2159   1.234   0.585   1.467  0.4204 -0.8955 -0.7507
  720SOL    HW2 2160   1.162   0.434   1.450 -0.0971 -0.0039  0.6107
  721SOL     OW 2161   2.697   3.042   1.044 -0.6930 -0.2470  0.2278
  721SOL    HW1 2162   2.645   0.030   1.021 -1.5470  2.5263 -1.6144
  721SOL    HW2 2163   2.647   2.993   1.116  1.7400  0.3984  0.2601
  722SOL     OW 2164   1.172   1.520   2.634  0.9554 -0.1113 -0.1580
  722SOL    HW1 2165   1.120   1.596   2.681 -3.3052  2.0258  1.1383
  722SOL    HW2 2166   1.241   1.488   2.702 -0.6695 -2.5595  2.1571
  723SOL     OW 2167   2.393   0.585   1.269  0.6131  0.2346 -0.6950
  723SOL    HW1 2168   2.491   0.568   1.239 -0.0910 -0.0706 -2.3027
  723SOL    HW2 2169   2.386   0.622   1.362 -0.9241 -3.2532 -0.6911
  724SOL     OW 2170   0.832   2.175   0.048  0.4386 -0.5979 -0.3591
  724SOL    HW1 2171   0.854   2.099   0.114 -1.3548  2.3471 -2.2500
  724SOL    HW2 2172   0.903   2.179   3.076  0.9845 -3.1792  0.3168
  725SOL     OW 2173   0.255   1.249   1.506 -0.0913  0.0625 -0.0560
  725SOL    HW1 2174   0.262   1.250   1.610 -0.6057 -2.0983  2.0757
  725SOL    HW2 2175   0.329   1.187   1.467 -0.9851  0.1399 -1.6939
  726SOL     OW 2176   2.466   0.710   3.014 -0.1888 -0.2042 -0.1122
  726SOL    HW1 2177   2.400   0.765   3.070 -2.1688  2.0664  2.2770
  726SOL    HW2 2178   2.563   0.747   3.023  0.2765 -0.3973  0.1277
  727SOL     OW 2179   2.027   1.195   2.746  0.2235 -0.1698  0.3840
  727SOL    HW1 2180   1.978   1.249   2.673 -1.2711 -0.6433 -0.1298
  727SOL    HW2 2181   2.041   1.098   2.715  1.0891 -4.6714 -2.0018
  728SOL     OW 2182   1.569   2.749   1.593 -0.2015  0.3508 -0.0357
  728SOL    HW1 2183   1.592   2.662   1.644 -2.6322 -2.1066 -0.3700
  728SOL    HW2 2184   1.658   2.788   1.553  1.6437  0.2663  0.6877
  729SOL     OW 2185   2.046   0.894   2.159  0.5781 -0.0636 -0.0945
  729SOL    HW1 2186   2.142   0.908   2.187 -1.6026  1.0042 -0.3033
  729SOL    HW2 2187   2.002   0.985   2.157  1.8406 -3.1842 -0.8771
  730SOL     OW 2188   1.368   0.678   1.152  0.3245  0.5029 -0.0932
  730SOL    HW1 2189   1.327   0.585   1.167  1.3036  0.0925 -0.5852
  730SOL    HW2 2190   1.362   0.691   1.052 -0.2068  0.8772  3.8653
  731SOL     OW 2191   0.730   0.491   3.099  0.8830  0.2584 -0.0110
  731SOL    HW1 2192   0.783   0.544   3.038 -0.6464 -0.9785  3.4130
  731SOL    HW2 2193   0.660   0.434   3.050  0.4567  0.3140 -0.1215
  732SOL     OW 2194   0.476   0.652   0.150 -0.6383  0.3212 -0.5258
  732SOL    HW1 2195   0.564   0.672   0.199  0.5302  0.7913  0.3698
  732SOL    HW2 2196   0.471   0.697   0.060  0.6070 -0.7326 -0.5189
  733SOL     OW 2197   1.870   1.552   2.739 -0.0508 -0.0253  0.0209
  733SOL    HW1 2198   1.783   1.576   2.788 -1.5495 -3.2370  0.1043
  733SOL    HW2 2199   1.962   1.569   2.791  4.8348  0.7544  0.1935
  734SOL     OW 2200   0.248   1.927   2.717  0.5844  0.4695  0.6580
  734SOL    HW1 2201   0.258   1.896   2.812 -0.5632 -1.7003 -1.7302
  734SOL    HW2 2202   0.225   2.027   2.709  0.0847 -0.9768  1.5587
  735SOL     OW 2203   2.276   0.667   1.019  0.7848  0.6113 -0.1846
  735SOL    HW1 2204   2.327   0.645   0.936 -3.8066  0.1816  2.0087
  735SOL    HW2 2205   2.325   0.636   1.101 -0.0140  0.5512  0.7417
  736SOL     OW 2206   1.958   1.783   2.981 -0.3631  0.9689  0.4053
  736SOL    HW1 2207   1.866   1.773   3.020  0.9131 -2.0125 -1.0930
  736SOL    HW2 2208   1.960   1.832   2.896  2.0999 -3.5305  2.3532
  737SOL     OW 2209   0.004   0.419   0.534  0.2942 -0.6607 -0.1856
  737SOL    HW1 2210   3.080   0.507   0.486 -1.3456 -0.0544 -1.4881
  737SOL    HW2 2211   0.090   0.429   0.585 -3.2040 -1.4994 -0.8878
  738SOL     OW 2212   0.672   2.048   1.657  0.6544 -0.4060  0.1131
  738SOL    HW1 2213   0.760   2.078   1.702 -2.1005 -0.2665  0.0139
  738SOL    HW2 2214   0.609   2.128   1.647 -0.2493  1.5465 -2.2981
  739SOL     OW 2215   1.303   2.861   2.271 -0.5915  0.1761  0.2527
  739SOL    HW1 2216   1.251   2.794   2.216 -0.7607  2.9523 -0.7757
  739SOL    HW2 2217   1.377   2.815   2.324 -1.7625  0.4751 -0.0318
  740SOL     OW 2218   2.022   2.268   1.531  0.5635 -0.4444  0.5329
  740SOL    HW1 2219   1.957   2.219   1.465 -0.6703  0.7860 -1.5962
  740SOL    HW2 2220   2.035   2.364   1.494 -2.0750  0.6203 -1.6224
  741SOL     OW 2221   2.128   0.449   0.243 -0.0055  0.9372 -0.0058
  741SOL    HW1 2222   2.088   0.401   0.161  1.3735  0.9107 -0.4685
  741SOL    HW2 2223   2.130   0.550   0.239 -0.9421 -2.1629  1.3260
  742SOL     OW 2224   0.998   2.580   3.011  0.1931  0.2188  0.3123
  742SOL    HW1 2225   0.998   2.574   2.908 -1.3114  0.6178 -1.0508
  742SOL    HW2 2226   1.049   2.505   3.056 -0.7809  0.7013 -0.2257
  743SOL     OW 2227   2.379   1.076   2.026 -0.3475  0.9055  0.3009
  743SOL    HW1 2228   2.362   1.150   2.097  1.6892 -0.0660  1.8528
  743SOL    HW2 2229   2.297   1.050   1.973  1.1620  0.4918  0.9597
  744SOL     OW 2230   2.735   0.465   0.529 -0.0602  0.3834 -0.0634
  744SOL    HW1 2231   2.675   0.545   0.511  0.4057  0.4231  1.2322
  744SOL    HW2 2232   2.832   0.487   0.499  2.2098  1.1066 -0.7646
  745SOL     OW 2233   2.607   1.178   1.865 -0.1420  0.2166  0.2444
  745SOL    HW1 2234   2.537   1.160   1.938  1.3447 -0.2208  0.8556
  745SOL    HW2 2235   2.668   1.255   1.892 -1.1136  1.1228 -2.1063
  746SOL     OW 2236   1.265   1.415   0.753 -0.0409  0.0336 -0.1630
  746SOL    HW1 2237   1.288   1.372   0.839 -0.2663  0.9181  1.4222
  746SOL    HW2 2238   1.255   1.513   0.771  2.2829  0.6394  1.9102
  747SOL     OW 2239   1.076   1.585   1.598 -0.2999  0.1085 -0.7339
  747SOL    HW1 2240   1.057   1.659   1.665 -0.0293  0.4554 -1.8963
  747SOL    HW2 2241   1.042   1.492   1.620  1.5368  1.7984 -0.7612
  748SOL     OW 2242   0.155   2.676   3.073  0.0683 -0.1854 -0.8280
  748SOL    HW1 2243   0.227   2.746   3.067 -1.5625 -0.8000  1.7578
  748SOL    HW2 2244   0.078   2.727   0.019 -0.1516  0.8454 -0.2820
  749SOL     OW 2245   0.433   1.141   2.502  0.0741 -0.0814 -0.1547
  749SOL    HW1 2246   0.401   1.081   2.431  0.4968  0.9249  0.3177
  749SOL    HW2 2247   0.495   1.212   2.458  3.5473  0.1891 -0.0141
  750SOL     OW 2248   1.645   0.870   1.758  0.5647  0.2113  0.4634
  750SOL    HW1 2249   1.544   0.846   1.748 -2.2691  2.0157 -2.0889
  750SOL    HW2 2250   1.688   0.806   1.820 -0.1884  0.5522 -0.9040
  751SOL     OW 2251   2.564   0.674   0.447  0.4804  0.3009 -0.3484
  751SOL    HW1 2252   2.474   0.621   0.447 -0.1467  2.6344 -1.4451
  751SOL    HW2 2253   2.569   0.744   0.373 -1.0014 -2.0371  0.1294
  752SOL     OW 2254   0.008   2.603   1.316  0.4828  0.3325  0.2170
  752SOL    HW1 2255   0.096   2.584   1.359 -1.0122 -0.1224  2.1069
  752SOL    HW2 2256   0.000   2.695   1.275  1.0923 -2.4791  0.5877
  753SOL     OW 2257   0.626   2.288   1.228  0.6342 -0.5092  0.0733
  753SOL    HW1 2258   0.699   2.358   1.211  0.6290 -0.4412 -2.0653
  753SOL    HW2 2259   0.668   2.196   1.236  2.1239 -0.6776  0.0192
  754SOL     OW 2260   0.263   2.789   2.148  0.3991  0.0508  0.5868
  754SOL    HW1 2261   0.174   2.797   2.095  1.7974  1.4817  0.9796
  754SOL    HW2 2262   0.239   2.752   2.240  0.4650 -2.5839 -1.3892
  755SOL     OW 2263   2.339   0.514   0.400  0.7702  0.4864  0.6483
  755SOL    HW1 2264   2.279   0.483   0.327  1.2430  2.5594 -0.2881
  755SOL    HW2 2265   2.293   0.580   0.463 -0.8764  0.2018  1.1298
  756SOL     OW 2266   2.138   2.413   2.866  0.0182 -0.0911 -0.0372
  756SOL    HW1 2267   2.166   2.451   2.955 -2.7419  1.1572 -2.0793
  756SOL    HW2 2268   2.050   2.453   2.836 -2.0133  0.2999 -0.4690
  757SOL     OW 2269   2.228   0.499   0.730  0.3189  0.0757  0.1170
  757SOL    HW1 2270   2.243   0.578   0.669  0.7396 -0.0381 -0.8833
  757SOL    HW2 2271   2.151   0.440   0.697 -1.5211 -0.6434  3.6993
  758SOL     OW 2272   2.474   0.842   1.751 -0.3827 -0.2258 -0.0483
  758SOL    HW1 2273   2.430   0.920   1.706 -0.8450 -1.2608  2.9358
  758SOL    HW2 2274   2.531   0.877   1.830  0.4097  0.2592 -1.2710
  759SOL     OW 2275   2.827   0.679   0.855 -0.3743 -0.5565 -0.2471
  759SOL    HW1 2276   2.887   0.758   0.882  0.8478 -0.5716  2.3045
  759SOL    HW2 2277   2.874   0.594   0.838  1.5028  0.9887  0.2188
  760SOL     OW 2278   2.638   1.380   1.239 -0.5493 -0.5958  0.2799
  760SOL    HW1 2279   2.628   1.324   1.323  0.2633 -0.4432 -2.1192
  760SOL    HW2 2280   2.729   1.428   1.239  2.4783 -0.6967 -0.5950
  761SOL     OW 2281   0.720   0.739   0.219  0.3866  0.4005  0.1017
  761SOL    HW1 2282   0.695   0.834   0.231  0.1001 -3.0849  0.9679
  761SOL    HW2 2283   0.816   0.732   0.180 -0.3510 -0.6488  0.7605
  762SOL     OW 2284   0.875   1.744   0.666  0.4838  0.1400 -0.2055
  762SOL    HW1 2285   0.941   1.804   0.625 -0.6827  2.0904 -0.0347
  762SOL    HW2 2286   0.825   1.801   0.736  1.2438  4.1821  0.3141
  763SOL     OW 2287   1.253   0.734   1.519  0.4818  0.4667  0.1966
  763SOL    HW1 2288   1.290   0.780   1.603 -2.6031  1.6523  0.5392
  763SOL    HW2 2289   1.271   0.792   1.438 -0.7212  0.7917  0.1515
  764SOL     OW 2290   0.475   1.840   2.641  0.2653 -0.3693  0.0202
  764SOL    HW1 2291   0.491   1.784   2.560  0.4104  3.9072  1.6713
  764SOL    HW2 2292   0.377   1.867   2.661  1.3759  0.1784 -1.6631
  765SOL     OW 2293   0.801   2.705   1.726 -0.1942 -0.8105  0.4138
  765SOL    HW1 2294   0.800   2.604   1.702  0.3692 -0.9705  2.5024
  765SOL    HW2 2295   0.737   2.759   1.666  2.6240  0.0283  0.3338
  766SOL     OW 2296   2.474   1.869   2.252 -0.3709 -0.1159 -0.5320
  766SOL    HW1 2297   2.545   1.943   2.245  0.3956  1.9257  1.9668
  766SOL    HW2 2298   2.446   1.852   2.352  2.5458 -2.0376  2.4135
  767SOL     OW 2299   1.678   1.212   2.469  0.1802 -0.2757 -0.2541
  767SOL    HW1 2300   1.698   1.114   2.490  0.1751  0.6285 -0.7236
  767SOL    HW2 2301   1.582   1.241   2.492  0.1331  1.3544  0.4998
  768SOL     OW 2302   1.576   1.929   0.230  0.4992 -0.0718  0.0755
  768SOL    HW1 2303   1.521   1.875   0.299  0.0926 -0.8423  0.0370
  768SOL    HW2 2304   1.535   1.925   0.134  0.1130  0.5038  1.4628
  769SOL     OW 2305   0.464   1.285   1.263 -0.5988 -0.0587 -0.4913
  769SOL    HW1 2306   0.541   1.335   1.219 -0.8157 -1.4524  1.0876
  769SOL    HW2 2307   0.488   1.198   1.309 -1.7303 -2.2269  0.9406
  770SOL     OW 2308   1.480   0.965   2.480  0.0845  0.2419  0.0692
  770SOL    HW1 2309   1.545   0.921   2.547  4.2977  1.9661  0.0801
  770SOL    HW2 2310   1.494   0.941   2.382 -1.4605  2.3399 -0.3901
  771SOL     OW 2311   3.074   3.018   2.489 -0.1006  0.7162  0.1322
  771SOL    HW1 2312   3.029   2.921   2.486 -1.3267 -1.8416  1.8705
  771SOL    HW2 2313   0.051   3.034   2.554 -0.4643 -0.7548 -2.4115
  772SOL     OW 2314   1.986   1.880   2.159 -0.3706 -0.0545 -0.1163
  772SOL    HW1 2315   1.921   1.817   2.111  2.7029  1.2076  0.3771
  772SOL    HW2 2316   2.068   1.893   2.109 -2.4671 -2.3151  2.3000
  773SOL     OW 2317   0.481   1.597   1.647  0.2920 -0.0925  0.7619
  773SOL    HW1 2318   0.581   1.573   1.655  1.5686 -2.5823 -0.2762
  773SOL    HW2 2319   0.435   1.561   1.561  0.8210  1.2432 -0.6883
  774SOL     OW 2320   1.258   0.772   2.946  0.3240  0.7681  0.1255
  774SOL    HW1 2321   1.194   0.826   2.884 -1.7200  0.8544  1.9723
  774SOL    HW2 2322   1.203   0.717   3.009 -1.3156  1.2332 -1.5087
  775SOL     OW 2323   1.879   2.870   0.154 -0.2448 -0.1172 -0.0998
  775SOL    HW1 2324   1.800   2.820   0.194 -0.4130 -0.7479  0.6125
  775SOL    HW2 2325   1.945   2.901   0.226 -0.6898 -1.8579 -3.0823
  776SOL     OW 2326   0.234   0.514   1.728  0.1298 -0.0710 -0.5701
  776SOL    HW1 2327   0.249   0.458   1.813  1.0179 -0.0028 -0.9778
  776SOL    HW2 2328   0.311   0.576   1.703  0.5166  3.5417 -3.1086
  777SOL     OW 2329   2.260   1.918   2.074  0.5692  0.1806  0.2711
  777SOL    HW1 2330   2.339   1.903   2.136 -0.0332  2.4839 -2.0378
  777SOL    HW2 2331   2.266   2.003   2.017 -0.3088  0.0009 -1.2016
  778SOL     OW 2332   1.951   1.143   2.207  0.1587 -0.2352  0.2375
  778SOL    HW1 2333   1.905   1.154   2.117  2.9062  0.8827 -0.5494
  778SOL    HW2 2334   1.999   1.228   2.235  1.1667  1.0218  1.7858
  779SOL     OW 2335   2.726   0.848   2.952  0.0786  0.1312 -0.3025
  779SOL    HW1 2336   2.815   0.827   2.900 -2.1234 -0.0966 -0.0310
  779SOL    HW2 2337   2.682   0.923   2.904  1.6851 -1.6467  0.8749
  780SOL     OW 2338   2.615   0.361   2.326  0.0274 -0.7339 -0.1252
  780SOL    HW1 2339   2.579   0.379   2.424 -0.7046 -0.3231  2.9607
  780SOL    HW2 2340   2.537   0.347   2.265  4.7955 -2.7872  0.8234
  781SOL     OW 2341   0.132   1.818   1.642  0.1028  0.0082 -1.0911
  781SOL    HW1 2342   0.225   1.836   1.607  1.5499 -1.2943  1.1206
  781SOL    HW2 2343   0.129   1.803   1.741 -0.1414 -1.9022  0.0831
  782SOL     OW 2344   2.470   2.224   3.056  0.4179 -0.1377  0.2379
  782SOL    HW1 2345   2.520   2.299   0.006  0.8466  1.3335 -2.6267
  782SOL    HW2 2346   2.447   2.143   0.014 -2.0189 -1.7255  3.6323
  783SOL     OW 2347   0.762   1.243   1.163 -0.2377  0.6645 -0.3648
  783SOL    HW1 2348   0.849   1.195   1.145  0.4538 -0.5721 -0.1635
  783SOL    HW2 2349   0.723   1.294   1.077 -0.4351  0.8996 -2.1976
  784SOL     OW 2350   2.233   0.729   2.834  0.4951 -0.1628 -0.1856
  784SOL    HW1 2351   2.320   0.708   2.879 -0.1964  2.5669 -0.6592
  784SOL    HW2 2352   2.159   0.733   2.904  2.8468 -1.1610  1.3342
  785SOL     OW 2353   2.342   2.664   0.529 -0.6232 -0.4129  0.1050
  785SOL    HW1 2354   2.326   2.734   0.599 -0.7574  0.1751 -1.2662
  785SOL    HW2 2355   2.346   2.707   0.438 -0.6488 -2.1221 -0.9465
  786SOL     OW 2356   0.649   2.123   2.456 -0.4711 -0.0347  0.1587
  786SOL    HW1 2357   0.583   2.080   2.393 -0.1018  2.4590  3.7286
  786SOL    HW2 2358   0.614   2.111   2.553  0.4876 -0.8780 -1.4812
  787SOL     OW 2359   1.426   0.415   1.256 -0.2077 -0.1679  0.0709
  787SOL    HW1 2360   1.360   0.435   1.332  0.7464  2.1769 -1.8645
  787SOL    HW2 2361   1.522   0.422   1.287 -1.6478 -2.0419 -0.3621
  788SOL     OW 2362   0.275   0.802   0.302 -0.4022 -0.5977  0.1581
  788SOL    HW1 2363   0.338   0.747   0.245  0.2131  1.3795 -1.6986
  788SOL    HW2 2364   0.189   0.818   0.248  0.1694  0.5539  1.8319
  789SOL     OW 2365   2.881   2.131   1.348  0.2524 -0.3465 -0.0042
  789SOL    HW1 2366   2.961   2.172   1.398 -2.6834  0.8598  2.6690
  789SOL    HW2 2367   2.858   2.187   1.270 -0.7392  0.0423 -1.2814
  790SOL     OW 2368   1.359   0.803   1.777 -0.4549 -0.3158  0.0394
  790SOL    HW1 2369   1.416   0.727   1.820  0.8209 -1.4480 -0.1399
  790SOL    HW2 2370   1.306   0.853   1.852  0.1106 -1.8025  1.1441
  791SOL     OW 2371   1.525   0.575   0.491 -0.3218  0.1168 -0.5073
  791SOL    HW1 2372   1.496   0.519   0.571  0.1908  0.2353  2.0783
  791SOL    HW2 2373   1.469   0.662   0.485 -1.5491  2.8010  2.1388
  792SOL     OW 2374   1.710   2.912   1.944  0.0626 -0.2602  0.2601
  792SOL    HW1 2375   1.677   2.962   2.031 -2.9025 -2.0040  0.5766
  792SOL    HW2 2376   1.649   2.947   1.867 -1.2043  1.1230 -0.3989
  793SOL     OW 2377   0.585   3.044   0.826 -0.6021  0.2908 -0.1863
  793SOL    HW1 2378   0.671   3.071   0.775  1.2812  0.2838  2.0786
  793SOL    HW2 2379   0.511   0.015   0.814  0.0869 -0.5662  1.1759
  794SOL     OW 2380   0.550   0.957   2.189  0.0378 -0.5708  0.0774
  794SOL    HW1 2381   0.529   1.054   2.184 -0.0066 -0.3734 -3.2929
  794SOL    HW2 2382   0.484   0.911   2.123 -1.0055  2.4779  1.6549
  795SOL     OW 2383   0.264   1.859   2.253 -0.1895 -0.3656  0.7371
  795SOL    HW1 2384   0.178   1.851   2.200 -0.4122 -1.0402 -1.3002
  795SOL    HW2 2385   0.247   1.848   2.350 -1.0527  2.7184  1.8294
  796SOL     OW 2386   2.394   1.287   2.196 -0.0304 -0.0093  0.1585
  796SOL    HW1 2387   2.377   1.366   2.261 -1.3771  1.1455  2.3172
  796SOL    HW2 2388   2.470   1.233   2.240 -0.5990 -0.5288 -0.7475
  797SOL     OW 2389   2.824   2.788   2.892  0.1645 -0.1417 -0.0621
  797SOL    HW1 2390   2.914   2.743   2.880  1.6189 -0.9758  1.2446
  797SOL    HW2 2391   2.750   2.726   2.860 -2.1857  1.4589  0.1699
  798SOL     OW 2392   3.046   2.060   2.227 -0.0481  0.0209  0.7426
  798SOL    HW1 2393   2.959   2.060   2.173 -1.7436  0.5271 -0.4119
  798SOL    HW2 2394   3.058   2.146   2.275  1.5567  0.5297 -0.9760
  799SOL     OW 2395   3.024   2.126   2.960 -0.2939  0.2528 -0.0598
  799SOL    HW1 2396   2.968   2.090   3.032 -0.1551  1.3982 -5.8346
  799SOL    HW2 2397   3.018   2.062   2.882  1.4959  1.0606  0.6767
  800SOL     OW 2398   1.413   1.768   0.461 -0.6214 -0.6187 -0.2767
  800SOL    HW1 2399   1.341   1.708   0.427  2.6164  1.8077 -0.4564
  800SOL    HW2 2400   1.382   1.821   0.549  1.1355  1.6585  0.9029
  801SOL     OW 2401   1.935   0.905   0.808  0.2462  0.0760  0.2413
  801SOL    HW1 2402   1.997   0.958   0.749  0.4881 -2.5184  0.8528
  801SOL    HW2 2403   1.985   0.865   0.884  0.2250 -0.6695 -1.2215
  802SOL     OW 2404   3.002   1.300   0.238 -0.3087  0.2804  0.0774
  802SOL    HW1 2405   2.971   1.224   0.301  1.1079  0.1510 -0.4228
  802SOL    HW2 2406   3.028   1.390   0.285  1.7122 -0.1080  0.9271
  803SOL     OW 2407   1.495   1.781   2.738  0.4334 -0.1865 -0.0121
  803SOL    HW1 2408   1.559   1.857   2.714  1.0760 -1.1058  0.7588
  803SOL    HW2 2409   1.398   1.810   2.748 -0.5373  1.1374 -2.3999
  804SOL     OW 2410   1.808   1.617   0.255 -0.1456 -0.1593  0.2237
  804SOL    HW1 2411   1.746   1.661   0.318  1.7392  0.0103 -2.5840
  804SOL    HW2 2412   1.899   1.591   0.293 -1.0802 -1.8368  0.3927
  805SOL     OW 2413   2.444   1.783   3.037  0.2586  0.0594 -0.2288
  805SOL    HW1 2414   2.518   1.816   2.975 -0.9644 -1.8081  0.5118
  805SOL    HW2 2415   2.353   1.836   3.031 -3.4515  1.3612  1.6322
  806SOL     OW 2416   0.716   2.993   0.391 -0.1111 -0.0518  0.1625
  806SOL    HW1 2417   0.716   3.089   0.356  2.8299  0.6191  1.6599
  806SOL    HW2 2418   0.739   2.993   0.491  1.7160  1.0509 -1.5845
  807SOL     OW 2419   2.205   1.352   2.936  0.1094  0.3035 -0.3034
  807SOL    HW1 2420   2.177   1.449   2.939  2.3979  0.0077  0.4718
  807SOL    HW2 2421   2.158   1.308   2.859 -0.2853 -0.1359  1.8447
  808SOL     OW 2422   3.018   1.545   0.334 -0.0546  0.5340  0.0890
  808SOL    HW1 2423   0.005   1.589   0.361 -1.2942  1.9953 -0.5244
  808SOL    HW2 2424   2.940   1.593   0.378  0.4164  0.6202 -2.0129
  809SOL     OW 2425   2.547   1.032   2.810 -0.2243  0.2147 -0.3222
  809SOL    HW1 2426   2.450   1.012   2.835 -0.1285  2.0551 -0.9643
  809SOL    HW2 2427   2.575   1.112   2.863 -0.9142  0.2768 -2.6523
  810SOL     OW 2428   0.640   1.005   0.163 -0.4524 -0.1206 -0.0294
  810SOL    HW1 2429   0.658   1.105   0.177 -1.3848 -1.3870  0.4393
  810SOL    HW2 2430   0.544   1.000   0.127  0.5587  1.2003 -1.1458
  811SOL     OW 2431   1.159   2.562   1.555  0.3433 -0.2635 -0.0664
  811SOL    HW1 2432   1.160   2.595   1.460 -0.1329  0.2724  0.3600
  811SOL    HW2 2433   1.247   2.519   1.570 -3.5085  2.7640 -1.3991
  812SOL     OW 2434   0.761   2.428   1.647  0.0290 -0.1250  0.3168
  812SOL    HW1 2435   0.806   2.415   1.557  0.6646 -1.3249  1.0930
  812SOL    HW2 2436   0.673   2.382   1.650  1.8977  1.2345 -1.9699
  813SOL     OW 2437   1.344   0.365   2.058  0.4199 -0.3179 -0.1397
  813SOL    HW1 2438   1.430   0.308   2.066  0.9489 -0.5406  0.9555
  813SOL    HW2 2439   1.306   0.378   2.153 -1.3007 -1.9144 -0.2970
  814SOL     OW 2440   1.316   2.497   2.747 -0.1965 -0.6460 -0.4963
  814SOL    HW1 2441   1.312   2.598   2.755  0.7120  3.1598  2.0006
  814SOL    HW2 2442   1.319   2.470   2.646  0.9751 -2.2151 -3.2394
  815SOL     OW 2443   0.432   0.152   1.726  0.5463 -0.2833 -0.3760
  815SOL    HW1 2444   0.397   0.058   1.743 -0.6658  0.6292 -0.0319
  815SOL    HW2 2445   0.371   0.201   1.660  0.2954  0.4698 -0.7593
  816SOL     OW 2446   2.173   0.428   2.942 -0.3394  1.1362 -0.2665
  816SOL    HW1 2447   2.270   0.437   2.967 -1.4572 -2.2333  0.3936
  816SOL    HW2 2448   2.138   0.519   2.933  1.3734  0.5263  4.1459
  817SOL     OW 2449   2.135   0.459   2.247  0.2499  0.1961 -0.2020
  817SOL    HW1 2450   2.109   0.519   2.169 -0.7409  0.9814  1.7218
  817SOL    HW2 2451   2.096   0.370   2.235  0.7151  1.0040  0.8128
  818SOL     OW 2452   2.017   0.319   0.050 -0.1603  0.5399 -0.3216
  818SOL    HW1 2453   2.030   0.219   0.071  1.2039  0.1849  0.4142
  818SOL    HW2 2454   2.046   0.341   3.061 -0.4585  0.1498  0.9868
  819SOL     OW 2455   2.377   2.024   0.128 -0.4700  0.3355  0.2520
  819SOL    HW1 2456   2.323   1.988   0.045  0.3638 -0.5054 -0.3705
  819SOL    HW2 2457   2.318   2.032   0.206  1.9217  0.4121  0.7891
  820SOL     OW 2458   0.047   1.925   0.085  0.2064 -0.1410 -0.4918
  820SOL    HW1 2459   3.085   2.010   0.095 -0.9200  3.4581  1.2495
  820SOL    HW2 2460   0.139   1.932   0.132 -1.5814 -1.0444  0.5593
  821SOL     OW 2461   0.206   2.523   0.937 -0.0826 -0.0344  0.4024
  821SOL    HW1 2462   0.130   2.491   0.994 -0.0656  0.4501 -1.8507
  821SOL    HW2 2463   0.292   2.495   0.985 -3.1859 -1.0084  0.3651
  822SOL     OW 2464   2.703   2.458   3.013  0.1110  0.2372  0.2074
  822SOL    HW1 2465   2.682   2.502   2.928 -0.6877 -1.8117  2.2416
  822SOL    HW2 2466   2.801   2.429   3.010 -0.2422  3.1919  2.3478
  823SOL     OW 2467   1.537   0.319   2.576 -0.2416  0.0536  0.1388
  823SOL    HW1 2468   1.589   0.288   2.658  2.6293  0.2590 -1.0041
  823SOL    HW2 2469   1.483   0.403   2.600  0.9976  0.3334 -1.8175
  824SOL     OW 2470   2.704   2.089   1.568  0.2419  0.4569 -0.3332
  824SOL    HW1 2471   2.693   2.174   1.629  1.2832 -2.2174  2.2620
  824SOL    HW2 2472   2.779   2.103   1.497  2.1281 -1.6136 -2.7828
  825SOL     OW 2473   2.564   2.032   2.638 -0.0103 -0.2476 -0.1339
  825SOL    HW1 2474   2.557   2.102   2.711  1.2500 -0.0373 -1.7186
  825SOL    HW2 2475   2.649   2.051   2.586 -3.9243 -1.1980  0.4640
  826SOL     OW 2476   2.327   1.520   2.384 -0.1580  0.0405 -0.1027
  826SOL    HW1 2477   2.238   1.567   2.379  3.8229  0.0032 -0.4584
  826SOL    HW2 2478   2.341   1.489   2.480 -1.0710 -0.9129 -1.5024
  827SOL     OW 2479   2.181   2.426   1.225 -0.0309 -0.2026 -0.2514
  827SOL    HW1 2480   2.134   2.440   1.317  0.2984 -1.0765  2.1346
  827SOL    HW2 2481   2.194   2.518   1.177  1.4291  0.0697  1.0461
  828SOL     OW 2482   2.645   2.933   1.496 -0.1494  0.5022 -0.1810
  828SOL    HW1 2483   2.610   2.929   1.403 -0.1302 -0.6676 -1.5532
  828SOL    HW2 2484   2.614   3.017   1.545  0.1852  1.7521 -1.1701
  829SOL     OW 2485   1.626   2.460   2.511  0.1745  0.1668 -0.1773
  829SOL    HW1 2486   1.582   2.388   2.572 -3.0655 -2.3526  4.3738
  829SOL    HW2 2487   1.699   2.520   2.558 -0.5279  3.2299 -2.8387
  830SOL     OW 2488   1.453   0.586   0.775 -0.1833  0.2760 -0.1358
  830SOL    HW1 2489   1.416   0.670   0.817 -0.6176 -1.0117 -0.2834
  830SOL    HW2 2490   1.457   0.502   0.839  1.7306  0.6027 -2.1527
  831SOL     OW 2491   2.711   1.159   2.990  0.3316  0.2227 -0.3124
  831SOL    HW1 2492   2.718   1.195   3.085  0.5484 -2.5090  0.0855
  831SOL    HW2 2493   2.790   1.183   2.936  1.3747  2.1804  3.6081
  832SOL     OW 2494   1.397   1.879   1.978  0.6566 -0.2277  0.1052
  832SOL    HW1 2495   1.392   1.786   2.016 -0.6596 -2.2595 -1.4698
  832SOL    HW2 2496   1.494   1.915   1.973  0.2101  1.1067 -0.2387
  833SOL     OW 2497   3.054   3.071   2.025  0.0707  0.4197  0.4810
  833SOL    HW1 2498   0.045   3.027   2.003  0.2876 -1.9037  2.0182
  833SOL    HW2 2499   3.060   0.013   2.114 -0.7188 -0.0819 -2.1025
  834SOL     OW 2500   0.855   1.060   1.604 -0.0904 -0.0130 -0.0989
  834SOL    HW1 2501   0.914   1.097   1.529 -0.3815 -1.9922 -0.9094
  834SOL    HW2 2502   0.915   1.000   1.661 -2.4000 -1.3919 -0.6540
  835SOL     OW 2503   2.954   0.829   2.773  0.0757  0.1377  0.2819
  835SOL    HW1 2504   2.948   0.879   2.686  1.2466 -0.8994  0.8632
  835SOL    HW2 2505   2.946   0.730   2.757  0.4680 -0.2607 -1.2281
  836SOL     OW 2506   1.083   1.868   0.559  0.3518 -0.0548 -0.2299
  836SOL    HW1 2507   1.161   1.851   0.623 -0.0730 -1.0488  1.4815
  836SOL    HW2 2508   1.115   1.835   0.465  0.0180 -1.5264 -3.1421
  837SOL     OW 2509   1.481   1.324   1.159 -0.2214  0.0041  0.2232
  837SOL    HW1 2510   1.473   1.400   1.226  0.6399  0.8232  0.8216
  837SOL    HW2 2511   1.571   1.335   1.117  1.2824 -0.0168 -1.3882
  838SOL     OW 2512   1.285   1.822   2.328  0.1428 -0.8386  0.1177
  838SOL    HW1 2513   1.230   1.735   2.331  0.8162  0.2461 -0.5835
  838SOL    HW2 2514   1.224   1.902   2.365 -1.8662  2.0045  3.7708
  839SOL     OW 2515   0.577   2.082   2.703  0.0198 -0.0474 -0.1116
  839SOL    HW1 2516   0.531   1.994   2.677 -0.6205 -2.3249 -0.3330
  839SOL    HW2 2517   0.562   2.104   2.804  1.8662 -2.6856  1.0990
  840SOL     OW 2518   0.676   2.373   0.118 -0.8764 -0.2017 -0.2939
  840SOL    HW1 2519   0.734   2.295   0.089 -1.4019 -1.8796  0.0383
  840SOL    HW2 2520   0.691   2.462   0.068  1.6183 -1.4423 -2.3258
  841SOL     OW 2521   1.921   2.427   0.162  0.1899 -0.6413  0.1034
  841SOL    HW1 2522   1.850   2.448   0.094  1.5630 -2.1506  1.2437
  841SOL    HW2 2523   1.980   2.513   0.185  0.8456  2.0003  2.3160
  842SOL     OW 2524   0.846   0.602   2.868  0.2114 -0.4519  0.0380
  842SOL    HW1 2525   0.794   0.604   2.779 -0.0701 -1.8406  0.4536
  842SOL    HW2 2526   0.946   0.623   2.855  3.3758  1.5649  0.4315
  843SOL     OW 2527   1.193   2.997   0.565 -0.3896 -0.0196 -0.3273
  843SOL    HW1 2528   1.178   3.093   0.529 -1.7127 -0.6446 -1.5288
  843SOL    HW2 2529   1.102   2.960   0.599 -0.3682 -1.1647 -0.7610
  844SOL     OW 2530   2.442   3.050   2.237  0.4006  0.1069 -0.1003
  844SOL    HW1 2531   2.533   3.085   2.246 -3.1790 -0.0480 -1.7752
  844SOL    HW2 2532   2.395   3.086   2.151  1.1302  1.8435 -0.3271
  845SOL     OW 2533   2.578   2.598   1.221 -0.0219  0.0940  0.6764
  845SOL    HW1 2534   2.562   2.517   1.279 -0.9646  1.1148  1.1079
  845SOL    HW2 2535   2.558   2.571   1.121  1.3655 -0.7329 -1.8711
  846SOL     OW 2536   0.163   1.791   2.507  0.2025 -0.2069 -0.7196
  846SOL    HW1 2537   0.166   1.690   2.488 -1.0027  0.2180  0.8480
  846SOL    HW2 2538   0.200   1.809   2.601 -0.9931 -0.8082 -0.6814
  847SOL     OW 2539   1.576   0.758   1.508  0.0532  0.3263  0.3522
  847SOL    HW1 2540   1.602   0.751   1.413 -0.0069 -2.8247  4.2881
  847SOL    HW2 2541   1.627   0.826   1.567 -1.7900  0.5621  2.2663
  848SOL     OW 2542   2.680   0.244   0.069  0.2736 -0.2693 -0.3764
  848SOL    HW1 2543   2.673   0.188   0.152  1.3155  2.2557  0.9199
  848SOL    HW2 2544   2.707   0.338   0.094 -0.7484 -1.2824 -1.1211
  849SOL     OW 2545   0.567   2.943   2.715  0.0271 -0.2652  0.1268
  849SOL    HW1 2546   0.565   2.869   2.784 -2.2328 -0.1961 -1.5692
  849SOL    HW2 2547   0.666   2.979   2.706  0.1371  0.9206 -0.1848
  850SOL     OW 2548   1.009   2.495   0.992  0.8330  0.2746 -0.3558
  850SOL    HW1 2549   0.963   2.424   0.932 -0.9755  0.6082  0.2633
  850SOL    HW2 2550   1.105   2.476   1.015 -0.1404  0.0020 -1.0805
  851SOL     OW 2551   2.866   0.221   2.124 -1.2443 -0.5445  0.1029
  851SOL    HW1 2552   2.936   0.156   2.163 -0.2677 -2.4408  1.5487
  851SOL    HW2 2553   2.873   0.312   2.174  0.9365  2.9489  1.1255
  852SOL     OW 2554   2.098   1.308   2.401 -0.0105 -0.2678  0.4504
  852SOL    HW1 2555   2.029   1.332   2.469  2.8828 -0.3678 -1.8921
  852SOL    HW2 2556   2.179   1.257   2.434  2.9089 -2.4064  1.6671
  853SOL     OW 2557   2.945   2.997   0.614  0.0710  0.2214 -0.2312
  853SOL    HW1 2558   3.018   3.028   0.676 -0.6619  0.1248 -2.8992
  853SOL    HW2 2559   2.863   2.995   0.675 -2.0384  0.3806  1.3719
  854SOL     OW 2560   2.345   1.020   1.348  0.0985  1.4397 -0.2680
  854SOL    HW1 2561   2.426   0.991   1.292 -0.4173 -1.4252 -0.6304
  854SOL    HW2 2562   2.273   1.035   1.280 -1.4230  1.2040 -0.3914
  855SOL     OW 2563   1.380   2.331   0.470  0.0086 -0.2547  0.1549
  855SOL    HW1 2564   1.422   2.344   0.558 -1.0820  0.3760 -0.5828
  855SOL    HW2 2565   1.450   2.284   0.413  0.6732  1.4426  1.9621
  856SOL     OW 2566   3.004   0.290   2.884  0.5476 -0.6976 -0.8625
  856SOL    HW1 2567   3.002   0.242   2.796 -0.7460  3.6467  4.4700
  856SOL    HW2 2568   3.028   0.233   2.965  2.2326 -0.1046 -1.7682
  857SOL     OW 2569   1.390   0.100   1.800 -0.0883 -0.1700 -0.3081
  857SOL    HW1 2570   1.434   0.192   1.795 -1.8916  2.3564 -3.5685
  857SOL    HW2 2571   1.307   0.101   1.859 -2.1374 -0.5927 -0.9102
  858SOL     OW 2572   2.212   2.244   1.712 -0.3347  0.1875 -0.0849
  858SOL    HW1 2573   2.274   2.178   1.664 -1.3214 -0.9887  3.2012
  858SOL    HW2 2574   2.141   2.272   1.640 -0.3277  0.8804 -0.0813
  859SOL     OW 2575   1.275   2.425   1.085  0.1567  0.0472 -0.5328
  859SOL    HW1 2576   1.379   2.437   1.090  1.7616  1.2188 -0.7866
  859SOL    HW2 2577   1.244   2.347   1.143  0.4040 -2.0267  1.4441
  860SOL     OW 2578   2.292   2.464   0.170 -0.9879  0.4254  0.0424
  860SOL    HW1 2579   2.390   2.484   0.154 -0.3581 -0.3733 -0.3395
  860SOL    HW2 2580   2.281   2.390   0.234 -1.8128 -1.7763 -1.0913
  861SOL     OW 2581   1.700   3.096   0.974 -0.5111 -0.2822 -0.5529
  861SOL    HW1 2582   1.606   0.036   0.980 -2.8084  2.8607 -1.1120
  861SOL    HW2 2583   1.756   0.047   1.049 -1.9959  1.7317 -0.0221
  862SOL     OW 2584   2.034   2.869   2.436 -0.4789 -0.3454  0.2487
  862SOL    HW1 2585   2.108   2.896   2.498 -0.3772 -0.2429 -2.5221
  862SOL    HW2 2586   2.050   2.896   2.342  0.0128 -0.6670  1.5856
  863SOL     OW 2587   0.233   0.743   0.557  0.1815  0.7644  0.5254
  863SOL    HW1 2588   0.292   0.661   0.561  2.6468  1.1927  0.0939
  863SOL    HW2 2589   0.246   0.781   0.466  1.0676 -3.0787 -0.7470
  864SOL     OW 2590   2.905   2.424   2.197 -0.5259  0.0044  0.6397
  864SOL    HW1 2591   2.988   2.385   2.236  1.9931  1.3069  2.6163
  864SOL    HW2 2592   2.918   2.505   2.134  0.2950 -1.3961 -2.6361
  865SOL     OW 2593   0.488   1.518   2.742  0.2375  0.3954 -0.0695
  865SOL    HW1 2594   0.461   1.578   2.819  0.8248 -1.4274 -1.9180
  865SOL    HW2 2595   0.556   1.447   2.775 -0.2668 -2.9210  0.3520
  866SOL     OW 2596   2.865   0.552   2.675 -0.4196 -0.1183 -0.1226
  866SOL    HW1 2597   2.869   0.533   2.772  1.6995  2.1084 -4.1490
  866SOL    HW2 2598   2.889   0.467   2.624  0.2745  1.7082 -0.6110
  867SOL     OW 2599   0.219   3.072   2.926  0.1294  0.3893 -0.2213
  867SOL    HW1 2600   0.269   2.989   2.957 -0.4252 -2.0313  0.2888
  867SOL    HW2 2601   0.143   3.090   2.995 -3.3679  0.4204  0.3740
  868SOL     OW 2602   1.412   2.735   0.851  0.3459 -0.2096 -0.4910
  868SOL    HW1 2603   1.508   2.713   0.850 -0.9911  2.1465  0.1696
  868SOL    HW2 2604   1.383   2.754   0.944  0.6457 -0.9403 -2.5347
  869SOL     OW 2605   1.420   1.619   0.973 -0.5292  0.2580 -0.1089
  869SOL    HW1 2606   1.485   1.550   0.938 -0.3928 -1.7031 -1.9110
  869SOL    HW2 2607   1.430   1.614   1.077  1.1149 -0.5375  1.5677
  870SOL     OW 2608   1.882   2.079   1.375  0.2215  0.2219 -0.2171
  870SOL    HW1 2609   1.924   2.038   1.295 -0.6720  3.1436 -0.1504
  870SOL    HW2 2610   1.862   2.002   1.436  1.7527  1.1938 -1.3597
  871SOL     OW 2611   0.738   1.555   1.688  0.1391  0.2844  0.3935
  871SOL    HW1 2612   0.775   1.609   1.610 -1.4437  0.3712  0.0350
  871SOL    HW2 2613   0.777   1.462   1.693  0.4490  0.2282  0.1498
  872SOL     OW 2614   1.543   1.076   1.239 -0.0143  0.6231 -0.2818
  872SOL    HW1 2615   1.493   1.163   1.209 -1.4848  0.6181 -0.8482
  872SOL    HW2 2616   1.633   1.109   1.271 -2.0310 -2.8585 -0.7215
  873SOL     OW 2617   1.192   0.978   2.558  0.3138  0.2099  0.2947
  873SOL    HW1 2618   1.186   1.075   2.599  0.6227 -0.0396  3.3330
  873SOL    HW2 2619   1.290   0.967   2.527 -1.0998  2.2175 -0.4498
  874SOL     OW 2620   3.098   1.216   1.431 -0.1877  0.2835  0.1665
  874SOL    HW1 2621   3.071   1.280   1.358  0.6846 -0.4237 -0.2153
  874SOL    HW2 2622   0.093   1.234   1.457 -2.7162 -2.2777  0.8258
  875SOL     OW 2623   2.722   3.022   0.782 -0.4414 -0.1677  0.7385
  875SOL    HW1 2624   2.722   3.027   0.885  1.3480  2.2488 -1.7363
  875SOL    HW2 2625   2.663   3.096   0.735 -1.2575  1.0230 -2.6765
  876SOL     OW 2626   1.132   0.373   2.641 -0.0610  0.4949  0.0428
  876SOL    HW1 2627   1.141   0.279   2.608  0.2288 -2.0422  0.4802
  876SOL    HW2 2628   1.082   0.438   2.582  0.4588 -0.7979  0.8634
  877SOL     OW 2629   0.210   0.109   1.132 -0.1183 -0.7782  0.4438
  877SOL    HW1 2630   0.187   0.096   1.233  0.3747 -0.6515 -1.1946
  877SOL    HW2 2631   0.134   0.089   1.071  0.8514 -0.7972 -3.0432
  878SOL     OW 2632   1.970   2.696   3.035 -0.0056 -0.1658  0.4595
  878SOL    HW1 2633   1.965   2.781   3.094 -0.7510  0.7858 -0.2801
  878SOL    HW2 2634   2.058   2.646   3.047  4.0212  1.0066 -2.3753
  879SOL     OW 2635   2.043   1.684   1.795  0.1345  0.1107 -0.0832
  879SOL    HW1 2636   2.134   1.724   1.778  0.9919  2.0407  1.6551
  879SOL    HW2 2637   2.045   1.619   1.873 -2.3338  3.4430 -2.0813
  880SOL     OW 2638   0.832   0.771   1.344  0.8649 -0.2661  0.1982
  880SOL    HW1 2639   0.869   0.801   1.434  0.7000  0.8861  1.2127
  880SOL    HW2 2640   0.761   0.844   1.324  0.7885  0.3030  0.6044
  881SOL     OW 2641   1.022   1.854   3.064 -0.6957  0.2290  0.4543
  881SOL    HW1 2642   0.975   1.872   2.978  1.7127  0.7387 -0.9882
  881SOL    HW2 2643   1.114   1.811   3.051  0.5994  1.6998 -0.9172
  882SOL     OW 2644   1.834   0.568   0.788 -0.0769 -0.0840 -0.2814
  882SOL    HW1 2645   1.758   0.498   0.792 -1.7082 -0.8866 -0.0298
  882SOL    HW2 2646   1.910   0.535   0.845 -3.6249 -1.0641  1.3582
  883SOL     OW 2647   1.756   0.706   1.929  0.1697 -0.3457 -0.0997
  883SOL    HW1 2648   1.773   0.706   2.032  0.0021 -2.8749  0.9873
  883SOL    HW2 2649   1.833   0.657   1.881  1.4214  2.3669  0.2829
  884SOL     OW 2650   2.374   0.250   0.064 -0.1439 -0.4520  0.2227
  884SOL    HW1 2651   2.474   0.235   0.078 -0.5659  0.0294 -0.2203
  884SOL    HW2 2652   2.366   0.342   0.017 -0.8119  0.6166 -1.4587
  885SOL     OW 2653   0.631   1.978   0.615  0.3442  0.1569 -0.4665
  885SOL    HW1 2654   0.591   2.042   0.544 -1.9628 -0.6460 -0.7736
  885SOL    HW2 2655   0.580   1.997   0.706 -1.3288  0.7737  1.0284
  886SOL     OW 2656   1.671   1.438   0.105  0.0637 -0.0651  0.4309
  886SOL    HW1 2657   1.619   1.381   0.173 -1.8774  1.0921 -1.6739
  886SOL    HW2 2658   1.730   1.500   0.154 -0.9707 -0.1137 -0.7134
  887SOL     OW 2659   1.484   0.501   1.565 -0.4989  0.4010  0.2301
  887SOL    HW1 2660   1.386   0.487   1.533 -0.6298 -1.8295 -2.0752
  887SOL    HW2 2661   1.502   0.597   1.569 -0.7509 -1.9518  1.4402
  888SOL     OW 2662   2.960   0.978   1.532 -0.1891 -0.5621 -0.5488
  888SOL    HW1 2663   2.980   1.045   1.458  0.8786 -2.0946  0.2770
  888SOL    HW2 2664   2.860   0.986   1.560 -1.5374 -0.0274  0.0838
  889SOL     OW 2665   2.931   2.491   0.907  0.1555  0.1895 -0.0737
  889SOL    HW1 2666   2.920   2.588   0.916  0.3541 -5.2171  1.0415
  889SOL    HW2 2667   2.970   2.459   0.995 -3.5690  0.7599 -1.7240
  890SOL     OW 2668   0.006   2.300   2.294 -0.3236  0.4821 -0.4999
  890SOL    HW1 2669   0.064   2.280   2.378  0.8042  1.3675  0.4119
  890SOL    HW2 2670   0.067   2.303   2.208 -0.2670  0.6808 -1.8008
  891SOL     OW 2671   0.659   1.642   0.228  0.3950 -0.0957  0.4749
  891SOL    HW1 2672   0.607   1.727   0.243 -1.2671 -0.8947  3.7420
  891SOL    HW2 2673   0.707   1.619   0.316 -0.9685 -1.3789 -0.4197
  892SOL     OW 2674   3.079   2.274   1.489  0.1442 -0.0241  0.6380
  892SOL    HW1 2675   3.058   2.212   1.571  0.5314 -1.5932  1.1701
  892SOL    HW2 2676   3.078   2.368   1.527 -0.0484  2.4983  0.5762
  893SOL     OW 2677   0.091   3.060   1.607 -0.1988 -0.1874  0.0228
  893SOL    HW1 2678   0.055   0.015   1.683  3.0370  1.2086 -2.9290
  893SOL    HW2 2679   0.016   3.026   1.551  0.4289  1.4624  1.4764
  894SOL     OW 2680   2.586   1.881   0.904  0.1659 -0.2174  0.6649
  894SOL    HW1 2681   2.658   1.918   0.969  1.1427  1.1324  2.8688
  894SOL    HW2 2682   2.565   1.935   0.824 -0.0444 -0.9638  2.6995
  895SOL     OW 2683   2.109   2.517   1.473 -0.0044  0.0165  0.1566
  895SOL    HW1 2684   2.069   2.530   1.567 -0.8053 -1.0453  2.8963
  895SOL    HW2 2685   2.197   2.570   1.459  0.6066 -0.3038  2.9174
  896SOL     OW 2686   0.674   0.018   1.490 -0.1416  0.2562  0.7865
  896SOL    HW1 2687   0.660   0.054   1.587 -0.5064  0.5545 -0.4647
  896SOL    HW2 2688   0.661   3.019   1.496  0.5326  0.6220  1.6819
  897SOL     OW 2689   1.042   1.032   1.191 -0.8401 -0.4333  0.1466
  897SOL    HW1 2690   1.116   0.965   1.215  0.5949  3.4451 -3.8293
  897SOL    HW2 2691   1.073   1.097   1.112  1.8835  3.2937 -2.1012
  898SOL     OW 2692   1.377   2.887   1.425  0.1740 -0.1726 -0.1741
  898SOL    HW1 2693   1.442   2.825   1.476  0.8973 -1.7446  0.4643
  898SOL    HW2 2694   1.326   2.825   1.363  0.7324 -0.9379 -1.3706
  899SOL     OW 2695   1.159   0.386   2.905  0.2966 -0.3466  0.0921
  899SOL    HW1 2696   1.246   0.336   2.932 -1.3520 -0.4026 -2.6258
  899SOL    HW2 2697   1.153   0.378   2.804 -0.5892  0.8740  1.5780
  900SOL     OW 2698   1.193   2.686   2.115 -0.1088 -0.0567  0.0012
  900SOL    HW1 2699   1.197   2.676   2.018  0.8555  2.2351  4.0869
  900SOL    HW2 2700   1.097   2.680   2.149 -0.2473  0.2323  0.5021
  901SOL     OW 2701   0.850   2.001   0.258  0.2423  0.4338  0.0717
  901SOL    HW1 2702   0.866   2.032   0.354  0.8510 -2.0306  4.4369
  901SOL    HW2 2703   0.900   1.917   0.224 -1.3691  0.0152 -1.8037
  902SOL     OW 2704   1.789   1.007   1.079  0.7346 -0.3180  0.1958
  902SOL    HW1 2705   1.731   0.942   1.138  1.2652 -2.5432  0.6799
  902SOL    HW2 2706   1.814   0.951   0.999  0.4769 -2.1327 -0.6335
  903SOL     OW 2707   2.658   0.974   2.578 -0.2722 -0.1692 -0.1465
  903SOL    HW1 2708   2.629   0.990   2.673 -0.8221 -1.8861  0.1949
  903SOL    HW2 2709   2.575   0.989   2.517  0.1503 -0.4423 -2.7454
  904SOL     OW 2710   1.001   1.277   0.039 -0.0028 -0.0625  0.2423
  904SOL    HW1 2711   1.066   1.264   0.119 -0.1271 -0.8072  0.7525
  904SOL    HW2 2712   1.045   1.228   3.066  2.0623 -0.4644  0.8171
  905SOL     OW 2713   1.624   3.028   1.387 -0.3340  0.5576  0.1700
  905SOL    HW1 2714   1.597   0.004   1.331 -1.1502 -2.1132  0.0601
  905SOL    HW2 2715   1.546   2.962   1.387 -2.6345 -1.7342  1.4641
  906SOL     OW 2716   2.336   2.872   0.746  0.1764 -0.1005  0.0846
  906SOL    HW1 2717   2.333   2.929   0.662  0.7651  1.4604 -1.1680
  906SOL    HW2 2718   2.368   2.935   0.820 -1.7091 -1.2338  1.5184
  907SOL     OW 2719   1.389   0.830   0.544  0.3200  0.0052  0.6538
  907SOL    HW1 2720   1.477   0.882   0.548 -0.7612 -0.5883 -1.0171
  907SOL    HW2 2721   1.323   0.868   0.609  0.9951  1.4144  0.0417
  908SOL     OW 2722   1.787   0.162   1.175 -0.1900 -0.0561  0.3316
  908SOL    HW1 2723   1.797   0.262   1.149  1.2399  1.6374  0.7658
  908SOL    HW2 2724   1.747   0.159   1.272 -0.5071  0.8114  0.4890
  909SOL     OW 2725   2.047   0.458   0.972 -0.3918  0.5787 -0.5228
  909SOL    HW1 2726   2.111   0.405   1.030 -0.2822 -0.6333  1.7829
  909SOL    HW2 2727   2.105   0.523   0.914 -0.7129  1.6747  0.8416
  910SOL     OW 2728   2.416   0.669   2.066  0.2379 -0.0528 -0.2823
  910SOL    HW1 2729   2.466   0.753   2.038 -0.0795 -2.1481 -1.1507
  910SOL    HW2 2730   2.317   0.670   2.034 -0.9434 -0.0595  0.8498
  911SOL     OW 2731   2.545   0.398   2.587 -0.0723  0.0468  0.1312
  911SOL    HW1 2732   2.503   0.487   2.604  2.8085  0.8502  2.1035
  911SOL    HW2 2733   2.597   0.359   2.667 -0.1458  0.3587  0.4201
  912SOL     OW 2734   0.589   1.015   1.652  0.9348  0.4470 -0.0998
  912SOL    HW1 2735   0.682   1.042   1.626 -5.0601 -0.9543  0.4266
  912SOL    HW2 2736   0.522   1.032   1.574 -3.4021  2.9518 -0.9232
  913SOL     OW 2737   2.741   2.396   1.555  0.6064  0.4337  0.4000
  913SOL    HW1 2738   2.778   2.369   1.644 -1.2648  2.8616  1.5299
  913SOL    HW2 2739   2.811   2.426   1.491 -0.6835  0.1066  1.4599
  914SOL     OW 2740   2.034   0.927   1.523  0.4123 -0.0383  0.4885
  914SOL    HW1 2741   2.084   1.015   1.507  0.0891  0.4838  0.3446
  914SOL    HW2 2742   1.932   0.945   1.539 -3.1296 -1.1919  2.6454
  915SOL     OW 2743   2.679   1.101   0.798  0.1805  0.2515 -0.3970
  915SOL    HW1 2744   2.623   1.110   0.884 -2.7366 -0.1448  0.8026
  915SOL    HW2 2745   2.781   1.108   0.824 -0.7571 -0.4411  1.6000
  916SOL     OW 2746   1.841   2.445   1.213 -0.2247 -0.0833 -0.1152
  916SOL    HW1 2747   1.861   2.542   1.211  0.1731 -1.5376 -0.6342
  916SOL    HW2 2748   1.789   2.417   1.299 -1.3181  0.2955  2.4064
  917SOL     OW 2749   1.961   2.612   2.425 -0.4664 -0.5812 -0.6710
  917SOL    HW1 2750   1.894   2.600   2.503  0.3078 -1.2360 -1.4477
  917SOL    HW2 2751   2.001   2.704   2.435 -0.2484 -0.4192 -2.9880
  918SOL     OW 2752   1.876   2.877   2.679 -0.0549 -0.2508  0.3178
  918SOL    HW1 2753   1.814   2.956   2.700 -3.3492 -2.8383 -3.2593
  918SOL    HW2 2754   1.913   2.888   2.581 -0.1093  0.2515 -0.6960
  919SOL     OW 2755   0.945   0.106   1.409  0.0767  0.0612  0.3065
  919SOL    HW1 2756   0.854   0.107   1.457  0.4389 -2.0813  1.2798
  919SOL    HW2 2757   0.996   0.023   1.449 -0.2453 -2.8475  3.0897
  920SOL     OW 2758   2.878   0.448   2.278 -0.3312  0.3423  0.3981
  920SOL    HW1 2759   2.787   0.424   2.305  4.9604  2.6442 -0.7132
  920SOL    HW2 2760   2.901   0.547   2.301 -1.2343  3.7899  0.7426
  921SOL     OW 2761   3.072   0.867   1.750 -0.2408  0.5768 -0.6818
  921SOL    HW1 2762   0.067   0.889   1.766 -1.6902 -0.1210  1.6388
  921SOL    HW2 2763   3.036   0.903   1.662 -0.2529  1.6118  1.2265
  922SOL     OW 2764   2.481   2.480   0.685 -0.1866  0.1014 -0.0768
  922SOL    HW1 2765   2.570   2.526   0.682 -1.7484  2.3655 -0.7657
  922SOL    HW2 2766   2.421   2.526   0.614  1.9642 -0.2987  3.0282
  923SOL     OW 2767   0.701   2.275   0.660 -0.1891  0.1153 -0.0275
  923SOL    HW1 2768   0.688   2.316   0.565  1.5840  1.7294 -1.4006
  923SOL    HW2 2769   0.618   2.284   0.718  2.1146  0.1858  3.3142
  924SOL     OW 2770   1.083   0.857   2.792 -0.4507 -0.0422  0.1633
  924SOL    HW1 2771   0.987   0.891   2.793  0.2146 -1.9749 -0.2426
  924SOL    HW2 2772   1.127   0.884   2.700  1.8234  1.1438 -0.6465
  925SOL     OW 2773   2.514   1.256   0.612 -0.4806 -0.5104  0.6333
  925SOL    HW1 2774   2.566   1.182   0.652 -1.2823  4.3148 -0.0132
  925SOL    HW2 2775   2.498   1.322   0.688  1.2149 -1.3354 -0.8907
  926SOL     OW 2776   0.445   0.218   1.083  0.1734 -0.0854  0.2273
  926SOL    HW1 2777   0.517   0.174   1.143  2.1840 -0.4528 -0.8926
  926SOL    HW2 2778   0.349   0.187   1.107  1.5932  1.9721  1.0624
  927SOL     OW 2779   0.544   1.611   2.482  0.7668  0.2036  0.3230
  927SOL    HW1 2780   0.518   1.575   2.574 -1.4540  0.3237 -0.9577
  927SOL    HW2 2781   0.523   1.539   2.410  0.5950 -2.0214  0.3008
  928SOL     OW 2782   0.112   0.449   2.082  0.5929 -0.3668 -0.0145
  928SOL    HW1 2783   0.063   0.401   2.155 -0.4316 -0.4067  1.0718
  928SOL    HW2 2784   0.156   0.386   2.018  0.1958 -1.2745  2.1378
  929SOL     OW 2785   2.858   2.617   1.401  0.5124  0.4103  0.1624
  929SOL    HW1 2786   2.947   2.603   1.352 -2.3063 -2.7852 -1.5168
  929SOL    HW2 2787   2.785   2.659   1.341 -0.0648  1.4092 -2.1488
  930SOL     OW 2788   1.980   0.363   1.937 -0.1737 -0.3857  0.0022
  930SOL    HW1 2789   2.073   0.335   1.968 -2.4382 -1.0937  0.5904
  930SOL    HW2 2790   1.914   0.365   2.016  0.5702  2.0607 -0.9209
  931SOL     OW 2791   2.305   1.018   2.938  0.1592 -0.0583  0.2226
  931SOL    HW1 2792   2.311   1.113   2.971 -0.1961  0.3291  0.1737
  931SOL    HW2 2793   2.291   0.958   3.018 -1.9649 -0.1902 -1.5837
  932SOL     OW 2794   1.952   1.309   0.730 -0.2556  0.3054 -0.3743
  932SOL    HW1 2795   1.982   1.210   0.744  1.0140 -1.7874  0.2134
  932SOL    HW2 2796   1.960   1.326   0.634 -1.1348 -2.7289  2.9540
  933SOL     OW 2797   1.732   1.725   1.155  0.0982  0.1585  0.1408
  933SOL    HW1 2798   1.729   1.734   1.052 -1.6020  0.5490 -3.0456
  933SOL    HW2 2799   1.770   1.636   1.186  0.7929 -0.4836  1.6917
  934SOL     OW 2800   2.163   0.966   2.670 -0.3243 -0.5517 -0.0768
  934SOL    HW1 2801   2.190   0.901   2.746  0.6475 -0.9739  1.2391
  934SOL    HW2 2802   2.143   0.923   2.580 -0.6734  0.7286  0.7500
  935SOL     OW 2803   0.134   1.154   0.595  0.5239 -0.1827  0.0188
  935SOL    HW1 2804   0.127   1.237   0.536 -1.4547  0.1151 -0.1912
  935SOL    HW2 2805   0.047   1.105   0.599  2.9869  3.0215 -1.5655
  936SOL     OW 2806   0.111   2.757   0.831 -0.5255  0.2598 -0.1471
  936SOL    HW1 2807   0.153   2.834   0.885  1.1323  2.8339  1.7484
  936SOL    HW2 2808   0.151   2.673   0.868 -1.8737 -1.3895 -1.5881
  937SOL     OW 2809   3.014   2.267   1.930  0.1076 -0.3916  0.5384
  937SOL    HW1 2810   3.025   2.369   1.943  2.5078  2.2129  3.0067
  937SOL    HW2 2811   3.068   2.224   2.003  1.6680 -0.2489 -0.7356
  938SOL     OW 2812   2.863   2.277   0.278 -0.2195  0.8475 -0.1443
  938SOL    HW1 2813   2.819   2.361   0.238 -3.4007 -1.9833 -0.9269
  938SOL    HW2 2814   2.861   2.290   0.378  2.3759 -0.8280 -0.5941
  939SOL     OW 2815   1.288   0.908   1.257  0.0180 -0.2305 -1.0113
  939SOL    HW1 2816   1.374   0.960   1.264 -1.7169 -0.3248 -1.3338
  939SOL    HW2 2817   1.312   0.813   1.234 -0.6279 -0.1488  0.9863
  940SOL     OW 2818   2.906   0.319   2.547  0.6129 -0.5857 -0.3661
  940SOL    HW1 2819   2.818   0.281   2.516 -1.2495  0.2537  1.0104
  940SOL    HW2 2820   2.961   0.243   2.587  0.6952  0.1884  0.8733
  941SOL     OW 2821   2.648   2.623   2.789  0.0041 -0.1431  0.1367
  941SOL    HW1 2822   2.670   2.623   2.689 -2.4253  0.3269 -2.7825
  941SOL    HW2 2823   2.555   2.576   2.794 -2.4450 -0.1225  0.6912
  942SOL     OW 2824   1.340   0.155   1.260  0.0437 -0.1220  0.8362
  942SOL    HW1 2825   1.351   0.106   1.348  1.3251  2.2940 -0.4725
  942SOL    HW2 2826   1.382   0.249   1.264 -0.4635 -1.1178 -0.2595
  943SOL     OW 2827   1.039   1.318   2.072 -0.4650 -0.1983 -0.2007
  943SOL    HW1 2828   1.038   1.223   2.040 -1.0152  1.6016 -0.7892
  943SOL    HW2 2829   0.949   1.363   2.044  1.9053 -0.3604  0.3802
  944SOL     OW 2830   2.182   1.116   1.136  0.3033  0.1020 -0.0092
  944SOL    HW1 2831   2.148   1.032   1.088 -1.2547 -3.0387  0.4721
  944SOL    HW2 2832   2.157   1.200   1.088  1.0503 -1.8391  2.4201
  945SOL     OW 2833   2.925   3.032   2.882  0.4580 -0.1870 -0.3442
  945SOL    HW1 2834   2.874   2.939   2.874 -2.6561 -1.7042 -3.1043
  945SOL    HW2 2835   2.938   3.056   2.981  2.6522  2.4937 -0.5014
  946SOL     OW 2836   3.055   1.296   1.695  0.1308 -0.0290  0.3893
  946SOL    HW1 2837   3.041   1.257   1.602 -0.8923  1.4837 -0.1603
  946SOL    HW2 2838   0.054   1.290   1.719  0.2274  0.5369  0.8752
  947SOL     OW 2839   0.872   3.028   0.146 -0.2011  0.5787 -0.2028
  947SOL    HW1 2840   0.830   2.938   0.173 -0.0428  1.8247  0.3515
  947SOL    HW2 2841   0.806   3.073   0.082  0.1811 -0.0160  0.9529
  948SOL     OW 2842   2.310   1.745   1.282  0.2267  0.3265 -0.3316
  948SOL    HW1 2843   2.384   1.794   1.331 -1.0178  0.2957  0.4913
  948SOL    HW2 2844   2.322   1.759   1.182  0.4388 -0.9893  2.7579
  949SOL     OW 2845   0.346   0.900   2.705 -0.1452  0.5165  0.4659
  949SOL    HW1 2846   0.266   0.931   2.759 -0.4437  0.3865 -2.0446
  949SOL    HW2 2847   0.423   0.964   2.717 -0.1730 -0.2869 -0.9322
  950SOL     OW 2848   0.415   2.319   1.406  0.6008 -0.2351 -0.1640
  950SOL    HW1 2849   0.365   2.404   1.379 -0.5576 -0.6850  0.2414
  950SOL    HW2 2850   0.485   2.300   1.335 -0.6149 -1.0584  0.1991
  951SOL     OW 2851   0.984   1.700   2.751 -0.2583 -0.4484  0.1988
  951SOL    HW1 2852   0.937   1.648   2.824  1.2638 -0.9871  0.3636
  951SOL    HW2 2853   0.916   1.721   2.673 -2.9832  0.7903 -2.7783
  952SOL     OW 2854   0.559   1.175   0.485  0.2446  0.2442  0.4868
  952SOL    HW1 2855   0.601   1.110   0.550 -2.2108 -1.1469 -3.2094
  952SOL    HW2 2856   0.520   1.256   0.537  0.5744  0.6581 -0.4388
  953SOL     OW 2857   2.411   2.496   2.745  0.1671 -0.0002  0.2160
  953SOL    HW1 2858   2.432   2.447   2.656  0.5495 -0.8200 -1.1365
  953SOL    HW2 2859   2.309   2.502   2.759 -0.2142  2.0179  1.0072
  954SOL     OW 2860   1.652   0.858   0.804  0.0791  0.1116 -0.3804
  954SOL    HW1 2861   1.617   0.765   0.817  0.0293 -2.2235 -0.0576
  954SOL    HW2 2862   1.751   0.860   0.786 -1.2501  4.5919 -4.0835
  955SOL     OW 2863   0.583   1.911   0.251  0.0236  0.0973  0.7744
  955SOL    HW1 2864   0.679   1.936   0.229 -2.1609 -0.1454  0.6685
  955SOL    HW2 2865   0.573   1.917   0.352  0.6140 -1.9057 -2.1098
  956SOL     OW 2866   2.636   0.441   1.785 -0.1723 -0.3878  0.2055
  956SOL    HW1 2867   2.659   0.502   1.866 -1.3014 -0.8544  1.3700
  956SOL    HW2 2868   2.597   0.354   1.813  1.8195  3.2752 -0.6888
  957SOL     OW 2869   1.752   2.294   1.669  0.2297 -0.0525  0.4232
  957SOL    HW1 2870   1.853   2.300   1.657  0.6252  1.6559 -1.3110
  957SOL    HW2 2871   1.735   2.204   1.709  0.7214  1.4207  0.5184
  958SOL     OW 2872   1.776   0.994   1.548 -0.2320 -0.0670 -0.4776
  958SOL    HW1 2873   1.724   0.968   1.627  5.5510  1.6743 -4.6785
  958SOL    HW2 2874   1.788   1.096   1.536 -1.8943  0.9740  0.9723
  959SOL     OW 2875   1.524   2.139   2.286  0.2806  0.0216  0.2307
  959SOL    HW1 2876   1.592   2.148   2.211 -1.2773  0.4494  2.7437
  959SOL    HW2 2877   1.532   2.050   2.338 -0.7268  0.1842  1.1413
  960SOL     OW 2878   0.717   0.571   2.646  0.5587 -0.4171  0.1890
  960SOL    HW1 2879   0.630   0.594   2.695 -1.1020 -1.4574  1.1500
  960SOL    HW2 2880   0.705   0.579   2.546  2.2661 -0.1712  1.9335
  961SOL     OW 2881   0.105   0.975   2.783 -0.6199  0.2792 -0.5753
  961SOL    HW1 2882   0.049   0.899   2.807 -0.4548 -1.2158 -0.9774
  961SOL    HW2 2883   0.061   1.052   2.733 -1.4120  2.0129  1.9769
  962SOL     OW 2884   0.873   2.000   2.874 -0.0293 -0.3259 -0.7050
  962SOL    HW1 2885   0.783   1.963   2.888  2.1171  1.4581 -0.2706
  962SOL    HW2 2886   0.885   2.033   2.780  1.1361 -0.4855  0.4775
  963SOL     OW 2887   2.889   2.073   0.082 -0.2261 -0.5608  0.5697
  963SOL    HW1 2888   2.802   2.026   0.066 -0.5648  0.6235  1.0095
  963SOL    HW2 2889   2.872   2.148   0.151  0.2016  1.6562  1.0092
  964SOL     OW 2890   0.834   2.174   2.271 -0.1408 -0.5585  0.3276
  964SOL    HW1 2891   0.780   2.144   2.351 -0.7861 -1.3424 -0.1780
  964SOL    HW2 2892   0.909   2.235   2.299  2.2426  1.6692 -1.1660
  965SOL     OW 2893   1.520   1.881   1.257  0.1302  0.4063 -0.2156
  965SOL    HW1 2894   1.570   1.928   1.335  2.9977 -0.4350 -0.9170
  965SOL    HW2 2895   1.579   1.848   1.184  0.0716 -1.2986  0.4579
  966SOL     OW 2896   3.040   1.721   3.041  0.3886 -0.1232  0.8057
  966SOL    HW1 2897   3.071   1.801   3.098  2.1064  2.8380 -1.5881
  966SOL    HW2 2898   0.009   1.647   3.055  0.1693 -0.4391 -0.4476
  967SOL     OW 2899   2.019   3.020   2.138 -0.0137  0.1111 -0.5546
  967SOL    HW1 2900   2.116   3.051   2.131 -2.2762 -2.1176  2.0140
  967SOL    HW2 2901   1.987   2.963   2.058  1.2443  0.8766  3.7204
  968SOL     OW 2902   0.954   0.723   0.088 -0.3352  0.5179  0.7733
  968SOL    HW1 2903   0.925   0.807   0.042  1.4544 -2.0043  0.8166
  968SOL    HW2 2904   1.030   0.669   0.043 -0.6272  0.4388  0.9478
  969SOL     OW 2905   0.589   1.302   2.365  0.1053  0.6201 -0.1255
  969SOL    HW1 2906   0.517   1.359   2.321  1.0986 -1.3687  1.6446
  969SOL    HW2 2907   0.662   1.274   2.296  3.1175  0.3178 -0.9962
  970SOL     OW 2908   2.120   2.870   0.890  0.1918 -0.1572  0.2233
  970SOL    HW1 2909   2.085   2.956   0.852  1.8186 -1.9876 -1.8707
  970SOL    HW2 2910   2.199   2.841   0.832  0.2715 -2.0525  0.7675
  971SOL     OW 2911   1.916   2.267   0.718 -0.2250  0.3648 -0.5851
  971SOL    HW1 2912   1.940   2.298   0.811  2.6883  2.0300  1.0568
  971SOL    HW2 2913   1.955   2.325   0.642  2.4650 -0.4378  1.3631
  972SOL     OW 2914   0.035   1.238   2.681 -0.1996  0.2223 -0.0204
  972SOL    HW1 2915   3.092   1.251   2.593 -1.1646  0.8743 -0.9450
  972SOL    HW2 2916   0.123   1.290   2.695  1.1657 -0.8561 -2.1529
  973SOL     OW 2917   0.676   0.135   0.269  0.1894  0.1739  0.0848
  973SOL    HW1 2918   0.751   0.202   0.251 -1.6682  1.4104  3.2154
  973SOL    HW2 2919   0.609   0.175   0.208  0.9959  0.5286  3.6603
  974SOL     OW 2920   2.577   0.896   1.990 -0.1289 -0.0968 -0.8443
  974SOL    HW1 2921   2.648   0.907   2.053  1.0082 -1.2988 -0.3759
  974SOL    HW2 2922   2.506   0.966   2.014 -1.2051 -0.3724 -1.3295
  975SOL     OW 2923   0.003   0.017   0.898 -0.3116  0.0471  0.2938
  975SOL    HW1 2924   3.034   3.100   0.969  1.8761  1.1445  0.4802
  975SOL    HW2 2925   3.078   0.099   0.842  0.9057 -0.9693  1.3384
  976SOL     OW 2926   0.640   1.673   1.341  0.1828  0.5871  0.2592
  976SOL    HW1 2927   0.561   1.603   1.353 -1.1834 -4.4759 -0.8020
  976SOL    HW2 2928   0.654   1.727   1.426 -2.6812 -1.1990  0.6019
  977SOL     OW 2929   1.205   2.009   0.181 -0.7039  0.3324  0.5255
  977SOL    HW1 2930   1.205   2.019   0.077  0.2143 -0.4029 -1.4204
  977SOL    HW2 2931   1.219   2.106   0.218 -0.1666 -0.1352  1.3539
  978SOL     OW 2932   0.090   0.629   3.057  0.1432  0.5334 -0.8821
  978SOL    HW1 2933   0.045   0.597   2.971 -0.0675  0.4976  0.4229
  978SOL    HW2 2934   0.149   0.560   0.002 -1.2430  1.0505  0.4119
  979SOL     OW 2935   1.715   1.721   0.899  0.2647 -0.0682 -0.6953
  979SOL    HW1 2936   1.663   1.634   0.877  0.1491 -0.0215 -1.1731
  979SOL    HW2 2937   1.671   1.802   0.858 -0.8985  0.4444  0.4628
  980SOL     OW 2938   0.594   2.021   2.023  0.0140 -0.2178 -0.2724
  980SOL    HW1 2939   0.657   1.949   1.991  1.2765  2.1321  1.4110
  980SOL    HW2 2940   0.638   2.112   2.018  0.5102 -1.0181  1.7823
  981SOL     OW 2941   2.298   1.434   2.676 -0.1234 -0.2390  0.1647
  981SOL    HW1 2942   2.358   1.490   2.735 -0.1943 -0.0463  0.1342
  981SOL    HW2 2943   2.216   1.488   2.651  1.1925 -2.3582 -0.5287
  982SOL     OW 2944   0.195   2.177   1.786 -0.0030  0.0946  0.1257
  982SOL    HW1 2945   0.113   2.149   1.723 -0.3995  2.3765 -2.4756
  982SOL    HW2 2946   0.253   2.093   1.806  1.0306 -1.7042 -0.1446
  983SOL     OW 2947   1.584   0.304   1.720  0.1971 -0.5430  0.3229
  983SOL    HW1 2948   1.547   0.366   1.652  1.4042 -1.6895  0.2918
  983SOL    HW2 2949   1.650   0.236   1.674  0.0487 -1.8785  0.5362
  984SOL     OW 2950   2.715   2.817   0.064 -0.4667  0.1813 -0.0477
  984SOL    HW1 2951   2.741   2.799   3.066 -2.7847 -1.2637 -0.0737
  984SOL    HW2 2952   2.733   2.737   0.128  0.3846 -1.5109 -1.7184
  985SOL     OW 2953   1.352   1.166   1.877 -0.3692  0.6373  0.1328
  985SOL    HW1 2954   1.380   1.258   1.908  2.4728 -3.7799  1.5849
  985SOL    HW2 2955   1.404   1.101   1.934  0.3764  0.0700 -0.3844
  986SOL     OW 2956   1.979   0.118   2.516  0.4695 -0.3736  0.2973
  986SOL    HW1 2957   2.059   0.066   2.483  3.2957 -2.2859  1.8943
  986SOL    HW2 2958   2.010   0.192   2.575 -0.8059 -0.9067 -0.5388
  987SOL     OW 2959   2.630   1.824   2.826 -0.3634  0.1131  0.2336
  987SOL    HW1 2960   2.726   1.799   2.818 -2.6405  3.4724 -1.6149
  987SOL    HW2 2961   2.611   1.904   2.760  1.0776 -0.0447 -2.0734
  988SOL     OW 2962   2.942   0.701   1.194  0.7428 -0.1849  0.1926
  988SOL    HW1 2963   2.921   0.603   1.204  1.6462 -0.1833  1.1335
  988SOL    HW2 2964   3.010   0.731   1.268  1.9974  0.8301  1.8392
  989SOL     OW 2965   2.089   0.852   1.044  0.2908  0.0788 -0.1963
  989SOL    HW1 2966   2.137   0.765   1.024 -0.1427  1.8541 -1.0285
  989SOL    HW2 2967   2.084   0.852   1.145 -0.2180 -0.1493  0.5434
  990SOL     OW 2968   2.644   0.351   2.821  0.4002  0.9681  0.5159
  990SOL    HW1 2969   2.705   0.424   2.857 -2.0470  0.5082 -0.3313
  990SOL    HW2 2970   2.675   0.258   2.851 -0.7724  0.1619  3.1633
  991SOL     OW 2971   0.138   1.513   3.062  0.2253  0.2063  0.4634
  991SOL    HW1 2972   0.082   1.427   3.076  0.0891  1.4318 -2.4772
  991SOL    HW2 2973   0.210   1.505   0.034 -0.9944 -1.8773  0.7579
  992SOL     OW 2974   2.040   1.427   1.914 -0.3632  0.0534 -0.7899
  992SOL    HW1 2975   2.041   1.440   2.014  1.7116  0.0736 -1.2941
  992SOL    HW2 2976   2.123   1.375   1.875  3.1399 -2.8197 -1.0978
  993SOL     OW 2977   0.391   2.600   0.653 -0.6577 -0.7320  0.1386
  993SOL    HW1 2978   0.358   2.520   0.701  1.2249 -1.4289 -0.8381
  993SOL    HW2 2979   0.387   2.689   0.706 -1.2814 -0.0773  1.1547
  994SOL     OW 2980   2.978   1.803   1.659  0.2593 -0.4680  0.1564
  994SOL    HW1 2981   2.952   1.714   1.698 -0.2817  1.0676 -2.7052
  994SOL    HW2 2982   3.076   1.798   1.624 -1.1690 -0.9519 -0.7969
  995SOL     OW 2983   1.678   1.974   2.659 -0.3672  0.1281  0.3347
  995SOL    HW1 2984   1.780   1.970   2.676  0.9234  3.1955  2.4150
  995SOL    HW2 2985   1.664   1.966   2.560  0.9602 -0.8981  1.3822
  996SOL     OW 2986   2.220   2.031   0.374 -0.2077  0.1202 -0.0658
  996SOL    HW1 2987   2.123   2.012   0.350  3.0685 -1.5851 -2.2021
  996SOL    HW2 2988   2.242   2.004   0.473  0.3501 -0.7989  2.4388
  997SOL     OW 2989   1.438   1.313   2.513  0.2468  0.8935 -0.4484
  997SOL    HW1 2990   1.341   1.281   2.499 -0.2485 -1.2563 -1.6780
  997SOL    HW2 2991   1.439   1.416   2.516 -1.3193  3.2628 -0.6626
  998SOL     OW 2992   3.010   2.291   0.701  0.4135  0.5126 -0.0582
  998SOL    HW1 2993   3.063   2.323   0.618 -0.6120  1.4384 -2.7379
  998SOL    HW2 2994   2.986   2.364   0.769 -0.2484  1.6252  1.3507
  999SOL     OW 2995   0.315   2.492   0.410  0.0477 -0.5606  0.2215
  999SOL    HW1 2996   0.363   2.535   0.488  0.3946  0.2679 -0.5019
  999SOL    HW2 2997   0.376   2.429   0.357 -0.0009  0.8122  1.7518
 1000SOL     OW 2998   1.052   0.138   0.097 -0.1304  0.0433  0.1118
 1000SOL    HW1 2999   0.973   0.085   0.139 -0.2024  1.5669  1.4021
 1000SOL    HW2 3000   1.068   0.105   3.100  0.2776 -0.1854 -0.1716
   3.10020   3.10020   3.10020
