1000 SPC/Fw water molecules t= 379.00000 step= 379000
 3000
    1SOL     OW    1   2.573   2.748   1.659  0.0787 -0.0296  0.2966
    1SOL    HW1    2   2.581   2.850   1.681  1.9368  0.6637 -2.0180
    1SOL    HW2    3   2.487   2.725   1.608  3.1650 -0.0422 -0.8331
    2SOL     OW    4   2.221   2.344   0.444 -0.1682 -0.2441 -0.7001
    2SOL    HW1    5   2.144   2.326   0.378 -2.9203  0.5735 -1.7716
    2SOL    HW2    6   2.289   2.412   0.403  1.9210  1.7052  0.2992
    3SOL     OW    7   1.130   0.172   0.128 -0.0472 -0.1499 -0.0917
    3SOL    HW1    8   1.104   0.234   0.204 -1.0036  2.5970 -2.2247
    3SOL    HW2    9   1.161   0.219   0.042 -1.3448 -2.0314  0.5242
    4SOL     OW   10   1.132   0.074   2.169  0.1894 -0.7569 -0.0116
    4SOL    HW1   11   1.152   0.055   2.266  0.6429  2.9966 -2.5130
    4SOL    HW2   12   1.188   0.016   2.107  1.4025  1.2516 -0.5898
    5SOL     OW   13   2.238   0.369   1.377 -0.5890 -0.6373 -0.2525
    5SOL    HW1   14   2.295   0.369   1.291  1.0999 -0.0901 -1.5655
    5SOL    HW2   15   2.207   0.273   1.390 -0.6170 -1.5909 -0.8592
    6SOL     OW   16   1.995   2.227   0.553 -0.2626 -0.1750 -0.3221
    6SOL    HW1   17   2.087   2.264   0.528  0.1382  0.4524  1.4934
    6SOL    HW2   18   1.994   2.131   0.515  0.2840 -0.2447 -0.8792
    7SOL     OW   19   2.110   1.068   0.961 -0.4352  0.6290  0.1668
    7SOL    HW1   20   2.086   1.152   1.015 -0.2099  0.6336 -1.6985
    7SOL    HW2   21   2.049   0.993   0.990  0.8121 -0.4863  2.1567
    8SOL     OW   22   0.958   1.310   1.170  0.4011 -0.0235 -0.2696
    8SOL    HW1   23   0.911   1.387   1.115 -0.5379  2.5072 -0.2324
    8SOL    HW2   24   0.890   1.263   1.232  1.6598  0.5958 -2.3397
    9SOL     OW   25   0.803   2.513   1.652  0.1274 -0.1732 -0.1900
    9SOL    HW1   26   0.771   2.607   1.673 -0.5318  1.0112  0.5116
    9SOL    HW2   27   0.725   2.447   1.638  2.5895  1.4981  0.8994
   10SOL     OW   28   1.060   2.319   0.564 -0.4802  0.6062  0.2947
   10SOL    HW1   29   0.976   2.307   0.623 -0.3932  1.1538  0.7193
   10SOL    HW2   30   1.128   2.241   0.584  2.1962 -3.0295  2.4508
   11SOL     OW   31   1.689   1.620   1.403 -0.3951 -0.2973  0.0004
   11SOL    HW1   32   1.701   1.725   1.386  2.1772  0.9166 -0.4924
   11SOL    HW2   33   1.731   1.564   1.332 -0.6190 -0.4222  0.8817
   12SOL     OW   34   2.654   0.451   1.923  0.0025 -0.2220  0.2884
   12SOL    HW1   35   2.760   0.448   1.909  2.1241 -0.9972  1.4995
   12SOL    HW2   36   2.633   0.539   1.971  1.1926  0.2821  2.1740
   13SOL     OW   37   2.507   0.338   0.543 -0.5025 -0.0366 -0.3160
   13SOL    HW1   38   2.448   0.311   0.464 -2.0183 -0.6065  3.7015
   13SOL    HW2   39   2.479   0.291   0.629 -1.6443  1.5675 -0.0346
   14SOL     OW   40   1.733   1.316   0.043  0.6468  0.2802 -0.3435
   14SOL    HW1   41   1.742   1.219   0.008  0.2257 -0.8704 -0.5424
   14SOL    HW2   42   1.702   1.380   3.052  0.9873 -0.4406 -0.6272
   15SOL     OW   43   2.452   2.431   1.626 -0.6521  0.1127  0.9788
   15SOL    HW1   44   2.426   2.523   1.588  0.0859 -0.6632  0.3496
   15SOL    HW2   45   2.472   2.436   1.723  1.1886  0.2358 -2.1173
   16SOL     OW   46   2.260   2.851   1.003  0.1200  0.4129 -0.1159
   16SOL    HW1   47   2.344   2.853   0.948 -2.3761  0.7130  2.9119
   16SOL    HW2   48   2.178   2.854   0.943 -3.3965 -1.0627  0.3291
   17SOL     OW   49   0.910   0.357   1.443 -0.3637 -0.2981 -0.0758
   17SOL    HW1   50   0.951   0.286   1.384 -2.6780  0.2412  2.3460
   17SOL    HW2   51   0.815   0.378   1.409 -1.3199  2.0932  0.8876
   18SOL     OW   52   1.763   0.370   0.732  0.3434  0.6221 -0.4868
   18SOL    HW1   53   1.667   0.378   0.767  1.3874 -1.5797 -1.5288
   18SOL    HW2   54   1.794   0.276   0.747  1.8757  1.5495  1.2587
   19SOL     OW   55   2.226   1.468   0.197  0.1697 -0.5318  0.1464
   19SOL    HW1   56   2.139   1.441   0.141 -3.5688  2.2721  0.4486
   19SOL    HW2   57   2.266   1.552   0.167 -2.6336 -0.4575  1.0981
   20SOL     OW   58   2.151   1.497   2.427  0.0441  0.0824 -0.1866
   20SOL    HW1   59   2.233   1.465   2.369  2.3742  1.8371  1.9625
   20SOL    HW2   60   2.056   1.464   2.396 -2.1477 -0.7824  0.4438
   21SOL     OW   61   1.397   0.395   0.606 -0.5445  0.6997 -0.1720
   21SOL    HW1   62   1.419   0.402   0.706 -0.1734  2.2127  1.5660
   21SOL    HW2   63   1.445   0.461   0.546  0.4558 -1.7326  0.9650
   22SOL     OW   64   2.691   0.749   1.227 -0.6395 -0.0024  0.6160
   22SOL    HW1   65   2.628   0.695   1.282  0.8726  0.3724 -0.7461
   22SOL    HW2   66   2.761   0.790   1.293  2.1469 -3.0901  2.4727
   23SOL     OW   67   0.239   0.121   1.929 -0.2902  0.3346  0.2697
   23SOL    HW1   68   0.282   0.199   1.981 -0.0124 -0.3625  0.3012
   23SOL    HW2   69   0.278   0.033   1.954  0.0764  1.4011  2.1002
   24SOL     OW   70   2.569   2.650   0.421 -0.2720  0.2266  0.2067
   24SOL    HW1   71   2.555   2.569   0.362  0.4430  1.2632 -2.1063
   24SOL    HW2   72   2.482   2.706   0.416 -0.4430  0.7031  1.4716
   25SOL     OW   73   1.417   0.060   2.754  0.3413  0.3032 -0.0886
   25SOL    HW1   74   1.377   3.063   2.706  1.4227 -2.3890 -0.7293
   25SOL    HW2   75   1.481   0.023   2.827  0.2845 -2.4317  2.1264
   26SOL     OW   76   1.623   2.668   0.151  0.2810 -0.6372 -0.2067
   26SOL    HW1   77   1.544   2.692   0.088 -0.3983 -0.0570 -0.3881
   26SOL    HW2   78   1.594   2.675   0.247 -0.5373 -0.1333  0.9089
   27SOL     OW   79   1.227   0.615   1.210  0.0657 -0.3349  0.0425
   27SOL    HW1   80   1.252   0.654   1.120 -2.5361  1.2837  1.5675
   27SOL    HW2   81   1.137   0.560   1.203 -1.7893 -1.8541 -0.7537
   28SOL     OW   82   1.419   1.365   0.852  0.0655 -0.3998  0.0957
   28SOL    HW1   83   1.368   1.342   0.770  3.1139  0.2953  1.3908
   28SOL    HW2   84   1.427   1.286   0.916 -3.9708  0.6312  1.7473
   29SOL     OW   85   2.860   0.053   1.779 -0.4582  0.3284 -0.0754
   29SOL    HW1   86   2.924   3.058   1.800 -1.2088  1.5025  0.2496
   29SOL    HW2   87   2.854   0.072   1.680 -0.9688  1.6214  3.9210
   30SOL     OW   88   1.178   3.010   1.256 -0.5908 -0.0558 -0.0215
   30SOL    HW1   89   1.134   2.954   1.334 -0.2607  0.0879  2.6059
   30SOL    HW2   90   1.271   3.033   1.284  0.4623 -0.2813 -1.6296
   31SOL     OW   91   1.879   2.954   1.829  0.0440  1.0337  0.2550
   31SOL    HW1   92   1.842   3.044   1.796 -1.9086 -1.5566  1.4849
   31SOL    HW2   93   1.898   2.886   1.754  0.4468 -1.7541 -2.3823
   32SOL     OW   94   0.969   1.803   0.054  0.0284  0.3855  0.0595
   32SOL    HW1   95   0.874   1.847   0.043 -0.1094  0.9379  0.3010
   32SOL    HW2   96   0.962   1.758   0.147  1.1281  1.0910 -1.9149
   33SOL     OW   97   2.938   0.886   2.088 -0.1101  0.4920  0.5120
   33SOL    HW1   98   2.926   0.900   1.987  2.3634  0.4550  0.2998
   33SOL    HW2   99   2.888   0.800   2.117  1.4125 -0.1750 -0.7159
   34SOL     OW  100   2.147   0.093   0.438  0.4685 -0.1516  0.4805
   34SOL    HW1  101   2.129   0.094   0.541 -2.1125 -1.1811  2.8059
   34SOL    HW2  102   2.063   0.113   0.384  0.0442  2.6786 -0.5299
   35SOL     OW  103   2.494   2.455   1.906 -0.1419 -0.4576 -0.4676
   35SOL    HW1  104   2.587   2.421   1.950  1.6927  0.7751  1.4680
   35SOL    HW2  105   2.412   2.408   1.945  0.4263 -0.5247  0.5766
   36SOL     OW  106   2.193   1.926   2.989  0.0774 -0.0053 -0.1244
   36SOL    HW1  107   2.232   1.981   2.911  1.7527 -0.1573  0.7154
   36SOL    HW2  108   2.140   1.840   2.964 -1.9068 -0.9920  0.3814
   37SOL     OW  109   1.972   0.226   1.552  0.7373 -0.0124  0.0386
   37SOL    HW1  110   2.053   0.257   1.603 -0.3726 -1.3643  2.3556
   37SOL    HW2  111   1.904   0.180   1.617  0.7557 -1.5906 -0.3710
   38SOL     OW  112   0.190   0.195   2.988  0.0894 -0.0263  0.2801
   38SOL    HW1  113   0.210   0.263   3.061 -1.5313 -2.0270  0.8867
   38SOL    HW2  114   0.224   0.099   3.004 -0.8116  0.1149  0.7977
   39SOL     OW  115   1.777   1.375   1.993  0.3168  0.2624 -0.3926
   39SOL    HW1  116   1.857   1.319   2.028 -0.5738  0.5992 -0.1511
   39SOL    HW2  117   1.803   1.469   1.971  0.7828  0.7872  0.5223
   40SOL     OW  118   1.287   1.982   0.881 -0.2719  0.7667  0.2295
   40SOL    HW1  119   1.386   1.956   0.886  1.1538  0.9088 -0.1145
   40SOL    HW2  120   1.252   2.006   0.789  1.4005 -1.6062  1.8441
   41SOL     OW  121   1.919   1.869   0.823 -0.0423  0.4857  0.3871
   41SOL    HW1  122   1.983   1.947   0.804  2.0886 -0.5202  1.6829
   41SOL    HW2  123   1.931   1.794   0.757 -2.2494  1.3999 -1.6017
   42SOL     OW  124   0.301   0.719   1.310  0.5937 -0.1088 -0.0479
   42SOL    HW1  125   0.262   0.624   1.323 -1.8423 -0.5729 -0.5962
   42SOL    HW2  126   0.358   0.748   1.386  0.1859 -0.2136 -0.1289
   43SOL     OW  127   0.174   1.540   2.697 -0.5907  0.5986 -0.2731
   43SOL    HW1  128   0.132   1.613   2.751  0.9705 -2.8059  0.5720
   43SOL    HW2  129   0.278   1.541   2.707  5.1585  1.3831 -0.8961
   44SOL     OW  130   1.693   2.743   1.334 -0.5173  0.6271  0.5288
   44SOL    HW1  131   1.693   2.646   1.360 -1.1873  2.9739  0.1110
   44SOL    HW2  132   1.718   2.805   1.411 -0.1682 -0.4084 -0.1259
   45SOL     OW  133   1.217   0.004   2.430  0.4848  0.3905 -1.1903
   45SOL    HW1  134   1.195   2.990   2.463 -0.1902  0.3220 -0.6621
   45SOL    HW2  135   1.184   0.072   2.495 -0.1379  0.9861  0.2747
   46SOL     OW  136   0.855   2.555   2.460  0.4870 -0.4429 -0.0516
   46SOL    HW1  137   0.925   2.581   2.393  0.8280 -1.4884  1.3230
   46SOL    HW2  138   0.799   2.633   2.485  1.7524 -0.6908 -1.8008
   47SOL     OW  139   0.999   2.113   0.921  0.4586  0.2051  0.1870
   47SOL    HW1  140   0.934   2.183   0.883  0.4997  0.0661 -1.7574
   47SOL    HW2  141   0.998   2.113   1.024  1.6268  0.9110  1.3258
   48SOL     OW  142   0.978   2.098   1.226  0.3375  0.2355  0.2835
   48SOL    HW1  143   0.921   2.173   1.264  1.7678 -0.3611  2.4362
   48SOL    HW2  144   0.928   2.011   1.230  0.1207 -0.4597 -1.4153
   49SOL     OW  145   2.431   0.485   2.912 -0.2107  0.2695  0.3734
   49SOL    HW1  146   2.369   0.563   2.932  4.2797 -2.9307 -0.6055
   49SOL    HW2  147   2.481   0.502   2.824 -1.8734 -0.7096  2.4745
   50SOL     OW  148   1.857   0.459   0.236 -0.2517  0.1173  0.2662
   50SOL    HW1  149   1.934   0.409   0.185  1.6645 -2.0992 -0.4161
   50SOL    HW2  150   1.882   0.560   0.257 -2.7777  3.6920 -1.2781
   51SOL     OW  151   2.056   0.690   1.192 -0.2823 -0.1786  0.3762
   51SOL    HW1  152   2.053   0.591   1.175 -0.3319 -1.8705 -0.4102
   51SOL    HW2  153   2.085   0.711   1.291  1.0360 -1.8351  3.9782
   52SOL     OW  154   0.534   1.716   0.142 -0.2588  0.0315  0.0170
   52SOL    HW1  155   0.574   1.622   0.132  0.2513  2.1756 -0.5793
   52SOL    HW2  156   0.456   1.721   0.082  2.5189 -0.1093 -1.7222
   53SOL     OW  157   0.221   1.178   2.866  0.4778  0.6692 -0.1646
   53SOL    HW1  158   0.180   1.149   2.955  2.4830 -1.2296  0.1742
   53SOL    HW2  159   0.295   1.242   2.885  0.6852 -0.4418 -0.4036
   54SOL     OW  160   2.640   1.431   1.975  0.1983  0.3781  0.1436
   54SOL    HW1  161   2.594   1.471   2.054  1.1074 -1.1352 -0.7371
   54SOL    HW2  162   2.714   1.369   2.008 -2.5821  0.4885 -0.1929
   55SOL     OW  163   2.308   1.782   0.337  0.2985  0.2676  0.1905
   55SOL    HW1  164   2.304   1.750   0.240 -0.0796 -0.6807  3.0622
   55SOL    HW2  165   2.274   1.708   0.399  2.5010 -1.9006 -1.5662
   56SOL     OW  166   1.891   0.092   1.338 -0.5770  0.3879 -0.5685
   56SOL    HW1  167   1.968   0.079   1.276 -0.4209  3.2749 -1.3179
   56SOL    HW2  168   1.929   0.143   1.418 -0.6710  1.1043  1.6929
   57SOL     OW  169   1.530   1.243   2.754  0.2684 -0.1333 -0.4329
   57SOL    HW1  170   1.480   1.156   2.770  1.4338  0.3125 -1.9879
   57SOL    HW2  171   1.545   1.263   2.657  0.4385 -0.0365  0.8330
   58SOL     OW  172   2.499   0.179   1.451  0.0332  0.2174 -0.0749
   58SOL    HW1  173   2.514   0.245   1.530 -0.5433 -0.4149  0.4479
   58SOL    HW2  174   2.553   0.208   1.371 -1.0821 -1.1707 -1.3247
   59SOL     OW  175   1.227   2.919   0.078  0.3048 -0.0786 -0.1120
   59SOL    HW1  176   1.206   2.989   0.007 -0.5670 -0.2557 -0.6448
   59SOL    HW2  177   1.265   2.965   0.158 -0.7736 -1.7634 -1.5294
   60SOL     OW  178   3.053   2.244   2.808  0.3751  0.5917 -0.0760
   60SOL    HW1  179   2.959   2.209   2.771 -2.1752  0.3854 -0.7038
   60SOL    HW2  180   0.022   2.162   2.842  0.0629 -0.9849  0.3698
   61SOL     OW  181   0.516   2.195   0.905 -0.0468 -0.3046  0.1019
   61SOL    HW1  182   0.571   2.251   0.972  0.4308  1.5091  2.3286
   61SOL    HW2  183   0.418   2.222   0.913 -0.6110  2.1784  0.4198
   62SOL     OW  184   1.968   1.789   2.585 -0.0061  0.4981 -0.1048
   62SOL    HW1  185   1.883   1.787   2.531  0.9150  2.6849  0.6648
   62SOL    HW2  186   1.986   1.702   2.639 -1.6407  1.5642  0.6030
   63SOL     OW  187   1.828   1.889   0.060 -0.4138  0.4699 -0.0502
   63SOL    HW1  188   1.806   1.963   3.080  0.7257 -1.9708  3.3144
   63SOL    HW2  189   1.886   1.817   0.012  0.1336 -0.7689  1.1125
   64SOL     OW  190   2.121   1.094   0.231  0.0067 -0.8239  0.7129
   64SOL    HW1  191   2.173   1.173   0.195  1.9109 -2.8092  1.5499
   64SOL    HW2  192   2.063   1.117   0.314 -1.9318  0.0481 -1.2747
   65SOL     OW  193   2.132   2.128   1.950  0.3820 -0.1534  0.3418
   65SOL    HW1  194   2.147   2.066   2.031 -0.6676  0.2846  0.1944
   65SOL    HW2  195   2.184   2.212   1.966 -0.0832 -0.5763 -1.6515
   66SOL     OW  196   0.494   0.828   1.449 -0.5488 -0.0394  0.2565
   66SOL    HW1  197   0.523   0.850   1.352  0.5354  1.7655 -1.2079
   66SOL    HW2  198   0.467   0.906   1.507  1.6722  0.0414  1.7431
   67SOL     OW  199   2.261   0.005   3.067  0.1310 -0.7122  0.0945
   67SOL    HW1  200   2.194   0.008   0.065 -0.9447  0.3519  1.4262
   67SOL    HW2  201   2.273   0.095   3.017  1.3131 -0.2251 -1.0374
   68SOL     OW  202   1.684   1.874   1.369 -0.2987 -0.4583 -0.2670
   68SOL    HW1  203   1.749   1.934   1.415  1.5939 -1.7186  0.7663
   68SOL    HW2  204   1.669   1.896   1.267 -0.5091  2.6157 -2.2326
   69SOL     OW  205   3.020   2.791   0.139  0.1678  0.0955 -0.0508
   69SOL    HW1  206   3.053   2.703   0.093  1.4668 -1.1270  0.0159
   69SOL    HW2  207   2.926   2.772   0.180  1.3703 -3.9397  2.2288
   70SOL     OW  208   0.231   0.627   1.888 -0.6182 -0.3710 -0.0577
   70SOL    HW1  209   0.236   0.530   1.853  0.3202 -3.1066  2.9616
   70SOL    HW2  210   0.176   0.686   1.828  0.1319 -0.1960  5.4761
   71SOL     OW  211   0.876   1.094   2.611 -0.9175  0.0171  0.2214
   71SOL    HW1  212   0.944   1.114   2.684 -1.0861  3.2850 -1.3348
   71SOL    HW2  213   0.869   0.995   2.597 -1.3941  1.4141 -2.3134
   72SOL     OW  214   2.814   1.695   1.917  0.1095  0.0369  0.4482
   72SOL    HW1  215   2.755   1.611   1.927 -1.6162 -3.1013  1.4268
   72SOL    HW2  216   2.869   1.680   1.832 -0.1004  0.5739  1.6001
   73SOL     OW  217   1.443   1.726   0.186 -0.3541 -0.4425 -0.0796
   73SOL    HW1  218   1.425   1.662   0.114  0.3686  1.4468  2.9223
   73SOL    HW2  219   1.418   1.679   0.271 -1.3347 -0.9436 -3.4899
   74SOL     OW  220   2.306   2.906   2.845 -0.0246 -0.0298 -0.1095
   74SOL    HW1  221   2.248   2.956   2.780  0.6285  2.8970  0.1988
   74SOL    HW2  222   2.303   2.954   2.933 -0.5852 -0.6394 -2.9245
   75SOL     OW  223   1.602   2.267   0.926  0.5221  0.3617 -0.1310
   75SOL    HW1  224   1.533   2.286   0.857  2.0962  1.2164  1.3243
   75SOL    HW2  225   1.653   2.176   0.906  2.0165 -3.4337  0.8851
   76SOL     OW  226   2.579   2.066   2.259 -0.3890  0.1284  0.3223
   76SOL    HW1  227   2.486   2.039   2.226 -0.4399 -1.4173  2.9229
   76SOL    HW2  228   2.646   1.984   2.249  2.2479 -2.0553 -1.5996
   77SOL     OW  229   0.574   2.857   1.922 -0.3026  0.4182 -0.4494
   77SOL    HW1  230   0.634   2.902   1.858 -4.5545  0.8543 -1.5891
   77SOL    HW2  231   0.623   2.792   1.990  2.5080 -1.0424  0.6743
   78SOL     OW  232   2.220   0.842   0.247  0.3353 -0.0474  0.0375
   78SOL    HW1  233   2.157   0.783   0.200  0.1630  0.2762  1.1051
   78SOL    HW2  234   2.171   0.931   0.251  1.9703 -1.3606  0.8020
   79SOL     OW  235   0.092   1.573   2.442  0.2957 -0.0782 -0.0063
   79SOL    HW1  236   0.128   1.582   2.537  0.8288  0.8912 -0.5439
   79SOL    HW2  237   0.117   1.481   2.400  0.7885  0.1370 -0.6648
   80SOL     OW  238   1.937   1.574   1.814 -0.1689  0.7428  0.0083
   80SOL    HW1  239   1.856   1.563   1.755 -0.1406  1.6214  0.0848
   80SOL    HW2  240   1.986   1.661   1.793  0.5354 -2.8545 -0.4612
   81SOL     OW  241   1.919   1.398   2.275 -0.1435 -0.0044  0.3759
   81SOL    HW1  242   1.933   1.310   2.223  0.3452  1.7403  2.9016
   81SOL    HW2  243   1.820   1.426   2.261 -2.4823 -1.0957  1.1472
   82SOL     OW  244   1.423   1.611   1.987 -0.1288 -0.0800  0.2609
   82SOL    HW1  245   1.324   1.637   1.988  1.0215 -0.4342  0.1753
   82SOL    HW2  246   1.447   1.525   1.938 -0.7517  1.7127 -1.1159
   83SOL     OW  247   0.337   0.473   0.451  0.3783  0.2086  0.4569
   83SOL    HW1  248   0.406   0.512   0.515  1.2391  1.4397 -0.1052
   83SOL    HW2  249   0.240   0.498   0.473  1.1068 -1.8274  1.1088
   84SOL     OW  250   0.065   0.457   0.456  0.0244 -0.0547 -0.1547
   84SOL    HW1  251   0.012   0.439   0.370 -0.6700  1.1059  2.9397
   84SOL    HW2  252   0.012   0.501   0.530  1.8651 -0.9168 -1.0055
   85SOL     OW  253   2.321   2.403   1.337 -0.3394 -0.1666 -0.3176
   85SOL    HW1  254   2.251   2.417   1.413 -0.4813  0.3604  0.2446
   85SOL    HW2  255   2.278   2.436   1.252  0.7842  0.9562  1.4525
   86SOL     OW  256   0.250   0.442   1.323 -0.8769  0.0835 -0.7262
   86SOL    HW1  257   0.303   0.354   1.313 -0.2676  0.6027  0.6088
   86SOL    HW2  258   0.151   0.425   1.312  3.2809  0.7296  0.5319
   87SOL     OW  259   0.153   2.575   1.996 -0.6434  0.2084  0.7315
   87SOL    HW1  260   0.121   2.524   1.913  2.8656 -2.2528  0.0347
   87SOL    HW2  261   0.097   2.532   2.072 -1.0215 -0.0567 -2.8214
   88SOL     OW  262   0.138   2.061   2.902 -0.3738  0.1137 -0.1598
   88SOL    HW1  263   0.107   1.961   2.894  1.1351  1.2765 -1.5034
   88SOL    HW2  264   0.232   2.067   2.944  1.3753  1.0676  1.6393
   89SOL     OW  265   1.037   0.823   0.587  0.8079 -0.3175 -0.4022
   89SOL    HW1  266   1.129   0.789   0.557 -2.4441  1.8996  0.2551
   89SOL    HW2  267   0.960   0.776   0.538  0.0989  0.0800 -1.3134
   90SOL     OW  268   0.139   1.527   2.079  0.3158 -0.1570  0.1279
   90SOL    HW1  269   0.152   1.562   1.981  1.3529  1.9725  1.1009
   90SOL    HW2  270   0.098   1.603   2.137 -0.0863  0.6953  0.3201
   91SOL     OW  271   1.543   0.717   0.835  0.2867  0.0283  0.0944
   91SOL    HW1  272   1.451   0.668   0.820  1.2371  0.8905  1.2398
   91SOL    HW2  273   1.616   0.650   0.835 -0.8998  0.7327 -1.9047
   92SOL     OW  274   2.344   1.355   0.835 -0.0057 -0.2211 -0.2068
   92SOL    HW1  275   2.305   1.282   0.773 -3.0584 -1.9576 -0.4979
   92SOL    HW2  276   2.433   1.320   0.869 -1.5365 -2.3543  0.6666
   93SOL     OW  277   0.104   1.121   2.628 -0.3268  0.4649 -0.0902
   93SOL    HW1  278   0.140   1.161   2.717  1.3111 -1.2864  0.6158
   93SOL    HW2  279   0.093   1.187   2.551  0.3611 -2.0050 -1.0929
   94SOL     OW  280   1.804   2.215   2.567 -0.0290 -0.1725 -0.2407
   94SOL    HW1  281   1.870   2.162   2.625 -2.2664 -0.1559 -0.2482
   94SOL    HW2  282   1.846   2.230   2.473  4.8515 -3.6150 -1.6139
   95SOL     OW  283   0.330   0.179   1.284 -0.6658  0.4445 -0.3535
   95SOL    HW1  284   0.402   0.126   1.332  1.0658 -0.2250 -2.9161
   95SOL    HW2  285   0.323   0.159   1.186 -0.0345  0.7068 -1.0864
   96SOL     OW  286   3.033   2.767   1.140 -0.2028  0.2305 -0.2104
   96SOL    HW1  287   2.945   2.739   1.102  1.9138  0.7770  1.9584
   96SOL    HW2  288   3.014   2.800   1.233 -0.4823 -0.8167 -1.7403
   97SOL     OW  289   2.592   0.653   1.460 -0.0198  0.2549 -0.3428
   97SOL    HW1  290   2.623   0.719   1.532  0.4427 -3.2805  0.4925
   97SOL    HW2  291   2.521   0.594   1.507  1.5021  1.5709 -1.2970
   98SOL     OW  292   1.713   2.529   1.819 -0.0998 -0.3132  0.0287
   98SOL    HW1  293   1.721   2.433   1.785  1.1145 -1.8840  0.6328
   98SOL    HW2  294   1.615   2.551   1.829 -0.2806 -1.2887 -1.1393
   99SOL     OW  295   0.400   3.078   1.522 -0.5620 -0.1780 -0.0761
   99SOL    HW1  296   0.315   0.028   1.570 -0.5803  0.1867  1.4674
   99SOL    HW2  297   0.428   2.987   1.561 -0.5212 -0.7615  0.6182
  100SOL     OW  298   1.833   0.194   2.588  0.6622 -0.2123  0.0673
  100SOL    HW1  299   1.810   0.194   2.686 -1.2756 -1.2974 -3.1144
  100SOL    HW2  300   1.929   0.217   2.580  0.6719 -1.8364 -1.0278
  101SOL     OW  301   3.007   0.344   2.417 -0.1049 -0.2324 -0.5243
  101SOL    HW1  302   3.065   0.318   2.338  0.9926 -1.9381  1.0443
  101SOL    HW2  303   2.959   0.435   2.411  0.2044  0.1866  0.8035
  102SOL     OW  304   0.366   0.517   1.555  0.9405 -0.4281  0.2148
  102SOL    HW1  305   0.344   0.500   1.455  0.9225 -0.2590 -1.2901
  102SOL    HW2  306   0.303   0.467   1.618  0.3679 -1.0398  3.7498
  103SOL     OW  307   0.820   0.501   2.748  0.1109 -0.6965 -0.0117
  103SOL    HW1  308   0.877   0.441   2.696 -2.3297  0.8305  2.4747
  103SOL    HW2  309   0.883   0.559   2.809  0.8983  3.0885  1.2556
  104SOL     OW  310   0.447   0.760   2.350 -0.4885  0.0318 -0.2389
  104SOL    HW1  311   0.501   0.848   2.343 -1.2829 -0.2712  1.0551
  104SOL    HW2  312   0.424   0.734   2.250 -2.7434 -3.7940 -2.2325
  105SOL     OW  313   2.372   1.970   1.363  0.3189 -0.2405  0.2308
  105SOL    HW1  314   2.373   2.032   1.446 -0.2004  2.3231  0.8835
  105SOL    HW2  315   2.311   2.015   1.295 -1.7186  0.3317 -0.9413
  106SOL     OW  316   1.615   0.102   0.564 -0.1401  0.0736 -0.3387
  106SOL    HW1  317   1.669   0.180   0.525 -0.5273  1.1376 -2.8350
  106SOL    HW2  318   1.513   0.120   0.570 -2.8701  1.5096  0.8836
  107SOL     OW  319   1.992   2.274   1.163 -0.1134 -0.0484  0.1835
  107SOL    HW1  320   1.957   2.208   1.094  2.7865  1.8630  2.7086
  107SOL    HW2  321   1.917   2.337   1.190 -1.8580 -0.8871  0.3743
  108SOL     OW  322   0.088   2.292   1.218  0.1965  0.8940 -0.3349
  108SOL    HW1  323   0.031   2.221   1.176 -1.2551 -0.6394 -0.5885
  108SOL    HW2  324   0.097   2.381   1.166 -0.2340 -1.1069 -1.4685
  109SOL     OW  325   2.272   2.403   0.715 -0.2071  0.2140 -0.3474
  109SOL    HW1  326   2.251   2.374   0.623  1.2243  1.8271  0.2777
  109SOL    HW2  327   2.211   2.481   0.743  0.1320  1.5814  0.6907
  110SOL     OW  328   1.177   1.737   1.934  0.1231 -0.4462 -0.0870
  110SOL    HW1  329   1.112   1.686   1.873  0.3626  1.3655  0.6280
  110SOL    HW2  330   1.176   1.834   1.908  0.6408 -0.1578  0.7269
  111SOL     OW  331   1.742   2.417   2.204  0.1447 -0.0183 -0.2262
  111SOL    HW1  332   1.765   2.340   2.143 -0.7520 -1.9474  0.1867
  111SOL    HW2  333   1.820   2.429   2.269 -0.2105 -0.4822 -2.2115
  112SOL     OW  334   1.331   2.003   3.049  0.3766  0.4020 -0.3549
  112SOL    HW1  335   1.330   1.940   0.047 -0.3605  1.6608 -0.5910
  112SOL    HW2  336   1.422   2.022   3.016 -2.3554 -0.5496  0.3704
  113SOL     OW  337   1.772   1.861   1.712  0.2265  0.0023  0.1765
  113SOL    HW1  338   1.773   1.762   1.695 -3.2548 -0.5512  2.0385
  113SOL    HW2  339   1.709   1.883   1.792 -0.5670  2.3718  0.1334
  114SOL     OW  340   0.231   1.226   1.410 -0.5709  0.4602  0.1397
  114SOL    HW1  341   0.267   1.219   1.314  0.4752 -0.2877  0.6709
  114SOL    HW2  342   0.131   1.222   1.420  0.2899 -1.6468 -1.2016
  115SOL     OW  343   0.596   0.771   0.205 -0.5135 -0.4579 -0.0726
  115SOL    HW1  344   0.614   0.674   0.212 -0.7987 -0.5951 -0.9164
  115SOL    HW2  345   0.612   0.806   0.113 -1.0747  1.4544 -1.2960
  116SOL     OW  346   2.496   1.554   2.185  0.2503 -0.3308  0.0027
  116SOL    HW1  347   2.405   1.529   2.148  1.9569  0.1613 -0.5251
  116SOL    HW2  348   2.513   1.491   2.262 -2.1222  0.9484 -1.4698
  117SOL     OW  349   2.885   2.454   0.332 -0.1398  0.6323 -0.4104
  117SOL    HW1  350   2.932   2.485   0.418  0.6338 -0.0725 -0.2499
  117SOL    HW2  351   2.837   2.367   0.351 -0.4857  2.4230 -1.4402
  118SOL     OW  352   0.695   1.772   2.620 -0.2728  0.2378  0.1095
  118SOL    HW1  353   0.701   1.747   2.718 -1.0043  1.4428  0.5933
  118SOL    HW2  354   0.598   1.794   2.597  1.0136  1.4124  1.1797
  119SOL     OW  355   0.703   2.300   0.403 -0.3888 -0.1069  0.0782
  119SOL    HW1  356   0.643   2.244   0.463 -0.1376  0.2153 -1.5286
  119SOL    HW2  357   0.757   2.231   0.344  0.0061 -1.5152 -1.3689
  120SOL     OW  358   1.459   0.546   0.103 -0.1026  0.0755  0.4004
  120SOL    HW1  359   1.512   0.462   0.088  1.1567  1.6526 -1.9918
  120SOL    HW2  360   1.385   0.559   0.033  0.9418 -0.9453  1.1238
  121SOL     OW  361   1.272   2.274   0.825 -0.3873 -0.2999 -0.1218
  121SOL    HW1  362   1.270   2.222   0.915  0.4081 -1.7261 -0.7104
  121SOL    HW2  363   1.284   2.215   0.744  0.9895  1.4814  1.5976
  122SOL     OW  364   2.770   2.197   1.854  0.4316  0.8728  0.2189
  122SOL    HW1  365   2.775   2.257   1.931  0.5053 -2.7124 -1.1804
  122SOL    HW2  366   2.743   2.103   1.885  0.8983 -1.6300  1.3040
  123SOL     OW  367   1.231   1.591   0.812 -0.0706  0.3634  0.0301
  123SOL    HW1  368   1.198   1.650   0.886  0.0351 -3.6407 -0.8344
  123SOL    HW2  369   1.261   1.511   0.859 -1.5943  1.8079 -2.0149
  124SOL     OW  370   2.867   0.787   0.361 -0.5570  0.3026  0.1262
  124SOL    HW1  371   2.846   0.876   0.408  0.1679  2.3563  2.4817
  124SOL    HW2  372   2.881   0.807   0.262 -1.2824 -0.7506 -0.2217
  125SOL     OW  373   0.312   0.274   0.258  0.2442 -0.1870 -0.6117
  125SOL    HW1  374   0.305   0.332   0.343 -0.6458 -0.6746 -0.3975
  125SOL    HW2  375   0.310   0.332   0.172  0.8439 -1.0018  1.5033
  126SOL     OW  376   3.044   1.737   0.692  0.4317 -0.5717  0.3153
  126SOL    HW1  377   0.030   1.813   0.672  2.2337  1.4224 -2.2324
  126SOL    HW2  378   2.947   1.767   0.675 -0.9851  0.6202 -0.1161
  127SOL     OW  379   1.331   2.479   1.410 -0.1156  0.3209 -0.1563
  127SOL    HW1  380   1.283   2.485   1.500  2.5709 -0.7783 -1.5685
  127SOL    HW2  381   1.272   2.503   1.331  1.1118  2.5655 -0.7149
  128SOL     OW  382   1.368   1.378   0.211 -0.2670  0.0953  0.1835
  128SOL    HW1  383   1.379   1.437   0.126 -2.3212 -0.9234  0.1900
  128SOL    HW2  384   1.368   1.280   0.181  1.0766 -0.3132 -0.6667
  129SOL     OW  385   1.921   2.062   1.368 -0.3810  0.0728 -0.2685
  129SOL    HW1  386   1.953   2.072   1.274  1.0204 -0.8006 -1.6925
  129SOL    HW2  387   1.910   2.157   1.413 -1.5532  0.4738  1.3411
  130SOL     OW  388   2.016   1.931   1.577  0.2293 -0.7977 -0.4867
  130SOL    HW1  389   1.932   1.909   1.633  1.1309  2.3106  2.4301
  130SOL    HW2  390   1.975   1.974   1.496 -2.8425 -0.6415  0.9586
  131SOL     OW  391   2.778   2.727   2.465  0.2647  0.4061 -0.0664
  131SOL    HW1  392   2.745   2.815   2.427  0.6659  1.9811  1.6588
  131SOL    HW2  393   2.824   2.740   2.558 -1.2318  0.5090  0.7410
  132SOL     OW  394   3.038   2.093   0.477 -0.0559  0.2614  0.1643
  132SOL    HW1  395   3.081   2.090   0.566 -2.2431  0.4695  0.4244
  132SOL    HW2  396   2.953   2.153   0.479 -1.2362 -0.2043 -1.3349
  133SOL     OW  397   0.299   0.328   2.147  0.1383 -0.0114  0.2349
  133SOL    HW1  398   0.386   0.360   2.106 -1.4866 -1.8736  0.9752
  133SOL    HW2  399   0.280   0.391   2.226  1.4355 -1.4609 -2.3394
  134SOL     OW  400   2.808   2.002   0.158  0.0034  0.0618 -0.3020
  134SOL    HW1  401   2.905   2.008   0.181  0.5520 -0.8607  0.9112
  134SOL    HW2  402   2.749   2.068   0.207 -1.0312 -0.5629 -1.7470
  135SOL     OW  403   1.669   1.009   2.590  0.4532 -0.1145 -0.0304
  135SOL    HW1  404   1.580   0.972   2.617  3.1646 -0.5603 -0.4041
  135SOL    HW2  405   1.664   1.109   2.568  0.0087 -1.4157 -0.5049
  136SOL     OW  406   2.397   1.781   0.991  0.5299  0.2619 -0.1753
  136SOL    HW1  407   2.368   1.801   0.898  0.6564 -0.6853  1.2071
  136SOL    HW2  408   2.495   1.797   1.001 -0.6487  1.8583  1.3970
  137SOL     OW  409   2.726   1.513   0.727 -0.3699 -0.1417 -0.1891
  137SOL    HW1  410   2.797   1.466   0.669  0.5845  1.0435  0.3577
  137SOL    HW2  411   2.672   1.587   0.681  2.0192 -2.3329  0.5595
  138SOL     OW  412   2.702   0.336   0.817 -0.3538  0.1071  0.4607
  138SOL    HW1  413   2.616   0.384   0.836  0.1730  1.1486  3.3864
  138SOL    HW2  414   2.779   0.398   0.834  0.1080  0.6134  4.2379
  139SOL     OW  415   0.111   2.667   2.994  0.0113  0.4420  0.6609
  139SOL    HW1  416   0.112   2.565   2.984  0.3914 -0.5072  2.1506
  139SOL    HW2  417   0.091   2.706   2.902 -1.3287  1.6563  0.3117
  140SOL     OW  418   0.883   1.890   1.820  0.0638  0.4558  0.0274
  140SOL    HW1  419   0.977   1.926   1.803 -0.4966 -0.9325 -1.1526
  140SOL    HW2  420   0.874   1.842   1.909  0.5875 -0.1643 -1.5858
  141SOL     OW  421   1.505   1.821   0.787  0.1754 -0.2081 -0.4145
  141SOL    HW1  422   1.491   1.748   0.722 -0.6056  0.0748  2.7721
  141SOL    HW2  423   1.505   1.777   0.879 -0.0332 -0.9296  0.1972
  142SOL     OW  424   1.166   0.823   0.987  0.8693 -0.0383 -0.1702
  142SOL    HW1  425   1.074   0.841   0.938 -2.0636 -2.7482 -3.7038
  142SOL    HW2  426   1.164   0.860   1.083  0.4849 -2.0790 -0.4321
  143SOL     OW  427   0.677   1.306   3.013  0.3005 -0.3284 -0.1841
  143SOL    HW1  428   0.690   1.214   2.965 -1.1390  2.0128  0.3377
  143SOL    HW2  429   0.575   1.334   3.007 -5.6850  0.3722  0.8943
  144SOL     OW  430   2.020   2.851   0.880 -0.0289 -0.7293 -0.4227
  144SOL    HW1  431   2.017   2.935   0.819 -0.5327 -1.3216  1.3188
  144SOL    HW2  432   1.962   2.857   0.962  1.4329 -0.3286 -0.1623
  145SOL     OW  433   2.165   0.691   2.494 -0.5977 -0.6480 -0.2733
  145SOL    HW1  434   2.210   0.737   2.578 -1.4256  1.8336  2.2153
  145SOL    HW2  435   2.238   0.679   2.421  0.1189 -0.0999  0.0347
  146SOL     OW  436   2.934   2.517   0.858 -0.2706  0.6266 -0.3647
  146SOL    HW1  437   2.844   2.479   0.837  0.0791  0.8885 -0.4382
  146SOL    HW2  438   2.958   2.594   0.790  2.6885  1.6176 -1.5098
  147SOL     OW  439   1.243   0.880   2.411 -0.0733  0.1157 -0.1627
  147SOL    HW1  440   1.189   0.966   2.400  2.1501 -2.1296  0.2443
  147SOL    HW2  441   1.260   0.844   2.316 -1.1024 -0.7755 -0.0782
  148SOL     OW  442   1.214   0.425   2.455  0.0116  0.2731  0.0687
  148SOL    HW1  443   1.253   0.452   2.364 -0.6762 -1.1676  1.5261
  148SOL    HW2  444   1.276   0.354   2.496 -2.2395  0.0311 -0.8727
  149SOL     OW  445   2.078   3.049   2.055  0.2733 -0.0915  0.3277
  149SOL    HW1  446   2.023   3.014   1.974 -0.9653 -1.0665 -1.3907
  149SOL    HW2  447   2.081   2.973   2.122 -0.4046 -2.4613  1.7983
  150SOL     OW  448   2.371   2.737   3.044  0.0198 -0.3360 -0.7248
  150SOL    HW1  449   2.341   2.769   2.955  0.0273  1.3319  1.1068
  150SOL    HW2  450   2.471   2.765   3.051 -0.1061  0.7544 -1.4072
  151SOL     OW  451   0.436   1.383   2.942  0.6619 -0.0216 -0.2092
  151SOL    HW1  452   0.360   1.399   3.011 -0.7407 -1.7359  0.7425
  151SOL    HW2  453   0.440   1.449   2.867  1.0449  1.0668  2.2509
  152SOL     OW  454   3.046   0.157   1.226 -0.1157  0.3760 -0.3511
  152SOL    HW1  455   3.075   0.166   1.325  0.3410  0.1119  0.1156
  152SOL    HW2  456   3.012   0.242   1.182  0.1445  0.0981  0.6492
  153SOL     OW  457   2.262   0.010   1.683  0.4272 -0.4001  0.0902
  153SOL    HW1  458   2.260   2.990   1.693  0.0591 -1.6625  0.7547
  153SOL    HW2  459   2.252   0.043   1.587  1.7972 -3.0627  3.7342
  154SOL     OW  460   1.870   0.380   2.084  0.2612  0.1057 -0.1159
  154SOL    HW1  461   1.883   0.401   2.185  1.2554  2.7250 -0.2708
  154SOL    HW2  462   1.775   0.398   2.050 -2.3865 -1.8746  0.4257
  155SOL     OW  463   0.076   1.798   0.392  0.3189  0.2108 -0.7190
  155SOL    HW1  464   0.175   1.776   0.381 -3.3690  1.6118 -1.8808
  155SOL    HW2  465   0.064   1.895   0.427 -0.8788  1.0271 -1.0399
  156SOL     OW  466   2.777   1.558   3.042 -0.2858  0.0415  0.1852
  156SOL    HW1  467   2.813   1.640   2.992 -0.8904 -3.1373  0.0098
  156SOL    HW2  468   2.779   1.570   0.060  2.6520  1.9317 -1.4445
  157SOL     OW  469   0.510   0.293   0.784 -0.0358 -0.3954  0.5066
  157SOL    HW1  470   0.453   0.208   0.752 -1.2017 -1.8857 -0.8607
  157SOL    HW2  471   0.603   0.270   0.823 -0.1169 -1.0582  1.0976
  158SOL     OW  472   2.153   0.759   1.440 -0.5242 -0.1282  0.5189
  158SOL    HW1  473   2.186   0.857   1.466  2.2849  3.0531  0.7907
  158SOL    HW2  474   2.239   0.695   1.434 -0.8663  0.6484 -0.2250
  159SOL     OW  475   0.151   0.216   0.635  0.1817 -0.1711 -0.1432
  159SOL    HW1  476   0.058   0.172   0.632  0.7377 -2.1113 -0.7959
  159SOL    HW2  477   0.150   0.279   0.554 -0.7759 -1.1882  0.6086
  160SOL     OW  478   2.211   2.119   1.692  0.2225  0.3126 -0.4693
  160SOL    HW1  479   2.171   2.115   1.786  2.2854  0.1758  1.0969
  160SOL    HW2  480   2.169   2.048   1.632  0.5270  0.3819 -1.5653
  161SOL     OW  481   0.073   0.856   2.524  0.0477 -0.4762 -0.1618
  161SOL    HW1  482   0.107   0.769   2.558 -1.0939  1.5636  1.8893
  161SOL    HW2  483   0.116   0.934   2.569  1.3387 -1.8779  2.7122
  162SOL     OW  484   0.770   2.805   1.623  0.4112 -0.9793 -0.4659
  162SOL    HW1  485   0.776   2.877   1.695  0.1604  0.6264 -1.2739
  162SOL    HW2  486   0.810   2.837   1.531  0.3747  0.1970 -1.2877
  163SOL     OW  487   2.754   0.211   2.359  0.3016 -0.1757  0.2562
  163SOL    HW1  488   2.772   0.117   2.391 -1.4359 -1.1472 -0.2526
  163SOL    HW2  489   2.836   0.273   2.363  0.1889 -0.2073 -1.4945
  164SOL     OW  490   2.270   1.706   0.072 -0.4310 -0.1810  0.2088
  164SOL    HW1  491   2.210   1.777   0.029  0.2491 -0.9574  1.4205
  164SOL    HW2  492   2.328   1.658   0.003  0.6917  0.0605 -1.6435
  165SOL     OW  493   0.018   0.239   1.520  0.4332 -0.1136  0.3560
  165SOL    HW1  494   0.076   0.159   1.539  1.0375  2.2250  0.1447
  165SOL    HW2  495   2.999   0.225   1.530  0.9223 -0.9692 -2.0567
  166SOL     OW  496   2.102   0.877   0.612  0.4263 -0.5187 -0.4113
  166SOL    HW1  497   2.111   0.971   0.652  1.9416  2.8100  0.3254
  166SOL    HW2  498   2.022   0.870   0.545 -1.4871 -1.2612 -0.4783
  167SOL     OW  499   2.523   0.903   2.784 -0.2419 -0.2348 -0.5097
  167SOL    HW1  500   2.434   0.873   2.753  0.6567 -0.6958  3.0084
  167SOL    HW2  501   2.518   0.919   2.888 -4.5319  1.9553 -1.8062
  168SOL     OW  502   1.730   0.230   2.839 -0.6216 -0.5740 -0.4837
  168SOL    HW1  503   1.684   0.313   2.874 -1.0160 -0.7563 -0.3880
  168SOL    HW2  504   1.670   0.155   2.857  2.8627 -0.2451  0.7794
  169SOL     OW  505   0.282   1.631   0.874 -0.3910  0.1041  0.1617
  169SOL    HW1  506   0.265   1.585   0.959 -0.7330 -1.1692 -0.8834
  169SOL    HW2  507   0.198   1.627   0.817  0.5224 -0.7389  1.0641
  170SOL     OW  508   2.927   1.022   1.039 -0.1459 -0.6764 -0.0993
  170SOL    HW1  509   2.924   1.069   1.128  2.8695  0.7073 -2.9070
  170SOL    HW2  510   2.934   1.089   0.962  0.0422 -1.6280 -1.7392
  171SOL     OW  511   2.444   1.868   2.056 -0.2346  0.5698  0.3499
  171SOL    HW1  512   2.396   1.809   1.990  0.7860  1.0920  0.1994
  171SOL    HW2  513   2.490   1.816   2.132 -0.8428  0.0864 -0.3637
  172SOL     OW  514   0.455   1.951   1.365  0.1263 -0.2165  0.6155
  172SOL    HW1  515   0.436   2.036   1.312 -0.7091 -0.8252 -1.4273
  172SOL    HW2  516   0.536   1.961   1.427  0.8081 -0.4186  0.7696
  173SOL     OW  517   1.608   1.453   2.897 -0.0966  0.0547 -0.3925
  173SOL    HW1  518   1.569   1.365   2.866 -0.5831  0.7683  2.4277
  173SOL    HW2  519   1.617   1.516   2.814  0.0383  1.3498  0.0403
  174SOL     OW  520   1.245   0.689   2.756  0.0450  0.1287 -0.1457
  174SOL    HW1  521   1.329   0.638   2.780  1.0843  0.4210  1.3453
  174SOL    HW2  522   1.222   0.657   2.661  0.8231  0.2479 -0.6574
  175SOL     OW  523   1.360   1.385   1.362 -0.1793 -0.8521  0.3005
  175SOL    HW1  524   1.365   1.399   1.464  0.2156  3.2842  1.2900
  175SOL    HW2  525   1.284   1.321   1.335  1.0406  2.1060 -0.7277
  176SOL     OW  526   1.337   0.158   0.536 -0.6060 -0.6423 -0.5311
  176SOL    HW1  527   1.298   0.117   0.618  3.2821  0.3502  1.3882
  176SOL    HW2  528   1.359   0.261   0.561 -0.5014  3.5257 -0.0587
  177SOL     OW  529   0.345   0.847   0.191 -0.6269  0.1449 -0.0383
  177SOL    HW1  530   0.283   0.765   0.191 -1.4857 -2.2842 -0.6699
  177SOL    HW2  531   0.443   0.814   0.190 -0.5595  0.0767  2.0892
  178SOL     OW  532   2.588   2.351   2.312  0.2485  0.1017 -0.2327
  178SOL    HW1  533   2.625   2.387   2.397 -0.3958 -0.7002  1.3281
  178SOL    HW2  534   2.615   2.253   2.308  2.2593 -3.2425 -1.5932
  179SOL     OW  535   3.008   0.178   2.637 -0.0476 -0.4206  0.0301
  179SOL    HW1  536   2.917   0.145   2.648  1.9089  1.4322  1.7306
  179SOL    HW2  537   3.013   0.246   2.560 -0.7053 -1.2772 -0.6397
  180SOL     OW  538   2.165   0.444   1.023 -0.0719  0.1907  0.4645
  180SOL    HW1  539   2.252   0.456   1.078  1.1946 -2.1098 -0.8413
  180SOL    HW2  540   2.162   0.520   0.950  0.6035  1.0814 -2.0193
  181SOL     OW  541   2.047   0.912   2.373 -0.2022 -0.1025 -0.4839
  181SOL    HW1  542   2.109   0.831   2.388  1.1185  1.8625 -0.1251
  181SOL    HW2  543   1.951   0.884   2.385  1.6742  0.6846  2.0214
  182SOL     OW  544   2.715   2.392   2.071 -0.3328  0.1535  0.0713
  182SOL    HW1  545   2.765   2.483   2.080 -0.2639  1.7619  2.4191
  182SOL    HW2  546   2.652   2.375   2.153 -2.0454 -4.1945  0.2769
  183SOL     OW  547   2.060   0.559   1.633  0.0913  0.9821 -0.3506
  183SOL    HW1  548   2.095   0.466   1.660  0.2295 -1.0165  2.1893
  183SOL    HW2  549   2.120   0.609   1.566  1.0004  2.5416  2.0607
  184SOL     OW  550   0.204   1.563   1.138 -0.2391 -0.3662 -0.1947
  184SOL    HW1  551   0.205   1.465   1.145 -0.5843  3.6115  0.2904
  184SOL    HW2  552   0.118   1.593   1.179  1.5976 -2.9270 -1.0229
  185SOL     OW  553   2.366   0.079   0.838  0.3476  0.0071 -0.4611
  185SOL    HW1  554   2.399   0.134   0.920  2.7885  1.3360  2.2476
  185SOL    HW2  555   2.425   3.077   0.833 -0.1687 -3.3182 -0.8550
  186SOL     OW  556   2.348   2.525   2.656 -0.8113 -0.7470  0.3754
  186SOL    HW1  557   2.395   2.616   2.673 -2.2191  2.3949  1.9509
  186SOL    HW2  558   2.409   2.446   2.682 -0.5950 -0.6284  0.4149
  187SOL     OW  559   0.288   1.502   0.521  0.5898  0.3313  0.1730
  187SOL    HW1  560   0.234   1.420   0.501 -2.9500 -0.1299 -1.1875
  187SOL    HW2  561   0.384   1.477   0.542  0.5838  1.5003  0.2510
  188SOL     OW  562   2.019   1.264   1.131 -0.1114 -0.6535 -0.3010
  188SOL    HW1  563   2.090   1.337   1.132  0.5430  2.3475 -1.5583
  188SOL    HW2  564   1.930   1.296   1.165  2.0504  0.2378 -0.1876
  189SOL     OW  565   0.217   0.908   2.277  0.4251 -0.0676  0.1807
  189SOL    HW1  566   0.283   0.851   2.335 -0.7315 -1.5011  0.3589
  189SOL    HW2  567   0.144   0.942   2.333  0.4486 -1.1229  0.7598
  190SOL     OW  568   1.973   0.780   1.825 -0.1222  0.4288 -0.2150
  190SOL    HW1  569   1.962   0.877   1.789  0.0422  1.1993 -0.3799
  190SOL    HW2  570   2.012   0.714   1.759 -0.2793 -0.3481  0.5278
  191SOL     OW  571   0.982   0.273   2.261 -0.2405  0.6901  0.5789
  191SOL    HW1  572   0.899   0.231   2.296  3.7198 -0.9004 -3.5019
  191SOL    HW2  573   1.035   0.199   2.218  0.3965  1.9216  1.0914
  192SOL     OW  574   1.166   1.993   1.845  0.4109  0.3435 -0.0607
  192SOL    HW1  575   1.161   2.040   1.754  0.3034  0.6049  1.3751
  192SOL    HW2  576   1.114   2.041   1.920  0.9101  0.1547  0.4531
  193SOL     OW  577   1.316   0.204   0.864  0.0616  0.3467  0.6497
  193SOL    HW1  578   1.259   0.284   0.881  1.3471 -1.3727 -1.9781
  193SOL    HW2  579   1.266   0.123   0.822 -1.8558 -0.9467 -1.4382
  194SOL     OW  580   1.080   2.091   1.620 -0.3837  0.5990  0.5456
  194SOL    HW1  581   0.991   2.121   1.579  2.1522  0.6006  0.6320
  194SOL    HW2  582   1.141   2.057   1.548  0.4004  0.8325  1.4126
  195SOL     OW  583   1.701   0.476   0.467  0.0203 -0.5951  0.0300
  195SOL    HW1  584   1.761   0.498   0.383  3.0765  2.3342 -4.1284
  195SOL    HW2  585   1.749   0.448   0.551  0.0063  0.3242  2.0780
  196SOL     OW  586   0.812   1.573   2.171  0.1417 -0.5259 -0.0578
  196SOL    HW1  587   0.871   1.563   2.249 -2.5682  0.9220 -0.8858
  196SOL    HW2  588   0.727   1.516   2.185  1.3004 -3.4944 -0.0406
  197SOL     OW  589   0.570   0.690   1.707  0.1119  0.3843 -0.8146
  197SOL    HW1  590   0.656   0.715   1.666 -3.1147 -1.2608 -0.0784
  197SOL    HW2  591   0.497   0.674   1.640  1.4165  0.7318 -0.8247
  198SOL     OW  592   0.746   0.749   0.969  0.0991  0.5942 -0.2655
  198SOL    HW1  593   0.828   0.793   0.923 -1.0895  0.8100  2.3041
  198SOL    HW2  594   0.658   0.776   0.941  4.5587  0.5481  1.3528
  199SOL     OW  595   0.630   2.320   1.645 -0.1449  0.7241 -0.7225
  199SOL    HW1  596   0.647   2.244   1.713  0.2299 -0.5786 -3.1091
  199SOL    HW2  597   0.542   2.312   1.597  0.6122  1.0453  0.6843
  200SOL     OW  598   1.687   1.062   2.118  0.3552 -0.0195  0.6547
  200SOL    HW1  599   1.653   1.030   2.208  0.3946 -3.2708 -3.4267
  200SOL    HW2  600   1.711   0.978   2.062 -1.0691 -0.6854  1.0690
  201SOL     OW  601   0.687   2.074   1.822 -0.1460  0.1076  0.0201
  201SOL    HW1  602   0.779   2.028   1.823  1.6803 -1.9243  0.6129
  201SOL    HW2  603   0.604   2.020   1.806  1.0273  1.3195  0.2638
  202SOL     OW  604   1.300   0.022   0.269  0.2352 -0.2460 -0.0311
  202SOL    HW1  605   1.214   0.073   0.227 -4.6658  2.3638 -0.7673
  202SOL    HW2  606   1.325   0.061   0.358 -1.6771  0.2913 -0.0960
  203SOL     OW  607   1.435   0.106   2.245 -0.0532  0.7276 -0.3103
  203SOL    HW1  608   1.339   0.087   2.280  2.4061  0.6093 -0.8752
  203SOL    HW2  609   1.487   0.015   2.261 -1.0068 -1.5013  0.8335
  204SOL     OW  610   0.712   1.631   1.871 -0.2226  0.1226 -0.0089
  204SOL    HW1  611   0.713   1.559   1.799 -0.3238 -1.5214 -0.5085
  204SOL    HW2  612   0.776   1.607   1.949 -0.0548  1.9872  1.4254
  205SOL     OW  613   2.164   1.113   2.543  0.3447 -0.8888 -0.2670
  205SOL    HW1  614   2.129   1.041   2.479 -0.2939  0.9434 -1.2815
  205SOL    HW2  615   2.250   1.145   2.508  0.4633 -0.5003  0.3132
  206SOL     OW  616   0.098   1.735   2.242 -0.1527  0.3918  0.9594
  206SOL    HW1  617   0.033   1.805   2.268 -0.3082 -0.4504 -2.6804
  206SOL    HW2  618   0.097   1.679   2.328 -2.2472  0.1578 -0.5642
  207SOL     OW  619   1.168   2.894   1.514  0.2911  0.0072 -0.2893
  207SOL    HW1  620   1.149   2.810   1.572 -1.0034  0.6820 -0.7299
  207SOL    HW2  621   1.162   2.980   1.576  1.1975  1.3517  1.9919
  208SOL     OW  622   0.329   2.414   1.259 -0.4013  0.3799  0.5408
  208SOL    HW1  623   0.301   2.512   1.277  1.5264  2.3179 -2.4804
  208SOL    HW2  624   0.248   2.359   1.229  2.9435 -0.0747  0.8823
  209SOL     OW  625   1.200   2.867   0.469  0.6952 -0.2050 -0.6728
  209SOL    HW1  626   1.158   2.775   0.460  2.2850  1.4357  0.8129
  209SOL    HW2  627   1.168   2.941   0.403  2.7693  1.4311 -0.6923
  210SOL     OW  628   2.912   1.352   1.028 -0.4033 -0.3241 -0.0305
  210SOL    HW1  629   2.860   1.433   1.000 -1.6185 -2.7368 -0.7589
  210SOL    HW2  630   3.005   1.347   0.982  1.4189 -2.6169 -0.9394
  211SOL     OW  631   0.604   0.863   1.909  0.0588 -0.6015 -0.4472
  211SOL    HW1  632   0.592   0.800   1.827  1.7820 -2.2752  1.7496
  211SOL    HW2  633   0.699   0.858   1.949  0.3546 -3.4525  2.7050
  212SOL     OW  634   1.472   2.154   1.626 -0.2529  0.3179 -0.1074
  212SOL    HW1  635   1.490   2.188   1.527  0.4008 -0.2434 -4.2485
  212SOL    HW2  636   1.468   2.054   1.625  2.5710 -0.8872 -0.3111
  213SOL     OW  637   2.851   0.109   1.518 -0.0233  0.1445  0.0653
  213SOL    HW1  638   2.810   0.199   1.497 -0.5026 -0.2877 -0.3022
  213SOL    HW2  639   2.851   0.059   1.430  0.6754  1.6088  2.8112
  214SOL     OW  640   1.122   2.689   1.701 -0.1916  0.1069  0.5449
  214SOL    HW1  641   1.118   2.588   1.687  1.4847 -1.3152 -1.3246
  214SOL    HW2  642   1.114   2.714   1.796 -0.4524 -0.5450 -2.1193
  215SOL     OW  643   2.587   1.860   1.278 -0.5795  0.7133  0.2921
  215SOL    HW1  644   2.507   1.909   1.316 -1.1723 -0.2044 -0.0691
  215SOL    HW2  645   2.563   1.764   1.251  0.6684 -0.2562  1.2905
  216SOL     OW  646   0.232   0.984   1.771 -1.0222 -0.0273  0.4863
  216SOL    HW1  647   0.266   0.994   1.866  1.8688  0.8068  0.2871
  216SOL    HW2  648   0.168   0.909   1.763  1.5806 -0.0748  0.4375
  217SOL     OW  649   2.620   0.372   1.240  0.3959 -0.0398 -0.6753
  217SOL    HW1  650   2.668   0.430   1.173  0.7822  0.3082  1.2660
  217SOL    HW2  651   2.670   0.379   1.328  1.2273  0.0292 -1.4624
  218SOL     OW  652   1.476   2.157   1.159  0.3010 -0.1803  0.0077
  218SOL    HW1  653   1.506   2.195   1.074 -1.8302 -0.4652  0.2374
  218SOL    HW2  654   1.373   2.170   1.165  0.8260 -1.8623 -1.1806
  219SOL     OW  655   1.453   2.548   0.382  0.0629  0.1282  0.3646
  219SOL    HW1  656   1.400   2.600   0.451  0.1222  0.0468  0.0125
  219SOL    HW2  657   1.414   2.455   0.361 -2.4321  1.6651 -1.4714
  220SOL     OW  658   1.731   2.413   0.124  0.1757  0.0082 -0.1425
  220SOL    HW1  659   1.790   2.412   0.204  1.8733 -1.2457  0.1329
  220SOL    HW2  660   1.702   2.509   0.109  1.4584 -2.5932  3.7391
  221SOL     OW  661   2.623   2.031   0.831 -0.6286  0.3249 -0.0024
  221SOL    HW1  662   2.569   2.058   0.749 -0.4421  1.5837 -0.8302
  221SOL    HW2  663   2.705   2.093   0.842  1.1361  0.2261 -2.1634
  222SOL     OW  664   0.900   1.969   0.712  0.4648 -0.5560  0.2459
  222SOL    HW1  665   0.951   2.008   0.790 -0.9060 -1.5696  2.4398
  222SOL    HW2  666   0.810   2.011   0.711 -0.4907  0.1938  0.4546
  223SOL     OW  667   1.134   2.836   2.503 -0.0603  0.1866  0.2464
  223SOL    HW1  668   1.116   2.779   2.420  1.6454  0.5717  0.6179
  223SOL    HW2  669   1.074   2.804   2.578 -0.9257 -0.0172  1.6993
  224SOL     OW  670   2.555   1.120   1.130 -0.2574 -0.6083 -0.2565
  224SOL    HW1  671   2.560   1.196   1.064  0.0815 -3.0168 -0.4509
  224SOL    HW2  672   2.492   1.050   1.093  1.1856  1.3874 -0.4165
  225SOL     OW  673   2.790   1.608   0.986 -0.3987 -0.2792  0.1000
  225SOL    HW1  674   2.803   1.580   0.887 -0.4729  1.9710 -1.1127
  225SOL    HW2  675   2.726   1.686   0.991  2.9248 -2.3640  0.1606
  226SOL     OW  676   1.125   2.536   0.809  0.5501 -0.1958  0.2602
  226SOL    HW1  677   1.039   2.549   0.753  0.6377 -0.6737 -2.8863
  226SOL    HW2  678   1.170   2.448   0.796 -0.8309  0.3534 -1.1030
  227SOL     OW  679   1.157   1.199   1.341 -0.5290  0.3568 -0.6387
  227SOL    HW1  680   1.127   1.151   1.426 -3.4339  0.2050  1.6549
  227SOL    HW2  681   1.082   1.258   1.299  0.4870  0.9316  1.8934
  228SOL     OW  682   1.390   0.320   2.064  0.2001  0.1264 -0.7553
  228SOL    HW1  683   1.419   0.252   2.137  0.8689  1.4388  3.5907
  228SOL    HW2  684   1.310   0.288   2.011  0.2547 -2.4829  2.1082
  229SOL     OW  685   2.894   0.798   2.463 -0.0895  0.2257 -0.2822
  229SOL    HW1  686   2.878   0.876   2.401 -2.2594 -2.7026  2.7781
  229SOL    HW2  687   2.990   0.783   2.489  2.3672  1.0639  0.5836
  230SOL     OW  688   0.407   1.280   0.874  0.1072  0.4382  0.6177
  230SOL    HW1  689   0.312   1.253   0.853 -2.5901  0.0661  0.0547
  230SOL    HW2  690   0.432   1.367   0.831 -2.2218 -2.1323  0.3042
  231SOL     OW  691   2.121   3.012   2.696  0.2608  0.3087  1.1417
  231SOL    HW1  692   2.048   2.971   2.644 -1.3152 -3.4180  0.9421
  231SOL    HW2  693   2.162   0.003   2.643  2.3713  1.0857  1.0100
  232SOL     OW  694   0.341   1.686   2.996 -0.1583  0.1094 -0.0582
  232SOL    HW1  695   0.265   1.653   3.061 -0.8645 -1.9789  0.7249
  232SOL    HW2  696   0.313   1.753   2.923  1.6538  0.0636 -2.5733
  233SOL     OW  697   1.292   2.646   2.820 -0.2475 -0.2214 -0.1127
  233SOL    HW1  698   1.333   2.620   2.916 -1.0790 -1.1497  1.2872
  233SOL    HW2  699   1.313   2.743   2.797 -3.9492 -1.2658  3.3085
  234SOL     OW  700   1.077   1.377   1.998 -0.4459 -0.1239 -0.8445
  234SOL    HW1  701   1.138   1.390   2.081  0.1617 -0.2356  0.9282
  234SOL    HW2  702   0.984   1.347   2.025  1.3132 -0.1947  0.9405
  235SOL     OW  703   0.408   2.062   1.696  0.0567  0.2365 -0.3210
  235SOL    HW1  704   0.409   2.104   1.603  1.9648  0.4746  1.1479
  235SOL    HW2  705   0.452   1.970   1.693  0.0659 -0.1877  0.1744
  236SOL     OW  706   1.557   2.089   2.863  1.1072 -0.1500 -0.1227
  236SOL    HW1  707   1.650   2.112   2.886  0.2954 -0.1661 -1.3766
  236SOL    HW2  708   1.513   2.170   2.818 -1.5069  1.2128  2.4544
  237SOL     OW  709   1.524   0.410   0.862 -0.0491  0.5816  0.0955
  237SOL    HW1  710   1.528   0.477   0.936 -0.5149 -1.6619 -2.6243
  237SOL    HW2  711   1.467   0.330   0.884 -0.9500  2.6984 -1.0530
  238SOL     OW  712   0.972   0.387   2.534 -0.0903  0.1078  0.4496
  238SOL    HW1  713   0.897   0.353   2.473  3.3456  1.2312  0.1194
  238SOL    HW2  714   1.046   0.412   2.470 -0.8685 -2.6052 -2.1515
  239SOL     OW  715   0.750   3.008   1.808 -0.2329  0.4432  0.2383
  239SOL    HW1  716   0.656   3.050   1.823  0.7968 -1.5989  0.5873
  239SOL    HW2  717   0.826   3.058   1.857  1.2638 -0.9068 -1.5657
  240SOL     OW  718   2.405   2.686   0.717  0.2029 -0.5049  0.0596
  240SOL    HW1  719   2.341   2.716   0.641 -1.9155  0.7850 -0.3714
  240SOL    HW2  720   2.366   2.601   0.758 -2.5200  1.1795 -0.0739
  241SOL     OW  721   0.994   1.539   1.800 -0.4845  0.0432 -0.6984
  241SOL    HW1  722   0.903   1.533   1.752  0.0036 -1.5317  1.3659
  241SOL    HW2  723   1.006   1.462   1.866 -1.2874 -2.0531  2.1651
  242SOL     OW  724   2.892   0.599   0.539  0.2735 -0.7223  0.2138
  242SOL    HW1  725   2.881   0.675   0.470  0.4003  2.2873 -2.2686
  242SOL    HW2  726   2.854   0.511   0.506  0.6876  0.3434 -1.3633
  243SOL     OW  727   0.651   0.612   1.385 -0.2784  0.4965 -0.4401
  243SOL    HW1  728   0.592   0.682   1.423  1.3457 -1.8704  2.2100
  243SOL    HW2  729   0.732   0.597   1.452  3.2497 -2.7484  2.1410
  244SOL     OW  730   1.204   0.542   3.041 -0.3755  0.0604  0.1520
  244SOL    HW1  731   1.232   0.497   2.954 -0.5454  1.3035 -1.4761
  244SOL    HW2  732   1.114   0.499   3.072 -0.5107 -0.4471  2.6386
  245SOL     OW  733   2.098   0.348   0.128 -0.3468 -0.3718  0.0928
  245SOL    HW1  734   2.122   0.274   0.058  1.3591 -1.0811  0.9872
  245SOL    HW2  735   2.168   0.357   0.202  0.3090 -0.0620  0.6362
  246SOL     OW  736   0.807   0.758   1.596 -0.5795 -0.0902  0.0807
  246SOL    HW1  737   0.786   0.848   1.638 -1.5568  0.9711  0.6576
  246SOL    HW2  738   0.872   0.773   1.517 -1.7893  1.2764 -0.6645
  247SOL     OW  739   0.804   3.072   2.152  0.4245  0.1314  0.6589
  247SOL    HW1  740   0.703   0.005   2.144 -1.4357 -2.0250 -1.9816
  247SOL    HW2  741   0.846   3.082   2.061 -0.2067 -2.6761  0.0934
  248SOL     OW  742   0.148   1.677   1.850  0.3874 -0.1596  0.3104
  248SOL    HW1  743   0.066   1.673   1.795  3.0861 -0.0892  2.1617
  248SOL    HW2  744   0.168   1.775   1.864  0.1753 -1.7320  0.1861
  249SOL     OW  745   0.059   3.009   0.021 -0.1155  0.8403 -0.1088
  249SOL    HW1  746   0.147   3.005   3.055 -1.0042  2.1874 -0.1500
  249SOL    HW2  747   0.013   2.914   0.032 -0.3507 -1.0884  1.9533
  250SOL     OW  748   2.932   0.168   0.328 -0.0917  0.0964 -0.0867
  250SOL    HW1  749   2.868   0.101   0.285  2.6521  0.0335  1.2320
  250SOL    HW2  750   3.026   0.147   0.296 -0.2113  0.7023 -1.4668
  251SOL     OW  751   0.536   1.360   1.150 -0.9272 -0.3158 -0.1906
  251SOL    HW1  752   0.611   1.422   1.119  2.0830 -1.7115  1.5617
  251SOL    HW2  753   0.494   1.308   1.070 -3.2720 -1.5742 -5.0617
  252SOL     OW  754   1.532   2.959   1.664 -0.1911  0.1758 -0.2836
  252SOL    HW1  755   1.528   2.980   1.766 -0.2676  2.6715  0.8411
  252SOL    HW2  756   1.489   2.869   1.637 -1.1260 -2.2947 -0.6130
  253SOL     OW  757   1.982   2.031   2.702  0.7692  0.0697  0.4728
  253SOL    HW1  758   2.077   2.045   2.727 -0.8358 -0.7336  0.0235
  253SOL    HW2  759   1.978   1.945   2.651  2.3907 -1.1838 -0.0868
  254SOL     OW  760   0.530   1.819   1.718 -0.3637  0.2090 -0.0495
  254SOL    HW1  761   0.484   1.755   1.657  1.3154  1.8861  1.4461
  254SOL    HW2  762   0.609   1.781   1.771  1.1799 -0.0064  0.3160
  255SOL     OW  763   0.958   0.079   1.534 -0.0797  0.0749 -0.4347
  255SOL    HW1  764   1.042   0.050   1.586  0.5043  1.6766  1.2782
  255SOL    HW2  765   0.923   0.170   1.564  1.7139 -0.1990 -2.0330
  256SOL     OW  766   2.351   2.207   0.912  0.4610  0.6610 -0.1810
  256SOL    HW1  767   2.338   2.275   0.839 -3.2127 -0.4152  1.1058
  256SOL    HW2  768   2.427   2.226   0.973 -2.3301 -0.0108 -1.5823
  257SOL     OW  769   0.374   2.048   3.005  0.1193 -0.2459  0.4557
  257SOL    HW1  770   0.404   2.111   3.079  0.2058 -1.1271  0.6923
  257SOL    HW2  771   0.448   2.021   2.940 -3.3818  0.5144  2.2607
  258SOL     OW  772   0.850   2.167   2.393  0.4451  0.4026  0.2763
  258SOL    HW1  773   0.803   2.215   2.471  0.0016 -0.5423 -1.3726
  258SOL    HW2  774   0.948   2.188   2.394 -0.3206  1.8660  2.1773
  259SOL     OW  775   0.939   1.873   2.811 -0.5050 -0.4096 -0.0351
  259SOL    HW1  776   0.877   1.934   2.761 -0.2668  0.5477  1.4064
  259SOL    HW2  777   0.900   1.844   2.896  0.2484  3.2791 -0.5577
  260SOL     OW  778   2.283   1.234   1.904 -0.2174  0.2875 -0.1801
  260SOL    HW1  779   2.231   1.317   1.920  1.8040 -2.2218  0.2261
  260SOL    HW2  780   2.329   1.211   1.991 -0.2917  0.8694 -0.2836
  261SOL     OW  781   1.288   0.645   0.820  0.3013 -0.0047 -0.5877
  261SOL    HW1  782   1.241   0.567   0.855  3.8955  2.1100 -0.4849
  261SOL    HW2  783   1.238   0.725   0.862 -1.6764  1.0576  0.6515
  262SOL     OW  784   1.642   1.989   2.554 -0.1620  0.4503  0.0390
  262SOL    HW1  785   1.682   2.083   2.560 -0.8460  1.8551  1.6048
  262SOL    HW2  786   1.586   1.967   2.634  2.3162 -0.3680 -1.8017
  263SOL     OW  787   0.170   1.619   0.120  0.5623  0.2733  0.2941
  263SOL    HW1  788   0.101   1.645   0.187  0.8785  0.6099 -0.0571
  263SOL    HW2  789   0.196   1.522   0.127  0.6804  2.6039 -1.7097
  264SOL     OW  790   0.595   1.961   0.742  0.1440 -0.0507 -0.2513
  264SOL    HW1  791   0.557   2.051   0.712  2.1087 -0.3927  0.5684
  264SOL    HW2  792   0.598   1.959   0.846 -0.3800  0.8697 -0.2348
  265SOL     OW  793   0.435   1.285   0.322  0.1813 -0.2271  0.1502
  265SOL    HW1  794   0.400   1.187   0.328 -0.7695  1.9884  3.1357
  265SOL    HW2  795   0.470   1.313   0.410 -1.1470 -0.4424  0.2489
  266SOL     OW  796   1.149   1.644   2.943 -0.7317  0.1499 -0.1580
  266SOL    HW1  797   1.178   1.703   2.865 -2.0737 -3.5684  0.4643
  266SOL    HW2  798   1.073   1.679   3.001 -0.7347 -2.2470 -0.4595
  267SOL     OW  799   0.835   0.707   2.310 -0.0508 -0.1737 -0.0304
  267SOL    HW1  800   0.788   0.615   2.290 -2.1550 -3.3376 -0.3368
  267SOL    HW2  801   0.915   0.696   2.380 -0.9923 -2.5818  2.4661
  268SOL     OW  802   0.390   0.687   2.783  0.1942  0.0317 -0.0701
  268SOL    HW1  803   0.472   0.712   2.723  1.7647 -2.3958 -1.4453
  268SOL    HW2  804   0.356   0.769   2.831  0.6088 -1.1575 -0.8803
  269SOL     OW  805   1.901   2.863   2.600  0.4949  0.2186  0.0576
  269SOL    HW1  806   1.843   2.941   2.571  0.4371  0.0317  1.1580
  269SOL    HW2  807   1.911   2.794   2.525 -1.3475  1.1469 -3.1485
  270SOL     OW  808   0.971   1.525   2.404  0.4974 -0.3492  0.0688
  270SOL    HW1  809   1.024   1.614   2.431  1.0343  0.7273  2.1223
  270SOL    HW2  810   0.928   1.484   2.489  0.2524  0.4324  0.3502
  271SOL     OW  811   0.310   3.031   3.006 -0.1572  0.4082 -0.1759
  271SOL    HW1  812   0.366   3.041   2.917  1.6486  2.3532 -2.5923
  271SOL    HW2  813   0.363   3.037   0.010 -3.4668 -2.8070  0.6481
  272SOL     OW  814   2.391   0.683   0.363 -0.3086 -0.1849 -0.7382
  272SOL    HW1  815   2.354   0.678   0.456  1.6922  2.5810 -2.6272
  272SOL    HW2  816   2.333   0.752   0.312  0.6817  2.5783  1.0013
  273SOL     OW  817   0.348   2.966   2.035  0.0016 -0.1394 -0.1589
  273SOL    HW1  818   0.253   2.931   2.023  2.2261 -1.7270 -0.2775
  273SOL    HW2  819   0.420   2.913   1.989  0.9551  0.0685  0.3167
  274SOL     OW  820   2.916   0.438   1.901  0.4135  0.3854  0.0326
  274SOL    HW1  821   2.955   0.475   1.812  1.9278 -0.5622 -2.2436
  274SOL    HW2  822   2.968   0.353   1.926 -1.7895  0.5020 -0.7132
  275SOL     OW  823   1.542   1.597   0.581 -0.3979  0.5874 -0.3716
  275SOL    HW1  824   1.534   1.495   0.587 -0.5497 -0.5066 -0.8143
  275SOL    HW2  825   1.466   1.639   0.528  0.8950  0.8559 -0.1837
  276SOL     OW  826   0.940   1.042   2.137 -0.1358  0.8267  0.0499
  276SOL    HW1  827   0.897   0.959   2.100  0.3238  1.0065  2.2561
  276SOL    HW2  828   0.921   1.055   2.237  1.6145 -0.8453  0.1862
  277SOL     OW  829   1.807   2.621   2.047 -0.2436  0.8425  0.3058
  277SOL    HW1  830   1.771   2.586   1.958 -0.8094 -0.2815 -0.8624
  277SOL    HW2  831   1.773   2.553   2.117  0.9151 -0.4413 -2.2663
  278SOL     OW  832   2.031   2.836   2.230  0.4303 -0.4698  0.0444
  278SOL    HW1  833   1.937   2.810   2.264 -1.4097  3.1270 -1.1719
  278SOL    HW2  834   2.096   2.767   2.272 -0.4140 -0.9114 -1.3363
  279SOL     OW  835   1.696   1.054   0.369  0.0144  0.0330  0.1027
  279SOL    HW1  836   1.741   1.077   0.281  1.0899 -0.0728  0.0956
  279SOL    HW2  837   1.636   0.975   0.359  0.7563  0.6077 -0.9580
  280SOL     OW  838   0.637   1.442   0.155 -0.0121 -0.3699 -0.4368
  280SOL    HW1  839   0.580   1.383   0.215 -0.5258 -1.0123 -3.1477
  280SOL    HW2  840   0.657   1.399   0.066 -0.7152 -0.1185 -0.5708
  281SOL     OW  841   0.176   0.044   1.663 -0.1954  0.7367 -0.4027
  281SOL    HW1  842   0.127   3.034   1.667 -0.7388 -2.0668 -0.5726
  281SOL    HW2  843   0.197   0.072   1.757  0.9226 -0.7948 -1.1899
  282SOL     OW  844   0.020   2.297   0.896  0.1828  0.0739  0.4764
  282SOL    HW1  845   3.038   2.384   0.905 -1.9778  1.5736  1.1423
  282SOL    HW2  846   0.080   2.302   0.813  0.1539 -0.2474 -1.3240
  283SOL     OW  847   1.456   2.034   2.371  0.1856  0.1914  0.1012
  283SOL    HW1  848   1.530   2.043   2.437  1.4636 -1.2021 -0.3107
  283SOL    HW2  849   1.442   1.932   2.358  2.4361 -0.1047 -1.7256
  284SOL     OW  850   1.844   0.236   0.409 -0.0821  0.2438 -0.3118
  284SOL    HW1  851   1.806   0.143   0.389  0.4675  1.0120 -1.2965
  284SOL    HW2  852   1.811   0.309   0.351  0.2819  0.8546 -0.2653
  285SOL     OW  853   3.060   2.625   2.426  0.1693 -0.2657  0.0779
  285SOL    HW1  854   2.955   2.636   2.408 -3.8957 -0.1618 -0.1170
  285SOL    HW2  855   3.080   2.585   2.517  0.4352 -1.5483  1.3246
  286SOL     OW  856   2.638   2.628   1.393  0.0760  0.1552 -0.1552
  286SOL    HW1  857   2.616   2.695   1.467  1.7702  0.8595  0.0903
  286SOL    HW2  858   2.732   2.597   1.399 -0.6045  2.3904  0.7650
  287SOL     OW  859   0.519   1.550   0.789  0.4151  0.3659  0.6529
  287SOL    HW1  860   0.426   1.586   0.807  3.4502  0.3710 -1.9126
  287SOL    HW2  861   0.580   1.617   0.740  0.8224  0.0758  2.3193
  288SOL     OW  862   2.265   2.069   2.784  0.2297  0.1069  0.1420
  288SOL    HW1  863   2.345   2.060   2.717 -0.1475  0.3811 -1.4329
  288SOL    HW2  864   2.287   2.138   2.849  0.5993 -2.2765 -2.1093
  289SOL     OW  865   0.069   1.789   2.942 -0.0331 -0.6635 -0.0708
  289SOL    HW1  866   3.055   1.771   2.904 -1.0973  0.6470  1.3617
  289SOL    HW2  867   0.077   1.768   3.040  1.8489  1.1737 -2.5964
  290SOL     OW  868   1.126   1.668   1.165  0.1664  0.3593  0.0442
  290SOL    HW1  869   1.188   1.595   1.127  0.4624 -0.3909  0.4617
  290SOL    HW2  870   1.115   1.747   1.098  0.5291  0.3339 -0.0456
  291SOL     OW  871   1.486   1.007   3.031  0.0937  0.1354 -0.5412
  291SOL    HW1  872   1.424   0.993   2.951 -1.2338  0.3370  3.4814
  291SOL    HW2  873   1.493   0.920   0.001 -3.7501  1.3219  0.0582
  292SOL     OW  874   1.328   1.582   0.387  0.0015  0.2842  0.3982
  292SOL    HW1  875   1.235   1.591   0.431 -0.9511  2.5186 -0.9351
  292SOL    HW2  876   1.351   1.486   0.361  1.8730 -0.6897 -0.3754
  293SOL     OW  877   1.104   2.720   1.031  0.0501  0.2699 -0.6487
  293SOL    HW1  878   1.153   2.808   1.017 -0.4011 -2.9426 -1.1621
  293SOL    HW2  879   1.115   2.651   0.955  1.4705 -0.1548 -1.6419
  294SOL     OW  880   2.344   1.196   2.904 -0.3861 -0.4800  0.0722
  294SOL    HW1  881   2.270   1.142   2.875  2.8185  2.2428 -1.4071
  294SOL    HW2  882   2.420   1.192   2.839 -1.1738 -2.7960  2.7381
  295SOL     OW  883   1.483   1.819   2.735 -0.3131 -0.8435  0.4918
  295SOL    HW1  884   1.525   1.882   2.799  0.1269 -0.6751  0.4455
  295SOL    HW2  885   1.383   1.835   2.747 -0.4902 -0.7460  2.2202
  296SOL     OW  886   1.753   0.533   1.724 -0.0588 -0.2458 -0.0524
  296SOL    HW1  887   1.842   0.510   1.689  0.5234  0.1458 -0.1045
  296SOL    HW2  888   1.736   0.633   1.721  2.8408 -1.3016  3.7977
  297SOL     OW  889   0.126   0.674   2.147  0.4188  0.9081 -0.1511
  297SOL    HW1  890   0.141   0.768   2.180  2.2259 -2.0480  1.5722
  297SOL    HW2  891   0.177   0.647   2.060 -0.4732  2.1537  1.0391
  298SOL     OW  892   1.215   2.411   1.652  0.3935  0.4876  0.0196
  298SOL    HW1  893   1.145   2.347   1.619 -0.7988  0.2123 -1.5059
  298SOL    HW2  894   1.235   2.381   1.747  0.1846 -1.6568 -1.5471
  299SOL     OW  895   1.321   2.900   2.711  0.0272 -0.3188 -0.0425
  299SOL    HW1  896   1.414   2.868   2.702 -4.3432  0.0269 -0.0764
  299SOL    HW2  897   1.271   2.896   2.620 -1.8879  0.5608  3.8301
  300SOL     OW  898   0.026   0.819   2.955 -0.1736  0.2705 -0.4403
  300SOL    HW1  899   3.060   0.813   3.047  0.7128 -1.6085  0.4136
  300SOL    HW2  900   0.105   0.884   2.960  0.7092  1.9239 -2.0357
  301SOL     OW  901   1.905   1.069   1.825 -0.1922  0.7852 -0.1184
  301SOL    HW1  902   1.805   1.049   1.815 -1.9451 -0.0870 -2.5736
  301SOL    HW2  903   1.917   1.113   1.918  1.4972  2.1127  1.2823
  302SOL     OW  904   2.589   1.867   2.543  0.4404 -0.0470  0.4673
  302SOL    HW1  905   2.578   1.829   2.447  1.3402  1.4264 -2.5402
  302SOL    HW2  906   2.550   1.958   2.554 -1.5050 -1.8030  1.5478
  303SOL     OW  907   0.293   2.643   2.276 -0.4691 -0.0415 -0.4383
  303SOL    HW1  908   0.301   2.591   2.182 -0.2424  0.7281 -3.8347
  303SOL    HW2  909   0.221   2.715   2.281 -2.2144 -1.0021 -0.5643
  304SOL     OW  910   0.050   0.862   1.280  0.3689 -0.2572  0.1229
  304SOL    HW1  911   0.010   0.905   1.195 -0.0331 -0.0596  0.7346
  304SOL    HW2  912   0.143   0.828   1.284 -2.1283  0.3439  0.7875
  305SOL     OW  913   2.875   0.917   1.792  0.3176 -0.2432 -0.4443
  305SOL    HW1  914   2.934   0.866   1.729 -0.6342 -0.0429  1.1310
  305SOL    HW2  915   2.866   1.017   1.771  2.9531 -0.0361 -0.7393
  306SOL     OW  916   2.503   1.077   1.572  0.2697  0.0096 -0.1371
  306SOL    HW1  917   2.406   1.079   1.552  1.3400  2.4586  0.2421
  306SOL    HW2  918   2.527   1.155   1.632 -3.7099 -1.1538  1.0540
  307SOL     OW  919   2.482   2.910   0.848  0.4223 -0.2201  0.2521
  307SOL    HW1  920   2.464   2.821   0.805  2.9152  0.9892  0.6981
  307SOL    HW2  921   2.583   2.908   0.862  0.4542  1.4713 -1.9158
  308SOL     OW  922   0.037   1.926   1.689  1.3397  0.2598  0.2974
  308SOL    HW1  923   0.097   1.948   1.768 -0.1715 -0.9978  0.4492
  308SOL    HW2  924   0.097   1.910   1.608  3.5486  0.3101  1.4582
  309SOL     OW  925   2.466   2.138   1.571  0.1237 -0.0692 -0.3033
  309SOL    HW1  926   2.493   2.238   1.559 -0.8176 -0.0586 -1.4342
  309SOL    HW2  927   2.379   2.138   1.616  0.8205  1.5435 -2.5625
  310SOL     OW  928   2.225   1.429   2.895  0.5076 -0.3345 -0.1405
  310SOL    HW1  929   2.242   1.479   2.808  1.5967  1.3514  0.4227
  310SOL    HW2  930   2.276   1.342   2.901  0.1458  4.6443 -0.2254
  311SOL     OW  931   1.774   1.060   3.017  0.4572  0.2424  0.1660
  311SOL    HW1  932   1.676   1.076   3.019  3.8523 -0.3236 -1.1393
  311SOL    HW2  933   1.803   1.039   2.918  1.9908 -0.5410 -1.0783
  312SOL     OW  934   0.999   2.073   2.048 -0.1093  1.2556  0.6892
  312SOL    HW1  935   1.092   2.092   2.097  3.3565  0.4531  0.2984
  312SOL    HW2  936   0.955   1.980   2.066  0.1791 -1.3506 -0.3941
  313SOL     OW  937   0.121   0.259   0.908  0.0746 -0.0029  0.2584
  313SOL    HW1  938   0.140   0.257   0.811  1.2354  0.7593  1.6075
  313SOL    HW2  939   0.196   0.221   0.961 -0.0047  2.6967 -0.2007
  314SOL     OW  940   0.585   1.955   1.003 -0.9680  0.1330 -0.0366
  314SOL    HW1  941   0.550   2.052   0.994 -1.7890 -1.4586 -1.0800
  314SOL    HW2  942   0.527   1.901   1.069 -1.0612 -1.2261  0.5088
  315SOL     OW  943   0.473   2.222   2.125  0.0306 -0.0554  0.4613
  315SOL    HW1  944   0.412   2.226   2.043 -0.7846  0.0024  0.4059
  315SOL    HW2  945   0.529   2.302   2.142 -0.2619 -3.7670 -0.8673
  316SOL     OW  946   0.257   2.176   0.966 -0.1532  0.3933 -0.0094
  316SOL    HW1  947   0.204   2.086   0.982 -0.4631 -2.0365  0.3264
  316SOL    HW2  948   0.190   2.247   0.940 -1.0007 -1.5816 -0.2856
  317SOL     OW  949   1.886   0.626   0.778  0.8487 -0.1080  0.1553
  317SOL    HW1  950   1.978   0.664   0.807  3.1625 -3.7189  2.5074
  317SOL    HW2  951   1.885   0.531   0.749 -0.3255  3.6257 -0.5014
  318SOL     OW  952   2.393   2.183   0.168  0.1610  0.0184 -0.0041
  318SOL    HW1  953   2.296   2.213   0.182 -1.1697 -0.9094 -1.3899
  318SOL    HW2  954   2.405   2.164   0.068 -0.9632  0.0398  0.4684
  319SOL     OW  955   1.360   1.529   3.071  0.4192 -0.0056  0.3434
  319SOL    HW1  956   1.278   1.562   3.017 -0.3547  0.6601  2.9521
  319SOL    HW2  957   1.441   1.525   3.012 -0.5835  0.5865  2.1058
  320SOL     OW  958   0.320   2.615   2.695 -0.4233 -0.5653  0.1089
  320SOL    HW1  959   0.315   2.572   2.602  1.2639 -1.4082 -3.0085
  320SOL    HW2  960   0.333   2.553   2.777 -0.5686 -0.1494  0.5025
  321SOL     OW  961   0.955   2.749   2.675 -0.1511 -0.0365  0.9911
  321SOL    HW1  962   0.988   2.655   2.693 -1.2912  1.0787 -1.8335
  321SOL    HW2  963   0.865   2.758   2.626 -1.7013 -0.1238  0.2423
  322SOL     OW  964   2.273   0.565   2.081  0.3130 -0.4677 -0.5539
  322SOL    HW1  965   2.265   0.463   2.080 -1.3326  0.7727 -0.6357
  322SOL    HW2  966   2.291   0.590   2.179  0.3210 -1.3966  2.9704
  323SOL     OW  967   2.947   1.152   0.794 -0.2771  0.6797  0.0491
  323SOL    HW1  968   3.008   1.094   0.739  0.2834  2.0654 -1.2198
  323SOL    HW2  969   2.849   1.134   0.782  0.7218 -1.4365  0.5513
  324SOL     OW  970   0.442   0.721   2.066  0.2153 -0.4963 -0.0270
  324SOL    HW1  971   0.363   0.694   2.010 -0.3752 -1.8346  0.5980
  324SOL    HW2  972   0.505   0.776   2.009  0.7046 -3.2865  1.8628
  325SOL     OW  973   0.554   0.067   2.138 -0.1258  0.1086 -0.1445
  325SOL    HW1  974   0.540   0.133   2.217 -2.1273  1.6002  0.6457
  325SOL    HW2  975   0.468   0.029   2.107  5.6916  0.5948  0.1684
  326SOL     OW  976   2.518   2.421   0.279 -0.1821  0.3616  0.6796
  326SOL    HW1  977   2.444   2.468   0.227 -3.0894 -2.1488  1.3715
  326SOL    HW2  978   2.509   2.321   0.269  0.5403  2.6314  2.2741
  327SOL     OW  979   2.510   1.441   0.507  0.4645 -0.1945  0.1580
  327SOL    HW1  980   2.413   1.402   0.489 -0.3712  0.4760 -1.3274
  327SOL    HW2  981   2.499   1.531   0.548  1.2389 -2.8125 -0.6909
  328SOL     OW  982   2.884   1.891   2.135  0.2556 -0.2290  0.6072
  328SOL    HW1  983   2.865   1.824   2.067 -0.3830  1.0893  1.7894
  328SOL    HW2  984   2.878   1.983   2.091  1.0850 -0.8527  0.2294
  329SOL     OW  985   0.368   2.271   1.499  0.1724 -0.3034  0.3078
  329SOL    HW1  986   0.268   2.260   1.514  2.1905  0.2311  2.4577
  329SOL    HW2  987   0.378   2.356   1.445 -1.8602 -1.1688 -1.0380
  330SOL     OW  988   2.488   1.388   2.427  0.7019 -0.4707  0.3022
  330SOL    HW1  989   2.502   1.431   2.519 -1.5329  0.1375 -1.7724
  330SOL    HW2  990   2.471   1.285   2.440 -2.0012 -2.5364  3.2122
  331SOL     OW  991   2.652   2.483   0.844 -0.3507  0.4347  0.6258
  331SOL    HW1  992   2.619   2.405   0.904 -0.3376 -0.9841  0.6412
  331SOL    HW2  993   2.585   2.558   0.841  0.0217 -1.6433 -0.8031
  332SOL     OW  994   0.314   2.874   0.624  0.0331  0.4308 -0.4813
  332SOL    HW1  995   0.261   2.871   0.714  2.0001  1.6377  0.4238
  332SOL    HW2  996   0.313   2.783   0.578  1.0074 -0.1000  2.1193
  333SOL     OW  997   2.251   2.674   2.300 -0.1506  0.7166 -0.2429
  333SOL    HW1  998   2.248   2.658   2.398 -0.8869  0.8094 -2.8607
  333SOL    HW2  999   2.350   2.685   2.263  2.7400  0.8185 -0.0595
  334SOL     OW 1000   0.955   1.236   0.284  0.2855  0.5533  0.0386
  334SOL    HW1 1001   0.982   1.168   0.357  1.0073  1.8328 -0.6141
  334SOL    HW2 1002   0.856   1.262   0.294 -1.7174 -1.4064 -0.5659
  335SOL     OW 1003   2.683   1.960   1.942 -0.5382  0.4790  0.0515
  335SOL    HW1 1004   2.721   1.867   1.909 -2.0690 -3.0479 -0.1388
  335SOL    HW2 1005   2.585   1.958   1.963  1.3397  0.6747 -0.1532
  336SOL     OW 1006   2.767   3.031   2.417 -0.6708 -0.0994 -0.2510
  336SOL    HW1 1007   2.672   3.053   2.388 -0.8113 -2.1955 -1.1791
  336SOL    HW2 1008   2.817   2.980   2.346 -0.9408  0.6209  1.1779
  337SOL     OW 1009   0.957   1.147   0.917  0.3015  0.0766 -0.4834
  337SOL    HW1 1010   0.967   1.214   0.841 -1.1912 -4.5080 -0.3347
  337SOL    HW2 1011   0.995   1.181   1.006 -1.0243 -1.6858  0.7118
  338SOL     OW 1012   1.084   1.815   0.934  0.0789  0.4332 -0.3393
  338SOL    HW1 1013   1.150   1.884   0.899 -1.2428  0.6744 -1.7865
  338SOL    HW2 1014   0.992   1.839   0.893 -0.4939  2.2357 -1.0811
  339SOL     OW 1015   0.271   1.410   1.590  0.1261 -0.2816  0.3406
  339SOL    HW1 1016   0.258   1.341   1.516 -1.8626 -0.0031 -0.6735
  339SOL    HW2 1017   0.198   1.478   1.581 -0.2433 -1.6526  0.7136
  340SOL     OW 1018   1.712   2.866   2.000 -0.7985 -0.2877 -0.1133
  340SOL    HW1 1019   1.786   2.916   1.951  1.1573  1.1638  1.3315
  340SOL    HW2 1020   1.753   2.784   2.034 -2.0859  0.9360 -2.2413
  341SOL     OW 1021   1.802   1.601   0.998  0.1736  0.2704 -0.3523
  341SOL    HW1 1022   1.776   1.563   0.907  1.1060 -0.8582 -3.1582
  341SOL    HW2 1023   1.899   1.629   1.002 -0.7543  0.5749  2.5863
  342SOL     OW 1024   0.069   1.293   0.872 -0.5380  0.6423 -0.7836
  342SOL    HW1 1025   3.070   1.252   0.828  1.1478  0.7490  1.5688
  342SOL    HW2 1026   0.089   1.378   0.823  3.6245 -2.3502 -0.2518
  343SOL     OW 1027   2.776   0.358   1.475 -0.3031 -0.4821  0.1152
  343SOL    HW1 1028   2.707   0.363   1.550 -1.3912 -1.7192 -1.7163
  343SOL    HW2 1029   2.828   0.445   1.475 -0.0738 -2.4485  0.2927
  344SOL     OW 1030   1.662   0.250   1.072  0.9611 -0.0085  0.5603
  344SOL    HW1 1031   1.692   0.271   1.168  0.6742  0.3785  0.4920
  344SOL    HW2 1032   1.649   0.331   1.013 -2.0012  0.4994 -1.6174
  345SOL     OW 1033   0.692   3.020   2.433  0.0292 -0.8263  0.0630
  345SOL    HW1 1034   0.757   3.067   2.498  3.6917  1.7177 -0.4512
  345SOL    HW2 1035   0.725   3.047   2.341  0.1999  1.5761  0.0642
  346SOL     OW 1036   2.588   1.712   0.609 -0.5901 -0.0945 -0.5914
  346SOL    HW1 1037   2.613   1.766   0.525 -1.8363 -0.5888 -2.3249
  346SOL    HW2 1038   2.503   1.744   0.649  0.5155 -5.5705 -0.3320
  347SOL     OW 1039   2.388   0.190   1.852  0.1432 -0.4283  0.1756
  347SOL    HW1 1040   2.327   0.125   1.803 -4.2499  0.7896 -0.0462
  347SOL    HW2 1041   2.365   0.199   1.949  0.2551  0.3245  2.5589
  348SOL     OW 1042   0.914   1.234   1.708 -0.2388  0.6785 -0.6861
  348SOL    HW1 1043   0.859   1.148   1.711 -1.1192  0.8876 -0.6347
  348SOL    HW2 1044   0.845   1.308   1.692 -2.1270  0.7295 -2.6239
  349SOL     OW 1045   2.635   0.847   1.644  0.0974 -0.5509  0.3853
  349SOL    HW1 1046   2.722   0.885   1.678 -1.1660 -0.4556 -0.1174
  349SOL    HW2 1047   2.575   0.923   1.607  1.7894  4.2090 -2.8275
  350SOL     OW 1048   2.112   2.230   0.207  0.3184 -0.1090 -0.0498
  350SOL    HW1 1049   2.058   2.258   0.129  2.3349  0.3411  0.3020
  350SOL    HW2 1050   2.091   2.131   0.229 -1.5144 -1.2577  1.6271
  351SOL     OW 1051   0.730   0.461   2.235  0.1586 -0.2766 -0.1748
  351SOL    HW1 1052   0.791   0.384   2.260 -1.5058  2.0535  0.6599
  351SOL    HW2 1053   0.671   0.446   2.154 -1.2621  0.9226  3.0884
  352SOL     OW 1054   1.979   2.536   1.742  0.4686 -0.6584  0.5445
  352SOL    HW1 1055   2.048   2.535   1.818  1.8219 -1.6087 -1.0371
  352SOL    HW2 1056   1.885   2.539   1.786 -0.8748 -1.4975 -1.0092
  353SOL     OW 1057   0.599   0.778   2.614  0.2683  0.1364  0.4101
  353SOL    HW1 1058   0.689   0.736   2.628 -0.7128 -2.6244 -0.8471
  353SOL    HW2 1059   0.589   0.804   2.517  0.4303  0.3947  2.2977
  354SOL     OW 1060   0.591   1.948   2.868 -0.2965 -0.3911  0.4123
  354SOL    HW1 1061   0.652   1.983   2.786 -0.3255  0.9630 -1.2750
  354SOL    HW2 1062   0.598   1.849   2.872 -1.1126  0.9233 -2.4388
  355SOL     OW 1063   1.619   2.713   1.073 -0.8764 -0.3612  0.1563
  355SOL    HW1 1064   1.552   2.767   1.022  0.5218  0.0254  3.2092
  355SOL    HW2 1065   1.628   2.743   1.169  0.4451 -1.6509 -0.9688
  356SOL     OW 1066   2.457   0.980   0.152 -0.5885  0.2198  0.4583
  356SOL    HW1 1067   2.423   1.071   0.142  1.4267 -2.3164 -1.2253
  356SOL    HW2 1068   2.382   0.928   0.197  0.4378 -1.2272 -0.7696
  357SOL     OW 1069   3.017   0.192   1.931 -0.6127  0.0302 -0.1718
  357SOL    HW1 1070   0.032   0.162   1.918 -1.1816  0.1631 -0.4934
  357SOL    HW2 1071   2.959   0.151   1.857  1.3695  1.4623 -3.1441
  358SOL     OW 1072   0.087   1.501   0.708  0.2868 -0.3349  0.1899
  358SOL    HW1 1073   0.163   1.527   0.644  1.6037 -0.6577 -1.1630
  358SOL    HW2 1074   0.008   1.563   0.717 -1.2876 -1.4311 -0.1225
  359SOL     OW 1075   2.805   0.485   2.743 -0.5138 -0.3670  0.9742
  359SOL    HW1 1076   2.780   0.400   2.782 -0.8713  0.1303 -0.8693
  359SOL    HW2 1077   2.731   0.511   2.677 -3.7670  0.7554  1.5533
  360SOL     OW 1078   1.138   0.935   1.225  0.0933  0.0586 -0.2170
  360SOL    HW1 1079   1.216   0.919   1.292 -0.6034  0.6586 -0.4067
  360SOL    HW2 1080   1.115   1.034   1.232  1.3492  1.9429 -0.5359
  361SOL     OW 1081   2.568   2.754   1.166  0.2518 -0.1183  0.5279
  361SOL    HW1 1082   2.600   2.705   1.249  0.2899  1.9830  0.2611
  361SOL    HW2 1083   2.470   2.750   1.157 -1.0061  3.2612 -0.4919
  362SOL     OW 1084   1.137   0.427   0.910 -0.5224  0.1179 -0.0327
  362SOL    HW1 1085   1.110   0.428   1.014  1.4041 -0.0647  1.5836
  362SOL    HW2 1086   1.059   0.470   0.865  0.3195  0.2964 -0.1143
  363SOL     OW 1087   1.829   1.614   0.708 -0.3182 -0.0575  0.3634
  363SOL    HW1 1088   1.881   1.600   0.618 -2.2609 -4.2712 -1.6819
  363SOL    HW2 1089   1.751   1.547   0.702  1.6218  0.9100  1.7594
  364SOL     OW 1090   0.615   0.345   1.427 -0.0686  0.2759 -0.0798
  364SOL    HW1 1091   0.634   0.280   1.350  3.7909  0.1760  0.6395
  364SOL    HW2 1092   0.611   0.443   1.394 -0.4382 -2.2501  0.1830
  365SOL     OW 1093   0.334   0.083   1.020  0.0806 -0.4173  0.0022
  365SOL    HW1 1094   0.272   0.004   1.046  1.8987 -2.4698  0.5485
  365SOL    HW2 1095   0.366   0.078   0.925  1.5229 -0.2488 -0.0627
  366SOL     OW 1096   2.873   1.053   0.029 -0.1570  0.0754  0.1464
  366SOL    HW1 1097   2.803   1.054   0.106 -2.7339  0.6425  1.0377
  366SOL    HW2 1098   2.927   1.138   0.021  1.9479 -1.9196  0.9001
  367SOL     OW 1099   2.120   2.406   2.570 -0.4794  0.0348 -0.0464
  367SOL    HW1 1100   2.126   2.307   2.576  1.5685  0.2181 -0.0684
  367SOL    HW2 1101   2.205   2.455   2.606 -3.4664  1.4247 -0.3190
  368SOL     OW 1102   2.361   1.820   0.726 -0.2068  0.4875 -0.1361
  368SOL    HW1 1103   2.333   1.902   0.673 -3.5880  2.6491  0.9432
  368SOL    HW2 1104   2.287   1.752   0.715 -1.4208 -1.3075  1.2902
  369SOL     OW 1105   2.008   0.486   2.619  0.4026  0.0699  0.4378
  369SOL    HW1 1106   2.056   0.545   2.549  0.3441  0.9965 -1.4032
  369SOL    HW2 1107   1.953   0.540   2.683 -0.8867  0.6831  0.0543
  370SOL     OW 1108   0.479   0.361   1.080  0.0471 -0.2684 -0.3986
  370SOL    HW1 1109   0.456   0.317   0.991  1.5567 -1.8220 -0.4493
  370SOL    HW2 1110   0.546   0.303   1.138  2.6892  1.6015  1.4367
  371SOL     OW 1111   2.970   1.359   3.070  0.0961  0.0307  0.2700
  371SOL    HW1 1112   3.014   1.356   2.978 -0.1921 -0.2378 -2.0575
  371SOL    HW2 1113   2.884   1.410   3.057 -0.7973 -1.8764  1.9893
  372SOL     OW 1114   0.530   0.511   2.423  0.5420  0.1565  0.7320
  372SOL    HW1 1115   0.619   0.501   2.369  2.4667  2.1368  0.3980
  372SOL    HW2 1116   0.480   0.598   2.400 -0.7129 -0.9227  1.1001
  373SOL     OW 1117   0.695   2.954   2.979  0.5175 -0.2464  0.0040
  373SOL    HW1 1118   0.642   2.952   3.065  0.9329 -2.9529 -1.2506
  373SOL    HW2 1119   0.641   3.004   2.907 -0.2960  0.3429  1.4368
  374SOL     OW 1120   0.837   1.521   2.964 -1.1938 -0.3099  0.0168
  374SOL    HW1 1121   0.884   1.512   3.052  0.1929  1.0103 -1.0416
  374SOL    HW2 1122   0.797   1.431   2.940 -1.8516 -0.9123  0.2453
  375SOL     OW 1123   0.975   0.397   1.976 -0.6307  0.0018 -0.6535
  375SOL    HW1 1124   0.989   0.500   1.983  0.6887  1.9011 -0.1451
  375SOL    HW2 1125   0.979   0.353   2.071  0.0520  0.4501  1.4164
  376SOL     OW 1126   0.088   2.861   2.014 -0.2178 -0.1138 -0.1542
  376SOL    HW1 1127   0.089   2.882   2.114 -1.7254 -1.6496 -0.2496
  376SOL    HW2 1128   0.108   2.763   1.991 -1.5054  1.0954 -2.2699
  377SOL     OW 1129   2.778   2.157   2.741  0.3908  0.1203  0.1632
  377SOL    HW1 1130   2.678   2.174   2.718 -2.4897  0.8777  2.1079
  377SOL    HW2 1131   2.791   2.064   2.777 -0.4245  1.2671 -0.1605
  378SOL     OW 1132   2.049   0.035   0.158 -0.4194  0.0033 -0.6388
  378SOL    HW1 1133   1.997   3.055   0.220 -2.1459  0.4118  1.2017
  378SOL    HW2 1134   1.986   0.079   0.088  2.5148 -0.1136 -0.9121
  379SOL     OW 1135   1.820   0.767   0.541  0.4371 -0.6012 -0.3120
  379SOL    HW1 1136   1.831   0.716   0.627 -0.0771  0.5064  0.9992
  379SOL    HW2 1137   1.759   0.846   0.553 -0.9931 -1.3453  1.0401
  380SOL     OW 1138   2.652   1.936   1.615  0.5879 -0.1026  0.5146
  380SOL    HW1 1139   2.588   2.016   1.595  0.5217  1.5930  0.6472
  380SOL    HW2 1140   2.584   1.863   1.638  1.8171  0.5077  0.5642
  381SOL     OW 1141   2.255   1.414   2.184 -0.0569 -0.0494 -0.4818
  381SOL    HW1 1142   2.188   1.425   2.111  1.5275  0.1024  0.1246
  381SOL    HW2 1143   2.291   1.317   2.190  1.9012 -1.2307 -0.1790
  382SOL     OW 1144   2.850   2.723   2.738 -0.2866  0.5031 -0.4032
  382SOL    HW1 1145   2.947   2.700   2.732 -1.4518  0.9035  0.0040
  382SOL    HW2 1146   2.795   2.647   2.773  0.4902 -0.6335  1.6562
  383SOL     OW 1147   1.048   1.172   2.802  0.2700  0.0484  0.6415
  383SOL    HW1 1148   1.022   1.159   2.901 -0.2350 -0.5889  1.9889
  383SOL    HW2 1149   1.077   1.270   2.801  0.8994  1.4854  2.7529
  384SOL     OW 1150   1.749   1.775   2.438 -0.0014 -0.2752  0.6466
  384SOL    HW1 1151   1.690   1.855   2.458 -0.9864 -0.9709  0.7228
  384SOL    HW2 1152   1.726   1.733   2.346 -0.1533  0.3434 -0.8607
  385SOL     OW 1153   1.719   2.870   0.515  0.6450  0.1466 -0.0162
  385SOL    HW1 1154   1.617   2.882   0.536 -3.3099 -0.9826 -1.0852
  385SOL    HW2 1155   1.738   2.773   0.495  0.9733 -0.8333 -0.2592
  386SOL     OW 1156   1.985   1.314   0.696 -0.3362 -0.3722  0.0639
  386SOL    HW1 1157   1.970   1.390   0.625 -1.9808  1.4746 -2.1793
  386SOL    HW2 1158   1.926   1.318   0.779 -0.5896 -1.7322  1.7258
  387SOL     OW 1159   2.899   1.985   1.552  0.1787  0.0069  0.3224
  387SOL    HW1 1160   2.806   1.952   1.581 -2.2154  0.6507 -0.4450
  387SOL    HW2 1161   2.970   1.945   1.611 -2.6982  1.0479 -1.6597
  388SOL     OW 1162   0.390   1.049   1.558 -0.0661 -0.1582 -0.0957
  388SOL    HW1 1163   0.325   1.098   1.492 -0.3503 -0.1015  0.3752
  388SOL    HW2 1164   0.352   1.060   1.651  0.0575 -2.7992  0.0829
  389SOL     OW 1165   2.274   0.838   2.700  0.3874 -0.2182 -0.0944
  389SOL    HW1 1166   2.296   0.781   2.781  2.3680 -0.3934  3.2205
  389SOL    HW2 1167   2.214   0.917   2.726 -1.3032  1.0515 -0.5619
  390SOL     OW 1168   0.644   1.696   2.914  0.5999  0.2950 -0.2051
  390SOL    HW1 1169   0.722   1.634   2.919  0.2948  2.5961  1.8454
  390SOL    HW2 1170   0.550   1.658   2.938 -2.9558  1.4278 -0.8912
  391SOL     OW 1171   0.831   2.264   0.080  0.1320  0.3752  0.3786
  391SOL    HW1 1172   0.761   2.340   0.087  0.1446 -3.3631 -2.0337
  391SOL    HW2 1173   0.919   2.290   0.129  0.8098  1.1028  1.2471
  392SOL     OW 1174   3.022   2.511   2.177 -0.6992 -0.1603  0.5734
  392SOL    HW1 1175   2.955   2.564   2.117 -2.5335  0.4880 -1.7346
  392SOL    HW2 1176   3.050   2.554   2.266 -1.1203  0.4871  2.9038
  393SOL     OW 1177   1.463   2.063   0.465 -0.5197  0.0629 -0.7523
  393SOL    HW1 1178   1.554   2.114   0.476  1.7518  0.2357  1.3913
  393SOL    HW2 1179   1.478   2.004   0.384  0.0699  0.3861  4.3270
  394SOL     OW 1180   0.495   0.250   2.387  0.7117  0.0879 -0.2497
  394SOL    HW1 1181   0.406   0.237   2.443 -3.6445  0.4156 -0.1727
  394SOL    HW2 1182   0.524   0.346   2.399  1.3424  0.3024  1.5452
  395SOL     OW 1183   0.538   1.429   1.410  0.2130 -0.8071  0.2239
  395SOL    HW1 1184   0.519   1.398   1.313 -0.3353  2.2089 -0.1552
  395SOL    HW2 1185   0.595   1.514   1.404  1.0041  2.0687  2.9817
  396SOL     OW 1186   1.854   1.350   2.800 -0.0160 -0.1200 -0.3915
  396SOL    HW1 1187   1.869   1.307   2.708  1.8235 -0.3167 -1.2777
  396SOL    HW2 1188   1.761   1.360   2.829  1.6628  1.0231  4.3978
  397SOL     OW 1189   0.356   0.395   0.021  0.0728 -0.0384 -0.3542
  397SOL    HW1 1190   0.433   0.378   3.039 -0.2972  1.4240 -1.6917
  397SOL    HW2 1191   0.288   0.464   3.065  0.2215  1.8015 -2.1176
  398SOL     OW 1192   1.037   2.726   0.052  0.4930 -0.4209  0.1815
  398SOL    HW1 1193   1.009   2.755   3.041  1.3136  3.7810 -0.8374
  398SOL    HW2 1194   1.115   2.787   0.072  0.5804 -1.6401 -2.9162
  399SOL     OW 1195   1.973   2.154   2.356 -0.0153 -0.0530 -0.8063
  399SOL    HW1 1196   1.905   2.095   2.309  1.3100 -0.0631  0.7166
  399SOL    HW2 1197   1.979   2.244   2.308 -0.7748 -0.1238 -2.2067
  400SOL     OW 1198   2.446   1.367   1.265  0.0705  0.2627 -0.0908
  400SOL    HW1 1199   2.439   1.363   1.368  3.3263 -2.0169 -3.3637
  400SOL    HW2 1200   2.494   1.287   1.221  0.2865  2.7144  0.4232
  401SOL     OW 1201   1.500   0.952   1.004 -1.0428  0.2673  0.3362
  401SOL    HW1 1202   1.518   0.860   0.963  0.1776  1.6257  1.4586
  401SOL    HW2 1203   1.523   0.950   1.101 -1.1581 -1.0473  0.2097
  402SOL     OW 1204   0.307   3.062   2.588  0.5503  0.3981  0.0443
  402SOL    HW1 1205   0.298   0.075   2.556  1.8536  1.8710 -3.0290
  402SOL    HW2 1206   0.366   3.009   2.526  2.5060  1.5969  0.1677
  403SOL     OW 1207   2.747   1.651   1.506 -0.2613 -0.0566  0.0112
  403SOL    HW1 1208   2.757   1.616   1.412 -0.9655  0.1792  1.9812
  403SOL    HW2 1209   2.717   1.749   1.513  0.2578  0.8375  1.3350
  404SOL     OW 1210   2.343   1.647   1.454 -0.0371 -0.2899  0.4779
  404SOL    HW1 1211   2.254   1.699   1.436  0.2997 -0.9646  0.2013
  404SOL    HW2 1212   2.398   1.641   1.364  2.1221  0.9247 -1.7992
  405SOL     OW 1213   2.183   0.147   2.533  1.0416 -0.1478  0.4445
  405SOL    HW1 1214   2.138   0.139   2.439  1.3508  2.1640  0.5265
  405SOL    HW2 1215   2.278   0.172   2.521 -1.6245  0.1993 -3.4174
  406SOL     OW 1216   0.868   1.376   2.622  0.3592 -0.2141  0.2025
  406SOL    HW1 1217   0.863   1.273   2.621  1.4959 -1.3855  2.3669
  406SOL    HW2 1218   0.932   1.405   2.696  1.3587 -2.1969  1.1527
  407SOL     OW 1219   1.916   2.372   0.804  0.1641  0.2932 -0.1752
  407SOL    HW1 1220   1.846   2.350   0.875 -0.5535 -0.6751 -0.1641
  407SOL    HW2 1221   1.916   2.312   0.723  1.0614  2.1096  1.4151
  408SOL     OW 1222   0.161   2.867   0.832 -0.3379  0.3021 -0.6419
  408SOL    HW1 1223   0.177   2.890   0.933  0.7513  1.0861  1.3149
  408SOL    HW2 1224   0.085   2.921   0.797  1.6821 -0.7788  3.4704
  409SOL     OW 1225   2.214   1.598   0.775  0.4955  0.4015  0.7416
  409SOL    HW1 1226   2.170   1.636   0.864  0.5933 -0.0201  3.3536
  409SOL    HW2 1227   2.263   1.505   0.795  0.8758 -1.7356 -0.3626
  410SOL     OW 1228   2.236   2.502   3.027  0.0105  0.2326  0.0740
  410SOL    HW1 1229   2.287   2.585   2.989 -0.8789  5.5346 -0.6110
  410SOL    HW2 1230   2.224   2.516   0.044  1.1937 -0.2290 -1.4511
  411SOL     OW 1231   2.966   2.739   0.658 -0.0205  0.0095  0.0943
  411SOL    HW1 1232   3.020   2.824   0.667  1.1665  0.2599  1.7411
  411SOL    HW2 1233   2.865   2.753   0.639  1.1362  0.2597 -1.8857
  412SOL     OW 1234   1.371   2.676   0.706  0.1035  0.2439  0.7286
  412SOL    HW1 1235   1.391   2.771   0.681 -1.3666  0.1314 -1.3865
  412SOL    HW2 1236   1.274   2.662   0.729 -0.4980 -0.5416 -1.5821
  413SOL     OW 1237   1.730   3.039   2.501 -0.0474  0.2767  0.4064
  413SOL    HW1 1238   1.703   3.031   2.402  0.2848 -2.2977 -1.8183
  413SOL    HW2 1239   1.762   0.049   2.524  1.3562 -1.5000 -0.4118
  414SOL     OW 1240   0.355   0.698   0.706 -0.2535  0.2034 -0.1125
  414SOL    HW1 1241   0.438   0.650   0.678 -2.6653  1.2997  2.4402
  414SOL    HW2 1242   0.284   0.636   0.747 -0.4590 -2.1183  0.2930
  415SOL     OW 1243   0.373   1.014   1.073 -0.4269  0.3101  0.7171
  415SOL    HW1 1244   0.336   0.974   0.990 -0.6124 -0.3509  2.5241
  415SOL    HW2 1245   0.454   0.966   1.113  0.2329  0.6183 -1.3105
  416SOL     OW 1246   0.478   0.080   0.166  0.2471 -0.8396 -0.1016
  416SOL    HW1 1247   0.425   0.158   0.212 -2.5565  2.7388  1.5137
  416SOL    HW2 1248   0.501   0.003   0.225 -0.8423  0.8969  0.3829
  417SOL     OW 1249   2.112   0.423   0.558 -0.0315  0.7610 -0.5348
  417SOL    HW1 1250   2.161   0.350   0.610  0.3393  1.3660 -1.5515
  417SOL    HW2 1251   2.022   0.399   0.515  2.9050 -1.3260 -1.1232
  418SOL     OW 1252   0.576   0.414   2.706  0.4279  0.5208 -0.0756
  418SOL    HW1 1253   0.665   0.454   2.734 -0.9957  0.6499 -1.5103
  418SOL    HW2 1254   0.524   0.463   2.633 -1.6963 -0.1991  1.0668
  419SOL     OW 1255   0.420   0.949   0.620 -0.2098  0.4899 -0.1666
  419SOL    HW1 1256   0.379   0.858   0.643  1.7157 -2.1084 -0.3371
  419SOL    HW2 1257   0.456   0.988   0.704 -0.2311  1.2331 -2.2343
  420SOL     OW 1258   2.152   1.879   1.125  0.5145  0.0612  0.2263
  420SOL    HW1 1259   2.159   1.982   1.147  2.0437 -0.8355 -0.6346
  420SOL    HW2 1260   2.248   1.843   1.105  3.3854  0.0480 -0.7354
  421SOL     OW 1261   1.192   1.835   2.727 -0.2019 -0.6145  0.2354
  421SOL    HW1 1262   1.094   1.839   2.765 -0.6843  1.4479  4.6759
  421SOL    HW2 1263   1.202   1.818   2.626  1.3593 -1.2595 -0.5437
  422SOL     OW 1264   2.735   0.624   0.027 -0.0454  0.8427  0.0063
  422SOL    HW1 1265   2.679   0.580   0.106 -0.7187  0.6961  1.4853
  422SOL    HW2 1266   2.793   0.549   3.056 -0.1424 -4.7332  0.0370
  423SOL     OW 1267   1.994   1.986   0.426 -0.0373 -0.3290 -0.2333
  423SOL    HW1 1268   2.044   1.972   0.337 -0.2296 -1.4509 -1.1971
  423SOL    HW2 1269   1.927   1.912   0.439  0.1426  1.3330  0.0038
  424SOL     OW 1270   0.412   1.679   1.518  0.0879  0.0494 -0.3085
  424SOL    HW1 1271   0.496   1.686   1.462  0.2060  0.6268 -0.2277
  424SOL    HW2 1272   0.385   1.582   1.527  1.2300  1.8801  2.7882
  425SOL     OW 1273   2.533   2.720   1.989  0.2222 -0.0772  0.1931
  425SOL    HW1 1274   2.597   2.782   1.941  0.7666 -0.9695  1.0052
  425SOL    HW2 1275   2.538   2.631   1.942  0.9637  0.8284 -0.9881
  426SOL     OW 1276   1.693   2.572   0.518  0.2456  0.1535  0.0384
  426SOL    HW1 1277   1.599   2.561   0.480 -0.8280  0.3640  3.2744
  426SOL    HW2 1278   1.687   2.583   0.620  0.7423  2.6185  0.2229
  427SOL     OW 1279   0.254   0.550   2.583  0.0160 -0.3397  0.4744
  427SOL    HW1 1280   0.331   0.566   2.646 -1.2696 -1.6379  1.8557
  427SOL    HW2 1281   0.187   0.493   2.629  2.3035 -2.6702 -0.2997
  428SOL     OW 1282   2.150   1.051   2.800  0.2271 -0.0488  0.3599
  428SOL    HW1 1283   2.136   1.091   2.708 -2.0629 -1.7991  2.5626
  428SOL    HW2 1284   2.062   1.005   2.818  0.2071  1.2175  0.4946
  429SOL     OW 1285   2.969   0.130   0.594  0.1970  0.1308 -0.3865
  429SOL    HW1 1286   2.952   0.138   0.494 -2.0219  1.6639 -5.3831
  429SOL    HW2 1287   2.874   0.131   0.641 -2.8464  0.2191  0.5694
  430SOL     OW 1288   1.126   2.763   1.966 -0.2614 -0.0604  0.1714
  430SOL    HW1 1289   1.043   2.793   2.021 -0.7278  2.2033  2.2678
  430SOL    HW2 1290   1.173   2.687   2.011 -1.7125  2.0750 -0.0853
  431SOL     OW 1291   2.955   2.036   1.120 -0.2035  0.7466  0.2856
  431SOL    HW1 1292   2.864   2.056   1.159  2.0446 -2.0414 -0.0872
  431SOL    HW2 1293   3.002   1.986   1.198  1.3715 -2.7226  0.9077
  432SOL     OW 1294   2.253   2.786   2.014 -0.0399 -0.0729 -0.9246
  432SOL    HW1 1295   2.352   2.788   1.984 -2.1715 -0.0719  0.7962
  432SOL    HW2 1296   2.237   2.808   2.111  0.3498 -0.3056 -1.5466
  433SOL     OW 1297   1.087   2.059   0.062 -0.0456  0.4649  0.1801
  433SOL    HW1 1298   1.050   1.970   0.083 -0.9636  1.5914 -1.2831
  433SOL    HW2 1299   1.174   2.053   0.009 -1.8539 -0.2402  2.0266
  434SOL     OW 1300   0.017   2.403   2.569 -0.2961 -0.0546 -0.2207
  434SOL    HW1 1301   3.030   2.348   2.511  0.2133 -1.2475 -3.4224
  434SOL    HW2 1302   0.037   2.351   2.655 -0.4028 -0.1916 -1.7220
  435SOL     OW 1303   0.074   1.050   0.668 -0.0341 -0.1879  0.1218
  435SOL    HW1 1304   0.081   1.140   0.629 -2.9646 -0.7657  1.0049
  435SOL    HW2 1305   0.081   0.975   0.600  1.0603  2.5811  2.0168
  436SOL     OW 1306   0.785   2.488   1.934 -0.4753 -0.2000  0.8084
  436SOL    HW1 1307   0.780   2.481   1.832 -1.9661 -0.0464  1.1207
  436SOL    HW2 1308   0.785   2.394   1.969 -1.9903 -1.5189  0.0679
  437SOL     OW 1309   1.250   1.987   1.454  0.5678 -0.3535  0.4794
  437SOL    HW1 1310   1.249   1.988   1.351 -0.4366  1.7209 -0.1195
  437SOL    HW2 1311   1.346   1.982   1.492  1.7194  0.1085 -0.5829
  438SOL     OW 1312   0.310   2.174   0.395 -0.1126 -0.1337 -0.0049
  438SOL    HW1 1313   0.340   2.213   0.311  1.5813 -1.3507  2.5728
  438SOL    HW2 1314   0.359   2.084   0.417  2.3393 -2.3318  0.6349
  439SOL     OW 1315   0.592   3.033   1.299  0.2180  0.3606  0.4469
  439SOL    HW1 1316   0.539   2.962   1.246  0.5886  2.8134  0.3602
  439SOL    HW2 1317   0.546   3.047   1.389 -0.4766 -1.2649  0.2944
  440SOL     OW 1318   2.519   2.608   2.243  0.7796  0.1920 -0.3031
  440SOL    HW1 1319   2.545   2.510   2.266  0.8084 -0.7425 -0.2774
  440SOL    HW2 1320   2.552   2.643   2.152  0.0300 -1.3090  0.3518
  441SOL     OW 1321   3.055   0.497   1.677  0.3611 -0.2316 -0.3269
  441SOL    HW1 1322   2.978   0.531   1.621 -1.2614 -2.5186  2.6789
  441SOL    HW2 1323   0.035   0.437   1.623 -2.0331 -0.5575  0.1708
  442SOL     OW 1324   1.936   2.293   3.071  0.5247  0.2105 -0.2806
  442SOL    HW1 1325   1.841   2.310   0.022  2.6508 -1.2775  2.9422
  442SOL    HW2 1326   1.970   2.371   3.010  2.0455 -0.0726  0.2812
  443SOL     OW 1327   0.202   0.558   2.974  0.5668  0.0797  0.0928
  443SOL    HW1 1328   0.121   0.534   2.917 -1.0682  1.2650 -1.0132
  443SOL    HW2 1329   0.273   0.601   2.912 -0.8032  0.5792  0.8760
  444SOL     OW 1330   1.627   1.405   2.264 -0.3174  0.3216  0.1229
  444SOL    HW1 1331   1.584   1.331   2.208 -1.3566 -1.4183 -3.5365
  444SOL    HW2 1332   1.628   1.498   2.215  2.2557 -2.0555  0.9813
  445SOL     OW 1333   0.129   2.568   1.155  0.2859 -0.1679  0.0719
  445SOL    HW1 1334   0.062   2.645   1.175 -0.9589  0.7421 -1.0619
  445SOL    HW2 1335   0.174   2.575   1.062 -0.6527 -0.7249 -1.1810
  446SOL     OW 1336   2.819   1.543   1.272 -0.1895 -0.4051 -0.3831
  446SOL    HW1 1337   2.855   1.448   1.265 -2.9639  1.4086 -1.1001
  446SOL    HW2 1338   2.769   1.573   1.191  3.1274 -0.0952  4.5081
  447SOL     OW 1339   0.066   0.800   0.404 -0.2219 -0.8730 -0.4338
  447SOL    HW1 1340   0.132   0.761   0.338  1.3131 -0.8906  0.6857
  447SOL    HW2 1341   3.050   0.786   0.386 -1.6923  0.2253 -4.1773
  448SOL     OW 1342   1.474   2.050   2.020  0.4583 -0.1388 -0.6118
  448SOL    HW1 1343   1.459   2.127   1.955 -1.4843 -0.0977  0.7959
  448SOL    HW2 1344   1.397   2.033   2.087 -0.0181  0.6842  0.2933
  449SOL     OW 1345   1.077   1.483   0.290  0.1109  0.0338  0.3656
  449SOL    HW1 1346   1.050   1.383   0.298 -1.0013 -2.2900 -1.4124
  449SOL    HW2 1347   1.156   1.489   0.224  0.6480  0.6043 -1.5570
  450SOL     OW 1348   0.015   2.149   1.930  0.1716 -0.2493 -0.3363
  450SOL    HW1 1349   0.113   2.134   1.955  2.0557 -0.9400 -1.2262
  450SOL    HW2 1350   3.063   2.070   1.874  0.2674 -1.8403 -0.4912
  451SOL     OW 1351   2.456   0.859   2.473 -0.1584  0.6309 -0.3921
  451SOL    HW1 1352   2.390   0.846   2.547  1.3559 -1.5630 -0.1309
  451SOL    HW2 1353   2.551   0.853   2.505  1.1280  1.4131  0.2614
  452SOL     OW 1354   1.502   0.534   1.116  0.1626 -0.0062  0.1179
  452SOL    HW1 1355   1.422   0.519   1.180 -2.3685 -0.5059  3.7638
  452SOL    HW2 1356   1.580   0.575   1.164 -0.5158  1.8618  0.0258
  453SOL     OW 1357   1.565   0.931   1.265  0.6075 -0.8244 -0.3451
  453SOL    HW1 1358   1.506   0.863   1.315 -0.3006 -1.2487 -1.7828
  453SOL    HW2 1359   1.612   0.987   1.337  2.3176 -2.6067  0.4724
  454SOL     OW 1360   3.059   1.084   0.342 -0.2905 -0.6438  0.2805
  454SOL    HW1 1361   0.016   1.002   0.388 -0.9635 -0.6643  0.1163
  454SOL    HW2 1362   2.961   1.083   0.362 -1.8490 -0.3385 -0.0606
  455SOL     OW 1363   2.352   2.675   1.527 -0.2964  0.4153 -0.5155
  455SOL    HW1 1364   2.277   2.708   1.588  1.6845 -0.3009  0.9615
  455SOL    HW2 1365   2.338   2.690   1.430  1.9065 -0.3751  1.4223
  456SOL     OW 1366   0.349   2.700   1.411  0.0351  0.6141 -0.4258
  456SOL    HW1 1367   0.415   2.748   1.466 -2.0868 -0.5871  0.3909
  456SOL    HW2 1368   0.329   2.743   1.319  0.4788  0.4617 -2.4660
  457SOL     OW 1369   1.458   2.925   0.571  0.1616 -0.4761 -0.4566
  457SOL    HW1 1370   1.362   2.915   0.534 -1.0660  0.9059 -1.0483
  457SOL    HW2 1371   1.490   3.022   0.587  1.1292  1.4702 -3.1387
  458SOL     OW 1372   2.571   3.055   1.138  0.5235  0.2232  0.3376
  458SOL    HW1 1373   2.670   3.074   1.147  1.4902 -0.1290  3.5523
  458SOL    HW2 1374   2.557   2.958   1.119 -2.0508  1.4129 -2.1437
  459SOL     OW 1375   2.538   0.552   2.662  0.3604 -0.7998 -0.0294
  459SOL    HW1 1376   2.583   0.645   2.655 -0.4953 -0.8852  2.7825
  459SOL    HW2 1377   2.539   0.512   2.567  0.0668 -2.0465 -1.3085
  460SOL     OW 1378   2.712   2.546   2.890  0.3271 -0.1872  0.3073
  460SOL    HW1 1379   2.684   2.630   2.938  1.5330  2.2937 -0.1192
  460SOL    HW2 1380   2.759   2.479   2.950 -0.4590  0.9500 -1.4766
  461SOL     OW 1381   0.680   1.712   0.363 -0.3681  0.0277 -0.2365
  461SOL    HW1 1382   0.777   1.730   0.334  0.2678  1.5289  3.0679
  461SOL    HW2 1383   0.619   1.710   0.288  3.1852  0.0963  1.0587
  462SOL     OW 1384   2.083   2.086   0.803  0.6004 -0.0310 -0.9430
  462SOL    HW1 1385   2.014   2.158   0.796  0.4920 -1.8926 -0.7942
  462SOL    HW2 1386   2.172   2.108   0.846 -0.0691 -0.2225  0.5557
  463SOL     OW 1387   2.674   1.092   0.797 -0.0016 -0.5298  0.1879
  463SOL    HW1 1388   2.662   0.998   0.835  0.6468  3.1399 -0.4368
  463SOL    HW2 1389   2.622   1.101   0.709 -0.6427 -2.9040  0.7892
  464SOL     OW 1390   0.962   2.864   0.667 -0.5202 -0.1434  0.2248
  464SOL    HW1 1391   0.889   2.898   0.603  0.0821  3.9015 -1.6333
  464SOL    HW2 1392   1.010   2.785   0.626  1.8455 -1.4679  1.0333
  465SOL     OW 1393   2.279   1.330   0.463  0.6424 -0.3041  0.5081
  465SOL    HW1 1394   2.272   1.228   0.468  0.9569 -2.7300  1.0307
  465SOL    HW2 1395   2.249   1.373   0.375 -0.0088  1.9587  1.3732
  466SOL     OW 1396   2.273   0.243   2.931  0.0002 -0.1892  0.0642
  466SOL    HW1 1397   2.194   0.253   2.867 -1.8627 -1.3697 -0.3929
  466SOL    HW2 1398   2.336   0.322   2.924 -2.7488 -0.0084  0.9401
  467SOL     OW 1399   1.051   1.029   1.525 -0.7631 -0.2350 -0.9208
  467SOL    HW1 1400   1.053   1.032   1.624 -2.3769 -0.4291  1.3303
  467SOL    HW2 1401   1.033   0.936   1.492  2.2441  0.8290 -0.7622
  468SOL     OW 1402   0.570   0.987   2.353 -0.3839 -0.1867  0.1124
  468SOL    HW1 1403   0.621   1.037   2.280  0.4772  0.9667  0.5171
  468SOL    HW2 1404   0.509   1.045   2.413 -0.5628  0.5322  1.9105
  469SOL     OW 1405   0.486   2.209   0.114  0.4953  0.5974  0.3382
  469SOL    HW1 1406   0.538   2.297   0.096  0.9397  1.4023  1.0194
  469SOL    HW2 1407   0.529   2.150   0.185 -0.3829  0.8075  0.1249
  470SOL     OW 1408   2.571   1.162   2.736  0.0444 -0.4172 -0.4215
  470SOL    HW1 1409   2.602   1.067   2.766  0.8221 -1.3485  1.7111
  470SOL    HW2 1410   2.640   1.236   2.758 -2.7952  1.7314 -1.7455
  471SOL     OW 1411   2.561   0.983   2.202 -0.2320 -0.2160  0.4419
  471SOL    HW1 1412   2.648   0.970   2.253 -1.2619  1.2664  0.9451
  471SOL    HW2 1413   2.574   0.955   2.105 -1.1745  0.1534  0.5040
  472SOL     OW 1414   0.374   2.454   0.717 -0.2203  0.0035 -0.4661
  472SOL    HW1 1415   0.305   2.389   0.689  1.4556  0.9593 -1.0552
  472SOL    HW2 1416   0.415   2.498   0.634 -1.6694 -0.6121 -0.8447
  473SOL     OW 1417   0.613   0.286   0.015 -0.3224 -0.0862 -0.0990
  473SOL    HW1 1418   0.572   0.201   0.056 -0.8187 -0.8181 -0.6348
  473SOL    HW2 1419   0.638   0.262   3.003 -0.0888  1.1756 -1.1374
  474SOL     OW 1420   1.647   0.441   1.975  0.4026  0.0154 -0.1061
  474SOL    HW1 1421   1.672   0.466   1.877 -0.7330  0.8104 -0.4708
  474SOL    HW2 1422   1.548   0.422   1.973 -1.1337  2.4976 -0.3501
  475SOL     OW 1423   0.958   2.537   0.249 -0.9082 -0.2600 -0.0823
  475SOL    HW1 1424   1.007   2.447   0.237 -1.1349  0.0521 -0.2472
  475SOL    HW2 1425   0.963   2.595   0.168 -3.1049  0.5066 -0.3784
  476SOL     OW 1426   0.588   1.073   0.828 -0.0883  0.5830 -0.0637
  476SOL    HW1 1427   0.663   1.072   0.896 -0.9270  0.0381 -5.5043
  476SOL    HW2 1428   0.507   1.130   0.856 -0.6592  0.5253 -1.2000
  477SOL     OW 1429   1.707   2.467   1.346 -0.0115  0.0200 -0.7177
  477SOL    HW1 1430   1.652   2.397   1.382  2.1054 -0.7083 -1.5187
  477SOL    HW2 1431   1.704   2.469   1.243 -2.5612 -0.2692 -0.6918
  478SOL     OW 1432   0.579   1.499   2.295 -0.2158  0.1143  0.4209
  478SOL    HW1 1433   0.581   1.397   2.287  1.0345  0.1013  0.2577
  478SOL    HW2 1434   0.624   1.515   2.388 -0.8702  0.3901  0.8178
  479SOL     OW 1435   0.112   3.001   1.089  0.3903 -0.0487 -0.3152
  479SOL    HW1 1436   0.058   2.915   1.099 -0.0798 -1.0942  0.3795
  479SOL    HW2 1437   0.052   0.000   1.115  0.5296  1.4650  0.0607
  480SOL     OW 1438   2.739   0.009   0.229 -0.3634  0.1494  0.0335
  480SOL    HW1 1439   2.665   0.048   0.166 -2.6615 -2.0999  1.3491
  480SOL    HW2 1440   2.702   3.056   0.314  1.8798  0.2519 -1.0663
  481SOL     OW 1441   2.804   2.716   1.005 -0.0653  0.6867  0.5728
  481SOL    HW1 1442   2.828   2.633   0.948 -0.0913  0.1238 -0.8320
  481SOL    HW2 1443   2.715   2.702   1.058 -0.4076 -0.8607 -0.6412
  482SOL     OW 1444   1.457   2.336   2.256  0.2342  0.1710  0.5116
  482SOL    HW1 1445   1.437   2.242   2.295  0.4561 -0.9174  1.0782
  482SOL    HW2 1446   1.551   2.343   2.221 -0.6380  3.3393  1.2361
  483SOL     OW 1447   0.466   1.552   2.728 -0.1715  0.3993  0.6392
  483SOL    HW1 1448   0.511   1.495   2.658  1.4870 -0.9391 -1.1891
  483SOL    HW2 1449   0.499   1.647   2.718 -2.1931 -0.0753 -1.9182
  484SOL     OW 1450   1.146   1.139   2.393 -0.3045 -0.0241  0.1480
  484SOL    HW1 1451   1.055   1.175   2.376  0.4536 -0.9136 -3.0188
  484SOL    HW2 1452   1.218   1.208   2.369  4.7533 -2.0930  0.1141
  485SOL     OW 1453   2.769   0.368   0.449 -0.0280 -0.2919 -0.0630
  485SOL    HW1 1454   2.683   0.361   0.504 -1.0011 -0.1285 -0.8880
  485SOL    HW2 1455   2.815   0.278   0.438  1.3368  0.0582 -2.3367
  486SOL     OW 1456   1.536   2.957   0.910 -0.5109  0.3092 -0.0861
  486SOL    HW1 1457   1.621   2.992   0.967  1.6414  1.4520  1.7859
  486SOL    HW2 1458   1.533   3.006   0.820  1.8527 -2.1746 -2.5199
  487SOL     OW 1459   0.717   2.410   1.027 -0.4941 -0.1230 -0.1463
  487SOL    HW1 1460   0.631   2.464   1.055  1.1313 -0.5184 -1.6207
  487SOL    HW2 1461   0.764   2.467   0.951 -2.1821  1.1642 -3.0123
  488SOL     OW 1462   2.368   1.231   0.104  0.4439  0.2331  0.2468
  488SOL    HW1 1463   2.330   1.325   0.108  3.4045  2.1799 -3.7201
  488SOL    HW2 1464   2.372   1.200   0.006 -1.3971  0.2784  2.5435
  489SOL     OW 1465   1.202   2.984   0.995 -0.3711  0.3977 -0.3529
  489SOL    HW1 1466   1.177   2.994   1.096 -2.0064  0.8631  1.2933
  489SOL    HW2 1467   1.300   2.968   0.981  0.8155  0.6943 -1.0426
  490SOL     OW 1468   1.031   1.166   0.015 -0.2327  0.2766  0.4254
  490SOL    HW1 1469   1.130   1.155   0.033 -1.2285  1.0359  1.3620
  490SOL    HW2 1470   0.986   1.205   0.099  0.0525 -0.1070  1.7591
  491SOL     OW 1471   0.842   2.987   0.865 -0.4594 -0.0283  0.1114
  491SOL    HW1 1472   0.903   2.957   0.786 -1.7789 -0.0158 -1.6681
  491SOL    HW2 1473   0.852   2.925   0.942 -2.0074 -1.9701 -1.6621
  492SOL     OW 1474   1.330   1.228   2.149  0.1038  0.4782  0.2153
  492SOL    HW1 1475   1.282   1.317   2.174 -0.1428  1.0867 -2.0207
  492SOL    HW2 1476   1.405   1.245   2.076 -0.9807  1.7580  0.6573
  493SOL     OW 1477   0.158   2.299   0.606 -0.2596  0.0206 -0.5185
  493SOL    HW1 1478   0.196   2.254   0.521  0.5959 -0.2747  0.7491
  493SOL    HW2 1479   0.097   2.379   0.588 -1.3933  1.1953 -0.3790
  494SOL     OW 1480   2.504   1.878   2.967  0.2367  0.1659 -0.3049
  494SOL    HW1 1481   2.413   1.917   2.987  0.4124  1.0247 -0.7992
  494SOL    HW2 1482   2.500   1.778   2.964  0.1882  1.9219 -1.9746
  495SOL     OW 1483   2.669   1.467   2.819  0.1005  0.1920  0.1147
  495SOL    HW1 1484   2.741   1.421   2.763 -2.4120  0.6683  1.4061
  495SOL    HW2 1485   2.702   1.491   2.915 -0.8151  0.0083  0.5732
  496SOL     OW 1486   2.650   2.935   1.389 -0.1889  0.0946  0.2326
  496SOL    HW1 1487   2.623   2.985   1.473  0.7567  0.1609  0.0771
  496SOL    HW2 1488   2.578   2.937   1.319 -1.9280  2.8544 -0.7049
  497SOL     OW 1489   2.564   1.165   0.562  0.0309 -0.2696  0.5023
  497SOL    HW1 1490   2.483   1.134   0.513  3.0939 -0.2807 -0.8768
  497SOL    HW2 1491   2.578   1.259   0.534  1.5905 -2.6200  0.1287
  498SOL     OW 1492   2.901   2.250   2.467  0.4054 -0.7584 -0.6870
  498SOL    HW1 1493   2.883   2.159   2.516 -0.0798 -1.6933 -0.1143
  498SOL    HW2 1494   2.947   2.240   2.375  1.2220 -0.2391  0.3703
  499SOL     OW 1495   0.863   2.043   0.314 -0.3525 -0.1679  0.0650
  499SOL    HW1 1496   0.922   1.982   0.370  0.6227 -0.4986 -0.2613
  499SOL    HW2 1497   0.910   2.090   0.236  1.6219  0.6834  1.7220
  500SOL     OW 1498   0.841   0.080   2.626 -0.4414 -0.1501  0.2205
  500SOL    HW1 1499   0.940   0.100   2.623 -2.6417  0.2239  0.3521
  500SOL    HW2 1500   0.800   0.111   2.713 -2.0000 -4.2233 -0.7983
  501SOL     OW 1501   1.446   3.049   1.291 -0.5257  0.5417  0.0939
  501SOL    HW1 1502   1.514   3.028   1.361 -3.1644  3.2187 -0.0454
  501SOL    HW2 1503   1.479   0.046   1.237  2.2773  0.5565 -2.5912
  502SOL     OW 1504   0.043   0.228   2.191 -0.1030 -0.6565 -0.9245
  502SOL    HW1 1505   0.141   0.254   2.186 -1.4289  0.8995  0.3773
  502SOL    HW2 1506   0.004   0.248   2.100  0.1254 -0.5498 -0.9631
  503SOL     OW 1507   2.201   2.058   2.466 -0.1501 -0.1543 -0.2914
  503SOL    HW1 1508   2.196   1.955   2.483 -0.0095  1.5372  0.4357
  503SOL    HW2 1509   2.117   2.098   2.419  0.2262  1.0844  0.2975
  504SOL     OW 1510   1.359   0.535   1.805 -0.6694 -0.4438  0.1046
  504SOL    HW1 1511   1.291   0.459   1.813  1.8623 -0.7557  0.8564
  504SOL    HW2 1512   1.389   0.560   1.711 -2.5846  2.0591 -1.4435
  505SOL     OW 1513   0.009   0.968   1.532 -0.1992  0.3156 -0.3465
  505SOL    HW1 1514   0.002   1.069   1.514 -2.7940  1.5619 -0.8225
  505SOL    HW2 1515   0.030   0.914   1.448  0.6635  0.0928 -0.0417
  506SOL     OW 1516   0.581   1.233   2.206 -0.0676  0.2214 -0.1875
  506SOL    HW1 1517   0.498   1.221   2.259 -2.3095  0.8015  1.6534
  506SOL    HW2 1518   0.565   1.267   2.113  0.6119  0.3723  1.6786
  507SOL     OW 1519   0.438   2.906   2.421 -0.1381 -0.0882 -0.0926
  507SOL    HW1 1520   0.525   2.951   2.398  0.4845 -2.1892 -0.3833
  507SOL    HW2 1521   0.444   2.807   2.418  2.4956  0.3523 -0.5617
  508SOL     OW 1522   1.401   0.732   1.375  0.3095  0.8257 -1.1774
  508SOL    HW1 1523   1.445   0.669   1.444 -0.1376  1.0958 -1.2379
  508SOL    HW2 1524   1.326   0.692   1.325  3.5647 -2.0929  1.0677
  509SOL     OW 1525   0.847   1.748   1.580  0.4694  0.1650 -0.2945
  509SOL    HW1 1526   0.844   1.797   1.669 -1.1151 -0.8994  2.4461
  509SOL    HW2 1527   0.937   1.762   1.536  0.1032 -0.8386 -0.7195
  510SOL     OW 1528   2.399   0.670   2.301 -0.1058 -0.1764 -0.0611
  510SOL    HW1 1529   2.470   0.610   2.343  0.8284  1.5162  0.1461
  510SOL    HW2 1530   2.404   0.763   2.346 -0.6638 -0.5027 -1.1750
  511SOL     OW 1531   0.616   1.618   1.040  0.0185 -0.1092  0.5181
  511SOL    HW1 1532   0.577   1.584   0.948 -1.7043  2.4700 -4.0220
  511SOL    HW2 1533   0.547   1.675   1.091 -0.3984 -0.6249 -0.1082
  512SOL     OW 1534   2.509   2.130   0.577 -0.0757  0.0595  0.1305
  512SOL    HW1 1535   2.414   2.099   0.547 -1.0759 -0.7407 -0.3110
  512SOL    HW2 1536   2.516   2.229   0.593  0.8683  0.4512 -1.5005
  513SOL     OW 1537   2.870   1.358   2.640 -0.2673 -0.1402  0.6259
  513SOL    HW1 1538   2.892   1.260   2.614  1.6226 -1.0016 -1.4549
  513SOL    HW2 1539   2.896   1.421   2.571 -1.6931 -0.0435 -0.1434
  514SOL     OW 1540   0.275   2.051   2.676  0.1475 -0.2289  0.3861
  514SOL    HW1 1541   0.214   2.050   2.762 -1.1859  0.5745  1.4551
  514SOL    HW2 1542   0.345   2.121   2.677 -1.4427 -2.4630 -0.8483
  515SOL     OW 1543   1.910   1.702   2.089 -0.2452  0.0668  0.0202
  515SOL    HW1 1544   1.940   1.663   2.000  2.8256 -2.3114 -0.2216
  515SOL    HW2 1545   1.962   1.669   2.169  0.4060  0.6823  1.1070
  516SOL     OW 1546   2.343   2.270   2.937  0.0411  0.2466  0.3306
  516SOL    HW1 1547   2.303   2.356   2.976 -0.9362  1.4307  0.8261
  516SOL    HW2 1548   2.434   2.243   2.973  0.9340  0.6662 -0.7323
  517SOL     OW 1549   1.294   1.124   0.101  0.2655 -0.3698 -0.0036
  517SOL    HW1 1550   1.370   1.090   0.046 -2.0570 -2.1499 -0.8000
  517SOL    HW2 1551   1.275   1.059   0.177  0.3799  0.7537  0.3819
  518SOL     OW 1552   2.651   3.037   2.062 -0.0945  0.3912  0.0437
  518SOL    HW1 1553   2.655   0.049   2.023  0.5147 -3.2128 -0.3523
  518SOL    HW2 1554   2.586   3.022   2.140 -1.8699  0.9821  0.4245
  519SOL     OW 1555   1.877   2.218   1.932 -0.5416 -0.0829  0.1728
  519SOL    HW1 1556   1.835   2.221   1.841 -0.6824  1.1704  0.7166
  519SOL    HW2 1557   1.969   2.177   1.932  1.9488  1.3430  2.8873
  520SOL     OW 1558   2.766   0.031   2.661  0.1174 -0.2402 -0.1326
  520SOL    HW1 1559   2.760   3.031   2.721 -0.8629 -3.3368 -0.7467
  520SOL    HW2 1560   2.768   0.003   2.563  0.4225  0.9377 -2.7024
  521SOL     OW 1561   0.311   1.402   2.267 -0.2447  0.4525 -0.4531
  521SOL    HW1 1562   0.261   1.450   2.194 -3.0479  1.7000  1.4981
  521SOL    HW2 1563   0.403   1.442   2.287  1.3482  0.5464 -1.1639
  522SOL     OW 1564   0.852   0.298   1.763 -0.0741  0.1302 -0.0923
  522SOL    HW1 1565   0.911   0.366   1.807 -1.4313 -3.0289 -0.4898
  522SOL    HW2 1566   0.756   0.326   1.765  0.4549 -1.5443 -0.0445
  523SOL     OW 1567   0.211   2.589   0.902  0.2041  0.2901  0.0064
  523SOL    HW1 1568   0.168   2.680   0.880 -0.1265 -0.2364 -0.0491
  523SOL    HW2 1569   0.258   2.547   0.819 -1.7245 -0.1604 -0.8484
  524SOL     OW 1570   1.611   2.571   0.801 -0.6137 -0.0362 -0.1490
  524SOL    HW1 1571   1.644   2.606   0.891 -2.5327  1.8673  1.0855
  524SOL    HW2 1572   1.520   2.610   0.769  1.4002 -0.6716 -1.4020
  525SOL     OW 1573   2.414   0.788   1.187  0.1172 -0.3759 -0.0610
  525SOL    HW1 1574   2.499   0.819   1.229 -1.1117 -1.2596 -1.3462
  525SOL    HW2 1575   2.381   0.860   1.118 -0.2982  1.5523 -0.6620
  526SOL     OW 1576   0.790   2.272   0.723  0.0228 -0.1002 -0.1002
  526SOL    HW1 1577   0.688   2.268   0.734 -1.7841  1.9838 -1.1232
  526SOL    HW2 1578   0.823   2.366   0.713  0.8916 -0.7884 -3.2044
  527SOL     OW 1579   2.266   1.976   0.527  0.8368 -0.0144  0.1487
  527SOL    HW1 1580   2.270   1.919   0.443  1.4716 -1.6327 -1.4392
  527SOL    HW2 1581   2.173   2.016   0.544 -1.8025  3.7097 -2.5399
  528SOL     OW 1582   2.284   0.676   0.610 -0.5749  0.0567 -0.2087
  528SOL    HW1 1583   2.214   0.594   0.606  1.9898  3.6961  0.8837
  528SOL    HW2 1584   2.225   0.763   0.602 -1.6630  0.7420  0.3754
  529SOL     OW 1585   1.186   1.436   2.273 -0.0021 -0.0401  0.8346
  529SOL    HW1 1586   1.102   1.473   2.321  0.4085 -1.3984 -0.5710
  529SOL    HW2 1587   1.263   1.475   2.324 -0.4717  0.8610 -0.1027
  530SOL     OW 1588   2.551   0.827   3.044 -0.6836 -0.0778  0.2544
  530SOL    HW1 1589   2.607   0.750   3.080 -0.2238  1.8166 -4.2022
  530SOL    HW2 1590   2.532   0.893   0.036 -0.4640  0.4285  1.0152
  531SOL     OW 1591   1.181   0.900   0.232 -0.8791  0.0503  0.0831
  531SOL    HW1 1592   1.154   0.808   0.260  0.3732  2.1157  4.1686
  531SOL    HW2 1593   1.161   0.963   0.310  2.2125 -1.7097  0.2092
  532SOL     OW 1594   2.105   0.030   0.745 -0.0650 -0.3898 -0.4903
  532SOL    HW1 1595   2.047   0.087   0.802 -0.6187  2.0218 -0.5203
  532SOL    HW2 1596   2.199   0.026   0.786 -1.3832  0.1993  0.0029
  533SOL     OW 1597   1.361   0.785   2.157 -0.3091 -0.4576 -0.4188
  533SOL    HW1 1598   1.307   0.871   2.140  1.2169 -0.4829  0.8353
  533SOL    HW2 1599   1.436   0.770   2.089  2.3121  0.3233 -1.2309
  534SOL     OW 1600   1.680   2.824   2.923  0.0720 -0.8458 -0.2029
  534SOL    HW1 1601   1.770   2.872   2.936 -1.2972 -3.0802 -3.1538
  534SOL    HW2 1602   1.695   2.726   2.876 -0.0890 -4.6733  2.0310
  535SOL     OW 1603   0.452   2.946   0.353 -0.7245  0.3827  0.2497
  535SOL    HW1 1604   0.509   3.010   0.411  0.7121 -0.3500 -0.1567
  535SOL    HW2 1605   0.362   2.941   0.393  2.8280  0.1138  0.1887
  536SOL     OW 1606   0.728   2.700   0.910 -0.2893  0.2291  0.1230
  536SOL    HW1 1607   0.639   2.745   0.891 -1.0336 -1.2352 -1.5557
  536SOL    HW2 1608   0.768   2.727   1.001  0.6016 -0.4406  0.0751
  537SOL     OW 1609   1.727   0.721   1.160  0.4144  0.0600  0.1777
  537SOL    HW1 1610   1.782   0.668   1.224 -0.6034  1.0810  0.0875
  537SOL    HW2 1611   1.675   0.798   1.205 -0.5218  0.3050 -0.7851
  538SOL     OW 1612   2.770   2.690   0.217 -0.2765  0.3690 -0.1605
  538SOL    HW1 1613   2.824   2.615   0.257 -3.0996  0.4198  0.0144
  538SOL    HW2 1614   2.697   2.712   0.280  0.6017 -1.1502 -0.7474
  539SOL     OW 1615   2.814   1.743   2.602  0.7294  0.0720  0.2298
  539SOL    HW1 1616   2.714   1.772   2.609 -4.5555 -0.7638  1.3830
  539SOL    HW2 1617   2.867   1.798   2.531  1.2006  0.8908 -2.8799
  540SOL     OW 1618   3.020   2.755   1.625  0.1853  0.3932 -0.0474
  540SOL    HW1 1619   0.009   2.689   1.595  0.7044  0.9761  0.0249
  540SOL    HW2 1620   2.946   2.714   1.679 -1.1701  0.4738  2.5399
  541SOL     OW 1621   2.536   3.024   1.731  0.0188  0.6320 -0.1531
  541SOL    HW1 1622   2.568   3.078   1.809  0.0257  2.2563 -2.8007
  541SOL    HW2 1623   2.442   3.046   1.709 -1.2671 -0.7486 -1.4664
  542SOL     OW 1624   2.945   0.599   2.142 -0.6276  0.3657 -0.1541
  542SOL    HW1 1625   3.039   0.628   2.161 -1.0808 -1.4422  0.4431
  542SOL    HW2 1626   2.939   0.569   2.046 -3.5789 -0.8538 -1.8547
  543SOL     OW 1627   0.935   0.524   0.755  0.0091 -0.3379  0.3323
  543SOL    HW1 1628   0.867   0.595   0.727 -0.6275  0.5431  0.3613
  543SOL    HW2 1629   0.983   0.492   0.673 -2.7133  1.0617  1.4419
  544SOL     OW 1630   2.593   2.303   1.044 -0.1902 -0.0176 -0.3921
  544SOL    HW1 1631   2.683   2.253   1.049  1.9621 -0.1092 -1.9887
  544SOL    HW2 1632   2.564   2.326   1.139 -0.0153  1.5406 -1.5840
  545SOL     OW 1633   0.936   1.715   0.302 -0.7566  0.5754 -0.2443
  545SOL    HW1 1634   0.990   1.772   0.368  0.6583 -0.2693 -0.6154
  545SOL    HW2 1635   0.964   1.618   0.320 -0.4511  0.5158  2.1177
  546SOL     OW 1636   2.387   0.535   1.814  0.0897 -0.3368 -0.1884
  546SOL    HW1 1637   2.329   0.593   1.876 -0.0017  2.1864  0.2817
  546SOL    HW2 1638   2.456   0.484   1.867 -0.9541  0.4951  1.8996
  547SOL     OW 1639   0.240   0.222   2.503 -0.2724 -0.0492 -0.2641
  547SOL    HW1 1640   0.180   0.259   2.573 -1.2903 -0.7784 -1.8332
  547SOL    HW2 1641   0.182   0.225   2.414 -2.1373  1.4108 -0.4238
  548SOL     OW 1642   2.098   1.758   2.345 -0.7272  0.4186 -0.0573
  548SOL    HW1 1643   2.136   1.664   2.353 -0.8098 -0.2482  1.4329
  548SOL    HW2 1644   2.047   1.786   2.428  1.8031  2.4424 -0.7361
  549SOL     OW 1645   2.789   0.829   0.711  0.5469 -0.1184 -0.2346
  549SOL    HW1 1646   2.744   0.750   0.663 -0.8848 -0.3169  0.5383
  549SOL    HW2 1647   2.787   0.816   0.813 -1.4438 -1.1876  0.9498
  550SOL     OW 1648   1.616   1.310   0.534 -0.0826  0.0355  0.1575
  550SOL    HW1 1649   1.549   1.230   0.542  1.2790 -0.9635  1.2084
  550SOL    HW2 1650   1.629   1.334   0.435 -0.4727  1.0489 -3.6221
  551SOL     OW 1651   1.019   0.200   1.235 -0.3243 -0.1501 -0.0505
  551SOL    HW1 1652   0.957   0.170   1.159 -0.3863  0.5694 -0.9201
  551SOL    HW2 1653   1.047   0.128   1.300  0.2206  1.0686 -1.0335
  552SOL     OW 1654   2.265   2.364   2.024 -0.4110  0.6016 -0.4146
  552SOL    HW1 1655   2.224   2.456   2.031  1.5564 -1.2910 -0.0247
  552SOL    HW2 1656   2.278   2.326   2.120 -0.0595 -1.3472 -2.5341
  553SOL     OW 1657   0.090   0.074   0.233 -0.3183  0.1822 -0.0939
  553SOL    HW1 1658   0.169   0.143   0.215  0.5742  0.5361  1.6316
  553SOL    HW2 1659   0.079   0.015   0.152 -0.8427  0.3498 -0.2198
  554SOL     OW 1660   1.397   2.727   1.558  0.6471 -0.4565 -0.4472
  554SOL    HW1 1661   1.394   2.646   1.494  1.6575 -1.3629 -2.5184
  554SOL    HW2 1662   1.324   2.791   1.527  3.8064  0.7554  1.1868
  555SOL     OW 1663   2.226   2.815   1.726  0.1341 -0.0449  0.5750
  555SOL    HW1 1664   2.135   2.799   1.680  0.1405  0.9706 -2.2886
  555SOL    HW2 1665   2.216   2.803   1.828  1.8692  1.5007 -0.1532
  556SOL     OW 1666   0.939   2.859   2.931  0.3958 -0.1479  0.4569
  556SOL    HW1 1667   0.934   2.815   2.837 -0.4047  1.3746 -3.1575
  556SOL    HW2 1668   0.850   2.901   2.955 -2.0726 -1.2349 -2.0343
  557SOL     OW 1669   0.322   2.063   2.283  0.4679  0.3879 -0.6356
  557SOL    HW1 1670   0.326   1.975   2.237  0.0902  0.5152  2.2909
  557SOL    HW2 1671   0.366   2.129   2.218 -1.6131  1.8516 -2.3861
  558SOL     OW 1672   2.427   1.145   2.484  0.1244  0.0664 -0.2940
  558SOL    HW1 1673   2.495   1.143   2.562  1.2657  3.3078  1.6656
  558SOL    HW2 1674   2.438   1.071   2.415 -0.7083 -0.9340  0.9782
  559SOL     OW 1675   2.309   2.248   2.296  0.3365  0.3900 -0.2427
  559SOL    HW1 1676   2.388   2.299   2.339 -0.7810  1.5583  0.7613
  559SOL    HW2 1677   2.272   2.169   2.351 -1.0633  0.0282  2.2287
  560SOL     OW 1678   0.238   0.501   2.325  0.7239 -0.0793  0.4726
  560SOL    HW1 1679   0.186   0.576   2.278 -0.9503  1.0074 -1.4656
  560SOL    HW2 1680   0.252   0.527   2.424  0.2460  2.2383  2.1367
  561SOL     OW 1681   0.702   0.403   0.462  0.3024  0.4537 -0.1351
  561SOL    HW1 1682   0.721   0.315   0.510  0.6540  1.4100 -3.0023
  561SOL    HW2 1683   0.693   0.371   0.364 -1.5265 -0.2546 -1.1522
  562SOL     OW 1684   0.707   1.438   1.694 -0.4848  0.2793  0.3655
  562SOL    HW1 1685   0.677   1.434   1.600  0.9093  0.1791  1.2492
  562SOL    HW2 1686   0.631   1.408   1.755 -3.0734 -0.3526  0.6267
  563SOL     OW 1687   1.419   2.739   3.058 -0.1958 -0.2481  0.6226
  563SOL    HW1 1688   1.349   2.815   3.070  0.6023  1.6239 -1.5367
  563SOL    HW2 1689   1.500   2.786   3.018 -0.3514  1.0173  1.1183
  564SOL     OW 1690   0.134   1.947   0.666 -0.2557  0.4981  0.0511
  564SOL    HW1 1691   0.216   1.956   0.598  1.8812  0.1775 -2.2960
  564SOL    HW2 1692   0.161   1.987   0.755 -0.6083  0.1239 -0.2766
  565SOL     OW 1693   0.263   2.477   2.484  0.0681  1.2167  0.0014
  565SOL    HW1 1694   0.277   2.537   2.408  0.5792 -1.9946  2.2884
  565SOL    HW2 1695   0.162   2.447   2.480 -2.0291 -0.5107 -2.6612
  566SOL     OW 1696   1.328   2.558   2.308  0.0221  0.0641 -0.3476
  566SOL    HW1 1697   1.351   2.590   2.398  2.3753 -1.0802  1.2772
  566SOL    HW2 1698   1.390   2.483   2.285 -0.7937 -0.5146  3.8465
  567SOL     OW 1699   1.872   2.041   1.044 -0.5756  0.0309 -0.0440
  567SOL    HW1 1700   1.779   2.010   1.059  1.4952  0.2883 -1.6068
  567SOL    HW2 1701   1.926   1.954   1.042 -1.2903 -2.7608  1.7862
  568SOL     OW 1702   2.134   0.599   0.041 -0.6071  0.1480  0.2127
  568SOL    HW1 1703   2.136   0.501   0.050  4.0069  2.7722  0.5612
  568SOL    HW2 1704   2.042   0.639   0.031 -2.7189  1.1021 -1.6432
  569SOL     OW 1705   2.789   1.306   2.327 -0.1628 -0.0857  0.2549
  569SOL    HW1 1706   2.822   1.397   2.357 -0.0995  0.4708  0.2362
  569SOL    HW2 1707   2.697   1.289   2.364  0.7856 -0.9474  1.8934
  570SOL     OW 1708   2.789   2.633   1.761  0.2387  0.0760  0.5282
  570SOL    HW1 1709   2.703   2.683   1.726 -1.3563  2.3756 -2.5721
  570SOL    HW2 1710   2.801   2.542   1.722 -2.0392  0.5490 -0.1164
  571SOL     OW 1711   0.247   0.372   1.765 -0.1115 -0.0963 -0.5278
  571SOL    HW1 1712   0.338   0.339   1.731  0.1061 -0.4586 -0.4214
  571SOL    HW2 1713   0.171   0.300   1.760 -0.4611 -1.8220 -0.3949
  572SOL     OW 1714   2.883   2.110   0.878 -0.0866  0.1375 -0.4673
  572SOL    HW1 1715   2.932   2.196   0.854  0.3936 -2.0110 -0.3145
  572SOL    HW2 1716   2.912   2.075   0.974  2.2207  2.2423  0.1959
  573SOL     OW 1717   0.950   0.906   3.057  0.1815  0.4962 -0.3818
  573SOL    HW1 1718   0.980   0.992   0.016  0.7437 -3.3680  1.1365
  573SOL    HW2 1719   0.849   0.890   3.067  3.0228 -0.8051 -1.7855
  574SOL     OW 1720   2.634   2.775   3.055 -0.0660  0.2121 -0.7206
  574SOL    HW1 1721   2.665   2.847   2.995 -1.6215 -0.9702  1.9253
  574SOL    HW2 1722   2.702   2.757   0.046 -0.7694 -2.4627  1.3943
  575SOL     OW 1723   1.090   1.760   1.427 -0.0809 -0.0623 -0.6195
  575SOL    HW1 1724   1.108   1.724   1.337 -0.6155  1.5043  1.0299
  575SOL    HW2 1725   1.150   1.843   1.443 -1.2137 -1.4422  0.8653
  576SOL     OW 1726   2.912   2.869   1.382  0.3618 -0.3095  0.1717
  576SOL    HW1 1727   2.815   2.896   1.397 -1.5212  1.4617  2.2102
  576SOL    HW2 1728   2.959   2.827   1.461 -2.9012  1.0270 -0.7987
  577SOL     OW 1729   2.370   1.383   1.531 -0.1224  0.0883 -0.1639
  577SOL    HW1 1730   2.275   1.345   1.529 -0.1243 -0.9731  0.0275
  577SOL    HW2 1731   2.366   1.481   1.517 -0.6058 -2.5975  0.0058
  578SOL     OW 1732   1.179   0.207   2.925 -0.0587 -0.0542  0.6495
  578SOL    HW1 1733   1.179   0.109   2.910 -1.3353  0.5564  1.4565
  578SOL    HW2 1734   1.268   0.250   2.906 -3.4436 -1.2907  1.7532
  579SOL     OW 1735   2.618   1.769   2.285  0.1182 -0.2690 -0.4542
  579SOL    HW1 1736   2.575   1.686   2.254  1.1037  1.6646  2.8016
  579SOL    HW2 1737   2.719   1.775   2.254  0.5403 -1.3806  2.0188
  580SOL     OW 1738   1.711   0.806   1.657 -0.0723 -0.0179  0.2010
  580SOL    HW1 1739   1.686   0.898   1.694 -1.3191 -1.6820 -1.0711
  580SOL    HW2 1740   1.770   0.810   1.576  0.6335 -0.4633  1.9606
  581SOL     OW 1741   0.664   1.671   1.388  0.0520  0.1933  0.0162
  581SOL    HW1 1742   0.697   1.718   1.302  0.9334  2.0605  0.2114
  581SOL    HW2 1743   0.742   1.676   1.459  0.9010  0.8062  0.7356
  582SOL     OW 1744   2.866   2.900   2.172  0.3741 -0.1855 -0.2171
  582SOL    HW1 1745   2.950   2.951   2.210  4.0280  1.0345  2.5949
  582SOL    HW2 1746   2.805   2.966   2.121 -1.7237  2.1922  0.0999
  583SOL     OW 1747   2.098   1.224   1.441  0.1927 -0.5713 -0.0323
  583SOL    HW1 1748   2.079   1.327   1.442 -0.9755  1.9503  1.1697
  583SOL    HW2 1749   2.101   1.194   1.345 -1.7610 -1.3092  1.5899
  584SOL     OW 1750   1.174   2.088   2.820  0.2883  0.2040  0.0420
  584SOL    HW1 1751   1.253   2.075   2.888  0.7992 -1.2836  0.7233
  584SOL    HW2 1752   1.164   1.998   2.769 -0.6158  0.5816 -0.2035
  585SOL     OW 1753   0.226   2.646   0.407 -0.0452 -0.4181 -0.0574
  585SOL    HW1 1754   0.189   2.727   0.364  2.4440  0.5685  0.2554
  585SOL    HW2 1755   0.250   2.570   0.343 -2.1785  0.7384 -0.2024
  586SOL     OW 1756   1.633   2.407   2.619  0.1362  0.5026 -0.2708
  586SOL    HW1 1757   1.550   2.359   2.658 -0.6459 -4.1165 -1.4185
  586SOL    HW2 1758   1.706   2.334   2.611  0.8254  0.2502  1.3102
  587SOL     OW 1759   2.592   1.829   0.356 -0.0882 -0.1834 -0.0592
  587SOL    HW1 1760   2.637   1.913   0.322  0.6985 -1.9637  0.3078
  587SOL    HW2 1761   2.490   1.827   0.347 -0.5706  0.4492  0.3870
  588SOL     OW 1762   2.048   0.173   0.999  0.3171  0.3257  0.4015
  588SOL    HW1 1763   1.976   0.215   0.937 -2.3067  0.1849 -2.3337
  588SOL    HW2 1764   2.115   0.244   1.024 -1.5793  0.3516  0.0410
  589SOL     OW 1765   0.824   0.682   0.522  0.0341 -0.4571  0.1291
  589SOL    HW1 1766   0.769   0.762   0.495  2.3018  1.4570 -0.7734
  589SOL    HW2 1767   0.781   0.597   0.486 -1.4246  0.6103 -2.3392
  590SOL     OW 1768   2.587   2.188   3.009  0.4710  0.1553 -0.6542
  590SOL    HW1 1769   2.668   2.242   3.033 -5.3965  0.0694 -2.6862
  590SOL    HW2 1770   2.605   2.101   2.968 -1.0384  0.1072  1.2601
  591SOL     OW 1771   0.108   2.609   1.489  0.2321  0.3375 -0.6144
  591SOL    HW1 1772   0.188   2.661   1.460 -1.9092  0.6643 -1.8697
  591SOL    HW2 1773   0.131   2.510   1.509 -1.5567  0.2147 -0.9791
  592SOL     OW 1774   0.837   1.108   1.345  0.1475  0.0161  0.4012
  592SOL    HW1 1775   0.746   1.133   1.380 -0.0322  1.4200 -1.0120
  592SOL    HW2 1776   0.897   1.078   1.418 -0.4075 -1.7515  0.1232
  593SOL     OW 1777   0.878   1.535   1.024 -0.0211  0.0144 -0.6206
  593SOL    HW1 1778   0.952   1.590   1.069  0.4980  0.7777  1.2585
  593SOL    HW2 1779   0.794   1.597   1.035 -1.0076  1.9003 -0.9514
  594SOL     OW 1780   0.407   1.804   2.599  0.4801 -0.3314  0.1080
  594SOL    HW1 1781   0.442   1.796   2.504  1.7059 -3.9394 -1.2888
  594SOL    HW2 1782   0.374   1.898   2.621 -1.5486 -2.6404 -1.1024
  595SOL     OW 1783   1.305   0.243   1.170  0.3551 -0.4010  0.1958
  595SOL    HW1 1784   1.334   0.199   1.083 -1.1888 -0.0583 -0.0448
  595SOL    HW2 1785   1.203   0.239   1.173  0.2004 -0.1913 -3.8068
  596SOL     OW 1786   0.178   1.243   0.495 -0.0391  0.7995 -0.6215
  596SOL    HW1 1787   0.257   1.197   0.452 -0.2296 -2.2355 -0.1583
  596SOL    HW2 1788   0.089   1.208   0.449  0.2927  0.6405 -2.1093
  597SOL     OW 1789   0.091   2.410   2.968  0.2648 -0.0257  0.4840
  597SOL    HW1 1790   0.047   2.344   2.896 -0.3016 -3.0305  0.1818
  597SOL    HW2 1791   0.045   2.393   3.059 -1.6998  0.4421  2.7482
  598SOL     OW 1792   2.175   1.911   2.138 -0.4297 -0.2796  0.0592
  598SOL    HW1 1793   2.131   1.849   2.204  0.2209  0.7840 -1.2447
  598SOL    HW2 1794   2.266   1.880   2.097  1.7832 -4.5104 -0.7280
  599SOL     OW 1795   1.128   0.470   0.562  0.6833 -0.0388 -0.3834
  599SOL    HW1 1796   1.134   0.534   0.484 -0.1406 -0.6097  1.2307
  599SOL    HW2 1797   1.221   0.450   0.589 -1.6310  2.9067 -0.4527
  600SOL     OW 1798   0.459   2.628   0.508 -0.4696  0.0691  0.4460
  600SOL    HW1 1799   0.380   2.646   0.443  2.0519 -0.0107 -2.1442
  600SOL    HW2 1800   0.545   2.621   0.456  3.2654 -0.4542  1.2632
  601SOL     OW 1801   0.565   0.874   1.202 -0.0252 -0.3445  0.0357
  601SOL    HW1 1802   0.638   0.928   1.162 -0.4092  0.2750 -0.4323
  601SOL    HW2 1803   0.553   0.789   1.147 -0.5326  1.8937 -1.9082
  602SOL     OW 1804   0.485   2.559   1.070  0.2961  0.4521 -0.1960
  602SOL    HW1 1805   0.438   2.496   1.134  3.2143  2.7440 -0.6334
  602SOL    HW2 1806   0.423   2.590   0.995 -3.2128  1.8068 -0.3746
  603SOL     OW 1807   1.061   2.670   2.310 -0.5083 -0.3730 -0.0972
  603SOL    HW1 1808   1.016   2.732   2.243 -0.6086 -1.9703 -0.2591
  603SOL    HW2 1809   1.162   2.662   2.296 -0.6181 -1.3128 -0.6187
  604SOL     OW 1810   0.720   2.778   2.579  0.1483 -0.6115 -1.0630
  604SOL    HW1 1811   0.651   2.783   2.656  1.3498 -0.6987 -1.3831
  604SOL    HW2 1812   0.712   2.857   2.518 -0.3083  0.0933 -2.0490
  605SOL     OW 1813   1.523   0.746   1.882 -0.0250 -0.6880  0.2387
  605SOL    HW1 1814   1.447   0.690   1.847 -0.9917  2.2173  0.9517
  605SOL    HW2 1815   1.589   0.748   1.806 -2.7972 -1.4032  0.3093
  606SOL     OW 1816   2.075   0.279   2.758  0.3172  0.2108  0.3926
  606SOL    HW1 1817   2.041   0.366   2.709 -0.5960  2.2500  0.4597
  606SOL    HW2 1818   2.120   0.221   2.689  0.1991  1.4003 -1.5476
  607SOL     OW 1819   0.776   0.545   1.151 -0.1251  0.1342 -0.4399
  607SOL    HW1 1820   0.776   0.610   1.071  0.9067  2.3698  0.8071
  607SOL    HW2 1821   0.739   0.592   1.237 -1.5302 -1.9322  2.5735
  608SOL     OW 1822   3.012   2.226   2.204 -0.1835 -0.0813  0.3418
  608SOL    HW1 1823   3.015   2.327   2.182 -0.8951 -1.2260 -0.1616
  608SOL    HW2 1824   3.033   2.175   2.116 -1.1703  0.2895  1.4290
  609SOL     OW 1825   1.722   0.687   3.004  0.1452  0.7251 -0.2990
  609SOL    HW1 1826   1.741   0.598   3.057 -2.0444 -0.5621  0.6038
  609SOL    HW2 1827   1.675   0.755   3.061 -1.2962 -1.2617 -0.1891
  610SOL     OW 1828   0.829   2.955   1.389  0.5398  0.0497 -0.0780
  610SOL    HW1 1829   0.739   2.989   1.351 -0.4781  1.5082 -0.3532
  610SOL    HW2 1830   0.878   3.022   1.447 -1.8254  0.2180 -1.5498
  611SOL     OW 1831   1.502   0.600   0.391 -0.1757 -0.5563 -0.1211
  611SOL    HW1 1832   1.593   0.559   0.428  1.2131  1.5143  0.6821
  611SOL    HW2 1833   1.487   0.552   0.301 -0.2722 -0.9748 -0.2444
  612SOL     OW 1834   1.865   0.682   2.766 -0.6351  0.6999 -0.0327
  612SOL    HW1 1835   1.778   0.659   2.724 -1.4820  0.1094  1.3695
  612SOL    HW2 1836   1.853   0.712   2.862 -1.0888  2.6226 -0.7987
  613SOL     OW 1837   2.437   0.776   0.813 -0.0303 -0.2357  0.7501
  613SOL    HW1 1838   2.403   0.738   0.728  1.7875  1.4327  1.6498
  613SOL    HW2 1839   2.538   0.772   0.796 -1.1426 -3.8832 -2.0306
  614SOL     OW 1840   2.580   0.346   2.190  0.1652 -0.1343  0.6112
  614SOL    HW1 1841   2.623   0.347   2.098 -0.0114 -0.9376  1.1011
  614SOL    HW2 1842   2.638   0.295   2.256  0.9367 -4.4516 -0.9155
  615SOL     OW 1843   0.778   1.901   1.208 -0.0751  0.4185  0.1174
  615SOL    HW1 1844   0.738   1.923   1.116 -1.8931  1.6424 -1.7611
  615SOL    HW2 1845   0.738   1.945   1.292 -0.2406 -1.8709 -1.8553
  616SOL     OW 1846   1.678   1.262   2.519 -0.4290  0.3336  0.5503
  616SOL    HW1 1847   1.650   1.295   2.426 -2.8617  2.1895  1.1602
  616SOL    HW2 1848   1.776   1.272   2.533 -3.0299  1.3562  0.1161
  617SOL     OW 1849   1.568   0.069   0.131  0.3904  0.3914  0.0132
  617SOL    HW1 1850   1.489   0.054   0.192 -0.6075 -0.3730  1.0357
  617SOL    HW2 1851   1.654   0.034   0.173 -1.7626 -1.3139 -0.3265
  618SOL     OW 1852   1.432   1.782   2.307 -0.0981 -0.0534 -0.4252
  618SOL    HW1 1853   1.393   1.752   2.218 -1.5910  0.3888 -0.5654
  618SOL    HW2 1854   1.439   1.707   2.377  0.4360  2.3234 -1.2157
  619SOL     OW 1855   2.578   1.310   0.945  0.2468 -0.2398 -0.2456
  619SOL    HW1 1856   2.630   1.383   0.899  0.8991 -0.8712 -1.8642
  619SOL    HW2 1857   2.613   1.225   0.908 -1.4081  3.7912  0.3047
  620SOL     OW 1858   2.061   2.692   2.761  0.0748 -0.6062  0.2014
  620SOL    HW1 1859   2.153   2.718   2.722  2.0529 -0.8420 -1.4027
  620SOL    HW2 1860   1.986   2.733   2.702  0.2285 -0.9149 -0.5689
  621SOL     OW 1861   2.950   1.611   0.394  0.1434  0.4507  0.5242
  621SOL    HW1 1862   2.953   1.556   0.479 -0.1358 -0.1334 -3.8735
  621SOL    HW2 1863   3.020   1.684   0.392  1.1041 -2.3411 -1.9836
  622SOL     OW 1864   1.103   2.248   2.349 -0.2146  0.1304  0.1674
  622SOL    HW1 1865   1.160   2.183   2.300 -0.9180  4.2118 -0.6750
  622SOL    HW2 1866   1.099   2.338   2.302 -3.0351 -2.2171  2.9038
  623SOL     OW 1867   0.354   2.459   2.903 -0.1431  0.4160  0.3756
  623SOL    HW1 1868   0.393   2.381   2.848 -0.1376  0.3373 -0.5168
  623SOL    HW2 1869   0.257   2.441   2.935 -0.6288 -0.9155 -0.0634
  624SOL     OW 1870   0.541   2.748   2.771 -0.2917 -0.2409  0.0202
  624SOL    HW1 1871   0.447   2.721   2.756 -1.0895  0.6593 -2.2678
  624SOL    HW2 1872   0.589   2.698   2.848 -3.0460 -0.2655 -0.6781
  625SOL     OW 1873   0.775   2.089   2.719 -0.3474  0.3160 -0.2909
  625SOL    HW1 1874   0.749   2.169   2.664  1.9114 -1.5238  0.7496
  625SOL    HW2 1875   0.835   2.107   2.798  2.3311 -0.3505 -0.2431
  626SOL     OW 1876   3.028   0.425   0.230 -0.5321 -0.3937 -0.5283
  626SOL    HW1 1877   2.979   0.338   0.247 -0.5676 -0.0203  0.7682
  626SOL    HW2 1878   2.994   0.472   0.143  0.7217 -0.6676 -3.0593
  627SOL     OW 1879   2.046   1.700   2.999  0.2590 -0.0377  0.7559
  627SOL    HW1 1880   2.016   1.658   2.908  2.2294  0.8416 -2.2775
  627SOL    HW2 1881   2.090   1.630   3.058  1.8469 -1.6753  1.7162
  628SOL     OW 1882   1.241   1.320   2.607 -0.2035  0.0272 -0.7563
  628SOL    HW1 1883   1.208   1.229   2.585  1.6228 -0.1039 -0.1989
  628SOL    HW2 1884   1.303   1.361   2.535  1.4106  0.9019  2.7405
  629SOL     OW 1885   0.535   0.107   1.864  0.1302 -0.4648 -0.1625
  629SOL    HW1 1886   0.549   0.200   1.822 -1.0847  3.0243  2.3505
  629SOL    HW2 1887   0.579   0.106   1.955 -1.5148 -0.0386 -2.6215
  630SOL     OW 1888   2.289   0.982   1.783  0.0707 -0.1348 -0.6722
  630SOL    HW1 1889   2.298   1.077   1.820  0.4557  1.4250 -0.5220
  630SOL    HW2 1890   2.275   0.914   1.856  1.8825 -2.2120  0.3770
  631SOL     OW 1891   1.828   0.122   0.800  0.1490 -0.1763 -0.6203
  631SOL    HW1 1892   1.782   0.067   0.874  0.7029 -1.2983  0.7968
  631SOL    HW2 1893   1.810   0.073   0.712  0.1161 -1.0215  1.1990
  632SOL     OW 1894   0.072   0.755   1.723 -0.2423  0.0415  0.2017
  632SOL    HW1 1895   0.086   0.796   1.629 -0.9680  0.4074  1.1380
  632SOL    HW2 1896   0.023   0.659   1.729 -2.8959 -3.0782  0.8415
  633SOL     OW 1897   0.960   0.501   0.093 -0.4920 -0.8370 -0.3984
  633SOL    HW1 1898   0.910   0.424   0.135 -0.1206 -0.0407 -1.5822
  633SOL    HW2 1899   0.900   0.546   0.027 -0.3807 -4.6103  0.2432
  634SOL     OW 1900   0.712   2.626   2.998  0.7029 -0.5495 -0.1232
  634SOL    HW1 1901   0.760   2.716   2.992 -1.6326  0.4031  1.9411
  634SOL    HW2 1902   0.764   2.548   2.962  0.2924  0.6639 -0.8635
  635SOL     OW 1903   3.059   0.808   0.971  0.7720  0.2108 -0.0308
  635SOL    HW1 1904   3.013   0.901   0.960  0.5615  1.1675 -1.8747
  635SOL    HW2 1905   0.064   0.811   0.918  4.1859 -1.0445  4.0147
  636SOL     OW 1906   0.293   1.359   0.091  0.1736 -0.2628 -0.1921
  636SOL    HW1 1907   0.361   1.364   0.170 -1.8797  0.3906  3.2441
  636SOL    HW2 1908   0.214   1.297   0.123  2.1377 -0.6611 -0.6831
  637SOL     OW 1909   0.034   2.525   0.567 -0.4445 -0.2712  0.5921
  637SOL    HW1 1910   0.119   2.562   0.527 -0.3384  0.3791  0.4412
  637SOL    HW2 1911   3.072   2.599   0.623  0.0522 -0.2718 -0.3174
  638SOL     OW 1912   2.812   2.222   0.504  0.4102 -0.2312  0.2140
  638SOL    HW1 1913   2.751   2.286   0.548  0.1845 -1.8219 -1.4538
  638SOL    HW2 1914   2.757   2.141   0.481 -0.6411  0.0777  0.4959
  639SOL     OW 1915   1.553   0.794   0.108  0.3315  0.3984  0.2873
  639SOL    HW1 1916   1.543   0.694   0.108  1.6811  0.7545 -1.5740
  639SOL    HW2 1917   1.530   0.837   0.198  0.1735  1.5947 -0.4428
  640SOL     OW 1918   1.742   2.282   1.687  0.0181 -0.4168 -0.5074
  640SOL    HW1 1919   1.791   2.292   1.599 -0.4399 -0.1251 -1.1798
  640SOL    HW2 1920   1.666   2.219   1.672  0.6305  1.8295 -0.1940
  641SOL     OW 1921   3.031   3.009   0.753  0.1043 -0.0841  0.2030
  641SOL    HW1 1922   3.017   0.004   0.686  1.3335  0.3271  0.6196
  641SOL    HW2 1923   2.948   3.001   0.811 -1.3816 -1.2721  0.9978
  642SOL     OW 1924   1.115   0.718   1.731 -0.0472  0.2277  0.7722
  642SOL    HW1 1925   1.088   0.665   1.652  3.7382  0.3643  4.1995
  642SOL    HW2 1926   1.151   0.809   1.712  0.9572  0.1236  2.5272
  643SOL     OW 1927   0.755   2.349   2.609 -0.0749 -0.2328  0.3673
  643SOL    HW1 1928   0.771   2.397   2.697 -1.4139  1.2634  0.0532
  643SOL    HW2 1929   0.793   2.417   2.541 -0.2119  2.4420  0.9444
  644SOL     OW 1930   1.320   2.310   0.315 -0.0722  0.1140 -0.0216
  644SOL    HW1 1931   1.379   2.271   0.247 -1.6076  0.0473  3.2578
  644SOL    HW2 1932   1.312   2.245   0.394  1.4428 -0.0563  1.0859
  645SOL     OW 1933   1.508   1.315   1.963  0.0138 -0.0494  0.4547
  645SOL    HW1 1934   1.605   1.344   1.987  0.7584  0.6616 -1.5035
  645SOL    HW2 1935   1.497   1.283   1.866  2.1274  0.9941 -1.0152
  646SOL     OW 1936   0.532   0.500   0.252  0.3652 -0.4600 -0.1109
  646SOL    HW1 1937   0.459   0.497   0.322 -1.6204 -0.3803  1.5373
  646SOL    HW2 1938   0.509   0.442   0.173  0.3066  0.4658 -1.2538
  647SOL     OW 1939   0.992   0.193   0.746  0.9413 -1.0348  0.1663
  647SOL    HW1 1940   1.022   0.270   0.807 -2.7543 -0.9785  1.7060
  647SOL    HW2 1941   1.062   0.124   0.716  3.2148  0.8822 -1.8205
  648SOL     OW 1942   2.248   2.712   1.247  0.4243 -0.0084  0.0995
  648SOL    HW1 1943   2.239   2.769   1.160  0.5391  0.6683 -2.6145
  648SOL    HW2 1944   2.227   2.615   1.226  1.6182  1.5737  0.7216
  649SOL     OW 1945   0.736   1.941   0.012  0.6889  0.2133 -0.0018
  649SOL    HW1 1946   0.678   1.907   3.020  3.6948  0.8278  0.0372
  649SOL    HW2 1947   0.676   1.999   0.071 -0.4781  3.2574  3.1137
  650SOL     OW 1948   2.120   1.820   1.800  0.0302  0.6120 -0.0962
  650SOL    HW1 1949   2.109   1.888   1.873  0.9142  1.8013 -1.3292
  650SOL    HW2 1950   2.104   1.868   1.711 -4.1344 -0.2741 -0.8904
  651SOL     OW 1951   0.053   3.026   2.582 -0.0024  0.1669 -0.3714
  651SOL    HW1 1952   0.157   3.029   2.590  2.6045 -0.3071 -2.2994
  651SOL    HW2 1953   0.009   0.032   2.618 -0.2195 -1.8490  0.3806
  652SOL     OW 1954   2.795   1.835   0.696 -0.1887  0.3487 -0.3506
  652SOL    HW1 1955   2.710   1.800   0.650 -1.0710 -1.1409 -0.8280
  652SOL    HW2 1956   2.772   1.905   0.768 -2.5469 -3.2135  1.8196
  653SOL     OW 1957   2.883   0.604   1.463 -0.6494 -0.3591  0.3078
  653SOL    HW1 1958   2.847   0.700   1.449 -1.7637  3.2445 -0.3692
  653SOL    HW2 1959   2.945   0.581   1.384 -1.2518  0.8315  2.8827
  654SOL     OW 1960   0.795   0.296   0.216  0.0537 -0.0590  0.7685
  654SOL    HW1 1961   0.828   0.195   0.206 -0.3705 -2.9160  1.6098
  654SOL    HW2 1962   0.710   0.314   0.162  0.8754  4.2688  0.8907
  655SOL     OW 1963   0.482   2.830   1.126  0.0737 -0.2744 -0.0743
  655SOL    HW1 1964   0.482   2.882   1.039 -0.1558 -0.7325  1.8602
  655SOL    HW2 1965   0.504   2.731   1.113 -2.8573 -0.1651  0.8209
  656SOL     OW 1966   0.100   2.848   2.304 -0.0651  0.1117  0.1800
  656SOL    HW1 1967   0.072   2.945   2.320 -0.3283  1.7072 -1.2967
  656SOL    HW2 1968   0.062   2.779   2.371  0.2004 -2.0503 -0.3632
  657SOL     OW 1969   2.310   0.732   2.960 -0.0871 -0.0381  0.1272
  657SOL    HW1 1970   2.233   0.693   3.015 -3.2649  1.3618 -0.7920
  657SOL    HW2 1971   2.396   0.754   3.010  0.4730 -1.2006 -0.9582
  658SOL     OW 1972   2.078   1.636   1.006  0.0133 -0.0861  0.0222
  658SOL    HW1 1973   2.153   1.589   1.050  0.1677  1.5687 -1.5970
  658SOL    HW2 1974   2.077   1.737   1.029  0.0832 -1.1525  0.0150
  659SOL     OW 1975   2.553   2.342   2.691 -0.2326  0.2185 -0.1218
  659SOL    HW1 1976   2.569   2.353   2.792 -0.0073 -1.1322  1.7894
  659SOL    HW2 1977   2.613   2.395   2.626  0.8299 -0.4191 -1.5215
  660SOL     OW 1978   1.029   0.282   0.370  0.6212 -0.1997  0.1336
  660SOL    HW1 1979   1.056   0.317   0.462  0.5171  0.5045 -2.2037
  660SOL    HW2 1980   0.931   0.304   0.351  3.2465 -0.5895  2.3166
  661SOL     OW 1981   2.399   0.008   0.394 -0.0122  0.1960  0.9229
  661SOL    HW1 1982   2.306   0.049   0.405  0.6816  1.2937  0.2716
  661SOL    HW2 1983   2.437   0.032   0.300  0.0561 -0.2772  1.8153
  662SOL     OW 1984   0.660   0.181   1.207 -0.2139 -0.0538  0.4866
  662SOL    HW1 1985   0.742   0.146   1.159 -0.1230  0.5004 -1.5518
  662SOL    HW2 1986   0.612   0.098   1.251  0.0386  2.6286 -1.4613
  663SOL     OW 1987   1.564   2.751   2.378 -0.3477 -0.0528 -0.4025
  663SOL    HW1 1988   1.485   2.696   2.351  0.0559  2.1368  1.0647
  663SOL    HW2 1989   1.563   2.769   2.480  2.3091 -0.0602  0.5112
  664SOL     OW 1990   0.859   2.203   1.517  0.1481  0.2360 -0.3749
  664SOL    HW1 1991   0.844   2.271   1.591  0.2098  0.2119  0.5211
  664SOL    HW2 1992   0.855   2.241   1.424 -1.5007 -0.7627  1.8606
  665SOL     OW 1993   0.778   2.233   2.029 -0.1805  0.2430 -0.3420
  665SOL    HW1 1994   0.715   2.171   1.981  0.2717  1.4123 -0.6535
  665SOL    HW2 1995   0.864   2.184   2.052 -0.6589  0.1095  0.2374
  666SOL     OW 1996   0.063   2.755   2.740  0.7502  0.4443  0.1121
  666SOL    HW1 1997   0.070   2.839   2.684 -1.4997 -0.6502  1.1060
  666SOL    HW2 1998   0.157   2.708   2.752  1.5036 -0.7009 -0.2215
  667SOL     OW 1999   1.461   1.518   1.624 -0.4992  0.5706  0.0773
  667SOL    HW1 2000   1.362   1.541   1.629 -0.2640 -0.3586 -1.1812
  667SOL    HW2 2001   1.511   1.594   1.579  0.0586 -1.5342 -1.0544
  668SOL     OW 2002   1.184   0.321   1.836 -0.6943 -0.0917 -0.3179
  668SOL    HW1 2003   1.159   0.243   1.777  2.0085  4.0126  0.6597
  668SOL    HW2 2004   1.104   0.357   1.892 -2.2154  0.5451  1.8146
  669SOL     OW 2005   2.578   2.356   1.315  0.2583  0.3023 -0.2160
  669SOL    HW1 2006   2.476   2.374   1.316  1.0183 -0.9141 -1.3076
  669SOL    HW2 2007   2.625   2.445   1.333 -0.9444  0.3359 -0.2612
  670SOL     OW 2008   1.519   2.238   0.110 -0.4834  0.7312  0.4632
  670SOL    HW1 2009   1.545   2.146   0.148  0.4043 -0.5296 -0.6942
  670SOL    HW2 2010   1.602   2.304   0.103 -1.3658 -0.7532 -1.6638
  671SOL     OW 2011   1.287   1.022   0.838 -0.4325 -0.4893  0.7680
  671SOL    HW1 2012   1.381   0.994   0.875 -0.2923 -0.0098 -1.2215
  671SOL    HW2 2013   1.216   0.974   0.892  4.3206  0.2428 -0.7296
  672SOL     OW 2014   2.920   1.074   2.609  0.2792  0.2214  0.4723
  672SOL    HW1 2015   2.900   1.027   2.697 -1.0274 -0.8601 -3.0177
  672SOL    HW2 2016   3.023   1.078   2.610  3.8731 -1.1840 -0.7980
  673SOL     OW 2017   3.031   1.895   1.339  0.1411 -0.0849  0.3769
  673SOL    HW1 2018   2.956   1.940   1.394  1.0320  2.7967  0.2512
  673SOL    HW2 2019   0.031   1.881   1.396 -2.9158  1.1761 -1.1898
  674SOL     OW 2020   0.559   2.549   2.319 -0.5806  0.2665 -0.1775
  674SOL    HW1 2021   0.470   2.595   2.313 -1.4976 -0.1974  1.0555
  674SOL    HW2 2022   0.561   2.479   2.389 -1.2587 -0.6915 -1.1249
  675SOL     OW 2023   0.732   1.035   1.684 -0.4640 -0.1917 -0.0465
  675SOL    HW1 2024   0.692   1.056   1.589  1.4518  0.5102 -2.4788
  675SOL    HW2 2025   0.659   1.018   1.748  2.3425  0.4011 -0.8096
  676SOL     OW 2026   2.439   0.467   0.841 -0.2246  0.0846  0.0075
  676SOL    HW1 2027   2.413   0.553   0.786 -0.0130  0.0552  0.0394
  676SOL    HW2 2028   2.469   0.482   0.936 -0.3365 -0.7789 -1.9035
  677SOL     OW 2029   2.449   1.605   2.985 -0.3193 -0.2114  0.2813
  677SOL    HW1 2030   2.383   1.569   2.911  0.3320 -2.6652  0.8878
  677SOL    HW2 2031   2.533   1.549   2.980 -2.5776  0.4346  2.2021
  678SOL     OW 2032   3.040   0.553   1.258  0.1682 -0.0601  0.2218
  678SOL    HW1 2033   3.026   0.477   1.193 -1.1598  0.7698 -2.2123
  678SOL    HW2 2034   3.074   0.634   1.207  0.7862 -0.9256  0.2863
  679SOL     OW 2035   2.268   0.407   0.342 -0.5810 -0.6685  0.0102
  679SOL    HW1 2036   2.208   0.399   0.422  1.6710  1.5088 -0.1278
  679SOL    HW2 2037   2.313   0.501   0.349 -0.6603  1.2026 -0.0292
  680SOL     OW 2038   0.222   1.956   1.874  0.0224  0.2011  0.0696
  680SOL    HW1 2039   0.298   1.989   1.811 -1.1418  2.8636 -2.0157
  680SOL    HW2 2040   0.258   1.911   1.961 -1.8553  0.4668  0.7446
  681SOL     OW 2041   2.220   2.134   1.171  0.0220 -0.0315 -0.0054
  681SOL    HW1 2042   2.134   2.191   1.188 -1.8023 -0.0992 -1.8298
  681SOL    HW2 2043   2.265   2.162   1.085  0.9210 -0.6514 -0.2118
  682SOL     OW 2044   2.973   1.843   2.385  0.4136  0.2153  0.5144
  682SOL    HW1 2045   2.933   1.874   2.294  1.4096  2.6025  0.0048
  682SOL    HW2 2046   3.045   1.906   2.421 -1.7120  0.2120  1.3417
  683SOL     OW 2047   0.109   2.314   1.492 -0.2195 -0.4281  0.2399
  683SOL    HW1 2048   0.120   2.300   1.391  0.8052  0.0636 -3.0460
  683SOL    HW2 2049   0.018   2.279   1.526 -2.4504  0.7448  1.4436
  684SOL     OW 2050   2.776   1.028   2.379 -0.6280  0.1067  0.1662
  684SOL    HW1 2051   2.813   1.116   2.346 -2.3642  0.0674  0.8835
  684SOL    HW2 2052   2.816   1.018   2.468 -1.5186 -2.7580 -0.5763
  685SOL     OW 2053   1.404   1.035   0.557 -0.1736  0.5004  0.7981
  685SOL    HW1 2054   1.328   1.025   0.622  2.7837 -0.1553 -2.3322
  685SOL    HW2 2055   1.490   1.011   0.607 -0.7803 -1.2398 -0.7305
  686SOL     OW 2056   0.366   0.057   0.731  0.4855 -0.9821  0.0368
  686SOL    HW1 2057   0.346   3.042   0.705 -1.5378  3.6795  0.8179
  686SOL    HW2 2058   0.283   0.115   0.707 -1.0585  2.7167 -0.2703
  687SOL     OW 2059   1.424   1.486   2.425  0.5946 -0.2089  0.1311
  687SOL    HW1 2060   1.468   1.498   2.521  4.1032  1.0287  1.7821
  687SOL    HW2 2061   1.493   1.468   2.354 -0.6515 -0.0988  0.6199
  688SOL     OW 2062   1.457   1.197   1.719  0.1072 -0.6186 -0.3471
  688SOL    HW1 2063   1.477   1.274   1.657 -1.4794 -0.8594  1.5012
  688SOL    HW2 2064   1.360   1.196   1.746  3.9705  0.8382  0.4334
  689SOL     OW 2065   2.149   3.078   1.165 -0.3764  0.9191 -0.0430
  689SOL    HW1 2066   2.107   0.060   1.099 -0.8914 -4.1470  1.0285
  689SOL    HW2 2067   2.168   2.987   1.121  1.8234  2.2384  0.1277
  690SOL     OW 2068   0.186   1.202   1.091  0.1587 -0.0203  0.0567
  690SOL    HW1 2069   0.139   1.243   1.014 -0.3561  0.6560  0.2116
  690SOL    HW2 2070   0.251   1.122   1.068  0.8131 -2.6097 -0.5031
  691SOL     OW 2071   0.447   2.160   1.192  0.1168 -0.2541  0.1371
  691SOL    HW1 2072   0.394   2.132   1.107 -0.3077 -1.5403  0.1173
  691SOL    HW2 2073   0.411   2.249   1.235  0.4607 -1.4705  0.3776
  692SOL     OW 2074   2.335   0.566   1.515 -0.3964 -0.6270  0.1293
  692SOL    HW1 2075   2.313   0.481   1.467 -1.0842  0.1861 -0.3652
  692SOL    HW2 2076   2.363   0.556   1.614  2.0854 -0.4880  0.3290
  693SOL     OW 2077   0.525   1.661   2.075 -0.4833 -0.5217  0.3927
  693SOL    HW1 2078   0.576   1.644   1.986 -0.3653  0.0515 -0.8764
  693SOL    HW2 2079   0.572   1.613   2.157  1.2490 -3.1481  0.7381
  694SOL     OW 2080   1.611   1.309   1.303 -0.0664 -0.3065 -0.3057
  694SOL    HW1 2081   1.611   1.224   1.359 -0.6521 -0.6920 -1.0089
  694SOL    HW2 2082   1.519   1.359   1.312 -2.1001 -1.3312  0.7555
  695SOL     OW 2083   0.955   1.286   0.689 -0.0628  0.3738 -0.1605
  695SOL    HW1 2084   0.941   1.386   0.680 -0.4486 -0.2925  0.5423
  695SOL    HW2 2085   0.871   1.232   0.661 -0.6888  0.9383  1.9985
  696SOL     OW 2086   0.841   2.860   0.226 -0.0148  0.2990 -1.0019
  696SOL    HW1 2087   0.915   2.808   0.184  0.2415  1.1473  0.7281
  696SOL    HW2 2088   0.751   2.831   0.194 -1.1549  1.0187 -0.1820
  697SOL     OW 2089   1.491   0.559   1.558  0.0866  0.3848  0.9132
  697SOL    HW1 2090   1.585   0.546   1.591 -0.7789 -3.0617  2.4978
  697SOL    HW2 2091   1.470   0.482   1.494  1.2714  2.1915  0.0129
  698SOL     OW 2092   1.659   1.629   2.139 -0.4666 -0.0671 -0.0886
  698SOL    HW1 2093   1.745   1.680   2.118  0.7308 -2.8182  0.3798
  698SOL    HW2 2094   1.577   1.639   2.075 -0.4361  0.7548 -0.8584
  699SOL     OW 2095   2.549   0.345   1.659 -0.3186 -0.4352  0.9116
  699SOL    HW1 2096   2.473   0.296   1.705 -1.9385  1.8733  1.3643
  699SOL    HW2 2097   2.600   0.406   1.723 -0.3278 -2.0816  2.6126
  700SOL     OW 2098   1.250   2.061   0.619  0.0852  0.2882 -0.1109
  700SOL    HW1 2099   1.333   2.057   0.563 -0.5000  2.9944 -1.2314
  700SOL    HW2 2100   1.180   1.993   0.588  0.5088 -1.6362 -0.6745
  701SOL     OW 2101   2.512   3.072   2.305 -0.3123  0.3305  0.4121
  701SOL    HW1 2102   2.496   2.976   2.346 -1.4619 -0.4716  0.7453
  701SOL    HW2 2103   2.459   0.055   2.357  1.4580 -0.9301 -0.4259
  702SOL     OW 2104   0.794   2.970   0.479 -0.0141  0.2478  0.0861
  702SOL    HW1 2105   0.702   3.006   0.511 -1.9004  1.2754  1.8154
  702SOL    HW2 2106   0.799   2.937   0.384  0.9388 -0.2154  0.4863
  703SOL     OW 2107   2.298   0.302   2.109  0.4006  0.0554  0.8786
  703SOL    HW1 2108   2.241   0.242   2.165  1.4058 -3.3270 -1.5968
  703SOL    HW2 2109   2.396   0.315   2.132  0.0272 -1.6434 -0.0872
  704SOL     OW 2110   2.605   2.109   0.313  0.3380  0.1333  1.0621
  704SOL    HW1 2111   2.518   2.095   0.261 -1.1511  0.0056 -0.1997
  704SOL    HW2 2112   2.586   2.109   0.414 -0.3078  1.7272  0.4957
  705SOL     OW 2113   2.503   2.826   2.417 -0.6023  0.2706 -0.4979
  705SOL    HW1 2114   2.501   2.807   2.521 -1.2039 -0.0293  3.9403
  705SOL    HW2 2115   2.534   2.748   2.362 -0.2188  2.8904 -3.0431
  706SOL     OW 2116   2.457   0.219   1.091  0.7178 -0.6836  0.5179
  706SOL    HW1 2117   2.515   0.287   1.143  0.4647 -1.4341  0.9562
  706SOL    HW2 2118   2.489   0.126   1.112 -2.1037 -0.0552  1.4909
  707SOL     OW 2119   0.763   0.241   2.419 -0.2442  0.3283  0.6164
  707SOL    HW1 2120   0.792   0.185   2.501  0.8394  0.6059 -1.9628
  707SOL    HW2 2121   0.665   0.224   2.399 -2.5203  0.3846 -0.3198
  708SOL     OW 2122   0.027   2.396   1.803 -0.3924  0.3255  0.0218
  708SOL    HW1 2123   3.073   2.379   1.711  0.8221 -1.1344 -0.0903
  708SOL    HW2 2124   0.002   2.309   1.852 -1.9339 -3.1189 -0.4861
  709SOL     OW 2125   1.422   0.131   1.598  0.4642  0.1834  0.7515
  709SOL    HW1 2126   1.419   0.207   1.532 -0.9236 -0.6688  1.9666
  709SOL    HW2 2127   1.495   0.058   1.584  0.3253 -0.9347 -0.3305
  710SOL     OW 2128   1.167   3.012   2.905 -0.4040 -0.3272 -0.4047
  710SOL    HW1 2129   1.077   2.968   2.901  1.7409  3.8741  0.1968
  710SOL    HW2 2130   1.240   2.972   2.844  0.3661 -0.9078  0.1395
  711SOL     OW 2131   1.202   2.289   2.637  0.9634 -0.5248 -0.2301
  711SOL    HW1 2132   1.173   2.214   2.700 -0.6472 -0.0988  0.8017
  711SOL    HW2 2133   1.174   2.265   2.542 -2.3736 -1.3982 -1.1648
  712SOL     OW 2134   0.932   2.181   2.923  0.0717 -0.1454  0.3111
  712SOL    HW1 2135   1.028   2.145   2.899 -0.2441 -1.0256  1.6960
  712SOL    HW2 2136   0.912   2.184   3.024 -0.2026 -1.5621  1.9638
  713SOL     OW 2137   1.933   1.171   2.111  0.0667 -0.6787 -0.3342
  713SOL    HW1 2138   1.840   1.125   2.123 -0.1056 -3.0493 -0.0375
  713SOL    HW2 2139   2.008   1.101   2.111 -0.2494 -1.3023  2.5152
  714SOL     OW 2140   0.831   1.274   2.037  0.1620  0.2659 -0.0561
  714SOL    HW1 2141   0.728   1.274   2.041 -1.9809 -0.8750  1.7140
  714SOL    HW2 2142   0.869   1.182   2.052  1.1712 -1.2216  0.8338
  715SOL     OW 2143   2.596   0.544   0.240 -0.2466 -0.5392  0.3432
  715SOL    HW1 2144   2.663   0.517   0.315  3.4215 -0.4956 -1.5136
  715SOL    HW2 2145   2.520   0.598   0.283  4.0544  1.8575  0.2767
  716SOL     OW 2146   2.722   2.373   1.662  0.0319 -0.7713  0.2264
  716SOL    HW1 2147   2.628   2.392   1.632  1.0182  0.6940  0.5810
  716SOL    HW2 2148   2.727   2.311   1.744  0.3961 -0.0106  1.0339
  717SOL     OW 2149   2.365   0.980   0.986  0.3631  0.0529 -0.3627
  717SOL    HW1 2150   2.273   1.025   0.986 -0.7810 -1.4458  1.6927
  717SOL    HW2 2151   2.381   0.918   0.906 -0.5538 -2.0653  0.8751
  718SOL     OW 2152   1.208   1.587   1.628  0.4624  0.0392  0.3199
  718SOL    HW1 2153   1.125   1.557   1.684 -1.5228 -2.4664 -3.3162
  718SOL    HW2 2154   1.176   1.648   1.548 -1.6882 -0.8428 -0.8649
  719SOL     OW 2155   2.943   0.453   3.031  0.1459 -0.0671 -0.7910
  719SOL    HW1 2156   2.996   0.506   2.964 -0.3383 -0.0374  1.0457
  719SOL    HW2 2157   2.889   0.378   2.990 -0.4910  1.4450 -1.1001
  720SOL     OW 2158   0.749   0.341   0.910 -0.4068  0.2905 -0.8229
  720SOL    HW1 2159   0.818   0.401   0.867  0.9564 -3.0073  0.8217
  720SOL    HW2 2160   0.672   0.390   0.958 -0.8143  0.6495  0.1238
  721SOL     OW 2161   2.839   1.027   0.505  0.0543  0.3382 -0.1487
  721SOL    HW1 2162   2.744   1.053   0.481  1.9286  2.4266 -2.3714
  721SOL    HW2 2163   2.840   0.965   0.588 -1.0917 -3.2129  0.5869
  722SOL     OW 2164   0.411   2.250   2.486 -0.3841 -0.1216 -0.0235
  722SOL    HW1 2165   0.385   2.189   2.411  0.1851  1.2994 -1.3333
  722SOL    HW2 2166   0.351   2.332   2.482  1.4373 -0.5855 -0.0615
  723SOL     OW 2167   1.735   3.070   1.031  0.1650  0.1976  0.4095
  723SOL    HW1 2168   1.717   0.078   1.080  0.3613 -1.6903  0.0561
  723SOL    HW2 2169   1.796   3.017   1.084 -1.7157 -2.7456 -3.0423
  724SOL     OW 2170   1.568   1.855   1.892 -0.0175  0.0328  0.1076
  724SOL    HW1 2171   1.535   1.942   1.939  2.2926 -1.1490 -0.4287
  724SOL    HW2 2172   1.515   1.774   1.920 -0.3567  1.0871 -2.1747
  725SOL     OW 2173   1.142   2.546   1.238  0.0782 -0.1428 -0.0021
  725SOL    HW1 2174   1.086   2.558   1.319  1.4611  1.6738  0.3526
  725SOL    HW2 2175   1.135   2.630   1.178 -0.1236 -1.8081  0.2878
  726SOL     OW 2176   2.078   2.616   0.294  0.1734  0.2687  0.1437
  726SOL    HW1 2177   2.040   2.646   0.205 -0.0750  0.4314 -0.1834
  726SOL    HW2 2178   2.021   2.543   0.337 -2.1471 -5.4164  0.2874
  727SOL     OW 2179   1.552   1.713   1.036  0.4790  0.0514 -0.7037
  727SOL    HW1 2180   1.644   1.670   1.019  0.6213  2.0911 -2.2904
  727SOL    HW2 2181   1.492   1.636   1.058  0.5014  0.9906 -0.4001
  728SOL     OW 2182   2.087   2.600   1.991 -0.1477 -0.3991 -0.1740
  728SOL    HW1 2183   1.991   2.608   2.026 -3.0566 -2.9489  0.4341
  728SOL    HW2 2184   2.154   2.674   2.015 -0.5543  3.2581  0.6781
  729SOL     OW 2185   1.900   2.319   1.462  0.3404  0.0430  0.1874
  729SOL    HW1 2186   1.837   2.389   1.421  0.3411 -0.2305 -1.3841
  729SOL    HW2 2187   1.985   2.361   1.497 -1.9841 -1.7012 -0.7913
  730SOL     OW 2188   1.810   0.797   2.372 -0.2027 -0.8929  0.1688
  730SOL    HW1 2189   1.770   0.732   2.305 -0.6592 -0.3320  1.3238
  730SOL    HW2 2190   1.752   0.820   2.451 -0.8440  0.7981  2.2450
  731SOL     OW 2191   0.862   2.794   1.157 -0.0221 -0.1100 -0.2031
  731SOL    HW1 2192   0.842   2.858   1.230 -2.2874 -1.0502 -1.2718
  731SOL    HW2 2193   0.960   2.780   1.140  1.4165  0.1474  0.8189
  732SOL     OW 2194   1.190   3.077   0.730 -0.0664 -0.0125 -0.6458
  732SOL    HW1 2195   1.203   3.012   0.652  1.5793  1.5888 -1.8737
  732SOL    HW2 2196   1.147   3.032   0.809  0.5409  0.0443 -1.7569
  733SOL     OW 2197   1.228   1.236   0.682 -0.2590  0.6082 -0.5421
  733SOL    HW1 2198   1.128   1.250   0.672 -0.9711  0.4726 -0.7455
  733SOL    HW2 2199   1.254   1.165   0.753  1.3058  1.0095 -0.5676
  734SOL     OW 2200   2.492   2.108   2.561 -0.0518 -1.1277 -0.4197
  734SOL    HW1 2201   2.509   2.202   2.601  1.5011  0.6330 -1.7923
  734SOL    HW2 2202   2.436   2.120   2.478  1.2088  1.5281  0.3533
  735SOL     OW 2203   0.850   0.137   1.053 -0.2661  0.2545  0.2268
  735SOL    HW1 2204   0.833   0.053   0.995 -0.9090 -4.7652  2.4321
  735SOL    HW2 2205   0.813   0.220   1.005  0.7739 -2.0031 -1.2313
  736SOL     OW 2206   1.433   2.314   2.766 -0.3655 -0.0838  0.1301
  736SOL    HW1 2207   1.338   2.307   2.725 -0.8020  2.0862 -0.7086
  736SOL    HW2 2208   1.434   2.365   2.855  0.8286  1.6513  3.6369
  737SOL     OW 2209   0.855   2.339   1.263 -0.0712  0.0741  0.4601
  737SOL    HW1 2210   0.796   2.353   1.180 -0.3772 -0.5780  1.9719
  737SOL    HW2 2211   0.883   2.434   1.298 -0.4631  0.5639 -2.0197
  738SOL     OW 2212   1.581   2.858   2.660  0.4650 -0.3205 -0.1927
  738SOL    HW1 2213   1.603   2.933   2.592 -0.2209  2.1929  0.4840
  738SOL    HW2 2214   1.651   2.835   2.728 -1.9974  0.2917 -0.9183
  739SOL     OW 2215   1.161   2.321   1.978  0.3465  0.4096  0.2377
  739SOL    HW1 2216   1.087   2.254   2.002 -1.1480 -3.6213  1.0174
  739SOL    HW2 2217   1.240   2.270   1.935 -1.5760  0.9785 -2.4106
  740SOL     OW 2218   1.508   2.267   1.402  0.0959 -0.7380  0.4179
  740SOL    HW1 2219   1.496   2.217   1.316  0.3671 -1.2582 -1.7332
  740SOL    HW2 2220   1.437   2.343   1.410  0.3821  1.3043  3.7652
  741SOL     OW 2221   2.690   1.097   0.226 -0.0117  0.1575 -0.0341
  741SOL    HW1 2222   2.691   1.196   0.222  0.1813 -2.2293  0.2612
  741SOL    HW2 2223   2.600   1.061   0.205  0.2660  0.1524 -0.7996
  742SOL     OW 2224   0.525   1.832   2.348 -0.0134 -0.0801 -0.3816
  742SOL    HW1 2225   0.579   1.917   2.335 -1.8819 -0.8043 -1.1060
  742SOL    HW2 2226   0.468   1.813   2.264 -0.1771  1.4675 -2.2210
  743SOL     OW 2227   0.432   1.164   2.528  0.3309  0.6254 -0.3223
  743SOL    HW1 2228   0.466   1.126   2.616  1.1321 -0.2020 -2.5955
  743SOL    HW2 2229   0.342   1.213   2.533 -1.4386  0.4503  0.4057
  744SOL     OW 2230   2.178   2.469   1.110  1.0265 -0.4001 -0.1561
  744SOL    HW1 2231   2.184   2.526   1.024 -1.4099 -0.1368 -0.8886
  744SOL    HW2 2232   2.111   2.395   1.094  1.2682 -0.9527 -2.3179
  745SOL     OW 2233   2.105   1.754   1.396  0.7295  0.0237  0.1929
  745SOL    HW1 2234   2.125   1.807   1.309  0.0102 -1.8636 -2.4745
  745SOL    HW2 2235   2.061   1.812   1.469  2.0489  3.3392  2.2933
  746SOL     OW 2236   2.192   1.148   0.720  0.7692  0.6925  0.6664
  746SOL    HW1 2237   2.110   1.212   0.698 -1.1550  2.3301  0.9141
  746SOL    HW2 2238   2.164   1.100   0.808 -0.7016 -0.4028 -0.5213
  747SOL     OW 2239   1.707   2.024   0.778 -0.1850  0.2000 -0.2212
  747SOL    HW1 2240   1.634   1.953   0.761 -1.7804  3.1138  0.5474
  747SOL    HW2 2241   1.794   1.986   0.819  2.3769 -0.4978  0.8323
  748SOL     OW 2242   0.674   1.706   0.640 -0.3168  0.6609 -0.6769
  748SOL    HW1 2243   0.687   1.703   0.539  1.2043  2.9898 -0.4790
  748SOL    HW2 2244   0.668   1.806   0.669  0.4114  0.7142  0.2865
  749SOL     OW 2245   3.029   0.001   2.305  0.4399  0.1624  0.1337
  749SOL    HW1 2246   3.047   0.084   2.250  1.6436 -1.1691 -0.5043
  749SOL    HW2 2247   3.044   0.021   2.407  0.9310  0.9778  1.1117
  750SOL     OW 2248   1.691   0.310   1.377 -0.0037  0.7286 -0.1657
  750SOL    HW1 2249   1.729   0.214   1.382 -0.1624 -0.7340  1.7467
  750SOL    HW2 2250   1.763   0.376   1.412  2.5981  0.6810  0.9057
  751SOL     OW 2251   1.993   2.677   0.041 -0.5485 -1.1393 -0.2642
  751SOL    HW1 2252   1.905   2.636   0.021  0.9566  0.3762  2.2172
  751SOL    HW2 2253   2.061   2.652   3.051 -0.7943  1.4670  2.3845
  752SOL     OW 2254   2.072   1.970   0.171  0.0019  0.8840  0.6819
  752SOL    HW1 2255   1.984   1.932   0.130 -0.4770 -0.9920 -0.1111
  752SOL    HW2 2256   2.141   1.973   0.099 -2.3274 -1.0976  2.8863
  753SOL     OW 2257   1.941   1.280   2.520  0.3532 -0.0652 -0.2850
  753SOL    HW1 2258   2.015   1.214   2.546  2.0878 -0.1239 -0.9489
  753SOL    HW2 2259   1.954   1.315   2.427  1.2376  0.1847 -0.2852
  754SOL     OW 2260   2.913   2.504   1.464 -0.5803  0.4191 -0.2984
  754SOL    HW1 2261   2.901   2.412   1.513 -0.8255 -2.0915  4.7120
  754SOL    HW2 2262   3.013   2.522   1.443  0.4819 -1.9899 -0.1004
  755SOL     OW 2263   2.158   0.682   0.863 -0.5206  0.3010 -0.0772
  755SOL    HW1 2264   2.244   0.737   0.835  3.5575  0.9796 -0.2076
  755SOL    HW2 2265   2.107   0.725   0.942 -0.6666 -2.9920  0.7773
  756SOL     OW 2266   1.090   1.451   2.768 -0.1399 -0.3174 -0.4559
  756SOL    HW1 2267   1.119   1.528   2.827  1.1732  4.5914 -0.4760
  756SOL    HW2 2268   1.166   1.425   2.706 -0.7046 -1.3368 -1.8848
  757SOL     OW 2269   2.087   2.893   1.385  0.8342  0.3594  0.5861
  757SOL    HW1 2270   2.138   2.823   1.329  1.6667 -1.7435 -0.5922
  757SOL    HW2 2271   2.133   2.983   1.381 -3.5221  1.1429 -1.0767
  758SOL     OW 2272   0.944   2.561   1.412 -0.1945 -0.2654  0.0343
  758SOL    HW1 2273   0.903   2.524   1.498 -0.4569 -2.8048 -2.2389
  758SOL    HW2 2274   0.951   2.664   1.426  0.4583  2.8716 -0.5468
  759SOL     OW 2275   2.238   1.411   1.083 -0.1476  0.2654  0.5633
  759SOL    HW1 2276   2.275   1.385   0.991 -0.2667  0.3452 -0.7251
  759SOL    HW2 2277   2.306   1.398   1.158 -2.2825 -0.7677 -0.9253
  760SOL     OW 2278   1.887   1.108   1.570 -0.3143 -0.4444  0.4163
  760SOL    HW1 2279   1.904   1.098   1.671  0.4330  0.6223  1.3527
  760SOL    HW2 2280   1.948   1.176   1.524  1.5861  1.8861 -2.0314
  761SOL     OW 2281   1.935   2.891   0.266  0.2307 -0.7051  0.1254
  761SOL    HW1 2282   1.991   2.882   0.355  0.6919 -1.4756  1.6357
  761SOL    HW2 2283   1.961   2.819   0.200 -0.2202 -1.8040 -0.0240
  762SOL     OW 2284   1.809   2.079   2.908  0.2229 -0.7649 -0.6193
  762SOL    HW1 2285   1.887   2.056   2.841  0.8665 -0.4383 -2.6096
  762SOL    HW2 2286   1.837   2.160   2.965  1.4626  1.4629  0.5536
  763SOL     OW 2287   0.761   1.070   1.089 -0.1471  0.3585  0.5013
  763SOL    HW1 2288   0.840   1.094   1.033  0.2219 -1.2387  0.0337
  763SOL    HW2 2289   0.778   1.096   1.183 -0.6652 -0.9461 -2.2441
  764SOL     OW 2290   2.796   2.328   3.020  1.0687  0.3683 -0.1034
  764SOL    HW1 2291   2.878   2.327   0.002  2.3353  0.7559  1.4884
  764SOL    HW2 2292   2.815   2.286   2.929  2.9012 -1.4738 -1.7320
  765SOL     OW 2293   0.937   0.088   1.896  0.4429 -0.3895 -0.1670
  765SOL    HW1 2294   1.030   0.114   1.927  0.9918  1.8405  0.4193
  765SOL    HW2 2295   0.899   0.162   1.839  0.5758 -0.2058 -0.5729
  766SOL     OW 2296   2.883   1.539   2.423 -0.3773  0.0937  0.3627
  766SOL    HW1 2297   2.844   1.590   2.504 -0.8384  0.6936  0.5445
  766SOL    HW2 2298   2.981   1.575   2.403  2.8251  2.1434 -2.1667
  767SOL     OW 2299   0.066   1.579   1.525 -0.1498  0.0368 -0.6960
  767SOL    HW1 2300   3.063   1.615   1.570  0.3681  0.1319  0.3212
  767SOL    HW2 2301   0.048   1.582   1.424  0.4400  1.8098 -1.3999
  768SOL     OW 2302   0.967   0.688   2.899  0.1646  0.6577 -0.0513
  768SOL    HW1 2303   0.959   0.765   2.968  3.0190 -0.1994  0.7129
  768SOL    HW2 2304   1.060   0.677   2.866  1.0426  1.1512 -0.9142
  769SOL     OW 2305   1.899   2.461   0.402  0.3945 -0.0835  0.8621
  769SOL    HW1 2306   1.810   2.507   0.444 -1.8503 -0.2770  0.8023
  769SOL    HW2 2307   1.918   2.369   0.450  1.2619 -2.0385  1.9534
  770SOL     OW 2308   2.770   0.250   2.919  0.3927  0.1066  0.0423
  770SOL    HW1 2309   2.815   0.167   2.961  0.7636  1.4231 -1.0845
  770SOL    HW2 2310   2.700   0.282   2.985 -1.3560  0.8113 -0.1325
  771SOL     OW 2311   1.399   2.269   1.856 -0.3114  0.0424  0.0579
  771SOL    HW1 2312   1.420   2.368   1.845  2.4093  0.7014 -0.0826
  771SOL    HW2 2313   1.445   2.223   1.779  0.3001 -2.4356  0.1391
  772SOL     OW 2314   0.660   0.611   2.917 -0.5813 -0.4654  0.5505
  772SOL    HW1 2315   0.572   0.599   2.867 -1.9516  2.4669  1.2107
  772SOL    HW2 2316   0.739   0.560   2.870  0.7836 -1.6219 -1.8480
  773SOL     OW 2317   3.056   1.221   1.457  0.0571  0.4218  0.0034
  773SOL    HW1 2318   2.982   1.258   1.396  0.9069  0.5391  2.0915
  773SOL    HW2 2319   3.031   1.254   1.552 -0.6063 -1.5867  0.8760
  774SOL     OW 2320   1.502   0.864   0.360 -0.3667 -0.2342  0.8159
  774SOL    HW1 2321   1.485   0.767   0.374  1.2658  1.9135 -1.1165
  774SOL    HW2 2322   1.454   0.927   0.429 -0.8728  1.6055  2.7284
  775SOL     OW 2323   2.326   2.589   0.193  0.0217  0.5450 -0.0863
  775SOL    HW1 2324   2.325   2.659   0.118 -0.4471  3.1512 -2.5615
  775SOL    HW2 2325   2.239   2.593   0.246 -0.9243 -1.5973  3.7576
  776SOL     OW 2326   2.586   0.673   2.090  0.7213 -0.1665 -0.1045
  776SOL    HW1 2327   2.588   0.761   2.038 -2.5474 -1.6287  0.0240
  776SOL    HW2 2328   2.524   0.671   2.172 -2.7324 -0.7952  3.7920
  777SOL     OW 2329   0.139   1.262   2.405 -0.0943 -0.2939  0.5426
  777SOL    HW1 2330   0.214   1.311   2.353 -2.4608  0.5889 -0.3139
  777SOL    HW2 2331   0.065   1.234   2.340  1.3297 -2.1013  0.6046
  778SOL     OW 2332   0.821   0.165   0.565 -0.4064  0.4755 -0.1035
  778SOL    HW1 2333   0.871   0.173   0.654 -3.4599 -0.7744 -1.3472
  778SOL    HW2 2334   0.881   0.117   0.497 -1.7223 -0.3754  1.0279
  779SOL     OW 2335   0.594   1.051   2.720 -0.5254 -0.1179  0.4329
  779SOL    HW1 2336   0.682   1.098   2.702  2.5503  1.7222 -2.6452
  779SOL    HW2 2337   0.599   0.954   2.696 -1.3279 -0.5884  0.2261
  780SOL     OW 2338   2.125   0.998   2.125 -0.0215  0.0266 -0.5377
  780SOL    HW1 2339   2.087   0.962   2.212  2.5426 -2.4766  2.8501
  780SOL    HW2 2340   2.166   0.928   2.066 -0.5568  1.8296  2.4442
  781SOL     OW 2341   2.999   1.330   1.722  0.6368 -0.7705 -0.0655
  781SOL    HW1 2342   0.011   1.293   1.752  0.4127  2.9546  1.1180
  781SOL    HW2 2343   2.922   1.276   1.763 -0.4660 -0.3313  0.0703
  782SOL     OW 2344   0.916   1.912   2.504 -0.1690 -0.2392 -0.5177
  782SOL    HW1 2345   0.907   2.000   2.447  1.8471  1.4827  0.3609
  782SOL    HW2 2346   0.832   1.883   2.551  0.8027  1.0231  0.8277
  783SOL     OW 2347   0.484   2.818   1.622 -0.3628  0.6281 -0.1053
  783SOL    HW1 2348   0.453   2.789   1.716 -2.0012  2.5616 -1.4250
  783SOL    HW2 2349   0.587   2.811   1.611  2.6427  1.4526  0.0996
  784SOL     OW 2350   1.613   0.488   2.832 -0.4625  0.6496  0.0607
  784SOL    HW1 2351   1.594   0.520   2.734 -1.8013  0.6396 -1.5023
  784SOL    HW2 2352   1.638   0.562   2.894  2.8673 -4.1195 -1.2129
  785SOL     OW 2353   1.359   0.381   2.856 -0.3360  0.2556 -0.2582
  785SOL    HW1 2354   1.456   0.408   2.858  1.9168  3.0405  3.2446
  785SOL    HW2 2355   1.341   0.368   2.757  0.3036 -0.8250 -1.1624
  786SOL     OW 2356   0.341   1.726   0.360 -0.3692  0.7818 -0.0062
  786SOL    HW1 2357   0.338   1.632   0.405  1.0384 -1.7814  2.5054
  786SOL    HW2 2358   0.418   1.730   0.293  0.6267  0.3346  1.2761
  787SOL     OW 2359   1.937   1.480   0.494  0.0084  0.0463  0.7906
  787SOL    HW1 2360   2.025   1.525   0.477 -1.5972 -2.3096 -1.7637
  787SOL    HW2 2361   1.879   1.463   0.409  0.9525 -3.9852 -0.2984
  788SOL     OW 2362   2.023   1.492   1.442 -0.2889  0.6069 -0.7983
  788SOL    HW1 2363   1.952   1.462   1.374 -1.4817  0.4485  1.0638
  788SOL    HW2 2364   2.055   1.587   1.422 -1.5516 -0.0548  0.8728
  789SOL     OW 2365   0.362   1.495   1.820 -0.3965 -0.9139 -0.1682
  789SOL    HW1 2366   0.313   1.583   1.832  1.1589 -1.4846 -1.4784
  789SOL    HW2 2367   0.331   1.464   1.727 -0.6552 -1.7248 -1.8527
  790SOL     OW 2368   0.561   2.836   0.117  0.0405 -0.2786  0.5337
  790SOL    HW1 2369   0.524   2.760   0.057 -0.8125 -2.1660 -1.6102
  790SOL    HW2 2370   0.492   2.864   0.184 -1.4535 -0.7556  3.4181
  791SOL     OW 2371   0.653   0.177   2.809 -0.3574  0.3760 -0.0246
  791SOL    HW1 2372   0.631   0.255   2.749 -2.0969 -0.3715 -0.5608
  791SOL    HW2 2373   0.601   0.093   2.783 -2.3285 -0.9020  0.8631
  792SOL     OW 2374   1.906   0.455   2.326 -0.3231 -0.1388  0.1384
  792SOL    HW1 2375   1.991   0.495   2.293  1.5410 -2.7174 -1.0646
  792SOL    HW2 2376   1.861   0.496   2.407  0.5212  1.3399  1.2582
  793SOL     OW 2377   0.404   0.630   1.036  0.1473 -0.1744 -0.5880
  793SOL    HW1 2378   0.430   0.534   1.065  2.0885 -2.7301  1.3246
  793SOL    HW2 2379   0.363   0.686   1.111  0.9647  0.4215 -0.1467
  794SOL     OW 2380   0.532   0.455   2.042 -0.2398  0.1465 -0.0624
  794SOL    HW1 2381   0.548   0.449   1.940  1.7281  0.4155  1.7300
  794SOL    HW2 2382   0.501   0.548   2.058 -0.4244 -0.0984  0.9968
  795SOL     OW 2383   0.071   1.199   0.117  0.2802 -0.0683  0.1914
  795SOL    HW1 2384   0.023   1.174   0.203 -1.0942 -2.8001 -2.8001
  795SOL    HW2 2385   0.010   1.270   0.070 -0.1907  1.4036 -2.1529
  796SOL     OW 2386   0.161   2.879   0.286  0.3556 -0.2834  0.4192
  796SOL    HW1 2387   0.151   2.975   0.314 -0.1521 -0.1533  1.2261
  796SOL    HW2 2388   0.077   2.847   0.233 -0.9611 -3.8073 -1.3109
  797SOL     OW 2389   1.392   2.585   2.568  0.3304 -0.2399 -0.1783
  797SOL    HW1 2390   1.341   2.598   2.656 -0.4446  1.7773  0.2303
  797SOL    HW2 2391   1.479   2.529   2.576  0.0808  0.3033  0.9265
  798SOL     OW 2392   2.950   0.582   0.880  0.3782  0.0593  0.2045
  798SOL    HW1 2393   2.958   0.566   0.777  0.2116 -1.1719  0.3095
  798SOL    HW2 2394   2.968   0.680   0.911  0.4918  2.0524 -3.1470
  799SOL     OW 2395   2.570   0.499   2.396 -0.6280  0.4585  0.3193
  799SOL    HW1 2396   2.570   0.435   2.314  0.7407 -0.7526  1.8318
  799SOL    HW2 2397   2.669   0.529   2.409  1.2574 -1.3912 -0.9720
  800SOL     OW 2398   3.082   2.103   0.205 -0.0191  0.1032  0.0049
  800SOL    HW1 2399   3.076   2.102   0.303 -2.0618  0.3711 -1.0691
  800SOL    HW2 2400   0.059   2.023   0.174  0.6439 -0.0981 -0.8359
  801SOL     OW 2401   1.358   1.511   1.068  0.0278 -0.5005  0.1394
  801SOL    HW1 2402   1.347   1.457   1.155  2.0384  2.1605  2.5429
  801SOL    HW2 2403   1.393   1.453   0.988 -1.3489 -1.4259 -1.5037
  802SOL     OW 2404   1.127   1.771   2.188  0.1272 -0.2784 -0.3248
  802SOL    HW1 2405   1.033   1.812   2.169  1.7856  0.2150 -1.8481
  802SOL    HW2 2406   1.157   1.719   2.103 -2.3988  0.1989 -0.6897
  803SOL     OW 2407   0.188   1.915   0.962 -0.5621  0.0715 -1.0695
  803SOL    HW1 2408   0.105   1.863   0.993  0.8259 -0.5502  1.7408
  803SOL    HW2 2409   0.258   1.847   0.931  0.5816 -1.6772  1.2545
  804SOL     OW 2410   1.191   2.273   1.195 -0.0795 -0.0610 -0.0526
  804SOL    HW1 2411   1.182   2.372   1.224  2.0658  3.2944  1.1375
  804SOL    HW2 2412   1.104   2.224   1.198  0.9081 -0.9647 -1.6848
  805SOL     OW 2413   2.040   1.383   0.021 -0.1776 -0.0558 -0.5252
  805SOL    HW1 2414   2.093   1.374   3.016  0.1601 -0.2477 -2.3379
  805SOL    HW2 2415   1.944   1.356   0.009  2.2124  2.0128  0.1590
  806SOL     OW 2416   2.115   2.592   0.831 -0.4232  0.4398 -0.0596
  806SOL    HW1 2417   2.092   2.692   0.837 -0.2101  2.2276 -2.1478
  806SOL    HW2 2418   2.039   2.526   0.817  1.1756 -0.3582  0.0214
  807SOL     OW 2419   2.690   0.765   2.635  0.2954 -0.5131 -0.3644
  807SOL    HW1 2420   2.675   0.820   2.719 -1.0916 -1.3043  0.0015
  807SOL    HW2 2421   2.772   0.796   2.586 -2.6026  2.2402  1.0921
  808SOL     OW 2422   0.333   1.045   0.369  0.2026 -0.2466  0.3357
  808SOL    HW1 2423   0.362   0.997   0.452  0.4606  2.5542  1.4078
  808SOL    HW2 2424   0.290   0.989   0.293 -0.9351 -1.3472 -3.3729
  809SOL     OW 2425   2.646   0.891   1.942  0.3307  0.5262 -0.3153
  809SOL    HW1 2426   2.566   0.890   1.875  1.6630 -1.3009  2.7922
  809SOL    HW2 2427   2.739   0.886   1.892  3.2359  1.6520 -1.6098
  810SOL     OW 2428   1.099   0.566   1.501  0.0650 -0.9289 -0.1722
  810SOL    HW1 2429   1.039   0.487   1.511  0.8950 -0.9206  1.2208
  810SOL    HW2 2430   1.196   0.538   1.507 -1.3132 -0.3214  0.2699
  811SOL     OW 2431   1.979   2.786   1.601 -1.0472  0.3894  0.0618
  811SOL    HW1 2432   2.022   2.825   1.515  1.1223 -0.2570 -2.2603
  811SOL    HW2 2433   1.962   2.685   1.593 -1.9112  0.5844  0.9732
  812SOL     OW 2434   1.437   2.438   3.023  0.2133 -0.0740  0.7595
  812SOL    HW1 2435   1.435   2.356   0.001 -2.0346 -1.6193 -0.7271
  812SOL    HW2 2436   1.420   2.525   3.068 -0.0063  1.2379 -1.0887
  813SOL     OW 2437   1.645   1.019   1.811 -0.0313 -0.3119 -0.0018
  813SOL    HW1 2438   1.618   0.955   1.882 -0.5948 -0.6443  1.2296
  813SOL    HW2 2439   1.569   1.084   1.795 -1.4689 -0.9391  1.0415
  814SOL     OW 2440   0.573   0.417   1.778 -0.0855  0.1558 -0.0603
  814SOL    HW1 2441   0.555   0.361   1.692 -0.8758 -2.7122 -2.4535
  814SOL    HW2 2442   0.582   0.518   1.753 -0.4387  0.8532 -3.4534
  815SOL     OW 2443   0.663   0.882   0.470 -0.6397 -0.4303  0.2927
  815SOL    HW1 2444   0.647   0.856   0.374  0.0630  0.1874  0.4184
  815SOL    HW2 2445   0.575   0.887   0.521 -1.6305 -0.9189  0.0915
  816SOL     OW 2446   2.251   1.545   2.660 -0.1238 -0.0031 -0.3925
  816SOL    HW1 2447   2.208   1.514   2.578  2.1659 -0.0236  3.3213
  816SOL    HW2 2448   2.349   1.577   2.651  2.9650 -1.2547  2.4310
  817SOL     OW 2449   0.701   2.550   0.373 -0.2442 -0.3357 -0.2724
  817SOL    HW1 2450   0.789   2.585   0.330  0.5969  1.4421  0.1666
  817SOL    HW2 2451   0.702   2.451   0.385  1.4749 -0.0229 -0.9219
  818SOL     OW 2452   1.879   0.106   3.030 -0.0311 -0.0494  0.2409
  818SOL    HW1 2453   1.833   0.173   2.964 -1.1688 -1.7004 -0.2483
  818SOL    HW2 2454   1.900   0.013   2.992  2.7260  0.0814 -3.0521
  819SOL     OW 2455   1.662   0.355   0.086  0.2617 -0.3922 -0.0220
  819SOL    HW1 2456   1.644   0.254   0.095 -2.8256 -0.5423 -0.4096
  819SOL    HW2 2457   1.736   0.393   0.144  0.3454  1.9209  1.2653
  820SOL     OW 2458   1.894   0.711   0.290  0.5373 -0.0967 -0.3228
  820SOL    HW1 2459   1.868   0.727   0.389  0.1781 -1.3234  2.1511
  820SOL    HW2 2460   1.922   0.798   0.238 -0.0470  1.3461 -1.0721
  821SOL     OW 2461   2.565   0.373   0.034 -1.2482 -0.6980  0.2262
  821SOL    HW1 2462   2.570   0.436   0.117 -0.7579  1.7915  0.5062
  821SOL    HW2 2463   2.518   0.418   3.044  1.7287  2.4310 -0.3430
  822SOL     OW 2464   0.666   2.672   2.099  0.2757 -0.1554  0.0950
  822SOL    HW1 2465   0.702   2.600   2.038 -0.3714 -0.3808 -2.3815
  822SOL    HW2 2466   0.640   2.620   2.185 -0.1490 -2.9542 -0.6760
  823SOL     OW 2467   3.081   1.638   1.269 -0.4832 -0.0752  0.3085
  823SOL    HW1 2468   0.001   1.738   1.260  0.4096  0.5768 -3.2233
  823SOL    HW2 2469   2.980   1.606   1.277 -2.6724  1.1899 -1.0917
  824SOL     OW 2470   1.595   2.987   2.242  0.0804  0.2571 -0.3535
  824SOL    HW1 2471   1.579   2.897   2.295  1.0403  2.1727 -0.8553
  824SOL    HW2 2472   1.648   2.972   2.157 -0.2978  1.4736 -0.0270
  825SOL     OW 2473   1.778   1.103   0.841  0.2308  0.0110  0.4455
  825SOL    HW1 2474   1.853   1.077   0.902 -1.1848  0.9341  1.3206
  825SOL    HW2 2475   1.751   1.200   0.839 -0.7268 -1.5453  2.5160
  826SOL     OW 2476   1.942   0.924   0.106  0.0047  0.0299  0.1254
  826SOL    HW1 2477   2.003   0.997   0.143 -0.4135 -1.5140  2.1493
  826SOL    HW2 2478   1.872   0.967   0.050  0.0620 -0.5376  1.0233
  827SOL     OW 2479   0.600   1.181   1.450  0.4539 -0.2456 -0.6889
  827SOL    HW1 2480   0.518   1.127   1.477  2.6376  2.7984  2.1211
  827SOL    HW2 2481   0.572   1.277   1.426 -0.4521 -2.8748 -1.1952
  828SOL     OW 2482   2.145   1.476   1.948 -0.0714  0.2276 -0.2843
  828SOL    HW1 2483   2.054   1.492   1.904 -0.3846  3.5083 -1.0304
  828SOL    HW2 2484   2.225   1.529   1.906  1.8114 -0.2357 -1.5397
  829SOL     OW 2485   0.199   1.932   0.121 -0.1376  0.0171  0.0392
  829SOL    HW1 2486   0.210   1.828   0.113 -0.5227  0.3745 -0.4805
  829SOL    HW2 2487   0.258   1.976   0.049  0.4406 -0.6169  0.0892
  830SOL     OW 2488   1.621   0.943   0.710  0.2613  0.3707 -0.1914
  830SOL    HW1 2489   1.681   0.993   0.772  1.7254 -0.2044 -2.3730
  830SOL    HW2 2490   1.581   0.859   0.760  1.4503 -1.2200  0.6925
  831SOL     OW 2491   2.764   1.956   2.980  0.2062  0.0163 -0.4640
  831SOL    HW1 2492   2.667   1.923   2.968  2.0443 -0.8527  0.6960
  831SOL    HW2 2493   2.779   1.978   3.081 -0.5254 -2.4139  0.4067
  832SOL     OW 2494   0.893   0.042   0.153 -0.0275  0.4979  0.0328
  832SOL    HW1 2495   0.887   3.023   0.164  2.1914 -2.8281  0.5607
  832SOL    HW2 2496   0.979   0.065   0.102 -0.1528 -0.4624  1.2191
  833SOL     OW 2497   1.305   0.525   2.234 -0.1946  0.1563 -0.4647
  833SOL    HW1 2498   1.314   0.629   2.223 -1.9870 -0.0890 -0.1286
  833SOL    HW2 2499   1.329   0.466   2.155 -1.0441 -1.3019 -0.5984
  834SOL     OW 2500   3.006   0.380   1.038 -0.2259  1.3124 -0.4033
  834SOL    HW1 2501   3.080   0.323   0.990 -0.7855 -1.7656 -0.5139
  834SOL    HW2 2502   2.975   0.452   0.972  0.3505 -1.5294  1.4532
  835SOL     OW 2503   2.787   2.967   0.903  0.0908 -0.2410  0.0105
  835SOL    HW1 2504   2.795   2.864   0.921  0.5515 -0.4329  0.5923
  835SOL    HW2 2505   2.818   3.020   0.985  0.7013 -2.0448 -3.5944
  836SOL     OW 2506   0.593   2.008   0.249  0.2286  0.2643 -0.2314
  836SOL    HW1 2507   0.573   1.906   0.233  1.2682 -0.6598  0.4775
  836SOL    HW2 2508   0.674   2.024   0.308  0.1967 -0.1401 -1.3420
  837SOL     OW 2509   1.587   1.588   2.647 -0.4172 -0.0344  0.2391
  837SOL    HW1 2510   1.548   1.676   2.678  2.3733  1.7954  1.8973
  837SOL    HW2 2511   1.662   1.604   2.577  4.5919 -0.5403  0.1492
  838SOL     OW 2512   0.261   1.043   2.040 -0.2625  0.4210  0.4021
  838SOL    HW1 2513   0.220   1.136   2.055 -0.6395  1.8746  3.8439
  838SOL    HW2 2514   0.255   0.986   2.127 -1.5290  0.0239  1.8091
  839SOL     OW 2515   0.201   0.553   0.880 -0.7689 -0.4072  0.0591
  839SOL    HW1 2516   0.153   0.467   0.908 -1.9643 -0.4815  0.8782
  839SOL    HW2 2517   0.277   0.576   0.948  0.0290 -2.1053  2.3866
  840SOL     OW 2518   2.480   0.201   2.484  0.0241  0.3850  0.1334
  840SOL    HW1 2519   2.482   0.199   2.584  1.2863  0.1882  0.5366
  840SOL    HW2 2520   2.567   0.217   2.443 -1.2092 -1.0215  1.5180
  841SOL     OW 2521   0.858   2.426   2.863 -0.1550 -0.2475 -0.2772
  841SOL    HW1 2522   0.940   2.468   2.816  2.6809 -1.3566  1.2007
  841SOL    HW2 2523   0.886   2.331   2.890  1.7333  2.0070  0.0819
  842SOL     OW 2524   0.550   2.935   0.888 -0.0923 -0.1412  0.4606
  842SOL    HW1 2525   0.649   2.959   0.890  0.9226 -0.4590 -2.7557
  842SOL    HW2 2526   0.525   2.917   0.789  1.0310  1.1008  0.0326
  843SOL     OW 2527   0.164   0.663   0.162 -0.7217  0.3629 -0.2182
  843SOL    HW1 2528   0.102   0.590   0.198 -1.2142 -1.0844 -2.6913
  843SOL    HW2 2529   0.185   0.636   0.065  1.3422 -0.6551  0.3408
  844SOL     OW 2530   1.077   2.509   2.732  0.0608  0.5116  0.3787
  844SOL    HW1 2531   1.116   2.431   2.676 -0.2226 -0.7714 -2.3675
  844SOL    HW2 2532   1.155   2.558   2.780  0.7403 -0.3835 -1.2895
  845SOL     OW 2533   2.520   0.157   2.763 -0.0574 -0.5950 -0.0606
  845SOL    HW1 2534   2.622   0.167   2.761  1.4473  2.7832 -0.1493
  845SOL    HW2 2535   2.487   0.119   2.850  0.4536 -0.1751  0.7259
  846SOL     OW 2536   1.994   1.584   2.756  0.5863  0.5956  0.0089
  846SOL    HW1 2537   2.087   1.570   2.713 -0.8407  1.3149  1.8728
  846SOL    HW2 2538   1.941   1.498   2.779  0.7231 -1.4966 -1.6334
  847SOL     OW 2539   2.508   0.089   0.110 -0.2403  0.0423  0.1985
  847SOL    HW1 2540   2.454   0.030   0.046 -0.3084  1.7451 -0.7294
  847SOL    HW2 2541   2.488   0.190   0.092  0.8858  1.4147 -2.1209
  848SOL     OW 2542   0.543   0.522   0.644 -0.1002 -0.3784  0.2270
  848SOL    HW1 2543   0.519   0.445   0.706  0.7115  2.6826  0.6246
  848SOL    HW2 2544   0.621   0.488   0.589 -0.1480 -0.3454  0.8509
  849SOL     OW 2545   1.506   3.024   1.931 -0.6274 -0.5123  0.2663
  849SOL    HW1 2546   1.577   2.956   1.957  0.2998  0.4460 -1.1083
  849SOL    HW2 2547   1.531   0.037   1.918 -0.8907 -2.4563  2.8724
  850SOL     OW 2548   0.727   1.137   0.620 -0.2457 -0.0337 -0.1762
  850SOL    HW1 2549   0.725   1.064   0.550 -0.5215  0.0034  3.6483
  850SOL    HW2 2550   0.672   1.109   0.701  2.4111 -0.1012 -1.3776
  851SOL     OW 2551   0.203   1.000   3.079 -0.0650  0.6429 -0.5733
  851SOL    HW1 2552   0.257   0.936   0.062  1.9932  1.7292  3.0979
  851SOL    HW2 2553   0.157   1.071   0.061 -0.5879  2.3445  1.2395
  852SOL     OW 2554   1.188   0.024   1.702 -0.1385  0.0433  0.3371
  852SOL    HW1 2555   1.220   3.067   1.792  0.1168  0.3673 -0.3537
  852SOL    HW2 2556   1.262   0.075   1.656  1.0513 -0.4863  1.7934
  853SOL     OW 2557   2.715   1.377   0.323 -0.1156  0.5108 -0.1495
  853SOL    HW1 2558   2.750   1.466   0.281 -0.8675  1.3783 -0.1711
  853SOL    HW2 2559   2.630   1.398   0.379 -0.9694 -0.8840 -0.0076
  854SOL     OW 2560   1.202   1.008   2.088 -0.3852  0.5866 -0.4449
  854SOL    HW1 2561   1.103   1.027   2.098  0.9823 -1.2192  1.3196
  854SOL    HW2 2562   1.250   1.087   2.126  2.0995 -0.6874  2.4651
  855SOL     OW 2563   0.416   2.679   3.075  0.2864 -0.8021  0.1307
  855SOL    HW1 2564   0.334   2.737   3.052 -0.7527  1.0669  2.5156
  855SOL    HW2 2565   0.393   2.580   3.064  0.5952  0.9206 -3.8540
  856SOL     OW 2566   0.812   0.800   2.057  0.5867 -0.2321 -0.5555
  856SOL    HW1 2567   0.885   0.739   2.026 -2.2903  1.8485  0.6995
  856SOL    HW2 2568   0.806   0.791   2.159 -0.5000 -1.7573  0.3650
  857SOL     OW 2569   1.067   0.684   2.468 -0.0597 -0.6381  0.2873
  857SOL    HW1 2570   1.124   0.765   2.445 -0.9643 -2.9803  0.5523
  857SOL    HW2 2571   1.109   0.590   2.452  0.7184 -0.9580 -1.5948
  858SOL     OW 2572   0.089   1.277   2.030  0.3813  0.4881 -0.0306
  858SOL    HW1 2573   0.112   1.376   2.049  0.3998 -0.8919 -0.7579
  858SOL    HW2 2574   0.113   1.260   1.933 -0.1945  0.6055 -0.7356
  859SOL     OW 2575   2.270   0.294   0.727  0.1166 -0.6397 -0.3899
  859SOL    HW1 2576   2.296   0.194   0.753 -0.5332 -2.0541 -1.1466
  859SOL    HW2 2577   2.311   0.359   0.794 -1.8619  0.4689  2.1933
  860SOL     OW 2578   1.752   3.079   0.319  0.5171  0.5530  0.3861
  860SOL    HW1 2579   1.812   2.999   0.289  1.9505  1.2365 -0.7335
  860SOL    HW2 2580   1.700   3.058   0.405 -0.5009 -0.0534  2.3627
  861SOL     OW 2581   1.020   0.455   1.151  0.4547 -0.2980  0.6947
  861SOL    HW1 2582   1.017   0.360   1.193  0.1861 -1.3604  1.1579
  861SOL    HW2 2583   0.929   0.495   1.146 -0.1037  0.7862  0.5393
  862SOL     OW 2584   1.424   0.293   2.601  0.1940 -0.4561  0.1621
  862SOL    HW1 2585   1.442   0.209   2.653 -1.9953  1.1932 -2.4741
  862SOL    HW2 2586   1.518   0.317   2.568 -0.6553 -1.0723 -0.3875
  863SOL     OW 2587   2.622   2.402   0.579 -0.4410 -0.3262 -0.0695
  863SOL    HW1 2588   2.643   2.457   0.665  0.4975  2.3176 -0.3625
  863SOL    HW2 2589   2.616   2.458   0.500  0.7321 -0.2862  1.5648
  864SOL     OW 2590   2.689   0.194   1.945  0.4955  0.1025  0.1760
  864SOL    HW1 2591   2.670   0.293   1.916  2.2483 -0.1096  0.2363
  864SOL    HW2 2592   2.774   0.147   1.904  1.7082 -0.1083  0.0728
  865SOL     OW 2593   1.224   0.992   1.799 -0.1024  0.2626  0.1500
  865SOL    HW1 2594   1.221   0.986   1.899  0.4405 -1.7368 -0.0689
  865SOL    HW2 2595   1.221   1.089   1.774  2.9398  1.4273 -2.8829
  866SOL     OW 2596   1.732   2.456   1.079  0.5581 -0.5846  0.3763
  866SOL    HW1 2597   1.671   2.401   1.018 -0.3288 -2.4690 -0.9618
  866SOL    HW2 2598   1.697   2.552   1.069 -0.3471 -0.9590 -0.9661
  867SOL     OW 2599   2.303   2.797   0.452  0.5520 -0.1849 -0.1269
  867SOL    HW1 2600   2.205   2.807   0.485 -2.1581  0.1022 -0.4257
  867SOL    HW2 2601   2.343   2.887   0.439 -1.7717 -1.7612 -0.6425
  868SOL     OW 2602   0.290   2.273   1.863  0.1433 -0.0769  0.0669
  868SOL    HW1 2603   0.336   2.215   1.797 -0.5499  1.1739 -0.2166
  868SOL    HW2 2604   0.205   2.313   1.820 -0.0971  0.6622 -1.8075
  869SOL     OW 2605   1.953   2.462   2.364  0.3077 -0.0630 -0.0007
  869SOL    HW1 2606   1.986   2.434   2.457  1.4837 -1.8109  1.2968
  869SOL    HW2 2607   2.035   2.507   2.318  2.2591 -0.1018  1.0822
  870SOL     OW 2608   1.715   1.363   0.778 -0.5273 -0.2233  0.1067
  870SOL    HW1 2609   1.687   1.334   0.683 -1.1923 -0.6240 -0.8211
  870SOL    HW2 2610   1.637   1.377   0.839  1.6693  1.9918 -2.3249
  871SOL     OW 2611   0.410   1.769   1.151 -0.2902  0.5611  0.9828
  871SOL    HW1 2612   0.317   1.718   1.144 -0.4080  0.9533  0.4192
  871SOL    HW2 2613   0.415   1.819   1.236 -3.0853 -0.6569 -1.8829
  872SOL     OW 2614   0.666   1.522   2.528 -0.1241  0.2531 -0.1204
  872SOL    HW1 2615   0.742   1.464   2.569  0.9839  0.2839  1.4343
  872SOL    HW2 2616   0.690   1.621   2.530  0.2160  0.6644 -1.2080
  873SOL     OW 2617   0.863   1.855   2.140 -0.3014 -0.1154  0.2479
  873SOL    HW1 2618   0.797   1.924   2.175  2.6102  2.6034  0.3487
  873SOL    HW2 2619   0.828   1.763   2.161  1.4615  1.3376  1.6937
  874SOL     OW 2620   1.044   0.649   1.983  0.1332 -0.5880  0.0201
  874SOL    HW1 2621   1.061   0.676   1.886  1.0351  0.2436 -1.1031
  874SOL    HW2 2622   1.113   0.694   2.040  1.1046  2.8880 -0.5850
  875SOL     OW 2623   2.699   2.782   0.626  0.3636 -0.1410  0.2236
  875SOL    HW1 2624   2.648   2.712   0.571 -0.3916  0.7945 -1.7503
  875SOL    HW2 2625   2.700   2.873   0.579  0.6564  2.7953  0.5529
  876SOL     OW 2626   0.569   1.362   0.577 -0.4630 -0.2300  0.0079
  876SOL    HW1 2627   0.612   1.270   0.589 -1.9474 -0.4032 -1.2102
  876SOL    HW2 2628   0.582   1.422   0.657 -0.6683 -2.0843 -0.5495
  877SOL     OW 2629   2.738   0.091   0.732  0.5530 -0.4369 -0.1026
  877SOL    HW1 2630   2.719   0.185   0.771  0.1212  2.3099  0.6655
  877SOL    HW2 2631   2.752   0.025   0.808 -0.3006  1.1216 -0.4096
  878SOL     OW 2632   2.192   1.580   0.511  0.0886 -0.9754 -0.4497
  878SOL    HW1 2633   2.241   1.497   0.480  1.0479  0.5116  0.3396
  878SOL    HW2 2634   2.194   1.593   0.616 -1.0318  2.9640  1.4551
  879SOL     OW 2635   2.464   1.630   1.216 -0.2735 -0.7026  0.7496
  879SOL    HW1 2636   2.451   1.532   1.241  0.0409  0.7061  1.7867
  879SOL    HW2 2637   2.451   1.653   1.118  0.2362  0.5892  2.6244
  880SOL     OW 2638   0.520   2.228   0.604 -0.0501  0.1226 -0.3187
  880SOL    HW1 2639   0.437   2.214   0.543  0.1739 -0.6105 -0.1673
  880SOL    HW2 2640   0.500   2.292   0.675 -1.6711 -2.5304 -0.2657
  881SOL     OW 2641   0.948   0.878   0.839  0.1323  0.3373  0.5126
  881SOL    HW1 2642   0.976   0.853   0.743 -1.5059 -0.5640  3.2201
  881SOL    HW2 2643   0.947   0.980   0.848  3.2552 -1.3398  2.1765
  882SOL     OW 2644   2.302   1.071   0.501 -0.0667  0.1213 -0.8260
  882SOL    HW1 2645   2.260   1.099   0.591 -1.2354  0.9349 -3.6915
  882SOL    HW2 2646   2.240   1.007   0.450  1.3395  0.1859  0.7555
  883SOL     OW 2647   1.564   0.190   1.833  0.8047  0.2249 -0.2213
  883SOL    HW1 2648   1.520   0.252   1.899 -1.4678  2.4596  0.2202
  883SOL    HW2 2649   1.514   0.176   1.746  1.1097  0.4163 -1.2378
  884SOL     OW 2650   2.849   3.067   1.153  0.4422 -0.3469  0.4431
  884SOL    HW1 2651   2.917   0.062   1.166 -1.2510  0.1032  0.4009
  884SOL    HW2 2652   2.874   2.990   1.216  0.7958 -0.7706 -1.0573
  885SOL     OW 2653   1.426   0.899   2.615  0.4049 -0.2404  0.0349
  885SOL    HW1 2654   1.373   0.890   2.526  0.5050 -3.1456 -2.8445
  885SOL    HW2 2655   1.369   0.897   2.701  0.2228  0.9467  0.2017
  886SOL     OW 2656   1.653   0.651   2.188  0.9312  0.5458  0.2811
  886SOL    HW1 2657   1.679   0.581   2.119 -1.1731 -0.1629 -0.8736
  886SOL    HW2 2658   1.593   0.613   2.263 -1.7986  0.0171  0.3064
  887SOL     OW 2659   1.425   0.337   1.415  0.3714 -0.0699 -0.7168
  887SOL    HW1 2660   1.387   0.294   1.329  0.2479 -0.5986 -3.5029
  887SOL    HW2 2661   1.526   0.342   1.402  0.8423  2.4088 -1.7690
  888SOL     OW 2662   2.316   1.672   1.879  0.8536 -0.8657 -0.2201
  888SOL    HW1 2663   2.402   1.676   1.821  1.5036  1.9856 -2.6002
  888SOL    HW2 2664   2.249   1.738   1.837  0.1767 -0.4071 -1.5427
  889SOL     OW 2665   1.713   2.151   0.531 -0.3334 -0.2531  0.0626
  889SOL    HW1 2666   1.702   2.112   0.623  1.2631  0.5878 -1.7317
  889SOL    HW2 2667   1.809   2.180   0.512  2.0857  1.5738 -1.2457
  890SOL     OW 2668   1.031   1.877   0.505 -0.3523  0.5532  0.6123
  890SOL    HW1 2669   1.065   1.787   0.539  0.2821  1.1554  0.5846
  890SOL    HW2 2670   0.965   1.913   0.576  0.0508  0.1613 -2.4887
  891SOL     OW 2671   2.884   1.002   2.860 -0.2894  0.1703 -0.1557
  891SOL    HW1 2672   2.960   0.936   2.852 -1.2726  0.1483 -3.2088
  891SOL    HW2 2673   2.860   1.019   2.955  0.2068 -0.1462 -0.6034
  892SOL     OW 2674   1.530   0.525   2.419 -0.1445  0.5024  0.2498
  892SOL    HW1 2675   1.572   0.431   2.418  1.7987 -0.7092  2.5769
  892SOL    HW2 2676   1.434   0.522   2.401 -1.2548  1.2646 -0.8362
  893SOL     OW 2677   1.669   3.038   1.447 -0.2097  0.3516 -0.0214
  893SOL    HW1 2678   1.767   3.064   1.430 -2.4474  1.3057  0.7196
  893SOL    HW2 2679   1.651   2.990   1.534  1.0920  0.6508 -2.4764
  894SOL     OW 2680   2.652   3.040   0.477  0.1553 -0.5321 -0.0382
  894SOL    HW1 2681   2.556   3.065   0.469  3.5532  0.2003 -0.7234
  894SOL    HW2 2682   2.682   3.072   0.567  1.2831  1.0240 -2.5773
  895SOL     OW 2683   1.739   2.586   2.832 -0.5828 -0.0577 -0.1875
  895SOL    HW1 2684   1.716   2.555   2.735  1.5987  0.4610 -1.5976
  895SOL    HW2 2685   1.784   2.512   2.889 -3.0169  1.7202  0.7614
  896SOL     OW 2686   2.095   0.150   2.242 -0.0217 -0.5029 -0.0984
  896SOL    HW1 2687   2.102   0.077   2.167  1.8754  0.1239 -3.1808
  896SOL    HW2 2688   2.028   0.221   2.220 -1.9403 -0.4231 -1.2650
  897SOL     OW 2689   0.168   1.847   1.490 -0.3738  0.3580  0.2870
  897SOL    HW1 2690   0.146   1.750   1.511  1.0547 -3.0501 -2.1327
  897SOL    HW2 2691   0.263   1.846   1.453  0.3460 -1.6726  0.9985
  898SOL     OW 2692   2.503   1.711   1.653 -0.1407 -0.4555  0.0223
  898SOL    HW1 2693   2.441   1.711   1.575 -0.1057  2.8653  1.9631
  898SOL    HW2 2694   2.573   1.644   1.639 -2.2312  2.9026 -0.0191
  899SOL     OW 2695   1.638   1.947   1.115 -0.3601  0.0951  0.0561
  899SOL    HW1 2696   1.564   2.020   1.116 -1.1784 -0.4938  1.5286
  899SOL    HW2 2697   1.595   1.853   1.087  0.1409 -1.5036  1.5379
  900SOL     OW 2698   1.110   0.166   2.632  0.0139 -0.4410 -0.0350
  900SOL    HW1 2699   1.128   0.185   2.729 -1.3853  1.8559  0.4160
  900SOL    HW2 2700   1.073   0.248   2.591  2.9578 -1.7142  1.6996
  901SOL     OW 2701   1.117   1.749   2.452  0.0132 -0.3855  0.1479
  901SOL    HW1 2702   1.137   1.761   2.353  1.7131  1.4157 -0.8016
  901SOL    HW2 2703   1.040   1.810   2.476 -0.7701  1.1915 -2.6344
  902SOL     OW 2704   2.908   0.055   3.050 -0.0638  0.2759 -0.2165
  902SOL    HW1 2705   2.880   0.053   0.068 -1.3001 -2.2278  0.0886
  902SOL    HW2 2706   3.009   0.044   3.041  0.2835 -0.7420 -0.8527
  903SOL     OW 2707   2.201   0.784   1.964  0.0749  0.0876  0.3528
  903SOL    HW1 2708   2.108   0.771   1.919 -1.1205  0.2258 -0.6594
  903SOL    HW2 2709   2.235   0.695   1.996  0.3067  1.2866 -0.2847
  904SOL     OW 2710   1.612   0.287   2.379 -0.0691  0.3985 -0.2501
  904SOL    HW1 2711   1.710   0.281   2.354 -3.3603 -1.2342 -1.1017
  904SOL    HW2 2712   1.556   0.214   2.337  1.0997  1.9184  0.8584
  905SOL     OW 2713   2.121   2.433   1.548 -0.0071  0.0912 -0.2145
  905SOL    HW1 2714   2.187   2.370   1.595  2.2952 -0.6705 -0.2734
  905SOL    HW2 2715   2.071   2.478   1.620  0.0963 -1.2746  1.1296
  906SOL     OW 2716   1.552   1.971   0.218  0.0473 -0.0465  0.3157
  906SOL    HW1 2717   1.499   1.886   0.191  2.2310 -0.3726  0.4326
  906SOL    HW2 2718   1.653   1.946   0.224 -0.7517  2.9133 -3.0021
  907SOL     OW 2719   0.859   2.532   0.700 -0.1764 -0.0293 -0.3159
  907SOL    HW1 2720   0.814   2.611   0.748 -0.9909 -0.4916 -1.3722
  907SOL    HW2 2721   0.842   2.524   0.601 -0.7155 -0.1359  1.2515
  908SOL     OW 2722   1.283   2.541   2.061  0.3353  0.1435 -0.1378
  908SOL    HW1 2723   1.300   2.553   2.161  0.7497 -0.7694 -3.1531
  908SOL    HW2 2724   1.232   2.454   2.039  1.7957  0.5652 -1.3591
  909SOL     OW 2725   2.155   0.335   1.726  0.7294 -0.0504  0.1491
  909SOL    HW1 2726   2.249   0.364   1.752  0.9078 -2.3514 -1.3348
  909SOL    HW2 2727   2.106   0.295   1.811 -1.9640 -2.4205  1.7189
  910SOL     OW 2728   1.241   0.816   3.042 -0.4658 -0.0637  0.5758
  910SOL    HW1 2729   1.254   0.716   3.051  0.5235  0.3744 -0.9720
  910SOL    HW2 2730   1.223   0.868   0.046 -0.3752 -0.6186 -2.0838
  911SOL     OW 2731   2.931   0.795   0.083  0.3950 -0.3477 -0.0969
  911SOL    HW1 2732   2.865   0.718   0.060 -0.6541  1.1643 -2.1744
  911SOL    HW2 2733   2.887   0.887   0.063 -0.7024  0.1679  0.2736
  912SOL     OW 2734   0.291   2.440   0.234  0.6499 -0.1227 -0.5123
  912SOL    HW1 2735   0.243   2.374   0.172  0.6603 -1.7033  0.7608
  912SOL    HW2 2736   0.390   2.429   0.231 -0.9746 -1.2799 -0.5353
  913SOL     OW 2737   2.733   2.453   2.512 -0.4219  0.2625 -0.6118
  913SOL    HW1 2738   2.814   2.389   2.515  1.6758 -0.9274  1.5840
  913SOL    HW2 2739   2.772   2.540   2.473  3.3539  0.3602  2.0414
  914SOL     OW 2740   1.506   1.891   1.577  0.2912 -0.4053 -0.0321
  914SOL    HW1 2741   1.578   1.875   1.502 -3.1782 -1.7220 -1.1570
  914SOL    HW2 2742   1.538   1.862   1.668  0.5425  2.5200 -1.4849
  915SOL     OW 2743   0.915   2.813   2.119 -0.2519 -0.6283  0.0726
  915SOL    HW1 2744   0.837   2.759   2.087 -0.3550 -0.7351 -1.8618
  915SOL    HW2 2745   0.887   2.909   2.140 -1.0081  0.4505  1.2393
  916SOL     OW 2746   0.481   1.107   1.882  0.8215  0.1141 -0.3983
  916SOL    HW1 2747   0.408   1.121   1.952 -1.8549 -0.7731  0.8012
  916SOL    HW2 2748   0.513   1.010   1.881 -0.6070 -0.6378  0.7082
  917SOL     OW 2749   2.604   0.620   0.620  0.7041 -0.1556 -0.1417
  917SOL    HW1 2750   2.546   0.646   0.544  1.1840 -1.6777  0.7932
  917SOL    HW2 2751   2.578   0.528   0.648  0.1189  4.0069  0.8088
  918SOL     OW 2752   1.833   2.728   2.351  0.7645  0.4065 -0.1895
  918SOL    HW1 2753   1.855   2.629   2.339  2.0786 -0.9926 -3.1158
  918SOL    HW2 2754   1.733   2.739   2.371 -0.2112 -1.4396 -0.8969
  919SOL     OW 2755   1.456   2.550   1.853  0.5978 -0.1155 -0.2844
  919SOL    HW1 2756   1.423   2.624   1.794 -0.1557 -1.0679  1.3377
  919SOL    HW2 2757   1.397   2.541   1.935 -0.0310  0.4801 -1.4106
  920SOL     OW 2758   0.674   0.854   3.035  0.7548 -0.0885 -0.2477
  920SOL    HW1 2759   0.592   0.900   2.994  1.7927 -3.0936 -1.6131
  920SOL    HW2 2760   0.680   0.765   2.987  0.1164  2.4317  0.1667
  921SOL     OW 2761   3.047   0.584   2.807 -0.9378 -0.3895  0.2565
  921SOL    HW1 2762   2.951   0.566   2.774  1.1161  1.9349 -1.2864
  921SOL    HW2 2763   3.066   0.678   2.834  0.1467 -1.5030 -0.5063
  922SOL     OW 2764   0.884   1.557   0.708 -0.4445  0.1245  0.3376
  922SOL    HW1 2765   0.878   1.533   0.805  1.3466  1.1324  1.4680
  922SOL    HW2 2766   0.812   1.628   0.687 -4.3717  2.4908  1.0074
  923SOL     OW 2767   0.551   1.342   1.968 -0.4884 -0.5189  0.3313
  923SOL    HW1 2768   0.482   1.406   1.933 -0.8345 -3.3599  1.1756
  923SOL    HW2 2769   0.541   1.256   1.919  0.5022  2.4047  1.6354
  924SOL     OW 2770   1.575   3.074   2.960  0.1685 -0.1034 -0.5350
  924SOL    HW1 2771   1.551   0.024   3.058 -0.0158  1.5541  0.8904
  924SOL    HW2 2772   1.608   2.979   2.961 -0.6013  1.3541 -2.0975
  925SOL     OW 2773   2.853   1.284   1.293  0.6090 -0.2640  0.1923
  925SOL    HW1 2774   2.887   1.291   1.195 -1.6387  1.5895 -2.8969
  925SOL    HW2 2775   2.779   1.215   1.300  0.2241 -1.3937  0.4332
  926SOL     OW 2776   1.854   0.580   1.404 -0.2924 -0.5473 -0.2793
  926SOL    HW1 2777   1.929   0.526   1.444 -0.3898 -1.4579  0.2271
  926SOL    HW2 2778   1.869   0.680   1.424 -1.8147  1.3776 -0.3275
  927SOL     OW 2779   1.896   2.847   1.168  0.1331 -0.3114 -0.4864
  927SOL    HW1 2780   1.825   2.775   1.161 -2.5932 -2.1112  1.7919
  927SOL    HW2 2781   1.918   2.875   1.264  0.3545  3.6393 -0.2243
  928SOL     OW 2782   3.076   1.095   2.209  0.4532 -0.4252  0.8827
  928SOL    HW1 2783   0.025   1.163   2.136  1.0510  1.6927 -2.0744
  928SOL    HW2 2784   3.027   1.015   2.164  1.1558  0.6249  1.1705
  929SOL     OW 2785   2.724   0.844   0.974 -0.3441 -0.2770  0.1048
  929SOL    HW1 2786   2.792   0.918   0.989 -2.0676  0.8214  0.2524
  929SOL    HW2 2787   2.703   0.805   1.069 -1.8869  4.7463  2.3187
  930SOL     OW 2788   2.854   2.662   2.047 -0.0294 -0.3275 -0.2492
  930SOL    HW1 2789   2.854   2.757   2.090  0.4882  2.2624  0.7519
  930SOL    HW2 2790   2.863   2.668   1.948  0.5087  0.1859  1.1551
  931SOL     OW 2791   1.950   0.870   1.038  0.3806 -0.1096 -0.4141
  931SOL    HW1 2792   1.850   0.874   1.040 -0.6081  1.8344  2.1988
  931SOL    HW2 2793   1.981   0.809   1.114 -2.1474  0.3858 -2.6569
  932SOL     OW 2794   0.148   1.246   1.773  0.2017 -0.1604  0.0542
  932SOL    HW1 2795   0.191   1.156   1.754 -2.4911  2.1537  0.2549
  932SOL    HW2 2796   0.187   1.322   1.712  1.9686 -0.2598 -1.8547
  933SOL     OW 2797   2.935   2.239   1.586 -0.4722 -0.3527 -0.5982
  933SOL    HW1 2798   2.861   2.272   1.647 -0.4337 -0.1597 -0.3729
  933SOL    HW2 2799   2.927   2.143   1.576 -0.9444  2.7200  1.4730
  934SOL     OW 2800   0.705   1.997   1.465  0.0772 -0.4913 -0.0026
  934SOL    HW1 2801   0.759   1.916   1.492 -1.9463  1.4580  0.1966
  934SOL    HW2 2802   0.748   2.087   1.497 -0.6957  1.4854 -0.8426
  935SOL     OW 2803   2.926   1.593   1.703  0.9241  0.0688  0.2966
  935SOL    HW1 2804   2.955   1.491   1.695 -3.0237 -2.1304 -0.0582
  935SOL    HW2 2805   2.853   1.619   1.635 -0.0876  3.0525  0.8195
  936SOL     OW 2806   2.545   1.317   1.731 -0.2873  0.4986  0.0127
  936SOL    HW1 2807   2.542   1.363   1.822  1.3730 -0.0003 -1.5543
  936SOL    HW2 2808   2.471   1.349   1.668  0.3755  1.3363 -0.4226
  937SOL     OW 2809   1.904   0.852   1.450  0.3403  0.1303  0.3201
  937SOL    HW1 2810   1.999   0.816   1.452  1.3896 -1.6780 -0.2635
  937SOL    HW2 2811   1.902   0.950   1.487  2.6374 -0.1778 -1.6297
  938SOL     OW 2812   0.473   2.266   2.747  0.0490 -0.1090 -0.4118
  938SOL    HW1 2813   0.458   2.262   2.642  0.6608 -1.2933  1.1698
  938SOL    HW2 2814   0.569   2.289   2.775  0.8016  2.0863  1.0781
  939SOL     OW 2815   2.505   1.605   2.647  0.1466 -0.1368 -0.1082
  939SOL    HW1 2816   2.572   1.572   2.712 -0.9701 -0.5570 -2.2023
  939SOL    HW2 2817   2.536   1.696   2.606  1.1957  3.2998 -0.7778
  940SOL     OW 2818   1.750   1.847   0.462  0.0869 -0.3232 -0.2830
  940SOL    HW1 2819   1.696   1.766   0.491  0.1214 -0.7040 -2.4158
  940SOL    HW2 2820   1.719   1.932   0.509 -0.3160  1.3465 -0.3501
  941SOL     OW 2821   2.007   2.460   2.894 -0.7278  0.2926  0.0129
  941SOL    HW1 2822   2.104   2.449   2.933  3.1517  0.3699  2.0592
  941SOL    HW2 2823   2.011   2.522   2.814  1.8322  1.4663 -1.2056
  942SOL     OW 2824   1.095   2.629   0.470  0.3018  0.2181  0.0752
  942SOL    HW1 2825   1.112   2.555   0.535  0.0093 -1.8083 -0.0878
  942SOL    HW2 2826   1.047   2.594   0.382 -3.7644  1.4950 -1.6455
  943SOL     OW 2827   2.235   1.005   1.523 -0.2054 -0.2958 -0.7679
  943SOL    HW1 2828   2.250   0.980   1.621  1.4648  0.9129 -0.8550
  943SOL    HW2 2829   2.180   1.093   1.517  0.1414 -0.4209  1.3602
  944SOL     OW 2830   1.289   0.978   2.837 -0.9595 -0.0006 -0.0918
  944SOL    HW1 2831   1.282   0.901   2.906  1.2724  0.3010 -0.8206
  944SOL    HW2 2832   1.196   1.012   2.818 -3.3516  0.0227 -1.7087
  945SOL     OW 2833   2.729   2.092   1.265 -0.3085 -0.4345 -0.1589
  945SOL    HW1 2834   2.677   2.004   1.258 -0.0515  0.4782  2.1473
  945SOL    HW2 2835   2.716   2.144   1.350  2.2243  1.5062 -0.6090
  946SOL     OW 2836   0.427   0.921   2.937 -0.3730  0.0248 -0.0021
  946SOL    HW1 2837   0.351   0.963   3.000 -3.2124  3.1894  1.0888
  946SOL    HW2 2838   0.458   0.991   2.875  1.2503  0.0584  1.4043
  947SOL     OW 2839   2.012   0.227   1.917 -0.6892 -0.2823  0.8817
  947SOL    HW1 2840   1.978   0.296   1.980  2.9924 -2.4311  0.6886
  947SOL    HW2 2841   2.040   0.140   1.963  0.3334  1.0653  0.0319
  948SOL     OW 2842   3.051   1.740   0.954  0.3137  0.7905 -0.1269
  948SOL    HW1 2843   2.980   1.682   0.997  0.0504  0.0398  2.7211
  948SOL    HW2 2844   3.040   1.750   0.847 -1.4748  0.7115 -4.1763
  949SOL     OW 2845   1.189   1.257   1.765 -0.3067 -0.0309  0.0598
  949SOL    HW1 2846   1.097   1.262   1.718 -0.0267  1.8740  0.5204
  949SOL    HW2 2847   1.183   1.286   1.864 -2.0192 -2.3906  1.3702
  950SOL     OW 2848   0.225   0.906   0.848  0.4161  0.5726  0.1237
  950SOL    HW1 2849   0.182   0.974   0.785 -0.1971 -1.8498 -0.5023
  950SOL    HW2 2850   0.277   0.835   0.797 -0.0019 -1.6224  1.6730
  951SOL     OW 2851   0.311   1.830   2.100 -0.7682 -0.1208  0.1750
  951SOL    HW1 2852   0.227   1.783   2.142 -1.1710 -2.5395  2.3536
  951SOL    HW2 2853   0.388   1.769   2.097 -2.4052 -0.4737  0.5104
  952SOL     OW 2854   1.747   1.429   0.292  0.0564 -0.6319 -0.5307
  952SOL    HW1 2855   1.672   1.501   0.281 -2.9955  0.7925 -0.8645
  952SOL    HW2 2856   1.753   1.376   0.204 -0.2520 -3.1823  2.0482
  953SOL     OW 2857   1.126   0.630   0.271  0.2203 -0.4662 -0.0746
  953SOL    HW1 2858   1.212   0.584   0.250 -2.1036  2.2866  0.2668
  953SOL    HW2 2859   1.046   0.593   0.210 -3.8331 -3.1643 -0.9433
  954SOL     OW 2860   1.936   1.112   0.493  0.4981  0.2252 -0.1530
  954SOL    HW1 2861   1.949   1.177   0.576  0.9228  2.9391  0.5624
  954SOL    HW2 2862   1.842   1.110   0.457  0.8731 -1.0591 -4.4492
  955SOL     OW 2863   2.486   2.756   2.697  0.3447 -0.9420  0.1741
  955SOL    HW1 2864   2.435   2.830   2.746 -1.6625 -1.2064  1.2445
  955SOL    HW2 2865   2.577   2.751   2.733 -1.0146  0.8595 -1.5871
  956SOL     OW 2866   0.988   0.792   1.395 -0.0112 -0.1039 -0.1968
  956SOL    HW1 2867   1.000   0.818   1.295  1.9594 -1.1599 -1.2499
  956SOL    HW2 2868   1.023   0.698   1.417  0.7609 -1.5914  3.7390
  957SOL     OW 2869   1.635   1.090   1.487  0.1145 -0.0970  0.3068
  957SOL    HW1 2870   1.729   1.093   1.520 -1.0980 -0.3038 -3.0722
  957SOL    HW2 2871   1.572   1.073   1.569 -2.1287 -1.2052 -0.9437
  958SOL     OW 2872   0.383   1.931   0.538 -0.3509  0.0074  0.4912
  958SOL    HW1 2873   0.385   1.859   0.461  1.2911  0.7457 -0.0557
  958SOL    HW2 2874   0.462   1.934   0.589 -2.8578  0.4175 -1.2667
  959SOL     OW 2875   1.825   1.451   1.237  0.5040 -0.0601  0.5974
  959SOL    HW1 2876   1.746   1.385   1.260 -0.8764 -4.0633 -1.4033
  959SOL    HW2 2877   1.812   1.493   1.145  0.6383  2.5438  0.3046
  960SOL     OW 2878   3.063   1.379   2.833 -0.1110 -0.4547  0.6807
  960SOL    HW1 2879   0.059   1.420   2.780 -0.5860  1.6540  0.6459
  960SOL    HW2 2880   2.978   1.391   2.773 -2.1018  0.2066 -2.5412
  961SOL     OW 2881   1.118   1.640   0.564  0.4672  0.8289 -0.5606
  961SOL    HW1 2882   1.040   1.586   0.596  0.1480 -2.1271 -2.7944
  961SOL    HW2 2883   1.184   1.640   0.646 -1.4709 -0.9670 -1.3263
  962SOL     OW 2884   1.092   1.057   0.437  0.0838  0.1551 -0.0041
  962SOL    HW1 2885   1.065   0.997   0.518 -1.7388 -0.5842  0.6854
  962SOL    HW2 2886   1.172   1.118   0.453  1.0189 -1.2470 -0.4352
  963SOL     OW 2887   1.245   2.032   2.197  0.0404 -0.4860 -0.3205
  963SOL    HW1 2888   1.323   2.039   2.266  1.0569  1.0280  2.0435
  963SOL    HW2 2889   1.196   1.943   2.192 -1.0610  0.2326 -3.3927
  964SOL     OW 2890   2.779   2.953   2.881  0.0631  0.0999 -0.1793
  964SOL    HW1 2891   2.829   3.005   2.956  1.9245  1.8905 -0.7161
  964SOL    HW2 2892   2.841   2.874   2.844  3.1296 -3.5565 -1.4109
  965SOL     OW 2893   0.629   2.458   0.121 -0.0965 -0.2355 -0.3278
  965SOL    HW1 2894   0.649   2.519   0.039  0.1158 -1.9425 -1.4330
  965SOL    HW2 2895   0.619   2.503   0.211 -0.4500 -2.0522 -2.8181
  966SOL     OW 2896   2.908   1.766   2.859 -0.4833  0.6797  0.1714
  966SOL    HW1 2897   2.859   1.846   2.893  1.8701  0.5709  1.3252
  966SOL    HW2 2898   2.881   1.735   2.765 -0.1243 -0.9244 -0.2883
  967SOL     OW 2899   1.948   2.932   2.940 -0.0204 -0.4533  0.6457
  967SOL    HW1 2900   2.007   2.958   2.860 -0.5504  0.5756 -1.0294
  967SOL    HW2 2901   2.003   2.915   3.023  0.3898 -1.6016 -1.0842
  968SOL     OW 2902   2.043   2.875   0.530 -0.3273 -0.3880  0.2128
  968SOL    HW1 2903   1.998   2.796   0.573  1.5482 -0.7637  0.5430
  968SOL    HW2 2904   2.027   2.963   0.579  2.5232  0.3471 -1.8688
  969SOL     OW 2905   0.874   1.183   2.358 -0.0670  0.4148 -0.0985
  969SOL    HW1 2906   0.869   1.142   2.453  1.1677 -1.1185  0.1508
  969SOL    HW2 2907   0.800   1.250   2.336  1.5514 -1.6806  0.9744
  970SOL     OW 2908   1.606   1.239   1.022  0.6794  0.1250 -0.0986
  970SOL    HW1 2909   1.592   1.138   0.997 -2.0811 -0.0671 -5.0549
  970SOL    HW2 2910   1.592   1.266   1.121 -0.0363  0.0593  0.4990
  971SOL     OW 2911   2.272   0.054   1.407  0.3428 -0.5880  0.2585
  971SOL    HW1 2912   2.259   0.034   1.309  1.5151  1.0626  0.2479
  971SOL    HW2 2913   2.364   0.099   1.427  1.7258  0.2721 -1.3900
  972SOL     OW 2914   3.069   2.955   1.779 -0.4686  0.1768  0.0062
  972SOL    HW1 2915   0.035   2.923   1.864  0.7980  2.9796  1.2473
  972SOL    HW2 2916   3.042   2.880   1.713  1.2594  1.5399 -2.3054
  973SOL     OW 2917   0.131   0.346   2.740  0.0331  0.1946 -0.3925
  973SOL    HW1 2918   0.152   0.304   2.827  0.9495  0.7443 -0.3151
  973SOL    HW2 2919   0.033   0.339   2.721  0.6358 -2.8231 -0.3115
  974SOL     OW 2920   2.358   1.168   2.186  0.0275  0.0995  0.3075
  974SOL    HW1 2921   2.445   1.113   2.192  1.3564 -0.9623 -1.3517
  974SOL    HW2 2922   2.281   1.106   2.168  2.5693  1.6519 -0.0025
  975SOL     OW 2923   0.439   0.234   1.627 -0.4602 -0.2117 -0.0304
  975SOL    HW1 2924   0.440   0.137   1.603 -0.6002 -0.5502  0.2607
  975SOL    HW2 2925   0.483   0.276   1.548  1.4999 -1.9587 -0.7226
  976SOL     OW 2926   0.682   2.036   2.236 -0.4324 -0.1072  0.2465
  976SOL    HW1 2927   0.622   2.096   2.178  2.0081  1.8576 -0.7752
  976SOL    HW2 2928   0.734   2.098   2.299 -1.0701  0.6256  1.3247
  977SOL     OW 2929   0.582   0.018   0.549 -0.1402 -0.3780 -0.0327
  977SOL    HW1 2930   0.660   0.086   0.555  1.4198  2.2456 -0.9236
  977SOL    HW2 2931   0.512   0.038   0.621  0.8451 -0.5524  2.6505
  978SOL     OW 2932   2.874   1.303   2.052  0.0594 -0.1067 -0.1782
  978SOL    HW1 2933   2.975   1.295   2.034 -0.4064  0.0228  2.6863
  978SOL    HW2 2934   2.861   1.298   2.155 -1.0406 -0.6247  3.6508
  979SOL     OW 2935   1.823   0.137   1.757 -0.2233 -0.0571  0.3780
  979SOL    HW1 2936   1.734   0.176   1.788 -0.1665 -1.4773  1.8036
  979SOL    HW2 2937   1.897   0.182   1.812 -2.6879 -2.2141 -2.9610
  980SOL     OW 2938   1.734   1.572   1.656  0.3239 -0.4962  0.0524
  980SOL    HW1 2939   1.725   1.565   1.553 -0.3716 -0.4882 -0.3970
  980SOL    HW2 2940   1.648   1.522   1.686 -3.2863 -4.5248  0.0436
  981SOL     OW 2941   2.838   0.861   1.428  0.3362 -0.0208 -0.0060
  981SOL    HW1 2942   2.766   0.931   1.418  1.3980 -0.6772  0.0728
  981SOL    HW2 2943   2.924   0.910   1.438 -0.4079 -0.7759  0.2277
  982SOL     OW 2944   0.492   3.025   2.777  0.3933 -0.2146  0.4579
  982SOL    HW1 2945   0.502   2.921   2.768  0.5742 -2.0180  1.5056
  982SOL    HW2 2946   0.413   3.056   2.715 -2.0147  1.2310 -2.2578
  983SOL     OW 2947   2.827   0.550   2.374 -0.3369 -0.1003 -0.2941
  983SOL    HW1 2948   2.827   0.645   2.412 -1.2242  2.5439 -1.5348
  983SOL    HW2 2949   2.847   0.553   2.275  0.7143 -0.6587  4.8860
  984SOL     OW 2950   1.253   3.014   1.941  0.2096  0.6811 -0.2084
  984SOL    HW1 2951   1.355   3.015   1.953 -0.4423 -1.4879 -0.1306
  984SOL    HW2 2952   1.222   2.918   1.961  0.6113 -0.2275 -0.4654
  985SOL     OW 2953   1.760   2.083   2.172  0.0339  0.7509  0.0646
  985SOL    HW1 2954   1.811   2.122   2.092 -1.4763  0.3091  0.6799
  985SOL    HW2 2955   1.671   2.038   2.147  1.0812 -1.2810  0.6430
  986SOL     OW 2956   2.413   0.520   1.140  0.1306 -0.2823  0.2214
  986SOL    HW1 2957   2.499   0.473   1.170  0.9400  0.8745 -0.9422
  986SOL    HW2 2958   2.408   0.623   1.157 -1.2563  3.2749 -0.2710
  987SOL     OW 2959   2.677   1.062   1.355 -0.2611  0.6133  0.1699
  987SOL    HW1 2960   2.605   1.077   1.421  0.5663  0.7699  0.1979
  987SOL    HW2 2961   2.639   1.070   1.263  2.6909 -0.7890  1.4518
  988SOL     OW 2962   2.791   1.179   1.805  0.0580 -0.1854 -0.5118
  988SOL    HW1 2963   2.808   1.198   1.904 -0.0203  0.4357  1.8751
  988SOL    HW2 2964   2.702   1.225   1.771 -0.8741  0.9478 -1.7369
  989SOL     OW 2965   1.088   2.311   0.182 -0.6316 -0.3295  0.3063
  989SOL    HW1 2966   1.177   2.327   0.227 -0.7021 -0.7800 -0.6828
  989SOL    HW2 2967   1.089   2.233   0.122  0.9442 -0.1632  2.7493
  990SOL     OW 2968   1.591   0.686   2.625 -0.0326  0.6207  0.0535
  990SOL    HW1 2969   1.566   0.627   2.544  0.4539  1.7766  2.1240
  990SOL    HW2 2970   1.555   0.778   2.615  2.8102 -1.5621 -0.3938
  991SOL     OW 2971   1.278   0.714   0.549  0.1983  0.3045  0.4035
  991SOL    HW1 2972   1.287   0.692   0.649  0.8921  1.8737  0.2155
  991SOL    HW2 2973   1.359   0.693   0.498 -1.7300 -1.2202  0.9632
  992SOL     OW 2974   2.657   1.847   1.002  0.1599  0.2542 -0.1498
  992SOL    HW1 2975   2.651   1.917   0.927 -1.7975 -0.5621  0.1071
  992SOL    HW2 2976   2.667   1.897   1.088 -1.4462 -2.1400 -2.3900
  993SOL     OW 2977   2.706   0.537   1.029  0.3965 -0.5428 -0.1457
  993SOL    HW1 2978   2.708   0.613   1.096  4.9041 -0.8142  0.7894
  993SOL    HW2 2979   2.763   0.564   0.952 -0.5094 -1.3669  1.0650
  994SOL     OW 2980   0.103   2.010   2.457  0.0957  0.5668  0.3494
  994SOL    HW1 2981   0.170   1.992   2.532  1.8196 -3.6910  0.6105
  994SOL    HW2 2982   0.166   2.042   2.385 -0.1178 -1.4519  1.5508
  995SOL     OW 2983   1.891   0.976   2.749 -0.2961 -0.1722 -0.4685
  995SOL    HW1 2984   1.884   0.874   2.754  1.8517 -2.7133 -3.2381
  995SOL    HW2 2985   1.821   1.020   2.688 -0.2166  0.0405 -2.3226
  996SOL     OW 2986   2.876   1.353   0.560 -0.2091  0.2729  0.4825
  996SOL    HW1 2987   2.894   1.252   0.546  1.9707  0.3777  1.2482
  996SOL    HW2 2988   2.817   1.390   0.483 -0.7494 -0.2697 -0.2924
  997SOL     OW 2989   1.793   0.837   2.028 -0.3129 -0.4288  0.3938
  997SOL    HW1 2990   1.724   0.781   2.079 -0.3801 -0.5452 -1.2147
  997SOL    HW2 2991   1.849   0.785   1.957  0.6741 -0.7809 -1.9694
  998SOL     OW 2992   2.736   1.626   0.217  0.1793  0.0599 -0.2369
  998SOL    HW1 2993   2.657   1.689   0.238  1.8706 -0.1395 -0.2437
  998SOL    HW2 2994   2.813   1.636   0.286  0.2056 -1.6020 -0.5561
  999SOL     OW 2995   3.054   2.349   0.120  0.8269  0.1389 -0.5438
  999SOL    HW1 2996   3.069   2.252   0.143 -0.7822 -0.6548  1.2043
  999SOL    HW2 2997   3.006   2.391   0.197  0.6865 -2.0735  1.6553
 1000SOL     OW 2998   0.883   0.802   2.661  0.2849  0.1610 -0.0233
 1000SOL    HW1 2999   0.912   0.764   2.753  1.9576  2.3653  2.0854
 1000SOL    HW2 3000   0.951   0.779   2.591 -0.9943 -0.5036 -1.8306
   3.08234   3.08234   3.08234
