1000 SPC/Fw water molecules t= 173.00000 step= 173000
 3000
    1SOL     OW    1   2.697   2.877   0.880 -0.0952 -0.6365  0.2475
    1SOL    HW1    2   2.623   2.935   0.847  1.2863  2.5782  0.7848
    1SOL    HW2    3   2.758   2.850   0.803  1.7221  0.5224 -1.4794
    2SOL     OW    4   1.641   1.814   2.139  0.0767 -0.6080 -0.7122
    2SOL    HW1    5   1.640   1.818   2.033 -3.9266 -2.0682 -4.0750
    2SOL    HW2    6   1.675   1.720   2.162  0.5794  0.9800 -2.2772
    3SOL     OW    7   1.768   2.619   2.277  0.1544  0.3543 -0.1785
    3SOL    HW1    8   1.809   2.686   2.213  0.2197 -0.7095  0.9137
    3SOL    HW2    9   1.691   2.651   2.324  1.2868 -1.6150 -0.6041
    4SOL     OW   10   1.877   2.029   1.845  0.5856 -0.2414  0.2449
    4SOL    HW1   11   1.912   2.047   1.939  0.5958  0.9797 -0.7898
    4SOL    HW2   12   1.850   2.120   1.805 -3.7444  0.1872 -0.2765
    5SOL     OW   13   0.954   0.520   1.776 -0.2639  0.3839 -0.2050
    5SOL    HW1   14   0.989   0.557   1.685  3.2308 -0.3039 -1.0499
    5SOL    HW2   15   0.890   0.588   1.818 -0.7788 -0.6406 -0.3744
    6SOL     OW   16   2.448   0.968   2.973  0.1562  0.2614  0.0763
    6SOL    HW1   17   2.502   0.915   2.901  0.6654 -0.3735 -1.4125
    6SOL    HW2   18   2.376   1.031   2.933 -2.0836  0.8309  3.2290
    7SOL     OW   19   1.138   0.878   1.329 -0.4575 -0.0532  0.0001
    7SOL    HW1   20   1.153   0.776   1.344  2.2291 -0.2601  1.0888
    7SOL    HW2   21   1.056   0.886   1.268  2.0127  0.7340  1.2453
    8SOL     OW   22   1.076   2.962   1.152 -0.8868  0.6584  0.4158
    8SOL    HW1   23   1.024   3.021   1.213  0.6395 -1.7956  1.2451
    8SOL    HW2   24   1.159   2.925   1.204  0.4521 -1.7026 -0.2777
    9SOL     OW   25   0.849   0.953   0.063 -0.9462 -0.3387  1.0770
    9SOL    HW1   26   0.796   1.041   0.051 -0.6811  0.3700 -1.2105
    9SOL    HW2   27   0.907   0.964   0.150  1.8461  0.2871  1.2181
   10SOL     OW   28   0.486   2.878   0.119 -0.5237 -0.0478 -0.0183
   10SOL    HW1   29   0.451   2.836   0.207  1.9571 -1.7079 -0.4360
   10SOL    HW2   30   0.444   2.820   0.043  0.6566 -1.5327  1.1467
   11SOL     OW   31   0.257   1.354   2.931  0.2962 -0.2764  0.6269
   11SOL    HW1   32   0.331   1.371   2.864 -2.2875 -1.3105  2.5867
   11SOL    HW2   33   0.208   1.442   2.942  0.4442 -0.0690  0.1580
   12SOL     OW   34   0.750   2.926   1.278 -0.1832 -0.0727 -0.1027
   12SOL    HW1   35   0.650   2.925   1.288  1.5116 -1.7338  0.6345
   12SOL    HW2   36   0.792   2.832   1.295 -0.9369 -1.1447 -0.6787
   13SOL     OW   37   0.901   2.744   0.419  0.0471 -0.3183 -0.1675
   13SOL    HW1   38   0.970   2.766   0.353 -0.5997 -0.5308  1.6906
   13SOL    HW2   39   0.809   2.776   0.396 -0.2526 -0.7720 -4.2607
   14SOL     OW   40   1.080   2.205   1.278  0.2885 -0.1643  0.3349
   14SOL    HW1   41   0.997   2.209   1.335  1.5154 -0.9090  0.3373
   14SOL    HW2   42   1.174   2.188   1.322  1.2164 -2.1251 -0.0007
   15SOL     OW   43   2.645   0.864   2.327  0.0861  0.5661 -0.0964
   15SOL    HW1   44   2.608   0.869   2.421 -0.9488 -2.1494 -0.0552
   15SOL    HW2   45   2.565   0.842   2.269  1.1748  1.6733 -0.6756
   16SOL     OW   46   1.211   2.900   2.824 -0.0790  0.6676  0.2051
   16SOL    HW1   47   1.244   2.840   2.747 -0.4461  0.7189  1.4824
   16SOL    HW2   48   1.198   2.847   2.915 -0.9192 -0.6679 -1.5389
   17SOL     OW   49   0.916   2.947   1.710 -0.2877 -0.8385 -0.1445
   17SOL    HW1   50   0.830   2.969   1.762  2.2459 -0.8520 -1.0079
   17SOL    HW2   51   0.963   3.031   1.679  1.1115  1.5285  0.9720
   18SOL     OW   52   1.415   0.773   0.158 -0.5629  0.7991  0.0003
   18SOL    HW1   53   1.503   0.801   0.115  0.6011 -1.3825  2.7882
   18SOL    HW2   54   1.370   0.689   0.119 -0.7809  1.9246  0.5010
   19SOL     OW   55   2.059   1.670   2.865  0.5631 -0.1501 -0.4199
   19SOL    HW1   56   2.086   1.695   2.958  1.1699  1.2944 -2.0101
   19SOL    HW2   57   2.057   1.752   2.804 -0.3394  0.8848  1.0337
   20SOL     OW   58   2.123   1.997   1.740  1.0112 -0.1807 -0.1866
   20SOL    HW1   59   2.183   1.977   1.814  1.8504 -0.1399 -0.3170
   20SOL    HW2   60   2.018   2.000   1.765 -0.2675  1.1090  3.0584
   21SOL     OW   61   0.468   1.448   2.776  0.3422 -0.6148  0.1339
   21SOL    HW1   62   0.532   1.376   2.807 -4.2825  1.4689  0.0790
   21SOL    HW2   63   0.432   1.425   2.681  1.0566 -0.7512  1.4078
   22SOL     OW   64   2.629   3.022   1.515 -0.0770  0.0372 -0.1621
   22SOL    HW1   65   2.579   2.950   1.462 -1.6085 -1.6225  1.4448
   22SOL    HW2   66   2.670   3.091   1.453  0.7297 -1.0681  1.2314
   23SOL     OW   67   2.887   0.847   1.903  0.1579 -0.0131  0.0997
   23SOL    HW1   68   2.810   0.911   1.888  2.1156  0.1508  1.3479
   23SOL    HW2   69   2.913   0.802   1.815  1.5207 -1.1228  1.0007
   24SOL     OW   70   2.701   2.114   1.341 -0.4839  0.1938  0.1149
   24SOL    HW1   71   2.693   2.187   1.270 -0.3055 -0.1846  1.1877
   24SOL    HW2   72   2.657   2.149   1.430 -0.3076  0.1083  1.6558
   25SOL     OW   73   1.838   2.841   2.542 -0.1844  0.1214  0.0991
   25SOL    HW1   74   1.871   2.845   2.446 -3.1964  1.2626  0.0346
   25SOL    HW2   75   1.863   2.757   2.595 -1.6386  0.1241 -1.3712
   26SOL     OW   76   1.214   0.110   3.071 -0.1357 -0.2958  0.1320
   26SOL    HW1   77   1.231   0.040   0.027 -3.1647  1.7225 -1.7489
   26SOL    HW2   78   1.254   0.093   2.976 -3.5214 -2.5795 -0.3099
   27SOL     OW   79   0.621   2.135   2.984  0.3646  0.3429  0.0894
   27SOL    HW1   80   0.686   2.149   3.062 -0.2857 -0.1894  0.1363
   27SOL    HW2   81   0.607   2.225   2.936  3.1662  2.7442  0.7428
   28SOL     OW   82   3.070   1.645   1.226  0.0983  0.1293  0.1159
   28SOL    HW1   83   2.974   1.644   1.193 -1.0649  2.1591  1.1653
   28SOL    HW2   84   0.021   1.648   1.146 -0.3967  1.1522  0.0600
   29SOL     OW   85   2.565   1.993   2.047  0.0580  0.4024 -0.2819
   29SOL    HW1   86   2.564   1.911   2.110  2.4470 -1.5153  0.7863
   29SOL    HW2   87   2.560   2.078   2.099  0.9844 -0.5352  1.0940
   30SOL     OW   88   1.241   2.916   0.896  0.1352 -0.3371 -0.8014
   30SOL    HW1   89   1.185   2.829   0.889  1.1892  0.7907  0.7200
   30SOL    HW2   90   1.197   2.980   0.964  0.6943 -0.9490 -0.9841
   31SOL     OW   91   0.009   2.382   1.998  0.3175 -0.6114 -0.0217
   31SOL    HW1   92   0.019   2.436   1.912 -2.2641 -1.3062  3.5007
   31SOL    HW2   93   0.033   2.286   1.980 -0.1753 -1.2605 -0.7564
   32SOL     OW   94   1.256   0.938   1.655  0.4938 -0.5276 -0.3519
   32SOL    HW1   95   1.170   0.940   1.600  3.4194  1.3939  2.3738
   32SOL    HW2   96   1.272   1.021   1.715 -2.0841  1.2986  0.6704
   33SOL     OW   97   0.417   2.766   2.360  0.1345  0.0067  0.5226
   33SOL    HW1   98   0.394   2.806   2.271  0.5127 -0.9137  3.3152
   33SOL    HW2   99   0.472   2.827   2.421 -0.0201 -0.1993  1.6979
   34SOL     OW  100   1.798   0.117   1.154 -0.0504  0.2910 -0.6280
   34SOL    HW1  101   1.825   0.075   1.066 -0.3730 -1.1760  1.0019
   34SOL    HW2  102   1.702   0.152   1.147 -2.0153 -3.0970 -1.4884
   35SOL     OW  103   2.307   0.728   1.494  0.2148  0.2880  0.1376
   35SOL    HW1  104   2.266   0.795   1.427 -0.9035  1.4088 -2.1570
   35SOL    HW2  105   2.407   0.745   1.510 -0.2585  0.2618  1.0319
   36SOL     OW  106   2.494   2.359   2.031 -0.6400  0.4046  0.4344
   36SOL    HW1  107   2.503   2.336   2.128 -0.4662 -2.3378 -0.5603
   36SOL    HW2  108   2.405   2.331   1.992 -1.2920  0.4264 -1.9130
   37SOL     OW  109   1.046   2.252   2.379 -0.4554  0.2530  0.5247
   37SOL    HW1  110   1.141   2.251   2.412  0.5795 -0.5179  1.2410
   37SOL    HW2  111   0.990   2.312   2.441 -2.3115  1.1192  1.8114
   38SOL     OW  112   2.521   0.352   3.040 -0.5540 -0.2557 -0.0775
   38SOL    HW1  113   2.514   0.249   3.054  0.9486 -2.7890  0.9695
   38SOL    HW2  114   2.457   0.383   2.967  1.7676  0.7712 -2.0894
   39SOL     OW  115   2.236   1.650   2.053  0.3139 -0.0903  0.3302
   39SOL    HW1  116   2.334   1.623   2.058 -3.8735 -1.2127  0.0583
   39SOL    HW2  117   2.182   1.567   2.019 -0.5405 -0.0716 -0.8068
   40SOL     OW  118   0.025   3.014   2.587  0.7599 -0.9605 -0.3936
   40SOL    HW1  119   3.038   3.002   2.577  1.6904  2.6340 -0.3656
   40SOL    HW2  120   0.086   2.936   2.562  2.6032  0.3400  0.3824
   41SOL     OW  121   1.833   0.528   1.291 -0.1639 -0.3919 -0.4448
   41SOL    HW1  122   1.835   0.538   1.191 -0.1361  2.0678 -0.6905
   41SOL    HW2  123   1.876   0.438   1.320 -1.6589 -0.8747 -0.7703
   42SOL     OW  124   0.924   0.245   1.782 -0.2355  0.8497 -0.2896
   42SOL    HW1  125   0.934   0.344   1.772 -0.0147 -0.7763 -3.7948
   42SOL    HW2  126   0.830   0.227   1.817  0.0741 -1.6286 -0.3489
   43SOL     OW  127   1.895   0.804   1.898 -0.1009  0.5306 -0.0149
   43SOL    HW1  128   1.975   0.743   1.898 -2.1168 -0.5164  0.4504
   43SOL    HW2  129   1.835   0.795   1.817  2.2243  0.9572 -1.1784
   44SOL     OW  130   0.079   2.868   3.067  0.1430  0.0832 -0.6262
   44SOL    HW1  131   3.110   2.819   3.039  1.7316  0.2695 -1.7728
   44SOL    HW2  132   0.092   2.954   3.011 -1.1669 -1.9121 -2.6270
   45SOL     OW  133   0.230   2.451   1.620 -0.2254  0.6038  0.7961
   45SOL    HW1  134   0.141   2.480   1.658  2.5959 -1.0596  0.4046
   45SOL    HW2  135   0.304   2.507   1.658 -0.2697 -0.3358 -0.9879
   46SOL     OW  136   2.099   2.282   2.244  0.0265 -0.1965  0.0798
   46SOL    HW1  137   2.186   2.249   2.285 -2.2025 -0.0300 -0.5683
   46SOL    HW2  138   2.114   2.364   2.185 -1.3655  1.1228  0.3020
   47SOL     OW  139   1.566   2.107   1.465  0.4169  0.4766 -0.3591
   47SOL    HW1  140   1.565   2.188   1.526 -0.9015 -2.5508  1.7432
   47SOL    HW2  141   1.477   2.087   1.415  0.5005  0.7103 -2.5848
   48SOL     OW  142   0.411   1.479   0.470 -0.4107  0.1850  0.3655
   48SOL    HW1  143   0.494   1.537   0.466  0.6222  2.8066 -2.2359
   48SOL    HW2  144   0.367   1.493   0.561  1.2444 -0.6634  1.5973
   49SOL     OW  145   2.724   0.422   2.667 -0.2989 -0.1469  0.0284
   49SOL    HW1  146   2.735   0.506   2.724  0.6699 -0.9150 -1.0536
   49SOL    HW2  147   2.725   0.450   2.568 -2.6987  0.6171 -0.3177
   50SOL     OW  148   1.943   0.780   0.918  0.1028 -0.3146 -0.5450
   50SOL    HW1  149   1.985   0.876   0.920 -2.1468 -0.7119 -0.4242
   50SOL    HW2  150   1.957   0.745   0.825 -0.8316 -0.2179  1.9850
   51SOL     OW  151   1.354   0.455   0.955  0.0931  0.7999 -0.1791
   51SOL    HW1  152   1.282   0.437   1.023  1.8221  0.3577  0.6682
   51SOL    HW2  153   1.326   0.516   0.877 -2.5534  0.7362  2.3241
   52SOL     OW  154   1.334   1.263   3.072 -0.0127  0.1165 -0.2485
   52SOL    HW1  155   1.322   1.186   0.025  0.1824  0.1716  0.6599
   52SOL    HW2  156   1.384   1.339   0.004  1.4140  1.4238  0.1113
   53SOL     OW  157   1.165   1.963   2.664 -0.2105  0.6834 -0.2207
   53SOL    HW1  158   1.091   2.022   2.707  2.0038 -0.8494 -1.3338
   53SOL    HW2  159   1.258   1.993   2.688  1.6355  0.2899 -1.2682
   54SOL     OW  160   1.985   0.311   1.338  0.1977 -0.1745 -0.3119
   54SOL    HW1  161   2.082   0.317   1.377  1.8430 -0.6803  0.8245
   54SOL    HW2  162   1.955   0.219   1.311 -3.3733  0.2863  0.3815
   55SOL     OW  163   2.189   2.722   0.588  0.3565 -0.4880  0.1715
   55SOL    HW1  164   2.253   2.709   0.510  1.3734  1.1454  0.8176
   55SOL    HW2  165   2.094   2.710   0.557 -1.0606  1.3453  0.6226
   56SOL     OW  166   0.640   2.687   1.484 -0.0379  0.0345 -0.4804
   56SOL    HW1  167   0.728   2.647   1.508 -3.4225  0.4134  0.3335
   56SOL    HW2  168   0.592   2.721   1.566  1.3291 -0.3531 -0.1960
   57SOL     OW  169   1.644   1.326   0.483 -0.6320  0.1057  0.3350
   57SOL    HW1  170   1.618   1.297   0.388 -0.0474  1.2473  2.3176
   57SOL    HW2  171   1.748   1.324   0.498  2.5034 -0.1786 -0.0573
   58SOL     OW  172   0.237   1.024   2.249 -0.4328 -0.3804  0.0416
   58SOL    HW1  173   0.222   1.126   2.257  0.2445 -0.0693 -1.9748
   58SOL    HW2  174   0.152   0.970   2.249 -0.5582 -2.0970 -1.1803
   59SOL     OW  175   1.160   2.900   2.438  0.0174 -0.1773 -0.0382
   59SOL    HW1  176   1.224   2.904   2.518 -0.0108  2.0452  0.0993
   59SOL    HW2  177   1.084   2.970   2.442 -1.9813 -0.6595  0.2539
   60SOL     OW  178   2.467   2.524   0.992 -0.1294 -0.0127  0.1140
   60SOL    HW1  179   2.408   2.516   0.909  1.6798  2.2177 -0.4453
   60SOL    HW2  180   2.415   2.541   1.077  1.1513 -0.4767 -1.0994
   61SOL     OW  181   1.115   1.977   0.820 -0.3415 -0.1663 -0.1735
   61SOL    HW1  182   1.050   2.011   0.888  2.1790  0.5313 -2.8402
   61SOL    HW2  183   1.169   2.055   0.778  1.7230 -1.2314 -0.2617
   62SOL     OW  184   2.166   2.624   2.799 -1.0101  0.2060  0.2986
   62SOL    HW1  185   2.153   2.586   2.892 -0.2331  0.0433 -2.7262
   62SOL    HW2  186   2.164   2.727   2.808 -0.8906 -0.0648  1.4809
   63SOL     OW  187   2.241   0.590   3.110 -0.1737 -0.8986  0.4179
   63SOL    HW1  188   2.140   0.576   3.105  1.0029  0.8138  0.4009
   63SOL    HW2  189   2.276   0.560   0.086 -1.6141 -0.3543 -1.8517
   64SOL     OW  190   1.056   0.925   3.009  0.3220  0.2367  0.0989
   64SOL    HW1  191   1.083   1.019   2.979  0.6258  0.5986  2.8252
   64SOL    HW2  192   0.981   0.923   3.080  1.4384 -1.1752  2.6353
   65SOL     OW  193   0.989   2.437   0.367  0.0180  0.3860  0.3195
   65SOL    HW1  194   1.069   2.496   0.395  0.2950  0.9693  0.4093
   65SOL    HW2  195   0.974   2.371   0.446  0.0610 -0.8513 -0.7860
   66SOL     OW  196   0.870   1.149   1.711 -0.0379  0.2821 -0.2531
   66SOL    HW1  197   0.894   1.051   1.726 -0.6469  2.9607 -2.5476
   66SOL    HW2  198   0.818   1.191   1.785 -1.2911  1.0778 -0.5037
   67SOL     OW  199   2.222   3.028   2.465 -0.5559 -0.4311  0.2133
   67SOL    HW1  200   2.151   2.982   2.405  1.1646 -0.8295 -1.4575
   67SOL    HW2  201   2.262   3.110   2.419  2.2124  1.0638  1.3674
   68SOL     OW  202   0.732   1.526   1.062  0.2939  0.0123  0.5724
   68SOL    HW1  203   0.818   1.559   1.102 -1.1365 -0.7120 -1.7126
   68SOL    HW2  204   0.752   1.491   0.964 -0.9006 -1.0587 -0.4337
   69SOL     OW  205   1.484   2.318   0.288 -0.5758 -0.2945  0.2152
   69SOL    HW1  206   1.443   2.411   0.296  0.1219 -0.8094  0.1513
   69SOL    HW2  207   1.577   2.332   0.318  0.8221 -3.6313  0.3124
   70SOL     OW  208   3.050   1.065   2.472  0.0200 -0.2015 -0.4893
   70SOL    HW1  209   3.006   1.113   2.550  0.1388 -1.5673 -0.8443
   70SOL    HW2  210   2.999   0.982   2.446  0.3712 -1.1357  2.0060
   71SOL     OW  211   3.010   1.885   2.740  0.4866  0.0526  0.2221
   71SOL    HW1  212   2.981   1.790   2.726 -0.7000  3.0638  1.9562
   71SOL    HW2  213   3.096   1.890   2.792 -0.8563 -0.3102  2.8570
   72SOL     OW  214   2.922   2.328   0.470 -0.0115 -0.3130 -0.0180
   72SOL    HW1  215   2.913   2.269   0.550 -0.0444  1.3387 -0.6501
   72SOL    HW2  216   2.907   2.276   0.383  1.9070  0.0238  3.8774
   73SOL     OW  217   0.604   1.704   0.480  0.0597  0.1843  0.4073
   73SOL    HW1  218   0.525   1.751   0.437 -0.6773 -1.5155 -1.0607
   73SOL    HW2  219   0.694   1.729   0.431  0.8822  2.6809 -3.4730
   74SOL     OW  220   0.014   1.619   2.556  0.2016  0.3088 -0.0417
   74SOL    HW1  221   0.091   1.671   2.594 -2.9454  1.0033 -0.3740
   74SOL    HW2  222   0.034   1.520   2.534  0.1816 -0.2614  0.5270
   75SOL     OW  223   1.782   1.528   1.632  0.1763 -0.2332  0.2589
   75SOL    HW1  224   1.807   1.601   1.560  1.1440  1.6259  1.2611
   75SOL    HW2  225   1.688   1.491   1.626  0.0171  0.3012 -1.2996
   76SOL     OW  226   1.801   2.529   1.462 -0.2705 -0.4214 -0.3714
   76SOL    HW1  227   1.871   2.593   1.418 -0.4911  1.1385  1.6549
   76SOL    HW2  228   1.735   2.488   1.397  1.6957 -1.5946  2.8235
   77SOL     OW  229   2.656   1.022   1.188 -1.0945  0.3724 -0.2645
   77SOL    HW1  230   2.752   1.000   1.215  2.6373 -1.2234  0.6457
   77SOL    HW2  231   2.594   0.944   1.203 -2.0080  0.9384  0.8327
   78SOL     OW  232   1.386   0.874   0.599 -0.0710  0.0036 -0.2933
   78SOL    HW1  233   1.448   0.924   0.540 -2.2216 -0.6275  1.2545
   78SOL    HW2  234   1.439   0.808   0.653 -0.5022  2.3858  0.1766
   79SOL     OW  235   0.097   1.598   1.738 -0.1940  0.3549 -0.2074
   79SOL    HW1  236   0.158   1.596   1.655 -3.2266 -0.8652  0.0931
   79SOL    HW2  237   0.006   1.635   1.715  1.8376  0.2443  0.0560
   80SOL     OW  238   1.501   0.761   1.288  0.1336 -0.0119 -0.0394
   80SOL    HW1  239   1.452   0.667   1.287  0.5333 -2.0566  1.1151
   80SOL    HW2  240   1.443   0.838   1.256  2.7315  1.0236  0.8468
   81SOL     OW  241   0.767   0.137   0.842 -0.8162  0.0344  0.1121
   81SOL    HW1  242   0.754   0.075   0.764 -1.9296  0.4015  1.9838
   81SOL    HW2  243   0.694   0.135   0.912  0.1688 -1.9298 -2.1018
   82SOL     OW  244   1.379   2.792   1.587  0.0578 -0.1084  0.0773
   82SOL    HW1  245   1.324   2.788   1.499  1.1357 -1.3188 -0.0713
   82SOL    HW2  246   1.474   2.750   1.573  2.1998  0.4086 -2.8414
   83SOL     OW  247   0.962   2.128   1.017  0.4074 -0.3025  0.1356
   83SOL    HW1  248   0.870   2.089   1.038  1.5888 -2.8534 -1.9226
   83SOL    HW2  249   1.018   2.126   1.100 -1.1706  2.0701 -2.0765
   84SOL     OW  250   0.351   1.373   2.518 -0.1898 -0.0646 -0.2442
   84SOL    HW1  251   0.253   1.399   2.504 -2.1911  2.9040 -0.4416
   84SOL    HW2  252   0.401   1.383   2.432 -2.0037 -1.5257 -0.1121
   85SOL     OW  253   0.203   2.256   1.434 -0.1286 -0.1193  0.0591
   85SOL    HW1  254   0.146   2.299   1.362  0.6840 -3.1895  1.8852
   85SOL    HW2  255   0.202   2.312   1.521  1.5872 -0.5386 -0.2715
   86SOL     OW  256   2.454   2.183   1.226  0.5516 -0.3550  0.7017
   86SOL    HW1  257   2.483   2.117   1.299  0.7390 -0.2248 -0.6043
   86SOL    HW2  258   2.450   2.281   1.255 -0.3723 -0.0875  0.5801
   87SOL     OW  259   2.840   2.238   0.214  0.3848 -0.2983  0.1607
   87SOL    HW1  260   2.748   2.206   0.237  4.1442  0.6895 -0.4722
   87SOL    HW2  261   2.879   2.177   0.142 -0.9461 -1.4532  1.9652
   88SOL     OW  262   0.477   1.429   1.010 -0.0666  0.0614  0.6159
   88SOL    HW1  263   0.417   1.494   1.061  2.3852  1.2356  0.8072
   88SOL    HW2  264   0.574   1.455   1.022 -0.5189  3.2531  1.5202
   89SOL     OW  265   1.229   2.966   2.003  0.5025 -0.1503  0.2958
   89SOL    HW1  266   1.219   2.894   1.937  2.6665  3.8699  2.6991
   89SOL    HW2  267   1.167   3.045   1.981 -2.6064  1.1705 -1.4475
   90SOL     OW  268   0.058   1.855   1.374 -0.0935  0.3385  0.2907
   90SOL    HW1  269   3.082   1.867   1.424  1.6339  0.8420  1.0231
   90SOL    HW2  270   0.046   1.768   1.321 -2.0980  2.1516  0.3356
   91SOL     OW  271   1.478   1.965   1.159 -0.1382 -0.0754 -0.0440
   91SOL    HW1  272   1.382   1.956   1.131 -0.5105  0.2338 -1.3040
   91SOL    HW2  273   1.500   1.893   1.231  0.7490 -0.3591 -0.9855
   92SOL     OW  274   2.485   2.414   1.367  0.1657 -0.0361 -0.0751
   92SOL    HW1  275   2.476   2.470   1.457  1.4626  0.9973  0.5511
   92SOL    HW2  276   2.580   2.412   1.337 -2.1796 -1.7718  2.6877
   93SOL     OW  277   2.656   1.641   2.607  0.2529 -0.0754 -0.0381
   93SOL    HW1  278   2.632   1.564   2.550  0.7221  0.0444  0.1924
   93SOL    HW2  279   2.755   1.641   2.628  0.6376 -0.5781 -1.9359
   94SOL     OW  280   2.796   2.885   2.046  0.0364 -0.1027 -0.1354
   94SOL    HW1  281   2.706   2.870   2.094 -0.3926 -1.0953 -0.5075
   94SOL    HW2  282   2.793   2.836   1.957 -0.0266  0.8139 -1.3771
   95SOL     OW  283   1.604   0.189   1.738  0.1672  0.1955 -0.2268
   95SOL    HW1  284   1.651   0.250   1.809  0.7590  0.6223  1.4751
   95SOL    HW2  285   1.552   0.113   1.783  1.5687 -0.8948 -3.1165
   96SOL     OW  286   3.105   2.901   1.531 -0.2091  0.1784  0.0096
   96SOL    HW1  287   3.013   2.928   1.528  1.2760 -1.0852 -1.9061
   96SOL    HW2  288   0.015   2.815   1.479  0.2845 -1.3776  3.5569
   97SOL     OW  289   2.236   0.230   1.510  0.3604  0.3051  0.2444
   97SOL    HW1  290   2.155   0.262   1.560 -2.1970  0.5807 -1.7160
   97SOL    HW2  291   2.316   0.271   1.553 -0.9889 -1.1424 -0.0039
   98SOL     OW  292   1.287   2.385   1.541  0.0539  0.3618  0.5096
   98SOL    HW1  293   1.207   2.445   1.530 -2.9508 -1.4336 -0.6046
   98SOL    HW2  294   1.254   2.286   1.551 -4.0085 -2.8978  1.1473
   99SOL     OW  295   0.193   0.052   1.872 -0.6494 -0.5313  0.2490
   99SOL    HW1  296   0.226   3.079   1.824 -0.0771 -0.4047  0.8399
   99SOL    HW2  297   0.158   0.034   1.965  0.7432 -0.3850 -0.7578
  100SOL     OW  298   3.015   1.153   2.193 -0.1564  0.3785  0.0770
  100SOL    HW1  299   3.023   1.253   2.176 -0.1159 -2.7769 -0.6624
  100SOL    HW2  300   3.046   1.131   2.287  2.3220 -1.3221 -1.6225
  101SOL     OW  301   1.713   0.421   0.442 -0.6345 -0.1541 -0.7825
  101SOL    HW1  302   1.619   0.445   0.422 -1.1780 -0.4625 -0.2345
  101SOL    HW2  303   1.766   0.501   0.466  0.4958 -0.2931  1.7781
  102SOL     OW  304   3.051   0.675   1.412  0.2302 -0.2067 -0.0403
  102SOL    HW1  305   3.006   0.607   1.349  1.5103  1.2323 -0.9492
  102SOL    HW2  306   0.022   0.722   1.374  1.4883  0.5635 -4.0425
  103SOL     OW  307   2.288   0.699   2.851  0.0256  0.3336  0.0864
  103SOL    HW1  308   2.302   0.659   2.940  0.5415 -1.6849 -1.1869
  103SOL    HW2  309   2.203   0.752   2.848 -0.7388 -2.0900 -0.5203
  104SOL     OW  310   3.043   0.213   2.211  0.3195  0.0895 -0.0876
  104SOL    HW1  311   2.993   0.282   2.155 -2.7609 -0.6377  0.4538
  104SOL    HW2  312   3.060   0.243   2.303  0.0072 -1.3226 -1.0856
  105SOL     OW  313   2.147   1.080   1.646  0.9747  0.4789  0.0702
  105SOL    HW1  314   2.144   0.985   1.617 -0.5069  0.0103  3.7553
  105SOL    HW2  315   2.162   1.139   1.566  0.6369 -1.7262  1.6171
  106SOL     OW  316   1.381   3.080   0.722  0.1057  0.0032 -0.5242
  106SOL    HW1  317   1.323   0.054   0.736 -1.0794 -1.1817 -1.0290
  106SOL    HW2  318   1.346   3.008   0.787 -2.1235 -0.8351 -0.1872
  107SOL     OW  319   0.143   1.122   0.778 -0.1603 -0.3734 -0.2020
  107SOL    HW1  320   0.132   1.132   0.678 -1.3812  0.7875 -0.6004
  107SOL    HW2  321   0.055   1.117   0.825  2.8215 -0.1161  0.5794
  108SOL     OW  322   3.056   0.245   2.503 -0.5186  0.0558  0.1317
  108SOL    HW1  323   3.002   0.162   2.477  0.3566  1.4577  1.2109
  108SOL    HW2  324   0.027   0.224   2.566 -0.0468  0.4677  3.0735
  109SOL     OW  325   2.642   0.190   0.366  0.6195 -0.4865  0.3127
  109SOL    HW1  326   2.573   0.263   0.347  0.0055  1.1716 -0.6037
  109SOL    HW2  327   2.723   0.213   0.308  2.2795  0.4561 -1.8364
  110SOL     OW  328   0.343   2.419   2.710 -0.2003 -0.2399  0.0944
  110SOL    HW1  329   0.268   2.373   2.654 -0.1953  0.6985  0.2972
  110SOL    HW2  330   0.401   2.490   2.664  2.2597  1.7692  0.1684
  111SOL     OW  331   1.656   2.995   2.043 -0.6088 -0.2803 -0.0207
  111SOL    HW1  332   1.646   3.015   1.941  0.6433  1.5946  1.6795
  111SOL    HW2  333   1.698   3.077   2.088  0.5219 -2.0133  0.5672
  112SOL     OW  334   2.133   2.509   3.041  0.4022 -0.2491  0.4304
  112SOL    HW1  335   2.047   2.455   3.067 -0.3771 -0.5479  1.0530
  112SOL    HW2  336   2.136   2.593   3.098  0.7175 -0.2494 -0.1709
  113SOL     OW  337   2.621   1.938   1.770 -0.2273  0.5196  0.0660
  113SOL    HW1  338   2.606   1.963   1.864  1.2803 -1.5195  0.1242
  113SOL    HW2  339   2.583   2.006   1.704  1.2537  0.2238  1.2983
  114SOL     OW  340   2.536   0.766   1.084 -0.3915  0.4913 -0.0374
  114SOL    HW1  341   2.444   0.723   1.085 -5.2604 -0.3579  0.7707
  114SOL    HW2  342   2.549   0.803   0.990 -0.0197 -0.9963  1.6132
  115SOL     OW  343   0.131   1.771   2.866 -0.4804 -0.0485  0.3508
  115SOL    HW1  344   0.222   1.737   2.844 -0.4850  0.1733  0.2861
  115SOL    HW2  345   0.138   1.870   2.871  2.5017 -1.7614  0.1378
  116SOL     OW  346   0.147   1.504   1.991 -0.4294 -0.2664  0.1552
  116SOL    HW1  347   0.247   1.495   2.004 -2.0565 -0.8986  3.0671
  116SOL    HW2  348   0.122   1.558   1.905 -3.0914  1.0994 -2.4798
  117SOL     OW  349   2.499   3.077   0.805  0.0091 -0.4570  0.5239
  117SOL    HW1  350   2.409   3.030   0.797  3.1725  1.0573 -2.1268
  117SOL    HW2  351   2.513   0.026   0.722  1.0773  0.1190 -1.8449
  118SOL     OW  352   0.531   2.150   1.609  0.3111  0.2512 -0.8383
  118SOL    HW1  353   0.552   2.164   1.513 -1.1502 -0.4284  0.7452
  118SOL    HW2  354   0.574   2.064   1.639 -0.3181 -0.9368  1.5819
  119SOL     OW  355   1.657   2.023   0.581 -0.1083 -0.1898  0.0938
  119SOL    HW1  356   1.747   2.065   0.593  1.2534  1.2108  0.4237
  119SOL    HW2  357   1.665   1.936   0.533 -1.2004 -1.0494  0.4670
  120SOL     OW  358   0.242   1.780   2.590  0.0379  0.1277 -0.6917
  120SOL    HW1  359   0.283   1.849   2.652 -0.0431  2.2709  1.5562
  120SOL    HW2  360   0.300   1.765   2.508 -0.0901  2.9781 -0.5668
  121SOL     OW  361   2.139   2.237   1.374  0.0608  0.0699  0.6070
  121SOL    HW1  362   2.173   2.144   1.350  1.1279  0.0950  0.9903
  121SOL    HW2  363   2.089   2.272   1.297  3.0648 -1.1872  0.5892
  122SOL     OW  364   2.153   1.877   2.159  0.1804  0.5529  0.0973
  122SOL    HW1  365   2.163   1.871   2.262  1.8383 -1.4521 -1.0865
  122SOL    HW2  366   2.186   1.790   2.113 -2.4317 -0.2944 -1.2555
  123SOL     OW  367   0.065   2.883   0.821  0.5664  0.9118 -0.1195
  123SOL    HW1  368   0.081   2.967   0.768 -1.6931  0.5102 -0.1187
  123SOL    HW2  369   0.083   2.796   0.767 -2.0610 -0.9777  0.7653
  124SOL     OW  370   1.579   0.815   2.339 -0.0820 -0.1439 -0.0822
  124SOL    HW1  371   1.529   0.825   2.249 -0.7742  0.5764  1.5322
  124SOL    HW2  372   1.680   0.825   2.320 -0.7634 -1.9831 -0.6197
  125SOL     OW  373   0.340   1.404   0.093 -0.4911  0.1975  0.2519
  125SOL    HW1  374   0.310   1.406   3.106 -0.5296 -0.2824  0.5850
  125SOL    HW2  375   0.411   1.326   0.118  3.9262 -1.5168  1.5747
  126SOL     OW  376   2.649   1.966   0.487  0.1309 -0.0757  0.0190
  126SOL    HW1  377   2.636   2.029   0.406 -1.4692  3.2943 -1.3654
  126SOL    HW2  378   2.676   2.024   0.568  2.1702 -1.1587 -0.8378
  127SOL     OW  379   0.340   1.597   1.158 -0.8381  0.0827 -0.2445
  127SOL    HW1  380   0.255   1.623   1.105  0.5309  3.0643  2.1039
  127SOL    HW2  381   0.376   1.679   1.202  1.5537  0.0921  1.9609
  128SOL     OW  382   0.655   0.745   0.019  0.1434  0.6394  0.1920
  128SOL    HW1  383   0.684   0.667   3.073 -1.3148  2.6745  4.0154
  128SOL    HW2  384   0.729   0.809   0.028 -3.7588 -3.0881  0.4296
  129SOL     OW  385   2.386   1.435   0.655 -0.1349  0.9147  0.1175
  129SOL    HW1  386   2.296   1.471   0.676 -0.1771  2.3088 -1.8264
  129SOL    HW2  387   2.414   1.362   0.722 -0.1469  1.4088  0.0961
  130SOL     OW  388   2.285   1.767   1.165 -0.0275 -0.5910  0.0703
  130SOL    HW1  389   2.336   1.792   1.077 -0.9892  0.4662  0.9016
  130SOL    HW2  390   2.191   1.731   1.136 -0.3527 -0.2157 -0.4818
  131SOL     OW  391   2.797   1.174   2.968  0.1723 -0.4291  0.0182
  131SOL    HW1  392   2.783   1.087   3.021  0.3014 -2.7348  0.0880
  131SOL    HW2  393   2.889   1.189   2.922  0.0846  1.0615 -0.5104
  132SOL     OW  394   2.956   1.682   1.706  0.1578 -0.0930  0.0302
  132SOL    HW1  395   2.935   1.760   1.775 -1.5574  2.7344  2.5345
  132SOL    HW2  396   2.893   1.603   1.723  1.3617  0.3787 -0.2206
  133SOL     OW  397   2.987   0.715   0.520  0.5209 -0.0137 -0.4066
  133SOL    HW1  398   3.064   0.662   0.484 -1.0881  0.5996 -2.1388
  133SOL    HW2  399   2.923   0.649   0.568 -1.3469 -0.3578  0.8594
  134SOL     OW  400   0.231   1.049   0.163 -0.7181 -0.4018  0.1550
  134SOL    HW1  401   0.168   0.974   0.194 -0.2955  0.1076  1.3910
  134SOL    HW2  402   0.228   1.060   0.061  1.5090  0.9349  0.5621
  135SOL     OW  403   2.138   1.573   0.740 -0.1056  0.2907  0.1455
  135SOL    HW1  404   2.130   1.483   0.779  2.5645 -0.1140 -2.4404
  135SOL    HW2  405   2.087   1.587   0.653  2.7562  1.0165  2.2213
  136SOL     OW  406   2.070   1.419   1.124 -0.1755  0.1463 -0.3818
  136SOL    HW1  407   2.117   1.416   1.213  0.2967 -1.9152 -1.8065
  136SOL    HW2  408   2.069   1.518   1.099  0.0151 -0.8249  1.2730
  137SOL     OW  409   2.629   1.569   0.750 -0.5045 -0.6663 -0.1944
  137SOL    HW1  410   2.555   1.552   0.687  3.5960 -0.5978  1.6091
  137SOL    HW2  411   2.622   1.662   0.779 -0.7686  0.2999 -0.4030
  138SOL     OW  412   1.396   0.502   1.925 -0.0785  0.2994 -0.1463
  138SOL    HW1  413   1.491   0.529   1.940 -0.7256 -1.6842 -2.4551
  138SOL    HW2  414   1.357   0.567   1.862 -1.4182  0.6534  1.9047
  139SOL     OW  415   1.962   0.138   3.065  0.1999 -0.3121  0.7060
  139SOL    HW1  416   2.017   0.220   3.024  0.2892  0.3601 -1.0347
  139SOL    HW2  417   1.964   0.150   0.053  2.0261 -0.1508 -0.3388
  140SOL     OW  418   1.474   2.077   2.442  0.2779  0.1732  0.1115
  140SOL    HW1  419   1.445   1.986   2.401  0.3229 -2.6946  0.4618
  140SOL    HW2  420   1.499   2.148   2.372 -1.9744  0.8360  0.9796
  141SOL     OW  421   1.283   1.283   1.631 -0.3864 -0.1845 -0.4318
  141SOL    HW1  422   1.275   1.241   1.541  3.7714  0.0482  0.1486
  141SOL    HW2  423   1.194   1.332   1.656 -1.2473 -1.0768  0.0810
  142SOL     OW  424   2.612   0.091   3.051 -0.0802 -0.1327  0.0835
  142SOL    HW1  425   2.579   0.015   3.107  1.6496  2.4938 -2.6501
  142SOL    HW2  426   2.712   0.110   3.072  2.0164  1.8593  2.7377
  143SOL     OW  427   0.786   2.464   2.821  0.0302 -0.0343 -0.1728
  143SOL    HW1  428   0.717   2.476   2.898 -0.8245  1.4586 -1.6581
  143SOL    HW2  429   0.880   2.488   2.859  0.7639  2.8282 -0.0870
  144SOL     OW  430   1.172   2.771   2.191 -0.4251 -0.4473 -0.2993
  144SOL    HW1  431   1.167   2.817   2.284  2.4520  0.2273  0.8364
  144SOL    HW2  432   1.203   2.833   2.113  1.4065  1.2818 -2.4443
  145SOL     OW  433   2.587   1.513   0.351 -0.3382 -0.4522 -0.7189
  145SOL    HW1  434   2.566   1.413   0.342 -2.5326 -0.1267 -1.3658
  145SOL    HW2  435   2.680   1.532   0.385  1.8148 -0.8206  0.0484
  146SOL     OW  436   2.605   2.914   2.748  0.3106 -0.4693 -0.8675
  146SOL    HW1  437   2.588   3.009   2.775  0.9096  0.4347 -1.2058
  146SOL    HW2  438   2.610   2.848   2.826  4.5580  1.0839 -0.0777
  147SOL     OW  439   2.680   2.375   0.941  0.3970  0.1809 -0.0363
  147SOL    HW1  440   2.755   2.434   0.971 -0.0893  2.3250 -1.1996
  147SOL    HW2  441   2.591   2.420   0.958  2.6508 -1.9838 -1.1446
  148SOL     OW  442   1.673   0.093   0.005  0.0273  0.1344  0.1060
  148SOL    HW1  443   1.649   0.088   0.104  0.1975  1.8812  0.8405
  148SOL    HW2  444   1.773   0.111   3.109  1.5845  0.5410  0.0346
  149SOL     OW  445   0.908   1.302   2.791 -0.0664 -0.0144  0.4534
  149SOL    HW1  446   0.968   1.259   2.860 -1.1817  3.3329 -0.2211
  149SOL    HW2  447   0.954   1.327   2.708 -2.4837 -0.0112  1.0462
  150SOL     OW  448   0.980   2.609   0.644 -0.8222 -0.2840 -0.4981
  150SOL    HW1  449   0.926   2.646   0.564  0.0429  1.5366 -2.0248
  150SOL    HW2  450   1.045   2.536   0.618 -1.4723  0.2002  1.8552
  151SOL     OW  451   0.341   2.067   3.057  0.0969  0.4744 -0.5632
  151SOL    HW1  452   0.335   1.965   3.081 -1.6812 -1.5551  1.6645
  151SOL    HW2  453   0.439   2.081   3.025 -2.5451 -0.0983  2.2873
  152SOL     OW  454   3.005   0.981   0.568 -0.1767 -0.0614 -0.0944
  152SOL    HW1  455   3.020   0.980   0.668  0.0078  1.5762 -1.9706
  152SOL    HW2  456   2.994   0.881   0.542  1.5774  0.9232  2.6322
  153SOL     OW  457   2.564   2.386   0.068  0.1217 -0.4154 -0.1592
  153SOL    HW1  458   2.592   2.454   0.141  3.6008  0.6270 -1.1014
  153SOL    HW2  459   2.645   2.377   0.008  1.3263  1.6346  0.0884
  154SOL     OW  460   0.552   0.133   1.008 -0.2539  0.6282 -0.2643
  154SOL    HW1  461   0.556   0.032   0.991 -0.8880 -1.6760 -2.9579
  154SOL    HW2  462   0.512   0.161   1.100 -0.3311 -0.3571 -0.0860
  155SOL     OW  463   0.333   1.932   1.135 -0.0486  0.1879 -0.3592
  155SOL    HW1  464   0.335   1.893   1.044 -1.0565  0.6830 -1.0350
  155SOL    HW2  465   0.241   1.972   1.154  1.7413  4.3419  0.2606
  156SOL     OW  466   2.380   2.197   3.097 -0.2679  0.4752 -0.4290
  156SOL    HW1  467   2.376   2.101   0.012  1.4817  0.7515  0.4596
  156SOL    HW2  468   2.445   2.249   0.044 -0.5355  2.9767  0.3856
  157SOL     OW  469   0.828   2.615   1.047  0.0034 -0.2208 -0.4567
  157SOL    HW1  470   0.791   2.524   1.066  2.7721 -0.4135 -0.1793
  157SOL    HW2  471   0.832   2.670   1.138  0.7453 -0.9153  7.2008
  158SOL     OW  472   1.803   0.729   2.823 -0.1156  0.4363 -0.1201
  158SOL    HW1  473   1.712   0.705   2.862 -0.5398 -1.2098 -1.8487
  158SOL    HW2  474   1.799   0.739   2.720 -1.8634  0.8419  0.1478
  159SOL     OW  475   0.858   0.365   2.363  0.6205 -0.3403 -0.5162
  159SOL    HW1  476   0.883   0.373   2.461 -1.6468  2.8976  0.2307
  159SOL    HW2  477   0.937   0.356   2.302 -2.6328 -2.4296 -0.1692
  160SOL     OW  478   1.014   1.842   0.587 -0.4329  0.5154  0.3088
  160SOL    HW1  479   1.055   1.901   0.661  3.2690  1.7286 -1.1634
  160SOL    HW2  480   1.017   1.739   0.611 -0.2765 -0.5885  0.5537
  161SOL     OW  481   3.091   2.017   0.104  0.0987 -0.6451  0.1955
  161SOL    HW1  482   3.056   1.933   0.152  1.6297  2.0641 -0.3211
  161SOL    HW2  483   0.018   2.077   0.174 -1.8586  1.2981 -1.3636
  162SOL     OW  484   0.649   2.652   0.812 -0.0579  0.1561  0.0110
  162SOL    HW1  485   0.704   2.735   0.796  1.1438  0.8411 -0.2757
  162SOL    HW2  486   0.645   2.639   0.909  1.3421  2.6447 -2.2833
  163SOL     OW  487   2.317   0.863   0.123  0.0409  0.1786 -0.2781
  163SOL    HW1  488   2.378   0.896   0.047  1.9141 -0.3467  0.1123
  163SOL    HW2  489   2.302   0.765   0.113 -0.4198 -0.5168  2.1133
  164SOL     OW  490   0.088   2.851   0.225 -0.1624 -0.3034 -0.7759
  164SOL    HW1  491   0.092   2.756   0.264  0.7245  3.5080  0.8577
  164SOL    HW2  492   0.093   2.845   0.122 -2.5534  2.3382  1.8958
  165SOL     OW  493   2.389   0.506   1.375 -0.4749  0.2993  0.1269
  165SOL    HW1  494   2.403   0.426   1.437 -0.8766 -0.1622 -1.4027
  165SOL    HW2  495   2.345   0.579   1.428 -1.0955 -1.1401 -0.1406
  166SOL     OW  496   2.074   0.430   0.880  0.4332  0.1816  0.1139
  166SOL    HW1  497   2.142   0.483   0.833 -1.4412 -1.9646  0.3277
  166SOL    HW2  498   2.105   0.336   0.891  0.9328 -2.3731 -1.9475
  167SOL     OW  499   0.376   0.833   1.568  0.2201 -0.5221 -0.5340
  167SOL    HW1  500   0.360   0.832   1.672  1.7881 -1.6745  2.1528
  167SOL    HW2  501   0.385   0.929   1.532  0.9138  0.9023  0.3959
  168SOL     OW  502   2.787   0.045   2.081  0.3293  0.6602 -0.1995
  168SOL    HW1  503   2.746   0.073   2.167  1.8659 -2.0711 -4.1783
  168SOL    HW2  504   2.787   3.058   2.069 -0.6578 -0.9124  3.1846
  169SOL     OW  505   3.077   1.333   0.536  0.7454 -0.6167  0.3032
  169SOL    HW1  506   0.028   1.258   0.505 -0.6009  0.6467  0.2480
  169SOL    HW2  507   0.018   1.410   0.575 -2.7228 -1.4741  1.4677
  170SOL     OW  508   2.964   0.702   1.685 -0.1202  0.7070  0.2682
  170SOL    HW1  509   3.025   0.706   1.605 -2.1586  1.6427 -1.1908
  170SOL    HW2  510   2.928   0.607   1.698 -0.1391 -1.9853  1.7339
  171SOL     OW  511   1.269   2.136   1.674 -0.0824  0.6102 -0.3716
  171SOL    HW1  512   1.354   2.092   1.707 -3.9204  0.7173  1.1335
  171SOL    HW2  513   1.198   2.134   1.750 -0.3803 -1.3442  1.8190
  172SOL     OW  514   0.694   2.372   1.109 -0.4500 -0.3758  0.3469
  172SOL    HW1  515   0.684   2.315   1.190  0.9754  2.6284  0.1891
  172SOL    HW2  516   0.658   2.327   1.025 -0.4428  0.5760 -0.0572
  173SOL     OW  517   1.138   0.203   0.232 -0.3786  0.0863  0.0796
  173SOL    HW1  518   1.057   0.138   0.241 -0.0575 -3.7949  0.1072
  173SOL    HW2  519   1.172   0.204   0.134 -0.1777 -1.1089 -0.1656
  174SOL     OW  520   0.729   2.936   2.750  0.3396 -0.0692 -0.2835
  174SOL    HW1  521   0.712   2.926   2.848  1.9440  0.2410 -2.0952
  174SOL    HW2  522   0.815   2.988   2.735 -0.5231 -1.8448 -1.7362
  175SOL     OW  523   1.078   0.648   0.002 -0.4114  0.2878 -0.3574
  175SOL    HW1  524   1.163   0.599   3.092 -0.3612  0.9459  1.4582
  175SOL    HW2  525   1.060   0.739   3.070 -1.4439 -0.0245  2.3998
  176SOL     OW  526   1.448   0.499   0.424 -0.3896 -0.3030 -0.2421
  176SOL    HW1  527   1.404   0.523   0.336  1.7582  0.4851  1.3793
  176SOL    HW2  528   1.397   0.438   0.486 -1.3054  3.0397  1.8394
  177SOL     OW  529   1.393   0.804   0.900  1.0227  0.9807 -0.2256
  177SOL    HW1  530   1.365   0.705   0.870  3.6469 -3.8815 -0.6669
  177SOL    HW2  531   1.353   0.866   0.832  0.7337 -2.6721  1.2708
  178SOL     OW  532   2.415   1.766   2.544  0.0681 -0.2562 -0.6498
  178SOL    HW1  533   2.503   1.709   2.540  2.5734 -0.6220 -1.5462
  178SOL    HW2  534   2.404   1.813   2.631 -0.0369 -0.1568 -3.2123
  179SOL     OW  535   0.546   2.931   2.530  0.1059  0.4371 -0.2352
  179SOL    HW1  536   0.608   2.916   2.612 -0.0441 -0.0060 -0.1186
  179SOL    HW2  537   0.521   3.034   2.527 -1.7002  2.7686  0.9257
  180SOL     OW  538   1.863   1.738   1.434 -0.0175 -0.2482 -0.1490
  180SOL    HW1  539   1.804   1.676   1.380  0.5771  0.6493  3.3292
  180SOL    HW2  540   1.826   1.834   1.417 -0.8450  0.1887  2.6740
  181SOL     OW  541   1.520   1.389   2.296 -0.2601  0.4119 -0.8713
  181SOL    HW1  542   1.513   1.395   2.400  1.9049 -2.9214  1.0519
  181SOL    HW2  543   1.526   1.289   2.262 -1.3478 -0.6815 -3.2335
  182SOL     OW  544   2.947   0.718   2.598 -0.2608 -0.7335  0.2147
  182SOL    HW1  545   2.881   0.693   2.673  1.4950 -0.9330  1.3019
  182SOL    HW2  546   2.971   0.627   2.553 -1.8328 -5.2666  0.1193
  183SOL     OW  547   1.556   0.166   2.697 -0.0880 -0.4511  0.3390
  183SOL    HW1  548   1.584   0.136   2.603 -2.2076  0.4138 -1.3015
  183SOL    HW2  549   1.630   0.206   2.749 -1.8702  1.3030  0.4782
  184SOL     OW  550   0.828   0.273   1.509 -0.3932  0.6856 -0.3791
  184SOL    HW1  551   0.740   0.235   1.540  0.2259 -1.1610 -1.4216
  184SOL    HW2  552   0.891   0.278   1.586 -0.8033 -2.5616  0.1904
  185SOL     OW  553   2.764   1.164   0.866 -0.0861 -0.6099  0.5023
  185SOL    HW1  554   2.773   1.229   0.784 -0.0005  3.3297 -0.0019
  185SOL    HW2  555   2.775   1.210   0.956 -0.2091  1.7559  2.8051
  186SOL     OW  556   0.520   1.921   2.858  0.4801 -0.1359 -0.4575
  186SOL    HW1  557   0.583   1.995   2.894  1.1740  0.7141  2.2673
  186SOL    HW2  558   0.459   1.960   2.788  1.4507 -1.6256  3.7522
  187SOL     OW  559   2.593   1.256   0.305  0.4802 -0.3119 -0.3887
  187SOL    HW1  560   2.693   1.241   0.334 -0.8307 -0.3903  0.0733
  187SOL    HW2  561   2.574   1.204   0.218  0.7931  3.6462 -0.7018
  188SOL     OW  562   0.174   2.099   0.663 -0.3897  0.2446 -0.1574
  188SOL    HW1  563   0.228   2.018   0.637  0.6830 -0.6759 -0.5123
  188SOL    HW2  564   0.202   2.176   0.601 -0.7308  2.5537  1.6686
  189SOL     OW  565   2.617   0.920   0.358 -0.1773 -0.4089  0.0528
  189SOL    HW1  566   2.584   0.974   0.276  0.8260 -1.0029 -1.3945
  189SOL    HW2  567   2.590   0.966   0.448  0.7627  0.4808 -2.2342
  190SOL     OW  568   1.350   1.550   2.119 -0.2526  0.0197  0.2155
  190SOL    HW1  569   1.404   1.502   2.191  0.3136  1.6268  2.2339
  190SOL    HW2  570   1.294   1.626   2.158 -0.9001  0.6440  1.3311
  191SOL     OW  571   2.427   0.394   1.649 -0.1654  0.2364  0.0989
  191SOL    HW1  572   2.515   0.342   1.650 -1.2584  0.3425 -0.2543
  191SOL    HW2  573   2.407   0.437   1.734  1.7243 -2.5490 -2.5451
  192SOL     OW  574   2.031   0.305   1.935  0.7057 -0.4535 -0.2165
  192SOL    HW1  575   2.081   0.215   1.939 -0.6357 -0.7883 -1.6217
  192SOL    HW2  576   2.041   0.367   2.015  0.4750  0.2507 -1.6119
  193SOL     OW  577   0.769   0.853   0.445 -0.5488  0.4107 -0.0574
  193SOL    HW1  578   0.772   0.765   0.494  1.5670  1.2838  0.5461
  193SOL    HW2  579   0.674   0.891   0.448  1.2816  0.3663 -1.3680
  194SOL     OW  580   1.037   2.836   1.463  0.0997 -0.4709 -0.2210
  194SOL    HW1  581   1.120   2.892   1.439 -2.0609  0.5305 -2.0124
  194SOL    HW2  582   1.007   2.854   1.560 -0.4227 -1.2595 -1.2062
  195SOL     OW  583   2.223   0.683   1.032  0.1070  0.3063  0.9721
  195SOL    HW1  584   2.250   0.751   0.958  0.7107 -0.1984  0.0063
  195SOL    HW2  585   2.176   0.736   1.103  2.4347  0.1836 -0.1171
  196SOL     OW  586   1.801   2.322   1.957 -0.4163 -0.6530 -0.0815
  196SOL    HW1  587   1.704   2.308   1.928  0.5820  0.3503 -1.1992
  196SOL    HW2  588   1.833   2.281   2.045 -1.4640  0.6311 -2.9929
  197SOL     OW  589   0.200   0.146   0.016  0.6271 -0.4112 -0.2050
  197SOL    HW1  590   0.257   0.089   0.077 -0.8327 -2.2086 -2.2346
  197SOL    HW2  591   0.166   0.097   3.042  0.5159 -1.5851 -2.0960
  198SOL     OW  592   1.312   1.274   0.719 -0.2482 -0.4039  0.3363
  198SOL    HW1  593   1.266   1.364   0.729  1.1819 -2.1593 -2.6463
  198SOL    HW2  594   1.296   1.215   0.800  2.3905 -0.8148 -0.9268
  199SOL     OW  595   2.735   1.129   2.181 -0.2741 -0.6592 -0.2997
  199SOL    HW1  596   2.700   1.044   2.225  0.4612  2.7845 -0.2213
  199SOL    HW2  597   2.831   1.140   2.213  0.5212 -0.6874  0.4859
  200SOL     OW  598   2.775   2.263   2.620  0.0893 -0.3860  0.0082
  200SOL    HW1  599   2.748   2.323   2.540  2.1690  1.3495  2.0351
  200SOL    HW2  600   2.784   2.323   2.703  0.2162 -0.5934  2.1531
  201SOL     OW  601   2.729   0.054   1.310 -0.8979  0.1709  0.2559
  201SOL    HW1  602   2.769   0.140   1.345  1.6086 -0.3208 -1.4840
  201SOL    HW2  603   2.698   0.077   1.216  2.2578 -0.9832  0.5845
  202SOL     OW  604   1.965   0.458   0.641  0.2504 -0.1804 -0.3149
  202SOL    HW1  605   1.932   0.557   0.647 -0.5066  0.1324  0.4705
  202SOL    HW2  606   2.000   0.433   0.734  1.2932  0.4116  2.0161
  203SOL     OW  607   1.699   2.083   2.195 -0.1848 -0.1177  0.2884
  203SOL    HW1  608   1.674   1.983   2.186 -0.9135 -1.5987  0.0198
  203SOL    HW2  609   1.791   2.103   2.160 -1.0216  0.3240  1.3213
  204SOL     OW  610   0.902   1.609   2.203  0.9396 -0.0421  0.1610
  204SOL    HW1  611   0.866   1.701   2.179 -0.5334  2.6035 -2.6230
  204SOL    HW2  612   0.997   1.617   2.241  0.5732  1.1982  1.0196
  205SOL     OW  613   0.915   1.702   1.647  0.7740  0.7694  0.0195
  205SOL    HW1  614   0.927   1.754   1.563  2.7384 -2.3148  0.3409
  205SOL    HW2  615   0.973   1.745   1.714 -2.8515  1.0097 -3.8709
  206SOL     OW  616   3.014   0.490   3.015  0.5587 -0.2705 -0.1773
  206SOL    HW1  617   3.053   0.416   3.077  3.1322  0.5780  1.5097
  206SOL    HW2  618   2.914   0.500   3.022 -0.6027  2.9445  1.1897
  207SOL     OW  619   1.884   2.797   2.086 -0.3956 -0.9519 -0.0342
  207SOL    HW1  620   1.800   2.856   2.082  0.9335  1.4425  1.6283
  207SOL    HW2  621   1.945   2.823   2.007 -0.3943  2.7082 -2.7568
  208SOL     OW  622   0.621   2.186   1.345 -0.3955 -0.5715  0.0186
  208SOL    HW1  623   0.613   2.091   1.309  2.1760  0.8915  0.9614
  208SOL    HW2  624   0.541   2.242   1.327  4.8701  0.1474  4.5528
  209SOL     OW  625   1.488   1.109   2.259  0.3452 -0.6213  0.2006
  209SOL    HW1  626   1.451   1.038   2.323  0.3202 -0.0437 -0.3457
  209SOL    HW2  627   1.418   1.129   2.187  0.7109  0.6079  0.4222
  210SOL     OW  628   2.016   0.873   1.178 -0.1296 -0.3358 -0.4600
  210SOL    HW1  629   2.031   0.926   1.094 -1.8328 -1.9397 -1.8917
  210SOL    HW2  630   1.916   0.861   1.193  0.0325  1.9503 -0.0649
  211SOL     OW  631   0.412   0.179   0.586  0.6602  0.4429  0.0213
  211SOL    HW1  632   0.357   0.204   0.508  1.8836  0.5449 -0.2982
  211SOL    HW2  633   0.509   0.186   0.553  0.3444 -0.7869  0.1057
  212SOL     OW  634   1.985   1.507   0.154 -0.2734  0.7350 -0.4487
  212SOL    HW1  635   1.886   1.485   0.150  0.0689  0.1808  1.6815
  212SOL    HW2  636   2.024   1.437   0.215  1.0945 -0.2492  0.8152
  213SOL     OW  637   1.683   0.416   2.475 -0.6663  0.6541  0.1386
  213SOL    HW1  638   1.757   0.419   2.546 -1.1941  2.7307  1.3235
  213SOL    HW2  639   1.597   0.462   2.514 -1.0131 -1.3362 -0.2134
  214SOL     OW  640   1.715   1.570   2.208 -0.2010  0.2583  0.8130
  214SOL    HW1  641   1.765   1.581   2.293 -0.7769 -2.0639 -2.3037
  214SOL    HW2  642   1.642   1.500   2.222 -2.0563  0.7921 -0.2920
  215SOL     OW  643   0.395   1.858   0.378 -0.3816  0.7571 -0.3527
  215SOL    HW1  644   0.356   1.781   0.325 -1.6385 -3.2933  2.5986
  215SOL    HW2  645   0.395   1.941   0.322  0.3767 -2.2712  0.5882
  216SOL     OW  646   0.408   2.931   2.139 -0.0146 -0.7967  0.0173
  216SOL    HW1  647   0.512   2.933   2.135 -0.8732 -0.3887 -0.8781
  216SOL    HW2  648   0.361   3.023   2.161  1.7888  5.8696  0.3659
  217SOL     OW  649   2.351   0.974   0.594 -0.2344  0.1327  0.2052
  217SOL    HW1  650   2.426   1.040   0.568  0.2015  0.5038 -1.7169
  217SOL    HW2  651   2.274   0.988   0.528  0.7579 -0.2814 -1.0956
  218SOL     OW  652   1.669   1.837   1.865  0.0010  0.2819  0.2807
  218SOL    HW1  653   1.750   1.897   1.842  1.8343  2.1957  1.4630
  218SOL    HW2  654   1.687   1.738   1.851  0.2827 -1.8639  1.1828
  219SOL     OW  655   1.867   1.208   2.976 -0.1760 -0.2320 -0.0083
  219SOL    HW1  656   1.903   1.235   2.884  1.6273  1.8323  2.3082
  219SOL    HW2  657   1.814   1.293   3.002  1.0486 -1.2879  1.0367
  220SOL     OW  658   1.285   1.581   1.077  0.1875 -0.5055 -0.0168
  220SOL    HW1  659   1.263   1.517   1.150 -2.2044 -0.4990 -0.7192
  220SOL    HW2  660   1.386   1.589   1.053  1.5585  1.9141  0.4747
  221SOL     OW  661   0.690   0.544   2.949  0.1086  0.2925  0.0279
  221SOL    HW1  662   0.655   0.608   2.880  0.4789  2.8086  1.8286
  221SOL    HW2  663   0.637   0.459   2.948 -0.7148  1.6852 -0.2882
  222SOL     OW  664   0.924   1.638   1.229  0.3179 -0.7381  0.1545
  222SOL    HW1  665   0.986   1.609   1.304  1.5087 -2.0611  0.0468
  222SOL    HW2  666   0.852   1.707   1.261 -2.1925 -0.2959  0.5882
  223SOL     OW  667   1.329   0.044   2.802  0.3682  0.2657 -0.1374
  223SOL    HW1  668   1.303   3.056   2.801 -0.9028 -0.4847  0.4902
  223SOL    HW2  669   1.420   0.064   2.760  4.2725 -0.4739 -0.6045
  224SOL     OW  670   2.665   0.626   1.256 -0.0395 -0.4212  0.4821
  224SOL    HW1  671   2.602   0.559   1.299 -2.0673 -0.6005  0.1462
  224SOL    HW2  672   2.616   0.666   1.176  0.0510 -2.0073 -0.5897
  225SOL     OW  673   0.928   0.457   1.321  0.2143 -0.0737  0.6784
  225SOL    HW1  674   0.875   0.541   1.291 -1.2528  1.1145  0.7194
  225SOL    HW2  675   0.865   0.398   1.380 -0.8802 -1.9635  0.9409
  226SOL     OW  676   1.659   1.855   2.885 -0.0799 -0.0529 -0.3399
  226SOL    HW1  677   1.567   1.807   2.889 -0.0426  1.6085 -1.4042
  226SOL    HW2  678   1.649   1.938   2.936 -0.7326 -5.2536  0.7152
  227SOL     OW  679   1.159   1.868   1.305 -0.0427  0.2663  0.1383
  227SOL    HW1  680   1.190   1.864   1.207  0.5757  0.7306  0.3018
  227SOL    HW2  681   1.216   1.811   1.363  0.1760  2.9026  0.1780
  228SOL     OW  682   0.383   1.527   0.758  0.5243 -0.2893  0.4050
  228SOL    HW1  683   0.462   1.585   0.734 -0.0875  0.2147 -0.6056
  228SOL    HW2  684   0.403   1.491   0.853 -0.8513 -2.7164  2.3895
  229SOL     OW  685   1.367   0.519   3.099 -0.0721 -0.5278  0.0635
  229SOL    HW1  686   1.416   0.438   0.018  1.2861  0.5206 -4.1026
  229SOL    HW2  687   1.424   0.571   3.032  0.2084  1.7459  1.1854
  230SOL     OW  688   1.225   0.555   2.317  0.2242 -0.0543 -0.2400
  230SOL    HW1  689   1.227   0.515   2.224 -2.6695 -0.1297  0.9864
  230SOL    HW2  690   1.188   0.490   2.388  0.8863 -1.9762  3.7164
  231SOL     OW  691   1.144   1.693   2.317  0.1302 -0.7066 -0.1251
  231SOL    HW1  692   1.168   1.630   2.399  2.1430  0.5006  2.4242
  231SOL    HW2  693   1.125   1.786   2.356 -1.7663  1.1190  2.6036
  232SOL     OW  694   2.399   1.878   0.952 -0.0660 -0.2510 -0.3077
  232SOL    HW1  695   2.359   1.864   0.860  0.9478 -1.2106  3.4416
  232SOL    HW2  696   2.499   1.862   0.946 -0.5311  0.3886 -1.1389
  233SOL     OW  697   2.158   2.774   0.081 -0.3942  0.2000 -0.3997
  233SOL    HW1  698   2.163   2.843   0.153  0.1260 -4.2753 -1.8951
  233SOL    HW2  699   2.241   2.769   0.030 -0.8573  1.2779  1.5785
  234SOL     OW  700   0.793   0.162   2.645  0.4336  0.5061 -0.1839
  234SOL    HW1  701   0.847   0.087   2.688 -1.8078 -1.3805 -1.3496
  234SOL    HW2  702   0.724   0.121   2.589  0.2420 -3.7750  0.6219
  235SOL     OW  703   2.286   0.011   2.711  0.0586  0.1871 -0.0632
  235SOL    HW1  704   2.386   0.031   2.720  2.0202  1.5406  1.8060
  235SOL    HW2  705   2.265   3.087   2.616 -0.6172  1.5130  2.1632
  236SOL     OW  706   2.580   2.243   2.267  0.5006 -0.0826 -0.0369
  236SOL    HW1  707   2.607   2.328   2.317 -1.9809 -0.9314 -1.0626
  236SOL    HW2  708   2.664   2.200   2.230 -3.4060  0.1592  3.3273
  237SOL     OW  709   0.883   1.473   1.972  0.0836 -0.3332  0.1064
  237SOL    HW1  710   0.959   1.494   1.904  3.5450  0.3881 -3.4760
  237SOL    HW2  711   0.883   1.542   2.043  1.5331 -0.1010 -0.3807
  238SOL     OW  712   1.943   0.080   2.524 -0.1748  0.3289 -0.1707
  238SOL    HW1  713   1.903   0.007   2.583  0.3414  0.2320  1.1824
  238SOL    HW2  714   2.011   0.134   2.573 -0.9631 -2.2432  0.1385
  239SOL     OW  715   0.409   1.862   1.991 -0.0607 -0.0928 -0.2171
  239SOL    HW1  716   0.466   1.796   1.942  1.9124 -0.2007  1.6849
  239SOL    HW2  717   0.317   1.861   1.952  0.1334 -0.9416 -1.2888
  240SOL     OW  718   2.848   2.812   0.646 -0.1792 -0.1441  0.1696
  240SOL    HW1  719   2.908   2.732   0.638  0.1153  1.2170 -0.6688
  240SOL    HW2  720   2.883   2.895   0.613 -2.3462 -3.3884  3.7944
  241SOL     OW  721   1.996   1.639   0.479 -1.0131  0.6127  0.2092
  241SOL    HW1  722   2.079   1.666   0.419  1.0873  1.0114 -0.2894
  241SOL    HW2  723   1.915   1.667   0.429  1.2165 -0.7685 -0.0558
  242SOL     OW  724   1.398   1.736   2.785  0.5990  0.3295 -0.7572
  242SOL    HW1  725   1.465   1.762   2.711  1.2727  1.9214 -0.1812
  242SOL    HW2  726   1.306   1.712   2.747  0.0834  1.8728  0.0280
  243SOL     OW  727   0.804   2.679   2.269  0.6783  0.4570  0.6932
  243SOL    HW1  728   0.795   2.734   2.354 -1.1294 -3.5934 -1.3979
  243SOL    HW2  729   0.784   2.580   2.295 -2.1260  0.4341  1.5612
  244SOL     OW  730   2.092   0.231   2.715 -0.3454  0.2038  0.0395
  244SOL    HW1  731   2.047   0.272   2.794 -1.3505  0.2003  1.5092
  244SOL    HW2  732   2.150   0.151   2.734 -2.3408  0.7054 -2.2078
  245SOL     OW  733   1.306   2.807   0.529  0.3034 -0.4857 -0.0709
  245SOL    HW1  734   1.319   2.864   0.610 -1.0261 -3.1443 -1.4720
  245SOL    HW2  735   1.254   2.857   0.459  0.4733 -0.0949  0.8816
  246SOL     OW  736   1.219   2.545   0.463  0.6043 -0.2217  0.2536
  246SOL    HW1  737   1.284   2.544   0.391 -1.9454 -0.0956 -0.4153
  246SOL    HW2  738   1.223   2.642   0.497 -0.3589  2.6822  1.6697
  247SOL     OW  739   0.781   0.675   2.387 -0.2934 -0.4210 -0.1834
  247SOL    HW1  740   0.825   0.651   2.301  0.4499 -0.8910  0.6289
  247SOL    HW2  741   0.678   0.671   2.381 -0.5743 -2.4877 -1.6869
  248SOL     OW  742   0.853   1.339   2.313  0.5223  0.2202 -0.1496
  248SOL    HW1  743   0.870   1.244   2.281 -3.2622 -0.4665  1.1965
  248SOL    HW2  744   0.873   1.404   2.237 -1.3441 -2.5351 -0.1762
  249SOL     OW  745   2.248   0.242   0.279 -0.1146  0.1232  0.3234
  249SOL    HW1  746   2.334   0.278   0.238  1.3512 -1.7846  1.3227
  249SOL    HW2  747   2.223   0.301   0.358 -2.8008  0.7722 -0.2634
  250SOL     OW  748   0.837   0.188   0.491  0.9365 -0.3644 -0.3827
  250SOL    HW1  749   0.790   0.130   0.563  2.1121 -1.5536  1.2721
  250SOL    HW2  750   0.763   0.233   0.439  0.1581 -0.3935 -1.6630
  251SOL     OW  751   1.794   0.252   2.808  0.0475  0.6176  0.4569
  251SOL    HW1  752   1.830   0.318   2.741  0.3747 -1.0961  0.9026
  251SOL    HW2  753   1.860   0.184   2.840 -0.1973 -1.4915 -1.4278
  252SOL     OW  754   2.006   1.595   1.770 -0.0692  0.1554 -0.0057
  252SOL    HW1  755   1.992   1.611   1.869  0.5074 -0.1423 -1.3411
  252SOL    HW2  756   1.931   1.533   1.738 -0.0454  0.8737  0.6843
  253SOL     OW  757   2.757   2.327   1.664 -0.1945  0.0513  0.2580
  253SOL    HW1  758   2.734   2.356   1.758  1.2133 -0.9678 -0.6739
  253SOL    HW2  759   2.798   2.397   1.606 -1.6343  0.5902  2.0164
  254SOL     OW  760   0.336   1.412   1.366  0.3090 -0.3023 -0.0833
  254SOL    HW1  761   0.409   1.343   1.350  1.2175 -0.2898 -1.3620
  254SOL    HW2  762   0.347   1.481   1.292  1.8633  1.0118  0.9844
  255SOL     OW  763   0.743   0.734   1.257 -0.0120 -0.2666 -0.1832
  255SOL    HW1  764   0.656   0.753   1.206 -1.6540 -1.1541 -0.5005
  255SOL    HW2  765   0.821   0.787   1.214  2.7560  0.3813 -0.1926
  256SOL     OW  766   2.037   2.775   1.758 -0.3154  0.0478 -0.1501
  256SOL    HW1  767   1.987   2.684   1.780 -1.2953 -0.3109  1.9984
  256SOL    HW2  768   2.127   2.751   1.719  0.3369  0.4341 -1.7457
  257SOL     OW  769   0.349   2.772   3.031  0.5786 -0.2400  0.8728
  257SOL    HW1  770   0.370   2.784   2.933 -0.0247  0.5582 -1.6622
  257SOL    HW2  771   0.252   2.790   3.058 -0.7661  0.7457 -0.0663
  258SOL     OW  772   0.766   2.700   2.577  0.2176  0.2067 -0.4509
  258SOL    HW1  773   0.828   2.626   2.618  1.3323 -0.7591 -2.9135
  258SOL    HW2  774   0.779   2.792   2.611  1.5280 -1.6480 -0.0873
  259SOL     OW  775   1.184   0.001   2.243 -0.3337 -0.5573 -0.2075
  259SOL    HW1  776   1.195   3.027   2.191 -2.8577  3.0674  1.3061
  259SOL    HW2  777   1.276   0.041   2.259 -0.6769 -0.2167  0.9358
  260SOL     OW  778   1.855   0.535   1.032 -0.2283  0.5330  0.4359
  260SOL    HW1  779   1.927   0.474   0.990  0.8543  0.8835 -2.5217
  260SOL    HW2  780   1.859   0.631   0.996  0.9875  1.5703 -1.2637
  261SOL     OW  781   0.486   0.330   2.559 -0.1592  0.0642  0.4543
  261SOL    HW1  782   0.419   0.406   2.556  1.4716  1.4199 -2.6257
  261SOL    HW2  783   0.515   0.312   2.655 -0.4391  0.2974  0.6162
  262SOL     OW  784   2.887   2.537   2.077  0.2759  0.1621  0.2981
  262SOL    HW1  785   2.901   2.591   2.159  0.8723 -2.0241 -0.0219
  262SOL    HW2  786   2.971   2.481   2.060  2.5513 -2.8874 -3.1819
  263SOL     OW  787   2.956   1.663   2.309  0.1713  0.2225 -0.2083
  263SOL    HW1  788   2.998   1.737   2.252  0.0095 -0.9693 -0.1147
  263SOL    HW2  789   3.014   1.635   2.388  1.3166  0.5290 -2.4390
  264SOL     OW  790   0.482   0.791   0.821  0.0236  0.3938 -0.1574
  264SOL    HW1  791   0.410   0.859   0.799  0.4118 -0.8475 -0.9853
  264SOL    HW2  792   0.440   0.696   0.819 -2.7981 -2.7486 -1.9465
  265SOL     OW  793   1.005   2.269   0.596 -0.3469 -0.4178  0.0348
  265SOL    HW1  794   1.089   2.221   0.567 -0.7290  1.5755  0.1436
  265SOL    HW2  795   1.009   2.289   0.695  1.5453 -0.4184 -0.0229
  266SOL     OW  796   1.603   0.445   1.097 -0.1739 -0.0836  0.0021
  266SOL    HW1  797   1.701   0.459   1.071 -0.6517 -0.5116  0.3215
  266SOL    HW2  798   1.535   0.470   1.023 -1.0971  0.9385  1.8428
  267SOL     OW  799   2.590   1.046   0.102 -0.1970 -0.0766 -0.1686
  267SOL    HW1  800   2.688   1.021   0.086  1.0690 -1.7971 -2.4138
  267SOL    HW2  801   2.540   1.016   0.019  0.3575 -1.3182  3.9325
  268SOL     OW  802   1.816   0.328   0.209  0.2071 -0.0726 -0.0762
  268SOL    HW1  803   1.879   0.254   0.225 -0.4255  0.7172  1.4274
  268SOL    HW2  804   1.758   0.345   0.288 -0.8696 -0.5669 -0.5225
  269SOL     OW  805   2.045   0.844   2.874 -0.3856 -0.4931  0.2171
  269SOL    HW1  806   1.956   0.794   2.861  2.7041 -1.7355  1.4583
  269SOL    HW2  807   2.048   0.907   2.960 -1.0575 -0.2987  0.6401
  270SOL     OW  808   0.061   0.969   2.915  0.8973  0.3432 -0.2852
  270SOL    HW1  809   0.071   0.967   2.814 -1.6904  0.2497 -1.8687
  270SOL    HW2  810   0.009   0.887   2.943  1.0447  1.0663 -2.2637
  271SOL     OW  811   2.863   0.836   0.297 -0.2517  0.2767  0.3542
  271SOL    HW1  812   2.768   0.867   0.321 -0.0529 -1.1719  1.1998
  271SOL    HW2  813   2.902   0.783   0.373 -2.4566 -0.0232 -2.0031
  272SOL     OW  814   0.125   2.056   2.841  0.4870 -0.1169 -0.1757
  272SOL    HW1  815   0.056   2.122   2.805  0.5971  0.4269  1.0991
  272SOL    HW2  816   0.131   2.064   2.934  0.9839 -0.9188 -2.7629
  273SOL     OW  817   2.508   3.047   0.376 -0.3267 -0.3407 -0.4864
  273SOL    HW1  818   2.575   0.007   0.358  0.1104  0.8952 -2.3285
  273SOL    HW2  819   2.436   3.075   0.446 -4.0070  0.1305  0.9265
  274SOL     OW  820   0.556   2.206   0.894  0.2663  0.1195 -0.4059
  274SOL    HW1  821   0.533   2.300   0.863  2.2024 -3.3647  0.3685
  274SOL    HW2  822   0.589   2.153   0.811  2.9946  2.8082  1.1029
  275SOL     OW  823   2.869   1.542   0.432 -0.1243  0.7399 -0.3624
  275SOL    HW1  824   2.883   1.614   0.501  2.9443 -1.0182  1.7417
  275SOL    HW2  825   2.946   1.478   0.424  0.1948  0.2941 -0.3460
  276SOL     OW  826   3.075   1.061   1.955 -0.0243  0.0601 -0.1008
  276SOL    HW1  827   3.051   1.102   2.048  0.6131 -1.0307 -0.3486
  276SOL    HW2  828   3.005   0.986   1.945 -1.4882 -1.9010 -0.0177
  277SOL     OW  829   1.843   2.786   1.254 -0.0518 -0.4318 -0.0865
  277SOL    HW1  830   1.887   2.842   1.180  0.5408 -0.7821 -2.3114
  277SOL    HW2  831   1.895   2.796   1.343 -0.6860  2.0077  1.4723
  278SOL     OW  832   1.348   2.553   2.231 -0.3329 -0.5098 -0.3014
  278SOL    HW1  833   1.331   2.459   2.193  0.9205  0.0686  0.5886
  278SOL    HW2  834   1.266   2.616   2.238  0.4175 -1.5503  0.0093
  279SOL     OW  835   1.447   1.927   0.738 -0.6102  0.7365 -0.5276
  279SOL    HW1  836   1.527   1.974   0.707 -1.5196 -1.5428  0.8600
  279SOL    HW2  837   1.367   1.943   0.681 -1.2150 -0.3368  0.4187
  280SOL     OW  838   0.113   1.637   1.002  0.2359  0.0593 -0.7567
  280SOL    HW1  839   0.152   1.718   0.960 -1.0635 -0.9216  0.8569
  280SOL    HW2  840   0.034   1.598   0.951  1.2479 -2.6225  0.5430
  281SOL     OW  841   2.914   0.848   2.358  0.5461 -0.1479  0.6976
  281SOL    HW1  842   2.817   0.869   2.339 -1.0315 -0.9251 -0.2628
  281SOL    HW2  843   2.927   0.824   2.459 -1.0615 -1.0999  3.7202
  282SOL     OW  844   0.742   1.442   0.802 -0.0810 -0.4303 -0.7498
  282SOL    HW1  845   0.718   1.362   0.735  0.6717 -0.0549 -0.8902
  282SOL    HW2  846   0.701   1.532   0.771 -2.4758 -1.0226 -0.5033
  283SOL     OW  847   1.928   2.208   0.287  0.3039  0.4103 -1.0857
  283SOL    HW1  848   1.876   2.256   0.359  0.9616  0.9685  0.3109
  283SOL    HW2  849   2.010   2.164   0.322  0.1251 -2.6075 -1.1732
  284SOL     OW  850   0.932   0.611   0.214 -0.7005  0.2845 -0.6197
  284SOL    HW1  851   0.899   0.686   0.278  0.7038  3.3952 -1.1484
  284SOL    HW2  852   0.988   0.643   0.133  1.8773  1.3737  0.9537
  285SOL     OW  853   2.307   1.174   2.860  0.1270  0.5124  0.5183
  285SOL    HW1  854   2.229   1.181   2.795  2.1586  0.8939  0.1215
  285SOL    HW2  855   2.294   1.240   2.934 -1.8043 -2.1079  2.3560
  286SOL     OW  856   1.632   2.432   1.270 -0.2601 -0.4112  0.0816
  286SOL    HW1  857   1.542   2.393   1.268  0.5468  1.6671  1.2142
  286SOL    HW2  858   1.634   2.519   1.223  0.5867 -0.8723 -0.9798
  287SOL     OW  859   0.990   1.071   0.790  0.0158 -0.3192  0.1146
  287SOL    HW1  860   0.907   1.027   0.830 -1.1547 -0.9347 -2.6924
  287SOL    HW2  861   0.990   1.171   0.815  2.7438  1.8957  0.8136
  288SOL     OW  862   1.038   2.411   0.069 -0.2275  0.4729  0.5158
  288SOL    HW1  863   1.002   2.500   0.040 -1.4290 -0.1365 -1.1884
  288SOL    HW2  864   1.005   2.389   0.165 -0.8983 -0.7766 -2.0255
  289SOL     OW  865   0.230   1.620   1.502 -0.5190  0.2773 -0.1321
  289SOL    HW1  866   0.298   1.688   1.533  0.6682 -2.0389  0.7109
  289SOL    HW2  867   0.272   1.537   1.460  1.1132 -0.0906  1.6898
  290SOL     OW  868   1.524   2.246   0.750  0.1912  0.0155  0.1274
  290SOL    HW1  869   1.492   2.216   0.842 -0.6240 -0.4293 -0.3872
  290SOL    HW2  870   1.569   2.167   0.699 -1.4183 -0.4207 -1.4747
  291SOL     OW  871   1.959   2.923   2.970 -0.3301  0.1200 -0.2101
  291SOL    HW1  872   1.958   2.998   3.039 -0.1168  2.8735  0.7430
  291SOL    HW2  873   1.909   2.845   3.007 -0.5691 -0.5308  0.7128
  292SOL     OW  874   0.922   0.611   2.165 -0.5566  0.1091  0.4304
  292SOL    HW1  875   0.900   0.670   2.083 -2.1681  0.2379 -0.7082
  292SOL    HW2  876   1.009   0.564   2.150  0.0805 -0.5705  2.1536
  293SOL     OW  877   2.220   2.260   0.785 -0.4936  1.2043  0.0075
  293SOL    HW1  878   2.156   2.193   0.741 -1.5843  0.3811 -0.3970
  293SOL    HW2  879   2.245   2.216   0.871  1.7334  1.5325 -2.5539
  294SOL     OW  880   0.510   0.654   2.345 -0.1660 -0.0552  0.0904
  294SOL    HW1  881   0.461   0.584   2.296  0.2161  3.7294  0.6632
  294SOL    HW2  882   0.449   0.705   2.411 -0.2072  0.9754  1.5884
  295SOL     OW  883   1.557   1.588   0.994 -0.1724 -0.5778  0.2774
  295SOL    HW1  884   1.615   1.516   1.040  2.3255 -0.8787 -0.2274
  295SOL    HW2  885   1.587   1.683   1.019 -1.2101  1.9500  0.0390
  296SOL     OW  886   2.735   1.785   0.326  0.6086  0.1287 -0.3271
  296SOL    HW1  887   2.690   1.844   0.395  1.8810 -0.9885  1.6270
  296SOL    HW2  888   2.766   1.696   0.360 -2.6666 -0.9404 -0.4055
  297SOL     OW  889   2.237   2.943   0.324 -0.1644 -0.5581  0.3183
  297SOL    HW1  890   2.293   3.020   0.365  1.0193  0.1212 -1.0327
  297SOL    HW2  891   2.282   2.855   0.337 -3.7317 -0.5957  1.6074
  298SOL     OW  892   1.028   2.561   2.871 -0.5441  0.2322 -0.2494
  298SOL    HW1  893   1.084   2.490   2.823 -1.7716  1.6052  3.1819
  298SOL    HW2  894   1.077   2.645   2.895  1.0464 -2.3089 -1.0914
  299SOL     OW  895   1.155   2.177   1.993  0.1030 -0.1152 -0.0225
  299SOL    HW1  896   1.237   2.236   1.996 -0.7509 -1.2589  0.1242
  299SOL    HW2  897   1.078   2.228   2.039  0.3428  0.3698 -1.0355
  300SOL     OW  898   2.552   0.065   2.794  0.0653 -0.7219  0.6776
  300SOL    HW1  899   2.591   0.083   2.885 -1.1194  2.8972 -2.4322
  300SOL    HW2  900   2.555   0.149   2.741 -0.1454  1.4675  1.0124
  301SOL     OW  901   1.302   0.817   2.209 -0.1299  0.1044 -0.3771
  301SOL    HW1  902   1.258   0.733   2.240 -1.2102  1.8441 -1.5471
  301SOL    HW2  903   1.371   0.809   2.130  1.0081  2.4319 -2.1507
  302SOL     OW  904   2.753   2.823   0.138  0.4030 -0.4072  0.0455
  302SOL    HW1  905   2.672   2.879   0.129 -0.5569 -1.1748 -0.3316
  302SOL    HW2  906   2.820   2.864   0.206  2.0957  0.1559  1.5445
  303SOL     OW  907   2.701   2.446   1.901 -0.3058  0.4604  0.1889
  303SOL    HW1  908   2.614   2.407   1.943 -0.7997  0.4033 -3.1183
  303SOL    HW2  909   2.765   2.496   1.964  0.9163  1.2536  1.4044
  304SOL     OW  910   2.793   0.688   2.100  0.0530 -0.0685 -0.2831
  304SOL    HW1  911   2.851   0.753   2.043 -0.4837  1.0857  1.2714
  304SOL    HW2  912   2.776   0.732   2.192  0.8201 -0.1981 -0.7205
  305SOL     OW  913   0.639   1.677   1.283 -0.5127 -0.0350 -0.1979
  305SOL    HW1  914   0.652   1.617   1.201 -1.3596  0.2592 -1.4311
  305SOL    HW2  915   0.634   1.616   1.365  0.8759  0.6366  0.7910
  306SOL     OW  916   0.119   1.253   1.850 -0.2634 -0.3351 -0.4794
  306SOL    HW1  917   0.109   1.341   1.904  0.5868  0.0881  1.6217
  306SOL    HW2  918   0.063   1.172   1.884 -3.2961 -1.7831  2.7275
  307SOL     OW  919   1.089   0.661   1.589 -0.3541  0.3417  0.4434
  307SOL    HW1  920   1.095   0.651   1.486  0.6665 -1.5090  1.7741
  307SOL    HW2  921   1.185   0.683   1.627 -1.9709  2.2416  1.1234
  308SOL     OW  922   2.889   0.971   1.306  0.2137 -0.3158 -0.6600
  308SOL    HW1  923   2.965   1.018   1.355  1.5117  0.7269 -2.3441
  308SOL    HW2  924   2.847   0.902   1.367  0.4429 -0.2774  0.5048
  309SOL     OW  925   2.268   1.134   0.976  0.2170 -0.5470 -0.4618
  309SOL    HW1  926   2.358   1.184   0.955  0.6097 -0.4435 -1.0158
  309SOL    HW2  927   2.263   1.119   1.076  0.8267  4.3411 -1.9676
  310SOL     OW  928   3.036   2.172   2.635 -0.5486  0.2741  0.3067
  310SOL    HW1  929   3.039   2.074   2.629  0.8838  1.2893 -1.4067
  310SOL    HW2  930   2.939   2.196   2.624  2.5059  1.3769 -0.5110
  311SOL     OW  931   2.858   2.915   2.649 -0.1425 -0.2745  0.1750
  311SOL    HW1  932   2.763   2.920   2.688  2.1538  3.7479 -1.1864
  311SOL    HW2  933   2.901   2.831   2.693 -0.0980 -0.8730  1.0654
  312SOL     OW  934   2.224   1.982   0.173 -0.9282 -0.4960  0.3209
  312SOL    HW1  935   2.298   1.958   0.109  0.3070 -1.5375  0.0340
  312SOL    HW2  936   2.135   1.987   0.125 -2.4391 -0.5397 -0.4902
  313SOL     OW  937   2.630   2.765   0.481  0.3223 -0.2031 -0.1725
  313SOL    HW1  938   2.708   2.770   0.547 -1.1399  0.8236  0.3462
  313SOL    HW2  939   2.611   2.852   0.435 -2.0650  0.4511  2.8780
  314SOL     OW  940   1.572   1.236   0.223 -0.2826 -0.1933  0.4334
  314SOL    HW1  941   1.485   1.190   0.236  2.0997 -2.0473  0.5245
  314SOL    HW2  942   1.602   1.222   0.129 -1.1314 -0.4715  3.4880
  315SOL     OW  943   1.443   2.750   2.067  0.4449  0.0597 -0.1393
  315SOL    HW1  944   1.399   2.693   2.141 -2.1760 -0.7544  2.3261
  315SOL    HW2  945   1.453   2.844   2.096 -1.2817 -1.0001 -0.8161
  316SOL     OW  946   2.838   0.912   0.038  0.6648 -0.0806  0.1065
  316SOL    HW1  947   2.915   0.862   3.104  1.9922 -0.4163 -0.4411
  316SOL    HW2  948   2.835   0.888   0.135 -0.6713 -0.8574 -2.1383
  317SOL     OW  949   0.345   3.103   0.180 -0.5793 -0.5580  0.1394
  317SOL    HW1  950   0.284   3.057   0.247  0.3041 -0.4239 -1.1906
  317SOL    HW2  951   0.411   3.032   0.141 -0.2650 -0.0304  1.1624
  318SOL     OW  952   2.241   2.563   0.813 -0.0702  0.4136  0.2063
  318SOL    HW1  953   2.213   2.464   0.813  0.9676  1.8422 -0.2257
  318SOL    HW2  954   2.229   2.611   0.725  1.4494  1.5405  2.6201
  319SOL     OW  955   1.031   1.722   3.040 -0.3236 -0.1241 -0.5017
  319SOL    HW1  956   0.984   1.810   3.064 -0.9658 -0.4642  2.7024
  319SOL    HW2  957   0.991   1.676   2.961 -0.4480 -0.3450 -0.6987
  320SOL     OW  958   0.383   2.408   1.959  0.5003 -0.3285  0.4542
  320SOL    HW1  959   0.333   2.497   1.944 -1.4798 -0.0151  0.5763
  320SOL    HW2  960   0.354   2.333   1.900 -0.0421  4.1119 -0.3405
  321SOL     OW  961   1.575   2.922   2.744 -0.0179  0.0167  0.2653
  321SOL    HW1  962   1.536   2.949   2.834  1.1117 -0.0531 -0.9982
  321SOL    HW2  963   1.658   2.982   2.727  0.8953  1.8756  1.2039
  322SOL     OW  964   3.030   1.427   2.126 -0.0677  0.1661  0.6540
  322SOL    HW1  965   0.005   1.456   2.082 -1.0487  0.8765  1.1664
  322SOL    HW2  966   2.991   1.499   2.188  1.5989 -3.4754  0.7813
  323SOL     OW  967   2.119   1.347   0.863 -0.3269  0.1397 -0.0088
  323SOL    HW1  968   2.200   1.286   0.878  0.5739 -0.8084 -0.1100
  323SOL    HW2  969   2.076   1.358   0.957  1.4840 -1.0012  0.4045
  324SOL     OW  970   2.859   0.058   2.540 -0.0284 -0.4882  0.0486
  324SOL    HW1  971   2.860   0.105   2.632 -2.6704  0.5111 -1.8020
  324SOL    HW2  972   2.856   3.073   2.557 -1.2011  4.1255 -3.6126
  325SOL     OW  973   1.384   0.675   2.742 -0.0967 -0.1950 -0.4239
  325SOL    HW1  974   1.410   0.658   2.646 -0.0299  2.2868  1.2401
  325SOL    HW2  975   1.288   0.700   2.754  3.2661  1.8821  1.7257
  326SOL     OW  976   2.311   2.720   2.077  0.7328 -0.0351 -0.2478
  326SOL    HW1  977   2.283   2.785   2.000  3.2050 -0.7151 -2.4011
  326SOL    HW2  978   2.282   2.623   2.057  1.5233 -0.0787  0.8041
  327SOL     OW  979   2.016   0.124   0.232 -0.2351 -0.5398  0.2740
  327SOL    HW1  980   1.991   0.030   0.259  1.5906 -1.0261  1.4581
  327SOL    HW2  981   2.113   0.145   0.247 -0.8542  0.1200 -1.1959
  328SOL     OW  982   0.055   1.352   2.506 -0.2441  0.0669 -0.0286
  328SOL    HW1  983   0.096   1.339   2.413  0.5757  0.6441 -0.9981
  328SOL    HW2  984   0.020   1.267   2.542  1.1221  2.7482  1.5624
  329SOL     OW  985   2.094   0.045   1.943  0.5030  0.2222  0.3963
  329SOL    HW1  986   2.024   0.006   1.876 -1.0076 -0.3429 -1.0039
  329SOL    HW2  987   2.189   0.010   1.930 -3.6235 -0.0803 -2.1348
  330SOL     OW  988   3.031   1.293   0.979 -0.0569  0.3968  0.1677
  330SOL    HW1  989   2.946   1.298   1.039  0.9695 -0.8319  0.9852
  330SOL    HW2  990   0.002   1.255   1.026  0.8738 -1.1750 -1.0216
  331SOL     OW  991   0.461   1.744   2.384 -0.2968  0.0012  0.5807
  331SOL    HW1  992   0.457   1.829   2.330  0.9931  0.7209 -0.6087
  331SOL    HW2  993   0.556   1.705   2.381  2.4528  0.9158 -1.1253
  332SOL     OW  994   0.219   2.931   1.717  0.7365 -0.7029  0.2353
  332SOL    HW1  995   0.299   2.932   1.653 -0.8444  0.9666 -1.0634
  332SOL    HW2  996   0.134   2.899   1.668 -1.1163  1.1291  1.0727
  333SOL     OW  997   2.241   2.985   1.009  0.0643 -0.6529 -0.0731
  333SOL    HW1  998   2.147   2.967   1.044 -0.9350 -0.9817  0.6726
  333SOL    HW2  999   2.289   3.074   1.035 -0.1523  1.3940  0.1660
  334SOL     OW 1000   0.616   1.674   0.754 -0.3162  0.1045  0.0612
  334SOL    HW1 1001   0.607   1.680   0.654 -0.0950 -2.5430  1.7633
  334SOL    HW2 1002   0.680   1.743   0.788 -1.3671 -1.9899  0.3452
  335SOL     OW 1003   0.208   2.512   2.939 -0.2663 -0.1974 -0.3799
  335SOL    HW1 1004   0.259   2.480   2.859  0.9547  0.5740 -0.1663
  335SOL    HW2 1005   0.210   2.614   2.951 -1.1189  0.5362  1.1655
  336SOL     OW 1006   0.242   3.081   2.376 -0.2121 -0.1978  0.0383
  336SOL    HW1 1007   0.210   2.985   2.398 -1.6269  0.1109 -1.7017
  336SOL    HW2 1008   0.171   0.026   2.334 -1.6350  0.9082  1.1453
  337SOL     OW 1009   2.292   2.257   2.639 -0.3681  0.1418 -0.2933
  337SOL    HW1 1010   2.285   2.256   2.742 -0.6373 -1.0591  2.5713
  337SOL    HW2 1011   2.260   2.344   2.601  3.7578 -1.3768 -1.6030
  338SOL     OW 1012   0.920   1.185   1.107 -0.2998  0.2038 -0.2728
  338SOL    HW1 1013   0.948   1.243   1.030 -1.7600  2.4599  2.0465
  338SOL    HW2 1014   0.898   1.240   1.185  0.5827 -0.8776 -1.5630
  339SOL     OW 1015   0.060   0.717   2.001 -0.1754  0.8660 -0.2619
  339SOL    HW1 1016   0.039   0.749   2.100 -1.1725  1.5690  3.9680
  339SOL    HW2 1017   3.111   0.755   1.932  1.4189 -0.9842  0.5692
  340SOL     OW 1018   1.436   2.585   0.295  0.1259 -0.0897  0.3251
  340SOL    HW1 1019   1.512   2.650   0.324  2.7485 -2.5841 -1.2996
  340SOL    HW2 1020   1.419   2.594   0.193  1.2340 -1.3196 -1.3067
  341SOL     OW 1021   2.015   1.031   0.966 -0.1440 -0.2994 -0.2166
  341SOL    HW1 1022   1.928   1.087   0.973 -0.7882 -1.0054  0.7986
  341SOL    HW2 1023   2.091   1.089   0.937  1.0762 -2.4734 -2.3516
  342SOL     OW 1024   2.374   2.881   3.025 -0.5823 -0.3372 -0.2687
  342SOL    HW1 1025   2.312   2.897   2.944  0.2362 -1.4249 -0.6951
  342SOL    HW2 1026   2.455   2.826   2.998 -2.1575  0.1379  2.4275
  343SOL     OW 1027   1.295   2.103   1.405 -0.1857  0.8165 -0.0054
  343SOL    HW1 1028   1.272   2.121   1.505 -1.4093  1.9652  0.1497
  343SOL    HW2 1029   1.238   2.032   1.358  0.6420  1.2634  1.5751
  344SOL     OW 1030   2.093   2.537   1.052  0.1025  0.2520  0.3484
  344SOL    HW1 1031   2.134   2.586   0.971 -0.6007 -0.0643  0.0257
  344SOL    HW2 1032   2.167   2.528   1.124 -0.3896 -2.0508  0.6396
  345SOL     OW 1033   2.648   2.582   0.240  0.3430  0.1720  0.3453
  345SOL    HW1 1034   2.652   2.564   0.341 -1.1805 -0.5700  1.8880
  345SOL    HW2 1035   2.664   2.683   0.225  1.1647  2.2476  0.3808
  346SOL     OW 1036   2.718   1.319   0.631 -0.7947  0.2696  0.0727
  346SOL    HW1 1037   2.790   1.337   0.560  0.0710 -0.7364 -0.1794
  346SOL    HW2 1038   2.691   1.403   0.678 -1.7845 -0.9070 -0.8469
  347SOL     OW 1039   2.030   2.396   1.576 -0.0558  0.3434 -0.0218
  347SOL    HW1 1040   1.940   2.423   1.538  0.9512  0.7687 -1.0760
  347SOL    HW2 1041   2.058   2.316   1.520 -0.7051  1.1847 -0.7116
  348SOL     OW 1042   0.863   1.917   3.088  0.3873  0.5475 -0.4896
  348SOL    HW1 1043   0.917   2.003   3.091  0.9750 -2.5482 -1.8521
  348SOL    HW2 1044   0.788   1.919   0.046 -3.2957  2.8496  1.5779
  349SOL     OW 1045   2.637   1.481   1.613  0.3300  0.8511 -0.5647
  349SOL    HW1 1046   2.614   1.547   1.681 -1.0636 -0.1882 -0.5482
  349SOL    HW2 1047   2.685   1.518   1.534 -1.4895  1.1394  1.1784
  350SOL     OW 1048   2.879   2.590   1.073 -0.5416  0.3623 -0.0545
  350SOL    HW1 1049   2.920   2.620   1.160  0.5606  2.0411 -0.0362
  350SOL    HW2 1050   2.787   2.630   1.059 -2.5692  0.2325  1.4273
  351SOL     OW 1051   0.372   0.446   2.206 -0.3674 -0.1325  0.2213
  351SOL    HW1 1052   0.351   0.429   2.105 -0.3209  3.2721  1.3440
  351SOL    HW2 1053   0.449   0.388   2.246  0.9194 -3.2492  0.8681
  352SOL     OW 1054   0.563   1.930   1.246 -0.2703  0.1366  0.3307
  352SOL    HW1 1055   0.589   1.835   1.271  0.6790 -0.7807  0.7645
  352SOL    HW2 1056   0.465   1.932   1.218  3.8391  2.4253 -2.0478
  353SOL     OW 1057   1.569   1.757   2.575 -0.7924 -0.3549  0.3375
  353SOL    HW1 1058   1.537   1.786   2.477 -1.9063  0.0957 -4.0178
  353SOL    HW2 1059   1.597   1.656   2.581 -1.6201 -2.4168  0.5371
  354SOL     OW 1060   1.010   0.515   0.900 -0.5097 -0.1349  0.4866
  354SOL    HW1 1061   0.943   0.459   0.953  1.3826 -0.5404 -1.5829
  354SOL    HW2 1062   1.013   0.473   0.807  0.0965 -0.7118 -2.7998
  355SOL     OW 1063   2.502   0.735   0.695  0.3698 -0.5165  0.3885
  355SOL    HW1 1064   2.554   0.796   0.750 -1.2649 -2.1743 -1.0029
  355SOL    HW2 1065   2.430   0.784   0.634 -4.7886  1.8327 -2.1672
  356SOL     OW 1066   2.515   1.805   2.232 -0.0894 -0.3779  0.0285
  356SOL    HW1 1067   2.516   1.848   2.324 -1.9224 -3.2466  0.0260
  356SOL    HW2 1068   2.584   1.732   2.225 -0.8472 -2.7924 -0.9868
  357SOL     OW 1069   0.537   2.639   1.231 -0.2833 -0.1983  0.2995
  357SOL    HW1 1070   0.584   2.661   1.320  1.7500  0.2034  0.7531
  357SOL    HW2 1071   0.589   2.563   1.190 -0.3212  0.6318  3.1823
  358SOL     OW 1072   2.496   0.918   1.854  0.5540  0.0127  0.1339
  358SOL    HW1 1073   2.498   0.877   1.758 -0.0845  1.2974 -0.5385
  358SOL    HW2 1074   2.581   0.969   1.868  0.0038 -0.4898 -0.5911
  359SOL     OW 1075   2.662   2.508   2.782  0.0608  0.0243  0.3920
  359SOL    HW1 1076   2.601   2.510   2.697 -1.6636 -2.4714 -1.3586
  359SOL    HW2 1077   2.664   2.415   2.824 -1.1873  1.3343 -3.1230
  360SOL     OW 1078   1.738   0.229   0.628 -0.2362  0.1065 -0.0871
  360SOL    HW1 1079   1.743   0.301   0.552 -0.9859  1.6451  0.4099
  360SOL    HW2 1080   1.679   0.252   0.707  0.8661 -0.0150 -2.6790
  361SOL     OW 1081   2.189   0.082   1.301  0.1841 -0.4398  0.5987
  361SOL    HW1 1082   2.204   0.136   1.388  1.8151  0.2507 -0.5186
  361SOL    HW2 1083   2.123   0.006   1.309 -0.9858 -0.5524 -0.0139
  362SOL     OW 1084   1.275   1.284   0.450  0.0260  0.3054 -0.2415
  362SOL    HW1 1085   1.302   1.286   0.546 -2.7344  0.8874  0.7641
  362SOL    HW2 1086   1.276   1.379   0.411 -1.6018 -0.9777 -0.0829
  363SOL     OW 1087   2.498   1.578   2.821  0.3042  0.2870 -0.2618
  363SOL    HW1 1088   2.523   1.497   2.875  0.6849  1.3408 -0.8182
  363SOL    HW2 1089   2.567   1.608   2.751 -1.1826  0.9781  0.1268
  364SOL     OW 1090   0.728   0.240   1.252 -0.4160  0.1496 -0.2728
  364SOL    HW1 1091   0.771   0.214   1.341 -0.2854  0.8578 -0.0836
  364SOL    HW2 1092   0.627   0.218   1.254 -3.1019 -1.5275  0.4369
  365SOL     OW 1093   0.222   3.003   0.391  0.2964  0.2398  0.2120
  365SOL    HW1 1094   0.172   2.939   0.324 -1.2744 -0.2713 -0.3301
  365SOL    HW2 1095   0.240   2.947   0.475 -0.7626  1.8057 -1.6033
  366SOL     OW 1096   2.742   1.438   0.101  0.3809 -1.1794  0.1002
  366SOL    HW1 1097   2.816   1.368   0.102 -1.7456 -0.9605  1.2689
  366SOL    HW2 1098   2.689   1.440   0.188  1.7022 -2.0249 -0.4419
  367SOL     OW 1099   2.926   2.652   2.780 -0.3617 -0.4118 -0.3657
  367SOL    HW1 1100   2.876   2.564   2.786  1.6403  1.1809 -1.6962
  367SOL    HW2 1101   2.935   2.696   2.874 -0.7541 -0.4811 -0.3917
  368SOL     OW 1102   0.221   1.850   0.869  0.2606 -0.0103  0.5311
  368SOL    HW1 1103   0.187   1.942   0.864  0.9503 -1.1235 -0.3237
  368SOL    HW2 1104   0.276   1.821   0.788  2.0507 -3.4167 -0.6395
  369SOL     OW 1105   0.711   2.917   0.285  0.1802 -0.3838 -0.3149
  369SOL    HW1 1106   0.659   2.870   0.212  1.9362  0.3305  0.5456
  369SOL    HW2 1107   0.647   2.954   0.352 -1.2209 -0.3896 -2.0066
  370SOL     OW 1108   0.227   0.852   0.790  0.4436 -0.1095 -0.1065
  370SOL    HW1 1109   0.232   0.811   0.887 -1.1835  1.7535  1.7168
  370SOL    HW2 1110   0.201   0.952   0.794 -0.2319 -1.6594 -0.5030
  371SOL     OW 1111   1.813   2.861   0.621  0.1336 -0.1968  0.0079
  371SOL    HW1 1112   1.779   2.947   0.658  2.0895 -0.5257 -1.8050
  371SOL    HW2 1113   1.877   2.875   0.541  1.9716 -1.3944 -0.1386
  372SOL     OW 1114   0.121   0.997   2.649 -0.4374 -0.4625  0.0915
  372SOL    HW1 1115   0.043   1.020   2.586  0.3245  1.0161 -0.7350
  372SOL    HW2 1116   0.201   1.060   2.617  2.1281 -1.8273 -1.1536
  373SOL     OW 1117   2.961   1.725   0.609 -0.0762 -0.1792 -0.2782
  373SOL    HW1 1118   2.983   1.821   0.634 -0.4238  0.5556 -2.5127
  373SOL    HW2 1119   2.996   1.660   0.684  1.1579 -0.3870  3.4900
  374SOL     OW 1120   0.397   2.489   0.272 -0.2082  0.5486 -0.6569
  374SOL    HW1 1121   0.359   2.446   0.187 -0.7398  0.2069 -2.6476
  374SOL    HW2 1122   0.451   2.421   0.321  1.2490 -4.5681  2.1507
  375SOL     OW 1123   0.224   0.668   0.076 -0.9704  0.3909  0.3169
  375SOL    HW1 1124   0.310   0.698   0.127 -0.5336 -1.0496 -0.4962
  375SOL    HW2 1125   0.246   0.584   0.022  0.0633  2.0579 -1.1391
  376SOL     OW 1126   0.273   2.660   2.011 -0.2610  0.3444 -0.2553
  376SOL    HW1 1127   0.366   2.704   2.010  2.3183  2.6611 -0.5322
  376SOL    HW2 1128   0.224   2.689   2.094 -2.5778  1.3340 -2.5017
  377SOL     OW 1129   1.292   2.274   2.529 -0.0409  0.1504 -0.8573
  377SOL    HW1 1130   1.348   2.355   2.516 -4.3223  0.3230  1.1107
  377SOL    HW2 1131   1.356   2.196   2.514 -0.7119 -1.2328  0.2973
  378SOL     OW 1132   1.129   0.859   0.735 -0.0386 -0.4327  0.1553
  378SOL    HW1 1133   1.074   0.941   0.720  0.0121  0.2100  0.6871
  378SOL    HW2 1134   1.210   0.860   0.664  2.0523  1.9205 -1.0335
  379SOL     OW 1135   0.864   1.755   0.347  0.1811  0.0918  0.2743
  379SOL    HW1 1136   0.907   1.779   0.437  1.3958 -0.2481 -0.2071
  379SOL    HW2 1137   0.908   1.676   0.307 -2.8360  1.3503 -0.4606
  380SOL     OW 1138   0.238   1.997   1.500  0.2307 -0.2966 -0.2590
  380SOL    HW1 1139   0.188   1.933   1.437 -0.9583  0.2234 -1.8903
  380SOL    HW2 1140   0.230   2.096   1.475  3.7884  0.2721 -2.2518
  381SOL     OW 1141   0.313   1.140   1.719  0.0043 -0.4237 -0.1336
  381SOL    HW1 1142   0.239   1.196   1.770 -0.1314  1.9815  1.4521
  381SOL    HW2 1143   0.356   1.071   1.779 -0.3797  0.4752  0.7920
  382SOL     OW 1144   2.598   2.148   0.729  0.4050 -0.9885 -0.1207
  382SOL    HW1 1145   2.535   2.229   0.726  1.7505 -1.2623  1.6489
  382SOL    HW2 1146   2.602   2.112   0.819 -0.6742  0.0432 -1.6757
  383SOL     OW 1147   2.219   1.917   2.415 -0.0960 -0.0150 -0.0987
  383SOL    HW1 1148   2.277   1.843   2.452  2.3960  1.4847 -1.6499
  383SOL    HW2 1149   2.267   2.007   2.406  0.5415  3.2283 -2.1352
  384SOL     OW 1150   0.481   1.957   2.226 -0.3902  0.1587 -0.5591
  384SOL    HW1 1151   0.520   2.049   2.213  2.5954  1.2220 -0.0755
  384SOL    HW2 1152   0.448   1.919   2.138  0.5544 -0.0151  2.3240
  385SOL     OW 1153   2.975   2.408   0.831 -0.3946  0.6469  0.5613
  385SOL    HW1 1154   2.955   2.476   0.902 -0.8775 -1.2818  0.5483
  385SOL    HW2 1155   3.072   2.392   0.814 -0.4010 -0.1970  2.2750
  386SOL     OW 1156   1.920   0.740   0.633  0.3515 -0.5952 -0.3390
  386SOL    HW1 1157   1.885   0.827   0.672  0.6149 -1.4870  0.7102
  386SOL    HW2 1158   1.966   0.749   0.543  0.7810  2.4338  3.6134
  387SOL     OW 1159   0.303   0.766   1.816  0.0487 -0.5438 -0.3941
  387SOL    HW1 1160   0.216   0.741   1.865 -0.8587 -1.3680  1.5985
  387SOL    HW2 1161   0.367   0.825   1.869  2.3173  2.0017  2.2428
  388SOL     OW 1162   2.232   1.121   2.429 -0.4089  0.4585 -0.2767
  388SOL    HW1 1163   2.236   1.222   2.454 -0.0194  0.3827  0.1121
  388SOL    HW2 1164   2.192   1.067   2.504  1.9556  0.3747  2.0866
  389SOL     OW 1165   1.636   1.176   1.777  0.1980 -0.4859  0.0149
  389SOL    HW1 1166   1.628   1.246   1.706 -0.5469 -0.1183  1.3127
  389SOL    HW2 1167   1.549   1.149   1.823  2.4328  0.5901 -0.2344
  390SOL     OW 1168   1.818   2.551   0.206 -0.2847 -0.3727  0.4619
  390SOL    HW1 1169   1.839   2.495   0.124  0.9164 -0.9019  2.1827
  390SOL    HW2 1170   1.822   2.653   0.187 -1.9088  2.6645 -1.5717
  391SOL     OW 1171   1.949   2.333   1.186 -0.5113 -0.2637 -0.2623
  391SOL    HW1 1172   1.998   2.410   1.141  2.5664  0.4434  1.1878
  391SOL    HW2 1173   1.847   2.351   1.178 -2.4675  1.7765  0.1519
  392SOL     OW 1174   0.078   2.419   1.252  0.8093 -0.2330  0.3008
  392SOL    HW1 1175   0.058   2.509   1.206 -1.1027  1.0741  1.5593
  392SOL    HW2 1176   0.006   2.352   1.222 -0.6864  1.1075 -0.3932
  393SOL     OW 1177   2.013   1.980   3.111  0.0448  0.0346 -0.1383
  393SOL    HW1 1178   2.052   1.890   3.087  1.8528  3.9437  1.0575
  393SOL    HW2 1179   2.037   2.042   3.031  0.1202  0.3788 -3.4063
  394SOL     OW 1180   0.064   0.002   2.919  0.2853  0.0853  0.2109
  394SOL    HW1 1181   3.080   3.087   2.892  0.7435 -0.6709 -0.1565
  394SOL    HW2 1182   0.109   0.045   2.843 -0.2319 -0.4044  0.9042
  395SOL     OW 1183   1.492   1.153   1.251  0.0245  0.0738 -0.1668
  395SOL    HW1 1184   1.585   1.121   1.288  5.5028 -1.2678 -0.9130
  395SOL    HW2 1185   1.446   1.086   1.193 -0.5064  2.6664 -1.6257
  396SOL     OW 1186   1.613   0.863   0.007 -0.0834  0.7185 -0.0451
  396SOL    HW1 1187   1.593   0.957   3.086 -0.0395 -1.6151  1.3469
  396SOL    HW2 1188   1.600   0.794   3.043  0.7680 -3.7364  0.9425
  397SOL     OW 1189   0.103   0.733   2.670 -0.1438 -0.4004 -0.5553
  397SOL    HW1 1190   0.008   0.705   2.643 -1.1754  1.0503 -0.0507
  397SOL    HW2 1191   0.116   0.833   2.672 -1.0276 -1.3008  0.1621
  398SOL     OW 1192   0.872   0.244   3.110  0.4094 -0.0586  0.0851
  398SOL    HW1 1193   0.794   0.274   0.059 -0.3761 -0.5423  0.2187
  398SOL    HW2 1194   0.932   0.324   3.094  0.0365 -2.0927  0.4098
  399SOL     OW 1195   2.517   2.964   1.769 -0.0384  0.5124  0.0305
  399SOL    HW1 1196   2.545   2.996   1.679 -0.7599 -1.6617  0.2100
  399SOL    HW2 1197   2.539   2.863   1.776 -0.5233  1.3881  1.9315
  400SOL     OW 1198   0.252   1.576   2.269 -0.0299 -0.2306 -0.0170
  400SOL    HW1 1199   0.316   1.650   2.291  2.1029  0.2685  1.9786
  400SOL    HW2 1200   0.171   1.625   2.242 -1.2095  0.9373  1.3728
  401SOL     OW 1201   0.575   0.244   2.808  0.9436 -0.3021  0.0149
  401SOL    HW1 1202   0.543   0.279   2.899 -0.6929  0.0300 -1.6245
  401SOL    HW2 1203   0.668   0.205   2.809 -1.3435  0.5142 -0.3022
  402SOL     OW 1204   0.317   2.236   1.761 -0.2655  0.5060  0.1808
  402SOL    HW1 1205   0.394   2.196   1.708 -0.7173 -1.2852  1.4403
  402SOL    HW2 1206   0.298   2.327   1.716  0.1056  1.5731  0.7050
  403SOL     OW 1207   0.691   1.054   1.501 -0.4074  0.4292  0.0223
  403SOL    HW1 1208   0.727   0.964   1.474 -0.2983 -0.8048 -0.0597
  403SOL    HW2 1209   0.759   1.106   1.559  2.9690 -1.1353  0.5566
  404SOL     OW 1210   2.934   2.491   1.519 -0.0431 -0.3433 -0.2334
  404SOL    HW1 1211   2.879   2.558   1.464 -1.3950 -0.4842  3.1107
  404SOL    HW2 1212   3.006   2.441   1.469 -1.1037  1.7923  0.8771
  405SOL     OW 1213   3.090   0.239   1.837  0.4202 -0.5119  0.0044
  405SOL    HW1 1214   0.047   0.161   1.835 -1.4828 -0.3868  0.1470
  405SOL    HW2 1215   3.105   0.299   1.918  0.1081  0.5771  1.9296
  406SOL     OW 1216   1.678   2.539   3.058 -0.8064 -0.1665 -0.0178
  406SOL    HW1 1217   1.663   2.444   3.024  3.1708 -0.0514 -0.7191
  406SOL    HW2 1218   1.707   2.589   2.971  0.7052 -0.0295 -2.7515
  407SOL     OW 1219   1.866   1.348   1.438  0.7524  0.1362 -0.3628
  407SOL    HW1 1220   1.829   1.256   1.419 -0.0860 -0.3262 -0.1288
  407SOL    HW2 1221   1.837   1.389   1.529  0.2909 -0.1889  0.6907
  408SOL     OW 1222   0.779   0.042   2.218  0.4471  0.4737  0.2081
  408SOL    HW1 1223   0.831   0.119   2.168  2.2980  0.8190 -1.0244
  408SOL    HW2 1224   0.828   0.014   2.301  2.6655  0.9237 -1.7508
  409SOL     OW 1225   3.028   2.599   0.517  0.0174 -0.6047  0.1160
  409SOL    HW1 1226   2.990   2.508   0.502  1.0047  0.0001 -0.1957
  409SOL    HW2 1227   3.080   2.625   0.432 -2.8705 -0.6983 -0.7760
  410SOL     OW 1228   2.462   1.730   0.479 -0.1677  0.0478  0.5980
  410SOL    HW1 1229   2.501   1.647   0.435  0.2553  1.4745 -1.2651
  410SOL    HW2 1230   2.530   1.807   0.487  0.5704  0.2084  0.6621
  411SOL     OW 1231   3.081   0.598   1.061 -0.7774 -0.6031 -0.0064
  411SOL    HW1 1232   3.067   0.504   1.025 -0.2177  1.5921 -0.0758
  411SOL    HW2 1233   0.059   0.626   1.025  2.2258  0.2369 -0.9248
  412SOL     OW 1234   1.512   0.258   0.824  0.3227 -0.0832 -0.1099
  412SOL    HW1 1235   1.521   0.182   0.891  1.3587  0.9886 -2.3708
  412SOL    HW2 1236   1.446   0.330   0.862 -1.1524  2.0173  1.0972
  413SOL     OW 1237   0.832   0.345   1.012 -0.1820 -0.3414 -0.0259
  413SOL    HW1 1238   0.813   0.270   0.947  0.0649 -0.5646  0.5942
  413SOL    HW2 1239   0.817   0.314   1.110 -0.4781 -2.3822  2.3969
  414SOL     OW 1240   0.346   1.814   0.033  0.5085  0.4855 -0.0327
  414SOL    HW1 1241   0.358   1.766   3.051  1.3128 -2.1852 -1.4382
  414SOL    HW2 1242   0.308   1.744   0.098  0.4809 -0.2374 -0.8181
  415SOL     OW 1243   0.321   2.346   0.020  0.2068 -0.4587 -0.2512
  415SOL    HW1 1244   0.311   2.248   3.111 -1.0489  1.3216  0.5854
  415SOL    HW2 1245   0.268   2.404   3.067 -1.2151 -0.2562  0.3033
  416SOL     OW 1246   1.568   0.653   0.650 -0.2359 -0.2457 -0.7615
  416SOL    HW1 1247   1.551   0.618   0.554  0.7054 -0.3444 -1.8166
  416SOL    HW2 1248   1.663   0.679   0.674 -0.0041  1.6358  0.2472
  417SOL     OW 1249   0.254   0.851   0.478 -0.0140  0.5105  0.2235
  417SOL    HW1 1250   0.175   0.817   0.420 -0.3606 -0.8651  1.4966
  417SOL    HW2 1251   0.232   0.836   0.578  0.7139  0.2585 -0.4092
  418SOL     OW 1252   2.701   1.304   2.571 -0.0158  0.1797  0.4080
  418SOL    HW1 1253   2.676   1.302   2.472 -3.1475 -2.8862 -0.4182
  418SOL    HW2 1254   2.634   1.251   2.621 -3.0953  1.6358 -1.3652
  419SOL     OW 1255   0.257   0.429   3.097  0.4528  0.0861  0.4001
  419SOL    HW1 1256   0.225   0.335   0.007 -1.3702 -0.4370 -0.5760
  419SOL    HW2 1257   0.225   0.458   3.005 -1.8092  1.2259 -0.5222
  420SOL     OW 1258   0.393   1.201   0.897 -0.4788  0.4602  0.3340
  420SOL    HW1 1259   0.413   1.286   0.952 -2.0278  0.7471  2.0264
  420SOL    HW2 1260   0.297   1.190   0.875  1.7191  2.2976  1.4580
  421SOL     OW 1261   0.645   2.032   0.706 -0.3791  0.5651 -0.1155
  421SOL    HW1 1262   0.683   2.061   0.615  1.5760  0.3016  0.6321
  421SOL    HW2 1263   0.705   1.964   0.753  1.8627  0.0185  1.8379
  422SOL     OW 1264   2.780   0.763   1.455  0.0861 -0.3145 -0.3532
  422SOL    HW1 1265   2.876   0.733   1.478 -0.7323 -0.5195  0.1044
  422SOL    HW2 1266   2.746   0.711   1.370  1.7010  2.5661 -1.2840
  423SOL     OW 1267   1.724   1.538   1.306 -0.4074 -0.2614 -0.3242
  423SOL    HW1 1268   1.731   1.521   1.208 -1.3659 -0.1386  2.0944
  423SOL    HW2 1269   1.796   1.479   1.352  0.7753 -0.5310  0.0734
  424SOL     OW 1270   1.566   0.949   0.369  0.3883 -0.2501  0.7319
  424SOL    HW1 1271   1.526   0.962   0.275  0.2131  0.9856  0.8385
  424SOL    HW2 1272   1.656   0.987   0.360  0.1396  0.2732  0.6178
  425SOL     OW 1273   0.094   0.015   2.123  0.1571 -0.5667  0.2556
  425SOL    HW1 1274   0.025   0.071   2.162  1.5427  0.9302 -2.9680
  425SOL    HW2 1275   0.056   3.033   2.117 -1.1106  2.1127 -1.8337
  426SOL     OW 1276   2.447   2.851   2.515  0.0268 -0.3538 -0.5804
  426SOL    HW1 1277   2.498   2.869   2.602 -0.1751 -1.9026 -1.2826
  426SOL    HW2 1278   2.365   2.909   2.500 -1.9302  0.5714  0.3909
  427SOL     OW 1279   1.024   0.797   2.433 -0.1150  0.2176 -0.2743
  427SOL    HW1 1280   0.928   0.769   2.414  1.0655 -1.2467  0.7261
  427SOL    HW2 1281   1.079   0.713   2.456  4.5248  0.8113 -0.6113
  428SOL     OW 1282   2.296   1.033   2.162  0.6946  0.3353 -0.3128
  428SOL    HW1 1283   2.266   1.069   2.253 -1.0167  2.2864  0.0859
  428SOL    HW2 1284   2.222   1.051   2.087 -2.3220  0.1314 -0.6868
  429SOL     OW 1285   2.558   0.193   0.641  0.4250 -0.4246  0.0748
  429SOL    HW1 1286   2.584   0.197   0.546  0.9896 -2.0685  0.4016
  429SOL    HW2 1287   2.636   0.221   0.700 -0.0135 -0.5573 -0.9577
  430SOL     OW 1288   2.087   1.422   2.041 -0.3427 -0.2395 -0.1220
  430SOL    HW1 1289   2.100   1.428   2.140 -4.2324  3.7480 -1.2273
  430SOL    HW2 1290   2.093   1.331   1.998 -1.4990  4.4391 -0.8855
  431SOL     OW 1291   0.074   2.027   1.139 -0.1870  0.3387  0.4256
  431SOL    HW1 1292   3.102   2.067   1.103 -0.7308 -1.7422  0.6842
  431SOL    HW2 1293   0.050   1.960   1.210  0.9954  2.1636 -2.7053
  432SOL     OW 1294   1.552   2.922   2.308  0.4097  0.1034 -0.0588
  432SOL    HW1 1295   1.506   2.996   2.355 -0.0394  3.2664 -2.0503
  432SOL    HW2 1296   1.590   2.953   2.220 -2.2722 -1.5030 -0.5792
  433SOL     OW 1297   1.421   0.019   1.843 -0.2167 -0.7474 -0.1413
  433SOL    HW1 1298   1.359   0.004   1.763  1.1055 -1.4563  0.9995
  433SOL    HW2 1299   1.419   3.053   1.903 -0.3681  1.9325 -0.7963
  434SOL     OW 1300   0.344   2.383   2.221 -0.0062 -0.3833  0.2757
  434SOL    HW1 1301   0.241   2.372   2.217 -2.1569  0.8967 -2.8391
  434SOL    HW2 1302   0.375   2.403   2.125 -2.4010 -0.6353  1.5748
  435SOL     OW 1303   0.134   2.124   0.315  0.6770 -0.4610  0.0652
  435SOL    HW1 1304   0.235   2.116   0.290  0.9264 -1.3929 -0.1536
  435SOL    HW2 1305   0.104   2.051   0.369 -2.2293  4.8783 -2.0834
  436SOL     OW 1306   0.920   0.854   1.693 -0.3553  0.0804  0.1279
  436SOL    HW1 1307   1.003   0.803   1.662  0.2023  0.7530  0.0528
  436SOL    HW2 1308   0.831   0.821   1.648 -1.1614 -2.0618 -1.1946
  437SOL     OW 1309   0.596   0.350   2.306  0.0203 -0.5492  0.1086
  437SOL    HW1 1310   0.700   0.352   2.309 -0.9143  1.9604 -5.6606
  437SOL    HW2 1311   0.550   0.313   2.389 -0.7424 -3.0468 -0.9328
  438SOL     OW 1312   0.671   1.900   1.605 -0.3535  0.3449  0.1541
  438SOL    HW1 1313   0.744   1.948   1.661 -1.7416 -1.0739  0.7056
  438SOL    HW2 1314   0.701   1.823   1.548 -1.3313  0.7049  0.3677
  439SOL     OW 1315   1.885   0.790   0.143  0.1877  0.0379 -0.3907
  439SOL    HW1 1316   1.784   0.805   0.157  1.2141 -1.5836 -1.9426
  439SOL    HW2 1317   1.928   0.857   0.071 -1.6872  1.0151 -1.6946
  440SOL     OW 1318   0.985   0.968   0.307  0.1224 -0.1120  0.4104
  440SOL    HW1 1319   1.083   0.934   0.319  1.7407  1.0776 -2.9925
  440SOL    HW2 1320   0.924   0.920   0.369  1.2318 -0.2192 -1.9214
  441SOL     OW 1321   0.619   2.385   1.709  0.2672  0.1471  0.2326
  441SOL    HW1 1322   0.673   2.383   1.798 -0.6641  1.7218 -0.5301
  441SOL    HW2 1323   0.601   2.291   1.671 -0.8859 -2.0618  3.8375
  442SOL     OW 1324   2.855   2.194   0.703  0.0928  0.0086 -0.1648
  442SOL    HW1 1325   2.885   2.266   0.772  0.0900  0.0718 -1.7893
  442SOL    HW2 1326   2.758   2.168   0.708  0.3448 -0.8122 -1.6272
  443SOL     OW 1327   2.775   1.986   2.745  0.0411 -0.6299 -0.1967
  443SOL    HW1 1328   2.769   2.057   2.672  0.7545  2.0281 -1.0796
  443SOL    HW2 1329   2.866   1.937   2.735 -1.7315 -1.7625  1.7600
  444SOL     OW 1330   1.319   1.100   0.224  0.4524  0.6179  0.3044
  444SOL    HW1 1331   1.285   1.009   0.253  2.6396 -0.6980 -0.2910
  444SOL    HW2 1332   1.300   1.177   0.285  1.1213  1.5779  0.2156
  445SOL     OW 1333   2.613   2.697   1.765 -0.0493 -0.0738  0.3151
  445SOL    HW1 1334   2.710   2.719   1.753 -1.8594  2.8637 -0.3437
  445SOL    HW2 1335   2.606   2.617   1.824  2.8065 -2.1051  4.3104
  446SOL     OW 1336   2.854   1.209   0.321  0.7687  0.1619 -0.2161
  446SOL    HW1 1337   2.906   1.171   0.398  0.4486  2.8066 -0.1820
  446SOL    HW2 1338   2.911   1.221   0.236  0.7035 -0.1430  1.1518
  447SOL     OW 1339   1.056   2.493   1.485  0.4482 -0.0458  0.0363
  447SOL    HW1 1340   0.979   2.550   1.520  0.6617 -0.3727 -0.8850
  447SOL    HW2 1341   1.051   2.494   1.384 -0.0346  0.6655  0.3737
  448SOL     OW 1342   1.534   1.416   1.651 -0.6939 -0.4316  0.4608
  448SOL    HW1 1343   1.513   1.457   1.744 -0.6852 -0.8626 -0.9362
  448SOL    HW2 1344   1.441   1.398   1.612  0.2968  1.5613  1.5522
  449SOL     OW 1345   0.065   2.362   2.254 -0.6382  0.5235 -0.1872
  449SOL    HW1 1346   3.097   2.361   2.316  0.1981 -0.8411 -1.6120
  449SOL    HW2 1347   0.040   2.385   2.155  0.5094 -1.4658  0.0670
  450SOL     OW 1348   0.044   1.852   2.165 -0.2387 -0.1455  0.5123
  450SOL    HW1 1349   0.068   1.948   2.185 -3.4327  0.0232 -0.0685
  450SOL    HW2 1350   0.060   1.820   2.066 -4.0220 -0.5332 -0.1264
  451SOL     OW 1351   2.140   0.615   1.700 -0.1652  0.3748  0.5382
  451SOL    HW1 1352   2.192   0.671   1.635  0.3330 -1.1925 -1.2207
  451SOL    HW2 1353   2.169   0.628   1.799 -1.2843 -0.3243  1.0576
  452SOL     OW 1354   1.016   1.323   0.875  0.3771 -0.2116 -0.4426
  452SOL    HW1 1355   1.097   1.381   0.861 -0.8410  1.5195  3.2666
  452SOL    HW2 1356   0.934   1.369   0.845  0.4833 -0.3997 -3.0050
  453SOL     OW 1357   1.266   2.154   0.669 -0.4865  0.1616  0.3213
  453SOL    HW1 1358   1.325   2.225   0.708 -2.3591 -0.9170 -1.5820
  453SOL    HW2 1359   1.291   2.125   0.576  0.3407  1.5150 -2.2150
  454SOL     OW 1360   0.133   1.405   0.265 -0.0568 -0.0090  0.0656
  454SOL    HW1 1361   0.082   1.324   0.286 -0.6950  1.1168  0.9556
  454SOL    HW2 1362   0.209   1.386   0.201 -3.6854  0.5265  1.4092
  455SOL     OW 1363   1.039   1.218   0.335 -0.2220  0.1885 -0.0624
  455SOL    HW1 1364   1.028   1.116   0.327 -1.5940 -1.6496 -2.3539
  455SOL    HW2 1365   1.120   1.247   0.388  1.7915 -0.5125 -0.5544
  456SOL     OW 1366   1.880   2.724   0.842  0.6201  0.2059 -0.4872
  456SOL    HW1 1367   1.884   2.757   0.746 -0.6512  0.2114 -1.3782
  456SOL    HW2 1368   1.892   2.623   0.846 -2.6067 -0.8390 -3.3371
  457SOL     OW 1369   1.518   2.992   3.039  0.0592 -0.5818  0.3809
  457SOL    HW1 1370   1.592   3.056   3.056  0.9798 -1.2013 -0.8739
  457SOL    HW2 1371   1.448   2.997   0.003 -0.0748 -0.4031  0.6317
  458SOL     OW 1372   2.492   0.633   0.302 -0.3054 -0.1977 -0.0452
  458SOL    HW1 1373   2.394   0.632   0.313 -0.2384 -0.2482  0.1663
  458SOL    HW2 1374   2.530   0.725   0.325 -3.0471  0.1517 -0.1254
  459SOL     OW 1375   2.309   0.424   2.330 -0.2232 -0.7071 -0.3798
  459SOL    HW1 1376   2.277   0.414   2.232 -3.1857 -2.2584 -0.9422
  459SOL    HW2 1377   2.396   0.479   2.331 -0.8006 -1.4495 -3.1771
  460SOL     OW 1378   2.766   0.648   2.810 -0.4043 -0.3118  0.5221
  460SOL    HW1 1379   2.788   0.599   2.896 -1.9474 -0.6331  2.7642
  460SOL    HW2 1380   2.682   0.708   2.819 -3.2223 -0.8234 -2.2498
  461SOL     OW 1381   0.126   2.370   0.823  0.2085 -0.4802 -0.0785
  461SOL    HW1 1382   0.190   2.360   0.904  1.8658 -0.9933 -0.6080
  461SOL    HW2 1383   0.155   2.301   0.757  0.2182  0.8373  2.0571
  462SOL     OW 1384   2.930   2.688   1.314 -0.6551 -0.0489 -0.3160
  462SOL    HW1 1385   2.893   2.784   1.314  0.1023 -0.5678 -1.4544
  462SOL    HW2 1386   3.032   2.701   1.329 -0.7086 -0.3631  3.6916
  463SOL     OW 1387   2.368   1.767   2.940  0.2940 -0.2659  0.3409
  463SOL    HW1 1388   2.359   1.846   2.878 -1.4372 -0.5131  1.9134
  463SOL    HW2 1389   2.416   1.683   2.896  0.0050  0.0638 -0.5261
  464SOL     OW 1390   0.825   2.564   1.636  0.3952  0.2135 -0.0506
  464SOL    HW1 1391   0.753   2.494   1.652  0.1163  1.3416  0.6931
  464SOL    HW2 1392   0.859   2.613   1.724 -1.3895 -0.0851  1.8258
  465SOL     OW 1393   1.066   0.053   1.609  0.2665  0.0329  0.3173
  465SOL    HW1 1394   1.159   0.018   1.591  2.8462  0.2225  0.6570
  465SOL    HW2 1395   1.055   0.116   1.687  0.0066 -0.0896  1.6167
  466SOL     OW 1396   1.613   2.650   1.871 -0.3107  0.0184 -0.0651
  466SOL    HW1 1397   1.712   2.666   1.888  1.6918 -0.0361 -1.4438
  466SOL    HW2 1398   1.556   2.677   1.954  3.9782 -0.7738  1.6842
  467SOL     OW 1399   0.882   2.158   1.463 -0.1676 -0.1923  0.2772
  467SOL    HW1 1400   0.785   2.163   1.439 -0.1585 -2.5266 -0.4280
  467SOL    HW2 1401   0.893   2.187   1.560 -0.2908 -0.0164  0.6443
  468SOL     OW 1402   2.699   1.587   2.222  0.1402 -0.8039 -0.4731
  468SOL    HW1 1403   2.776   1.623   2.273 -1.8101 -1.3492 -0.7537
  468SOL    HW2 1404   2.673   1.495   2.246  0.4848 -2.6937 -1.0821
  469SOL     OW 1405   0.797   1.843   0.846  0.0134 -0.2794  0.0873
  469SOL    HW1 1406   0.757   1.909   0.914 -0.9987  0.1720  1.1495
  469SOL    HW2 1407   0.883   1.799   0.882  0.9736  0.1979 -2.0946
  470SOL     OW 1408   1.910   1.638   2.020  0.4051  0.7254 -0.7727
  470SOL    HW1 1409   1.989   1.618   2.084  0.6723 -1.3308 -1.4430
  470SOL    HW2 1410   1.826   1.610   2.064  0.3021  0.2245  1.0976
  471SOL     OW 1411   0.613   2.445   3.029 -0.3164  0.1294  0.1563
  471SOL    HW1 1412   0.517   2.473   3.015  0.7464  0.7634  0.6995
  471SOL    HW2 1413   0.629   2.397   0.008  0.3332 -1.3677 -0.1291
  472SOL     OW 1414   3.103   2.716   1.929 -0.5047  0.4133 -0.5283
  472SOL    HW1 1415   3.066   2.767   2.004  0.3088 -1.3012 -1.3753
  472SOL    HW2 1416   0.088   2.740   1.921 -2.6369 -1.1590 -0.3092
  473SOL     OW 1417   0.756   2.665   0.106 -0.4661  0.5078 -0.6549
  473SOL    HW1 1418   0.742   2.582   0.164  0.1212  3.4950  0.4455
  473SOL    HW2 1419   0.723   2.643   0.010 -0.0708 -0.5540 -0.9961
  474SOL     OW 1420   2.623   2.713   1.091 -1.0598  0.1295  0.1608
  474SOL    HW1 1421   2.552   2.659   1.043  1.0164  0.8565 -0.9513
  474SOL    HW2 1422   2.669   2.780   1.024  0.0177  1.0051 -0.1186
  475SOL     OW 1423   1.935   3.022   1.780 -0.4356  0.1930  0.5771
  475SOL    HW1 1424   1.976   2.929   1.763  0.1176  0.6782 -3.1694
  475SOL    HW2 1425   1.832   3.021   1.767 -0.1550 -0.1894  0.4169
  476SOL     OW 1426   0.611   1.182   0.745  0.1313 -0.1205  0.0429
  476SOL    HW1 1427   0.531   1.190   0.804  0.7451 -0.5660 -3.6140
  476SOL    HW2 1428   0.664   1.097   0.759 -0.0499 -1.6921  0.4452
  477SOL     OW 1429   0.386   1.901   0.645 -0.4486  0.5845  0.2193
  477SOL    HW1 1430   0.483   1.912   0.664  1.1198  0.6317 -0.5693
  477SOL    HW2 1431   0.378   1.898   0.543  1.9218 -0.5349 -1.8396
  478SOL     OW 1432   2.950   2.620   2.334 -0.3085  0.2854  0.4024
  478SOL    HW1 1433   2.896   2.705   2.336  1.7206  0.7473  0.2715
  478SOL    HW2 1434   3.022   2.612   2.408 -0.6258 -1.2799 -0.1091
  479SOL     OW 1435   0.002   0.227   1.572 -0.3791  0.2319 -0.0316
  479SOL    HW1 1436   3.094   0.247   1.672  0.3042  0.4936  0.9951
  479SOL    HW2 1437   0.038   0.312   1.525 -0.6420  3.0858 -0.0340
  480SOL     OW 1438   2.873   2.498   0.100  0.0489  0.3514 -0.0919
  480SOL    HW1 1439   2.874   2.402   0.136  0.8359 -1.3714  2.9432
  480SOL    HW2 1440   2.787   2.543   0.129 -1.1948  0.0876  0.1437
  481SOL     OW 1441   2.295   2.180   1.630  0.4286 -0.2587 -0.1806
  481SOL    HW1 1442   2.236   2.104   1.653 -0.2423  2.6304 -2.2325
  481SOL    HW2 1443   2.274   2.205   1.535  1.6332  1.9804  0.0070
  482SOL     OW 1444   1.825   2.266   2.657 -0.2031 -0.2279  0.1130
  482SOL    HW1 1445   1.772   2.182   2.647  0.8328  0.0678  0.5428
  482SOL    HW2 1446   1.828   2.321   2.566  1.1804 -0.2162 -2.9117
  483SOL     OW 1447   0.724   1.650   2.395  0.1925 -0.4389  0.2868
  483SOL    HW1 1448   0.726   1.571   2.458 -0.9060 -1.4554 -4.7145
  483SOL    HW2 1449   0.792   1.638   2.323 -0.5166  0.9220  2.1146
  484SOL     OW 1450   0.118   0.472   1.472 -0.1344  0.0799  0.7194
  484SOL    HW1 1451   0.063   0.533   1.415 -0.9869 -1.1008 -0.7583
  484SOL    HW2 1452   0.116   0.492   1.571  1.4672 -0.2694 -1.2452
  485SOL     OW 1453   2.134   1.027   0.450  0.2335 -0.4534 -0.2862
  485SOL    HW1 1454   2.149   1.104   0.387 -0.6593 -0.9155  3.0547
  485SOL    HW2 1455   2.082   1.060   0.537 -1.4590  1.9541  0.4288
  486SOL     OW 1456   1.429   0.120   2.254  0.0672 -0.3716 -0.0708
  486SOL    HW1 1457   1.388   0.176   2.173  2.1212 -0.6528 -3.7775
  486SOL    HW2 1458   1.517   0.166   2.285  0.6021  1.9605 -0.4793
  487SOL     OW 1459   0.927   1.886   1.472  0.5692  0.1764  0.2339
  487SOL    HW1 1460   0.978   1.880   1.384 -0.5798  0.3273 -0.4941
  487SOL    HW2 1461   0.909   1.986   1.489 -1.3782  0.8677 -1.4585
  488SOL     OW 1462   2.353   1.334   0.008 -0.0357 -0.0243  0.3307
  488SOL    HW1 1463   2.448   1.338   3.085  1.8452  1.2601  0.9523
  488SOL    HW2 1464   2.330   1.429   0.036  2.6136  1.2527  1.1902
  489SOL     OW 1465   2.325   0.029   0.552 -0.4062 -0.0405 -0.3186
  489SOL    HW1 1466   2.292   3.069   0.616  1.0817  0.9662 -1.5701
  489SOL    HW2 1467   2.327   0.120   0.595  1.0936  0.2691 -2.1206
  490SOL     OW 1468   1.165   2.743   3.043  0.0859  0.4369 -0.3828
  490SOL    HW1 1469   1.236   2.682   3.086  1.5284 -0.3446  2.4680
  490SOL    HW2 1470   1.100   2.773   3.111  3.0521 -0.7092 -0.1963
  491SOL     OW 1471   1.254   1.090   0.921  0.3347 -0.3341  0.7376
  491SOL    HW1 1472   1.315   1.081   1.002 -0.8313 -1.1668  0.7145
  491SOL    HW2 1473   1.175   1.026   0.928 -0.4842 -0.0245  2.8279
  492SOL     OW 1474   1.366   0.346   2.718 -0.4860 -0.2489  0.4420
  492SOL    HW1 1475   1.424   0.262   2.709 -0.0984 -2.9087  3.2357
  492SOL    HW2 1476   1.401   0.403   2.796  1.2512  0.4281  1.6280
  493SOL     OW 1477   1.792   2.035   0.122 -0.1364 -0.0403  0.2790
  493SOL    HW1 1478   1.832   2.111   0.183  0.5520 -0.7938  0.9170
  493SOL    HW2 1479   1.873   1.999   0.063  1.0743 -1.4382 -2.9833
  494SOL     OW 1480   0.513   1.216   0.478 -0.1351  0.3174 -0.2345
  494SOL    HW1 1481   0.471   1.310   0.472 -0.3004 -0.4583  1.3570
  494SOL    HW2 1482   0.535   1.198   0.575 -0.1258  1.4728  0.5837
  495SOL     OW 1483   0.098   2.664   0.703 -0.1296  0.1858 -0.3331
  495SOL    HW1 1484   0.128   2.579   0.753  0.4743 -3.7548 -0.0723
  495SOL    HW2 1485   0.027   2.647   0.631  0.3397  0.2885  1.2537
  496SOL     OW 1486   2.686   0.289   1.624 -0.0923  0.0104 -0.0784
  496SOL    HW1 1487   2.734   0.309   1.541 -0.4734 -1.3368  4.7291
  496SOL    HW2 1488   2.738   0.216   1.674 -1.9911  1.0389 -0.1297
  497SOL     OW 1489   2.276   1.389   2.459  0.2107  0.1466 -0.5263
  497SOL    HW1 1490   2.273   1.445   2.546 -1.1492 -1.4294 -0.4455
  497SOL    HW2 1491   2.202   1.423   2.397  0.6761  1.0328  0.5316
  498SOL     OW 1492   0.707   2.025   1.047  0.3597 -0.4016  0.1811
  498SOL    HW1 1493   0.666   2.100   0.989  0.0572  0.6948 -2.0524
  498SOL    HW2 1494   0.642   1.978   1.108 -0.2471 -1.9138 -1.2946
  499SOL     OW 1495   0.946   2.274   1.690 -0.2972  0.3858 -0.1767
  499SOL    HW1 1496   0.899   2.319   1.766  1.0689  0.5429 -0.8273
  499SOL    HW2 1497   1.008   2.344   1.644 -2.4051 -1.7066 -3.1231
  500SOL     OW 1498   1.046   2.023   0.196  0.2520  0.2162  0.0782
  500SOL    HW1 1499   0.989   1.978   0.265  0.6738  0.8739  0.9482
  500SOL    HW2 1500   1.131   1.966   0.175  1.1217 -0.6478  1.6623
  501SOL     OW 1501   2.548   2.809   1.354 -0.1171 -0.9625 -0.1437
  501SOL    HW1 1502   2.453   2.834   1.321 -2.2554 -0.9616 -0.3919
  501SOL    HW2 1503   2.606   2.781   1.274 -0.3732 -1.7561  0.5753
  502SOL     OW 1504   2.872   0.440   1.735  0.5469  0.6768 -0.7293
  502SOL    HW1 1505   2.924   0.363   1.778  2.3361 -4.0847  0.8678
  502SOL    HW2 1506   2.792   0.403   1.681 -1.0528 -0.8005  0.1536
  503SOL     OW 1507   2.725   1.077   1.897  0.3420  0.2672  0.1685
  503SOL    HW1 1508   2.732   1.103   1.994  1.0929 -3.3913  0.3368
  503SOL    HW2 1509   2.757   1.155   1.835  0.9085  0.7121  2.1094
  504SOL     OW 1510   1.330   0.683   1.738  0.3571  0.4422 -0.5948
  504SOL    HW1 1511   1.404   0.631   1.691 -3.0146  2.5430 -0.2027
  504SOL    HW2 1512   1.332   0.783   1.714 -1.0344  0.1243  2.1898
  505SOL     OW 1513   0.685   2.913   2.103  0.0461 -0.4804 -0.3953
  505SOL    HW1 1514   0.726   2.832   2.145 -0.5052  1.0226 -0.3404
  505SOL    HW2 1515   0.724   2.999   2.139 -0.4020 -2.4998 -0.6641
  506SOL     OW 1516   0.016   0.361   0.907 -0.4847  0.1678  0.3701
  506SOL    HW1 1517   0.013   0.371   0.806 -1.6431  0.0310  1.3690
  506SOL    HW2 1518   0.084   0.295   0.939  1.2326  1.3802 -1.1774
  507SOL     OW 1519   1.646   0.410   2.989 -0.0435  0.0584 -0.0239
  507SOL    HW1 1520   1.707   0.349   2.935  0.7637 -0.2919 -0.7650
  507SOL    HW2 1521   1.604   0.359   3.069  0.1834 -3.3006  0.0288
  508SOL     OW 1522   1.696   0.147   2.428 -0.0297  0.8637 -0.4431
  508SOL    HW1 1523   1.678   0.242   2.448 -1.2964 -0.5104  2.4158
  508SOL    HW2 1524   1.783   0.115   2.469 -2.1888  1.4831 -1.7921
  509SOL     OW 1525   0.766   1.227   1.953 -0.2517  0.4470 -0.3832
  509SOL    HW1 1526   0.804   1.316   1.980 -1.7463 -1.0438  3.4895
  509SOL    HW2 1527   0.762   1.165   2.037 -1.3585  2.8833 -0.3702
  510SOL     OW 1528   2.987   1.009   0.849  0.5417  0.2202  0.0972
  510SOL    HW1 1529   2.990   0.937   0.919 -0.0944  0.6594  0.2235
  510SOL    HW2 1530   2.899   1.055   0.851  1.7993  0.1792  1.0721
  511SOL     OW 1531   2.038   2.123   1.024 -0.2706  0.2392  0.5083
  511SOL    HW1 1532   1.997   2.197   1.081  0.0868  0.9355 -1.9913
  511SOL    HW2 1533   2.143   2.133   1.020  2.0933  3.0875  0.4448
  512SOL     OW 1534   0.134   1.640   0.464  0.4008 -0.7620  0.5320
  512SOL    HW1 1535   0.148   1.567   0.394  0.1895 -1.5701 -0.5227
  512SOL    HW2 1536   0.133   1.597   0.556 -0.5415  0.1347  0.6952
  513SOL     OW 1537   0.101   2.354   0.442  0.0229  0.1080 -0.0323
  513SOL    HW1 1538   0.112   2.291   0.362 -0.2353 -0.5487 -1.3395
  513SOL    HW2 1539   0.002   2.365   0.463 -1.4742  3.0622 -0.2105
  514SOL     OW 1540   2.331   1.947   2.734 -0.4046 -0.4729 -0.1708
  514SOL    HW1 1541   2.340   2.047   2.713 -0.3220  3.4957  0.8057
  514SOL    HW2 1542   2.239   1.915   2.702  1.6685  0.4415 -0.4442
  515SOL     OW 1543   2.137   1.289   0.294  0.3052  0.2732 -0.3074
  515SOL    HW1 1544   2.156   1.234   0.213 -1.2596  0.3701 -1.2982
  515SOL    HW2 1545   2.222   1.299   0.359  4.6625  0.6831  2.7757
  516SOL     OW 1546   1.950   3.002   0.391 -0.6470 -0.1076 -0.2022
  516SOL    HW1 1547   1.982   3.054   0.475 -1.6610 -1.3172 -1.4520
  516SOL    HW2 1548   2.031   2.960   0.345  1.5478 -1.6507  0.3167
  517SOL     OW 1549   1.006   2.110   2.811  0.2098 -0.0756 -0.5984
  517SOL    HW1 1550   1.015   2.129   2.911 -0.4785  0.2201  0.2312
  517SOL    HW2 1551   0.907   2.101   2.775 -0.0560 -0.7558  1.0857
  518SOL     OW 1552   0.604   0.537   1.875  0.0873 -0.1373 -0.4110
  518SOL    HW1 1553   0.683   0.487   1.904 -0.7481  0.7361  0.0497
  518SOL    HW2 1554   0.588   0.608   1.946 -1.1101  2.2933  1.4966
  519SOL     OW 1555   2.993   1.305   0.085  0.2040 -0.2657  0.0479
  519SOL    HW1 1556   3.015   1.409   0.105  2.3402  2.9443  0.2531
  519SOL    HW2 1557   3.021   1.280   3.100  0.2797  1.9999  0.0215
  520SOL     OW 1558   2.572   2.164   1.587 -0.1049  0.7370 -0.3502
  520SOL    HW1 1559   2.480   2.192   1.628 -0.4563  1.2900 -1.9035
  520SOL    HW2 1560   2.643   2.238   1.603 -0.1066  1.1906 -0.9973
  521SOL     OW 1561   0.638   2.566   1.974  0.7191 -0.3892 -0.0350
  521SOL    HW1 1562   0.678   2.571   2.067 -0.1818  0.1372 -1.9911
  521SOL    HW2 1563   0.557   2.507   1.961  1.4786 -0.6278 -1.2201
  522SOL     OW 1564   1.766   0.102   2.162  0.1974  0.1392  0.3513
  522SOL    HW1 1565   1.855   0.070   2.185 -2.9697 -1.5770 -0.3836
  522SOL    HW2 1566   1.722   0.134   2.245 -0.1162  1.7093 -0.9593
  523SOL     OW 1567   1.980   1.959   1.211  0.3316 -0.2857 -0.8798
  523SOL    HW1 1568   2.061   1.947   1.271  1.2294  2.0660 -0.6411
  523SOL    HW2 1569   1.990   2.025   1.134 -0.8102 -0.1853  0.7011
  524SOL     OW 1570   0.760   2.429   0.263 -0.0934 -0.1976 -0.8559
  524SOL    HW1 1571   0.849   2.443   0.305 -1.0937 -2.3189  2.3200
  524SOL    HW2 1572   0.696   2.392   0.332  1.9205  0.3341 -2.1764
  525SOL     OW 1573   2.859   0.330   0.299  0.1668 -0.2198  0.4362
  525SOL    HW1 1574   2.821   0.423   0.272 -0.5136  3.7506  0.3158
  525SOL    HW2 1575   2.948   0.326   0.249 -2.2375  2.4462 -1.2066
  526SOL     OW 1576   0.724   3.076   0.633  0.0516 -0.5157 -0.1284
  526SOL    HW1 1577   0.763   2.997   0.678 -2.3332 -0.4944  0.6552
  526SOL    HW2 1578   0.651   3.043   0.567 -0.3152  1.0311  0.9689
  527SOL     OW 1579   2.667   1.849   0.897 -0.0474 -0.2622  0.3508
  527SOL    HW1 1580   2.735   1.785   0.933  2.2524 -0.5471  1.3331
  527SOL    HW2 1581   2.689   1.943   0.933  2.5053 -1.8434 -1.8482
  528SOL     OW 1582   2.761   0.504   2.416  0.6023  0.0795 -0.0784
  528SOL    HW1 1583   2.860   0.515   2.386  1.5135 -0.5523 -3.3667
  528SOL    HW2 1584   2.709   0.437   2.362 -1.7065 -1.5318  0.0749
  529SOL     OW 1585   1.212   1.497   2.499  0.0886  0.0363 -0.2006
  529SOL    HW1 1586   1.314   1.476   2.502  0.0487  1.3009 -0.6023
  529SOL    HW2 1587   1.184   1.564   2.573 -0.8979  0.1111 -1.8617
  530SOL     OW 1588   1.936   1.226   2.306  0.1456 -0.0641  0.0643
  530SOL    HW1 1589   1.857   1.182   2.263 -0.1371 -0.8299 -0.4179
  530SOL    HW2 1590   2.019   1.196   2.255 -2.5342  1.5972  1.2607
  531SOL     OW 1591   0.789   1.856   2.545  0.2801 -0.1879  0.1859
  531SOL    HW1 1592   0.758   1.786   2.481  0.9681  0.1358  2.6742
  531SOL    HW2 1593   0.789   1.822   2.639 -2.2035  0.2343 -0.0884
  532SOL     OW 1594   1.933   1.369   0.469  0.3314 -0.2070 -0.2487
  532SOL    HW1 1595   1.984   1.301   0.417  0.4524 -2.1612  1.7867
  532SOL    HW2 1596   1.972   1.466   0.461  1.9532 -1.7646 -1.1692
  533SOL     OW 1597   0.437   0.135   1.846 -0.8243 -0.5286 -0.1173
  533SOL    HW1 1598   0.472   0.130   1.748  2.9766  0.6093 -0.4151
  533SOL    HW2 1599   0.339   0.111   1.856 -2.1491  1.2436 -0.3908
  534SOL     OW 1600   0.717   2.938   3.014  0.4845 -0.0564 -0.2866
  534SOL    HW1 1601   0.632   2.930   3.069  0.3069 -0.7313 -0.8007
  534SOL    HW2 1602   0.786   2.997   3.061  0.8365  0.5976  0.1245
  535SOL     OW 1603   0.123   0.122   0.509 -0.4445 -0.2412 -0.5656
  535SOL    HW1 1604   0.154   0.186   0.431  0.2493  0.1373 -3.4965
  535SOL    HW2 1605   0.166   0.035   0.492 -0.7215  0.0666  0.7497
  536SOL     OW 1606   0.402   1.429   1.713 -0.1735  0.0237  0.4502
  536SOL    HW1 1607   0.367   1.334   1.696 -1.8427 -3.0493 -0.2169
  536SOL    HW2 1608   0.456   1.455   1.633 -1.0467  0.2490  0.0071
  537SOL     OW 1609   0.974   2.691   1.828 -0.6898 -0.3272 -0.0202
  537SOL    HW1 1610   0.939   2.786   1.816  1.9267  3.2151  0.5161
  537SOL    HW2 1611   1.076   2.693   1.832  0.4482  0.6502 -1.4231
  538SOL     OW 1612   0.053   1.905   0.450  0.3078 -0.0067  0.1113
  538SOL    HW1 1613   0.097   1.810   0.454  1.4179  0.1872  1.5138
  538SOL    HW2 1614   0.004   1.924   0.535 -0.9150 -2.0538 -1.6891
  539SOL     OW 1615   2.950   1.225   2.665 -0.1792 -0.3327 -0.0339
  539SOL    HW1 1616   2.986   1.260   2.753  0.1143  0.3845 -0.2632
  539SOL    HW2 1617   2.866   1.266   2.632  1.9444 -1.3764 -0.8437
  540SOL     OW 1618   1.810   1.069   1.954  0.3376  0.0313  0.2963
  540SOL    HW1 1619   1.840   0.972   1.933 -3.1517 -1.2828  1.0978
  540SOL    HW2 1620   1.768   1.111   1.874 -1.3502 -1.6021  0.2250
  541SOL     OW 1621   0.835   0.737   1.929 -0.6469  0.5572 -0.3691
  541SOL    HW1 1622   0.746   0.762   1.972  0.6365  2.7484 -0.2707
  541SOL    HW2 1623   0.859   0.798   1.850  2.0429  0.6462 -0.5681
  542SOL     OW 1624   2.069   0.352   2.968  0.0963  0.3621 -0.4122
  542SOL    HW1 1625   2.033   0.415   3.041  1.0053  1.7888  1.2718
  542SOL    HW2 1626   2.164   0.373   2.943 -1.8341 -0.8217  2.3478
  543SOL     OW 1627   0.948   3.087   3.094 -0.1037 -0.2924  0.7888
  543SOL    HW1 1628   0.931   0.071   0.007  0.4726 -2.5664 -1.5832
  543SOL    HW2 1629   1.003   3.078   3.009 -2.3814  0.8231 -1.5058
  544SOL     OW 1630   2.840   1.496   1.919  0.2742 -0.2266 -0.1845
  544SOL    HW1 1631   2.902   1.455   1.989  1.6811 -3.1046 -2.0491
  544SOL    HW2 1632   2.781   1.419   1.890  3.9368  1.3287  1.0909
  545SOL     OW 1633   1.948   2.526   1.817  0.2277  0.2764 -0.0337
  545SOL    HW1 1634   1.881   2.472   1.870  2.2175  1.1118 -0.0158
  545SOL    HW2 1635   1.982   2.469   1.740  0.6378 -0.2554 -1.7301
  546SOL     OW 1636   0.171   0.100   2.695  0.1484  0.4187 -0.7307
  546SOL    HW1 1637   0.115   0.022   2.655 -1.0917 -2.0328 -1.6158
  546SOL    HW2 1638   0.260   0.067   2.733  2.1738 -3.1774 -1.1475
  547SOL     OW 1639   1.723   1.161   0.978 -0.0469 -0.0586  0.0712
  547SOL    HW1 1640   1.662   1.176   0.899 -0.6095  2.8800  1.5444
  547SOL    HW2 1641   1.700   1.076   1.032  0.0556  1.6071 -1.4139
  548SOL     OW 1642   1.967   1.894   2.439  0.4172  0.4353 -0.4045
  548SOL    HW1 1643   1.910   1.927   2.361 -1.6780 -3.7907  0.1358
  548SOL    HW2 1644   2.067   1.912   2.433 -0.8672 -2.1452 -0.1354
  549SOL     OW 1645   2.213   0.402   0.497 -0.0704 -0.3972 -0.0562
  549SOL    HW1 1646   2.115   0.430   0.523  0.7169 -0.7801  2.7095
  549SOL    HW2 1647   2.254   0.370   0.580 -0.2382  1.3232 -3.8403
  550SOL     OW 1648   2.297   1.798   0.714 -0.0873 -0.0586 -0.4082
  550SOL    HW1 1649   2.365   1.758   0.648 -1.2971  0.6910 -0.2547
  550SOL    HW2 1650   2.230   1.724   0.736 -1.8663 -1.5714  1.0283
  551SOL     OW 1651   0.916   2.576   2.057 -0.8391 -0.6591 -0.3532
  551SOL    HW1 1652   0.941   2.623   1.967  1.0095 -1.1747 -1.3037
  551SOL    HW2 1653   0.887   2.645   2.133 -1.4397 -0.5976  3.1073
  552SOL     OW 1654   0.131   2.344   2.575 -0.0291 -0.1550 -0.3132
  552SOL    HW1 1655   0.046   2.301   2.615 -2.1158 -3.2144  2.2461
  552SOL    HW2 1656   0.142   2.341   2.475  0.9820 -0.8005 -3.8196
  553SOL     OW 1657   0.151   0.097   0.870  0.5482  0.0253 -0.6537
  553SOL    HW1 1658   0.212   0.029   0.832 -1.6386  4.3043  0.9405
  553SOL    HW2 1659   0.126   0.077   0.966  1.0282 -2.2619  1.8058
  554SOL     OW 1660   2.282   2.265   1.894  0.2219 -0.0713  0.3980
  554SOL    HW1 1661   2.299   2.288   1.798 -1.6846  2.0061  0.4438
  554SOL    HW2 1662   2.258   2.170   1.908  0.2809 -0.2310  1.9024
  555SOL     OW 1663   1.566   2.380   1.867  0.0266 -0.0317  0.0581
  555SOL    HW1 1664   1.566   2.355   1.766  2.5008 -0.3146 -0.9600
  555SOL    HW2 1665   1.561   2.481   1.888 -2.3828 -0.5652 -1.1513
  556SOL     OW 1666   1.309   1.687   1.470  0.0945 -0.2761 -0.3493
  556SOL    HW1 1667   1.303   1.709   1.572  2.7970  1.6988  1.1985
  556SOL    HW2 1668   1.403   1.703   1.434  0.8085  1.4540  1.3834
  557SOL     OW 1669   1.907   2.394   2.416 -0.6833  0.0456 -0.0834
  557SOL    HW1 1670   1.951   2.332   2.350 -1.4017  0.2712  0.2560
  557SOL    HW2 1671   1.864   2.467   2.369  2.4396 -3.3297  1.1227
  558SOL     OW 1672   0.595   2.781   1.796  0.2866  0.0122 -0.4510
  558SOL    HW1 1673   0.589   2.705   1.864 -2.1102  2.1227 -1.0442
  558SOL    HW2 1674   0.581   2.871   1.842 -0.3673 -0.9260  1.2499
  559SOL     OW 1675   2.260   2.963   0.747  0.3934  0.1861 -0.3039
  559SOL    HW1 1676   2.237   2.875   0.700 -0.3026 -1.3154 -0.5945
  559SOL    HW2 1677   2.242   2.963   0.849  0.3543 -0.7274  0.7750
  560SOL     OW 1678   1.947   2.428   0.574  0.3984 -0.0941  0.4260
  560SOL    HW1 1679   1.937   2.462   0.667  2.6192 -0.1452 -0.2866
  560SOL    HW2 1680   1.989   2.332   0.570  0.5987 -1.5858  0.1367
  561SOL     OW 1681   1.040   0.359   0.583 -0.3281 -0.2338 -0.3569
  561SOL    HW1 1682   1.096   0.393   0.507  0.5143 -0.7148 -1.0998
  561SOL    HW2 1683   0.971   0.287   0.556 -2.7312 -2.7636 -1.3357
  562SOL     OW 1684   0.782   0.686   2.668  0.6695 -0.0023 -0.8236
  562SOL    HW1 1685   0.854   0.654   2.729 -3.1740 -0.3741  1.4067
  562SOL    HW2 1686   0.801   0.678   2.568 -1.6124  1.7196  0.7623
  563SOL     OW 1687   1.790   1.611   2.912  0.5073  0.2889  0.5675
  563SOL    HW1 1688   1.755   1.708   2.923 -3.6017  3.0454  1.1380
  563SOL    HW2 1689   1.890   1.603   2.907 -1.9635 -0.5408  1.3217
  564SOL     OW 1690   2.521   1.227   1.334  0.0312 -0.4083 -0.7042
  564SOL    HW1 1691   2.542   1.200   1.434  0.0514 -0.0249  3.5112
  564SOL    HW2 1692   2.556   1.156   1.273  2.5336 -0.1416  0.9123
  565SOL     OW 1693   0.943   0.523   2.886  0.2603  0.3357 -0.2121
  565SOL    HW1 1694   1.024   0.482   2.935 -0.9655  1.2452 -0.6411
  565SOL    HW2 1695   0.857   0.517   2.945 -0.5903  0.5113 -0.2607
  566SOL     OW 1696   2.173   0.463   2.561  0.1854  0.0384  0.1456
  566SOL    HW1 1697   2.230   0.451   2.480  0.5726  2.2831  2.8029
  566SOL    HW2 1698   2.156   0.376   2.613  2.9273 -0.3087  0.4851
  567SOL     OW 1699   2.204   1.742   0.369 -0.3593 -0.0741  0.2859
  567SOL    HW1 1700   2.302   1.749   0.393  0.8255  1.2686 -1.1270
  567SOL    HW2 1701   2.185   1.799   0.286  0.3276  0.7965 -1.2655
  568SOL     OW 1702   1.564   1.875   0.230  0.2527  0.1175  0.1916
  568SOL    HW1 1703   1.648   1.923   0.193 -0.1763  2.8983  0.6837
  568SOL    HW2 1704   1.474   1.914   0.199 -1.6160 -1.5349  0.4311
  569SOL     OW 1705   1.995   1.004   3.099  0.1136 -0.0128  0.6336
  569SOL    HW1 1706   1.946   1.078   3.046 -0.9928 -0.0487  0.8652
  569SOL    HW2 1707   2.070   1.037   0.048  2.4461  0.1537  0.5769
  570SOL     OW 1708   0.437   2.580   1.731  0.2324  0.3998 -0.1001
  570SOL    HW1 1709   0.471   2.677   1.751  2.6254  3.5266  2.2559
  570SOL    HW2 1710   0.505   2.507   1.744 -1.0447  3.3368  0.0859
  571SOL     OW 1711   0.406   0.941   2.010 -0.4889 -0.3427 -0.4440
  571SOL    HW1 1712   0.437   1.036   1.991 -1.1982  2.1234  3.4867
  571SOL    HW2 1713   0.345   0.946   2.092 -0.7812 -2.3235  2.4687
  572SOL     OW 1714   1.012   1.565   0.559 -0.2086  0.2870 -0.1948
  572SOL    HW1 1715   0.944   1.488   0.558  4.3540  1.7145 -3.7292
  572SOL    HW2 1716   1.074   1.568   0.480  2.2860 -2.1385 -1.2452
  573SOL     OW 1717   1.585   2.076   3.043  0.1162  0.7465  0.4661
  573SOL    HW1 1718   1.507   2.125   3.089 -0.7236 -0.8988  0.4908
  573SOL    HW2 1719   1.657   2.055   3.110 -2.4216  0.1627 -2.3389
  574SOL     OW 1720   1.039   0.068   0.937 -0.1640  0.5467 -0.2937
  574SOL    HW1 1721   1.034   0.033   1.032  0.3620 -0.8910  0.1860
  574SOL    HW2 1722   0.946   0.074   0.892  0.8209  2.8251 -0.6208
  575SOL     OW 1723   0.296   1.081   1.454 -0.0462 -0.6048  0.9712
  575SOL    HW1 1724   0.283   1.133   1.539 -1.1722 -1.4399 -0.2754
  575SOL    HW2 1725   0.374   1.124   1.404  0.9143  3.3892  2.4174
  576SOL     OW 1726   2.283   2.817   1.271 -0.5148 -0.3494 -0.3217
  576SOL    HW1 1727   2.200   2.849   1.322  0.3615 -1.4563 -0.4990
  576SOL    HW2 1728   2.305   2.891   1.208  0.6779 -0.7852 -0.9997
  577SOL     OW 1729   1.034   0.981   2.239 -0.0039 -0.2421 -0.5901
  577SOL    HW1 1730   1.107   0.930   2.189 -0.2678 -0.6624 -0.5068
  577SOL    HW2 1731   1.014   0.917   2.321 -0.3756 -0.8542 -2.0893
  578SOL     OW 1732   1.762   0.743   2.551 -0.6515  0.4672  0.3915
  578SOL    HW1 1733   1.810   0.782   2.467  0.6490 -0.2044 -0.1886
  578SOL    HW2 1734   1.668   0.719   2.523 -0.3644  0.3979 -2.0810
  579SOL     OW 1735   2.239   2.661   1.621  0.0197 -0.0250  0.7338
  579SOL    HW1 1736   2.166   2.600   1.593 -0.2518  0.6375  2.2816
  579SOL    HW2 1737   2.332   2.621   1.588 -0.1172 -2.4309 -0.0440
  580SOL     OW 1738   1.865   1.637   2.413  1.3172 -0.2352  0.1414
  580SOL    HW1 1739   1.892   1.732   2.439  2.7228 -1.3888  0.5297
  580SOL    HW2 1740   1.822   1.592   2.496 -1.4871  0.4009  0.1677
  581SOL     OW 1741   1.474   1.422   2.569  0.2567  0.1552  0.2989
  581SOL    HW1 1742   1.546   1.475   2.617  0.4654 -0.7286 -3.1724
  581SOL    HW2 1743   1.440   1.346   2.633 -1.6978  1.9767  0.7436
  582SOL     OW 1744   0.720   1.524   1.727 -0.0405  0.4871 -0.5131
  582SOL    HW1 1745   0.749   1.479   1.817  1.2297 -0.1735  0.5592
  582SOL    HW2 1746   0.787   1.594   1.689  3.6426  1.5695 -1.6601
  583SOL     OW 1747   1.519   0.889   1.546 -0.2068  0.4119  0.2374
  583SOL    HW1 1748   1.507   0.804   1.489  0.7182 -0.8679 -0.8552
  583SOL    HW2 1749   1.431   0.927   1.581  1.2201  0.3470  2.3888
  584SOL     OW 1750   1.962   2.664   0.450 -0.1581 -0.3551 -0.1593
  584SOL    HW1 1751   1.948   2.573   0.490  0.2507  0.6998  0.1269
  584SOL    HW2 1752   1.926   2.665   0.353 -1.1388  0.8000 -1.5348
  585SOL     OW 1753   1.847   3.031   2.736  0.5607 -0.3267  0.2179
  585SOL    HW1 1754   1.853   2.950   2.672  0.1284  0.3141 -0.7318
  585SOL    HW2 1755   1.888   2.999   2.828 -0.6671  0.0517  1.1287
  586SOL     OW 1756   2.983   2.243   1.312 -0.3587 -0.3902 -0.5130
  586SOL    HW1 1757   2.976   2.192   1.401 -1.9174 -1.2293  2.3061
  586SOL    HW2 1758   2.952   2.190   1.226 -2.7999  1.2644 -1.8752
  587SOL     OW 1759   1.303   1.940   0.134  0.1083 -0.0126  0.2551
  587SOL    HW1 1760   1.326   2.030   0.096  4.0114 -1.1694 -0.1790
  587SOL    HW2 1761   1.329   1.868   0.066 -1.6748 -0.3767 -0.3883
  588SOL     OW 1762   0.349   0.286   0.934 -0.7584 -0.0154 -0.0205
  588SOL    HW1 1763   0.424   0.220   0.933 -1.7585 -0.3325 -1.8756
  588SOL    HW2 1764   0.275   0.245   0.883  2.9476 -1.4840  3.7213
  589SOL     OW 1765   1.141   0.469   0.340  0.5658 -0.1749  0.1731
  589SOL    HW1 1766   1.053   0.517   0.321 -2.2451  2.1765  0.9620
  589SOL    HW2 1767   1.130   0.374   0.309 -2.3887  1.6823 -0.6954
  590SOL     OW 1768   1.557   0.670   2.937 -0.4971  0.9291  0.1853
  590SOL    HW1 1769   1.488   0.675   2.859 -0.4239  1.8612 -0.8361
  590SOL    HW2 1770   1.594   0.575   2.941 -1.0976  0.3721 -1.4569
  591SOL     OW 1771   2.804   2.200   2.119 -0.2705  0.1367  0.3612
  591SOL    HW1 1772   2.804   2.296   2.074  0.5291  3.3174 -3.4873
  591SOL    HW2 1773   2.853   2.132   2.062  3.4269  0.9968  0.2937
  592SOL     OW 1774   2.494   1.553   2.042 -0.0080  0.0629 -0.3974
  592SOL    HW1 1775   2.467   1.455   2.038  0.5592  2.0196  0.7009
  592SOL    HW2 1776   2.566   1.569   2.110  1.6242 -0.5124 -1.5503
  593SOL     OW 1777   1.245   1.133   1.407  0.1754 -0.0941 -0.2757
  593SOL    HW1 1778   1.326   1.137   1.354 -3.9217  1.3293  2.4400
  593SOL    HW2 1779   1.204   1.043   1.392  2.1575  1.3146  0.5799
  594SOL     OW 1780   2.610   1.379   2.986 -0.1542 -0.0950 -0.5873
  594SOL    HW1 1781   2.650   1.395   3.080  2.6605  0.4568  1.0156
  594SOL    HW2 1782   2.665   1.303   2.937  2.0383 -1.6115 -1.6775
  595SOL     OW 1783   0.345   0.571   0.584 -0.0463 -0.2315 -0.2537
  595SOL    HW1 1784   0.352   0.671   0.587  1.1481 -1.1000 -1.6832
  595SOL    HW2 1785   0.389   0.529   0.662 -0.5596  4.0602 -1.2833
  596SOL     OW 1786   0.123   1.241   1.184 -0.2076  0.8859  0.4493
  596SOL    HW1 1787   0.073   1.205   1.266  0.7118 -2.0275 -0.8855
  596SOL    HW2 1788   0.183   1.317   1.206  0.3405  0.5438  0.5550
  597SOL     OW 1789   1.241   1.880   1.049 -0.2032 -0.8151  0.1069
  597SOL    HW1 1790   1.258   1.785   1.022  0.4719  0.6415  0.8860
  597SOL    HW2 1791   1.221   1.928   0.964 -0.1782 -0.9773  4.3417
  598SOL     OW 1792   0.613   3.018   1.594 -0.0363  0.3001  0.0625
  598SOL    HW1 1793   0.657   2.981   1.674 -1.1166  2.9190 -0.5836
  598SOL    HW2 1794   0.533   2.956   1.570 -1.5236 -3.9744 -3.6130
  599SOL     OW 1795   0.399   1.688   2.901 -0.0510 -0.1839  0.4054
  599SOL    HW1 1796   0.424   1.605   2.844  3.2543 -1.3668  1.7291
  599SOL    HW2 1797   0.455   1.771   2.880  1.3779 -1.8470 -3.0587
  600SOL     OW 1798   0.277   1.096   3.018  0.1459 -0.4605 -0.7557
  600SOL    HW1 1799   0.270   1.197   3.006 -2.0008 -0.6971  1.2974
  600SOL    HW2 1800   0.209   1.049   2.957 -0.3569 -0.1924  1.6257
  601SOL     OW 1801   0.529   0.743   1.085  0.0304  0.0262  0.2244
  601SOL    HW1 1802   0.531   0.759   0.986 -2.3467  0.9777  2.8402
  601SOL    HW2 1803   0.477   0.660   1.103  0.2897  1.3839 -2.4290
  602SOL     OW 1804   0.920   0.002   0.286 -0.4125  0.4061 -0.4215
  602SOL    HW1 1805   0.870   0.074   0.338  1.1873  1.7760 -0.4991
  602SOL    HW2 1806   0.858   3.045   0.247  1.2625  0.7371  0.3542
  603SOL     OW 1807   1.573   2.283   2.288 -0.1604  0.7348  0.2383
  603SOL    HW1 1808   1.639   2.222   2.244  0.6702  1.2805  2.4800
  603SOL    HW2 1809   1.616   2.322   2.371 -0.7682 -0.9695  0.8342
  604SOL     OW 1810   0.373   2.789   2.759 -0.1837 -0.2351  0.0135
  604SOL    HW1 1811   0.361   2.883   2.716 -0.9073  0.6208 -1.6829
  604SOL    HW2 1812   0.434   2.727   2.703  0.0954 -0.0256 -0.4643
  605SOL     OW 1813   2.553   1.121   1.592  0.4854  0.5135 -0.2951
  605SOL    HW1 1814   2.650   1.158   1.614  0.3410 -1.1204 -1.0176
  605SOL    HW2 1815   2.484   1.178   1.643 -0.0599 -1.2424  1.4338
  606SOL     OW 1816   0.935   1.593   2.837 -0.0822  0.5169  0.1255
  606SOL    HW1 1817   0.900   1.497   2.845 -0.6864 -0.6367  0.5367
  606SOL    HW2 1818   0.858   1.659   2.828 -2.5713 -0.4019 -0.9394
  607SOL     OW 1819   0.623   0.361   0.437 -0.5271  0.1387 -0.1040
  607SOL    HW1 1820   0.536   0.409   0.413 -0.5294  1.3417 -1.8556
  607SOL    HW2 1821   0.672   0.402   0.517  3.0797  0.1909 -0.2876
  608SOL     OW 1822   2.919   1.852   1.488 -0.1148 -0.6351  0.5566
  608SOL    HW1 1823   2.886   1.944   1.514 -1.3756 -0.5276  0.2194
  608SOL    HW2 1824   2.926   1.792   1.569 -2.6268  1.5870 -2.2857
  609SOL     OW 1825   2.604   0.401   1.021 -0.5156  0.2412 -0.0361
  609SOL    HW1 1826   2.633   0.308   1.059 -0.7400 -0.5804  0.1772
  609SOL    HW2 1827   2.506   0.405   1.038  4.1455  1.5889  2.0559
  610SOL     OW 1828   0.306   2.638   1.421 -0.9280 -0.4818  0.2143
  610SOL    HW1 1829   0.286   2.558   1.479 -0.5563  1.6092 -2.7965
  610SOL    HW2 1830   0.402   2.625   1.380 -0.3293  1.1785 -0.3246
  611SOL     OW 1831   1.449   1.634   0.292 -0.2341  0.1853  1.0019
  611SOL    HW1 1832   1.499   1.611   0.380  0.1371 -0.7217 -0.2151
  611SOL    HW2 1833   1.479   1.721   0.252  2.2916  0.2465  2.8095
  612SOL     OW 1834   0.711   3.034   1.870 -0.3201  0.0941  0.5412
  612SOL    HW1 1835   0.697   2.984   1.958 -2.7460 -1.3378 -1.8432
  612SOL    HW2 1836   0.707   0.027   1.879  0.9221  1.2782 -0.0430
  613SOL     OW 1837   0.426   2.456   0.810  0.2452 -0.5634  0.1700
  613SOL    HW1 1838   0.378   2.410   0.730  0.7270 -1.7024  0.4695
  613SOL    HW2 1839   0.498   2.522   0.783  0.6323 -0.1674 -1.1826
  614SOL     OW 1840   2.043   0.051   2.212  0.1237 -0.1542  0.3331
  614SOL    HW1 1841   2.117   0.110   2.246  1.7679  3.1464 -1.4886
  614SOL    HW2 1842   2.048   0.051   2.108  0.4507 -1.1844 -2.9283
  615SOL     OW 1843   1.188   1.577   0.346 -0.2653  0.3329 -0.3936
  615SOL    HW1 1844   1.126   1.558   0.265 -0.0608  0.0985 -1.5520
  615SOL    HW2 1845   1.275   1.624   0.312 -0.3235  0.5023 -0.9590
  616SOL     OW 1846   1.583   1.571   0.533  0.0927 -0.0917  0.2923
  616SOL    HW1 1847   1.617   1.473   0.529  0.3844 -3.0082  0.7416
  616SOL    HW2 1848   1.515   1.590   0.604 -1.8868 -1.3397 -0.0353
  617SOL     OW 1849   1.322   1.217   2.680  0.5464 -0.0962  0.1353
  617SOL    HW1 1850   1.226   1.199   2.688 -0.7769  0.2300  2.0341
  617SOL    HW2 1851   1.369   1.129   2.702 -0.5449  2.6839  0.2374
  618SOL     OW 1852   0.745   0.416   2.106  0.5005 -0.1664 -0.4533
  618SOL    HW1 1853   0.793   0.506   2.117 -1.9735 -2.1457 -2.5107
  618SOL    HW2 1854   0.684   0.393   2.184 -0.2062  0.0612  1.8685
  619SOL     OW 1855   3.085   1.504   1.448  0.0549  0.3451  0.2847
  619SOL    HW1 1856   3.099   1.545   1.354  1.9834 -2.8416 -2.1488
  619SOL    HW2 1857   0.044   1.544   1.512 -1.7564  1.5973  1.3853
  620SOL     OW 1858   2.500   0.282   2.634  0.5703  0.3474 -0.6516
  620SOL    HW1 1859   2.589   0.334   2.652  1.0010  2.1151  3.1588
  620SOL    HW2 1860   2.449   0.319   2.556  1.7412  1.0582  0.7120
  621SOL     OW 1861   1.997   2.108   2.829 -0.0230 -0.1525  0.1974
  621SOL    HW1 1862   2.061   2.184   2.859 -1.2559  2.7013  0.6550
  621SOL    HW2 1863   1.928   2.138   2.755 -1.4917 -2.2000 -1.4186
  622SOL     OW 1864   1.124   0.723   2.793 -0.2605  0.1394 -0.1556
  622SOL    HW1 1865   1.060   0.646   2.830 -0.1496 -2.8711  1.5238
  622SOL    HW2 1866   1.106   0.814   2.832  1.5929 -0.1231 -2.3504
  623SOL     OW 1867   0.769   1.073   2.170  0.0717  0.1215 -0.4421
  623SOL    HW1 1868   0.862   1.032   2.190  1.9795  0.1677 -2.4128
  623SOL    HW2 1869   0.705   1.049   2.251 -0.7887 -0.5008  3.6408
  624SOL     OW 1870   2.824   0.320   0.584 -0.5064  0.3200  0.2558
  624SOL    HW1 1871   2.831   0.295   0.484  1.2023  2.2034 -0.1569
  624SOL    HW2 1872   2.786   0.412   0.588 -0.3654  0.0470  0.7786
  625SOL     OW 1873   0.721   2.402   0.707 -0.0206  0.1931  0.3554
  625SOL    HW1 1874   0.690   2.492   0.734  0.3124 -1.4466 -0.7544
  625SOL    HW2 1875   0.817   2.385   0.729 -3.0018  1.0989  0.0127
  626SOL     OW 1876   2.144   0.956   2.659 -0.2526  0.0658 -0.1990
  626SOL    HW1 1877   2.113   0.907   2.739 -1.0467  0.5572 -0.1260
  626SOL    HW2 1878   2.067   1.014   2.635  1.2375  0.6975  0.1084
  627SOL     OW 1879   1.408   2.114   2.776 -0.0572  0.2152 -0.0351
  627SOL    HW1 1880   1.452   2.107   2.686 -1.2811 -2.6474 -2.9883
  627SOL    HW2 1881   1.466   2.065   2.843 -0.8407  0.3844  0.5675
  628SOL     OW 1882   2.838   2.855   2.383 -0.3938  0.2903  0.0455
  628SOL    HW1 1883   2.749   2.895   2.356 -0.0390 -0.7864  1.6710
  628SOL    HW2 1884   2.857   2.870   2.483  0.6344  0.8729  1.8829
  629SOL     OW 1885   1.354   2.833   2.609  0.1153  0.2427  0.1466
  629SOL    HW1 1886   1.367   2.744   2.560 -0.9866 -0.0265 -0.0863
  629SOL    HW2 1887   1.438   2.866   2.660 -0.4682 -0.1949 -0.1783
  630SOL     OW 1888   0.962   0.015   2.427  0.8995 -0.5826 -0.0569
  630SOL    HW1 1889   0.952   0.092   2.490  0.0174 -0.4775  0.0062
  630SOL    HW2 1890   1.033   0.031   2.358 -0.5954  1.0024 -1.7103
  631SOL     OW 1891   1.979   1.097   0.650 -0.5169  0.1760  0.3868
  631SOL    HW1 1892   1.893   1.052   0.685  2.9504 -1.4639  6.0655
  631SOL    HW2 1893   1.984   1.190   0.687 -0.6939 -1.0692 -1.1903
  632SOL     OW 1894   2.453   0.255   2.065 -0.4808  0.1645 -0.0488
  632SOL    HW1 1895   2.436   0.315   1.985  0.4618  1.8316 -1.3785
  632SOL    HW2 1896   2.536   0.280   2.118 -2.2864 -0.9833  0.0716
  633SOL     OW 1897   1.006   1.550   0.150  0.7942 -0.0042 -0.4135
  633SOL    HW1 1898   1.001   1.625   0.079  0.3752  1.5014 -1.2505
  633SOL    HW2 1899   0.991   1.459   0.098 -0.8001 -3.2288 -1.1575
  634SOL     OW 1900   2.875   3.025   1.669  0.3499  0.0764 -0.3002
  634SOL    HW1 1901   2.874   3.097   1.743  2.2312 -0.9682  1.0167
  634SOL    HW2 1902   2.787   3.030   1.615 -2.2792  2.2951  2.0147
  635SOL     OW 1903   1.538   0.172   1.107 -0.2319 -0.2360 -0.1429
  635SOL    HW1 1904   1.555   0.271   1.112 -0.6461  0.0824 -1.0702
  635SOL    HW2 1905   1.438   0.165   1.081  1.4496 -1.4814 -0.9692
  636SOL     OW 1906   0.688   1.175   0.037 -0.0434 -0.7355  0.0580
  636SOL    HW1 1907   0.604   1.177   0.096 -0.8918 -0.4754 -0.9986
  636SOL    HW2 1908   0.664   1.203   3.050  0.1203  3.3537 -3.3539
  637SOL     OW 1909   2.875   2.119   3.068 -0.0904 -0.3002  0.3904
  637SOL    HW1 1910   2.805   2.049   3.044  0.1585  2.3198 -1.2289
  637SOL    HW2 1911   2.957   2.080   3.110  0.4985 -0.6582 -1.3576
  638SOL     OW 1912   1.528   2.444   2.584  0.1605 -0.5737  0.0245
  638SOL    HW1 1913   1.529   2.523   2.522  1.0094 -0.3798  1.6179
  638SOL    HW2 1914   1.592   2.451   2.657 -2.2797 -0.7591 -2.8721
  639SOL     OW 1915   1.616   1.909   0.943 -0.2429 -0.1094  0.5206
  639SOL    HW1 1916   1.585   1.940   1.036 -1.9698 -2.8509  1.7474
  639SOL    HW2 1917   1.537   1.906   0.882  1.9033  1.4441  1.0647
  640SOL     OW 1918   2.379   2.695   0.376  0.3677 -0.3992 -0.2711
  640SOL    HW1 1919   2.373   2.614   0.309 -2.0556  1.0943 -2.8375
  640SOL    HW2 1920   2.470   2.705   0.416  2.9969 -1.7625 -3.3249
  641SOL     OW 1921   2.743   0.493   3.058  0.3320  0.3890 -0.1197
  641SOL    HW1 1922   2.758   0.500   0.048  0.8641 -2.9687  1.7893
  641SOL    HW2 1923   2.658   0.441   3.040 -0.5235  3.4439 -1.0242
  642SOL     OW 1924   0.371   0.522   1.133  0.2674  0.0049  0.2052
  642SOL    HW1 1925   0.388   0.492   1.227  2.5393  1.4744 -2.5639
  642SOL    HW2 1926   0.354   0.437   1.075 -2.1064  0.0621 -0.1115
  643SOL     OW 1927   0.732   1.395   2.537  0.0763  0.0601 -0.5924
  643SOL    HW1 1928   0.728   1.329   2.617  1.9934 -0.3231 -0.7062
  643SOL    HW2 1929   0.759   1.355   2.447 -0.3133  1.5641  0.2783
  644SOL     OW 1930   1.919   2.163   0.629 -0.5476  0.3578 -0.1540
  644SOL    HW1 1931   2.002   2.107   0.609 -0.7982 -0.5349 -0.5851
  644SOL    HW2 1932   1.879   2.134   0.723 -2.4315  1.4658  1.0447
  645SOL     OW 1933   1.640   2.468   0.677 -0.3534  0.4129 -0.2717
  645SOL    HW1 1934   1.599   2.379   0.700  2.3238  0.2410 -0.2128
  645SOL    HW2 1935   1.690   2.458   0.585  0.5186 -1.2270 -0.4575
  646SOL     OW 1936   0.566   2.282   2.744 -0.3986 -0.5121 -0.3305
  646SOL    HW1 1937   0.472   2.321   2.737  0.6156  2.2997  0.6378
  646SOL    HW2 1938   0.641   2.352   2.729  2.9828  3.9058  1.5735
  647SOL     OW 1939   1.289   2.883   1.335  0.6314 -0.1809 -0.2116
  647SOL    HW1 1940   1.291   2.801   1.278 -1.8203 -0.7772 -3.3709
  647SOL    HW2 1941   1.367   2.948   1.323 -0.1841  3.2675 -1.6609
  648SOL     OW 1942   1.261   0.205   1.062  0.1382  0.0743  0.0438
  648SOL    HW1 1943   1.209   0.217   1.147 -3.0181 -1.3033 -1.3777
  648SOL    HW2 1944   1.193   0.196   0.983 -4.0481 -1.1364 -1.4092
  649SOL     OW 1945   1.251   2.187   0.375 -0.2557  0.3329 -0.1330
  649SOL    HW1 1946   1.209   2.192   0.280  1.9696  2.8231 -0.1987
  649SOL    HW2 1947   1.349   2.213   0.373  0.4366 -1.6571  0.0814
  650SOL     OW 1948   2.394   1.671   1.582  0.2484 -0.0105 -0.1090
  650SOL    HW1 1949   2.464   1.704   1.645 -0.1486 -1.3006 -2.9830
  650SOL    HW2 1950   2.316   1.733   1.575  0.4923  1.6768 -1.0475
  651SOL     OW 1951   1.699   2.787   0.077  0.1705  0.0876  0.2993
  651SOL    HW1 1952   1.638   2.850   0.020  0.3902  0.6680  1.7159
  651SOL    HW2 1953   1.698   2.689   0.042 -1.1956 -1.9971  1.6100
  652SOL     OW 1954   3.006   1.814   0.251 -0.1534 -0.2242  0.2938
  652SOL    HW1 1955   2.905   1.812   0.263  2.4404 -1.1430  2.4307
  652SOL    HW2 1956   3.052   1.862   0.333  0.6148  2.2389  2.9167
  653SOL     OW 1957   2.897   2.996   1.009  0.0892  0.4507 -0.2620
  653SOL    HW1 1958   2.951   3.051   0.935 -0.6647  2.6102 -2.5484
  653SOL    HW2 1959   2.830   2.930   0.967  0.2711  1.3763  1.1386
  654SOL     OW 1960   2.884   2.760   1.784 -0.1519  0.3293 -0.4442
  654SOL    HW1 1961   2.966   2.721   1.830 -0.7103  1.5894  2.3670
  654SOL    HW2 1962   2.897   2.848   1.738  0.0764 -1.9947  2.2629
  655SOL     OW 1963   0.276   2.249   1.038  0.9564  0.1968 -0.5198
  655SOL    HW1 1964   0.362   2.219   0.991 -1.3667  1.9632  1.2536
  655SOL    HW2 1965   0.230   2.168   1.081 -0.7042  1.3745  1.9690
  656SOL     OW 1966   2.682   0.102   2.350 -0.7103 -0.4755  0.1997
  656SOL    HW1 1967   2.745   0.103   2.430  0.1344 -0.2141 -1.4223
  656SOL    HW2 1968   2.656   0.004   2.334  1.3280  1.1953 -0.0466
  657SOL     OW 1969   2.901   1.583   2.678  0.0970 -0.2860 -0.2897
  657SOL    HW1 1970   2.987   1.601   2.625 -0.1278 -0.9271  1.5878
  657SOL    HW2 1971   2.907   1.495   2.732 -0.2987 -1.7138  2.6856
  658SOL     OW 1972   2.822   1.698   1.051 -0.3753 -0.2878  0.1417
  658SOL    HW1 1973   2.843   1.785   1.109 -0.1150  3.1164  0.3496
  658SOL    HW2 1974   2.774   1.634   1.111 -0.3287  0.9644 -0.0441
  659SOL     OW 1975   1.344   3.012   0.146 -0.1164  0.3128  0.6995
  659SOL    HW1 1976   1.256   2.986   0.197  1.5280 -0.1802 -0.6870
  659SOL    HW2 1977   1.430   2.993   0.200  1.6308  0.0472 -0.2074
  660SOL     OW 1978   1.698   1.403   3.041 -0.2968 -0.0158 -0.7300
  660SOL    HW1 1979   1.623   1.432   3.103  0.4831 -0.8974  3.6093
  660SOL    HW2 1980   1.731   1.487   2.985  3.5215  0.7381 -4.7739
  661SOL     OW 1981   0.410   2.351   1.285  0.0308 -0.2188  0.1104
  661SOL    HW1 1982   0.351   2.366   1.201  1.0361 -0.5412 -0.4910
  661SOL    HW2 1983   0.353   2.301   1.354 -1.3495 -1.7415  0.9312
  662SOL     OW 1984   3.091   0.753   3.072 -0.0847  1.0934 -0.4091
  662SOL    HW1 1985   3.059   0.657   3.072  0.0688  0.1265 -1.2480
  662SOL    HW2 1986   0.080   0.757   3.088 -0.4720  0.0371 -1.6557
  663SOL     OW 1987   2.056   1.657   1.017  0.1589 -0.3642  0.2964
  663SOL    HW1 1988   2.094   1.652   0.925  1.2464  0.4841  2.7589
  663SOL    HW2 1989   1.968   1.710   1.017 -2.0305  0.2255 -2.1304
  664SOL     OW 1990   1.137   1.492   1.367 -0.0433 -0.0856  0.1589
  664SOL    HW1 1991   1.194   1.423   1.322 -0.9778 -0.6021 -2.1171
  664SOL    HW2 1992   1.185   1.558   1.431  0.5801  1.4342  2.9454
  665SOL     OW 1993   2.207   2.688   2.324  0.3783 -0.0010  0.2487
  665SOL    HW1 1994   2.125   2.750   2.325  1.1371 -3.9162 -0.1232
  665SOL    HW2 1995   2.258   2.708   2.238 -1.1980 -0.0966 -1.5756
  666SOL     OW 1996   2.891   3.019   2.909 -0.4196 -0.7023  0.3257
  666SOL    HW1 1997   2.844   3.044   2.824 -1.0258 -0.6587  4.0285
  666SOL    HW2 1998   2.886   3.098   2.975 -0.0421  3.3546 -1.4479
  667SOL     OW 1999   2.424   1.286   2.040 -0.3900 -0.4123 -0.5941
  667SOL    HW1 2000   2.395   1.203   2.085  0.3225 -1.0643  0.6114
  667SOL    HW2 2001   2.419   1.262   1.942 -3.4631  1.0436 -1.4055
  668SOL     OW 2002   0.399   0.906   2.427  0.0557 -0.5729 -0.1838
  668SOL    HW1 2003   0.357   0.960   2.505  0.7651  0.1578  0.0383
  668SOL    HW2 2004   0.370   0.947   2.339 -0.7283 -1.9161  0.6060
  669SOL     OW 2005   2.327   2.164   2.382 -0.2177 -0.0189  0.8984
  669SOL    HW1 2006   2.418   2.183   2.343 -2.6368 -0.9533 -0.6797
  669SOL    HW2 2007   2.317   2.205   2.478 -2.1670  1.7464  1.5164
  670SOL     OW 2008   2.434   1.350   1.743 -0.2729 -0.0571 -0.0936
  670SOL    HW1 2009   2.477   1.402   1.672 -1.7647 -1.6748  3.9366
  670SOL    HW2 2010   2.332   1.370   1.736 -4.6680  4.0118 -0.1091
  671SOL     OW 2011   2.611   1.065   0.587 -0.1895 -0.6882  0.1216
  671SOL    HW1 2012   2.656   1.001   0.653 -3.4404 -0.9865  0.9334
  671SOL    HW2 2013   2.652   1.158   0.586 -2.0759 -1.0860  3.4499
  672SOL     OW 2014   2.369   0.809   2.301 -0.6348 -0.0566  0.1361
  672SOL    HW1 2015   2.355   0.893   2.241 -0.9885  2.7860 -1.5653
  672SOL    HW2 2016   2.282   0.781   2.349 -0.7384 -1.9956 -0.8406
  673SOL     OW 2017   2.838   0.149   1.798  0.4899 -0.1897  0.2329
  673SOL    HW1 2018   2.936   0.176   1.793 -0.9394 -0.0110 -0.7830
  673SOL    HW2 2019   2.807   0.133   1.897 -0.6890 -5.1485  1.6032
  674SOL     OW 2020   1.750   1.962   1.365 -0.3411 -0.2237 -0.1454
  674SOL    HW1 2021   1.838   2.011   1.342  2.3806 -2.3045  0.5061
  674SOL    HW2 2022   1.672   2.025   1.403 -0.0965  1.8268  2.0414
  675SOL     OW 2023   0.773   0.496   0.611  0.8767  0.3907  0.2393
  675SOL    HW1 2024   0.739   0.502   0.709 -0.7493 -1.1830 -2.2065
  675SOL    HW2 2025   0.859   0.454   0.617 -3.2645  0.1470 -3.3011
  676SOL     OW 2026   1.627   0.894   1.000 -0.1849  0.5612  0.0257
  676SOL    HW1 2027   1.546   0.836   0.966  0.3863 -1.6704 -1.6244
  676SOL    HW2 2028   1.679   0.844   1.070 -0.4089 -0.9581  0.6674
  677SOL     OW 2029   2.611   1.316   2.321 -0.4116  0.4385 -0.4096
  677SOL    HW1 2030   2.638   1.248   2.246  1.7725 -4.5627 -2.9259
  677SOL    HW2 2031   2.509   1.320   2.348  1.1800 -0.8696  0.2035
  678SOL     OW 2032   3.002   1.528   0.860  0.0445 -0.1853 -0.3724
  678SOL    HW1 2033   3.013   1.433   0.890 -0.3003  0.2474 -1.4322
  678SOL    HW2 2034   2.923   1.572   0.905  2.7966  0.9244 -0.1222
  679SOL     OW 2035   2.331   2.506   0.186  0.5239  0.3817  0.9338
  679SOL    HW1 2036   2.239   2.473   0.160 -0.4154 -0.6892 -0.2394
  679SOL    HW2 2037   2.397   2.486   0.109 -1.7889 -0.2469  0.9293
  680SOL     OW 2038   0.140   2.139   1.936 -0.0059 -0.3117 -0.0072
  680SOL    HW1 2039   0.171   2.114   2.029  2.5082 -0.4393 -0.0414
  680SOL    HW2 2040   0.213   2.172   1.873 -2.3583  0.3661 -0.7936
  681SOL     OW 2041   0.521   1.206   1.347 -0.1798  0.0465  0.5813
  681SOL    HW1 2042   0.532   1.167   1.253  1.2849  0.0198 -0.3177
  681SOL    HW2 2043   0.578   1.145   1.407 -0.9855  1.0858 -0.4721
  682SOL     OW 2044   1.323   2.449   0.721  0.4763  0.1894  0.3718
  682SOL    HW1 2045   1.411   2.402   0.740  2.9674  0.1626 -0.1949
  682SOL    HW2 2046   1.316   2.481   0.624 -2.9661 -1.3999  2.2845
  683SOL     OW 2047   2.357   1.271   0.448  0.4725  0.2864 -0.2413
  683SOL    HW1 2048   2.371   1.344   0.518 -0.6921  0.1266  0.5739
  683SOL    HW2 2049   2.439   1.255   0.388 -0.7286 -1.7092 -2.8601
  684SOL     OW 2050   0.672   2.033   1.999  0.1363 -0.0223  0.2161
  684SOL    HW1 2051   0.651   2.116   2.050  1.5513 -1.9930  0.2283
  684SOL    HW2 2052   0.592   1.969   1.993 -0.3213 -2.6072  2.1036
  685SOL     OW 2053   2.108   1.717   0.022 -0.0646 -0.1457  0.3712
  685SOL    HW1 2054   2.208   1.700   0.021 -0.4333 -0.5392  0.4050
  685SOL    HW2 2055   2.063   1.647   0.081  1.7840  0.1425 -1.3777
  686SOL     OW 2056   0.225   0.742   1.033  0.4996 -0.5232  0.0478
  686SOL    HW1 2057   0.223   0.820   1.095  0.6428 -2.9280  0.9297
  686SOL    HW2 2058   0.257   0.666   1.093  0.7270  0.6243  0.3148
  687SOL     OW 2059   1.124   2.337   2.735 -0.5060 -0.2510  0.3917
  687SOL    HW1 2060   1.097   2.248   2.770  0.1402 -2.1384 -1.4873
  687SOL    HW2 2061   1.198   2.322   2.670 -0.3153 -0.3962 -0.9124
  688SOL     OW 2062   2.569   1.660   1.796 -0.2844  0.3431  0.5387
  688SOL    HW1 2063   2.599   1.755   1.806 -1.0564  1.9735  0.3736
  688SOL    HW2 2064   2.557   1.613   1.887 -0.8461 -3.1578  0.3462
  689SOL     OW 2065   2.200   0.711   1.967  0.2867 -0.3988  0.0689
  689SOL    HW1 2066   2.290   0.683   2.013  2.6034 -5.6019  0.0105
  689SOL    HW2 2067   2.201   0.811   1.951  1.4104 -0.6182  0.8139
  690SOL     OW 2068   2.198   0.925   1.364 -0.2471 -0.0985  0.2010
  690SOL    HW1 2069   2.124   0.904   1.301  1.2526 -1.2101  0.4950
  690SOL    HW2 2070   2.249   1.007   1.324  1.4917  0.7453  0.1082
  691SOL     OW 2071   0.834   2.032   1.785 -0.3099  0.0494 -0.1049
  691SOL    HW1 2072   0.787   2.029   1.873 -1.2226  2.1196 -3.8575
  691SOL    HW2 2073   0.859   2.125   1.751  2.6184 -0.6823 -0.1172
  692SOL     OW 2074   1.917   3.105   1.380  0.3414  0.7780 -0.2144
  692SOL    HW1 2075   1.879   0.041   1.462 -0.3155 -0.8619  0.9171
  692SOL    HW2 2076   1.887   0.051   1.300 -0.8851  1.6110 -1.6777
  693SOL     OW 2077   0.661   1.021   2.439 -0.8064  0.0732 -0.0209
  693SOL    HW1 2078   0.731   0.997   2.515  1.1864 -0.3028  1.6443
  693SOL    HW2 2079   0.572   0.976   2.450  0.8715 -2.4233  2.3745
  694SOL     OW 2080   1.984   2.894   1.048 -0.3573 -0.2967  0.1584
  694SOL    HW1 2081   1.975   2.797   1.017 -0.3860  0.2723 -0.1782
  694SOL    HW2 2082   1.933   2.954   0.983  1.5204  1.3376  1.2974
  695SOL     OW 2083   1.377   1.131   1.822  0.6396  0.4801  0.4261
  695SOL    HW1 2084   1.306   1.154   1.892  0.2826 -0.6722 -0.4832
  695SOL    HW2 2085   1.360   1.193   1.744 -0.2041 -3.2140 -0.0256
  696SOL     OW 2086   1.654   3.089   0.720 -0.1823 -0.1530  0.0277
  696SOL    HW1 2087   1.553   3.074   0.712 -0.8555  0.7485 -2.1417
  696SOL    HW2 2088   1.688   0.057   0.664  0.2637 -1.5757 -0.4331
  697SOL     OW 2089   1.188   0.196   0.750  0.0878 -0.2090  0.5057
  697SOL    HW1 2090   1.146   0.138   0.823  2.4906  1.5233 -1.1206
  697SOL    HW2 2091   1.110   0.226   0.687  2.0446  0.2876 -0.4740
  698SOL     OW 2092   1.742   1.046   2.211  0.1191  0.5922  0.1383
  698SOL    HW1 2093   1.761   1.070   2.116 -0.7727  1.3894  1.2593
  698SOL    HW2 2094   1.645   1.061   2.229  1.3099 -0.8014 -1.5652
  699SOL     OW 2095   1.383   1.390   1.276 -0.4726 -0.4049 -0.1060
  699SOL    HW1 2096   1.415   1.292   1.259 -1.2206 -0.2697 -0.9163
  699SOL    HW2 2097   1.448   1.442   1.336 -0.0998  1.5087  1.0626
  700SOL     OW 2098   1.375   0.202   0.348 -0.6453  0.6059 -0.4314
  700SOL    HW1 2099   1.287   0.192   0.306  2.8717  0.9543 -3.1629
  700SOL    HW2 2100   1.368   0.238   0.442  1.4759  0.7106 -0.9943
  701SOL     OW 2101   0.585   0.175   1.562  0.0011  0.1516 -0.2581
  701SOL    HW1 2102   0.493   0.203   1.533  2.3278 -0.6914  1.5697
  701SOL    HW2 2103   0.608   0.079   1.566  0.8371  3.1705 -0.8375
  702SOL     OW 2104   1.136   2.925   0.297  0.1088  0.3355  0.6801
  702SOL    HW1 2105   1.076   3.000   0.327  1.8435 -0.2868 -1.7654
  702SOL    HW2 2106   1.086   2.870   0.226 -1.9125 -2.7679 -1.4874
  703SOL     OW 2107   2.599   2.959   2.336 -0.0992  0.1123  0.6563
  703SOL    HW1 2108   2.546   2.907   2.405  0.2129 -2.2022  0.5727
  703SOL    HW2 2109   2.572   2.921   2.243  0.1456  1.6119 -0.0436
  704SOL     OW 2110   0.968   2.353   0.847  0.2366 -0.2573  0.2511
  704SOL    HW1 2111   0.947   2.280   0.913 -0.1899  1.0812 -1.8416
  704SOL    HW2 2112   1.042   2.412   0.889  0.6619 -1.1326  1.2236
  705SOL     OW 2113   0.052   0.807   2.256 -0.0507  0.2800 -0.1307
  705SOL    HW1 2114   0.102   0.725   2.291  1.2930  2.2749  0.3184
  705SOL    HW2 2115   3.069   0.804   2.280 -0.2118 -0.1911 -0.5373
  706SOL     OW 2116   1.604   0.072   0.256  0.8128 -0.3305 -0.3656
  706SOL    HW1 2117   1.596   3.085   0.283  0.7807 -1.1002  0.7483
  706SOL    HW2 2118   1.530   0.123   0.307 -3.4575 -1.8958 -1.0965
  707SOL     OW 2119   1.445   1.841   2.336 -0.1291 -0.2128 -0.0618
  707SOL    HW1 2120   1.352   1.823   2.300 -2.8805 -0.6975  0.7019
  707SOL    HW2 2121   1.516   1.813   2.268  1.8897  1.5143  0.0397
  708SOL     OW 2122   2.939   2.128   1.543  0.0968 -0.1040 -0.2718
  708SOL    HW1 2123   2.872   2.183   1.594  1.7680 -0.3427 -0.7088
  708SOL    HW2 2124   3.007   2.100   1.608  1.2383 -1.0351 -0.6660
  709SOL     OW 2125   2.031   0.372   1.673  0.6093  0.0352  0.0550
  709SOL    HW1 2126   2.016   0.347   1.770  0.0984  2.3175 -0.2060
  709SOL    HW2 2127   2.088   0.454   1.657  1.3820 -0.4896 -1.9554
  710SOL     OW 2128   2.867   2.935   1.283 -0.2071 -0.0222  0.2130
  710SOL    HW1 2129   2.817   3.019   1.320  0.8921 -0.6153  1.3312
  710SOL    HW2 2130   2.886   2.948   1.186  0.1658 -3.0459  3.7448
  711SOL     OW 2131   0.321   2.332   0.588  0.2473  0.2375 -0.0528
  711SOL    HW1 2132   0.408   2.332   0.535  0.1484  1.5388 -1.9466
  711SOL    HW2 2133   0.245   2.362   0.527 -0.0320 -0.5200 -1.2762
  712SOL     OW 2134   0.714   2.433   2.345  0.4521  0.2326 -0.0651
  712SOL    HW1 2135   0.617   2.418   2.378 -0.0509  2.4852 -1.3790
  712SOL    HW2 2136   0.781   2.409   2.419  0.2628  1.4898  1.0109
  713SOL     OW 2137   1.961   0.513   0.060  0.4935 -0.2315  0.5702
  713SOL    HW1 2138   1.911   0.450   0.121  6.7771 -0.2475 -4.3152
  713SOL    HW2 2139   1.946   0.612   0.078  0.1847  1.7091 -1.1377
  714SOL     OW 2140   1.278   1.941   0.489 -0.0354 -0.1462  0.1358
  714SOL    HW1 2141   1.210   1.863   0.471 -0.2680 -2.6977 -1.0896
  714SOL    HW2 2142   1.265   2.014   0.420  0.7108 -2.8013 -2.3257
  715SOL     OW 2143   1.950   0.050   0.610 -0.6604 -0.0992 -0.1012
  715SOL    HW1 2144   1.892   0.133   0.619  0.6408  1.0111  0.3954
  715SOL    HW2 2145   2.042   0.079   0.568  1.1394 -1.0393 -0.1832
  716SOL     OW 2146   0.597   0.750   2.072 -0.2603  0.1206  0.0972
  716SOL    HW1 2147   0.589   0.733   2.173 -0.9282 -1.7668 -0.9060
  716SOL    HW2 2148   0.525   0.817   2.041  1.5455 -0.1425 -1.1843
  717SOL     OW 2149   0.120   0.552   2.877  0.0332 -0.2283  0.2671
  717SOL    HW1 2150   0.112   0.622   2.800  0.1665  2.8868 -0.6622
  717SOL    HW2 2151   0.037   0.549   2.928  1.3760 -0.2151 -0.8557
  718SOL     OW 2152   1.253   0.868   0.357  0.0382 -0.1073  0.1037
  718SOL    HW1 2153   1.303   0.870   0.446  0.2046 -0.8514  0.6583
  718SOL    HW2 2154   1.311   0.814   0.285  0.2904 -3.2973 -1.5839
  719SOL     OW 2155   2.698   1.928   2.980  0.3877 -0.2200 -0.2427
  719SOL    HW1 2156   2.699   1.827   3.004  0.4503 -1.4865  0.0859
  719SOL    HW2 2157   2.722   1.935   2.883 -0.2741  0.8243  0.6559
  720SOL     OW 2158   1.333   0.937   1.150 -0.4628  0.3763  0.3317
  720SOL    HW1 2159   1.355   0.889   1.060  1.3905  1.9166 -1.4421
  720SOL    HW2 2160   1.244   0.909   1.189 -0.1369  5.5747 -1.4092
  721SOL     OW 2161   2.741   0.582   0.640  0.0390  0.0953 -0.3932
  721SOL    HW1 2162   2.651   0.617   0.625  1.8795 -1.4542  3.6272
  721SOL    HW2 2163   2.765   0.602   0.735 -1.1368 -0.9417  1.5353
  722SOL     OW 2164   1.133   1.714   2.691  0.1136  0.2754  0.4275
  722SOL    HW1 2165   1.139   1.814   2.701 -0.3526  0.7689  0.2358
  722SOL    HW2 2166   1.043   1.680   2.730 -0.3177  1.9291 -0.8430
  723SOL     OW 2167   0.501   0.945   0.387 -0.7913  0.2316 -0.6177
  723SOL    HW1 2168   0.526   1.043   0.387  1.8233  1.8016 -0.2940
  723SOL    HW2 2169   0.411   0.931   0.437 -0.7937 -1.8176  1.2020
  724SOL     OW 2170   1.051   1.856   1.823  0.0992  0.3975 -0.2630
  724SOL    HW1 2171   1.071   1.875   1.921  1.8370 -0.2607  0.1023
  724SOL    HW2 2172   0.975   1.920   1.792 -1.5132  1.9730 -0.2304
  725SOL     OW 2173   0.001   1.117   1.418  0.5078  0.5063  0.8700
  725SOL    HW1 2174   0.083   1.076   1.460 -2.2134 -0.3785 -2.5205
  725SOL    HW2 2175   3.069   1.180   1.484  1.1805 -1.6633  0.7981
  726SOL     OW 2176   1.581   2.909   0.284  0.5893 -0.4357 -0.6439
  726SOL    HW1 2177   1.572   2.845   0.364 -1.4037 -2.1860  0.5973
  726SOL    HW2 2178   1.637   2.869   0.216 -1.5854 -0.7300  0.5125
  727SOL     OW 2179   1.330   0.961   2.444  0.2827 -0.1380  0.0342
  727SOL    HW1 2180   1.242   0.988   2.494 -0.4221 -2.2118  0.1778
  727SOL    HW2 2181   1.309   0.892   2.373  0.9738 -0.6834  1.6286
  728SOL     OW 2182   1.349   2.653   1.184  0.3621  0.5961  0.2584
  728SOL    HW1 2183   1.303   2.590   1.121  3.4523 -3.1273  1.4989
  728SOL    HW2 2184   1.447   2.654   1.167 -1.5375  1.7029  1.0599
  729SOL     OW 2185   1.440   0.501   1.312  0.5798  0.5126 -0.0449
  729SOL    HW1 2186   1.468   0.445   1.396  0.9458 -0.2397 -0.8121
  729SOL    HW2 2187   1.504   0.480   1.238  1.0866  1.0978  0.9093
  730SOL     OW 2188   0.839   1.838   2.074 -0.2980 -0.4848  0.1953
  730SOL    HW1 2189   0.937   1.878   2.080  0.5043  2.0989 -0.2318
  730SOL    HW2 2190   0.775   1.912   2.077  2.4219  0.0463 -1.1001
  731SOL     OW 2191   0.305   0.213   0.320  0.2997  0.2479 -0.4705
  731SOL    HW1 2192   0.348   0.300   0.285  1.9278  0.7108 -1.8703
  731SOL    HW2 2193   0.325   0.130   0.263 -0.0763 -1.6638  0.4764
  732SOL     OW 2194   0.528   0.356   3.056  0.0272 -0.0999  0.6839
  732SOL    HW1 2195   0.576   0.349   0.034  0.7651  0.3057  0.9501
  732SOL    HW2 2196   0.437   0.405   3.064 -3.5117  0.5566 -0.4455
  733SOL     OW 2197   1.378   2.324   1.277 -0.2964  0.2919  0.0234
  733SOL    HW1 2198   1.350   2.231   1.303  1.7297  1.1511 -0.0696
  733SOL    HW2 2199   1.378   2.377   1.366 -1.3001 -0.0321  0.7505
  734SOL     OW 2200   3.112   2.576   2.572 -0.4898  0.5769  0.2578
  734SOL    HW1 2201   0.047   2.494   2.602 -1.0554  0.1547  0.6548
  734SOL    HW2 2202   3.048   2.612   2.642  1.2043 -0.1843 -2.8151
  735SOL     OW 2203   0.825   2.869   0.766  0.1267  0.5505 -0.0734
  735SOL    HW1 2204   0.813   2.880   0.864  0.4802 -1.6209 -1.8300
  735SOL    HW2 2205   0.909   2.821   0.738  2.0705 -0.8489  1.5008
  736SOL     OW 2206   1.758   1.075   2.709  0.1488  0.1847 -1.2284
  736SOL    HW1 2207   1.672   1.024   2.695  2.1977 -1.7576 -0.4943
  736SOL    HW2 2208   1.787   1.074   2.810 -1.0378 -0.5541  0.0105
  737SOL     OW 2209   3.090   0.337   0.632 -0.2367 -0.3302  0.7804
  737SOL    HW1 2210   0.031   0.252   0.619 -3.6106  0.0934  0.6036
  737SOL    HW2 2211   2.990   0.312   0.618  2.2264  0.1055  0.7711
  738SOL     OW 2212   2.744   2.382   1.265  0.6547  0.3727  0.4410
  738SOL    HW1 2213   2.789   2.452   1.204  1.7768  1.8745  1.8026
  738SOL    HW2 2214   2.821   2.351   1.321  0.1928  1.4219 -0.7498
  739SOL     OW 2215   1.582   2.753   0.488  0.0622  0.2279 -0.0843
  739SOL    HW1 2216   1.487   2.769   0.528 -1.2563 -0.8863  0.3028
  739SOL    HW2 2217   1.658   2.788   0.551  2.1016  1.8461 -0.0923
  740SOL     OW 2218   1.479   3.058   1.215 -0.1657 -0.1219 -0.2067
  740SOL    HW1 2219   1.507   2.988   1.144  1.5587 -1.8058  2.3938
  740SOL    HW2 2220   1.507   0.044   1.188 -0.6876 -1.3778 -0.6267
  741SOL     OW 2221   2.316   0.297   0.730  0.4419 -0.0488 -0.0904
  741SOL    HW1 2222   2.406   0.253   0.716 -1.0212  2.2258 -0.3950
  741SOL    HW2 2223   2.325   0.394   0.769  1.2967 -0.6884 -0.4796
  742SOL     OW 2224   1.366   2.318   2.089  0.0235 -0.1462  0.3132
  742SOL    HW1 2225   1.435   2.279   2.159  1.6852 -2.5080 -1.7698
  742SOL    HW2 2226   1.420   2.343   2.006  0.1229 -0.5690  0.5010
  743SOL     OW 2227   2.359   0.461   1.903 -0.1024  0.2458 -0.3875
  743SOL    HW1 2228   2.407   0.548   1.938 -0.0043 -1.6435  0.9473
  743SOL    HW2 2229   2.257   0.464   1.914  0.9096 -2.1780 -0.4961
  744SOL     OW 2230   2.333   0.431   1.112  0.7929 -0.4300  0.7170
  744SOL    HW1 2231   2.250   0.469   1.073  1.2758 -2.3576  2.4064
  744SOL    HW2 2232   2.357   0.470   1.200  1.6139  0.1343 -2.3670
  745SOL     OW 2233   2.207   1.476   1.633 -0.2178 -0.5683  0.3068
  745SOL    HW1 2234   2.138   1.521   1.698 -1.2435  2.4924  1.2745
  745SOL    HW2 2235   2.289   1.537   1.610  0.5113 -1.1904  0.6899
  746SOL     OW 2236   1.182   1.530   0.764 -0.6858 -0.0354 -0.0313
  746SOL    HW1 2237   1.272   1.582   0.758 -0.0865 -1.1948 -3.4454
  746SOL    HW2 2238   1.119   1.550   0.683  0.8741 -0.2499 -0.5238
  747SOL     OW 2239   1.789   1.412   1.078  0.5121 -0.1030  0.5733
  747SOL    HW1 2240   1.780   1.320   1.044 -0.3949  1.5494 -0.0048
  747SOL    HW2 2241   1.887   1.425   1.101 -1.2178  1.6480 -1.8805
  748SOL     OW 2242   2.885   0.004   0.515 -0.2070 -0.0907 -0.1726
  748SOL    HW1 2243   2.790   0.045   0.504  3.0972  0.3224  0.5732
  748SOL    HW2 2244   2.939   0.043   0.595  0.1020  2.1331  0.0538
  749SOL     OW 2245   0.080   0.456   1.989 -0.1322  0.1625  0.0464
  749SOL    HW1 2246   0.172   0.408   1.988 -0.0552 -0.9276 -1.2082
  749SOL    HW2 2247   0.088   0.559   1.989 -2.5315 -1.1948  1.4873
  750SOL     OW 2248   1.658   2.976   1.743 -0.0773  0.3485 -0.0309
  750SOL    HW1 2249   1.633   3.056   1.682  0.7503  0.1119 -0.2318
  750SOL    HW2 2250   1.616   2.891   1.704 -0.9921  0.2218 -2.3435
  751SOL     OW 2251   2.748   0.251   0.837 -0.4101  0.1580  1.2089
  751SOL    HW1 2252   2.807   0.265   0.753  1.7860 -0.5446 -0.8925
  751SOL    HW2 2253   2.720   0.333   0.893 -2.1091  3.0085  1.6299
  752SOL     OW 2254   0.402   2.857   1.168 -0.5839  0.7691 -0.2895
  752SOL    HW1 2255   0.444   2.764   1.186 -2.7518 -1.0703  1.1343
  752SOL    HW2 2256   0.311   2.847   1.125 -2.0680 -0.2237 -1.8507
  753SOL     OW 2257   1.131   0.477   2.020  0.7933  0.4162  0.0922
  753SOL    HW1 2258   1.067   0.478   1.938 -2.9025  1.0232 -2.7970
  753SOL    HW2 2259   1.227   0.463   1.990  2.0570 -1.1218  0.6027
  754SOL     OW 2260   1.263   2.755   1.835  0.7210 -0.4906  0.2709
  754SOL    HW1 2261   1.314   2.774   1.747 -1.4279  1.8545 -2.5502
  754SOL    HW2 2262   1.319   2.714   1.910 -0.5530 -0.0247  2.3526
  755SOL     OW 2263   2.682   0.915   0.821 -0.1227  0.0808  0.3691
  755SOL    HW1 2264   2.708   1.003   0.862 -1.1028 -3.2286 -1.0258
  755SOL    HW2 2265   2.731   0.840   0.868 -1.5514  1.7623  1.6240
  756SOL     OW 2266   2.062   1.894   2.698 -0.3010  0.1881  0.5268
  756SOL    HW1 2267   2.029   1.894   2.600 -0.1798 -2.6204  0.4046
  756SOL    HW2 2268   2.031   1.978   2.743 -0.8827  0.0818 -2.1874
  757SOL     OW 2269   1.883   3.078   0.893 -0.1981  0.2421  0.0870
  757SOL    HW1 2270   1.947   0.036   0.854 -0.2215 -2.7550 -0.6710
  757SOL    HW2 2271   1.794   3.079   0.841 -1.5063 -1.1863 -2.4110
  758SOL     OW 2272   1.044   2.702   0.896  0.2640 -0.2004 -0.2816
  758SOL    HW1 2273   0.958   2.677   0.947 -2.2330  1.0332  1.2285
  758SOL    HW2 2274   1.034   2.658   0.804 -0.8026  1.3981  1.7964
  759SOL     OW 2275   2.916   0.492   1.268  0.6010  0.0116  0.2290
  759SOL    HW1 2276   2.968   0.515   1.184  0.8533 -1.3208  1.4718
  759SOL    HW2 2277   2.825   0.536   1.259  1.5273 -1.2641 -0.3588
  760SOL     OW 2278   2.279   1.164   1.252  0.4551  0.5224  0.5240
  760SOL    HW1 2279   2.367   1.210   1.266 -1.1803 -2.3147 -1.6953
  760SOL    HW2 2280   2.207   1.217   1.292 -0.2585  1.9108 -0.7323
  761SOL     OW 2281   0.710   0.932   0.835  0.3329 -0.3425  0.9540
  761SOL    HW1 2282   0.618   0.890   0.832 -1.8217  2.6523  1.7868
  761SOL    HW2 2283   0.789   0.862   0.834  3.0951  0.5298 -3.6637
  762SOL     OW 2284   2.229   1.934   1.364  0.5016 -0.7692  0.1851
  762SOL    HW1 2285   2.256   1.864   1.291 -2.1911 -0.0586  1.9113
  762SOL    HW2 2286   2.196   1.882   1.446 -1.1492  0.8505  0.8520
  763SOL     OW 2287   1.449   1.551   1.863 -0.2682  0.5335  0.0667
  763SOL    HW1 2288   1.428   1.542   1.963  1.0110  0.4913  0.6825
  763SOL    HW2 2289   1.399   1.633   1.829  1.3323  0.5594  0.9515
  764SOL     OW 2290   0.195   2.098   2.203 -0.0136 -0.2960  0.3212
  764SOL    HW1 2291   0.137   2.171   2.245 -0.0836 -1.5421  0.4574
  764SOL    HW2 2292   0.259   2.077   2.276  1.7296  0.1308  1.9240
  765SOL     OW 2293   0.892   2.714   1.282 -0.5474  0.5112 -0.1824
  765SOL    HW1 2294   0.941   2.780   1.343 -2.4026 -0.6868 -1.1025
  765SOL    HW2 2295   0.952   2.631   1.266  2.6159 -0.9822  1.4690
  766SOL     OW 2296   0.834   2.348   2.572  0.3318 -0.2754 -0.3721
  766SOL    HW1 2297   0.832   2.248   2.590 -0.7476 -2.3986  0.7378
  766SOL    HW2 2298   0.846   2.391   2.661 -3.2723 -2.4538 -1.0123
  767SOL     OW 2299   1.460   0.978   2.675  0.1945 -0.1971 -0.3072
  767SOL    HW1 2300   1.445   0.885   2.715 -0.0432  0.1543 -0.2923
  767SOL    HW2 2301   1.420   0.992   2.579  0.1361  0.7139 -2.2510
  768SOL     OW 2302   1.381   2.559   3.109  0.7649 -0.3047  0.0956
  768SOL    HW1 2303   1.472   2.593   3.083 -1.4152  0.6362  0.0909
  768SOL    HW2 2304   1.348   2.498   3.048 -0.3419  3.6204  1.2065
  769SOL     OW 2305   0.070   2.732   1.341 -0.1557 -0.3540 -0.2383
  769SOL    HW1 2306   0.084   2.778   1.252  2.2253  0.5496 -0.5284
  769SOL    HW2 2307   0.163   2.692   1.367 -0.3746  2.0402  0.4673
  770SOL     OW 2308   0.935   0.394   2.625 -0.1650 -0.0682  0.4816
  770SOL    HW1 2309   0.884   0.308   2.623  1.0663  1.3184  2.2271
  770SOL    HW2 2310   0.943   0.426   2.719 -0.7872 -2.1409 -1.6040
  771SOL     OW 2311   0.481   0.066   2.512  0.0837 -0.0893  0.3404
  771SOL    HW1 2312   0.407   0.046   2.444  0.3754 -0.0521 -0.8368
  771SOL    HW2 2313   0.479   0.166   2.529  0.2761  1.7804 -0.3221
  772SOL     OW 2314   2.378   3.100   1.939 -0.4772 -0.2640  0.2504
  772SOL    HW1 2315   2.403   0.090   1.935  1.7309 -0.0805 -1.4299
  772SOL    HW2 2316   2.435   3.058   1.861  2.5906  1.1874 -0.7748
  773SOL     OW 2317   0.803   2.353   1.893  0.1713  0.3169 -0.5328
  773SOL    HW1 2318   0.777   2.448   1.927  3.3246 -2.4417  0.6083
  773SOL    HW2 2319   0.850   2.306   1.970 -2.5378 -0.0019 -0.0781
  774SOL     OW 2320   1.061   0.270   2.209 -0.3778  0.1960  0.1729
  774SOL    HW1 2321   1.124   0.185   2.214  1.1424 -2.0040 -0.5551
  774SOL    HW2 2322   1.064   0.316   2.115 -0.6667 -1.6393 -1.1715
  775SOL     OW 2323   2.181   2.898   2.827  0.0018 -0.3378  0.5726
  775SOL    HW1 2324   2.099   2.915   2.890  0.8523 -1.3162  2.2133
  775SOL    HW2 2325   2.217   2.990   2.796  1.4648  3.1708 -1.1615
  776SOL     OW 2326   1.845   0.534   2.265  0.0390  0.0313  0.2533
  776SOL    HW1 2327   1.854   0.630   2.295 -0.4933 -2.1687  1.8882
  776SOL    HW2 2328   1.776   0.478   2.323  0.5513 -1.3616 -0.0055
  777SOL     OW 2329   2.529   0.913   2.570  0.2366 -0.2900  0.0063
  777SOL    HW1 2330   2.529   1.000   2.625 -1.7409 -1.6914 -0.9695
  777SOL    HW2 2331   2.448   0.909   2.506  2.7362 -0.9050 -0.3386
  778SOL     OW 2332   1.856   0.808   2.289 -0.1251  0.2117  0.3136
  778SOL    HW1 2333   1.816   0.902   2.283  0.7617  0.1993  2.3699
  778SOL    HW2 2334   1.921   0.800   2.213  1.0060  4.9526  2.7092
  779SOL     OW 2335   3.061   0.287   0.097 -0.2812 -0.3319 -0.1524
  779SOL    HW1 2336   0.011   0.366   0.123  0.1612  3.2258 -1.2700
  779SOL    HW2 2337   0.004   0.208   0.072 -0.1163  3.2952 -1.3890
  780SOL     OW 2338   2.320   0.428   2.859  0.1084  0.0893  0.3501
  780SOL    HW1 2339   2.367   0.380   2.786 -0.3911 -2.1125  4.2123
  780SOL    HW2 2340   2.293   0.522   2.839  0.6169  1.3044 -1.0506
  781SOL     OW 2341   0.402   2.870   1.526 -0.1326 -0.1201 -0.0056
  781SOL    HW1 2342   0.384   2.936   1.448 -1.6778  1.8962 -0.4284
  781SOL    HW2 2343   0.372   2.773   1.513 -1.2566 -1.3185 -0.4105
  782SOL     OW 2344   1.718   2.412   0.404  0.2181  0.8711 -0.2246
  782SOL    HW1 2345   1.798   2.412   0.463 -2.0077  0.9042 -3.6217
  782SOL    HW2 2346   1.728   2.474   0.324 -2.2432 -0.6716  2.8959
  783SOL     OW 2347   0.635   1.476   1.473  0.0320  0.4339 -0.0708
  783SOL    HW1 2348   0.661   1.497   1.572 -0.0734  1.2049  2.4419
  783SOL    HW2 2349   0.668   1.391   1.441 -2.5812  2.4290  1.3319
  784SOL     OW 2350   1.526   0.812   2.051 -0.1709  0.1507 -0.2141
  784SOL    HW1 2351   1.515   0.878   1.977  0.3949 -0.4645 -0.0214
  784SOL    HW2 2352   1.584   0.734   2.013 -0.2726 -1.6278 -2.9409
  785SOL     OW 2353   2.605   0.116   1.078 -0.2809  0.2140 -0.2031
  785SOL    HW1 2354   2.501   0.113   1.099  1.4617 -0.2174 -1.5138
  785SOL    HW2 2355   2.628   0.077   0.986  0.9654  2.0138 -0.7984
  786SOL     OW 2356   1.640   3.041   1.446  0.1452  0.8235  0.4081
  786SOL    HW1 2357   1.732   3.000   1.425 -1.2353 -3.4409  1.9131
  786SOL    HW2 2358   1.578   3.030   1.366 -0.5779  0.6781 -2.6994
  787SOL     OW 2359   1.332   0.124   1.372  0.1695 -0.1014 -0.3958
  787SOL    HW1 2360   1.241   0.169   1.354  0.9037  2.8634  0.6898
  787SOL    HW2 2361   1.364   0.071   1.293 -2.7314 -0.8897  1.0137
  788SOL     OW 2362   0.051   0.823   0.278  0.3457 -0.1164  0.3490
  788SOL    HW1 2363   0.070   0.759   0.204  0.9700  3.8664  1.2128
  788SOL    HW2 2364   3.062   0.838   0.285  2.0915 -2.2755 -0.6899
  789SOL     OW 2365   0.490   1.183   1.962  0.2482 -0.3067 -0.4498
  789SOL    HW1 2366   0.592   1.180   1.944  0.3937  0.8082  1.6127
  789SOL    HW2 2367   0.467   1.278   1.990 -0.1503  1.8192  2.9948
  790SOL     OW 2368   0.305   0.583   2.589  0.0262 -0.5984 -0.5984
  790SOL    HW1 2369   0.389   0.631   2.623  2.0695  0.8592 -0.1802
  790SOL    HW2 2370   0.218   0.620   2.635  0.6990  1.4890  0.2585
  791SOL     OW 2371   2.236   0.624   0.326 -0.0754  0.7523  0.6814
  791SOL    HW1 2372   2.165   0.701   0.337  2.3940  0.5998 -2.0781
  791SOL    HW2 2373   2.213   0.538   0.373  2.6808  0.7401 -0.5786
  792SOL     OW 2374   0.945   3.111   1.353  0.1634  0.0480  0.5967
  792SOL    HW1 2375   0.865   3.050   1.341 -1.1934  0.1182  3.1523
  792SOL    HW2 2376   0.959   0.015   1.452 -0.0667 -0.1956 -0.8551
  793SOL     OW 2377   0.353   3.051   1.347 -0.1529  0.0749  0.0016
  793SOL    HW1 2378   0.370   2.978   1.274 -0.1001  0.3784  1.6595
  793SOL    HW2 2379   0.251   3.066   1.362 -0.3326  0.9464  0.3216
  794SOL     OW 2380   0.168   0.570   2.349  0.4089 -0.6240  0.1870
  794SOL    HW1 2381   0.209   0.591   2.438  1.9141 -2.8631 -3.1729
  794SOL    HW2 2382   0.230   0.503   2.301  0.7528 -0.3053 -1.5661
  795SOL     OW 2383   0.491   2.588   2.572 -0.1973  0.4119  0.0207
  795SOL    HW1 2384   0.448   2.652   2.504  2.0968 -1.5666 -1.6874
  795SOL    HW2 2385   0.590   2.606   2.575  0.0512  0.6129 -1.1777
  796SOL     OW 2386   2.182   0.754   2.467  0.0524  0.3551 -0.1237
  796SOL    HW1 2387   2.186   0.819   2.544  1.4549  1.6760 -2.3247
  796SOL    HW2 2388   2.190   0.656   2.498 -0.7676  0.1306  2.1892
  797SOL     OW 2389   2.685   2.273   2.913 -0.1017 -0.3589  0.2722
  797SOL    HW1 2390   2.747   2.240   2.988  2.7250  1.1418 -0.2424
  797SOL    HW2 2391   2.645   2.202   2.854 -1.5925  2.2471 -1.3273
  798SOL     OW 2392   0.164   0.493   1.742  0.0299  0.3257  0.5828
  798SOL    HW1 2393   0.117   0.459   1.822  0.2008 -1.4998 -2.1647
  798SOL    HW2 2394   0.265   0.509   1.757 -0.9476  3.4798  0.5198
  799SOL     OW 2395   0.704   0.209   1.929 -0.5447 -0.4961  0.1408
  799SOL    HW1 2396   0.715   0.296   1.983 -0.5070 -1.7275 -2.2618
  799SOL    HW2 2397   0.609   0.198   1.903  5.4550  2.5380 -0.2433
  800SOL     OW 2398   0.082   2.601   0.303  0.2336  0.7584 -0.3642
  800SOL    HW1 2399   0.074   2.577   0.206  2.8758  1.2631  1.0692
  800SOL    HW2 2400   0.139   2.527   0.348  0.8583 -0.0431 -0.4819
  801SOL     OW 2401   1.805   1.768   1.075  0.3805  0.1934  0.1402
  801SOL    HW1 2402   1.758   1.822   1.003 -0.1988  0.7892 -0.0156
  801SOL    HW2 2403   1.830   1.829   1.155 -1.7021 -0.0463 -1.0596
  802SOL     OW 2404   0.402   0.480   0.315  0.0037  0.6032  0.1179
  802SOL    HW1 2405   0.360   0.516   0.399  0.9676  3.5804  0.7680
  802SOL    HW2 2406   0.432   0.556   0.256  0.6041  0.7485  1.4557
  803SOL     OW 2407   1.238   1.229   2.063  0.3975  0.1888 -0.0164
  803SOL    HW1 2408   1.267   1.328   2.069 -0.2408 -1.3898  0.5913
  803SOL    HW2 2409   1.145   1.201   2.099 -2.9579 -0.6839  3.3586
  804SOL     OW 2410   1.817   2.100   0.867  0.1715  0.0666  0.2282
  804SOL    HW1 2411   1.901   2.086   0.926  1.3536  0.5911  3.8286
  804SOL    HW2 2412   1.746   2.031   0.903 -1.0541 -1.8656  0.8348
  805SOL     OW 2413   0.346   2.024   2.690  0.0901  0.3028  0.0012
  805SOL    HW1 2414   0.269   2.055   2.744  1.5724 -0.9172 -0.9053
  805SOL    HW2 2415   0.355   2.082   2.607  0.9796 -1.1578  2.5464
  806SOL     OW 2416   0.571   2.334   0.453 -0.0637 -0.1198 -0.4398
  806SOL    HW1 2417   0.619   2.359   0.539  0.0370 -0.0411 -1.1802
  806SOL    HW2 2418   0.606   2.250   0.412 -0.3993  0.5337  1.5717
  807SOL     OW 2419   2.555   1.157   2.745 -0.0821 -0.8676  0.3502
  807SOL    HW1 2420   2.618   1.144   2.823  0.5699 -3.0328  1.5210
  807SOL    HW2 2421   2.474   1.207   2.770  0.5318 -1.7431 -3.3312
  808SOL     OW 2422   1.441   2.197   1.019  0.1931  0.2245 -0.0250
  808SOL    HW1 2423   1.503   2.134   1.072  1.8745 -0.4371  0.1799
  808SOL    HW2 2424   1.413   2.276   1.072 -1.0461 -0.7211 -0.5405
  809SOL     OW 2425   0.083   0.542   0.476  0.2020  0.1343 -0.1525
  809SOL    HW1 2426   0.174   0.555   0.511 -0.1902 -2.1558  0.2749
  809SOL    HW2 2427   0.029   0.480   0.535  0.6855 -3.8948 -2.0890
  810SOL     OW 2428   1.443   1.489   0.066  0.0970 -0.3826  0.0457
  810SOL    HW1 2429   1.405   1.575   0.026  3.0680 -1.9847  0.4791
  810SOL    HW2 2430   1.450   1.497   0.170 -0.4805 -1.4989  3.3500
  811SOL     OW 2431   1.628   2.673   1.145  0.8460 -0.5821  0.1677
  811SOL    HW1 2432   1.708   2.720   1.189 -1.1954  0.5033  0.4867
  811SOL    HW2 2433   1.625   2.703   1.046 -0.1213 -2.4736 -2.3925
  812SOL     OW 2434   1.501   2.925   0.971  0.0293 -0.5410 -0.4094
  812SOL    HW1 2435   1.543   2.842   0.932 -1.1961 -0.2919  0.1037
  812SOL    HW2 2436   1.403   2.914   0.954  2.9820  2.2243  0.5324
  813SOL     OW 2437   1.129   0.091   1.920  0.1106  0.8242 -0.5579
  813SOL    HW1 2438   1.036   0.130   1.894  1.1964  1.5139  1.7673
  813SOL    HW2 2439   1.178   0.153   1.980 -1.5566  0.6274 -1.6740
  814SOL     OW 2440   0.950   2.312   2.127  0.9048 -0.0976 -0.1981
  814SOL    HW1 2441   0.945   2.413   2.110  0.0288 -0.4506 -1.2638
  814SOL    HW2 2442   0.981   2.291   2.224 -1.6431  0.7405  0.7922
  815SOL     OW 2443   0.401   3.100   2.803 -0.6023 -0.0810 -0.3339
  815SOL    HW1 2444   0.453   3.031   2.856  0.1339 -0.6216 -1.6018
  815SOL    HW2 2445   0.462   0.066   2.778 -0.2325 -1.8164  0.7282
  816SOL     OW 2446   2.213   1.110   0.120 -0.2232  0.8152 -0.1253
  816SOL    HW1 2447   2.254   1.172   0.051  0.1896 -0.5488 -0.3188
  816SOL    HW2 2448   2.278   1.029   0.134 -1.1975  1.6894 -0.3780
  817SOL     OW 2449   2.712   2.442   2.427  0.5078  0.0825  0.0939
  817SOL    HW1 2450   2.645   2.503   2.473 -0.4100  1.2054 -0.1424
  817SOL    HW2 2451   2.790   2.494   2.407 -2.9314 -2.4474  1.0481
  818SOL     OW 2452   0.817   1.319   0.516  0.1596  0.7283  0.1916
  818SOL    HW1 2453   0.729   1.302   0.471  0.8989 -0.9616 -0.7938
  818SOL    HW2 2454   0.884   1.279   0.455 -2.4790 -1.0193 -0.2647
  819SOL     OW 2455   1.854   1.297   2.558 -0.5018 -0.0577 -1.1081
  819SOL    HW1 2456   1.870   1.265   2.463  2.1827 -1.5072  1.6151
  819SOL    HW2 2457   1.799   1.232   2.615 -0.3908  1.5505  2.9875
  820SOL     OW 2458   0.480   1.188   0.202 -0.2262  0.2223  0.7233
  820SOL    HW1 2459   0.511   1.195   0.299 -2.3132 -0.3834 -0.6356
  820SOL    HW2 2460   0.396   1.130   0.189 -1.6995 -0.2137  0.3942
  821SOL     OW 2461   0.540   2.993   0.958  0.3231  0.6883 -0.5681
  821SOL    HW1 2462   0.641   2.980   0.978  0.4107 -1.0564 -0.3221
  821SOL    HW2 2463   0.483   2.945   1.029  0.0397 -1.3165  1.6729
  822SOL     OW 2464   2.214   2.283   2.910 -0.0992  0.2340  0.3264
  822SOL    HW1 2465   2.273   2.236   2.979  0.5576  3.0033  0.5498
  822SOL    HW2 2466   2.177   2.371   2.951 -4.2652  2.0034 -0.5250
  823SOL     OW 2467   1.192   0.403   2.526 -0.5332 -0.9051 -1.0761
  823SOL    HW1 2468   1.270   0.376   2.595 -0.0615 -0.7005  1.3792
  823SOL    HW2 2469   1.098   0.417   2.568 -1.7235  0.4412 -1.0895
  824SOL     OW 2470   2.496   2.620   1.524  0.0654 -0.6562 -0.2071
  824SOL    HW1 2471   2.530   2.655   1.610 -0.2788  1.5201 -1.1138
  824SOL    HW2 2472   2.519   2.689   1.453 -2.9750  1.3409  0.1499
  825SOL     OW 2473   0.372   2.095   2.431  0.3019 -0.0267 -0.0975
  825SOL    HW1 2474   0.423   2.039   2.366 -0.8853  0.2213 -0.8139
  825SOL    HW2 2475   0.427   2.173   2.456  0.5279  0.4948 -1.7366
  826SOL     OW 2476   1.484   0.283   0.065 -0.1503 -0.0920 -0.2985
  826SOL    HW1 2477   1.525   0.201   0.026 -0.7692 -1.8046  3.3429
  826SOL    HW2 2478   1.475   0.254   0.165  2.2490  0.9097 -0.0390
  827SOL     OW 2479   0.073   1.807   1.907  0.2446  0.4703  0.0729
  827SOL    HW1 2480   0.111   1.735   1.844 -0.2226 -0.7350 -0.3180
  827SOL    HW2 2481   0.003   1.869   1.871  0.8829 -1.4312  1.4693
  828SOL     OW 2482   0.110   0.022   1.409 -0.2475  0.0274  0.5438
  828SOL    HW1 2483   0.068   0.096   1.457 -0.8798  0.8090 -1.0709
  828SOL    HW2 2484   0.087   3.044   1.448  0.1030 -1.4603  1.6401
  829SOL     OW 2485   1.112   1.957   2.399  0.6722 -0.0991  0.1984
  829SOL    HW1 2486   1.131   1.948   2.494 -2.7818  4.1876 -3.3172
  829SOL    HW2 2487   1.064   2.046   2.392  1.9777 -0.6587  0.4969
  830SOL     OW 2488   0.696   0.742   1.563  0.1288 -0.4065 -0.2145
  830SOL    HW1 2489   0.707   0.707   1.468  2.0523 -0.1200  2.2259
  830SOL    HW2 2490   0.598   0.749   1.588  2.2693 -1.3683 -0.7809
  831SOL     OW 2491   2.696   1.710   0.048 -0.0811  0.2105  0.1495
  831SOL    HW1 2492   2.714   1.615   0.029 -0.3882 -1.3877  1.3985
  831SOL    HW2 2493   2.703   1.726   0.147  2.1234 -1.4765 -3.3807
  832SOL     OW 2494   1.310   2.339   2.933 -0.0270 -0.0394 -0.1307
  832SOL    HW1 2495   1.228   2.366   2.882 -1.2532 -2.0480  0.0768
  832SOL    HW2 2496   1.356   2.268   2.886 -1.0267  3.0236  1.7266
  833SOL     OW 2497   0.353   0.382   1.931  0.0812 -0.2241 -0.3192
  833SOL    HW1 2498   0.441   0.421   1.901  2.2317  0.8450 -0.0115
  833SOL    HW2 2499   0.365   0.283   1.921  0.1279 -0.4027  0.2993
  834SOL     OW 2500   0.171   0.816   1.354 -0.3356 -0.5630 -0.9759
  834SOL    HW1 2501   0.230   0.802   1.432 -0.1190 -0.0656 -0.4427
  834SOL    HW2 2502   0.200   0.903   1.305 -0.4150  0.5655 -1.3526
  835SOL     OW 2503   2.497   0.369   0.210 -0.0981  0.1041 -0.2451
  835SOL    HW1 2504   2.518   0.362   0.111  1.9313  1.5736  0.2541
  835SOL    HW2 2505   2.500   0.466   0.245  2.3923  2.2563  0.9074
  836SOL     OW 2506   0.868   2.060   0.505  0.1742  0.0108 -0.4308
  836SOL    HW1 2507   0.910   1.966   0.511  0.0102 -1.4590 -1.4896
  836SOL    HW2 2508   0.935   2.123   0.553  2.7955 -1.3596  1.8498
  837SOL     OW 2509   1.702   1.802   0.450  0.0357  0.2359  0.2728
  837SOL    HW1 2510   1.649   1.834   0.371  0.8281  1.2222 -1.6528
  837SOL    HW2 2511   1.673   1.710   0.481  0.3858  0.6433  1.1198
  838SOL     OW 2512   2.055   1.111   2.047  0.1204  0.0847 -0.3188
  838SOL    HW1 2513   2.126   1.068   1.986  1.5200 -1.2875 -0.1711
  838SOL    HW2 2514   1.958   1.094   2.013 -0.6009  4.1906 -2.1069
  839SOL     OW 2515   1.050   1.276   2.495  0.0812  0.0776 -0.1313
  839SOL    HW1 2516   0.973   1.312   2.440  0.8109 -0.7194 -0.8965
  839SOL    HW2 2517   1.121   1.349   2.504  0.4716  1.0583 -0.5642
  840SOL     OW 2518   0.932   1.302   0.076  0.4857 -0.0387 -0.0286
  840SOL    HW1 2519   0.985   1.259   0.153  2.7128  1.4930  1.6657
  840SOL    HW2 2520   0.836   1.268   0.066  1.8768  0.8993 -0.5807
  841SOL     OW 2521   1.390   2.201   0.053 -0.1788 -0.1505 -0.7636
  841SOL    HW1 2522   1.414   2.257   0.137 -0.1331 -1.3769  0.6509
  841SOL    HW2 2523   1.352   2.263   3.093  2.6449 -0.5648 -1.1290
  842SOL     OW 2524   0.068   0.490   0.191  0.2508 -0.4373 -0.2292
  842SOL    HW1 2525   0.144   0.548   0.154 -0.3854  1.0017  0.5623
  842SOL    HW2 2526   0.082   0.493   0.294 -0.6469  1.0627 -0.5357
  843SOL     OW 2527   0.442   0.521   0.833 -0.7334  0.1759  0.2464
  843SOL    HW1 2528   0.542   0.527   0.856 -0.5861  0.3650  0.8790
  843SOL    HW2 2529   0.402   0.435   0.871  1.0297  0.5523  1.5591
  844SOL     OW 2530   2.230   2.524   2.548 -0.2734  0.1235  0.7355
  844SOL    HW1 2531   2.215   2.576   2.460 -0.0716 -0.6132 -0.8804
  844SOL    HW2 2532   2.231   2.586   2.631 -1.1135  1.0995 -0.8490
  845SOL     OW 2533   3.108   2.526   1.746 -0.1388 -0.0467  0.0968
  845SOL    HW1 2534   3.090   2.601   1.813 -1.1837 -1.2747 -0.6374
  845SOL    HW2 2535   3.038   2.534   1.674 -0.4723 -1.0442  0.4575
  846SOL     OW 2536   2.046   1.467   2.323  0.0909  0.0059  0.4134
  846SOL    HW1 2537   1.999   1.542   2.365  1.4973  0.8951  0.4338
  846SOL    HW2 2538   1.988   1.385   2.328  0.4469 -0.7470 -0.4361
  847SOL     OW 2539   2.935   0.417   2.062 -0.0361 -0.5445 -0.3046
  847SOL    HW1 2540   2.879   0.499   2.088 -2.6037 -0.8318  0.2295
  847SOL    HW2 2541   3.031   0.438   2.032  0.7662 -2.7265  2.9995
  848SOL     OW 2542   2.593   2.722   2.945  0.3707 -0.1415 -0.0397
  848SOL    HW1 2543   2.674   2.730   3.006 -0.5860 -0.9986 -1.5624
  848SOL    HW2 2544   2.589   2.640   2.890 -2.6382  0.7517  0.0207
  849SOL     OW 2545   0.304   2.840   0.606  0.2521  0.0066 -0.2024
  849SOL    HW1 2546   0.340   2.895   0.677  1.1727  1.3876 -1.9956
  849SOL    HW2 2547   0.247   2.766   0.646  0.1400  1.4493 -0.4525
  850SOL     OW 2548   0.775   2.229   0.079 -0.0899 -0.1833  0.4140
  850SOL    HW1 2549   0.865   2.228   0.031  0.7643 -0.6152  0.0381
  850SOL    HW2 2550   0.770   2.299   0.151  1.5745  1.1382  1.3182
  851SOL     OW 2551   1.909   0.443   2.659 -0.1076 -0.9555  0.2768
  851SOL    HW1 2552   1.896   0.538   2.695 -0.3426  0.2090  1.7980
  851SOL    HW2 2553   2.003   0.436   2.616 -1.3271  0.5786  0.5377
  852SOL     OW 2554   1.719   2.675   2.829 -0.0356  0.4927 -0.0866
  852SOL    HW1 2555   1.795   2.674   2.762  1.2749  0.2582  1.7056
  852SOL    HW2 2556   1.658   2.753   2.808  2.5547 -2.0809  2.8381
  853SOL     OW 2557   0.027   2.559   0.049 -0.1360  0.1332  0.0667
  853SOL    HW1 2558   0.072   2.505   3.089 -0.4498 -1.8852 -0.1549
  853SOL    HW2 2559   3.042   2.548   0.046  1.1531 -1.1352  0.9463
  854SOL     OW 2560   1.468   0.590   2.496 -0.2737  0.1013 -0.6177
  854SOL    HW1 2561   1.381   0.548   2.463  1.7788  1.5051 -1.3000
  854SOL    HW2 2562   1.476   0.681   2.456  2.5752 -0.9304  1.4988
  855SOL     OW 2563   0.422   2.743   0.358  0.5874  1.0302  0.2106
  855SOL    HW1 2564   0.424   2.644   0.328  1.3719  2.2435  0.8249
  855SOL    HW2 2565   0.346   2.754   0.429 -2.2346 -1.3791  5.1851
  856SOL     OW 2566   0.182   2.805   2.511  0.5702 -0.0376 -0.5906
  856SOL    HW1 2567   0.255   2.778   2.450 -2.3339 -1.4356  3.2725
  856SOL    HW2 2568   0.157   2.735   2.579  0.3456 -0.0461 -1.5603
  857SOL     OW 2569   1.311   3.076   1.605 -0.3376  0.4057 -0.2969
  857SOL    HW1 2570   1.324   0.020   1.518  0.1064  0.8425  0.9863
  857SOL    HW2 2571   1.341   2.977   1.594  1.0773 -1.8920 -0.8840
  858SOL     OW 2572   0.008   2.027   1.722 -0.4959  0.6005 -0.0345
  858SOL    HW1 2573   0.048   2.075   1.802  0.7909 -0.9902  1.2828
  858SOL    HW2 2574   0.074   2.032   1.646 -1.6988 -1.9399  1.5397
  859SOL     OW 2575   2.145   2.465   2.023  0.3578  0.3607 -0.0073
  859SOL    HW1 2576   2.083   2.515   1.958  1.3267 -0.3699 -3.9984
  859SOL    HW2 2577   2.185   2.382   1.983  1.2549  1.7330  0.4591
  860SOL     OW 2578   1.355   0.324   0.595 -0.1346 -0.5972  0.2803
  860SOL    HW1 2579   1.426   0.308   0.667  0.5709 -1.1487 -0.9944
  860SOL    HW2 2580   1.267   0.293   0.636 -0.1384 -1.3414  1.1941
  861SOL     OW 2581   2.776   0.622   0.919  0.0181  0.3143  0.1513
  861SOL    HW1 2582   2.711   0.556   0.960  0.3594  0.9125 -1.3517
  861SOL    HW2 2583   2.861   0.626   0.967 -2.1024  3.8198  1.0307
  862SOL     OW 2584   1.674   0.608   1.931  0.2749  0.4038  0.0975
  862SOL    HW1 2585   1.680   0.507   1.954  3.0084 -1.5442 -0.5309
  862SOL    HW2 2586   1.765   0.654   1.931 -1.0690  0.4798 -0.8109
  863SOL     OW 2587   0.688   0.557   0.921 -0.3707  0.4813  0.6752
  863SOL    HW1 2588   0.666   0.637   0.977  0.5035 -3.4812 -0.1698
  863SOL    HW2 2589   0.730   0.483   0.973  0.4926  1.8323 -2.7620
  864SOL     OW 2590   3.063   2.859   2.187  0.3591 -0.2190 -0.2554
  864SOL    HW1 2591   2.962   2.864   2.173  0.1465 -0.8066 -0.3676
  864SOL    HW2 2592   3.077   2.805   2.275 -0.3160 -2.5914  1.0870
  865SOL     OW 2593   1.091   1.020   2.549  0.3170  0.5681  0.3740
  865SOL    HW1 2594   1.036   0.934   2.514 -0.7335 -3.5973 -1.3479
  865SOL    HW2 2595   1.056   1.103   2.507 -1.3070  0.4574  2.1175
  866SOL     OW 2596   2.945   2.934   0.311 -0.1543  0.1243  0.5559
  866SOL    HW1 2597   2.932   2.997   0.393  0.3556  0.8883  3.9298
  866SOL    HW2 2598   3.041   2.919   0.280  1.4351  0.3209 -1.0139
  867SOL     OW 2599   2.929   2.785   3.025 -0.1986 -0.1887  0.5035
  867SOL    HW1 2600   2.884   2.768   0.002 -2.5409  2.1288 -0.3349
  867SOL    HW2 2601   2.918   2.881   2.986  0.9167  1.8349 -0.9728
  868SOL     OW 2602   1.584   1.117   3.003 -0.1901 -0.6411 -0.0021
  868SOL    HW1 2603   1.679   1.160   3.016 -0.9899  0.0354 -0.7647
  868SOL    HW2 2604   1.517   1.184   2.967 -1.9658 -2.8142 -2.6013
  869SOL     OW 2605   3.035   1.990   0.665  0.1785  0.1304 -0.5019
  869SOL    HW1 2606   2.957   2.051   0.682  2.0025 -1.8023 -0.3266
  869SOL    HW2 2607   0.016   2.030   0.679  0.0493 -2.0710 -1.7036
  870SOL     OW 2608   2.152   2.032   0.623 -0.4511 -0.3415 -0.1957
  870SOL    HW1 2609   2.205   1.943   0.640 -2.0481 -1.7184  0.1903
  870SOL    HW2 2610   2.159   2.058   0.523  0.8215  0.1098 -0.3617
  871SOL     OW 2611   0.543   1.074   1.113  0.0166 -0.3153 -0.1162
  871SOL    HW1 2612   0.517   1.132   1.032 -0.2961  0.1668  2.6256
  871SOL    HW2 2613   0.614   1.005   1.086  0.7652 -1.7266  0.3859
  872SOL     OW 2614   1.310   1.771   1.791 -0.2940  0.2060  0.0886
  872SOL    HW1 2615   1.213   1.798   1.796  4.5159 -0.3973 -1.5486
  872SOL    HW2 2616   1.371   1.846   1.758  1.8340  0.1242  3.2686
  873SOL     OW 2617   0.557   2.221   2.159  0.5782  0.0674 -0.2295
  873SOL    HW1 2618   0.625   2.261   2.221 -1.7743  0.7621 -0.2069
  873SOL    HW2 2619   0.470   2.276   2.169 -1.9240  1.7811  1.6647
  874SOL     OW 2620   0.816   2.955   1.025 -0.2820 -0.7131 -0.0455
  874SOL    HW1 2621   0.768   2.936   1.109  0.4512 -2.9074 -1.6268
  874SOL    HW2 2622   0.913   2.944   1.042 -1.3469  0.5917 -0.1116
  875SOL     OW 2623   2.877   0.266   1.425  0.3099  0.4687  0.1669
  875SOL    HW1 2624   2.880   0.348   1.364  0.7929  0.3245  2.9069
  875SOL    HW2 2625   2.966   0.240   1.465  0.5231  1.2116  0.0121
  876SOL     OW 2626   0.448   0.743   0.184 -0.0988 -0.0285 -0.1654
  876SOL    HW1 2627   0.439   0.824   0.247 -2.1811  0.0346 -1.4837
  876SOL    HW2 2628   0.529   0.748   0.125 -0.8407 -0.2220 -1.6617
  877SOL     OW 2629   0.373   0.433   1.381  0.4088  0.0536  0.2197
  877SOL    HW1 2630   0.275   0.443   1.403 -0.6550 -0.2137 -0.0373
  877SOL    HW2 2631   0.417   0.466   1.465 -1.6852  3.1862  0.8321
  878SOL     OW 2632   2.650   2.429   0.520  0.0683 -0.2304 -0.4077
  878SOL    HW1 2633   2.593   2.400   0.603 -0.5854 -0.4258  0.4594
  878SOL    HW2 2634   2.740   2.463   0.550  0.6620 -0.2955  2.6647
  879SOL     OW 2635   2.695   1.517   1.202  0.4103 -0.1627 -0.1985
  879SOL    HW1 2636   2.758   1.511   1.283  2.1359  0.8193  1.8463
  879SOL    HW2 2637   2.599   1.550   1.231  0.2879  1.3747  0.2531
  880SOL     OW 2638   1.617   2.707   0.863 -0.1429  0.2106  0.5439
  880SOL    HW1 2639   1.717   2.733   0.856  0.0055  1.0880 -0.2392
  880SOL    HW2 2640   1.604   2.625   0.801 -0.0694  0.0649 -2.1300
  881SOL     OW 2641   1.031   2.173   3.064 -0.2401 -0.3693 -0.0160
  881SOL    HW1 2642   1.032   2.276   3.080  1.3728  1.1719 -0.1619
  881SOL    HW2 2643   1.058   2.122   0.037  1.1287 -1.1591 -0.2641
  882SOL     OW 2644   1.765   0.779   1.208  0.0119  0.5796  0.2255
  882SOL    HW1 2645   1.810   0.691   1.236  0.2953  1.1084  2.6352
  882SOL    HW2 2646   1.671   0.768   1.239  0.7298  2.7996  0.1473
  883SOL     OW 2647   1.507   0.544   1.606 -0.1682 -0.4899 -0.0667
  883SOL    HW1 2648   1.608   0.564   1.584  1.7891 -0.4372 -3.4122
  883SOL    HW2 2649   1.484   0.455   1.566  1.2002  1.8302  0.7689
  884SOL     OW 2650   2.759   0.568   0.216 -0.1685 -0.1212 -0.1763
  884SOL    HW1 2651   2.667   0.558   0.263 -3.4347 -2.4748 -0.1758
  884SOL    HW2 2652   2.800   0.665   0.221 -2.2991  1.4635  2.7644
  885SOL     OW 2653   1.299   1.721   3.055  0.5921 -0.0030  0.0895
  885SOL    HW1 2654   1.194   1.723   3.050  0.6422  1.5078  1.1285
  885SOL    HW2 2655   1.332   1.723   2.958 -1.0181  0.8864  1.9899
  886SOL     OW 2656   1.722   1.519   2.641 -0.4121 -0.4961 -0.3742
  886SOL    HW1 2657   1.752   1.549   2.730  2.1032  0.4428  1.5822
  886SOL    HW2 2658   1.762   1.428   2.614  0.3017 -2.0138 -0.0467
  887SOL     OW 2659   1.483   0.296   1.520 -0.0095  0.5198  0.0629
  887SOL    HW1 2660   1.434   0.220   1.474  1.8665  1.1241  1.2946
  887SOL    HW2 2661   1.541   0.254   1.597 -1.7287 -0.9688  0.3674
  888SOL     OW 2662   2.502   0.685   2.006  0.0960 -0.5152  0.0933
  888SOL    HW1 2663   2.595   0.654   2.030  0.1119  0.0660 -0.3796
  888SOL    HW2 2664   2.490   0.779   1.960 -2.8221  1.7226  0.7688
  889SOL     OW 2665   0.223   2.566   1.058  0.7546  0.0385  0.3935
  889SOL    HW1 2666   0.228   2.488   1.120  0.9672 -0.6591 -0.7205
  889SOL    HW2 2667   0.303   2.568   0.990  1.6085  1.1745 -2.1276
  890SOL     OW 2668   2.432   2.302   0.373  0.1512  0.0551 -0.4458
  890SOL    HW1 2669   2.393   2.387   0.335 -0.7954 -1.3215  1.5199
  890SOL    HW2 2670   2.523   2.331   0.419  1.9989  0.6509 -3.3554
  891SOL     OW 2671   0.666   1.267   2.872  0.2227  0.0319  0.0463
  891SOL    HW1 2672   0.765   1.273   2.852  4.1614  1.7940  0.9204
  891SOL    HW2 2673   0.626   1.195   2.819 -1.4269  0.5514  0.1127
  892SOL     OW 2674   0.010   0.057   1.122  0.4804 -0.1538  0.2377
  892SOL    HW1 2675   0.036   0.053   1.223 -0.3774  1.1936 -0.8755
  892SOL    HW2 2676   3.087   3.077   1.089  0.2959 -2.2675 -2.8508
  893SOL     OW 2677   1.087   0.227   1.300  0.0499 -0.1870 -0.5538
  893SOL    HW1 2678   1.033   0.313   1.301  2.2321  0.7363  0.4834
  893SOL    HW2 2679   1.023   0.148   1.314 -0.1311  2.6037 -1.0890
  894SOL     OW 2680   2.325   0.566   0.797 -0.1149  0.2313  0.0010
  894SOL    HW1 2681   2.322   0.618   0.889  1.2173  1.6702 -0.7318
  894SOL    HW2 2682   2.394   0.620   0.743 -1.3764  1.6269 -3.4098
  895SOL     OW 2683   1.975   2.092   2.089  0.3062 -0.2051 -0.1602
  895SOL    HW1 2684   2.037   2.152   2.144  0.8785 -1.9261  1.4973
  895SOL    HW2 2685   1.997   1.994   2.114 -0.9855  0.5143 -0.8059
  896SOL     OW 2686   1.356   0.241   2.020  0.0241 -0.5843  0.3744
  896SOL    HW1 2687   1.360   0.336   1.983 -1.7183 -1.5195 -0.6302
  896SOL    HW2 2688   1.386   0.175   1.950 -2.3211  2.9357  0.1322
  897SOL     OW 2689   0.639   1.683   1.951 -0.0021  0.4611 -0.1226
  897SOL    HW1 2690   0.724   1.717   1.994  0.1102  0.2138  0.0884
  897SOL    HW2 2691   0.652   1.672   1.850  0.4277  0.3647  0.0589
  898SOL     OW 2692   2.522   2.888   2.077  0.2570  0.3700  0.3755
  898SOL    HW1 2693   2.472   2.970   2.037 -2.1455  0.2448  0.3808
  898SOL    HW2 2694   2.456   2.809   2.082  1.9903  1.2728  0.0534
  899SOL     OW 2695   0.925   0.915   1.145 -0.0525 -0.0065  0.8519
  899SOL    HW1 2696   0.918   1.018   1.133  0.1534 -1.1811  1.8805
  899SOL    HW2 2697   0.905   0.877   1.055 -1.0024  4.8596  1.0923
  900SOL     OW 2698   1.722   2.318   2.926 -0.1339  1.3396  0.2593
  900SOL    HW1 2699   1.684   2.223   2.947 -0.6177  0.4087 -1.6864
  900SOL    HW2 2700   1.777   2.325   2.838  0.1153  2.1536 -1.2522
  901SOL     OW 2701   0.780   2.094   2.665  0.1763 -0.1450  0.3767
  901SOL    HW1 2702   0.685   2.130   2.673  1.3596 -0.7509 -1.1257
  901SOL    HW2 2703   0.781   2.007   2.613  1.7038 -1.3188  0.3450
  902SOL     OW 2704   2.367   1.593   0.115 -0.0542  0.0127  0.2084
  902SOL    HW1 2705   2.454   1.635   0.074  1.0215 -0.7967  2.8246
  902SOL    HW2 2706   2.386   1.570   0.215  1.7779 -1.2961  2.9431
  903SOL     OW 2707   2.025   0.769   0.384 -0.1207  0.0446  0.0956
  903SOL    HW1 2708   2.057   0.862   0.413 -0.4579 -0.2181  0.2071
  903SOL    HW2 2709   1.989   0.782   0.291 -0.7264  1.3131  0.6168
  904SOL     OW 2710   0.452   0.904   2.983 -0.5375 -0.1924 -0.3967
  904SOL    HW1 2711   0.502   0.855   3.060  1.4695 -2.2129  0.2072
  904SOL    HW2 2712   0.391   0.985   3.016  0.9985  1.7026  0.6251
  905SOL     OW 2713   2.329   0.146   1.084  0.0490 -0.5926  0.2052
  905SOL    HW1 2714   2.270   0.139   1.169  1.1816  1.4396  2.7985
  905SOL    HW2 2715   2.359   0.244   1.074  0.5659  2.2860 -2.1939
  906SOL     OW 2716   2.972   2.161   1.050  0.2388  0.2947 -0.1598
  906SOL    HW1 2717   2.884   2.113   1.026 -1.5333 -0.6314 -1.4377
  906SOL    HW2 2718   2.996   2.235   0.984  1.7888 -0.7939  2.2391
  907SOL     OW 2719   1.299   0.602   0.749  0.7090 -0.1520  0.0742
  907SOL    HW1 2720   1.382   0.602   0.687  2.8776  0.4372  1.7818
  907SOL    HW2 2721   1.221   0.640   0.698  0.8358  0.0190 -2.0640
  908SOL     OW 2722   2.064   2.879   1.449  0.0402 -0.6357 -0.0795
  908SOL    HW1 2723   2.058   2.869   1.553 -0.1981  0.5382  1.8095
  908SOL    HW2 2724   2.007   2.959   1.414 -0.8520  1.6541  0.6015
  909SOL     OW 2725   2.549   0.839   1.596  0.0171 -0.5541 -0.0422
  909SOL    HW1 2726   2.634   0.819   1.551 -0.7651  0.7303 -1.0144
  909SOL    HW2 2727   2.543   0.940   1.582 -0.4013  0.0347  2.3856
  910SOL     OW 2728   1.501   2.673   2.422  0.1165 -0.3608 -0.5960
  910SOL    HW1 2729   1.449   2.630   2.343 -0.2088  1.4056 -0.8646
  910SOL    HW2 2730   1.532   2.769   2.402 -1.2073  2.3189 -1.0326
  911SOL     OW 2731   2.082   0.496   2.116 -0.0107  0.4658 -0.1342
  911SOL    HW1 2732   2.002   0.478   2.177 -2.6965 -1.2113 -0.1521
  911SOL    HW2 2733   2.110   0.594   2.112  0.1348  0.2049 -0.7205
  912SOL     OW 2734   2.819   1.579   1.430  0.5449  0.3993 -0.2706
  912SOL    HW1 2735   2.903   1.523   1.452 -0.0725 -0.6160 -0.3908
  912SOL    HW2 2736   2.840   1.681   1.427  1.5252  3.4881 -1.5234
  913SOL     OW 2737   2.877   1.926   1.212  0.3432 -0.4619  0.2888
  913SOL    HW1 2738   2.802   1.992   1.227 -1.7887 -0.0469 -0.8995
  913SOL    HW2 2739   2.901   1.885   1.302 -0.7064 -1.7171 -0.9249
  914SOL     OW 2740   2.126   1.330   1.396 -0.5312  0.5058 -1.0509
  914SOL    HW1 2741   2.165   1.376   1.476 -1.8853 -1.9394 -0.6984
  914SOL    HW2 2742   2.026   1.339   1.392  0.9709  0.5513  3.0119
  915SOL     OW 2743   0.906   1.345   1.373  0.2229  0.0104  0.1501
  915SOL    HW1 2744   0.941   1.252   1.403  0.0330 -1.2854  1.7895
  915SOL    HW2 2745   0.977   1.415   1.373 -0.1752 -0.8029  0.7638
  916SOL     OW 2746   2.281   2.540   1.239  0.0613 -0.2712  0.4161
  916SOL    HW1 2747   2.330   2.485   1.308  0.7047 -0.1676  1.1002
  916SOL    HW2 2748   2.289   2.638   1.256 -0.6261 -0.2796  0.0116
  917SOL     OW 2749   2.592   2.101   0.245 -0.2940 -0.1786  1.0625
  917SOL    HW1 2750   2.538   2.026   0.200 -2.6237 -0.6777  2.2507
  917SOL    HW2 2751   2.532   2.154   0.313 -0.3076  1.7893  1.8678
  918SOL     OW 2752   1.926   2.604   2.667  0.0723 -0.2791 -0.2193
  918SOL    HW1 2753   1.910   2.520   2.612 -1.7260  0.2132 -0.5125
  918SOL    HW2 2754   2.024   2.609   2.702  2.1623  2.5470 -1.0637
  919SOL     OW 2755   1.492   1.971   1.722 -0.0831  0.1404 -0.0522
  919SOL    HW1 2756   1.559   1.932   1.785 -0.8381  0.2674  1.4102
  919SOL    HW2 2757   1.539   2.005   1.635  1.6044 -1.5725 -2.4877
  920SOL     OW 2758   2.874   0.216   2.789  0.3229  0.1019  0.3524
  920SOL    HW1 2759   2.969   0.245   2.790 -3.3770 -2.3447  0.1707
  920SOL    HW2 2760   2.811   0.290   2.750 -1.5509  3.5349  0.7442
  921SOL     OW 2761   2.694   0.339   2.214 -0.2090 -0.1041 -0.6180
  921SOL    HW1 2762   2.698   0.249   2.263  1.4802  1.2627  0.9099
  921SOL    HW2 2763   2.756   0.343   2.132 -0.4660 -0.3426 -0.8174
  922SOL     OW 2764   2.210   2.153   0.383  0.6372  0.8650  0.6653
  922SOL    HW1 2765   2.295   2.212   0.377 -0.1420 -0.7938 -0.3583
  922SOL    HW2 2766   2.215   2.084   0.307 -0.4411 -2.0844 -4.3471
  923SOL     OW 2767   0.382   2.113   0.207 -0.3571  0.2916  0.0537
  923SOL    HW1 2768   0.364   2.105   0.109 -0.4488 -2.0507 -0.1864
  923SOL    HW2 2769   0.484   2.116   0.216 -2.7746  2.1250  0.5106
  924SOL     OW 2770   0.702   0.394   0.170 -0.2428 -0.3554  0.2844
  924SOL    HW1 2771   0.680   0.368   0.267  1.1437 -1.0951  0.6069
  924SOL    HW2 2772   0.749   0.486   0.177  0.8406  2.1104 -0.2543
  925SOL     OW 2773   2.291   0.878   0.843  0.2792 -0.2286 -0.6435
  925SOL    HW1 2774   2.315   0.899   0.749 -3.3176 -1.5609  0.9460
  925SOL    HW2 2775   2.236   0.953   0.887 -0.3643  0.7648  0.2338
  926SOL     OW 2776   2.949   0.849   1.056  0.1992  0.0827  0.4381
  926SOL    HW1 2777   2.927   0.906   1.137  1.0812  0.8306 -3.3398
  926SOL    HW2 2778   3.010   0.767   1.071 -0.9129 -0.6810  0.2310
  927SOL     OW 2779   3.049   1.289   2.904  0.3254 -0.2525  0.5365
  927SOL    HW1 2780   0.000   1.209   2.918  1.3368 -4.3255  0.6652
  927SOL    HW2 2781   3.094   1.377   2.913 -1.8882  1.8543  0.7845
  928SOL     OW 2782   3.038   0.515   2.459  0.0308 -0.0325 -0.1721
  928SOL    HW1 2783   0.003   0.530   2.398 -1.9497 -0.5913 -0.4890
  928SOL    HW2 2784   3.036   0.415   2.482  4.0797 -2.7290  2.2536
  929SOL     OW 2785   0.149   2.819   1.076 -0.2067  0.1566  0.4951
  929SOL    HW1 2786   0.114   2.859   0.990  0.5050 -1.4594  0.3305
  929SOL    HW2 2787   0.139   2.719   1.066  1.1343 -1.7921 -2.1122
  930SOL     OW 2788   2.139   1.801   1.564  0.3031  0.1819  0.0590
  930SOL    HW1 2789   2.137   1.874   1.634  0.3561 -0.6348 -3.9042
  930SOL    HW2 2790   2.047   1.757   1.557 -0.1752 -1.5553  1.5709
  931SOL     OW 2791   1.421   1.645   0.765  0.1490 -0.6258  0.9864
  931SOL    HW1 2792   1.479   1.603   0.833 -1.8562  0.2517 -0.8048
  931SOL    HW2 2793   1.435   1.746   0.749  1.4300  0.5531 -2.5103
  932SOL     OW 2794   2.784   1.280   1.094 -0.6228 -0.3739  0.3233
  932SOL    HW1 2795   2.722   1.204   1.108  3.3241  2.1834 -1.5301
  932SOL    HW2 2796   2.751   1.369   1.137  1.4683 -0.2305  0.3358
  933SOL     OW 2797   2.469   1.651   1.305  0.5465 -0.1653 -0.5769
  933SOL    HW1 2798   2.388   1.685   1.255  0.2493  0.8773  1.0827
  933SOL    HW2 2799   2.455   1.650   1.400 -1.6740 -1.3281 -2.9165
  934SOL     OW 2800   1.621   2.712   1.591  0.0708  0.2683 -0.0310
  934SOL    HW1 2801   1.640   2.688   1.686  0.7834  3.2249 -1.2878
  934SOL    HW2 2802   1.696   2.674   1.534 -1.2378 -0.2191  0.0332
  935SOL     OW 2803   0.119   1.501   0.690 -0.2996 -0.0237 -0.1068
  935SOL    HW1 2804   0.044   1.517   0.756  0.6942  2.0213  2.7849
  935SOL    HW2 2805   0.205   1.511   0.738 -1.4199 -0.6896 -2.5617
  936SOL     OW 2806   0.099   1.112   0.483 -0.3321  0.0130 -0.2727
  936SOL    HW1 2807   0.018   1.059   0.521  2.7014  1.1414 -1.7295
  936SOL    HW2 2808   0.152   1.054   0.420  1.4012 -1.2697  1.6621
  937SOL     OW 2809   1.942   2.443   0.845 -0.1482 -0.1504  0.2729
  937SOL    HW1 2810   1.887   2.363   0.873 -1.5369  0.8254 -2.6207
  937SOL    HW2 2811   1.971   2.497   0.930  0.1497  2.1462  2.0510
  938SOL     OW 2812   2.627   2.098   1.019  0.0815  0.3381 -0.5208
  938SOL    HW1 2813   2.548   2.088   1.084 -0.0361 -0.3649  0.4617
  938SOL    HW2 2814   2.643   2.196   1.000 -1.9799 -4.5069  1.6262
  939SOL     OW 2815   0.663   2.089   0.335  0.0604  0.2214  0.4074
  939SOL    HW1 2816   0.748   2.093   0.387 -0.6903  0.1619 -1.7982
  939SOL    HW2 2817   0.687   2.037   0.248  0.3570  0.1445  0.6050
  940SOL     OW 2818   2.874   0.142   3.049  0.0129 -0.1617  0.6514
  940SOL    HW1 2819   2.909   0.215   3.109 -1.4542 -1.1218 -2.8462
  940SOL    HW2 2820   2.869   0.170   2.949 -0.0088  1.3155  0.4076
  941SOL     OW 2821   1.144   0.377   2.997 -0.0677 -0.6917 -0.5955
  941SOL    HW1 2822   1.147   0.277   3.004 -4.6620  2.7962  1.1239
  941SOL    HW2 2823   1.229   0.419   3.029 -3.1065 -0.0864 -1.1381
  942SOL     OW 2824   1.043   1.402   1.692 -0.5362  0.1943  0.2145
  942SOL    HW1 2825   0.957   1.351   1.686  0.3676  1.2618 -2.8010
  942SOL    HW2 2826   1.029   1.500   1.664  0.3602  4.0195  0.9462
  943SOL     OW 2827   1.710   1.057   1.400 -0.5381  0.1475 -0.2579
  943SOL    HW1 2828   1.646   1.018   1.470  2.1484  0.5016  1.4272
  943SOL    HW2 2829   1.752   0.991   1.337 -1.6376  0.6027 -1.4696
  944SOL     OW 2830   1.782   0.564   1.548  0.5687  0.0881 -0.2220
  944SOL    HW1 2831   1.807   0.576   1.451  1.4484  2.1532 -0.0072
  944SOL    HW2 2832   1.860   0.544   1.608 -1.1826 -1.3982  1.1685
  945SOL     OW 2833   2.960   0.066   0.812  0.0110  0.2616  0.6557
  945SOL    HW1 2834   2.880   0.122   0.851 -2.0733  0.6225  1.7112
  945SOL    HW2 2835   3.053   0.106   0.836  0.6487 -0.9657  3.3079
  946SOL     OW 2836   0.435   0.560   1.609  0.8333 -0.4069  0.4935
  946SOL    HW1 2837   0.495   0.553   1.689  0.1951  1.1587  0.0261
  946SOL    HW2 2838   0.412   0.658   1.599  3.0931 -0.8613  2.3525
  947SOL     OW 2839   0.521   3.013   0.456  0.5941 -0.4291  0.4297
  947SOL    HW1 2840   0.473   2.924   0.472 -0.4141  0.9928 -0.0170
  947SOL    HW2 2841   0.458   3.079   0.416 -0.3361 -0.7591 -2.4085
  948SOL     OW 2842   2.781   1.255   1.693 -0.0926  0.5449 -0.1003
  948SOL    HW1 2843   2.716   1.325   1.657 -1.2961 -1.3906 -1.7174
  948SOL    HW2 2844   2.877   1.277   1.658 -1.2635  1.9694 -1.4945
  949SOL     OW 2845   0.557   1.030   2.757 -0.3674  0.4099  0.3669
  949SOL    HW1 2846   0.529   0.985   2.844 -0.1944  1.3545  2.1035
  949SOL    HW2 2847   0.651   1.008   2.726 -1.8078 -0.0952 -0.0436
  950SOL     OW 2848   0.944   0.787   0.904 -0.3342  0.5116 -0.1696
  950SOL    HW1 2849   0.948   0.684   0.896 -1.1317 -4.1405 -1.5297
  950SOL    HW2 2850   1.021   0.821   0.852  0.2774  0.5977  1.0203
  951SOL     OW 2851   1.079   1.946   2.090  0.1479  0.3478  0.2936
  951SOL    HW1 2852   1.090   2.036   2.050  0.5191 -4.2690 -0.0974
  951SOL    HW2 2853   1.091   1.938   2.189  1.5711  2.0616 -2.6355
  952SOL     OW 2854   0.654   1.868   0.170 -0.5158 -0.0281  0.3349
  952SOL    HW1 2855   0.676   1.785   0.226 -3.5565 -1.5995 -2.8534
  952SOL    HW2 2856   0.570   1.867   0.119  2.3077 -0.8472  2.6394
  953SOL     OW 2857   2.000   2.916   2.315  0.4738 -0.4056  0.0367
  953SOL    HW1 2858   2.008   3.018   2.297  0.3182  0.8390  1.0567
  953SOL    HW2 2859   1.970   2.872   2.228  0.4072  0.0769  0.3994
  954SOL     OW 2860   1.582   1.172   0.723  0.6580 -0.2862  0.3856
  954SOL    HW1 2861   1.604   1.232   0.648  0.1022 -1.2498  0.2417
  954SOL    HW2 2862   1.481   1.168   0.737 -2.0261 -0.0490  3.0417
  955SOL     OW 2863   0.480   2.357   2.447 -0.1802 -0.2554 -0.4251
  955SOL    HW1 2864   0.420   2.373   2.366  0.8013  1.3253 -1.9091
  955SOL    HW2 2865   0.469   2.439   2.508  1.2855  0.8097 -2.3949
  956SOL     OW 2866   1.833   0.125   1.619  0.2126  0.5995  0.1544
  956SOL    HW1 2867   1.908   0.189   1.645  1.6186 -0.7956  1.3342
  956SOL    HW2 2868   1.742   0.160   1.659  0.5238  0.4285 -0.7684
  957SOL     OW 2869   1.719   2.011   2.659  0.1031  0.2611  0.5125
  957SOL    HW1 2870   1.702   1.973   2.568  0.8120  0.9619 -1.1741
  957SOL    HW2 2871   1.708   1.944   2.736 -0.8591  0.6188  1.6550
  958SOL     OW 2872   1.062   2.474   1.210  0.4865 -0.0222 -0.4487
  958SOL    HW1 2873   1.069   2.373   1.234  1.9342 -0.4954  1.7791
  958SOL    HW2 2874   1.137   2.496   1.147  0.1052  1.2434 -1.1608
  959SOL     OW 2875   1.944   2.363   0.027 -0.1995 -0.4001 -0.3897
  959SOL    HW1 2876   1.933   2.314   0.117  0.5228  1.1838  0.0842
  959SOL    HW2 2877   1.872   2.336   3.068  2.6451  1.3187 -0.4150
  960SOL     OW 2878   0.038   0.303   2.787  0.2812  0.1145 -0.1994
  960SOL    HW1 2879   0.100   0.224   2.763  1.1051 -1.3297  0.5804
  960SOL    HW2 2880   0.086   0.392   2.803  0.4799 -3.3675 -0.7779
  961SOL     OW 2881   0.810   0.947   2.701 -0.4137  0.3677 -0.0035
  961SOL    HW1 2882   0.908   0.954   2.726 -0.7166 -0.9775 -1.0563
  961SOL    HW2 2883   0.793   0.847   2.676 -0.0842 -2.8362 -2.4283
  962SOL     OW 2884   1.085   1.202   2.979 -0.1439 -0.1622  0.0979
  962SOL    HW1 2885   1.182   1.234   2.981 -0.9286  0.2004 -0.6012
  962SOL    HW2 2886   1.028   1.258   3.044 -1.4727 -0.7455  2.3804
  963SOL     OW 2887   2.462   1.926   0.039  0.4069 -0.3918 -0.0786
  963SOL    HW1 2888   2.555   1.946   0.007  1.2083  2.9425  0.1401
  963SOL    HW2 2889   2.423   1.856   3.088 -1.2537 -3.6935  1.0342
  964SOL     OW 2890   1.239   2.503   0.989 -1.0200 -0.6760 -0.1185
  964SOL    HW1 2891   1.280   2.448   0.910  1.0048 -1.3303 -0.9975
  964SOL    HW2 2892   1.184   2.587   0.960 -0.2789 -0.7453  1.3649
  965SOL     OW 2893   0.995   1.673   0.962 -0.1780  0.1453 -0.0592
  965SOL    HW1 2894   0.965   1.659   1.058 -1.6413 -3.0981 -0.5024
  965SOL    HW2 2895   1.083   1.630   0.948  0.8966 -1.4804 -2.4898
  966SOL     OW 2896   0.050   1.524   2.992 -0.4376  0.1004  0.3093
  966SOL    HW1 2897   0.067   1.619   2.956 -0.2189  0.5338  0.3413
  966SOL    HW2 2898   0.014   1.527   3.087 -0.5151  0.5770  0.6646
  967SOL     OW 2899   1.735   0.297   1.968 -0.7373 -0.5066 -0.0002
  967SOL    HW1 2900   1.723   0.228   2.041  1.4089  1.2913  1.2106
  967SOL    HW2 2901   1.834   0.311   1.954 -0.8778  0.9485  0.2896
  968SOL     OW 2902   1.753   0.969   0.722  0.1105  0.4997 -0.7684
  968SOL    HW1 2903   1.743   0.935   0.820  0.6101  1.5759  0.9570
  968SOL    HW2 2904   1.670   1.029   0.700 -1.1861  0.5183 -2.1396
  969SOL     OW 2905   0.188   1.325   2.236 -0.3876  0.2915 -0.2270
  969SOL    HW1 2906   0.231   1.290   2.149  0.3584 -0.9002  2.2062
  969SOL    HW2 2907   0.211   1.427   2.250  0.5940  3.7314 -1.4816
  970SOL     OW 2908   2.475   1.244   0.820 -0.1276 -0.0432  0.0168
  970SOL    HW1 2909   2.565   1.288   0.804 -1.5381  2.3343 -0.9248
  970SOL    HW2 2910   2.474   1.145   0.781 -0.0567 -1.2667  1.9186
  971SOL     OW 2911   0.456   0.186   1.260  0.4353 -0.7482 -0.0679
  971SOL    HW1 2912   0.401   0.268   1.285  0.3593 -1.3778 -0.9973
  971SOL    HW2 2913   0.429   0.100   1.304  2.9624 -1.9530 -1.4376
  972SOL     OW 2914   0.507   0.697   2.750 -0.5859  0.0724  0.1843
  972SOL    HW1 2915   0.479   0.786   2.792  1.2145  3.3630 -2.0488
  972SOL    HW2 2916   0.598   0.708   2.702  0.3606 -1.5609  0.1276
  973SOL     OW 2917   0.261   0.987   1.163 -0.4485  0.5354  0.3474
  973SOL    HW1 2918   0.230   1.086   1.154  0.3975  2.8036  0.1402
  973SOL    HW2 2919   0.359   0.982   1.160 -0.2028 -1.1618 -0.1671
  974SOL     OW 2920   2.237   0.992   1.889  0.4539  0.6331 -0.0558
  974SOL    HW1 2921   2.216   1.035   1.798  2.2921 -0.0180 -1.2554
  974SOL    HW2 2922   2.337   0.966   1.890  1.1761  1.7624  1.4736
  975SOL     OW 2923   2.527   2.986   0.104 -0.7729 -0.0115  0.0405
  975SOL    HW1 2924   2.449   2.938   0.065  3.7188 -0.8235  0.5686
  975SOL    HW2 2925   2.504   3.011   0.202  1.4632 -0.0776 -0.5567
  976SOL     OW 2926   3.047   1.296   1.632  0.3147 -0.2144 -0.0227
  976SOL    HW1 2927   3.065   1.381   1.584 -3.7010 -1.6118 -1.6298
  976SOL    HW2 2928   3.097   1.277   1.714  0.3062 -0.2158 -0.6148
  977SOL     OW 2929   0.983   2.825   0.107  0.2051  0.5869  0.3886
  977SOL    HW1 2930   0.983   2.923   0.070  1.7822 -0.1938  0.1299
  977SOL    HW2 2931   0.893   2.773   0.093 -0.9334 -2.5958 -1.4633
  978SOL     OW 2932   0.350   1.629   0.237  0.1464  0.5047  0.0186
  978SOL    HW1 2933   0.359   1.550   0.176  0.8643 -0.7846  1.9092
  978SOL    HW2 2934   0.331   1.602   0.333 -1.4290  0.5015  0.5531
  979SOL     OW 2935   1.557   1.763   1.340 -0.2617  0.2550 -0.1729
  979SOL    HW1 2936   1.634   1.831   1.349 -0.9749 -1.1854  1.0774
  979SOL    HW2 2937   1.584   1.665   1.314  0.2939 -3.1376 -2.2084
  980SOL     OW 2938   0.419   1.464   1.970  0.4759 -0.5740 -0.2611
  980SOL    HW1 2939   0.492   1.531   1.979  0.1975  0.9842 -0.1920
  980SOL    HW2 2940   0.417   1.437   1.871  2.0660  1.0955  0.8517
  981SOL     OW 2941   3.068   1.566   0.144 -0.4680  0.4015 -0.1825
  981SOL    HW1 2942   3.046   1.657   0.184  1.2871  0.8779  0.2293
  981SOL    HW2 2943   0.029   1.508   0.197  0.9721 -0.6855  1.7239
  982SOL     OW 2944   2.519   2.573   2.551 -0.3613  0.4607  0.1795
  982SOL    HW1 2945   2.425   2.531   2.562 -1.0927  3.1219  0.3057
  982SOL    HW2 2946   2.507   2.674   2.538  0.7603  0.3272 -0.6141
  983SOL     OW 2947   1.164   0.620   1.337 -0.3642 -0.0074  0.5092
  983SOL    HW1 2948   1.253   0.569   1.330  0.8854 -2.3405  0.6120
  983SOL    HW2 2949   1.086   0.551   1.334 -1.5720 -2.8016  0.7649
  984SOL     OW 2950   1.126   0.135   2.658 -0.6775  0.7192  0.5399
  984SOL    HW1 2951   1.200   0.110   2.721 -1.9230 -0.1859 -1.3287
  984SOL    HW2 2952   1.143   0.220   2.603  1.1303  0.6681  0.3734
  985SOL     OW 2953   1.563   2.358   1.586 -0.4829 -0.1405  0.2317
  985SOL    HW1 2954   1.468   2.385   1.570 -0.9108  1.6611  0.3615
  985SOL    HW2 2955   1.627   2.434   1.579 -1.9688  1.1080  0.7766
  986SOL     OW 2956   2.341   0.123   2.288  0.4927 -0.0925  0.2782
  986SOL    HW1 2957   2.416   0.128   2.350 -2.3378 -0.7194 -2.9570
  986SOL    HW2 2958   2.366   0.148   2.189 -0.7435  0.1908 -2.3910
  987SOL     OW 2959   2.509   0.600   2.409  0.3325  0.1739  0.4993
  987SOL    HW1 2960   2.612   0.605   2.411  1.0464 -0.7168 -0.1708
  987SOL    HW2 2961   2.474   0.687   2.368 -1.5013 -2.4505  0.7576
  988SOL     OW 2962   2.538   0.785   2.796  0.1359  0.8862 -0.0494
  988SOL    HW1 2963   2.448   0.747   2.823 -0.2631 -0.3881 -0.8396
  988SOL    HW2 2964   2.538   0.835   2.710  1.7228  0.0889  0.1016
  989SOL     OW 2965   2.294   1.973   1.954 -1.0464  0.5214 -0.5042
  989SOL    HW1 2966   2.237   1.925   2.021 -1.7272  0.8987 -1.5443
  989SOL    HW2 2967   2.394   1.970   1.974 -0.3744 -0.7251  0.4304
  990SOL     OW 2968   0.352   1.117   2.611 -0.0746 -0.1559  0.0210
  990SOL    HW1 2969   0.360   1.210   2.578  1.5847 -2.6038  2.0773
  990SOL    HW2 2970   0.436   1.080   2.657  0.4745 -1.7627 -0.0475
  991SOL     OW 2971   0.766   1.803   2.835 -0.3520  0.8392  0.1218
  991SOL    HW1 2972   0.672   1.847   2.834 -1.5780  0.1343 -1.4299
  991SOL    HW2 2973   0.820   1.830   2.920  0.2602 -0.6135  0.9057
  992SOL     OW 2974   2.879   1.896   1.847  0.0207  0.5251  0.1280
  992SOL    HW1 2975   2.778   1.919   1.821 -1.8288  2.6226 -2.2685
  992SOL    HW2 2976   2.940   1.957   1.788 -3.4711  0.0575 -0.7175
  993SOL     OW 2977   0.358   3.067   0.748  0.6290 -0.6678 -0.3175
  993SOL    HW1 2978   0.442   3.063   0.801 -0.8158 -2.3714  1.2817
  993SOL    HW2 2979   0.365   0.036   0.684 -0.2336 -0.4456 -1.0180
  994SOL     OW 2980   0.396   1.798   1.633 -0.0511 -0.1044 -0.2377
  994SOL    HW1 2981   0.496   1.822   1.624 -0.2671  0.2875 -1.8252
  994SOL    HW2 2982   0.337   1.881   1.606  2.7571  0.9349  0.5991
  995SOL     OW 2983   2.233   1.495   2.736  0.0452  0.3395 -0.0174
  995SOL    HW1 2984   2.173   1.576   2.746  2.2111 -0.6243 -1.9734
  995SOL    HW2 2985   2.327   1.513   2.774  3.7186  2.7626 -1.3755
  996SOL     OW 2986   2.038   1.311   2.771 -0.0666 -0.3444  0.1194
  996SOL    HW1 2987   2.105   1.386   2.767 -0.4330  2.1316 -1.3481
  996SOL    HW2 2988   1.984   1.317   2.688 -0.9894  2.1047 -0.4602
  997SOL     OW 2989   1.744   0.827   1.686  0.2636  0.2312 -0.2888
  997SOL    HW1 2990   1.738   0.733   1.652 -1.0727  0.7371  1.8438
  997SOL    HW2 2991   1.670   0.883   1.645  4.0699  1.1971 -0.8246
  998SOL     OW 2992   2.304   2.135   1.013 -0.1545  0.5625  0.0557
  998SOL    HW1 2993   2.304   2.034   0.994 -2.7280 -3.0990 -1.6792
  998SOL    HW2 2994   2.360   2.147   1.100  1.8939 -1.2610  0.5912
  999SOL     OW 2995   2.441   2.352   0.696 -0.2875 -0.7712 -0.4097
  999SOL    HW1 2996   2.433   2.451   0.666 -0.2604  0.7066 -0.6719
  999SOL    HW2 2997   2.347   2.321   0.724 -3.9868  1.9851 -0.3713
 1000SOL     OW 2998   0.956   3.052   2.744  0.0597  0.2028  0.0480
 1000SOL    HW1 2999   1.007   0.017   2.705 -3.0853 -3.7251  0.1555
 1000SOL    HW2 3000   1.024   2.997   2.797  1.8638 -1.4665  0.9847
   3.11177   3.11177   3.11177
