1000 SPC/Fw water molecules t= 491.00000 step= 491000
 3000
    1SOL     OW    1   2.821   2.934   1.234  0.0900 -0.4055  0.0778
    1SOL    HW1    2   2.747   3.000   1.199 -1.2478 -0.8422 -0.5426
    1SOL    HW2    3   2.910   2.979   1.255  0.0792 -1.1641  1.1219
    2SOL     OW    4   2.966   2.521   2.710 -0.1300  0.8255  0.3259
    2SOL    HW1    5   2.916   2.607   2.729 -0.0595 -1.3653 -0.1754
    2SOL    HW2    6   2.964   2.456   2.785 -0.2700  1.5603 -2.8778
    3SOL     OW    7   1.053   1.782   0.173 -0.0368 -0.5504 -0.3562
    3SOL    HW1    8   1.024   1.706   0.239 -0.2356 -2.6558 -1.0912
    3SOL    HW2    9   1.064   1.870   0.220  0.0619  1.7315  2.1249
    4SOL     OW   10   1.382   2.605   2.466 -0.3478  0.2721 -0.0294
    4SOL    HW1   11   1.437   2.533   2.518 -0.8176 -2.5941 -0.9250
    4SOL    HW2   12   1.362   2.691   2.528  1.2787  1.5337  2.0297
    5SOL     OW   13   1.802   0.157   2.900 -0.6865 -0.1303 -0.1640
    5SOL    HW1   14   1.858   0.078   2.871  1.0516  0.3760 -1.2280
    5SOL    HW2   15   1.836   0.183   2.992 -2.0276 -2.4620 -0.8920
    6SOL     OW   16   3.053   1.525   0.862  0.0409  0.4849 -0.5297
    6SOL    HW1   17   3.058   1.434   0.914 -1.7894 -0.8512  2.3164
    6SOL    HW2   18   0.016   1.519   0.762 -1.6315  1.9621 -1.9824
    7SOL     OW   19   0.937   1.738   0.463  0.4326 -0.0222  0.1419
    7SOL    HW1   20   0.958   1.635   0.448  0.5928 -1.9968 -1.7407
    7SOL    HW2   21   1.008   1.779   0.523  1.6195  1.1872  1.5627
    8SOL     OW   22   0.319   0.586   0.293 -0.4010 -0.5442  0.5449
    8SOL    HW1   23   0.301   0.486   0.316 -0.8047 -1.5266 -0.9121
    8SOL    HW2   24   0.270   0.651   0.359  2.2999 -0.8627  2.3257
    9SOL     OW   25   0.050   2.483   1.609 -0.6471 -0.3258  0.5106
    9SOL    HW1   26   0.142   2.495   1.653 -0.2382 -0.7209  0.7242
    9SOL    HW2   27   0.046   2.517   1.513  0.5247  0.6222  1.4663
   10SOL     OW   28   1.452   1.760   0.371 -0.1166  0.1287 -0.6992
   10SOL    HW1   29   1.455   1.810   0.283  1.5891  0.5572  2.9368
   10SOL    HW2   30   1.407   1.813   0.445 -2.1679 -2.9267  0.2182
   11SOL     OW   31   2.098   0.238   1.540  1.0891  0.2512  0.1731
   11SOL    HW1   32   2.007   0.199   1.564 -2.9682  0.1980  1.3936
   11SOL    HW2   33   2.096   0.333   1.501  0.9336  0.0984  1.8498
   12SOL     OW   34   0.326   0.811   2.218  0.2752  0.1853  0.5985
   12SOL    HW1   35   0.426   0.803   2.242  0.1342 -1.3441 -2.1678
   12SOL    HW2   36   0.280   0.718   2.214 -0.7494  0.0703 -0.4003
   13SOL     OW   37   2.068   0.248   0.434  0.0269 -0.2340 -0.0629
   13SOL    HW1   38   2.018   0.160   0.431 -0.5214  1.1323  0.4700
   13SOL    HW2   39   2.008   0.331   0.418 -0.0953  0.0725  4.1446
   14SOL     OW   40   2.334   2.276   2.977  0.6591 -0.1535 -0.1112
   14SOL    HW1   41   2.261   2.220   2.936 -1.9242  0.8276  1.1231
   14SOL    HW2   42   2.289   2.359   3.019  3.0801  0.5980  0.5972
   15SOL     OW   43   2.404   2.969   2.713  0.2169 -0.1331  0.0481
   15SOL    HW1   44   2.347   2.898   2.668 -0.7894  0.5317  1.2364
   15SOL    HW2   45   2.349   3.053   2.730  3.3983  1.3695  3.8593
   16SOL     OW   46   0.060   0.545   1.089  0.5410 -0.3079 -0.1735
   16SOL    HW1   47   0.160   0.556   1.074  0.0956  1.0957 -1.5117
   16SOL    HW2   48   0.013   0.623   1.043  1.6650  0.3680 -1.6495
   17SOL     OW   49   0.674   0.460   1.214 -0.0310  0.3583  0.4472
   17SOL    HW1   50   0.693   0.501   1.119  1.2616 -2.4684 -0.3402
   17SOL    HW2   51   0.571   0.447   1.214 -0.0164 -2.5686 -0.5404
   18SOL     OW   52   3.023   0.164   0.652 -0.0737 -0.2007  0.3600
   18SOL    HW1   53   3.053   0.070   0.619  1.0703 -1.1118  0.1257
   18SOL    HW2   54   0.021   0.234   0.601  2.3013  0.6174 -1.6035
   19SOL     OW   55   2.074   1.727   0.910  0.0846 -0.3948 -0.0503
   19SOL    HW1   56   2.164   1.729   0.957  1.8567 -1.5172  0.2429
   19SOL    HW2   57   2.072   1.737   0.809 -1.8128  0.2891 -1.5922
   20SOL     OW   58   1.965   1.601   2.216  0.2263  0.2525 -0.4992
   20SOL    HW1   59   1.881   1.557   2.175  1.6874 -1.3878  3.0238
   20SOL    HW2   60   1.939   1.683   2.272  3.2077 -1.4961 -0.6759
   21SOL     OW   61   1.214   0.147   0.309 -0.1768 -0.0275 -0.5692
   21SOL    HW1   62   1.165   0.099   0.232  0.4631 -0.1773  2.2313
   21SOL    HW2   63   1.313   0.122   0.305  0.4819 -2.2686 -3.5780
   22SOL     OW   64   2.183   0.790   3.022  0.3602  0.0661 -0.3678
   22SOL    HW1   65   2.268   0.845   3.039 -2.6221  0.9395 -0.5580
   22SOL    HW2   66   2.142   0.802   2.927 -1.3802  0.8476  0.1764
   23SOL     OW   67   0.255   0.287   2.350  0.0266  0.1850 -0.2622
   23SOL    HW1   68   0.218   0.189   2.333 -0.4853 -0.6578 -0.5964
   23SOL    HW2   69   0.329   0.286   2.423  0.4991  3.3304  2.6451
   24SOL     OW   70   2.275   2.232   0.802 -0.2286  0.3451  0.5080
   24SOL    HW1   71   2.270   2.302   0.871  3.7286 -0.8625  0.4515
   24SOL    HW2   72   2.196   2.167   0.797 -3.4894  0.2811  0.7859
   25SOL     OW   73   1.545   0.376   0.103  0.5288 -0.1609  0.2506
   25SOL    HW1   74   1.551   0.273   0.076 -2.2416 -3.0552  3.3226
   25SOL    HW2   75   1.632   0.423   0.082  2.6302  1.5279  0.2956
   26SOL     OW   76   1.128   2.731   2.857 -0.4112 -1.1189 -0.0477
   26SOL    HW1   77   1.041   2.738   2.901  1.7050 -0.8365  0.2282
   26SOL    HW2   78   1.160   2.635   2.871 -0.3216 -1.2630 -0.4275
   27SOL     OW   79   1.034   0.689   1.283  0.2651  0.1805 -0.1214
   27SOL    HW1   80   0.957   0.672   1.345  0.5236  1.9065 -0.4530
   27SOL    HW2   81   0.998   0.740   1.200  1.6617  3.0456 -0.2877
   28SOL     OW   82   0.785   1.981   1.420 -0.0523  0.3187  0.2219
   28SOL    HW1   83   0.862   1.927   1.378  0.8088  0.4470 -0.3723
   28SOL    HW2   84   0.765   1.945   1.515 -0.8373 -0.7102  0.1517
   29SOL     OW   85   2.699   0.471   0.828 -0.2177  0.1609 -0.4105
   29SOL    HW1   86   2.803   0.488   0.829  4.8294  0.0687  2.2308
   29SOL    HW2   87   2.650   0.555   0.862  0.4366 -0.7982 -2.1870
   30SOL     OW   88   1.368   0.257   1.627 -0.4393  0.0432 -0.1985
   30SOL    HW1   89   1.314   0.190   1.674  2.4303  1.0713 -2.1097
   30SOL    HW2   90   1.320   0.315   1.558  0.8952 -1.8338  1.6456
   31SOL     OW   91   1.215   0.143   1.189 -0.2324 -0.5920 -0.6049
   31SOL    HW1   92   1.206   0.238   1.154  2.3617  2.1550  1.9951
   31SOL    HW2   93   1.127   0.091   1.182  0.2100 -2.6579  0.6098
   32SOL     OW   94   2.267   0.956   2.160  0.1792  0.2309 -0.2827
   32SOL    HW1   95   2.355   0.998   2.137 -0.7207 -2.3204 -0.5405
   32SOL    HW2   96   2.228   0.926   2.068 -1.5804  1.7877 -1.3198
   33SOL     OW   97   2.355   2.626   2.821  0.0642 -0.1493  0.3907
   33SOL    HW1   98   2.322   2.570   2.741 -1.1219  1.4760 -1.6458
   33SOL    HW2   99   2.456   2.635   2.813 -1.0322 -2.3969  0.0611
   34SOL     OW  100   2.046   1.009   0.087  0.0444  1.0525  0.0574
   34SOL    HW1  101   2.070   1.004   0.187  0.0476  2.4304 -1.8273
   34SOL    HW2  102   2.114   0.949   0.036 -0.2424 -0.4077  2.0581
   35SOL     OW  103   3.002   1.062   1.243 -0.1105 -0.0683  0.6175
   35SOL    HW1  104   3.031   1.042   1.146  0.0381 -0.5919 -1.6287
   35SOL    HW2  105   2.931   1.136   1.229 -0.2251 -3.8969  0.8019
   36SOL     OW  106   2.214   2.453   2.665 -0.1245  0.7211 -0.1934
   36SOL    HW1  107   2.122   2.491   2.682 -0.1684  1.6985  1.3737
   36SOL    HW2  108   2.235   2.465   2.569  0.0847  0.5602  5.2583
   37SOL     OW  109   1.732   0.149   2.067  0.4235  0.0845 -0.3008
   37SOL    HW1  110   1.684   0.155   1.978 -1.3376  2.1364  0.5813
   37SOL    HW2  111   1.828   0.188   2.073  0.2310 -0.1673 -0.7881
   38SOL     OW  112   1.323   1.568   2.326 -0.1457  0.0717  1.2594
   38SOL    HW1  113   1.283   1.578   2.231 -1.0294  1.2668 -2.9552
   38SOL    HW2  114   1.401   1.510   2.315 -1.0062 -0.2142  0.0009
   39SOL     OW  115   1.638   0.262   1.571  0.1921 -0.2381 -0.0641
   39SOL    HW1  116   1.630   0.280   1.471  1.4472 -1.9189  2.2253
   39SOL    HW2  117   1.550   0.227   1.605  2.1062 -0.9501  2.7685
   40SOL     OW  118   0.651   2.126   0.429  0.2912 -0.8487  0.0348
   40SOL    HW1  119   0.593   2.044   0.433 -0.8883 -0.4760  1.4081
   40SOL    HW2  120   0.641   2.173   0.523  0.1630  4.2128  3.1787
   41SOL     OW  121   2.229   2.211   1.207 -0.4435 -0.2117  0.3628
   41SOL    HW1  122   2.227   2.269   1.125  1.7982 -0.3741  0.4434
   41SOL    HW2  123   2.296   2.250   1.273  1.1109 -0.5327  1.8781
   42SOL     OW  124   2.765   3.039   0.140  0.3595 -0.4278 -0.3667
   42SOL    HW1  125   2.671   3.036   0.105  0.6891 -0.6576 -0.2027
   42SOL    HW2  126   2.770   3.047   0.241  1.2318 -0.2442 -1.3013
   43SOL     OW  127   0.920   1.984   1.886  0.4702  0.0656 -0.0043
   43SOL    HW1  128   0.856   2.032   1.819 -1.7697  1.5235 -0.3816
   43SOL    HW2  129   0.911   1.883   1.878 -1.4840  1.1392  1.2940
   44SOL     OW  130   1.741   2.943   1.078 -0.2641  0.0468  0.6712
   44SOL    HW1  131   1.737   3.027   1.019  0.0005  2.6325 -1.7438
   44SOL    HW2  132   1.744   2.971   1.178  1.4990 -0.3772 -1.1080
   45SOL     OW  133   0.090   2.181   2.394 -0.2055  0.1029  0.2263
   45SOL    HW1  134   0.187   2.212   2.408  1.2712  0.3993  2.7006
   45SOL    HW2  135   0.040   2.171   2.480 -1.0208  3.3381 -2.6593
   46SOL     OW  136   0.682   2.465   1.904  0.1424  0.2335 -0.0384
   46SOL    HW1  137   0.638   2.494   1.992 -0.4016 -0.7301 -0.3033
   46SOL    HW2  138   0.772   2.506   1.891 -0.3721  0.6647  0.3058
   47SOL     OW  139   0.343   2.034   0.688  0.3273 -0.2171 -0.3642
   47SOL    HW1  140   0.355   2.114   0.753  0.8478  0.0513 -0.9019
   47SOL    HW2  141   0.284   1.967   0.731  1.7045  2.2851  0.8941
   48SOL     OW  142   0.749   2.860   1.502 -0.2484 -0.2503  0.1542
   48SOL    HW1  143   0.684   2.814   1.443  4.2674  0.2619  1.6650
   48SOL    HW2  144   0.699   2.917   1.567  2.7508  0.6997  0.2499
   49SOL     OW  145   0.442   2.564   3.017  0.8718  0.1566  0.4895
   49SOL    HW1  146   0.377   2.627   2.970  0.5811 -0.7770 -1.8932
   49SOL    HW2  147   0.468   2.605   0.043  0.9374 -2.2576  1.6449
   50SOL     OW  148   1.609   1.039   0.747  0.1261  0.4419 -0.7571
   50SOL    HW1  149   1.534   1.029   0.818 -2.3461 -1.5212  0.6656
   50SOL    HW2  150   1.699   1.064   0.798  2.9960 -0.4203  2.5772
   51SOL     OW  151   1.798   2.867   0.683  0.6930 -0.3552  0.4892
   51SOL    HW1  152   1.807   2.777   0.720  1.1986  0.1482  2.2186
   51SOL    HW2  153   1.700   2.900   0.684  0.7397 -1.2375  2.1395
   52SOL     OW  154   0.722   1.560   1.001 -0.1432  0.3181 -0.0110
   52SOL    HW1  155   0.662   1.551   0.916 -2.8500  0.8733 -2.9239
   52SOL    HW2  156   0.701   1.477   1.059 -1.4979  0.2061 -1.1278
   53SOL     OW  157   0.279   0.788   2.867  0.2730 -0.2859 -0.5797
   53SOL    HW1  158   0.325   0.840   2.948 -0.8169 -1.5757  2.2031
   53SOL    HW2  159   0.256   0.692   2.891  2.6550 -0.0608 -1.9466
   54SOL     OW  160   2.107   2.100   2.956 -0.1077 -0.0620 -0.6013
   54SOL    HW1  161   2.012   2.069   2.984 -0.5904  0.3845  1.6224
   54SOL    HW2  162   2.175   2.042   3.011 -2.2273  0.5472 -0.2783
   55SOL     OW  163   2.449   2.249   1.346  0.1785 -0.2288  0.0439
   55SOL    HW1  164   2.507   2.330   1.314  0.7227  1.0485 -1.0276
   55SOL    HW2  165   2.498   2.197   1.420  1.0022 -0.0822  2.0300
   56SOL     OW  166   1.671   1.029   1.491  0.1778  0.1793 -0.2968
   56SOL    HW1  167   1.760   1.051   1.542  3.4457  0.2444  1.8404
   56SOL    HW2  168   1.651   1.102   1.422  0.4278  0.5911 -0.1862
   57SOL     OW  169   2.503   1.884   0.978  0.6041  0.0400  0.8116
   57SOL    HW1  170   2.405   1.873   1.017 -2.5642 -0.5796  3.3988
   57SOL    HW2  171   2.521   1.976   0.935 -0.9191  2.5793 -0.0251
   58SOL     OW  172   1.972   0.238   2.089  0.2174 -0.2696  0.0938
   58SOL    HW1  173   2.038   0.267   2.158 -2.3916 -2.0130  1.8228
   58SOL    HW2  174   2.000   0.247   1.991 -0.0902 -0.4639 -1.6642
   59SOL     OW  175   1.363   0.211   2.449 -0.3167 -0.1232  0.2072
   59SOL    HW1  176   1.437   0.253   2.395 -0.2250  0.0189 -0.4731
   59SOL    HW2  177   1.364   0.111   2.435  1.1152 -3.2666  2.0843
   60SOL     OW  178   1.648   1.984   3.013 -0.2883  0.4031 -0.2973
   60SOL    HW1  179   1.584   1.932   0.013  0.7321  2.4550 -0.5601
   60SOL    HW2  180   1.603   2.071   2.989  2.1947 -1.0872  2.4026
   61SOL     OW  181   0.546   1.901   2.933  0.7249  0.6022 -0.3933
   61SOL    HW1  182   0.592   1.819   2.887  1.0870 -1.6551 -1.2715
   61SOL    HW2  183   0.449   1.908   2.899 -3.7761 -1.3365  1.0217
   62SOL     OW  184   1.355   2.401   1.294  0.2788  0.7659 -0.5955
   62SOL    HW1  185   1.279   2.466   1.309  0.3789 -0.8211 -0.6461
   62SOL    HW2  186   1.371   2.356   1.385 -1.4691 -0.6396  0.0280
   63SOL     OW  187   0.526   1.879   0.514 -0.7615  0.1433  0.1895
   63SOL    HW1  188   0.472   1.938   0.577 -1.4859  0.0865 -0.3750
   63SOL    HW2  189   0.464   1.825   0.457 -0.5560 -1.5248  4.8231
   64SOL     OW  190   1.871   1.773   2.409  0.7875 -0.2421 -0.0084
   64SOL    HW1  191   1.956   1.793   2.457 -0.6270  0.6004  1.5071
   64SOL    HW2  192   1.836   1.869   2.383 -0.2675  0.2683  1.9392
   65SOL     OW  193   1.829   2.057   1.268  0.4989  0.0451 -0.0673
   65SOL    HW1  194   1.755   2.049   1.205 -1.6391  2.6640  0.5917
   65SOL    HW2  195   1.812   2.129   1.338 -0.2174 -1.1246 -2.3210
   66SOL     OW  196   2.741   0.191   0.601  0.0781  0.5165 -0.2105
   66SOL    HW1  197   2.838   0.194   0.627 -2.6880 -2.4796 -2.3701
   66SOL    HW2  198   2.685   0.172   0.681  0.7180 -0.4466 -1.1646
   67SOL     OW  199   2.079   2.613   1.043  0.5462  0.7721  0.4940
   67SOL    HW1  200   1.986   2.640   1.082 -2.9881 -1.0797  1.0139
   67SOL    HW2  201   2.122   2.692   0.989  3.4816  0.6996 -0.7325
   68SOL     OW  202   2.608   2.455   1.581 -0.2008 -0.0332 -0.2080
   68SOL    HW1  203   2.514   2.455   1.546 -0.2161 -0.5927  4.3141
   68SOL    HW2  204   2.657   2.528   1.530  0.3851 -0.7965 -1.0433
   69SOL     OW  205   2.627   2.634   2.801 -0.1650 -0.0247 -0.9686
   69SOL    HW1  206   2.702   2.706   2.797  1.2005  2.1103  0.7835
   69SOL    HW2  207   2.645   2.569   2.880  2.2305 -1.9149  1.9736
   70SOL     OW  208   1.261   1.885   2.159 -0.2371 -0.0502  0.0332
   70SOL    HW1  209   1.198   1.966   2.177 -0.7931 -0.3756 -2.5566
   70SOL    HW2  210   1.349   1.900   2.216  1.5477  2.8313  0.0682
   71SOL     OW  211   1.165   2.077   1.823 -0.1416  0.2929  0.4336
   71SOL    HW1  212   1.065   2.072   1.855 -0.6673  3.0048  0.4613
   71SOL    HW2  213   1.220   2.142   1.883  0.0530 -3.1895 -1.3218
   72SOL     OW  214   2.599   1.193   1.414 -0.2161  0.4127  0.2617
   72SOL    HW1  215   2.698   1.224   1.419  1.2976  1.2524  0.5548
   72SOL    HW2  216   2.580   1.120   1.481 -0.8556  0.7171  1.0674
   73SOL     OW  217   0.719   1.942   2.296  0.5970 -0.0282  0.4180
   73SOL    HW1  218   0.711   1.894   2.208  0.3402  1.6525  1.1982
   73SOL    HW2  219   0.677   2.033   2.294  0.6145  0.7330  0.6027
   74SOL     OW  220   0.899   0.076   2.343 -0.2239 -0.2836 -0.2242
   74SOL    HW1  221   0.928   0.006   2.408 -0.8175  3.2287  0.0161
   74SOL    HW2  222   0.977   0.110   2.287  0.4123  0.1768 -2.8286
   75SOL     OW  223   0.893   2.952   0.813  0.6351 -0.4883  1.1076
   75SOL    HW1  224   0.928   2.925   0.905 -2.0523  1.1411 -0.1968
   75SOL    HW2  225   0.971   2.988   0.759 -0.7065  1.3149  1.0653
   76SOL     OW  226   0.463   1.084   2.487  0.1357 -0.2253  0.0024
   76SOL    HW1  227   0.532   1.056   2.553 -3.3689  1.9443 -3.6351
   76SOL    HW2  228   0.372   1.052   2.514 -0.0989  3.3761 -1.7239
   77SOL     OW  229   0.585   2.824   0.595 -0.4331  0.2797  0.6531
   77SOL    HW1  230   0.559   2.729   0.616 -0.4691 -0.0041  2.4263
   77SOL    HW2  231   0.680   2.823   0.552  0.9613  0.4784 -2.1448
   78SOL     OW  232   2.439   0.998   2.786 -0.0035  0.1412  0.2760
   78SOL    HW1  233   2.454   0.967   2.695  2.1614  1.0786  0.9818
   78SOL    HW2  234   2.373   1.076   2.795  0.8578 -1.3337  2.0604
   79SOL     OW  235   1.088   1.400   2.356 -0.2821  0.1460 -0.0400
   79SOL    HW1  236   1.165   1.445   2.403  1.0267 -2.4562  0.3553
   79SOL    HW2  237   1.004   1.460   2.356 -0.9540  1.0398 -0.5273
   80SOL     OW  238   2.118   0.763   1.383 -0.3602 -0.2736 -0.1632
   80SOL    HW1  239   2.121   0.741   1.284  0.7819  0.6673  1.2991
   80SOL    HW2  240   2.149   0.860   1.405  2.0663 -0.0305  0.2300
   81SOL     OW  241   2.058   0.833   2.786 -0.2602  0.1089  0.0077
   81SOL    HW1  242   1.997   0.913   2.780  1.3420  0.5803 -0.1628
   81SOL    HW2  243   2.079   0.787   2.697 -1.6326  1.3781  0.7312
   82SOL     OW  244   2.269   1.922   1.463  0.5834  0.5033 -0.3284
   82SOL    HW1  245   2.175   1.920   1.417 -1.7205 -0.8077 -0.7470
   82SOL    HW2  246   2.271   1.886   1.559  0.5725  0.1589  1.9024
   83SOL     OW  247   1.743   2.907   0.252  0.0753 -0.2787  0.5447
   83SOL    HW1  248   1.646   2.884   0.274 -0.9445  1.0767 -1.9218
   83SOL    HW2  249   1.748   2.922   0.151  0.2961  2.6857  0.6905
   84SOL     OW  250   1.026   0.525   0.559  0.3160 -0.4701 -0.1594
   84SOL    HW1  251   1.080   0.439   0.550 -0.9737 -0.0282 -0.7139
   84SOL    HW2  252   0.995   0.534   0.658  0.8413 -2.9707  0.1638
   85SOL     OW  253   2.142   1.486   1.296 -0.4020  0.0083  0.2257
   85SOL    HW1  254   2.183   1.451   1.211 -2.6782  0.7659  2.5788
   85SOL    HW2  255   2.184   1.574   1.326 -0.3349  0.9768  2.2312
   86SOL     OW  256   0.652   0.798   1.062  0.1985 -0.8153 -0.2847
   86SOL    HW1  257   0.740   0.844   1.081  2.0173 -3.5648 -0.9435
   86SOL    HW2  258   0.601   0.820   1.148  0.7109 -1.1664  1.4699
   87SOL     OW  259   3.049   1.908   2.479  0.0508  0.1895 -0.3288
   87SOL    HW1  260   2.970   1.842   2.465 -0.6976  1.1234 -1.2386
   87SOL    HW2  261   0.043   1.897   2.397  1.0764 -1.3766  3.3548
   88SOL     OW  262   0.447   0.012   2.809 -0.4482  0.0329 -0.4885
   88SOL    HW1  263   0.514   0.068   2.753  0.5229  0.4712  2.0672
   88SOL    HW2  264   0.413   2.992   2.755  1.1359 -1.5664 -4.0217
   89SOL     OW  265   1.719   0.584   1.188  0.1270 -0.1714 -0.0918
   89SOL    HW1  266   1.777   0.668   1.174  1.5642  0.6644 -0.7477
   89SOL    HW2  267   1.653   0.600   1.262  1.4677 -2.1089  0.1228
   90SOL     OW  268   2.878   1.001   1.893  0.2158 -0.1153 -0.2972
   90SOL    HW1  269   2.790   1.053   1.876 -4.6309  1.6645 -2.1184
   90SOL    HW2  270   2.916   0.969   1.805 -0.2372  1.7808  0.8198
   91SOL     OW  271   1.803   2.617   0.825 -0.2019  0.6715 -0.0274
   91SOL    HW1  272   1.880   2.547   0.800  1.2821 -0.8239  1.4598
   91SOL    HW2  273   1.803   2.642   0.925  0.0584  1.4328 -0.0530
   92SOL     OW  274   1.827   2.063   0.668  0.4060 -0.5049  0.2771
   92SOL    HW1  275   1.898   2.101   0.606 -1.2674  0.1125  1.6519
   92SOL    HW2  276   1.759   2.135   0.670  0.6077 -2.2489  1.4977
   93SOL     OW  277   0.086   1.330   0.352  0.4468 -0.5998  1.0488
   93SOL    HW1  278   0.036   1.354   0.438  1.1318 -1.1580  1.0326
   93SOL    HW2  279   0.175   1.286   0.372  1.4702 -1.9822  0.5028
   94SOL     OW  280   0.589   2.155   0.973  0.3435 -0.3969 -0.2993
   94SOL    HW1  281   0.676   2.171   0.924 -0.7805  3.0758  2.1704
   94SOL    HW2  282   0.595   2.151   1.077 -1.1557 -1.3730  0.5433
   95SOL     OW  283   0.318   1.065   0.371  0.3282  0.2049 -0.4989
   95SOL    HW1  284   0.266   1.108   0.450 -2.3161  1.5174  0.5147
   95SOL    HW2  285   0.406   1.024   0.402  3.2708 -0.6355 -1.1256
   96SOL     OW  286   0.936   2.614   1.909  0.3077 -0.0501  0.1032
   96SOL    HW1  287   1.004   2.690   1.908 -1.1106  1.8684  2.2517
   96SOL    HW2  288   0.957   2.545   1.980 -3.0227 -0.3490  2.7767
   97SOL     OW  289   2.449   1.004   0.547 -0.4819 -0.3552 -0.1100
   97SOL    HW1  290   2.373   1.021   0.608  3.7968  0.7164  0.6056
   97SOL    HW2  291   2.461   1.061   0.466  3.4426 -0.2087 -1.8364
   98SOL     OW  292   0.175   1.810   1.912 -0.6339 -0.0260  0.3012
   98SOL    HW1  293   0.174   1.896   1.857  1.7704 -0.4917  0.3044
   98SOL    HW2  294   0.271   1.765   1.914  0.6498  0.8238 -1.9855
   99SOL     OW  295   0.213   0.433   1.802  0.7697 -0.0817  0.1369
   99SOL    HW1  296   0.278   0.438   1.723  0.8121 -0.2931 -0.2715
   99SOL    HW2  297   0.257   0.400   1.889  0.5896 -3.0463  2.0746
  100SOL     OW  298   1.984   0.743   2.477  0.0167  0.2177 -0.1500
  100SOL    HW1  299   1.971   0.654   2.523  0.5336  0.6192 -1.6273
  100SOL    HW2  300   1.902   0.794   2.444  0.5821 -0.2132  0.8606
  101SOL     OW  301   0.844   0.481   1.960  0.4970 -0.3945  0.2735
  101SOL    HW1  302   0.915   0.477   2.032 -1.2163  2.0359 -1.3478
  101SOL    HW2  303   0.841   0.401   1.897  0.7080  0.2153 -2.1933
  102SOL     OW  304   0.394   0.442   1.582 -0.2932 -0.8094  0.0582
  102SOL    HW1  305   0.475   0.482   1.634  0.4412 -0.3568 -1.0198
  102SOL    HW2  306   0.422   0.380   1.511  2.1825 -0.7964  1.0925
  103SOL     OW  307   0.506   0.850   0.036 -0.1461  0.7003 -0.6277
  103SOL    HW1  308   0.485   0.749   0.041 -1.6132 -2.8351  0.4370
  103SOL    HW2  309   0.574   0.871   0.108 -1.0357  0.0985  0.6364
  104SOL     OW  310   0.431   2.663   1.864 -0.0723 -0.1379  0.4448
  104SOL    HW1  311   0.370   2.738   1.897  1.2486  0.9228  0.9100
  104SOL    HW2  312   0.485   2.623   1.939 -2.4323  0.4119  0.9087
  105SOL     OW  313   2.270   2.732   2.070 -0.1804  0.2188  0.0342
  105SOL    HW1  314   2.365   2.771   2.082  1.2531  3.1065 -0.3146
  105SOL    HW2  315   2.231   2.752   1.978 -3.6128  0.2755 -0.8351
  106SOL     OW  316   0.477   2.874   0.841 -0.5264 -0.1681  0.0786
  106SOL    HW1  317   0.517   2.956   0.879 -0.8044 -5.3617 -1.2702
  106SOL    HW2  318   0.533   2.850   0.758  1.4157 -0.6422 -3.4284
  107SOL     OW  319   0.060   1.360   1.084  0.3166  0.0170  0.5328
  107SOL    HW1  320   0.121   1.285   1.117 -2.6390 -1.3436  1.2199
  107SOL    HW2  321   0.085   1.441   1.140 -3.0447 -2.7084  0.8678
  108SOL     OW  322   0.105   2.449   1.121 -0.0664 -0.4913  0.0979
  108SOL    HW1  323   0.086   2.483   1.029  0.1475 -1.3672  2.5423
  108SOL    HW2  324   0.144   2.358   1.120 -1.4084  1.3142 -0.0840
  109SOL     OW  325   1.043   2.820   0.290  0.5754 -0.3781 -0.1714
  109SOL    HW1  326   1.086   2.889   0.352  0.2928  2.0908  0.6761
  109SOL    HW2  327   1.118   2.790   0.230  0.1757 -0.4386  2.2465
  110SOL     OW  328   1.374   1.978   0.541  0.6135 -0.1333 -0.2310
  110SOL    HW1  329   1.436   2.044   0.497 -0.6678 -1.1803  0.8502
  110SOL    HW2  330   1.290   2.032   0.566 -0.3584  1.6840  0.1262
  111SOL     OW  331   1.593   2.685   2.023  0.0614 -0.2747  0.4252
  111SOL    HW1  332   1.657   2.615   2.062 -0.3534 -1.5912  0.2842
  111SOL    HW2  333   1.612   2.786   2.049  0.4296  2.4500  2.7545
  112SOL     OW  334   2.141   2.813   2.785  0.2375  0.0523 -0.1057
  112SOL    HW1  335   2.072   2.744   2.758  1.4673  2.2294  0.9787
  112SOL    HW2  336   2.230   2.777   2.777 -3.4565  1.3753 -2.6889
  113SOL     OW  337   2.297   2.020   2.133  0.7278 -0.0711 -0.0759
  113SOL    HW1  338   2.363   2.093   2.163  1.0308  1.4685 -2.6710
  113SOL    HW2  339   2.343   1.957   2.068  0.0181  1.2697 -2.8268
  114SOL     OW  340   0.102   1.158   1.774 -0.9305 -0.1958 -0.4096
  114SOL    HW1  341   0.103   1.057   1.780  0.3052 -0.5552  0.4534
  114SOL    HW2  342   0.006   1.184   1.799  1.3109 -0.5857 -0.8411
  115SOL     OW  343   0.042   0.876   0.121  0.5160 -0.2460 -0.2248
  115SOL    HW1  344   3.032   0.917   0.181 -1.9739 -0.2990 -2.2024
  115SOL    HW2  345   0.129   0.934   0.118 -0.3864  1.8719 -0.7551
  116SOL     OW  346   2.784   0.592   3.025 -0.5092  0.6889  0.0679
  116SOL    HW1  347   2.744   0.585   2.936  2.6112  1.4390  0.5049
  116SOL    HW2  348   2.858   0.521   3.033 -0.1478  1.2383 -1.6751
  117SOL     OW  349   2.887   2.795   0.558  0.1161 -0.0957  0.3154
  117SOL    HW1  350   2.927   2.705   0.529 -0.1220  0.3326 -1.8834
  117SOL    HW2  351   2.821   2.782   0.632  1.0626  1.9913  1.9066
  118SOL     OW  352   1.035   2.473   2.101  0.0955 -0.5037  0.0229
  118SOL    HW1  353   1.130   2.449   2.070  1.2578  0.9513 -1.2608
  118SOL    HW2  354   0.984   2.383   2.101 -0.5218 -2.5924  2.3686
  119SOL     OW  355   0.787   2.409   3.020  0.4808 -0.7482 -0.2007
  119SOL    HW1  356   0.795   2.404   2.924  1.8265 -0.3273  2.1334
  119SOL    HW2  357   0.756   2.319   3.045 -0.8433  4.1522 -0.0037
  120SOL     OW  358   1.394   0.912   0.201  1.0221 -0.1052 -0.0603
  120SOL    HW1  359   1.436   0.819   0.203  0.3274  0.8429 -0.3529
  120SOL    HW2  360   1.348   0.933   0.113  1.3924 -1.5452 -2.1759
  121SOL     OW  361   1.377   1.186   1.208  0.1234 -0.4720  0.2459
  121SOL    HW1  362   1.465   1.178   1.258  0.2549  1.1996  3.0886
  121SOL    HW2  363   1.396   1.226   1.119 -2.9561  0.8604 -0.1243
  122SOL     OW  364   1.919   1.269   2.044 -0.0599 -0.5158  0.0476
  122SOL    HW1  365   1.841   1.216   2.000 -0.7464 -2.2778  1.5592
  122SOL    HW2  366   1.958   1.211   2.118  0.7187  1.9102 -0.1456
  123SOL     OW  367   3.044   0.865   0.561 -0.2740 -0.4353 -0.3758
  123SOL    HW1  368   0.034   0.908   0.635  0.6021 -2.9402  0.2659
  123SOL    HW2  369   2.961   0.811   0.592  1.6320 -2.3346  0.0866
  124SOL     OW  370   0.777   0.309   3.026  0.0749 -0.1783 -0.0776
  124SOL    HW1  371   0.676   0.322   3.010 -0.9776  1.5202  2.9818
  124SOL    HW2  372   0.836   0.352   2.958 -1.8385  0.9934  0.2522
  125SOL     OW  373   0.566   2.783   2.782 -0.2789 -0.2544  0.1398
  125SOL    HW1  374   0.589   2.691   2.762  1.3224  4.8267  0.1331
  125SOL    HW2  375   0.485   2.788   2.842 -0.8136  0.6147 -0.3057
  126SOL     OW  376   0.829   1.378   2.596  0.4093 -0.8075  0.1627
  126SOL    HW1  377   0.868   1.448   2.533  0.1333 -0.5935 -2.5324
  126SOL    HW2  378   0.898   1.341   2.659  3.2911 -1.3809 -1.2311
  127SOL     OW  379   1.042   2.912   1.038  0.1790  0.0074 -0.3055
  127SOL    HW1  380   1.032   2.983   1.111  1.0599  0.7906  1.2466
  127SOL    HW2  381   1.135   2.906   1.002 -2.3433  3.4502  0.9718
  128SOL     OW  382   1.581   2.268   0.186 -0.2223  0.0025 -0.5112
  128SOL    HW1  383   1.536   2.247   0.098 -0.1822  1.1440 -1.3054
  128SOL    HW2  384   1.577   2.364   0.216  1.8039  0.1686 -2.0463
  129SOL     OW  385   1.941   1.662   1.298 -0.2074 -0.6886  0.1882
  129SOL    HW1  386   2.002   1.586   1.274  1.0096 -0.2614 -0.8278
  129SOL    HW2  387   1.916   1.712   1.212  0.8942 -2.1379  1.5586
  130SOL     OW  388   1.977   1.880   1.458  0.1130  0.5569  0.6045
  130SOL    HW1  389   1.968   1.791   1.408  2.3602 -0.8533 -0.3905
  130SOL    HW2  390   1.918   1.950   1.409 -0.9063  0.9543 -0.5718
  131SOL     OW  391   0.933   2.967   1.843  0.3984 -0.3672  0.1951
  131SOL    HW1  392   1.009   2.903   1.854 -2.0859 -0.9085 -1.8984
  131SOL    HW2  393   0.847   2.911   1.848 -1.5770 -0.0207 -0.0025
  132SOL     OW  394   2.708   1.529   0.674 -0.4842 -0.0234 -0.0937
  132SOL    HW1  395   2.608   1.550   0.672  0.2881 -0.3874 -0.1043
  132SOL    HW2  396   2.753   1.576   0.750 -2.7642  0.2861  1.0638
  133SOL     OW  397   0.617   1.608   1.634  0.3501  0.3369  0.2855
  133SOL    HW1  398   0.574   1.534   1.693 -2.9998  0.7777 -1.2002
  133SOL    HW2  399   0.541   1.671   1.604  0.2224 -0.1478 -0.4186
  134SOL     OW  400   0.153   0.970   0.761 -0.1734 -0.3340  0.0298
  134SOL    HW1  401   0.174   1.035   0.689  3.3400 -1.1494  3.0770
  134SOL    HW2  402   0.242   0.938   0.798  0.0092 -4.3890  1.8555
  135SOL     OW  403   1.905   1.928   2.998 -0.4108 -0.1345  0.4018
  135SOL    HW1  404   1.942   1.920   0.028  2.0978  0.1901 -0.8567
  135SOL    HW2  405   1.802   1.947   2.996  1.7182  1.6494 -2.0114
  136SOL     OW  406   2.873   1.642   1.313  0.1146 -0.5208 -0.6179
  136SOL    HW1  407   2.961   1.587   1.312  2.6943 -0.9785 -1.3445
  136SOL    HW2  408   2.822   1.640   1.402 -1.0247  1.3169  1.0401
  137SOL     OW  409   2.282   1.228   2.783  0.2052  0.2590 -0.3583
  137SOL    HW1  410   2.183   1.247   2.751 -1.4617  0.4154 -0.1210
  137SOL    HW2  411   2.292   1.255   2.882 -0.4139 -2.1440 -0.2894
  138SOL     OW  412   2.990   0.336   0.979 -0.5126 -0.0263  0.6419
  138SOL    HW1  413   2.982   0.359   0.880 -0.7244  0.1743 -1.3033
  138SOL    HW2  414   3.037   0.412   1.031 -1.8453  0.4490 -1.9636
  139SOL     OW  415   1.878   2.235   0.051 -0.0463 -0.0414  0.7164
  139SOL    HW1  416   1.790   2.214   0.101 -1.2878 -0.3358 -1.7976
  139SOL    HW2  417   1.859   2.214   3.016  0.4040  0.5191  0.6449
  140SOL     OW  418   0.932   1.524   0.800  0.2727 -0.2589 -0.3646
  140SOL    HW1  419   0.860   1.553   0.862  0.9990  2.8699  2.6870
  140SOL    HW2  420   0.985   1.604   0.773 -1.2569 -0.1322  0.9728
  141SOL     OW  421   1.364   1.527   0.997 -0.1696  0.4547  0.3887
  141SOL    HW1  422   1.357   1.509   0.897 -0.8060 -0.4677 -1.5631
  141SOL    HW2  423   1.438   1.592   1.017  0.5838  1.4775 -2.3206
  142SOL     OW  424   0.905   0.863   1.117 -0.3396  0.2411  0.2954
  142SOL    HW1  425   0.947   0.855   1.025 -0.5171 -1.9004 -0.2220
  142SOL    HW2  426   0.972   0.911   1.174 -0.2907 -2.1983  1.0092
  143SOL     OW  427   0.213   0.144   2.871  0.2553  0.1563  0.2056
  143SOL    HW1  428   0.302   0.095   2.888  4.1775  1.2720  0.1433
  143SOL    HW2  429   0.219   0.243   2.893 -1.1746 -2.0270 -0.4238
  144SOL     OW  430   2.325   0.153   0.369 -0.2645 -0.3446 -0.2882
  144SOL    HW1  431   2.357   0.244   0.336 -0.5588 -0.6502  3.6203
  144SOL    HW2  432   2.239   0.166   0.422  2.1493 -0.2847  1.7313
  145SOL     OW  433   1.991   3.039   2.806  0.1401  0.4362 -0.4722
  145SOL    HW1  434   1.955   3.048   2.712  1.2898 -0.0840  2.9376
  145SOL    HW2  435   2.047   2.952   2.813 -2.5683 -1.2424  2.0502
  146SOL     OW  436   0.076   2.960   0.261  0.6494  0.1797  0.4372
  146SOL    HW1  437   0.171   2.940   0.225  0.5854  1.7426  1.4020
  146SOL    HW2  438   0.002   2.925   0.197 -1.9953  1.9029 -3.5426
  147SOL     OW  439   1.715   1.119   0.292  0.0149 -0.0801  0.2907
  147SOL    HW1  440   1.637   1.126   0.355  0.7290 -0.0065  1.0604
  147SOL    HW2  441   1.684   1.133   0.196  0.0256  2.9180  0.2386
  148SOL     OW  442   0.817   2.822   0.445  0.0182 -0.1636 -0.2466
  148SOL    HW1  443   0.884   2.802   0.367  0.1075 -0.6396 -1.9850
  148SOL    HW2  444   0.825   2.920   0.470  2.5501 -0.7289 -0.6972
  149SOL     OW  445   1.182   0.725   2.367  0.1642 -0.4185  0.7495
  149SOL    HW1  446   1.099   0.672   2.349  1.4322  0.2661 -1.0730
  149SOL    HW2  447   1.244   0.682   2.430 -1.4654 -0.5576 -3.9322
  150SOL     OW  448   1.350   2.796   2.667  0.1630  1.4850 -0.0423
  150SOL    HW1  449   1.279   2.773   2.737 -1.4792 -0.6641  0.0041
  150SOL    HW2  450   1.442   2.822   2.704  2.4459  1.6068 -1.0724
  151SOL     OW  451   0.186   1.191   3.003 -0.4564 -0.1034  0.0118
  151SOL    HW1  452   0.260   1.248   2.965 -3.1317 -0.5097 -1.9613
  151SOL    HW2  453   0.234   1.119   3.062  3.0582 -0.9807 -0.8861
  152SOL     OW  454   0.576   0.119   1.457  0.3635  0.2668  0.6253
  152SOL    HW1  455   0.481   0.142   1.428  0.2568  0.1192 -0.0515
  152SOL    HW2  456   0.586   0.108   1.559  0.9203 -0.1953  3.0777
  153SOL     OW  457   2.638   2.952   1.502 -0.1436 -0.3005 -0.1302
  153SOL    HW1  458   2.648   3.056   1.485 -0.1794  0.9711  0.3329
  153SOL    HW2  459   2.701   2.900   1.443 -0.0021 -0.6612 -1.0399
  154SOL     OW  460   2.397   0.030   1.861 -0.4636  0.4759  0.2314
  154SOL    HW1  461   2.333   0.004   1.785  0.3855 -3.5861 -0.1627
  154SOL    HW2  462   2.403   0.135   1.870  2.5452  3.6237 -3.2848
  155SOL     OW  463   0.582   1.239   0.274  0.4756 -0.0145 -0.1035
  155SOL    HW1  464   0.556   1.149   0.312  1.3857 -0.8158 -0.5627
  155SOL    HW2  465   0.671   1.235   0.221  1.1977  0.8223 -1.7521
  156SOL     OW  466   1.934   1.622   0.295 -0.5790 -0.0947 -0.0477
  156SOL    HW1  467   1.988   1.575   0.367  0.9074  1.6771 -0.8678
  156SOL    HW2  468   1.843   1.643   0.336  1.7781  0.0626 -1.3894
  157SOL     OW  469   0.853   1.875   3.040  0.2722  0.2703 -0.0387
  157SOL    HW1  470   0.763   1.847   0.011  1.6114 -0.5356  1.5865
  157SOL    HW2  471   0.925   1.856   0.048  0.2217 -1.4158  0.0859
  158SOL     OW  472   1.773   0.838   1.835 -0.2199 -0.4048  0.4279
  158SOL    HW1  473   1.685   0.830   1.885  1.2025 -0.8490 -1.0204
  158SOL    HW2  474   1.827   0.754   1.839  2.8980  1.6310  0.8928
  159SOL     OW  475   0.335   0.117   0.636 -1.0499 -0.1229  0.1916
  159SOL    HW1  476   0.271   0.077   0.706  0.4410  0.0688  0.1944
  159SOL    HW2  477   0.351   0.047   0.563  1.0726  1.5910  1.2750
  160SOL     OW  478   2.380   1.530   1.757 -0.1309 -0.5864 -0.2053
  160SOL    HW1  479   2.464   1.518   1.811 -1.5415 -1.8849  1.6963
  160SOL    HW2  480   2.312   1.457   1.783  3.2911  0.2727  0.9676
  161SOL     OW  481   0.480   0.059   0.014  0.0913  0.0715 -0.2149
  161SOL    HW1  482   0.430   3.058   0.075 -0.1685 -1.2848 -1.0388
  161SOL    HW2  483   0.476   0.024   2.978 -0.3644 -0.8557 -1.0309
  162SOL     OW  484   0.133   0.498   2.460  0.2483 -0.2686 -0.4534
  162SOL    HW1  485   0.034   0.503   2.492  3.7815 -3.5590 -1.2431
  162SOL    HW2  486   0.164   0.403   2.448 -0.4221 -1.7655 -0.7901
  163SOL     OW  487   0.069   2.824   2.717 -0.1045 -0.2071  0.5475
  163SOL    HW1  488   0.074   2.725   2.683 -0.6026  1.0696 -1.5434
  163SOL    HW2  489   0.074   2.824   2.820 -0.6596  0.6056  1.2628
  164SOL     OW  490   2.608   2.085   0.291  0.4078  0.0293 -0.0607
  164SOL    HW1  491   2.547   2.151   0.238 -2.7800  1.2776 -1.9219
  164SOL    HW2  492   2.637   2.135   0.377 -1.5043 -0.5551  0.3695
  165SOL     OW  493   1.140   0.853   1.493 -0.2513 -0.4129 -0.0025
  165SOL    HW1  494   1.225   0.805   1.531  0.4150  0.8340 -1.3421
  165SOL    HW2  495   1.123   0.811   1.405 -0.2714  0.2681  1.3628
  166SOL     OW  496   2.959   0.448   0.321  0.3533  0.0229 -0.0698
  166SOL    HW1  497   2.994   0.350   0.330 -1.8532 -0.3370  0.5845
  166SOL    HW2  498   3.025   0.513   0.277  2.3445 -0.7156 -0.1085
  167SOL     OW  499   2.143   0.688   1.130 -0.3001 -0.3834  0.2288
  167SOL    HW1  500   2.204   0.742   1.069  0.4674 -0.6541  0.0163
  167SOL    HW2  501   2.187   0.603   1.165  2.7406 -1.2022  1.3650
  168SOL     OW  502   1.094   0.453   2.122  0.0913  0.3090  0.0275
  168SOL    HW1  503   1.194   0.450   2.102 -1.4939  2.4758 -0.9388
  168SOL    HW2  504   1.078   0.493   2.217 -0.3438 -0.5513  1.9009
  169SOL     OW  505   1.135   2.045   1.334  0.0520  0.1212 -0.1472
  169SOL    HW1  506   1.088   1.955   1.350 -0.1289  0.6855  0.5751
  169SOL    HW2  507   1.140   2.094   1.422 -0.3903  4.0947  0.7763
  170SOL     OW  508   3.008   2.975   1.602  0.3565  0.0591 -0.3721
  170SOL    HW1  509   0.029   2.914   1.614  2.0268  0.9358  1.8726
  170SOL    HW2  510   3.009   3.018   1.511 -1.7379 -0.6449  0.3905
  171SOL     OW  511   2.593   0.676   2.451 -0.4903  0.5270 -1.0517
  171SOL    HW1  512   2.613   0.605   2.517 -1.4928  1.5205 -2.5439
  171SOL    HW2  513   2.533   0.640   2.379  0.3161 -0.1964  0.9631
  172SOL     OW  514   1.230   2.938   1.652  0.4118  0.1086 -0.4714
  172SOL    HW1  515   1.270   2.939   1.563 -0.4954  0.2632  0.9015
  172SOL    HW2  516   1.186   3.032   1.667  0.0108  1.9158  0.3971
  173SOL     OW  517   2.549   2.319   2.812 -0.2837 -0.1906 -0.1421
  173SOL    HW1  518   2.481   2.324   2.887  0.4268  1.8701  0.1090
  173SOL    HW2  519   2.530   2.387   2.736  0.1449 -1.5309  2.7087
  174SOL     OW  520   1.881   0.949   0.437 -0.2808 -0.0120  0.1765
  174SOL    HW1  521   1.981   0.956   0.415 -0.3638  2.8703 -2.2494
  174SOL    HW2  522   1.834   1.012   0.375 -0.9309  0.3059  0.8487
  175SOL     OW  523   0.885   1.504   1.254 -0.1004 -0.0781 -0.0949
  175SOL    HW1  524   0.981   1.529   1.221  0.3428 -0.4247 -1.1270
  175SOL    HW2  525   0.865   1.539   1.349  0.3394  1.9653  1.1612
  176SOL     OW  526   0.177   3.034   0.791 -0.2631 -0.4039  0.3750
  176SOL    HW1  527   0.232   2.958   0.833  1.4329 -0.8645 -1.6555
  176SOL    HW2  528   0.105   2.999   0.724 -0.7898 -2.7845  0.1926
  177SOL     OW  529   2.604   1.114   3.003 -0.1398  0.6195 -0.7147
  177SOL    HW1  530   2.699   1.112   3.040  2.4496  0.6959  1.5524
  177SOL    HW2  531   2.606   1.089   2.904 -0.5833 -3.1290 -2.2047
  178SOL     OW  532   2.840   2.668   2.245 -0.3375  0.3331 -0.5921
  178SOL    HW1  533   2.820   2.692   2.147 -2.3510  1.1989  0.0833
  178SOL    HW2  534   2.839   2.566   2.253  1.9838 -2.1355 -2.3029
  179SOL     OW  535   2.294   2.955   0.308 -0.1894 -0.5564 -0.4448
  179SOL    HW1  536   2.236   2.940   0.224  0.9342  0.3298 -1.0068
  179SOL    HW2  537   2.310   3.055   0.329  2.3521  0.8024 -0.3638
  180SOL     OW  538   2.064   0.733   0.697  0.0075  0.1130 -0.1323
  180SOL    HW1  539   2.084   0.646   0.745 -0.8396  1.0496  3.6949
  180SOL    HW2  540   1.962   0.745   0.682 -1.7249  0.2396 -1.3389
  181SOL     OW  541   2.740   0.294   2.838 -0.1210  0.7289 -0.6113
  181SOL    HW1  542   2.807   0.223   2.802 -0.8224  1.5099 -0.6958
  181SOL    HW2  543   2.728   0.278   2.940  0.0211 -1.6202  1.1967
  182SOL     OW  544   2.646   1.955   2.300 -0.1878 -0.2106 -0.1328
  182SOL    HW1  545   2.609   1.869   2.269  2.5847  0.9139 -0.0902
  182SOL    HW2  546   2.590   2.037   2.273 -0.7039  1.9905 -1.4718
  183SOL     OW  547   0.361   0.913   1.957 -0.0049  0.4026 -1.0337
  183SOL    HW1  548   0.347   1.014   1.955 -0.7647 -1.7283  0.5432
  183SOL    HW2  549   0.341   0.876   2.049  1.6826  0.6215 -1.1416
  184SOL     OW  550   0.227   1.164   1.179  0.3309 -0.0668  0.1044
  184SOL    HW1  551   0.258   1.202   1.269  1.6202 -0.3093 -0.5488
  184SOL    HW2  552   0.299   1.099   1.144 -2.5705 -2.9722  0.2486
  185SOL     OW  553   2.867   2.411   1.112 -0.1255 -0.1475 -0.1371
  185SOL    HW1  554   2.902   2.340   1.174  0.4451  2.0786  0.8074
  185SOL    HW2  555   2.947   2.466   1.082 -3.0777 -3.3876  0.6298
  186SOL     OW  556   1.558   2.755   2.974  0.3327  0.6190 -0.1598
  186SOL    HW1  557   1.563   2.654   2.950 -0.5680 -1.7858 -1.6713
  186SOL    HW2  558   1.464   2.792   2.969 -0.0166  1.4196  1.0016
  187SOL     OW  559   0.433   1.313   0.586 -0.6649  0.1054 -0.0849
  187SOL    HW1  560   0.490   1.294   0.673  1.7198 -1.3757  0.2872
  187SOL    HW2  561   0.490   1.356   0.514  0.8941 -0.5069  0.7920
  188SOL     OW  562   1.727   1.881   0.337  0.2659  0.0881 -0.5290
  188SOL    HW1  563   1.668   1.795   0.329 -1.4033 -3.6327  1.3052
  188SOL    HW2  564   1.672   1.965   0.363  0.7496 -0.2607  0.5355
  189SOL     OW  565   0.056   1.613   2.962 -0.2401 -0.8000  0.1697
  189SOL    HW1  566   0.027   1.585   3.057  0.9304 -1.2933  1.4838
  189SOL    HW2  567   0.157   1.601   2.949 -1.1077  1.3626 -0.6582
  190SOL     OW  568   2.415   0.545   2.280  0.1261 -0.4868  0.2426
  190SOL    HW1  569   2.398   0.586   2.188 -1.4146 -1.6221  1.8502
  190SOL    HW2  570   2.373   0.456   2.288 -0.0756  1.6462 -2.1552
  191SOL     OW  571   0.555   1.102   2.183 -0.8010 -0.3868  0.0089
  191SOL    HW1  572   0.459   1.137   2.198 -1.0282  0.9583 -1.2471
  191SOL    HW2  573   0.627   1.141   2.245  0.7067  0.0957  1.2375
  192SOL     OW  574   2.036   1.141   1.795  0.6377 -0.2681 -0.0759
  192SOL    HW1  575   1.958   1.182   1.844  0.5917 -1.6202  0.3803
  192SOL    HW2  576   2.001   1.109   1.705  0.5263 -1.6480 -1.4613
  193SOL     OW  577   0.656   0.027   0.889 -0.0152 -0.1836  0.5247
  193SOL    HW1  578   0.640   0.106   0.825  0.1875  2.3333 -0.5066
  193SOL    HW2  579   0.739   3.041   0.851  1.1719  1.7839 -3.5551
  194SOL     OW  580   1.404   2.038   1.273 -0.1787 -0.2028  0.3053
  194SOL    HW1  581   1.430   1.986   1.189 -3.3281 -0.6781 -0.0492
  194SOL    HW2  582   1.303   2.037   1.280 -2.0711 -0.0750  1.4954
  195SOL     OW  583   1.961   0.468   0.960  0.0604 -0.2799  0.0990
  195SOL    HW1  584   1.995   0.518   1.043  0.0276  0.2754  0.1628
  195SOL    HW2  585   1.858   0.458   0.953 -2.6680 -2.5400 -0.3348
  196SOL     OW  586   1.151   1.748   1.970 -0.1610 -0.3198  0.2556
  196SOL    HW1  587   1.153   1.803   1.885 -1.5283 -3.6140 -0.8681
  196SOL    HW2  588   1.198   1.794   2.051 -0.4135 -1.0195  0.7681
  197SOL     OW  589   2.825   2.819   2.805 -0.1494  0.4004  0.0187
  197SOL    HW1  590   2.913   2.872   2.790  2.6296 -0.2385 -0.0821
  197SOL    HW2  591   2.747   2.884   2.830 -2.2083 -0.3074  1.2745
  198SOL     OW  592   2.970   0.556   0.797 -0.1884 -0.1444 -0.2195
  198SOL    HW1  593   0.008   0.556   0.780 -1.8421 -0.3471  1.1208
  198SOL    HW2  594   2.920   0.632   0.753  3.4865 -2.0321 -1.1406
  199SOL     OW  595   0.496   1.879   1.014 -0.4430 -0.3262 -0.0277
  199SOL    HW1  596   0.533   1.853   1.108  0.2623  0.0247  1.6997
  199SOL    HW2  597   0.515   1.977   0.997 -0.8515  0.4968  0.7610
  200SOL     OW  598   2.611   1.683   2.990  0.3957 -0.3287 -0.2249
  200SOL    HW1  599   2.570   1.734   2.913  1.2410  0.7453 -0.8498
  200SOL    HW2  600   2.598   1.581   2.986 -3.7099 -3.6109  1.9070
  201SOL     OW  601   1.112   2.524   1.556  0.0418 -0.1396  0.0463
  201SOL    HW1  602   1.142   2.566   1.465 -0.1560  0.9082  3.4513
  201SOL    HW2  603   1.014   2.550   1.570 -0.4303 -0.3744 -1.6682
  202SOL     OW  604   0.903   2.664   2.998  0.0125  0.0083 -0.3564
  202SOL    HW1  605   0.870   2.573   2.997  1.2988 -1.6706 -1.5697
  202SOL    HW2  606   0.860   2.718   0.013  0.4419 -2.1271  3.6126
  203SOL     OW  607   1.297   2.947   2.987 -0.0117 -0.2224  0.1551
  203SOL    HW1  608   1.340   3.017   2.925 -4.4174  3.9583 -1.7588
  203SOL    HW2  609   1.202   2.918   2.957  1.0931 -0.9045  0.8671
  204SOL     OW  610   0.497   1.585   1.316  0.5193 -0.2454 -0.4369
  204SOL    HW1  611   0.476   1.558   1.216 -1.5361 -0.8537 -0.9903
  204SOL    HW2  612   0.540   1.507   1.368  0.8956 -0.5648  0.0227
  205SOL     OW  613   1.752   1.136   1.878  0.8107  0.1664  0.3982
  205SOL    HW1  614   1.758   1.035   1.863  1.1071  1.3281 -1.4873
  205SOL    HW2  615   1.651   1.164   1.870  0.0801 -3.4330 -1.8620
  206SOL     OW  616   0.119   1.907   0.042 -0.2212 -0.0432 -0.1446
  206SOL    HW1  617   0.145   1.811   0.007 -0.8379  1.0500  0.9152
  206SOL    HW2  618   0.018   1.918   0.044 -1.0711  0.0523 -1.0940
  207SOL     OW  619   0.301   2.049   2.058  0.1427 -0.2471  0.0318
  207SOL    HW1  620   0.384   2.000   2.021  2.3839  0.7427  0.3490
  207SOL    HW2  621   0.231   2.076   1.987  2.1162  0.0160  1.4334
  208SOL     OW  622   0.369   2.465   0.834  0.1194 -0.5094 -0.1188
  208SOL    HW1  623   0.404   2.506   0.744  0.2162  1.6950  2.0472
  208SOL    HW2  624   0.374   2.535   0.906 -0.5463 -2.5331 -2.2043
  209SOL     OW  625   0.928   2.870   2.173  0.5635 -0.6852 -0.5487
  209SOL    HW1  626   0.870   2.955   2.169 -1.2682  0.6375  0.3357
  209SOL    HW2  627   0.867   2.786   2.181  1.5178 -0.5226 -0.6823
  210SOL     OW  628   2.632   1.100   1.909  0.3598  0.3121  0.7181
  210SOL    HW1  629   2.545   1.123   1.861  0.2062  0.6915  1.1357
  210SOL    HW2  630   2.606   1.025   1.971  1.8384  0.0752  3.1831
  211SOL     OW  631   1.114   0.129   1.734 -0.0349 -0.0208 -0.3446
  211SOL    HW1  632   1.093   0.186   1.650  1.7669  3.0682 -0.7707
  211SOL    HW2  633   1.032   0.080   1.775 -2.1909 -0.2450 -0.6974
  212SOL     OW  634   1.857   2.682   1.776  0.1795  0.4407 -0.7118
  212SOL    HW1  635   1.895   2.635   1.859  1.3468 -1.0798 -0.2434
  212SOL    HW2  636   1.805   2.621   1.718  0.6705 -0.5426  0.7172
  213SOL     OW  637   0.011   0.230   1.750  0.0116 -0.1300 -0.3062
  213SOL    HW1  638   0.068   0.313   1.749  0.1744 -2.6721  1.9173
  213SOL    HW2  639   3.051   0.205   1.845 -1.3078  1.6262  1.8859
  214SOL     OW  640   0.892   2.170   0.926 -0.6630 -0.5363  0.1340
  214SOL    HW1  641   0.917   2.195   1.021 -0.2973  1.5496  0.5655
  214SOL    HW2  642   0.957   2.215   0.859  1.3652 -0.9361  1.4860
  215SOL     OW  643   2.622   2.192   0.575 -0.2443  0.2891  0.1515
  215SOL    HW1  644   2.581   2.276   0.611  0.6223 -1.6497 -0.5441
  215SOL    HW2  645   2.722   2.189   0.593  1.2948  2.6523 -2.5604
  216SOL     OW  646   0.096   0.858   1.860 -0.4122 -0.4050 -0.2028
  216SOL    HW1  647   0.199   0.847   1.871 -0.6161  2.3938  2.0805
  216SOL    HW2  648   0.049   0.782   1.810  1.5983 -0.0140  0.4048
  217SOL     OW  649   2.491   0.231   1.468 -0.1728 -0.2545  0.2251
  217SOL    HW1  650   2.435   0.253   1.547  1.4006  0.7500 -2.1773
  217SOL    HW2  651   2.453   0.159   1.416  2.0902  2.4502  0.7704
  218SOL     OW  652   1.679   2.504   1.656  0.0429  0.0414  0.1939
  218SOL    HW1  653   1.671   2.475   1.559  1.8401  0.2850  0.4841
  218SOL    HW2  654   1.611   2.579   1.688 -0.0501  1.4122  0.7709
  219SOL     OW  655   2.011   2.450   2.973 -0.5914 -0.8661  0.0302
  219SOL    HW1  656   2.101   2.492   3.006  3.4723 -1.5677  4.1531
  219SOL    HW2  657   2.012   2.358   3.011  3.5112  2.6848  0.8459
  220SOL     OW  658   1.468   2.857   0.304  0.4948 -0.0807 -0.1113
  220SOL    HW1  659   1.473   2.964   0.300  1.1087  1.0960  0.8931
  220SOL    HW2  660   1.386   2.824   0.252  0.9422  0.3038 -1.6082
  221SOL     OW  661   2.972   1.931   1.512  0.0970  0.2988 -0.0023
  221SOL    HW1  662   3.027   2.016   1.511 -2.2435  0.1205  0.8700
  221SOL    HW2  663   2.887   1.933   1.565 -0.7809  2.0919  0.9803
  222SOL     OW  664   1.825   2.687   1.104 -0.1285 -0.6311  0.5933
  222SOL    HW1  665   1.813   2.787   1.081 -2.1679  3.0512 -1.0906
  222SOL    HW2  666   1.744   2.661   1.158  0.5364  0.1597  0.1223
  223SOL     OW  667   1.484   0.626   1.344 -0.4627  0.3130 -0.0710
  223SOL    HW1  668   1.423   0.606   1.264 -2.0403 -1.2650 -0.9337
  223SOL    HW2  669   1.432   0.634   1.432 -0.6046 -0.2797 -1.7299
  224SOL     OW  670   2.976   2.314   1.370 -1.0300  0.6318  0.1316
  224SOL    HW1  671   2.989   2.412   1.386 -2.2920 -1.2774  3.3526
  224SOL    HW2  672   2.897   2.289   1.427 -2.1126 -0.4351 -0.4548
  225SOL     OW  673   2.657   2.218   1.070  0.1459  0.2961  0.0410
  225SOL    HW1  674   2.639   2.296   1.139  0.5331 -0.2344 -0.5144
  225SOL    HW2  675   2.586   2.222   0.998  0.2114  1.3365 -0.9393
  226SOL     OW  676   1.468   2.228   3.009 -0.1789  0.4293 -0.5911
  226SOL    HW1  677   1.397   2.156   3.015  3.4908  0.8986 -0.4320
  226SOL    HW2  678   1.454   2.280   2.921  0.5197 -0.2153  1.3260
  227SOL     OW  679   1.884   1.359   0.784  0.3465 -0.0396 -0.0569
  227SOL    HW1  680   1.936   1.420   0.851 -3.1463  1.6378  0.9073
  227SOL    HW2  681   1.859   1.273   0.827 -0.1093  1.3315  1.7243
  228SOL     OW  682   1.699   0.658   0.420 -0.3691  0.2183 -0.3878
  228SOL    HW1  683   1.607   0.643   0.459  1.7768  1.3717 -3.3162
  228SOL    HW2  684   1.740   0.745   0.453 -0.1897 -0.5915  0.3181
  229SOL     OW  685   2.728   0.882   2.099 -0.1242 -0.1365  0.2092
  229SOL    HW1  686   2.774   0.825   2.172  1.9670  0.7753  0.0411
  229SOL    HW2  687   2.783   0.885   2.015  2.1346 -1.2967  1.0827
  230SOL     OW  688   0.468   1.063   1.101 -0.1538 -0.0395  0.1509
  230SOL    HW1  689   0.542   1.087   1.036  0.3691 -1.3280 -0.0729
  230SOL    HW2  690   0.505   1.029   1.186  0.3833  0.7415 -3.2662
  231SOL     OW  691   2.047   0.505   2.564 -0.2244  0.1308 -0.1915
  231SOL    HW1  692   2.005   0.484   2.654  3.1825  0.6296 -1.0583
  231SOL    HW2  693   2.145   0.517   2.566 -2.5523  0.5800  1.3105
  232SOL     OW  694   0.160   1.638   1.056 -0.4751 -0.4608  0.0109
  232SOL    HW1  695   0.144   1.724   1.110  0.1228  1.3817 -0.2185
  232SOL    HW2  696   0.115   1.629   0.966 -0.7764  1.9882 -1.5316
  233SOL     OW  697   1.592   2.918   2.711 -0.3350 -0.0577  0.0984
  233SOL    HW1  698   1.667   2.948   2.654 -1.8440  0.2803 -0.3350
  233SOL    HW2  699   1.581   2.978   2.795 -0.8683  0.9157 -0.6858
  234SOL     OW  700   1.617   2.689   1.297 -0.3757  0.2856  0.0520
  234SOL    HW1  701   1.541   2.753   1.322 -3.3383  2.3902  1.9310
  234SOL    HW2  702   1.592   2.597   1.342 -0.0292  0.2617 -0.5484
  235SOL     OW  703   0.906   1.261   1.520  0.0887 -0.4930 -0.6965
  235SOL    HW1  704   1.002   1.290   1.496  1.1015  1.8883 -1.0567
  235SOL    HW2  705   0.844   1.321   1.467  0.4265 -0.2518  0.7695
  236SOL     OW  706   0.513   2.422   2.717  0.2692  0.5793  0.3998
  236SOL    HW1  707   0.571   2.340   2.739  0.5543 -1.5185 -0.6581
  236SOL    HW2  708   0.459   2.453   2.798  3.5000 -1.9602  3.9315
  237SOL     OW  709   0.603   3.057   1.737 -0.3914 -0.1113  0.1314
  237SOL    HW1  710   0.626   2.976   1.790 -0.6710  1.0101 -3.0658
  237SOL    HW2  711   0.506   0.019   1.754 -1.3122  0.1144  1.9692
  238SOL     OW  712   0.717   0.490   0.518 -0.3546 -0.0032 -0.3972
  238SOL    HW1  713   0.726   0.401   0.468  4.2053 -1.9042  0.7346
  238SOL    HW2  714   0.810   0.534   0.522 -0.1792  1.3075 -0.9408
  239SOL     OW  715   2.371   0.717   2.810  0.1538 -0.3057  0.2485
  239SOL    HW1  716   2.399   0.817   2.810 -0.2739 -0.4467 -1.1378
  239SOL    HW2  717   2.302   0.702   2.884  1.6057  1.3358  1.3658
  240SOL     OW  718   2.893   2.089   1.004 -0.5660  0.4385  0.3297
  240SOL    HW1  719   2.809   2.143   1.030 -1.6714 -0.2332 -0.6597
  240SOL    HW2  720   2.922   2.029   1.082 -1.2012 -1.4684  0.8603
  241SOL     OW  721   1.078   1.750   0.738 -0.2787 -0.5275  0.7783
  241SOL    HW1  722   1.177   1.769   0.738  1.1833 -0.6145  1.3649
  241SOL    HW2  723   1.034   1.827   0.790  0.2734  0.1106 -0.5039
  242SOL     OW  724   0.886   0.217   0.712  0.0397 -0.7938 -0.4250
  242SOL    HW1  725   0.971   0.269   0.727  2.7816  2.1262  2.3972
  242SOL    HW2  726   0.800   0.268   0.745  1.9723 -0.5191  0.2017
  243SOL     OW  727   0.396   0.469   1.224  0.0187  0.7015  0.9211
  243SOL    HW1  728   0.383   0.520   1.138 -1.3888 -0.2680  0.6000
  243SOL    HW2  729   0.384   0.368   1.206 -3.8398  0.6250 -0.2644
  244SOL     OW  730   0.862   0.007   0.524  0.2637 -0.4557 -0.3279
  244SOL    HW1  731   0.958   3.045   0.512  0.3512 -0.3173  1.2869
  244SOL    HW2  732   0.852   0.075   0.601 -1.8786  0.5508  2.1169
  245SOL     OW  733   2.317   1.245   0.257  0.5011 -0.1595  0.0788
  245SOL    HW1  734   2.400   1.190   0.273  1.6585  2.6122  0.8639
  245SOL    HW2  735   2.323   1.343   0.296  0.6032  2.0423  0.6173
  246SOL     OW  736   0.215   2.853   1.622 -0.1722  0.5811 -0.3290
  246SOL    HW1  737   0.233   2.752   1.630  1.9044  1.6456  0.3605
  246SOL    HW2  738   0.211   2.874   1.520 -0.0095 -1.3566 -1.3260
  247SOL     OW  739   0.897   0.134   2.000  0.6525  0.3308  0.1169
  247SOL    HW1  740   0.909   0.048   1.948  1.5262  1.5490 -2.2844
  247SOL    HW2  741   0.827   0.193   1.953  0.4906  0.2326 -2.2886
  248SOL     OW  742   0.415   1.692   1.980 -0.0295  0.1389 -0.4403
  248SOL    HW1  743   0.511   1.726   1.997  2.4625 -0.9512 -1.3843
  248SOL    HW2  744   0.407   1.597   1.974  1.9976  0.9615  0.0183
  249SOL     OW  745   0.927   2.194   0.408 -0.1918 -0.3947 -0.3931
  249SOL    HW1  746   0.825   2.187   0.416  0.0699 -0.8304 -1.7210
  249SOL    HW2  747   0.960   2.289   0.382  2.0508  0.3884 -2.0234
  250SOL     OW  748   0.524   2.953   2.030 -0.1473 -0.1819 -0.0384
  250SOL    HW1  749   0.442   2.913   2.074  1.0232  1.1974 -0.1563
  250SOL    HW2  750   0.571   3.024   2.092 -1.1955  0.5774 -0.1086
  251SOL     OW  751   2.747   1.963   1.657 -0.4897 -0.3110  0.1263
  251SOL    HW1  752   2.741   2.014   1.745 -0.5985  0.6494  0.3033
  251SOL    HW2  753   2.664   1.972   1.601  2.3644  1.7616  0.9580
  252SOL     OW  754   1.088   0.561   1.715  0.0987  0.4837  0.0311
  252SOL    HW1  755   1.146   0.556   1.797 -0.1535  1.0281 -0.2099
  252SOL    HW2  756   1.147   0.534   1.635  1.1584  1.3468 -0.9981
  253SOL     OW  757   2.510   1.736   2.400 -0.0837  0.3955  0.0594
  253SOL    HW1  758   2.513   1.671   2.324 -0.7621  2.4502 -0.2251
  253SOL    HW2  759   2.425   1.791   2.406  0.9249 -0.2196 -1.0824
  254SOL     OW  760   0.587   1.282   0.817 -0.2003 -0.6243  0.2271
  254SOL    HW1  761   0.502   1.317   0.857 -0.6683  2.5649 -1.4021
  254SOL    HW2  762   0.648   1.246   0.890 -0.9431  3.4330 -2.4615
  255SOL     OW  763   3.030   2.236   1.723 -0.3474 -0.1197 -0.0930
  255SOL    HW1  764   2.947   2.210   1.680  0.0505  3.5326 -0.2326
  255SOL    HW2  765   3.044   2.335   1.697 -0.1543  1.3485 -0.1346
  256SOL     OW  766   0.350   2.894   0.202  0.6292 -0.2669 -0.2803
  256SOL    HW1  767   0.385   2.936   0.290 -1.7459  0.7428  1.1419
  256SOL    HW2  768   0.416   2.823   0.171 -2.6191  2.1794  1.5863
  257SOL     OW  769   1.141   2.616   2.335  0.2568  0.0775  0.1839
  257SOL    HW1  770   1.230   2.632   2.381 -1.4930  1.0002  1.1061
  257SOL    HW2  771   1.154   2.577   2.240 -0.0222  0.9690  0.6309
  258SOL     OW  772   1.845   1.918   2.072  0.1916  0.4861 -0.5954
  258SOL    HW1  773   1.748   1.920   2.051 -0.7506 -1.8051 -0.9665
  258SOL    HW2  774   1.892   1.869   1.996 -0.7765 -0.0060  0.7963
  259SOL     OW  775   0.664   0.481   2.323  0.1591 -0.2257  0.2855
  259SOL    HW1  776   0.734   0.541   2.274  1.6987 -1.2983 -1.8414
  259SOL    HW2  777   0.586   0.462   2.253 -1.8935 -0.1274 -1.2537
  260SOL     OW  778   2.413   0.941   0.030 -0.1262 -0.1026  0.0630
  260SOL    HW1  779   2.433   0.882   0.113  0.7012 -0.3887 -0.8409
  260SOL    HW2  780   2.501   0.993   0.004 -1.3565  0.6060 -1.1806
  261SOL     OW  781   0.946   1.021   0.668  0.4423  0.5620 -0.3800
  261SOL    HW1  782   1.019   0.988   0.605 -1.3602  2.5708  0.9779
  261SOL    HW2  783   0.965   1.115   0.696  0.1553 -3.2421 -1.9947
  262SOL     OW  784   1.972   2.589   2.724  0.2149  0.2377 -0.4025
  262SOL    HW1  785   1.900   2.559   2.660 -1.4694 -1.6233  0.1065
  262SOL    HW2  786   1.986   2.534   2.814  3.3026 -2.5448  2.7804
  263SOL     OW  787   0.700   2.562   1.072  0.5521 -0.0152  0.0092
  263SOL    HW1  788   0.769   2.496   1.109 -0.4990  0.9761 -0.0145
  263SOL    HW2  789   0.604   2.531   1.088  3.6687 -1.8809  1.2356
  264SOL     OW  790   2.792   1.902   0.800  0.3845 -0.4514 -0.0279
  264SOL    HW1  791   2.809   1.957   0.888 -0.2261  2.2088  2.1495
  264SOL    HW2  792   2.799   1.805   0.830  0.9310 -2.7223 -0.8148
  265SOL     OW  793   1.880   1.467   2.667 -0.1785  0.3519  0.2098
  265SOL    HW1  794   1.916   1.389   2.722 -2.4372  0.4546  2.1896
  265SOL    HW2  795   1.883   1.551   2.720 -1.3340  0.4310 -1.9774
  266SOL     OW  796   1.568   1.893   2.051  0.0333 -0.0767 -0.5358
  266SOL    HW1  797   1.551   1.796   2.025  0.3532 -0.8177 -0.2201
  266SOL    HW2  798   1.565   1.906   2.154 -1.0724  2.6355  3.2142
  267SOL     OW  799   1.974   0.466   2.309 -0.2983  0.5414 -0.0987
  267SOL    HW1  800   1.975   0.501   2.405  2.0002  0.8004 -0.0210
  267SOL    HW2  801   1.884   0.479   2.267 -1.5069  1.5459  0.8039
  268SOL     OW  802   0.998   1.071   2.881 -0.3333 -0.1802  0.2631
  268SOL    HW1  803   1.008   1.173   2.873  0.4521 -2.0336  0.3996
  268SOL    HW2  804   1.025   1.028   2.791 -0.6959 -0.4189 -2.9406
  269SOL     OW  805   2.853   1.981   2.087  0.1777  0.4338  0.2416
  269SOL    HW1  806   2.925   1.912   2.079 -0.0184  1.2340 -0.0991
  269SOL    HW2  807   2.792   1.947   2.161 -1.9720  1.7524  0.1112
  270SOL     OW  808   2.807   1.386   0.020  0.0308 -0.0751 -0.4394
  270SOL    HW1  809   2.879   1.327   0.062 -1.5183  1.3726  1.2705
  270SOL    HW2  810   2.791   1.467   0.084 -0.2440 -1.8832  1.6987
  271SOL     OW  811   0.714   0.232   0.363 -0.0758  0.2741 -0.3810
  271SOL    HW1  812   0.721   0.165   0.436  1.6108 -2.6727  2.6844
  271SOL    HW2  813   0.790   0.227   0.298 -3.3762  0.5112  0.0976
  272SOL     OW  814   3.033   0.173   0.301 -0.6675 -0.0591  0.0533
  272SOL    HW1  815   2.990   0.182   0.209  1.8763  2.1566 -0.2779
  272SOL    HW2  816   0.004   0.076   0.312 -2.4784  1.2630  0.1471
  273SOL     OW  817   0.320   2.879   2.209 -0.1105  0.1824 -0.2703
  273SOL    HW1  818   0.308   2.803   2.274 -0.6967 -0.1220 -3.7093
  273SOL    HW2  819   0.264   2.854   2.127 -2.1727 -0.5926  1.1768
  274SOL     OW  820   0.310   0.178   1.416 -0.1685  0.0260  0.4266
  274SOL    HW1  821   0.216   0.205   1.448 -1.1753 -2.9310  0.5658
  274SOL    HW2  822   0.310   0.197   1.317 -1.4204  1.5486 -0.5960
  275SOL     OW  823   0.986   1.812   1.343 -0.0747 -0.0726 -0.0028
  275SOL    HW1  824   0.967   1.792   1.244 -0.1872 -0.6682 -1.1680
  275SOL    HW2  825   0.965   1.731   1.403 -2.0054  0.0053  1.4068
  276SOL     OW  826   0.100   1.476   2.039  0.0680  0.0883 -0.4988
  276SOL    HW1  827   0.160   1.421   1.982  0.7499  3.9510  2.3585
  276SOL    HW2  828   0.030   1.531   1.987  1.7712 -1.3781 -1.4385
  277SOL     OW  829   1.330   2.294   1.943  0.7041  0.8002 -0.3663
  277SOL    HW1  830   1.316   2.368   1.878 -2.0782  0.2963  2.0486
  277SOL    HW2  831   1.429   2.286   1.969 -0.8118 -1.4503 -1.6492
  278SOL     OW  832   1.828   2.872   2.378  0.0386  0.6971 -0.0945
  278SOL    HW1  833   1.867   2.777   2.361 -1.0132 -1.1837  1.1438
  278SOL    HW2  834   1.875   2.942   2.317  1.3702  0.1724  0.1404
  279SOL     OW  835   1.444   1.608   0.015  0.2750 -0.0249 -0.4539
  279SOL    HW1  836   1.500   1.555   0.081  2.0043  0.2413 -1.4515
  279SOL    HW2  837   1.478   1.588   2.988 -0.8247  1.2431  2.9070
  280SOL     OW  838   1.298   0.645   0.943  0.2351 -0.0868 -0.6775
  280SOL    HW1  839   1.249   0.699   0.872  1.6883 -0.7620 -0.0825
  280SOL    HW2  840   1.396   0.628   0.915  0.1998  1.1766  1.4638
  281SOL     OW  841   2.967   0.591   2.076 -0.5060 -0.2905  0.5424
  281SOL    HW1  842   0.000   0.621   2.093 -0.6445 -1.2498 -0.5723
  281SOL    HW2  843   2.909   0.622   2.152  1.3253 -0.0033 -0.7362
  282SOL     OW  844   0.404   2.980   0.465  0.2837 -0.1968  0.5980
  282SOL    HW1  845   0.335   2.905   0.465 -0.6032 -0.0744 -1.2674
  282SOL    HW2  846   0.485   2.952   0.522  0.1136 -0.3039 -0.0277
  283SOL     OW  847   1.344   2.318   1.555 -0.0758 -0.2849 -0.8968
  283SOL    HW1  848   1.270   2.249   1.571 -0.4695  1.2034  3.2397
  283SOL    HW2  849   1.323   2.411   1.591 -2.4301 -0.2001  0.1848
  284SOL     OW  850   2.172   2.662   1.306  0.0613  0.1183  0.2657
  284SOL    HW1  851   2.078   2.694   1.329  0.1537  6.7198 -0.7258
  284SOL    HW2  852   2.186   2.633   1.211 -2.7229  0.2242  1.0045
  285SOL     OW  853   0.938   1.746   1.078 -0.0449  0.7786  0.0416
  285SOL    HW1  854   0.871   1.670   1.089  1.0124 -3.7066  0.2685
  285SOL    HW2  855   0.918   1.787   0.987  1.4648 -0.2976  0.0216
  286SOL     OW  856   0.025   2.630   2.000 -0.3637 -0.6430  0.1581
  286SOL    HW1  857   2.991   2.644   1.977 -0.4251 -0.7264  2.2179
  286SOL    HW2  858   0.047   2.528   2.000 -0.4468  1.1428 -1.3607
  287SOL     OW  859   0.647   1.059   0.686  0.3083  0.3188  0.2596
  287SOL    HW1  860   0.744   1.036   0.667  0.1661  0.1033 -1.1140
  287SOL    HW2  861   0.639   1.142   0.744  1.2008 -2.4760  2.3605
  288SOL     OW  862   1.347   2.268   2.558 -0.1019  0.5454  0.4395
  288SOL    HW1  863   1.282   2.292   2.486  0.7059 -3.2334  0.8381
  288SOL    HW2  864   1.411   2.198   2.518  0.8170  0.7716 -1.7515
  289SOL     OW  865   1.941   1.189   2.457 -0.0267  0.2755 -0.7075
  289SOL    HW1  866   1.986   1.283   2.466 -0.1576  2.2918  1.3205
  289SOL    HW2  867   1.958   1.158   2.360 -1.2723 -0.1048  0.6290
  290SOL     OW  868   1.782   1.797   0.598  0.2279  1.0330 -0.1894
  290SOL    HW1  869   1.769   1.813   0.499  0.7254 -1.6730 -1.3116
  290SOL    HW2  870   1.794   1.888   0.644 -1.1919 -0.7123  0.6332
  291SOL     OW  871   1.307   0.945   3.001  0.1549  0.0142 -0.4697
  291SOL    HW1  872   1.268   0.956   2.909 -0.7705 -0.5214  0.8930
  291SOL    HW2  873   1.353   0.859   3.017 -0.1876  0.6630  2.7424
  292SOL     OW  874   2.056   1.720   0.637 -0.5010 -0.2778 -0.6407
  292SOL    HW1  875   2.067   1.631   0.584  1.0415 -2.4626 -0.4665
  292SOL    HW2  876   1.966   1.760   0.616  1.4296 -0.0833 -0.7652
  293SOL     OW  877   1.942   0.187   1.246  0.1428 -0.3789 -0.0549
  293SOL    HW1  878   2.018   0.220   1.186  1.9288  0.9397 -1.0016
  293SOL    HW2  879   1.857   0.248   1.249 -1.2859  1.1319  1.2651
  294SOL     OW  880   2.528   1.079   0.277 -0.2015  0.0331 -0.5418
  294SOL    HW1  881   2.527   0.984   0.242 -0.5413  0.1051 -0.6777
  294SOL    HW2  882   2.621   1.119   0.264  2.0812  0.4541 -1.4781
  295SOL     OW  883   2.091   1.830   2.579  0.1139 -0.0120 -0.6121
  295SOL    HW1  884   2.163   1.869   2.516 -0.0413  0.5396 -0.3611
  295SOL    HW2  885   2.131   1.772   2.653  1.2735  0.6656  0.8198
  296SOL     OW  886   1.250   1.739   1.164 -0.2717 -0.2886 -0.2740
  296SOL    HW1  887   1.244   1.655   1.105  0.0230 -1.3589  1.3845
  296SOL    HW2  888   1.158   1.783   1.170 -1.2297  1.6036 -1.3781
  297SOL     OW  889   0.543   0.850   2.826 -0.3743  0.2735  0.2233
  297SOL    HW1  890   0.446   0.824   2.817 -0.7536 -0.0991 -0.2792
  297SOL    HW2  891   0.566   0.876   2.923 -0.6411  0.6547 -3.8852
  298SOL     OW  892   1.527   2.988   1.729  0.3611 -0.6725  0.8554
  298SOL    HW1  893   1.630   2.969   1.720 -1.4423 -1.7333 -2.0673
  298SOL    HW2  894   1.480   2.902   1.744 -0.3474  0.9086 -2.5802
  299SOL     OW  895   1.000   0.445   2.600 -0.2980  0.2429  0.1156
  299SOL    HW1  896   0.937   0.452   2.681  0.9113 -0.7255 -1.0669
  299SOL    HW2  897   1.089   0.413   2.636  1.2110 -0.3217 -1.3528
  300SOL     OW  898   2.005   1.563   0.026 -0.2247 -0.7167  0.1763
  300SOL    HW1  899   1.985   1.591   0.123 -0.0235  0.0781  2.9643
  300SOL    HW2  900   2.020   1.464   0.017 -0.9763  3.4050  0.1352
  301SOL     OW  901   2.226   0.347   2.262  0.0120 -0.1247 -0.2836
  301SOL    HW1  902   2.231   0.309   2.357 -0.0486 -0.1573  0.0386
  301SOL    HW2  903   2.145   0.407   2.264 -1.1234 -0.5785 -0.6410
  302SOL     OW  904   2.441   1.598   2.623 -0.3272  0.1634 -0.2564
  302SOL    HW1  905   2.486   1.507   2.634  2.0626  2.3570  1.7728
  302SOL    HW2  906   2.467   1.637   2.529 -0.9794 -2.1508 -1.4433
  303SOL     OW  907   0.052   2.591   2.302 -0.5121  0.5035 -0.1223
  303SOL    HW1  908   3.033   2.620   2.252 -2.4259 -1.2932  1.8717
  303SOL    HW2  909   0.074   2.496   2.276 -2.6827  2.0790  1.5758
  304SOL     OW  910   3.018   1.016   0.950 -0.0412  0.4988  0.0830
  304SOL    HW1  911   2.928   1.048   0.913  1.8775 -0.7020 -1.8765
  304SOL    HW2  912   0.025   1.003   0.874  1.1021  1.2487  0.3669
  305SOL     OW  913   3.009   0.325   2.049 -0.2899  0.4562 -0.0904
  305SOL    HW1  914   2.994   0.426   2.069  1.9381  3.1755 -0.7943
  305SOL    HW2  915   0.036   0.297   2.088 -1.1946  1.7114  1.9388
  306SOL     OW  916   1.371   1.799   0.757  0.1962  0.4188  0.1469
  306SOL    HW1  917   1.458   1.747   0.747  0.4599 -1.3359  1.3696
  306SOL    HW2  918   1.349   1.849   0.671  0.8370  0.6394  0.3483
  307SOL     OW  919   2.922   2.713   1.139 -0.3141 -0.0200 -0.3717
  307SOL    HW1  920   2.959   2.710   1.047 -2.7345  0.0345  2.9890
  307SOL    HW2  921   2.889   2.807   1.162  1.4504 -1.5517 -0.5232
  308SOL     OW  922   2.805   1.739   2.455  0.2290 -0.3307 -0.2190
  308SOL    HW1  923   2.820   1.713   2.553  1.7127  0.7200 -1.6324
  308SOL    HW2  924   2.705   1.747   2.437 -1.7424  0.7145 -0.2365
  309SOL     OW  925   0.291   1.684   2.876  0.3114 -0.1968 -0.4214
  309SOL    HW1  926   0.321   1.640   2.787  0.2357 -1.0152  0.6521
  309SOL    HW2  927   0.275   1.787   2.861 -1.4434 -0.4206 -0.6040
  310SOL     OW  928   2.024   0.451   0.017  0.5518 -0.0719  0.1259
  310SOL    HW1  929   2.088   0.502   0.074 -0.6005 -0.8386  2.4885
  310SOL    HW2  930   1.998   0.366   0.067 -0.5084  0.8798 -1.1659
  311SOL     OW  931   1.779   0.966   3.037  0.2437  0.1562  0.6021
  311SOL    HW1  932   1.751   0.942   2.939  1.2494 -0.1558  0.4078
  311SOL    HW2  933   1.879   0.988   3.035 -2.0718 -0.7282 -1.0032
  312SOL     OW  934   1.137   1.315   2.073  0.1531 -0.6858  0.2193
  312SOL    HW1  935   1.080   1.324   2.161  0.6368  0.1284  1.0445
  312SOL    HW2  936   1.078   1.265   2.008 -2.3514  0.0734 -2.4803
  313SOL     OW  937   0.769   3.036   0.058 -0.1143 -0.1053  0.1694
  313SOL    HW1  938   0.830   3.026   3.038  0.2895  0.1148  1.1790
  313SOL    HW2  939   0.670   3.034   0.033  0.0957  2.4392  1.6866
  314SOL     OW  940   0.563   1.869   1.299  0.1207 -0.4333 -0.2712
  314SOL    HW1  941   0.539   1.769   1.313  1.2909 -1.1396  0.3849
  314SOL    HW2  942   0.648   1.902   1.349  3.9134  0.6271  0.0793
  315SOL     OW  943   1.598   2.157   1.454  0.3297  0.2761  0.6209
  315SOL    HW1  944   1.590   2.060   1.417 -0.1026 -0.7724 -0.0165
  315SOL    HW2  945   1.501   2.182   1.471  0.3144 -0.3131 -2.1903
  316SOL     OW  946   0.665   2.198   0.172 -0.1634  0.5970 -0.0395
  316SOL    HW1  947   0.642   2.114   0.112 -1.7918 -0.5255 -2.4417
  316SOL    HW2  948   0.670   2.159   0.264 -0.4203 -0.8441 -0.4962
  317SOL     OW  949   2.748   0.249   1.128  0.6367 -0.4476 -0.0231
  317SOL    HW1  950   2.775   0.205   1.219  0.9468 -1.8722  2.6298
  317SOL    HW2  951   2.831   0.278   1.073 -0.4773 -1.1413  0.4066
  318SOL     OW  952   0.994   2.452   0.363  0.0173 -0.1161  0.6651
  318SOL    HW1  953   1.024   2.538   0.410 -0.8034 -1.0467  3.2142
  318SOL    HW2  954   0.916   2.466   0.296  1.0431 -0.2325 -0.2242
  319SOL     OW  955   1.222   0.292   2.901  0.0557  0.1240  0.9879
  319SOL    HW1  956   1.134   0.253   2.862 -0.7759 -1.3656 -1.0587
  319SOL    HW2  957   1.201   0.335   2.990 -0.6501 -3.4251 -3.1215
  320SOL     OW  958   2.290   1.778   1.688 -0.4614 -0.0993  0.0499
  320SOL    HW1  959   2.188   1.763   1.666  0.6352  0.4417 -4.7298
  320SOL    HW2  960   2.338   1.690   1.695 -1.2150  1.0119 -2.5841
  321SOL     OW  961   0.078   2.877   2.993 -0.0461 -0.8863 -0.0648
  321SOL    HW1  962   0.013   2.845   0.003  0.0390  2.6856  4.5474
  321SOL    HW2  963   0.033   2.957   2.946  1.6478  1.1860  0.0067
  322SOL     OW  964   2.396   0.820   1.255 -0.4313 -0.5925 -0.2341
  322SOL    HW1  965   2.358   0.790   1.167  0.0880 -3.2545  1.9632
  322SOL    HW2  966   2.476   0.878   1.239  0.9012 -2.1814 -1.9552
  323SOL     OW  967   1.965   1.884   0.204 -0.5440  0.3488  0.2443
  323SOL    HW1  968   1.883   1.926   0.252 -2.1608 -0.6605  0.7843
  323SOL    HW2  969   1.969   1.782   0.225  0.3571 -0.4036  0.8758
  324SOL     OW  970   0.049   0.237   1.489 -0.4377 -0.0091  0.2143
  324SOL    HW1  971   0.057   0.335   1.459 -0.1890  1.4534  1.3685
  324SOL    HW2  972   0.034   0.236   1.590 -0.7516  1.9275  0.3230
  325SOL     OW  973   2.753   2.717   0.775  0.1989  0.3484  0.4779
  325SOL    HW1  974   2.753   2.629   0.828  2.0493 -0.5502  2.2132
  325SOL    HW2  975   2.665   2.771   0.785  1.4080 -0.5251 -1.7980
  326SOL     OW  976   1.531   2.726   0.516  0.1501  0.1009 -0.0648
  326SOL    HW1  977   1.524   2.781   0.430 -2.5890 -0.1959  0.0411
  326SOL    HW2  978   1.622   2.678   0.514  2.3619  1.1783 -0.3571
  327SOL     OW  979   2.178   2.508   0.377 -0.8749 -0.4010 -0.4514
  327SOL    HW1  980   2.118   2.430   0.356  0.4480 -1.0256 -2.2528
  327SOL    HW2  981   2.154   2.583   0.311 -1.0119 -2.8799  0.5286
  328SOL     OW  982   2.593   2.275   1.919  0.0327  0.1834 -0.3905
  328SOL    HW1  983   2.678   2.210   1.907  2.4450  0.8505 -1.7088
  328SOL    HW2  984   2.608   2.356   1.862 -1.2217 -1.7961  3.1818
  329SOL     OW  985   0.150   2.338   0.582 -0.6800 -0.4348 -0.4473
  329SOL    HW1  986   0.056   2.369   0.602 -2.8659 -1.4398 -3.1861
  329SOL    HW2  987   0.195   2.314   0.672  1.8865 -2.0081  1.1616
  330SOL     OW  988   2.168   0.934   1.903 -0.2501  0.1549 -0.7025
  330SOL    HW1  989   2.125   1.019   1.863 -2.4001  1.1704  0.6705
  330SOL    HW2  990   2.168   0.855   1.841 -0.3831  0.6976  2.6341
  331SOL     OW  991   2.480   1.702   0.771  1.1769 -0.0262  0.2338
  331SOL    HW1  992   2.517   1.747   0.685 -0.0060  0.7651  1.0721
  331SOL    HW2  993   2.509   1.759   0.848 -0.5319 -3.9373  0.6675
  332SOL     OW  994   3.022   2.572   1.342  0.3056  0.2673 -0.1548
  332SOL    HW1  995   0.010   2.512   1.279  4.1203 -0.3729  0.1215
  332SOL    HW2  996   2.974   2.639   1.279  2.2086  0.3738  0.7583
  333SOL     OW  997   2.996   1.591   1.861 -0.1230 -0.0082 -0.5675
  333SOL    HW1  998   2.981   1.674   1.920 -0.9199  1.3461  0.3635
  333SOL    HW2  999   3.052   1.627   1.784  2.2924  1.2976 -0.2320
  334SOL     OW 1000   0.319   0.709   1.344 -0.1236  0.0314  0.0220
  334SOL    HW1 1001   0.251   0.701   1.417 -0.3018  0.8234  0.4247
  334SOL    HW2 1002   0.359   0.619   1.330  1.6795 -0.5814  1.6546
  335SOL     OW 1003   2.639   1.541   1.851 -0.0894  0.0658 -0.7088
  335SOL    HW1 1004   2.681   1.470   1.907 -1.3900  0.6341  2.2407
  335SOL    HW2 1005   2.693   1.558   1.768 -0.8675  0.1565 -1.0566
  336SOL     OW 1006   1.746   2.947   3.061 -0.5238  0.3249  0.2321
  336SOL    HW1 1007   1.690   2.864   3.027 -1.9021 -2.2899 -0.2818
  336SOL    HW2 1008   1.822   2.971   2.998 -0.9545 -0.1215  0.6322
  337SOL     OW 1009   0.767   0.635   1.442 -0.2559 -0.0259  0.2441
  337SOL    HW1 1010   0.718   0.579   1.369  1.0289 -0.5827 -3.1822
  337SOL    HW2 1011   0.739   0.734   1.439  0.4304 -0.4963  0.9933
  338SOL     OW 1012   1.700   2.264   0.912  0.4143  0.4291 -0.0970
  338SOL    HW1 1013   1.798   2.286   0.933  1.9456  1.1670 -2.9320
  338SOL    HW2 1014   1.639   2.308   0.982  1.3632  2.1281  0.2314
  339SOL     OW 1015   0.414   1.527   1.058 -0.5641  0.0625  0.7431
  339SOL    HW1 1016   0.322   1.564   1.076  1.4753 -0.0258 -1.7363
  339SOL    HW2 1017   0.447   1.586   0.982 -0.5192  1.1922 -0.6682
  340SOL     OW 1018   0.161   0.046   2.292  0.0911 -0.0784 -0.3329
  340SOL    HW1 1019   0.081   0.053   2.231 -1.2756  4.4654  0.1259
  340SOL    HW2 1020   0.203   3.020   2.262 -0.2368  2.3671 -2.7818
  341SOL     OW 1021   2.459   1.336   0.535  0.0250  0.2059  0.2038
  341SOL    HW1 1022   2.406   1.409   0.488  2.0347  1.1925  1.0269
  341SOL    HW2 1023   2.544   1.310   0.478  0.6595 -0.7476  0.4581
  342SOL     OW 1024   1.598   2.118   0.409  0.6789  0.2443 -0.3711
  342SOL    HW1 1025   1.596   2.167   0.320  0.3220 -1.0077  1.8018
  342SOL    HW2 1026   1.615   2.178   0.490 -1.7232  1.2282 -1.0044
  343SOL     OW 1027   2.127   0.441   0.767 -0.2020 -0.1760 -0.0135
  343SOL    HW1 1028   2.049   0.450   0.832 -1.5829 -1.4039 -3.2792
  343SOL    HW2 1029   2.162   0.345   0.773  1.5663  1.2265  0.2689
  344SOL     OW 1030   2.488   0.211   2.825  0.0539  0.4103  0.1108
  344SOL    HW1 1031   2.450   0.243   2.741  1.6121 -0.6874  1.7199
  344SOL    HW2 1032   2.580   0.248   2.840 -1.6715  0.4076 -0.5278
  345SOL     OW 1033   1.490   0.137   1.216  0.7153 -0.0984 -0.4751
  345SOL    HW1 1034   1.499   0.094   1.305 -1.4397 -0.3914 -3.1187
  345SOL    HW2 1035   1.390   0.148   1.205 -0.0353  0.1660 -0.9444
  346SOL     OW 1036   2.268   2.301   1.535  0.6593 -0.0646  0.4893
  346SOL    HW1 1037   2.271   2.404   1.546 -3.7189 -1.5735  1.7263
  346SOL    HW2 1038   2.339   2.261   1.480 -3.0888  1.7186  0.7426
  347SOL     OW 1039   2.750   3.031   0.436 -0.5660 -0.8147 -0.5857
  347SOL    HW1 1040   2.815   2.968   0.485 -0.9492 -1.4627 -0.2832
  347SOL    HW2 1041   2.723   0.048   0.495  0.2748  1.2615 -0.3536
  348SOL     OW 1042   0.717   1.137   1.009 -0.1000 -0.1678  0.5893
  348SOL    HW1 1043   0.814   1.116   0.999 -0.9084  2.2736 -2.6177
  348SOL    HW2 1044   0.707   1.204   1.085 -1.2713  0.4631  0.5626
  349SOL     OW 1045   2.176   0.175   0.114  0.1592  0.1630 -0.3678
  349SOL    HW1 1046   2.229   0.230   0.045  4.7461 -0.0162 -3.4233
  349SOL    HW2 1047   2.225   0.169   0.202 -3.0924 -2.6371  0.8939
  350SOL     OW 1048   2.587   2.028   3.052 -0.3022  0.3307  1.0384
  350SOL    HW1 1049   2.596   2.129   0.007 -1.0701  2.0859 -0.7448
  350SOL    HW2 1050   2.661   1.994   2.990  0.5408 -1.1128 -0.9677
  351SOL     OW 1051   1.118   0.369   0.861  0.4524 -0.1495 -0.2938
  351SOL    HW1 1052   1.183   0.432   0.823 -1.4312 -0.4095  0.4646
  351SOL    HW2 1053   1.157   0.276   0.874 -2.3083  1.8072 -0.0864
  352SOL     OW 1054   2.145   2.191   2.690  0.0178 -0.1714  0.4770
  352SOL    HW1 1055   2.118   2.159   2.782  2.5801 -0.8469 -1.2539
  352SOL    HW2 1056   2.169   2.291   2.695 -2.9703 -1.5810 -0.4504
  353SOL     OW 1057   0.792   0.626   0.147 -0.8390  0.2030 -0.3771
  353SOL    HW1 1058   0.760   0.718   0.187  1.0925 -1.4090 -1.2974
  353SOL    HW2 1059   0.709   0.565   0.138 -3.5175 -4.2665  0.6837
  354SOL     OW 1060   0.844   1.819   2.725  0.3145  0.4434 -0.2210
  354SOL    HW1 1061   0.775   1.751   2.762 -1.5489 -0.9656  0.1748
  354SOL    HW2 1062   0.942   1.798   2.746  2.3485 -1.3949 -2.7481
  355SOL     OW 1063   2.821   2.701   1.973 -0.4312  0.3376 -0.6446
  355SOL    HW1 1064   2.735   2.661   1.926 -0.5414  0.0813 -1.0622
  355SOL    HW2 1065   2.851   2.788   1.935 -0.2600 -0.8349 -0.1710
  356SOL     OW 1066   2.826   0.759   0.671 -0.1825 -0.1557  0.0094
  356SOL    HW1 1067   2.739   0.816   0.700 -2.6428  0.1733  0.7717
  356SOL    HW2 1068   2.814   0.684   0.601 -3.7675 -1.7160  1.6288
  357SOL     OW 1069   2.491   0.174   1.057  0.1211 -0.3658 -0.1595
  357SOL    HW1 1070   2.590   0.199   1.056  0.7621 -0.2614 -0.8139
  357SOL    HW2 1071   2.463   0.194   1.154  1.2384  0.1863  4.1743
  358SOL     OW 1072   1.195   2.615   1.325  0.4806  0.3678  0.1640
  358SOL    HW1 1073   1.136   2.632   1.241  1.9329 -1.7490  1.1429
  358SOL    HW2 1074   1.256   2.695   1.346  1.7267 -2.8239 -2.0650
  359SOL     OW 1075   3.024   2.174   2.675  0.4235 -0.3282  0.0480
  359SOL    HW1 1076   3.042   2.077   2.684  0.3021  0.6596  1.6211
  359SOL    HW2 1077   2.934   2.209   2.713 -2.4957  0.0902 -0.0223
  360SOL     OW 1078   0.526   1.131   1.544  0.0994 -0.0545  0.3631
  360SOL    HW1 1079   0.486   1.133   1.637  4.2508 -0.9250 -0.9755
  360SOL    HW2 1080   0.582   1.048   1.534 -1.9705  0.0530  1.2844
  361SOL     OW 1081   2.549   2.865   0.339  0.1231  0.5193 -0.2798
  361SOL    HW1 1082   2.456   2.910   0.335 -1.0647  0.1153 -0.7404
  361SOL    HW2 1083   2.623   2.925   0.372 -1.4257  1.0519 -0.5003
  362SOL     OW 1084   2.990   2.832   0.872 -0.1536  0.1458  0.3843
  362SOL    HW1 1085   0.014   2.811   0.819  0.8435 -0.4635 -0.6933
  362SOL    HW2 1086   2.909   2.801   0.818 -0.3156  1.9255 -0.4431
  363SOL     OW 1087   0.794   1.433   0.595  0.0208  0.2235  0.0951
  363SOL    HW1 1088   0.842   1.360   0.549 -0.1956  3.4253  2.0258
  363SOL    HW2 1089   0.848   1.480   0.665 -1.5578 -1.0287 -0.4261
  364SOL     OW 1090   0.692   1.324   1.200 -0.3865  0.0216 -0.0723
  364SOL    HW1 1091   0.630   1.329   1.280 -0.9040 -1.2375 -0.6311
  364SOL    HW2 1092   0.781   1.374   1.224  0.6408 -0.3454 -0.3634
  365SOL     OW 1093   2.548   1.693   0.429 -0.5960  0.3259  0.1629
  365SOL    HW1 1094   2.580   1.765   0.493 -0.6352  0.4338 -0.6416
  365SOL    HW2 1095   2.559   1.729   0.335 -1.8135 -1.4682  1.1592
  366SOL     OW 1096   2.693   1.602   1.127 -0.0099 -0.4791  0.0179
  366SOL    HW1 1097   2.769   1.606   1.196 -0.6271 -0.7638  0.7110
  366SOL    HW2 1098   2.615   1.653   1.168 -0.0850  1.1856 -2.9476
  367SOL     OW 1099   2.096   2.145   2.014 -0.3513 -0.4367  0.2476
  367SOL    HW1 1100   2.069   2.095   1.932 -0.8630 -0.8654  3.9068
  367SOL    HW2 1101   2.164   2.087   2.066  1.5546 -1.6890  0.5557
  368SOL     OW 1102   2.618   0.976   1.200 -0.0040  0.2658  0.4158
  368SOL    HW1 1103   2.632   1.036   1.279  2.4686 -1.2931 -0.1548
  368SOL    HW2 1104   2.684   0.901   1.197 -0.4710 -4.1665  1.2263
  369SOL     OW 1105   2.081   2.709   0.211  0.2053  0.1049 -0.0139
  369SOL    HW1 1106   2.018   2.714   0.289  2.2676 -0.6343 -1.5590
  369SOL    HW2 1107   2.087   2.798   0.156  0.2699  0.7240  0.7680
  370SOL     OW 1108   2.619   2.427   1.236 -0.3253 -0.0794 -0.6806
  370SOL    HW1 1109   2.578   2.519   1.221  2.0149 -2.2755 -0.6553
  370SOL    HW2 1110   2.721   2.441   1.227  3.1240 -1.6430 -1.0291
  371SOL     OW 1111   0.863   1.551   2.408 -0.1463 -0.0135 -0.5945
  371SOL    HW1 1112   0.879   1.650   2.423  0.1543 -1.6348 -1.5981
  371SOL    HW2 1113   0.783   1.538   2.349  2.1074  1.7117  1.3368
  372SOL     OW 1114   0.902   1.250   0.415  0.0594  0.4985 -0.0307
  372SOL    HW1 1115   0.900   1.268   0.317 -1.1035  0.4127  2.1551
  372SOL    HW2 1116   0.934   1.161   0.447  1.6183  2.6848  2.5148
  373SOL     OW 1117   1.356   2.525   0.062  0.4117 -0.2751 -0.4170
  373SOL    HW1 1118   1.405   2.440   0.092  1.9881  0.4653 -1.1901
  373SOL    HW2 1119   1.301   2.492   3.048  0.7797 -1.7403  2.0176
  374SOL     OW 1120   0.335   1.602   0.072  0.1229 -0.0816 -0.4720
  374SOL    HW1 1121   0.317   1.630   3.038 -0.5836 -0.2407  0.8225
  374SOL    HW2 1122   0.389   1.511   0.069  0.1335  0.3784 -2.3243
  375SOL     OW 1123   0.893   1.704   1.897 -0.1318  0.7488  0.2319
  375SOL    HW1 1124   0.979   1.707   1.955  1.6452 -0.8020  1.2871
  375SOL    HW2 1125   0.868   1.607   1.881 -3.9897  2.0883 -2.6845
  376SOL     OW 1126   0.540   2.390   1.641 -0.0188 -0.3619 -0.2647
  376SOL    HW1 1127   0.488   2.341   1.710 -0.2532 -1.2472 -0.2952
  376SOL    HW2 1128   0.594   2.465   1.682  0.5524 -1.1532  1.8280
  377SOL     OW 1129   2.329   1.388   2.152 -0.4295  0.5969  1.0094
  377SOL    HW1 1130   2.305   1.384   2.251 -3.7861 -1.0303 -0.6539
  377SOL    HW2 1131   2.262   1.447   2.099 -0.5229 -0.5258  4.2917
  378SOL     OW 1132   1.061   0.046   2.640  0.0974  0.1834 -0.4968
  378SOL    HW1 1133   1.012   3.050   2.573  2.4993  0.3208  0.6929
  378SOL    HW2 1134   1.154   0.070   2.605 -1.4255  0.6629 -1.9278
  379SOL     OW 1135   1.719   0.546   0.741 -0.0644  0.9041  0.1932
  379SOL    HW1 1136   1.665   0.591   0.816  0.2009  1.3533  3.2030
  379SOL    HW2 1137   1.757   0.618   0.680 -2.5632  0.0509  0.0178
  380SOL     OW 1138   2.725   1.651   1.547 -0.5261 -0.4290 -0.2449
  380SOL    HW1 1139   2.804   1.687   1.599 -1.6358  0.2969  0.1663
  380SOL    HW2 1140   2.678   1.724   1.495  1.1381  0.2633  0.9533
  381SOL     OW 1141   1.558   1.847   1.463  0.4263  0.6925 -0.3385
  381SOL    HW1 1142   1.565   1.840   1.563  0.6294  0.0201 -3.9056
  381SOL    HW2 1143   1.467   1.887   1.436  1.9917  1.7083 -1.1004
  382SOL     OW 1144   3.015   0.460   3.032 -0.1538 -0.1257  0.0075
  382SOL    HW1 1145   3.004   0.364   0.002 -0.6945 -0.7353 -0.5175
  382SOL    HW2 1146   0.006   0.516   0.039  0.3243 -0.8782 -0.6439
  383SOL     OW 1147   1.629   1.412   2.549 -0.3992 -0.5982  0.2293
  383SOL    HW1 1148   1.568   1.426   2.631  1.1333 -0.9802  2.8474
  383SOL    HW2 1149   1.720   1.406   2.582 -1.8299 -1.9281 -0.8522
  384SOL     OW 1150   0.904   2.437   1.203 -0.6031 -0.3322 -0.4872
  384SOL    HW1 1151   0.959   2.517   1.177 -0.2359  0.9298 -1.3834
  384SOL    HW2 1152   0.959   2.354   1.210 -0.9599  1.0011  1.6775
  385SOL     OW 1153   1.954   2.292   1.022 -0.3422 -0.3130 -0.0815
  385SOL    HW1 1154   1.987   2.367   0.965  0.8065  2.0608 -1.1850
  385SOL    HW2 1155   1.986   2.197   1.010 -0.1331 -0.1292 -0.8347
  386SOL     OW 1156   2.104   1.992   1.153  0.3966  0.0239  0.5030
  386SOL    HW1 1157   2.012   2.023   1.188  2.2064 -1.8797  2.2601
  386SOL    HW2 1158   2.163   2.076   1.152 -1.9510  0.3368  1.0026
  387SOL     OW 1159   0.459   2.125   1.261  0.5134 -0.1855 -0.0412
  387SOL    HW1 1160   0.434   2.165   1.351  0.7968  0.4509  4.1188
  387SOL    HW2 1161   0.470   2.023   1.270  0.9714 -0.8950 -0.1786
  388SOL     OW 1162   0.020   0.623   1.749  0.1383  0.1516 -0.1792
  388SOL    HW1 1163   2.998   0.565   1.775 -1.4765  1.6555 -2.1127
  388SOL    HW2 1164   0.105   0.569   1.778 -0.7736  1.7099 -1.0429
  389SOL     OW 1165   1.888   1.282   1.099  0.6524  0.3717  0.0242
  389SOL    HW1 1166   1.968   1.333   1.060  1.3404 -3.6376  2.7504
  389SOL    HW2 1167   1.805   1.344   1.111 -1.2655  0.7377 -1.0184
  390SOL     OW 1168   0.907   2.105   2.131  0.1955  0.9917 -0.2230
  390SOL    HW1 1169   0.822   2.155   2.161 -1.0506  0.5653  0.3563
  390SOL    HW2 1170   0.909   2.062   2.038 -0.2162 -1.7230  0.2914
  391SOL     OW 1171   1.144   1.966   2.459 -1.0322  0.3184 -0.4954
  391SOL    HW1 1172   1.052   1.917   2.465 -1.1355  0.5506  1.2753
  391SOL    HW2 1173   1.143   2.026   2.378  0.4139 -1.5538  1.5652
  392SOL     OW 1174   2.956   2.916   2.268  0.1831  0.3945  0.8335
  392SOL    HW1 1175   2.896   2.833   2.282  0.6041  1.7147 -0.8270
  392SOL    HW2 1176   2.998   2.945   2.360 -0.1998  0.5344  2.9691
  393SOL     OW 1177   1.909   2.758   0.399 -0.0937 -0.3907  0.0596
  393SOL    HW1 1178   1.846   2.823   0.351  0.2603 -0.3973  2.4619
  393SOL    HW2 1179   1.857   2.690   0.456  2.4418  3.9189 -4.4849
  394SOL     OW 1180   0.664   0.571   2.577  0.0348 -0.5294  0.0985
  394SOL    HW1 1181   0.592   0.639   2.587 -0.8935  0.2934  1.5885
  394SOL    HW2 1182   0.664   0.521   2.486  2.2731 -1.8197 -1.7071
  395SOL     OW 1183   0.611   1.390   1.451 -0.4284 -0.2693  0.1030
  395SOL    HW1 1184   0.571   1.299   1.480 -0.8129  0.3465  1.0013
  395SOL    HW2 1185   0.634   1.444   1.537 -0.5415  1.0766  0.6189
  396SOL     OW 1186   1.536   1.626   2.021  0.1648  0.2986 -0.2377
  396SOL    HW1 1187   1.444   1.573   2.012 -2.9503 -0.8757  1.0382
  396SOL    HW2 1188   1.596   1.577   2.092  0.6735 -0.3024  2.9958
  397SOL     OW 1189   0.788   0.461   2.795 -0.5634 -0.2660 -0.0250
  397SOL    HW1 1190   0.835   0.517   2.872  1.0588 -0.3253  0.1885
  397SOL    HW2 1191   0.732   0.523   2.737 -3.3887  3.6545  0.0026
  398SOL     OW 1192   0.279   1.949   2.536  0.3406 -0.3210 -0.1529
  398SOL    HW1 1193   0.361   2.010   2.527 -0.5629  0.5384  0.7230
  398SOL    HW2 1194   0.222   1.960   2.453  2.1993  1.9190  2.9550
  399SOL     OW 1195   0.235   1.676   2.192 -0.2311 -0.2309 -0.4611
  399SOL    HW1 1196   0.286   1.693   2.104  1.6947  0.0672 -0.0957
  399SOL    HW2 1197   0.163   1.601   2.181 -0.4299 -0.0131 -1.4819
  400SOL     OW 1198   2.804   0.187   1.668  0.3772 -0.6387  0.3457
  400SOL    HW1 1199   2.745   0.120   1.716  2.1168  0.8828 -0.2421
  400SOL    HW2 1200   2.902   0.158   1.682  0.7365 -2.0244 -1.0133
  401SOL     OW 1201   0.689   1.723   0.216  0.2854  0.2445 -1.2820
  401SOL    HW1 1202   0.744   1.723   0.296 -0.8793  1.5295 -1.8668
  401SOL    HW2 1203   0.656   1.818   0.206  0.8086  2.7454 -0.6100
  402SOL     OW 1204   0.058   2.364   2.006 -0.4040  0.3240  0.0190
  402SOL    HW1 1205   0.028   2.303   1.929  1.4983  2.0049  0.0858
  402SOL    HW2 1206   0.032   2.321   2.099  0.5577 -0.8425  3.5040
  403SOL     OW 1207   0.263   1.151   2.050  0.3691 -0.0573  0.6305
  403SOL    HW1 1208   0.173   1.120   2.013 -1.6653  1.3963  0.5709
  403SOL    HW2 1209   0.266   1.181   2.148  4.3817 -0.9336  1.2517
  404SOL     OW 1210   1.634   2.421   1.399 -0.7085  0.4977 -0.7994
  404SOL    HW1 1211   1.717   2.408   1.333  0.3401 -0.6587 -0.8013
  404SOL    HW2 1212   1.595   2.331   1.421  0.5841  0.5761 -0.4236
  405SOL     OW 1213   2.576   2.475   2.582  0.2341  0.6498 -0.2299
  405SOL    HW1 1214   2.588   2.541   2.655  0.0116 -2.9528 -0.3257
  405SOL    HW2 1215   2.669   2.434   2.560  2.5369 -0.9976  1.7338
  406SOL     OW 1216   0.667   1.240   2.762 -0.5693 -0.7035  0.2460
  406SOL    HW1 1217   0.670   1.155   2.701  1.2497  0.2427 -1.3797
  406SOL    HW2 1218   0.704   1.317   2.710  0.2348 -0.5499  0.7368
  407SOL     OW 1219   2.388   2.853   3.049 -0.6831 -0.0946  0.4257
  407SOL    HW1 1220   2.394   2.803   2.961  1.5100  0.7609  1.3330
  407SOL    HW2 1221   2.432   2.800   0.065 -0.2365  0.1260 -0.5726
  408SOL     OW 1222   2.676   2.496   3.054  0.6553  0.3587  0.6656
  408SOL    HW1 1223   2.777   2.493   0.012 -0.4357  0.8108  0.8313
  408SOL    HW2 1224   2.624   2.424   0.048 -0.7735 -1.0828 -0.9025
  409SOL     OW 1225   2.243   1.193   0.632 -0.4731 -0.1585 -0.0726
  409SOL    HW1 1226   2.320   1.250   0.588 -2.0112 -0.1436 -1.2633
  409SOL    HW2 1227   2.151   1.217   0.596  3.6288 -0.0372  0.8798
  410SOL     OW 1228   2.823   1.647   0.891  0.1360  0.5769  0.0036
  410SOL    HW1 1229   2.776   1.642   0.982 -1.7821  1.0653 -0.8767
  410SOL    HW2 1230   2.911   1.591   0.904 -1.8835 -3.2439  1.4382
  411SOL     OW 1231   0.270   1.514   0.700  0.5376 -0.5213  0.0164
  411SOL    HW1 1232   0.308   1.581   0.761 -4.0299 -2.4558 -3.3952
  411SOL    HW2 1233   0.326   1.437   0.673 -1.8324  0.3648  1.1353
  412SOL     OW 1234   2.495   2.405   0.680 -0.0032  0.5715  0.1477
  412SOL    HW1 1235   2.478   2.483   0.615  0.2475 -2.2713 -1.0184
  412SOL    HW2 1236   2.411   2.376   0.728  0.1894  0.5217 -2.0119
  413SOL     OW 1237   1.494   1.179   1.910  0.1813 -0.0128  0.5221
  413SOL    HW1 1238   1.414   1.160   1.847  0.1179 -0.3108  0.2648
  413SOL    HW2 1239   1.460   1.178   2.007 -2.2907  0.7669 -0.0058
  414SOL     OW 1240   2.954   2.826   0.104  0.3316 -0.1260 -0.5385
  414SOL    HW1 1241   2.947   2.720   0.112  0.1518  2.3638 -2.0909
  414SOL    HW2 1242   2.862   2.873   0.094 -1.9412  0.0250  0.3833
  415SOL     OW 1243   1.104   2.177   1.592  0.1508 -0.0980  0.0382
  415SOL    HW1 1244   1.015   2.223   1.578  0.8342 -1.2310 -0.0383
  415SOL    HW2 1245   1.099   2.139   1.685 -0.4850  3.9077  2.9473
  416SOL     OW 1246   2.809   2.362   2.543 -0.5663 -0.0996  0.2691
  416SOL    HW1 1247   2.890   2.400   2.598 -0.9827  0.8308  2.9245
  416SOL    HW2 1248   2.809   2.260   2.539  0.9224 -0.5312  2.3114
  417SOL     OW 1249   2.687   0.468   1.249  0.5975  0.2901 -0.2341
  417SOL    HW1 1250   2.693   0.382   1.190 -0.3778 -0.9925  0.8434
  417SOL    HW2 1251   2.739   0.441   1.332 -1.3885 -2.5230 -0.6096
  418SOL     OW 1252   2.682   0.256   0.038  0.3103  0.6602 -0.2900
  418SOL    HW1 1253   2.683   0.289   0.135  0.6316 -0.5353  0.5671
  418SOL    HW2 1254   2.610   0.181   0.034 -0.8155 -0.0127  0.4431
  419SOL     OW 1255   0.049   1.493   1.328 -0.2735 -0.1389 -0.0236
  419SOL    HW1 1256   0.004   1.416   1.380 -1.0341 -0.5957 -1.2127
  419SOL    HW2 1257   0.130   1.530   1.369 -2.1573 -0.4753 -0.5505
  420SOL     OW 1258   0.445   1.362   0.061  0.0381 -0.6706  0.0665
  420SOL    HW1 1259   0.496   1.307   0.126  0.0406  2.3584 -0.1713
  420SOL    HW2 1260   0.438   1.321   3.028 -0.3410 -0.0064 -1.6015
  421SOL     OW 1261   2.142   2.582   2.407 -0.3540 -0.2678 -0.2360
  421SOL    HW1 1262   2.176   2.679   2.434  0.9955  2.6907 -0.4143
  421SOL    HW2 1263   2.224   2.515   2.404  2.0573 -0.0590  1.5347
  422SOL     OW 1264   0.465   0.743   2.544 -0.0805 -0.3280  0.7514
  422SOL    HW1 1265   0.513   0.766   2.453  2.3326  0.3274 -3.0047
  422SOL    HW2 1266   0.396   0.818   2.565 -0.3959  2.3677  1.6127
  423SOL     OW 1267   1.110   2.082   0.596  0.0914  0.1297  0.1226
  423SOL    HW1 1268   1.085   2.128   0.685  0.3503  2.2066 -0.4192
  423SOL    HW2 1269   1.057   2.130   0.525  3.3508  0.2942  1.7637
  424SOL     OW 1270   0.775   1.864   1.667  0.0970 -0.0060  0.0380
  424SOL    HW1 1271   0.828   1.804   1.726 -0.4616  0.4495 -2.4442
  424SOL    HW2 1272   0.675   1.848   1.678  1.0609 -0.9394 -0.7628
  425SOL     OW 1273   2.370   2.438   2.397  0.2980  0.3466 -0.6055
  425SOL    HW1 1274   2.415   2.439   2.313 -1.7054  0.4487  5.1736
  425SOL    HW2 1275   2.433   2.446   2.477 -0.1658 -0.1465 -1.3285
  426SOL     OW 1276   1.570   0.736   0.921  0.3686  0.0678 -0.2028
  426SOL    HW1 1277   1.589   0.724   1.019  1.3419  0.1060  0.1920
  426SOL    HW2 1278   1.533   0.829   0.892  1.7661  2.9574  1.1494
  427SOL     OW 1279   0.023   1.531   2.699  0.2550  0.3850  0.1151
  427SOL    HW1 1280   0.038   1.569   2.794  0.4933 -2.4184 -1.0587
  427SOL    HW2 1281   3.001   1.470   2.699  0.2207 -0.1872  1.1788
  428SOL     OW 1282   1.154   1.394   0.067 -0.9469 -0.4581 -0.0181
  428SOL    HW1 1283   1.113   1.440   3.046 -2.0743 -1.3725  1.5582
  428SOL    HW2 1284   1.212   1.457   0.119 -2.1611 -0.5739  1.5990
  429SOL     OW 1285   3.062   2.651   0.364  0.2841 -0.0663  0.5249
  429SOL    HW1 1286   3.040   2.595   0.285 -0.3044  1.9805 -0.4045
  429SOL    HW2 1287   0.012   2.749   0.342 -1.3617  1.9912  0.5506
  430SOL     OW 1288   0.418   2.293   2.213  0.2849  0.0287 -0.4491
  430SOL    HW1 1289   0.356   2.328   2.286  1.3981 -0.1880 -0.1319
  430SOL    HW2 1290   0.368   2.234   2.147  0.7736 -0.6019 -1.5805
  431SOL     OW 1291   2.792   1.135   0.245  0.3753  0.1909 -0.4797
  431SOL    HW1 1292   2.877   1.177   0.206 -0.1236  3.6073  0.3254
  431SOL    HW2 1293   2.822   1.047   0.289  1.3753 -1.2579  1.6798
  432SOL     OW 1294   1.594   2.619   2.658 -0.4379 -0.1930 -0.3015
  432SOL    HW1 1295   1.626   2.589   2.568  0.0346 -1.4746  1.4092
  432SOL    HW2 1296   1.584   2.721   2.669 -1.1161  3.0189 -0.4545
  433SOL     OW 1297   1.177   2.538   0.640  0.0665 -0.2825  0.3420
  433SOL    HW1 1298   1.084   2.568   0.622  2.3970  2.6199  0.8138
  433SOL    HW2 1299   1.204   2.558   0.739  0.9745 -1.5246  1.7865
  434SOL     OW 1300   1.489   1.905   2.316 -0.6365  0.4891 -0.1086
  434SOL    HW1 1301   1.520   1.984   2.369  0.9406 -0.7682 -0.0978
  434SOL    HW2 1302   1.520   1.821   2.360 -0.3729 -2.4887 -2.2896
  435SOL     OW 1303   2.161   0.603   0.187 -0.4587 -0.6618  0.0195
  435SOL    HW1 1304   2.184   0.679   0.122  0.5660 -0.3770 -2.6939
  435SOL    HW2 1305   2.167   0.633   0.281  0.7701 -3.1142 -1.3068
  436SOL     OW 1306   0.273   2.679   2.417  0.2369  0.6817  0.2274
  436SOL    HW1 1307   0.182   2.648   2.379  0.8300  3.6526 -2.2954
  436SOL    HW2 1308   0.356   2.621   2.394 -0.1919 -1.2788 -0.6924
  437SOL     OW 1309   1.987   2.918   1.511 -0.3893  0.3675 -0.2671
  437SOL    HW1 1310   1.960   2.831   1.467  1.0430  2.5690  0.4897
  437SOL    HW2 1311   2.036   2.978   1.445 -1.5918 -2.9367  0.5176
  438SOL     OW 1312   0.008   1.863   0.555 -0.0276 -0.3104  0.0030
  438SOL    HW1 1313   0.048   1.865   0.648 -0.3718  1.1505  1.1029
  438SOL    HW2 1314   0.039   1.944   0.503 -0.8736  1.0666 -1.7935
  439SOL     OW 1315   0.053   2.977   1.075 -0.0880  0.0739 -0.1632
  439SOL    HW1 1316   0.089   0.009   1.053  1.2430  0.0210 -2.3410
  439SOL    HW2 1317   3.055   2.932   1.003 -2.7525  0.9567  1.6268
  440SOL     OW 1318   2.561   2.777   2.305  0.6728 -0.1729 -0.2286
  440SOL    HW1 1319   2.623   2.706   2.271 -2.6172 -1.1003  1.2141
  440SOL    HW2 1320   2.536   2.844   2.231  0.0401 -0.7034 -0.3446
  441SOL     OW 1321   0.219   0.801   0.447  0.0297  0.4100 -1.0383
  441SOL    HW1 1322   0.255   0.880   0.398  0.6112 -0.0157 -0.2836
  441SOL    HW2 1323   0.123   0.814   0.484  0.2262  1.2603  0.6234
  442SOL     OW 1324   1.561   2.327   2.268 -0.1635  0.4738  0.3453
  442SOL    HW1 1325   1.559   2.244   2.330  0.2531 -0.8349 -0.0575
  442SOL    HW2 1326   1.465   2.368   2.254 -1.4703  0.7889 -1.7781
  443SOL     OW 1327   0.759   2.968   2.746  0.6085 -0.3063 -0.5165
  443SOL    HW1 1328   0.737   0.006   2.740 -0.3439  1.5549 -0.1954
  443SOL    HW2 1329   0.679   2.908   2.764 -2.9959  1.8585 -1.1962
  444SOL     OW 1330   1.502   1.756   2.668  0.1254  0.1697  0.4701
  444SOL    HW1 1331   1.399   1.761   2.675 -2.0037  1.8493  1.9878
  444SOL    HW2 1332   1.535   1.728   2.578 -0.9854 -1.1752  1.6904
  445SOL     OW 1333   0.320   0.206   1.166  0.4958 -0.6558 -0.3428
  445SOL    HW1 1334   0.248   0.193   1.088  1.1283 -0.1012 -0.5135
  445SOL    HW2 1335   0.406   0.160   1.132 -1.3337  0.4529 -1.4821
  446SOL     OW 1336   1.824   1.097   0.891  0.1945 -0.5602  0.3846
  446SOL    HW1 1337   1.819   1.114   0.989 -0.2383  0.7668 -2.7047
  446SOL    HW2 1338   1.915   1.060   0.853  1.8253  0.6220 -0.7370
  447SOL     OW 1339   2.923   0.910   0.312  0.4675 -0.4562 -0.0493
  447SOL    HW1 1340   2.870   0.851   0.252  2.7612 -0.3546  1.1168
  447SOL    HW2 1341   2.945   0.884   0.405 -0.0194  0.6677  0.9020
  448SOL     OW 1342   2.257   1.782   1.110  0.3399 -0.2952  0.6061
  448SOL    HW1 1343   2.270   1.723   1.187 -1.7704 -2.5526 -0.3064
  448SOL    HW2 1344   2.186   1.858   1.132 -2.1079  1.6366  0.6382
  449SOL     OW 1345   0.995   1.321   2.800  0.3591 -0.1884  0.4547
  449SOL    HW1 1346   1.071   1.364   2.748  0.9464  0.5906  1.2205
  449SOL    HW2 1347   0.961   1.373   2.881  0.6332  1.1277  1.8918
  450SOL     OW 1348   2.335   2.816   2.507  0.2338  0.1785  0.5997
  450SOL    HW1 1349   2.414   2.784   2.460  0.2157  0.8893  1.6358
  450SOL    HW2 1350   2.290   2.889   2.448  1.1079  3.2469  0.0778
  451SOL     OW 1351   2.466   0.916   2.532  0.0512 -0.7666  0.4363
  451SOL    HW1 1352   2.526   0.837   2.510  0.2993  1.0355  2.1224
  451SOL    HW2 1353   2.382   0.920   2.473 -1.2490  0.4970 -1.1029
  452SOL     OW 1354   1.620   1.236   1.340 -0.2135 -0.0819 -0.1528
  452SOL    HW1 1355   1.645   1.298   1.260 -0.0844  2.1012  0.0285
  452SOL    HW2 1356   1.573   1.289   1.411  2.9271 -2.6017 -1.7092
  453SOL     OW 1357   1.634   0.406   1.839 -0.1411  0.1249 -0.0730
  453SOL    HW1 1358   1.697   0.389   1.761 -0.0537  0.5169  1.2578
  453SOL    HW2 1359   1.585   0.316   1.853 -1.2251 -0.3395  0.7754
  454SOL     OW 1360   2.953   0.863   2.943 -0.0602 -0.1401  0.4110
  454SOL    HW1 1361   2.962   0.770   2.904 -1.0841  3.1679  2.0743
  454SOL    HW2 1362   3.016   0.866   3.023  0.4387  2.2765 -1.0659
  455SOL     OW 1363   2.478   1.512   1.511  0.4216 -0.5559 -0.3209
  455SOL    HW1 1364   2.442   1.515   1.609 -0.0711  2.8802  2.5575
  455SOL    HW2 1365   2.574   1.541   1.502 -1.0360 -0.2248  0.8169
  456SOL     OW 1366   1.790   2.940   1.686 -0.1409 -0.1059 -0.1297
  456SOL    HW1 1367   1.775   2.847   1.731 -0.2498  2.7771  1.8270
  456SOL    HW2 1368   1.865   2.940   1.618 -0.1049  0.8501 -0.9908
  457SOL     OW 1369   1.372   2.907   0.629 -0.1286 -0.0624 -0.3801
  457SOL    HW1 1370   1.423   2.998   0.653  0.7614  0.6685  0.4760
  457SOL    HW2 1371   1.436   2.836   0.592  1.4866 -0.9413 -0.8975
  458SOL     OW 1372   0.013   2.979   0.562  0.1124  0.3850  0.1417
  458SOL    HW1 1373   3.003   2.908   0.575 -1.8160  0.4249 -1.5497
  458SOL    HW2 1374   0.048   2.981   0.467  1.8329 -1.5818  2.5684
  459SOL     OW 1375   1.984   1.248   0.550  0.3374  0.0582 -0.8056
  459SOL    HW1 1376   1.923   1.195   0.487  0.3382  0.8173 -2.4000
  459SOL    HW2 1377   1.934   1.281   0.635  1.4809  2.4483  1.1815
  460SOL     OW 1378   0.788   2.459   2.311 -0.3421  0.3399  0.2910
  460SOL    HW1 1379   0.839   2.544   2.310 -1.2438  0.0667 -0.7924
  460SOL    HW2 1380   0.822   2.390   2.383  0.0527  0.8144  0.8543
  461SOL     OW 1381   0.646   1.678   2.836 -0.2204 -0.1648  0.2775
  461SOL    HW1 1382   0.586   1.637   2.760  0.0298  0.1350 -0.7166
  461SOL    HW2 1383   0.626   1.630   2.924  1.6193  0.8593  0.4419
  462SOL     OW 1384   2.242   2.092   0.517  0.2429  0.3576  0.1757
  462SOL    HW1 1385   2.262   2.033   0.598  0.4649 -1.5970 -0.4317
  462SOL    HW2 1386   2.257   2.038   0.434 -0.7830  2.7836 -0.7537
  463SOL     OW 1387   2.783   0.596   0.474  0.7926 -0.1137  0.3968
  463SOL    HW1 1388   2.860   0.537   0.435 -2.6243  1.3433  2.7386
  463SOL    HW2 1389   2.705   0.537   0.501  2.2292  3.6531 -1.9216
  464SOL     OW 1390   0.419   1.664   0.346  0.0610  0.1941  0.7149
  464SOL    HW1 1391   0.400   1.640   0.248 -2.4649  1.7447 -2.7183
  464SOL    HW2 1392   0.470   1.589   0.395  0.2983  0.3978  1.6198
  465SOL     OW 1393   2.395   0.054   1.304  0.1501  0.1488  0.2372
  465SOL    HW1 1394   2.416   3.035   1.246  1.4479  0.4535  0.1741
  465SOL    HW2 1395   2.294   0.052   1.309  1.9964 -0.1303 -0.2697
  466SOL     OW 1396   2.453   0.070   0.612  0.5732 -0.1730 -0.3586
  466SOL    HW1 1397   2.435   0.098   0.515  2.3225 -3.1066 -1.2135
  466SOL    HW2 1398   2.470   0.155   0.667 -2.0447  0.4619 -1.0721
  467SOL     OW 1399   0.221   0.553   2.192 -0.4321 -0.2160  0.1909
  467SOL    HW1 1400   0.204   0.526   2.287 -1.2641  1.3745 -0.2633
  467SOL    HW2 1401   0.198   0.479   2.128  0.7182  2.5533  1.1677
  468SOL     OW 1402   2.719   3.002   2.147 -0.0888  0.4095  0.2105
  468SOL    HW1 1403   2.734   0.041   2.140 -1.7243  0.5924  1.0460
  468SOL    HW2 1404   2.807   2.955   2.159  1.2677  1.2938  0.6038
  469SOL     OW 1405   0.976   0.301   1.490  0.2825 -0.3535 -0.2561
  469SOL    HW1 1406   0.912   0.364   1.543 -1.2028  0.7209  1.2182
  469SOL    HW2 1407   0.916   0.236   1.439  0.0845 -0.4252  1.2900
  470SOL     OW 1408   2.563   0.764   1.738 -0.2286  0.0859 -0.1495
  470SOL    HW1 1409   2.664   0.754   1.709  1.6605 -2.6114  1.5447
  470SOL    HW2 1410   2.554   0.804   1.833  1.9161 -2.5420 -0.8827
  471SOL     OW 1411   2.765   1.587   2.677  0.2678 -0.0268 -0.2913
  471SOL    HW1 1412   2.683   1.611   2.733  1.4882  1.7036  0.0988
  471SOL    HW2 1413   2.818   1.515   2.726  2.3203  0.0285  3.2068
  472SOL     OW 1414   0.731   1.804   0.666 -0.1760  0.6884  0.1476
  472SOL    HW1 1415   0.807   1.776   0.603 -0.7402 -3.3464  1.5389
  472SOL    HW2 1416   0.643   1.838   0.617 -3.5962 -0.7363 -0.9483
  473SOL     OW 1417   1.573   2.181   2.024 -0.1288  0.0861  0.3926
  473SOL    HW1 1418   1.546   2.082   2.022 -0.8474  0.0456  1.2099
  473SOL    HW2 1419   1.579   2.211   2.119 -1.2401 -0.1526 -0.0023
  474SOL     OW 1420   0.646   2.831   2.492  0.2774 -0.3472  0.1253
  474SOL    HW1 1421   0.647   2.802   2.593 -2.5402  1.8281  0.9182
  474SOL    HW2 1422   0.626   2.929   2.477 -0.4277 -0.2334 -0.9113
  475SOL     OW 1423   0.899   1.819   2.447  0.0330 -0.0243 -0.2822
  475SOL    HW1 1424   0.846   1.893   2.402 -0.7377  2.5172  3.4817
  475SOL    HW2 1425   0.876   1.816   2.546 -0.8733  0.6020 -0.9995
  476SOL     OW 1426   0.673   0.557   0.964  0.0312 -0.4612 -0.0097
  476SOL    HW1 1427   0.660   0.652   0.999  0.4483  0.9746  0.2196
  476SOL    HW2 1428   0.615   0.539   0.886  0.0322  1.8204 -0.3586
  477SOL     OW 1429   1.845   2.402   1.253 -0.3514  0.3815  0.1500
  477SOL    HW1 1430   1.880   2.386   1.161  1.6116  1.5216  1.5632
  477SOL    HW2 1431   1.903   2.353   1.324  1.4563  0.2606  0.9589
  478SOL     OW 1432   0.214   0.411   2.896  0.4265 -0.1199 -0.4559
  478SOL    HW1 1433   0.131   0.438   2.951 -3.4446  1.7692  1.6411
  478SOL    HW2 1434   0.213   0.448   2.802 -0.7908 -1.3073  2.2164
  479SOL     OW 1435   1.225   0.501   1.215  0.0586  0.6481  0.0706
  479SOL    HW1 1436   1.150   0.560   1.231  2.1453 -0.8355  1.0751
  479SOL    HW2 1437   1.265   0.526   1.123 -0.5560  2.1043  0.1866
  480SOL     OW 1438   2.801   2.371   0.239  0.1170 -0.3204 -0.0636
  480SOL    HW1 1439   2.709   2.327   0.222  1.0178 -2.1056 -1.1809
  480SOL    HW2 1440   2.869   2.295   0.275  2.0059 -0.8561  1.0535
  481SOL     OW 1441   0.107   0.735   1.520  0.0582  0.4199 -0.3557
  481SOL    HW1 1442   0.104   0.836   1.503 -2.3416 -0.6322  0.9393
  481SOL    HW2 1443   0.080   0.712   1.616  1.0867 -0.6631  0.9445
  482SOL     OW 1444   0.955   0.049   1.194  0.1994  0.1401  0.3875
  482SOL    HW1 1445   0.874   0.104   1.181  3.0517 -0.4267 -1.8946
  482SOL    HW2 1446   0.952   0.012   1.284 -1.0482  0.7600 -1.4606
  483SOL     OW 1447   2.968   1.333   2.500 -0.0051 -0.2985  0.2351
  483SOL    HW1 1448   2.939   1.247   2.540  2.4405  2.4430 -3.0578
  483SOL    HW2 1449   2.886   1.381   2.466  0.5856 -0.6848 -2.8003
  484SOL     OW 1450   1.788   1.622   1.866  0.5124  0.5785  0.0164
  484SOL    HW1 1451   1.738   1.606   1.954  1.4942 -1.9824 -1.2817
  484SOL    HW2 1452   1.733   1.581   1.791 -2.6506 -0.3783  0.8711
  485SOL     OW 1453   0.310   2.939   2.599  0.0349  0.0079 -0.0388
  485SOL    HW1 1454   0.219   2.911   2.640  1.8118  2.0277 -1.3011
  485SOL    HW2 1455   0.365   2.856   2.559 -0.1386 -3.9948 -1.8395
  486SOL     OW 1456   1.238   0.132   0.828 -0.1635  0.4642 -0.3569
  486SOL    HW1 1457   1.237   0.036   0.857  1.7347  0.9738 -0.8678
  486SOL    HW2 1458   1.326   0.157   0.785 -1.0329  1.5759  0.5347
  487SOL     OW 1459   1.584   0.103   0.963  0.4415 -0.0140  0.2144
  487SOL    HW1 1460   1.674   0.152   0.970 -0.3106 -0.1411  0.6528
  487SOL    HW2 1461   1.533   0.108   1.053  1.4242  2.1437 -0.2443
  488SOL     OW 1462   2.312   1.045   0.852 -0.0739 -0.7524  0.3541
  488SOL    HW1 1463   2.282   1.108   0.779 -0.2411 -1.5988  0.5592
  488SOL    HW2 1464   2.382   1.089   0.912 -0.7201 -0.7104 -0.8234
  489SOL     OW 1465   1.287   0.837   1.166 -0.2240 -0.7740 -0.0461
  489SOL    HW1 1466   1.375   0.880   1.209  3.3184 -0.8112 -1.1960
  489SOL    HW2 1467   1.309   0.758   1.107  0.2560 -0.8667 -1.7744
  490SOL     OW 1468   0.933   0.569   2.985  0.1377  0.7512 -0.1878
  490SOL    HW1 1469   1.002   0.643   2.977 -3.1966 -1.7033 -1.4374
  490SOL    HW2 1470   0.885   0.564   0.013 -1.7866 -0.9887 -0.6987
  491SOL     OW 1471   0.927   2.625   0.637 -0.3472  0.1356 -0.1627
  491SOL    HW1 1472   0.899   2.711   0.589  2.9397  0.8871 -5.1882
  491SOL    HW2 1473   0.911   2.627   0.743 -0.9426 -1.5226  1.3511
  492SOL     OW 1474   1.152   1.629   1.579 -0.0953  0.3522 -0.2414
  492SOL    HW1 1475   1.185   1.709   1.634 -0.0859  0.2543 -0.7111
  492SOL    HW2 1476   1.211   1.631   1.495  0.3240  1.1246  0.6832
  493SOL     OW 1477   0.673   1.536   0.027  0.5273  0.1688 -0.0182
  493SOL    HW1 1478   0.603   1.465   0.051  0.4774 -0.4960 -2.3993
  493SOL    HW2 1479   0.678   1.607   0.105 -1.4129  2.5479  0.2773
  494SOL     OW 1480   1.998   2.445   0.788 -0.0718 -0.7351 -0.1582
  494SOL    HW1 1481   2.029   2.353   0.764  0.6089 -0.5069  0.4430
  494SOL    HW2 1482   2.068   2.507   0.750  0.3930 -1.8137  1.0225
  495SOL     OW 1483   0.120   1.409   2.394 -0.2835 -1.0597 -0.3957
  495SOL    HW1 1484   0.174   1.488   2.440 -1.6619  1.3671 -0.4151
  495SOL    HW2 1485   0.041   1.376   2.452  1.5779 -4.3207  1.5688
  496SOL     OW 1486   0.307   2.333   2.458  0.1276 -0.0834  0.6788
  496SOL    HW1 1487   0.248   2.350   2.538 -1.4148  1.6311 -4.8327
  496SOL    HW2 1488   0.399   2.372   2.463 -1.5519 -1.4655  0.3514
  497SOL     OW 1489   1.690   1.417   0.602  0.9184 -0.5261 -0.5539
  497SOL    HW1 1490   1.617   1.348   0.589  1.0785  0.7933  1.8532
  497SOL    HW2 1491   1.751   1.391   0.681 -1.4900 -0.3821 -0.6009
  498SOL     OW 1492   2.928   2.547   0.091 -0.4930  0.0051 -0.0051
  498SOL    HW1 1493   2.988   2.484   0.034 -1.3133 -1.2969 -0.0443
  498SOL    HW2 1494   2.887   2.495   0.167  0.9136  1.7627 -1.2455
  499SOL     OW 1495   2.176   2.589   0.644 -0.9110  0.0122  0.1197
  499SOL    HW1 1496   2.159   2.586   0.544 -1.0387 -1.3509 -0.1445
  499SOL    HW2 1497   2.242   2.663   0.677 -2.7962 -0.5971  4.9530
  500SOL     OW 1498   0.465   0.302   2.518 -0.0891  0.0543 -0.3797
  500SOL    HW1 1499   0.418   0.361   2.591 -1.4186 -1.7472  1.9325
  500SOL    HW2 1500   0.545   0.350   2.480 -2.1773  0.2630 -1.0459
  501SOL     OW 1501   1.869   2.688   1.447  0.5261 -0.1132 -0.1285
  501SOL    HW1 1502   1.899   2.603   1.486 -0.7978  3.2185 -2.1673
  501SOL    HW2 1503   1.777   2.677   1.403 -0.9756  2.2802  1.2435
  502SOL     OW 1504   0.033   3.010   2.516 -0.0711  0.1305  0.2215
  502SOL    HW1 1505   0.037   2.933   2.583 -1.1913  1.0637  0.2597
  502SOL    HW2 1506   0.124   3.030   2.474  2.2574 -0.2907  1.6084
  503SOL     OW 1507   1.895   2.626   2.272 -0.4348  0.4204  0.2198
  503SOL    HW1 1508   1.978   2.636   2.336  0.8837  0.4272  1.4778
  503SOL    HW2 1509   1.916   2.620   2.170 -0.5334 -0.0949 -2.0167
  504SOL     OW 1510   2.063   0.289   1.849  0.3551 -0.2934  0.1835
  504SOL    HW1 1511   1.990   0.249   1.790  0.5269  0.1278  0.1084
  504SOL    HW2 1512   2.146   0.287   1.790 -0.9035  0.3345 -0.6587
  505SOL     OW 1513   2.660   1.364   0.997  0.4964  0.1808 -0.2336
  505SOL    HW1 1514   2.664   1.450   1.058  2.1070  2.6392  1.0704
  505SOL    HW2 1515   2.588   1.375   0.922 -2.2269  0.6431 -0.7716
  506SOL     OW 1516   0.114   1.652   1.658  0.1849  0.2000  0.6344
  506SOL    HW1 1517   0.141   1.697   1.567 -0.0341 -2.3081 -3.5902
  506SOL    HW2 1518   0.132   1.712   1.736  2.9270  0.0227 -1.5031
  507SOL     OW 1519   0.333   2.269   1.476  0.5935 -0.1468  0.2829
  507SOL    HW1 1520   0.415   2.290   1.533  2.9805 -2.3723  0.2786
  507SOL    HW2 1521   0.282   2.352   1.445 -0.9805  0.5396  0.0902
  508SOL     OW 1522   0.501   0.483   2.122 -0.2112 -0.0388 -0.7247
  508SOL    HW1 1523   0.495   0.380   2.109 -2.5217 -2.9418  0.2322
  508SOL    HW2 1524   0.407   0.523   2.110  1.3371  0.6024  2.1897
  509SOL     OW 1525   1.492   2.691   1.774 -0.7441  0.0933 -0.1658
  509SOL    HW1 1526   1.395   2.661   1.764 -0.4729 -1.3641 -0.7311
  509SOL    HW2 1527   1.526   2.707   1.870 -0.7583  1.8703 -0.8851
  510SOL     OW 1528   2.254   1.322   2.420 -0.4319  0.0262 -0.4084
  510SOL    HW1 1529   2.174   1.377   2.432  4.1729 -1.6226 -2.6103
  510SOL    HW2 1530   2.308   1.321   2.505  0.3504  0.4097 -1.1989
  511SOL     OW 1531   1.010   1.176   1.064 -0.1326  0.2859  0.4979
  511SOL    HW1 1532   1.056   1.107   1.118 -3.1903 -1.7365  1.9355
  511SOL    HW2 1533   1.002   1.263   1.113  0.4727  1.2417 -3.8459
  512SOL     OW 1534   2.842   1.723   0.477 -0.0167  0.5629  0.2085
  512SOL    HW1 1535   2.802   1.642   0.527 -0.7099 -0.0207 -0.7028
  512SOL    HW2 1536   2.927   1.760   0.526 -0.0772  0.5349 -1.8450
  513SOL     OW 1537   1.135   2.113   2.245  0.0457 -0.1498  0.5205
  513SOL    HW1 1538   1.041   2.102   2.202  0.6318  0.3032 -2.2004
  513SOL    HW2 1539   1.147   2.192   2.307  2.5958  0.0935 -0.3201
  514SOL     OW 1540   0.209   2.205   1.182 -0.5218  0.1948  0.5307
  514SOL    HW1 1541   0.139   2.187   1.254 -0.2306 -0.2989 -1.2884
  514SOL    HW2 1542   0.304   2.190   1.213 -1.3245  1.3501  0.1288
  515SOL     OW 1543   1.979   0.796   1.671 -0.4346  0.5973  0.0183
  515SOL    HW1 1544   1.887   0.818   1.715 -2.1373  0.6445 -0.1663
  515SOL    HW2 1545   1.975   0.808   1.568 -1.6846 -0.1328  1.0365
  516SOL     OW 1546   2.345   0.311   3.028  0.6392 -0.0430 -0.6702
  516SOL    HW1 1547   2.396   0.266   2.952  0.5265  0.8328  0.2381
  516SOL    HW2 1548   2.394   0.394   3.057  0.4910 -0.7571  1.7656
  517SOL     OW 1549   1.082   1.756   2.774  0.2523  0.0794  0.0101
  517SOL    HW1 1550   1.123   1.708   2.858 -0.4939 -1.7214 -0.4798
  517SOL    HW2 1551   1.140   1.736   2.692  0.3064  0.1937  0.0571
  518SOL     OW 1552   1.523   3.013   1.458 -0.5929 -0.5148  0.3420
  518SOL    HW1 1553   1.521   3.010   1.560  0.4895  0.9763 -0.3628
  518SOL    HW2 1554   1.619   3.014   1.424  0.0731  1.7503 -1.4399
  519SOL     OW 1555   2.207   2.823   0.915 -0.4683 -0.0526 -0.7919
  519SOL    HW1 1556   2.257   2.778   0.844 -0.5633 -1.3493  2.5475
  519SOL    HW2 1557   2.169   2.909   0.879 -1.5504 -0.1083  0.4053
  520SOL     OW 1558   2.599   1.760   2.013  0.0703  0.1328  0.5089
  520SOL    HW1 1559   2.633   1.687   1.950 -0.7999  0.3281 -0.4512
  520SOL    HW2 1560   2.531   1.819   1.964 -2.0388 -2.1965  0.0907
  521SOL     OW 1561   2.779   0.714   0.188  0.3653 -0.1540  0.2465
  521SOL    HW1 1562   2.774   0.657   0.103  2.3368  2.1021 -0.0361
  521SOL    HW2 1563   2.781   0.658   0.271  1.7707  0.2299 -0.0517
  522SOL     OW 1564   0.851   0.811   2.564 -0.2755  0.1751 -0.6761
  522SOL    HW1 1565   0.789   0.730   2.584 -0.8896  2.2198  1.2343
  522SOL    HW2 1566   0.868   0.840   2.466 -0.7692  1.6159 -0.5595
  523SOL     OW 1567   0.313   2.449   0.378 -0.2380 -0.0921 -0.3903
  523SOL    HW1 1568   0.247   2.405   0.439  1.6861 -0.1772 -0.5050
  523SOL    HW2 1569   0.361   2.386   0.313  1.3091 -0.0842 -1.5670
  524SOL     OW 1570   2.263   2.539   0.001  0.3301 -0.2206 -0.0899
  524SOL    HW1 1571   2.281   2.584   2.974 -1.1933  3.1812  0.2467
  524SOL    HW2 1572   2.304   2.600   0.072 -0.7335  1.6240 -2.0567
  525SOL     OW 1573   2.598   0.449   1.767 -0.2424  0.1253 -0.7133
  525SOL    HW1 1574   2.627   0.392   1.692 -0.9926  1.1755  3.6761
  525SOL    HW2 1575   2.498   0.461   1.756 -3.6201 -0.3487 -0.3264
  526SOL     OW 1576   1.131   2.995   0.492  0.3809 -0.1248 -0.3288
  526SOL    HW1 1577   1.196   2.951   0.551  0.4752  0.9936 -2.0600
  526SOL    HW2 1578   1.177   0.009   0.446  2.3456  2.0474  2.5619
  527SOL     OW 1579   2.088   2.928   0.497 -0.0207 -0.0619 -0.1972
  527SOL    HW1 1580   2.040   2.836   0.485 -1.2974 -3.3121  0.5723
  527SOL    HW2 1581   2.168   2.937   0.431 -5.0307  0.7532 -0.7362
  528SOL     OW 1582   1.679   0.884   2.791  0.0549  0.5273 -0.5808
  528SOL    HW1 1583   1.696   0.783   2.786  1.3499 -0.0431  0.2819
  528SOL    HW2 1584   1.578   0.902   2.794  0.0022  1.2610 -0.0812
  529SOL     OW 1585   1.734   1.468   2.134  0.0399  0.0059  0.0388
  529SOL    HW1 1586   1.656   1.441   2.195  1.1300 -2.0865 -0.8759
  529SOL    HW2 1587   1.795   1.387   2.116 -0.3185 -2.2755  0.5927
  530SOL     OW 1588   2.460   2.670   0.181 -0.0420 -0.1674  0.2721
  530SOL    HW1 1589   2.494   2.726   0.256  1.7327 -1.8703 -0.3105
  530SOL    HW2 1590   2.530   2.615   0.131 -1.2305  2.4997  0.4214
  531SOL     OW 1591   1.822   1.663   2.911 -0.1849  0.2243 -0.2477
  531SOL    HW1 1592   1.869   1.606   2.983  1.9425  1.5473 -0.4766
  531SOL    HW2 1593   1.835   1.761   2.939  0.2270 -0.5214 -2.6372
  532SOL     OW 1594   1.712   0.315   1.240  0.1544 -0.6006 -0.1399
  532SOL    HW1 1595   1.619   0.275   1.227 -0.7438  0.2408 -0.1655
  532SOL    HW2 1596   1.724   0.413   1.208 -0.3553 -2.7708  1.0090
  533SOL     OW 1597   0.737   0.900   0.200  0.2005 -0.5778 -0.4715
  533SOL    HW1 1598   0.707   0.944   0.289  1.1447  2.1769  1.8073
  533SOL    HW2 1599   0.803   0.959   0.155  0.1439  1.0055 -0.4818
  534SOL     OW 1600   1.478   0.721   2.989 -0.0794 -0.8290  0.2711
  534SOL    HW1 1601   1.499   0.642   2.931  2.8683  1.3976  0.3719
  534SOL    HW2 1602   1.539   0.724   0.011  0.9773 -0.1425  5.0823
  535SOL     OW 1603   0.739   2.070   2.636 -0.3197  0.4621 -0.0188
  535SOL    HW1 1604   0.699   2.112   2.716  2.1120 -1.8540 -0.4058
  535SOL    HW2 1605   0.774   1.980   2.667  0.1486 -0.0530 -0.6177
  536SOL     OW 1606   0.521   2.690   0.199 -0.2591  0.7284  0.4725
  536SOL    HW1 1607   0.603   2.741   0.236 -1.9106  0.6081  4.2285
  536SOL    HW2 1608   0.499   2.614   0.261  1.3168  0.5024 -3.9969
  537SOL     OW 1609   1.900   0.202   0.099 -0.3131  0.3700 -0.3592
  537SOL    HW1 1610   2.007   0.196   0.108 -0.2958 -0.1678 -5.4533
  537SOL    HW2 1611   1.856   0.142   0.168 -1.6545  2.3083 -1.6882
  538SOL     OW 1612   2.537   2.295   0.128  0.3923 -0.6595  0.4938
  538SOL    HW1 1613   2.475   2.290   0.045 -0.9262 -0.7202  1.4379
  538SOL    HW2 1614   2.476   2.308   0.216  1.9183 -0.9806  4.0560
  539SOL     OW 1615   2.328   1.220   3.042  0.2783  0.7603  0.3653
  539SOL    HW1 1616   2.391   1.140   3.022  0.8791 -0.4133 -0.2214
  539SOL    HW2 1617   2.315   1.235   0.079  1.7246 -1.6776  0.3819
  540SOL     OW 1618   0.693   2.822   1.879 -0.1549 -0.4747 -0.9835
  540SOL    HW1 1619   0.700   2.722   1.893 -1.7631 -0.4129 -0.2154
  540SOL    HW2 1620   0.625   2.866   1.941  1.1086 -0.4051 -0.8962
  541SOL     OW 1621   2.222   3.044   2.385 -0.1731 -0.8586 -0.4935
  541SOL    HW1 1622   2.174   0.055   2.435 -2.8641 -2.2952 -0.3280
  541SOL    HW2 1623   2.311   0.021   2.350  1.4810 -0.1205  4.1651
  542SOL     OW 1624   0.474   0.541   0.075 -0.3942  0.2209  0.1747
  542SOL    HW1 1625   0.496   0.449   0.035  3.0878 -3.8309 -0.1121
  542SOL    HW2 1626   0.411   0.534   0.156 -0.9970  0.3392  0.1428
  543SOL     OW 1627   0.420   0.955   0.837  0.3918  0.0276  0.5812
  543SOL    HW1 1628   0.401   0.958   0.938  3.0489  2.6162  0.2544
  543SOL    HW2 1629   0.510   0.984   0.809  3.4176 -0.5547 -1.2142
  544SOL     OW 1630   2.439   0.577   1.343  0.7762  0.1640 -0.3414
  544SOL    HW1 1631   2.533   0.545   1.327 -0.4512 -0.4661  0.7592
  544SOL    HW2 1632   2.430   0.677   1.323  3.1376  0.3158  0.4203
  545SOL     OW 1633   1.184   1.666   3.025 -0.3767 -0.1798 -0.0821
  545SOL    HW1 1634   1.124   1.706   0.034  1.7650 -3.6227  0.8878
  545SOL    HW2 1635   1.279   1.651   3.061  1.1782 -1.4722 -0.9177
  546SOL     OW 1636   2.341   2.564   1.493 -0.4325 -0.3680  0.2358
  546SOL    HW1 1637   2.283   2.572   1.409  0.4721 -0.1708  2.7203
  546SOL    HW2 1638   2.350   2.651   1.542  2.1298  0.4105  0.3718
  547SOL     OW 1639   1.367   2.560   2.185  0.0787  1.0329  0.0452
  547SOL    HW1 1640   1.396   2.634   2.125  1.5647 -2.9723 -0.9996
  547SOL    HW2 1641   1.391   2.585   2.281  3.2218  1.6301 -0.9753
  548SOL     OW 1642   1.343   0.627   2.549  0.1620  0.0207  0.0942
  548SOL    HW1 1643   1.327   0.688   2.629  0.2987 -2.1557  4.3593
  548SOL    HW2 1644   1.306   0.531   2.571 -1.1433 -1.7126 -1.2934
  549SOL     OW 1645   2.190   0.738   0.449 -0.0981 -0.2158  0.2974
  549SOL    HW1 1646   2.145   0.716   0.540  0.7216  2.8989  0.6901
  549SOL    HW2 1647   2.293   0.731   0.454  0.5817  0.0835  1.2541
  550SOL     OW 1648   2.348   1.514   0.371 -0.1678 -0.2756  0.3093
  550SOL    HW1 1649   2.422   1.568   0.416 -2.7252  1.1196 -2.8707
  550SOL    HW2 1650   2.355   1.535   0.269  0.7841  2.9271  0.0869
  551SOL     OW 1651   2.128   0.043   1.370 -0.0510 -0.4720  0.0128
  551SOL    HW1 1652   2.155   0.111   1.441  0.5160 -1.7374 -0.3613
  551SOL    HW2 1653   2.070   0.097   1.309 -4.0894 -0.5493 -0.1318
  552SOL     OW 1654   1.379   0.080   2.832 -0.1985 -0.5864 -0.3497
  552SOL    HW1 1655   1.310   0.152   2.862 -2.9827 -1.5551  0.7116
  552SOL    HW2 1656   1.444   0.124   2.767 -2.6909 -0.8331 -0.0810
  553SOL     OW 1657   0.520   2.557   2.119 -0.2559 -0.1741 -0.2526
  553SOL    HW1 1658   0.567   2.617   2.187  0.1192  0.6136  0.5153
  553SOL    HW2 1659   0.500   2.466   2.157  1.8632  2.4034 -1.1236
  554SOL     OW 1660   0.206   2.887   1.338 -0.2249  0.0898 -0.3747
  554SOL    HW1 1661   0.146   2.838   1.271 -2.7321 -0.2055  0.3726
  554SOL    HW2 1662   0.289   2.923   1.288 -0.5351  0.8919 -0.3343
  555SOL     OW 1663   2.555   1.524   2.219 -0.2897  0.5197  0.7146
  555SOL    HW1 1664   2.581   1.582   2.138 -1.0171  2.8551  0.3521
  555SOL    HW2 1665   2.489   1.445   2.196 -1.6390  1.0113  1.4013
  556SOL     OW 1666   1.220   0.604   0.026 -0.4864  0.4835  0.0299
  556SOL    HW1 1667   1.295   0.627   3.024 -0.6631 -1.7514 -0.4852
  556SOL    HW2 1668   1.229   0.505   0.054 -0.8015  0.1353 -0.7884
  557SOL     OW 1669   0.163   1.919   2.270  0.1678  0.5255 -0.2756
  557SOL    HW1 1670   0.191   1.993   2.202  1.1497  0.8556 -1.5405
  557SOL    HW2 1671   0.199   1.828   2.244  1.1487  0.3805  0.8612
  558SOL     OW 1672   1.716   0.612   2.751 -0.1401  0.3523 -0.1571
  558SOL    HW1 1673   1.630   0.568   2.783  2.4541  1.6659 -3.1941
  558SOL    HW2 1674   1.791   0.542   2.758 -0.7474 -0.7573  0.1274
  559SOL     OW 1675   2.011   1.751   1.714 -0.1551 -0.1730 -0.2401
  559SOL    HW1 1676   1.971   1.768   1.625  3.2204  2.2736  3.3180
  559SOL    HW2 1677   1.938   1.709   1.773  1.6025 -1.1912 -1.6526
  560SOL     OW 1678   1.639   0.634   2.003 -0.5921 -0.6189 -0.1236
  560SOL    HW1 1679   1.566   0.686   1.954 -2.6698 -0.2786 -1.7267
  560SOL    HW2 1680   1.663   0.540   1.964 -0.3547 -0.4354  0.7799
  561SOL     OW 1681   3.035   0.030   2.856 -0.1418  0.2110 -0.1402
  561SOL    HW1 1682   2.975   0.062   2.778 -0.2336 -0.0782  1.4946
  561SOL    HW2 1683   0.055   0.087   2.865 -0.3786 -1.3944  2.0400
  562SOL     OW 1684   0.892   1.592   1.503  0.4398 -0.0681 -0.2791
  562SOL    HW1 1685   0.987   1.582   1.538  1.0461 -0.6920 -1.0665
  562SOL    HW2 1686   0.828   1.594   1.580 -0.0732  1.1523 -3.1868
  563SOL     OW 1687   1.126   3.046   0.129 -0.5881 -0.0420  0.1472
  563SOL    HW1 1688   1.183   3.020   0.048 -1.2279  0.2951 -0.4371
  563SOL    HW2 1689   1.070   2.968   0.158  2.7280  0.3075 -0.3955
  564SOL     OW 1690   0.260   2.755   0.485  0.2791  0.2529  0.3118
  564SOL    HW1 1691   0.344   2.696   0.474  0.9692 -0.8787 -0.3117
  564SOL    HW2 1692   0.179   2.704   0.447 -0.1394  0.9153  2.5015
  565SOL     OW 1693   0.548   2.384   1.231 -1.0056 -0.3465 -0.1385
  565SOL    HW1 1694   0.523   2.285   1.232 -0.1204 -0.4307  0.9109
  565SOL    HW2 1695   0.615   2.406   1.306 -0.9774 -1.3555 -0.1091
  566SOL     OW 1696   1.159   2.986   2.255  0.1654 -0.4657  0.4843
  566SOL    HW1 1697   1.134   0.023   2.242 -2.6870  1.1182 -0.3509
  566SOL    HW2 1698   1.075   2.929   2.231 -1.3315  0.3869 -0.1893
  567SOL     OW 1699   2.228   0.165   0.791  0.2877 -0.3001 -0.4288
  567SOL    HW1 1700   2.300   0.135   0.728 -2.5374 -1.4283  1.9441
  567SOL    HW2 1701   2.151   0.104   0.793  3.1384  1.6887  0.5555
  568SOL     OW 1702   1.592   1.644   0.715  0.4939  0.0776 -0.4706
  568SOL    HW1 1703   1.641   1.726   0.675 -0.3129  1.3858 -0.8525
  568SOL    HW2 1704   1.622   1.560   0.662  0.8296 -1.5342 -0.8389
  569SOL     OW 1705   2.025   0.677   2.132  0.0206 -0.6972 -0.6618
  569SOL    HW1 1706   1.998   0.650   2.039  2.9142 -1.1047  2.6425
  569SOL    HW2 1707   2.027   0.596   2.192  1.2348 -1.3911 -5.0948
  570SOL     OW 1708   3.053   3.051   2.057  0.0953 -0.3430  0.1074
  570SOL    HW1 1709   3.019   2.999   2.138  1.2848 -1.8294  2.4112
  570SOL    HW2 1710   2.989   3.049   1.979  1.4384 -2.3568  3.1631
  571SOL     OW 1711   0.303   2.596   1.649  0.3627  0.4006  0.0834
  571SOL    HW1 1712   0.351   2.603   1.744  3.4317  1.1560  1.8232
  571SOL    HW2 1713   0.376   2.599   1.577  1.5167  2.4558 -2.2276
  572SOL     OW 1714   0.110   2.144   1.453  0.2489  0.0071 -0.1219
  572SOL    HW1 1715   0.042   2.211   1.413 -1.0424 -0.6453 -2.5825
  572SOL    HW2 1716   0.204   2.176   1.459 -3.0366 -1.9487 -1.1043
  573SOL     OW 1717   1.340   0.862   2.710  0.3569  0.1246 -0.2267
  573SOL    HW1 1718   1.382   0.916   2.636  1.3687 -2.6349  2.9863
  573SOL    HW2 1719   1.239   0.873   2.711 -1.0192  1.9915 -0.1893
  574SOL     OW 1720   2.553   2.426   2.146 -0.8158 -0.3333  0.0713
  574SOL    HW1 1721   2.648   2.429   2.175 -2.3146 -0.8321 -3.9818
  574SOL    HW2 1722   2.547   2.366   2.064  0.0904  0.9403  1.3512
  575SOL     OW 1723   1.281   2.913   0.904 -0.2875  0.4554 -0.0609
  575SOL    HW1 1724   1.325   2.902   0.812 -0.6950 -0.0186 -1.3352
  575SOL    HW2 1725   1.354   2.893   0.976  2.4833  0.4438 -1.1983
  576SOL     OW 1726   1.419   0.359   0.997  0.6521 -0.5086 -0.3108
  576SOL    HW1 1727   1.367   0.416   0.932  0.4760  0.5294 -1.1828
  576SOL    HW2 1728   1.503   0.323   0.950  0.9017 -1.3049 -1.2635
  577SOL     OW 1729   2.186   2.024   0.234  0.1676  0.0584 -0.3312
  577SOL    HW1 1730   2.240   1.997   0.152 -0.4017  3.0835  0.5226
  577SOL    HW2 1731   2.092   1.978   0.231 -3.2304  2.3217  1.9849
  578SOL     OW 1732   2.210   0.455   1.248  0.0824  0.0313 -0.1294
  578SOL    HW1 1733   2.309   0.479   1.256  0.4078  1.5969 -0.0829
  578SOL    HW2 1734   2.156   0.464   1.332  0.5683  1.0366  0.4511
  579SOL     OW 1735   1.735   0.951   2.411 -0.3955  0.1604 -0.3855
  579SOL    HW1 1736   1.738   0.913   2.317 -2.2654 -0.3494 -1.3506
  579SOL    HW2 1737   1.753   1.050   2.412 -0.0697 -1.1688  0.6091
  580SOL     OW 1738   1.288   1.139   1.752 -0.5280  0.5848  0.1048
  580SOL    HW1 1739   1.245   1.224   1.716 -1.4962  1.6631 -3.9079
  580SOL    HW2 1740   1.221   1.084   1.802  1.1295 -0.8205 -2.7719
  581SOL     OW 1741   0.230   0.870   1.108 -0.1170  0.3414 -0.0650
  581SOL    HW1 1742   0.181   0.953   1.077 -0.4915 -2.4088  0.3151
  581SOL    HW2 1743   0.240   0.865   1.208  0.3020 -0.8050  0.1363
  582SOL     OW 1744   2.862   0.514   1.830  0.5977  0.0978 -0.1674
  582SOL    HW1 1745   2.778   0.454   1.830  1.2624  1.0831 -1.4309
  582SOL    HW2 1746   2.892   0.539   1.927 -0.7411 -0.4591  4.4024
  583SOL     OW 1747   2.949   0.567   2.554 -0.4823  0.0826 -0.1431
  583SOL    HW1 1748   2.959   0.666   2.558 -0.4778 -1.4508  1.0799
  583SOL    HW2 1749   2.854   0.535   2.567  2.4572  0.1612 -0.6094
  584SOL     OW 1750   2.021   2.219   0.592 -0.2023 -0.2909 -0.2406
  584SOL    HW1 1751   2.116   2.176   0.568  1.8603  0.5051 -0.5704
  584SOL    HW2 1752   1.989   2.269   0.512  2.9713  0.0810  2.6685
  585SOL     OW 1753   0.065   2.181   0.062  0.1601 -0.2546 -0.0669
  585SOL    HW1 1754   0.074   2.077   0.063 -1.0543 -0.5353  0.3699
  585SOL    HW2 1755   0.038   2.225   0.150  2.4550  0.5200  3.4036
  586SOL     OW 1756   1.777   2.046   2.329  0.0041  0.2280  0.2133
  586SOL    HW1 1757   1.826   2.017   2.246  2.3599  0.0770  0.9496
  586SOL    HW2 1758   1.834   2.089   2.395 -0.1200 -2.8560  0.1555
  587SOL     OW 1759   2.193   1.650   2.746  0.7682  0.2073  0.0610
  587SOL    HW1 1760   2.285   1.635   2.706 -0.7552 -1.0295 -1.3032
  587SOL    HW2 1761   2.130   1.580   2.705 -1.8264  0.4972 -2.3536
  588SOL     OW 1762   3.042   0.028   1.338 -0.0829 -0.3311  0.7591
  588SOL    HW1 1763   0.060   3.055   1.283 -1.7611 -1.0330  0.2221
  588SOL    HW2 1764   3.059   0.121   1.383 -2.3724  0.8953 -0.3849
  589SOL     OW 1765   0.562   0.228   0.735  0.0347 -0.4974  0.2512
  589SOL    HW1 1766   0.484   0.172   0.691 -0.7503 -1.9068 -0.0902
  589SOL    HW2 1767   0.545   0.326   0.724  2.2952 -3.3839  1.0337
  590SOL     OW 1768   2.512   2.117   0.823  0.1445 -0.0564  0.0398
  590SOL    HW1 1769   2.420   2.160   0.816  0.1833 -1.2448 -0.6966
  590SOL    HW2 1770   2.567   2.130   0.738 -1.0297  2.7873  1.0987
  591SOL     OW 1771   1.086   2.301   0.785  0.3703  0.4557  0.2285
  591SOL    HW1 1772   1.093   2.333   0.884  0.3987  1.7893  0.0612
  591SOL    HW2 1773   1.116   2.370   0.721  3.3558 -0.0393  1.6829
  592SOL     OW 1774   1.121   1.014   1.240 -0.3291 -0.2802 -0.5677
  592SOL    HW1 1775   1.186   0.939   1.230 -0.3815  1.8529 -1.1792
  592SOL    HW2 1776   1.113   1.038   1.341  0.5267  3.5774  1.9863
  593SOL     OW 1777   0.734   2.481   1.411  0.5232 -0.0248  0.1330
  593SOL    HW1 1778   0.786   2.526   1.485  0.8843 -0.1864 -1.3702
  593SOL    HW2 1779   0.798   2.454   1.334  1.6725 -1.5088 -0.2825
  594SOL     OW 1780   0.917   1.504   2.989  0.5804 -0.1810 -0.7895
  594SOL    HW1 1781   0.965   1.590   2.977 -3.1601 -0.5881  0.1455
  594SOL    HW2 1782   0.818   1.520   3.006  1.1702  0.6726 -0.3207
  595SOL     OW 1783   1.399   1.387   1.497 -0.4302  0.1918 -0.3159
  595SOL    HW1 1784   1.437   1.389   1.596  0.5263 -0.7763  3.2972
  595SOL    HW2 1785   1.391   1.484   1.465 -1.3884 -1.1678  0.5276
  596SOL     OW 1786   2.770   1.102   2.286  0.3149 -0.1651  0.1911
  596SOL    HW1 1787   2.737   1.035   2.218 -1.1103  1.9842 -0.1981
  596SOL    HW2 1788   2.858   1.140   2.250 -1.2253  1.0940  0.7965
  597SOL     OW 1789   1.250   2.540   1.787 -0.9776 -0.0669  1.0120
  597SOL    HW1 1790   1.196   2.533   1.702 -4.0128 -0.7193  0.3495
  597SOL    HW2 1791   1.218   2.623   1.835  1.9527 -1.7465 -0.0777
  598SOL     OW 1792   2.284   1.278   1.429  0.6443  0.1733 -0.1906
  598SOL    HW1 1793   2.383   1.294   1.441  2.4206  0.3782  0.2650
  598SOL    HW2 1794   2.230   1.359   1.395  1.2034  0.3038 -0.3302
  599SOL     OW 1795   0.881   2.441   2.735 -0.0524  0.1707  0.0454
  599SOL    HW1 1796   0.881   2.539   2.717 -1.6886 -0.0545  1.2350
  599SOL    HW2 1797   0.975   2.404   2.758 -1.5514 -0.2784 -1.3638
  600SOL     OW 1798   2.984   2.205   0.351  0.3784  0.4397 -0.2209
  600SOL    HW1 1799   2.939   2.115   0.339 -0.9881 -0.9172  1.6187
  600SOL    HW2 1800   0.012   2.194   0.396 -1.6043  1.4531 -2.8882
  601SOL     OW 1801   0.557   0.831   1.310  0.0981 -0.4385  0.3880
  601SOL    HW1 1802   0.606   0.875   1.389 -2.3449 -1.7600 -2.0833
  601SOL    HW2 1803   0.470   0.780   1.335 -2.3532  2.7778  0.7367
  602SOL     OW 1804   0.756   0.215   1.275  0.3359  0.4916  0.4784
  602SOL    HW1 1805   0.687   0.194   1.350 -2.1751 -1.9980  0.9130
  602SOL    HW2 1806   0.749   0.314   1.249  2.1728 -3.2095  1.0065
  603SOL     OW 1807   0.286   2.728   2.895  0.3773  0.4360 -0.3399
  603SOL    HW1 1808   0.240   2.678   2.820 -2.2807 -0.2735  1.7823
  603SOL    HW2 1809   0.222   2.781   2.954  0.0530  0.2571  0.4017
  604SOL     OW 1810   1.526   0.156   1.872  0.0305 -0.1226  0.0006
  604SOL    HW1 1811   1.449   0.157   1.940  0.1760  2.4073  0.2866
  604SOL    HW2 1812   1.526   0.074   1.807 -0.0765 -2.1484 -1.6814
  605SOL     OW 1813   1.482   1.407   1.765 -0.0121 -0.3981  0.7689
  605SOL    HW1 1814   1.566   1.452   1.726 -1.7314  1.1990 -1.7960
  605SOL    HW2 1815   1.496   1.343   1.839 -4.5169  0.7740 -1.6411
  606SOL     OW 1816   2.131   2.935   0.068 -0.3862 -0.4160 -0.4276
  606SOL    HW1 1817   2.088   3.012   0.016  2.4172  1.6323  0.5644
  606SOL    HW2 1818   2.210   2.901   0.018 -2.0155 -1.0273  0.0047
  607SOL     OW 1819   0.661   0.053   2.235  0.7462 -0.8467 -0.6134
  607SOL    HW1 1820   0.595   0.040   2.311 -1.7962 -1.1564 -0.2204
  607SOL    HW2 1821   0.757   0.080   2.267 -0.7461  1.2638 -0.0887
  608SOL     OW 1822   2.990   2.204   2.171 -0.2762 -0.1044 -0.6113
  608SOL    HW1 1823   3.034   2.173   2.261  1.1890 -1.8056  2.8401
  608SOL    HW2 1824   2.932   2.129   2.134  0.4400  0.6963 -0.5144
  609SOL     OW 1825   0.707   1.144   3.010 -0.3235 -0.3163  0.1571
  609SOL    HW1 1826   0.668   1.181   2.924 -1.4408 -0.4844  1.3187
  609SOL    HW2 1827   0.757   1.058   2.996 -2.2942  0.6566 -0.2394
  610SOL     OW 1828   0.360   2.689   0.981 -0.6435 -0.1319 -0.0563
  610SOL    HW1 1829   0.385   2.764   0.914 -0.1494  0.0042  1.0283
  610SOL    HW2 1830   0.374   2.720   1.077 -0.2418 -1.7018 -0.7854
  611SOL     OW 1831   1.075   1.499   0.430  0.2231 -0.1246  0.2045
  611SOL    HW1 1832   1.170   1.481   0.400 -3.5315 -0.7350  2.4473
  611SOL    HW2 1833   1.009   1.424   0.403 -0.6843  0.0042 -0.7785
  612SOL     OW 1834   2.241   1.887   0.693  0.0181  0.6110 -0.0799
  612SOL    HW1 1835   2.168   1.831   0.646  0.6567 -0.8124  0.6946
  612SOL    HW2 1836   2.325   1.831   0.693 -2.7295 -0.2175  0.3055
  613SOL     OW 1837   1.686   1.613   0.407  0.2249  0.4935 -0.3960
  613SOL    HW1 1838   1.591   1.649   0.422 -0.2500  0.5118 -1.4059
  613SOL    HW2 1839   1.701   1.544   0.482 -2.2954  0.0896  1.2653
  614SOL     OW 1840   2.701   0.470   2.603  0.6440 -0.4754 -0.4854
  614SOL    HW1 1841   2.717   0.409   2.686  1.3839 -0.9144  0.3735
  614SOL    HW2 1842   2.647   0.428   2.525 -3.9283 -1.6992 -0.0146
  615SOL     OW 1843   0.589   1.449   0.419 -0.2590 -0.3901  0.1812
  615SOL    HW1 1844   0.586   1.370   0.356 -0.0646  0.0715 -0.0523
  615SOL    HW2 1845   0.671   1.451   0.481  0.2315 -2.1867  0.5224
  616SOL     OW 1846   1.518   1.006   2.558  0.5487  0.4035 -0.3840
  616SOL    HW1 1847   1.532   1.097   2.602  0.3883  3.5829 -0.6536
  616SOL    HW2 1848   1.601   0.977   2.509 -1.8978  0.5341  0.1394
  617SOL     OW 1849   1.439   0.603   0.496 -0.5611  0.4059 -0.3405
  617SOL    HW1 1850   1.357   0.638   0.461  1.3954  0.7555  1.0271
  617SOL    HW2 1851   1.471   0.516   0.449  0.2873 -0.6904 -1.5011
  618SOL     OW 1852   3.027   1.794   2.070 -0.2650  0.1517  0.0619
  618SOL    HW1 1853   0.055   1.792   2.025  0.0013 -1.5642 -0.0318
  618SOL    HW2 1854   3.018   1.716   2.135 -3.0924  0.4075 -1.8247
  619SOL     OW 1855   2.611   1.893   0.598 -0.2794 -0.0261 -0.3281
  619SOL    HW1 1856   2.684   1.881   0.662 -1.8586 -2.5803 -2.1844
  619SOL    HW2 1857   2.588   1.991   0.588  1.1669  0.0348 -0.4953
  620SOL     OW 1858   2.672   3.005   0.994 -0.1999 -0.3664 -0.0072
  620SOL    HW1 1859   2.753   3.060   0.967 -1.4587  1.3311  0.5715
  620SOL    HW2 1860   2.584   3.055   0.986  1.2795 -0.2132  3.0328
  621SOL     OW 1861   0.137   1.828   0.800 -0.2077 -0.1625  0.0973
  621SOL    HW1 1862   0.221   1.777   0.811 -4.8569 -0.0394  3.1946
  621SOL    HW2 1863   0.122   1.891   0.875 -0.4665 -0.9915 -1.4023
  622SOL     OW 1864   0.501   1.867   1.668 -0.1263 -0.6294 -0.2637
  622SOL    HW1 1865   0.418   1.909   1.635  4.0192  2.3775  1.9187
  622SOL    HW2 1866   0.531   1.915   1.756  0.2705  0.8405 -0.0827
  623SOL     OW 1867   2.091   2.855   2.247  0.2415 -0.0370 -0.0252
  623SOL    HW1 1868   2.163   2.806   2.198 -0.9316 -0.2754  0.1404
  623SOL    HW2 1869   2.134   2.928   2.301 -1.5343 -3.4879 -2.8869
  624SOL     OW 1870   0.564   1.950   0.129  0.0322  0.3321 -0.1130
  624SOL    HW1 1871   0.476   1.933   0.176  0.6188  0.1810 -0.6654
  624SOL    HW2 1872   0.543   1.937   0.028 -1.5182  0.2801  0.5425
  625SOL     OW 1873   0.671   1.775   2.065 -0.0890  0.0814  0.3716
  625SOL    HW1 1874   0.761   1.759   2.012 -0.8193 -0.4223 -2.6093
  625SOL    HW2 1875   0.650   1.698   2.135  0.4278  0.4900 -0.4015
  626SOL     OW 1876   0.393   2.242   0.226  0.2722 -0.2856  0.1893
  626SOL    HW1 1877   0.494   2.247   0.242 -2.5068  0.3627  0.2492
  626SOL    HW2 1878   0.358   2.150   0.193 -2.2860 -2.6736  1.2802
  627SOL     OW 1879   1.622   1.679   2.431 -0.3900 -1.1345  0.0437
  627SOL    HW1 1880   1.718   1.715   2.428  2.0738 -0.4304 -1.0626
  627SOL    HW2 1881   1.625   1.576   2.432 -2.2970  1.6739 -0.0683
  628SOL     OW 1882   1.075   2.057   0.218 -1.1227 -0.2211  0.4129
  628SOL    HW1 1883   1.001   2.106   0.267 -0.6050  0.9700 -0.1379
  628SOL    HW2 1884   1.167   2.094   0.258  2.3787  0.3767  2.2047
  629SOL     OW 1885   0.820   0.735   2.212  0.6078 -0.2384 -0.2307
  629SOL    HW1 1886   0.863   0.824   2.227  0.8793  2.6969 -2.1247
  629SOL    HW2 1887   0.798   0.724   2.110 -0.0322  0.3167  1.2717
  630SOL     OW 1888   2.801   2.626   1.480  0.1035 -0.3884  0.0097
  630SOL    HW1 1889   2.864   2.589   1.412 -0.7372 -1.3028 -1.6988
  630SOL    HW2 1890   2.850   2.644   1.568  1.1630  1.8303  1.4302
  631SOL     OW 1891   1.392   0.973   0.949 -0.3876  0.8641 -0.2673
  631SOL    HW1 1892   1.314   0.953   0.888 -0.4426  0.7285  0.0785
  631SOL    HW2 1893   1.363   0.965   1.046 -0.9983  1.9574  1.6891
  632SOL     OW 1894   2.329   0.292   2.014 -0.4499 -0.0403  0.2285
  632SOL    HW1 1895   2.293   0.316   2.110 -1.5493 -1.7112  0.6712
  632SOL    HW2 1896   2.254   0.313   1.947 -0.4722  1.8170 -1.4426
  633SOL     OW 1897   1.632   1.190   0.044 -0.1800  0.6999  0.6662
  633SOL    HW1 1898   1.536   1.162   0.046  2.6343  1.5282 -0.1987
  633SOL    HW2 1899   1.697   1.116   0.005  1.2855 -1.1897 -0.3449
  634SOL     OW 1900   0.309   1.944   0.237 -0.1885 -0.1919 -0.1603
  634SOL    HW1 1901   0.315   1.858   0.290  0.7074  0.5498 -2.0328
  634SOL    HW2 1902   0.237   1.939   0.165  2.0813  1.6342  3.7027
  635SOL     OW 1903   2.746   1.454   2.439  0.2772  0.2738  0.1080
  635SOL    HW1 1904   2.755   1.525   2.511 -1.0823 -0.3782 -0.0627
  635SOL    HW2 1905   2.685   1.482   2.361 -1.5780 -0.9463 -2.6467
  636SOL     OW 1906   0.201   1.657   2.528 -0.2751 -0.2628  0.2057
  636SOL    HW1 1907   0.130   1.610   2.588  0.7438 -1.5926  0.6624
  636SOL    HW2 1908   0.200   1.764   2.533 -3.0057  3.4289 -2.0535
  637SOL     OW 1909   0.138   2.075   0.451  0.0916 -0.1988 -0.1816
  637SOL    HW1 1910   0.202   2.058   0.373  0.1326  0.9705  1.2436
  637SOL    HW2 1911   0.182   2.120   0.530  0.7225 -0.2039 -2.4826
  638SOL     OW 1912   2.489   2.619   0.460  0.2804 -0.1826 -0.0011
  638SOL    HW1 1913   2.503   2.718   0.431 -0.3622  1.5448 -2.5612
  638SOL    HW2 1914   2.397   2.586   0.425 -1.9612 -1.1812  2.1103
  639SOL     OW 1915   1.045   0.744   0.165 -0.2912  0.0895  0.0532
  639SOL    HW1 1916   0.955   0.694   0.184 -2.0364  0.2222 -0.0516
  639SOL    HW2 1917   1.112   0.688   0.113  1.8506  0.6350 -2.8622
  640SOL     OW 1918   2.401   2.171   1.755 -0.1975 -1.1308  0.3569
  640SOL    HW1 1919   2.467   2.211   1.828  1.7983 -0.2366  3.9680
  640SOL    HW2 1920   2.327   2.241   1.735 -0.6415 -1.3004 -0.4199
  641SOL     OW 1921   2.556   2.688   1.161  0.4611  0.3661 -0.1113
  641SOL    HW1 1922   2.479   2.754   1.160  1.8511  0.3497 -1.5178
  641SOL    HW2 1923   2.646   2.728   1.180  1.6589  2.4740  0.6683
  642SOL     OW 1924   0.937   0.988   1.614  0.5975 -0.3227 -0.0260
  642SOL    HW1 1925   0.993   0.932   1.550 -3.3058 -0.0041  0.1801
  642SOL    HW2 1926   0.936   1.084   1.585 -1.3258  0.3507 -0.8735
  643SOL     OW 1927   0.482   1.405   2.086 -0.6067  0.4535  0.9282
  643SOL    HW1 1928   0.403   1.352   2.121 -0.4884  0.9230  3.3813
  643SOL    HW2 1929   0.538   1.353   2.016 -1.2650  0.8552  1.3639
  644SOL     OW 1930   1.081   0.183   2.190  0.0104  0.1167  0.0298
  644SOL    HW1 1931   1.096   0.283   2.208  2.3111  1.1879  1.0252
  644SOL    HW2 1932   1.003   0.181   2.118  0.0638 -0.5750 -0.6211
  645SOL     OW 1933   1.924   1.092   1.535 -0.0784  0.2896  0.2300
  645SOL    HW1 1934   1.946   1.067   1.437  0.4384  0.5337  0.6015
  645SOL    HW2 1935   1.951   1.192   1.551  0.8061  3.6337  0.2179
  646SOL     OW 1936   1.561   2.522   0.268 -0.3494  0.3626  0.0427
  646SOL    HW1 1937   1.628   2.554   0.199 -0.7004 -0.3907 -1.1775
  646SOL    HW2 1938   1.478   2.580   0.261  0.9993  1.1369 -0.1376
  647SOL     OW 1939   1.505   2.619   0.816 -0.0587  0.6139 -0.5819
  647SOL    HW1 1940   1.603   2.587   0.819  0.7943 -0.0818 -1.4834
  647SOL    HW2 1941   1.482   2.659   0.722  1.6261  2.7337 -1.7380
  648SOL     OW 1942   0.328   2.510   1.294 -0.5627 -0.5001 -0.1297
  648SOL    HW1 1943   0.244   2.493   1.236  0.3429 -1.9299 -1.8979
  648SOL    HW2 1944   0.408   2.459   1.253  0.3266 -0.9159 -0.5954
  649SOL     OW 1945   1.096   2.264   2.856  0.4213  0.6819  0.0028
  649SOL    HW1 1946   1.141   2.197   2.790  0.4543 -1.8117 -0.7466
  649SOL    HW2 1947   1.047   2.209   2.923 -0.3650 -1.4712 -0.6169
  650SOL     OW 1948   2.564   1.415   2.948  0.0204 -0.1414 -0.0324
  650SOL    HW1 1949   2.488   1.355   2.977  2.2753 -0.4118  0.5332
  650SOL    HW2 1950   2.648   1.383   2.994  1.6185 -0.6512 -1.0487
  651SOL     OW 1951   2.475   2.183   2.270  0.0048  0.0793 -0.2567
  651SOL    HW1 1952   2.496   2.270   2.228  0.0235 -1.2050  0.7529
  651SOL    HW2 1953   2.421   2.196   2.356  0.6137 -2.4698  1.4166
  652SOL     OW 1954   2.775   2.498   0.489  0.3395  0.2576  0.5775
  652SOL    HW1 1955   2.678   2.524   0.500 -1.3580  0.8952 -1.1775
  652SOL    HW2 1956   2.797   2.472   0.394 -1.0241 -3.6130  1.8646
  653SOL     OW 1957   2.310   1.683   1.353  0.1509  0.0681  0.2936
  653SOL    HW1 1958   2.295   1.774   1.399 -0.6848  1.6621 -0.0627
  653SOL    HW2 1959   2.380   1.625   1.403 -0.4382 -1.8398  2.6616
  654SOL     OW 1960   1.137   1.157   0.202  0.3872 -0.0676  0.3031
  654SOL    HW1 1961   1.080   1.088   0.150 -1.4817 -2.2084 -1.2037
  654SOL    HW2 1962   1.133   1.252   0.160  0.6515  3.0050 -1.9445
  655SOL     OW 1963   1.303   1.309   0.754 -1.0709 -0.2617 -0.2735
  655SOL    HW1 1964   1.202   1.302   0.766  0.7309  2.1677  1.1336
  655SOL    HW2 1965   1.330   1.274   0.663  2.3864 -2.4849  1.0425
  656SOL     OW 1966   1.678   2.490   2.435  0.0629  0.2012 -0.0422
  656SOL    HW1 1967   1.750   2.538   2.383 -0.1956  3.3812  0.3980
  656SOL    HW2 1968   1.627   2.432   2.373  0.5347 -1.1029  0.8216
  657SOL     OW 1969   2.095   1.509   0.490 -0.1066 -0.1504 -0.0107
  657SOL    HW1 1970   2.067   1.410   0.510  0.5355 -2.5371  0.5157
  657SOL    HW2 1971   2.174   1.511   0.423  0.0176  2.9583 -0.1962
  658SOL     OW 1972   2.208   3.022   1.681  0.5401 -0.4479  0.1632
  658SOL    HW1 1973   2.170   2.950   1.741  0.3780  2.5624 -2.4062
  658SOL    HW2 1974   2.153   3.029   1.597 -0.5405 -0.9556 -2.8305
  659SOL     OW 1975   2.864   1.549   0.246 -0.3035 -0.1568 -0.7391
  659SOL    HW1 1976   2.958   1.583   0.218 -0.4224 -0.1076 -1.9672
  659SOL    HW2 1977   2.817   1.614   0.316 -4.6231 -0.7823  1.8934
  660SOL     OW 1978   1.316   0.454   0.702 -0.3122 -0.1179  0.3286
  660SOL    HW1 1979   1.261   0.390   0.644  1.4218  2.4318  1.1247
  660SOL    HW2 1980   1.369   0.518   0.640 -0.6217  0.7842 -0.5752
  661SOL     OW 1981   1.758   0.543   0.046  0.5442  0.1501  0.4683
  661SOL    HW1 1982   1.858   0.538   0.037 -2.5774 -1.2265  0.9222
  661SOL    HW2 1983   1.731   0.635   0.084  0.7933  0.4121 -2.7502
  662SOL     OW 1984   0.470   0.237   0.204  0.5715 -0.4046 -0.4929
  662SOL    HW1 1985   0.488   0.184   0.121  1.1331  0.9473  2.3488
  662SOL    HW2 1986   0.554   0.242   0.263 -0.0331  0.3097  2.1979
  663SOL     OW 1987   1.218   2.499   2.866  0.0782  0.5096 -0.3993
  663SOL    HW1 1988   1.167   2.414   2.880  0.0551  1.6041 -0.7900
  663SOL    HW2 1989   1.314   2.478   2.838  2.2763 -1.0713 -2.1363
  664SOL     OW 1990   0.548   2.695   1.399 -0.3042  0.2023 -0.1486
  664SOL    HW1 1991   0.466   2.659   1.365  3.5880  0.8315 -1.0933
  664SOL    HW2 1992   0.616   2.617   1.409  0.8576 -1.5428  1.5447
  665SOL     OW 1993   1.495   2.825   1.069 -0.5287  0.1723 -0.3953
  665SOL    HW1 1994   1.512   2.735   1.027 -0.0457  1.1858 -0.8319
  665SOL    HW2 1995   1.585   2.875   1.064 -1.7679 -0.9656 -1.8795
  666SOL     OW 1996   0.857   2.277   2.503  0.0109 -0.0414 -0.4687
  666SOL    HW1 1997   0.815   2.186   2.539 -1.1825 -0.5474 -0.2261
  666SOL    HW2 1998   0.861   2.334   2.586  0.4022 -1.3059 -0.4536
  667SOL     OW 1999   2.843   0.411   1.475  0.1459 -0.3178 -0.0302
  667SOL    HW1 2000   2.846   0.337   1.545  0.3594 -0.0462 -0.7033
  667SOL    HW2 2001   2.942   0.433   1.445  1.5887 -0.3585  1.0791
  668SOL     OW 2002   0.571   0.504   1.795 -0.6316 -0.2118 -0.4119
  668SOL    HW1 2003   0.668   0.513   1.771 -0.7947  1.9451  0.9254
  668SOL    HW2 2004   0.561   0.419   1.851  3.7011 -0.2293 -0.9955
  669SOL     OW 2005   1.354   2.832   1.328 -0.4205 -0.3953  0.3050
  669SOL    HW1 2006   1.412   2.908   1.363 -0.4853  1.5746 -1.2050
  669SOL    HW2 2007   1.365   2.816   1.229  0.0879  0.9973  0.2741
  670SOL     OW 2008   1.688   2.487   2.907 -0.2108  0.1713 -0.0518
  670SOL    HW1 2009   1.724   2.546   2.834 -0.1269 -0.3567  0.3436
  670SOL    HW2 2010   1.746   2.402   2.906  3.6089 -0.5840  0.9907
  671SOL     OW 2011   0.416   1.262   2.871 -0.1746 -0.1422  0.2214
  671SOL    HW1 2012   0.363   1.306   2.795 -0.1763  1.2279 -1.2894
  671SOL    HW2 2013   0.512   1.249   2.840  0.2641  1.7147 -2.3314
  672SOL     OW 2014   2.318   0.589   2.564 -0.8014  0.3754 -0.0268
  672SOL    HW1 2015   2.332   0.650   2.645 -2.3272  1.5253  2.9306
  672SOL    HW2 2016   2.305   0.634   2.477  2.4811 -1.4160  0.8932
  673SOL     OW 2017   0.203   1.881   1.196  0.7673  0.0564 -0.3063
  673SOL    HW1 2018   0.114   1.936   1.186 -4.4551 -0.3808 -0.8573
  673SOL    HW2 2019   0.258   1.891   1.114 -0.6763 -1.0886  1.5170
  674SOL     OW 2020   1.665   2.083   1.731 -0.6433 -0.2902  0.1930
  674SOL    HW1 2021   1.642   2.150   1.806 -1.5093  2.1052  1.8596
  674SOL    HW2 2022   1.631   2.118   1.645  1.7954 -3.0421  3.1762
  675SOL     OW 2023   1.137   1.416   1.165  0.2303  0.4472 -0.2416
  675SOL    HW1 2024   1.218   1.453   1.110  0.8860 -1.0098 -1.0551
  675SOL    HW2 2025   1.167   1.376   1.256 -0.1133 -0.1532  0.2349
  676SOL     OW 2026   2.344   0.803   0.973 -0.0287  0.4427  0.5620
  676SOL    HW1 2027   2.352   0.895   0.931  1.1740 -0.7030  2.6572
  676SOL    HW2 2028   2.383   0.736   0.908 -0.1739 -0.8446  0.2465
  677SOL     OW 2029   2.445   0.385   0.279  0.2924 -0.6667 -0.3384
  677SOL    HW1 2030   2.547   0.373   0.294 -0.8922  3.5418  0.2528
  677SOL    HW2 2031   2.430   0.477   0.234 -0.9841  2.0643 -1.3474
  678SOL     OW 2032   2.482   1.158   1.038 -0.0901  0.0801 -0.3183
  678SOL    HW1 2033   2.549   1.229   1.053 -2.4779 -1.9920 -1.9958
  678SOL    HW2 2034   2.509   1.079   1.099  0.2628 -0.5081 -0.2420
  679SOL     OW 2035   2.485   0.537   0.029  0.1800  0.0911 -0.4905
  679SOL    HW1 2036   2.432   0.621   0.005 -1.2760 -0.6364  1.2629
  679SOL    HW2 2037   2.578   0.542   3.051 -0.0252  1.1938 -1.2406
  680SOL     OW 2038   0.628   1.583   2.241  0.2883 -0.2141 -0.1901
  680SOL    HW1 2039   0.561   1.515   2.197 -0.8754 -1.4354  1.8374
  680SOL    HW2 2040   0.579   1.638   2.311 -0.8702 -0.0754 -2.0259
  681SOL     OW 2041   2.501   2.048   1.542 -0.1217 -0.3024  0.5097
  681SOL    HW1 2042   2.465   2.093   1.625 -0.6018 -0.8682  0.0166
  681SOL    HW2 2043   2.421   2.010   1.490  0.6356  1.2243  0.7985
  682SOL     OW 2044   0.473   1.722   2.426  0.4402  0.4492 -0.0101
  682SOL    HW1 2045   0.371   1.701   2.424 -5.2939  0.0643  3.0242
  682SOL    HW2 2046   0.488   1.821   2.425 -0.7888  1.1932 -2.9696
  683SOL     OW 2047   2.594   1.833   1.395  0.3488  0.0198  0.0041
  683SOL    HW1 2048   2.631   1.867   1.306  1.9377  1.0280  2.5198
  683SOL    HW2 2049   2.541   1.908   1.430 -1.5721  1.2486 -0.8432
  684SOL     OW 2050   2.720   1.331   2.013 -0.8452  0.5817  0.2042
  684SOL    HW1 2051   2.727   1.342   2.112 -0.9109  1.2211 -0.5465
  684SOL    HW2 2052   2.681   1.237   1.997 -1.1686 -3.7003  3.4020
  685SOL     OW 2053   0.942   0.792   0.864  0.0096  0.0419  0.9679
  685SOL    HW1 2054   0.901   0.867   0.810  1.1071 -0.3885  0.5557
  685SOL    HW2 2055   0.916   0.706   0.825  0.5316  1.4302  3.5259
  686SOL     OW 2056   0.483   0.019   2.453 -0.1073  0.0875  0.2293
  686SOL    HW1 2057   0.480   0.120   2.472  2.2028 -1.8724 -1.3291
  686SOL    HW2 2058   0.412   3.035   2.516  1.1500 -0.2180  0.0597
  687SOL     OW 2059   0.566   1.991   1.935  0.3885 -0.3828 -0.3692
  687SOL    HW1 2060   0.643   2.053   1.911  1.5129  0.9658  1.3787
  687SOL    HW2 2061   0.591   1.916   2.001  2.6780  1.1753 -0.6631
  688SOL     OW 2062   2.324   0.293   1.677  0.1044 -0.3586  0.4001
  688SOL    HW1 2063   2.245   0.253   1.622 -1.6574 -1.5585 -1.1631
  688SOL    HW2 2064   2.345   0.386   1.644 -0.3025 -1.4270  1.6076
  689SOL     OW 2065   2.051   0.972   0.828  0.4113  0.1079  0.5892
  689SOL    HW1 2066   2.051   0.871   0.805  1.0556 -1.6386 -3.0493
  689SOL    HW2 2067   2.150   1.001   0.842  1.2552 -0.4476 -0.7735
  690SOL     OW 2068   2.752   0.720   1.154  0.1017  0.5937  0.4977
  690SOL    HW1 2069   2.853   0.728   1.130  1.9100 -1.2448  0.1771
  690SOL    HW2 2070   2.727   0.638   1.207 -2.0540  2.0999  1.5159
  691SOL     OW 2071   0.005   1.072   2.080 -0.0045  0.3716 -0.1653
  691SOL    HW1 2072   3.027   1.160   2.105  1.1073  0.2443 -0.0721
  691SOL    HW2 2073   3.014   1.020   2.009 -0.5455  1.9603 -1.9052
  692SOL     OW 2074   0.626   1.180   1.937  0.3910  0.4762  0.3671
  692SOL    HW1 2075   0.591   1.160   2.030  2.4210  0.0346 -1.0728
  692SOL    HW2 2076   0.708   1.121   1.924 -0.2029 -1.1524  1.7353
  693SOL     OW 2077   0.390   1.146   1.771 -0.1591  0.5048  0.6612
  693SOL    HW1 2078   0.451   1.162   1.850 -0.5260  1.4777  0.7290
  693SOL    HW2 2079   0.295   1.170   1.785  0.4128 -2.0325 -0.2867
  694SOL     OW 2080   1.396   1.925   1.011  0.2997  0.0288 -0.1091
  694SOL    HW1 2081   1.378   1.885   0.920  1.0203  4.5463  0.9909
  694SOL    HW2 2082   1.351   1.864   1.080  0.8705  0.5098  2.5695
  695SOL     OW 2083   2.991   0.752   1.002  0.2833  0.9485  0.5856
  695SOL    HW1 2084   3.043   0.837   1.013  0.0259  1.4751  0.0060
  695SOL    HW2 2085   2.991   0.714   0.906 -0.5188 -1.0811 -2.9388
  696SOL     OW 2086   0.602   2.255   0.685  0.0605 -0.1089  0.1703
  696SOL    HW1 2087   0.665   2.332   0.672 -1.6868 -1.3799  0.4709
  696SOL    HW2 2088   0.553   2.254   0.774 -0.7755  0.3267  1.8962
  697SOL     OW 2089   1.463   0.964   1.651 -0.4379  0.7603 -0.7441
  697SOL    HW1 2090   1.532   0.989   1.582 -1.1985 -0.0772  2.9661
  697SOL    HW2 2091   1.389   1.038   1.662 -0.4614 -2.0793  0.7808
  698SOL     OW 2092   1.683   1.630   1.401 -0.0319 -0.2708 -0.1901
  698SOL    HW1 2093   1.650   1.726   1.403  1.5785 -2.0598  1.5864
  698SOL    HW2 2094   1.778   1.636   1.364  1.5481  1.7102 -0.3607
  699SOL     OW 2095   0.309   0.522   2.653  0.4353 -0.2239  0.6524
  699SOL    HW1 2096   0.219   0.523   2.605  1.0647 -1.9740  1.7604
  699SOL    HW2 2097   0.364   0.610   2.639 -0.7939  3.4134 -2.4271
  700SOL     OW 2098   1.646   2.286   0.645 -0.0539  0.8624 -0.2009
  700SOL    HW1 2099   1.661   2.268   0.745  1.7600 -2.3431  0.4914
  700SOL    HW2 2100   1.568   2.348   0.632  2.6096 -0.0771 -1.7510
  701SOL     OW 2101   2.987   1.303   2.190 -0.5203 -0.0238 -0.1416
  701SOL    HW1 2102   3.019   1.308   2.287  0.4243  2.3679 -1.1617
  701SOL    HW2 2103   3.035   1.374   2.137 -0.4793 -2.1258  1.6666
  702SOL     OW 2104   0.669   0.168   2.769 -0.8696  0.1936 -0.2868
  702SOL    HW1 2105   0.650   0.244   2.838  1.3240  2.8057  4.2975
  702SOL    HW2 2106   0.700   0.209   2.681  1.3017 -0.2399  1.0127
  703SOL     OW 2107   1.473   0.509   2.802  0.1941  0.1117  0.3410
  703SOL    HW1 2108   1.521   0.423   2.819 -0.7919  2.7959  2.6028
  703SOL    HW2 2109   1.380   0.484   2.771  2.6535  0.6387 -0.0214
  704SOL     OW 2110   2.875   1.285   1.169  0.1427 -0.0092  0.4294
  704SOL    HW1 2111   2.968   1.309   1.127  0.5853 -2.3198 -0.2393
  704SOL    HW2 2112   2.802   1.331   1.117  1.9338  1.5992 -2.4425
  705SOL     OW 2113   2.407   1.922   1.884 -0.5542 -0.1016  0.4135
  705SOL    HW1 2114   2.431   2.012   1.847  1.4239 -1.7160  1.9071
  705SOL    HW2 2115   2.357   1.864   1.810 -0.2584 -0.2206  1.7257
  706SOL     OW 2116   3.056   2.516   0.874  0.0068 -0.0611 -0.3642
  706SOL    HW1 2117   0.054   2.587   0.834  0.5305 -1.5215  1.7541
  706SOL    HW2 2118   3.005   2.471   0.795  2.8374  0.1795 -1.1476
  707SOL     OW 2119   0.815   2.793   0.158  0.1918 -0.3556 -0.1624
  707SOL    HW1 2120   0.784   2.885   0.128 -1.4123 -0.3107  1.6212
  707SOL    HW2 2121   0.905   2.815   0.204 -0.1270  4.6877  0.4148
  708SOL     OW 2122   0.824   2.210   1.589  0.0838 -0.3213  0.2744
  708SOL    HW1 2123   0.749   2.277   1.585  0.4706 -0.4237 -2.9487
  708SOL    HW2 2124   0.804   2.129   1.525 -1.3829 -3.4494 -1.9792
  709SOL     OW 2125   2.115   0.214   2.496  0.1178  0.4683  0.4258
  709SOL    HW1 2126   2.067   0.306   2.505 -1.1912 -0.3114  1.4362
  709SOL    HW2 2127   2.160   0.184   2.581  0.8190 -0.6059 -0.6266
  710SOL     OW 2128   1.023   2.661   2.589  0.4416 -0.3746 -0.4028
  710SOL    HW1 2129   1.088   2.637   2.513  0.2290 -0.2265  2.5421
  710SOL    HW2 2130   1.077   2.668   2.676 -0.5541  0.4714  0.2055
  711SOL     OW 2131   1.124   2.343   2.420 -0.0977  0.6838 -0.5303
  711SOL    HW1 2132   1.130   2.440   2.382  0.1642  3.9345  1.3736
  711SOL    HW2 2133   1.038   2.329   2.478 -0.9027 -1.1849 -0.0061
  712SOL     OW 2134   1.170   2.010   2.734  0.5379  0.3846  0.5994
  712SOL    HW1 2135   1.164   2.020   2.632 -1.6715 -2.0710 -1.9552
  712SOL    HW2 2136   1.139   1.917   2.760  0.6582  0.9434 -1.7853
  713SOL     OW 2137   0.821   0.999   1.871 -0.2741 -0.2050  0.2439
  713SOL    HW1 2138   0.854   0.994   1.772 -1.2555 -0.4839 -3.5543
  713SOL    HW2 2139   0.806   0.906   1.905  3.0301  0.4475  0.4543
  714SOL     OW 2140   1.669   2.006   1.021  0.2974 -0.3098  0.3336
  714SOL    HW1 2141   1.676   2.085   0.963 -3.0626 -2.3074  0.2549
  714SOL    HW2 2142   1.575   1.971   1.016 -0.4250  2.1846 -2.0618
  715SOL     OW 2143   0.205   0.347   0.565 -0.4032 -0.7101 -0.3095
  715SOL    HW1 2144   0.229   0.259   0.612 -1.9670  0.9518 -0.9787
  715SOL    HW2 2145   0.205   0.345   0.463 -0.3172  1.3558 -0.6864
  716SOL     OW 2146   0.772   2.534   0.216  0.2092  0.3221 -0.5670
  716SOL    HW1 2147   0.785   2.634   0.211 -0.6561 -1.9091 -1.1432
  716SOL    HW2 2148   0.776   2.492   0.123  2.8413 -0.4336  1.8043
  717SOL     OW 2149   0.229   0.320   0.301  0.0788  0.5362  0.2148
  717SOL    HW1 2150   0.317   0.279   0.266  0.7163  2.3840  0.5059
  717SOL    HW2 2151   0.160   0.286   0.234  1.2109 -1.7057 -1.0719
  718SOL     OW 2152   1.581   2.389   1.115  0.6568 -0.2550 -0.0908
  718SOL    HW1 2153   1.489   2.412   1.165 -3.8862  0.4508  1.6109
  718SOL    HW2 2154   1.664   2.403   1.173  0.5340  1.6211  2.1427
  719SOL     OW 2155   2.959   2.372   0.657  0.1486 -0.0154 -0.2860
  719SOL    HW1 2156   2.940   2.268   0.665  1.5882 -0.0690 -0.3028
  719SOL    HW2 2157   2.894   2.409   0.585 -1.2824 -3.3863  0.4079
  720SOL     OW 2158   1.039   1.262   0.794 -1.1247  0.4542  0.2611
  720SOL    HW1 2159   0.998   1.352   0.801  0.7801  1.7176  0.9935
  720SOL    HW2 2160   1.034   1.221   0.887  1.0254 -1.6502  1.8740
  721SOL     OW 2161   0.911   0.521   0.815 -0.2955 -0.1105 -0.1642
  721SOL    HW1 2162   0.840   0.521   0.884  2.2545 -4.3909  1.4024
  721SOL    HW2 2163   0.991   0.462   0.848 -0.0789  3.0291  1.3102
  722SOL     OW 2164   1.154   1.290   1.418  0.5391  0.9556 -0.3826
  722SOL    HW1 2165   1.225   1.345   1.459 -0.3044 -1.9980 -0.3430
  722SOL    HW2 2166   1.205   1.214   1.367  0.6772 -1.7458 -0.4679
  723SOL     OW 2167   0.757   0.248   1.809 -0.7791  0.1424 -0.7283
  723SOL    HW1 2168   0.740   0.322   1.743  4.4596 -0.5093  2.6012
  723SOL    HW2 2169   0.726   0.161   1.776 -0.8734 -0.2046 -0.8815
  724SOL     OW 2170   1.964   2.009   1.814  0.0244  0.1172  0.1369
  724SOL    HW1 2171   2.022   1.936   1.765  2.1467 -1.1015 -1.1164
  724SOL    HW2 2172   1.880   2.028   1.758  0.7837  0.3271  0.8365
  725SOL     OW 2173   1.007   2.954   1.476  0.0680 -0.2856  0.1820
  725SOL    HW1 2174   1.063   2.870   1.494  0.5945  1.0904 -1.1039
  725SOL    HW2 2175   0.906   2.933   1.486 -0.0356 -2.8015 -1.5277
  726SOL     OW 2176   1.484   0.363   0.374  0.2257 -0.7006  0.1024
  726SOL    HW1 2177   1.561   0.320   0.422 -1.0374  0.3348 -0.8292
  726SOL    HW2 2178   1.498   0.362   0.274  0.2405 -1.4729  1.3146
  727SOL     OW 2179   1.292   2.258   1.063  0.1818 -0.2253 -0.0880
  727SOL    HW1 2180   1.337   2.303   1.139 -0.8935 -1.2285 -2.2894
  727SOL    HW2 2181   1.345   2.175   1.034 -2.5265 -1.2320 -0.2678
  728SOL     OW 2182   1.803   0.138   2.349  0.5456 -0.2553  0.1079
  728SOL    HW1 2183   1.854   0.169   2.265 -2.8628 -1.8463  2.8603
  728SOL    HW2 2184   1.711   0.106   2.331  2.5965  1.4136  1.5543
  729SOL     OW 2185   2.461   1.434   0.818  0.0239  0.1279  0.0713
  729SOL    HW1 2186   2.480   1.373   0.738  0.9909  0.8924 -1.5176
  729SOL    HW2 2187   2.461   1.536   0.797 -1.3880 -0.2281  1.2710
  730SOL     OW 2188   1.879   1.030   2.693 -0.1753  0.5728 -0.1987
  730SOL    HW1 2189   1.876   1.059   2.598 -1.8989  1.0986  0.0314
  730SOL    HW2 2190   1.812   0.955   2.715  1.1353  0.0792 -1.1367
  731SOL     OW 2191   0.316   0.046   1.651 -0.3248 -0.7277 -0.1718
  731SOL    HW1 2192   0.299   0.101   1.565 -1.6516  0.9056 -1.5134
  731SOL    HW2 2193   0.277   3.018   1.634 -0.3661  0.3445 -0.7954
  732SOL     OW 2194   1.780   0.498   1.592  0.2672  0.0960  0.2980
  732SOL    HW1 2195   1.707   0.435   1.551 -2.0553  0.4223 -0.9233
  732SOL    HW2 2196   1.761   0.590   1.547  0.0248  0.9016  0.5079
  733SOL     OW 2197   0.823   1.394   1.773  0.3386  0.1281 -0.5906
  733SOL    HW1 2198   0.860   1.353   1.683  0.8642 -1.8566  0.2143
  733SOL    HW2 2199   0.762   1.331   1.818  1.4005  2.2490 -2.8753
  734SOL     OW 2200   2.613   1.802   0.185 -0.4838 -0.7359  0.2391
  734SOL    HW1 2201   2.621   1.741   0.103 -0.5916 -2.1023  0.3259
  734SOL    HW2 2202   2.587   1.898   0.159 -1.1185  0.0605 -1.5207
  735SOL     OW 2203   0.580   0.685   0.383 -0.0466  0.0576 -0.0638
  735SOL    HW1 2204   0.480   0.657   0.366  0.3844 -1.1120  0.9390
  735SOL    HW2 2205   0.630   0.622   0.445  1.2718 -2.2465 -0.0273
  736SOL     OW 2206   1.797   2.572   0.108 -0.4260  0.0393  0.7360
  736SOL    HW1 2207   1.893   2.601   0.120 -1.1361 -1.3403  0.2092
  736SOL    HW2 2208   1.783   2.514   0.025 -0.6971  2.9123 -2.2670
  737SOL     OW 2209   1.048   2.226   1.149  0.6066  0.3101  0.0223
  737SOL    HW1 2210   1.048   2.161   1.227  0.2302  0.2518 -0.2807
  737SOL    HW2 2211   1.135   2.225   1.099 -1.2085  0.4694  2.1215
  738SOL     OW 2212   1.841   3.057   2.581  0.0393 -0.4852  0.2524
  738SOL    HW1 2213   1.837   0.074   2.519  1.2322  1.5492  0.3500
  738SOL    HW2 2214   1.850   2.973   2.518  0.0452 -3.0647 -2.5901
  739SOL     OW 2215   1.812   2.359   2.624 -0.3893  0.4429  0.1937
  739SOL    HW1 2216   1.859   2.289   2.566 -2.6715  2.7445 -1.7286
  739SOL    HW2 2217   1.754   2.410   2.564  2.0771  0.4519  1.6131
  740SOL     OW 2218   1.810   2.264   1.973  0.1851  0.6214 -0.0594
  740SOL    HW1 2219   1.717   2.231   1.995 -1.3282  1.3396 -3.6192
  740SOL    HW2 2220   1.888   2.218   2.025  0.9135 -0.6853 -2.6353
  741SOL     OW 2221   2.359   2.124   2.524 -0.3963 -0.5283  0.0162
  741SOL    HW1 2222   2.270   2.133   2.572  0.7130  2.7779  5.3462
  741SOL    HW2 2223   2.438   2.102   2.587 -1.5244 -2.0617 -0.5360
  742SOL     OW 2224   1.165   1.481   2.664  0.6161  0.0785 -0.1379
  742SOL    HW1 2225   1.258   1.436   2.694 -0.9830 -3.2722 -1.9820
  742SOL    HW2 2226   1.166   1.566   2.606 -1.4572  2.5469 -0.2718
  743SOL     OW 2227   1.424   1.366   2.767 -0.0915  0.0706 -0.2581
  743SOL    HW1 2228   1.387   1.309   2.840 -0.0561 -1.7737 -1.8812
  743SOL    HW2 2229   1.480   1.441   2.804  0.0362  2.0994 -2.2349
  744SOL     OW 2230   2.348   2.862   1.196  0.1740  0.0798 -0.0769
  744SOL    HW1 2231   2.303   2.798   1.261  1.7255  1.4750  0.5240
  744SOL    HW2 2232   2.292   2.899   1.121  0.8511 -1.3246 -2.2875
  745SOL     OW 2233   2.630   0.921   0.762  0.2610  0.0659  0.8363
  745SOL    HW1 2234   2.578   0.946   0.673 -2.0945  0.9052 -1.4890
  745SOL    HW2 2235   2.692   0.992   0.800 -0.0169 -0.2835 -1.2447
  746SOL     OW 2236   2.663   1.959   1.180  0.1412 -0.5993  0.0663
  746SOL    HW1 2237   2.609   1.913   1.107  0.8890  2.3483 -0.9530
  746SOL    HW2 2238   2.660   2.060   1.169  1.5334 -1.1322 -0.5905
  747SOL     OW 2239   1.572   0.101   0.032  0.2864  0.0419 -0.3206
  747SOL    HW1 2240   1.652   0.046   0.006  1.2864  1.1211  1.8037
  747SOL    HW2 2241   1.510   0.103   3.017 -0.1717 -3.4085  1.0186
  748SOL     OW 2242   0.817   1.305   0.150 -0.3184 -0.5552 -0.0185
  748SOL    HW1 2243   0.834   1.406   0.141  0.0972 -1.8228  0.2791
  748SOL    HW2 2244   0.792   1.245   0.071  0.9065 -3.4844  3.1698
  749SOL     OW 2245   2.817   0.717   2.281 -0.3632 -0.0758  0.4982
  749SOL    HW1 2246   2.742   0.673   2.336  1.3723 -2.6253  1.2503
  749SOL    HW2 2247   2.879   0.767   2.347 -0.3418  0.5006 -0.0306
  750SOL     OW 2248   0.775   0.739   1.918 -0.3572  0.6530 -0.4567
  750SOL    HW1 2249   0.807   0.644   1.930 -2.3672 -0.2945  1.7220
  750SOL    HW2 2250   0.681   0.743   1.877  0.9839  0.2947 -0.9265
  751SOL     OW 2251   2.370   2.549   1.889  0.5703  0.0712 -0.2996
  751SOL    HW1 2252   2.292   2.495   1.847  2.3532 -0.6734 -0.6492
  751SOL    HW2 2253   2.341   2.596   1.968  0.8904  1.0511 -2.5242
  752SOL     OW 2254   2.067   1.447   0.975  0.2109 -0.0207  0.0225
  752SOL    HW1 2255   2.166   1.426   0.980  0.1487 -0.9518 -0.9337
  752SOL    HW2 2256   2.067   1.546   0.945  0.4922 -0.3199  2.8285
  753SOL     OW 2257   0.959   1.031   2.109 -0.0803  0.8521 -0.3756
  753SOL    HW1 2258   0.899   1.029   2.029 -1.0691 -2.0494  1.4536
  753SOL    HW2 2259   1.048   0.985   2.088 -0.9791 -2.9802 -1.5553
  754SOL     OW 2260   0.723   2.475   0.523  0.3754  0.2891  0.1567
  754SOL    HW1 2261   0.753   2.454   0.427 -0.9974 -2.0789  1.4912
  754SOL    HW2 2262   0.808   2.506   0.570 -0.7443 -0.0262 -0.2255
  755SOL     OW 2263   2.575   2.926   0.745 -0.5381  0.4209  0.2747
  755SOL    HW1 2264   2.528   2.998   0.694 -0.8629 -1.5404 -1.0631
  755SOL    HW2 2265   2.636   2.964   0.821  1.7791 -0.6283  0.4333
  756SOL     OW 2266   2.302   1.892   2.388  0.1379 -0.6861  0.5215
  756SOL    HW1 2267   2.323   1.984   2.428  0.7062  0.4435 -0.7298
  756SOL    HW2 2268   2.293   1.904   2.285  0.9234  2.0512 -0.1394
  757SOL     OW 2269   2.885   2.948   1.851 -0.1198  0.3216  0.3867
  757SOL    HW1 2270   2.932   2.943   1.761 -1.2197  0.5685 -0.0699
  757SOL    HW2 2271   2.798   3.004   1.839  0.1686  0.6594 -0.3330
  758SOL     OW 2272   0.471   2.562   0.569 -0.1544 -0.5431  0.2622
  758SOL    HW1 2273   0.410   2.510   0.503  0.5091 -0.1239  0.1899
  758SOL    HW2 2274   0.564   2.530   0.556 -2.8324  1.0554 -0.6500
  759SOL     OW 2275   1.962   1.074   1.253 -0.8145 -0.1220  0.0200
  759SOL    HW1 2276   1.943   1.149   1.191 -0.8832 -1.6294  1.7369
  759SOL    HW2 2277   2.061   1.077   1.292  1.2721 -0.7515  1.2115
  760SOL     OW 2278   1.368   0.714   1.583  0.4839 -0.1950  0.2438
  760SOL    HW1 2279   1.381   0.647   1.657 -2.3349  0.0781 -2.0011
  760SOL    HW2 2280   1.408   0.807   1.600  1.9538  1.2340 -1.1981
  761SOL     OW 2281   2.171   0.235   1.110 -0.1648  0.3637 -0.2493
  761SOL    HW1 2282   2.211   0.319   1.155  1.4050  1.4155  1.6818
  761SOL    HW2 2283   2.213   0.218   1.020  2.0142 -4.2615  1.7359
  762SOL     OW 2284   1.677   0.210   0.489  0.0088  0.0149 -0.2962
  762SOL    HW1 2285   1.749   0.147   0.449 -1.3121 -0.8124 -0.5791
  762SOL    HW2 2286   1.718   0.266   0.568 -2.1273 -0.1000  0.3096
  763SOL     OW 2287   0.825   0.471   1.643  0.2233 -0.5142  0.4519
  763SOL    HW1 2288   0.794   0.540   1.574 -0.4396 -1.5385 -2.2732
  763SOL    HW2 2289   0.908   0.507   1.691 -0.1160 -1.0870 -0.3501
  764SOL     OW 2290   2.096   2.294   2.246 -0.7858  0.0386  0.2882
  764SOL    HW1 2291   2.114   2.250   2.157  2.7589 -1.3412  3.4765
  764SOL    HW2 2292   2.073   2.390   2.234 -0.4646 -0.1832  2.8023
  765SOL     OW 2293   2.922   1.086   2.591 -0.0288  0.0774  0.2378
  765SOL    HW1 2294   2.822   1.092   2.569 -0.3673  0.6385  2.8303
  765SOL    HW2 2295   2.928   1.084   2.696  0.4165 -2.2357  2.5189
  766SOL     OW 2296   3.056   0.618   2.805  0.0941  0.7820  0.2228
  766SOL    HW1 2297   3.026   0.559   2.879  0.2105  2.7135  0.1658
  766SOL    HW2 2298   3.019   0.579   2.719  2.4861 -0.4854  0.1405
  767SOL     OW 2299   0.393   2.246   1.804 -0.0506  0.2695 -0.5430
  767SOL    HW1 2300   0.440   2.159   1.836 -0.7353 -0.7697  0.5113
  767SOL    HW2 2301   0.291   2.240   1.810 -3.0437  0.5098  0.2748
  768SOL     OW 2302   0.963   0.986   0.076 -0.2612 -0.2738  0.1453
  768SOL    HW1 2303   1.003   0.888   0.090 -0.8913 -2.0042  1.7108
  768SOL    HW2 2304   0.990   1.017   3.046  0.3376  2.5568  2.4645
  769SOL     OW 2305   1.259   2.248   0.330  0.0362  0.1032 -0.1642
  769SOL    HW1 2306   1.193   2.323   0.310 -1.9335 -0.0339  1.9740
  769SOL    HW2 2307   1.339   2.280   0.386  1.2553  2.4370 -0.5145
  770SOL     OW 2308   1.258   0.165   1.987  0.3786 -0.1099  0.0846
  770SOL    HW1 2309   1.210   0.152   1.898  1.8969  0.7733 -0.5830
  770SOL    HW2 2310   1.200   0.156   2.070  1.6226  1.7761  2.2431
  771SOL     OW 2311   0.853   2.679   0.886 -0.1457  1.1012 -0.7896
  771SOL    HW1 2312   0.853   2.779   0.880 -0.2029  1.5201 -0.0446
  771SOL    HW2 2313   0.783   2.659   0.959  2.6048  0.8480 -1.3772
  772SOL     OW 2314   2.526   0.786   0.230  0.7315 -0.0575  0.3026
  772SOL    HW1 2315   2.620   0.758   0.209  1.2810 -1.0298  0.9575
  772SOL    HW2 2316   2.502   0.743   0.315 -0.3899  0.2682  0.6736
  773SOL     OW 2317   2.203   0.680   1.774 -0.0788  0.3787 -0.7276
  773SOL    HW1 2318   2.265   0.661   1.696  0.6369  0.7958 -0.3406
  773SOL    HW2 2319   2.110   0.712   1.746  0.5525  0.8235  1.6912
  774SOL     OW 2320   0.366   0.764   0.657  0.1538  0.0726  0.0492
  774SOL    HW1 2321   0.300   0.792   0.584 -1.0217 -0.6250  0.2172
  774SOL    HW2 2322   0.397   0.839   0.722 -2.1120  0.8137  1.9086
  775SOL     OW 2323   1.871   0.137   0.912  0.1742 -0.3963 -0.1043
  775SOL    HW1 2324   1.959   0.143   0.960 -1.6080 -0.0367  0.8963
  775SOL    HW2 2325   1.864   0.196   0.834  0.3824 -2.1565  3.4476
  776SOL     OW 2326   1.981   3.016   2.031 -0.2680  0.1738  0.3134
  776SOL    HW1 2327   1.996   2.963   2.118  0.4268 -0.6614 -0.8769
  776SOL    HW2 2328   1.983   0.053   2.050 -0.2021  1.2131 -2.9044
  777SOL     OW 2329   1.339   1.501   0.330  0.1079 -0.3520  0.3087
  777SOL    HW1 2330   1.351   1.599   0.351  0.6887 -0.0991 -0.0074
  777SOL    HW2 2331   1.425   1.465   0.291 -1.8874  0.1482  1.2156
  778SOL     OW 2332   0.502   2.315   3.043  0.4646  0.2718 -0.2322
  778SOL    HW1 2333   0.553   2.300   0.067  0.7826  1.7482  1.1860
  778SOL    HW2 2334   0.487   2.419   3.031 -0.1259  1.3066  2.9596
  779SOL     OW 2335   0.067   1.561   0.169  0.7754 -0.2156 -0.3445
  779SOL    HW1 2336   0.169   1.559   0.146  0.0285 -1.0338 -1.6853
  779SOL    HW2 2337   0.035   1.489   0.234 -0.2952  0.6107  2.0827
  780SOL     OW 2338   1.550   0.317   2.215 -0.3097 -0.4022 -0.1347
  780SOL    HW1 2339   1.612   0.240   2.184  5.0576 -1.3437 -0.1330
  780SOL    HW2 2340   1.604   0.407   2.227  1.1734  0.3794  1.7632
  781SOL     OW 2341   1.859   1.790   1.072 -0.3240 -0.7574 -0.2244
  781SOL    HW1 2342   1.817   1.881   1.053 -0.9553 -1.5473  1.2925
  781SOL    HW2 2343   1.931   1.764   1.007  0.4855 -1.1380 -1.2159
  782SOL     OW 2344   1.911   2.542   2.004 -0.2941  0.3712  0.1415
  782SOL    HW1 2345   1.861   2.454   1.990 -2.4450  2.5381 -1.5221
  782SOL    HW2 2346   2.012   2.531   1.987  1.0851 -1.2195 -0.2613
  783SOL     OW 2347   1.390   0.488   1.751 -0.1462  0.3550  0.0993
  783SOL    HW1 2348   1.476   0.495   1.798 -2.7393 -4.4258 -0.5727
  783SOL    HW2 2349   1.373   0.402   1.699 -1.4543  1.2855 -0.5015
  784SOL     OW 2350   1.495   0.844   1.890  0.2147  0.0784  0.6687
  784SOL    HW1 2351   1.492   0.897   1.805 -1.6937  1.0069  3.4199
  784SOL    HW2 2352   1.427   0.876   1.960 -0.6412 -0.6544  0.3312
  785SOL     OW 2353   1.790   0.797   0.642  0.2793 -0.2727  0.3114
  785SOL    HW1 2354   1.846   0.850   0.580  0.3783 -0.9433  1.3158
  785SOL    HW2 2355   1.742   0.850   0.710  0.4247 -0.8223 -0.4593
  786SOL     OW 2356   3.018   1.327   0.589  0.0287  0.4214 -0.8711
  786SOL    HW1 2357   2.932   1.276   0.599 -1.9916 -0.9406 -0.4939
  786SOL    HW2 2358   3.004   1.425   0.574  2.0381  0.1991  0.4160
  787SOL     OW 2359   1.430   1.863   0.129  0.2442  0.0549  0.2095
  787SOL    HW1 2360   1.425   1.772   0.091  0.2817 -0.0280  1.3790
  787SOL    HW2 2361   1.372   1.925   0.076  0.2212  0.7204 -2.1376
  788SOL     OW 2362   2.208   1.022   1.348  0.1277  0.2221 -0.8855
  788SOL    HW1 2363   2.261   1.096   1.397 -1.6263 -0.9694  0.1595
  788SOL    HW2 2364   2.274   0.947   1.327 -0.2044  3.2879  1.7920
  789SOL     OW 2365   2.981   1.588   2.267  0.9755 -0.1404  0.1429
  789SOL    HW1 2366   2.916   1.636   2.330  0.7299  2.8368  1.5772
  789SOL    HW2 2367   3.055   1.536   2.317  2.3663 -2.7998 -0.3133
  790SOL     OW 2368   0.924   2.900   2.514 -0.7642  0.1744  0.1229
  790SOL    HW1 2369   0.849   2.902   2.582  1.5774 -0.1781  0.9115
  790SOL    HW2 2370   0.981   2.812   2.523  1.3230  1.2497 -2.4346
  791SOL     OW 2371   0.160   2.338   2.705  0.5075  0.1155  0.6524
  791SOL    HW1 2372   0.209   2.311   2.786 -1.7023 -4.3745 -1.6444
  791SOL    HW2 2373   0.075   2.275   2.697 -2.5578 -2.2955  0.9599
  792SOL     OW 2374   1.336   0.469   2.055 -0.2923 -0.0553  0.2511
  792SOL    HW1 2375   1.396   0.402   2.107 -0.7075 -3.1617  2.3886
  792SOL    HW2 2376   1.324   0.437   1.957 -2.6320  1.0775  0.3512
  793SOL     OW 2377   2.475   0.109   2.389  0.7848 -0.0921 -0.7827
  793SOL    HW1 2378   2.530   0.033   2.422 -1.3042  2.2711 -1.5287
  793SOL    HW2 2379   2.530   0.172   2.337 -1.8471 -0.3918  0.6239
  794SOL     OW 2380   0.222   0.297   2.085  0.0714 -0.1452  0.1285
  794SOL    HW1 2381   0.270   0.291   2.174 -0.6338  0.5107 -1.6356
  794SOL    HW2 2382   0.234   0.207   2.027  0.7233 -2.5709  0.1732
  795SOL     OW 2383   2.668   1.369   0.349  0.4430 -0.1510  0.1471
  795SOL    HW1 2384   2.681   1.295   0.278 -2.0918 -1.0850  0.1665
  795SOL    HW2 2385   2.722   1.453   0.322  1.0920 -2.7247  2.1775
  796SOL     OW 2386   2.566   2.088   2.677 -0.2080  0.4778  0.0067
  796SOL    HW1 2387   2.642   2.120   2.621  2.2373  0.6426  1.1514
  796SOL    HW2 2388   2.547   2.155   2.752 -3.2535  0.7116 -0.8662
  797SOL     OW 2389   2.921   1.924   0.052  0.3307 -0.1257 -0.3637
  797SOL    HW1 2390   2.844   1.880   0.000  0.0790 -1.5240  0.1550
  797SOL    HW2 2391   2.897   1.930   0.151 -0.5934 -2.0661 -0.3604
  798SOL     OW 2392   0.523   0.787   1.779  0.4122 -0.1210  0.0496
  798SOL    HW1 2393   0.500   0.687   1.779  0.4155 -0.4024 -3.5140
  798SOL    HW2 2394   0.466   0.841   1.848  0.9825  0.6413  0.0276
  799SOL     OW 2395   2.649   1.110   2.534  0.4388  0.6872 -0.7932
  799SOL    HW1 2396   2.588   1.028   2.546  0.9763 -1.1913  0.1029
  799SOL    HW2 2397   2.680   1.120   2.440  0.4905 -0.4409 -0.5786
  800SOL     OW 2398   2.876   2.118   0.643 -0.0066 -0.6574  0.4819
  800SOL    HW1 2399   2.926   2.096   0.556  1.8874  0.4279 -0.9169
  800SOL    HW2 2400   2.853   2.034   0.698 -2.2381  1.0493  1.0910
  801SOL     OW 2401   1.195   0.864   0.819  0.4411  0.0158  0.1764
  801SOL    HW1 2402   1.099   0.828   0.832 -0.5536 -0.4943  0.4188
  801SOL    HW2 2403   1.216   0.890   0.723  1.0703  1.5371 -0.8879
  802SOL     OW 2404   2.038   2.067   0.876  0.1502 -0.1996  0.0661
  802SOL    HW1 2405   2.051   1.984   0.931  1.3986  1.6273  2.0785
  802SOL    HW2 2406   1.973   2.050   0.796 -0.4223  0.6757  0.4135
  803SOL     OW 2407   0.041   1.572   0.565 -0.0963  0.0467 -0.5348
  803SOL    HW1 2408   0.145   1.564   0.592  0.6999 -1.3055 -1.8450
  803SOL    HW2 2409   0.021   1.668   0.575 -0.2552 -5.9402  0.2549
  804SOL     OW 2410   1.402   2.386   0.541  0.3724 -0.1272 -0.0942
  804SOL    HW1 2411   1.326   2.436   0.590  0.6948 -1.1313  0.7224
  804SOL    HW2 2412   1.451   2.451   0.481  1.2334  0.1148  1.4132
  805SOL     OW 2413   1.556   2.118   2.453  0.0013 -0.2799 -0.0192
  805SOL    HW1 2414   1.575   2.093   2.553 -1.3114  0.5396  2.0554
  805SOL    HW2 2415   1.645   2.102   2.399 -0.8279  0.6579  0.7038
  806SOL     OW 2416   1.795   3.026   1.340  0.1731  0.2992  0.0393
  806SOL    HW1 2417   1.822   2.990   1.427 -1.6003  1.3892 -0.1408
  806SOL    HW2 2418   1.853   0.048   1.317  2.4066  0.1257 -2.1934
  807SOL     OW 2419   1.891   0.027   0.402  0.0779 -0.2350  0.8381
  807SOL    HW1 2420   1.955   3.041   0.467  0.6457  3.4547 -0.9457
  807SOL    HW2 2421   1.835   3.022   0.344 -0.4780  0.0380  0.7485
  808SOL     OW 2422   0.457   1.586   2.670 -0.1032  0.1131  0.5200
  808SOL    HW1 2423   0.392   1.511   2.672 -3.3094  1.0885  2.9484
  808SOL    HW2 2424   0.492   1.606   2.575  1.3141  1.3493 -4.1745
  809SOL     OW 2425   2.978   1.114   2.875 -1.0364  0.4551 -0.0065
  809SOL    HW1 2426   0.009   1.133   2.920  0.1893  2.1816  0.6773
  809SOL    HW2 2427   2.960   1.016   2.887  2.0929  4.0909 -0.1794
  810SOL     OW 2428   2.619   0.625   2.815  0.2258 -0.0017 -0.1636
  810SOL    HW1 2429   2.525   0.663   2.812 -3.8376 -0.5497  1.2399
  810SOL    HW2 2430   2.639   0.571   2.732  1.8255  2.5371 -1.5930
  811SOL     OW 2431   2.107   2.390   1.883 -0.3559 -0.0775  0.0533
  811SOL    HW1 2432   2.041   2.388   1.806 -2.8573 -0.5994  0.7821
  811SOL    HW2 2433   2.113   2.295   1.927  3.1158 -0.3416 -1.2583
  812SOL     OW 2434   1.145   0.285   0.556 -0.6045 -0.1460  0.1143
  812SOL    HW1 2435   1.099   0.209   0.606  2.1462 -0.3149  0.4170
  812SOL    HW2 2436   1.173   0.250   0.462 -2.6097 -1.2396 -1.7695
  813SOL     OW 2437   1.919   0.587   1.846  0.5736 -0.1243  0.0217
  813SOL    HW1 2438   1.854   0.571   1.765 -4.0062  0.2629 -0.1525
  813SOL    HW2 2439   2.005   0.533   1.840 -0.3482 -0.8973  0.1205
  814SOL     OW 2440   1.900   0.811   1.190 -0.4085  0.8683 -0.2456
  814SOL    HW1 2441   1.984   0.751   1.172  1.0742 -3.2599 -0.1128
  814SOL    HW2 2442   1.915   0.909   1.172 -1.7131  2.3913 -1.4259
  815SOL     OW 2443   0.545   0.949   0.444 -0.4387  0.1308  0.5886
  815SOL    HW1 2444   0.553   0.990   0.538 -1.8726  0.0439  1.8799
  815SOL    HW2 2445   0.568   0.850   0.444 -1.1263 -0.1356 -0.5990
  816SOL     OW 2446   2.383   2.297   0.341  0.2988  0.4395 -0.3610
  816SOL    HW1 2447   2.358   2.263   0.436 -0.4981 -1.1406  1.2370
  816SOL    HW2 2448   2.302   2.337   0.293  1.2024 -0.0761 -0.1318
  817SOL     OW 2449   2.738   2.465   0.874 -0.8064  0.2076  0.6666
  817SOL    HW1 2450   2.767   2.417   0.788  1.0258  0.2319  1.2332
  817SOL    HW2 2451   2.795   2.434   0.956  0.7956 -0.6165 -0.9152
  818SOL     OW 2452   1.648   0.771   0.130 -0.9750  0.0652  0.2779
  818SOL    HW1 2453   1.695   0.840   0.077 -0.3357 -1.6100  3.1675
  818SOL    HW2 2454   1.693   0.749   0.219 -0.1193  0.4076 -0.3312
  819SOL     OW 2455   0.535   0.502   0.713 -0.0683 -0.2791 -0.1919
  819SOL    HW1 2456   0.448   0.550   0.685 -0.1139  0.9710 -3.4721
  819SOL    HW2 2457   0.613   0.516   0.645 -1.4216  0.8768 -3.0496
  820SOL     OW 2458   2.060   0.518   1.471 -0.1197 -0.5322  0.4672
  820SOL    HW1 2459   2.092   0.611   1.449  0.4278 -0.0963  0.2654
  820SOL    HW2 2460   1.975   0.522   1.530  0.7514  0.6026 -2.1117
  821SOL     OW 2461   2.907   0.080   0.890  1.1216 -0.1075 -0.0341
  821SOL    HW1 2462   2.953   0.110   0.804  1.4774 -2.9021 -0.8745
  821SOL    HW2 2463   2.913   0.153   0.963  0.5736  1.3638 -0.9804
  822SOL     OW 2464   0.680   2.233   2.207 -0.8816 -0.5977  0.3036
  822SOL    HW1 2465   0.723   2.315   2.245 -1.1905 -2.3397 -1.8290
  822SOL    HW2 2466   0.578   2.229   2.204  1.9892  0.1922  0.5079
  823SOL     OW 2467   2.837   1.185   1.610 -0.2911 -0.4258 -0.2324
  823SOL    HW1 2468   2.872   1.090   1.609 -1.2231 -1.3857 -2.1846
  823SOL    HW2 2469   2.867   1.228   1.700  0.7112  1.2425  0.8796
  824SOL     OW 2470   0.523   2.479   2.454 -0.2483  0.0896  0.1780
  824SOL    HW1 2471   0.535   2.464   2.554  1.0309 -1.8642 -0.2261
  824SOL    HW2 2472   0.610   2.474   2.406 -0.9739  0.2066  1.3549
  825SOL     OW 2473   1.566   1.571   2.841 -0.4056 -0.0782 -0.1222
  825SOL    HW1 2474   1.544   1.632   2.763 -0.0103 -0.6522  6.0600
  825SOL    HW2 2475   1.654   1.607   2.880  0.6162  0.0082  2.6615
  826SOL     OW 2476   0.961   2.115   3.032  0.0526 -0.2584 -0.5884
  826SOL    HW1 2477   0.977   2.140   0.066 -0.0591 -2.4336  1.3898
  826SOL    HW2 2478   0.918   2.026   3.016  0.0033  1.7109 -0.1612
  827SOL     OW 2479   0.215   1.412   1.759 -0.2377 -0.0980 -0.1410
  827SOL    HW1 2480   0.175   1.491   1.709 -0.7324 -1.7451  0.3073
  827SOL    HW2 2481   0.156   1.330   1.746 -0.2795 -0.6768 -1.5870
  828SOL     OW 2482   0.257   1.698   1.397 -0.4679 -0.0516 -0.1091
  828SOL    HW1 2483   0.235   1.754   1.313 -0.8943 -0.5786  0.5746
  828SOL    HW2 2484   0.343   1.648   1.380 -0.8930  1.9952  0.9592
  829SOL     OW 2485   2.979   2.348   2.968 -0.6046  0.5331 -0.3092
  829SOL    HW1 2486   3.052   2.291   3.022 -0.8563 -2.9889  2.2642
  829SOL    HW2 2487   2.908   2.281   2.936 -0.3403 -0.3739 -1.5219
  830SOL     OW 2488   1.177   0.694   0.412 -0.3311  0.0149 -0.2571
  830SOL    HW1 2489   1.114   0.631   0.465 -2.3156  0.8070  1.7507
  830SOL    HW2 2490   1.130   0.700   0.322  2.9622  0.6280  1.2928
  831SOL     OW 2491   2.804   2.204   2.822  0.2614 -0.0517 -0.2999
  831SOL    HW1 2492   2.784   2.104   2.839 -1.9292  1.0551  3.0869
  831SOL    HW2 2493   2.718   2.262   2.813 -0.6696  3.2786 -2.5138
  832SOL     OW 2494   1.735   2.555   0.497  0.1193  0.1764  0.2452
  832SOL    HW1 2495   1.709   2.540   0.399  0.0531 -0.2153  0.6748
  832SOL    HW2 2496   1.723   2.469   0.548  0.0057  3.4235 -1.7943
  833SOL     OW 2497   0.321   1.247   2.296  0.3324  0.1202  0.1404
  833SOL    HW1 2498   0.244   1.295   2.345  0.6681 -2.0324 -1.2280
  833SOL    HW2 2499   0.379   1.207   2.376  1.2038 -3.5886  3.2696
  834SOL     OW 2500   2.284   0.443   0.547  0.4611  0.0731  0.4414
  834SOL    HW1 2501   2.196   0.435   0.599  0.2062 -3.0536  1.9072
  834SOL    HW2 2502   2.268   0.443   0.450 -0.5502  1.3335  0.3085
  835SOL     OW 2503   2.279   0.629   2.024 -0.0656 -0.4655  0.1623
  835SOL    HW1 2504   2.267   0.650   1.926 -0.6649  3.4409  1.6666
  835SOL    HW2 2505   2.195   0.660   2.071 -1.5630  1.8265  0.5972
  836SOL     OW 2506   0.892   1.904   0.854  0.7399 -0.4401  0.0640
  836SOL    HW1 2507   0.827   1.895   0.776 -0.6211  0.3510  0.7426
  836SOL    HW2 2508   0.894   2.007   0.890  1.4045  4.4783  1.1513
  837SOL     OW 2509   2.372   1.121   1.833  0.1781  0.1144 -0.2170
  837SOL    HW1 2510   2.325   1.212   1.846 -1.8380  3.7790  2.1745
  837SOL    HW2 2511   2.314   1.038   1.857 -0.2031 -2.4400 -2.1039
  838SOL     OW 2512   0.125   1.152   2.507 -0.3244 -0.3233 -0.1397
  838SOL    HW1 2513   0.120   1.096   2.426 -0.1300  3.9288  4.6762
  838SOL    HW2 2514   0.029   1.177   2.541 -0.4912  1.3934  0.3334
  839SOL     OW 2515   2.962   0.196   0.030  0.9550  0.4614 -0.0738
  839SOL    HW1 2516   2.988   0.118   3.031  3.9158 -2.5648 -1.1260
  839SOL    HW2 2517   2.862   0.185   0.057 -1.2598  0.1496 -0.9573
  840SOL     OW 2518   2.883   1.382   2.823  0.7141  0.5448  0.3065
  840SOL    HW1 2519   2.907   1.284   2.820 -1.2000  1.7017  3.9174
  840SOL    HW2 2520   2.869   1.406   2.919 -0.5903 -0.9751 -2.7813
  841SOL     OW 2521   0.487   2.084   2.459 -0.1717  0.2976 -0.1367
  841SOL    HW1 2522   0.460   2.182   2.462 -0.3144  1.8915  1.4885
  841SOL    HW2 2523   0.576   2.061   2.504  2.9831  0.3381  2.6256
  842SOL     OW 2524   0.560   0.085   1.137  0.2327 -0.4001 -0.6162
  842SOL    HW1 2525   0.640   0.116   1.199  1.4352  2.1388 -0.5046
  842SOL    HW2 2526   0.595   0.072   1.042  0.8515 -1.3030  0.0244
  843SOL     OW 2527   2.935   1.327   1.839  0.5272 -0.9295 -0.9241
  843SOL    HW1 2528   2.961   1.430   1.834  0.1331  4.7752  2.1553
  843SOL    HW2 2529   2.851   1.323   1.898  0.3241 -2.4328 -1.1237
  844SOL     OW 2530   1.977   2.198   2.460  0.4229  0.0301  0.5460
  844SOL    HW1 2531   2.049   2.164   2.522 -0.7669  1.2667  1.5637
  844SOL    HW2 2532   2.020   2.234   2.373 -2.5606  0.2209  1.0171
  845SOL     OW 2533   1.577   3.035   2.318 -0.0748  0.9251  0.0244
  845SOL    HW1 2534   1.490   3.029   2.369  0.9965  3.5227 -0.8393
  845SOL    HW2 2535   1.635   2.952   2.332 -0.1489  0.9840  1.2990
  846SOL     OW 2536   2.369   1.567   0.104 -0.2868 -0.5761  0.4331
  846SOL    HW1 2537   2.311   1.641   0.054 -2.1919  3.0852 -0.5361
  846SOL    HW2 2538   2.451   1.545   0.046  2.3259 -0.6752 -0.0232
  847SOL     OW 2539   2.204   0.161   2.755  0.2143 -0.0738  0.0029
  847SOL    HW1 2540   2.116   0.113   2.783 -0.4895  2.0814  1.5046
  847SOL    HW2 2541   2.245   0.203   2.838  0.3351  0.2829 -0.4174
  848SOL     OW 2542   1.946   0.501   0.416  0.1966 -0.6229  0.1252
  848SOL    HW1 2543   2.024   0.548   0.367  5.1723  2.7620  2.4697
  848SOL    HW2 2544   1.859   0.553   0.416 -1.6345 -0.9126 -0.2896
  849SOL     OW 2545   0.987   0.196   2.824 -0.9132 -0.4534 -0.3605
  849SOL    HW1 2546   0.986   0.141   2.739 -1.1272 -2.3873  0.9921
  849SOL    HW2 2547   0.898   0.191   2.872 -0.3054  1.0447 -0.6112
  850SOL     OW 2548   0.081   0.605   0.151  0.0705  0.3632  0.2001
  850SOL    HW1 2549   0.173   0.601   0.186 -1.2822  0.5086 -1.5196
  850SOL    HW2 2550   0.048   0.705   0.157 -1.3774  2.8216 -1.4555
  851SOL     OW 2551   0.295   1.228   1.414  0.1387 -0.0419  0.1073
  851SOL    HW1 2552   0.233   1.290   1.463  5.1127 -0.3696 -0.0464
  851SOL    HW2 2553   0.374   1.197   1.471 -3.0935 -1.5346  1.1061
  852SOL     OW 2554   1.200   0.938   2.010  0.0791  0.1375 -0.2023
  852SOL    HW1 2555   1.159   0.902   1.923 -1.2450 -0.2709  3.0217
  852SOL    HW2 2556   1.244   0.862   2.066  0.7375 -2.5791  0.0872
  853SOL     OW 2557   2.002   1.265   2.789  0.0853  0.0901 -0.2026
  853SOL    HW1 2558   1.992   1.257   2.889  1.1157 -0.7082 -2.2168
  853SOL    HW2 2559   1.963   1.188   2.739  0.5829 -0.6655 -1.0666
  854SOL     OW 2560   1.215   1.413   1.735  0.1325 -0.0416 -0.0500
  854SOL    HW1 2561   1.312   1.435   1.759 -2.3503 -1.7493 -2.4228
  854SOL    HW2 2562   1.170   1.479   1.665 -0.6197  0.6301  0.0975
  855SOL     OW 2563   0.177   2.061   1.793 -0.2126 -0.4229 -0.1495
  855SOL    HW1 2564   0.091   2.109   1.775  1.4758 -1.5646  0.2468
  855SOL    HW2 2565   0.207   2.003   1.709 -0.8377 -2.9274  0.6780
  856SOL     OW 2566   1.114   1.163   2.492  0.0661 -0.6935  0.2396
  856SOL    HW1 2567   1.182   1.112   2.432  0.5906  2.0447 -0.9369
  856SOL    HW2 2568   1.085   1.252   2.455  0.3198  0.1484  1.0225
  857SOL     OW 2569   1.078   0.934   2.659 -0.2365  0.4234 -0.6976
  857SOL    HW1 2570   1.081   1.021   2.606  2.7548  0.7461 -1.5528
  857SOL    HW2 2571   0.998   0.875   2.626 -3.3335 -1.1307 -0.8687
  858SOL     OW 2572   0.312   0.085   1.919 -0.3364 -0.1570  0.3884
  858SOL    HW1 2573   0.281   0.082   1.820 -2.4718  2.1042  1.9793
  858SOL    HW2 2574   0.296   3.061   1.967  1.2386  2.6476  2.3677
  859SOL     OW 2575   2.543   0.241   0.808 -0.1361 -0.3169 -0.4667
  859SOL    HW1 2576   2.601   0.320   0.832  0.1115 -2.4010  1.4761
  859SOL    HW2 2577   2.498   0.214   0.899  1.8151  0.4286  3.3744
  860SOL     OW 2578   0.675   0.900   1.552 -0.2998 -0.1741  0.1997
  860SOL    HW1 2579   0.623   0.864   1.633 -0.0668 -0.9814  0.4709
  860SOL    HW2 2580   0.773   0.927   1.569 -3.1280  0.2238 -0.5316
  861SOL     OW 2581   1.543   0.894   1.301  0.2239 -0.1084  0.2513
  861SOL    HW1 2582   1.531   0.794   1.327 -0.8913 -2.0567 -2.3359
  861SOL    HW2 2583   1.592   0.949   1.370 -2.2099 -0.8014  4.8293
  862SOL     OW 2584   0.667   2.743   2.235  0.0033  0.2209  0.0875
  862SOL    HW1 2585   0.682   2.765   2.336 -0.0066 -1.3932  1.0359
  862SOL    HW2 2586   0.589   2.797   2.200 -1.4799 -0.2744  2.6641
  863SOL     OW 2587   2.791   0.145   1.358 -0.2935 -0.1263 -0.1859
  863SOL    HW1 2588   2.768   0.192   1.446 -1.6149 -0.0588  0.0875
  863SOL    HW2 2589   2.873   0.085   1.371  2.0543  0.0013 -0.6174
  864SOL     OW 2590   2.607   2.953   2.499  0.5376  0.4030  0.5046
  864SOL    HW1 2591   2.542   2.939   2.574  2.2886  0.2095 -4.1510
  864SOL    HW2 2592   2.587   2.877   2.429  0.8742 -0.4483 -0.2091
  865SOL     OW 2593   1.385   1.178   2.201  0.1493  0.0604  0.7794
  865SOL    HW1 2594   1.363   1.085   2.239 -1.0520 -1.2260  1.1586
  865SOL    HW2 2595   1.302   1.235   2.178  0.5093  0.0951 -0.3105
  866SOL     OW 2596   2.378   2.729   0.727  0.6052  0.3951  0.6981
  866SOL    HW1 2597   2.404   2.664   0.797 -3.6638  1.9825 -2.7902
  866SOL    HW2 2598   2.440   2.811   0.723  0.0626 -0.9673 -0.7100
  867SOL     OW 2599   2.482   2.536   0.957  0.2787 -0.5229 -0.1828
  867SOL    HW1 2600   2.491   2.610   1.024 -0.8082 -0.1836  1.1015
  867SOL    HW2 2601   2.575   2.505   0.927  0.8209 -0.4433 -1.5901
  868SOL     OW 2602   3.052   1.254   1.441 -0.4479  0.3811 -0.0866
  868SOL    HW1 2603   2.978   1.220   1.507 -1.3028  0.3079  0.8875
  868SOL    HW2 2604   3.048   1.205   1.347 -3.1254 -2.2760 -2.2841
  869SOL     OW 2605   2.103   1.449   2.021  0.0400  0.5225  0.1606
  869SOL    HW1 2606   2.060   1.540   2.038  0.4777 -2.9917 -0.7647
  869SOL    HW2 2607   2.024   1.388   2.022  2.6570  1.4352  2.2067
  870SOL     OW 2608   1.484   1.237   0.955 -0.0349  0.2759 -0.5079
  870SOL    HW1 2609   1.475   1.134   0.948  0.6005  0.3781 -0.0764
  870SOL    HW2 2610   1.426   1.275   0.881  1.8009  0.3725 -0.4050
  871SOL     OW 2611   2.198   1.333   1.804 -0.1441  0.4175  0.7632
  871SOL    HW1 2612   2.139   1.250   1.788 -0.7251 -1.2972 -2.4297
  871SOL    HW2 2613   2.163   1.379   1.891 -0.2810  1.4931 -0.0697
  872SOL     OW 2614   1.539   1.397   2.283  0.2459 -0.5771 -0.0329
  872SOL    HW1 2615   1.573   1.388   2.377  0.1754  0.1543 -2.8038
  872SOL    HW2 2616   1.485   1.321   2.248 -1.4131  2.8094 -1.1416
  873SOL     OW 2617   1.363   1.640   1.406  0.0133 -0.3495 -0.1682
  873SOL    HW1 2618   1.340   1.671   1.311  0.9455 -1.2884  3.3664
  873SOL    HW2 2619   1.443   1.690   1.437  0.9153  0.2663 -0.0645
  874SOL     OW 2620   1.633   1.400   1.127 -0.2757 -0.5239 -0.2130
  874SOL    HW1 2621   1.633   1.498   1.099 -0.6583  2.0791 -0.8219
  874SOL    HW2 2622   1.580   1.341   1.061 -0.7750 -1.2771 -2.2260
  875SOL     OW 2623   2.469   0.312   2.571 -0.4136 -0.6321  0.6104
  875SOL    HW1 2624   2.435   0.403   2.540 -0.3647  1.7756 -1.4173
  875SOL    HW2 2625   2.473   0.244   2.500  0.0222  2.1969 -3.5857
  876SOL     OW 2626   1.218   0.931   0.559 -0.3770 -0.1187 -0.8401
  876SOL    HW1 2627   1.207   0.845   0.509  0.5995 -0.4706  0.4864
  876SOL    HW2 2628   1.262   1.006   0.504  1.9118 -0.0094  1.2946
  877SOL     OW 2629   2.055   3.021   0.751 -0.4452  0.0346  0.1806
  877SOL    HW1 2630   2.075   2.962   0.674 -0.0035 -0.4347  1.5270
  877SOL    HW2 2631   1.959   3.018   0.783  2.1858  0.7582 -1.8277
  878SOL     OW 2632   2.850   1.951   0.343  0.4897  0.2147  0.0890
  878SOL    HW1 2633   2.842   1.864   0.390  1.7950 -1.5293 -2.2940
  878SOL    HW2 2634   2.754   1.981   0.314 -0.8556  3.3079 -0.4329
  879SOL     OW 2635   2.784   2.114   1.875  0.2131 -0.3872  0.4565
  879SOL    HW1 2636   2.783   2.057   1.957  2.1503  0.4164 -3.3527
  879SOL    HW2 2637   2.877   2.122   1.842 -3.1651  1.0760  0.6971
  880SOL     OW 2638   0.389   1.708   0.844  0.1558  0.6395  0.0916
  880SOL    HW1 2639   0.464   1.665   0.783 -0.1589 -0.5899 -1.1047
  880SOL    HW2 2640   0.411   1.787   0.904 -1.7213 -0.1817  1.2136
  881SOL     OW 2641   1.271   0.376   2.651  0.0310 -0.1226  0.5788
  881SOL    HW1 2642   1.257   0.319   2.737  0.3268  1.2267  1.5887
  881SOL    HW2 2643   1.301   0.321   2.573 -0.5600 -0.3045 -1.0799
  882SOL     OW 2644   2.472   0.721   0.475 -0.0568 -0.3537 -0.3537
  882SOL    HW1 2645   2.472   0.811   0.520  0.6537 -1.0975  0.3471
  882SOL    HW2 2646   2.522   0.648   0.528 -1.1564 -0.6333  0.0068
  883SOL     OW 2647   1.635   0.600   2.505 -0.8228  0.0659  0.3468
  883SOL    HW1 2648   1.531   0.602   2.520 -2.7463  2.5443  1.8698
  883SOL    HW2 2649   1.685   0.616   2.593  0.6371 -2.4899  2.0053
  884SOL     OW 2650   0.222   2.828   1.946  0.2997 -0.4436 -0.1950
  884SOL    HW1 2651   0.155   2.754   1.967 -0.5151  0.2619 -2.2061
  884SOL    HW2 2652   0.206   2.855   1.849 -0.5291  0.5069 -0.4614
  885SOL     OW 2653   1.834   0.885   2.153 -0.2069  0.4637 -0.3970
  885SOL    HW1 2654   1.752   0.843   2.110 -0.1304  1.2408  0.3667
  885SOL    HW2 2655   1.917   0.833   2.122  0.1565 -1.4860  3.5307
  886SOL     OW 2656   1.598   0.230   2.747 -0.5932 -0.0839  0.1158
  886SOL    HW1 2657   1.623   0.264   2.650  2.8535 -2.5582 -0.8371
  886SOL    HW2 2658   1.680   0.215   2.805 -1.9815 -1.2096 -2.4182
  887SOL     OW 2659   1.206   0.429   1.491  0.6708  0.3525  0.0650
  887SOL    HW1 2660   1.231   0.466   1.403 -0.2406 -0.5171  1.3134
  887SOL    HW2 2661   1.117   0.381   1.490  0.3205  1.3047  2.4893
  888SOL     OW 2662   2.413   0.565   1.606  0.5480 -0.7090 -0.2482
  888SOL    HW1 2663   2.481   0.632   1.636 -2.5592 -2.4711 -0.7250
  888SOL    HW2 2664   2.416   0.566   1.505  0.2391  1.8760  1.1250
  889SOL     OW 2665   1.513   0.075   0.685 -0.2510  0.1430  0.2850
  889SOL    HW1 2666   1.566   0.143   0.628  0.1227  2.5391 -2.5005
  889SOL    HW2 2667   1.536   0.086   0.788  2.2741 -1.2417  1.0816
  890SOL     OW 2668   1.071   2.620   1.085 -0.1263  0.1581 -0.0710
  890SOL    HW1 2669   1.130   2.567   1.019  0.0439 -0.1823 -0.6753
  890SOL    HW2 2670   1.031   2.703   1.042 -1.2051  2.0067 -0.1227
  891SOL     OW 2671   3.023   1.247   0.118  0.8672 -0.2919  0.0228
  891SOL    HW1 2672   0.026   1.242   0.037  0.2056 -0.6742 -2.4036
  891SOL    HW2 2673   0.012   1.253   0.207  0.1294  0.4190 -0.0962
  892SOL     OW 2674   2.045   1.464   2.455 -0.1912  0.7477 -0.0084
  892SOL    HW1 2675   2.053   1.527   2.372 -0.0064  1.7708  0.2117
  892SOL    HW2 2676   1.967   1.491   2.515 -0.7097  0.9112  1.7405
  893SOL     OW 2677   2.252   2.409   1.006 -0.2853 -0.4901 -0.2284
  893SOL    HW1 2678   2.187   2.490   1.016  1.4984  1.8768 -3.5338
  893SOL    HW2 2679   2.347   2.447   0.996 -0.4016 -2.5584  1.0445
  894SOL     OW 2680   0.330   0.630   1.013  0.1456 -0.4002  0.0861
  894SOL    HW1 2681   0.381   0.633   0.924  1.6334 -0.9152 -1.2232
  894SOL    HW2 2682   0.316   0.726   1.053  0.5540 -0.6185  0.4364
  895SOL     OW 2683   2.791   2.084   2.508 -0.3264  0.0882 -0.0651
  895SOL    HW1 2684   2.731   2.037   2.439  0.9125  0.2264  1.3167
  895SOL    HW2 2685   2.881   2.036   2.521 -1.3332 -1.0662  3.9514
  896SOL     OW 2686   1.341   2.990   2.465 -0.4480  0.1521 -0.3730
  896SOL    HW1 2687   1.335   2.928   2.545 -1.1811 -0.4019 -0.9848
  896SOL    HW2 2688   1.260   2.975   2.404 -2.9468 -1.3679 -0.9538
  897SOL     OW 2689   0.266   1.927   1.541 -0.4149  0.2427 -0.2161
  897SOL    HW1 2690   0.274   1.834   1.498 -1.9108 -1.4817  2.8822
  897SOL    HW2 2691   0.214   1.992   1.490  1.1148  0.9235  0.9640
  898SOL     OW 2692   0.711   2.198   1.855 -0.8116 -0.0078  0.0673
  898SOL    HW1 2693   0.758   2.211   1.767  3.9742  3.5416 -2.1319
  898SOL    HW2 2694   0.702   2.286   1.912  0.2694  2.8135  1.9367
  899SOL     OW 2695   1.869   0.169   1.686  0.5722  0.1127  0.3305
  899SOL    HW1 2696   1.873   0.077   1.728  1.0158  1.0966  2.6881
  899SOL    HW2 2697   1.787   0.180   1.625  1.6310  1.1237  1.9896
  900SOL     OW 2698   1.527   1.210   0.540  0.2893  0.3463 -0.2328
  900SOL    HW1 2699   1.570   1.130   0.586 -0.3603  2.2355  1.8586
  900SOL    HW2 2700   1.447   1.180   0.483 -0.4980  0.9457  0.9324
  901SOL     OW 2701   1.300   0.978   2.354 -0.2469 -0.3309  0.0011
  901SOL    HW1 2702   1.377   0.995   2.418  0.6975  0.6225 -0.8087
  901SOL    HW2 2703   1.255   0.887   2.361  1.1110 -2.4395  1.2899
  902SOL     OW 2704   0.106   2.048   0.975 -0.3536  0.7539 -0.0692
  902SOL    HW1 2705   0.001   2.053   0.978  1.1798  0.0068  2.2136
  902SOL    HW2 2706   0.150   2.139   0.995  1.2109  1.7662  1.0093
  903SOL     OW 2707   2.477   1.155   2.166 -0.0360 -0.0375 -0.1906
  903SOL    HW1 2708   2.393   1.207   2.153  1.0126 -1.9668 -1.7766
  903SOL    HW2 2709   2.539   1.207   2.233  0.2907 -1.1759 -1.4133
  904SOL     OW 2710   1.261   2.026   3.049 -0.4532  0.5331 -0.2557
  904SOL    HW1 2711   1.248   2.015   2.947 -0.3161  1.6829 -2.3202
  904SOL    HW2 2712   1.172   2.044   0.032  0.4268  1.2878  1.2291
  905SOL     OW 2713   2.086   2.840   1.836 -0.1376  0.1520  0.1602
  905SOL    HW1 2714   2.011   2.781   1.802  0.8494  1.3968  1.8952
  905SOL    HW2 2715   2.058   2.919   1.894 -2.4343 -1.3927 -1.5481
  906SOL     OW 2716   1.265   2.759   0.142 -0.7178  0.2575  0.6137
  906SOL    HW1 2717   1.290   2.831   0.074  0.7826 -0.2272  1.9839
  906SOL    HW2 2718   1.312   2.674   0.111  3.0902 -0.0493  0.6103
  907SOL     OW 2719   0.148   2.735   0.745 -0.4654 -0.1163  0.9108
  907SOL    HW1 2720   0.220   2.695   0.802  0.6014  1.6962 -0.1382
  907SOL    HW2 2721   0.175   2.757   0.652 -2.4799 -0.1063 -0.2616
  908SOL     OW 2722   0.857   2.640   1.607  0.2193 -0.1463  0.4334
  908SOL    HW1 2723   0.833   2.730   1.556 -1.1955  2.0193 -0.8386
  908SOL    HW2 2724   0.837   2.653   1.707 -1.2014  0.1164  0.6648
  909SOL     OW 2725   1.769   0.772   1.446 -0.4998  0.2980  0.4212
  909SOL    HW1 2726   1.818   0.784   1.359  1.1439  2.5988  2.7123
  909SOL    HW2 2727   1.735   0.858   1.479 -1.5574 -4.3350  0.3097
  910SOL     OW 2728   0.897   0.182   0.158  0.2714 -0.4652 -0.6885
  910SOL    HW1 2729   0.872   0.243   0.077  1.0227 -0.1594  1.1349
  910SOL    HW2 2730   0.878   0.083   0.141 -2.9198  0.4031 -1.1335
  911SOL     OW 2731   0.509   0.319   2.969  0.0366 -0.1149  0.2951
  911SOL    HW1 2732   0.476   0.223   2.992 -0.0257 -1.5427 -2.4510
  911SOL    HW2 2733   0.434   0.369   2.925  2.1892  0.5747 -2.5478
  912SOL     OW 2734   0.006   1.898   2.752  0.7882 -0.1143  0.1245
  912SOL    HW1 2735   0.054   1.826   2.805 -0.3864 -0.4523  0.0819
  912SOL    HW2 2736   0.019   1.898   2.652  1.7335  1.9540 -1.2023
  913SOL     OW 2737   2.471   0.059   0.084 -0.2696  0.5314 -0.2639
  913SOL    HW1 2738   2.418   3.036   0.068 -0.3140  1.2636  1.0013
  913SOL    HW2 2739   2.428   0.144   0.051 -1.7329  0.7917 -1.5154
  914SOL     OW 2740   1.294   1.531   2.039  0.0986 -0.0082 -0.4997
  914SOL    HW1 2741   1.239   1.610   2.009 -0.1041 -0.2965 -1.2573
  914SOL    HW2 2742   1.245   1.440   2.026 -0.8097 -0.5657  0.1834
  915SOL     OW 2743   2.791   2.394   2.264 -0.8259  0.0451 -0.0575
  915SOL    HW1 2744   2.847   2.320   2.231  0.0708  1.0411 -0.6750
  915SOL    HW2 2745   2.780   2.381   2.364  3.6742 -2.7719 -1.5329
  916SOL     OW 2746   2.979   0.835   2.454  0.2208  0.7148  0.4057
  916SOL    HW1 2747   0.008   0.840   2.408 -2.5496  0.2377  1.8286
  916SOL    HW2 2748   2.962   0.918   2.505 -1.7148 -1.2550 -0.5970
  917SOL     OW 2749   1.506   0.065   0.290  0.5550 -0.6309 -0.0945
  917SOL    HW1 2750   1.541   0.123   0.369 -0.4494  0.5121 -2.2274
  917SOL    HW2 2751   1.535   0.093   0.198 -0.2458 -0.1537  0.8139
  918SOL     OW 2752   1.588   2.954   2.068 -0.2379 -0.0017 -0.3309
  918SOL    HW1 2753   1.544   3.022   2.132  0.5768  2.3941  1.8559
  918SOL    HW2 2754   1.674   2.991   2.032 -0.5572 -0.0614  0.5591
  919SOL     OW 2755   1.886   2.330   1.732 -0.1034 -0.3065  0.1520
  919SOL    HW1 2756   1.847   2.298   1.820  0.2070 -1.1885 -1.8037
  919SOL    HW2 2757   1.823   2.386   1.677  2.0504 -0.0113  0.9001
  920SOL     OW 2758   0.278   1.010   0.092 -0.2447 -0.1598 -0.9154
  920SOL    HW1 2759   0.282   1.062   0.178 -0.7288 -0.5374 -4.0995
  920SOL    HW2 2760   0.364   0.956   0.071 -3.5423 -0.4127  0.8832
  921SOL     OW 2761   2.238   0.836   2.402 -0.0011 -0.0184 -0.1421
  921SOL    HW1 2762   2.139   0.828   2.422  2.4297  1.6034  0.0184
  921SOL    HW2 2763   2.247   0.895   2.318 -2.6218  0.7880 -3.2531
  922SOL     OW 2764   1.228   1.730   2.540  0.0090  0.3966 -0.3148
  922SOL    HW1 2765   1.198   1.817   2.498  2.2851 -0.4835 -0.2550
  922SOL    HW2 2766   1.297   1.687   2.477 -0.8450  1.0178  1.0593
  923SOL     OW 2767   0.684   1.213   2.389  0.0818 -0.3163 -0.1619
  923SOL    HW1 2768   0.602   1.178   2.439  0.6273  0.3444  0.3521
  923SOL    HW2 2769   0.734   1.281   2.447  0.0994 -2.3713 -0.1022
  924SOL     OW 2770   0.296   1.947   2.818  1.1965  0.0701  0.2636
  924SOL    HW1 2771   0.266   2.042   2.835 -2.0896 -1.0040 -1.6952
  924SOL    HW2 2772   0.289   1.929   2.715  2.0823 -0.5855  1.5570
  925SOL     OW 2773   1.623   1.666   0.990  0.0542  0.2767  0.1067
  925SOL    HW1 2774   1.711   1.709   1.023  0.1241  1.7984  0.4098
  925SOL    HW2 2775   1.627   1.657   0.888 -3.8676 -1.9157 -0.8867
  926SOL     OW 2776   1.660   0.334   2.510 -0.7406  0.4528  0.1439
  926SOL    HW1 2777   1.714   0.298   2.427 -0.3867 -1.5568  0.1901
  926SOL    HW2 2778   1.667   0.439   2.506 -0.3539  1.8508 -0.9670
  927SOL     OW 2779   2.628   2.552   1.857  0.2302  1.0420 -0.3433
  927SOL    HW1 2780   2.632   2.551   1.755  1.8491  1.2623 -0.5056
  927SOL    HW2 2781   2.531   2.549   1.890  2.1199 -0.9668  2.4892
  928SOL     OW 2782   0.671   0.995   2.655 -0.0701 -0.2286 -0.2721
  928SOL    HW1 2783   0.618   0.938   2.723 -1.6082 -0.4669  2.9413
  928SOL    HW2 2784   0.746   0.936   2.617 -1.0236 -0.8276  1.2554
  929SOL     OW 2785   0.132   0.167   0.971 -0.0263 -0.8320  0.2415
  929SOL    HW1 2786   0.136   0.102   0.895 -0.8858 -0.2071  1.6317
  929SOL    HW2 2787   0.056   0.233   0.974  4.0433  1.1183 -2.3798
  930SOL     OW 2788   2.784   0.185   2.090  0.5610 -0.2318 -0.1795
  930SOL    HW1 2789   2.706   0.251   2.063  0.7110  0.8199 -2.0712
  930SOL    HW2 2790   2.875   0.227   2.067  2.2395 -0.6178 -0.1650
  931SOL     OW 2791   2.054   1.283   0.002 -0.2491  0.1526  0.3667
  931SOL    HW1 2792   2.155   1.283   3.043  2.3054  0.3463 -0.3357
  931SOL    HW2 2793   2.031   1.198   0.051 -0.8222  0.4168  1.5830
  932SOL     OW 2794   2.763   1.149   0.834 -0.7202  0.0745  0.2560
  932SOL    HW1 2795   2.741   1.237   0.883 -4.0349  0.9706  1.1543
  932SOL    HW2 2796   2.772   1.176   0.738  1.7569  1.2249  1.2829
  933SOL     OW 2797   2.786   2.240   1.550  0.2237  0.2314 -0.4223
  933SOL    HW1 2798   2.743   2.160   1.518  2.3411  1.6776  0.8539
  933SOL    HW2 2799   2.719   2.313   1.578  0.0316  2.2646 -1.3577
  934SOL     OW 2800   0.431   2.930   1.198 -0.0044  0.0057  0.1449
  934SOL    HW1 2801   0.481   2.866   1.261  2.7844 -0.5985 -1.6854
  934SOL    HW2 2802   0.484   3.014   1.171 -1.0149 -0.5411 -1.1956
  935SOL     OW 2803   2.630   0.327   2.289  0.0494 -0.0098  0.7706
  935SOL    HW1 2804   2.581   0.369   2.211  0.5253  0.1815 -1.0444
  935SOL    HW2 2805   2.721   0.293   2.258  0.8068  0.3180  1.2077
  936SOL     OW 2806   2.828   0.697   1.611  0.5483  0.1734 -0.2576
  936SOL    HW1 2807   2.880   0.662   1.690 -0.8284 -1.7654  0.1264
  936SOL    HW2 2808   2.812   0.622   1.543 -0.4458  0.7193  1.7839
  937SOL     OW 2809   1.713   1.478   1.629 -0.2545  0.1638  0.1058
  937SOL    HW1 2810   1.703   1.510   1.527  0.9160  0.2548 -1.0758
  937SOL    HW2 2811   1.792   1.414   1.632 -0.5438 -1.1312 -1.0336
  938SOL     OW 2812   0.594   2.174   2.843 -0.5203 -0.5381 -0.1615
  938SOL    HW1 2813   0.576   2.237   2.923  0.5709 -1.2252  1.0708
  938SOL    HW2 2814   0.563   2.080   2.869  0.7482  0.7463 -3.5580
  939SOL     OW 2815   1.934   0.443   2.809 -0.4824 -0.7318 -0.4637
  939SOL    HW1 2816   1.964   0.469   2.904 -0.4310 -0.5256  1.1076
  939SOL    HW2 2817   1.880   0.353   2.810 -1.3347  0.2303 -0.6176
  940SOL     OW 2818   1.268   2.500   0.927 -0.0723  0.1280  0.3831
  940SOL    HW1 2819   1.267   2.406   0.976  2.7940  0.4608  0.2888
  940SOL    HW2 2820   1.362   2.531   0.919 -2.3959  2.3046  1.0746
  941SOL     OW 2821   1.239   1.828   1.720 -0.7628 -0.2361  0.4115
  941SOL    HW1 2822   1.333   1.795   1.754  0.0667  1.3158  1.4056
  941SOL    HW2 2823   1.221   1.927   1.730  1.1080 -2.6026 -0.3475
  942SOL     OW 2824   2.794   1.931   2.869 -0.2610 -0.1540 -0.5793
  942SOL    HW1 2825   2.891   1.914   2.844 -3.7827  2.0579  1.5926
  942SOL    HW2 2826   2.739   1.855   2.836  1.1353  0.8896 -0.3026
  943SOL     OW 2827   2.398   2.809   1.585 -0.1062  0.1435 -0.2173
  943SOL    HW1 2828   2.354   2.869   1.652  0.7460 -0.9287  0.8281
  943SOL    HW2 2829   2.481   2.853   1.542  0.4843 -0.0262  0.0146
  944SOL     OW 2830   1.796   2.217   2.853  0.5371 -0.3801 -0.3927
  944SOL    HW1 2831   1.751   2.133   2.820 -0.2836  1.3193 -1.3483
  944SOL    HW2 2832   1.824   2.277   2.772 -0.3559 -0.8035 -0.4022
  945SOL     OW 2833   2.966   1.904   1.234  0.3928  0.6252  0.0937
  945SOL    HW1 2834   2.960   1.925   1.331  0.4478 -0.7438 -2.7927
  945SOL    HW2 2835   2.924   1.812   1.209 -2.2858 -0.3863  1.9881
  946SOL     OW 2836   1.367   1.226   3.018 -0.1474 -0.7928 -0.4157
  946SOL    HW1 2837   1.339   1.129   3.035 -2.4036 -2.1738  0.8267
  946SOL    HW2 2838   1.306   1.293   0.003  1.9142  0.1809  1.2753
  947SOL     OW 2839   0.120   0.960   2.305  0.2614 -0.0590 -0.0638
  947SOL    HW1 2840   0.086   0.989   2.215  0.1879 -1.4319  1.0593
  947SOL    HW2 2841   0.204   0.907   2.288 -0.4558  0.8626 -0.5085
  948SOL     OW 2842   0.184   1.177   0.591 -0.6915 -0.4480 -0.7158
  948SOL    HW1 2843   0.099   1.234   0.589  1.9820 -1.8619  1.4658
  948SOL    HW2 2844   0.272   1.228   0.607  2.9432 -0.8578  2.3106
  949SOL     OW 2845   0.753   0.268   2.515 -0.8936  0.3025 -0.3987
  949SOL    HW1 2846   0.806   0.348   2.551  0.5768 -0.4512  1.3951
  949SOL    HW2 2847   0.806   0.207   2.453 -0.4668  1.3404 -1.3444
  950SOL     OW 2848   0.027   0.493   1.395 -0.6522 -0.1393  0.1069
  950SOL    HW1 2849   0.051   0.576   1.447  0.8976  0.7914 -0.5011
  950SOL    HW2 2850   0.049   0.504   1.294  3.0799  0.5236 -1.8526
  951SOL     OW 2851   0.258   0.928   2.619 -0.1325  0.2961  0.1957
  951SOL    HW1 2852   0.179   0.992   2.610  1.1908  1.4457 -3.3257
  951SOL    HW2 2853   0.264   0.880   2.710 -1.0210 -1.6863  1.7346
  952SOL     OW 2854   1.963   2.277   1.470 -0.0736 -0.7918  0.0647
  952SOL    HW1 2855   2.056   2.235   1.461 -2.1609 -0.3004  1.5777
  952SOL    HW2 2856   1.924   2.258   1.564 -1.3319  0.6819  3.0172
  953SOL     OW 2857   0.258   2.242   2.937 -0.1300 -0.0703 -0.1033
  953SOL    HW1 2858   0.351   2.274   2.975  1.8685  0.0221  0.7227
  953SOL    HW2 2859   0.189   2.226   3.013 -0.3232 -0.5690  2.1248
  954SOL     OW 2860   2.595   0.703   0.903 -0.5171 -0.0023 -0.0009
  954SOL    HW1 2861   2.640   0.697   0.993 -0.3754 -0.3105  1.0009
  954SOL    HW2 2862   2.595   0.795   0.867  2.5513 -2.8889  2.6186
  955SOL     OW 2863   1.577   1.439   0.184  1.0224  0.4046  0.8768
  955SOL    HW1 2864   1.616   1.358   0.137 -1.4714  0.4063 -1.0262
  955SOL    HW2 2865   1.645   1.490   0.239 -0.1319  1.0282  1.9912
  956SOL     OW 2866   0.988   0.556   2.349  0.0398  0.4219 -0.1423
  956SOL    HW1 2867   0.902   0.600   2.324  1.5171 -0.7897  0.5461
  956SOL    HW2 2868   0.988   0.531   2.448 -1.9268  1.2828 -1.4546
  957SOL     OW 2869   0.520   0.238   2.065 -0.1280 -0.6849 -0.0797
  957SOL    HW1 2870   0.458   0.184   2.001 -0.8447 -1.1406 -2.3305
  957SOL    HW2 2871   0.573   0.178   2.127 -2.9266 -0.5089 -0.7318
  958SOL     OW 2872   0.349   2.204   0.897  0.2004  0.4324 -0.3103
  958SOL    HW1 2873   0.433   2.178   0.940 -1.0571  1.2058 -2.0709
  958SOL    HW2 2874   0.354   2.302   0.868 -0.3049 -2.2348  2.1078
  959SOL     OW 2875   2.500   0.834   1.978  0.0110 -0.1763 -0.6341
  959SOL    HW1 2876   2.434   0.758   2.008  3.3507  1.3263  0.9906
  959SOL    HW2 2877   2.566   0.854   2.051 -3.2591 -1.2271  0.2347
  960SOL     OW 2878   0.238   1.355   2.664 -0.3353 -0.1872 -0.6657
  960SOL    HW1 2879   0.212   1.276   2.600 -1.5516  0.6154 -0.0148
  960SOL    HW2 2880   0.156   1.411   2.687 -1.6683  1.1507 -2.0019
  961SOL     OW 2881   0.611   1.577   0.755  0.8242 -0.0132  0.0421
  961SOL    HW1 2882   0.663   1.659   0.729 -2.2676  0.0737  2.1527
  961SOL    HW2 2883   0.652   1.498   0.706 -0.5244 -0.0560 -0.6020
  962SOL     OW 2884   0.339   1.298   0.910  0.0776 -0.2283 -0.3365
  962SOL    HW1 2885   0.248   1.270   0.883  1.4675  1.2309  0.9247
  962SOL    HW2 2886   0.337   1.384   0.966 -0.4351 -1.4933  0.0540
  963SOL     OW 2887   1.450   2.383   2.781 -0.6160 -0.0433  0.2672
  963SOL    HW1 2888   1.426   2.349   2.685  0.0934 -0.3333  1.1064
  963SOL    HW2 2889   1.545   2.418   2.786  0.4859 -1.7630 -0.4534
  964SOL     OW 2890   0.195   2.595   2.674  0.4407 -0.0907  0.5503
  964SOL    HW1 2891   0.234   2.625   2.585 -0.6441  0.8214 -0.1051
  964SOL    HW2 2892   0.159   2.497   2.672 -3.8954 -0.6270 -4.1530
  965SOL     OW 2893   2.550   1.815   2.756 -0.4484 -0.4186 -0.2952
  965SOL    HW1 2894   2.483   1.750   2.712 -1.3594  0.8688 -1.7684
  965SOL    HW2 2895   2.538   1.913   2.735 -0.6374 -0.3730  0.5335
  966SOL     OW 2896   2.494   1.308   2.624 -0.2485 -0.0887  0.3523
  966SOL    HW1 2897   2.561   1.231   2.589  2.8064 -1.3017  0.2406
  966SOL    HW2 2898   2.443   1.270   2.699 -0.9547 -0.5344 -0.3739
  967SOL     OW 2899   1.822   0.313   0.679  0.0625  0.3280 -0.2639
  967SOL    HW1 2900   1.918   0.341   0.663 -2.1857  0.3215 -3.5863
  967SOL    HW2 2901   1.772   0.393   0.715  0.0503  0.8009  2.7820
  968SOL     OW 2902   2.699   0.318   0.322  0.1968  0.2074 -0.5513
  968SOL    HW1 2903   2.697   0.257   0.404  1.4046 -0.6170  0.6886
  968SOL    HW2 2904   2.783   0.374   0.312  0.0350  0.5814  0.7039
  969SOL     OW 2905   0.582   0.834   2.311 -0.6167 -0.0963  0.1858
  969SOL    HW1 2906   0.672   0.804   2.270  2.0342 -4.2958  1.0588
  969SOL    HW2 2907   0.555   0.931   2.289 -2.8674  1.1717 -1.9330
  970SOL     OW 2908   1.911   1.949   2.731  0.2380  0.1634 -0.5440
  970SOL    HW1 2909   1.919   1.932   2.833  0.3799 -0.7258  1.7521
  970SOL    HW2 2910   1.980   1.903   2.675 -0.6760  0.9339  0.0275
  971SOL     OW 2911   2.649   3.045   1.785 -0.5909  0.2940 -0.1000
  971SOL    HW1 2912   2.565   0.003   1.838 -0.5901  2.1432 -0.6613
  971SOL    HW2 2913   2.634   2.985   1.701 -1.0444 -0.7497  1.0371
  972SOL     OW 2914   0.151   0.577   0.689  0.5453  0.2529  0.7844
  972SOL    HW1 2915   0.166   0.485   0.647 -1.4054  0.0266  1.0877
  972SOL    HW2 2916   0.231   0.638   0.665 -0.2224  0.5142 -4.2233
  973SOL     OW 2917   2.851   0.063   2.649 -0.6121  0.2782  0.3147
  973SOL    HW1 2918   2.939   0.044   2.601 -1.7465  0.8249 -0.0699
  973SOL    HW2 2919   2.772   0.033   2.590  1.8696  0.1780 -1.2726
  974SOL     OW 2920   2.940   0.934   1.635  0.1475 -0.7974  0.0385
  974SOL    HW1 2921   3.017   0.953   1.571  0.1320 -1.2556 -1.1957
  974SOL    HW2 2922   2.890   0.847   1.607 -0.1762 -0.9602 -1.6306
  975SOL     OW 2923   1.308   2.854   2.076 -0.2889 -0.3222 -0.6325
  975SOL    HW1 2924   1.404   2.890   2.069 -0.4215  0.7217 -0.0802
  975SOL    HW2 2925   1.262   2.889   2.158 -1.3946  2.1944 -2.1366
  976SOL     OW 2926   2.000   1.387   1.535 -0.0942 -0.3201 -0.0627
  976SOL    HW1 2927   2.050   1.423   1.613 -2.4463  1.0507  0.2436
  976SOL    HW2 2928   2.037   1.407   1.445 -1.1825  0.4134  2.3044
  977SOL     OW 2929   2.647   2.997   2.870  0.4312 -0.0183 -0.2787
  977SOL    HW1 2930   2.685   0.030   2.862  3.0293  2.3443 -1.8224
  977SOL    HW2 2931   2.561   2.985   2.812 -1.8796  1.5689 -0.9545
  978SOL     OW 2932   2.010   1.086   2.225  0.2058  0.1984 -0.6405
  978SOL    HW1 2933   2.110   1.074   2.207 -0.2300 -0.0709  1.5940
  978SOL    HW2 2934   1.954   1.013   2.186  1.6037  3.1210  2.4132
  979SOL     OW 2935   0.836   0.970   2.347 -0.0554 -0.1206  0.3493
  979SOL    HW1 2936   0.894   1.007   2.275 -1.2876  2.9438  2.2174
  979SOL    HW2 2937   0.788   1.049   2.391  2.5594 -0.7978  0.8292
  980SOL     OW 2938   1.658   2.016   2.686 -0.4557  0.0116  0.7390
  980SOL    HW1 2939   1.593   1.940   2.716  1.9235 -3.3531  3.0747
  980SOL    HW2 2940   1.752   1.985   2.675 -2.0091  0.0444 -2.8951
  981SOL     OW 2941   1.078   0.827   1.794  0.4886  0.1356  0.4975
  981SOL    HW1 2942   1.045   0.907   1.735 -1.3433  0.9514 -2.3169
  981SOL    HW2 2943   1.068   0.740   1.743 -3.1320 -0.4965 -0.9233
  982SOL     OW 2944   0.981   2.983   2.928 -0.3288 -0.1742  0.4065
  982SOL    HW1 2945   1.038   0.000   2.895  0.6972  3.4848 -0.3674
  982SOL    HW2 2946   0.913   2.952   2.864  1.8251 -0.4874 -0.2259
  983SOL     OW 2947   2.182   0.990   0.314 -0.3678  0.0335  0.1806
  983SOL    HW1 2948   2.257   1.052   0.290 -1.5342 -0.9042  1.1848
  983SOL    HW2 2949   2.212   0.916   0.376 -1.8009 -0.5316  2.2403
  984SOL     OW 2950   1.261   0.340   0.109  0.3122  0.3798  0.4208
  984SOL    HW1 2951   1.363   0.365   0.111  0.5230 -0.0254  0.8108
  984SOL    HW2 2952   1.230   0.273   0.179  2.7829  1.2559 -1.3924
  985SOL     OW 2953   1.161   2.788   1.858  0.6150  0.1068  0.1389
  985SOL    HW1 2954   1.210   2.823   1.942  0.0484  0.2624  1.5972
  985SOL    HW2 2955   1.200   2.836   1.774  2.6534  0.1808 -1.0147
  986SOL     OW 2956   2.472   2.921   2.079  0.8293  0.5713  0.5449
  986SOL    HW1 2957   2.420   2.973   2.008  0.1855  1.1951  0.1707
  986SOL    HW2 2958   2.569   2.947   2.081 -1.1217  0.3104 -1.2343
  987SOL     OW 2959   2.320   1.413   1.053 -0.1116  0.0148 -0.2319
  987SOL    HW1 2960   2.374   1.452   0.975  1.0013 -1.6268  0.4695
  987SOL    HW2 2961   2.346   1.312   1.060  0.5813 -1.3993 -0.9879
  988SOL     OW 2962   2.525   1.014   1.603 -0.5281  0.3864  0.5246
  988SOL    HW1 2963   2.552   0.930   1.652  1.3764 -1.1809 -1.5554
  988SOL    HW2 2964   2.477   1.077   1.664  3.9251 -0.9299 -0.8197
  989SOL     OW 2965   2.048   2.287   0.279  0.2100  0.7034 -0.4969
  989SOL    HW1 2966   1.992   2.277   0.194 -0.2378 -2.5124 -0.5172
  989SOL    HW2 2967   2.102   2.201   0.284  0.1477  2.3491 -2.0495
  990SOL     OW 2968   1.317   0.726   2.147 -0.0557  0.0794 -0.3547
  990SOL    HW1 2969   1.253   0.722   2.228 -0.2585 -0.4259  0.3027
  990SOL    HW2 2970   1.317   0.639   2.096 -0.7578 -0.9269 -1.1146
  991SOL     OW 2971   1.349   1.109   0.374  0.1917 -0.2369 -0.1109
  991SOL    HW1 2972   1.279   1.157   0.322  1.4957  2.1751  0.4820
  991SOL    HW2 2973   1.381   1.029   0.321 -2.1819  2.0324  0.3430
  992SOL     OW 2974   0.069   0.983   1.450  0.3400  0.1585 -0.4719
  992SOL    HW1 2975   0.129   1.065   1.456  2.1963 -1.2983  0.0759
  992SOL    HW2 2976   0.015   0.993   1.362  4.6142  0.0368  0.4559
  993SOL     OW 2977   2.594   0.342   2.012 -0.0330 -0.2608  0.9629
  993SOL    HW1 2978   2.501   0.302   2.034  1.3881 -0.7360 -2.5533
  993SOL    HW2 2979   2.593   0.398   1.929 -1.5669  1.3135 -1.1649
  994SOL     OW 2980   1.514   1.813   1.756 -0.2869 -0.2788  0.4398
  994SOL    HW1 2981   1.532   1.750   1.838 -0.9787 -0.7919 -0.1569
  994SOL    HW2 2982   1.559   1.904   1.778  1.3321  1.8864  0.1369
  995SOL     OW 2983   2.314   1.959   0.017  0.6006 -0.7142 -0.2041
  995SOL    HW1 2984   2.408   1.985   3.049 -2.4206  1.8291 -2.2629
  995SOL    HW2 2985   2.282   1.868   3.045  0.3943 -0.5244 -1.5720
  996SOL     OW 2986   2.209   1.728   3.013  0.0136  0.0787 -0.1719
  996SOL    HW1 2987   2.125   1.681   3.051 -0.7138 -0.3306 -0.2356
  996SOL    HW2 2988   2.234   1.706   2.916  2.1131  1.6406  0.1130
  997SOL     OW 2989   1.721   0.526   2.246  0.3617 -0.0380 -0.0861
  997SOL    HW1 2990   1.670   0.565   2.166  0.0410  2.0106  1.6825
  997SOL    HW2 2991   1.700   0.581   2.328  3.5262 -1.8024  0.9119
  998SOL     OW 2992   2.554   0.491   0.604  0.0650  0.1305  0.2851
  998SOL    HW1 2993   2.571   0.420   0.675  0.7413 -2.3067 -2.0798
  998SOL    HW2 2994   2.454   0.483   0.576 -2.0879 -2.0284  1.4174
  999SOL     OW 2995   2.739   1.274   0.597 -0.5029  0.6308 -0.4354
  999SOL    HW1 2996   2.723   1.363   0.635  2.2648 -0.2097 -0.2899
  999SOL    HW2 2997   2.738   1.266   0.496  0.4751 -2.8152 -1.9472
 1000SOL     OW 2998   0.482   1.432   1.775  0.4171 -0.0240  0.3968
 1000SOL    HW1 2999   0.523   1.337   1.769 -2.0437 -2.7391  0.8757
 1000SOL    HW2 3000   0.384   1.429   1.781  3.1509 -0.5801  1.0330
   3.06249   3.06249   3.06249
