1000 SPC/Fw water molecules t= 259.00000 step= 259000
 3000
    1SOL     OW    1   2.777   2.555   0.957  0.2632 -0.2323 -0.3525
    1SOL    HW1    2   2.867   2.605   0.945 -1.0478  1.4054  1.5299
    1SOL    HW2    3   2.710   2.584   0.884 -1.3883  0.5577  1.2422
    2SOL     OW    4   1.715   2.135   1.347 -0.5811 -0.0754 -0.0819
    2SOL    HW1    5   1.675   2.064   1.408 -2.2877  0.1183 -0.4640
    2SOL    HW2    6   1.813   2.115   1.339 -2.8539 -2.1048 -1.9174
    3SOL     OW    7   0.934   2.689   2.786 -0.3568 -0.1511  0.1200
    3SOL    HW1    8   0.930   2.592   2.752 -2.2364  1.0507 -0.5136
    3SOL    HW2    9   0.984   2.694   2.870 -2.5177  1.1393 -0.3146
    4SOL     OW   10   1.931   2.038   1.620  0.1146 -0.5715 -0.4276
    4SOL    HW1   11   1.997   2.014   1.693 -0.7497  1.6963 -0.3325
    4SOL    HW2   12   1.877   2.122   1.647 -1.0027  0.6673  0.7082
    5SOL     OW   13   1.394   1.030   1.422 -0.2799 -0.0718 -0.0154
    5SOL    HW1   14   1.396   1.121   1.470  0.1151  3.5893 -0.2602
    5SOL    HW2   15   1.442   1.038   1.330 -1.1514 -0.7708 -2.8060
    6SOL     OW   16   2.464   3.052   0.150 -0.2018 -0.5090 -0.2789
    6SOL    HW1   17   2.531   0.063   0.163  0.8267  3.0645 -0.1281
    6SOL    HW2   18   2.430   3.039   0.054 -1.2389 -0.5282 -0.4156
    7SOL     OW   19   2.725   1.221   1.279  0.0423 -0.2926 -0.2636
    7SOL    HW1   20   2.756   1.245   1.188  0.1641 -0.1880  2.6249
    7SOL    HW2   21   2.760   1.293   1.344  5.0066  0.3704  0.8105
    8SOL     OW   22   1.259   2.973   0.913 -0.2690 -0.0929 -0.2398
    8SOL    HW1   23   1.288   2.945   1.004 -0.3502  1.4539 -1.1465
    8SOL    HW2   24   1.306   2.935   0.836  2.1575  1.0120 -0.1393
    9SOL     OW   25   1.440   0.270   2.389  0.5068  0.2986 -0.4046
    9SOL    HW1   26   1.464   0.278   2.291  1.9202  0.2792  0.7574
    9SOL    HW2   27   1.497   0.203   2.440  0.7241  1.5276  0.8988
   10SOL     OW   28   0.833   2.248   0.531  0.4378  0.2423 -0.2307
   10SOL    HW1   29   0.754   2.185   0.563 -6.1681 -0.1264  1.7178
   10SOL    HW2   30   0.883   2.288   0.610 -0.5395  0.6234  0.6402
   11SOL     OW   31   1.425   1.332   0.426  0.5937  0.4006  0.3120
   11SOL    HW1   32   1.487   1.367   0.498  1.2849 -1.1144  0.7550
   11SOL    HW2   33   1.390   1.408   0.365  0.3657  0.6725 -1.5965
   12SOL     OW   34   2.747   3.048   1.790  0.0584 -0.0648 -0.1313
   12SOL    HW1   35   2.694   0.024   1.866 -0.6040  1.0109 -1.8524
   12SOL    HW2   36   2.694   2.982   1.735 -1.1707 -1.8370  0.4985
   13SOL     OW   37   1.734   0.178   0.574  0.4521  0.1833  0.6494
   13SOL    HW1   38   1.718   0.276   0.566  0.1431 -0.9549 -1.1355
   13SOL    HW2   39   1.833   0.151   0.579  1.1941 -2.2668 -1.0745
   14SOL     OW   40   1.274   2.409   1.066 -0.4710 -0.0627  0.0764
   14SOL    HW1   41   1.241   2.472   0.991  2.2961 -0.2320 -1.1640
   14SOL    HW2   42   1.376   2.391   1.057 -0.0131  0.8628 -0.5152
   15SOL     OW   43   2.684   1.539   1.514  0.3366 -1.0568  0.2259
   15SOL    HW1   44   2.697   1.548   1.414 -1.6370  0.7732  2.8758
   15SOL    HW2   45   2.725   1.453   1.550  1.2454  2.6125  0.9293
   16SOL     OW   46   2.032   2.521   0.265 -0.1243 -0.6870  0.1301
   16SOL    HW1   47   2.013   2.538   0.366 -1.9065  1.6208  0.3399
   16SOL    HW2   48   1.959   2.475   0.217  0.9044  3.0423  1.1736
   17SOL     OW   49   0.752   3.023   1.326 -0.3584  0.2601 -0.0590
   17SOL    HW1   50   0.783   0.053   1.327  0.3135  1.4947 -0.3116
   17SOL    HW2   51   0.656   3.013   1.294  0.5386  2.7375  2.9981
   18SOL     OW   52   1.456   0.775   2.851 -0.3278 -0.0297  0.3877
   18SOL    HW1   53   1.424   0.833   2.928  1.0011 -1.2375  0.3124
   18SOL    HW2   54   1.555   0.757   2.869  1.5647 -0.0606  1.1741
   19SOL     OW   55   1.886   1.908   0.049 -0.4217 -0.1831 -0.0853
   19SOL    HW1   56   1.914   1.906   3.016 -1.1263 -2.2446  0.2587
   19SOL    HW2   57   1.850   1.999   0.074  0.2535  0.2640 -3.4653
   20SOL     OW   58   2.125   1.938   1.792  0.3353 -0.0594  0.0315
   20SOL    HW1   59   2.200   1.929   1.724  0.4528  1.1666  0.7110
   20SOL    HW2   60   2.095   1.851   1.826  1.5594  1.9735  0.0514
   21SOL     OW   61   0.995   1.762   0.226 -0.1891  1.1051  0.4167
   21SOL    HW1   62   1.036   1.723   0.310  1.3516 -0.7328 -0.4396
   21SOL    HW2   63   0.914   1.821   0.242  2.1647 -2.0086  1.2564
   22SOL     OW   64   1.998   3.055   1.635  0.0294  0.3289 -0.0102
   22SOL    HW1   65   2.086   3.035   1.587 -0.5439  0.9094  0.6905
   22SOL    HW2   66   1.975   0.088   1.634  1.6425  0.7999  3.1127
   23SOL     OW   67   2.822   0.882   1.913 -0.3777 -0.1857 -0.2201
   23SOL    HW1   68   2.773   0.930   1.837  0.5110 -1.8591  0.7856
   23SOL    HW2   69   2.763   0.884   1.995  0.1150  0.1637 -0.4784
   24SOL     OW   70   2.213   2.713   0.264 -0.7441 -0.0949  0.2461
   24SOL    HW1   71   2.307   2.672   0.248  1.9682  0.4618 -0.3026
   24SOL    HW2   72   2.143   2.638   0.245  0.7150 -1.7896 -1.7443
   25SOL     OW   73   1.244   2.852   2.528  0.0427 -0.0238 -0.0827
   25SOL    HW1   74   1.255   2.930   2.469  0.2090 -0.9950  1.5857
   25SOL    HW2   75   1.280   2.768   2.480 -0.2762  1.7827 -1.0362
   26SOL     OW   76   1.713   2.629   0.054 -0.0482 -0.0345  0.2008
   26SOL    HW1   77   1.636   2.617   3.057 -0.5186 -1.0168  0.9353
   26SOL    HW2   78   1.681   2.579   0.139 -0.5850  0.9337 -0.4878
   27SOL     OW   79   2.906   2.037   2.985 -0.1122 -0.2215 -0.4278
   27SOL    HW1   80   2.826   2.086   3.031 -2.1285  1.2142  2.4103
   27SOL    HW2   81   2.905   2.041   2.883  3.2388  2.1546 -0.9940
   28SOL     OW   82   0.028   1.010   1.609 -0.3698 -0.0380 -0.0744
   28SOL    HW1   83   2.997   1.049   1.600 -2.1753  1.4080 -1.6840
   28SOL    HW2   84   0.096   1.089   1.603  0.5415  2.6007 -2.1694
   29SOL     OW   85   2.431   2.329   1.206 -0.1489 -0.4207 -0.2637
   29SOL    HW1   86   2.407   2.400   1.281 -1.8902 -0.8979 -2.5166
   29SOL    HW2   87   2.526   2.326   1.173  0.3662  0.5900 -2.4382
   30SOL     OW   88   1.491   0.445   0.241  0.5071  0.0831 -0.0353
   30SOL    HW1   89   1.525   0.512   0.310  0.7608  0.4947 -0.9879
   30SOL    HW2   90   1.563   0.407   0.181  1.2917 -1.5071  0.3708
   31SOL     OW   91   2.643   2.760   1.636 -0.2145  0.4432  0.0123
   31SOL    HW1   92   2.564   2.800   1.588  1.5206 -1.7422 -0.7970
   31SOL    HW2   93   2.683   2.692   1.572  1.0662  0.1410  0.9303
   32SOL     OW   94   0.737   1.687   1.311 -0.2434  0.3394 -0.4902
   32SOL    HW1   95   0.794   1.682   1.229 -1.8789 -1.1534  0.7796
   32SOL    HW2   96   0.692   1.779   1.325 -1.1909  0.2684 -1.2432
   33SOL     OW   97   0.631   2.732   2.642  0.2670  0.3257 -0.1562
   33SOL    HW1   98   0.689   2.781   2.713  2.3072 -1.0169 -0.9900
   33SOL    HW2   99   0.531   2.724   2.670 -1.2187 -1.9229 -0.3335
   34SOL     OW  100   1.418   2.881   0.714 -0.3731 -0.3044 -0.7057
   34SOL    HW1  101   1.493   2.949   0.727 -1.1841  0.0899 -1.0677
   34SOL    HW2  102   1.424   2.830   0.622 -0.2462 -0.2286  0.3991
   35SOL     OW  103   2.083   2.975   1.270 -0.2540 -0.1768 -0.2813
   35SOL    HW1  104   2.005   3.041   1.256 -2.4124  0.6668 -0.1916
   35SOL    HW2  105   2.149   3.010   1.334 -3.3774  0.3520 -0.9347
   36SOL     OW  106   1.745   2.682   2.135 -0.3890  0.1681  0.5183
   36SOL    HW1  107   1.710   2.751   2.066 -0.3196 -0.7962 -2.2077
   36SOL    HW2  108   1.673   2.613   2.165 -0.6975  1.4385 -0.4515
   37SOL     OW  109   0.686   3.057   2.275  0.1193  0.3820  0.1090
   37SOL    HW1  110   0.730   3.045   2.182  1.7754  2.5050 -2.1388
   37SOL    HW2  111   0.757   0.021   2.340 -0.3100 -0.4559  0.0276
   38SOL     OW  112   0.185   2.447   2.668 -0.1296 -0.7002 -0.3150
   38SOL    HW1  113   0.264   2.389   2.692 -1.8670 -0.2720 -2.5848
   38SOL    HW2  114   0.208   2.511   2.592  0.2036  1.1029 -0.6876
   39SOL     OW  115   2.241   1.139   1.871  0.0965 -0.6695  0.2628
   39SOL    HW1  116   2.309   1.154   1.798  0.0732 -1.2549  3.2660
   39SOL    HW2  117   2.193   1.220   1.895  0.7677 -0.8272 -2.2861
   40SOL     OW  118   0.790   3.012   3.041 -0.4522  0.1466  0.3210
   40SOL    HW1  119   0.837   2.974   0.060  1.3028  0.2550  1.5752
   40SOL    HW2  120   0.771   0.048   3.054 -0.0939  2.0318 -3.2356
   41SOL     OW  121   2.226   0.955   1.015  0.1329 -0.3767 -0.2459
   41SOL    HW1  122   2.293   0.989   1.089  0.6272  1.7877 -0.6073
   41SOL    HW2  123   2.222   1.027   0.942  0.8851  0.2457 -1.1752
   42SOL     OW  124   0.656   0.557   1.113  0.4485  0.2659 -0.5683
   42SOL    HW1  125   0.563   0.590   1.119  2.3606 -1.6127  2.0075
   42SOL    HW2  126   0.698   0.546   1.206  3.4365  2.2981 -0.6211
   43SOL     OW  127   2.078   1.506   2.686  0.2117  0.1644  0.2655
   43SOL    HW1  128   2.056   1.406   2.706  0.1622 -3.3184 -3.4507
   43SOL    HW2  129   2.133   1.510   2.598 -2.4936  1.1714 -0.9075
   44SOL     OW  130   2.946   2.958   1.364  0.1799  0.3168  0.3226
   44SOL    HW1  131   3.042   2.972   1.338 -1.0882  0.2173  2.3462
   44SOL    HW2  132   2.922   3.025   1.438 -0.1832 -0.7828 -0.7439
   45SOL     OW  133   0.464   2.684   1.054  0.0853 -0.0612  0.2139
   45SOL    HW1  134   0.497   2.775   1.036 -1.3556 -1.3242  0.6122
   45SOL    HW2  135   0.433   2.690   1.150  1.8225  0.7127 -0.8313
   46SOL     OW  136   2.112   2.931   2.617  0.4147  0.0325  1.1347
   46SOL    HW1  137   2.072   2.843   2.578  0.5227 -1.9060  1.0136
   46SOL    HW2  138   2.209   2.945   2.584  0.4496 -0.9456 -1.0644
   47SOL     OW  139   1.947   1.872   0.926 -0.4944  0.3957 -0.3953
   47SOL    HW1  140   1.999   1.796   0.972  0.4701  0.4529  0.0342
   47SOL    HW2  141   1.932   1.844   0.831  0.3728  2.0377  0.9635
   48SOL     OW  142   0.639   1.731   0.465 -0.1556  0.5220 -1.2429
   48SOL    HW1  143   0.698   1.797   0.420 -0.0691 -0.0116 -1.6972
   48SOL    HW2  144   0.592   1.677   0.393 -0.4017  0.7016 -4.5338
   49SOL     OW  145   2.707   0.445   2.494 -0.3424 -0.0250 -0.0858
   49SOL    HW1  146   2.649   0.520   2.454  3.5376 -0.7446  1.4245
   49SOL    HW2  147   2.749   0.384   2.419  1.4860 -3.2935 -3.0306
   50SOL     OW  148   2.078   0.767   0.507  0.0797 -0.4847 -0.0595
   50SOL    HW1  149   2.138   0.777   0.426  0.3643 -1.8010 -0.6980
   50SOL    HW2  150   1.988   0.747   0.465 -0.3368  1.4311 -1.5348
   51SOL     OW  151   2.364   0.740   0.864 -0.5803  0.3833 -0.7328
   51SOL    HW1  152   2.331   0.808   0.928 -1.2996 -1.1824 -3.2426
   51SOL    HW2  153   2.290   0.703   0.809  0.2267  2.5353  0.2451
   52SOL     OW  154   1.479   1.549   2.237 -0.1437 -0.8074 -0.4455
   52SOL    HW1  155   1.513   1.511   2.150 -0.9402  2.4246  0.1952
   52SOL    HW2  156   1.379   1.542   2.239 -0.2410 -1.3662 -0.6672
   53SOL     OW  157   0.583   1.771   1.937  0.4470  0.0483  0.2793
   53SOL    HW1  158   0.660   1.704   1.936  0.5993  1.0681 -1.0911
   53SOL    HW2  159   0.510   1.735   1.873  2.5528 -0.2636 -0.0421
   54SOL     OW  160   2.237   0.320   1.328 -0.6014 -0.1137  0.5957
   54SOL    HW1  161   2.290   0.272   1.255  1.2291 -0.8119 -0.3910
   54SOL    HW2  162   2.232   0.422   1.316 -1.1614 -0.0493 -0.4759
   55SOL     OW  163   2.455   2.144   0.752 -0.2503  0.4551  0.3243
   55SOL    HW1  164   2.488   2.122   0.849  0.6033 -0.9208  1.0003
   55SOL    HW2  165   2.390   2.070   0.720 -0.2688 -2.1629 -0.1625
   56SOL     OW  166   1.155   3.051   1.899  0.6370  0.1465  0.2394
   56SOL    HW1  167   1.190   2.976   1.840  0.1184  2.5408  1.0492
   56SOL    HW2  168   1.162   3.032   1.999  4.3544  2.2422 -0.2022
   57SOL     OW  169   1.687   1.604   0.351  0.2493 -0.2434 -0.4526
   57SOL    HW1  170   1.600   1.556   0.378 -1.9474 -0.8062  2.0086
   57SOL    HW2  171   1.681   1.643   0.256  1.4666  0.1534  0.1385
   58SOL     OW  172   0.028   1.005   2.480  0.0780  0.0606 -0.1971
   58SOL    HW1  173   0.107   0.952   2.524 -1.4614 -1.8320 -1.1312
   58SOL    HW2  174   0.051   1.046   2.389  0.2354  1.7622  0.7025
   59SOL     OW  175   0.936   3.066   2.419  0.2747  0.6637 -0.3688
   59SOL    HW1  176   0.979   0.086   2.451  2.9549  1.2791  1.7038
   59SOL    HW2  177   0.958   2.987   2.479 -0.1415  1.2086 -0.9619
   60SOL     OW  178   2.733   2.290   0.411  0.1419  0.0510  0.2666
   60SOL    HW1  179   2.782   2.221   0.357 -1.8383 -1.2045  0.8821
   60SOL    HW2  180   2.737   2.267   0.514  0.5687  2.5157  0.7296
   61SOL     OW  181   1.290   1.927   0.610  0.2066  0.1638 -0.2443
   61SOL    HW1  182   1.383   1.909   0.573 -1.4106  1.3869  1.6706
   61SOL    HW2  183   1.260   2.021   0.591 -0.3249 -0.0568  1.8113
   62SOL     OW  184   1.950   2.123   2.364 -0.4088  0.2276 -0.0950
   62SOL    HW1  185   1.986   2.042   2.412 -0.8530  1.5853  0.8740
   62SOL    HW2  186   1.918   2.110   2.271  0.0491  0.3374  1.0924
   63SOL     OW  187   2.086   2.179   0.004  0.0014  0.3176  0.2614
   63SOL    HW1  188   2.138   2.096   0.028 -1.0436 -0.6557  0.1516
   63SOL    HW2  189   2.072   2.182   2.970  0.2963  0.7303  0.6273
   64SOL     OW  190   1.694   0.985   2.573 -0.4572 -0.2446 -0.1661
   64SOL    HW1  191   1.671   1.014   2.476  0.5459  3.7268  0.7756
   64SOL    HW2  192   1.755   0.902   2.580  0.8056 -1.9991  2.0122
   65SOL     OW  193   1.221   2.168   2.863  0.3109  0.0975  0.4960
   65SOL    HW1  194   1.259   2.126   2.776 -0.1588  0.3358 -2.8361
   65SOL    HW2  195   1.278   2.251   2.889  2.6117  1.4621  2.1642
   66SOL     OW  196   0.303   1.545   1.827  0.6994  0.2565 -0.3896
   66SOL    HW1  197   0.340   1.575   1.920  0.5195  0.6697  0.4769
   66SOL    HW2  198   0.265   1.453   1.831 -0.2518 -0.4722 -3.8730
   67SOL     OW  199   2.897   2.755   2.667 -0.1309 -0.3112 -0.3410
   67SOL    HW1  200   2.809   2.750   2.717  1.3098  1.7559  0.2641
   67SOL    HW2  201   2.929   2.853   2.678 -1.6405 -0.1422 -0.6233
   68SOL     OW  202   0.890   2.566   1.409  0.3191  0.1178 -0.5465
   68SOL    HW1  203   0.880   2.668   1.412  0.6762  1.3195 -0.3605
   68SOL    HW2  204   0.980   2.550   1.362  1.6168 -0.0461  0.2632
   69SOL     OW  205   0.728   2.493   0.404  0.6415 -0.0824 -0.2512
   69SOL    HW1  206   0.641   2.512   0.453  0.7585 -2.2531 -1.5522
   69SOL    HW2  207   0.759   2.396   0.430  0.8356 -3.2438  0.6212
   70SOL     OW  208   2.569   0.942   2.849 -0.6396 -0.2370  0.6507
   70SOL    HW1  209   2.642   0.880   2.818 -0.7999  0.7390 -0.7612
   70SOL    HW2  210   2.483   0.892   2.875 -0.0541  0.7373  0.2328
   71SOL     OW  211   0.806   1.054   2.307 -0.2973 -0.5328  0.5430
   71SOL    HW1  212   0.800   0.957   2.335  1.6335  0.3229  1.7657
   71SOL    HW2  213   0.719   1.107   2.317  3.1084  1.3525  0.0590
   72SOL     OW  214   0.210   2.034   0.503 -0.5955 -0.0435  0.3171
   72SOL    HW1  215   0.243   1.934   0.496 -2.2526 -0.9866  0.5831
   72SOL    HW2  216   0.125   2.045   0.558  1.5847 -1.7171  0.1348
   73SOL     OW  217   1.069   1.460   0.292  0.0675  0.2613  0.8180
   73SOL    HW1  218   1.000   1.467   0.215 -1.5702  0.5123 -0.8876
   73SOL    HW2  219   1.033   1.430   0.382  1.7232  0.6904  2.4339
   74SOL     OW  220   2.511   2.759   0.016 -0.4789 -0.0092 -0.8436
   74SOL    HW1  221   2.489   2.672   0.063 -0.0461  0.1534 -4.7186
   74SOL    HW2  222   2.452   2.836   0.056 -2.2341  1.6823  0.4953
   75SOL     OW  223   2.256   1.573   1.973 -0.4528 -0.0763 -0.0865
   75SOL    HW1  224   2.205   1.485   1.958 -1.2953  1.6740 -1.6497
   75SOL    HW2  225   2.263   1.628   1.890  0.3264 -1.8511  0.6389
   76SOL     OW  226   1.864   2.466   1.840 -0.2772 -0.3705 -0.6668
   76SOL    HW1  227   1.896   2.455   1.938 -0.8328 -0.7191  1.5346
   76SOL    HW2  228   1.824   2.561   1.826 -0.4025  5.0329 -1.1746
   77SOL     OW  229   2.588   0.254   1.715 -0.4581 -0.3834  0.3335
   77SOL    HW1  230   2.561   0.349   1.693 -1.5095  1.4195  0.0340
   77SOL    HW2  231   2.676   0.248   1.769 -0.0369 -1.1657  0.6631
   78SOL     OW  232   1.736   0.655   2.873  0.1117  0.8246 -0.4394
   78SOL    HW1  233   1.789   0.603   2.945  2.1539 -0.7318  2.9849
   78SOL    HW2  234   1.763   0.756   2.877  2.9083  1.3346  0.1545
   79SOL     OW  235   2.691   1.684   2.065 -1.1021 -0.4516 -0.0236
   79SOL    HW1  236   2.672   1.755   1.996 -0.2563 -1.3378 -0.8869
   79SOL    HW2  237   2.743   1.613   2.019 -0.1541  1.4772  0.1870
   80SOL     OW  238   1.935   1.221   1.326  0.0896  0.4194 -0.3764
   80SOL    HW1  239   1.956   1.163   1.243 -0.4773  0.1242  1.0426
   80SOL    HW2  240   2.011   1.232   1.391 -1.1073  0.3989  0.2485
   81SOL     OW  241   1.355   0.513   1.554  0.8210 -0.4236  0.3285
   81SOL    HW1  242   1.368   0.612   1.540  1.5332  0.3372  0.6296
   81SOL    HW2  243   1.447   0.475   1.575  0.9597 -0.5182  0.1793
   82SOL     OW  244   1.415   2.399   1.604  0.0887  0.5718 -0.2756
   82SOL    HW1  245   1.456   2.425   1.518 -2.4374 -0.5258  0.3412
   82SOL    HW2  246   1.315   2.424   1.612  1.4605 -1.4620 -1.1369
   83SOL     OW  247   0.331   0.119   0.637 -0.1275 -0.1530  0.0816
   83SOL    HW1  248   0.383   0.034   0.662  0.4731  3.0024  0.3103
   83SOL    HW2  249   0.382   0.161   0.559  0.1075 -2.4283 -0.5422
   84SOL     OW  250   0.136   0.986   2.883  0.4624 -0.2449 -0.2850
   84SOL    HW1  251   0.110   0.892   2.914  1.3954 -1.2221  1.3118
   84SOL    HW2  252   0.083   1.053   2.936 -0.3183  0.4853  0.2335
   85SOL     OW  253   2.758   2.005   1.695  0.3098  0.5531  0.0225
   85SOL    HW1  254   2.701   1.926   1.663  0.7161 -2.4515 -0.4639
   85SOL    HW2  255   2.751   2.082   1.629 -2.4360  1.6465  0.3592
   86SOL     OW  256   2.782   2.261   1.553  0.7160 -0.0754  0.2060
   86SOL    HW1  257   2.882   2.283   1.562  1.2821  4.3388 -1.1040
   86SOL    HW2  258   2.728   2.307   1.623  1.5053  3.4692  0.2399
   87SOL     OW  259   0.478   3.050   2.917  0.4826  0.2254 -0.3210
   87SOL    HW1  260   0.551   2.983   2.929  0.8940  2.1352 -1.2534
   87SOL    HW2  261   0.515   0.058   2.859 -2.3948  0.3720  1.5608
   88SOL     OW  262   0.340   1.969   0.920 -0.0565 -0.0012 -0.3485
   88SOL    HW1  263   0.332   2.018   0.831 -0.0443  0.6861  2.4828
   88SOL    HW2  264   0.416   1.900   0.918 -0.1987  0.1172 -0.1102
   89SOL     OW  265   0.916   0.618   1.572  0.0625  0.3446 -0.4811
   89SOL    HW1  266   0.998   0.674   1.551 -0.6079 -0.1504 -3.1717
   89SOL    HW2  267   0.931   0.551   1.647 -0.4804  0.9599 -1.7456
   90SOL     OW  268   2.250   1.789   1.484  0.1306  0.2291  0.1079
   90SOL    HW1  269   2.325   1.841   1.433 -1.6242  1.8829 -0.0713
   90SOL    HW2  270   2.168   1.765   1.427  1.1590 -0.1203 -0.3873
   91SOL     OW  271   1.374   1.477   0.822 -0.1940 -0.3437 -0.1173
   91SOL    HW1  272   1.288   1.532   0.814  0.6415 -1.7369 -0.2322
   91SOL    HW2  273   1.352   1.379   0.824 -1.9293  3.4381 -0.3916
   92SOL     OW  274   2.168   0.454   0.939  0.1445  0.1755 -0.6828
   92SOL    HW1  275   2.160   0.540   0.887 -2.7499  2.4666 -1.8160
   92SOL    HW2  276   2.184   0.472   1.039 -0.6328  0.3488 -1.2068
   93SOL     OW  277   2.150   1.208   0.137  0.0963 -0.0405 -0.1621
   93SOL    HW1  278   2.123   1.111   0.167 -3.0832 -0.1618  0.2943
   93SOL    HW2  279   2.076   1.264   0.180  1.3949  0.0630  0.2130
   94SOL     OW  280   2.359   2.211   2.361 -0.3040 -0.4548 -0.6372
   94SOL    HW1  281   2.340   2.284   2.294  0.5360 -0.7009 -0.6354
   94SOL    HW2  282   2.358   2.123   2.306 -2.5821 -3.4733 -3.1008
   95SOL     OW  283   1.912   0.316   1.006  0.3768  0.2105  0.3003
   95SOL    HW1  284   1.996   0.322   0.955 -2.7055 -1.1268 -0.9487
   95SOL    HW2  285   1.852   0.237   0.974 -0.3433  1.3842 -1.4722
   96SOL     OW  286   2.888   0.074   1.553  0.2940 -0.4378 -0.1198
   96SOL    HW1  287   2.861   0.021   1.637  1.2889 -0.0933  0.6971
   96SOL    HW2  288   2.811   0.094   1.489 -0.2879  0.3244 -0.3943
   97SOL     OW  289   2.396   0.231   1.131 -0.2257  0.3675 -0.1032
   97SOL    HW1  290   2.424   0.262   1.040 -2.6974 -0.5685 -0.5063
   97SOL    HW2  291   2.359   0.138   1.115  0.6662  2.3762  1.7423
   98SOL     OW  292   1.607   2.202   1.630  0.2283  0.5862 -0.0979
   98SOL    HW1  293   1.697   2.232   1.594  1.0187  1.5962  0.2631
   98SOL    HW2  294   1.541   2.275   1.607 -0.6604 -0.7627  1.4396
   99SOL     OW  295   2.579   2.403   1.688  0.6199 -0.4992 -0.4786
   99SOL    HW1  296   2.516   2.463   1.741  0.2356 -1.7530  1.6938
   99SOL    HW2  297   2.578   2.426   1.588  0.7719 -0.0388  2.2696
  100SOL     OW  298   0.381   1.076   2.970 -0.7698  0.1187  0.0108
  100SOL    HW1  299   0.346   1.105   3.062  0.9577  0.9363  2.5618
  100SOL    HW2  300   0.333   1.126   2.894  1.3801  0.6925 -1.6067
  101SOL     OW  301   1.898   0.459   2.989 -0.4956  0.2147  0.2401
  101SOL    HW1  302   1.968   0.503   2.927  0.8099 -0.4066 -1.6785
  101SOL    HW2  303   1.947   0.413   0.001 -0.4880  0.8999  1.3123
  102SOL     OW  304   0.268   0.606   1.724  0.0621 -0.4762  0.5447
  102SOL    HW1  305   0.255   0.690   1.665 -1.6904 -2.1968 -1.3259
  102SOL    HW2  306   0.263   0.522   1.675 -1.1959  1.1936 -0.8655
  103SOL     OW  307   2.742   1.163   2.353  0.2801  0.0411 -0.3070
  103SOL    HW1  308   2.656   1.211   2.381 -1.3898  1.4982  0.8998
  103SOL    HW2  309   2.780   1.111   2.430 -1.0097 -0.5719 -1.1886
  104SOL     OW  310   0.598   0.321   2.562 -0.0346 -0.0886  0.3083
  104SOL    HW1  311   0.616   0.318   2.661  0.5089 -0.3924 -2.5213
  104SOL    HW2  312   0.679   0.353   2.512 -1.0224 -0.2099  3.2730
  105SOL     OW  313   2.014   1.667   1.397 -0.0425 -0.0826  0.1959
  105SOL    HW1  314   1.970   1.700   1.483  0.1107  1.8540 -0.8694
  105SOL    HW2  315   1.957   1.593   1.357 -0.8994 -0.1447  0.5764
  106SOL     OW  316   2.155   0.258   0.487  0.1355 -0.4177 -0.2467
  106SOL    HW1  317   2.207   0.186   0.440  0.2430 -0.0017 -1.1244
  106SOL    HW2  318   2.084   0.216   0.548  2.1792  1.0971  2.9437
  107SOL     OW  319   3.045   1.482   1.335 -0.4716 -0.9731 -0.4681
  107SOL    HW1  320   0.034   1.555   1.285  0.4586  2.4161 -0.2482
  107SOL    HW2  321   2.945   1.492   1.331  1.5128  0.4468 -2.8022
  108SOL     OW  322   2.732   2.700   1.899  0.5058 -0.7156  0.7601
  108SOL    HW1  323   2.769   2.603   1.900 -0.7083  0.7650 -0.7450
  108SOL    HW2  324   2.694   2.723   1.806 -0.0410  0.5818 -1.0393
  109SOL     OW  325   1.972   0.078   0.654 -0.4704 -0.2210  0.4855
  109SOL    HW1  326   2.020   0.091   0.741  0.7034  0.6769 -0.4568
  109SOL    HW2  327   1.994   3.056   0.616  1.2826  1.6009  1.0277
  110SOL     OW  328   0.373   2.207   2.383  0.0353 -0.0337  0.1200
  110SOL    HW1  329   0.386   2.175   2.480  1.1680  1.9262  2.0578
  110SOL    HW2  330   0.372   2.128   2.316 -1.1012 -1.8949 -1.6866
  111SOL     OW  331   1.627   2.344   1.957 -0.3505  0.5026 -0.1676
  111SOL    HW1  332   1.704   2.312   1.900 -0.1916  1.2326 -0.9835
  111SOL    HW2  333   1.578   2.263   1.998  0.0704 -1.8078  0.8237
  112SOL     OW  334   1.484   2.579   2.969  0.1110  0.0280  0.3398
  112SOL    HW1  335   1.463   2.482   2.999  0.1835  1.6912 -0.8974
  112SOL    HW2  336   1.472   2.592   2.869 -0.2860  0.8599 -1.1436
  113SOL     OW  337   1.997   2.485   1.430  0.5067 -0.0585  0.4250
  113SOL    HW1  338   1.960   2.569   1.473  1.8703 -0.2181  3.2241
  113SOL    HW2  339   1.983   2.479   1.332  1.8491  1.6278  1.0109
  114SOL     OW  340   2.958   1.117   0.572  0.6258  0.1393  0.1029
  114SOL    HW1  341   2.910   1.081   0.654 -2.4712  0.6063 -0.0627
  114SOL    HW2  342   2.990   1.209   0.592 -0.2079 -0.2100  2.5821
  115SOL     OW  343   0.694   1.058   2.996 -0.1476 -0.4091 -0.1289
  115SOL    HW1  344   0.611   1.094   2.953  0.6448 -0.4494 -0.3083
  115SOL    HW2  345   0.675   0.968   3.040 -0.0650 -1.1532  1.9098
  116SOL     OW  346   2.621   1.900   1.908 -0.1180 -0.3128 -0.6544
  116SOL    HW1  347   2.699   1.925   1.843  1.7206  0.3407  0.1574
  116SOL    HW2  348   2.560   1.978   1.923  2.2306  1.4805  1.0951
  117SOL     OW  349   2.627   2.655   0.762 -0.6762 -0.1696  0.2237
  117SOL    HW1  350   2.569   2.635   0.679 -1.0921 -2.3263 -1.0584
  117SOL    HW2  351   2.651   2.755   0.777  1.6022  0.5713 -1.8047
  118SOL     OW  352   1.155   2.151   1.504 -0.2056 -0.0160  0.1835
  118SOL    HW1  353   1.217   2.126   1.580 -1.0623 -3.6244 -0.3948
  118SOL    HW2  354   1.206   2.178   1.420  0.4066  0.6084 -1.7890
  119SOL     OW  355   0.558   1.950   2.860 -0.2855 -0.2276  0.0661
  119SOL    HW1  356   0.467   1.993   2.889 -2.0794  0.1584  1.2533
  119SOL    HW2  357   0.611   1.931   2.944  0.2846  2.0437 -1.0993
  120SOL     OW  358   0.838   0.789   2.929 -0.3210 -0.1651  0.5904
  120SOL    HW1  359   0.871   0.890   2.928 -0.1695  1.5192  2.5209
  120SOL    HW2  360   0.854   0.752   2.834  1.8057 -1.5691 -1.0962
  121SOL     OW  361   1.589   2.652   0.825 -0.1334 -0.0604  0.3638
  121SOL    HW1  362   1.583   2.562   0.779  1.9115  0.8738 -3.8062
  121SOL    HW2  363   1.527   2.719   0.785 -0.3524  0.8076 -0.0140
  122SOL     OW  364   2.196   2.403   1.600 -0.3024  0.6545 -0.1067
  122SOL    HW1  365   2.193   2.439   1.696  2.4180  0.3814  0.7570
  122SOL    HW2  366   2.106   2.425   1.558  1.8532 -1.7550  2.2725
  123SOL     OW  367   0.432   2.984   0.820 -0.8344 -0.0812  0.1232
  123SOL    HW1  368   0.486   2.908   0.858  0.9597  0.1561  0.4936
  123SOL    HW2  369   0.351   2.944   0.768 -3.3024  0.6638 -4.0620
  124SOL     OW  370   2.211   1.269   2.933 -0.2376 -0.0752 -0.7300
  124SOL    HW1  371   2.134   1.249   2.874  2.0199  1.0507  0.8688
  124SOL    HW2  372   2.181   1.266   3.030  2.0582  0.2016 -2.8328
  125SOL     OW  373   0.792   0.951   0.430  0.5198  0.7992  0.3724
  125SOL    HW1  374   0.718   0.976   0.493  0.6936  1.2563  0.7490
  125SOL    HW2  375   0.854   1.032   0.417 -0.0796 -1.0085  1.6269
  126SOL     OW  376   2.684   1.315   0.846  0.5730  0.5671 -0.0850
  126SOL    HW1  377   2.705   1.345   0.752 -0.3905 -1.5140 -0.2147
  126SOL    HW2  378   2.597   1.264   0.853  1.9717  0.5347  0.5523
  127SOL     OW  379   0.142   1.781   1.848  0.2000  0.2980 -0.6208
  127SOL    HW1  380   0.180   1.683   1.837  1.3241 -0.2050 -0.2513
  127SOL    HW2  381   0.196   1.842   1.915  0.4916 -0.8238  0.8695
  128SOL     OW  382   1.189   1.195   3.010  0.2588  0.2680 -0.4233
  128SOL    HW1  383   1.241   1.108   3.027  0.5565  1.6963  0.2155
  128SOL    HW2  384   1.224   1.234   2.921  2.8642  0.5097 -2.0258
  129SOL     OW  385   2.565   1.205   0.572  0.0206 -0.2879 -0.0852
  129SOL    HW1  386   2.530   1.185   0.669  0.4919 -0.7976 -0.3201
  129SOL    HW2  387   2.550   1.121   0.514 -2.0864 -2.6354  0.5777
  130SOL     OW  388   2.443   1.028   1.475  0.4760 -0.2794  0.1009
  130SOL    HW1  389   2.513   0.956   1.492  0.0848  1.8098 -1.6503
  130SOL    HW2  390   2.417   1.026   1.375  0.4560 -0.7294 -1.6293
  131SOL     OW  391   2.893   2.963   2.954 -0.4733  0.6964 -1.0412
  131SOL    HW1  392   2.916   3.027   2.880 -3.2476  1.0835  0.1470
  131SOL    HW2  393   2.979   2.922   3.001  4.3174  0.2013  1.2799
  132SOL     OW  394   2.933   1.928   1.504 -0.3230 -0.4497  0.2810
  132SOL    HW1  395   2.889   1.954   1.592  0.5391 -0.1481 -0.5213
  132SOL    HW2  396   3.033   1.904   1.517 -0.1618  0.7045 -2.5579
  133SOL     OW  397   1.366   0.163   1.253 -0.4837 -0.2278  0.6479
  133SOL    HW1  398   1.465   0.175   1.272 -0.7237  0.5403  0.9706
  133SOL    HW2  399   1.318   0.220   1.323  2.3459  1.2759 -1.7277
  134SOL     OW  400   0.004   1.388   0.223  0.1964  0.5125  0.1675
  134SOL    HW1  401   3.021   1.304   0.214  1.0922  1.7282  0.2879
  134SOL    HW2  402   3.057   1.445   0.138  1.3759  1.9080  0.7254
  135SOL     OW  403   2.364   1.212   1.638 -0.1001 -0.6733 -0.0741
  135SOL    HW1  404   2.405   1.136   1.582  1.0421 -2.2297 -0.9290
  135SOL    HW2  405   2.415   1.300   1.624 -0.0112 -0.4032  0.9398
  136SOL     OW  406   0.135   1.033   0.446  0.3966  0.1067 -0.7089
  136SOL    HW1  407   0.050   1.075   0.487 -2.2239 -0.2619  1.6042
  136SOL    HW2  408   0.181   1.096   0.379  0.6694 -0.2432 -0.4280
  137SOL     OW  409   2.767   0.950   1.264  0.4369  0.1609 -0.2671
  137SOL    HW1  410   2.799   0.919   1.173  1.6403 -0.2417 -0.2684
  137SOL    HW2  411   2.763   1.053   1.263  0.9559  1.9372  0.5438
  138SOL     OW  412   1.523   1.008   1.186 -0.3722  0.1784  0.1752
  138SOL    HW1  413   1.495   0.913   1.158  0.5514 -2.9858 -2.2309
  138SOL    HW2  414   1.604   0.998   1.247  1.2665  1.0225 -1.6801
  139SOL     OW  415   1.673   3.029   0.081 -0.2893  0.2687  0.0607
  139SOL    HW1  416   1.764   2.976   0.078  3.3472 -0.9683  0.3330
  139SOL    HW2  417   1.692   0.046   0.135  0.6686 -2.4376  2.4109
  140SOL     OW  418   1.559   1.743   1.676  0.2384  0.0164  0.0966
  140SOL    HW1  419   1.585   1.648   1.646 -2.0348  0.0962 -1.1243
  140SOL    HW2  420   1.478   1.731   1.739 -0.0079 -1.1501  2.8765
  141SOL     OW  421   1.790   2.330   0.529 -0.3332  0.3507 -0.1504
  141SOL    HW1  422   1.893   2.327   0.542 -0.3086 -0.8285 -1.5407
  141SOL    HW2  423   1.762   2.243   0.486  2.5433  0.2604  5.0444
  142SOL     OW  424   0.618   0.979   0.199  0.1203 -0.1617  0.1001
  142SOL    HW1  425   0.670   0.971   0.286 -0.4586  1.1227  3.9916
  142SOL    HW2  426   0.590   0.892   0.159  1.8936 -0.1851 -2.0083
  143SOL     OW  427   0.336   2.087   2.969  0.7990 -0.5733 -0.0621
  143SOL    HW1  428   0.327   2.185   2.973  0.9795 -4.1907 -0.4086
  143SOL    HW2  429   0.246   2.050   2.931 -3.4948  0.0331 -0.0260
  144SOL     OW  430   1.385   2.960   1.152  0.3772 -0.1006  0.3783
  144SOL    HW1  431   1.356   3.043   1.201 -1.0841 -1.2714  0.5632
  144SOL    HW2  432   1.475   2.966   1.109  0.6252 -1.4169 -0.5033
  145SOL     OW  433   2.370   1.379   0.529 -0.2367  0.0538 -0.8437
  145SOL    HW1  434   2.397   1.457   0.469 -0.3881  1.5650  1.2224
  145SOL    HW2  435   2.451   1.310   0.542 -0.1869 -4.8784 -1.8108
  146SOL     OW  436   2.857   2.053   0.270 -0.5599 -0.0397  0.0547
  146SOL    HW1  437   2.794   2.087   0.197 -0.7384  1.0618  2.7709
  146SOL    HW2  438   2.957   2.075   0.259  3.3212 -1.7494  1.6422
  147SOL     OW  439   2.355   2.788   1.651 -0.0318 -0.3544 -0.2326
  147SOL    HW1  440   2.257   2.780   1.675 -0.2116 -1.5429  0.1518
  147SOL    HW2  441   2.371   2.817   1.557  0.5661  1.7268  2.4161
  148SOL     OW  442   1.282   2.628   1.938 -0.0776  0.3831 -0.3468
  148SOL    HW1  443   1.377   2.602   1.912 -4.2254  1.2171  2.0530
  148SOL    HW2  444   1.213   2.564   1.907  2.3852 -0.1840  3.1217
  149SOL     OW  445   1.756   0.486   2.239  0.4666  0.3921 -0.4046
  149SOL    HW1  446   1.767   0.496   2.138  0.4450  1.3497  0.2328
  149SOL    HW2  447   1.670   0.529   2.273 -1.9225 -1.1079 -0.4935
  150SOL     OW  448   0.507   2.844   0.430 -0.5073  0.1674  0.0829
  150SOL    HW1  449   0.533   2.818   0.528  1.7548 -1.4824  0.0449
  150SOL    HW2  450   0.427   2.797   0.397  2.2576 -0.7121 -0.2577
  151SOL     OW  451   3.057   1.521   3.043 -0.3537  0.0836  0.4868
  151SOL    HW1  452   3.005   1.607   3.063 -0.6096 -1.6893 -0.8665
  151SOL    HW2  453   3.025   1.479   2.956 -3.5857 -1.1162  1.7652
  152SOL     OW  454   2.919   0.125   0.638  0.0515 -0.1474  0.5054
  152SOL    HW1  455   2.906   0.092   0.736 -0.9036 -1.0532 -0.7913
  152SOL    HW2  456   2.896   0.225   0.630 -4.5535  0.0141  0.7397
  153SOL     OW  457   2.303   3.047   1.100  0.5287  0.4832 -0.0222
  153SOL    HW1  458   2.219   3.026   1.160 -2.3587  0.8055  1.3697
  153SOL    HW2  459   2.361   2.965   1.081  1.3621  0.3608 -0.0392
  154SOL     OW  460   0.982   0.451   1.789 -0.1182 -0.0872  0.2791
  154SOL    HW1  461   1.082   0.454   1.800 -0.3806 -2.7409  2.2244
  154SOL    HW2  462   0.932   0.431   1.876  1.1216 -1.1255  0.2668
  155SOL     OW  463   2.841   0.879   1.021  0.0647  0.0704  0.1385
  155SOL    HW1  464   2.817   0.916   0.925  0.7476  0.1343 -1.9869
  155SOL    HW2  465   2.935   0.917   1.035  0.0191  1.1892 -1.0122
  156SOL     OW  466   0.059   1.972   0.062 -0.0479 -0.1193 -0.1940
  156SOL    HW1  467   0.123   2.048   0.047  0.8310 -1.2483  1.2042
  156SOL    HW2  468   3.063   1.958   3.050 -0.4827 -0.8400  2.3978
  157SOL     OW  469   0.871   0.481   0.266 -0.6331 -0.0221  0.0353
  157SOL    HW1  470   0.905   0.411   0.332 -3.2282 -0.1902 -1.0194
  157SOL    HW2  471   0.777   0.448   0.244 -0.9746 -0.1477  1.8106
  158SOL     OW  472   2.660   0.121   2.766  0.0964 -0.2977  0.1505
  158SOL    HW1  473   2.658   0.224   2.760 -3.2500  1.6112  0.6296
  158SOL    HW2  474   2.704   0.095   2.677  0.1907 -0.1573  0.8633
  159SOL     OW  475   0.757   0.203   0.031  0.0994  0.0844  0.0924
  159SOL    HW1  476   0.856   0.231   0.020  0.5253  1.7292  0.7650
  159SOL    HW2  477   0.709   0.263   0.097 -0.9651  0.5286 -1.4749
  160SOL     OW  478   1.127   1.756   3.059 -0.5780 -0.3708  0.5478
  160SOL    HW1  479   1.079   1.841   3.023 -0.3812  1.1661  1.9876
  160SOL    HW2  480   1.099   1.750   0.087  1.4236  1.4690 -0.9242
  161SOL     OW  481   2.874   1.640   2.762  0.5737 -0.0452  0.2091
  161SOL    HW1  482   2.791   1.681   2.801  1.6459 -0.6443  0.2142
  161SOL    HW2  483   2.866   1.638   2.657 -0.4766 -2.4109 -2.4239
  162SOL     OW  484   0.370   2.402   1.399 -0.4148  0.1328  0.0204
  162SOL    HW1  485   0.428   2.475   1.443  1.1686  0.1518 -0.7880
  162SOL    HW2  486   0.279   2.435   1.377  0.8194 -0.7073 -2.1603
  163SOL     OW  487   1.974   0.229   2.742 -0.2153  0.1960 -0.1113
  163SOL    HW1  488   1.871   0.248   2.756 -1.3439 -0.7741 -0.8208
  163SOL    HW2  489   1.994   0.193   2.647  1.1151 -2.5289 -1.3152
  164SOL     OW  490   2.796   1.391   0.607  0.4249  0.2583 -0.2212
  164SOL    HW1  491   2.861   1.420   0.535 -1.4821 -0.1791 -1.0631
  164SOL    HW2  492   2.715   1.347   0.560 -0.8261  1.1321 -0.9366
  165SOL     OW  493   0.240   0.003   1.712  0.0899 -1.0926 -0.1342
  165SOL    HW1  494   0.173   3.017   1.767  3.2424 -0.7385  1.2166
  165SOL    HW2  495   0.339   3.055   1.739  2.0402  2.6618 -0.3922
  166SOL     OW  496   2.098   0.667   0.763 -0.1025  0.1899  0.1996
  166SOL    HW1  497   2.104   0.684   0.662  1.8578  1.9787  0.9132
  166SOL    HW2  498   2.042   0.741   0.816 -0.6665  3.4201  0.9183
  167SOL     OW  499   0.453   0.553   0.351  0.0004  0.4211  0.0149
  167SOL    HW1  500   0.538   0.602   0.375  0.0295 -0.4354  1.0565
  167SOL    HW2  501   0.385   0.560   0.428  0.8221 -0.9485 -1.6819
  168SOL     OW  502   1.821   2.938   1.929  0.1544 -0.4156  0.3541
  168SOL    HW1  503   1.774   3.003   1.989  1.7693 -0.1498  2.2258
  168SOL    HW2  504   1.923   2.962   1.932  1.6815 -0.4786  1.5114
  169SOL     OW  505   0.968   1.233   0.777  0.1507 -0.4187 -0.2043
  169SOL    HW1  506   0.999   1.195   0.690 -0.9890 -0.3318  1.0070
  169SOL    HW2  507   1.050   1.251   0.836  1.4944  1.8832  1.8167
  170SOL     OW  508   0.087   0.242   1.261 -0.4607 -1.1377  0.0389
  170SOL    HW1  509   0.138   0.186   1.331 -0.7835 -0.6570 -1.7940
  170SOL    HW2  510   0.068   0.335   1.303 -0.9057 -0.4591 -0.0646
  171SOL     OW  511   0.890   2.647   2.012 -0.6367  0.0475  0.0786
  171SOL    HW1  512   0.804   2.600   1.992  3.4634  2.9848  0.0122
  171SOL    HW2  513   0.955   2.612   1.935  1.1650 -1.2921 -1.2345
  172SOL     OW  514   0.540   2.213   1.288  0.4818 -0.3543 -0.1314
  172SOL    HW1  515   0.620   2.273   1.272 -0.2892  0.0422  1.7375
  172SOL    HW2  516   0.467   2.253   1.347  0.4995 -1.8928 -1.1974
  173SOL     OW  517   1.315   0.996   2.716  0.8622  0.0540  0.0699
  173SOL    HW1  518   1.220   0.964   2.708 -1.3443  2.5140  0.9398
  173SOL    HW2  519   1.373   0.939   2.779  1.5733 -2.0925 -0.3409
  174SOL     OW  520   1.617   3.061   2.884 -0.3660  0.0625  0.0082
  174SOL    HW1  521   1.627   3.044   2.983  0.2848 -0.1854 -0.4020
  174SOL    HW2  522   1.684   0.060   2.848  0.1072  0.4760 -0.6902
  175SOL     OW  523   1.652   2.480   0.284 -0.3382 -0.0945  0.4082
  175SOL    HW1  524   1.553   2.471   0.286  0.1517 -2.2640  1.9940
  175SOL    HW2  525   1.695   2.400   0.327  1.5050 -2.2098  0.4054
  176SOL     OW  526   1.367   0.096   2.762 -0.2344  0.2926  0.1032
  176SOL    HW1  527   1.377   0.188   2.799 -0.4550 -0.4480 -0.6743
  176SOL    HW2  528   1.443   0.044   2.808 -0.7511 -1.4807  1.4116
  177SOL     OW  529   1.179   1.612   0.719 -0.1566 -0.4651 -0.7438
  177SOL    HW1  530   1.138   1.686   0.774 -1.4841 -0.0098 -1.4919
  177SOL    HW2  531   1.100   1.561   0.676 -0.6447  1.1055  0.0208
  178SOL     OW  532   2.939   2.105   2.719 -0.1754  0.0820 -0.0209
  178SOL    HW1  533   2.988   2.173   2.775  0.4841 -0.7662 -2.3088
  178SOL    HW2  534   2.957   2.119   2.620 -3.0189 -1.8678  1.4191
  179SOL     OW  535   0.393   2.330   2.762 -0.2493 -0.0520 -0.1674
  179SOL    HW1  536   0.471   2.385   2.722 -0.5182  0.3984 -3.2706
  179SOL    HW2  537   0.382   2.338   2.862  1.2005 -1.6765 -0.0085
  180SOL     OW  538   1.549   1.620   0.965  0.1872  0.1251 -0.2352
  180SOL    HW1  539   1.542   1.715   0.931 -0.7742 -1.0218  0.0930
  180SOL    HW2  540   1.488   1.570   0.902 -2.1113  1.9522 -0.6368
  181SOL     OW  541   2.141   0.793   2.116  0.1971  0.4582  0.1133
  181SOL    HW1  542   2.067   0.799   2.184  0.5418 -0.9210 -0.3357
  181SOL    HW2  543   2.184   0.881   2.104 -1.7309 -1.6060  0.9214
  182SOL     OW  544   2.976   3.003   2.682  0.2946  0.1491  0.2096
  182SOL    HW1  545   2.911   3.064   2.632  0.1012 -0.8917 -1.1820
  182SOL    HW2  546   0.007   3.033   2.683 -0.5336 -0.7029 -0.3484
  183SOL     OW  547   1.501   0.596   2.308 -0.0058  0.1143 -0.2151
  183SOL    HW1  548   1.444   0.569   2.389 -2.7789  2.5536 -2.4529
  183SOL    HW2  549   1.454   0.565   2.219 -2.1280 -1.7478 -0.0073
  184SOL     OW  550   0.637   0.605   1.608  0.2858 -0.4869 -0.5139
  184SOL    HW1  551   0.624   0.643   1.698 -1.2183 -2.1282 -1.2219
  184SOL    HW2  552   0.733   0.609   1.579 -2.6138 -0.6130  1.3258
  185SOL     OW  553   1.923   0.929   0.653 -0.1457  0.2045 -0.9292
  185SOL    HW1  554   1.894   1.004   0.593  0.2782 -1.6345 -0.6590
  185SOL    HW2  555   1.971   0.854   0.600  0.2306  0.5375 -0.5345
  186SOL     OW  556   0.130   2.005   2.827  0.3203  0.2297  0.5314
  186SOL    HW1  557   0.123   1.912   2.785 -1.1815  3.1341  1.2326
  186SOL    HW2  558   0.056   2.074   2.795 -1.3277  4.1725 -3.0179
  187SOL     OW  559   2.503   1.481   0.304 -0.1458  0.3714  0.8464
  187SOL    HW1  560   2.495   1.581   0.278  1.3858  0.5320  1.4658
  187SOL    HW2  561   2.456   1.418   0.238  3.1602 -0.7757  0.9720
  188SOL     OW  562   0.114   1.611   0.926  0.2289 -0.4553  0.4147
  188SOL    HW1  563   0.198   1.634   0.874 -0.0083  2.2333 -0.2581
  188SOL    HW2  564   0.031   1.656   0.897  1.9021 -0.7332  3.7773
  189SOL     OW  565   2.392   0.385   0.427 -0.5472 -0.1209  0.6579
  189SOL    HW1  566   2.307   0.334   0.444 -0.8427 -3.3984 -1.3675
  189SOL    HW2  567   2.427   0.347   0.335 -3.0091 -2.1025 -2.6820
  190SOL     OW  568   1.066   1.644   2.025 -0.2269 -0.2926 -0.5832
  190SOL    HW1  569   1.097   1.578   2.097 -1.4481  1.3927 -1.0097
  190SOL    HW2  570   1.009   1.600   1.962  0.6526  1.4791  1.8794
  191SOL     OW  571   2.921   0.495   1.725 -0.0972 -0.1668  0.1007
  191SOL    HW1  572   2.894   0.421   1.789  0.9757 -1.1699  0.3642
  191SOL    HW2  573   3.003   0.544   1.761  1.0996  0.8816  1.8548
  192SOL     OW  574   1.758   1.327   1.502 -0.5776  0.2431  0.4356
  192SOL    HW1  575   1.801   1.291   1.417  0.8767 -1.4023  3.0293
  192SOL    HW2  576   1.836   1.341   1.569  1.4705  1.3693  0.7319
  193SOL     OW  577   1.063   0.920   0.695 -0.3626  0.1519 -0.2831
  193SOL    HW1  578   1.004   0.865   0.632  0.2108 -0.3443 -0.6797
  193SOL    HW2  579   1.030   0.898   0.790 -2.9547 -1.7393  0.9931
  194SOL     OW  580   1.144   2.532   1.320 -0.0456 -0.2228 -0.8308
  194SOL    HW1  581   1.139   2.598   1.242  0.0398  0.0118  1.2690
  194SOL    HW2  582   1.211   2.458   1.297 -2.6565  1.0272 -0.5776
  195SOL     OW  583   2.213   0.329   2.865  0.8158  0.2106 -0.6934
  195SOL    HW1  584   2.200   0.310   2.969  1.5178 -2.8951 -0.4693
  195SOL    HW2  585   2.133   0.289   2.814 -0.4058 -0.1913 -0.2481
  196SOL     OW  586   1.149   2.428   1.580 -0.2498 -0.2522  1.1539
  196SOL    HW1  587   1.132   2.327   1.577  0.9646  2.5957 -0.5485
  196SOL    HW2  588   1.134   2.464   1.487  1.5991 -1.0970  1.6572
  197SOL     OW  589   0.846   2.676   0.583  0.2185  0.0261 -0.3105
  197SOL    HW1  590   0.819   2.611   0.510  1.6646 -0.6312  2.6591
  197SOL    HW2  591   0.933   2.720   0.566 -2.9379 -2.9717 -3.4067
  198SOL     OW  592   0.907   0.724   0.563 -0.4216  0.4092 -0.4923
  198SOL    HW1  593   0.849   0.657   0.610  0.5487  0.2942  0.5146
  198SOL    HW2  594   0.858   0.797   0.516 -1.8958 -1.4482  0.5021
  199SOL     OW  595   0.109   2.615   1.669  0.3863 -0.2249 -0.5602
  199SOL    HW1  596   0.015   2.584   1.692 -1.7731  2.8150 -0.2597
  199SOL    HW2  597   0.170   2.538   1.680 -3.2460 -0.1921  0.5565
  200SOL     OW  598   2.235   1.903   2.592  0.0161  0.1363 -0.2043
  200SOL    HW1  599   2.297   1.868   2.521  2.4943 -1.7845  2.2020
  200SOL    HW2  600   2.228   1.844   2.675  0.0642  1.6747  0.5555
  201SOL     OW  601   2.888   2.199   1.213 -0.2113 -0.0215  0.2107
  201SOL    HW1  602   2.923   2.109   1.188  0.5431  1.7073  0.1729
  201SOL    HW2  603   2.863   2.195   1.312  1.1288 -3.1386  0.8745
  202SOL     OW  604   2.739   0.087   0.418  0.6189 -0.8073  0.3303
  202SOL    HW1  605   2.809   0.109   0.487  0.1890 -0.6505 -0.7379
  202SOL    HW2  606   2.775   0.048   0.334  2.9253  2.0145 -0.0911
  203SOL     OW  607   1.251   2.085   1.982  0.2229  0.1120 -0.4233
  203SOL    HW1  608   1.233   1.995   2.034 -1.8908  0.9119  0.2263
  203SOL    HW2  609   1.342   2.126   2.002 -3.1873 -0.9458 -2.4429
  204SOL     OW  610   1.218   1.854   1.557  0.2249  0.1849 -0.0066
  204SOL    HW1  611   1.269   1.929   1.603  2.1265  0.4059  1.6177
  204SOL    HW2  612   1.130   1.819   1.603 -2.7228  0.5060 -2.4490
  205SOL     OW  613   0.973   2.061   1.676 -0.1595 -0.1067  0.3914
  205SOL    HW1  614   1.037   2.081   1.597  1.2045 -0.9294  0.5539
  205SOL    HW2  615   0.966   2.141   1.738 -0.8718 -1.1637 -0.8127
  206SOL     OW  616   0.275   0.523   2.729 -0.1965 -0.8859  0.2832
  206SOL    HW1  617   0.356   0.549   2.672 -1.0136 -0.7468 -1.5058
  206SOL    HW2  618   0.207   0.485   2.665 -1.3289  0.2371  0.5061
  207SOL     OW  619   1.274   0.043   1.634 -0.0196 -0.4960 -0.1141
  207SOL    HW1  620   1.185   0.046   1.582  0.0599 -1.4169 -2.4741
  207SOL    HW2  621   1.268   0.095   1.724 -1.2278 -2.7446 -0.3678
  208SOL     OW  622   0.649   2.494   1.970 -0.0905  0.2586 -0.5876
  208SOL    HW1  623   0.597   2.520   2.055  1.6024 -2.0156  2.1622
  208SOL    HW2  624   0.624   2.544   1.884  3.4280  2.0521 -2.1219
  209SOL     OW  625   1.724   0.657   0.141 -0.0931 -0.4796  0.4074
  209SOL    HW1  626   1.749   0.568   0.097 -2.5421  0.1298  1.0840
  209SOL    HW2  627   1.624   0.678   0.119 -0.9522  2.4969  0.6490
  210SOL     OW  628   0.002   0.481   0.849 -0.1838 -0.0229  0.3895
  210SOL    HW1  629   2.971   0.497   0.866  0.4595 -2.7076  1.1017
  210SOL    HW2  630   0.062   0.564   0.873  2.1498  1.3813 -0.7886
  211SOL     OW  631   0.873   0.607   1.290 -0.4515 -0.3927  0.6005
  211SOL    HW1  632   0.965   0.602   1.245  3.3233 -1.5656  0.5630
  211SOL    HW2  633   0.877   0.589   1.388  0.8497  3.2312 -1.2414
  212SOL     OW  634   1.485   1.892   0.902  0.3473 -0.1843  0.0194
  212SOL    HW1  635   1.388   1.914   0.875  0.2061 -1.6584 -0.8229
  212SOL    HW2  636   1.525   1.953   0.970  1.4111 -0.2210 -2.7009
  213SOL     OW  637   1.972   0.226   1.909 -0.4172  0.1039  0.5025
  213SOL    HW1  638   1.964   0.232   1.809 -1.3849 -0.4826  2.7762
  213SOL    HW2  639   2.005   0.135   1.931 -0.8937  0.5637 -0.3549
  214SOL     OW  640   1.135   2.421   2.631  0.2603 -0.0638  0.4801
  214SOL    HW1  641   1.128   2.479   2.715 -0.6169 -0.7945 -0.1810
  214SOL    HW2  642   1.141   2.481   2.546 -0.3333  0.5353  2.2445
  215SOL     OW  643   2.745   1.545   1.246  0.0066  0.4607 -0.0176
  215SOL    HW1  644   2.770   1.638   1.275  1.4454 -1.2469 -3.3816
  215SOL    HW2  645   2.742   1.537   1.146 -2.2895  0.3465  1.2218
  216SOL     OW  646   0.303   0.288   2.250 -0.0464  0.2087 -0.2811
  216SOL    HW1  647   0.341   0.268   2.342  3.2803  1.4318  0.2341
  216SOL    HW2  648   0.362   0.355   2.203  1.6738 -1.3769 -0.5350
  217SOL     OW  649   2.813   0.395   0.108 -0.3199  0.6186  0.6093
  217SOL    HW1  650   2.770   0.468   0.054 -0.4983 -1.4099 -0.9096
  217SOL    HW2  651   2.862   0.325   0.049  1.0667 -2.0821 -1.2807
  218SOL     OW  652   1.839   1.760   2.093  0.1686  0.0738  0.3448
  218SOL    HW1  653   1.934   1.719   2.112  0.8231 -0.6537 -1.3928
  218SOL    HW2  654   1.782   1.761   2.179 -1.4308 -0.8517  1.1814
  219SOL     OW  655   1.829   0.725   0.384  0.0676 -0.6938  0.1440
  219SOL    HW1  656   1.802   0.687   0.293 -1.0849 -1.8100 -2.0335
  219SOL    HW2  657   1.755   0.781   0.427  0.7112 -1.9032  0.2364
  220SOL     OW  658   1.607   2.055   1.069  0.0301  0.2038  0.2798
  220SOL    HW1  659   1.549   2.071   1.153  0.0653  0.4604 -0.3237
  220SOL    HW2  660   1.694   2.012   1.104  0.2698 -1.6494  0.3877
  221SOL     OW  661   0.300   0.748   0.094 -0.0068 -0.1878  1.2043
  221SOL    HW1  662   0.313   0.700   0.181  1.9480  2.1884 -2.3048
  221SOL    HW2  663   0.234   0.824   0.108 -0.8306  2.6897 -1.8678
  222SOL     OW  664   0.874   2.835   1.482 -0.2851 -0.2235 -0.0172
  222SOL    HW1  665   0.878   2.846   1.581 -2.5326 -0.1823 -3.6279
  222SOL    HW2  666   0.838   2.921   1.434  1.8090  3.1755  2.0622
  223SOL     OW  667   1.574   0.479   2.738 -0.7510  0.1772 -0.0361
  223SOL    HW1  668   1.518   0.429   2.805  1.2749  1.7879 -1.5844
  223SOL    HW2  669   1.626   0.555   2.777 -0.0197  1.3830 -1.9742
  224SOL     OW  670   2.953   0.612   1.151 -0.4464 -0.0692  0.4685
  224SOL    HW1  671   2.910   0.518   1.146 -0.5547  1.2674 -0.5354
  224SOL    HW2  672   2.912   0.661   1.226 -1.1795 -0.2712 -1.9397
  225SOL     OW  673   1.023   1.264   1.384  0.3160  0.7222  0.3581
  225SOL    HW1  674   0.928   1.300   1.380 -0.9387  0.0456  0.8022
  225SOL    HW2  675   1.089   1.340   1.394 -2.2572 -2.4834  0.1473
  226SOL     OW  676   1.051   0.084   0.350 -0.3498 -0.1329 -0.3284
  226SOL    HW1  677   1.110   0.122   0.278 -1.6663 -1.2897  1.2877
  226SOL    HW2  678   1.109   0.029   0.413  0.7395  1.1033 -1.3913
  227SOL     OW  679   0.514   1.537   1.387 -0.5676  0.3816 -0.4134
  227SOL    HW1  680   0.608   1.560   1.355  1.3487  0.1904  0.2744
  227SOL    HW2  681   0.446   1.539   1.309 -2.8365  2.3134  1.6739
  228SOL     OW  682   0.351   2.796   1.330 -0.6838 -0.2927  0.8505
  228SOL    HW1  683   0.424   2.719   1.330  2.3084 -1.5292  2.7072
  228SOL    HW2  684   0.334   2.819   1.430 -0.7563  0.4662  0.4232
  229SOL     OW  685   2.282   0.823   0.305  0.5914  0.0033  0.0861
  229SOL    HW1  686   2.346   0.756   0.352 -0.2643 -0.0575  1.4357
  229SOL    HW2  687   2.338   0.887   0.250 -0.4692 -0.9338  0.4309
  230SOL     OW  688   0.384   1.149   1.754  0.4124  0.0037 -0.3032
  230SOL    HW1  689   0.415   1.050   1.749 -3.8577 -2.8457  0.0544
  230SOL    HW2  690   0.459   1.213   1.770 -2.0861  2.1981  1.1491
  231SOL     OW  691   1.306   2.281   1.302  0.4358  0.2978  0.0504
  231SOL    HW1  692   1.360   2.349   1.353 -0.3750  0.7803  0.0751
  231SOL    HW2  693   1.321   2.289   1.201  0.6874  0.9956  0.4235
  232SOL     OW  694   2.208   2.361   0.394 -0.4002 -0.4984 -0.4584
  232SOL    HW1  695   2.160   2.378   0.481 -1.3593  1.2375  0.0036
  232SOL    HW2  696   2.170   2.427   0.323  2.3271 -0.8042  1.5367
  233SOL     OW  697   0.971   2.285   2.881 -0.4269  0.3909  0.5787
  233SOL    HW1  698   0.995   2.331   2.968  0.0577  0.6403 -0.2026
  233SOL    HW2  699   1.058   2.238   2.857  0.6533  1.1119  0.7801
  234SOL     OW  700   1.180   0.473   2.223 -0.1466  0.4769  0.0517
  234SOL    HW1  701   1.271   0.492   2.185  3.1076 -0.1945 -2.7779
  234SOL    HW2  702   1.139   0.393   2.177  0.2732  1.9560  2.3732
  235SOL     OW  703   0.020   2.235   0.308  0.8698  0.4734  0.2815
  235SOL    HW1  704   0.004   2.333   0.338 -1.0806 -1.0181 -1.8619
  235SOL    HW2  705   0.057   2.174   0.375 -0.0602  0.5400 -1.0067
  236SOL     OW  706   1.928   2.826   2.298  0.2670  0.2989 -0.1431
  236SOL    HW1  707   1.857   2.770   2.249 -0.1805 -1.3912  0.6124
  236SOL    HW2  708   1.974   2.765   2.366  1.9229  2.7547 -0.7423
  237SOL     OW  709   1.948   1.311   1.707  0.5076 -0.1288  0.4002
  237SOL    HW1  710   2.022   1.288   1.643 -0.5988  0.7162  0.9732
  237SOL    HW2  711   1.931   1.228   1.764  2.1581 -2.1967  2.6172
  238SOL     OW  712   2.015   0.005   2.252 -0.1759  0.1851  0.1018
  238SOL    HW1  713   1.931   0.025   2.198 -2.2226 -2.6437  0.0470
  238SOL    HW2  714   1.997   2.974   2.282  1.0375  1.5890 -1.7940
  239SOL     OW  715   0.427   1.885   1.693 -0.0420 -0.4480 -0.2729
  239SOL    HW1  716   0.393   1.942   1.611 -1.6881  2.4116 -1.0990
  239SOL    HW2  717   0.496   1.816   1.668  1.6622  2.2665  0.0966
  240SOL     OW  718   0.150   2.524   0.750 -0.1667 -0.1257  0.3149
  240SOL    HW1  719   0.230   2.588   0.732 -0.3401  3.1028  0.3274
  240SOL    HW2  720   0.080   2.537   0.679  0.8532  1.1243  2.7251
  241SOL     OW  721   1.485   2.098   0.127  0.1866  0.5793  0.6055
  241SOL    HW1  722   1.518   2.073   0.220  1.2862  1.2814  0.9163
  241SOL    HW2  723   1.489   2.019   0.061  1.1885  0.2740 -3.3232
  242SOL     OW  724   1.869   1.097   0.444  0.0838  0.4729  0.4346
  242SOL    HW1  725   1.944   1.058   0.388  0.4186  1.7473  0.7271
  242SOL    HW2  726   1.795   1.120   0.377  0.7173 -1.1814  0.5788
  243SOL     OW  727   0.922   0.083   1.748  0.1165  0.1374 -0.5168
  243SOL    HW1  728   0.961   0.138   1.674 -1.7578  2.2364 -0.8910
  243SOL    HW2  729   0.983   0.077   1.831  0.4616 -1.5525  3.4822
  244SOL     OW  730   1.758   2.852   2.731 -0.1494 -0.0969  0.1963
  244SOL    HW1  731   1.694   2.921   2.766  0.0663  0.0830 -1.7659
  244SOL    HW2  732   1.761   2.866   2.631  1.0243 -0.4656 -0.0523
  245SOL     OW  733   1.234   2.917   3.058  1.0485  0.0845  0.7053
  245SOL    HW1  734   1.214   2.910   2.956 -0.9693 -1.8831  0.5750
  245SOL    HW2  735   1.320   2.868   0.012 -0.3791  0.4277 -0.4316
  246SOL     OW  736   1.185   1.209   2.132  0.0481  0.3356  0.4392
  246SOL    HW1  737   1.273   1.166   2.166  0.3434  0.4719  0.0718
  246SOL    HW2  738   1.108   1.194   2.200 -1.2365  0.4085  2.5335
  247SOL     OW  739   0.027   0.662   2.106 -0.3409  0.4571  0.0216
  247SOL    HW1  740   0.107   0.718   2.137 -1.4087  0.2200  1.9993
  247SOL    HW2  741   3.001   0.706   2.128 -0.7127 -1.4651 -1.0517
  248SOL     OW  742   0.621   0.784   1.833  0.2558 -0.1198  0.3310
  248SOL    HW1  743   0.659   0.835   1.914 -2.2115 -0.5857 -1.0836
  248SOL    HW2  744   0.596   0.854   1.761 -0.8508  1.8075 -0.2955
  249SOL     OW  745   2.203   0.559   0.142 -0.1823 -0.1004 -0.7589
  249SOL    HW1  746   2.155   0.473   0.116 -0.0257  0.9778 -1.9897
  249SOL    HW2  747   2.223   0.574   0.242  0.4353 -2.0282  3.4113
  250SOL     OW  748   3.018   0.405   0.429 -0.1729 -0.5543 -0.2480
  250SOL    HW1  749   3.055   0.402   0.331  0.9561  0.3878  2.9631
  250SOL    HW2  750   0.022   0.376   0.497 -0.0323  2.4021  0.3302
  251SOL     OW  751   0.977   0.646   2.244 -0.2094 -0.3378  0.1195
  251SOL    HW1  752   1.061   0.585   2.239  0.4112  1.6646 -0.7215
  251SOL    HW2  753   0.959   0.690   2.149 -1.0976  0.4853 -0.7725
  252SOL     OW  754   1.380   1.678   1.880  0.3745  0.3172  0.1738
  252SOL    HW1  755   1.341   1.755   1.934  3.1615  0.3275  0.1415
  252SOL    HW2  756   1.311   1.633   1.818  0.5445 -0.0859 -3.3544
  253SOL     OW  757   1.509   2.549   1.824 -0.5011 -0.8178  0.5287
  253SOL    HW1  758   1.478   2.504   1.739 -0.3538 -1.9993 -0.6455
  253SOL    HW2  759   1.569   2.484   1.877  0.0825 -0.9294 -1.0207
  254SOL     OW  760   0.788   2.094   2.254  0.6175  0.5061 -0.1448
  254SOL    HW1  761   0.881   2.056   2.236 -0.1168  0.6685  0.6972
  254SOL    HW2  762   0.773   2.173   2.191  1.3774 -1.5628 -0.2543
  255SOL     OW  763   1.331   0.592   0.556 -0.1621 -0.2259  0.1555
  255SOL    HW1  764   1.283   0.611   0.645  0.3882 -0.4247 -1.3444
  255SOL    HW2  765   1.259   0.599   0.482 -2.2569 -0.0100 -1.9010
  256SOL     OW  766   1.692   2.375   1.247  0.4944 -0.1963 -0.6131
  256SOL    HW1  767   1.783   2.416   1.221 -1.3373  0.3854 -0.2945
  256SOL    HW2  768   1.704   2.280   1.281  0.6689 -3.6239  1.4253
  257SOL     OW  769   0.367   2.056   2.594 -0.2498  0.1008 -0.5740
  257SOL    HW1  770   0.344   2.095   2.685  0.1962 -2.0081 -0.8934
  257SOL    HW2  771   0.300   1.985   2.559  0.4800  0.6463  1.2570
  258SOL     OW  772   0.693   0.578   2.189 -0.2334 -0.4318  0.1410
  258SOL    HW1  773   0.774   0.637   2.176  1.5486 -0.8896  0.0825
  258SOL    HW2  774   0.685   0.556   2.289  0.8172  0.8457  1.1168
  259SOL     OW  775   1.344   0.843   2.440  0.2082 -0.6015 -0.2261
  259SOL    HW1  776   1.323   0.906   2.517  1.4392 -1.8621 -1.1750
  259SOL    HW2  777   1.406   0.767   2.466 -2.2258  1.7050  0.9987
  260SOL     OW  778   1.630   0.739   0.843 -0.0285  0.2266 -0.1871
  260SOL    HW1  779   1.538   0.778   0.825 -0.6916  2.3118  0.9190
  260SOL    HW2  780   1.636   0.643   0.813 -1.7492 -1.9855 -0.2578
  261SOL     OW  781   0.854   0.454   2.884  0.0187 -0.0406  0.2671
  261SOL    HW1  782   0.925   0.398   2.932 -0.8660  2.3417  0.7931
  261SOL    HW2  783   0.808   0.396   2.811  0.4659 -1.2206  2.0898
  262SOL     OW  784   2.467   2.987   2.763 -0.8731 -0.1173  0.5886
  262SOL    HW1  785   2.543   3.058   2.764  0.3101  0.0549 -0.0550
  262SOL    HW2  786   2.409   2.993   2.676  0.9092  0.4736  1.7914
  263SOL     OW  787   0.707   1.952   3.058  0.3565  0.3656  0.0545
  263SOL    HW1  788   0.787   1.903   3.016 -0.3878 -2.6061 -0.8461
  263SOL    HW2  789   0.732   2.051   3.058  2.3107 -0.4163 -0.5152
  264SOL     OW  790   0.219   1.224   1.564  0.0082 -0.8082 -0.3499
  264SOL    HW1  791   0.277   1.178   1.627 -3.6183 -0.9785 -0.8683
  264SOL    HW2  792   0.246   1.324   1.554 -1.2527 -0.6347  0.1053
  265SOL     OW  793   0.685   1.384   0.305 -0.0874  0.4161 -0.0060
  265SOL    HW1  794   0.643   1.315   0.240 -0.8195  0.2000  0.7461
  265SOL    HW2  795   0.750   1.447   0.255  1.0367  0.6757  1.0666
  266SOL     OW  796   2.008   1.549   0.642  0.2779 -0.1122 -0.0141
  266SOL    HW1  797   1.966   1.637   0.668  0.0211  3.3869  0.9359
  266SOL    HW2  798   2.090   1.527   0.697 -3.2015  0.9341 -0.2594
  267SOL     OW  799   2.730   0.155   3.018  0.3210  0.5289  0.0728
  267SOL    HW1  800   2.829   0.172   3.004 -0.3227  0.7496  0.8609
  267SOL    HW2  801   2.684   0.145   2.925 -1.0178  1.3691 -0.6342
  268SOL     OW  802   0.612   0.228   2.865  0.0228  0.0697  0.2902
  268SOL    HW1  803   0.664   0.230   2.952 -2.4029  1.7195 -0.7518
  268SOL    HW2  804   0.513   0.247   2.882 -0.3712  0.4227  2.5873
  269SOL     OW  805   1.699   0.242   2.730 -0.1697 -0.1574  0.9117
  269SOL    HW1  806   1.636   0.191   2.669 -0.2352 -2.0473 -1.0900
  269SOL    HW2  807   1.671   0.338   2.741  1.9123 -1.3167  0.2147
  270SOL     OW  808   1.071   0.910   2.640  0.1165 -0.0512 -0.3609
  270SOL    HW1  809   1.033   0.887   2.548 -1.6582 -0.7650 -1.0467
  270SOL    HW2  810   1.000   0.958   2.697  1.5787  1.8961  0.3782
  271SOL     OW  811   2.437   0.936   0.113 -0.2011  0.4991  0.0819
  271SOL    HW1  812   2.422   0.845   0.069 -0.9760  1.0832 -1.3080
  271SOL    HW2  813   2.440   1.004   0.042 -1.3845 -2.2964  1.6784
  272SOL     OW  814   2.671   2.026   2.764 -0.0464 -0.9385  0.2099
  272SOL    HW1  815   2.747   2.053   2.704  1.3233 -1.3149  0.1899
  272SOL    HW2  816   2.599   2.102   2.771 -0.4393  3.6184  2.0315
  273SOL     OW  817   2.433   0.502   2.868 -0.1907 -0.3981  0.1686
  273SOL    HW1  818   2.366   0.425   2.862  0.6682  0.6256  0.0884
  273SOL    HW2  819   2.521   0.481   2.821 -3.1944 -0.5566  0.4123
  274SOL     OW  820   0.141   2.955   1.273 -0.3600 -0.2696 -0.1138
  274SOL    HW1  821   0.174   3.001   1.189 -0.2438  1.2518  0.5933
  274SOL    HW2  822   0.214   2.889   1.289  0.0717  1.5295  0.4879
  275SOL     OW  823   2.189   1.380   1.025  0.2815  0.2236  0.2807
  275SOL    HW1  824   2.141   1.288   1.040 -2.8088 -2.9907  1.3999
  275SOL    HW2  825   2.203   1.387   0.923 -0.7819  0.9238 -0.0365
  276SOL     OW  826   0.304   1.287   2.733 -0.5245  0.5232 -0.0891
  276SOL    HW1  827   0.373   1.225   2.682 -0.0989  0.0114  0.1581
  276SOL    HW2  828   0.255   1.346   2.671  2.0472  1.7997  0.7151
  277SOL     OW  829   1.764   2.711   1.798 -0.1028  0.5375 -0.5851
  277SOL    HW1  830   1.796   2.800   1.840 -0.3001  3.2310  1.4932
  277SOL    HW2  831   1.661   2.705   1.810 -3.3926 -0.0619  0.6479
  278SOL     OW  832   1.586   0.378   1.579 -0.1238 -0.4242 -0.4032
  278SOL    HW1  833   1.554   0.280   1.573 -0.9243 -0.3503  2.5705
  278SOL    HW2  834   1.685   0.388   1.556 -1.5775  0.1657  0.2720
  279SOL     OW  835   1.921   1.317   0.228  0.2714  0.2886  0.1698
  279SOL    HW1  836   1.829   1.268   0.238  0.3118 -1.5245  0.5040
  279SOL    HW2  837   1.928   1.392   0.297  2.5471 -2.1491 -0.4170
  280SOL     OW  838   0.646   1.277   1.004  0.4897 -0.3116 -0.3298
  280SOL    HW1  839   0.704   1.328   0.935  1.2801  0.7149  1.5934
  280SOL    HW2  840   0.547   1.303   0.999 -2.9712 -0.2512  0.9281
  281SOL     OW  841   0.154   0.060   2.691 -0.3497  0.2042  0.4666
  281SOL    HW1  842   0.206   0.101   2.612  1.7324 -0.7239 -1.1453
  281SOL    HW2  843   0.207   3.046   2.718 -3.7947  0.8260 -1.6372
  282SOL     OW  844   0.395   0.839   1.269  0.1803 -0.1473 -0.6167
  282SOL    HW1  845   0.405   0.804   1.174  0.7950 -0.5404  0.0700
  282SOL    HW2  846   0.297   0.844   1.291  0.2745  1.2053 -1.1349
  283SOL     OW  847   1.674   2.205   3.022 -0.1905  0.4817 -0.0903
  283SOL    HW1  848   1.662   2.245   2.930 -1.8823  1.1021 -1.3083
  283SOL    HW2  849   1.645   2.103   3.020 -0.0375 -1.6426  0.2499
  284SOL     OW  850   1.825   1.295   0.607  0.0560 -0.2381 -0.1272
  284SOL    HW1  851   1.885   1.374   0.605 -0.3418 -2.2825  0.0748
  284SOL    HW2  852   1.858   1.225   0.540  1.6022 -0.0156 -1.1113
  285SOL     OW  853   2.993   0.251   2.974  0.4098  0.5386  0.0633
  285SOL    HW1  854   0.012   0.265   3.025 -0.9036  1.1024  1.5156
  285SOL    HW2  855   3.004   0.271   2.873 -0.4452 -0.6955  0.3799
  286SOL     OW  856   1.693   2.990   1.611 -0.0112 -0.3414  0.1507
  286SOL    HW1  857   1.707   2.936   1.530 -0.8438  2.2849  3.0483
  286SOL    HW2  858   1.783   3.017   1.645  2.0637 -0.3481 -0.9984
  287SOL     OW  859   0.931   1.076   1.137 -0.1959  0.1200 -0.3909
  287SOL    HW1  860   0.854   1.012   1.155 -0.9582  1.3760 -2.1258
  287SOL    HW2  861   0.930   1.153   1.203  0.1952 -0.4178 -0.4630
  288SOL     OW  862   1.276   2.754   0.282 -0.7641  0.6717  0.2994
  288SOL    HW1  863   1.349   2.767   0.206  3.6563 -0.1477 -1.9114
  288SOL    HW2  864   1.191   2.808   0.267  2.4403 -0.1998 -1.7591
  289SOL     OW  865   3.011   1.376   2.789 -0.3391  0.7488  0.2179
  289SOL    HW1  866   2.969   1.468   2.760 -0.3033  0.4503 -0.9123
  289SOL    HW2  867   3.038   1.323   2.703 -3.3331  1.1341 -3.7661
  290SOL     OW  868   1.060   2.546   0.455 -0.7873  0.2828 -0.1268
  290SOL    HW1  869   1.060   2.639   0.412 -0.1722  0.2429  0.5680
  290SOL    HW2  870   1.142   2.533   0.509 -2.0041  0.6085 -1.5721
  291SOL     OW  871   2.153   2.551   2.859 -0.2132  0.0907 -0.8407
  291SOL    HW1  872   2.208   2.631   2.816 -0.3475  1.0076  2.0257
  291SOL    HW2  873   2.053   2.571   2.880 -2.5434  0.5456 -0.1736
  292SOL     OW  874   0.809   1.150   1.881  0.3398 -0.6002  0.0725
  292SOL    HW1  875   0.899   1.189   1.907 -2.3008  1.4097  0.8480
  292SOL    HW2  876   0.808   1.159   1.784  2.5714 -1.0978  2.6116
  293SOL     OW  877   2.261   2.746   1.235 -0.4321  0.0779  0.1770
  293SOL    HW1  878   2.186   2.811   1.252  0.2798  0.0180  2.2690
  293SOL    HW2  879   2.281   2.735   1.136  0.6666 -1.4023 -0.2774
  294SOL     OW  880   0.090   0.481   2.528  0.0103 -0.4812 -0.3550
  294SOL    HW1  881   0.074   0.581   2.514  0.0491  0.1311 -0.9860
  294SOL    HW2  882   0.070   0.432   2.440  0.9245 -0.1231 -2.6848
  295SOL     OW  883   1.320   1.780   0.320  0.1709 -0.3013  0.0554
  295SOL    HW1  884   1.284   1.876   0.335  1.0667 -0.9615  2.7518
  295SOL    HW2  885   1.366   1.749   0.403  0.6449 -0.5321  0.1098
  296SOL     OW  886   2.004   1.909   2.852 -0.2747 -0.2835  0.2520
  296SOL    HW1  887   1.999   2.010   2.822 -2.3532  3.5743 -0.2835
  296SOL    HW2  888   2.093   1.862   2.848 -0.6590 -1.6605 -2.8609
  297SOL     OW  889   2.429   0.666   0.018 -0.3907 -0.3446 -0.1863
  297SOL    HW1  890   2.412   0.640   2.987  0.6020  2.7624 -4.6284
  297SOL    HW2  891   2.355   0.628   0.074  1.0374  1.0471  0.0707
  298SOL     OW  892   0.871   2.012   2.650 -0.2093 -0.4902  0.3801
  298SOL    HW1  893   0.942   2.083   2.628 -2.8236  0.3778  5.2171
  298SOL    HW2  894   0.778   2.052   2.631 -0.2234 -1.4671 -0.8187
  299SOL     OW  895   1.151   2.586   2.415  0.0858 -0.5268 -0.0134
  299SOL    HW1  896   1.072   2.637   2.366  0.8514  1.4446  1.1827
  299SOL    HW2  897   1.220   2.570   2.343 -2.5559  0.8687 -0.5912
  300SOL     OW  898   2.429   0.377   0.078  0.5896 -0.5487  0.4030
  300SOL    HW1  899   2.496   0.362   0.149  1.2669  0.9356 -2.6250
  300SOL    HW2  900   2.460   0.436   0.002 -3.3154  1.7659  0.4705
  301SOL     OW  901   1.122   1.025   1.420  0.4782  0.6370  0.3280
  301SOL    HW1  902   1.226   1.024   1.429 -1.3640  0.8499 -0.2909
  301SOL    HW2  903   1.082   1.116   1.402  2.3177 -0.8876 -0.2451
  302SOL     OW  904   0.005   2.309   0.044 -0.0023 -0.1874  0.0394
  302SOL    HW1  905   0.026   2.256   0.131  0.8804  0.4238  2.6541
  302SOL    HW2  906   2.973   2.313   0.022 -0.5859 -4.1912 -0.0540
  303SOL     OW  907   2.975   2.649   2.447  0.2546  0.0602 -0.7322
  303SOL    HW1  908   2.946   2.681   2.540  1.4128  1.5453 -0.5348
  303SOL    HW2  909   0.009   2.635   2.446  0.5439  3.2618 -1.7178
  304SOL     OW  910   2.858   0.759   2.206  0.0661 -0.5379  0.2554
  304SOL    HW1  911   2.800   0.841   2.199  0.2705  1.1394 -1.4870
  304SOL    HW2  912   2.823   0.680   2.151 -0.5658 -1.3240  1.1103
  305SOL     OW  913   0.341   2.446   2.299  0.2326 -0.1511  0.1560
  305SOL    HW1  914   0.429   2.485   2.265 -2.0871 -1.1439 -0.7067
  305SOL    HW2  915   0.360   2.347   2.331  2.0681  0.5604 -2.6241
  306SOL     OW  916   2.651   0.986   1.720  0.6606  0.7507  0.2262
  306SOL    HW1  917   2.609   1.062   1.771  1.0544 -2.6082 -2.7509
  306SOL    HW2  918   2.579   0.918   1.711 -0.6651  1.6388  0.1029
  307SOL     OW  919   1.732   0.654   1.470  0.3611  0.0019  0.5918
  307SOL    HW1  920   1.822   0.710   1.459  0.0089  2.2487  0.2715
  307SOL    HW2  921   1.680   0.662   1.383 -2.1564 -0.3722  0.9703
  308SOL     OW  922   2.483   1.848   1.076  0.3122  0.0932 -0.0151
  308SOL    HW1  923   2.389   1.876   1.051  1.0956  0.4601 -1.1308
  308SOL    HW2  924   2.525   1.775   1.016 -1.0095 -1.3178  0.1002
  309SOL     OW  925   2.024   1.628   1.803  0.2319 -0.2750  0.5615
  309SOL    HW1  926   1.972   1.676   1.733  1.0932 -3.4262  0.9694
  309SOL    HW2  927   2.120   1.610   1.772 -1.4923  0.0709  0.4509
  310SOL     OW  928   2.596   1.774   2.844 -0.1573 -0.0819  0.7555
  310SOL    HW1  929   2.627   1.870   2.829 -1.2311  0.8572  1.2452
  310SOL    HW2  930   2.543   1.734   2.770 -0.6276  2.9726  1.9467
  311SOL     OW  931   2.220   2.159   2.588  0.0754 -0.5330  0.2600
  311SOL    HW1  932   2.210   2.056   2.595  1.9581 -0.6311  0.0441
  311SOL    HW2  933   2.262   2.185   2.498  1.4897  0.5765 -0.8156
  312SOL     OW  934   1.979   2.066   1.318 -0.4607  0.0633 -0.2056
  312SOL    HW1  935   1.979   2.053   1.418 -1.8833  0.6785  0.2983
  312SOL    HW2  936   2.070   2.105   1.287 -1.2690  1.5683 -0.6179
  313SOL     OW  937   2.265   2.711   0.955 -0.1501  0.1721 -0.3256
  313SOL    HW1  938   2.346   2.773   0.967 -1.1244  0.3041  2.8303
  313SOL    HW2  939   2.286   2.613   0.945 -0.3589  3.2107  0.4432
  314SOL     OW  940   1.019   1.872   0.558  0.6541  0.0472 -0.2119
  314SOL    HW1  941   1.115   1.897   0.547 -1.8519  0.8852 -0.5907
  314SOL    HW2  942   0.987   1.905   0.650 -1.5893 -0.6944  2.7197
  315SOL     OW  943   0.589   2.448   2.600  0.0703 -0.0216 -0.1866
  315SOL    HW1  944   0.648   2.410   2.525 -2.0307 -3.8316 -0.1547
  315SOL    HW2  945   0.604   2.549   2.603 -2.3478 -2.5112 -2.5081
  316SOL     OW  946   0.059   0.785   0.491 -0.7004 -0.1639  0.6113
  316SOL    HW1  947   0.091   0.882   0.484  0.9851 -2.7162  1.2669
  316SOL    HW2  948   3.047   0.766   0.435  1.9030 -0.0876  0.9146
  317SOL     OW  949   1.194   0.596   0.815 -0.0469 -0.4744  0.2332
  317SOL    HW1  950   1.241   0.529   0.871 -1.8167  1.1948  0.0360
  317SOL    HW2  951   1.097   0.600   0.845  2.2464  1.7044  1.1272
  318SOL     OW  952   2.920   2.547   0.641  0.0034 -0.2909  0.5472
  318SOL    HW1  953   2.870   2.616   0.694  0.0140  1.0595  0.0861
  318SOL    HW2  954   2.890   2.452   0.680 -0.7077 -2.0375 -2.2067
  319SOL     OW  955   0.302   1.666   2.328  0.3002 -0.3248 -0.5014
  319SOL    HW1  956   0.399   1.653   2.362  3.4377 -1.1850  1.1898
  319SOL    HW2  957   0.253   1.744   2.373 -2.6921  0.1074 -0.3086
  320SOL     OW  958   0.533   2.600   2.181  0.1632 -0.4106 -0.3322
  320SOL    HW1  959   0.508   2.668   2.111  0.7834 -1.4655  0.3792
  320SOL    HW2  960   0.570   2.650   2.265 -2.3364  1.7504  2.6625
  321SOL     OW  961   1.054   2.395   0.058 -0.9311  0.3772  0.1993
  321SOL    HW1  962   1.142   2.403   0.112  0.4077  0.6700  4.6090
  321SOL    HW2  963   0.984   2.458   0.100  0.0509 -0.1076  0.7358
  322SOL     OW  964   2.348   1.282   2.247 -0.3164  0.5608  0.1826
  322SOL    HW1  965   2.379   1.345   2.170  1.2271  2.0628 -1.0021
  322SOL    HW2  966   2.420   1.279   2.323  0.6891  2.2590 -4.5672
  323SOL     OW  967   2.457   0.656   0.420  0.8581  0.4116  0.0716
  323SOL    HW1  968   2.404   0.565   0.426 -2.1767 -0.9610 -0.8516
  323SOL    HW2  969   2.552   0.641   0.391 -3.0291 -1.1289 -0.0690
  324SOL     OW  970   0.581   2.564   2.953 -0.3179 -0.0062  0.3647
  324SOL    HW1  971   0.634   2.484   2.912  2.5747 -0.5427 -2.2027
  324SOL    HW2  972   0.641   2.636   2.992 -2.1418  1.1550 -1.0332
  325SOL     OW  973   1.581   0.096   2.543 -0.3199  0.6276 -0.2122
  325SOL    HW1  974   1.511   0.066   2.614 -0.0338  1.7145  0.4813
  325SOL    HW2  975   1.634   0.016   2.500  0.9637  1.2502 -2.0784
  326SOL     OW  976   2.326   2.518   1.389 -0.6194  0.2989  0.3547
  326SOL    HW1  977   2.257   2.492   1.459 -0.0068  0.3380  0.5801
  326SOL    HW2  978   2.291   2.583   1.319 -0.4276 -2.1257 -1.3695
  327SOL     OW  979   1.427   0.325   2.941  0.6296 -0.1088 -0.0596
  327SOL    HW1  980   1.351   0.355   3.003  1.3222  1.8284  1.8892
  327SOL    HW2  981   1.505   0.294   2.998  1.4301  2.1059  2.0374
  328SOL     OW  982   2.517   1.313   2.438 -0.1484  0.2986  0.1948
  328SOL    HW1  983   2.454   1.312   2.517 -2.0406  1.4077  2.0918
  328SOL    HW2  984   2.572   1.398   2.425  0.8719 -0.5579 -2.5059
  329SOL     OW  985   1.467   2.931   1.746 -0.1027  0.2985  0.1238
  329SOL    HW1  986   1.545   2.952   1.686 -0.9873 -0.9986 -0.8616
  329SOL    HW2  987   1.386   2.986   1.726  0.7397 -1.0133  0.6767
  330SOL     OW  988   2.431   1.457   1.587  0.1672  0.1609 -0.0336
  330SOL    HW1  989   2.362   1.441   1.514  0.7936  0.5215  2.1067
  330SOL    HW2  990   2.515   1.502   1.546  2.6947 -1.0397  0.0522
  331SOL     OW  991   0.283   1.271   1.275  0.0326 -0.0452 -0.2571
  331SOL    HW1  992   0.319   1.366   1.261 -0.0412 -0.3443  2.5368
  331SOL    HW2  993   0.184   1.262   1.304  1.0064 -1.9489 -1.3733
  332SOL     OW  994   0.839   0.205   1.301 -0.5957 -0.0210  0.0297
  332SOL    HW1  995   0.884   0.233   1.214 -0.6867 -0.2982  1.3961
  332SOL    HW2  996   0.760   0.262   1.326 -1.7256  1.2588  1.6635
  333SOL     OW  997   2.196   2.471   1.870 -0.5805 -0.1991 -0.0655
  333SOL    HW1  998   2.237   2.398   1.929  0.3685  0.9335 -0.9459
  333SOL    HW2  999   2.118   2.517   1.916 -1.9906  3.1517  0.9151
  334SOL     OW 1000   1.141   1.499   1.396 -0.0112  0.1323  0.6223
  334SOL    HW1 1001   1.071   1.565   1.424  4.5132 -2.5098 -0.9830
  334SOL    HW2 1002   1.230   1.547   1.382 -3.3359 -2.0698  1.2538
  335SOL     OW 1003   0.711   2.825   2.870 -0.0944 -0.0002 -0.6898
  335SOL    HW1 1004   0.734   2.880   2.948 -1.3574  0.8363 -2.1762
  335SOL    HW2 1005   0.797   2.779   2.840  1.3483  1.3101 -2.0155
  336SOL     OW 1006   2.916   2.900   1.953  0.0829  0.2294  0.2970
  336SOL    HW1 1007   2.866   2.984   1.920 -1.1712  0.9718  1.1688
  336SOL    HW2 1008   2.848   2.819   1.945 -0.8035 -1.6365  1.6048
  337SOL     OW 1009   2.614   1.833   0.595 -0.1512  0.0770 -0.1559
  337SOL    HW1 1010   2.524   1.791   0.618 -0.6246  0.4730 -1.9457
  337SOL    HW2 1011   2.629   1.845   0.494 -0.7256  0.9019  1.9993
  338SOL     OW 1012   0.970   1.997   1.201  1.2499  0.4000  0.2120
  338SOL    HW1 1013   1.056   1.961   1.245  0.1268 -0.3753 -1.0089
  338SOL    HW2 1014   0.886   1.943   1.229 -1.1779 -1.1574 -0.1858
  339SOL     OW 1015   3.023   0.731   2.485  0.0231  0.0843  0.3563
  339SOL    HW1 1016   2.989   0.703   2.391  0.7224 -1.1946 -0.7229
  339SOL    HW2 1017   3.028   0.832   2.494 -0.8871 -3.1167 -3.1405
  340SOL     OW 1018   1.686   2.866   1.087  0.4278 -0.5956  0.1456
  340SOL    HW1 1019   1.709   2.948   1.027  0.1998  2.1963 -1.3231
  340SOL    HW2 1020   1.709   2.776   1.048 -0.1066 -0.1562  1.1142
  341SOL     OW 1021   1.814   1.915   1.155 -0.0156  0.0413 -0.4214
  341SOL    HW1 1022   1.865   1.905   1.066  1.0873  1.3974  1.6464
  341SOL    HW2 1023   1.874   1.965   1.215 -0.4670 -1.1675 -1.7780
  342SOL     OW 1024   0.397   1.364   0.965 -0.1177  0.3584 -0.1478
  342SOL    HW1 1025   0.407   1.383   0.865 -2.3333  1.2858  1.7960
  342SOL    HW2 1026   0.304   1.335   0.979  1.3230  1.1480 -0.8462
  343SOL     OW 1027   2.504   0.512   1.477  0.0134 -0.6630 -0.0549
  343SOL    HW1 1028   2.602   0.545   1.496 -0.0765  2.9066  1.7714
  343SOL    HW2 1029   2.463   0.568   1.405 -0.8334  2.3976  0.8390
  344SOL     OW 1030   2.074   2.340   0.647 -0.0128 -0.3267 -0.0669
  344SOL    HW1 1031   2.045   2.258   0.706 -0.4845 -2.9063  1.4766
  344SOL    HW2 1032   2.166   2.373   0.681  1.3103  0.5723 -1.1502
  345SOL     OW 1033   3.040   2.586   2.880  0.4997 -0.0520 -0.1606
  345SOL    HW1 1034   3.064   2.654   2.812 -2.2525 -1.4343 -0.0954
  345SOL    HW2 1035   2.938   2.573   2.888 -0.1013 -0.1976  0.2276
  346SOL     OW 1036   0.162   1.295   0.719 -0.1044 -0.0732 -0.0817
  346SOL    HW1 1037   0.097   1.307   0.795 -0.6745 -2.9847 -0.3497
  346SOL    HW2 1038   0.107   1.311   0.634  0.9146  0.3900  0.6573
  347SOL     OW 1039   1.986   2.753   0.977  0.0575 -0.0758 -0.8263
  347SOL    HW1 1040   1.934   2.663   0.977 -2.0871  0.5956  1.9679
  347SOL    HW2 1041   2.088   2.742   0.977 -0.9019 -1.3405 -4.2078
  348SOL     OW 1042   1.424   1.247   2.557 -0.4418  0.0689 -0.0702
  348SOL    HW1 1043   1.421   1.175   2.485  0.4504 -3.4032 -0.1142
  348SOL    HW2 1044   1.487   1.325   2.535 -0.9692 -1.3449 -0.8025
  349SOL     OW 1045   2.274   1.143   2.521  0.0158  0.1472  0.3967
  349SOL    HW1 1046   2.196   1.106   2.465  0.3092 -1.2922 -2.4863
  349SOL    HW2 1047   2.332   1.063   2.551  0.3347 -0.3850 -1.2774
  350SOL     OW 1048   2.984   1.951   1.131 -0.6638 -0.0800 -0.1804
  350SOL    HW1 1049   2.998   1.863   1.171  0.8092  5.0263 -1.3591
  350SOL    HW2 1050   0.009   1.993   1.110  2.4283 -4.3350  2.1279
  351SOL     OW 1051   0.808   0.427   2.418  0.2388  0.2348 -0.0421
  351SOL    HW1 1052   0.853   0.338   2.414  2.1755  0.2470  0.0863
  351SOL    HW2 1053   0.870   0.497   2.389  0.4148 -2.1149 -1.3463
  352SOL     OW 1054   0.672   2.515   1.571  0.0572  0.4548 -0.4699
  352SOL    HW1 1055   0.672   2.588   1.642  1.1220  0.6999 -2.0509
  352SOL    HW2 1056   0.759   2.513   1.520  2.5254  2.5347 -0.8471
  353SOL     OW 1057   0.500   1.376   2.129  0.3168  0.9194  0.5394
  353SOL    HW1 1058   0.403   1.347   2.155 -0.9655  1.4872 -1.4832
  353SOL    HW2 1059   0.507   1.476   2.130 -0.5786 -4.4640 -0.6290
  354SOL     OW 1060   1.925   1.254   0.864  0.2309 -0.0231  0.4884
  354SOL    HW1 1061   1.886   1.339   0.904  0.9825  0.7627 -0.6450
  354SOL    HW2 1062   1.858   1.216   0.797  2.6664  1.4081 -1.5844
  355SOL     OW 1063   2.423   0.240   0.651  0.4505 -0.2798  0.1455
  355SOL    HW1 1064   2.434   0.311   0.582  1.5498  0.3620  2.8087
  355SOL    HW2 1065   2.441   0.149   0.613  0.5253  3.0590  0.2641
  356SOL     OW 1066   3.046   1.305   2.532  0.3207  0.3968 -0.1661
  356SOL    HW1 1067   0.027   1.366   2.464 -2.8798 -0.0248  1.4257
  356SOL    HW2 1068   3.061   1.206   2.505  0.3469 -0.2525 -0.1151
  357SOL     OW 1069   0.285   2.810   1.590  0.3767 -0.0208 -0.4742
  357SOL    HW1 1070   0.225   2.730   1.610  1.1192 -0.0803  0.4528
  357SOL    HW2 1071   0.245   2.894   1.625  0.8044  0.4440 -0.8994
  358SOL     OW 1072   2.781   1.374   2.589  0.0665  0.2580 -0.0986
  358SOL    HW1 1073   2.882   1.346   2.579  1.5857  0.7482  2.1488
  358SOL    HW2 1074   2.746   1.441   2.520  1.0166 -0.1202 -2.1335
  359SOL     OW 1075   2.742   2.542   2.895 -0.5555  0.0261 -0.1308
  359SOL    HW1 1076   2.717   2.642   2.886 -1.4077 -1.4235 -0.2792
  359SOL    HW2 1077   2.653   2.493   2.881  0.2175  1.9650 -0.1722
  360SOL     OW 1078   1.415   1.345   1.227  0.5230  0.0711 -0.0372
  360SOL    HW1 1079   1.452   1.315   1.136 -0.7795 -0.8541 -1.4373
  360SOL    HW2 1080   1.330   1.401   1.204  0.8621  1.1975 -0.0596
  361SOL     OW 1081   1.940   2.436   1.163 -0.4724  0.0140  0.2114
  361SOL    HW1 1082   2.012   2.370   1.134 -0.2686  0.5548  0.1886
  361SOL    HW2 1083   1.890   2.486   1.087  1.8324  2.3878  1.1009
  362SOL     OW 1084   1.698   1.661   1.196  0.2276  0.0142 -0.0981
  362SOL    HW1 1085   1.736   1.754   1.200  2.7713 -3.0173  1.0458
  362SOL    HW2 1086   1.664   1.641   1.102 -0.5615  1.3549 -2.2218
  363SOL     OW 1087   2.704   2.153   0.062 -0.2905 -0.4220  0.8118
  363SOL    HW1 1088   2.613   2.159   0.015 -0.3492  0.6705 -0.2483
  363SOL    HW2 1089   2.752   2.250   0.063  1.7535  1.4769 -0.1017
  364SOL     OW 1090   2.284   0.385   1.638 -0.0237 -0.3229  0.1961
  364SOL    HW1 1091   2.343   0.377   1.556 -0.0617  1.5501  0.4070
  364SOL    HW2 1092   2.338   0.413   1.719 -0.6111  0.1917 -3.6194
  365SOL     OW 1093   2.812   2.605   1.254  0.5368  0.1507  0.0030
  365SOL    HW1 1094   2.903   2.613   1.301 -2.3871 -0.6870  0.0584
  365SOL    HW2 1095   2.822   2.554   1.161 -0.7899  3.0477 -1.3188
  366SOL     OW 1096   2.881   1.218   0.156 -0.1286  0.3664  0.0990
  366SOL    HW1 1097   2.833   1.272   0.084  0.5548 -1.3254  0.2683
  366SOL    HW2 1098   2.816   1.138   0.168 -0.4945  2.0431  0.3583
  367SOL     OW 1099   2.457   2.451   2.857 -0.7865 -0.0700 -0.5132
  367SOL    HW1 1100   2.445   2.548   2.836 -1.0633 -0.9938 -1.4240
  367SOL    HW2 1101   2.381   2.427   2.921  1.4878  2.6120  0.3270
  368SOL     OW 1102   2.475   1.874   1.360  0.0802  0.2990 -0.8304
  368SOL    HW1 1103   2.526   1.963   1.376  1.8514  3.3107 -2.7818
  368SOL    HW2 1104   2.495   1.840   1.266 -0.2537 -0.6795 -1.2440
  369SOL     OW 1105   0.609   0.120   0.818  0.5290  0.0559 -0.0365
  369SOL    HW1 1106   0.593   0.179   0.902 -1.5604  1.6994 -2.2493
  369SOL    HW2 1107   0.557   0.034   0.814 -0.1187  1.8518  0.2996
  370SOL     OW 1108   0.851   0.556   0.910  0.4200 -0.4075  0.1840
  370SOL    HW1 1109   0.767   0.537   0.963  0.3856  0.6123  0.7733
  370SOL    HW2 1110   0.842   0.533   0.811  0.9799  0.7035 -1.8466
  371SOL     OW 1111   2.443   1.746   0.222 -0.3388  0.4036 -0.5660
  371SOL    HW1 1112   2.528   1.794   0.241  1.3381 -0.3558  0.2384
  371SOL    HW2 1113   2.387   1.785   0.146  1.4338 -0.1007 -0.0100
  372SOL     OW 1114   0.245   0.936   2.643  0.5566  0.0037  0.5264
  372SOL    HW1 1115   0.203   0.955   2.735  1.4694 -2.1360 -0.6636
  372SOL    HW2 1116   0.341   0.972   2.639 -0.5907  0.6390  0.7406
  373SOL     OW 1117   2.791   0.962   0.416  0.9078 -0.3244  0.3443
  373SOL    HW1 1118   2.853   1.027   0.464  1.6929  1.8386  0.3289
  373SOL    HW2 1119   2.832   0.873   0.393 -1.6872 -1.1300 -0.3443
  374SOL     OW 1120   0.714   2.236   0.016 -0.2671 -0.4238 -0.6595
  374SOL    HW1 1121   0.636   2.264   0.073  1.9528  0.9953 -2.3777
  374SOL    HW2 1122   0.727   2.290   3.001  1.1923 -0.3635  0.6395
  375SOL     OW 1123   1.208   0.638   3.044 -0.2999 -0.0848 -0.0130
  375SOL    HW1 1124   1.213   0.657   2.946  1.6623 -0.9861  1.0584
  375SOL    HW2 1125   1.114   0.652   0.015 -3.1443 -0.0284 -0.1880
  376SOL     OW 1126   0.083   2.889   1.816  0.4780  0.2361  0.9779
  376SOL    HW1 1127   3.065   2.910   1.866  1.2989 -1.2735 -0.9981
  376SOL    HW2 1128   0.082   2.796   1.783  1.0250  1.9242  0.2922
  377SOL     OW 1129   3.065   2.119   2.469 -0.4683 -0.5579  0.2664
  377SOL    HW1 1130   0.027   2.120   2.373 -1.3217 -1.7869  3.6737
  377SOL    HW2 1131   3.058   2.219   2.498 -2.8508  1.4526  1.3110
  378SOL     OW 1132   1.645   0.880   0.510 -0.2290 -0.0801  0.2991
  378SOL    HW1 1133   1.581   0.956   0.484  0.4866 -0.6742 -0.0095
  378SOL    HW2 1134   1.653   0.881   0.608 -1.1222  1.5983 -1.4140
  379SOL     OW 1135   1.322   1.486   0.234 -0.3034  0.3965 -0.2305
  379SOL    HW1 1136   1.222   1.482   0.259  2.5681 -0.1732 -0.8862
  379SOL    HW2 1137   1.354   1.584   0.211 -1.1164  0.9454 -1.3610
  380SOL     OW 1138   2.325   2.290   2.018  0.1030  0.3852 -0.1782
  380SOL    HW1 1139   2.404   2.256   1.963 -1.9469  1.5816 -3.5932
  380SOL    HW2 1140   2.269   2.207   2.038 -0.8014 -0.2134 -1.0947
  381SOL     OW 1141   0.115   1.047   2.199  0.1820  0.2610 -0.7713
  381SOL    HW1 1142   0.050   1.047   2.119 -2.5321 -1.0221 -2.6357
  381SOL    HW2 1143   0.176   0.969   2.205 -3.3979  0.2201  0.5715
  382SOL     OW 1144   2.815   2.386   0.043 -0.0028  0.4736 -0.2753
  382SOL    HW1 1145   2.797   2.456   3.035  0.6017  1.2611 -0.8632
  382SOL    HW2 1146   2.813   2.432   0.135  0.2371  1.5153  2.0617
  383SOL     OW 1147   1.681   1.049   2.307 -0.5088  0.1352  0.1294
  383SOL    HW1 1148   1.714   0.958   2.280 -0.0125 -1.5227 -2.8069
  383SOL    HW2 1149   1.694   1.107   2.225 -2.0214 -0.2616  1.1287
  384SOL     OW 1150   0.693   1.831   2.250  0.3058  0.0689  0.6520
  384SOL    HW1 1151   0.720   1.929   2.265  1.2664 -1.8993 -0.5553
  384SOL    HW2 1152   0.706   1.806   2.150  1.7183  1.3081 -5.3324
  385SOL     OW 1153   2.722   2.175   0.671  0.2580 -0.4909  0.1220
  385SOL    HW1 1154   2.775   2.125   0.742 -0.3154 -1.5753  0.8692
  385SOL    HW2 1155   2.620   2.156   0.678 -0.3056 -0.4937  0.2601
  386SOL     OW 1156   1.386   0.989   0.003 -0.1921 -0.0697 -0.5481
  386SOL    HW1 1157   1.465   1.058   3.066  2.6163  2.0276 -0.2538
  386SOL    HW2 1158   1.349   0.987   0.099 -0.3782 -0.5003  0.7638
  387SOL     OW 1159   0.260   0.388   1.561  0.1083  0.0211 -0.5009
  387SOL    HW1 1160   0.208   0.432   1.484 -0.3871  0.6101  0.1992
  387SOL    HW2 1161   0.196   0.326   1.613 -1.3393  0.0409  0.7290
  388SOL     OW 1162   2.991   0.720   1.469 -0.0960  0.4076 -0.3661
  388SOL    HW1 1163   2.913   0.763   1.418  1.4478 -3.6189  0.9590
  388SOL    HW2 1164   2.973   0.719   1.574 -3.5093  2.4735  1.4049
  389SOL     OW 1165   1.834   1.222   2.562  0.0490  0.0628  0.1706
  389SOL    HW1 1166   1.772   1.142   2.568  0.6517 -2.9580  1.6623
  389SOL    HW2 1167   1.808   1.293   2.495  1.0941  0.5160 -0.2840
  390SOL     OW 1168   1.759   2.102   0.389  0.0793  0.1042 -0.3262
  390SOL    HW1 1169   1.794   2.141   0.300 -1.6265 -1.3278 -0.1113
  390SOL    HW2 1170   1.805   2.017   0.417 -1.0874 -0.8146 -1.3903
  391SOL     OW 1171   1.153   2.584   0.903 -0.2004 -0.0233 -0.2529
  391SOL    HW1 1172   1.165   2.669   0.958  0.9533 -0.1353 -0.5412
  391SOL    HW2 1173   1.055   2.563   0.874  3.2548 -0.7440 -2.7035
  392SOL     OW 1174   2.598   2.496   1.432  0.6131  0.1105  0.7781
  392SOL    HW1 1175   2.641   2.513   1.338  1.9343 -0.9297 -3.2208
  392SOL    HW2 1176   2.503   2.526   1.428  0.1996  2.4871 -1.1309
  393SOL     OW 1177   1.779   2.482   2.428 -0.1213 -0.4187 -0.2598
  393SOL    HW1 1178   1.879   2.467   2.415 -1.0456 -0.8145  1.1923
  393SOL    HW2 1179   1.726   2.466   2.342 -2.0159 -1.8667 -0.5228
  394SOL     OW 1180   0.294   2.847   2.497  0.3014  0.1201  0.7972
  394SOL    HW1 1181   0.300   2.852   2.597 -1.0518  1.1617 -0.7194
  394SOL    HW2 1182   0.359   2.909   2.451 -0.0405  1.7954  0.7821
  395SOL     OW 1183   0.753   0.861   1.215  0.2261 -0.2511 -0.1432
  395SOL    HW1 1184   0.765   0.901   1.307  1.4868  3.8483 -1.2486
  395SOL    HW2 1185   0.752   0.759   1.223  0.6547  0.0340  0.4669
  396SOL     OW 1186   2.028   1.073   2.394 -0.0646 -0.3521 -0.6590
  396SOL    HW1 1187   1.986   0.980   2.383  2.4604 -1.0734  0.2010
  396SOL    HW2 1188   1.970   1.123   2.456  2.2672  1.6907 -0.3631
  397SOL     OW 1189   2.653   0.405   2.748  0.2321  0.4290  0.3255
  397SOL    HW1 1190   2.733   0.460   2.773 -0.3386 -2.0620 -0.8133
  397SOL    HW2 1191   2.659   0.399   2.648  2.1235 -1.0592 -0.4990
  398SOL     OW 1192   1.634   3.067   0.749 -0.1744  0.2661 -0.2088
  398SOL    HW1 1193   1.702   2.990   0.751 -0.7359  1.0229  2.6231
  398SOL    HW2 1194   1.655   0.060   0.669 -0.9470 -1.5222  0.2077
  399SOL     OW 1195   2.437   2.583   1.828 -0.1876 -0.5757 -0.1864
  399SOL    HW1 1196   2.434   2.670   1.775  1.3287  2.2282 -0.7374
  399SOL    HW2 1197   2.340   2.557   1.850 -3.7792  1.4671 -0.2909
  400SOL     OW 1198   2.869   2.473   1.992  0.0068  0.4623  0.0682
  400SOL    HW1 1199   2.832   2.381   2.012  1.9517  3.2757 -0.6752
  400SOL    HW2 1200   2.930   2.502   2.073  1.9454 -0.0574  0.5039
  401SOL     OW 1201   0.492   0.250   0.444 -0.2559 -0.4598 -0.4270
  401SOL    HW1 1202   0.498   0.175   0.374  0.0810 -0.8971 -2.0108
  401SOL    HW2 1203   0.477   0.340   0.401 -1.8684 -4.1824  0.3147
  402SOL     OW 1204   0.669   2.697   1.760 -0.1649  0.1222 -0.5135
  402SOL    HW1 1205   0.766   2.719   1.774  1.9719 -0.1155 -4.4159
  402SOL    HW2 1206   0.613   2.778   1.742  0.8447  1.0262  1.8252
  403SOL     OW 1207   0.212   1.303   1.898  0.0591  0.1163  0.0694
  403SOL    HW1 1208   0.256   1.234   1.836  0.2218 -1.1968  0.3666
  403SOL    HW2 1209   0.218   1.277   1.997  1.2528  0.2128 -2.2108
  404SOL     OW 1210   2.650   2.521   2.191  0.2299  0.1219 -0.6318
  404SOL    HW1 1211   2.689   2.537   2.099  0.1688 -0.2025 -2.1986
  404SOL    HW2 1212   2.702   2.452   2.238 -1.8689  0.6224  1.3061
  405SOL     OW 1213   2.288   0.301   2.567 -0.2934 -0.2519 -0.5148
  405SOL    HW1 1214   2.237   0.221   2.534  0.1879  1.3249  0.3746
  405SOL    HW2 1215   2.307   0.297   2.666 -1.6089  1.1657  0.3263
  406SOL     OW 1216   1.387   2.386   0.408 -0.2152  0.7289  0.3890
  406SOL    HW1 1217   1.362   2.430   0.494  0.1930 -2.1209 -1.1343
  406SOL    HW2 1218   1.439   2.297   0.416 -0.4469 -0.0455  4.8570
  407SOL     OW 1219   1.967   1.562   0.376 -0.0153  0.1296 -0.3172
  407SOL    HW1 1220   1.995   1.548   0.475  1.2036  0.4840 -0.4323
  407SOL    HW2 1221   1.873   1.588   0.367  3.5474  0.7495 -0.0408
  408SOL     OW 1222   0.286   0.833   2.194  0.0431  0.3383 -0.3580
  408SOL    HW1 1223   0.290   0.788   2.287  0.7879  0.7704  1.4677
  408SOL    HW2 1224   0.348   0.789   2.125 -0.5608  0.3051 -0.9583
  409SOL     OW 1225   2.742   1.387   3.066  0.3235 -0.1959  0.0921
  409SOL    HW1 1226   2.737   1.484   0.005  0.4419  0.0766  1.7185
  409SOL    HW2 1227   2.703   1.355   2.972 -1.8494  0.4797  0.1820
  410SOL     OW 1228   2.447   1.290   1.299 -0.1098 -0.0819  0.2471
  410SOL    HW1 1229   2.427   1.381   1.252 -3.6410  1.7945 -0.9952
  410SOL    HW2 1230   2.549   1.280   1.316  0.8962 -0.6115 -1.3255
  411SOL     OW 1231   2.909   0.726   0.344 -0.6941 -0.3191  0.2435
  411SOL    HW1 1232   2.951   0.709   0.250  0.0732 -1.1111 -1.7888
  411SOL    HW2 1233   2.831   0.666   0.360  1.9488  2.7297 -1.3810
  412SOL     OW 1234   1.716   0.158   0.261  0.6036 -0.5525  0.5412
  412SOL    HW1 1235   1.628   0.182   0.307  0.0055 -1.3931 -1.3077
  412SOL    HW2 1236   1.790   0.216   0.305  3.1272  2.1924  0.0875
  413SOL     OW 1237   1.281   0.490   1.802 -0.5568  0.1762  0.0262
  413SOL    HW1 1238   1.288   0.389   1.811 -0.9651  1.3722 -0.6155
  413SOL    HW2 1239   1.304   0.514   1.707  0.8118 -0.1196 -0.0266
  414SOL     OW 1240   0.502   1.215   0.164  0.1817  0.1620 -0.2252
  414SOL    HW1 1241   0.534   1.116   0.157  1.5077 -2.0353 -1.5466
  414SOL    HW2 1242   0.523   1.270   0.079 -0.1624 -1.1991 -0.3264
  415SOL     OW 1243   0.027   1.411   0.503  0.0520 -0.4319  0.1081
  415SOL    HW1 1244   0.039   1.513   0.517  1.8118  1.6489  0.3361
  415SOL    HW2 1245   0.037   1.395   0.399  1.8350 -3.2530 -3.6366
  416SOL     OW 1246   2.056   0.982   0.226  0.2199  0.2862 -0.3061
  416SOL    HW1 1247   1.999   0.908   0.181 -3.4577 -1.5988 -2.7606
  416SOL    HW2 1248   2.154   0.956   0.244 -1.7511  0.1176 -1.1975
  417SOL     OW 1249   2.692   2.795   2.888  0.3030  0.4251  0.0006
  417SOL    HW1 1250   2.767   2.865   2.910  0.5333 -1.1251 -0.9103
  417SOL    HW2 1251   2.620   2.790   2.963  4.2737 -3.0921 -0.1768
  418SOL     OW 1252   2.703   0.630   3.051  0.4372 -0.5487  0.3676
  418SOL    HW1 1253   2.727   0.713   2.997  1.4504 -0.2707  0.9061
  418SOL    HW2 1254   2.608   0.636   0.017  0.6631  1.2046  1.5653
  419SOL     OW 1255   0.913   0.295   0.471 -0.1744  0.1378  0.0116
  419SOL    HW1 1256   0.820   0.273   0.503 -0.5646  0.5271  1.0863
  419SOL    HW2 1257   0.972   0.211   0.466 -1.0414  1.9174  2.9320
  420SOL     OW 1258   0.605   1.004   0.613  0.3754  0.5549  0.1645
  420SOL    HW1 1259   0.514   0.962   0.617 -1.4898  0.5837 -0.6496
  420SOL    HW2 1260   0.664   0.980   0.692  0.5290  1.6335 -0.7548
  421SOL     OW 1261   0.319   1.790   0.493 -0.2063  0.1912  0.0730
  421SOL    HW1 1262   0.422   1.804   0.478  2.1690  0.7436 -0.2692
  421SOL    HW2 1263   0.276   1.718   0.430 -2.3497 -0.0683 -3.9160
  422SOL     OW 1264   0.026   0.457   1.432 -0.1620 -0.0080  0.5988
  422SOL    HW1 1265   0.018   0.559   1.448  1.5829  1.4267  3.1557
  422SOL    HW2 1266   3.008   0.413   1.463 -1.4054 -0.1233 -0.2853
  423SOL     OW 1267   1.984   1.897   0.404  0.3233  0.2249  0.4467
  423SOL    HW1 1268   2.072   1.949   0.400 -1.8167 -1.1951  2.1159
  423SOL    HW2 1269   1.994   1.804   0.356 -1.0972 -1.7997 -0.1447
  424SOL     OW 1270   1.662   1.583   2.927 -0.1929  0.6460 -0.3625
  424SOL    HW1 1271   1.660   1.645   3.007  0.0099  1.9009  3.6302
  424SOL    HW2 1272   1.738   1.594   2.857 -2.9253  1.1781 -3.0540
  425SOL     OW 1273   0.469   2.798   2.000 -0.2690 -0.3225 -0.1164
  425SOL    HW1 1274   0.395   2.825   2.060  2.3552 -0.4587 -0.7753
  425SOL    HW2 1275   0.485   2.854   1.913  2.2614  2.4911 -0.3324
  426SOL     OW 1276   2.316   3.058   2.972  0.2121 -0.6060 -0.2251
  426SOL    HW1 1277   2.392   3.042   2.903  3.1475 -0.6767 -0.5392
  426SOL    HW2 1278   2.223   3.031   2.938  0.0772 -1.5475  1.8930
  427SOL     OW 1279   0.381   1.640   2.073  0.0130  0.3320 -0.8710
  427SOL    HW1 1280   0.482   1.671   2.082  1.7390  2.2226  2.2661
  427SOL    HW2 1281   0.333   1.645   2.167  0.3281 -1.7554  2.0900
  428SOL     OW 1282   2.192   1.463   2.439 -0.6692  0.8019  0.0959
  428SOL    HW1 1283   2.106   1.453   2.386  1.6528  0.6506  2.1506
  428SOL    HW2 1284   2.249   1.383   2.418 -0.3127  2.1090  2.2161
  429SOL     OW 1285   2.533   3.050   0.570  0.2200  0.3204 -0.5123
  429SOL    HW1 1286   2.603   0.021   0.508 -0.3550 -0.8829  0.1675
  429SOL    HW2 1287   2.469   2.992   0.517 -1.5918 -0.9523  1.3724
  430SOL     OW 1288   1.875   2.049   2.102 -0.2211  0.1178  0.2345
  430SOL    HW1 1289   1.823   2.094   2.025 -2.2856 -2.4714  0.7168
  430SOL    HW2 1290   1.862   1.948   2.095  2.3861 -2.0293  1.7514
  431SOL     OW 1291   2.915   1.719   1.747  0.1864 -0.1511  0.1503
  431SOL    HW1 1292   2.857   1.759   1.671 -1.7179 -0.3595  2.4311
  431SOL    HW2 1293   2.990   1.654   1.713 -0.6345 -0.4246  3.4471
  432SOL     OW 1294   1.019   2.256   1.912  0.1932 -0.1375 -0.5884
  432SOL    HW1 1295   1.096   2.192   1.931 -1.5394  0.3967 -1.3514
  432SOL    HW2 1296   0.937   2.236   1.967 -1.2296 -1.3532 -1.1456
  433SOL     OW 1297   1.045   3.022   0.732  0.1027  0.5641  0.4269
  433SOL    HW1 1298   1.109   2.996   0.807  0.6302  2.8778 -0.8568
  433SOL    HW2 1299   0.955   3.033   0.783  0.6859  3.3967  1.1907
  434SOL     OW 1300   0.192   2.388   2.086 -0.6784  0.3124 -0.5415
  434SOL    HW1 1301   0.213   2.453   2.009  2.7633  0.5721  0.1506
  434SOL    HW2 1302   0.264   2.400   2.156  0.8165 -0.3156 -2.2833
  435SOL     OW 1303   0.622   1.293   0.564 -0.7956  0.3945  0.5960
  435SOL    HW1 1304   0.613   1.188   0.578  0.4914 -0.7194  1.6462
  435SOL    HW2 1305   0.634   1.322   0.464  0.4369  0.1417 -1.3528
  436SOL     OW 1306   0.301   1.498   1.562 -0.1255 -0.0415 -0.0146
  436SOL    HW1 1307   0.383   1.521   1.502  0.9940 -0.3731 -1.9076
  436SOL    HW2 1308   0.312   1.532   1.657 -0.4285 -0.0928 -0.1841
  437SOL     OW 1309   1.152   0.630   0.362  0.5705  0.1509 -0.5112
  437SOL    HW1 1310   1.089   0.578   0.304 -0.2247 -1.2138  0.0004
  437SOL    HW2 1311   1.117   0.726   0.374 -1.5625 -0.5106 -0.4127
  438SOL     OW 1312   0.906   1.706   1.101  0.3322 -0.1550  0.1246
  438SOL    HW1 1313   0.880   1.652   1.016 -0.3341  0.2198 -0.6076
  438SOL    HW2 1314   1.005   1.729   1.098  1.1507  1.6530  0.6479
  439SOL     OW 1315   1.272   1.867   2.344 -0.3896 -0.1910  0.0220
  439SOL    HW1 1316   1.208   1.869   2.421  1.6486  1.2178 -2.8615
  439SOL    HW2 1317   1.371   1.863   2.374 -1.7319 -0.2967 -5.1899
  440SOL     OW 1318   1.622   0.205   1.312 -0.5301 -0.3968 -0.2855
  440SOL    HW1 1319   1.598   0.199   1.413 -0.4063  0.9904  1.4246
  440SOL    HW2 1320   1.708   0.153   1.290  0.6787  0.1796  1.2295
  441SOL     OW 1321   0.518   2.994   1.223 -0.3194 -0.1429 -0.3290
  441SOL    HW1 1322   0.448   3.044   1.176  1.1086  2.0834  3.9132
  441SOL    HW2 1323   0.478   2.903   1.254 -1.1718 -1.5271 -0.7148
  442SOL     OW 1324   2.245   1.997   0.645  0.1028 -0.4884 -0.5847
  442SOL    HW1 1325   2.154   1.981   0.695 -0.1834  0.8416 -0.5151
  442SOL    HW2 1326   2.235   2.033   0.550  2.9585  1.4939 -0.6992
  443SOL     OW 1327   2.716   0.543   2.081  0.0191 -0.6131 -0.2625
  443SOL    HW1 1328   2.629   0.501   2.111 -0.1916  0.4323  1.9208
  443SOL    HW2 1329   2.779   0.473   2.039 -0.6412 -0.4883  2.7690
  444SOL     OW 1330   2.008   1.203   2.123  0.6530  0.1189  0.3706
  444SOL    HW1 1331   1.917   1.176   2.087  1.7026 -1.4618 -0.1524
  444SOL    HW2 1332   2.039   1.131   2.185 -0.6419  0.8426  1.4154
  445SOL     OW 1333   2.575   2.119   1.402  0.4960 -0.2175 -0.1143
  445SOL    HW1 1334   2.646   2.176   1.450 -2.4344 -0.2838  0.1323
  445SOL    HW2 1335   2.484   2.158   1.434 -2.4005  2.8978 -0.1308
  446SOL     OW 1336   0.340   0.917   0.622 -0.0193 -0.1705  0.0286
  446SOL    HW1 1337   0.270   0.909   0.553  1.8330  3.3378  2.7900
  446SOL    HW2 1338   0.307   0.970   0.703  0.6072  1.8428  1.4350
  447SOL     OW 1339   0.859   1.622   0.855  0.3151  0.6961 -0.8260
  447SOL    HW1 1340   0.820   1.526   0.829 -2.3240 -0.7484 -0.9410
  447SOL    HW2 1341   0.801   1.689   0.810  2.8634 -0.6453 -3.0677
  448SOL     OW 1342   1.237   1.062   1.740 -0.2640  0.8814  0.6012
  448SOL    HW1 1343   1.252   1.044   1.639  2.1076 -2.6606 -0.4193
  448SOL    HW2 1344   1.231   0.979   1.795  0.5808 -0.3406 -0.5624
  449SOL     OW 1345   0.219   1.675   2.950  0.2013  0.0413  0.0023
  449SOL    HW1 1346   0.188   1.575   2.961 -2.7432 -3.2899 -1.8547
  449SOL    HW2 1347   0.206   1.725   3.044 -1.7864 -0.9638  5.6319
  450SOL     OW 1348   2.385   2.443   2.228 -0.5145  0.6334 -0.1161
  450SOL    HW1 1349   2.342   2.418   2.136  0.2812  0.1835 -4.4603
  450SOL    HW2 1350   2.481   2.473   2.201 -0.1300  0.3236 -0.4563
  451SOL     OW 1351   2.143   0.400   2.028 -0.5340 -0.5249 -0.3985
  451SOL    HW1 1352   2.128   0.305   1.993 -0.0046  2.1720  1.3179
  451SOL    HW2 1353   2.095   0.474   1.979 -1.8967 -0.3168  0.3566
  452SOL     OW 1354   0.750   2.624   1.068 -0.1204  0.1507 -0.3609
  452SOL    HW1 1355   0.650   2.639   1.057  1.0255  0.5678  0.9592
  452SOL    HW2 1356   0.800   2.711   1.072  0.3309 -0.3364 -1.2051
  453SOL     OW 1357   1.136   1.236   0.994  0.1450  0.4087 -0.7386
  453SOL    HW1 1358   1.169   1.318   1.046 -2.6909 -0.7190 -1.4890
  453SOL    HW2 1359   1.052   1.205   1.045  1.6470 -0.1458  1.3485
  454SOL     OW 1360   0.216   1.058   0.824 -0.5492 -0.6747 -0.0336
  454SOL    HW1 1361   0.226   1.063   0.921 -0.9053 -1.3448 -4.3552
  454SOL    HW2 1362   0.214   1.156   0.783  1.0864  2.6077  1.0758
  455SOL     OW 1363   0.189   2.947   0.281 -0.0284 -0.6031  0.1499
  455SOL    HW1 1364   0.239   3.008   0.218  1.7647  1.2784 -1.3955
  455SOL    HW2 1365   0.127   2.998   0.344 -0.1374  1.0981  2.8651
  456SOL     OW 1366   2.361   2.395   0.682  0.0152 -0.2908 -0.6588
  456SOL    HW1 1367   2.388   2.301   0.693 -0.3638  1.8001 -0.3901
  456SOL    HW2 1368   2.425   2.443   0.620 -0.5398  0.4417  0.2570
  457SOL     OW 1369   0.983   0.029   2.859  0.4061 -0.1668  0.0282
  457SOL    HW1 1370   0.915   3.043   2.912  3.8437 -1.4310 -2.0564
  457SOL    HW2 1371   1.049   3.032   2.816  1.2215 -0.6105  0.4084
  458SOL     OW 1372   2.938   2.744   0.299 -0.3027  0.5186 -0.0420
  458SOL    HW1 1373   2.891   2.656   0.284 -0.3874  0.1017  2.1006
  458SOL    HW2 1374   2.996   2.763   0.215 -1.9414 -1.1713  2.2324
  459SOL     OW 1375   2.493   0.398   2.154 -0.0717  0.1625  0.3835
  459SOL    HW1 1376   2.417   0.413   2.216 -2.2441 -0.8139 -0.4001
  459SOL    HW2 1377   2.471   0.354   2.064 -2.3730  2.9835 -0.1879
  460SOL     OW 1378   3.008   0.652   0.066  0.1362  0.0899  0.5757
  460SOL    HW1 1379   3.059   0.676   3.047 -0.3987 -2.1927  0.3171
  460SOL    HW2 1380   2.907   0.652   0.046 -0.6117 -0.5909 -1.1624
  461SOL     OW 1381   0.482   1.814   1.197 -0.8995  0.1822  0.6931
  461SOL    HW1 1382   0.497   1.800   1.094  1.6523 -1.9767 -0.7412
  461SOL    HW2 1383   0.550   1.884   1.232  2.4229 -0.3571 -0.6010
  462SOL     OW 1384   3.022   2.656   1.445  0.3468  0.0622 -0.1004
  462SOL    HW1 1385   2.981   2.752   1.439 -0.7445  2.0284  0.6066
  462SOL    HW2 1386   0.011   2.645   1.526 -3.4968 -1.6440 -1.1011
  463SOL     OW 1387   2.449   1.127   2.994  0.3347 -0.2458  0.1161
  463SOL    HW1 1388   2.370   1.181   2.953 -0.3645  1.1227  0.4377
  463SOL    HW2 1389   2.508   1.083   2.918  2.8038  0.4620 -1.2652
  464SOL     OW 1390   0.435   2.222   1.026 -0.3477 -0.2111  0.5338
  464SOL    HW1 1391   0.433   2.121   1.010 -1.6614 -0.1153  0.0062
  464SOL    HW2 1392   0.458   2.237   1.124  0.3129 -0.1082 -1.3692
  465SOL     OW 1393   0.709   0.552   0.671 -0.1904  0.0646  0.2817
  465SOL    HW1 1394   0.696   0.463   0.624  2.4684  0.2486  0.7979
  465SOL    HW2 1395   0.625   0.604   0.691  2.3913  0.9471 -0.8855
  466SOL     OW 1396   1.213   2.807   2.147  0.3718  0.3007  0.1819
  466SOL    HW1 1397   1.221   2.748   2.066  0.2034  1.6747  1.0883
  466SOL    HW2 1398   1.123   2.798   2.192  1.0758  3.0007  2.6984
  467SOL     OW 1399   0.809   0.324   2.034 -0.5604 -0.7280 -0.5547
  467SOL    HW1 1400   0.736   0.305   1.968  3.7160 -1.2497 -3.3868
  467SOL    HW2 1401   0.769   0.348   2.128 -0.8999 -0.4878  2.5942
  468SOL     OW 1402   0.221   1.313   2.191 -0.1606  0.0053 -0.0759
  468SOL    HW1 1403   0.183   1.218   2.193  0.9361 -0.4988  1.9953
  468SOL    HW2 1404   0.161   1.378   2.240  1.4316 -2.7949 -4.3470
  469SOL     OW 1405   0.323   1.666   0.756  0.4517 -0.3351 -0.3347
  469SOL    HW1 1406   0.276   1.712   0.675 -0.1863  0.1642 -2.1870
  469SOL    HW2 1407   0.373   1.590   0.722 -2.7986 -1.1939  1.2157
  470SOL     OW 1408   2.547   1.816   2.244 -0.1176 -0.1294 -0.9383
  470SOL    HW1 1409   2.585   1.771   2.164  2.1635 -0.9756  1.0370
  470SOL    HW2 1410   2.618   1.860   2.305 -0.4142 -0.4847  1.8910
  471SOL     OW 1411   1.381   0.480   2.541  0.6072 -0.2988  0.5107
  471SOL    HW1 1412   1.394   0.398   2.481 -0.7178  0.5743  1.2630
  471SOL    HW2 1413   1.448   0.486   2.617 -0.3847 -2.6977 -0.0799
  472SOL     OW 1414   0.507   2.289   1.670  0.2436 -1.2441  0.9491
  472SOL    HW1 1415   0.565   2.229   1.724 -0.9966  0.2851 -1.4120
  472SOL    HW2 1416   0.562   2.365   1.634 -2.3863  0.2400 -1.5827
  473SOL     OW 1417   0.371   0.171   2.520  0.0292  0.3690  0.3105
  473SOL    HW1 1418   0.459   0.213   2.540 -0.4607 -0.0790 -0.2565
  473SOL    HW2 1419   0.384   0.089   2.458 -0.9444  0.4608 -1.9846
  474SOL     OW 1420   1.858   0.067   1.219  0.0711 -0.4358  0.2504
  474SOL    HW1 1421   1.898   0.162   1.226 -3.2578 -1.4749  0.6773
  474SOL    HW2 1422   1.840   0.039   1.120  0.0404  0.8725  0.2798
  475SOL     OW 1423   2.055   0.776   1.123 -0.1095  0.2608  0.5330
  475SOL    HW1 1424   1.975   0.763   1.063  0.4834  0.4016 -2.8322
  475SOL    HW2 1425   2.120   0.849   1.085  0.0804 -0.5554 -0.4928
  476SOL     OW 1426   0.706   0.916   0.845  0.1927 -0.8399 -0.3885
  476SOL    HW1 1427   0.651   0.934   0.930  0.3444  2.3781 -2.0764
  476SOL    HW2 1428   0.796   0.895   0.878 -0.9016 -0.0859 -1.8813
  477SOL     OW 1429   1.422   2.231   0.719 -0.0885 -0.5913 -0.2969
  477SOL    HW1 1430   1.421   2.176   0.804 -0.0141 -1.4891  1.9489
  477SOL    HW2 1431   1.334   2.224   0.669 -1.6875  0.4226  0.7516
  478SOL     OW 1432   3.035   2.542   2.181 -0.3059  0.2671  0.3609
  478SOL    HW1 1433   3.032   2.578   2.278  0.6445  0.4414 -0.1299
  478SOL    HW2 1434   0.065   2.514   2.148  1.4956 -1.8992  0.6366
  479SOL     OW 1435   2.606   0.301   1.291  0.1215 -0.0940 -0.1319
  479SOL    HW1 1436   2.559   0.362   1.360 -1.7820 -0.4032 -0.4509
  479SOL    HW2 1437   2.534   0.284   1.215 -2.4521 -0.3046 -3.3425
  480SOL     OW 1438   0.290   2.342   0.521  0.1528  0.0043 -0.1560
  480SOL    HW1 1439   0.316   2.325   0.425 -2.6179 -0.0490  1.3960
  480SOL    HW2 1440   0.195   2.382   0.524 -2.1037 -1.0208 -2.8301
  481SOL     OW 1441   2.343   2.156   1.532 -0.0765 -0.0498  0.0265
  481SOL    HW1 1442   2.299   2.246   1.549  0.7674 -1.7467 -0.6447
  481SOL    HW2 1443   2.373   2.104   1.616  1.4959 -1.3929  0.1242
  482SOL     OW 1444   1.161   2.562   2.909  0.1502 -0.1922  0.6362
  482SOL    HW1 1445   1.136   2.503   2.987  0.6887  0.0892 -0.4725
  482SOL    HW2 1446   1.254   2.547   2.875  0.6721 -0.7262  0.7168
  483SOL     OW 1447   0.632   2.041   1.843 -0.1500  0.3192  0.4006
  483SOL    HW1 1448   0.677   2.019   1.755  0.8491 -0.4547  2.4703
  483SOL    HW2 1449   0.571   1.965   1.884  1.6896  0.3485  3.1724
  484SOL     OW 1450   1.221   0.380   1.361  0.6413  0.0617 -0.2369
  484SOL    HW1 1451   1.267   0.447   1.425  1.5016  0.2843 -0.8095
  484SOL    HW2 1452   1.166   0.429   1.287 -2.6556  0.5032  3.6733
  485SOL     OW 1453   1.737   0.923   2.900  0.0060  0.1517 -0.3534
  485SOL    HW1 1454   1.814   0.952   2.962  2.6860  1.6649 -1.4134
  485SOL    HW2 1455   1.708   0.990   2.830  2.1844  0.5350 -0.1060
  486SOL     OW 1456   2.244   0.040   1.463  0.3781 -0.4319  0.4021
  486SOL    HW1 1457   2.236   0.141   1.444  1.7904  0.0753  2.0381
  486SOL    HW2 1458   2.338   0.011   1.487  3.1921 -2.9077 -0.3866
  487SOL     OW 1459   0.732   2.104   0.986 -0.2961 -0.7092  0.1441
  487SOL    HW1 1460   0.685   2.181   1.029  0.9632 -1.4384 -1.0482
  487SOL    HW2 1461   0.811   2.077   1.041  0.0435 -2.7003 -0.7527
  488SOL     OW 1462   2.456   2.170   3.031  0.2443  0.6480 -0.5829
  488SOL    HW1 1463   2.458   2.160   2.935  0.2490 -2.9338  0.5117
  488SOL    HW2 1464   2.367   2.215   3.053 -1.6087  0.0504  1.2447
  489SOL     OW 1465   2.003   2.890   0.541  0.6839  0.6154 -0.2991
  489SOL    HW1 1466   2.078   2.842   0.586 -0.9392  1.0308  1.0876
  489SOL    HW2 1467   2.007   2.905   0.441  0.3037  0.2316  3.8385
  490SOL     OW 1468   0.919   1.892   2.912 -0.6240  0.5271 -0.0706
  490SOL    HW1 1469   0.920   1.904   2.810  1.8307  0.0017 -2.2194
  490SOL    HW2 1470   0.970   1.965   2.963 -1.4118  0.2628  0.6860
  491SOL     OW 1471   0.137   1.907   1.610  0.7778 -0.0262 -0.5993
  491SOL    HW1 1472   0.110   1.852   1.698 -0.9196 -3.1996  3.1627
  491SOL    HW2 1473   0.203   1.984   1.619 -0.4316  0.6366 -1.8704
  492SOL     OW 1474   0.684   1.492   1.714  0.4463 -0.2055 -0.2086
  492SOL    HW1 1475   0.786   1.485   1.736  2.6436 -0.2390 -0.6535
  492SOL    HW2 1476   0.631   1.433   1.782 -1.1868 -1.6397 -0.9366
  493SOL     OW 1477   2.558   1.639   0.907 -0.5714 -0.2125 -0.2489
  493SOL    HW1 1478   2.510   1.616   0.823  1.0298 -1.0836  1.9595
  493SOL    HW2 1479   2.652   1.603   0.917  0.6495 -3.4663 -0.7315
  494SOL     OW 1480   2.907   1.617   0.764 -0.2458  0.2135  0.4467
  494SOL    HW1 1481   2.866   1.558   0.697  1.0779 -1.6597  2.2321
  494SOL    HW2 1482   2.906   1.719   0.742  1.2961 -4.2031 -0.8650
  495SOL     OW 1483   2.326   2.896   0.444 -0.0707 -0.1196 -0.7155
  495SOL    HW1 1484   2.325   2.990   0.411 -0.3111 -0.1439 -0.5934
  495SOL    HW2 1485   2.297   2.835   0.370 -0.3209  1.7727  1.0123
  496SOL     OW 1486   2.497   0.037   1.597 -0.2216  0.3354 -0.1582
  496SOL    HW1 1487   2.547   0.018   1.507 -0.0889 -0.2632  1.0849
  496SOL    HW2 1488   2.530   0.121   1.647  0.5991  0.4131  0.4765
  497SOL     OW 1489   2.415   1.367   2.682 -0.3034 -0.0110  0.3727
  497SOL    HW1 1490   2.336   1.315   2.647 -0.9830  1.0827 -1.9763
  497SOL    HW2 1491   2.485   1.309   2.729  0.5183 -1.0974  2.8468
  498SOL     OW 1492   2.786   1.786   1.305  0.5421 -0.0214  0.0954
  498SOL    HW1 1493   2.848   1.838   1.369  2.0168 -1.1674 -1.9311
  498SOL    HW2 1494   2.766   1.843   1.221 -2.1395  2.3203 -1.1092
  499SOL     OW 1495   1.063   2.166   2.563 -0.2545  0.1316 -0.2367
  499SOL    HW1 1496   1.089   2.252   2.608  1.8870 -2.6327 -2.1082
  499SOL    HW2 1497   1.065   2.184   2.461  2.1633  2.5214 -1.4602
  500SOL     OW 1498   1.574   1.421   0.624  0.7052 -0.1958  0.4664
  500SOL    HW1 1499   1.671   1.399   0.635 -0.7224  0.5951 -0.2548
  500SOL    HW2 1500   1.522   1.428   0.714 -0.4534 -2.3587 -1.3376
  501SOL     OW 1501   1.505   0.131   1.550 -0.3343  0.1024  0.4344
  501SOL    HW1 1502   1.410   0.096   1.571  0.0059 -0.8827 -1.1131
  501SOL    HW2 1503   1.577   0.063   1.575 -1.3437  0.3133  2.8069
  502SOL     OW 1504   2.721   0.691   1.661  0.0383  0.3470 -0.7714
  502SOL    HW1 1505   2.783   0.615   1.696  0.5223 -0.6522 -0.6714
  502SOL    HW2 1506   2.643   0.710   1.725  0.2182  0.2698  0.3362
  503SOL     OW 1507   2.505   1.429   2.032 -0.0672 -0.5823  0.3298
  503SOL    HW1 1508   2.436   1.498   2.008  3.9182  1.2346 -0.9465
  503SOL    HW2 1509   2.591   1.455   1.989  0.0250 -1.3286 -2.5864
  504SOL     OW 1510   1.066   1.238   1.896  0.4846 -0.1633  0.4270
  504SOL    HW1 1511   1.111   1.250   1.982 -1.5612  3.4562 -3.0705
  504SOL    HW2 1512   1.114   1.169   1.839 -1.6109 -0.4367 -0.8303
  505SOL     OW 1513   0.562   0.080   1.503 -0.0063  0.0351 -0.2136
  505SOL    HW1 1514   0.588   0.070   1.603  1.9969 -0.9764 -2.7458
  505SOL    HW2 1515   0.581   0.174   1.477  0.3408  2.3691  1.1392
  506SOL     OW 1516   0.214   0.300   0.036  0.4274 -0.2799  0.3119
  506SOL    HW1 1517   0.161   0.371   0.087  1.8734  1.0906  0.0777
  506SOL    HW2 1518   0.288   0.346   3.051  1.0324  0.3754 -0.5697
  507SOL     OW 1519   0.303   2.356   3.024 -0.8061 -0.1366 -0.5558
  507SOL    HW1 1520   0.252   2.440   3.031  3.2222 -0.2942  0.8909
  507SOL    HW2 1521   0.338   2.336   0.050 -1.3518  0.1443 -3.0869
  508SOL     OW 1522   1.064   0.249   2.073  0.0658  0.2322  0.0453
  508SOL    HW1 1523   0.967   0.273   2.065  2.2865 -1.0772 -1.0668
  508SOL    HW2 1524   1.077   0.157   2.109 -0.0192  1.5224  0.3089
  509SOL     OW 1525   1.427   2.039   1.288  0.1965  0.7538 -0.5952
  509SOL    HW1 1526   1.481   1.993   1.363 -0.8621 -1.6603 -1.2368
  509SOL    HW2 1527   1.395   2.130   1.322 -1.3066  2.2782 -0.1497
  510SOL     OW 1528   2.828   1.080   1.551 -0.1336  0.0576  0.1932
  510SOL    HW1 1529   2.767   1.019   1.608  0.0308 -1.5346 -1.4178
  510SOL    HW2 1530   2.804   1.070   1.450  1.0605  0.1068 -0.9699
  511SOL     OW 1531   1.210   1.902   1.304  0.2189  0.0693  0.0531
  511SOL    HW1 1532   1.294   1.949   1.273  0.5834 -1.1053 -2.6980
  511SOL    HW2 1533   1.209   1.878   1.405 -0.4193  0.1021  0.2164
  512SOL     OW 1534   0.216   1.602   0.353 -0.3646 -0.2641  0.3577
  512SOL    HW1 1535   0.122   1.617   0.396 -3.5134  0.6973 -2.0178
  512SOL    HW2 1536   0.211   1.624   0.251 -0.6466 -0.2903 -3.0188
  513SOL     OW 1537   0.244   1.378   2.982 -0.5623  0.5271 -0.1827
  513SOL    HW1 1538   0.274   1.350   2.889 -0.0086 -0.5968 -1.1114
  513SOL    HW2 1539   0.171   1.309   3.011 -1.6941 -3.8733  1.1287
  514SOL     OW 1540   2.096   2.389   2.341 -0.2525  0.4618 -0.4170
  514SOL    HW1 1541   2.091   2.293   2.363 -0.4521  2.2487 -0.7268
  514SOL    HW2 1542   2.191   2.429   2.343  2.2989  2.6887 -1.3409
  515SOL     OW 1543   2.571   0.889   0.554 -0.0843  0.3136  0.1808
  515SOL    HW1 1544   2.522   0.819   0.500  1.3493 -2.4361 -0.3572
  515SOL    HW2 1545   2.639   0.935   0.493 -0.9737 -0.5263  2.1796
  516SOL     OW 1546   2.422   2.566   0.164 -0.2006 -0.2515 -0.2767
  516SOL    HW1 1547   2.375   2.516   0.086  1.6988  0.8283 -1.8821
  516SOL    HW2 1548   2.468   2.504   0.237  2.7448  0.5161  2.2236
  517SOL     OW 1549   0.690   1.661   2.867 -0.3756 -0.1303 -0.6085
  517SOL    HW1 1550   0.669   1.702   2.776  1.1331  3.2652  0.5745
  517SOL    HW2 1551   0.610   1.660   2.930 -0.4026 -0.5299  0.9776
  518SOL     OW 1552   2.842   0.363   1.956 -0.8166  0.3871 -0.2314
  518SOL    HW1 1553   2.781   0.290   1.996 -2.0984  0.1336  2.7538
  518SOL    HW2 1554   2.937   0.326   1.954 -0.9336  0.8234  0.0779
  519SOL     OW 1555   1.692   1.164   0.219 -0.0663 -0.2665 -0.4921
  519SOL    HW1 1556   1.660   1.167   0.122 -1.8325  0.9264 -0.7591
  519SOL    HW2 1557   1.628   1.120   0.281  0.0966  0.5521 -2.7785
  520SOL     OW 1558   2.719   2.987   2.229 -0.1607 -0.6076 -0.3152
  520SOL    HW1 1559   2.816   3.011   2.243  0.4338  0.0163  0.3116
  520SOL    HW2 1560   2.716   2.891   2.264  0.7557 -1.0279  2.2641
  521SOL     OW 1561   0.099   2.139   2.228  0.5040  0.1907  0.4507
  521SOL    HW1 1562   0.124   2.227   2.195  0.3657 -2.3879 -0.4578
  521SOL    HW2 1563   0.181   2.077   2.227 -0.4919 -4.0256  2.0015
  522SOL     OW 1564   1.196   2.817   1.760  0.3397  0.0605 -0.2047
  522SOL    HW1 1565   1.254   2.761   1.822 -0.7009  3.0398 -0.0688
  522SOL    HW2 1566   1.215   2.792   1.668  0.8007  1.9150  0.5375
  523SOL     OW 1567   2.122   2.279   1.049  0.4329 -0.3204 -0.7564
  523SOL    HW1 1568   2.187   2.339   0.995 -1.5356  1.1975 -0.8331
  523SOL    HW2 1569   2.162   2.246   1.136  1.7603  1.6445 -0.2895
  524SOL     OW 1570   0.993   2.291   0.810  0.6605  0.1334  0.6514
  524SOL    HW1 1571   1.022   2.279   0.909  1.8289  1.4028  1.0612
  524SOL    HW2 1572   0.968   2.386   0.797 -3.0051 -1.0521  0.1055
  525SOL     OW 1573   2.844   0.622   0.876 -0.1305  0.9911  0.7328
  525SOL    HW1 1574   2.781   0.673   0.824  2.6404 -2.6057  2.0292
  525SOL    HW2 1575   2.870   0.667   0.961 -1.3675 -3.8349 -0.8151
  526SOL     OW 1576   1.474   0.264   0.445 -0.1633  0.4086  0.2348
  526SOL    HW1 1577   1.454   0.303   0.536  1.1179 -1.0271 -0.3736
  526SOL    HW2 1578   1.461   0.329   0.369 -1.4729 -0.5425 -1.9884
  527SOL     OW 1579   1.895   1.474   1.242  0.2328  0.2390  0.3405
  527SOL    HW1 1580   1.814   1.512   1.189 -1.6547 -1.1372  0.7999
  527SOL    HW2 1581   1.893   1.369   1.248 -1.7787 -1.1623 -1.3353
  528SOL     OW 1582   2.724   2.730   2.347  0.1539 -0.0068  0.3219
  528SOL    HW1 1583   2.803   2.703   2.396 -1.9842 -0.6454 -1.4169
  528SOL    HW2 1584   2.689   2.647   2.296  0.4174  2.9091 -1.1505
  529SOL     OW 1585   0.989   1.261   2.326  0.3666 -0.0144  0.1212
  529SOL    HW1 1586   1.023   1.263   2.421 -0.1843 -0.4729 -0.3490
  529SOL    HW2 1587   0.929   1.180   2.321 -0.4001  1.5902  0.4808
  530SOL     OW 1588   1.790   0.728   2.565 -0.0739  0.4068 -0.6808
  530SOL    HW1 1589   1.873   0.766   2.617 -0.8227 -0.0472  1.6075
  530SOL    HW2 1590   1.738   0.660   2.622  2.4386  0.5750 -0.5925
  531SOL     OW 1591   0.096   0.936   0.137  0.1122 -0.4361  0.3388
  531SOL    HW1 1592   0.003   0.940   0.093  0.3452 -0.9612 -1.9002
  531SOL    HW2 1593   0.127   1.023   0.181 -0.0662  0.6358  0.7233
  532SOL     OW 1594   1.732   1.418   0.975 -0.7923  0.2119  0.1851
  532SOL    HW1 1595   1.668   1.339   0.998  0.0777 -2.1975  0.8412
  532SOL    HW2 1596   1.672   1.505   0.964  0.5230 -0.5728 -0.5712
  533SOL     OW 1597   0.282   0.747   2.454  0.2012 -0.2087  0.0988
  533SOL    HW1 1598   0.268   0.814   2.531  0.3092  1.1078 -1.5453
  533SOL    HW2 1599   0.342   0.670   2.479 -1.6495  3.8027 -1.7282
  534SOL     OW 1600   1.027   0.260   2.476  0.1345  0.1966  0.4819
  534SOL    HW1 1601   1.090   0.342   2.467  1.0278  1.5714 -0.8303
  534SOL    HW2 1602   0.985   0.249   2.567 -0.1991  0.1904 -2.1228
  535SOL     OW 1603   0.639   0.559   3.001  0.5370  0.1863 -0.1461
  535SOL    HW1 1604   0.617   0.658   2.991 -0.9196  2.7811 -0.6031
  535SOL    HW2 1605   0.734   0.534   2.963  1.0942 -3.4394 -0.1165
  536SOL     OW 1606   0.528   0.934   2.260 -0.5059  0.2352 -0.0661
  536SOL    HW1 1607   0.443   0.902   2.214  1.4869  0.0097  0.6606
  536SOL    HW2 1608   0.512   1.019   2.314  0.6039  1.2256 -5.1363
  537SOL     OW 1609   1.408   2.770   1.336  0.4919 -0.2225  0.5512
  537SOL    HW1 1610   1.406   2.846   1.264 -0.1541 -0.4857 -0.7282
  537SOL    HW2 1611   1.332   2.773   1.404 -2.3126 -0.9516 -0.9195
  538SOL     OW 1612   0.892   2.140   0.194 -0.0281 -0.0914  0.2439
  538SOL    HW1 1613   0.831   2.205   0.144  0.4403  0.1556 -1.0142
  538SOL    HW2 1614   0.955   2.102   0.126 -0.2402 -0.7854  0.7019
  539SOL     OW 1615   2.523   1.174   1.919  0.0043 -0.1577 -0.1457
  539SOL    HW1 1616   2.430   1.139   1.942  0.4786 -0.1748 -1.0303
  539SOL    HW2 1617   2.515   1.272   1.941 -1.5446 -0.1905 -1.3611
  540SOL     OW 1618   1.869   1.765   1.609  0.2103 -0.0278 -0.3090
  540SOL    HW1 1619   1.785   1.712   1.571 -1.9712 -3.1050 -0.1497
  540SOL    HW2 1620   1.853   1.866   1.614  0.6183  2.0418 -1.5556
  541SOL     OW 1621   0.602   1.716   1.606  0.2776  1.1583 -0.0997
  541SOL    HW1 1622   0.651   1.642   1.661 -0.6226 -0.1048 -1.3682
  541SOL    HW2 1623   0.570   1.667   1.522 -1.5864 -1.9334 -2.8591
  542SOL     OW 1624   1.785   1.091   2.010  0.8272  0.1887 -0.1791
  542SOL    HW1 1625   1.710   1.104   1.942 -1.0762 -1.4618 -0.5976
  542SOL    HW2 1626   1.832   1.007   1.985  1.4129 -2.0384  0.7983
  543SOL     OW 1627   1.003   0.430   0.682  0.6241 -0.0184 -0.6222
  543SOL    HW1 1628   1.042   0.525   0.671  0.4912 -1.1287 -1.2125
  543SOL    HW2 1629   0.957   0.403   0.596 -2.8729 -0.1565  1.3725
  544SOL     OW 1630   2.022   1.848   2.447  0.1523 -0.1150  0.2148
  544SOL    HW1 1631   2.048   1.792   2.365  0.1120 -1.8436 -2.8278
  544SOL    HW2 1632   2.101   1.888   2.496  2.0817 -0.7478  0.7887
  545SOL     OW 1633   1.715   1.616   1.453  0.0052 -0.2127  0.8866
  545SOL    HW1 1634   1.692   1.640   1.356 -0.4572 -0.4788  1.9722
  545SOL    HW2 1635   1.724   1.515   1.459 -2.0647 -0.8073 -0.3522
  546SOL     OW 1636   0.401   0.425   2.933  0.3933  0.4065  0.0201
  546SOL    HW1 1637   0.363   0.470   2.851 -0.4667 -0.9957 -2.1430
  546SOL    HW2 1638   0.482   0.479   2.962 -0.6704  0.5605  0.5725
  547SOL     OW 1639   1.989   0.744   0.066  0.6134  0.1764  0.4009
  547SOL    HW1 1640   1.897   0.712   0.094 -1.5707  0.5880 -1.6490
  547SOL    HW2 1641   2.066   0.684   0.098  2.5519  0.1740 -1.2036
  548SOL     OW 1642   2.309   1.969   2.246 -0.0406 -0.3787  0.7479
  548SOL    HW1 1643   2.271   1.995   2.154  1.9753 -1.6918  0.2164
  548SOL    HW2 1644   2.381   1.900   2.238  1.6125  1.1453 -1.1584
  549SOL     OW 1645   2.125   0.146   0.884 -0.1025  0.0524  0.6325
  549SOL    HW1 1646   2.196   0.081   0.920 -0.3369 -0.3782 -1.8821
  549SOL    HW2 1647   2.169   0.234   0.857  1.4822 -0.1151 -0.2908
  550SOL     OW 1648   2.271   1.631   0.417  0.0876 -0.0466  0.1633
  550SOL    HW1 1649   2.179   1.592   0.395 -0.4982 -0.6074  0.9821
  550SOL    HW2 1650   2.324   1.667   0.340 -1.7955  1.6111 -0.1541
  551SOL     OW 1651   1.308   0.229   1.848  0.5197  0.0605 -0.2194
  551SOL    HW1 1652   1.401   0.214   1.890  3.4458 -0.0633  1.4548
  551SOL    HW2 1653   1.236   0.183   1.902 -0.0084 -1.1612  0.0116
  552SOL     OW 1654   3.030   2.389   2.541 -1.0913  0.4057  0.1091
  552SOL    HW1 1655   0.044   2.407   2.601 -3.1116 -1.3448  1.9527
  552SOL    HW2 1656   2.986   2.477   2.521 -0.1655 -0.2300  2.5954
  553SOL     OW 1657   0.824   3.043   0.274 -0.3315  0.0687  0.2514
  553SOL    HW1 1658   0.909   0.022   0.309 -1.3766 -0.0794 -1.5581
  553SOL    HW2 1659   0.742   0.034   0.281 -0.5259  2.4163  0.6595
  554SOL     OW 1660   1.834   2.340   1.605 -0.4583  0.2869  0.7000
  554SOL    HW1 1661   1.874   2.391   1.525  1.2762 -3.2325 -2.8388
  554SOL    HW2 1662   1.840   2.398   1.689 -0.2465 -1.7570  0.7741
  555SOL     OW 1663   1.323   2.082   1.718  0.2203 -0.4184  0.1857
  555SOL    HW1 1664   1.403   2.143   1.707 -0.8605  0.3487  0.2966
  555SOL    HW2 1665   1.275   2.087   1.810 -2.0018 -0.1329  4.8037
  556SOL     OW 1666   1.604   1.833   0.676  0.8618 -0.0390  0.9859
  556SOL    HW1 1667   1.538   1.767   0.636 -1.0978  0.2247 -1.4431
  556SOL    HW2 1668   1.564   1.860   0.766  0.0507 -1.7511 -1.0944
  557SOL     OW 1669   1.522   2.104   2.068 -0.1669 -0.2805  0.6916
  557SOL    HW1 1670   1.565   2.021   2.023  1.8639 -3.7180 -4.2460
  557SOL    HW2 1671   1.523   2.099   2.167 -0.6806 -3.7362  0.5800
  558SOL     OW 1672   0.041   0.232   1.912  0.3413 -0.1500  0.4697
  558SOL    HW1 1673   0.094   0.314   1.936 -2.7865 -1.6149  0.9151
  558SOL    HW2 1674   0.047   0.210   1.813 -1.1234  0.6138 -0.3016
  559SOL     OW 1675   2.461   2.852   1.390  0.0003  0.2890 -0.2419
  559SOL    HW1 1676   2.387   2.809   1.335  1.1740  0.8458 -2.6869
  559SOL    HW2 1677   2.552   2.842   1.357  0.2171  3.6288  0.7403
  560SOL     OW 1678   0.881   2.590   0.190 -0.3763 -0.4586  0.2152
  560SOL    HW1 1679   0.831   2.682   0.195 -0.8828  0.1616  1.9174
  560SOL    HW2 1680   0.869   2.544   0.279  0.4020  0.4001 -1.8458
  561SOL     OW 1681   1.052   0.876   0.287 -0.3314 -0.2741  0.5264
  561SOL    HW1 1682   1.001   0.822   0.217  2.3640 -3.8656  0.9747
  561SOL    HW2 1683   1.019   0.974   0.304 -0.5232  1.7906  0.4210
  562SOL     OW 1684   0.893   0.789   2.447  0.3330 -0.1811 -0.1331
  562SOL    HW1 1685   0.941   0.731   2.379  0.9085  1.7476  1.3973
  562SOL    HW2 1686   0.897   0.744   2.540  2.8905  0.7992 -1.2530
  563SOL     OW 1687   1.735   2.206   2.493 -0.3028  0.6741  0.1100
  563SOL    HW1 1688   1.820   2.157   2.457  1.0822 -2.8382 -1.2935
  563SOL    HW2 1689   1.735   2.299   2.469 -1.2851 -3.7624  2.0967
  564SOL     OW 1690   0.230   1.184   0.226 -0.0814 -0.3885 -0.8790
  564SOL    HW1 1691   0.332   1.193   0.218  3.0321  0.2072  1.8849
  564SOL    HW2 1692   0.192   1.267   0.189  0.9910 -0.3714  0.7561
  565SOL     OW 1693   1.228   2.926   2.792  0.0966 -0.8897  0.1513
  565SOL    HW1 1694   1.231   2.873   2.707 -0.3088  0.9838  1.1552
  565SOL    HW2 1695   1.268   3.019   2.772 -0.1319 -0.0529 -1.6980
  566SOL     OW 1696   1.701   2.943   2.449 -0.0432  0.1904  0.1327
  566SOL    HW1 1697   1.784   2.943   2.395 -1.0897  1.0742  1.9647
  566SOL    HW2 1698   1.640   2.860   2.452 -0.9468  1.5354 -1.0869
  567SOL     OW 1699   2.471   1.144   0.822  0.1793  0.4609 -0.0535
  567SOL    HW1 1700   2.503   1.075   0.890 -1.4319  0.9859  2.1627
  567SOL    HW2 1701   2.372   1.153   0.817 -0.2801 -1.2803  0.1838
  568SOL     OW 1702   2.090   1.774   0.156 -0.1306  0.2952 -0.5610
  568SOL    HW1 1703   2.006   1.822   0.127  1.9033  0.4580  0.4761
  568SOL    HW2 1704   2.089   1.673   0.129  0.6775 -3.0412  0.6615
  569SOL     OW 1705   2.200   1.719   2.782  0.3069 -0.2187  1.0945
  569SOL    HW1 1706   2.298   1.687   2.768  0.1889 -0.2634 -0.5530
  569SOL    HW2 1707   2.144   1.639   2.754  0.8620  1.3708 -2.6789
  570SOL     OW 1708   2.951   2.508   1.745 -0.0684 -0.1587  0.8703
  570SOL    HW1 1709   2.904   2.495   1.836 -2.0077  4.9846 -1.4330
  570SOL    HW2 1710   2.977   2.423   1.694 -1.0152  0.7423  0.8454
  571SOL     OW 1711   0.060   0.423   2.268 -0.0248 -0.6874 -0.1458
  571SOL    HW1 1712   0.161   0.399   2.259  1.8195 -0.3561 -1.1412
  571SOL    HW2 1713   0.032   0.488   2.196 -0.9804 -1.8259  1.1521
  572SOL     OW 1714   1.197   1.467   1.123  0.0531  0.5439 -0.2508
  572SOL    HW1 1715   1.233   1.563   1.113 -0.0655 -0.6674 -0.8486
  572SOL    HW2 1716   1.131   1.465   1.198  1.1841 -1.2398  0.2110
  573SOL     OW 1717   1.003   0.272   3.021  0.5373 -0.1011  0.0954
  573SOL    HW1 1718   1.018   0.188   2.964 -0.4433  2.1108  0.9597
  573SOL    HW2 1719   1.093   0.299   3.065 -2.2850 -2.9383  1.0815
  574SOL     OW 1720   0.694   0.267   0.613  0.5174  0.6991 -0.0382
  574SOL    HW1 1721   0.614   0.260   0.545 -3.4382 -0.8550 -2.8719
  574SOL    HW2 1722   0.667   0.216   0.700 -1.2671 -1.9909  0.0764
  575SOL     OW 1723   3.054   1.199   1.375  0.1684  0.2871  0.3476
  575SOL    HW1 1724   3.045   1.301   1.362  0.4700 -2.4918  1.6313
  575SOL    HW2 1725   0.061   1.162   1.430 -1.8251  2.7247 -1.6803
  576SOL     OW 1726   2.382   0.468   1.891 -0.5113  0.2488 -0.3659
  576SOL    HW1 1727   2.421   0.553   1.930 -0.3265  2.7088  0.1045
  576SOL    HW2 1728   2.303   0.442   1.950 -0.0225 -0.1368  1.7653
  577SOL     OW 1729   2.788   1.459   1.979 -0.2258  0.0354 -0.0174
  577SOL    HW1 1730   2.816   1.402   2.060  2.4708  1.1502 -0.2545
  577SOL    HW2 1731   2.862   1.432   1.912 -2.2589 -0.5511  0.5004
  578SOL     OW 1732   1.401   2.662   2.311 -0.3980  0.0772  0.2793
  578SOL    HW1 1733   1.442   2.580   2.266  0.7879 -0.0200  2.9724
  578SOL    HW2 1734   1.350   2.729   2.250  0.5884  2.6368  0.0830
  579SOL     OW 1735   2.163   2.076   2.044  0.6267 -0.2303  0.4593
  579SOL    HW1 1736   2.077   2.060   2.094  0.7107 -0.1685  0.0010
  579SOL    HW2 1737   2.147   2.053   1.947  0.0791  1.1676  0.8699
  580SOL     OW 1738   1.660   1.285   2.158  0.1038  0.2877 -0.1664
  580SOL    HW1 1739   1.608   1.353   2.105 -0.1303  0.5269  0.6059
  580SOL    HW2 1740   1.710   1.218   2.096 -0.0684 -1.6737 -0.2817
  581SOL     OW 1741   1.397   1.086   2.332 -0.4986 -0.5330  0.0353
  581SOL    HW1 1742   1.492   1.066   2.302  1.0783  2.0327 -0.9150
  581SOL    HW2 1743   1.358   0.995   2.360 -0.6274 -0.1472  0.7972
  582SOL     OW 1744   2.933   2.118   1.866 -0.2104  0.2134  0.4218
  582SOL    HW1 1745   2.938   2.017   1.884 -3.1699 -2.6337  1.5002
  582SOL    HW2 1746   2.848   2.133   1.806 -3.2319 -0.3262  0.6483
  583SOL     OW 1747   1.556   1.218   1.012  0.3365  0.3125 -0.3734
  583SOL    HW1 1748   1.489   1.193   0.935 -0.8055  2.7828 -1.7317
  583SOL    HW2 1749   1.549   1.135   1.074  1.3586  2.1580 -0.6494
  584SOL     OW 1750   1.181   2.173   0.590 -0.1119 -0.1229 -0.0793
  584SOL    HW1 1751   1.149   2.216   0.500  0.4973 -0.8342 -0.7694
  584SOL    HW2 1752   1.121   2.202   0.667 -0.0258 -0.7007  1.0589
  585SOL     OW 1753   0.108   2.568   0.028 -0.0617  0.6812 -0.1230
  585SOL    HW1 1754   0.067   2.476   0.050  2.1458 -0.1676  0.8038
  585SOL    HW2 1755   0.078   2.597   3.002 -0.6785  0.4109  1.4857
  586SOL     OW 1756   2.762   1.433   0.308  0.2055 -0.3347 -0.2121
  586SOL    HW1 1757   2.791   1.370   0.234  0.5779  0.4360  3.5523
  586SOL    HW2 1758   2.659   1.450   0.300 -0.1501 -0.4774 -1.2012
  587SOL     OW 1759   1.048   1.372   2.823  0.0933 -0.0453 -0.0867
  587SOL    HW1 1760   1.149   1.376   2.813  1.0354  1.3787 -3.4171
  587SOL    HW2 1761   1.015   1.456   2.872 -2.8029  1.7762  0.9721
  588SOL     OW 1762   0.125   0.346   0.612  0.3122 -0.1241  0.1629
  588SOL    HW1 1763   0.208   0.289   0.631  1.4438 -2.7529 -1.7161
  588SOL    HW2 1764   0.089   0.380   0.700  1.0911  1.9602  2.9729
  589SOL     OW 1765   1.371   0.341   0.673  0.2395  0.2236  0.0268
  589SOL    HW1 1766   1.353   0.429   0.623 -0.1965 -1.2708 -0.3550
  589SOL    HW2 1767   1.285   0.280   0.665 -3.2693  2.5250 -1.7722
  590SOL     OW 1768   2.506   2.410   0.356 -0.0524  0.2266  0.0484
  590SOL    HW1 1769   2.597   2.368   0.357  1.6630  1.1478  0.2069
  590SOL    HW2 1770   2.424   2.348   0.364  1.1040 -1.7554 -1.0393
  591SOL     OW 1771   0.272   2.613   1.922  0.0211 -0.2751  0.0570
  591SOL    HW1 1772   0.341   2.687   1.935  0.0266 -1.1094 -0.3026
  591SOL    HW2 1773   0.242   2.617   1.825  0.2949 -0.4892 -0.4680
  592SOL     OW 1774   2.899   2.028   2.155  0.0126  0.1917 -0.2066
  592SOL    HW1 1775   2.906   1.942   2.103  1.0672 -2.0564 -2.1702
  592SOL    HW2 1776   2.992   2.062   2.167  2.0590 -1.0952  2.4096
  593SOL     OW 1777   1.483   1.303   1.496  0.3360 -0.1871  0.4675
  593SOL    HW1 1778   1.583   1.308   1.512 -0.2506 -0.6262  0.9108
  593SOL    HW2 1779   1.454   1.348   1.409 -0.8831  2.0420 -0.9961
  594SOL     OW 1780   0.636   1.237   2.779 -0.1711 -0.5732  0.1715
  594SOL    HW1 1781   0.591   1.255   2.868  2.6634 -2.3147 -0.9427
  594SOL    HW2 1782   0.696   1.315   2.752 -1.0325 -0.6068  0.2719
  595SOL     OW 1783   1.365   0.806   0.827 -0.1166 -0.6239  0.0617
  595SOL    HW1 1784   1.299   0.727   0.832 -2.9091 -2.0117  0.3640
  595SOL    HW2 1785   1.354   0.870   0.747 -2.6330  0.6710  0.7134
  596SOL     OW 1786   0.293   1.093   1.071 -0.0118 -0.8586  0.1741
  596SOL    HW1 1787   0.383   1.043   1.069  3.6966  1.3807  1.0962
  596SOL    HW2 1788   0.294   1.173   1.137  0.2581  0.5332 -3.1842
  597SOL     OW 1789   0.748   2.235   2.011 -0.0878  0.1281  0.0749
  597SOL    HW1 1790   0.704   2.323   2.012  0.0203 -1.5425  2.4122
  597SOL    HW2 1791   0.707   2.175   1.938  0.1177  1.6387 -1.6001
  598SOL     OW 1792   1.944   2.474   2.124  0.2328  0.8052 -0.1869
  598SOL    HW1 1793   1.881   2.553   2.150  0.1220  0.5839  2.9016
  598SOL    HW2 1794   1.990   2.432   2.209 -0.3819 -1.3270 -1.7363
  599SOL     OW 1795   0.929   1.156   0.360 -0.2486 -0.3524 -0.3583
  599SOL    HW1 1796   1.027   1.180   0.393  1.6924  1.2749 -1.5961
  599SOL    HW2 1797   0.919   1.164   0.259  0.1427  0.5109 -0.0106
  600SOL     OW 1798   1.440   0.680   0.108  0.8468  0.3493  0.4422
  600SOL    HW1 1799   1.363   0.667   0.042 -0.2431  1.5209  1.7027
  600SOL    HW2 1800   1.444   0.603   0.174  0.5381  0.1387 -0.3764
  601SOL     OW 1801   0.635   0.382   1.337  0.2498  0.3261 -0.1847
  601SOL    HW1 1802   0.635   0.459   1.406  0.6018  0.8382  0.8745
  601SOL    HW2 1803   0.533   0.371   1.313 -1.5905  0.7290  0.7408
  602SOL     OW 1804   0.379   2.125   0.694 -0.6675 -0.2565 -0.3787
  602SOL    HW1 1805   0.321   2.088   0.617 -0.1612  1.6146 -0.3773
  602SOL    HW2 1806   0.371   2.226   0.706  0.5183 -1.9560  2.3815
  603SOL     OW 1807   0.904   2.434   2.293  0.4759 -0.1675 -0.0824
  603SOL    HW1 1808   0.869   2.528   2.274  3.6321  0.8940  0.3684
  603SOL    HW2 1809   0.831   2.370   2.339 -2.7323 -2.1470  1.8545
  604SOL     OW 1810   0.347   2.175   0.296 -0.3061 -0.0414  0.4449
  604SOL    HW1 1811   0.277   2.143   0.363 -0.7512 -1.5708 -0.8497
  604SOL    HW2 1812   0.369   2.105   0.225  0.6071 -0.1647  0.0999
  605SOL     OW 1813   1.755   1.511   1.805  0.4846  0.2857 -0.3547
  605SOL    HW1 1814   1.800   1.437   1.757  1.0061 -0.6686  0.8626
  605SOL    HW2 1815   1.822   1.583   1.839 -1.1714 -0.3449 -1.6296
  606SOL     OW 1816   0.890   1.073   2.815 -0.2949  0.0880  0.5185
  606SOL    HW1 1817   0.791   1.083   2.844 -1.5577 -0.4758 -0.5328
  606SOL    HW2 1818   0.942   1.161   2.830  0.4139  0.6881  3.2634
  607SOL     OW 1819   1.156   0.907   1.151 -0.0972 -0.6495  0.2739
  607SOL    HW1 1820   1.077   0.965   1.185 -0.3919  0.7091  1.5965
  607SOL    HW2 1821   1.187   0.954   1.067  1.3383  0.0799 -0.5319
  608SOL     OW 1822   2.733   2.226   2.060 -0.3262  0.3204  0.6681
  608SOL    HW1 1823   2.787   2.138   2.070  1.0232 -1.9457 -1.8873
  608SOL    HW2 1824   2.751   2.284   2.142 -0.9821 -0.0217  0.4812
  609SOL     OW 1825   2.263   0.063   0.327  0.0508  0.2253  0.7139
  609SOL    HW1 1826   2.336   0.077   0.254  1.4192  0.9650 -2.7483
  609SOL    HW2 1827   2.184   0.015   0.287 -0.1739 -0.5656  0.3606
  610SOL     OW 1828   0.162   2.187   1.343  0.1165 -0.5239  0.1378
  610SOL    HW1 1829   0.161   2.287   1.337  1.1998 -0.6295  2.5490
  610SOL    HW2 1830   0.136   2.151   1.248  0.4007  0.2471 -0.0155
  611SOL     OW 1831   1.528   2.158   0.456 -0.4546 -0.3046  0.1856
  611SOL    HW1 1832   1.611   2.128   0.415 -2.9379  1.7914 -0.7303
  611SOL    HW2 1833   1.535   2.155   0.560 -1.4752 -1.8292  0.0203
  612SOL     OW 1834   0.637   0.070   1.775  0.1995  0.7996  0.1513
  612SOL    HW1 1835   0.733   0.095   1.755  1.3280 -0.3071  1.5465
  612SOL    HW2 1836   0.593   0.130   1.841 -1.2256 -1.2323  0.1886
  613SOL     OW 1837   3.059   1.692   0.484  0.4387  0.0188  0.2003
  613SOL    HW1 1838   3.013   1.751   0.554  1.0544  1.0333  0.6997
  613SOL    HW2 1839   3.003   1.690   0.400  4.6608  0.6858  0.8098
  614SOL     OW 1840   1.825   0.521   1.971  0.4549 -0.1502 -0.1296
  614SOL    HW1 1841   1.887   0.567   1.909  1.8895 -0.7961  1.3150
  614SOL    HW2 1842   1.832   0.419   1.964 -1.7703  1.8385 -0.3279
  615SOL     OW 1843   0.783   1.293   1.248  0.3673 -0.2152  0.3888
  615SOL    HW1 1844   0.716   1.306   1.325 -0.2068  1.2117  0.3241
  615SOL    HW2 1845   0.736   1.291   1.157  1.1671  0.1236 -1.5367
  616SOL     OW 1846   1.656   1.755   0.105 -0.2398 -0.5304 -0.7228
  616SOL    HW1 1847   1.573   1.797   0.060 -0.5036 -0.1859 -1.2009
  616SOL    HW2 1848   1.741   1.801   0.069 -0.3847  0.8914 -1.3317
  617SOL     OW 1849   2.065   2.937   0.282  0.2064 -0.2837 -0.1929
  617SOL    HW1 1850   2.015   2.938   0.195  0.1006  3.2088 -2.0250
  617SOL    HW2 1851   2.115   2.847   0.287  0.5228 -0.9334 -0.3590
  618SOL     OW 1852   0.617   0.749   2.452 -0.1014 -0.2760 -0.2375
  618SOL    HW1 1853   0.569   0.806   2.384  1.6633 -0.2731  2.0771
  618SOL    HW2 1854   0.716   0.771   2.462  0.0929  1.3012  1.7574
  619SOL     OW 1855   2.812   1.508   0.988  0.4432  0.4563  0.2060
  619SOL    HW1 1856   2.861   1.552   0.914 -1.3752  0.3248  3.2191
  619SOL    HW2 1857   2.769   1.422   0.950 -1.4698 -2.4558 -1.5068
  620SOL     OW 1858   2.073   3.028   2.881 -0.1330  0.1496  0.2896
  620SOL    HW1 1859   2.083   2.973   2.798  1.2202  0.9403  2.6008
  620SOL    HW2 1860   2.012   0.043   2.871  0.4229 -0.6083  1.7290
  621SOL     OW 1861   2.302   1.508   3.014 -0.1027  0.1020  0.4552
  621SOL    HW1 1862   2.270   1.436   2.945  2.0592  1.4064  2.1998
  621SOL    HW2 1863   2.342   1.463   0.028 -1.0698  1.1967 -0.5310
  622SOL     OW 1864   1.540   2.805   1.983  0.2720 -0.6699  0.3647
  622SOL    HW1 1865   1.508   2.815   1.888  0.7702 -0.1549  3.2227
  622SOL    HW2 1866   1.499   2.879   2.038  1.0477  0.8185  1.9471
  623SOL     OW 1867   1.223   1.943   0.864  0.1101  0.1122 -0.4983
  623SOL    HW1 1868   1.137   1.986   0.891  1.3987  3.3466  0.7708
  623SOL    HW2 1869   1.233   1.938   0.762  4.4605  0.9627 -2.0786
  624SOL     OW 1870   0.319   0.023   0.086  0.3731 -0.2342 -0.3666
  624SOL    HW1 1871   0.350   3.052   3.065 -2.7276 -1.7127 -1.0016
  624SOL    HW2 1872   0.266   0.108   0.068  1.7414 -1.9478  0.7799
  625SOL     OW 1873   0.985   1.502   0.568 -0.4394  0.5612  0.0337
  625SOL    HW1 1874   0.930   1.428   0.612 -0.7374 -1.2727 -1.2120
  625SOL    HW2 1875   0.926   1.584   0.550  3.0104 -1.3339 -1.2710
  626SOL     OW 1876   0.005   2.819   0.085 -0.4831 -0.6918  0.1809
  626SOL    HW1 1877   0.085   2.877   0.109  0.8016 -1.1771 -0.5181
  626SOL    HW2 1878   0.030   2.726   0.064  1.5798 -0.8966 -0.0029
  627SOL     OW 1879   1.206   1.700   2.769 -0.2808  0.4354  0.2835
  627SOL    HW1 1880   1.170   1.786   2.728 -0.8683  1.4968  0.8177
  627SOL    HW2 1881   1.150   1.678   2.850 -0.4477  1.7518 -2.5699
  628SOL     OW 1882   0.304   2.909   2.767 -0.0077  0.3732  0.6162
  628SOL    HW1 1883   0.377   2.959   2.820  2.0446  2.4661  3.7547
  628SOL    HW2 1884   0.310   2.810   2.792 -1.3648  0.1977  0.4157
  629SOL     OW 1885   0.427   3.038   2.339  0.0558 -0.2900 -0.1493
  629SOL    HW1 1886   0.523   3.062   2.312  0.7233 -1.0136 -0.9800
  629SOL    HW2 1887   0.392   2.996   2.256  2.1792 -1.8895 -0.7786
  630SOL     OW 1888   1.381   1.299   1.752 -0.2325  0.0093  0.0971
  630SOL    HW1 1889   1.435   1.319   1.664 -0.6060 -0.1030 -0.2655
  630SOL    HW2 1890   1.320   1.219   1.740 -0.1034 -2.1173  1.0836
  631SOL     OW 1891   2.271   0.964   0.633  0.0303  0.0391  0.5699
  631SOL    HW1 1892   2.365   0.934   0.619  1.2326 -0.6994 -0.3889
  631SOL    HW2 1893   2.206   0.895   0.597 -1.0728  0.4697 -2.2753
  632SOL     OW 1894   2.498   0.704   2.004  0.0011 -0.2437 -0.0292
  632SOL    HW1 1895   2.444   0.743   2.081 -2.5388  1.7285  0.0627
  632SOL    HW2 1896   2.588   0.660   2.037  0.1235 -0.5630  2.2050
  633SOL     OW 1897   0.810   1.926   0.369 -0.3703 -0.3115 -0.6986
  633SOL    HW1 1898   0.831   2.010   0.307  1.9003  1.7775 -2.4430
  633SOL    HW2 1899   0.892   1.920   0.433  0.7953  0.3704 -0.4245
  634SOL     OW 1900   1.594   2.686   2.475  0.9305 -0.1150  0.3508
  634SOL    HW1 1901   1.505   2.676   2.426  1.0905  3.8712 -2.4801
  634SOL    HW2 1902   1.659   2.611   2.466 -0.9563  3.8047 -0.8172
  635SOL     OW 1903   2.013   0.331   0.118 -0.1680 -0.4361  0.4203
  635SOL    HW1 1904   2.085   0.260   0.101 -0.0661 -0.5648  2.0275
  635SOL    HW2 1905   1.986   0.335   0.218  3.4939  0.4000 -0.7100
  636SOL     OW 1906   0.756   1.385   0.780 -0.1950 -0.6112 -0.0585
  636SOL    HW1 1907   0.688   1.363   0.708  0.4003 -0.0114  3.4878
  636SOL    HW2 1908   0.831   1.316   0.782  3.1346  1.1528  3.4425
  637SOL     OW 1909   3.032   2.161   0.594 -0.1936 -0.2555  0.0986
  637SOL    HW1 1910   3.025   2.238   0.667 -1.8218 -0.3247 -1.3313
  637SOL    HW2 1911   2.940   2.137   0.567  2.3520 -0.5147 -1.1261
  638SOL     OW 1912   0.986   2.842   2.560  0.0814  0.0908 -0.4806
  638SOL    HW1 1913   0.956   2.788   2.640 -0.5383  0.1045  1.5167
  638SOL    HW2 1914   1.088   2.830   2.548  3.7029 -0.3479  1.6979
  639SOL     OW 1915   1.377   1.789   0.030  0.1055 -0.0457  0.5003
  639SOL    HW1 1916   1.284   1.781   3.053 -0.8479  1.1869 -2.3258
  639SOL    HW2 1917   1.370   1.791   0.132  1.2287  0.7580  2.2866
  640SOL     OW 1918   1.834   2.879   0.779  0.2482 -0.6537  0.0853
  640SOL    HW1 1919   1.853   2.852   0.682 -0.2830  0.0554  2.7477
  640SOL    HW2 1920   1.903   2.832   0.838 -2.6845  0.8703 -2.3216
  641SOL     OW 1921   3.027   2.865   0.573 -0.0022  0.0940  0.0750
  641SOL    HW1 1922   3.006   2.809   0.489 -2.0165 -1.6777 -3.6267
  641SOL    HW2 1923   3.037   2.966   0.544  1.9710  2.1393 -2.1568
  642SOL     OW 1924   1.055   0.165   1.461 -1.0233 -0.2180 -0.1113
  642SOL    HW1 1925   0.960   0.182   1.426 -0.8346  3.1559  0.5825
  642SOL    HW2 1926   1.123   0.238   1.427  2.5038 -0.0231 -0.0643
  643SOL     OW 1927   0.298   2.008   1.928 -1.1602 -0.4249 -0.1816
  643SOL    HW1 1928   0.369   1.988   1.858  0.0873  1.1905  1.2676
  643SOL    HW2 1929   0.250   2.096   1.907  0.4791  1.2488 -0.4501
  644SOL     OW 1930   0.711   2.811   0.235  0.0991  0.1507 -0.5699
  644SOL    HW1 1931   0.636   2.795   0.300 -2.5486  1.2079 -1.4956
  644SOL    HW2 1932   0.741   2.908   0.241  0.1731 -0.5778  1.3129
  645SOL     OW 1933   1.604   1.947   2.974 -0.0867 -0.3813 -0.3736
  645SOL    HW1 1934   1.632   1.987   2.886 -0.1281  0.2895  1.2582
  645SOL    HW2 1935   1.545   1.871   2.952  0.4459  3.6728 -0.9571
  646SOL     OW 1936   0.508   1.383   3.014  0.3942 -0.1380 -0.1215
  646SOL    HW1 1937   0.410   1.387   2.996  1.4057  2.0384 -1.2644
  646SOL    HW2 1938   0.542   1.472   3.050 -0.1941 -0.5591 -1.1741
  647SOL     OW 1939   0.840   3.062   0.920 -0.1246 -0.5711  0.2458
  647SOL    HW1 1940   0.761   0.038   0.867 -1.0275  0.1554  0.0387
  647SOL    HW2 1941   0.904   0.071   0.933 -1.2509 -0.8252  0.5192
  648SOL     OW 1942   2.020   0.256   1.642 -0.3278  0.4880 -0.2488
  648SOL    HW1 1943   1.963   0.310   1.576  0.8834 -0.8702  3.1913
  648SOL    HW2 1944   2.118   0.283   1.634 -1.0169 -0.4512 -0.3486
  649SOL     OW 1945   1.094   1.847   2.572  0.2309 -0.5854 -0.0813
  649SOL    HW1 1946   1.024   1.917   2.599 -1.6639  2.1059  1.1431
  649SOL    HW2 1947   1.060   1.793   2.491 -1.1376  0.8973 -1.3391
  650SOL     OW 1948   2.590   1.781   1.580 -0.0563  0.1045 -0.2758
  650SOL    HW1 1949   2.535   1.823   1.505 -1.0061 -1.0044  1.2575
  650SOL    HW2 1950   2.623   1.686   1.554 -0.2124 -2.3114 -1.5965
  651SOL     OW 1951   1.258   0.086   0.157 -0.5167 -0.4212  0.1356
  651SOL    HW1 1952   1.231   0.008   0.095  1.9952 -2.3903 -0.5547
  651SOL    HW2 1953   1.313   0.057   0.238  0.1681 -1.3208  0.4376
  652SOL     OW 1954   2.887   1.762   0.022  0.6987  0.8631 -0.5154
  652SOL    HW1 1955   2.792   1.725   0.011 -1.0949 -1.4780  1.3519
  652SOL    HW2 1956   2.902   1.852   3.056 -1.1066 -4.3527  0.3740
  653SOL     OW 1957   0.097   0.270   0.978 -0.3762 -0.2232  0.4045
  653SOL    HW1 1958   0.103   0.268   1.081 -0.8692  0.3840 -0.4353
  653SOL    HW2 1959   0.048   0.353   0.939 -1.8862  0.1169  0.4920
  654SOL     OW 1960   2.090   0.115   2.506 -0.1123 -0.4981  0.1937
  654SOL    HW1 1961   2.057   0.093   2.413 -0.1689  3.0349  0.5591
  654SOL    HW2 1962   2.117   0.027   2.544  2.2807  0.9245 -1.5108
  655SOL     OW 1963   0.509   2.452   0.893  0.1192  0.5059 -0.1064
  655SOL    HW1 1964   0.480   2.531   0.940  2.0999 -0.8890 -3.1602
  655SOL    HW2 1965   0.511   2.370   0.954  0.2268  1.1770 -0.3183
  656SOL     OW 1966   0.245   2.907   2.150  0.7916 -0.2598  0.1087
  656SOL    HW1 1967   0.232   3.008   2.128 -1.1059 -1.0326  1.0128
  656SOL    HW2 1968   0.160   2.860   2.178  1.0996  0.3829 -0.6597
  657SOL     OW 1969   2.290   0.470   2.364  0.2242  0.4944 -0.0942
  657SOL    HW1 1970   2.191   0.472   2.338  0.1802 -0.3966 -0.0475
  657SOL    HW2 1971   2.295   0.426   2.456  0.4817  2.6965  1.0826
  658SOL     OW 1972   2.225   1.948   1.083  0.2038  0.3592  0.1180
  658SOL    HW1 1973   2.145   1.883   1.069 -1.5011  1.3088  0.1732
  658SOL    HW2 1974   2.231   1.993   1.174  0.3400  3.5474  1.1164
  659SOL     OW 1975   2.233   0.197   0.047  0.4621 -0.3742 -0.4690
  659SOL    HW1 1976   2.304   0.262   0.085 -0.5737  1.3799  1.5609
  659SOL    HW2 1977   2.270   0.120   3.055  0.0138  0.6754 -1.0068
  660SOL     OW 1978   1.449   1.413   3.043 -0.8101 -0.1162  0.0195
  660SOL    HW1 1979   1.524   1.469   3.007 -0.9392 -2.0852  0.8279
  660SOL    HW2 1980   1.394   1.463   0.045 -1.9450  1.8704  1.3096
  661SOL     OW 1981   2.293   2.438   0.926  0.2930  0.2336  0.4748
  661SOL    HW1 1982   2.329   2.424   0.830 -2.2343 -1.4124 -2.3423
  661SOL    HW2 1983   2.356   2.392   0.989 -1.5655 -1.5758 -0.5799
  662SOL     OW 1984   0.701   0.718   0.318  0.7835 -0.2551  0.3170
  662SOL    HW1 1985   0.775   0.648   0.321 -0.8821  0.8549 -1.3262
  662SOL    HW2 1986   0.723   0.807   0.363  1.4324  0.1443  2.5422
  663SOL     OW 1987   1.845   2.198   0.154  0.3774 -0.5170  0.0097
  663SOL    HW1 1988   1.772   2.234   0.091 -1.4259  0.2993 -2.2134
  663SOL    HW2 1989   1.941   2.220   0.124  1.5230  1.4402 -2.7313
  664SOL     OW 1990   0.669   1.981   1.316 -0.0232  0.0253  0.3297
  664SOL    HW1 1991   0.630   2.074   1.288 -1.3365 -0.0262 -0.1055
  664SOL    HW2 1992   0.691   1.977   1.414 -1.5546 -1.4850 -0.3904
  665SOL     OW 1993   1.747   2.106   1.851 -0.2068  0.2044 -0.3442
  665SOL    HW1 1994   1.699   2.141   1.769 -1.1126 -0.1111  1.9228
  665SOL    HW2 1995   1.738   2.007   1.859 -0.2498  2.7940 -1.6844
  666SOL     OW 1996   0.523   2.349   0.191 -0.2752 -0.0564 -0.7800
  666SOL    HW1 1997   0.593   2.394   0.255 -0.0293 -0.5768  2.9897
  666SOL    HW2 1998   0.458   2.281   0.240  0.4341 -0.4766 -0.2381
  667SOL     OW 1999   2.104   1.370   1.928  0.2715  0.1610  0.2572
  667SOL    HW1 2000   2.066   1.318   2.008 -0.2542  1.1385 -1.1981
  667SOL    HW2 2001   2.028   1.383   1.864  1.9809  0.1894 -1.6946
  668SOL     OW 2002   0.451   0.557   2.538  0.0812  0.0399  0.9507
  668SOL    HW1 2003   0.511   0.633   2.512 -1.5111 -0.5211 -0.0946
  668SOL    HW2 2004   0.500   0.469   2.536  1.0572  0.4830 -0.1152
  669SOL     OW 2005   1.687   2.023   2.719 -0.0882 -0.0176 -0.0036
  669SOL    HW1 2006   1.622   1.958   2.672 -0.0111 -1.6375 -0.8778
  669SOL    HW2 2007   1.740   2.083   2.654 -0.9510  1.1343 -4.3228
  670SOL     OW 2008   2.457   2.198   2.769  0.4303  0.5812 -0.0580
  670SOL    HW1 2009   2.460   2.295   2.793 -0.6244  0.0537 -0.6530
  670SOL    HW2 2010   2.369   2.175   2.716 -1.4387  3.9275 -1.6550
  671SOL     OW 2011   0.557   0.990   1.051  0.7505 -0.2338 -0.2220
  671SOL    HW1 2012   0.622   0.946   1.114 -0.1406  2.6396 -0.8563
  671SOL    HW2 2013   0.589   1.076   1.010 -1.8030 -0.0667  1.5521
  672SOL     OW 2014   2.391   0.853   2.327  0.2058  0.4051 -0.6062
  672SOL    HW1 2015   2.336   0.910   2.267  0.8306 -1.5953 -0.5924
  672SOL    HW2 2016   2.426   0.902   2.414 -0.6558  2.3790 -0.6310
  673SOL     OW 2017   2.543   2.861   2.047  0.4492 -0.0171 -0.2954
  673SOL    HW1 2018   2.606   2.926   2.097  1.2868  0.6398  1.6759
  673SOL    HW2 2019   2.595   2.812   1.977  0.1156 -0.7210 -1.8226
  674SOL     OW 2020   1.157   2.309   2.257 -0.2240 -0.1100 -0.2251
  674SOL    HW1 2021   1.140   2.261   2.169 -2.3912 -1.3634  0.3089
  674SOL    HW2 2022   1.078   2.369   2.278 -0.7309 -1.0285  0.1952
  675SOL     OW 2023   0.812   0.905   1.515  0.0210  0.3642 -0.8158
  675SOL    HW1 2024   0.778   0.845   1.596  1.2005 -2.8082  2.4262
  675SOL    HW2 2025   0.818   1.005   1.540 -2.8497 -3.5352  0.9056
  676SOL     OW 2026   1.878   0.847   0.908  0.5163  0.2730  0.5190
  676SOL    HW1 2027   1.784   0.810   0.897  0.3394 -0.4151  2.5496
  676SOL    HW2 2028   1.913   0.894   0.823  0.1934  1.1472 -1.9876
  677SOL     OW 2029   2.658   1.531   2.385  0.1928  0.1312  0.6001
  677SOL    HW1 2030   2.570   1.577   2.369 -0.3435 -0.1865  0.6426
  677SOL    HW2 2031   2.730   1.596   2.360 -2.6029 -1.4948  2.1832
  678SOL     OW 2032   2.582   2.106   0.984  0.1791  0.1368 -0.2288
  678SOL    HW1 2033   2.625   2.185   1.033  1.3223  0.5031 -0.2285
  678SOL    HW2 2034   2.536   2.051   1.054  2.5837  4.8895 -0.2328
  679SOL     OW 2035   1.447   2.750   0.492 -0.2378  0.6786  0.1412
  679SOL    HW1 2036   1.540   2.720   0.459  1.8338  0.9574 -0.1963
  679SOL    HW2 2037   1.376   2.759   0.416  1.2745 -0.6668 -1.1445
  680SOL     OW 2038   0.182   2.618   2.433 -0.1830 -0.1072  0.1008
  680SOL    HW1 2039   0.229   2.705   2.450  3.7606 -0.0886  0.4449
  680SOL    HW2 2040   0.228   2.553   2.366 -0.7168  1.1465  0.3443
  681SOL     OW 2041   2.797   1.338   1.632 -0.3348  0.0099  0.0058
  681SOL    HW1 2042   2.860   1.342   1.708  1.6912 -0.6508  0.1838
  681SOL    HW2 2043   2.780   1.241   1.601  0.7664  1.6313 -1.4088
  682SOL     OW 2044   0.232   1.886   1.292  0.3356 -1.1185  0.2913
  682SOL    HW1 2045   0.242   1.953   1.369  0.1261 -2.8023  2.4352
  682SOL    HW2 2046   0.324   1.872   1.246 -2.2414  2.7966  1.5757
  683SOL     OW 2047   2.245   1.485   1.378 -0.5278 -0.0842  0.0980
  683SOL    HW1 2048   2.286   1.475   1.289 -1.8074 -1.1298  0.0822
  683SOL    HW2 2049   2.164   1.551   1.375  0.9859 -2.0097 -0.3108
  684SOL     OW 2050   2.651   1.644   0.025  0.0396  0.4091 -0.4184
  684SOL    HW1 2051   2.633   1.683   2.999 -0.1431 -0.1875  2.3626
  684SOL    HW2 2052   2.562   1.644   0.079  1.9366 -1.2827 -0.8608
  685SOL     OW 2053   1.581   1.159   3.044 -0.6020 -0.5896 -0.0143
  685SOL    HW1 2054   1.532   1.250   3.045  0.9349  3.8957 -0.8221
  685SOL    HW2 2055   1.598   1.124   2.951 -0.9465 -1.1540  0.7137
  686SOL     OW 2056   0.381   0.269   1.233  0.1630 -0.2626 -0.3896
  686SOL    HW1 2057   0.337   0.360   1.239  0.6292 -0.1681 -2.2762
  686SOL    HW2 2058   0.346   0.194   1.295  2.8443 -1.7531  0.8104
  687SOL     OW 2059   1.038   2.038   2.215  0.0367  0.6587 -0.1130
  687SOL    HW1 2060   1.092   1.997   2.141 -1.3608 -0.2115  1.7488
  687SOL    HW2 2061   1.042   1.976   2.292 -0.9742  3.5008 -1.5715
  688SOL     OW 2062   0.071   1.697   1.194 -0.4465 -0.2853 -0.2799
  688SOL    HW1 2063   0.141   1.759   1.234 -2.0367 -0.4000  0.2811
  688SOL    HW2 2064   0.094   1.672   1.101 -0.9411 -1.0961 -0.4895
  689SOL     OW 2065   1.663   0.782   1.686  0.5838  0.5711  0.2494
  689SOL    HW1 2066   1.679   0.881   1.667  0.3482  0.9709  1.2388
  689SOL    HW2 2067   1.689   0.728   1.604 -1.4983  0.0092  0.3238
  690SOL     OW 2068   2.574   0.966   1.002  0.3536  0.7764 -0.0098
  690SOL    HW1 2069   2.552   0.888   0.939 -0.8527  2.9163 -2.6171
  690SOL    HW2 2070   2.675   0.973   1.007  0.5432  1.1997  0.4681
  691SOL     OW 2071   0.111   2.233   1.871 -0.1659 -1.3329 -0.0252
  691SOL    HW1 2072   0.127   2.279   1.962  0.5023  0.7213  2.8687
  691SOL    HW2 2073   0.026   2.183   1.865 -0.8750 -0.8525  0.7851
  692SOL     OW 2074   1.810   0.067   0.945 -0.2487 -0.7535 -0.2632
  692SOL    HW1 2075   1.721   0.060   0.885 -2.0577  0.9270 -2.3508
  692SOL    HW2 2076   1.885   0.006   0.903 -0.1467 -0.2288 -1.1014
  693SOL     OW 2077   0.082   1.517   2.356  0.3351  0.5146 -0.3288
  693SOL    HW1 2078   0.157   1.585   2.362 -0.7773 -2.9531 -1.3420
  693SOL    HW2 2079   3.053   1.556   2.346 -0.8614  1.5278 -2.3093
  694SOL     OW 2080   2.214   0.567   1.194 -0.0553  0.3994 -0.0551
  694SOL    HW1 2081   2.302   0.613   1.221 -3.1981 -0.4177  1.1951
  694SOL    HW2 2082   2.142   0.633   1.181 -0.7391 -2.0672  1.6650
  695SOL     OW 2083   0.946   1.481   1.800  0.1989 -0.1034  0.0125
  695SOL    HW1 2084   1.012   1.546   1.763 -2.7050 -2.5272  0.6320
  695SOL    HW2 2085   0.985   1.385   1.807 -1.2771  0.5519 -0.6339
  696SOL     OW 2086   0.985   2.760   3.049 -0.2785 -0.1371 -0.4719
  696SOL    HW1 2087   0.962   2.691   0.048  0.9927 -0.6751 -0.2481
  696SOL    HW2 2088   1.074   2.802   0.009  0.2836  1.1463 -0.5299
  697SOL     OW 2089   0.987   0.214   0.939  0.6516 -0.1136  0.1388
  697SOL    HW1 2090   0.953   0.304   0.900  0.7593  0.1164 -1.3502
  697SOL    HW2 2091   1.083   0.217   0.963 -7.5372  0.4877  0.2379
  698SOL     OW 2092   1.208   1.504   2.252  0.0533 -0.0177 -0.3469
  698SOL    HW1 2093   1.212   1.540   2.349  0.3237  1.1613  0.3513
  698SOL    HW2 2094   1.161   1.414   2.256  0.1281  0.1799  1.0027
  699SOL     OW 2095   1.392   0.793   1.108 -0.1560 -0.3219 -0.3919
  699SOL    HW1 2096   1.297   0.825   1.133 -2.7259  0.6932 -1.5256
  699SOL    HW2 2097   1.395   0.767   1.014  0.1215  2.4841  0.9807
  700SOL     OW 2098   1.011   2.836   0.403  0.1837 -0.1803 -0.2495
  700SOL    HW1 2099   0.936   2.905   0.397 -3.2878 -0.9774  2.0174
  700SOL    HW2 2100   1.083   2.873   0.462 -2.2221 -0.5020 -0.9004
  701SOL     OW 2101   2.337   2.994   2.512 -0.8979 -0.2955 -0.2479
  701SOL    HW1 2102   2.396   2.910   2.487  0.2485 -0.4698  3.2497
  701SOL    HW2 2103   2.361   0.008   2.457 -2.7492  0.7825 -2.4852
  702SOL     OW 2104   1.242   0.344   0.069 -0.1040 -0.0148  0.6941
  702SOL    HW1 2105   1.248   0.249   0.117  1.3547 -4.1981  1.9962
  702SOL    HW2 2106   1.260   0.419   0.132 -0.5363 -0.4236 -0.2402
  703SOL     OW 2107   2.488   0.172   2.416 -0.1315 -0.6361  0.2192
  703SOL    HW1 2108   2.486   0.201   2.318 -0.6674 -2.7911  1.0772
  703SOL    HW2 2109   2.426   0.233   2.470  1.4176 -2.2316 -2.1690
  704SOL     OW 2110   2.875   1.868   0.655 -0.3507 -0.0024 -0.2317
  704SOL    HW1 2111   2.791   1.854   0.599 -1.5918 -2.8596 -0.5171
  704SOL    HW2 2112   2.857   1.923   0.739 -0.4573  0.6182  0.8541
  705SOL     OW 2113   2.994   0.006   2.250  0.2840  0.3464  0.3250
  705SOL    HW1 2114   3.064   0.071   2.218  1.0521 -0.8294  3.2388
  705SOL    HW2 2115   3.027   2.980   2.243 -2.9240  2.3622 -2.0575
  706SOL     OW 2116   2.023   2.591   0.542  0.4339  0.4279  0.1100
  706SOL    HW1 2117   2.103   2.642   0.572 -1.4167 -0.0408 -0.6341
  706SOL    HW2 2118   2.028   2.504   0.598  0.4372  0.9675  0.1167
  707SOL     OW 2119   0.737   1.978   1.594  0.1641 -0.4503  0.0299
  707SOL    HW1 2120   0.708   1.884   1.617  1.0562 -0.3751 -0.4923
  707SOL    HW2 2121   0.833   2.000   1.628  4.1994  0.5569  1.3532
  708SOL     OW 2122   3.049   2.272   1.593 -0.2910 -0.5806  0.3077
  708SOL    HW1 2123   0.023   2.253   1.504  0.0877  0.5494  2.6366
  708SOL    HW2 2124   0.036   2.219   1.661 -0.9852 -0.9549 -1.2860
  709SOL     OW 2125   2.082   3.044   1.953  0.8707  0.4081 -0.3814
  709SOL    HW1 2126   2.088   2.968   2.023 -1.3918 -0.1084  2.4038
  709SOL    HW2 2127   2.173   3.061   1.907  0.1442 -1.5898 -0.0492
  710SOL     OW 2128   1.986   0.857   2.680  0.3127  0.5387  0.6905
  710SOL    HW1 2129   1.993   0.902   2.772  0.8899  0.2390  2.5632
  710SOL    HW2 2130   2.079   0.824   2.644  1.2622  0.2320 -0.7311
  711SOL     OW 2131   1.073   2.040   3.053 -0.0351 -0.2698 -0.5266
  711SOL    HW1 2132   1.136   2.044   0.065 -1.6469  1.6022  0.8455
  711SOL    HW2 2133   1.122   2.089   2.976  2.4428 -0.6639  0.0019
  712SOL     OW 2134   0.730   2.282   2.435  0.1655 -0.2301 -0.0276
  712SOL    HW1 2135   0.760   2.214   2.369  0.2852  0.3301  0.9992
  712SOL    HW2 2136   0.676   2.239   2.507  1.7600  1.6076 -2.1256
  713SOL     OW 2137   1.915   1.122   3.027  0.4560  0.1842  0.0346
  713SOL    HW1 2138   1.831   1.172   3.010 -0.8676 -0.8640 -2.7309
  713SOL    HW2 2139   1.959   1.147   0.047  0.6295 -0.3774 -2.2207
  714SOL     OW 2140   0.958   1.659   1.491  0.1939 -0.1780  0.1082
  714SOL    HW1 2141   0.965   1.711   1.571  0.3964 -0.2747 -1.5970
  714SOL    HW2 2142   0.880   1.685   1.433 -0.9308 -0.4822 -2.2843
  715SOL     OW 2143   1.675   0.352   0.034 -0.4414  0.1027 -0.3483
  715SOL    HW1 2144   1.751   0.399   3.054  0.4042  0.6059 -1.6887
  715SOL    HW2 2145   1.700   0.262   0.073 -0.4085  1.9923  0.8764
  716SOL     OW 2146   3.058   2.822   2.164 -0.0361  0.5097 -0.4594
  716SOL    HW1 2147   3.004   2.868   2.093 -1.5831  0.3367 -0.9632
  716SOL    HW2 2148   3.049   2.722   2.152  2.4874  1.1279 -1.7582
  717SOL     OW 2149   0.112   0.674   1.002 -0.4945  0.1074  1.0728
  717SOL    HW1 2150   0.083   0.740   0.936  2.0607 -0.9138 -0.0898
  717SOL    HW2 2151   0.038   0.629   1.056  2.4373  0.5801 -1.7634
  718SOL     OW 2152   0.591   1.211   2.343  0.0058 -0.1082 -0.3486
  718SOL    HW1 2153   0.623   1.288   2.403 -2.1614  1.1560 -0.4083
  718SOL    HW2 2154   0.558   1.257   2.260 -1.3435 -0.3530  0.1160
  719SOL     OW 2155   2.411   1.302   0.122 -0.2210  0.1885 -0.2127
  719SOL    HW1 2156   2.315   1.284   0.136 -0.1282 -0.9010 -1.4928
  719SOL    HW2 2157   2.452   1.235   0.056  0.4867 -0.5951 -0.0378
  720SOL     OW 2158   0.936   0.811   0.927  0.1144 -0.6032 -0.1327
  720SOL    HW1 2159   0.898   0.715   0.917  1.8934  0.2151  2.8552
  720SOL    HW2 2160   0.964   0.822   1.023 -2.7223 -3.6449 -0.1997
  721SOL     OW 2161   2.616   0.277   0.242 -0.7450  0.3342 -0.3568
  721SOL    HW1 2162   2.679   0.338   0.190 -0.9712  1.2313  0.0545
  721SOL    HW2 2163   2.672   0.237   0.317  1.5749  0.7957  1.2060
  722SOL     OW 2164   2.050   0.602   2.841  0.1360  0.2784 -0.6420
  722SOL    HW1 2165   1.987   0.681   2.822 -1.4253  3.7934  1.8114
  722SOL    HW2 2166   2.069   0.541   2.761  0.3302 -1.2623 -0.2304
  723SOL     OW 2167   2.733   0.541   0.376  0.0409  0.1852  0.1856
  723SOL    HW1 2168   2.726   0.473   0.303  3.2127 -1.4506 -1.0920
  723SOL    HW2 2169   2.775   0.505   0.462 -0.3535 -0.9859  0.3464
  724SOL     OW 2170   0.777   1.590   2.042 -0.0645  0.6177 -0.8611
  724SOL    HW1 2171   0.796   1.563   2.140  0.9652 -1.7798  1.9851
  724SOL    HW2 2172   0.808   1.522   1.976 -3.5373  1.4961 -0.9126
  725SOL     OW 2173   1.855   0.404   1.488  0.2507  0.1113 -0.2542
  725SOL    HW1 2174   1.815   0.496   1.478  0.4542  0.3832  2.0263
  725SOL    HW2 2175   1.884   0.369   1.396 -0.3199  1.2020 -1.0150
  726SOL     OW 2176   1.738   2.677   0.419 -0.5349 -0.4773  0.4132
  726SOL    HW1 2177   1.824   2.661   0.473  0.4478  1.2308  0.1785
  726SOL    HW2 2178   1.714   2.595   0.361 -3.1251  0.0646 -0.9521
  727SOL     OW 2179   1.648   1.769   2.277  0.2799  0.4503  0.0479
  727SOL    HW1 2180   1.708   1.739   2.358  0.9602  0.0546  1.3812
  727SOL    HW2 2181   1.582   1.692   2.243 -2.3807  0.7744 -1.7543
  728SOL     OW 2182   2.058   2.812   1.740 -0.2350  0.5098 -0.2666
  728SOL    HW1 2183   2.024   2.908   1.731 -0.7104  0.0121 -0.8695
  728SOL    HW2 2184   2.004   2.757   1.678 -2.1495 -1.6506  3.9232
  729SOL     OW 2185   2.187   1.158   0.830 -0.2142  0.2308 -0.3203
  729SOL    HW1 2186   2.090   1.187   0.832  4.8622 -1.2529  0.1844
  729SOL    HW2 2187   2.202   1.088   0.756  1.0514  2.0344 -0.3628
  730SOL     OW 2188   0.492   1.118   2.595  0.7060 -0.2001  1.0892
  730SOL    HW1 2189   0.559   1.114   2.671 -2.1305 -0.5022  0.3714
  730SOL    HW2 2190   0.522   1.161   2.509 -0.7979  0.6999  0.9381
  731SOL     OW 2191   0.168   0.056   0.829  0.1803  0.3945 -1.1729
  731SOL    HW1 2192   0.212   0.086   0.746 -3.2363  0.0848  3.0676
  731SOL    HW2 2193   0.152   0.142   0.886  1.7567  3.3304  1.1084
  732SOL     OW 2194   1.326   0.913   0.250 -0.6311 -0.0382 -0.1627
  732SOL    HW1 2195   1.229   0.895   0.261  4.5046  1.7698  0.3238
  732SOL    HW2 2196   1.374   0.841   0.203  0.4179 -0.3769 -0.2814
  733SOL     OW 2197   0.517   1.767   0.944 -0.6017  0.1221 -0.5525
  733SOL    HW1 2198   0.613   1.761   0.905 -0.2356 -0.8149  2.9757
  733SOL    HW2 2199   0.459   1.716   0.877  0.9305  1.7160 -2.0623
  734SOL     OW 2200   0.037   2.497   0.454 -0.2325  0.2059  0.4455
  734SOL    HW1 2201   0.103   2.569   0.422  1.5470  0.7818 -0.9043
  734SOL    HW2 2202   3.022   2.537   0.506 -1.8528  0.5401  2.8669
  735SOL     OW 2203   1.295   0.466   1.013 -0.2875 -0.4566  0.2002
  735SOL    HW1 2204   1.256   0.373   1.009 -0.7494  0.4806 -1.3869
  735SOL    HW2 2205   1.384   0.471   1.066  3.1947 -0.2220  3.1650
  736SOL     OW 2206   2.260   2.408   3.051  0.2547 -0.2383  0.1904
  736SOL    HW1 2207   2.202   2.473   2.997  0.6405  1.3805  0.3354
  736SOL    HW2 2208   2.195   2.335   0.013  1.8518 -0.6933 -0.4941
  737SOL     OW 2209   0.041   0.837   0.800 -0.2402 -0.5279  0.4932
  737SOL    HW1 2210   0.093   0.928   0.800  2.6188  1.3064  0.2058
  737SOL    HW2 2211   3.045   0.835   0.722  2.4640  0.3676  2.5316
  738SOL     OW 2212   2.931   0.086   1.162 -0.3595 -0.2382 -0.5685
  738SOL    HW1 2213   2.985   0.173   1.174  3.5024 -0.1979 -2.0004
  738SOL    HW2 2214   2.952   0.016   1.232 -1.4573 -1.3904 -0.4634
  739SOL     OW 2215   1.398   2.336   3.053  0.3020  0.1006 -0.5044
  739SOL    HW1 2216   1.469   2.264   0.008  3.2586 -3.6249 -0.9424
  739SOL    HW2 2217   1.375   2.392   0.069 -0.0540 -0.6567  1.9374
  740SOL     OW 2218   1.584   0.408   1.140 -0.6579 -0.0999  0.4213
  740SOL    HW1 2219   1.598   0.336   1.213 -2.2190  0.0470  0.3382
  740SOL    HW2 2220   1.579   0.364   1.052 -1.3082 -1.9475  0.7946
  741SOL     OW 2221   2.793   1.046   0.798  0.0913 -1.0201  0.2807
  741SOL    HW1 2222   2.794   1.148   0.815  2.4614 -1.8229 -0.7637
  741SOL    HW2 2223   2.706   1.024   0.749  1.3126 -0.7084  1.0656
  742SOL     OW 2224   0.686   1.469   2.477 -0.4210  0.6547  0.0694
  742SOL    HW1 2225   0.730   1.449   2.567 -0.0401  0.6028  0.1302
  742SOL    HW2 2226   0.629   1.552   2.470 -1.2122 -0.8048 -1.1840
  743SOL     OW 2227   1.399   0.477   2.065 -1.1212 -0.4587  0.0134
  743SOL    HW1 2228   1.401   0.507   1.969 -0.4326 -0.8514  2.6504
  743SOL    HW2 2229   1.448   0.391   2.074 -1.6888  0.7577 -1.8278
  744SOL     OW 2230   2.153   0.952   1.512  0.1716 -0.3634  0.3859
  744SOL    HW1 2231   2.245   0.991   1.534 -0.7689 -1.9352  0.6964
  744SOL    HW2 2232   2.082   0.989   1.571  1.2996  1.3040  0.3486
  745SOL     OW 2233   1.215   1.524   1.698  0.1379  0.4264 -0.4848
  745SOL    HW1 2234   1.174   1.511   1.604  1.2683 -1.0975 -1.8574
  745SOL    HW2 2235   1.277   1.446   1.718 -0.6975 -1.3821  1.2261
  746SOL     OW 2236   2.056   1.693   1.105 -0.0981 -0.1276  0.1888
  746SOL    HW1 2237   2.042   1.723   1.202 -2.3908  0.3049  0.0908
  746SOL    HW2 2238   2.058   1.593   1.091  0.1128 -0.9852 -0.6713
  747SOL     OW 2239   2.382   1.503   1.159 -0.7131 -0.0321 -0.5682
  747SOL    HW1 2240   2.445   1.573   1.123  2.0316 -2.3222  1.1199
  747SOL    HW2 2241   2.330   1.458   1.086 -0.1598  0.7362  1.8857
  748SOL     OW 2242   0.660   2.067   0.718 -0.1299 -0.0650  0.0239
  748SOL    HW1 2243   0.565   2.099   0.690 -0.6787 -0.6728 -0.2567
  748SOL    HW2 2244   0.679   2.098   0.811 -2.4274 -0.4722 -3.3359
  749SOL     OW 2245   2.291   2.854   2.120 -0.1034 -0.1440  0.3088
  749SOL    HW1 2246   2.230   2.805   2.051 -0.3414  0.5394 -2.1683
  749SOL    HW2 2247   2.380   2.869   2.077 -1.9492  0.8861  0.2387
  750SOL     OW 2248   2.441   0.362   0.892  0.2775 -0.1036 -0.2964
  750SOL    HW1 2249   2.454   0.306   0.810 -0.1171 -0.3379  2.3154
  750SOL    HW2 2250   2.347   0.402   0.903 -0.0759 -0.1755 -0.0986
  751SOL     OW 2251   2.653   2.813   0.340 -0.2537  0.6904 -0.3232
  751SOL    HW1 2252   2.755   2.813   0.338 -1.6991  1.7069 -2.6098
  751SOL    HW2 2253   2.624   2.906   0.314  2.4965  0.3681 -0.7721
  752SOL     OW 2254   3.043   2.936   0.845 -0.2158 -0.0741  0.0301
  752SOL    HW1 2255   3.032   2.921   0.744 -0.4876  1.3269  0.5609
  752SOL    HW2 2256   0.054   3.001   0.859  4.6370  1.7083 -0.2149
  753SOL     OW 2257   1.693   0.805   2.205  0.1054 -0.3699  0.0710
  753SOL    HW1 2258   1.640   0.846   2.128  0.7367  0.3507  1.2360
  753SOL    HW2 2259   1.638   0.731   2.247 -1.2791 -0.1245 -1.9593
  754SOL     OW 2260   1.651   1.854   1.921 -0.0378  0.0591  0.1756
  754SOL    HW1 2261   1.631   1.795   1.841 -0.0695 -4.5547  1.1998
  754SOL    HW2 2262   1.709   1.809   1.994  1.2953  2.6794  1.3056
  755SOL     OW 2263   2.638   0.783   0.793  0.5839 -0.0257  0.3617
  755SOL    HW1 2264   2.562   0.726   0.835  2.3415  0.9133 -0.8305
  755SOL    HW2 2265   2.620   0.805   0.692 -0.6110  1.6945 -1.2773
  756SOL     OW 2266   0.783   1.453   2.728  0.3480  0.2652 -0.0910
  756SOL    HW1 2267   0.873   1.423   2.765 -0.7649 -0.8837 -0.4327
  756SOL    HW2 2268   0.741   1.531   2.774  3.1408 -0.0531 -0.7535
  757SOL     OW 2269   1.204   2.993   0.510  0.3159 -0.0462  0.4789
  757SOL    HW1 2270   1.183   3.018   0.605  4.2980 -2.6172 -3.2076
  757SOL    HW2 2271   1.302   3.012   0.489  2.7177 -0.4999  0.7438
  758SOL     OW 2272   1.149   2.755   1.138 -0.2172  0.0697  0.1963
  758SOL    HW1 2273   1.055   2.799   1.139 -0.9051  1.6049 -0.2216
  758SOL    HW2 2274   1.221   2.817   1.175 -1.5310  1.2791 -0.1054
  759SOL     OW 2275   0.238   0.591   0.505 -0.5867  0.3112 -0.4276
  759SOL    HW1 2276   0.187   0.518   0.558 -5.5313 -0.3197  0.4435
  759SOL    HW2 2277   0.181   0.677   0.499 -2.0622  1.5305  0.7240
  760SOL     OW 2278   2.379   1.046   1.202 -0.2171 -0.1050 -0.2469
  760SOL    HW1 2279   2.461   1.035   1.144  0.9243  2.6731  3.6912
  760SOL    HW2 2280   2.370   1.143   1.237 -0.8509  1.7569 -0.0505
  761SOL     OW 2281   1.751   0.447   0.828 -0.6741 -0.2428 -0.2217
  761SOL    HW1 2282   1.684   0.372   0.853  0.0102 -2.4970 -2.2260
  761SOL    HW2 2283   1.828   0.451   0.895  0.6465 -2.5693 -1.7249
  762SOL     OW 2284   2.209   2.083   0.392  0.5417  0.1040  0.4069
  762SOL    HW1 2285   2.237   2.059   0.299  0.3873  0.2949  3.5667
  762SOL    HW2 2286   2.192   2.184   0.397  0.2065 -0.1091  2.5747
  763SOL     OW 2287   0.644   1.290   1.480 -0.2826 -0.0547 -0.5488
  763SOL    HW1 2288   0.590   1.206   1.465  2.1560 -0.7802  0.5540
  763SOL    HW2 2289   0.583   1.373   1.492  1.7175 -0.0332 -1.7456
  764SOL     OW 2290   2.604   2.209   2.495 -0.4277  0.4539 -0.0621
  764SOL    HW1 2291   2.514   2.218   2.454  1.1028  1.5031  0.5843
  764SOL    HW2 2292   2.616   2.272   2.579  2.4751 -1.2190  3.4735
  765SOL     OW 2293   0.906   2.553   0.818 -0.3618  0.0569 -0.2937
  765SOL    HW1 2294   0.881   2.602   0.735  4.5546 -2.7439  1.1824
  765SOL    HW2 2295   0.833   2.542   0.890 -3.7640 -1.9052  2.0159
  766SOL     OW 2296   2.879   1.756   2.487  0.4488  0.0199  0.4488
  766SOL    HW1 2297   2.911   1.714   2.400  1.0731 -2.8870 -1.2351
  766SOL    HW2 2298   2.815   1.837   2.475 -0.7200  0.6118  1.1157
  767SOL     OW 2299   2.158   0.735   2.519  0.5156 -0.1891  0.6286
  767SOL    HW1 2300   2.218   0.755   2.438  0.7111  2.0236  0.4438
  767SOL    HW2 2301   2.124   0.641   2.531  0.5944 -0.3934  1.8593
  768SOL     OW 2302   1.243   0.009   2.357  0.2721 -0.6337  0.3039
  768SOL    HW1 2303   1.175   3.060   2.280 -1.7507 -2.1932 -0.2065
  768SOL    HW2 2304   1.227   0.101   2.394 -0.6905  0.0564  0.1955
  769SOL     OW 2305   0.181   2.322   0.947  0.1337  0.3342  0.3797
  769SOL    HW1 2306   0.186   2.392   0.871 -0.8692  0.8051  0.7220
  769SOL    HW2 2307   0.276   2.291   0.969 -1.0534  0.6775 -0.9563
  770SOL     OW 2308   0.630   0.414   0.167  0.0866 -0.5254  0.4366
  770SOL    HW1 2309   0.626   0.454   0.076  0.2372 -0.7713  1.1587
  770SOL    HW2 2310   0.564   0.459   0.233 -1.6680  1.4878  1.3905
  771SOL     OW 2311   1.188   1.541   2.535 -0.1361  0.2367 -0.3500
  771SOL    HW1 2312   1.154   1.449   2.562 -1.0146 -1.1966 -1.7126
  771SOL    HW2 2313   1.176   1.612   2.605 -0.1686  1.3186 -2.1561
  772SOL     OW 2314   2.294   0.062   2.231  0.7243 -0.3511  0.4102
  772SOL    HW1 2315   2.313   3.038   2.190  0.9369  1.4636  2.2154
  772SOL    HW2 2316   2.191   0.075   2.232 -0.9143 -0.9567  2.0001
  773SOL     OW 2317   1.525   0.925   2.016 -0.2056  0.6946 -0.0748
  773SOL    HW1 2318   1.504   1.002   1.953  0.5816 -0.4027  1.2400
  773SOL    HW2 2319   1.470   0.849   1.983 -0.1719  0.9328  0.5409
  774SOL     OW 2320   1.402   0.761   1.488 -0.0104 -0.7627 -0.5048
  774SOL    HW1 2321   1.443   0.713   1.407  0.2231 -0.3942 -0.7084
  774SOL    HW2 2322   1.433   0.858   1.483  0.8121  1.6765 -2.0058
  775SOL     OW 2323   1.894   2.889   0.032  0.1297  0.0077  0.2847
  775SOL    HW1 2324   1.858   2.794   0.032 -0.4605  3.5048 -1.9860
  775SOL    HW2 2325   1.934   2.920   3.012  3.1159 -0.3405  0.1741
  776SOL     OW 2326   1.996   1.041   1.745 -0.1016 -0.5959  0.2038
  776SOL    HW1 2327   1.958   0.970   1.806 -0.2908  2.3465  2.0319
  776SOL    HW2 2328   2.095   1.068   1.772  3.8975 -0.0845  3.1657
  777SOL     OW 2329   2.901   1.615   2.245  0.2455  0.6141 -0.0090
  777SOL    HW1 2330   2.934   1.536   2.190  1.7015 -2.1279 -2.6884
  777SOL    HW2 2331   2.845   1.679   2.193  4.8417  0.9181  2.8587
  778SOL     OW 2332   2.443   0.926   2.590 -0.2588  0.1858  0.1653
  778SOL    HW1 2333   2.369   0.873   2.632  1.4395  0.1826 -0.0411
  778SOL    HW2 2334   2.517   0.943   2.656  0.3095 -1.7398 -3.2351
  779SOL     OW 2335   2.919   0.551   2.781 -0.1746 -0.3205  0.0216
  779SOL    HW1 2336   2.988   0.514   2.843  1.3354  0.8831  0.8776
  779SOL    HW2 2337   2.945   0.556   2.682  3.0279 -1.7974  0.8690
  780SOL     OW 2338   2.294   2.672   2.314  0.6133 -0.4922 -0.3095
  780SOL    HW1 2339   2.278   2.738   2.241  2.3539 -0.5178  0.6493
  780SOL    HW2 2340   2.332   2.585   2.281 -0.6242  1.0842 -0.2588
  781SOL     OW 2341   2.992   1.099   1.994 -0.0365 -0.2222 -0.2323
  781SOL    HW1 2342   2.956   1.006   1.983  1.8442  1.1895 -0.8639
  781SOL    HW2 2343   3.020   1.133   1.904 -0.7683  0.8113 -0.5017
  782SOL     OW 2344   1.601   2.289   2.763 -0.2924 -0.0705 -0.6349
  782SOL    HW1 2345   1.608   2.195   2.719  0.9048  0.9505 -2.4508
  782SOL    HW2 2346   1.523   2.338   2.724  2.9607 -1.5002 -1.0720
  783SOL     OW 2347   0.739   2.346   1.157  0.1239  0.1247 -0.0270
  783SOL    HW1 2348   0.827   2.320   1.118  0.4403  2.2333  1.2051
  783SOL    HW2 2349   0.738   2.444   1.133  0.3915  0.1757 -1.1847
  784SOL     OW 2350   2.018   0.451   2.301  0.0798 -0.3135  0.4549
  784SOL    HW1 2351   1.919   0.463   2.291 -2.6954 -2.5724 -0.7999
  784SOL    HW2 2352   2.048   0.394   2.218  1.0782 -0.2144 -0.8325
  785SOL     OW 2353   0.263   0.100   1.405  0.1303 -0.1222  0.3423
  785SOL    HW1 2354   0.216   0.008   1.388  1.5230  0.9054 -1.7488
  785SOL    HW2 2355   0.343   0.094   1.465  0.1896  2.5181 -0.0427
  786SOL     OW 2356   1.279   2.485   0.189  0.2644 -0.4558 -0.6539
  786SOL    HW1 2357   1.300   2.418   0.264 -0.4524 -2.5550  0.2702
  786SOL    HW2 2358   1.261   2.572   0.237 -0.4419 -0.6888 -0.2589
  787SOL     OW 2359   1.146   0.192   0.651 -0.7552  0.1808 -0.5524
  787SOL    HW1 2360   1.083   0.271   0.664  0.2232 -1.2524  0.7206
  787SOL    HW2 2361   1.100   0.104   0.678 -0.3690  0.2745  1.7079
  788SOL     OW 2362   3.011   1.053   1.117  0.5324 -0.1226  0.0195
  788SOL    HW1 2363   3.033   1.060   1.215 -1.8072 -1.1480 -1.0441
  788SOL    HW2 2364   0.021   1.081   1.060 -0.9661  1.0381  0.1517
  789SOL     OW 2365   2.664   0.995   2.113  0.1533  0.4322  0.2133
  789SOL    HW1 2366   2.626   1.067   2.055 -4.2398  0.1378  1.0398
  789SOL    HW2 2367   2.658   1.030   2.209 -1.4538  1.9811 -1.7533
  790SOL     OW 2368   1.199   0.682   2.777 -0.1971 -0.3721  0.0428
  790SOL    HW1 2369   1.140   0.748   2.726 -0.9736  0.1848 -2.5827
  790SOL    HW2 2370   1.296   0.716   2.783 -2.3442  0.5695 -2.2843
  791SOL     OW 2371   0.335   2.564   0.206 -0.3903  0.7672 -0.0457
  791SOL    HW1 2372   0.254   2.575   0.144  0.3397 -0.2061 -3.2289
  791SOL    HW2 2373   0.419   2.537   0.150 -1.8072 -0.3242 -0.1756
  792SOL     OW 2374   1.112   0.812   1.852  0.2554 -0.0271  0.1981
  792SOL    HW1 2375   1.199   0.773   1.880 -2.3311  0.4609  0.3444
  792SOL    HW2 2376   1.101   0.800   1.750  1.5684 -1.1198  0.8713
  793SOL     OW 2377   2.833   0.357   1.144 -0.4478 -0.3146 -0.4829
  793SOL    HW1 2378   2.824   0.338   1.046  4.3828  1.1707 -1.0029
  793SOL    HW2 2379   2.740   0.344   1.193 -2.1412 -0.2635  2.0719
  794SOL     OW 2380   2.876   0.244   2.312  0.2691 -0.4719  0.4852
  794SOL    HW1 2381   2.903   0.146   2.299  0.5896 -1.3607 -1.7763
  794SOL    HW2 2382   2.962   0.296   2.313 -2.6362 -0.7334 -1.0779
  795SOL     OW 2383   0.489   1.648   3.047  0.3540 -0.4723  0.4960
  795SOL    HW1 2384   0.484   1.649   0.080 -1.8695  1.2577 -2.7980
  795SOL    HW2 2385   0.400   1.674   3.003 -1.0443  0.1413  2.6058
  796SOL     OW 2386   2.761   0.763   2.802 -0.5930 -0.2916  0.6600
  796SOL    HW1 2387   2.837   0.703   2.830  2.7179  0.6584 -2.2334
  796SOL    HW2 2388   2.726   0.742   2.711  0.2609  0.2448  0.3588
  797SOL     OW 2389   2.079   2.678   2.497 -0.0355 -0.5740  0.2092
  797SOL    HW1 2390   2.067   2.594   2.544 -0.7082  0.9192 -1.7253
  797SOL    HW2 2391   2.150   2.676   2.420 -2.2691  1.1434  0.6971
  798SOL     OW 2392   2.844   0.021   0.904 -0.2149  0.2926 -0.2166
  798SOL    HW1 2393   2.914   3.011   0.889 -1.1455  0.8600  2.7147
  798SOL    HW2 2394   2.855   0.047   1.002 -0.7226  0.5475  1.0822
  799SOL     OW 2395   3.013   0.769   1.760  0.1005  0.1762  0.6933
  799SOL    HW1 2396   3.059   0.842   1.713 -4.1361 -0.6128 -1.6875
  799SOL    HW2 2397   2.941   0.800   1.823 -0.8842  0.4150 -1.0124
  800SOL     OW 2398   0.503   1.595   0.284  0.7531 -0.0689 -0.0868
  800SOL    HW1 2399   0.553   1.507   0.296  1.2839  1.9151  0.6582
  800SOL    HW2 2400   0.414   1.591   0.334 -0.0529 -4.0341 -0.3693
  801SOL     OW 2401   1.901   1.816   0.666 -0.3768  0.1951 -0.3289
  801SOL    HW1 2402   1.941   1.834   0.574 -0.3935 -0.5013 -1.8326
  801SOL    HW2 2403   1.802   1.834   0.669  0.1979  1.6645 -1.8929
  802SOL     OW 2404   1.567   1.094   2.777 -0.3911  0.1349 -0.5363
  802SOL    HW1 2405   1.626   1.050   2.704 -1.7013  0.0759 -1.2997
  802SOL    HW2 2406   1.469   1.098   2.754  1.1129  0.7317  2.0164
  803SOL     OW 2407   1.011   1.797   1.746  0.0376 -0.1336  0.4530
  803SOL    HW1 2408   0.996   1.898   1.739 -0.6427 -1.0771  1.3927
  803SOL    HW2 2409   1.048   1.766   1.837  0.7046 -0.4741 -0.9401
  804SOL     OW 2410   1.590   2.430   0.696  0.4542 -0.0063  0.3935
  804SOL    HW1 2411   1.669   2.393   0.640  1.5799  1.4091  0.5020
  804SOL    HW2 2412   1.520   2.357   0.700 -1.2580  1.8011 -0.8108
  805SOL     OW 2413   2.776   2.316   2.303  0.2776 -0.0234 -0.1050
  805SOL    HW1 2414   2.718   2.281   2.378  2.0676 -0.7180 -2.2229
  805SOL    HW2 2415   2.867   2.344   2.332 -0.5764 -3.8486 -1.1724
  806SOL     OW 2416   0.046   0.034   0.467  0.9351  0.2957 -0.4466
  806SOL    HW1 2417   3.036   0.064   0.528 -1.2501 -1.4075  1.5988
  806SOL    HW2 2418   0.138   0.069   0.496  1.7792  0.2602 -0.7834
  807SOL     OW 2419   2.309   0.818   2.835  0.1313 -0.3699  0.4182
  807SOL    HW1 2420   2.298   0.717   2.821  3.7376 -1.9288  1.9685
  807SOL    HW2 2421   2.218   0.857   2.865 -2.0036 -0.9477 -0.1443
  808SOL     OW 2422   1.265   2.551   0.635 -0.1486  0.3510  0.0179
  808SOL    HW1 2423   1.227   2.554   0.730  2.4069 -0.0730  0.9163
  808SOL    HW2 2424   1.327   2.627   0.612 -0.1930 -0.2737  0.4745
  809SOL     OW 2425   2.790   3.062   0.171  0.4056  0.1566 -0.0674
  809SOL    HW1 2426   2.814   2.970   0.139  1.0437  2.1822 -1.2675
  809SOL    HW2 2427   2.769   0.060   0.092  1.1562  1.4624 -1.3914
  810SOL     OW 2428   1.345   1.193   0.827 -0.0415 -0.4661  0.3540
  810SOL    HW1 2429   1.261   1.169   0.880  0.0016 -0.8277 -1.5067
  810SOL    HW2 2430   1.354   1.140   0.742 -2.7277 -0.6642  0.9925
  811SOL     OW 2431   1.874   2.701   1.537  0.1813 -0.9695 -0.6895
  811SOL    HW1 2432   1.811   2.730   1.458 -2.4124  0.6318 -2.5196
  811SOL    HW2 2433   1.815   2.687   1.621  0.4151 -0.4129 -1.2083
  812SOL     OW 2434   1.649   2.943   0.383  0.0918  0.0504  0.9586
  812SOL    HW1 2435   1.726   3.009   0.386 -1.4251  0.5015  1.1218
  812SOL    HW2 2436   1.681   2.845   0.396  1.8559 -1.7711  0.0551
  813SOL     OW 2437   1.036   3.055   2.171 -0.3786  0.4396 -0.3982
  813SOL    HW1 2438   0.961   3.011   2.112 -2.0599  0.6420 -1.5144
  813SOL    HW2 2439   1.003   3.051   2.271 -1.1188  1.2253  0.0580
  814SOL     OW 2440   0.313   0.041   1.075 -0.0438 -0.1750  0.1214
  814SOL    HW1 2441   0.287   0.030   0.975  0.7097  2.9487  0.0540
  814SOL    HW2 2442   0.289   0.135   1.101 -0.7974 -0.7308 -0.0038
  815SOL     OW 2443   0.237   2.820   0.666 -0.1201 -0.3853 -0.5627
  815SOL    HW1 2444   0.141   2.845   0.643 -0.7550  2.5142  1.0734
  815SOL    HW2 2445   0.259   2.752   0.589 -0.5582 -0.8872 -4.1000
  816SOL     OW 2446   2.442   1.646   2.674  0.1349 -0.0046 -0.4357
  816SOL    HW1 2447   2.467   1.547   2.700 -0.6766 -6.1069 -2.7235
  816SOL    HW2 2448   2.439   1.649   2.574  2.0195 -0.4789  2.1288
  817SOL     OW 2449   1.436   2.618   2.708 -0.2780 -0.0812  0.0683
  817SOL    HW1 2450   1.409   2.543   2.646 -1.4353  1.6642 -2.1021
  817SOL    HW2 2451   1.501   2.683   2.656  3.1731  1.6720  1.5642
  818SOL     OW 2452   1.476   1.075   0.397 -0.1542  0.2398 -0.8932
  818SOL    HW1 2453   1.452   1.174   0.415 -2.4081  0.4294  2.6650
  818SOL    HW2 2454   1.408   1.039   0.334 -0.3900 -0.5338 -0.4522
  819SOL     OW 2455   1.890   2.384   2.704  0.0720  0.3727  0.4234
  819SOL    HW1 2456   1.794   2.349   2.709 -2.9309 -2.0958 -3.0262
  819SOL    HW2 2457   1.904   2.475   2.748 -0.2403 -0.6592 -1.5726
  820SOL     OW 2458   0.960   0.708   0.088 -0.0979  0.3278  0.1888
  820SOL    HW1 2459   0.894   0.737   0.013 -0.2651 -2.3506  1.9398
  820SOL    HW2 2460   0.923   0.633   0.144 -0.9796 -2.1263 -0.0272
  821SOL     OW 2461   0.291   0.518   1.249 -0.0663 -0.2888 -0.2084
  821SOL    HW1 2462   0.358   0.561   1.312  0.9451 -0.0126  0.9795
  821SOL    HW2 2463   0.296   0.555   1.154  0.2545 -0.7490 -3.0088
  822SOL     OW 2464   1.399   2.313   2.347 -0.3524  0.0136 -0.2153
  822SOL    HW1 2465   1.427   2.309   2.447  0.6389 -0.4531  2.1042
  822SOL    HW2 2466   1.300   2.302   2.330  0.2603 -1.0182 -0.4364
  823SOL     OW 2467   0.733   0.928   2.036  0.0464  0.3937  0.1869
  823SOL    HW1 2468   0.757   1.012   1.982  0.1760 -0.3466  1.3806
  823SOL    HW2 2469   0.735   0.939   2.138 -0.9943 -1.0919  1.2011
  824SOL     OW 2470   2.316   3.039   1.804  0.0807 -0.2119  0.0294
  824SOL    HW1 2471   2.344   2.947   1.780 -3.8355  2.0333 -0.5485
  824SOL    HW2 2472   2.350   0.032   1.725  2.0572  0.4633  1.2042
  825SOL     OW 2473   0.862   1.435   0.108 -0.2481 -0.3490 -0.3595
  825SOL    HW1 2474   0.886   1.338   0.091  1.3738  1.1389 -0.2524
  825SOL    HW2 2475   0.893   1.495   0.035  1.8122 -0.3699  2.0976
  826SOL     OW 2476   2.071   0.483   2.567  0.2185  0.2261 -0.4124
  826SOL    HW1 2477   2.026   0.454   2.483 -0.9536  2.0565  2.5166
  826SOL    HW2 2478   2.123   0.400   2.599  0.0714 -1.2936 -1.6507
  827SOL     OW 2479   0.622   2.124   2.638  0.1060 -0.3464  0.1510
  827SOL    HW1 2480   0.531   2.090   2.598 -1.4617 -2.6449 -0.8852
  827SOL    HW2 2481   0.619   2.109   2.736 -1.9308 -2.1996 -0.6251
  828SOL     OW 2482   2.672   0.045   1.391  0.6805 -0.3530  0.0969
  828SOL    HW1 2483   2.652   0.132   1.344  2.5543 -2.5468 -2.1861
  828SOL    HW2 2484   2.657   3.042   1.327 -0.1466  2.7342 -1.2406
  829SOL     OW 2485   1.388   1.625   1.336  0.3458  0.2133 -0.2806
  829SOL    HW1 2486   1.431   1.587   1.250 -4.0194  1.2570 -0.6734
  829SOL    HW2 2487   1.458   1.672   1.397  0.7155 -1.5904 -1.4141
  830SOL     OW 2488   0.472   0.914   1.645 -0.4206  0.6613  0.6166
  830SOL    HW1 2489   0.502   0.969   1.566 -0.8786  2.7973 -2.0054
  830SOL    HW2 2490   0.391   0.850   1.621 -2.2195  2.4368 -1.0221
  831SOL     OW 2491   0.227   1.798   0.137  0.4628 -0.1939  0.0295
  831SOL    HW1 2492   0.149   1.858   0.115  1.4938 -2.5581 -0.9424
  831SOL    HW2 2493   0.309   1.857   0.148  1.6125 -0.6398 -1.6311
  832SOL     OW 2494   0.827   0.221   2.718 -0.3510  0.5475  0.4280
  832SOL    HW1 2495   0.892   0.148   2.754  0.7823  0.4246  0.2143
  832SOL    HW2 2496   0.732   0.210   2.755 -2.6093 -1.7151  0.2681
  833SOL     OW 2497   0.165   0.462   1.943 -0.0434 -0.5850 -0.0916
  833SOL    HW1 2498   0.229   0.496   1.868  0.3008 -0.5010 -2.3303
  833SOL    HW2 2499   0.105   0.538   1.974 -1.3282  0.5261  0.1849
  834SOL     OW 2500   0.379   0.663   1.037 -0.1210 -0.6007  0.0535
  834SOL    HW1 2501   0.415   0.678   0.938 -0.8672  1.6244  1.4994
  834SOL    HW2 2502   0.277   0.679   1.034 -1.3930  0.8304 -1.3809
  835SOL     OW 2503   2.484   2.843   1.013 -0.7697 -0.1056 -0.1025
  835SOL    HW1 2504   2.528   2.874   0.927  2.1280 -2.8032 -1.8522
  835SOL    HW2 2505   2.548   2.784   1.068  0.2822 -1.0132  2.0865
  836SOL     OW 2506   0.658   1.808   2.658  0.0089  0.6176  0.8502
  836SOL    HW1 2507   0.617   1.852   2.735 -0.9160 -1.4734 -2.8952
  836SOL    HW2 2508   0.743   1.863   2.630  2.5994  2.3579 -0.4522
  837SOL     OW 2509   2.038   2.177   2.792 -0.6574  0.1191  0.1727
  837SOL    HW1 2510   1.974   2.252   2.766 -2.1801 -0.6870 -2.0552
  837SOL    HW2 2511   2.107   2.160   2.717  0.7008 -1.2478 -0.5473
  838SOL     OW 2512   2.912   1.317   2.164 -0.4377  0.5788 -0.5625
  838SOL    HW1 2513   2.850   1.290   2.243  0.2501 -2.6974 -2.9474
  838SOL    HW2 2514   2.942   1.236   2.113  1.5018  0.6886 -0.2009
  839SOL     OW 2515   0.927   1.172   0.072 -0.0029  0.2545 -0.1873
  839SOL    HW1 2516   0.859   1.125   0.014  1.0333 -1.1930  0.0981
  839SOL    HW2 2517   1.019   1.194   0.032 -0.3616 -0.7323 -0.9605
  840SOL     OW 2518   1.559   0.620   0.429  0.0473  0.3868  0.2266
  840SOL    HW1 2519   1.581   0.720   0.421 -0.9704 -3.1011 -1.6116
  840SOL    HW2 2520   1.475   0.603   0.490 -1.7543 -1.3503  2.2818
  841SOL     OW 2521   0.589   2.747   0.665 -0.5771  0.5934  0.0549
  841SOL    HW1 2522   0.689   2.729   0.654  0.2961  1.1843 -0.4890
  841SOL    HW2 2523   0.546   2.656   0.679  1.8724  0.8636 -0.6930
  842SOL     OW 2524   0.085   0.472   0.194 -0.1691  0.2331 -0.7748
  842SOL    HW1 2525   0.008   0.524   0.146 -0.0316 -0.8335 -0.1941
  842SOL    HW2 2526   0.112   0.531   0.275 -0.6750 -0.2047  3.0442
  843SOL     OW 2527   0.507   0.358   1.667  0.2441 -0.5898  0.0530
  843SOL    HW1 2528   0.543   0.452   1.651  0.9458  0.2093  0.8001
  843SOL    HW2 2529   0.423   0.341   1.604  0.0979 -0.2274 -0.1399
  844SOL     OW 2530   1.868   2.643   2.857 -0.0711  0.4239 -0.4848
  844SOL    HW1 2531   1.831   2.725   2.805 -0.5223  1.3436 -0.9541
  844SOL    HW2 2532   1.831   2.635   2.948  0.2311  0.9477 -0.5172
  845SOL     OW 2533   2.662   0.134   2.012 -0.2370 -0.1182  0.4969
  845SOL    HW1 2534   2.560   0.136   2.002  1.7349 -2.4390 -1.3813
  845SOL    HW2 2535   2.684   0.072   2.092 -0.0824 -0.1664  1.6830
  846SOL     OW 2536   1.781   1.771   2.504  0.3205 -0.5163 -0.3652
  846SOL    HW1 2537   1.775   1.721   2.593  0.1841  0.2631  1.5253
  846SOL    HW2 2538   1.874   1.807   2.484 -1.1238 -0.9897  1.4479
  847SOL     OW 2539   2.102   2.695   1.992 -0.5224 -0.1124  0.4789
  847SOL    HW1 2540   2.038   2.624   2.031 -2.4208 -4.2476  0.5992
  847SOL    HW2 2541   2.065   2.713   1.899 -1.4641  0.6615  2.8170
  848SOL     OW 2542   0.237   2.695   0.414 -0.0692  0.3187 -0.2762
  848SOL    HW1 2543   0.205   2.778   0.368  1.6467  1.0563  2.2269
  848SOL    HW2 2544   0.268   2.632   0.340  0.9377  0.7969  0.0885
  849SOL     OW 2545   0.542   2.624   1.355  0.5286  0.4274  0.0423
  849SOL    HW1 2546   0.578   2.573   1.434 -3.0891 -0.0075 -0.8176
  849SOL    HW2 2547   0.600   2.612   1.278 -3.2221  1.4636 -0.5148
  850SOL     OW 2548   0.078   1.355   0.989 -0.3848 -0.0794  0.0018
  850SOL    HW1 2549   0.062   1.365   1.087 -1.0023 -0.6485  0.5967
  850SOL    HW2 2550   0.098   1.449   0.951 -0.4067  2.0396 -0.9306
  851SOL     OW 2551   0.138   0.712   2.932  0.3356 -1.0463 -0.2289
  851SOL    HW1 2552   0.223   0.725   2.986 -0.1728  0.7838 -1.4182
  851SOL    HW2 2553   0.153   0.637   2.867  0.1143  0.1312 -1.5205
  852SOL     OW 2554   1.616   2.043   2.313  0.1352  0.0674 -0.0808
  852SOL    HW1 2555   1.647   1.947   2.311  0.1386  0.5781 -1.9496
  852SOL    HW2 2556   1.649   2.097   2.388 -2.1079 -2.9096 -0.4346
  853SOL     OW 2557   0.688   1.808   0.729 -0.2721  0.1690  0.3814
  853SOL    HW1 2558   0.657   1.906   0.739 -1.7694  0.0855 -2.2803
  853SOL    HW2 2559   0.689   1.788   0.629  0.0089  0.5926 -0.3677
  854SOL     OW 2560   1.703   1.040   1.633  0.6614 -0.4417  0.2321
  854SOL    HW1 2561   1.799   1.047   1.660 -0.2297  3.9260  1.7015
  854SOL    HW2 2562   1.692   1.039   1.533  1.2180 -1.3587  0.3984
  855SOL     OW 2563   0.434   1.982   0.133 -0.3799  0.1144 -0.0472
  855SOL    HW1 2564   0.519   1.926   0.126  0.1957 -1.0248  2.5259
  855SOL    HW2 2565   0.418   2.015   0.040  0.1981 -2.1016  2.3482
  856SOL     OW 2566   0.051   0.186   1.654  0.1615  0.0518  0.0735
  856SOL    HW1 2567   0.124   0.121   1.680 -1.4617  2.4154 -1.8918
  856SOL    HW2 2568   3.045   0.138   1.607  1.4634  2.5458  3.0881
  857SOL     OW 2569   0.548   0.276   1.920  0.1413  0.1601  0.6946
  857SOL    HW1 2570   0.502   0.341   1.983 -2.7989 -0.1435  1.9533
  857SOL    HW2 2571   0.548   0.306   1.821 -1.9162  3.2360 -2.1452
  858SOL     OW 2572   2.733   1.974   2.357  0.1906 -0.0177  0.1685
  858SOL    HW1 2573   2.793   2.007   2.282  0.1690 -0.0204  1.0104
  858SOL    HW2 2574   2.690   2.049   2.413  0.0673  1.3888  0.8106
  859SOL     OW 2575   2.212   2.763   0.666  0.0652  0.2582  0.6037
  859SOL    HW1 2576   2.285   2.781   0.598 -0.2142  1.3377  1.7610
  859SOL    HW2 2577   2.244   2.756   0.761 -0.0167 -1.0152  2.3303
  860SOL     OW 2578   1.764   0.470   0.549  0.5317  0.0211 -0.0171
  860SOL    HW1 2579   1.760   0.467   0.649  0.0257 -2.1744 -2.0915
  860SOL    HW2 2580   1.706   0.539   0.496  0.6101  3.3265  0.4572
  861SOL     OW 2581   0.556   0.289   1.031  0.8268 -0.1750 -0.0135
  861SOL    HW1 2582   0.581   0.385   1.046 -0.9151  0.7309  0.2096
  861SOL    HW2 2583   0.487   0.262   1.100 -0.1783 -0.8222 -1.8217
  862SOL     OW 2584   2.217   0.674   1.661 -0.7846  0.6163 -0.0374
  862SOL    HW1 2585   2.262   0.583   1.641 -0.7932 -0.8394  0.2728
  862SOL    HW2 2586   2.209   0.725   1.572 -0.9641  0.4761 -0.2512
  863SOL     OW 2587   0.335   1.542   1.196  0.7282 -0.3567 -0.6529
  863SOL    HW1 2588   0.365   1.510   1.108 -0.4198  0.3749  0.3568
  863SOL    HW2 2589   0.358   1.645   1.220  5.0471  2.4034  1.2009
  864SOL     OW 2590   2.393   0.150   2.002 -0.4566 -0.0543  0.2712
  864SOL    HW1 2591   2.362   0.070   1.944 -3.1057  0.0285 -1.6420
  864SOL    HW2 2592   2.351   0.139   2.093  0.4102 -1.7756 -2.5395
  865SOL     OW 2593   1.634   0.349   1.867  0.4885  0.4165  0.5532
  865SOL    HW1 2594   1.603   0.335   1.767  2.5405 -1.1480  1.5534
  865SOL    HW2 2595   1.646   0.448   1.882 -1.5525  2.5135  2.0635
  866SOL     OW 2596   2.638   2.940   0.816 -0.6773 -0.2288  0.1287
  866SOL    HW1 2597   2.708   3.002   0.856 -0.9812 -0.6873  0.0840
  866SOL    HW2 2598   2.608   2.983   0.727 -0.6914 -2.8191 -2.7743
  867SOL     OW 2599   2.524   2.646   0.510  0.3498  0.0451  0.1356
  867SOL    HW1 2600   2.554   2.733   0.465  2.8080  3.1035 -0.2868
  867SOL    HW2 2601   2.519   2.568   0.445  0.9400 -1.2135 -1.6347
  868SOL     OW 2602   1.481   1.721   2.772  0.0650  0.4015  0.3693
  868SOL    HW1 2603   1.385   1.713   2.799  0.0855 -0.4184 -1.4994
  868SOL    HW2 2604   1.534   1.660   2.831 -1.3848 -1.0572 -1.0311
  869SOL     OW 2605   2.364   1.713   0.671 -0.0655 -0.0124 -0.0595
  869SOL    HW1 2606   2.336   1.678   0.582  0.6063 -3.1321 -0.4768
  869SOL    HW2 2607   2.335   1.808   0.684  0.9962 -1.7240  1.6107
  870SOL     OW 2608   2.699   1.835   0.312  0.5603 -0.4976  0.5858
  870SOL    HW1 2609   2.757   1.753   0.299 -3.4820  0.0847 -0.8256
  870SOL    HW2 2610   2.755   1.920   0.309  1.0904 -1.7452  0.7261
  871SOL     OW 2611   0.229   0.819   1.559 -0.4012  0.1243  0.0496
  871SOL    HW1 2612   0.209   0.785   1.465  0.0975 -1.4605  0.1362
  871SOL    HW2 2613   0.160   0.890   1.597 -0.1765  1.6976  1.5447
  872SOL     OW 2614   0.323   1.995   2.212 -0.1450 -0.5616 -0.1813
  872SOL    HW1 2615   0.347   1.903   2.246  0.1361  1.5830 -2.0460
  872SOL    HW2 2616   0.340   2.006   2.114 -2.7803 -1.0088 -0.1984
  873SOL     OW 2617   0.264   2.395   1.705 -0.3363 -0.6615 -0.6422
  873SOL    HW1 2618   0.208   2.333   1.759  2.0282  1.9962 -1.6625
  873SOL    HW2 2619   0.369   2.366   1.691  2.2049 -0.3820  2.2760
  874SOL     OW 2620   0.912   0.732   1.993  0.6448 -0.3641  0.6895
  874SOL    HW1 2621   0.838   0.803   1.999  1.9656 -1.9426  0.9975
  874SOL    HW2 2622   0.991   0.767   1.936 -1.6833  2.6692 -2.2454
  875SOL     OW 2623   2.717   2.842   1.295  0.3955 -0.0643 -0.0104
  875SOL    HW1 2624   2.756   2.751   1.267  0.0280  0.2836 -2.1274
  875SOL    HW2 2625   2.796   2.899   1.323 -0.5866 -0.0599 -0.2617
  876SOL     OW 2626   1.171   1.255   0.482  0.1730  0.1173  0.5196
  876SOL    HW1 2627   1.135   1.343   0.513  1.7363 -0.8737  1.8000
  876SOL    HW2 2628   1.270   1.264   0.459  0.0245 -0.9852  1.6678
  877SOL     OW 2629   1.125   0.610   1.178  0.0903 -0.5104 -0.1306
  877SOL    HW1 2630   1.148   0.713   1.187  0.2407  1.5826  1.3694
  877SOL    HW2 2631   1.173   0.566   1.107 -1.5593  1.5970  3.3842
  878SOL     OW 2632   2.376   1.762   3.025  0.2716  0.5068 -0.1994
  878SOL    HW1 2633   2.313   1.681   3.021 -0.0448 -1.7100 -0.2938
  878SOL    HW2 2634   2.438   1.766   2.943  1.2434 -0.9436 -1.1372
  879SOL     OW 2635   2.419   2.014   1.769 -0.2846  0.3883  0.0018
  879SOL    HW1 2636   2.472   1.929   1.775  0.8812 -1.0370  2.8384
  879SOL    HW2 2637   2.469   2.098   1.798 -2.9615 -0.5957  2.1126
  880SOL     OW 2638   1.046   2.235   1.056 -0.1614  0.6513  0.0256
  880SOL    HW1 2639   1.144   2.265   1.074  0.6049  2.2986  2.4908
  880SOL    HW2 2640   1.015   2.165   1.127 -1.8884 -0.4753 -0.3851
  881SOL     OW 2641   0.961   2.001   0.795 -0.1604  0.4461  0.7867
  881SOL    HW1 2642   0.961   2.102   0.814  0.0389 -0.1823 -2.8338
  881SOL    HW2 2643   0.873   1.955   0.819 -0.0791  2.1611  2.1168
  882SOL     OW 2644   1.877   1.669   2.771  0.0655 -0.2964  0.0983
  882SOL    HW1 2645   1.944   1.607   2.731 -0.9569  2.7394  0.2366
  882SOL    HW2 2646   1.925   1.755   2.805 -1.1035  0.6749 -1.3709
  883SOL     OW 2647   1.584   0.668   1.242  0.2618  0.3757 -0.2572
  883SOL    HW1 2648   1.521   0.712   1.179  0.3519  0.2572  0.9216
  883SOL    HW2 2649   1.609   0.574   1.206 -0.5474  0.8334  0.0169
  884SOL     OW 2650   3.017   2.686   0.930  0.2376  0.1254 -0.1911
  884SOL    HW1 2651   3.039   2.785   0.927 -1.4976 -0.5135  1.4220
  884SOL    HW2 2652   0.026   2.632   0.898  2.2068  2.4645  0.7676
  885SOL     OW 2653   0.595   1.302   1.878  0.2466  0.6072 -0.2506
  885SOL    HW1 2654   0.557   1.321   1.969  2.4811 -0.3501 -3.2492
  885SOL    HW2 2655   0.669   1.233   1.878  1.3274  1.5358  1.4642
  886SOL     OW 2656   1.122   1.287   2.575 -0.2063  0.5581 -0.1855
  886SOL    HW1 2657   1.082   1.280   2.666  0.0430 -1.1064  0.0638
  886SOL    HW2 2658   1.215   1.250   2.575 -1.3556 -0.1530 -0.7126
  887SOL     OW 2659   1.563   0.259   0.861 -0.6658  0.0689 -0.3372
  887SOL    HW1 2660   1.575   0.164   0.820  0.3134 -0.0726 -1.4637
  887SOL    HW2 2661   1.496   0.315   0.810  0.1210  0.5050  0.3126
  888SOL     OW 2662   1.953   0.802   2.289  0.1915 -0.5862 -0.2915
  888SOL    HW1 2663   1.972   0.719   2.345  0.9221  0.8745 -0.8962
  888SOL    HW2 2664   1.857   0.806   2.261  0.5619 -1.9992 -0.6329
  889SOL     OW 2665   2.830   2.021   0.892  0.3054  0.0099 -0.0952
  889SOL    HW1 2666   2.895   1.990   0.964 -0.2321  1.1478 -0.4727
  889SOL    HW2 2667   2.737   2.034   0.933 -0.1174  1.2798  0.5798
  890SOL     OW 2668   1.226   2.081   0.223  0.1023 -0.1198  0.8132
  890SOL    HW1 2669   1.165   2.144   0.273 -1.1537  2.6082 -2.1835
  890SOL    HW2 2670   1.310   2.127   0.190 -2.6771 -0.1400 -1.3011
  891SOL     OW 2671   2.726   0.775   2.528 -0.4808 -0.0119  0.5078
  891SOL    HW1 2672   2.821   0.742   2.505 -0.0894  0.2390  1.0216
  891SOL    HW2 2673   2.659   0.729   2.465  0.4297 -0.5972 -2.4468
  892SOL     OW 2674   3.040   2.392   1.100  0.2371 -0.5283  0.1665
  892SOL    HW1 2675   0.054   2.362   1.044  1.7931 -0.5731 -0.3382
  892SOL    HW2 2676   2.985   2.310   1.140  1.3669 -1.1484 -2.1982
  893SOL     OW 2677   1.264   0.182   1.000  0.1413 -0.5006 -0.5394
  893SOL    HW1 2678   1.266   0.093   0.947  1.2315 -2.1031 -2.0511
  893SOL    HW2 2679   1.311   0.175   1.092  0.4940 -1.9389 -2.2189
  894SOL     OW 2680   2.785   0.301   0.889 -0.3031 -0.0290  0.3268
  894SOL    HW1 2681   2.788   0.332   0.792 -4.3406 -0.6047 -1.3666
  894SOL    HW2 2682   2.781   0.199   0.880  0.6158 -2.1132 -0.9510
  895SOL     OW 2683   1.508   1.867   2.562  0.7644  0.0904  0.3320
  895SOL    HW1 2684   1.585   1.858   2.496 -0.3679 -1.5182 -2.5321
  895SOL    HW2 2685   1.506   1.793   2.630 -1.3729 -0.0198  1.6066
  896SOL     OW 2686   1.949   0.805   1.397 -0.2326  0.0805 -0.0183
  896SOL    HW1 2687   2.031   0.852   1.435 -0.1303 -1.8456 -1.1068
  896SOL    HW2 2688   1.950   0.786   1.297  0.8058 -2.2463 -0.5861
  897SOL     OW 2689   0.448   1.094   1.427 -0.2171 -0.0813 -0.0608
  897SOL    HW1 2690   0.389   1.173   1.404 -0.8791 -2.0674  0.2662
  897SOL    HW2 2691   0.440   1.013   1.362 -1.8367 -3.9280  0.1565
  898SOL     OW 2692   1.606   2.449   2.213  0.0385 -0.1451  0.5865
  898SOL    HW1 2693   1.545   2.373   2.243  1.2061 -1.5016  0.1069
  898SOL    HW2 2694   1.624   2.442   2.117 -0.5499  2.1308  2.2938
  899SOL     OW 2695   1.178   1.747   1.094 -0.2331  0.2341  0.0815
  899SOL    HW1 2696   1.186   1.804   1.180  0.4269  0.1071  2.4196
  899SOL    HW2 2697   1.198   1.797   1.008  1.6323  1.2317  2.0969
  900SOL     OW 2698   0.709   2.738   2.379 -0.3832  0.4062 -0.6147
  900SOL    HW1 2699   0.684   2.727   2.476  0.5589  3.0821  1.6417
  900SOL    HW2 2700   0.682   2.830   2.360 -1.3495 -4.2723 -0.6581
  901SOL     OW 2701   0.868   1.491   2.286  0.4255  0.4393 -0.0968
  901SOL    HW1 2702   0.796   1.491   2.359 -1.9240 -0.4493  0.1630
  901SOL    HW2 2703   0.926   1.411   2.283 -0.4818  2.3964 -0.4798
  902SOL     OW 2704   2.031   0.907   2.929 -0.0700  0.6587 -0.1523
  902SOL    HW1 2705   1.989   0.989   2.975 -1.4991 -0.4967  1.7615
  902SOL    HW2 2706   2.024   0.824   2.987 -2.0110  1.9135  3.9082
  903SOL     OW 2707   1.990   1.241   2.779  0.1382 -0.1725  0.3157
  903SOL    HW1 2708   1.930   1.185   2.840 -2.2766 -0.7182  3.9099
  903SOL    HW2 2709   1.952   1.248   2.685  1.2959  0.8077  1.8572
  904SOL     OW 2710   1.593   1.161   1.853  0.0915 -0.3940 -0.5754
  904SOL    HW1 2711   1.628   1.117   1.769  1.5284 -0.1526 -1.5014
  904SOL    HW2 2712   1.510   1.226   1.835 -3.4000  3.2862  0.0915
  905SOL     OW 2713   2.585   0.534   1.034  0.5452  0.2659 -0.4732
  905SOL    HW1 2714   2.529   0.481   0.975  1.6185  1.1240  2.6349
  905SOL    HW2 2715   2.681   0.532   1.003  2.9620  2.3262  1.3186
  906SOL     OW 2716   0.411   1.397   0.697 -0.8907 -0.0075 -0.0189
  906SOL    HW1 2717   0.472   1.355   0.625  1.3542 -1.3150  0.0043
  906SOL    HW2 2718   0.317   1.359   0.699 -2.0771 -0.5673  0.7524
  907SOL     OW 2719   1.421   0.017   0.362  0.1989  0.4417 -0.4990
  907SOL    HW1 2720   1.436   0.104   0.413 -0.0473  1.1258 -0.6398
  907SOL    HW2 2721   1.505   3.020   0.364  0.9149 -0.0884  0.8407
  908SOL     OW 2722   1.180   2.768   1.487  0.1089 -0.4552  0.2031
  908SOL    HW1 2723   1.139   2.677   1.476 -0.4611  4.2214 -0.2187
  908SOL    HW2 2724   1.105   2.836   1.485  1.8085  0.7687  0.0549
  909SOL     OW 2725   2.473   0.778   1.744 -0.6117  0.2105  0.2157
  909SOL    HW1 2726   2.485   0.744   1.839 -0.4405 -1.0414 -1.3100
  909SOL    HW2 2727   2.377   0.765   1.721  3.8142 -1.1829  1.7060
  910SOL     OW 2728   1.405   2.988   2.149  0.3653 -0.3495 -0.0391
  910SOL    HW1 2729   1.390   3.028   2.239 -0.4976 -2.6290 -0.6225
  910SOL    HW2 2730   1.333   2.914   2.128 -1.6882 -0.7408  0.1886
  911SOL     OW 2731   2.399   1.666   2.409 -0.4517  0.3073 -0.0755
  911SOL    HW1 2732   2.422   1.717   2.328 -0.4249  0.1537 -1.4565
  911SOL    HW2 2733   2.317   1.608   2.404 -1.4872 -1.7804 -1.0673
  912SOL     OW 2734   2.251   2.125   1.280 -0.4964 -0.2403  0.2375
  912SOL    HW1 2735   2.315   2.194   1.242 -1.1842 -0.7150  0.9497
  912SOL    HW2 2736   2.262   2.126   1.381 -1.0238  0.4687 -0.9785
  913SOL     OW 2737   2.559   2.215   1.873 -0.2749  0.5947 -0.0629
  913SOL    HW1 2738   2.636   2.229   1.939  1.6256 -0.7263  0.5197
  913SOL    HW2 2739   2.563   2.282   1.802 -0.7719 -1.0985  0.7789
  914SOL     OW 2740   2.036   2.130   0.830  0.1736 -0.0573  0.1606
  914SOL    HW1 2741   2.087   2.179   0.905 -1.7095  1.4317 -1.9802
  914SOL    HW2 2742   2.012   2.037   0.866  1.1801  2.5813 -1.8111
  915SOL     OW 2743   1.036   2.519   1.834  0.1790  0.5815  0.7892
  915SOL    HW1 2744   1.029   2.427   1.883  0.6327 -2.7635  0.9607
  915SOL    HW2 2745   1.051   2.503   1.734 -0.3501  0.2634  1.0091
  916SOL     OW 2746   0.135   2.085   1.075 -0.2312 -0.3084 -0.4013
  916SOL    HW1 2747   0.117   2.171   1.012  0.7612  3.0397 -3.0157
  916SOL    HW2 2748   0.203   2.022   1.028  1.6659 -0.3949 -0.2858
  917SOL     OW 2749   2.652   1.248   2.790  0.3547 -0.4716 -0.3843
  917SOL    HW1 2750   2.659   1.147   2.782  1.5883  0.6276  0.3898
  917SOL    HW2 2751   2.708   1.287   2.715  2.1212 -2.1091  1.0061
  918SOL     OW 2752   1.342   2.085   2.627 -0.1374  0.4259  0.2537
  918SOL    HW1 2753   1.391   1.997   2.603 -2.4207 -1.1630 -0.0927
  918SOL    HW2 2754   1.247   2.084   2.596 -1.6327 -0.0974  0.7087
  919SOL     OW 2755   1.796   2.277   0.920 -0.4892  0.3111 -0.1001
  919SOL    HW1 2756   1.724   2.207   0.940 -2.8178  1.1034  3.3760
  919SOL    HW2 2757   1.893   2.246   0.928 -0.8652 -0.2739  0.0537
  920SOL     OW 2758   1.114   0.573   2.479  0.0290 -0.0568 -0.0888
  920SOL    HW1 2759   1.189   0.547   2.543 -3.8495 -1.7625 -2.5177
  920SOL    HW2 2760   1.151   0.571   2.386 -0.8424 -0.0717  0.4964
  921SOL     OW 2761   0.000   0.299   2.709  0.2838  0.5264 -0.0683
  921SOL    HW1 2762   0.018   0.366   2.634 -1.5987 -0.7199 -0.2737
  921SOL    HW2 2763   0.056   0.214   2.693  1.3461 -0.8772  1.5184
  922SOL     OW 2764   2.270   1.637   1.699  0.3616  0.0642  0.0030
  922SOL    HW1 2765   2.263   1.701   1.616 -0.1612  2.8224 -0.8792
  922SOL    HW2 2766   2.343   1.569   1.674  0.2731 -0.1254 -0.6986
  923SOL     OW 2767   0.164   1.846   2.494  0.7562  0.0294 -0.3781
  923SOL    HW1 2768   0.082   1.908   2.473 -2.3110  0.3477  0.6312
  923SOL    HW2 2769   0.151   1.800   2.581  1.0180  2.0012  1.8307
  924SOL     OW 2770   1.739   0.229   2.329 -0.0101  0.2619  0.3601
  924SOL    HW1 2771   1.733   0.200   2.426  1.7207 -1.6306 -0.6608
  924SOL    HW2 2772   1.732   0.326   2.324  2.3647 -3.5628  0.5422
  925SOL     OW 2773   2.885   0.934   3.054 -0.0669  0.3052  0.2864
  925SOL    HW1 2774   2.879   0.971   2.959 -2.6416 -0.8350  3.1768
  925SOL    HW2 2775   2.800   0.966   0.036 -1.0004 -2.6285 -2.1184
  926SOL     OW 2776   2.830   0.424   0.623  0.1418  0.0247 -0.7825
  926SOL    HW1 2777   2.899   0.443   0.549  0.7750  0.2406  2.0844
  926SOL    HW2 2778   2.850   0.487   0.706  2.1794  3.1719  1.3861
  927SOL     OW 2779   1.323   0.991   0.625 -0.4738 -0.7487 -0.2081
  927SOL    HW1 2780   1.343   1.028   0.537 -0.8930 -0.6152 -0.8950
  927SOL    HW2 2781   1.225   0.978   0.642  0.5026  1.5466 -1.0680
  928SOL     OW 2782   0.152   0.097   2.137 -0.0526  0.1115 -0.7436
  928SOL    HW1 2783   0.109   0.137   2.052 -0.3172  2.3803 -0.8195
  928SOL    HW2 2784   0.194   0.166   2.193  2.1921 -0.1613 -0.6306
  929SOL     OW 2785   2.616   0.798   1.433 -0.8345  0.1659  0.1201
  929SOL    HW1 2786   2.684   0.856   1.379  1.2149 -2.9381 -2.0411
  929SOL    HW2 2787   2.662   0.760   1.516  0.7068 -1.1834  1.7703
  930SOL     OW 2788   1.825   2.530   0.935 -0.4628 -0.1835 -0.1768
  930SOL    HW1 2789   1.758   2.576   0.870  0.2116  1.2178  0.3694
  930SOL    HW2 2790   1.812   2.429   0.935 -1.3679  2.0313 -1.1514
  931SOL     OW 2791   1.919   1.079   1.085 -0.2895  0.4009  0.5923
  931SOL    HW1 2792   1.926   0.987   1.043 -0.4752 -0.0751 -2.0164
  931SOL    HW2 2793   1.887   1.148   1.016 -0.6879  1.0501  2.0548
  932SOL     OW 2794   0.141   0.754   1.319 -0.0825 -0.7942 -0.6397
  932SOL    HW1 2795   0.049   0.759   1.363 -0.9084  0.3402 -0.5743
  932SOL    HW2 2796   0.150   0.676   1.259  2.9822  0.2697  1.0010
  933SOL     OW 2797   2.101   1.673   2.175  0.1078  0.0239 -0.3694
  933SOL    HW1 2798   2.034   1.592   2.194 -2.9179 -3.1976 -0.3700
  933SOL    HW2 2799   2.167   1.645   2.101 -0.8852 -0.0758  0.9229
  934SOL     OW 2800   1.673   2.824   1.377 -0.4058  0.6130  0.2225
  934SOL    HW1 2801   1.687   2.839   1.276  1.1303 -1.4921 -0.7202
  934SOL    HW2 2802   1.575   2.799   1.392  0.7767  0.6769 -0.5654
  935SOL     OW 2803   0.487   0.616   1.401  0.5983 -0.4404 -0.1252
  935SOL    HW1 2804   0.475   0.713   1.368 -1.2991 -1.9341 -0.4849
  935SOL    HW2 2805   0.539   0.605   1.491  1.1193  1.0069  1.5423
  936SOL     OW 2806   2.467   0.651   1.250  0.2598  0.3976  0.0406
  936SOL    HW1 2807   2.517   0.611   1.171  0.0606 -0.5265 -0.2796
  936SOL    HW2 2808   2.533   0.718   1.296  1.4831  0.7095 -0.9505
  937SOL     OW 2809   0.923   2.900   1.136  0.3584  0.3999  0.6528
  937SOL    HW1 2810   0.878   2.941   1.215 -0.9913 -0.2869 -0.2764
  937SOL    HW2 2811   0.921   2.958   1.050 -1.3936 -0.8036 -2.2080
  938SOL     OW 2812   2.946   2.330   0.833 -0.4480 -0.1737  0.2183
  938SOL    HW1 2813   2.894   2.252   0.879 -0.0179 -0.4757  0.6734
  938SOL    HW2 2814   2.949   2.411   0.896 -2.1778 -1.4595  0.3529
  939SOL     OW 2815   0.080   1.737   2.734  0.2331 -0.1434 -0.1518
  939SOL    HW1 2816   3.049   1.720   2.739 -0.9205 -3.0680  0.0402
  939SOL    HW2 2817   0.131   1.703   2.816  0.7154 -0.6506 -0.5442
  940SOL     OW 2818   2.395   2.708   2.757 -0.2190  0.2165 -0.2563
  940SOL    HW1 2819   2.424   2.701   2.658  0.5789 -0.2280  1.2287
  940SOL    HW2 2820   2.431   2.796   2.790  0.1235 -1.5388  0.5370
  941SOL     OW 2821   1.480   2.837   0.098  0.0815  0.0488 -0.0267
  941SOL    HW1 2822   1.515   2.776   0.028 -0.7319  0.7727 -1.2201
  941SOL    HW2 2823   1.554   2.899   0.132 -0.9720 -1.3479 -2.2948
  942SOL     OW 2824   1.595   1.954   1.506 -0.1025  0.1593  0.0010
  942SOL    HW1 2825   1.579   1.864   1.559 -0.1081  0.2640  1.6476
  942SOL    HW2 2826   1.618   2.032   1.567  2.3862  0.6011 -1.8279
  943SOL     OW 2827   1.880   0.863   1.897  0.1198 -0.0638 -0.1671
  943SOL    HW1 2828   1.798   0.812   1.866 -0.0733 -0.2205 -1.9023
  943SOL    HW2 2829   1.950   0.797   1.934 -0.5263 -0.7495  0.1653
  944SOL     OW 2830   1.383   0.741   1.846  0.0097 -0.2173 -0.2193
  944SOL    HW1 2831   1.473   0.754   1.791  2.4990 -1.1792 -3.3809
  944SOL    HW2 2832   1.340   0.650   1.827 -2.4222  0.3434  0.5661
  945SOL     OW 2833   2.673   2.346   1.096  0.0378  0.7200 -0.3461
  945SOL    HW1 2834   2.696   2.428   1.037 -0.2992 -0.3342 -0.0560
  945SOL    HW2 2835   2.754   2.319   1.151  1.5327  0.3881  2.0898
  946SOL     OW 2836   0.864   1.176   1.615  0.3092  0.2718  0.0520
  946SOL    HW1 2837   0.948   1.175   1.560 -0.2347  1.4000 -1.0862
  946SOL    HW2 2838   0.794   1.244   1.570  0.8266  4.0777  0.0581
  947SOL     OW 2839   0.516   2.462   0.615 -0.5594 -0.1505  0.7969
  947SOL    HW1 2840   0.519   2.436   0.713 -2.6296  0.6812 -1.8935
  947SOL    HW2 2841   0.429   2.423   0.577 -2.2141 -0.5291 -3.5176
  948SOL     OW 2842   3.008   1.360   1.787  0.2966  0.0351 -0.2620
  948SOL    HW1 2843   0.026   1.336   1.836 -0.2279 -3.0157 -0.6569
  948SOL    HW2 2844   3.025   1.416   1.704 -0.1657  0.3792  3.1473
  949SOL     OW 2845   0.468   0.460   2.109  0.7203  0.2521 -0.4726
  949SOL    HW1 2846   0.544   0.506   2.155  0.7292 -1.6119 -0.5160
  949SOL    HW2 2847   0.423   0.529   2.050 -0.2380 -0.7687  3.2326
  950SOL     OW 2848   0.494   0.727   0.777  0.1803 -0.2261  0.3138
  950SOL    HW1 2849   0.574   0.783   0.802  0.5755  1.6336 -0.5517
  950SOL    HW2 2850   0.430   0.789   0.729 -0.2960 -0.0350 -1.8130
  951SOL     OW 2851   0.936   1.769   2.376  0.3180 -0.0742  0.1538
  951SOL    HW1 2852   0.916   1.671   2.348 -1.3692 -0.4341 -0.8206
  951SOL    HW2 2853   0.848   1.822   2.360 -1.2250  0.5788  0.0916
  952SOL     OW 2854   1.322   1.320   2.808 -0.0819  0.6890  0.0595
  952SOL    HW1 2855   1.367   1.288   2.721  2.6825 -0.5417  0.4026
  952SOL    HW2 2856   1.386   1.351   2.882 -1.0600  0.4507 -1.6675
  953SOL     OW 2857   0.964   2.720   2.252  0.4682  0.7951  0.4248
  953SOL    HW1 2858   0.935   2.704   2.157  2.0224  2.3811  0.5365
  953SOL    HW2 2859   0.873   2.727   2.303 -1.8429  0.8868 -0.0108
  954SOL     OW 2860   2.256   1.466   0.770  0.1819 -0.0074 -0.2939
  954SOL    HW1 2861   2.278   1.561   0.745 -2.4768 -3.0550 -1.5778
  954SOL    HW2 2862   2.309   1.400   0.710  1.9091  1.4598  0.7122
  955SOL     OW 2863   0.013   2.286   2.846 -0.0647  0.7604  0.1056
  955SOL    HW1 2864   0.044   2.375   2.807  0.8845  0.8966 -0.1864
  955SOL    HW2 2865   0.005   2.289   2.948 -1.1555  1.9533 -2.3089
  956SOL     OW 2866   1.117   0.814   1.580  0.4012  0.7995  0.6037
  956SOL    HW1 2867   1.210   0.784   1.550 -1.4347  1.6025  1.4225
  956SOL    HW2 2868   1.076   0.883   1.516  2.5372  1.1131  0.5590
  957SOL     OW 2869   1.967   1.455   2.267 -0.1218  0.6436 -0.7122
  957SOL    HW1 2870   1.991   1.361   2.234 -0.1167  0.0203  2.1391
  957SOL    HW2 2871   1.881   1.456   2.321 -0.3283 -0.5199  0.7186
  958SOL     OW 2872   1.478   2.500   1.355 -0.1857 -0.0566 -0.0473
  958SOL    HW1 2873   1.443   2.586   1.311  0.2891 -2.0082 -0.0783
  958SOL    HW2 2874   1.562   2.471   1.305  0.8028  1.3094  0.8222
  959SOL     OW 2875   1.566   1.492   2.002 -0.3426 -0.1146 -0.2064
  959SOL    HW1 2876   1.648   1.472   1.939  0.9532 -3.5319 -1.1029
  959SOL    HW2 2877   1.505   1.565   1.968 -0.6454  0.0884  0.8527
  960SOL     OW 2878   2.801   1.019   2.599 -0.1166  0.2508 -0.1735
  960SOL    HW1 2879   2.764   0.928   2.577  2.5372  2.2525  2.1098
  960SOL    HW2 2880   2.901   1.019   2.599  0.8392 -1.5279  0.5916
  961SOL     OW 2881   0.402   0.690   1.961  0.3210  0.1203  0.4453
  961SOL    HW1 2882   0.347   0.657   1.882 -0.1676 -2.7805  2.0757
  961SOL    HW2 2883   0.489   0.727   1.930  0.0337 -0.9318  1.1828
  962SOL     OW 2884   1.417   1.674   0.557  0.0784  0.4526 -0.1559
  962SOL    HW1 2885   1.320   1.662   0.592 -0.3963  1.2032  0.8319
  962SOL    HW2 2886   1.473   1.594   0.583 -2.5290 -1.3197 -0.6171
  963SOL     OW 2887   1.387   2.361   2.634 -0.4771 -0.4928 -0.4652
  963SOL    HW1 2888   1.289   2.378   2.617 -0.5584 -5.9118  0.1387
  963SOL    HW2 2889   1.403   2.261   2.629 -1.6283  0.7560 -0.7103
  964SOL     OW 2890   1.072   2.273   0.344 -0.0872 -0.1390  0.4788
  964SOL    HW1 2891   0.989   2.225   0.309  1.0572 -1.0423  1.4530
  964SOL    HW2 2892   1.058   2.370   0.358  1.4234 -0.6677  3.0388
  965SOL     OW 2893   0.623   2.882   1.003 -0.4910  0.1581 -0.1164
  965SOL    HW1 2894   0.583   2.930   1.083  2.5128 -0.7511  1.7254
  965SOL    HW2 2895   0.702   2.934   0.974 -2.5632 -1.3460  0.7362
  966SOL     OW 2896   0.027   1.204   3.005  0.2433  0.1325 -0.0655
  966SOL    HW1 2897   0.026   1.261   2.921 -0.4821  2.1876 -0.0099
  966SOL    HW2 2898   3.018   1.234   3.065  0.3839  0.9387 -1.6421
  967SOL     OW 2899   0.908   2.879   1.752  0.6835 -0.0378  0.3832
  967SOL    HW1 2900   0.907   2.984   1.756  0.9258  1.5219  0.3938
  967SOL    HW2 2901   0.996   2.834   1.775  3.2449 -0.4907  1.3855
  968SOL     OW 2902   1.930   0.342   0.374 -0.0635 -0.0528  0.2678
  968SOL    HW1 2903   2.020   0.317   0.418  0.6151 -0.0254  2.0343
  968SOL    HW2 2904   1.867   0.389   0.432  0.8628 -2.7588 -3.9615
  969SOL     OW 2905   2.973   1.846   1.961  0.2373 -0.6648  0.3535
  969SOL    HW1 2906   2.917   1.801   1.890  1.4135 -2.0002  0.5070
  969SOL    HW2 2907   3.067   1.817   1.932  2.9321 -3.6157 -1.6506
  970SOL     OW 2908   2.124   1.270   1.500 -0.4737  0.6629 -0.0193
  970SOL    HW1 2909   2.154   1.361   1.460 -0.6375  1.8621  1.7705
  970SOL    HW2 2910   2.209   1.229   1.543 -0.0999  0.6358 -3.4913
  971SOL     OW 2911   1.964   0.307   1.259 -0.1244  0.0089  0.1605
  971SOL    HW1 2912   2.063   0.307   1.284 -1.6455  1.5766 -0.5090
  971SOL    HW2 2913   1.947   0.338   1.162  0.0038  1.3510 -4.1109
  972SOL     OW 2914   0.495   2.898   1.747  0.4737 -0.1473  0.0475
  972SOL    HW1 2915   0.537   2.991   1.744 -0.4180 -1.0226 -0.9142
  972SOL    HW2 2916   0.450   2.882   1.658  3.3126 -3.1957  1.0446
  973SOL     OW 2917   2.693   1.008   0.165 -0.1055  0.0381  0.2543
  973SOL    HW1 2918   2.594   0.981   0.144  0.6495 -0.2516 -1.3904
  973SOL    HW2 2919   2.721   1.005   0.267  1.3137 -0.4332  2.4884
  974SOL     OW 2920   1.741   1.421   2.397  0.0975 -0.4637  0.3555
  974SOL    HW1 2921   1.704   1.377   2.312 -2.9507 -0.5112  1.4641
  974SOL    HW2 2922   1.662   1.462   2.450 -0.5302  0.6792 -0.0509
  975SOL     OW 2923   0.123   2.475   1.329 -0.0170 -0.2027  0.1782
  975SOL    HW1 2924   0.072   2.456   1.244 -1.6136 -1.8941  1.9036
  975SOL    HW2 2925   0.071   2.539   1.386  1.0537 -0.6576  0.2456
  976SOL     OW 2926   0.022   1.556   1.594 -0.0073 -0.1734 -0.4500
  976SOL    HW1 2927   0.123   1.554   1.609 -1.6197  0.1409 -0.4969
  976SOL    HW2 2928   0.003   1.563   1.494  0.7683  1.1908  1.8620
  977SOL     OW 2929   0.712   2.335   2.841 -0.3688 -0.2232 -0.7174
  977SOL    HW1 2930   0.676   2.344   2.746 -1.1930  0.5526  0.2487
  977SOL    HW2 2931   0.812   2.346   2.841 -0.2032  0.3855  0.2105
  978SOL     OW 2932   0.544   1.703   2.441 -0.2635 -0.1145 -0.3575
  978SOL    HW1 2933   0.589   1.747   2.364 -0.7224 -3.3011  0.8851
  978SOL    HW2 2934   0.578   1.734   2.534 -0.5182 -1.7244  1.1864
  979SOL     OW 2935   1.549   2.387   1.033  0.0788  0.0776  0.2260
  979SOL    HW1 2936   1.600   2.368   1.117  1.2719 -0.3318 -3.4822
  979SOL    HW2 2937   1.608   2.407   0.955 -0.5718  0.2165  0.8498
  980SOL     OW 2938   0.946   1.600   2.938 -0.8244 -0.0019 -0.1815
  980SOL    HW1 2939   0.850   1.624   2.907  0.3745 -0.4010 -1.1091
  980SOL    HW2 2940   0.983   1.677   2.995  1.8927 -1.6565 -2.5081
  981SOL     OW 2941   2.745   0.094   2.509  0.2773  0.2892 -0.0185
  981SOL    HW1 2942   2.801   0.152   2.446  2.1844  1.9414 -1.3042
  981SOL    HW2 2943   2.647   0.101   2.482  0.4297 -2.8449  3.0622
  982SOL     OW 2944   0.345   2.642   2.823 -0.4177 -0.4398 -0.3710
  982SOL    HW1 2945   0.289   2.577   2.770 -1.1205 -0.3985 -1.4616
  982SOL    HW2 2946   0.421   2.596   2.871  1.6321 -0.6232 -1.5354
  983SOL     OW 2947   2.280   1.044   2.129  0.8244  0.4576  0.0891
  983SOL    HW1 2948   2.289   1.127   2.190  1.2574 -1.6531 -0.5712
  983SOL    HW2 2949   2.265   1.070   2.030 -1.3411 -0.3908 -0.7383
  984SOL     OW 2950   1.507   0.207   2.080 -0.3050 -0.1677  0.1691
  984SOL    HW1 2951   1.540   0.120   2.120 -0.2511 -3.2666  2.9444
  984SOL    HW2 2952   1.569   0.234   2.001  1.2963 -1.0058 -2.5460
  985SOL     OW 2953   1.226   1.845   2.080  0.0012 -0.7592 -0.5069
  985SOL    HW1 2954   1.167   1.763   2.063 -0.8532 -1.4557  0.6359
  985SOL    HW2 2955   1.263   1.842   2.176 -0.6984  0.5906  0.5806
  986SOL     OW 2956   1.805   0.099   2.099 -0.4760  0.1716  0.3339
  986SOL    HW1 2957   1.820   0.169   2.025  2.1307 -0.0431  1.9328
  986SOL    HW2 2958   1.785   0.145   2.188 -1.3285 -0.1402  1.7722
  987SOL     OW 2959   2.065   0.666   1.900 -0.1152 -0.4140 -0.1017
  987SOL    HW1 2960   2.127   0.672   1.822 -0.4722  0.8545  2.8899
  987SOL    HW2 2961   2.108   0.702   1.984 -1.6437  0.3984  1.4333
  988SOL     OW 2962   2.520   0.641   2.409 -0.1462  0.0877  0.1973
  988SOL    HW1 2963   2.480   0.727   2.374 -1.2669 -0.3064 -1.6775
  988SOL    HW2 2964   2.446   0.569   2.405  2.3232 -0.3385 -1.1675
  989SOL     OW 2965   2.476   2.744   2.501  0.8486 -0.1754  0.0758
  989SOL    HW1 2966   2.396   2.716   2.442 -2.3732  1.3403  0.6874
  989SOL    HW2 2967   2.565   2.740   2.445 -2.5755  1.4181 -0.2628
  990SOL     OW 2968   0.513   0.849   3.026 -0.3994  0.2642 -0.0177
  990SOL    HW1 2969   0.475   0.935   2.989  1.3067  2.0175 -2.6213
  990SOL    HW2 2970   0.445   0.803   0.021  1.3731  0.7849  2.5040
  991SOL     OW 2971   0.932   0.638   2.699  0.3503 -0.1093 -0.0911
  991SOL    HW1 2972   0.896   0.572   2.774 -2.7830 -1.3433  1.2714
  991SOL    HW2 2973   1.023   0.608   2.664 -0.0603  0.9023  1.2515
  992SOL     OW 2974   2.772   2.401   2.669  0.4111 -0.6300 -0.1684
  992SOL    HW1 2975   2.850   2.346   2.630  1.4512  0.4657 -1.3764
  992SOL    HW2 2976   2.796   2.442   2.757 -2.0245 -1.4028 -2.1309
  993SOL     OW 2977   0.545   0.023   0.296  0.3246 -0.0257 -0.4431
  993SOL    HW1 2978   0.544   3.002   0.348  0.0492  0.2834  0.2065
  993SOL    HW2 2979   0.481   0.018   0.218  2.4248 -0.1069  2.2887
  994SOL     OW 2980   0.311   2.110   1.573  0.0328  0.7033 -0.6716
  994SOL    HW1 2981   0.386   2.175   1.601 -2.2986 -1.3798 -2.0955
  994SOL    HW2 2982   0.263   2.136   1.488  1.1886 -0.4090 -1.1029
  995SOL     OW 2983   2.256   1.983   0.095  0.1469 -0.4821 -0.2678
  995SOL    HW1 2984   2.321   1.968   0.021 -0.0755 -0.2782  2.2754
  995SOL    HW2 2985   2.193   1.902   0.106 -0.1489  1.4773  0.7182
  996SOL     OW 2986   1.487   1.504   2.501  0.0771  0.4872 -0.0653
  996SOL    HW1 2987   1.472   1.524   2.400 -0.0007 -1.2888  0.3554
  996SOL    HW2 2988   1.401   1.525   2.554 -0.7106 -0.8027  0.8726
  997SOL     OW 2989   1.771   0.999   1.351  0.3576  0.0853 -0.1663
  997SOL    HW1 2990   1.835   1.073   1.339 -0.4249  0.0920 -1.6435
  997SOL    HW2 2991   1.819   0.910   1.365 -0.8182 -1.2171  3.1316
  998SOL     OW 2992   2.913   1.651   0.261  0.2174 -0.6165 -0.1372
  998SOL    HW1 2993   2.882   1.553   0.267  0.2010 -1.2405 -1.4375
  998SOL    HW2 2994   2.907   1.679   0.164 -0.4370  3.4428 -1.6557
  999SOL     OW 2995   2.782   2.523   0.267 -0.4558  0.1389  0.6460
  999SOL    HW1 2996   2.686   2.552   0.246  1.3036 -2.1660  4.0830
  999SOL    HW2 2997   2.791   2.449   0.332  0.1387  2.4784 -2.4259
 1000SOL     OW 2998   0.803   2.981   2.035 -0.5022 -0.3193 -0.1477
 1000SOL    HW1 2999   0.730   3.030   1.993  0.4170 -3.1094  1.6606
 1000SOL    HW2 3000   0.846   2.921   1.964 -0.3243  0.1653  0.7686
   3.06737   3.06737   3.06737
