1000 SPC/Fw water molecules t= 269.00000 step= 269000
 3000
    1SOL     OW    1   2.708   2.433   1.136  0.1234  0.3927  0.1529
    1SOL    HW1    2   2.810   2.440   1.129 -1.3332 -1.4991 -0.4632
    1SOL    HW2    3   2.666   2.530   1.144 -0.5140  2.3576  1.6828
    2SOL     OW    4   1.919   2.118   1.222  0.2712  0.5269 -0.3002
    2SOL    HW1    5   1.988   2.085   1.153 -3.0329  0.1314  1.4731
    2SOL    HW2    6   1.896   2.051   1.295 -1.9361 -0.5517 -0.5816
    3SOL     OW    7   1.063   2.779   3.109 -0.7664 -0.2770  0.6204
    3SOL    HW1    8   1.112   2.858   3.069 -1.2354  0.2317 -0.2230
    3SOL    HW2    9   1.113   2.692   3.090 -0.1888 -1.2659  2.3470
    4SOL     OW   10   1.915   1.911   1.420  0.4534 -0.0551 -0.2075
    4SOL    HW1   11   1.821   1.896   1.457  1.7241 -1.2991  1.1031
    4SOL    HW2   12   1.985   1.938   1.488  0.1054 -0.8561  0.5057
    5SOL     OW   13   1.235   1.197   1.476 -0.4859 -0.2035 -0.2204
    5SOL    HW1   14   1.223   1.158   1.384  1.6639 -0.2229 -3.3922
    5SOL    HW2   15   1.299   1.277   1.470 -0.4897  1.7395 -0.6559
    6SOL     OW   16   2.516   0.110   0.038  0.9977  0.1638 -1.1153
    6SOL    HW1   17   2.427   0.063   0.019 -0.4319  0.1228  0.6011
    6SOL    HW2   18   2.551   0.164   3.086 -0.0797 -1.4908  4.0529
    7SOL     OW   19   2.758   1.225   1.213  0.3588  0.1844 -0.2179
    7SOL    HW1   20   2.665   1.252   1.186  2.3035 -0.1613 -1.0550
    7SOL    HW2   21   2.807   1.311   1.221 -0.6560  1.7407 -1.3201
    8SOL     OW   22   1.286   2.816   1.023 -0.0454 -0.0324  0.8433
    8SOL    HW1   23   1.384   2.794   1.032  2.8743 -1.0552  0.2934
    8SOL    HW2   24   1.263   2.876   1.103 -3.4509 -0.1780  1.8865
    9SOL     OW   25   1.786   0.111   2.058  0.1257  0.1891 -0.3422
    9SOL    HW1   26   1.757   0.022   2.015  0.2411 -1.3821  1.8189
    9SOL    HW2   27   1.752   0.187   2.001  1.4764 -0.2896 -0.7139
   10SOL     OW   28   0.784   2.292   0.851 -0.3206  0.3957  0.7208
   10SOL    HW1   29   0.685   2.305   0.835  1.5834 -1.4026  1.5671
   10SOL    HW2   30   0.818   2.362   0.914  0.9712 -0.9500  1.0681
   11SOL     OW   31   1.284   1.498   0.223 -0.3983  0.2176 -0.0747
   11SOL    HW1   32   1.187   1.488   0.204 -0.2924 -2.0655  1.3439
   11SOL    HW2   33   1.297   1.579   0.287 -1.4807  1.6110 -0.7564
   12SOL     OW   34   2.944   2.723   1.903 -0.1118 -0.1714 -0.2226
   12SOL    HW1   35   2.931   2.640   1.847  0.8170  1.4741  0.3548
   12SOL    HW2   36   3.040   2.763   1.903  0.3421  2.1329 -2.1133
   13SOL     OW   37   1.767   0.003   0.592 -0.2120 -0.0260 -0.2026
   13SOL    HW1   38   1.711   0.041   0.660  1.5625 -0.3934 -3.1797
   13SOL    HW2   39   1.847   0.057   0.571 -1.1470  0.2224  1.2148
   14SOL     OW   40   1.252   2.560   1.132  0.2038  0.0538  0.0865
   14SOL    HW1   41   1.221   2.479   1.070  1.9663 -0.5195 -2.8864
   14SOL    HW2   42   1.247   2.650   1.094 -0.3002 -2.1114  0.5491
   15SOL     OW   43   3.012   1.629   1.593  0.8958 -0.4066  0.4810
   15SOL    HW1   44   3.066   1.549   1.624 -0.0617  0.2034  1.6032
   15SOL    HW2   45   3.050   1.675   1.505 -0.2128 -1.8369 -0.1714
   16SOL     OW   46   1.929   2.222   0.423  0.0214  0.0498  0.4233
   16SOL    HW1   47   1.944   2.227   0.521  1.2373 -3.2259 -0.8739
   16SOL    HW2   48   2.014   2.191   0.382 -3.9579 -0.0039  0.3871
   17SOL     OW   49   1.034   2.910   1.597  0.1733 -0.3693 -0.2894
   17SOL    HW1   50   1.108   2.902   1.658 -1.4606 -1.7629 -1.4880
   17SOL    HW2   51   1.015   3.006   1.564  1.7218  1.7567 -1.1325
   18SOL     OW   52   1.273   0.875   3.108  0.2412 -0.0256  0.2666
   18SOL    HW1   53   1.300   0.956   0.045  0.2939  2.9943 -0.8453
   18SOL    HW2   54   1.345   0.851   3.042  1.2927 -0.5486 -2.2313
   19SOL     OW   55   1.774   2.003   2.697 -0.1062 -0.5402  0.0456
   19SOL    HW1   56   1.852   1.951   2.658 -0.1928  1.1710 -2.6512
   19SOL    HW2   57   1.806   2.062   2.773  1.8916 -0.7182 -1.9674
   20SOL     OW   58   2.088   1.676   1.915 -0.0353  0.5741  0.1017
   20SOL    HW1   59   2.133   1.765   1.892  0.8262  0.5382  0.4421
   20SOL    HW2   60   2.098   1.612   1.836  0.9672 -1.5821 -0.7567
   21SOL     OW   61   0.858   1.569   0.403  0.9775 -0.3301  0.4779
   21SOL    HW1   62   0.911   1.534   0.324 -0.7486  0.2153  0.2539
   21SOL    HW2   63   0.780   1.630   0.370 -2.0326  0.3044  0.1838
   22SOL     OW   64   2.079   0.067   1.454  0.1056 -0.0908 -0.4929
   22SOL    HW1   65   2.009   0.083   1.379  0.0398  2.7528 -2.0341
   22SOL    HW2   66   2.164   0.020   1.420 -0.3916  1.1513 -2.2727
   23SOL     OW   67   3.046   0.899   1.921  0.0488  0.3898 -0.0285
   23SOL    HW1   68   3.058   0.977   1.853 -2.4202  0.1531  1.8683
   23SOL    HW2   69   2.949   0.863   1.914  0.1135 -4.4758  1.8192
   24SOL     OW   70   2.214   2.733   0.296 -0.1712 -0.2646 -0.5701
   24SOL    HW1   71   2.270   2.776   0.219  1.1239 -2.2141 -1.4092
   24SOL    HW2   72   2.133   2.686   0.253 -3.3570  2.0791  1.1110
   25SOL     OW   73   1.477   3.122   2.509 -0.1113 -0.0943  0.5037
   25SOL    HW1   74   1.400   0.048   2.467  0.4423  0.5370  0.7274
   25SOL    HW2   75   1.557   0.016   2.449  1.2243  0.2763 -0.6822
   26SOL     OW   76   1.708   2.410   3.120  0.1690  0.7375  0.3402
   26SOL    HW1   77   1.802   2.424   0.036 -0.1411  0.7522  0.2235
   26SOL    HW2   78   1.679   2.493   3.072 -0.0020 -0.1897  0.6729
   27SOL     OW   79   2.773   1.952   3.121 -0.5485 -0.3555  0.5730
   27SOL    HW1   80   2.708   1.901   3.066  2.1716  1.0758  3.1672
   27SOL    HW2   81   2.832   2.005   3.053  0.6070 -0.4015  0.5937
   28SOL     OW   82   0.227   0.971   1.809 -0.8916  0.5474  0.1551
   28SOL    HW1   83   0.205   0.877   1.777  1.2400  1.9750  0.3999
   28SOL    HW2   84   0.158   1.034   1.768  0.9092 -1.2352  1.2522
   29SOL     OW   85   2.391   2.227   1.500 -0.3307 -0.0986  0.2145
   29SOL    HW1   86   2.358   2.274   1.587 -2.1485  1.3749  0.1877
   29SOL    HW2   87   2.466   2.279   1.458 -0.9008 -0.2760 -1.3814
   30SOL     OW   88   1.641   0.331   0.459  0.3292  0.4745  0.0641
   30SOL    HW1   89   1.560   0.372   0.411  1.2156  1.2768 -1.4140
   30SOL    HW2   90   1.722   0.328   0.398  1.5505  0.1397 -1.0819
   31SOL     OW   91   2.475   2.579   1.736  0.3480 -0.2976  0.4993
   31SOL    HW1   92   2.467   2.626   1.823 -0.5198  0.6992  2.4706
   31SOL    HW2   93   2.516   2.637   1.665  0.3101  2.1910  3.1978
   32SOL     OW   94   0.794   1.839   1.150 -0.0593  0.3708  0.0684
   32SOL    HW1   95   0.834   1.889   1.072  1.1059 -1.0293  0.1661
   32SOL    HW2   96   0.720   1.895   1.202 -0.1235  0.7980 -0.4128
   33SOL     OW   97   0.711   0.004   2.749 -0.1372  0.2251  0.2004
   33SOL    HW1   98   0.637   0.018   2.681  0.1456  0.3119 -0.1052
   33SOL    HW2   99   0.680   3.067   2.826 -1.8295  1.9809  0.7820
   34SOL     OW  100   1.298   2.945   0.545 -0.5661 -0.0570 -0.0982
   34SOL    HW1  101   1.358   3.002   0.610  0.2663  1.9970  1.1207
   34SOL    HW2  102   1.361   2.884   0.493  1.5124  0.8042  1.9322
   35SOL     OW  103   2.105   3.076   1.099 -0.0896 -0.3919  0.1728
   35SOL    HW1  104   2.070   3.030   1.014  1.5374  1.3945 -2.2968
   35SOL    HW2  105   2.029   0.006   1.144  1.5464 -1.7969 -0.3782
   36SOL     OW  106   2.088   2.528   2.244  0.3918 -0.2963  0.0081
   36SOL    HW1  107   2.009   2.470   2.216  1.1320  1.3881  2.1327
   36SOL    HW2  108   2.046   2.610   2.289  2.2471 -1.9903  1.8318
   37SOL     OW  109   0.987   0.140   2.467  0.4689  0.0944 -0.3348
   37SOL    HW1  110   0.942   0.149   2.376  0.4825 -1.0552 -1.7731
   37SOL    HW2  111   0.994   0.229   2.510 -3.5092 -0.4027 -3.8736
   38SOL     OW  112   0.219   2.549   2.826  0.0468 -0.4937 -0.5566
   38SOL    HW1  113   0.217   2.648   2.804 -0.4770 -0.9888 -0.7857
   38SOL    HW2  114   0.190   2.491   2.751 -1.1304  2.1299  1.1343
   39SOL     OW  115   2.253   1.151   1.690 -0.4261  0.5512 -0.0429
   39SOL    HW1  116   2.223   1.164   1.596 -1.0414 -0.5852 -0.8621
   39SOL    HW2  117   2.188   1.194   1.755 -1.2974 -1.8267 -1.6846
   40SOL     OW  118   0.746   2.928   0.251 -0.4478  0.2777 -0.5198
   40SOL    HW1  119   0.676   2.887   0.194  1.3337 -0.9705  1.4841
   40SOL    HW2  120   0.700   2.966   0.336 -2.9722  0.7188 -0.4040
   41SOL     OW  121   2.035   1.199   1.044 -0.1687  0.7192  0.2104
   41SOL    HW1  122   2.095   1.118   1.040  0.2658  0.4033  2.0529
   41SOL    HW2  123   2.024   1.243   0.954 -0.0395  0.4791  0.4112
   42SOL     OW  124   0.432   0.509   0.992  0.2321 -0.3739 -0.1251
   42SOL    HW1  125   0.482   0.597   0.995  1.6533 -0.2389 -1.1152
   42SOL    HW2  126   0.370   0.507   1.073  1.6596  0.8414  1.9997
   43SOL     OW  127   2.342   1.659   2.625 -0.1760  0.1530  0.4909
   43SOL    HW1  128   2.361   1.578   2.685 -2.6356  0.0790  2.1866
   43SOL    HW2  129   2.252   1.638   2.589  2.1090  0.5993 -1.2238
   44SOL     OW  130   2.802   3.034   1.306  0.4782  0.0321 -0.1711
   44SOL    HW1  131   2.850   3.008   1.393 -0.1415  0.7648 -1.5759
   44SOL    HW2  132   2.834   0.007   1.291  1.3163  0.5026 -2.6328
   45SOL     OW  133   0.534   2.811   1.611 -0.4422  0.2394 -0.2594
   45SOL    HW1  134   0.498   2.893   1.655 -2.4689  1.2790 -3.5231
   45SOL    HW2  135   0.622   2.831   1.563 -0.5878 -2.4618 -3.2280
   46SOL     OW  136   2.216   0.116   2.382 -0.0854  0.0189 -0.2832
   46SOL    HW1  137   2.307   0.078   2.368  0.5256  2.4993 -1.0972
   46SOL    HW2  138   2.206   0.168   2.470 -2.9012  1.6833  1.1160
   47SOL     OW  139   2.075   1.959   0.566 -0.0496  0.1093  0.5592
   47SOL    HW1  140   2.080   1.891   0.638  1.1401  0.3294 -1.3801
   47SOL    HW2  141   2.010   1.930   0.496 -0.4657 -1.9086  0.6745
   48SOL     OW  142   0.722   2.043   0.449 -0.2251  0.2482  0.4586
   48SOL    HW1  143   0.641   2.094   0.415  1.5430 -1.1404 -1.9578
   48SOL    HW2  144   0.782   2.010   0.374  1.4986 -0.5395 -2.3664
   49SOL     OW  145   2.768   0.333   2.507 -0.2902 -0.3607 -0.2940
   49SOL    HW1  146   2.834   0.261   2.484  0.0155 -2.1958  1.3902
   49SOL    HW2  147   2.667   0.303   2.504 -0.6123  0.7954 -0.2487
   50SOL     OW  148   1.994   0.815   0.176 -0.0902 -0.6268  0.1717
   50SOL    HW1  149   2.063   0.881   0.219 -0.8922  2.9502  2.3929
   50SOL    HW2  150   1.899   0.849   0.190 -0.4098 -1.8505  0.8403
   51SOL     OW  151   1.948   1.012   0.833 -0.6364 -0.0584  0.1536
   51SOL    HW1  152   1.889   0.950   0.882  1.0825  4.7005 -1.3569
   51SOL    HW2  153   1.991   0.957   0.760  1.0256 -0.5576 -0.1201
   52SOL     OW  154   1.380   1.782   1.659 -0.6554  0.5516 -0.3578
   52SOL    HW1  155   1.476   1.793   1.691  0.3555  1.2652  0.1629
   52SOL    HW2  156   1.324   1.862   1.685 -0.7482  1.2465  0.3577
   53SOL     OW  157   0.711   1.768   2.239  0.3351  0.3652 -0.3456
   53SOL    HW1  158   0.751   1.751   2.145  1.0918 -0.2864  0.6071
   53SOL    HW2  159   0.652   1.853   2.238  0.6633 -0.9627 -0.5762
   54SOL     OW  160   2.273   0.458   1.211  0.1389  0.0517 -0.2586
   54SOL    HW1  161   2.311   0.554   1.206 -0.6483  0.5586 -1.0416
   54SOL    HW2  162   2.343   0.382   1.200  2.5447 -1.1976 -0.3187
   55SOL     OW  163   2.520   2.097   0.834  0.5605  0.2746  0.4503
   55SOL    HW1  164   2.601   2.038   0.860  0.8923 -3.6981  1.4059
   55SOL    HW2  165   2.501   2.102   0.732 -1.5346  0.4242  2.3881
   56SOL     OW  166   1.254   3.098   1.903  0.4051 -0.2009 -0.2236
   56SOL    HW1  167   1.272   3.063   1.997 -0.8638  0.1994 -0.5786
   56SOL    HW2  168   1.304   0.063   1.884  0.0686 -1.7083  0.5863
   57SOL     OW  169   1.286   1.602   3.076  0.3187 -0.2812 -0.2771
   57SOL    HW1  170   1.259   1.617   0.052  0.2953  2.8334  1.9275
   57SOL    HW2  171   1.314   1.504   3.066  1.8249  0.0687 -1.8878
   58SOL     OW  172   0.106   0.742   2.399  0.3472  0.5852 -0.1066
   58SOL    HW1  173   0.154   0.760   2.485 -0.0965  1.8478 -1.2836
   58SOL    HW2  174   0.051   0.654   2.415  0.6796 -1.6465 -0.3999
   59SOL     OW  175   1.240   0.212   2.740 -0.2583  0.3668 -0.4353
   59SOL    HW1  176   1.161   0.256   2.790  1.4867  1.1087  0.0701
   59SOL    HW2  177   1.306   0.168   2.808  0.3840 -0.3207  0.3611
   60SOL     OW  178   2.955   2.065   0.342 -0.1757 -0.2857  0.1054
   60SOL    HW1  179   2.887   1.990   0.353 -1.4823 -1.3262  1.5065
   60SOL    HW2  180   2.909   2.154   0.356 -0.5017 -3.1410 -0.3648
   61SOL     OW  181   1.023   2.263   0.227  0.4029  0.0963  0.2783
   61SOL    HW1  182   0.958   2.190   0.207  0.4817 -0.3895  1.9279
   61SOL    HW2  183   0.980   2.345   0.265 -0.0218  0.7844  0.9149
   62SOL     OW  184   2.097   2.324   2.464  0.1526 -0.0643  0.6511
   62SOL    HW1  185   2.095   2.223   2.471 -2.6261 -1.6122 -0.4504
   62SOL    HW2  186   2.003   2.354   2.433  0.5607  2.1537  0.4504
   63SOL     OW  187   2.175   2.245   0.275 -0.4757  0.4603  0.1320
   63SOL    HW1  188   2.210   2.170   0.215  0.9252  2.8706  0.7469
   63SOL    HW2  189   2.234   2.327   0.264 -0.0984 -3.1755  1.9105
   64SOL     OW  190   1.547   1.138   2.465 -0.4031  0.1836 -0.1869
   64SOL    HW1  191   1.620   1.086   2.499 -1.6423  2.7514  0.3505
   64SOL    HW2  192   1.468   1.076   2.461  2.4862 -0.5361 -0.1494
   65SOL     OW  193   1.308   2.154   2.741 -0.2043 -0.6488  1.0782
   65SOL    HW1  194   1.355   2.063   2.749 -0.0912 -0.6854 -2.4096
   65SOL    HW2  195   1.225   2.169   2.798  1.3504  0.9910  0.1390
   66SOL     OW  196   0.308   1.610   2.102 -0.1258  0.0293  0.6101
   66SOL    HW1  197   0.380   1.609   2.177  0.2029 -0.9909 -0.2191
   66SOL    HW2  198   0.267   1.520   2.089  0.0403  4.0013  3.4768
   67SOL     OW  199   2.825   2.628   2.975 -0.1862  0.7192  0.5563
   67SOL    HW1  200   2.818   2.666   3.071  0.7498 -2.2824  0.3408
   67SOL    HW2  201   2.859   2.700   2.910  2.7171 -0.2130  0.7408
   68SOL     OW  202   0.713   2.256   1.308  0.0039 -0.4138 -0.1280
   68SOL    HW1  203   0.657   2.326   1.254 -2.0688  1.9143  0.3198
   68SOL    HW2  204   0.811   2.267   1.292 -0.4080  0.6734 -3.2001
   69SOL     OW  205   0.724   2.602   0.840 -0.0973 -0.3992  0.5789
   69SOL    HW1  206   0.680   2.508   0.834 -1.9025  0.3822 -0.2945
   69SOL    HW2  207   0.825   2.587   0.825  0.2185  0.5976 -0.1584
   70SOL     OW  208   2.666   0.736   2.783  1.1024  0.1404 -0.1343
   70SOL    HW1  209   2.653   0.756   2.683  1.5567  0.1662 -0.0529
   70SOL    HW2  210   2.727   0.659   2.803 -1.3305 -0.2780  0.6521
   71SOL     OW  211   0.615   1.152   2.496 -0.7410  0.3016  0.4991
   71SOL    HW1  212   0.642   1.150   2.398 -2.1578 -0.0466 -0.7055
   71SOL    HW2  213   0.622   1.247   2.531 -1.0438 -0.3038 -0.4703
   72SOL     OW  214   0.338   1.565   0.424 -0.1619  0.1371  0.2494
   72SOL    HW1  215   0.369   1.594   0.327 -0.0019 -1.6262  1.1093
   72SOL    HW2  216   0.350   1.642   0.491  0.7741 -0.2673 -1.3061
   73SOL     OW  217   0.802   1.434   0.638  0.5437 -0.5631 -0.2329
   73SOL    HW1  218   0.832   1.494   0.563  1.0004  1.6067  1.9185
   73SOL    HW2  219   0.706   1.409   0.624  1.3921 -1.2202  4.6636
   74SOL     OW  220   2.355   2.887   0.111 -0.2385  0.5572 -0.1639
   74SOL    HW1  221   2.438   2.931   0.147 -1.1575  0.7672  0.5352
   74SOL    HW2  222   2.301   2.955   0.060  0.5625 -1.5892 -0.9210
   75SOL     OW  223   2.131   1.530   1.692  0.2512 -0.0203  0.3531
   75SOL    HW1  224   2.136   1.439   1.726  0.4442  2.3943 -2.2782
   75SOL    HW2  225   2.193   1.548   1.614  2.7788  0.3982 -0.2217
   76SOL     OW  226   2.050   2.479   1.763  0.6525 -0.7314  0.0415
   76SOL    HW1  227   2.101   2.566   1.766  1.6275  0.3165 -1.5031
   76SOL    HW2  228   1.978   2.487   1.835 -1.9648 -0.8167 -1.6096
   77SOL     OW  229   2.437   0.530   1.847 -0.3234  0.1682 -0.3484
   77SOL    HW1  230   2.476   0.503   1.939 -2.0744 -0.0244  0.6832
   77SOL    HW2  231   2.434   0.448   1.792 -0.1040 -0.0939  0.7903
   78SOL     OW  232   1.492   0.848   2.936 -0.0678 -0.1327  0.2129
   78SOL    HW1  233   1.587   0.812   2.934  0.2405 -1.5519 -1.1448
   78SOL    HW2  234   1.472   0.886   2.844  0.0577  2.0629 -0.7645
   79SOL     OW  235   2.550   1.611   2.081 -0.6764  0.1947  0.0530
   79SOL    HW1  236   2.579   1.584   1.987  2.1253 -1.6109 -1.2752
   79SOL    HW2  237   2.631   1.647   2.139  2.9110 -0.9484  2.1462
   80SOL     OW  238   1.965   1.385   1.234 -0.2768  1.3506  0.0610
   80SOL    HW1  239   2.011   1.308   1.187  0.3365 -0.4710  0.7549
   80SOL    HW2  240   1.906   1.346   1.309  1.0722 -1.7924  0.7417
   81SOL     OW  241   1.392   0.732   1.639  0.6756 -0.3669  0.7211
   81SOL    HW1  242   1.342   0.725   1.727 -2.9086  1.9738  1.3349
   81SOL    HW2  243   1.467   0.800   1.647 -0.6559 -0.0900  0.5625
   82SOL     OW  244   1.325   2.545   1.391  0.2918  0.3916  0.5225
   82SOL    HW1  245   1.301   2.539   1.292 -1.7026  1.1361  0.4967
   82SOL    HW2  246   1.297   2.639   1.419  2.1855  0.2931  1.7453
   83SOL     OW  247   0.111   0.197   0.514 -0.1864  0.4087 -0.0324
   83SOL    HW1  248   0.053   0.120   0.483  0.3874  0.6236 -0.1992
   83SOL    HW2  249   0.080   0.286   0.470  1.0023 -0.8193 -0.7091
   84SOL     OW  250   0.243   0.959   2.958  0.2153 -0.0204  0.0242
   84SOL    HW1  251   0.150   0.974   2.921  0.7547  1.0996  0.7313
   84SOL    HW2  252   0.250   0.882   3.022 -0.4306  0.0808  0.0626
   85SOL     OW  253   2.519   1.889   2.090 -0.4181 -0.2193 -0.1520
   85SOL    HW1  254   2.527   1.792   2.071 -1.5274 -1.3524 -0.4071
   85SOL    HW2  255   2.544   1.942   2.007  2.6862  1.1886 -1.0111
   86SOL     OW  256   3.016   1.987   1.744 -0.0856  0.2506  0.0676
   86SOL    HW1  257   2.932   1.928   1.735 -0.7664 -0.9898  1.1515
   86SOL    HW2  258   3.018   2.032   1.838 -1.3430  2.1115 -0.4569
   87SOL     OW  259   0.668   0.263   2.835  0.4058 -0.0373  0.0354
   87SOL    HW1  260   0.706   0.175   2.802 -2.6997  1.3255 -1.4195
   87SOL    HW2  261   0.650   0.252   2.934  0.7503  0.3950  0.3621
   88SOL     OW  262   0.263   2.214   1.076  0.1530 -0.3005  0.1334
   88SOL    HW1  263   0.311   2.173   0.996 -1.4154 -0.4600  1.0264
   88SOL    HW2  264   0.273   2.157   1.161  0.4955  0.1910  0.2347
   89SOL     OW  265   1.096   0.740   1.597 -0.1135 -0.4982 -0.4596
   89SOL    HW1  266   1.143   0.756   1.511 -2.2368  3.6910  3.3604
   89SOL    HW2  267   1.118   0.649   1.626 -0.8387  3.5062  1.8626
   90SOL     OW  268   2.744   1.507   1.567  0.6531 -1.1592  0.1461
   90SOL    HW1  269   2.756   1.582   1.499 -0.9841 -1.2543  1.0338
   90SOL    HW2  270   2.828   1.463   1.596 -0.8551  2.0660 -2.0937
   91SOL     OW  271   1.177   1.478   0.559  0.4031  0.0787  0.2282
   91SOL    HW1  272   1.136   1.573   0.541 -2.9286  2.7599 -0.9683
   91SOL    HW2  273   1.121   1.400   0.519 -2.8726 -1.5986 -1.5903
   92SOL     OW  274   2.145   0.591   0.810  0.7442  0.7340 -0.0098
   92SOL    HW1  275   2.087   0.645   0.751 -0.6173  2.0094  1.4658
   92SOL    HW2  276   2.156   0.637   0.900 -1.2229  1.6287  0.8831
   93SOL     OW  277   1.917   1.105   2.940 -0.3158 -0.0761 -0.2661
   93SOL    HW1  278   1.848   1.088   3.011  3.3081  0.4508  0.9580
   93SOL    HW2  279   1.882   1.162   2.868  1.0757 -0.6290  3.8367
   94SOL     OW  280   2.369   2.184   2.436  0.2499 -0.7259  0.0778
   94SOL    HW1  281   2.312   2.232   2.362 -0.5994  0.5749  1.6946
   94SOL    HW2  282   2.361   2.081   2.423  1.1119 -0.1657  1.2346
   95SOL     OW  283   2.012   0.351   0.837  0.0012 -0.2727 -0.6167
   95SOL    HW1  284   2.051   0.445   0.815  2.0618  1.0025 -1.8496
   95SOL    HW2  285   2.078   0.277   0.811 -1.5012  2.0687 -0.7604
   96SOL     OW  286   2.682   0.225   2.172 -0.5132 -0.0889 -0.0571
   96SOL    HW1  287   2.669   0.155   2.101 -1.0557 -2.3700 -1.2597
   96SOL    HW2  288   2.619   0.304   2.160  1.6382 -0.5470  0.4319
   97SOL     OW  289   2.407   0.261   1.100  0.5153  0.2140 -0.0527
   97SOL    HW1  290   2.371   0.312   1.016 -0.6156  0.7469 -2.4941
   97SOL    HW2  291   2.428   0.160   1.088  1.2715  0.9188 -1.5904
   98SOL     OW  292   1.765   2.379   1.463 -0.3764 -0.0550 -0.0540
   98SOL    HW1  293   1.710   2.417   1.383 -1.7976  1.8011 -0.4147
   98SOL    HW2  294   1.718   2.304   1.515 -0.7556 -0.2464  0.3738
   99SOL     OW  295   2.333   2.152   1.927  0.9713 -0.5681 -0.3035
   99SOL    HW1  296   2.318   2.182   2.021  1.8781 -2.5658 -4.1121
   99SOL    HW2  297   2.338   2.229   1.859  0.3616 -0.0976 -2.3995
  100SOL     OW  298   0.515   0.628   2.988  0.3471  0.6187 -0.0041
  100SOL    HW1  299   0.606   0.656   2.962  3.7268 -3.0658 -0.0942
  100SOL    HW2  300   0.446   0.701   3.008  3.5733  1.7637 -0.3688
  101SOL     OW  301   2.105   0.493   3.039 -0.0968  0.3325 -0.1559
  101SOL    HW1  302   2.149   0.526   2.951 -1.2727  2.7050  4.1416
  101SOL    HW2  303   2.165   0.495   3.120  1.4237 -2.3806 -0.1384
  102SOL     OW  304   0.187   0.714   1.702 -0.2105  0.5251  0.1036
  102SOL    HW1  305   0.113   0.708   1.627 -1.2180 -0.8362  0.9443
  102SOL    HW2  306   0.282   0.709   1.656 -0.0008  0.0715  1.3720
  103SOL     OW  307   2.856   1.066   2.616  0.4614  0.3377  0.0488
  103SOL    HW1  308   2.916   1.144   2.622  2.4760 -1.6938 -1.9203
  103SOL    HW2  309   2.919   0.986   2.620  1.2334  0.6948 -1.7173
  104SOL     OW  310   0.588   0.351   2.596  0.5285 -0.5678 -0.7584
  104SOL    HW1  311   0.624   0.320   2.686  1.0148  0.8301 -0.4943
  104SOL    HW2  312   0.650   0.411   2.539 -0.6018  3.0925  1.9524
  105SOL     OW  313   2.398   1.716   1.744 -0.2664 -0.3380  0.7614
  105SOL    HW1  314   2.339   1.778   1.797 -0.6113 -0.2156 -2.4046
  105SOL    HW2  315   2.334   1.665   1.683 -0.5382  1.7638 -0.8577
  106SOL     OW  316   1.993   0.168   0.551 -0.0634 -0.2325  0.5149
  106SOL    HW1  317   2.055   0.208   0.482 -0.5299  0.6573 -1.0379
  106SOL    HW2  318   2.041   0.146   0.638 -1.3894  1.6540 -1.0827
  107SOL     OW  319   0.041   1.514   1.107  0.1399 -0.1489 -0.0938
  107SOL    HW1  320   0.095   1.464   1.179  0.6499 -0.3960  2.0367
  107SOL    HW2  321   0.089   1.602   1.078  1.6625  1.1542  0.9417
  108SOL     OW  322   2.925   2.478   1.731 -0.0493  0.2535 -0.3491
  108SOL    HW1  323   3.020   2.475   1.766 -1.4596 -3.0740  0.4644
  108SOL    HW2  324   2.870   2.410   1.782 -1.2200 -0.6830  2.8456
  109SOL     OW  325   2.154   0.126   0.783  0.4176 -0.0392 -0.2994
  109SOL    HW1  326   2.254   0.141   0.763  0.1546  0.0165 -0.5509
  109SOL    HW2  327   2.133   0.055   0.854 -0.8643  0.5336  0.1588
  110SOL     OW  328   0.452   2.081   2.607 -0.0595  0.0735  0.0628
  110SOL    HW1  329   0.448   2.164   2.550  0.1252 -1.4649  1.5330
  110SOL    HW2  330   0.550   2.045   2.610 -1.1751  0.0712  1.3756
  111SOL     OW  331   1.541   2.610   1.589  0.2726 -0.2689  0.2933
  111SOL    HW1  332   1.502   2.541   1.525  1.6308  3.2066 -0.9643
  111SOL    HW2  333   1.549   2.704   1.546  2.7300  0.4901  2.9754
  112SOL     OW  334   1.823   2.775   3.092 -0.1543  0.0366 -0.5042
  112SOL    HW1  335   1.758   2.747   3.019  0.8620  0.3596  0.3300
  112SOL    HW2  336   1.783   2.859   0.010 -4.1943 -0.1887 -1.3641
  113SOL     OW  337   2.002   2.554   1.449 -0.1712  0.4486 -0.1760
  113SOL    HW1  338   1.916   2.507   1.473 -0.6001  0.4321  0.3231
  113SOL    HW2  339   2.054   2.497   1.381 -1.4487 -0.9261 -1.2075
  114SOL     OW  340   2.846   0.752   0.884  0.3932 -0.1525 -0.2453
  114SOL    HW1  341   2.753   0.706   0.881 -0.7550  1.2132  1.8692
  114SOL    HW2  342   2.857   0.805   0.799 -1.4499 -0.6356 -0.1268
  115SOL     OW  343   0.844   1.053   0.016  0.1069  0.5096  0.3756
  115SOL    HW1  344   0.747   1.074   0.052  1.3602  2.9857 -0.4357
  115SOL    HW2  345   0.888   0.964   0.047 -0.5562 -0.5410 -0.7493
  116SOL     OW  346   2.702   1.993   2.251 -0.8999 -0.3390  0.1886
  116SOL    HW1  347   2.667   2.056   2.319  0.7631  0.8743 -1.7354
  116SOL    HW2  348   2.619   1.952   2.204  3.2071  1.2304  2.0741
  117SOL     OW  349   2.870   2.410   0.643 -0.2918  0.3308  0.4997
  117SOL    HW1  350   2.902   2.363   0.727 -1.3693  2.0043  2.1257
  117SOL    HW2  351   2.770   2.420   0.637  1.3994 -1.6304 -1.7468
  118SOL     OW  352   1.136   2.261   1.733  0.4303 -0.1547  0.4446
  118SOL    HW1  353   1.229   2.286   1.767 -0.0288 -0.7652  0.9044
  118SOL    HW2  354   1.067   2.338   1.745  3.2619 -1.4881  0.0672
  119SOL     OW  355   0.103   1.905   2.804  0.3624 -0.1787  0.1002
  119SOL    HW1  356   0.087   1.958   2.891 -0.1216  0.7735  0.4147
  119SOL    HW2  357   0.121   1.802   2.810  1.7244 -1.7426 -0.9834
  120SOL     OW  358   1.128   0.969   2.893 -0.0448  0.3399 -0.0076
  120SOL    HW1  359   1.191   1.048   2.884 -0.9066  1.8057 -0.1138
  120SOL    HW2  360   1.159   0.915   2.975 -2.6707 -0.8261 -1.9063
  121SOL     OW  361   1.556   2.770   0.988 -0.1771 -0.2489 -0.0419
  121SOL    HW1  362   1.596   2.679   1.007 -1.1973  0.6141 -0.8953
  121SOL    HW2  363   1.583   2.803   0.900  0.0580 -0.9251  1.7696
  122SOL     OW  364   2.299   2.370   1.752 -0.2908  0.2580 -0.0497
  122SOL    HW1  365   2.201   2.397   1.746  0.6204 -1.0415 -0.8595
  122SOL    HW2  366   2.368   2.448   1.752  1.1394 -1.5643 -0.1657
  123SOL     OW  367   0.407   2.760   0.762 -0.0871  0.5231  0.0018
  123SOL    HW1  368   0.448   2.854   0.751 -0.7403  0.0876 -0.9820
  123SOL    HW2  369   0.466   2.697   0.815 -2.5115 -0.1065 -0.7757
  124SOL     OW  370   2.290   1.265   2.527  0.1724  0.1750  0.2716
  124SOL    HW1  371   2.369   1.300   2.469  0.6610  1.9273 -3.7533
  124SOL    HW2  372   2.317   1.198   2.594 -1.9000  1.4295 -0.1269
  125SOL     OW  373   0.586   0.747   0.403 -0.4837  0.3605 -0.6526
  125SOL    HW1  374   0.525   0.744   0.483  1.1359 -1.3366  3.5407
  125SOL    HW2  375   0.622   0.841   0.393  1.4697 -1.5195 -1.7607
  126SOL     OW  376   3.120   1.197   0.789 -0.1828 -0.1087  0.4324
  126SOL    HW1  377   3.048   1.161   0.723 -1.4185  0.1270 -0.2176
  126SOL    HW2  378   3.103   1.294   0.817  1.2459 -1.9120  0.4371
  127SOL     OW  379   0.253   1.851   1.976 -0.0653 -0.1654  0.2474
  127SOL    HW1  380   0.291   1.765   2.011  0.0886  1.5948 -1.1766
  127SOL    HW2  381   0.332   1.919   1.975 -0.0963 -1.0089 -0.8600
  128SOL     OW  382   0.998   1.249   0.113 -0.3346  0.3397  0.2419
  128SOL    HW1  383   1.079   1.230   0.056 -0.3814  2.6482 -0.9025
  128SOL    HW2  384   0.928   1.177   0.087 -1.6243 -0.5623 -0.2920
  129SOL     OW  385   2.704   1.218   0.802 -0.3109  0.1348  0.6017
  129SOL    HW1  386   2.603   1.233   0.800  0.8230 -0.2407  2.4344
  129SOL    HW2  387   2.722   1.158   0.881 -2.6347  0.8518  1.0922
  130SOL     OW  388   2.244   0.949   1.394 -0.0456  0.2712  0.3398
  130SOL    HW1  389   2.301   0.907   1.466  1.6282  0.7645  0.2957
  130SOL    HW2  390   2.305   0.980   1.319 -0.0429 -1.7251 -0.8898
  131SOL     OW  391   2.917   3.039   2.890  0.1221  0.1245  0.2050
  131SOL    HW1  392   2.941   2.987   2.807  0.8723 -2.4676  0.0482
  131SOL    HW2  393   3.000   3.050   2.952 -0.0082  2.7657  0.2410
  132SOL     OW  394   0.209   1.443   1.328 -0.7363  0.2881 -0.0272
  132SOL    HW1  395   0.203   1.532   1.381  0.5074  1.0480 -0.9325
  132SOL    HW2  396   0.272   1.382   1.379 -0.0393  2.3952  0.3494
  133SOL     OW  397   1.245   0.346   1.471 -0.0108 -0.5378 -0.0410
  133SOL    HW1  398   1.189   0.376   1.550 -2.6882  0.0685  1.7932
  133SOL    HW2  399   1.332   0.401   1.470 -0.4729 -3.6268 -0.9709
  134SOL     OW  400   0.072   1.478   0.081  0.0746  0.5022 -0.6714
  134SOL    HW1  401   0.047   1.381   0.054 -2.9446 -0.7698 -0.4771
  134SOL    HW2  402   0.035   1.547   0.017 -0.8188  1.8097 -2.4206
  135SOL     OW  403   2.017   1.086   1.448  0.0470  0.4412  0.1896
  135SOL    HW1  404   1.973   1.019   1.509 -0.9685  0.5195 -0.9856
  135SOL    HW2  405   2.100   1.046   1.402 -0.4733  0.8273 -2.1338
  136SOL     OW  406   0.189   0.892   0.391 -0.4300  0.1405 -0.1146
  136SOL    HW1  407   0.099   0.875   0.345  0.3484  0.6895  0.5522
  136SOL    HW2  408   0.202   0.991   0.399  0.0017 -0.8689 -0.2386
  137SOL     OW  409   2.763   1.032   1.008 -0.0440  0.0599 -0.5567
  137SOL    HW1  410   2.827   0.953   1.026 -2.3479  0.4494 -0.4567
  137SOL    HW2  411   2.774   1.101   1.081 -1.7635 -1.3758 -1.0070
  138SOL     OW  412   1.586   1.041   0.942  0.1980  0.4402 -0.1990
  138SOL    HW1  413   1.488   1.052   0.969  1.2187 -0.0423  1.9069
  138SOL    HW2  414   1.653   1.105   0.983 -0.6791 -1.7578 -0.8596
  139SOL     OW  415   1.950   3.070   2.915  0.1784  0.5496  0.1644
  139SOL    HW1  416   1.947   3.052   3.015  1.2123  1.0788 -1.8588
  139SOL    HW2  417   1.874   0.022   2.902  1.5592 -0.4803  1.9853
  140SOL     OW  418   1.404   1.932   1.340 -0.1851  0.7565 -0.7426
  140SOL    HW1  419   1.375   1.909   1.245  2.5736 -1.2128  1.4307
  140SOL    HW2  420   1.348   2.005   1.387  0.8252 -0.8461 -0.5260
  141SOL     OW  421   1.674   1.983   0.392 -0.0996  0.3467 -0.1115
  141SOL    HW1  422   1.695   2.058   0.325  1.4600 -0.1073 -3.7591
  141SOL    HW2  423   1.678   2.017   0.486  0.8079  1.3158  0.5741
  142SOL     OW  424   0.930   0.791   0.059  0.4167 -0.0822  0.0492
  142SOL    HW1  425   0.835   0.751   0.068  0.2550  1.3289 -1.3303
  142SOL    HW2  426   0.994   0.749   0.128  1.9955 -1.5179  0.0323
  143SOL     OW  427   0.268   2.012   0.264 -0.3766  0.0772  0.4349
  143SOL    HW1  428   0.211   2.028   0.180  2.6358  3.5444 -3.3960
  143SOL    HW2  429   0.214   2.024   0.348 -0.8686  0.9218  2.3437
  144SOL     OW  430   1.661   0.013   1.168  0.4799 -0.1457  0.3417
  144SOL    HW1  431   1.606   0.084   1.211  0.4671  0.1805  0.4872
  144SOL    HW2  432   1.655   3.040   1.207 -1.2468 -0.2363 -0.2666
  145SOL     OW  433   2.186   1.364   0.438 -0.0371 -0.2748  0.5648
  145SOL    HW1  434   2.243   1.289   0.478 -0.5580  0.8056 -0.1658
  145SOL    HW2  435   2.127   1.336   0.361  2.7521  2.2269  1.3252
  146SOL     OW  436   0.000   1.763   0.377  0.5788 -0.1475 -0.1892
  146SOL    HW1  437   3.059   1.786   0.297 -1.3589 -1.8609 -1.1069
  146SOL    HW2  438   0.042   1.669   0.368  0.8832 -2.0229 -0.7911
  147SOL     OW  439   2.335   3.047   1.669  0.0537 -0.3599  0.0947
  147SOL    HW1  440   2.244   2.996   1.659 -4.2069  1.9573  0.0692
  147SOL    HW2  441   2.410   2.983   1.676 -1.2993  2.3881  1.5320
  148SOL     OW  442   1.610   3.012   1.942 -0.3063 -0.2076  0.2575
  148SOL    HW1  443   1.656   2.960   1.870  0.3116 -0.3772 -1.7474
  148SOL    HW2  444   1.591   2.955   2.025  4.2775 -2.7052 -0.3570
  149SOL     OW  445   1.868   0.611   2.162 -0.2822  0.1049  0.8572
  149SOL    HW1  446   1.942   0.544   2.134  1.6340 -2.1082  1.9976
  149SOL    HW2  447   1.889   0.708   2.137 -1.5091  3.3330 -1.2350
  150SOL     OW  448   3.120   3.015   0.534 -0.1801 -0.1352 -0.1717
  150SOL    HW1  449   0.001   2.971   0.626 -0.0167  0.7735 -0.3112
  150SOL    HW2  450   0.081   2.987   0.484  1.2931 -0.4740 -1.0906
  151SOL     OW  451   0.111   1.903   0.585 -0.6622  0.0020  0.8521
  151SOL    HW1  452   0.076   1.837   0.513 -1.1743 -1.5017 -1.6500
  151SOL    HW2  453   0.105   2.000   0.555 -0.6847  1.5371 -0.1393
  152SOL     OW  454   2.919   2.985   0.872  0.4019  0.4619 -0.8382
  152SOL    HW1  455   3.016   2.973   0.851 -1.4076  1.7268 -0.7562
  152SOL    HW2  456   2.897   2.954   0.969 -1.3548  0.9300  1.3045
  153SOL     OW  457   2.477   3.107   1.094  0.0806 -0.1113  0.5096
  153SOL    HW1  458   2.515   3.062   1.178 -1.0718  0.2266 -0.6274
  153SOL    HW2  459   2.424   3.040   1.027 -1.8018 -2.0506 -1.4300
  154SOL     OW  460   1.129   0.475   1.730  0.0433 -0.5280  0.3298
  154SOL    HW1  461   1.197   0.411   1.770 -0.5805  0.5602 -0.8734
  154SOL    HW2  462   1.087   0.529   1.809 -0.4585  1.2739 -1.0029
  155SOL     OW  463   2.950   1.002   1.225 -0.0529 -0.2300  0.0031
  155SOL    HW1  464   2.996   1.025   1.136  1.1085  0.3135  1.0660
  155SOL    HW2  465   2.899   1.084   1.258 -0.3896  1.7489 -0.8398
  156SOL     OW  466   0.000   2.002   3.036 -0.3230 -0.2963 -0.5640
  156SOL    HW1  467   3.114   2.038   0.012 -0.9627 -2.1975  1.4897
  156SOL    HW2  468   3.037   2.035   2.989 -2.6029 -1.1682 -1.2072
  157SOL     OW  469   0.908   0.488   0.352 -0.2780  0.2533  0.2865
  157SOL    HW1  470   0.887   0.470   0.447  2.6847  0.6718 -1.5843
  157SOL    HW2  471   0.976   0.568   0.334 -1.4294  1.6375 -2.9044
  158SOL     OW  472   2.650   0.004   2.575  0.3350 -0.6838  0.1626
  158SOL    HW1  473   2.678   0.038   2.664  0.7219 -0.7839  1.4783
  158SOL    HW2  474   2.580   0.067   2.538  2.4986 -2.5351 -0.3825
  159SOL     OW  475   0.622   3.113   0.403  0.0984 -0.0523  0.0191
  159SOL    HW1  476   0.713   0.032   0.387 -1.1033  0.1138 -1.6865
  159SOL    HW2  477   0.543   0.051   0.383  0.3515  0.0619 -1.7795
  160SOL     OW  478   1.134   2.238   2.933 -0.2120  0.5090  0.3975
  160SOL    HW1  479   1.061   2.285   2.991 -0.0739 -1.0537  2.0162
  160SOL    HW2  480   1.184   2.171   2.994 -1.3390 -2.4570 -2.2788
  161SOL     OW  481   2.992   1.594   2.326  0.8280  0.5633 -0.2542
  161SOL    HW1  482   3.064   1.642   2.275 -2.2396  0.2179 -0.8508
  161SOL    HW2  483   2.899   1.629   2.298 -0.4591  0.8308  4.3281
  162SOL     OW  484   0.476   2.516   1.518 -0.2108  0.2603 -0.3540
  162SOL    HW1  485   0.526   2.602   1.533 -3.8899 -0.0397 -0.6508
  162SOL    HW2  486   0.408   2.524   1.440  0.7366  0.1692 -0.9898
  163SOL     OW  487   2.209   0.533   2.789 -0.3922 -0.1575  0.7352
  163SOL    HW1  488   2.296   0.539   2.739 -0.4220  1.9869  1.0043
  163SOL    HW2  489   2.136   0.551   2.723  1.2469  0.3519 -1.2191
  164SOL     OW  490   2.911   1.180   0.586  0.1254 -0.2443 -0.3571
  164SOL    HW1  491   2.915   1.249   0.510 -0.2514  1.1346 -1.0332
  164SOL    HW2  492   2.823   1.195   0.636 -1.5598  0.5062  1.6798
  165SOL     OW  493   0.300   0.160   1.733  0.1143  0.3403 -0.8681
  165SOL    HW1  494   0.266   0.147   1.637  0.9083  0.5123  2.4813
  165SOL    HW2  495   0.366   0.236   1.727  0.4823  0.8790 -1.5721
  166SOL     OW  496   1.996   0.781   0.636 -0.4357 -0.3943 -0.2651
  166SOL    HW1  497   1.938   0.845   0.583 -0.3998 -3.4856  2.7241
  166SOL    HW2  498   1.989   0.687   0.596 -1.0472  0.6432 -1.4194
  167SOL     OW  499   0.233   0.483   0.167 -0.0199 -0.4245  0.0815
  167SOL    HW1  500   0.320   0.441   0.134  0.8939  1.7706  0.0549
  167SOL    HW2  501   0.261   0.561   0.226  0.2024  0.3820 -1.0500
  168SOL     OW  502   2.079   2.964   1.887 -0.2044 -0.2596 -0.0739
  168SOL    HW1  503   2.160   3.005   1.930  1.3902 -0.8972  1.6959
  168SOL    HW2  504   2.041   3.027   1.815  2.2034  0.5385 -1.0110
  169SOL     OW  505   0.864   1.004   0.829 -0.3128  0.4375  0.3586
  169SOL    HW1  506   0.919   0.922   0.820 -2.0051  0.9317 -0.9029
  169SOL    HW2  507   0.837   1.027   0.924 -0.2231  1.4418 -0.8413
  170SOL     OW  508   3.074   0.258   1.426 -0.2243 -0.1416  0.3141
  170SOL    HW1  509   0.031   0.235   1.366  0.0286 -0.6896 -2.4861
  170SOL    HW2  510   3.073   0.206   1.517  0.9931  1.4685  1.7654
  171SOL     OW  511   1.265   2.869   2.620 -0.4818 -0.3390  0.2997
  171SOL    HW1  512   1.214   2.790   2.656 -1.1706 -0.7928 -1.1408
  171SOL    HW2  513   1.231   2.955   2.660  1.8963  1.0841  0.7562
  172SOL     OW  514   0.353   2.521   1.284 -0.0773 -0.2764  0.3184
  172SOL    HW1  515   0.439   2.485   1.241  1.5738 -1.8472 -0.0787
  172SOL    HW2  516   0.342   2.619   1.255 -0.3128 -0.3020 -1.3941
  173SOL     OW  517   1.441   0.999   2.700  0.0383  0.1316  0.3560
  173SOL    HW1  518   1.414   0.962   2.612 -0.6221  0.3355 -1.7189
  173SOL    HW2  519   1.540   1.016   2.703 -0.6717  1.3546 -3.5995
  174SOL     OW  520   1.920   0.036   2.491 -0.1814  0.2222 -0.0893
  174SOL    HW1  521   1.961   0.101   2.555  0.3674  0.6756 -2.1747
  174SOL    HW2  522   1.989   3.086   2.472  1.9212 -0.6081 -0.6186
  175SOL     OW  523   1.871   2.519   0.430  0.1292  0.3269 -0.4358
  175SOL    HW1  524   1.901   2.576   0.349 -0.7816  0.4881  1.0569
  175SOL    HW2  525   1.898   2.422   0.411  1.2896 -2.6877 -1.0540
  176SOL     OW  526   2.029   0.258   2.892  0.5676 -0.3885  0.6582
  176SOL    HW1  527   2.063   0.341   2.936 -2.3902  1.3567 -0.9006
  176SOL    HW2  528   1.950   0.214   2.940  1.5863  1.2652 -0.0324
  177SOL     OW  529   1.047   1.724   0.516  0.0355  0.0676  0.3631
  177SOL    HW1  530   1.088   1.793   0.458  1.3890 -2.0424 -0.1935
  177SOL    HW2  531   0.965   1.679   0.467 -0.0313 -1.4087 -0.8333
  178SOL     OW  532   2.886   2.114   2.945 -0.7486  0.4649 -0.6286
  178SOL    HW1  533   2.918   2.211   2.956 -1.1360 -0.6080  0.6678
  178SOL    HW2  534   2.810   2.111   2.878  0.6261 -1.7718 -0.5570
  179SOL     OW  535   0.558   3.046   2.966  0.1663 -0.0022  0.0550
  179SOL    HW1  536   0.553   2.952   2.935  0.8093  1.2787 -1.5323
  179SOL    HW2  537   0.462   3.084   2.974 -2.5398 -0.8726  2.1988
  180SOL     OW  538   1.423   1.480   0.672  0.9228 -0.2683 -0.5854
  180SOL    HW1  539   1.448   1.571   0.707 -1.3489 -1.9027  1.4474
  180SOL    HW2  540   1.327   1.486   0.634 -1.2070 -1.6215  1.0880
  181SOL     OW  541   2.205   0.802   2.130 -0.4436 -0.7167 -0.1650
  181SOL    HW1  542   2.109   0.840   2.116 -2.9734 -0.5910  2.3144
  181SOL    HW2  543   2.213   0.745   2.215 -0.8178 -4.8318 -1.6227
  182SOL     OW  544   0.228   3.049   2.280 -0.4208 -0.4409 -0.2755
  182SOL    HW1  545   0.214   0.009   2.329  1.5067 -2.7929 -2.0702
  182SOL    HW2  546   0.274   3.073   2.194  0.9564 -1.8114 -1.2994
  183SOL     OW  547   1.351   0.800   2.222  0.0313  0.0264 -0.0782
  183SOL    HW1  548   1.448   0.776   2.244 -0.6513  2.2499  0.8333
  183SOL    HW2  549   1.315   0.784   2.131 -1.0830  0.6196  2.6458
  184SOL     OW  550   0.574   0.762   1.758  0.7417  0.4566 -0.2488
  184SOL    HW1  551   0.676   0.771   1.731  3.5724  1.0897 -1.7098
  184SOL    HW2  552   0.550   0.820   1.840  0.5765  2.7915  3.0498
  185SOL     OW  553   1.970   1.118   0.348  0.6519  0.4152 -0.3557
  185SOL    HW1  554   1.976   1.193   0.281  1.9375  0.9638 -1.9798
  185SOL    HW2  555   2.056   1.067   0.338 -0.4980  0.6832  1.1062
  186SOL     OW  556   0.246   2.238   0.002  0.5718 -0.1184  0.0038
  186SOL    HW1  557   0.299   2.156   3.092  0.9747 -1.4556 -1.9928
  186SOL    HW2  558   0.164   2.205   0.054 -1.2330 -0.5794 -0.3781
  187SOL     OW  559   2.565   1.268   0.137  0.6945  0.0419  0.1161
  187SOL    HW1  560   2.484   1.234   0.078 -3.4592  0.3366 -1.4452
  187SOL    HW2  561   2.527   1.274   0.233  0.0713 -1.0542 -1.5544
  188SOL     OW  562   0.029   1.459   0.832 -0.1614  0.5317 -0.2481
  188SOL    HW1  563   0.013   1.472   0.934  0.1093 -0.4426 -1.6722
  188SOL    HW2  564   3.116   1.543   0.787 -1.9088  0.6628  0.4516
  189SOL     OW  565   2.373   0.223   0.245  0.7910 -0.0978  0.8718
  189SOL    HW1  566   2.397   0.177   0.158  0.1711  0.4178 -1.9401
  189SOL    HW2  567   2.406   0.162   0.320 -0.8064 -0.6226  2.6192
  190SOL     OW  568   1.344   1.612   2.028 -0.3696 -0.2508  0.5425
  190SOL    HW1  569   1.297   1.527   2.058 -0.0259  2.1417 -1.1201
  190SOL    HW2  570   1.361   1.617   1.923  1.6310 -1.4453  0.3765
  191SOL     OW  571   2.823   0.448   1.746 -0.2903  0.2849 -0.0264
  191SOL    HW1  572   2.863   0.459   1.650 -1.6277  0.8473 -0.5993
  191SOL    HW2  573   2.785   0.351   1.755 -0.4017 -0.7328 -0.9600
  192SOL     OW  574   1.768   1.470   1.043  0.0504  0.2459  0.4343
  192SOL    HW1  575   1.815   1.457   1.133  0.9010 -0.7272  2.8399
  192SOL    HW2  576   1.805   1.551   0.994 -0.7854  0.8812  0.1047
  193SOL     OW  577   0.982   0.756   0.821  0.2843 -0.3413 -0.1414
  193SOL    HW1  578   0.955   0.726   0.726 -1.0410  0.0485  1.8987
  193SOL    HW2  579   0.927   0.702   0.891  1.0064  1.4088 -0.4311
  194SOL     OW  580   1.111   2.406   1.475 -0.0315  0.6466 -0.1292
  194SOL    HW1  581   1.186   2.471   1.454  1.2017  0.8357  1.6090
  194SOL    HW2  582   1.146   2.346   1.550  0.0610 -2.2183  0.0043
  195SOL     OW  583   2.481   0.441   2.840 -0.2098 -0.1746 -0.6101
  195SOL    HW1  584   2.483   0.339   2.832  1.3082 -2.2988 -0.2224
  195SOL    HW2  585   2.398   0.471   2.891  1.4872 -0.4681  0.4825
  196SOL     OW  586   1.039   2.510   1.853 -0.0383 -0.2405 -0.4891
  196SOL    HW1  587   1.000   2.466   1.941  0.0026 -2.8458  2.4253
  196SOL    HW2  588   0.990   2.592   1.821  4.1659 -0.3480  0.1437
  197SOL     OW  589   0.895   2.697   1.106  0.2347 -0.3777  0.4819
  197SOL    HW1  590   0.913   2.775   1.040 -0.0771 -0.0001 -2.6091
  197SOL    HW2  591   0.868   2.741   1.192  2.0886  0.1553  2.9005
  198SOL     OW  592   0.828   0.698   0.585  0.2558  1.1328  0.1068
  198SOL    HW1  593   0.832   0.601   0.618 -1.6900 -0.7776 -1.4056
  198SOL    HW2  594   0.751   0.698   0.517 -1.0925 -1.6053  2.7616
  199SOL     OW  595   0.328   2.790   1.984 -0.7167  0.7559  0.3498
  199SOL    HW1  596   0.342   2.747   2.073  0.4955 -1.5682 -1.8164
  199SOL    HW2  597   0.381   2.738   1.914  0.0164  2.2290  1.4429
  200SOL     OW  598   1.957   1.973   2.375 -0.3424  0.0946 -0.0470
  200SOL    HW1  599   1.963   1.876   2.388 -0.2390  2.8486  1.2987
  200SOL    HW2  600   1.974   2.019   2.464 -0.5512  0.2397 -1.1661
  201SOL     OW  601   3.115   2.051   1.504  0.0188  1.1089 -0.0457
  201SOL    HW1  602   3.039   2.087   1.447 -1.6876 -0.3678  1.5227
  201SOL    HW2  603   3.082   2.024   1.598  2.6173 -1.8100 -0.2469
  202SOL     OW  604   2.621   2.968   0.457 -0.8449 -0.0498  0.0357
  202SOL    HW1  605   2.707   2.998   0.500 -0.7723 -1.9771 -0.9946
  202SOL    HW2  606   2.640   2.958   0.356  0.9685 -2.1382  0.5678
  203SOL     OW  607   1.284   2.110   2.187  0.1521 -0.0061  0.1183
  203SOL    HW1  608   1.184   2.115   2.167  0.3932 -0.7527  0.4926
  203SOL    HW2  609   1.327   2.029   2.138  1.0322 -0.1059 -3.2500
  204SOL     OW  610   1.476   2.238   1.242  0.5759 -0.1140 -0.4553
  204SOL    HW1  611   1.540   2.316   1.253  0.6326  1.1901 -0.4849
  204SOL    HW2  612   1.441   2.204   1.332  0.3246  2.8562 -3.1451
  205SOL     OW  613   1.081   1.859   1.978  0.1699 -0.1721 -0.5151
  205SOL    HW1  614   1.121   1.875   2.071  2.7787 -2.9543  1.5956
  205SOL    HW2  615   1.010   1.784   1.990 -0.4139 -0.1318  2.4187
  206SOL     OW  616   0.360   0.439   2.876  0.0793  0.0182  0.5314
  206SOL    HW1  617   0.412   0.516   2.906 -3.2808 -0.6010 -1.5241
  206SOL    HW2  618   0.396   0.408   2.787 -1.4073  0.7106 -1.3042
  207SOL     OW  619   0.972   0.101   1.898 -0.0401  0.2226  0.7338
  207SOL    HW1  620   0.956   0.171   1.824  0.3150  2.6296 -1.3749
  207SOL    HW2  621   1.063   0.055   1.890 -0.7538 -1.2561  0.3163
  208SOL     OW  622   0.636   2.345   1.984 -0.3514  0.4594  0.2466
  208SOL    HW1  623   0.672   2.439   1.975  0.8646 -1.1527 -0.0221
  208SOL    HW2  624   0.643   2.291   1.900 -0.2896  1.4229 -1.6706
  209SOL     OW  625   1.762   0.790   2.833 -0.1705  0.4799 -0.0576
  209SOL    HW1  626   1.730   0.694   2.812 -2.1652  0.8511 -2.8494
  209SOL    HW2  627   1.845   0.798   2.890  0.3490 -1.7170  0.5057
  210SOL     OW  628   3.087   0.527   0.811  0.1820 -0.1989  0.6934
  210SOL    HW1  629   3.022   0.566   0.879  0.7496  0.1243 -2.0582
  210SOL    HW2  630   0.043   0.476   0.856 -0.2885 -1.4027  1.0221
  211SOL     OW  631   0.656   0.573   1.266  0.6645 -0.5668 -0.5095
  211SOL    HW1  632   0.743   0.596   1.308  0.5044  0.2766 -0.2821
  211SOL    HW2  633   0.586   0.542   1.338 -2.3428 -1.3758  2.4286
  212SOL     OW  634   1.482   1.754   0.763  0.0503 -0.4962  0.4419
  212SOL    HW1  635   1.407   1.817   0.782  1.8948  0.0120 -0.1120
  212SOL    HW2  636   1.546   1.755   0.844 -0.4656 -0.8074  3.9688
  213SOL     OW  637   1.992   0.252   1.762 -0.5351  0.4004 -0.4903
  213SOL    HW1  638   1.961   0.159   1.732 -0.7245 -0.0300  1.2944
  213SOL    HW2  639   2.017   0.314   1.686 -0.9245  1.0637 -1.4650
  214SOL     OW  640   1.150   2.662   2.759  0.3785 -0.3268 -0.0047
  214SOL    HW1  641   1.151   2.641   2.856 -0.6331  0.0908 -2.6782
  214SOL    HW2  642   1.153   2.573   2.702 -0.0458 -3.4739  0.6592
  215SOL     OW  643   2.749   1.690   1.273 -0.1638 -0.1245 -0.5166
  215SOL    HW1  644   2.677   1.725   1.211  0.2251 -1.4336 -1.4307
  215SOL    HW2  645   2.778   1.599   1.249  0.1325  2.0749  0.6303
  216SOL     OW  646   0.355   0.542   2.045 -0.1758  0.0309 -0.0599
  216SOL    HW1  647   0.264   0.560   2.007  1.0049 -0.2452 -0.8126
  216SOL    HW2  648   0.386   0.618   2.097 -1.7565 -0.4275  0.4761
  217SOL     OW  649   2.895   0.094   0.365 -0.2103  0.4079 -0.0521
  217SOL    HW1  650   2.814   0.148   0.334  0.9488 -1.5934  3.0453
  217SOL    HW2  651   2.872   0.055   0.464 -2.1473 -1.1986  1.3260
  218SOL     OW  652   1.655   1.934   1.494 -0.0107  0.3901  0.3568
  218SOL    HW1  653   1.656   1.853   1.553 -0.3732  1.1906 -0.0770
  218SOL    HW2  654   1.564   1.943   1.448 -0.4770  1.4541  0.9221
  219SOL     OW  655   1.718   0.857   0.190  0.3980  0.5000  0.0940
  219SOL    HW1  656   1.694   0.756   0.203 -0.3630  0.1736  0.0606
  219SOL    HW2  657   1.670   0.915   0.258  1.2853  2.0205 -0.3016
  220SOL     OW  658   1.658   2.039   0.648  0.0128 -0.2001 -0.3481
  220SOL    HW1  659   1.580   2.073   0.707  0.6900  1.1324  0.8466
  220SOL    HW2  660   1.701   1.965   0.702  0.2039 -0.8485 -0.8913
  221SOL     OW  661   0.040   0.337   0.050  0.2107  0.3872  0.1747
  221SOL    HW1  662   0.038   0.361   3.074 -1.1490  1.0636 -0.4876
  221SOL    HW2  663   0.107   0.397   0.095 -2.0583 -0.9140 -0.7559
  222SOL     OW  664   0.901   2.698   1.736  0.4498 -0.2641 -0.1399
  222SOL    HW1  665   0.921   2.795   1.712 -0.1992  1.6515  3.4575
  222SOL    HW2  666   0.896   2.641   1.655 -0.5268 -1.2057  2.6984
  223SOL     OW  667   1.659   0.541   2.767  0.2773 -0.4120 -0.7469
  223SOL    HW1  668   1.664   0.480   2.848  1.4043 -2.1035 -4.0094
  223SOL    HW2  669   1.561   0.575   2.751 -1.0907  0.6775  1.1075
  224SOL     OW  670   2.794   0.568   1.262 -0.2159  0.1586 -0.0232
  224SOL    HW1  671   2.834   0.559   1.356  0.8493  0.8565  2.1367
  224SOL    HW2  672   2.708   0.519   1.261  2.7222  3.0094 -0.2397
  225SOL     OW  673   0.758   1.394   1.620 -0.2317 -0.0322 -0.1985
  225SOL    HW1  674   0.732   1.460   1.544  1.0986  1.5688 -0.1732
  225SOL    HW2  675   0.710   1.305   1.598 -0.9300 -0.9797  0.2014
  226SOL     OW  676   0.871   0.186   0.749 -0.4196  0.0363  0.1368
  226SOL    HW1  677   0.801   0.116   0.784 -0.5330  0.9541  2.5118
  226SOL    HW2  678   0.954   0.175   0.805  0.2585 -2.1532  0.6193
  227SOL     OW  679   0.698   1.962   1.574 -0.3766  0.3366 -0.0515
  227SOL    HW1  680   0.674   1.985   1.476 -0.0935  1.2516 -0.7485
  227SOL    HW2  681   0.788   1.917   1.576 -0.2556 -1.2367 -0.8203
  228SOL     OW  682   0.700   0.043   1.870 -0.2640 -0.1114  0.4192
  228SOL    HW1  683   0.786   0.068   1.921 -0.1503  0.0414 -0.3605
  228SOL    HW2  684   0.639   3.110   1.929 -0.6508 -3.4871 -1.7187
  229SOL     OW  685   2.464   0.806   0.593  0.5468  0.0332 -0.8611
  229SOL    HW1  686   2.437   0.717   0.545 -0.3494 -0.5055  1.7471
  229SOL    HW2  687   2.506   0.876   0.531  0.5871  0.0686  2.4925
  230SOL     OW  688   0.285   1.165   2.120  0.4570 -0.2080  0.2169
  230SOL    HW1  689   0.279   1.074   2.157  0.8061  4.0008 -1.7767
  230SOL    HW2  690   0.384   1.186   2.107  1.7187  0.9870 -0.2752
  231SOL     OW  691   1.278   2.957   1.270 -0.2619  0.6725  0.2457
  231SOL    HW1  692   1.272   2.887   1.344 -0.0759  0.4165  0.0150
  231SOL    HW2  693   1.269   3.054   1.300 -1.1858  0.4534 -1.2532
  232SOL     OW  694   2.566   2.343   0.239  0.7956  0.1098 -0.2140
  232SOL    HW1  695   2.494   2.376   0.173  1.8068  3.2063 -0.0100
  232SOL    HW2  696   2.571   2.239   0.230  0.8718  0.7867 -0.8650
  233SOL     OW  697   0.990   2.775   0.239 -0.5034  0.3377  0.0728
  233SOL    HW1  698   0.914   2.836   0.243  2.5870 -0.4575 -1.2312
  233SOL    HW2  699   1.022   2.784   0.142  0.5713  3.3618  0.2880
  234SOL     OW  700   1.018   0.752   2.236 -0.7232  0.1014 -0.5088
  234SOL    HW1  701   1.027   0.842   2.192 -1.8951  0.0836 -0.1650
  234SOL    HW2  702   0.923   0.731   2.268 -1.3062 -0.3691  1.3928
  235SOL     OW  703   0.079   2.135   0.452 -1.0487  0.0431  0.3384
  235SOL    HW1  704   0.087   2.239   0.445  0.2939  0.3955  1.2406
  235SOL    HW2  705   3.115   2.095   0.413 -2.9254 -1.5270 -1.0570
  236SOL     OW  706   2.091   2.939   2.465  0.4829 -0.1344  0.8841
  236SOL    HW1  707   2.188   2.957   2.424 -0.0677 -0.1102  0.5800
  236SOL    HW2  708   2.034   2.890   2.393 -3.9621 -2.3011 -3.1228
  237SOL     OW  709   1.824   1.279   1.449  0.1924 -0.2882 -0.0330
  237SOL    HW1  710   1.893   1.223   1.495  1.7925 -0.2497 -2.4964
  237SOL    HW2  711   1.740   1.225   1.423  0.4289 -1.5163 -1.8091
  238SOL     OW  712   1.689   0.080   2.353 -0.1841 -0.1329 -0.2884
  238SOL    HW1  713   1.774   0.064   2.407  2.4814 -2.8053  0.6778
  238SOL    HW2  714   1.706   0.074   2.253  0.1309  1.8260  1.3720
  239SOL     OW  715   0.641   2.155   1.765 -0.0654 -0.0742  0.8006
  239SOL    HW1  716   0.647   2.238   1.701  0.0255  0.0665  0.0827
  239SOL    HW2  717   0.672   2.071   1.718  1.6493 -3.6523 -0.5097
  240SOL     OW  718   3.028   2.588   0.887  0.1279  0.1618 -0.0115
  240SOL    HW1  719   3.102   2.639   0.839 -0.3985 -1.4444 -0.6823
  240SOL    HW2  720   3.016   2.494   0.847 -2.4196  0.1085  0.7849
  241SOL     OW  721   1.599   1.799   0.174  0.3777  0.7956  0.0199
  241SOL    HW1  722   1.528   1.730   0.215 -2.2578 -3.5022  0.4831
  241SOL    HW2  723   1.615   1.881   0.229  4.5171 -0.7422  1.5286
  242SOL     OW  724   2.264   1.178   0.022 -0.6475  0.4305 -0.1315
  242SOL    HW1  725   2.273   1.100   0.087 -0.3670 -0.8340  2.1396
  242SOL    HW2  726   2.220   1.145   3.061 -0.3976 -0.0686  2.4018
  243SOL     OW  727   0.788   0.472   1.897  0.0711  0.4268  0.3800
  243SOL    HW1  728   0.821   0.404   1.832 -2.1291 -1.1523  1.6931
  243SOL    HW2  729   0.699   0.518   1.862 -1.4426 -0.1139 -2.1246
  244SOL     OW  730   1.688   2.830   2.841 -0.3052 -0.1265  0.0804
  244SOL    HW1  731   1.622   2.901   2.810 -0.4415 -3.2483 -0.5210
  244SOL    HW2  732   1.780   2.838   2.798  2.0935  0.3562 -0.2525
  245SOL     OW  733   1.738   0.111   2.913 -0.0398  0.5197 -0.0977
  245SOL    HW1  734   1.702   0.207   2.914  1.3616 -0.8454 -1.6586
  245SOL    HW2  735   1.688   0.055   2.844  0.4887  1.0952  0.4268
  246SOL     OW  736   1.173   1.193   2.339  0.0610  0.0391  0.2766
  246SOL    HW1  737   1.256   1.252   2.329  3.2570 -0.9372 -2.8281
  246SOL    HW2  738   1.096   1.239   2.389 -0.0419  1.5103 -0.1461
  247SOL     OW  739   2.813   0.701   2.197  0.1545  0.2969 -0.2741
  247SOL    HW1  740   2.848   0.655   2.114  0.9653  0.1839  1.0037
  247SOL    HW2  741   2.749   0.778   2.178 -1.0441 -1.6983  0.9593
  248SOL     OW  742   0.452   0.928   1.947 -0.0699  0.3271 -0.3506
  248SOL    HW1  743   0.491   1.014   1.981  2.6143 -0.6802  0.1062
  248SOL    HW2  744   0.357   0.939   1.914 -1.3790 -1.9127 -0.5979
  249SOL     OW  745   2.487   0.484   0.268  0.1219  0.1485  0.6507
  249SOL    HW1  746   2.484   0.535   0.356  1.2379 -1.7506  0.1126
  249SOL    HW2  747   2.459   0.385   0.279  1.6613  0.0960  0.0368
  250SOL     OW  748   2.880   0.136   0.834 -0.4531  0.2204 -0.3385
  250SOL    HW1  749   2.954   0.183   0.782 -0.4260  0.3321  0.8363
  250SOL    HW2  750   2.902   0.038   0.841  0.1495 -0.0988 -0.3213
  251SOL     OW  751   0.795   1.058   2.223  0.1741  0.0210 -0.9537
  251SOL    HW1  752   0.807   1.023   2.321 -1.4914 -0.8823  2.5920
  251SOL    HW2  753   0.881   1.080   2.174  0.9343 -1.2376 -1.1673
  252SOL     OW  754   1.250   1.994   1.820  0.0080  0.2948 -0.5651
  252SOL    HW1  755   1.221   2.091   1.805 -0.5354  3.7117  0.1325
  252SOL    HW2  756   1.175   1.940   1.856 -0.1526  1.3340 -1.5265
  253SOL     OW  757   1.609   2.507   1.836  0.1210  0.6740  0.7559
  253SOL    HW1  758   1.707   2.508   1.861  0.4536 -1.6926  1.9858
  253SOL    HW2  759   1.595   2.535   1.739 -0.4296 -0.0636  0.6204
  254SOL     OW  760   0.950   2.192   2.363 -0.6014  0.3491 -0.2167
  254SOL    HW1  761   0.977   2.095   2.357 -0.9537  2.2258  0.3866
  254SOL    HW2  762   0.912   2.230   2.283  1.3387 -2.1252  0.0988
  255SOL     OW  763   1.316   0.504   0.566 -0.6017 -0.2865 -0.4716
  255SOL    HW1  764   1.363   0.466   0.645  0.0249  1.5491 -0.6719
  255SOL    HW2  765   1.283   0.436   0.509 -0.3080  3.4110  0.4751
  256SOL     OW  766   1.859   2.386   1.170  0.0820 -0.5886  0.4640
  256SOL    HW1  767   1.945   2.441   1.179 -1.4728 -2.7572  0.7275
  256SOL    HW2  768   1.875   2.290   1.196 -0.8803  0.9901 -3.1224
  257SOL     OW  769   0.177   2.076   2.612 -0.2119 -0.4696  0.5258
  257SOL    HW1  770   0.275   2.096   2.628  0.8635 -0.9004  0.2806
  257SOL    HW2  771   0.136   2.018   2.684 -0.7165  0.5660  1.1068
  258SOL     OW  772   0.411   0.986   2.487  0.4535 -0.6630 -0.1912
  258SOL    HW1  773   0.464   1.069   2.482  0.2264 -0.5669 -0.6274
  258SOL    HW2  774   0.318   1.009   2.463  1.8778 -0.9053  1.1861
  259SOL     OW  775   1.306   0.984   2.440  0.4368  0.2342 -0.0887
  259SOL    HW1  776   1.250   1.065   2.411  1.4142 -0.9920 -0.8913
  259SOL    HW2  777   1.310   0.913   2.368 -0.0453  1.2685  0.2178
  260SOL     OW  778   1.972   0.470   0.564  0.5987  0.0321  0.2287
  260SOL    HW1  779   1.878   0.510   0.573 -4.3603  1.7905 -1.4970
  260SOL    HW2  780   1.975   0.372   0.591 -0.6502  0.0031  1.7505
  261SOL     OW  781   1.276   0.455   2.937  0.1352 -0.5037  0.4312
  261SOL    HW1  782   1.358   0.413   2.906  0.1385 -1.3739  0.9387
  261SOL    HW2  783   1.192   0.411   2.907  2.4480  2.1116  0.7694
  262SOL     OW  784   2.259   2.888   2.669 -0.4548  0.5851 -0.1439
  262SOL    HW1  785   2.336   2.827   2.637 -0.9816 -1.3001  1.0976
  262SOL    HW2  786   2.193   2.909   2.597  1.4181  0.4894 -0.2011
  263SOL     OW  787   0.830   2.049   0.171  0.1427  0.1790  0.6483
  263SOL    HW1  788   0.915   2.003   0.144  0.8126  1.3052  0.6789
  263SOL    HW2  789   0.795   2.106   0.094 -0.3086  0.4820 -0.0257
  264SOL     OW  790   0.282   1.635   1.499 -0.5914 -0.6069  0.0041
  264SOL    HW1  791   0.367   1.610   1.551  0.8841  2.0223 -0.8412
  264SOL    HW2  792   0.210   1.677   1.559  0.5525  0.0931 -2.2868
  265SOL     OW  793   0.701   0.980   0.380  0.3205  0.0858  0.5063
  265SOL    HW1  794   0.654   1.050   0.445 -0.6830  2.1103  0.9246
  265SOL    HW2  795   0.793   1.013   0.368 -0.3541  0.7491  2.2692
  266SOL     OW  796   1.826   1.735   0.015 -0.8358 -0.1774  0.1477
  266SOL    HW1  797   1.886   1.806   0.049 -2.3612 -0.5566  2.1502
  266SOL    HW2  798   1.730   1.756   0.041 -0.7219 -0.1262 -1.3191
  267SOL     OW  799   2.784   0.306   0.005  0.2407 -0.3026  0.5910
  267SOL    HW1  800   2.850   0.232   3.109  0.3693  0.1695  1.8850
  267SOL    HW2  801   2.780   0.371   3.049  1.1531 -1.5119  2.6396
  268SOL     OW  802   0.344   0.236   3.056 -0.4088  0.3003 -0.4421
  268SOL    HW1  803   0.440   0.221   3.090 -0.0599 -0.1368  0.8158
  268SOL    HW2  804   0.341   0.301   2.984  0.3652  0.1452  3.1515
  269SOL     OW  805   1.722   0.568   2.506  0.1540 -0.0762  0.0890
  269SOL    HW1  806   1.698   0.483   2.459 -0.7743 -0.5395 -0.4730
  269SOL    HW2  807   1.704   0.561   2.605  2.3859 -1.3320 -0.2466
  270SOL     OW  808   1.103   0.905   2.615  0.9282  0.0609  0.2172
  270SOL    HW1  809   1.179   0.938   2.552  0.6481 -0.0369 -2.9433
  270SOL    HW2  810   1.109   0.943   2.711  1.0163 -0.2562  0.4760
  271SOL     OW  811   2.626   0.880   0.143 -0.1019 -0.4338 -0.4772
  271SOL    HW1  812   2.693   0.948   0.108 -0.7050  1.0770  1.5173
  271SOL    HW2  813   2.651   0.784   0.116  2.5755 -2.9634 -2.2649
  272SOL     OW  814   2.488   2.059   2.797 -0.5803 -0.0438  0.3505
  272SOL    HW1  815   2.501   2.159   2.777  0.2708  0.3809  0.6845
  272SOL    HW2  816   2.401   2.020   2.756 -2.0945 -2.3520 -1.3726
  273SOL     OW  817   2.743   0.459   2.911  0.5948 -0.7609 -0.0521
  273SOL    HW1  818   2.650   0.460   2.862 -2.3274 -0.5529  1.0430
  273SOL    HW2  819   2.818   0.423   2.854 -1.7849 -1.0702 -0.5939
  274SOL     OW  820   0.026   3.090   1.490  0.3189  0.0059 -0.2411
  274SOL    HW1  821   0.053   3.015   1.553 -0.1677 -3.6916  0.9352
  274SOL    HW2  822   3.086   0.029   1.541 -1.1794  0.4640  1.4738
  275SOL     OW  823   2.172   1.501   0.673 -0.4132  0.7615  0.2115
  275SOL    HW1  824   2.141   1.435   0.746  1.7116 -0.8290  0.2069
  275SOL    HW2  825   2.150   1.468   0.578  1.8683 -0.8105 -1.1117
  276SOL     OW  826   0.269   1.365   2.665 -0.2097 -0.5899 -0.6009
  276SOL    HW1  827   0.288   1.286   2.720 -1.7196  1.0358  1.1662
  276SOL    HW2  828   0.261   1.340   2.568  1.7079  0.9374  0.8118
  277SOL     OW  829   1.848   2.543   1.966 -0.1037  0.3689 -0.1967
  277SOL    HW1  830   1.894   2.633   1.986 -0.9502  2.6416  0.4865
  277SOL    HW2  831   1.863   2.475   2.041  1.2699 -1.6373  0.4874
  278SOL     OW  832   2.061   0.352   1.519 -0.2699 -0.1063 -0.0529
  278SOL    HW1  833   2.105   0.262   1.502 -1.4113  2.7308  1.3689
  278SOL    HW2  834   1.992   0.372   1.448 -2.3641  2.8072  1.1193
  279SOL     OW  835   1.620   1.378   2.941 -0.1153  0.1822 -0.0637
  279SOL    HW1  836   1.677   1.296   2.916  1.6743 -1.5129 -1.4614
  279SOL    HW2  837   1.682   1.457   2.941  1.2963 -1.2827 -1.4513
  280SOL     OW  838   0.741   1.551   1.124  0.2179  0.3294  0.0819
  280SOL    HW1  839   0.663   1.530   1.064 -2.8398 -0.1109  0.7575
  280SOL    HW2  840   0.760   1.649   1.122 -1.6461 -0.9743  4.7277
  281SOL     OW  841   0.047   0.009   2.519  0.2751  0.3782 -0.2492
  281SOL    HW1  842   3.108   3.053   2.540  0.0729  0.1732 -0.9244
  281SOL    HW2  843   3.120   0.075   2.464  2.0303 -4.5200  0.4577
  282SOL     OW  844   0.219   1.025   1.388  0.8473 -0.0994 -0.1457
  282SOL    HW1  845   0.151   1.087   1.432 -0.0824  1.6373  0.2679
  282SOL    HW2  846   0.172   0.940   1.357  0.2050  0.1808  1.3492
  283SOL     OW  847   1.747   2.412   2.727 -0.0344  0.1426  0.0212
  283SOL    HW1  848   1.790   2.494   2.677 -0.2744 -2.7810  0.1103
  283SOL    HW2  849   1.647   2.412   2.719  0.1907 -0.3261  0.8330
  284SOL     OW  850   2.039   1.334   0.193  0.0406 -0.2905 -0.2919
  284SOL    HW1  851   1.973   1.409   0.190 -0.8036 -2.1604 -0.6130
  284SOL    HW2  852   2.089   1.321   0.105  1.0060  2.0195 -1.6902
  285SOL     OW  853   3.118   3.046   3.062  0.0465 -0.6375  0.3000
  285SOL    HW1  854   3.080   3.119   0.005 -3.4150  2.0185  0.0534
  285SOL    HW2  855   0.089   3.079   3.043  0.0912  0.9040  0.8413
  286SOL     OW  856   1.942   3.088   1.652  0.4393 -0.8275 -0.4416
  286SOL    HW1  857   1.898   3.006   1.605 -1.5270 -1.2017  2.7499
  286SOL    HW2  858   2.009   0.001   1.579  0.3210  1.8522 -3.3846
  287SOL     OW  859   0.956   0.892   1.273 -1.2186 -0.3609 -0.6329
  287SOL    HW1  860   0.961   0.796   1.248  2.4329 -0.5828 -0.6231
  287SOL    HW2  861   0.890   0.908   1.350  1.2174  2.5968 -0.8453
  288SOL     OW  862   1.367   2.771   0.130  0.4561  0.5525 -0.1401
  288SOL    HW1  863   1.433   2.737   0.057  0.0712  1.2283 -1.3656
  288SOL    HW2  864   1.297   2.697   0.145  0.7861 -0.3768  0.1449
  289SOL     OW  865   3.096   1.682   3.046  1.1600 -0.1744  0.2046
  289SOL    HW1  866   0.005   1.779   3.053 -1.7611  3.5294 -1.2703
  289SOL    HW2  867   3.021   1.681   2.976 -1.3275 -0.8861  3.1610
  290SOL     OW  868   1.000   2.599   0.768  0.8677  0.0662 -0.2643
  290SOL    HW1  869   0.972   2.625   0.672 -1.4168  3.6557  0.0514
  290SOL    HW2  870   1.094   2.633   0.784  1.4823 -0.6662  1.1389
  291SOL     OW  871   1.978   2.363   0.082  0.2706 -0.0354  0.2561
  291SOL    HW1  872   2.036   2.315   0.159  0.0964 -3.0929  3.5785
  291SOL    HW2  873   1.945   2.298   0.012  0.5115 -1.9100 -2.8381
  292SOL     OW  874   0.722   1.301   1.876 -0.1487  0.0553 -0.0976
  292SOL    HW1  875   0.821   1.265   1.859  1.1164 -1.7989 -0.6092
  292SOL    HW2  876   0.702   1.366   1.803  0.8035  1.4174 -0.8462
  293SOL     OW  877   2.350   2.676   1.108  0.7428  0.2406 -0.3075
  293SOL    HW1  878   2.352   2.608   1.032  1.5033  0.4389  0.1446
  293SOL    HW2  879   2.444   2.687   1.139  2.0685  2.2449 -0.5164
  294SOL     OW  880   3.022   0.502   2.511  0.0623  0.0279  0.0063
  294SOL    HW1  881   2.934   0.556   2.498 -0.8000 -0.8648  0.9976
  294SOL    HW2  882   3.077   0.540   2.583 -4.2111 -0.6809 -1.7025
  295SOL     OW  883   1.067   1.955   0.066  0.5124  0.2436 -0.2678
  295SOL    HW1  884   1.024   1.927   3.098  0.5982 -0.5681 -0.2111
  295SOL    HW2  885   1.141   2.015   0.043 -1.0266  1.0180  1.6734
  296SOL     OW  886   2.065   2.097   2.615  0.0089 -0.9339 -0.3933
  296SOL    HW1  887   2.019   2.155   2.687 -0.9483 -3.6995  0.2864
  296SOL    HW2  888   2.128   2.028   2.656 -1.3055 -0.5366 -0.7961
  297SOL     OW  889   2.662   0.608   0.077 -0.0220 -0.3242  0.3023
  297SOL    HW1  890   2.665   0.583   3.100  0.4996  0.7680  1.1916
  297SOL    HW2  891   2.590   0.567   0.134  1.4784  2.2349  1.1144
  298SOL     OW  892   0.728   2.190   3.075 -0.1829  0.2782 -0.2316
  298SOL    HW1  893   0.715   2.107   3.017 -0.1116 -0.2983  3.2692
  298SOL    HW2  894   0.659   2.264   3.046  0.9595  0.1600 -0.2929
  299SOL     OW  895   1.475   2.860   2.465  0.2201  0.2564  0.1899
  299SOL    HW1  896   1.512   2.951   2.485 -1.2499 -3.6636 -0.8056
  299SOL    HW2  897   1.387   2.843   2.514 -2.6381  1.6677 -0.9711
  300SOL     OW  898   2.720   0.293   0.273  0.4436 -0.2166  0.5949
  300SOL    HW1  899   2.645   0.363   0.286  0.6383 -1.3532  1.6499
  300SOL    HW2  900   2.741   0.290   0.174 -0.0691 -1.0289 -0.7586
  301SOL     OW  901   0.954   1.204   1.769  0.0093  0.0179 -0.4919
  301SOL    HW1  902   1.022   1.129   1.763 -1.6658  0.4368 -0.2612
  301SOL    HW2  903   0.903   1.227   1.680 -2.7814  0.4376 -3.4795
  302SOL     OW  904   3.118   2.143   0.147  0.4178 -0.0838 -0.0766
  302SOL    HW1  905   3.056   2.115   0.221  0.4635  1.7371 -0.2525
  302SOL    HW2  906   3.087   2.236   0.117  0.5548  1.2436  0.2726
  303SOL     OW  907   3.078   2.915   2.696 -0.3617 -0.2726  0.0504
  303SOL    HW1  908   0.056   2.905   2.724  0.3053 -1.1794 -0.7882
  303SOL    HW2  909   3.030   2.827   2.691  1.4471  2.2748 -0.7292
  304SOL     OW  910   2.636   0.898   2.119  0.3707  0.3787  0.1442
  304SOL    HW1  911   2.542   0.924   2.158 -2.7064 -0.5773  1.8432
  304SOL    HW2  912   2.626   0.866   2.022  0.3107 -0.4630 -0.8414
  305SOL     OW  913   0.752   2.508   2.296  0.3541  0.3676 -0.1732
  305SOL    HW1  914   0.714   2.570   2.226  0.9233 -0.6681 -2.2473
  305SOL    HW2  915   0.804   2.562   2.361 -1.8128  0.0280  1.2305
  306SOL     OW  916   2.532   1.128   1.567  0.0889 -1.1297 -0.2646
  306SOL    HW1  917   2.534   1.038   1.528  3.7345  1.1960  2.7818
  306SOL    HW2  918   2.505   1.125   1.668  0.4401  0.4560  1.8669
  307SOL     OW  919   1.618   0.716   1.273 -0.1874  0.1516 -0.0999
  307SOL    HW1  920   1.708   0.701   1.218  0.1830  0.1792 -2.0681
  307SOL    HW2  921   1.540   0.680   1.217  1.0492 -0.1930 -1.1347
  308SOL     OW  922   2.555   1.792   1.104  0.1104 -0.3034 -0.0550
  308SOL    HW1  923   2.499   1.866   1.146 -0.8037 -3.0559  1.2462
  308SOL    HW2  924   2.612   1.832   1.027  0.2826  0.6674 -0.3481
  309SOL     OW  925   2.315   1.551   1.493  0.0293  0.0243  0.3548
  309SOL    HW1  926   2.267   1.551   1.404  0.7376 -0.9846 -1.3755
  309SOL    HW2  927   2.389   1.480   1.485 -0.6583 -0.1531 -0.4643
  310SOL     OW  928   2.879   1.727   2.896  0.0719 -0.8087  0.1814
  310SOL    HW1  929   2.833   1.637   2.893 -0.0374  0.2621  0.5481
  310SOL    HW2  930   2.809   1.800   2.892 -0.7685 -2.2073  1.8365
  311SOL     OW  931   2.298   2.235   3.011 -0.5220  0.3331  0.1507
  311SOL    HW1  932   2.197   2.232   2.988 -0.6950  0.3790  1.9023
  311SOL    HW2  933   2.349   2.269   2.923 -0.1667  0.2865 -1.0738
  312SOL     OW  934   2.273   1.852   1.303  0.3232  0.4811  0.3257
  312SOL    HW1  935   2.219   1.764   1.304 -0.8620 -1.0111  0.7713
  312SOL    HW2  936   2.317   1.872   1.395  1.6453  0.3330  1.8838
  313SOL     OW  937   2.296   2.270   1.178 -0.7579  0.0319  0.2898
  313SOL    HW1  938   2.370   2.307   1.120  0.0769 -1.8512 -0.1718
  313SOL    HW2  939   2.334   2.233   1.265  0.9429  0.4861  0.5368
  314SOL     OW  940   0.897   2.221   0.607 -0.5010  0.5413 -0.1719
  314SOL    HW1  941   0.874   2.258   0.696 -2.3699 -0.7933 -2.0587
  314SOL    HW2  942   0.855   2.131   0.585  0.1686 -1.7720 -3.0312
  315SOL     OW  943   0.607   2.803   2.829  0.1171 -0.0467 -0.1799
  315SOL    HW1  944   0.566   2.717   2.805  3.5515 -0.2724  1.6683
  315SOL    HW2  945   0.708   2.795   2.806  1.7603  0.7972 -2.2044
  316SOL     OW  946   0.072   0.401   0.379 -0.4502 -0.1545  0.1550
  316SOL    HW1  947   3.096   0.416   0.370  2.0734 -0.9999  0.6676
  316SOL    HW2  948   0.120   0.422   0.291  0.7050 -0.4180  1.0362
  317SOL     OW  949   1.469   0.451   0.769  0.2097  0.5802  0.5949
  317SOL    HW1  950   1.496   0.362   0.809 -1.8363  1.6714  0.7405
  317SOL    HW2  951   1.467   0.531   0.830  1.0291 -2.4261  0.2371
  318SOL     OW  952   3.047   2.567   0.517  0.1497  0.7751 -0.2404
  318SOL    HW1  953   2.999   2.634   0.460  2.4570  0.9282 -1.0108
  318SOL    HW2  954   2.972   2.510   0.562 -0.3372 -1.5651 -0.1105
  319SOL     OW  955   0.480   1.546   2.807 -0.0665 -0.4013  0.4466
  319SOL    HW1  956   0.391   1.597   2.820  2.3589 -1.1500  0.6432
  319SOL    HW2  957   0.480   1.448   2.828  2.1188  1.1900 -1.2899
  320SOL     OW  958   0.891   2.643   2.492 -0.1960 -0.3416 -0.0633
  320SOL    HW1  959   0.973   2.699   2.469  2.0933  1.3096  3.8410
  320SOL    HW2  960   0.923   2.589   2.572 -0.2368 -2.4290  0.4292
  321SOL     OW  961   1.194   3.000   0.171 -0.3991  0.4788  0.0687
  321SOL    HW1  962   1.201   2.900   0.198  0.8969 -0.9689 -1.8383
  321SOL    HW2  963   1.185   3.009   0.076 -2.1316  0.2951  5.0475
  322SOL     OW  964   2.464   1.273   2.049  0.2415  0.1729  0.4790
  322SOL    HW1  965   2.558   1.312   2.031 -0.2355  3.0456 -0.1042
  322SOL    HW2  966   2.420   1.313   2.131  0.8800  1.7705 -0.1650
  323SOL     OW  967   2.347   0.592   0.495 -0.0156  0.3304  0.0459
  323SOL    HW1  968   2.261   0.618   0.450 -0.0678 -4.5727  0.1145
  323SOL    HW2  969   2.336   0.512   0.556 -0.3512  0.9214 -0.5270
  324SOL     OW  970   0.197   2.779   3.057  0.0273  0.2936 -0.1373
  324SOL    HW1  971   0.199   2.803   2.956  1.6516  1.6439  0.2168
  324SOL    HW2  972   0.188   2.682   3.069  0.0204 -0.1976 -1.1073
  325SOL     OW  973   1.625   0.351   2.406 -0.6462 -0.2198 -0.1389
  325SOL    HW1  974   1.677   0.263   2.409  2.9119 -0.6139  1.7676
  325SOL    HW2  975   1.541   0.343   2.463  0.8404  2.0890  1.9234
  326SOL     OW  976   2.402   2.686   1.407 -0.0194  0.7415 -0.1454
  326SOL    HW1  977   2.317   2.704   1.458  1.5835 -1.7902 -2.5318
  326SOL    HW2  978   2.389   2.671   1.306  0.1597 -0.5024  1.2985
  327SOL     OW  979   1.641   0.372   2.974 -0.2955  0.3505 -0.7592
  327SOL    HW1  980   1.578   0.314   3.030  0.7743 -0.8106  1.7509
  327SOL    HW2  981   1.715   0.409   3.034  1.9371  0.0128  2.2730
  328SOL     OW  982   2.751   1.499   2.601 -0.6569  0.2592  0.4355
  328SOL    HW1  983   2.697   1.576   2.568  1.8005 -0.3304  0.9502
  328SOL    HW2  984   2.853   1.519   2.598 -0.6285 -2.3901 -0.4349
  329SOL     OW  985   1.734   2.817   1.797 -0.6051  0.1261 -0.2971
  329SOL    HW1  986   1.767   2.859   1.709  1.2664 -1.6294  0.8948
  329SOL    HW2  987   1.715   2.722   1.781  0.9337  1.8571  1.3326
  330SOL     OW  988   2.509   1.376   1.433  0.2739  0.7504  0.3464
  330SOL    HW1  989   2.489   1.283   1.474  1.2842 -2.8520  1.2992
  330SOL    HW2  990   2.592   1.415   1.479  3.2205 -0.4398 -0.9303
  331SOL     OW  991   0.389   1.283   1.454  0.4182 -0.2315 -0.4915
  331SOL    HW1  992   0.473   1.313   1.404 -0.6824 -0.2671 -0.4113
  331SOL    HW2  993   0.406   1.183   1.472 -2.1865 -1.5095 -0.8062
  332SOL     OW  994   0.862   0.246   1.448  0.0866 -0.2548 -0.4202
  332SOL    HW1  995   0.867   0.264   1.348 -0.3921 -0.7458  0.2001
  332SOL    HW2  996   0.776   0.195   1.475  2.2980 -0.3679  0.0104
  333SOL     OW  997   2.169   2.725   1.848 -0.2894 -0.0867 -0.0798
  333SOL    HW1  998   2.269   2.725   1.876  1.3845 -1.5731  1.0026
  333SOL    HW2  999   2.120   2.811   1.875  1.8078  1.2216 -1.0636
  334SOL     OW 1000   0.968   1.230   1.454  0.0003  0.2608 -0.1506
  334SOL    HW1 1001   0.938   1.313   1.405  0.2390  0.5376 -2.0816
  334SOL    HW2 1002   1.072   1.224   1.463  1.9775  1.0866 -0.7315
  335SOL     OW 1003   1.160   3.015   3.026  0.3118 -0.0895 -0.7669
  335SOL    HW1 1004   1.087   3.079   3.063  0.4856 -1.8161  0.9446
  335SOL    HW2 1005   1.170   3.017   2.923  3.7111  0.3189  1.2393
  336SOL     OW 1006   3.062   2.679   2.292  0.0644 -0.0915  0.1406
  336SOL    HW1 1007   0.016   2.735   2.332  0.4466  0.2203 -1.2982
  336SOL    HW2 1008   3.095   2.623   2.214  0.2945  1.3863  0.5362
  337SOL     OW 1009   2.544   1.528   0.410  0.5746 -0.5035 -0.0777
  337SOL    HW1 1010   2.503   1.613   0.443  1.9469 -1.7852 -0.8651
  337SOL    HW2 1011   2.627   1.551   0.356 -1.9697 -2.2637  1.5340
  338SOL     OW 1012   1.038   2.025   1.277  0.1023 -0.2051 -0.5131
  338SOL    HW1 1013   1.128   2.009   1.225  0.1266  0.1575 -0.0766
  338SOL    HW2 1014   0.968   1.966   1.230 -1.5533  0.3911 -1.6935
  339SOL     OW 1015   3.039   0.861   2.602 -0.1370 -0.0301  0.7174
  339SOL    HW1 1016   2.964   0.814   2.545 -1.3319 -0.1170  1.7389
  339SOL    HW2 1017   0.002   0.882   2.550 -0.3576 -0.3907 -2.9568
  340SOL     OW 1018   1.634   2.853   1.246 -0.4620 -1.0283 -0.4682
  340SOL    HW1 1019   1.731   2.819   1.263 -1.8353  0.7292  0.6229
  340SOL    HW2 1020   1.612   2.833   1.146  0.0907  0.3794 -2.7293
  341SOL     OW 1021   1.823   1.842   0.767  0.6476 -0.1659  0.0665
  341SOL    HW1 1022   1.917   1.799   0.754 -0.1389 -2.1006  1.3905
  341SOL    HW2 1023   1.788   1.832   0.861  0.4671 -0.6692 -0.4246
  342SOL     OW 1024   0.410   1.251   1.082 -0.0343 -0.4088 -0.3032
  342SOL    HW1 1025   0.433   1.317   1.009 -1.4716  2.3306  1.3093
  342SOL    HW2 1026   0.310   1.235   1.093 -0.2075  1.8230  1.3766
  343SOL     OW 1027   2.501   0.524   1.459 -0.0478  0.6063 -0.9574
  343SOL    HW1 1028   2.557   0.562   1.534 -1.1261  2.0985  1.1855
  343SOL    HW2 1029   2.405   0.560   1.475  0.5695 -0.0667 -0.2055
  344SOL     OW 1030   2.038   2.620   0.612  0.6450 -0.7404 -0.3631
  344SOL    HW1 1031   1.970   2.580   0.547 -3.1376 -1.4791 -0.4739
  344SOL    HW2 1032   2.103   2.549   0.639 -0.1397 -2.2683  1.1419
  345SOL     OW 1033   3.035   2.331   2.686  0.2346  0.0710  0.2450
  345SOL    HW1 1034   3.034   2.408   2.619 -0.1940 -1.0115  0.9905
  345SOL    HW2 1035   3.082   2.252   2.641  1.0350  0.1753 -2.0572
  346SOL     OW 1036   2.947   0.829   0.588  0.0812 -0.3439  0.3896
  346SOL    HW1 1037   3.044   0.850   0.612 -0.5579  0.4833 -1.7758
  346SOL    HW2 1038   2.928   0.883   0.507  0.2964 -2.3308  2.7418
  347SOL     OW 1039   1.875   2.753   1.318 -0.1723  0.2526  0.2500
  347SOL    HW1 1040   1.907   2.685   1.383 -0.0656 -1.1586 -2.6195
  347SOL    HW2 1041   1.939   2.744   1.232  2.5368 -2.8374 -0.2896
  348SOL     OW 1042   1.516   1.579   2.261  0.7011 -0.1126 -0.3208
  348SOL    HW1 1043   1.488   1.482   2.279  2.4197 -0.4522 -1.0214
  348SOL    HW2 1044   1.470   1.613   2.175 -0.7227  3.2325 -1.7762
  349SOL     OW 1045   2.093   1.334   2.125 -0.0947 -0.4642  0.1721
  349SOL    HW1 1046   2.129   1.247   2.166 -0.7868 -2.0710 -1.7742
  349SOL    HW2 1047   2.137   1.416   2.167 -1.7034  0.0591  1.1160
  350SOL     OW 1048   0.158   1.752   1.028  0.0076  0.1040  0.0195
  350SOL    HW1 1049   0.229   1.802   1.082 -1.8871  1.1179  0.1569
  350SOL    HW2 1050   0.072   1.802   1.023 -1.2246 -0.4122  0.7291
  351SOL     OW 1051   1.021   0.421   2.483  0.1060 -0.2853 -0.4232
  351SOL    HW1 1052   1.046   0.486   2.558  0.2270 -0.6616  2.3861
  351SOL    HW2 1053   0.924   0.430   2.465 -0.5342  0.5281  0.7373
  352SOL     OW 1054   0.737   2.592   1.994  0.5738 -0.0988 -0.4421
  352SOL    HW1 1055   0.813   2.626   2.052 -1.4562 -0.1074 -0.7107
  352SOL    HW2 1056   0.745   2.640   1.904  0.1245  1.9318  2.8758
  353SOL     OW 1057   0.577   1.349   2.285  0.3787 -0.1582  0.0428
  353SOL    HW1 1058   0.555   1.273   2.220  0.1534  0.2703 -0.4848
  353SOL    HW2 1059   0.513   1.431   2.270 -3.0553  2.1046 -0.3012
  354SOL     OW 1060   1.874   1.323   0.566 -0.3610  0.0661 -0.6176
  354SOL    HW1 1061   1.775   1.347   0.549 -1.5112 -2.6981 -0.6046
  354SOL    HW2 1062   1.908   1.257   0.495 -1.8228 -1.1639 -0.2033
  355SOL     OW 1063   2.400   3.109   0.744  0.0757 -0.0083 -0.5628
  355SOL    HW1 1064   2.393   3.025   0.797 -0.7301  2.1013 -2.0337
  355SOL    HW2 1065   2.465   0.048   0.786  0.0919 -1.6109  1.3652
  356SOL     OW 1066   3.076   1.238   2.630  0.5985  0.2943 -0.2018
  356SOL    HW1 1067   3.057   1.323   2.578  0.3182  0.7430 -1.2985
  356SOL    HW2 1068   0.012   1.176   2.574  0.7258 -1.9297  0.8788
  357SOL     OW 1069   3.110   2.832   1.643 -0.6470 -0.1003 -0.3637
  357SOL    HW1 1070   0.021   2.841   1.742  0.7545 -2.9638 -1.2787
  357SOL    HW2 1071   0.023   2.743   1.603 -0.7508 -3.1534 -1.2696
  358SOL     OW 1072   3.029   1.551   2.618 -0.0999  0.0929 -0.4229
  358SOL    HW1 1073   3.113   1.568   2.675 -0.8399  0.6341  1.1780
  358SOL    HW2 1074   3.052   1.577   2.522  1.3215 -2.0515 -0.0864
  359SOL     OW 1075   2.577   2.621   2.838 -0.3233 -0.5070  0.1514
  359SOL    HW1 1076   2.667   2.611   2.887  2.1527  0.7142 -0.9300
  359SOL    HW2 1077   2.513   2.675   2.896  2.5843  2.7849  2.1145
  360SOL     OW 1078   1.358   1.330   1.082  0.5059  0.1175 -0.0414
  360SOL    HW1 1079   1.337   1.232   1.074 -0.4771 -1.0092  1.4082
  360SOL    HW2 1080   1.436   1.352   1.017  2.6471 -0.4004 -2.3769
  361SOL     OW 1081   2.119   2.485   1.216  0.5132 -0.0831  0.4996
  361SOL    HW1 1082   2.188   2.409   1.191  2.0397  0.1820  3.2557
  361SOL    HW2 1083   2.141   2.573   1.170 -1.6017 -2.1301 -0.2873
  362SOL     OW 1084   1.543   1.411   0.909  0.0673  0.0587  0.0314
  362SOL    HW1 1085   1.638   1.423   0.939  0.3939 -1.8167  0.9180
  362SOL    HW2 1086   1.530   1.436   0.813  0.6885 -0.1061 -0.3425
  363SOL     OW 1087   2.596   2.071   0.192  0.0680 -0.6189 -0.0627
  363SOL    HW1 1088   2.646   2.053   0.109 -0.4496  0.2180  2.4114
  363SOL    HW2 1089   2.636   2.023   0.275  0.9001 -1.3421 -1.0548
  364SOL     OW 1090   2.379   0.310   1.684 -0.1758 -0.1639 -0.1092
  364SOL    HW1 1091   2.398   0.255   1.598 -1.3741 -4.0394  0.4493
  364SOL    HW2 1092   2.280   0.333   1.687  2.0963 -1.4211 -1.8066
  365SOL     OW 1093   2.869   2.486   1.462 -0.0553  0.0809 -0.6451
  365SOL    HW1 1094   2.899   2.499   1.562 -0.1945 -0.6087  1.0072
  365SOL    HW2 1095   2.943   2.427   1.420  1.0628 -0.3356 -0.8628
  366SOL     OW 1096   0.002   1.247   0.014  0.0467 -0.3360  0.3823
  366SOL    HW1 1097   3.076   1.255   3.043  1.0045 -0.4994 -1.6901
  366SOL    HW2 1098   3.085   1.167   0.066  0.4857  0.3119 -0.2449
  367SOL     OW 1099   2.387   2.687   3.026 -0.0787  0.2339 -0.1310
  367SOL    HW1 1100   2.301   2.674   2.978  0.5413  0.9454  1.5306
  367SOL    HW2 1101   2.372   2.764   3.094 -0.4366 -2.7133  1.7261
  368SOL     OW 1102   0.018   1.764   1.401 -0.6985  0.1693 -0.0759
  368SOL    HW1 1103   0.101   1.815   1.408 -2.4189 -0.3866 -0.1078
  368SOL    HW2 1104   3.075   1.825   1.350  2.6000 -1.4355  0.3860
  369SOL     OW 1105   0.431   0.197   0.797  0.1789  0.2869 -0.3075
  369SOL    HW1 1106   0.367   0.261   0.850 -0.1437 -2.2068  0.9861
  369SOL    HW2 1107   0.417   0.210   0.696  3.1613  0.6024 -5.3512
  370SOL     OW 1108   0.696   0.394   0.939 -0.0538  0.0532 -0.1288
  370SOL    HW1 1109   0.600   0.385   0.958 -0.1498 -1.8236 -0.6062
  370SOL    HW2 1110   0.714   0.382   0.842 -0.6846  2.9126 -0.5205
  371SOL     OW 1111   2.325   1.616   0.111 -0.1406  0.3871 -0.5847
  371SOL    HW1 1112   2.285   1.627   0.203  0.0791 -1.6347  3.0431
  371SOL    HW2 1113   2.426   1.615   0.127  0.0590 -2.8508 -1.3173
  372SOL     OW 1114   0.215   0.781   2.636 -0.3217 -0.6663 -0.0383
  372SOL    HW1 1115   0.176   0.787   2.733 -2.8582  0.6916 -0.5074
  372SOL    HW2 1116   0.315   0.804   2.644  1.3757 -2.3008  1.0811
  373SOL     OW 1117   2.986   1.047   0.119  0.4091 -0.1119  0.7765
  373SOL    HW1 1118   2.964   1.027   0.213  1.8766 -0.9167 -0.9556
  373SOL    HW2 1119   2.906   1.065   0.057 -0.5736 -2.1472  1.6597
  374SOL     OW 1120   0.514   2.356   2.977 -0.0760  0.0001 -0.0736
  374SOL    HW1 1121   0.432   2.369   3.031  2.6116 -0.3338 -0.0975
  374SOL    HW2 1122   0.552   2.446   2.949  0.7443  0.1177 -2.5348
  375SOL     OW 1123   1.447   0.472   0.237  0.0740 -0.1896 -0.1363
  375SOL    HW1 1124   1.415   0.525   0.155 -1.1480 -1.2308 -1.1891
  375SOL    HW2 1125   1.371   0.402   0.256 -0.2589  0.6705 -0.2782
  376SOL     OW 1126   0.080   2.835   1.927  0.3863 -0.2071  0.0133
  376SOL    HW1 1127   0.035   2.870   2.017 -1.8299 -0.0168 -2.3613
  376SOL    HW2 1128   0.169   2.781   1.943  1.1514 -1.4714  0.4767
  377SOL     OW 1129   2.846   2.114   2.667 -0.0385  0.0194 -0.5891
  377SOL    HW1 1130   2.900   2.192   2.695  0.6924  0.1518  3.0157
  377SOL    HW2 1131   2.900   2.029   2.644 -0.5751 -1.9558 -2.1223
  378SOL     OW 1132   1.594   0.801   0.701 -0.4223 -0.2423 -0.1068
  378SOL    HW1 1133   1.563   0.785   0.607  1.7878  2.0148  3.0285
  378SOL    HW2 1134   1.588   0.900   0.728  0.0401 -2.0786  0.0090
  379SOL     OW 1135   1.281   1.250   0.350 -0.6323  0.2510  0.4534
  379SOL    HW1 1136   1.315   1.338   0.303  3.1742  1.6776 -0.8000
  379SOL    HW2 1137   1.320   1.233   0.438 -1.9730  2.8713 -1.0890
  380SOL     OW 1138   2.159   2.260   2.183 -0.3420 -0.1719 -0.0294
  380SOL    HW1 1139   2.123   2.337   2.233  1.9442  0.0320  0.2938
  380SOL    HW2 1140   2.091   2.202   2.141 -1.8748 -0.2049 -0.5797
  381SOL     OW 1141   0.019   1.073   2.109 -0.0167  0.3549 -0.2481
  381SOL    HW1 1142   0.112   1.102   2.084  0.1134  1.0315  0.3366
  381SOL    HW2 1143   3.115   0.990   2.057  1.8714  0.5774  0.9239
  382SOL     OW 1144   3.017   2.415   0.091  0.3833  0.1700 -0.0076
  382SOL    HW1 1145   2.987   2.407   3.115 -2.2245 -0.2025 -1.9242
  382SOL    HW2 1146   3.099   2.476   0.114  1.1852  1.2711  1.9249
  383SOL     OW 1147   1.551   1.218   2.062  0.2533 -0.3264 -0.4906
  383SOL    HW1 1148   1.528   1.211   1.962 -1.2664 -2.8127 -0.1658
  383SOL    HW2 1149   1.633   1.284   2.082 -0.5584  2.7419 -2.0798
  384SOL     OW 1150   0.928   2.176   2.633  0.3197  0.1093  0.1831
  384SOL    HW1 1151   0.904   2.186   2.531  1.8159 -0.8167 -1.6444
  384SOL    HW2 1152   0.990   2.096   2.656  0.5565  2.0568 -2.6756
  385SOL     OW 1153   2.749   1.922   0.403 -0.3999 -0.0480 -0.2979
  385SOL    HW1 1154   2.746   1.921   0.501  0.8504 -0.7827 -0.0141
  385SOL    HW2 1155   2.738   1.830   0.358 -0.9787 -0.6273 -0.5235
  386SOL     OW 1156   1.311   1.091   0.122  0.6043 -0.3927 -0.3858
  386SOL    HW1 1157   1.363   1.162   0.068  1.4810  0.6977 -2.3505
  386SOL    HW2 1158   1.299   1.128   0.217  1.7897  0.2426 -0.3124
  387SOL     OW 1159   2.951   0.500   1.492  0.4625 -0.2137  0.1527
  387SOL    HW1 1160   3.014   0.578   1.491 -0.0304  0.7913  0.9211
  387SOL    HW2 1161   3.002   0.409   1.481 -0.3689 -2.3456 -0.9059
  388SOL     OW 1162   2.730   0.842   1.309  0.2819 -0.4204  0.1335
  388SOL    HW1 1163   2.807   0.891   1.275 -1.5548 -2.1210 -2.1150
  388SOL    HW2 1164   2.744   0.739   1.294 -0.9097 -1.3097  0.2857
  389SOL     OW 1165   1.667   1.375   2.556 -0.0795  0.2778 -0.0209
  389SOL    HW1 1166   1.607   1.291   2.543  0.7477 -0.8662 -0.4924
  389SOL    HW2 1167   1.608   1.453   2.584 -0.8691  1.0829 -0.7561
  390SOL     OW 1168   1.698   2.237   0.257 -0.2821  0.2370  0.0553
  390SOL    HW1 1169   1.775   2.261   0.316  0.3578 -2.2126  0.4907
  390SOL    HW2 1170   1.693   2.304   0.172  0.6984  3.6735 -3.1556
  391SOL     OW 1171   1.156   2.365   0.961 -0.3634  0.0791 -0.3981
  391SOL    HW1 1172   1.203   2.376   0.871  1.2708 -0.1654  2.4191
  391SOL    HW2 1173   1.060   2.397   0.963 -1.1009  0.3578  0.6793
  392SOL     OW 1174   2.603   2.730   1.565  0.4987 -0.1299 -0.2516
  392SOL    HW1 1175   2.691   2.709   1.519 -0.3283 -2.5284 -1.7066
  392SOL    HW2 1176   2.527   2.703   1.500  1.0748  1.9166 -0.6781
  393SOL     OW 1177   1.926   2.763   2.288 -0.3569  0.2180 -0.5096
  393SOL    HW1 1178   1.931   2.791   2.189 -4.6563 -1.6997  0.1052
  393SOL    HW2 1179   1.826   2.738   2.314 -2.3308  0.4288  0.9515
  394SOL     OW 1180   0.483   2.926   2.370 -0.1975  0.0069 -0.1960
  394SOL    HW1 1181   0.554   2.989   2.336  0.1925 -1.3309  0.3047
  394SOL    HW2 1182   0.386   2.960   2.378  0.9701 -1.7496  2.9726
  395SOL     OW 1183   0.468   1.021   1.369 -0.1078 -0.4535 -0.3021
  395SOL    HW1 1184   0.365   1.023   1.374 -0.7218 -1.2289 -1.0189
  395SOL    HW2 1185   0.498   1.004   1.272 -2.4615  1.7485 -1.2882
  396SOL     OW 1186   2.176   1.142   2.314 -0.0485  0.2370  0.5040
  396SOL    HW1 1187   2.075   1.138   2.322 -1.7535  1.4320  0.7774
  396SOL    HW2 1188   2.225   1.188   2.392  1.4879  0.7457  0.1126
  397SOL     OW 1189   2.892   0.288   2.776  0.0741 -0.4159 -0.3560
  397SOL    HW1 1190   2.989   0.260   2.766  3.9805 -1.8078 -1.9419
  397SOL    HW2 1191   2.859   0.310   2.690  2.7061 -2.2455  1.5356
  398SOL     OW 1192   1.799   2.877   0.507  0.1635 -0.6952  0.3195
  398SOL    HW1 1193   1.884   2.885   0.449 -1.9796  0.6252  0.2234
  398SOL    HW2 1194   1.773   2.968   0.543 -2.8239 -1.2840  0.6221
  399SOL     OW 1195   2.418   2.745   1.958 -0.0507  0.2071  0.2368
  399SOL    HW1 1196   2.382   2.708   2.049 -1.2427  0.4467  1.2082
  399SOL    HW2 1197   2.476   2.826   1.971 -3.0013 -1.4819  0.3665
  400SOL     OW 1198   0.189   2.308   2.216  0.2187 -0.2769  0.0882
  400SOL    HW1 1199   0.180   2.231   2.158 -2.3463  1.8672  2.1251
  400SOL    HW2 1200   0.261   2.370   2.181  0.7444 -0.4714  0.3762
  401SOL     OW 1201   0.564   0.429   0.542 -0.5280  0.2510 -0.5018
  401SOL    HW1 1202   0.494   0.351   0.537 -0.0432 -1.0000 -2.9789
  401SOL    HW2 1203   0.528   0.524   0.521  1.9863  2.8538  1.5278
  402SOL     OW 1204   0.947   2.708   2.172  0.1687 -0.3089  0.0706
  402SOL    HW1 1205   0.988   2.747   2.257 -1.3997  0.7685 -1.0526
  402SOL    HW2 1206   1.005   2.727   2.094  0.4127 -1.0971  0.2792
  403SOL     OW 1207   0.096   1.381   2.153  0.0644 -0.3907  0.1183
  403SOL    HW1 1208   0.168   1.307   2.142  1.7883  1.6547 -1.9270
  403SOL    HW2 1209   0.030   1.362   2.227 -0.8768  0.3614 -0.6089
  404SOL     OW 1210   2.894   2.305   2.384 -0.1868 -0.4488 -0.1952
  404SOL    HW1 1211   2.969   2.239   2.406 -2.2489 -0.0791 -0.8667
  404SOL    HW2 1212   2.808   2.284   2.431  1.3601 -0.9259 -1.8441
  405SOL     OW 1213   2.514   0.224   2.470  0.2314 -0.3340  0.6313
  405SOL    HW1 1214   2.424   0.248   2.515 -1.6249 -2.8965  2.4707
  405SOL    HW2 1215   2.506   0.168   2.383 -0.4523  1.8459 -2.2742
  406SOL     OW 1216   1.386   2.255   0.458 -0.7411 -0.0208  0.5008
  406SOL    HW1 1217   1.357   2.287   0.365 -0.4394  1.2319  0.7422
  406SOL    HW2 1218   1.483   2.251   0.476 -0.4411  1.7032  0.5363
  407SOL     OW 1219   1.842   1.537   0.213 -1.1371 -0.1190  0.5549
  407SOL    HW1 1220   1.835   1.609   0.141  0.4329 -1.8026  1.6938
  407SOL    HW2 1221   1.752   1.488   0.223 -0.6891  0.9941 -0.4913
  408SOL     OW 1222   0.250   0.887   2.199 -0.0884  0.2392 -0.2787
  408SOL    HW1 1223   0.257   0.815   2.126 -0.0074 -3.4509 -1.5422
  408SOL    HW2 1224   0.178   0.863   2.268 -2.9271  1.1899  1.5496
  409SOL     OW 1225   2.801   1.421   2.882  0.3151 -0.1181 -0.1515
  409SOL    HW1 1226   2.878   1.359   2.898  0.8448 -0.3871  0.4000
  409SOL    HW2 1227   2.786   1.438   2.783 -1.1698  1.0942 -0.6955
  410SOL     OW 1228   2.875   1.464   1.132 -0.5934 -0.0696 -0.2159
  410SOL    HW1 1229   2.852   1.486   1.036 -1.7385 -1.5227  1.6370
  410SOL    HW2 1230   2.976   1.464   1.147  1.4731 -2.2342 -0.6315
  411SOL     OW 1231   2.950   0.467   0.372  0.0928 -0.2088 -0.0434
  411SOL    HW1 1232   2.890   0.392   0.346 -1.1681 -1.2613  0.6368
  411SOL    HW2 1233   2.913   0.510   0.457  1.6340 -2.7705  1.8723
  412SOL     OW 1234   1.698   0.057   0.288  0.0197 -0.1662  0.0029
  412SOL    HW1 1235   1.725   0.015   0.378  1.9122 -1.7198 -0.0202
  412SOL    HW2 1236   1.599   0.030   0.274 -2.8349 -1.4391 -1.0088
  413SOL     OW 1237   1.275   0.267   1.816 -0.1095 -0.0422  0.3741
  413SOL    HW1 1238   1.316   0.309   1.898 -2.3059  0.6756 -1.9873
  413SOL    HW2 1239   1.344   0.229   1.754 -3.8579  1.5656  0.0093
  414SOL     OW 1240   0.346   0.718   0.251  0.3190 -0.0201  0.0285
  414SOL    HW1 1241   0.286   0.778   0.307  0.3962  0.2699  0.6716
  414SOL    HW2 1242   0.440   0.733   0.278 -2.6811 -0.2091  1.5387
  415SOL     OW 1243   2.866   1.001   0.385 -0.2054 -0.3701 -0.7037
  415SOL    HW1 1244   2.763   0.993   0.388 -3.2273  0.3137  0.3790
  415SOL    HW2 1245   2.901   1.066   0.453 -1.6319 -0.0192  0.2973
  416SOL     OW 1246   2.359   0.915   0.121  0.4372  0.1514 -0.2821
  416SOL    HW1 1247   2.324   0.851   0.049 -1.1299  0.5806  0.8167
  416SOL    HW2 1248   2.458   0.909   0.114 -0.9415  2.6190 -0.8560
  417SOL     OW 1249   2.760   2.755   0.096 -0.1275 -0.0192  0.3049
  417SOL    HW1 1250   2.856   2.775   0.122 -1.8747  2.5393 -1.1709
  417SOL    HW2 1251   2.746   2.656   0.119 -1.5966  1.2893 -0.5474
  418SOL     OW 1252   2.945   0.619   0.140  0.8538 -0.1921 -0.1674
  418SOL    HW1 1253   2.956   0.543   0.208 -3.3680 -0.2897 -1.1494
  418SOL    HW2 1254   2.849   0.615   0.113  0.2968  1.3459  0.3379
  419SOL     OW 1255   0.810   0.418   0.612  0.3249  0.5921 -0.2637
  419SOL    HW1 1256   0.711   0.422   0.586 -0.4807  3.7230  1.1857
  419SOL    HW2 1257   0.837   0.328   0.645  2.2462  0.2914  1.9276
  420SOL     OW 1258   0.452   0.833   0.783  0.5645 -0.4246  0.4677
  420SOL    HW1 1259   0.376   0.874   0.837  2.1104  2.4252  2.4218
  420SOL    HW2 1260   0.522   0.785   0.841  1.4628 -1.6864  0.2172
  421SOL     OW 1261   0.368   1.755   0.627 -0.1499  0.3073 -0.1255
  421SOL    HW1 1262   0.470   1.780   0.639  1.9785  0.9878  2.3241
  421SOL    HW2 1263   0.308   1.837   0.624  2.0631 -1.6362  1.8210
  422SOL     OW 1264   2.761   0.188   1.746 -0.0608  0.0561 -1.2407
  422SOL    HW1 1265   2.783   0.131   1.829 -1.8444  0.3696 -4.1359
  422SOL    HW2 1266   2.699   0.138   1.688  2.1219 -0.8451  0.8186
  423SOL     OW 1267   1.984   1.928   0.113 -0.3204  0.7711  0.0865
  423SOL    HW1 1268   1.977   1.914   0.212 -0.4518  0.9810 -0.2405
  423SOL    HW2 1269   2.077   1.915   0.071  0.9761 -2.0859  0.1436
  424SOL     OW 1270   1.687   1.701   2.718 -0.1392  0.1090 -0.3472
  424SOL    HW1 1271   1.766   1.748   2.682 -2.9328 -2.7637  2.0602
  424SOL    HW2 1272   1.714   1.653   2.803  0.1159 -1.8146 -0.6645
  425SOL     OW 1273   0.498   3.037   2.059  0.3962 -0.1632 -0.3128
  425SOL    HW1 1274   0.451   2.956   2.086  2.4977  1.7687 -0.1918
  425SOL    HW2 1275   0.428   3.108   2.034 -1.5829 -0.6659  0.7005
  426SOL     OW 1276   2.275   0.005   3.113  0.2746  0.1670 -0.2159
  426SOL    HW1 1277   2.193   0.002   0.052  0.6870 -0.0699 -1.5287
  426SOL    HW2 1278   2.245   3.121   3.016 -0.0379  0.2540  1.1594
  427SOL     OW 1279   0.488   1.605   2.307 -0.0380 -0.2920  0.4923
  427SOL    HW1 1280   0.577   1.655   2.304 -2.5241 -2.2790 -2.5264
  427SOL    HW2 1281   0.448   1.621   2.401 -1.2663 -1.2261  0.4030
  428SOL     OW 1282   2.130   1.473   2.576 -0.1498  0.1399 -0.4838
  428SOL    HW1 1283   2.055   1.487   2.507  0.2586 -1.0145 -1.2342
  428SOL    HW2 1284   2.167   1.380   2.571 -1.0145  1.3841 -1.4232
  429SOL     OW 1285   2.635   2.800   0.725 -0.0046 -0.0087 -0.0145
  429SOL    HW1 1286   2.722   2.853   0.712 -0.4395  0.1399 -1.1988
  429SOL    HW2 1287   2.568   2.828   0.653 -3.5448  1.6239 -0.8007
  430SOL     OW 1288   1.670   1.810   2.045 -0.2193 -0.2556  0.2964
  430SOL    HW1 1289   1.702   1.732   1.985  1.7086 -2.3137  1.3255
  430SOL    HW2 1290   1.682   1.904   2.001 -0.1081  3.6688 -1.6430
  431SOL     OW 1291   2.951   1.735   1.985  0.3309 -0.1851  0.0670
  431SOL    HW1 1292   2.930   1.807   2.055 -0.1167  1.5660  2.6507
  431SOL    HW2 1293   2.903   1.759   1.895  0.0359 -1.7867 -1.0582
  432SOL     OW 1294   1.211   2.327   2.391  0.8204  0.1423  0.1379
  432SOL    HW1 1295   1.125   2.268   2.395  0.9660 -0.7841  0.6406
  432SOL    HW2 1296   1.297   2.269   2.404  3.0685 -1.5475  4.3053
  433SOL     OW 1297   1.017   2.919   0.984  0.1259 -0.5878 -0.5621
  433SOL    HW1 1298   1.010   2.938   0.882 -2.0105  1.7999 -1.5977
  433SOL    HW2 1299   1.093   2.858   1.005  1.5021  2.6427 -0.7173
  434SOL     OW 1300   0.415   2.292   2.415 -0.0900  0.0092  0.1953
  434SOL    HW1 1301   0.321   2.310   2.372 -0.9475 -0.3324 -2.1423
  434SOL    HW2 1302   0.487   2.293   2.337  2.0317 -0.0817 -1.1479
  435SOL     OW 1303   0.457   1.242   0.368  0.4672  0.4265  0.6809
  435SOL    HW1 1304   0.362   1.275   0.342 -1.5879 -0.5591 -0.6273
  435SOL    HW2 1305   0.527   1.297   0.330 -0.6495 -1.9008  2.4746
  436SOL     OW 1306   0.523   1.959   1.936  0.0714 -0.4224  0.1405
  436SOL    HW1 1307   0.515   1.885   1.868  1.8180  1.5512  0.0904
  436SOL    HW2 1308   0.574   2.036   1.893 -0.6901  1.9100  1.0688
  437SOL     OW 1309   1.242   0.309   0.311  0.0294  0.0674 -0.1855
  437SOL    HW1 1310   1.302   0.247   0.371  3.5161  1.4716 -0.4086
  437SOL    HW2 1311   1.159   0.259   0.282 -0.8024 -2.2554  0.4711
  438SOL     OW 1312   0.784   1.692   0.801 -0.0187 -0.3813  0.0927
  438SOL    HW1 1313   0.775   1.610   0.740  0.0183 -0.2197 -0.6635
  438SOL    HW2 1314   0.877   1.703   0.835 -2.3529  0.0425  0.6391
  439SOL     OW 1315   1.395   2.325   1.832  0.2029  0.7362 -0.1820
  439SOL    HW1 1316   1.466   2.396   1.845 -2.9121 -1.7347 -0.3817
  439SOL    HW2 1317   1.439   2.232   1.813  0.7970 -1.3782 -3.0831
  440SOL     OW 1318   1.634   0.273   1.316  0.9236 -0.1926  0.2418
  440SOL    HW1 1319   1.647   0.215   1.399  3.2701 -0.8994 -0.9013
  440SOL    HW2 1320   1.717   0.319   1.291 -3.1613 -2.0451 -0.2520
  441SOL     OW 1321   0.605   3.035   1.412  0.2080  0.1414 -0.5459
  441SOL    HW1 1322   0.641   3.113   1.465 -0.3567  0.5057 -1.6615
  441SOL    HW2 1323   0.671   2.957   1.412  1.4655  0.2877 -0.2190
  442SOL     OW 1324   2.360   2.070   0.583  0.1396  0.1248 -0.4244
  442SOL    HW1 1325   2.259   2.058   0.568  1.8326 -1.4278  0.8682
  442SOL    HW2 1326   2.390   2.159   0.549  0.0774 -0.1487  0.3469
  443SOL     OW 1327   2.650   0.529   2.341  0.5618  0.0260  0.1820
  443SOL    HW1 1328   2.700   0.470   2.408  1.6193  0.3132  2.0851
  443SOL    HW2 1329   2.712   0.604   2.302 -0.6058  3.0370 -1.2135
  444SOL     OW 1330   1.881   1.410   2.382 -0.4187  0.2937  0.5901
  444SOL    HW1 1331   1.797   1.402   2.439 -0.3252  0.3901 -2.7275
  444SOL    HW2 1332   1.880   1.330   2.318 -1.5991  0.7874  1.1683
  445SOL     OW 1333   2.656   1.957   1.647 -0.3362 -0.3458  0.0270
  445SOL    HW1 1334   2.643   2.012   1.730 -0.1025  3.3631  0.6788
  445SOL    HW2 1335   2.701   1.873   1.676  0.3087  0.2294  4.0678
  446SOL     OW 1336   0.091   0.825   0.640 -0.3199 -0.2472  0.9570
  446SOL    HW1 1337   0.108   0.727   0.641  0.9541 -0.5651  1.8140
  446SOL    HW2 1338   0.141   0.869   0.561 -0.5295  0.2187 -0.5684
  447SOL     OW 1339   0.562   1.492   0.951 -0.3306 -0.8499  0.1166
  447SOL    HW1 1340   0.600   1.463   0.863 -1.4685  0.5272  1.9657
  447SOL    HW2 1341   0.466   1.529   0.941 -1.8375  0.9533  1.0195
  448SOL     OW 1342   1.205   1.375   1.968 -0.5556 -0.1686 -0.3865
  448SOL    HW1 1343   1.216   1.439   1.885 -0.2129 -0.1277 -1.1718
  448SOL    HW2 1344   1.217   1.275   1.948  0.6210  0.2561  1.2069
  449SOL     OW 1345   0.338   1.478   3.121  0.0130  0.3921  0.0350
  449SOL    HW1 1346   0.373   1.382   3.109 -1.2524 -2.4079 -1.2308
  449SOL    HW2 1347   0.241   1.478   0.030  0.5889  1.0164 -1.4456
  450SOL     OW 1348   2.730   2.346   1.883 -0.2101 -0.0163 -0.0048
  450SOL    HW1 1349   2.695   2.424   1.831  0.4227 -2.8757  3.0804
  450SOL    HW2 1350   2.742   2.375   1.981 -0.1831 -1.9080  0.7506
  451SOL     OW 1351   2.222   0.377   2.225 -0.6772  0.0018 -0.0883
  451SOL    HW1 1352   2.225   0.288   2.266 -1.1845  2.4605 -0.3991
  451SOL    HW2 1353   2.195   0.374   2.125  0.5693 -1.5393  0.7172
  452SOL     OW 1354   0.920   2.997   1.228  0.3683  0.4766 -0.0657
  452SOL    HW1 1355   0.978   2.965   1.148 -1.6966 -1.2481  2.1156
  452SOL    HW2 1356   0.981   3.041   1.297 -1.5261  0.2058 -1.6195
  453SOL     OW 1357   1.025   1.250   1.089 -0.1277  0.4293  0.5649
  453SOL    HW1 1358   1.096   1.270   1.017  0.2590 -0.1365  1.9966
  453SOL    HW2 1359   1.006   1.328   1.147 -0.9421 -1.8596 -2.1019
  454SOL     OW 1360   3.106   1.065   1.033  0.0073  0.0475  0.2911
  454SOL    HW1 1361   0.053   1.121   1.086  1.9262  0.2926  2.4401
  454SOL    HW2 1362   3.089   1.106   0.940 -0.9836  0.0161  0.1265
  455SOL     OW 1363   2.951   2.879   0.363  0.0867 -0.2016 -0.0208
  455SOL    HW1 1364   3.002   2.842   0.280 -0.7892  1.7854 -1.0660
  455SOL    HW2 1365   2.997   2.965   0.393  2.0638  0.1616 -1.0870
  456SOL     OW 1366   2.220   2.417   0.659  0.1675  0.6437  0.2910
  456SOL    HW1 1367   2.168   2.330   0.671  0.8985 -1.3495 -0.2623
  456SOL    HW2 1368   2.301   2.403   0.601 -0.5815  0.9209  0.5370
  457SOL     OW 1369   1.465   0.215   0.030 -0.7580  0.2707  0.3701
  457SOL    HW1 1370   1.466   0.144   0.107 -0.2804  1.9359  1.1901
  457SOL    HW2 1371   1.438   0.305   0.063  1.7021  0.5586  0.8786
  458SOL     OW 1372   2.785   2.681   0.437 -0.1009 -0.4243  0.2205
  458SOL    HW1 1373   2.828   2.773   0.409  2.1728  1.8912 -0.2374
  458SOL    HW2 1374   2.767   2.621   0.351  0.9456  0.7364 -0.5710
  459SOL     OW 1375   2.280   0.253   2.609  0.2109 -0.0662  0.6192
  459SOL    HW1 1376   2.183   0.286   2.629 -1.1412  1.9132 -0.6631
  459SOL    HW2 1377   2.325   0.216   2.691  1.6352  1.2742 -2.3004
  460SOL     OW 1378   3.027   0.114   0.109 -0.1160 -0.2245  0.2582
  460SOL    HW1 1379   3.061   0.211   0.110 -0.2473 -1.4046 -1.5577
  460SOL    HW2 1380   2.968   0.092   0.188  0.6386 -0.8066 -2.1951
  461SOL     OW 1381   0.482   1.626   1.300  0.5908  0.6749  0.0602
  461SOL    HW1 1382   0.395   1.636   1.349  0.9703 -1.3089  0.2313
  461SOL    HW2 1383   0.503   1.524   1.286 -1.1509  2.1535 -1.5670
  462SOL     OW 1384   2.873   2.923   1.535  0.1447  0.1005  0.3430
  462SOL    HW1 1385   2.968   2.888   1.554  2.4129 -4.1782  1.2618
  462SOL    HW2 1386   2.833   2.935   1.627 -1.0505 -2.4638  0.0589
  463SOL     OW 1387   2.758   1.076   3.106 -0.7068  0.0931  0.4555
  463SOL    HW1 1388   2.711   1.165   0.009  1.0500  2.6025 -0.5054
  463SOL    HW2 1389   2.728   1.045   3.010 -2.4901 -0.5237  0.5447
  464SOL     OW 1390   0.109   2.399   1.211  0.0210  0.4926  0.0353
  464SOL    HW1 1391   0.136   2.311   1.169  0.7181 -0.4644 -0.0564
  464SOL    HW2 1392   0.198   2.443   1.226 -1.2998 -0.1540  0.0818
  465SOL     OW 1393   0.394   0.638   0.609 -0.1624 -0.2457 -0.5512
  465SOL    HW1 1394   0.298   0.604   0.595 -0.3210 -0.8291  1.0723
  465SOL    HW2 1395   0.405   0.713   0.677 -0.3297  1.6778 -0.1876
  466SOL     OW 1396   1.287   2.994   2.142 -0.1712 -0.0855 -0.2938
  466SOL    HW1 1397   1.367   2.932   2.153  0.7544 -2.1540  0.6625
  466SOL    HW2 1398   1.251   3.038   2.233 -2.6345  0.6207  2.6161
  467SOL     OW 1399   0.753   0.432   2.391  0.0573  0.2065  0.2742
  467SOL    HW1 1400   0.754   0.385   2.296 -0.5422 -1.7855  1.3027
  467SOL    HW2 1401   0.739   0.532   2.384  0.1640  0.6811  1.3441
  468SOL     OW 1402   0.113   1.116   2.451  0.0759  0.0061  0.3827
  468SOL    HW1 1403   0.139   1.215   2.436  0.1038  2.8969  1.0426
  468SOL    HW2 1404   0.038   1.091   2.388  0.5171  2.6101 -0.6495
  469SOL     OW 1405   0.320   1.602   0.876 -1.2530  0.3287 -0.3468
  469SOL    HW1 1406   0.322   1.660   0.794  1.6803 -0.9667  0.9029
  469SOL    HW2 1407   0.262   1.638   0.947  1.8487 -3.8728 -2.2752
  470SOL     OW 1408   2.744   1.707   2.250 -0.0262 -0.3093  0.3297
  470SOL    HW1 1409   2.683   1.670   2.328 -0.3883 -0.2803  1.0145
  470SOL    HW2 1410   2.737   1.808   2.240  2.1847 -1.2724  2.2467
  471SOL     OW 1411   1.636   0.715   2.296  0.0535 -0.2070  0.3676
  471SOL    HW1 1412   1.730   0.704   2.254  1.7770 -1.4338 -3.1103
  471SOL    HW2 1413   1.636   0.657   2.378  3.1601  3.3823  0.0080
  472SOL     OW 1414   0.860   2.551   1.484 -0.0952  0.3525 -0.5030
  472SOL    HW1 1415   0.810   2.477   1.532  1.5275  0.8457 -1.5308
  472SOL    HW2 1416   0.951   2.508   1.461  0.7069 -0.7406  0.8783
  473SOL     OW 1417   0.520   0.099   2.546  0.2963  0.6298 -0.2959
  473SOL    HW1 1418   0.524   0.198   2.572  0.1326 -2.0816  0.3275
  473SOL    HW2 1419   0.579   0.073   2.467  1.2642  0.6942  2.5565
  474SOL     OW 1420   1.916   0.096   1.220  0.4447 -0.0053  0.4535
  474SOL    HW1 1421   1.942   0.190   1.201 -0.2889 -1.5931 -0.3615
  474SOL    HW2 1422   1.827   0.072   1.179 -2.0245 -0.7730  1.5625
  475SOL     OW 1423   1.782   0.809   0.915 -0.0382 -0.7106 -0.0902
  475SOL    HW1 1424   1.787   0.820   0.815  2.3374 -2.9788  0.2705
  475SOL    HW2 1425   1.691   0.834   0.958 -2.4021 -0.6964  2.0831
  476SOL     OW 1426   0.518   0.745   1.060  0.1639  0.0723 -0.4861
  476SOL    HW1 1427   0.541   0.845   1.075 -0.6585 -0.3473  0.8375
  476SOL    HW2 1428   0.575   0.687   1.124 -0.8948 -0.9017 -0.7273
  477SOL     OW 1429   1.185   2.599   0.279 -0.1853  0.3526  0.3005
  477SOL    HW1 1430   1.114   2.667   0.246 -1.7582 -0.1651 -1.2936
  477SOL    HW2 1431   1.220   2.620   0.372  0.7963 -1.0772 -0.5172
  478SOL     OW 1432   0.392   2.564   2.536 -0.1056  0.1876 -0.5307
  478SOL    HW1 1433   0.471   2.624   2.529 -0.1256  0.4808  1.1143
  478SOL    HW2 1434   0.422   2.469   2.568  2.2931  0.0953 -0.0610
  479SOL     OW 1435   2.624   0.352   1.285  0.3548 -0.3531  0.3227
  479SOL    HW1 1436   2.577   0.394   1.369  1.9189  3.1284  2.7684
  479SOL    HW2 1437   2.555   0.309   1.225  0.3729  0.4852  0.5243
  480SOL     OW 1438   0.371   2.256   0.621 -0.1035 -0.1482 -0.4346
  480SOL    HW1 1439   0.412   2.221   0.535  0.9922 -1.6307 -0.0159
  480SOL    HW2 1440   0.291   2.312   0.599  2.2410  0.3389  2.1902
  481SOL     OW 1441   2.125   1.982   1.556  0.2467  0.1738  0.2275
  481SOL    HW1 1442   2.096   2.074   1.583  1.8271  0.5373 -1.5068
  481SOL    HW2 1443   2.226   1.990   1.531  2.3619  3.1999  1.1094
  482SOL     OW 1444   1.162   2.565   3.007 -0.0450  0.7055  0.1454
  482SOL    HW1 1445   1.245   2.531   2.958 -2.3382 -0.9489  0.3146
  482SOL    HW2 1446   1.104   2.485   3.032  4.8040 -0.9872 -0.1049
  483SOL     OW 1447   1.014   2.127   2.089  0.0594  0.1294 -0.2966
  483SOL    HW1 1448   1.009   2.227   2.076  0.8550 -2.3625 -0.2814
  483SOL    HW2 1449   0.998   2.076   2.005 -1.1770  1.6744  2.3351
  484SOL     OW 1450   1.468   0.528   1.462  0.1840  0.1049  0.4370
  484SOL    HW1 1451   1.518   0.590   1.394  4.4127  2.7333  1.7477
  484SOL    HW2 1452   1.437   0.577   1.544 -1.3082 -0.4594  0.7280
  485SOL     OW 1453   1.692   1.024   2.727  0.0739  0.2161 -0.2555
  485SOL    HW1 1454   1.770   1.081   2.699  1.1916 -1.2739  0.4078
  485SOL    HW2 1455   1.726   0.942   2.775 -1.6470  0.2000 -0.7068
  486SOL     OW 1456   2.260   3.041   1.333  0.4712 -0.2351  0.6928
  486SOL    HW1 1457   2.211   3.039   1.244  0.2450  0.1282 -0.1352
  486SOL    HW2 1458   2.355   3.010   1.317 -0.3988  0.8402  1.4523
  487SOL     OW 1459   0.609   1.998   1.297  0.1077  0.7333 -0.4265
  487SOL    HW1 1460   0.639   2.095   1.301 -2.3230 -0.1636 -0.9215
  487SOL    HW2 1461   0.512   1.990   1.274 -0.0043  0.3804  0.5882
  488SOL     OW 1462   2.341   2.085   0.093 -0.3180  0.0316  0.1871
  488SOL    HW1 1463   2.433   2.085   0.139 -0.7828  0.5037  2.0718
  488SOL    HW2 1464   2.333   2.139   0.003  0.2262 -2.3333 -0.5248
  489SOL     OW 1465   2.037   2.977   0.861 -0.3521  0.1156 -0.0234
  489SOL    HW1 1466   2.075   2.953   0.770  2.1517  0.3080  0.4427
  489SOL    HW2 1467   1.937   2.962   0.850  1.8641  0.0221 -0.4331
  490SOL     OW 1468   0.825   1.712   0.079  0.6021 -0.0948 -0.2256
  490SOL    HW1 1469   0.882   1.768   0.014  0.1345  0.7928 -1.2962
  490SOL    HW2 1470   0.785   1.770   0.150 -1.2292  0.7715  0.9484
  491SOL     OW 1471   0.262   2.026   1.537 -0.0144 -0.3474 -0.1872
  491SOL    HW1 1472   0.165   2.037   1.519  4.4982 -1.0873 -0.0069
  491SOL    HW2 1473   0.305   2.116   1.561  0.0932 -0.9595  0.4548
  492SOL     OW 1474   0.682   1.632   1.760  0.3611  0.0174 -0.6331
  492SOL    HW1 1475   0.724   1.590   1.681 -1.0757  2.2793  0.9965
  492SOL    HW2 1476   0.606   1.702   1.741 -1.4542  1.2244 -2.5354
  493SOL     OW 1477   2.700   1.885   0.878 -0.1797  0.3483  0.2493
  493SOL    HW1 1478   2.671   1.819   0.801 -1.4682  1.9134  1.2442
  493SOL    HW2 1479   2.803   1.884   0.881 -2.6699 -3.1811  0.3892
  494SOL     OW 1480   2.602   1.736   0.654  0.1001 -0.2340 -0.4159
  494SOL    HW1 1481   2.521   1.744   0.589  3.5935 -0.7593  1.5926
  494SOL    HW2 1482   2.677   1.688   0.605 -1.0534  0.5604  0.4559
  495SOL     OW 1483   2.601   2.993   0.184  0.1471 -0.0640  0.2465
  495SOL    HW1 1484   2.640   2.918   0.126  1.1603 -0.1239 -0.0778
  495SOL    HW2 1485   2.587   3.081   0.135 -1.1263  2.0160 -0.9124
  496SOL     OW 1486   2.532   2.962   1.314 -0.2267  0.4913 -0.1144
  496SOL    HW1 1487   2.512   2.871   1.356 -0.5192 -1.8433  0.7349
  496SOL    HW2 1488   2.631   2.984   1.328  1.7113  0.8261 -0.0173
  497SOL     OW 1489   2.474   1.216   2.902  0.5813  0.5835  0.4495
  497SOL    HW1 1490   2.377   1.181   2.903 -2.1038  1.3440 -0.8468
  497SOL    HW2 1491   2.542   1.140   2.896  1.2342 -0.1143 -0.1660
  498SOL     OW 1492   2.941   1.900   1.231  0.2329  0.1709  0.3952
  498SOL    HW1 1493   2.908   1.984   1.274  1.4038 -1.4599 -0.4061
  498SOL    HW2 1494   2.873   1.827   1.233  1.5921  0.3026 -0.9524
  499SOL     OW 1495   0.856   2.422   2.759 -0.1668  0.6735  0.0705
  499SOL    HW1 1496   0.873   2.334   2.709  2.0481 -0.3534 -1.0810
  499SOL    HW2 1497   0.925   2.433   2.833  0.7173 -3.8660  1.5919
  500SOL     OW 1498   1.551   1.477   0.277 -0.3981  0.3975 -0.6910
  500SOL    HW1 1499   1.460   1.476   0.235 -0.7922  0.9124  1.6237
  500SOL    HW2 1500   1.536   1.447   0.372 -0.5361 -1.6328  0.2217
  501SOL     OW 1501   1.720   0.130   1.568  0.0434  0.4553 -0.3417
  501SOL    HW1 1502   1.654   0.133   1.646 -0.8023  1.5898  2.7691
  501SOL    HW2 1503   1.799   0.063   1.585  3.4851 -1.9554 -0.4593
  502SOL     OW 1504   2.652   0.657   1.647 -0.1720 -0.2090 -0.4025
  502SOL    HW1 1505   2.705   0.582   1.692  1.4018  2.6598 -0.6979
  502SOL    HW2 1506   2.613   0.732   1.706  0.5263  1.6218  2.2470
  503SOL     OW 1507   2.371   1.567   2.281  0.2026 -0.1856 -0.4842
  503SOL    HW1 1508   2.277   1.598   2.253  1.0648 -1.1861  3.3619
  503SOL    HW2 1509   2.442   1.586   2.211 -1.6865 -1.9847  1.7051
  504SOL     OW 1510   1.274   1.538   1.750  0.0277  0.1752  0.2973
  504SOL    HW1 1511   1.180   1.573   1.739  0.2549  0.2757  2.6702
  504SOL    HW2 1512   1.338   1.603   1.698  1.5655  2.9988 -1.5361
  505SOL     OW 1513   0.529   0.331   1.619 -0.0530 -0.4944 -0.4067
  505SOL    HW1 1514   0.501   0.393   1.546  0.2350  1.5083 -0.7845
  505SOL    HW2 1515   0.526   0.381   1.711 -1.9325  1.9981  0.1327
  506SOL     OW 1516   0.217   0.111   0.134  0.2238 -0.1880  0.0215
  506SOL    HW1 1517   0.125   0.109   0.168  2.3837  0.0526  2.5368
  506SOL    HW2 1518   0.224   0.166   0.050 -0.6319  1.0743 -0.4848
  507SOL     OW 1519   0.514   2.807   0.149  0.0130  0.4839 -0.0821
  507SOL    HW1 1520   0.499   2.751   0.234 -1.1059 -1.0699  2.8210
  507SOL    HW2 1521   0.423   2.844   0.127 -0.0681  0.6595 -0.0353
  508SOL     OW 1522   1.027   0.586   1.951 -0.1316 -0.2938  0.1084
  508SOL    HW1 1523   0.933   0.546   1.936  0.5484 -2.5358 -0.3972
  508SOL    HW2 1524   1.028   0.616   2.045 -2.8688 -0.4083 -3.1204
  509SOL     OW 1525   1.308   2.148   1.045  0.1423  0.0752 -0.4796
  509SOL    HW1 1526   1.252   2.217   0.998 -0.2339 -0.2393  1.9755
  509SOL    HW2 1527   1.360   2.190   1.122 -0.8067  0.8776 -0.6906
  510SOL     OW 1528   2.862   1.191   1.556  0.2396 -0.2853  0.4019
  510SOL    HW1 1529   2.872   1.217   1.653  0.1660 -0.4024 -0.2891
  510SOL    HW2 1530   2.764   1.171   1.541 -0.3760 -0.5097 -3.0812
  511SOL     OW 1531   1.246   1.900   1.109  0.0334 -0.2479 -0.0897
  511SOL    HW1 1532   1.278   1.983   1.057 -0.0222  1.6979 -2.5644
  511SOL    HW2 1533   1.201   1.841   1.039 -1.3977  0.8127  2.4006
  512SOL     OW 1534   2.951   1.377   0.340 -0.0279 -0.0272  0.1341
  512SOL    HW1 1535   2.933   1.328   0.254  1.7061 -0.6887 -1.5735
  512SOL    HW2 1536   3.033   1.437   0.330  3.5307 -1.4155  1.0650
  513SOL     OW 1537   0.143   1.594   2.739  0.4595 -0.3415 -0.3814
  513SOL    HW1 1538   0.192   1.507   2.728 -1.8293 -0.0384 -1.0658
  513SOL    HW2 1539   0.193   1.635   2.814  0.0634  0.4924  2.2410
  514SOL     OW 1540   2.342   2.437   2.561  0.7800 -0.3083  0.0793
  514SOL    HW1 1541   2.265   2.494   2.600  0.3131  0.0779 -2.1707
  514SOL    HW2 1542   2.310   2.353   2.511  1.5602  0.6422 -0.2331
  515SOL     OW 1543   2.236   0.925   0.573 -0.3970 -0.2146  0.0729
  515SOL    HW1 1544   2.147   0.884   0.600 -1.9445 -1.1010  1.0555
  515SOL    HW2 1545   2.312   0.861   0.600 -2.0203 -4.0668  0.8614
  516SOL     OW 1546   2.779   2.509   0.219  0.2897 -0.6014  0.6003
  516SOL    HW1 1547   2.691   2.463   0.227  1.1075 -0.5844  0.4588
  516SOL    HW2 1548   2.852   2.462   0.160  0.2303  0.0023  0.1685
  517SOL     OW 1549   0.583   1.261   2.950  0.5501  0.2401 -0.1325
  517SOL    HW1 1550   0.612   1.354   2.981  0.2684 -2.5341 -2.5180
  517SOL    HW2 1551   0.565   1.198   3.027 -0.1873  0.0746 -1.5541
  518SOL     OW 1552   2.948   0.288   2.124 -0.1438 -0.1015 -0.3430
  518SOL    HW1 1553   2.845   0.272   2.133 -2.7134 -0.9081 -0.1125
  518SOL    HW2 1554   2.972   0.362   2.058 -1.7959  0.9669  1.6119
  519SOL     OW 1555   1.713   1.009   3.081  0.3784 -0.1998  0.1593
  519SOL    HW1 1556   1.620   1.001   3.038  3.6131  0.0169 -2.1250
  519SOL    HW2 1557   1.718   0.961   0.054  1.2812 -1.1038  2.2878
  520SOL     OW 1558   2.934   2.976   2.393 -0.0090 -0.1538  0.1289
  520SOL    HW1 1559   2.866   3.044   2.360  0.4338  0.7076 -1.5962
  520SOL    HW2 1560   2.895   2.914   2.466 -2.1566 -2.2696  3.6303
  521SOL     OW 1561   0.361   1.869   2.419  0.3710  0.0106 -0.5733
  521SOL    HW1 1562   0.418   1.902   2.349 -1.3982 -0.3691  2.7278
  521SOL    HW2 1563   0.377   1.915   2.506  0.0314  0.6851 -0.5029
  522SOL     OW 1564   1.248   2.877   1.770  0.2048 -0.3592 -0.2550
  522SOL    HW1 1565   1.248   2.963   1.820 -0.1856  2.2531  0.2007
  522SOL    HW2 1566   1.266   2.799   1.834 -0.6887 -0.0314 -2.0084
  523SOL     OW 1567   2.257   2.111   0.947 -0.2000  0.2120  0.6484
  523SOL    HW1 1568   2.356   2.098   0.931  1.5298 -1.6914 -2.4944
  523SOL    HW2 1569   2.247   2.172   1.029 -0.5159 -1.5600  0.9397
  524SOL     OW 1570   1.206   2.142   0.652 -0.2293 -0.3757 -0.3525
  524SOL    HW1 1571   1.271   2.183   0.587  0.1385 -2.2556  1.7231
  524SOL    HW2 1572   1.122   2.199   0.652  0.0566 -3.1972  1.9106
  525SOL     OW 1573   2.646   0.452   0.618 -0.1651  0.1147  0.0511
  525SOL    HW1 1574   2.625   0.460   0.722 -2.3125 -0.6969  4.5827
  525SOL    HW2 1575   2.732   0.505   0.594 -2.0972 -3.6071  0.1321
  526SOL     OW 1576   1.426   2.761   0.417 -0.0908  0.1649  0.1730
  526SOL    HW1 1577   1.511   2.699   0.431  0.7466 -3.2449  0.4192
  526SOL    HW2 1578   1.417   2.787   0.318  0.8398  0.5713  1.6147
  527SOL     OW 1579   1.903   1.716   1.033 -0.5489  0.1390 -0.1739
  527SOL    HW1 1580   1.846   1.725   1.116  0.6518 -2.4506 -0.0347
  527SOL    HW2 1581   1.997   1.757   1.043  1.0470  1.6220 -0.0779
  528SOL     OW 1582   2.919   2.691   2.712  0.3685  0.1758  0.1272
  528SOL    HW1 1583   2.956   2.612   2.660  1.3838 -0.5151  0.8098
  528SOL    HW2 1584   2.840   2.735   2.667  0.1095 -2.6449 -0.6272
  529SOL     OW 1585   1.000   1.361   2.502 -0.0206 -0.5804  0.0362
  529SOL    HW1 1586   1.017   1.335   2.598 -1.0740  0.6476 -1.6741
  529SOL    HW2 1587   0.905   1.393   2.498  3.3560  2.1208 -0.3758
  530SOL     OW 1588   1.908   1.102   2.307  0.8654  0.6138 -0.5889
  530SOL    HW1 1589   1.827   1.070   2.256 -1.4020 -0.0271 -1.4039
  530SOL    HW2 1590   1.914   1.067   2.402  2.6345  0.1010 -2.4445
  531SOL     OW 1591   0.280   0.742   3.113  0.0206  0.0626  0.1703
  531SOL    HW1 1592   0.312   0.726   0.088  1.1170  0.8181  0.2434
  531SOL    HW2 1593   0.186   0.708   3.098 -0.1530  0.4113  1.0187
  532SOL     OW 1594   1.582   1.311   0.523  0.4964 -0.1092  0.2030
  532SOL    HW1 1595   1.606   1.231   0.583  0.2043 -0.3963  1.2035
  532SOL    HW2 1596   1.526   1.379   0.578  1.2703  3.2349  0.2156
  533SOL     OW 1597   0.166   0.355   2.583  0.6883  0.2686  0.0017
  533SOL    HW1 1598   0.195   0.293   2.509 -0.4932  2.4699 -0.1269
  533SOL    HW2 1599   0.244   0.425   2.602  1.1184  2.0001  0.1035
  534SOL     OW 1600   1.072   0.608   2.663  0.4099  0.0247 -0.6248
  534SOL    HW1 1601   1.008   0.561   2.727 -4.0148 -0.9863 -1.8825
  534SOL    HW2 1602   1.063   0.710   2.663 -2.0797  1.1529 -0.5071
  535SOL     OW 1603   0.518   0.446   0.104 -0.4273 -0.0301  0.0175
  535SOL    HW1 1604   0.589   0.511   0.145  0.2402  1.2784 -2.8730
  535SOL    HW2 1605   0.493   0.484   0.012 -2.1405  1.3559 -1.4826
  536SOL     OW 1606   0.780   0.728   2.929 -0.2718 -0.2392 -0.3258
  536SOL    HW1 1607   0.753   0.820   2.889  0.6869  3.1138  0.5280
  536SOL    HW2 1608   0.865   0.741   2.980  0.6944 -1.6893 -0.4568
  537SOL     OW 1609   1.373   3.080   1.602  0.1260  0.4836 -0.1447
  537SOL    HW1 1610   1.333   3.006   1.662 -1.7777 -1.4516  4.5732
  537SOL    HW2 1611   1.425   0.025   1.656 -0.7533  1.4899  0.4565
  538SOL     OW 1612   0.664   2.574   0.063  0.1047 -0.4070 -0.1814
  538SOL    HW1 1613   0.610   2.659   0.093 -1.5957  0.3187  1.4053
  538SOL    HW2 1614   0.737   2.599   3.116 -2.6369 -0.7143 -0.9946
  539SOL     OW 1615   2.881   1.303   1.789 -0.2676  0.6673 -0.1476
  539SOL    HW1 1616   2.800   1.270   1.845  2.4749 -2.8544  1.8531
  539SOL    HW2 1617   2.940   1.365   1.845 -0.5202  0.5403 -0.4417
  540SOL     OW 1618   1.765   1.732   1.262 -0.0670  0.3486 -0.2526
  540SOL    HW1 1619   1.749   1.652   1.324 -1.2053 -2.0721 -2.8026
  540SOL    HW2 1620   1.833   1.794   1.307  1.3509 -1.6544  0.9885
  541SOL     OW 1621   0.498   1.812   1.716 -0.1878  0.3126  0.1471
  541SOL    HW1 1622   0.543   1.871   1.643  1.4460  0.5285 -0.2453
  541SOL    HW2 1623   0.405   1.786   1.692 -0.4855  1.1208 -0.9980
  542SOL     OW 1624   1.802   1.265   1.806 -0.1302 -0.0958  0.4502
  542SOL    HW1 1625   1.745   1.299   1.728 -0.8688 -4.0122 -1.3246
  542SOL    HW2 1626   1.790   1.167   1.814 -0.4834  3.5476 -2.9002
  543SOL     OW 1627   1.175   0.411   0.849  0.8262  0.2052  0.0635
  543SOL    HW1 1628   1.130   0.396   0.939  0.6764  0.7657  3.0278
  543SOL    HW2 1629   1.138   0.488   0.795 -0.0510  0.8610 -0.3347
  544SOL     OW 1630   1.801   1.603   1.855 -0.0242 -0.2003  0.1043
  544SOL    HW1 1631   1.900   1.607   1.866  0.7497 -1.0239  1.9624
  544SOL    HW2 1632   1.762   1.510   1.867  0.1369 -0.1353  0.5190
  545SOL     OW 1633   1.583   1.773   1.025 -0.0618 -0.1603  0.0473
  545SOL    HW1 1634   1.554   1.868   1.039 -1.0325 -3.8121  1.0685
  545SOL    HW2 1635   1.662   1.760   1.092  2.5438  1.2792  2.9496
  546SOL     OW 1636   0.254   0.011   2.939  0.3047  0.0692 -0.2792
  546SOL    HW1 1637   0.272   0.023   2.837  1.0134  0.4160 -1.2787
  546SOL    HW2 1638   0.283   0.092   2.986 -1.2560 -1.4554 -2.0077
  547SOL     OW 1639   2.273   0.752   3.062 -0.2030 -0.6079 -0.5786
  547SOL    HW1 1640   2.182   0.786   3.041  2.0704 -1.3332  1.4438
  547SOL    HW2 1641   2.278   0.685   0.020  4.4458 -0.9134 -0.7135
  548SOL     OW 1642   2.365   1.937   2.342 -0.2484  0.5022 -0.2295
  548SOL    HW1 1643   2.420   1.940   2.260 -1.5624  0.8144 -1.4163
  548SOL    HW2 1644   2.384   1.856   2.401 -2.1267  1.4772  0.1823
  549SOL     OW 1645   2.419   2.854   0.901  0.3652  0.1628 -0.6990
  549SOL    HW1 1646   2.391   2.795   0.978 -0.4640 -0.3159 -2.1867
  549SOL    HW2 1647   2.490   2.811   0.843  1.0085  3.2837 -0.3061
  550SOL     OW 1648   2.213   1.421   3.031  0.1593 -0.0331  0.3002
  550SOL    HW1 1649   2.225   1.330   3.078 -1.8297 -1.5364 -0.2103
  550SOL    HW2 1650   2.273   1.493   3.074 -2.1561  0.2443 -1.3545
  551SOL     OW 1651   1.509   0.113   1.799 -0.0039  0.7451 -0.1784
  551SOL    HW1 1652   1.560   0.188   1.847  0.7497 -2.2006 -1.6798
  551SOL    HW2 1653   1.534   0.023   1.842  1.8773  2.0821  1.2186
  552SOL     OW 1654   2.956   2.393   2.931  0.0826 -0.3953 -0.0815
  552SOL    HW1 1655   2.991   2.373   2.838 -2.7888  0.4695  1.1054
  552SOL    HW2 1656   2.900   2.481   2.929 -1.5830  0.8945  2.3215
  553SOL     OW 1657   0.668   0.032   0.859 -0.1235  0.0373  0.1757
  553SOL    HW1 1658   0.675   0.002   0.952  0.3706  2.6189 -1.7603
  553SOL    HW2 1659   0.596   0.104   0.855  0.0716  1.4748  0.2808
  554SOL     OW 1660   2.011   2.241   1.619 -0.2080 -0.3056  0.3962
  554SOL    HW1 1661   1.923   2.255   1.569 -1.2723 -1.2941 -2.2120
  554SOL    HW2 1662   2.031   2.329   1.667 -1.6682 -0.5361  1.9737
  555SOL     OW 1663   1.360   2.170   1.482 -0.6674  0.0871 -0.0874
  555SOL    HW1 1664   1.413   2.231   1.545 -1.4700  0.6510  3.4460
  555SOL    HW2 1665   1.288   2.120   1.531  0.5054 -1.0296 -1.2698
  556SOL     OW 1666   1.943   1.635   0.466  0.2446  0.9152  0.0725
  556SOL    HW1 1667   1.907   1.580   0.542 -2.3750  3.2916  0.9175
  556SOL    HW2 1668   1.939   1.582   0.379 -0.3999  1.1166  0.8147
  557SOL     OW 1669   1.447   2.326   2.130  0.4183 -0.3493 -0.0234
  557SOL    HW1 1670   1.435   2.306   2.033  1.5797 -2.2003  1.3675
  557SOL    HW2 1671   1.406   2.249   2.182 -1.2513  1.7756 -1.7304
  558SOL     OW 1672   2.999   0.497   1.951  0.3386 -0.3402 -0.6470
  558SOL    HW1 1673   3.080   0.546   1.928  0.4720 -0.7590  1.7003
  558SOL    HW2 1674   2.950   0.475   1.862 -2.0425 -2.2571 -0.0535
  559SOL     OW 1675   2.578   2.903   1.747 -0.2075  0.7417  0.6154
  559SOL    HW1 1676   2.574   2.821   1.682 -1.5802 -2.8649 -1.3574
  559SOL    HW2 1677   2.669   2.917   1.786 -1.1270  0.8612  0.3306
  560SOL     OW 1678   0.772   3.099   0.024 -0.1275 -0.0612 -0.0188
  560SOL    HW1 1679   0.712   3.061   3.070 -1.3006  1.8918 -0.9712
  560SOL    HW2 1680   0.766   3.056   0.116  1.5071 -1.8936 -0.9265
  561SOL     OW 1681   1.262   0.873   0.605  0.2020  0.4188  0.2371
  561SOL    HW1 1682   1.169   0.868   0.559 -1.8063  3.2802 -0.8823
  561SOL    HW2 1683   1.325   0.800   0.574 -0.5870 -0.1866 -0.8252
  562SOL     OW 1684   0.840   0.887   2.480 -0.3020  0.3193 -0.0923
  562SOL    HW1 1685   0.789   0.904   2.562  1.1240 -0.2836 -1.5964
  562SOL    HW2 1686   0.942   0.880   2.495 -1.2793 -0.5578  0.0190
  563SOL     OW 1687   2.101   2.530   2.638  0.2651  0.8929  0.1545
  563SOL    HW1 1688   2.103   2.456   2.567  0.3238  0.0844  0.3620
  563SOL    HW2 1689   2.007   2.573   2.633  0.0450 -0.5769 -0.5390
  564SOL     OW 1690   0.097   1.507   0.360 -0.0223 -0.7767  0.3565
  564SOL    HW1 1691   0.187   1.499   0.408  0.3694 -1.0952  1.8859
  564SOL    HW2 1692   0.101   1.476   0.262  0.8393 -0.9275  0.2465
  565SOL     OW 1693   1.569   3.056   2.762 -0.2668  0.6834  0.3117
  565SOL    HW1 1694   1.542   3.077   2.663 -0.0560 -0.2799 -2.0147
  565SOL    HW2 1695   1.506   3.099   2.829 -0.4099 -2.5345 -1.0757
  566SOL     OW 1696   1.937   2.890   2.689 -0.0082 -0.1684  0.1189
  566SOL    HW1 1697   1.966   2.923   2.594  0.1171  0.4537 -1.6869
  566SOL    HW2 1698   1.944   2.959   2.761  1.1475 -1.0810  0.2204
  567SOL     OW 1699   2.441   1.281   0.827 -0.1438 -0.1843  0.0561
  567SOL    HW1 1700   2.395   1.291   0.921 -0.2671  0.0713  0.9696
  567SOL    HW2 1701   2.429   1.366   0.774 -0.2505 -0.5222  1.4325
  568SOL     OW 1702   2.041   1.495   2.846 -0.0227  0.2027 -0.1037
  568SOL    HW1 1703   2.087   1.501   2.753  0.9977  2.3988 -1.1161
  568SOL    HW2 1704   2.103   1.486   2.933  0.3548  0.6888  2.9664
  569SOL     OW 1705   2.223   1.888   2.703  0.0532 -0.5454  0.0444
  569SOL    HW1 1706   2.282   1.816   2.667  0.5135  1.7616  1.6784
  569SOL    HW2 1707   2.178   1.861   2.792 -2.5449 -2.3097  0.7779
  570SOL     OW 1708   0.044   2.501   2.106 -0.1086  0.2693 -0.0273
  570SOL    HW1 1709   0.082   2.418   2.141 -2.5345  0.6434 -1.0643
  570SOL    HW2 1710   0.047   2.496   2.001  0.1574  0.0796 -1.5572
  571SOL     OW 1711   0.331   0.214   2.387 -0.0846  0.8260 -0.3311
  571SOL    HW1 1712   0.398   0.173   2.457  4.2125 -1.0260  0.1520
  571SOL    HW2 1713   0.380   0.240   2.305 -1.4682 -0.2779  2.0255
  572SOL     OW 1714   1.068   1.719   0.825  0.4411 -0.2055 -0.2780
  572SOL    HW1 1715   1.153   1.691   0.873  0.4577 -0.5360 -1.2434
  572SOL    HW2 1716   1.075   1.700   0.723 -0.1802  2.1483  1.9527
  573SOL     OW 1717   0.967   0.224   0.232  0.5795 -0.2143 -0.1429
  573SOL    HW1 1718   0.960   0.327   0.249 -0.8055  1.0912 -2.0003
  573SOL    HW2 1719   0.926   0.167   0.307  1.1136 -1.5366 -0.3155
  574SOL     OW 1720   0.610   2.979   0.644  0.2095  0.4136  0.0178
  574SOL    HW1 1721   0.621   3.029   0.556  0.6848 -0.3710  0.8152
  574SOL    HW2 1722   0.634   3.041   0.719  0.6640 -2.4018 -0.8808
  575SOL     OW 1723   0.105   1.435   1.676 -0.3943 -0.6830  0.3463
  575SOL    HW1 1724   0.075   1.463   1.765 -0.5355 -1.3179 -0.3426
  575SOL    HW2 1725   0.208   1.424   1.674  1.6930 -1.4082 -0.5985
  576SOL     OW 1726   2.093   0.602   1.762  0.3793  0.4227  0.0022
  576SOL    HW1 1727   2.143   0.600   1.668  1.6259 -2.9685 -1.0703
  576SOL    HW2 1728   2.147   0.663   1.823  0.9655 -0.5933 -1.8747
  577SOL     OW 1729   2.714   1.367   2.004  0.2701 -0.4890  0.2531
  577SOL    HW1 1730   2.764   1.335   2.085  1.4989 -0.8097 -0.7005
  577SOL    HW2 1731   2.754   1.455   1.969  0.0645  1.7961 -0.4690
  578SOL     OW 1732   1.535   2.816   2.125  0.0104  0.5110 -0.6025
  578SOL    HW1 1733   1.505   2.722   2.113  3.5010  3.4545  1.5594
  578SOL    HW2 1734   1.594   2.829   2.206  0.5821 -1.1912 -2.9790
  579SOL     OW 1735   1.884   2.076   2.157 -0.8429 -0.1263 -0.1913
  579SOL    HW1 1736   1.920   2.027   2.076 -1.3286 -0.7683 -2.6736
  579SOL    HW2 1737   1.913   2.030   2.243 -0.6929 -0.8347 -0.9964
  580SOL     OW 1738   1.828   1.350   2.073  0.5102  0.1600  0.5476
  580SOL    HW1 1739   1.826   1.311   1.978 -0.7735  0.2968 -3.4465
  580SOL    HW2 1740   1.924   1.344   2.110  0.9671 -0.9035 -0.2411
  581SOL     OW 1741   1.458   1.322   2.313 -0.2510  0.0798  0.1399
  581SOL    HW1 1742   1.472   1.292   2.217 -2.2298  2.5432  2.4983
  581SOL    HW2 1743   1.493   1.250   2.377 -0.8732  2.2544  0.0578
  582SOL     OW 1744   0.170   2.111   2.013  0.0334  0.0875  0.6898
  582SOL    HW1 1745   0.192   2.017   1.978  1.5213 -0.0392 -0.2718
  582SOL    HW2 1746   0.072   2.133   2.006  1.8679  1.5917 -0.3313
  583SOL     OW 1747   1.586   1.067   0.660 -0.2618  0.0896 -0.0498
  583SOL    HW1 1748   1.491   1.081   0.629  1.6306  1.4000 -0.0912
  583SOL    HW2 1749   1.587   1.078   0.761  1.4433  1.1619 -0.7810
  584SOL     OW 1750   0.907   2.414   0.415 -0.4996  0.1967 -0.6797
  584SOL    HW1 1751   0.950   2.503   0.450  1.7471  0.9929  0.3939
  584SOL    HW2 1752   0.921   2.336   0.477  1.7727 -0.3939 -2.4432
  585SOL     OW 1753   0.079   2.591   0.189  0.6040 -0.2126  0.1451
  585SOL    HW1 1754   0.120   2.617   0.279 -0.1276  1.8479 -0.5327
  585SOL    HW2 1755   0.151   2.544   0.132  1.4656 -1.7729  0.3617
  586SOL     OW 1756   2.321   1.185   0.579  0.3125  0.0902 -0.6410
  586SOL    HW1 1757   2.288   1.090   0.585 -0.2711  2.2562  0.5271
  586SOL    HW2 1758   2.350   1.209   0.676  0.8214  0.0514  0.5104
  587SOL     OW 1759   0.696   1.508   3.048 -0.4103  0.1051  0.6915
  587SOL    HW1 1760   0.781   1.498   2.998 -2.2364 -0.4090  2.5147
  587SOL    HW2 1761   0.700   1.591   3.104  1.5340  0.8987 -2.6102
  588SOL     OW 1762   0.117   0.182   0.819  0.2670  0.4680  0.7458
  588SOL    HW1 1763   0.098   0.163   0.719 -0.7128  1.7658 -2.8975
  588SOL    HW2 1764   0.163   0.268   0.833 -3.2428 -2.8133 -1.5608
  589SOL     OW 1765   1.424   3.049   0.754  0.0086  0.7137  0.3861
  589SOL    HW1 1766   1.496   3.026   0.822 -0.3389  0.5370  0.9781
  589SOL    HW2 1767   1.386   0.015   0.768  2.4659 -0.7667 -0.4666
  590SOL     OW 1768   2.471   2.332   0.527  0.4205  0.5954  0.2015
  590SOL    HW1 1769   2.522   2.414   0.557 -1.2005 -0.8591 -1.5529
  590SOL    HW2 1770   2.484   2.308   0.430  0.7332  0.4318 -0.6643
  591SOL     OW 1771   0.388   2.456   2.108  0.0509  0.3913  0.0543
  591SOL    HW1 1772   0.383   2.553   2.129  0.3378 -0.4536 -0.8354
  591SOL    HW2 1773   0.486   2.441   2.106  1.5180  0.2043 -1.1691
  592SOL     OW 1774   0.031   1.901   2.382 -0.6081 -0.1318  0.1656
  592SOL    HW1 1775   0.050   1.826   2.314  1.3014  0.6451 -0.6439
  592SOL    HW2 1776   0.114   1.923   2.434  0.4569 -1.6421 -2.5473
  593SOL     OW 1777   1.441   1.393   1.335  0.0466  0.2639 -0.0834
  593SOL    HW1 1778   1.375   1.461   1.377 -1.2538  2.7605 -1.9901
  593SOL    HW2 1779   1.422   1.381   1.234  1.3266 -0.3759 -0.3953
  594SOL     OW 1780   0.366   1.162   2.792  0.4769  0.0892  0.5772
  594SOL    HW1 1781   0.333   1.071   2.818 -0.1279  0.5838 -0.2285
  594SOL    HW2 1782   0.461   1.179   2.820  0.1887 -4.2453 -1.0816
  595SOL     OW 1783   1.427   0.693   0.902  0.1203  0.4578 -0.0899
  595SOL    HW1 1784   1.511   0.734   0.862  1.1715 -3.1689 -0.6341
  595SOL    HW2 1785   1.343   0.748   0.886 -2.5738 -2.4508  1.0862
  596SOL     OW 1786   0.553   1.023   1.107 -0.5382 -0.2384  0.3978
  596SOL    HW1 1787   0.640   1.035   1.055 -0.5074 -1.5091  0.9887
  596SOL    HW2 1788   0.494   1.104   1.093 -1.6885  0.4604  1.1002
  597SOL     OW 1789   0.635   2.262   2.245 -0.0573  0.0291  0.1096
  597SOL    HW1 1790   0.680   2.334   2.306 -0.5171  0.9335  0.5665
  597SOL    HW2 1791   0.634   2.288   2.147  0.6668  0.3368  2.1100
  598SOL     OW 1792   2.341   2.644   2.196 -0.5245 -0.2038 -0.6329
  598SOL    HW1 1793   2.249   2.599   2.213 -1.1215  1.0494 -0.3604
  598SOL    HW2 1794   2.414   2.584   2.229 -1.0085 -1.3454 -0.7483
  599SOL     OW 1795   0.949   1.098   0.365 -0.1664 -0.0224 -0.4112
  599SOL    HW1 1796   0.956   1.141   0.456  0.5526 -1.5662 -2.3672
  599SOL    HW2 1797   0.961   1.160   0.287  0.3732 -0.3925 -0.7064
  600SOL     OW 1798   1.690   0.593   0.262  0.2781 -0.2647  0.3820
  600SOL    HW1 1799   1.605   0.545   0.282 -1.1023  0.6359 -0.4380
  600SOL    HW2 1800   1.740   0.534   0.197  1.0518  0.2522 -0.4224
  601SOL     OW 1801   0.663   0.115   1.594 -0.4011  0.1443  0.0927
  601SOL    HW1 1802   0.677   0.076   1.687 -0.5201 -1.2284 -1.3502
  601SOL    HW2 1803   0.617   0.205   1.606 -0.3463  0.3323 -2.1986
  602SOL     OW 1804   0.373   2.102   0.860 -0.4970  0.4516 -0.6000
  602SOL    HW1 1805   0.441   2.023   0.840  0.2940 -3.4192  0.8255
  602SOL    HW2 1806   0.358   2.156   0.781 -0.8893 -2.7415 -0.1424
  603SOL     OW 1807   0.869   2.802   2.760 -0.5458  0.5718  0.3458
  603SOL    HW1 1808   0.954   2.749   2.748 -1.8758  0.2891 -0.6401
  603SOL    HW2 1809   0.881   2.889   2.709  2.6011 -0.3696  1.0525
  604SOL     OW 1810   0.479   2.195   0.358 -0.2053  0.0067 -0.1476
  604SOL    HW1 1811   0.399   2.163   0.308  0.4880 -1.5822  0.0870
  604SOL    HW2 1812   0.529   2.272   0.308  0.9727  0.8312  0.1340
  605SOL     OW 1813   1.702   1.531   1.433 -0.3675 -0.0373 -0.2375
  605SOL    HW1 1814   1.773   1.465   1.461  0.7465  1.4986  1.3605
  605SOL    HW2 1815   1.627   1.482   1.383 -1.5251 -1.0349 -0.2288
  606SOL     OW 1816   0.819   1.131   2.874  0.5480 -0.1846 -0.3036
  606SOL    HW1 1817   0.861   1.101   2.960 -0.3147  0.1189 -0.9801
  606SOL    HW2 1818   0.730   1.176   2.896  1.1434 -0.5832 -0.2198
  607SOL     OW 1819   1.165   1.077   1.244  0.1535 -0.4086 -0.5862
  607SOL    HW1 1820   1.097   0.998   1.249 -2.6738 -2.6930 -0.2253
  607SOL    HW2 1821   1.134   1.156   1.191  2.5586 -1.5042 -0.3299
  608SOL     OW 1822   3.015   2.133   1.984 -0.3095 -0.5331  0.2000
  608SOL    HW1 1823   2.988   2.078   2.059  1.7743  1.1190 -2.3509
  608SOL    HW2 1824   2.949   2.212   1.973  0.3735 -0.1255  0.1585
  609SOL     OW 1825   2.095   0.233   0.310 -0.4590 -0.5758 -0.0641
  609SOL    HW1 1826   2.188   0.278   0.302 -0.7840  0.8976  1.4843
  609SOL    HW2 1827   2.090   0.146   0.258 -1.1840 -1.4390  0.1002
  610SOL     OW 1828   0.138   2.610   1.584  0.1140 -0.4445  0.2626
  610SOL    HW1 1829   0.192   2.663   1.514 -0.7488  0.2272 -3.3840
  610SOL    HW2 1830   0.102   2.521   1.555 -2.3633  0.3639 -0.4302
  611SOL     OW 1831   1.565   1.730   0.492 -0.2877 -0.4227  0.1603
  611SOL    HW1 1832   1.586   1.831   0.474  3.7146  1.2289 -1.0405
  611SOL    HW2 1833   1.548   1.720   0.591  1.9084  2.6009 -0.1627
  612SOL     OW 1834   0.699   0.356   2.136 -0.9120 -0.0901 -0.1441
  612SOL    HW1 1835   0.713   0.432   2.070  0.2087  0.3595 -0.2320
  612SOL    HW2 1836   0.603   0.327   2.135 -2.1972  0.8867 -0.8902
  613SOL     OW 1837   2.520   1.252   0.391  0.4618 -0.1710  0.1770
  613SOL    HW1 1838   2.445   1.222   0.448 -0.5474  1.2909  2.0276
  613SOL    HW2 1839   2.557   1.341   0.426 -1.1296  0.8298 -1.5202
  614SOL     OW 1840   2.121   0.410   1.972  0.3559  0.2878 -0.3744
  614SOL    HW1 1841   2.142   0.477   1.904 -3.8714 -3.3996  2.3007
  614SOL    HW2 1842   2.068   0.331   1.932 -0.1332 -0.5666  1.5239
  615SOL     OW 1843   0.948   1.460   1.290  0.6826  0.3550 -0.3726
  615SOL    HW1 1844   1.015   1.536   1.317 -0.3263 -0.2639 -0.3326
  615SOL    HW2 1845   0.870   1.504   1.240 -0.0125 -1.5754  0.7684
  616SOL     OW 1846   1.470   1.933   2.810 -0.1891 -0.0940 -0.3963
  616SOL    HW1 1847   1.462   1.931   2.911  1.0693  0.9713 -1.5663
  616SOL    HW2 1848   1.563   1.919   2.778 -1.6319  3.1230  1.3477
  617SOL     OW 1849   2.062   3.122   0.172  0.3892 -0.0863 -0.1282
  617SOL    HW1 1850   1.971   3.114   0.123 -0.2341 -0.1591 -1.6148
  617SOL    HW2 1851   2.064   3.059   0.253  0.1500 -1.8577  1.3439
  618SOL     OW 1852   0.504   0.769   2.653  0.5125 -0.2021  1.0402
  618SOL    HW1 1853   0.471   0.840   2.583 -2.1930  1.3387 -2.1059
  618SOL    HW2 1854   0.589   0.797   2.703 -1.1194 -1.0974  0.8983
  619SOL     OW 1855   2.795   1.503   0.872  0.3704 -0.3381 -0.2717
  619SOL    HW1 1856   2.748   1.410   0.871 -2.8908  1.1094 -0.5847
  619SOL    HW2 1857   2.805   1.545   0.783 -1.0041 -1.4849  2.6842
  620SOL     OW 1858   2.242   3.112   2.843 -0.3038 -0.2079  0.1521
  620SOL    HW1 1859   2.143   3.106   2.857  0.5273  2.1834 -2.3113
  620SOL    HW2 1860   2.276   3.034   2.785  2.3728 -0.4736 -4.1345
  621SOL     OW 1861   2.390   1.457   2.802 -0.2333  0.1780  0.1825
  621SOL    HW1 1862   2.313   1.467   2.872  3.3013 -2.5215 -0.1603
  621SOL    HW2 1863   2.432   1.363   2.812  1.6259  0.3941  2.2449
  622SOL     OW 1864   1.909   2.805   2.026  0.4377 -0.0550  0.1205
  622SOL    HW1 1865   1.833   2.817   1.965  1.8034 -0.5679  0.1052
  622SOL    HW2 1866   1.985   2.870   1.993 -1.2482  0.9262 -0.8034
  623SOL     OW 1867   1.167   1.949   0.355  0.2189 -0.0743  0.8318
  623SOL    HW1 1868   1.164   2.042   0.402  2.7031 -0.4631  0.1286
  623SOL    HW2 1869   1.136   1.954   0.252 -3.8621  2.3157 -1.9356
  624SOL     OW 1870   0.254   2.942   0.144 -0.2741  0.1934 -0.1908
  624SOL    HW1 1871   0.217   2.892   0.066  1.4373  1.7271 -0.3896
  624SOL    HW2 1872   0.269   3.039   0.125 -1.2607  1.7469 -2.2085
  625SOL     OW 1873   0.652   1.730   0.342  0.3654  0.4804 -0.6660
  625SOL    HW1 1874   0.607   1.756   0.428  0.4896  0.6959 -0.0063
  625SOL    HW2 1875   0.583   1.711   0.268  1.0450  0.7601  0.2721
  626SOL     OW 1876   3.046   2.802   0.115 -0.9263 -0.3497 -0.7833
  626SOL    HW1 1877   3.106   2.720   0.139  0.3222 -0.7317 -0.4836
  626SOL    HW2 1878   3.089   2.873   0.053  0.4759 -0.6727  0.3614
  627SOL     OW 1879   1.081   1.953   2.641  0.8235 -0.7297  0.5240
  627SOL    HW1 1880   1.031   1.910   2.565 -2.2242  1.6791 -3.0962
  627SOL    HW2 1881   1.172   1.908   2.647 -0.1429 -0.7452  0.2386
  628SOL     OW 1882   0.272   0.002   2.673  0.5396 -0.1892  0.0541
  628SOL    HW1 1883   0.354   0.028   2.619  0.2561 -0.3421 -1.1126
  628SOL    HW2 1884   0.190   0.019   2.611 -0.7703  0.3720  0.6020
  629SOL     OW 1885   0.656   0.021   2.266  0.1312 -0.0502  0.2004
  629SOL    HW1 1886   0.749   0.053   2.248  0.4437  0.2327  2.8977
  629SOL    HW2 1887   0.612   3.115   2.182 -0.2593 -1.8768  0.9353
  630SOL     OW 1888   1.462   1.101   1.807  0.0835 -0.7622 -0.2828
  630SOL    HW1 1889   1.527   1.030   1.792  1.1527  0.1915  0.3497
  630SOL    HW2 1890   1.377   1.058   1.841  0.3038  2.3687 -2.2354
  631SOL     OW 1891   2.189   0.979   0.312 -0.1626  0.1544 -0.1060
  631SOL    HW1 1892   2.269   0.945   0.254  0.2801 -0.2802 -1.6051
  631SOL    HW2 1893   2.205   0.948   0.407 -1.7165  0.9483  1.6492
  632SOL     OW 1894   2.283   0.749   1.871  0.4099  0.3577 -0.2626
  632SOL    HW1 1895   2.254   0.775   1.964  0.2688 -0.0636  0.0705
  632SOL    HW2 1896   2.330   0.654   1.875 -0.2861 -3.3317  1.0247
  633SOL     OW 1897   0.624   2.414   0.296 -0.1090  0.1532  0.2572
  633SOL    HW1 1898   0.636   2.444   0.201 -1.2289 -0.3619  0.9299
  633SOL    HW2 1899   0.712   2.404   0.340 -0.2570  1.5712  0.0118
  634SOL     OW 1900   1.656   2.706   2.371 -0.5286 -0.6500 -0.1626
  634SOL    HW1 1901   1.619   2.613   2.360 -0.1433 -0.1733 -0.2899
  634SOL    HW2 1902   1.592   2.777   2.411 -0.1885  0.9926 -0.0230
  635SOL     OW 1903   2.277   0.585   0.147 -0.0512  0.1803 -0.3427
  635SOL    HW1 1904   2.356   0.541   0.194 -0.2441 -0.6912  0.0648
  635SOL    HW2 1905   2.198   0.589   0.214  0.0159  1.8144  3.3884
  636SOL     OW 1906   0.611   1.062   0.714  0.3802 -0.3049  0.0235
  636SOL    HW1 1907   0.535   0.999   0.721 -1.0340 -0.6291 -0.3890
  636SOL    HW2 1908   0.692   1.036   0.771  2.3786 -1.6893 -2.4143
  637SOL     OW 1909   3.050   1.709   0.735 -0.0564  0.0288  0.4524
  637SOL    HW1 1910   3.019   1.748   0.825  1.1280  0.4392 -0.3960
  637SOL    HW2 1911   0.005   1.761   0.695  0.5959  2.3599  0.0664
  638SOL     OW 1912   1.014   0.100   3.112  0.3405 -0.0190 -0.3082
  638SOL    HW1 1913   0.931   0.043   0.013 -1.5954 -0.9971 -0.0134
  638SOL    HW2 1914   1.028   0.167   0.065  0.3889  0.0211  1.4429
  639SOL     OW 1915   1.445   1.837   3.076 -0.0201 -0.1175  0.4083
  639SOL    HW1 1916   1.389   1.750   3.073  2.2625  0.6061  0.7110
  639SOL    HW2 1917   1.525   1.824   0.016 -0.5623  0.3060  0.6367
  640SOL     OW 1918   1.776   2.869   0.817 -0.1323 -0.4624  0.2203
  640SOL    HW1 1919   1.834   2.810   0.883  1.9952  0.3202  2.2957
  640SOL    HW2 1920   1.781   2.833   0.722 -0.2962 -1.2169 -3.5696
  641SOL     OW 1921   0.108   2.687   0.700 -0.0599 -0.2619 -0.3723
  641SOL    HW1 1922   0.066   2.648   0.620 -0.5556 -0.4326  2.1027
  641SOL    HW2 1923   0.207   2.681   0.697 -0.2956 -3.4484 -0.6259
  642SOL     OW 1924   0.913   0.330   1.693 -0.5739 -0.3527 -0.1146
  642SOL    HW1 1925   0.884   0.308   1.600  1.3459 -1.9229  0.0659
  642SOL    HW2 1926   0.999   0.379   1.700 -2.2952 -0.3239 -0.6359
  643SOL     OW 1927   0.571   1.988   2.223 -0.0652 -0.1983  0.2824
  643SOL    HW1 1928   0.611   2.080   2.246 -1.4694 -3.2906  1.6112
  643SOL    HW2 1929   0.549   1.978   2.126  0.3809  0.9536  0.2511
  644SOL     OW 1930   0.699   2.737   0.587 -0.1931  0.0591 -0.3769
  644SOL    HW1 1931   0.660   2.835   0.595 -2.2377  3.2206 -1.5360
  644SOL    HW2 1932   0.690   2.678   0.669 -0.3977  1.1884 -4.5780
  645SOL     OW 1933   1.299   2.069   3.086 -0.2369 -0.5793  0.4278
  645SOL    HW1 1934   1.374   2.136   3.095 -0.8989  0.4580  0.1982
  645SOL    HW2 1935   1.333   1.973   3.082  0.6756  0.2468  1.4305
  646SOL     OW 1936   0.589   1.095   0.068  0.0881 -0.3405 -0.0853
  646SOL    HW1 1937   0.530   1.016   0.090 -1.5405 -0.6987 -0.3469
  646SOL    HW2 1938   0.565   1.170   0.132 -1.7595 -0.9144 -2.4451
  647SOL     OW 1939   1.074   0.061   0.923  0.2615 -0.3549  0.0916
  647SOL    HW1 1940   1.096   0.118   1.002 -3.1943 -0.5783 -2.9112
  647SOL    HW2 1941   1.063   3.086   0.946 -0.3971  1.1521 -0.6788
  648SOL     OW 1942   2.410   0.150   1.470  0.0415  0.6556  0.3334
  648SOL    HW1 1943   2.422   0.153   1.368  1.0227  0.8042 -3.2134
  648SOL    HW2 1944   2.402   0.051   1.497  0.7898 -2.2621 -2.2867
  649SOL     OW 1945   0.691   1.965   2.916 -0.1581 -0.4263 -0.1476
  649SOL    HW1 1946   0.689   1.954   2.815 -1.1443  2.5410 -0.4840
  649SOL    HW2 1947   0.604   1.925   2.953 -3.5819 -1.6624  0.8248
  650SOL     OW 1948   2.844   1.765   1.744  0.3947 -0.1879 -0.1851
  650SOL    HW1 1949   2.769   1.701   1.772  1.6944  1.9378  1.1149
  650SOL    HW2 1950   2.918   1.721   1.688  0.3252  0.4014  1.0656
  651SOL     OW 1951   1.105   3.112   0.396  0.3241 -0.1722 -0.4466
  651SOL    HW1 1952   1.131   3.068   0.306  1.9181  0.5456  1.5953
  651SOL    HW2 1953   1.154   3.064   0.470  0.4181 -0.6634 -1.2822
  652SOL     OW 1954   2.973   1.805   0.139  0.7418 -0.4932  0.1047
  652SOL    HW1 1955   3.010   1.759   0.055  2.0629  1.2043  0.3571
  652SOL    HW2 1956   2.914   1.881   0.109  0.7021 -0.4087  0.4656
  653SOL     OW 1957   0.123   0.056   1.067 -0.0236 -0.1616  0.1725
  653SOL    HW1 1958   0.079   3.089   1.080 -0.5850 -1.5955  1.1609
  653SOL    HW2 1959   0.111   0.094   0.971 -0.2927  2.2483 -0.9198
  654SOL     OW 1960   2.004   0.277   2.621 -0.0191 -0.1718  0.2873
  654SOL    HW1 1961   2.002   0.255   2.721 -2.3855 -0.5508  0.2578
  654SOL    HW2 1962   2.004   0.376   2.609 -0.2957  0.9661  3.8120
  655SOL     OW 1963   0.372   2.508   0.988  0.3481  0.1750 -0.4520
  655SOL    HW1 1964   0.368   2.597   1.033 -0.6644 -1.1573  1.0586
  655SOL    HW2 1965   0.295   2.454   1.021  1.5697  1.7282  2.1989
  656SOL     OW 1966   0.293   0.093   2.003 -0.0325 -0.2693  0.1735
  656SOL    HW1 1967   0.218   0.148   2.051  1.4681 -0.5457  2.4366
  656SOL    HW2 1968   0.301   0.118   1.900 -1.8694 -0.0472 -3.5272
  657SOL     OW 1969   2.365   0.592   2.516  0.2618  0.1683 -0.5407
  657SOL    HW1 1970   2.273   0.605   2.471  0.9487  0.2594 -0.3003
  657SOL    HW2 1971   2.423   0.545   2.447 -1.2281 -3.1414  2.2165
  658SOL     OW 1972   2.141   1.884   1.051 -0.0043 -0.1247 -0.0166
  658SOL    HW1 1973   2.185   1.954   0.990 -1.4680 -0.6786 -2.7153
  658SOL    HW2 1974   2.194   1.873   1.139 -1.5577  1.6782 -1.7793
  659SOL     OW 1975   2.459   0.177   2.805 -0.0852 -0.2699  0.5064
  659SOL    HW1 1976   2.555   0.134   2.798  3.3468 -1.4185 -3.1080
  659SOL    HW2 1977   2.383   0.113   2.826  0.6506  0.8451  0.4385
  660SOL     OW 1978   1.407   1.428   2.763 -0.1607  0.0491  0.1878
  660SOL    HW1 1979   1.412   1.501   2.691 -1.0469 -0.5211 -0.5118
  660SOL    HW2 1980   1.492   1.422   2.821 -0.5507  1.4127 -1.2548
  661SOL     OW 1981   2.486   2.323   0.989  0.7169  0.0121 -0.0851
  661SOL    HW1 1982   2.498   2.247   0.924  1.0585  0.6223  0.3355
  661SOL    HW2 1983   2.575   2.356   1.026 -3.5162  1.4050 -1.0944
  662SOL     OW 1984   0.709   0.627   0.184 -0.0587  0.5615  0.1797
  662SOL    HW1 1985   0.781   0.557   0.212  1.7319  0.5718 -3.8182
  662SOL    HW2 1986   0.658   0.669   0.262 -1.5373  0.0831 -1.7653
  663SOL     OW 1987   1.881   2.165   3.062 -0.0764 -0.1835  0.4527
  663SOL    HW1 1988   1.782   2.188   3.061 -2.3199 -0.7953  1.6759
  663SOL    HW2 1989   1.901   2.090   0.006  1.0879 -2.3638  0.2899
  664SOL     OW 1990   0.690   2.362   1.587 -0.4104 -0.5989 -0.5329
  664SOL    HW1 1991   0.720   2.308   1.506 -0.2962  4.3706  0.0668
  664SOL    HW2 1992   0.598   2.402   1.572  0.4628  2.3496 -0.2599
  665SOL     OW 1993   1.870   2.019   1.843 -0.8094 -0.1479  0.3317
  665SOL    HW1 1994   1.939   1.952   1.809 -0.0787 -1.1777 -0.0580
  665SOL    HW2 1995   1.854   2.091   1.770 -0.8854 -0.4297  1.0076
  666SOL     OW 1996   0.549   2.663   0.377  0.4292  0.2449  0.1384
  666SOL    HW1 1997   0.599   2.695   0.460 -0.3717 -1.9155 -1.2102
  666SOL    HW2 1998   0.589   2.574   0.349  2.8360  0.2469  0.2600
  667SOL     OW 1999   2.076   1.299   1.857  0.0870  0.1613 -0.2373
  667SOL    HW1 2000   1.978   1.287   1.834  0.4196 -0.9713 -0.0863
  667SOL    HW2 2001   2.074   1.317   1.961 -0.8147 -0.4347 -0.2111
  668SOL     OW 2002   0.371   0.513   2.601  0.4755 -0.2023 -0.1547
  668SOL    HW1 2003   0.404   0.609   2.613  1.0701  0.8476 -0.9236
  668SOL    HW2 2004   0.451   0.450   2.579  1.0015 -1.3804  1.0407
  669SOL     OW 2005   1.820   2.316   2.475 -1.2358  0.3207  1.0096
  669SOL    HW1 2006   1.802   2.341   2.567  1.1187 -0.8133 -3.3397
  669SOL    HW2 2007   1.796   2.219   2.463 -1.3224  2.0866 -0.7752
  670SOL     OW 2008   2.392   2.441   0.060 -0.2091  0.5581  0.2589
  670SOL    HW1 2009   2.401   2.532   0.014  0.0799  1.3973  0.9129
  670SOL    HW2 2010   2.370   2.372   3.110 -1.3529  0.6141 -2.3287
  671SOL     OW 2011   0.833   1.067   1.087 -0.1914 -0.0908  0.6471
  671SOL    HW1 2012   0.891   1.150   1.088 -0.3982 -0.1455 -1.4977
  671SOL    HW2 2013   0.870   1.001   1.156 -0.8052  1.3214  1.7581
  672SOL     OW 2014   2.491   1.025   2.477  0.0832 -0.0491  0.3445
  672SOL    HW1 2015   2.441   1.003   2.392  1.1546  0.7004 -1.3892
  672SOL    HW2 2016   2.549   1.110   2.465  3.0198  2.8110 -1.3136
  673SOL     OW 2017   2.784   2.424   2.147  0.0822 -0.1982  0.1967
  673SOL    HW1 2018   2.836   2.366   2.206 -0.0098  1.0264  0.5002
  673SOL    HW2 2019   2.790   2.521   2.169  0.3289 -1.5437 -3.2035
  674SOL     OW 2020   1.225   2.554   2.245 -0.2450  0.4681  0.4919
  674SOL    HW1 2021   1.228   2.467   2.301 -0.1431 -2.3299  1.4795
  674SOL    HW2 2022   1.304   2.564   2.178  0.7722  0.7073  0.2343
  675SOL     OW 2023   0.819   0.768   1.648 -0.2178  0.1697 -0.3583
  675SOL    HW1 2024   0.912   0.735   1.675 -0.0474  0.5653  1.5195
  675SOL    HW2 2025   0.831   0.844   1.581  1.1826  0.1753 -0.3675
  676SOL     OW 2026   1.820   0.934   0.505 -0.2246 -0.5203  0.0076
  676SOL    HW1 2027   1.738   0.982   0.543  2.3221  1.1283  1.2907
  676SOL    HW2 2028   1.847   0.991   0.426 -0.4285  1.6661  0.8609
  677SOL     OW 2029   2.715   1.860   2.625 -0.4868 -0.7467  0.2054
  677SOL    HW1 2030   2.682   1.899   2.711  0.1917 -2.9443 -1.6041
  677SOL    HW2 2031   2.814   1.883   2.600 -0.8980  0.2813 -0.9978
  678SOL     OW 2032   2.857   2.102   1.415  0.2515 -0.8784  0.2292
  678SOL    HW1 2033   2.801   2.191   1.410 -1.7070  2.7509 -0.2022
  678SOL    HW2 2034   2.818   2.047   1.490  1.9372  1.1894  0.0396
  679SOL     OW 2035   1.906   2.627   0.854 -0.9816  0.3948  0.0068
  679SOL    HW1 2036   1.966   2.639   0.772 -0.3145 -0.2756 -1.2536
  679SOL    HW2 2037   1.845   2.546   0.840 -1.4452  0.3386  2.2592
  680SOL     OW 2038   0.613   2.714   2.534 -0.1445  0.1431  0.0008
  680SOL    HW1 2039   0.586   2.800   2.489 -0.9917  1.7909  2.4280
  680SOL    HW2 2040   0.714   2.698   2.520 -0.1183 -1.5396 -0.2231
  681SOL     OW 2041   0.012   1.218   1.493  0.5018 -0.4308 -0.9814
  681SOL    HW1 2042   0.031   1.307   1.537  1.7858  0.0876  0.2935
  681SOL    HW2 2043   3.038   1.213   1.465  1.2823 -1.6696 -1.6742
  682SOL     OW 2044   0.289   2.044   1.276  0.1327 -0.3488  0.9135
  682SOL    HW1 2045   0.300   2.024   1.372 -1.6939  1.3521 -1.7974
  682SOL    HW2 2046   0.327   1.966   1.227  0.3537  1.8501 -1.1124
  683SOL     OW 2047   2.496   1.323   1.176 -0.0773 -0.2102 -0.2393
  683SOL    HW1 2048   2.472   1.404   1.120  1.1113 -2.9709 -0.5362
  683SOL    HW2 2049   2.468   1.343   1.275  0.1336  2.0625  1.1883
  684SOL     OW 2050   2.607   1.573   2.940 -0.5758 -0.0448 -0.4300
  684SOL    HW1 2051   2.687   1.508   2.923 -1.2721 -2.3608 -2.9133
  684SOL    HW2 2052   2.528   1.545   2.886  0.9386 -0.3549  0.0331
  685SOL     OW 2053   1.367   1.323   3.056  0.1664 -0.0190  0.1019
  685SOL    HW1 2054   1.330   1.273   2.980  1.0242  0.7619  0.8738
  685SOL    HW2 2055   1.463   1.343   3.027 -0.2992 -0.2363 -2.3830
  686SOL     OW 2056   0.193   0.199   1.294  0.0198  0.3697  0.7087
  686SOL    HW1 2057   0.263   0.158   1.355 -0.0168  0.8373 -0.4767
  686SOL    HW2 2058   0.179   0.135   1.214  1.1234  0.4622  1.8827
  687SOL     OW 2059   0.957   1.860   2.427  0.2485 -0.0222 -0.1085
  687SOL    HW1 2060   1.052   1.851   2.385  0.5986  1.3356 -0.8223
  687SOL    HW2 2061   0.888   1.829   2.356 -1.4218  0.1717  1.1988
  688SOL     OW 2062   0.405   1.826   1.127  0.2891  0.1113  0.0468
  688SOL    HW1 2063   0.453   1.752   1.187  0.7503 -1.3843  3.0680
  688SOL    HW2 2064   0.460   1.828   1.039  0.8620  0.4736  0.9576
  689SOL     OW 2065   1.640   0.898   1.471 -0.4012  0.0047 -0.4370
  689SOL    HW1 2066   1.619   0.977   1.412 -1.1614  0.2627 -3.0133
  689SOL    HW2 2067   1.634   0.820   1.412  0.1468  1.6326 -0.8931
  690SOL     OW 2068   2.511   0.909   1.047 -0.3100  0.1171  0.1562
  690SOL    HW1 2069   2.493   0.840   0.977 -0.2339 -1.5938  2.5712
  690SOL    HW2 2070   2.602   0.953   1.037 -0.6827  0.9836  0.5044
  691SOL     OW 2071   0.279   2.350   1.889 -0.2601  0.3021 -0.0898
  691SOL    HW1 2072   0.328   2.396   1.964 -1.9416 -1.0208  1.3795
  691SOL    HW2 2073   0.260   2.253   1.921  0.1354  0.0348  2.7955
  692SOL     OW 2074   1.642   3.077   0.912 -0.0038  0.5051 -0.2155
  692SOL    HW1 2075   1.698   3.000   0.870 -1.3737  0.0782 -0.1027
  692SOL    HW2 2076   1.661   3.091   1.011  2.7995  0.5498  1.6472
  693SOL     OW 2077   0.239   1.357   2.390  0.6012 -0.4984 -0.3694
  693SOL    HW1 2078   0.255   1.457   2.409  0.9779 -0.8420 -0.0659
  693SOL    HW2 2079   0.234   1.350   2.288 -0.0810 -1.8067 -1.3936
  694SOL     OW 2080   2.175   0.680   1.053  0.4814 -0.4406 -0.1750
  694SOL    HW1 2081   2.253   0.742   1.063 -1.9553 -2.3316 -0.9871
  694SOL    HW2 2082   2.143   0.640   1.142 -1.4153 -1.0818  0.9412
  695SOL     OW 2083   0.828   1.004   1.498 -0.3304  0.1137 -0.2310
  695SOL    HW1 2084   0.748   1.056   1.528  1.9560  0.6107  1.1404
  695SOL    HW2 2085   0.893   1.078   1.469 -2.0508  0.7398 -1.0333
  696SOL     OW 2086   1.444   0.029   0.244 -0.1001 -0.2206  0.6645
  696SOL    HW1 2087   1.361   3.098   0.236  2.1823  2.0955  0.0785
  696SOL    HW2 2088   1.442   0.085   0.329 -1.2825 -1.3234 -0.5619
  697SOL     OW 2089   0.938   0.363   1.195 -0.7267  0.0166  0.4219
  697SOL    HW1 2090   0.872   0.355   1.119  1.7664  0.2240  2.5252
  697SOL    HW2 2091   1.031   0.327   1.169 -0.6763  1.7676 -0.5840
  698SOL     OW 2092   1.484   1.592   2.571 -0.5844 -0.4277  0.3846
  698SOL    HW1 2093   1.486   1.592   2.470  3.0542 -0.4127  0.1708
  698SOL    HW2 2094   1.559   1.645   2.613  1.2397  1.3487  1.7631
  699SOL     OW 2095   1.337   1.052   1.043 -0.5048 -0.1024 -0.2831
  699SOL    HW1 2096   1.278   1.048   1.119  1.6947  1.6845 -3.4916
  699SOL    HW2 2097   1.290   1.004   0.965 -1.6489  1.9076  0.8520
  700SOL     OW 2098   1.011   2.951   0.705  0.3189  0.0209  0.4679
  700SOL    HW1 2099   0.984   2.878   0.637  2.6434 -2.4541  1.3820
  700SOL    HW2 2100   1.104   2.984   0.682  0.5887 -2.3040 -1.3852
  701SOL     OW 2101   2.741   2.843   2.566 -0.5738  0.1238 -0.0666
  701SOL    HW1 2102   2.662   2.782   2.543 -0.0661  2.2691  1.6776
  701SOL    HW2 2103   2.714   2.940   2.583 -0.0162 -0.4389  3.3363
  702SOL     OW 2104   0.860   0.101   0.461 -0.4058 -0.0919  0.5277
  702SOL    HW1 2105   0.955   0.064   0.447  1.0905  0.1331  2.2209
  702SOL    HW2 2106   0.848   0.126   0.560 -1.2616  2.8072  0.8844
  703SOL     OW 2107   2.476   0.410   2.161 -0.6772  0.6105 -0.5791
  703SOL    HW1 2108   2.376   0.407   2.180  0.9411  1.5351  0.6955
  703SOL    HW2 2109   2.525   0.476   2.219 -2.3343 -1.0819 -0.6625
  704SOL     OW 2110   2.821   1.626   0.559  0.6877  0.2029  0.4942
  704SOL    HW1 2111   2.829   1.598   0.462  4.0187 -0.4606  1.6063
  704SOL    HW2 2112   2.913   1.640   0.605 -0.0412 -0.3625  0.2754
  705SOL     OW 2113   0.010   2.976   2.156  0.1922 -0.0545  0.5786
  705SOL    HW1 2114   0.100   3.011   2.193  2.0789 -2.3971  0.4051
  705SOL    HW2 2115   3.056   2.965   2.222 -2.1193  0.3734  2.5243
  706SOL     OW 2116   2.337   2.540   0.880 -0.5431  0.8297 -0.2173
  706SOL    HW1 2117   2.390   2.461   0.915  2.1396 -0.8341  0.1825
  706SOL    HW2 2118   2.290   2.518   0.793 -3.8350  0.2199 -0.5339
  707SOL     OW 2119   1.136   2.046   1.554 -0.2348 -0.3969  0.4189
  707SOL    HW1 2120   1.089   2.112   1.614  1.0987  3.4723 -0.4714
  707SOL    HW2 2121   1.085   2.039   1.464 -0.7683  0.1523  1.0685
  708SOL     OW 2122   0.060   2.498   1.826 -0.0426  0.2066  0.1029
  708SOL    HW1 2123   0.086   2.553   1.742 -2.0368  0.3321 -0.1809
  708SOL    HW2 2124   0.132   2.428   1.840 -0.3150  0.4821  1.1763
  709SOL     OW 2125   2.262   3.122   2.038 -0.0898  0.1480 -0.2630
  709SOL    HW1 2126   2.176   0.054   2.053  2.0973 -2.5744  1.4141
  709SOL    HW2 2127   2.319   0.043   1.972 -2.1262  0.3847  0.3712
  710SOL     OW 2128   1.932   1.047   2.586 -0.6617 -0.4696  0.0723
  710SOL    HW1 2129   1.982   0.967   2.627  1.5225  1.0377 -0.4019
  710SOL    HW2 2130   1.955   1.128   2.638  2.0706  0.1812  1.4267
  711SOL     OW 2131   0.946   2.385   3.061 -0.2334  0.8314  0.7062
  711SOL    HW1 2132   0.905   2.472   3.045 -1.8597  0.9676 -1.6753
  711SOL    HW2 2133   0.875   2.313   3.073 -1.3075 -0.1135  0.1126
  712SOL     OW 2134   0.609   2.535   2.758 -0.0543 -0.4266  0.0032
  712SOL    HW1 2135   0.693   2.486   2.770 -1.6544 -0.9170  0.1416
  712SOL    HW2 2136   0.615   2.587   2.672 -2.6865 -2.2759  2.5084
  713SOL     OW 2137   1.797   1.567   2.920  0.2975 -0.3027  0.0258
  713SOL    HW1 2138   1.889   1.550   2.878 -4.0501  2.7419 -0.8276
  713SOL    HW2 2139   1.812   1.625   3.005  0.0215 -1.3103 -0.5852
  714SOL     OW 2140   1.009   1.720   1.383 -0.1241  0.0043  0.0871
  714SOL    HW1 2141   1.109   1.730   1.359  1.9043 -1.1475 -0.4841
  714SOL    HW2 2142   0.975   1.792   1.448  1.7093  0.2372  0.8601
  715SOL     OW 2143   1.827   0.448   0.021 -0.5184  0.3540  0.1719
  715SOL    HW1 2144   1.920   0.472   3.110  0.8794 -0.0389  0.7373
  715SOL    HW2 2145   1.829   0.384   0.095 -0.3684  3.5646  0.1657
  716SOL     OW 2146   0.373   2.700   2.240 -0.6804  0.0214 -0.4408
  716SOL    HW1 2147   0.330   2.639   2.310  2.0702  0.3427 -1.4885
  716SOL    HW2 2148   0.416   2.784   2.282 -0.9221 -3.1641 -1.2021
  717SOL     OW 2149   2.974   0.687   1.097 -0.0758  0.6318 -0.1842
  717SOL    HW1 2150   2.923   0.725   1.015 -1.9885 -0.2107 -1.9814
  717SOL    HW2 2151   2.906   0.633   1.150  0.6174  2.1877 -0.2914
  718SOL     OW 2152   0.747   1.444   2.496 -0.1025  0.2627  0.1111
  718SOL    HW1 2153   0.751   1.543   2.487 -1.8766 -0.1898  1.5114
  718SOL    HW2 2154   0.690   1.407   2.421  2.0602  0.0079  0.7615
  719SOL     OW 2155   2.186   1.120   2.909 -0.0743 -0.4746 -0.7501
  719SOL    HW1 2156   2.087   1.153   2.925 -1.9491  0.2971  1.6391
  719SOL    HW2 2157   2.195   1.073   2.820  1.0171 -0.3409  2.4956
  720SOL     OW 2158   0.858   0.633   1.007 -0.2216 -0.0277 -0.3295
  720SOL    HW1 2159   0.903   0.629   1.099 -0.8949 -1.4416  3.5559
  720SOL    HW2 2160   0.771   0.579   1.002  0.6735 -0.3127 -3.1120
  721SOL     OW 2161   2.411   0.069   0.471 -0.1025 -0.3441  0.2466
  721SOL    HW1 2162   2.380   0.039   0.561 -0.3441  2.3949 -0.1678
  721SOL    HW2 2163   2.498   0.026   0.437  3.0786 -0.3082 -1.2360
  722SOL     OW 2164   2.091   0.859   2.731  0.0135  0.4242  0.2254
  722SOL    HW1 2165   2.186   0.894   2.720 -0.5968 -4.0288  0.0254
  722SOL    HW2 2166   2.069   0.836   2.830 -0.6010 -0.0716  2.3258
  723SOL     OW 2167   2.385   0.342   0.613  0.0940 -0.0660  0.3793
  723SOL    HW1 2168   2.487   0.363   0.603  0.4296  4.9983 -2.8352
  723SOL    HW2 2169   2.362   0.257   0.561  0.7368 -0.9867  0.8789
  724SOL     OW 2170   0.845   1.685   1.998 -0.3720  0.1393  0.1682
  724SOL    HW1 2171   0.870   1.592   2.034  1.3156  2.2569 -1.2464
  724SOL    HW2 2172   0.772   1.676   1.923 -2.2830 -0.8979 -0.1094
  725SOL     OW 2173   1.850   0.427   1.256 -0.3106 -0.0936  0.1781
  725SOL    HW1 2174   1.849   0.527   1.231  2.3355 -1.1930  0.3678
  725SOL    HW2 2175   1.920   0.383   1.197  0.3912  0.3556  1.4921
  726SOL     OW 2176   2.026   2.932   0.370  0.1669  0.2417  0.4721
  726SOL    HW1 2177   2.040   2.966   0.465  0.5683 -1.3675  2.3717
  726SOL    HW2 2178   2.098   2.861   0.342  0.3400 -1.7769 -0.3440
  727SOL     OW 2179   1.656   1.705   1.624 -0.7659 -0.2187  0.0426
  727SOL    HW1 2180   1.715   1.682   1.705  0.5318 -0.1401  0.7266
  727SOL    HW2 2181   1.663   1.642   1.547  1.6053  0.9104  1.9178
  728SOL     OW 2182   2.176   2.732   1.548  0.2963 -0.1235 -0.1330
  728SOL    HW1 2183   2.111   2.661   1.512 -1.3255 -1.2116  2.4963
  728SOL    HW2 2184   2.162   2.741   1.648 -1.6675 -2.4057 -2.2253
  729SOL     OW 2185   2.425   1.553   0.787 -0.0234  0.1655  0.2574
  729SOL    HW1 2186   2.338   1.556   0.731  0.4054 -0.8097 -0.8107
  729SOL    HW2 2187   2.501   1.609   0.741  4.2621  2.5469 -2.6545
  730SOL     OW 2188   0.701   0.970   2.692 -0.2058 -0.7489 -0.2336
  730SOL    HW1 2189   0.667   1.030   2.619  1.1054  1.1252  1.1242
  730SOL    HW2 2190   0.757   1.015   2.764  0.1032  0.3444 -0.2910
  731SOL     OW 2191   0.283   3.010   0.903 -0.4265  0.1162 -0.7771
  731SOL    HW1 2192   0.270   3.099   0.948  0.4191 -0.9502  0.6888
  731SOL    HW2 2193   0.369   2.959   0.920 -0.0402 -1.2756 -1.7582
  732SOL     OW 2194   1.477   0.715   0.457 -0.1165  0.1411  0.4665
  732SOL    HW1 2195   1.528   0.720   0.367  2.4945  0.4419 -1.8523
  732SOL    HW2 2196   1.424   0.628   0.460  1.5656  1.1087  0.3714
  733SOL     OW 2197   0.575   1.890   0.907 -0.2129 -0.1461 -0.5957
  733SOL    HW1 2198   0.646   1.947   0.957  3.5344  2.3633  0.1585
  733SOL    HW2 2199   0.623   1.812   0.866  3.2506 -0.0758  1.0029
  734SOL     OW 2200   0.168   2.406   0.474 -0.0733 -0.0877  0.0773
  734SOL    HW1 2201   0.233   2.473   0.434 -0.9046 -3.7415  1.1174
  734SOL    HW2 2202   0.078   2.450   0.484  1.0596 -1.9486 -1.5407
  735SOL     OW 2203   1.172   0.264   1.165 -0.4771 -0.0249 -0.3872
  735SOL    HW1 2204   1.191   0.215   1.249 -0.5124  0.8332  0.7293
  735SOL    HW2 2205   1.260   0.310   1.135  1.4743 -0.4268 -0.4715
  736SOL     OW 2206   1.951   2.607   0.189  0.0814 -0.4067  0.2921
  736SOL    HW1 2207   1.963   2.512   0.149  1.0584  1.3788 -0.7233
  736SOL    HW2 2208   1.917   2.675   0.116 -0.2375  1.2951 -2.6642
  737SOL     OW 2209   0.174   0.911   0.892 -0.0831  0.0173  0.0277
  737SOL    HW1 2210   0.122   0.967   0.960  0.7319  1.0653 -1.7132
  737SOL    HW2 2211   0.112   0.922   0.811  1.0529  4.1130  0.2663
  738SOL     OW 2212   2.851   2.953   1.832  0.5180 -0.8625 -0.0492
  738SOL    HW1 2213   2.881   2.868   1.871 -2.2999  1.8357 -2.6017
  738SOL    HW2 2214   2.878   3.034   1.892  0.2304  2.1587  1.1321
  739SOL     OW 2215   1.374   2.437   2.900  0.5671 -0.5146 -0.5539
  739SOL    HW1 2216   1.397   2.420   2.801  0.5089 -0.9793 -3.1053
  739SOL    HW2 2217   1.363   2.349   2.951 -0.7868  1.1646 -1.9556
  740SOL     OW 2218   1.424   0.331   1.115 -0.3109  0.2049 -0.1391
  740SOL    HW1 2219   1.497   0.339   1.182 -1.3536  0.1950 -0.6794
  740SOL    HW2 2220   1.463   0.268   1.047 -2.8093  1.9174  0.2003
  741SOL     OW 2221   2.862   0.587   0.630 -0.0429 -0.0180 -0.0500
  741SOL    HW1 2222   2.878   0.690   0.616  2.3740  2.5347 -0.0212
  741SOL    HW2 2223   2.928   0.543   0.693  0.7459  2.9756  0.9957
  742SOL     OW 2224   0.712   1.675   2.714  0.2764 -0.0241  0.1901
  742SOL    HW1 2225   0.782   1.635   2.767 -2.9028  0.4500  1.0570
  742SOL    HW2 2226   0.623   1.630   2.737 -3.3652 -0.5302 -2.4152
  743SOL     OW 2227   1.279   0.706   1.934 -0.5897  0.7815 -0.1942
  743SOL    HW1 2228   1.335   0.624   1.960  1.2916  1.2494 -0.7374
  743SOL    HW2 2229   1.185   0.676   1.921  0.6242  0.6956 -0.0554
  744SOL     OW 2230   2.061   0.765   1.354  0.0227  0.5883 -0.7272
  744SOL    HW1 2231   2.122   0.846   1.351 -0.7963 -2.5617  0.5099
  744SOL    HW2 2232   1.987   0.774   1.429 -4.2894  0.9417  1.6064
  745SOL     OW 2233   1.000   1.586   1.664 -0.3807 -0.6200  0.4434
  745SOL    HW1 2234   1.023   1.562   1.567 -2.4974 -2.2846 -1.3410
  745SOL    HW2 2235   0.944   1.511   1.700 -1.7442 -0.8910 -1.5994
  746SOL     OW 2236   2.081   1.756   0.760 -0.2470  0.1235 -0.2024
  746SOL    HW1 2237   2.121   1.789   0.848  1.9635 -1.5725 -0.7414
  746SOL    HW2 2238   2.111   1.659   0.745  1.7586  2.2387  2.6010
  747SOL     OW 2239   2.393   1.572   1.064 -0.1860  0.4261 -0.1714
  747SOL    HW1 2240   2.399   1.560   0.964  2.0552 -1.6392 -0.0646
  747SOL    HW2 2241   2.471   1.628   1.094 -2.4789 -1.4209 -2.1438
  748SOL     OW 2242   0.840   2.024   0.956  0.3929  0.9384  0.0289
  748SOL    HW1 2243   0.831   2.121   0.944 -1.3957  0.9440  2.3054
  748SOL    HW2 2244   0.900   1.986   0.887  2.8166  0.2742  3.2884
  749SOL     OW 2245   2.633   2.904   2.148  0.2513 -0.0080 -0.0507
  749SOL    HW1 2246   2.686   2.814   2.154  0.3741 -0.9853  0.5415
  749SOL    HW2 2247   2.694   2.977   2.189  1.4899  1.7549  0.6131
  750SOL     OW 2248   2.327   0.404   0.871  0.2516 -0.1535  0.3650
  750SOL    HW1 2249   2.371   0.374   0.779 -0.6219 -0.0838 -2.2206
  750SOL    HW2 2250   2.254   0.476   0.855 -0.4651  1.4294 -1.6873
  751SOL     OW 2251   2.394   2.864   0.542 -0.3491  0.0351  0.3424
  751SOL    HW1 2252   2.450   2.922   0.479  0.3797 -0.0068  0.9316
  751SOL    HW2 2253   2.351   2.784   0.494  1.2701 -0.8210  2.6411
  752SOL     OW 2254   0.051   2.938   0.811  0.6648  0.4111  0.0862
  752SOL    HW1 2255   0.065   2.841   0.784 -0.1242 -1.3827  0.6659
  752SOL    HW2 2256   0.142   2.982   0.830 -0.6368  0.6512  1.3136
  753SOL     OW 2257   1.683   1.000   2.171  0.4588 -0.9086 -0.3175
  753SOL    HW1 2258   1.608   1.053   2.127 -0.4063 -3.0386 -0.0557
  753SOL    HW2 2259   1.657   0.914   2.213  1.5012  2.3495 -1.9125
  754SOL     OW 2260   1.703   2.174   1.620  0.2214 -0.6745 -0.4273
  754SOL    HW1 2261   1.655   2.155   1.705  0.9422  0.8319 -1.1157
  754SOL    HW2 2262   1.698   2.096   1.553  0.2429 -0.6818  0.9712
  755SOL     OW 2263   2.498   0.714   0.860  0.0276 -0.1463 -0.5914
  755SOL    HW1 2264   2.538   0.624   0.889 -0.2602 -2.0529 -1.2203
  755SOL    HW2 2265   2.489   0.713   0.758  0.0095  1.0352 -0.2233
  756SOL     OW 2266   0.901   1.524   2.869  0.0202  0.0233 -0.1990
  756SOL    HW1 2267   0.942   1.446   2.825  1.5014  3.3088 -0.1099
  756SOL    HW2 2268   0.975   1.592   2.871 -2.2081  1.2383 -1.5053
  757SOL     OW 2269   1.219   2.754   0.738 -0.0765  0.2285  0.3739
  757SOL    HW1 2270   1.287   2.752   0.811  0.4747  0.6140 -1.2113
  757SOL    HW2 2271   1.253   2.811   0.662  0.2591 -1.5436  1.1449
  758SOL     OW 2272   1.254   2.778   1.504 -0.1007  0.2820 -0.3048
  758SOL    HW1 2273   1.165   2.817   1.532 -0.4408 -2.2008 -0.1991
  758SOL    HW2 2274   1.302   2.741   1.585  2.0337 -0.8531 -1.5528
  759SOL     OW 2275   0.142   0.545   0.589 -0.6330 -0.4842 -0.0094
  759SOL    HW1 2276   0.066   0.536   0.653 -0.8825 -1.9896 -2.2150
  759SOL    HW2 2277   0.118   0.504   0.497 -1.8022 -0.9808 -2.7659
  760SOL     OW 2278   2.347   1.085   1.179  0.3790 -0.5981  0.2218
  760SOL    HW1 2279   2.413   1.020   1.131  0.0065 -1.1740 -2.6930
  760SOL    HW2 2280   2.386   1.181   1.194 -1.9944 -0.4329 -1.9345
  761SOL     OW 2281   1.740   0.288   0.724 -0.7858  0.0367  0.1622
  761SOL    HW1 2282   1.736   0.293   0.623 -2.2380  1.0760  0.9922
  761SOL    HW2 2283   1.833   0.317   0.757  0.0488 -0.3713 -1.1346
  762SOL     OW 2284   2.223   1.859   0.010  0.1887 -0.2379  0.3401
  762SOL    HW1 2285   2.250   1.768   0.054  0.0467  0.8421  0.8743
  762SOL    HW2 2286   2.282   1.932   0.046  2.9196 -2.1604  1.7197
  763SOL     OW 2287   0.690   1.603   1.468  0.2149 -0.3300 -0.2779
  763SOL    HW1 2288   0.767   1.663   1.451  0.5013  1.4033  0.9083
  763SOL    HW2 2289   0.601   1.631   1.424 -4.9879  1.0939  0.0793
  764SOL     OW 2290   2.633   2.195   2.471 -0.0435 -0.5743 -0.1374
  764SOL    HW1 2291   2.534   2.187   2.470  1.3472  0.6235  1.9400
  764SOL    HW2 2292   2.685   2.143   2.549 -0.1767 -3.3675  1.5242
  765SOL     OW 2293   0.589   2.456   1.152  0.2439 -0.3565  0.7253
  765SOL    HW1 2294   0.659   2.526   1.141 -1.0049 -0.4891  1.9231
  765SOL    HW2 2295   0.527   2.444   1.072  2.1536 -2.2776  1.2307
  766SOL     OW 2296   0.012   2.203   2.463 -0.2820  0.3460 -0.0480
  766SOL    HW1 2297   0.054   2.237   2.378  2.0429  1.4515  0.4202
  766SOL    HW2 2298   0.086   2.151   2.513  1.6235  0.1074 -1.1590
  767SOL     OW 2299   2.313   1.004   2.689  0.7231  0.2994  0.6575
  767SOL    HW1 2300   2.363   1.007   2.604 -0.6849  0.4448  0.6482
  767SOL    HW2 2301   2.361   0.945   2.759  1.3791  1.9268  0.6915
  768SOL     OW 2302   1.359   0.351   2.499 -0.0101 -0.2638 -0.3410
  768SOL    HW1 2303   1.299   0.420   2.460  3.3076 -3.9102  2.2597
  768SOL    HW2 2304   1.328   0.317   2.589 -4.1456  0.7457  0.4532
  769SOL     OW 2305   2.994   2.491   1.141 -0.0621  0.0588  0.5198
  769SOL    HW1 2306   3.008   2.556   1.061  1.2148  0.7452 -1.4987
  769SOL    HW2 2307   3.085   2.460   1.178 -0.4945 -0.3734  2.5699
  770SOL     OW 2308   0.629   0.224   3.115  0.0202  0.3944 -0.2721
  770SOL    HW1 2309   0.648   0.305   0.053 -0.2156 -2.5219 -1.2716
  770SOL    HW2 2310   0.675   0.139   0.020  0.5455  2.0159 -1.0818
  771SOL     OW 2311   1.358   1.953   2.432  0.4200 -0.7624  0.2261
  771SOL    HW1 2312   1.287   1.895   2.387  1.9907 -0.8860  0.8437
  771SOL    HW2 2313   1.436   1.898   2.469  0.7378 -0.5699  1.9340
  772SOL     OW 2314   2.046   0.103   2.167  0.4882  0.4667  0.3929
  772SOL    HW1 2315   2.077   0.098   2.265  0.7070  1.4280  2.3980
  772SOL    HW2 2316   1.947   0.118   2.156  1.2743  1.4817 -1.6048
  773SOL     OW 2317   1.637   0.852   1.733  0.3862 -0.2594 -0.3964
  773SOL    HW1 2318   1.639   0.887   1.638 -1.8776 -0.0690  0.6070
  773SOL    HW2 2319   1.666   0.756   1.746 -0.6078  2.6316  1.6386
  774SOL     OW 2320   1.261   0.790   1.362  0.1959  0.0976 -0.0063
  774SOL    HW1 2321   1.319   0.738   1.298 -1.2313 -1.1844 -0.1043
  774SOL    HW2 2322   1.276   0.887   1.363 -0.1409  0.8097  0.2694
  775SOL     OW 2323   2.087   2.835   3.065  0.3412  0.4448 -0.2459
  775SOL    HW1 2324   1.983   2.836   3.066 -0.2281  2.4735 -1.3440
  775SOL    HW2 2325   2.112   2.765   2.992 -2.1529  1.6357  1.1685
  776SOL     OW 2326   1.894   0.824   1.542  0.1527  1.0036 -0.6194
  776SOL    HW1 2327   1.806   0.848   1.499  5.0013 -0.6072  1.2085
  776SOL    HW2 2328   1.885   0.751   1.615  1.6280  0.4526  1.4517
  777SOL     OW 2329   3.041   1.343   2.353  0.6404  0.3837  0.0748
  777SOL    HW1 2330   3.014   1.438   2.350  2.5838 -3.1758  0.4347
  777SOL    HW2 2331   2.964   1.279   2.326 -4.1848 -1.2697  1.9681
  778SOL     OW 2332   2.701   1.230   2.474 -0.2958  0.1188  0.0719
  778SOL    HW1 2333   2.754   1.166   2.533 -0.1778 -0.1688  1.4363
  778SOL    HW2 2334   2.697   1.317   2.520  2.3526  0.8960  0.6880
  779SOL     OW 2335   0.024   0.689   3.025 -0.1468  0.1278 -0.3320
  779SOL    HW1 2336   0.044   0.606   2.969 -1.7380  1.0400  0.1134
  779SOL    HW2 2337   3.068   0.672   3.085  0.9000 -0.9366 -0.3388
  780SOL     OW 2338   2.517   2.491   2.329 -0.3514 -0.0561  0.3492
  780SOL    HW1 2339   2.604   2.460   2.286 -2.0891 -0.3074 -0.4960
  780SOL    HW2 2340   2.499   2.445   2.415  0.3739 -1.8710 -1.6063
  781SOL     OW 2341   3.087   1.101   1.760  0.4195 -0.4629 -0.3172
  781SOL    HW1 2342   3.039   1.184   1.803 -2.1143  0.1280  3.0349
  781SOL    HW2 2343   3.069   1.093   1.662 -1.0053 -2.3209 -0.5270
  782SOL     OW 2344   1.487   2.352   2.661 -0.0837  0.0838  0.3123
  782SOL    HW1 2345   1.473   2.376   2.562 -2.1008 -1.7497  1.0908
  782SOL    HW2 2346   1.429   2.271   2.689 -0.0260 -2.1941  0.6506
  783SOL     OW 2347   0.898   2.435   1.052 -0.3723 -0.1293 -0.4117
  783SOL    HW1 2348   0.946   2.383   1.127  0.2899  0.2763 -1.0032
  783SOL    HW2 2349   0.898   2.534   1.075 -0.0279  0.3240 -0.3996
  784SOL     OW 2350   2.157   0.609   2.345 -0.2024  0.0248 -1.1463
  784SOL    HW1 2351   2.078   0.606   2.414  0.7389  1.2842 -0.1316
  784SOL    HW2 2352   2.156   0.517   2.310 -1.2951 -0.4308 -0.1315
  785SOL     OW 2353   3.034   0.149   1.681 -1.1255 -0.7282  0.1273
  785SOL    HW1 2354   2.936   0.172   1.682  0.4525 -1.1989 -1.8479
  785SOL    HW2 2355   3.059   0.125   1.779 -2.5998  1.9428  2.2923
  786SOL     OW 2356   1.493   2.251   0.014 -0.1524  0.1637  0.1994
  786SOL    HW1 2357   1.567   2.315   3.118 -3.5063 -0.6984  1.2645
  786SOL    HW2 2358   1.428   2.288   0.086  0.5177 -0.3042 -0.5289
  787SOL     OW 2359   1.277   0.170   0.747 -0.5747  0.1064  0.2938
  787SOL    HW1 2360   1.205   0.113   0.788  2.4335  0.0623  0.7530
  787SOL    HW2 2361   1.269   0.264   0.786 -2.1521 -2.2980 -2.2816
  788SOL     OW 2362   0.160   1.209   1.175  0.0876  0.2849 -0.1081
  788SOL    HW1 2363   0.180   1.289   1.239  0.6988 -0.7072 -0.3758
  788SOL    HW2 2364   0.166   1.123   1.235  0.0423 -1.2483 -0.5965
  789SOL     OW 2365   2.395   0.981   2.222  0.0687  0.5733 -0.0315
  789SOL    HW1 2366   2.308   0.930   2.204  0.8026 -0.0163  1.7579
  789SOL    HW2 2367   2.389   1.076   2.194  2.3879 -0.3784 -1.7828
  790SOL     OW 2368   1.413   0.586   2.699 -0.1708  0.5131  0.1939
  790SOL    HW1 2369   1.384   0.575   2.603  1.0539 -3.3016  0.7212
  790SOL    HW2 2370   1.335   0.591   2.759  1.5280  2.1742 -0.8578
  791SOL     OW 2371   0.297   2.678   0.403  0.0835 -0.3761 -0.0068
  791SOL    HW1 2372   0.272   2.777   0.412 -0.5214  3.4476 -0.0558
  791SOL    HW2 2373   0.395   2.660   0.428 -1.5131 -0.3103  0.5403
  792SOL     OW 2374   1.237   0.990   1.922  0.1081 -0.3698  0.6311
  792SOL    HW1 2375   1.263   0.893   1.930  0.3531  1.4203 -3.4159
  792SOL    HW2 2376   1.179   0.991   1.835  1.1466 -1.8447 -0.4212
  793SOL     OW 2377   2.825   0.349   1.004 -0.4886 -0.2848  0.0693
  793SOL    HW1 2378   2.863   0.259   0.974  1.9030 -0.8784 -0.5336
  793SOL    HW2 2379   2.850   0.378   1.098  0.6850  1.3557 -0.4575
  794SOL     OW 2380   3.057   0.245   2.394 -0.7306  0.7953 -0.1209
  794SOL    HW1 2381   3.046   0.331   2.448  0.4023  2.5000 -0.4479
  794SOL    HW2 2382   2.995   0.243   2.312  0.6819 -1.6069 -2.7209
  795SOL     OW 2383   0.629   1.373   0.152 -0.0748  0.2624  0.1163
  795SOL    HW1 2384   0.682   1.412   0.076  0.7662 -0.9214  1.1461
  795SOL    HW2 2385   0.535   1.422   0.154  0.3964 -0.5058 -1.4732
  796SOL     OW 2386   3.117   0.970   2.859  0.3064 -0.4890 -0.4387
  796SOL    HW1 2387   3.063   0.947   2.939  1.8745  0.7727 -1.6702
  796SOL    HW2 2388   3.099   0.917   2.778  3.8931  4.1748  1.3625
  797SOL     OW 2389   2.461   0.011   2.313  0.1465  0.1872 -0.0913
  797SOL    HW1 2390   2.389   3.099   2.250  0.1564  1.4211  1.6207
  797SOL    HW2 2391   2.515   3.052   2.345  2.6417 -0.9306  2.7144
  798SOL     OW 2392   0.167   2.974   1.313  0.1296  0.3842 -0.4722
  798SOL    HW1 2393   0.116   2.948   1.233 -0.2991  0.7395 -0.6711
  798SOL    HW2 2394   0.109   3.021   1.381  1.1518  1.6181 -0.2235
  799SOL     OW 2395   2.905   0.917   1.566  0.3619 -0.6708 -0.3613
  799SOL    HW1 2396   2.831   0.862   1.523 -0.9526 -0.3568 -0.9038
  799SOL    HW2 2397   2.880   1.017   1.560  0.9906 -3.2375 -1.0604
  800SOL     OW 2398   0.513   1.345   0.712 -0.2196  0.1269  1.1013
  800SOL    HW1 2399   0.411   1.343   0.710 -2.0402  2.2153 -1.0021
  800SOL    HW2 2400   0.538   1.247   0.695  1.3951 -0.5325  0.8613
  801SOL     OW 2401   1.917   1.872   0.369 -0.0094 -0.5144  0.2037
  801SOL    HW1 2402   1.820   1.910   0.384  0.1972 -0.1364  0.0652
  801SOL    HW2 2403   1.923   1.779   0.415 -1.1825 -0.6880  2.4561
  802SOL     OW 2404   1.286   1.205   2.799  0.0234  0.2771 -0.3489
  802SOL    HW1 2405   1.334   1.292   2.780  0.5680  0.1268  1.0046
  802SOL    HW2 2406   1.329   1.118   2.759 -0.0849  0.0216  0.7240
  803SOL     OW 2407   0.917   1.839   1.609  0.5360  0.5056  0.2118
  803SOL    HW1 2408   0.960   1.750   1.640 -0.6496 -3.9802  0.6369
  803SOL    HW2 2409   0.969   1.920   1.639 -0.0837 -1.0496  0.9622
  804SOL     OW 2410   1.677   2.468   0.745 -0.5059  0.2554 -0.4418
  804SOL    HW1 2411   1.733   2.382   0.734 -0.3159 -1.0014 -0.5018
  804SOL    HW2 2412   1.638   2.501   0.658  2.3421 -1.2393  1.6999
  805SOL     OW 2413   3.014   2.523   2.514 -0.1364 -0.2829 -0.0003
  805SOL    HW1 2414   2.995   2.437   2.463  1.8810 -3.2417  0.1059
  805SOL    HW2 2415   3.047   2.593   2.446 -1.0353 -0.4182  0.5599
  806SOL     OW 2416   2.870   3.061   0.619 -0.1079  0.5197  0.4417
  806SOL    HW1 2417   2.880   3.036   0.719 -2.4674 -0.2612  1.0982
  806SOL    HW2 2418   2.960   3.044   0.569  3.6222  1.0420 -1.5199
  807SOL     OW 2419   2.409   0.836   2.850 -0.0948 -0.7267  0.2884
  807SOL    HW1 2420   2.493   0.779   2.831 -0.0853  0.0248 -0.6249
  807SOL    HW2 2421   2.361   0.802   2.932  4.1007  1.2257 -1.9624
  808SOL     OW 2422   1.300   2.495   0.682 -0.3167 -0.1511  0.4261
  808SOL    HW1 2423   1.287   2.593   0.698 -0.6661 -3.3322  0.0756
  808SOL    HW2 2424   1.373   2.479   0.618 -2.0994 -1.1488  2.0573
  809SOL     OW 2425   2.731   0.086   2.811 -0.0350  0.0582 -0.9137
  809SOL    HW1 2426   2.798   0.017   2.852  1.5434  1.1804 -1.1910
  809SOL    HW2 2427   2.785   0.171   2.790 -0.6455 -1.6490 -0.5055
  810SOL     OW 2428   1.335   1.144   0.614  0.0538 -0.3251  0.2459
  810SOL    HW1 2429   1.271   1.218   0.637  0.1639  1.2785 -1.6034
  810SOL    HW2 2430   1.289   1.054   0.625  0.5987 -1.9972 -0.2234
  811SOL     OW 2431   1.799   2.896   1.532  0.3127  0.4999 -0.0199
  811SOL    HW1 2432   1.697   2.871   1.530 -0.9391 -2.5469 -1.4745
  811SOL    HW2 2433   1.839   2.856   1.448  1.0755 -1.3828  2.7143
  812SOL     OW 2434   1.796   3.087   0.035  0.2472  0.3069 -0.1012
  812SOL    HW1 2435   1.755   3.113   0.127 -1.1645 -0.6931 -1.2770
  812SOL    HW2 2436   1.750   0.007   3.077  0.0447 -1.5113 -0.7323
  813SOL     OW 2437   1.092   0.408   2.188  0.1046  0.2849 -0.0510
  813SOL    HW1 2438   1.084   0.464   2.272 -0.3069  1.1829  2.5323
  813SOL    HW2 2439   1.033   0.324   2.187 -0.8262 -3.0123  0.5845
  814SOL     OW 2440   0.344   0.045   1.447 -0.3500 -0.1584 -0.2577
  814SOL    HW1 2441   0.315   3.088   1.399  2.9036  3.2593  0.2412
  814SOL    HW2 2442   0.443   0.040   1.453 -1.7435 -2.5980 -1.3448
  815SOL     OW 2443   0.336   2.744   1.125  0.1551  0.3769  0.4088
  815SOL    HW1 2444   0.271   2.826   1.131 -2.7424  0.4690 -0.2711
  815SOL    HW2 2445   0.428   2.767   1.086  0.8153 -1.1759 -2.2494
  816SOL     OW 2446   2.576   1.684   2.492  0.1103  0.1122 -0.0725
  816SOL    HW1 2447   2.489   1.659   2.539 -0.2814  0.3649  3.0237
  816SOL    HW2 2448   2.623   1.764   2.532  0.6282  0.7779 -1.6582
  817SOL     OW 2449   1.414   0.061   2.942  0.8349  0.3009 -0.3125
  817SOL    HW1 2450   1.439   0.120   3.025 -1.2186  0.7159  1.6637
  817SOL    HW2 2451   1.347   3.112   2.969  1.5926 -2.0569 -1.8147
  818SOL     OW 2452   1.566   1.064   0.336  0.2048 -0.6576 -0.3378
  818SOL    HW1 2453   1.587   1.161   0.352 -0.1281 -0.7436  0.7395
  818SOL    HW2 2454   1.472   1.049   0.303 -1.2258  1.3778  0.6847
  819SOL     OW 2455   1.855   2.641   2.604 -0.5451  0.1502  0.3238
  819SOL    HW1 2456   1.827   2.651   2.503 -0.3176  2.8533 -0.6037
  819SOL    HW2 2457   1.870   2.737   2.641  1.1545  5.3167  0.6297
  820SOL     OW 2458   1.082   0.700   0.267 -0.2460  0.1701  0.5827
  820SOL    HW1 2459   1.171   0.676   0.225 -0.9531  1.6696  0.0515
  820SOL    HW2 2460   1.091   0.774   0.336 -2.5277  0.9278 -0.5287
  821SOL     OW 2461   0.463   0.509   1.420  0.1765  0.2327 -0.1267
  821SOL    HW1 2462   0.465   0.598   1.469 -2.3797 -2.4253 -1.6040
  821SOL    HW2 2463   0.387   0.500   1.351  0.4002 -1.0059 -1.7106
  822SOL     OW 2464   1.451   2.570   2.070 -0.0552 -0.1268  0.0625
  822SOL    HW1 2465   1.510   2.567   1.987 -2.4193 -1.5720 -1.9932
  822SOL    HW2 2466   1.457   2.477   2.116  0.4609  1.1559 -0.7992
  823SOL     OW 2467   0.589   1.162   2.068  0.0588  0.5344  0.0893
  823SOL    HW1 2468   0.620   1.238   2.007 -3.1220  2.1062  1.2262
  823SOL    HW2 2469   0.666   1.118   2.117  0.4949 -0.4483 -0.1917
  824SOL     OW 2470   2.470   0.112   1.821  0.0674  0.0488 -0.1704
  824SOL    HW1 2471   2.428   0.050   1.750 -0.0435  2.4430 -4.1991
  824SOL    HW2 2472   2.447   0.203   1.786  0.5867 -1.7969  0.6094
  825SOL     OW 2473   1.019   1.510   0.168 -0.1795 -0.1394  0.4881
  825SOL    HW1 2474   0.965   1.569   0.112  0.1285 -1.7519  0.5456
  825SOL    HW2 2475   0.988   1.414   0.148 -0.7061 -1.1167  3.0464
  826SOL     OW 2476   2.002   0.609   2.617 -0.1820 -0.4957  0.2336
  826SOL    HW1 2477   2.059   0.692   2.646 -0.3206  1.0485  0.3720
  826SOL    HW2 2478   1.902   0.621   2.618  1.2563  0.5812  0.2441
  827SOL     OW 2479   0.433   2.115   2.875  0.1509  0.5811  0.0523
  827SOL    HW1 2480   0.470   2.207   2.902 -0.0682  0.2813  1.3768
  827SOL    HW2 2481   0.431   2.111   2.773  0.2209 -0.2699 -0.1832
  828SOL     OW 2482   2.850   0.183   1.278  0.0747 -0.3806 -0.2267
  828SOL    HW1 2483   2.764   0.234   1.296 -3.4546 -1.0115 -2.2165
  828SOL    HW2 2484   2.930   0.220   1.326 -0.7634 -0.9774  0.1191
  829SOL     OW 2485   1.330   1.653   1.018 -0.0499 -0.5176  0.2083
  829SOL    HW1 2486   1.419   1.697   1.035 -2.3935  1.6829  0.0040
  829SOL    HW2 2487   1.332   1.554   1.031 -2.4648  3.2727  0.1401
  830SOL     OW 2488   0.426   1.158   1.744  0.1297 -0.1067 -0.0562
  830SOL    HW1 2489   0.430   1.226   1.821  1.0763  1.4326 -1.7265
  830SOL    HW2 2490   0.375   1.073   1.767  1.3755  0.2868  1.0850
  831SOL     OW 2491   0.428   1.669   0.192 -0.1424 -0.1658  0.5767
  831SOL    HW1 2492   0.423   1.600   0.118 -3.7346  0.2941  2.5744
  831SOL    HW2 2493   0.351   1.733   0.171 -2.5114 -0.9550 -1.1314
  832SOL     OW 2494   1.047   0.316   2.926  0.4311  0.2609  0.2057
  832SOL    HW1 2495   1.027   0.235   2.987 -0.4121 -2.7881  0.5434
  832SOL    HW2 2496   0.968   0.369   2.904  1.9361 -2.4420 -2.2537
  833SOL     OW 2497   0.111   0.678   1.930  0.4418  0.2446  0.2339
  833SOL    HW1 2498   0.147   0.689   1.831 -2.1342  0.2883  1.8481
  833SOL    HW2 2499   0.039   0.746   1.945  1.2145 -1.0600 -2.4772
  834SOL     OW 2500   0.145   0.661   1.100  0.1765 -0.4649 -0.2157
  834SOL    HW1 2501   0.171   0.717   1.019 -2.2729 -0.4551  1.8288
  834SOL    HW2 2502   0.042   0.654   1.110 -1.0465 -0.8796  1.3354
  835SOL     OW 2503   2.624   2.680   1.171  0.6884  0.1659  0.2573
  835SOL    HW1 2504   2.676   2.694   1.083 -0.3753  1.0223  1.6636
  835SOL    HW2 2505   2.680   2.710   1.249 -4.0621 -5.1833 -1.0973
  836SOL     OW 2506   0.433   1.909   3.045  0.0013 -0.2566  0.2593
  836SOL    HW1 2507   0.482   1.928   0.014 -1.2034 -1.4396  1.8203
  836SOL    HW2 2508   0.415   1.989   2.985 -4.3315 -0.2683 -3.5738
  837SOL     OW 2509   1.926   2.211   2.798 -0.1764 -0.3926 -0.2476
  837SOL    HW1 2510   1.875   2.286   2.755  0.5055  1.3883  1.4372
  837SOL    HW2 2511   1.907   2.197   2.899 -1.4549 -0.3909  2.4736
  838SOL     OW 2512   2.868   1.220   2.173 -0.4268  0.2271  0.1476
  838SOL    HW1 2513   2.822   1.132   2.195  1.5402  1.1086 -0.4051
  838SOL    HW2 2514   2.961   1.197   2.139 -1.6441 -1.9619  1.7515
  839SOL     OW 2515   1.036   0.869   0.480 -0.1524 -0.3708 -0.2076
  839SOL    HW1 2516   0.948   0.830   0.509  2.7264 -0.1526 -2.5980
  839SOL    HW2 2517   1.015   0.958   0.437  0.0196  0.9634  1.3979
  840SOL     OW 2518   1.739   0.569   0.645  0.2124 -0.2320  0.2349
  840SOL    HW1 2519   1.708   0.664   0.668  0.6151  1.4741 -1.5234
  840SOL    HW2 2520   1.669   0.506   0.678 -0.3132  0.6496  0.1898
  841SOL     OW 2521   0.582   2.786   1.007  0.2309  0.0065 -0.1509
  841SOL    HW1 2522   0.622   2.880   1.024 -2.6645  1.5153  1.4098
  841SOL    HW2 2523   0.628   2.721   0.943 -1.8125  0.6148 -0.7043
  842SOL     OW 2524   0.434   0.186   0.270 -0.3903  0.6695 -0.1416
  842SOL    HW1 2525   0.345   0.152   0.236  1.3171 -1.5285  0.0871
  842SOL    HW2 2526   0.464   0.264   0.215  2.7656 -0.4100  1.6779
  843SOL     OW 2527   0.526   0.507   1.831 -0.2635 -0.2830  0.2716
  843SOL    HW1 2528   0.541   0.598   1.784  3.0268  0.0231 -1.1967
  843SOL    HW2 2529   0.457   0.509   1.902  1.7903  1.9068 -2.2962
  844SOL     OW 2530   1.519   2.664   3.010 -0.0969 -0.0315 -0.2759
  844SOL    HW1 2531   1.560   2.723   2.949 -0.9791 -2.1400  4.0242
  844SOL    HW2 2532   1.474   2.586   2.965 -0.1401  0.3735  0.1024
  845SOL     OW 2533   2.820   2.697   2.140 -0.0952  0.0237 -0.4046
  845SOL    HW1 2534   2.854   2.716   2.047 -2.7781 -0.8014  2.0689
  845SOL    HW2 2535   2.886   2.725   2.213  1.7003  1.3771 -2.6305
  846SOL     OW 2536   1.697   2.076   2.455  0.4416 -0.0199  0.5859
  846SOL    HW1 2537   1.701   2.038   2.551 -0.7616  0.2641  1.7784
  846SOL    HW2 2538   1.729   2.002   2.391 -1.2405  2.4850 -0.2240
  847SOL     OW 2539   2.275   2.954   2.254  0.4160 -0.1133 -0.4289
  847SOL    HW1 2540   2.325   2.868   2.233 -0.9449  0.8851  0.4877
  847SOL    HW2 2541   2.257   3.003   2.170  1.7305 -2.1671  1.2809
  848SOL     OW 2542   0.229   2.944   0.402  0.4092  0.4841  0.0157
  848SOL    HW1 2543   0.290   3.018   0.432 -2.3960  0.0284 -1.5943
  848SOL    HW2 2544   0.245   2.928   0.305 -0.7426  0.8828  2.1555
  849SOL     OW 2545   0.765   2.815   1.469  0.1216 -0.1120  0.2977
  849SOL    HW1 2546   0.793   2.718   1.460  1.5807  1.9349  0.0808
  849SOL    HW2 2547   0.842   2.875   1.434  1.2646  0.7656  1.1645
  850SOL     OW 2548   0.235   1.148   0.487  0.4629  0.1849 -0.0596
  850SOL    HW1 2549   0.210   1.211   0.562  1.6274 -0.6291 -1.1067
  850SOL    HW2 2550   0.330   1.128   0.493 -1.4793  2.1324 -0.5301
  851SOL     OW 2551   0.098   0.458   2.906 -0.3088  0.0164  0.0585
  851SOL    HW1 2552   0.197   0.474   2.904 -1.1882 -3.3635  2.4489
  851SOL    HW2 2553   0.068   0.377   2.856 -0.8389 -0.4579  2.0744
  852SOL     OW 2554   1.514   2.099   1.819  0.1829 -0.2074  0.6638
  852SOL    HW1 2555   1.446   2.023   1.823  0.6529  1.6550  1.3561
  852SOL    HW2 2556   1.564   2.094   1.908  0.1611 -0.1839  1.8803
  853SOL     OW 2557   0.638   1.838   0.599 -0.4112 -0.5649  0.0372
  853SOL    HW1 2558   0.697   1.796   0.672  1.4166  1.5882  2.1069
  853SOL    HW2 2559   0.673   1.933   0.580 -0.1775  3.8725 -3.2014
  854SOL     OW 2560   1.600   1.152   1.364 -0.1763 -0.0898 -0.2390
  854SOL    HW1 2561   1.526   1.221   1.373  0.1851 -2.0117 -1.8869
  854SOL    HW2 2562   1.638   1.147   1.270  0.3671 -1.0553  0.8250
  855SOL     OW 2563   0.551   1.949   0.156 -0.1521  0.3189  0.1459
  855SOL    HW1 2564   0.644   1.967   0.196 -1.4994  0.4572 -0.0907
  855SOL    HW2 2565   0.477   1.985   0.214 -0.3898  0.4258 -2.6694
  856SOL     OW 2566   3.053   0.061   1.953 -0.4210 -0.2324  0.1872
  856SOL    HW1 2567   3.086   3.102   2.007  1.6946 -0.7109  0.0282
  856SOL    HW2 2568   3.017   0.131   2.014  1.8498 -0.0889 -0.2457
  857SOL     OW 2569   0.444   0.292   2.160  0.4311 -0.3022 -0.4695
  857SOL    HW1 2570   0.410   0.219   2.093 -1.4869 -3.0636 -1.9457
  857SOL    HW2 2571   0.404   0.380   2.132 -0.3777  0.7081  0.6494
  858SOL     OW 2572   2.939   1.930   2.158 -0.2459  0.0696 -0.3732
  858SOL    HW1 2573   2.852   1.966   2.197  0.8233 -0.3587  0.6101
  858SOL    HW2 2574   3.008   1.920   2.228 -1.4770 -1.7920 -0.1517
  859SOL     OW 2575   2.125   2.894   0.620  0.2577 -0.5073  0.5118
  859SOL    HW1 2576   2.223   2.906   0.596  2.3086 -0.2380 -1.3035
  859SOL    HW2 2577   2.101   2.795   0.643 -1.2031 -0.4409  4.2321
  860SOL     OW 2578   1.838   0.302   0.260  0.6560 -0.6840 -0.0191
  860SOL    HW1 2579   1.942   0.296   0.284  1.4475 -1.3760 -0.9131
  860SOL    HW2 2580   1.784   0.216   0.259  0.8638  3.1560 -2.1406
  861SOL     OW 2581   0.254   0.418   0.823 -0.2652  0.9763 -0.5158
  861SOL    HW1 2582   0.268   0.462   0.731 -1.5650 -0.1902 -0.5221
  861SOL    HW2 2583   0.328   0.441   0.889  1.5449 -0.4119 -2.6946
  862SOL     OW 2584   2.204   0.588   1.503  0.1491 -0.0381  0.1117
  862SOL    HW1 2585   2.170   0.492   1.503  0.8012 -1.9892  1.7427
  862SOL    HW2 2586   2.166   0.643   1.433 -0.8968 -1.6108  1.0155
  863SOL     OW 2587   0.568   1.361   1.267 -0.1033  0.3621 -0.0855
  863SOL    HW1 2588   0.514   1.316   1.194  0.2371  0.9298 -1.8401
  863SOL    HW2 2589   0.666   1.375   1.240 -2.7923 -0.8547 -0.0819
  864SOL     OW 2590   2.667   0.031   1.987  0.4613  0.3605 -0.2387
  864SOL    HW1 2591   2.588   0.062   1.928  0.0681 -2.1559  2.5188
  864SOL    HW2 2592   2.630   3.070   2.037 -2.9858 -0.5238  0.2519
  865SOL     OW 2593   1.660   0.406   1.615 -0.1444  1.0476  0.3935
  865SOL    HW1 2594   1.700   0.319   1.575 -2.1002 -0.0290 -1.0049
  865SOL    HW2 2595   1.594   0.449   1.552 -1.4154  2.7491  0.3010
  866SOL     OW 2596   2.737   2.694   0.933  0.2459  0.4488 -0.1687
  866SOL    HW1 2597   2.829   2.655   0.920 -2.3107  1.4772 -2.5060
  866SOL    HW2 2598   2.693   2.729   0.850  0.2990  0.5593  1.1109
  867SOL     OW 2599   2.634   2.542   0.620  0.8217  0.2820  0.0370
  867SOL    HW1 2600   2.602   2.603   0.696  2.9602  0.6499  0.2749
  867SOL    HW2 2601   2.678   2.604   0.551 -3.2444 -1.0021  0.4523
  868SOL     OW 2602   1.454   2.212   2.407  0.3058  0.5341 -0.0599
  868SOL    HW1 2603   1.389   2.130   2.406 -0.9413 -0.9233  1.8932
  868SOL    HW2 2604   1.548   2.172   2.430  0.8149  0.4135  2.3799
  869SOL     OW 2605   2.394   1.765   0.491  0.3200 -0.2350  0.7494
  869SOL    HW1 2606   2.322   1.715   0.439  0.7869 -2.9125  2.2250
  869SOL    HW2 2607   2.364   1.856   0.535 -3.2298 -1.8028  1.6509
  870SOL     OW 2608   2.754   1.683   0.249  0.0637  0.2052  0.0483
  870SOL    HW1 2609   2.702   1.638   0.170 -0.7156 -2.0716 -3.5233
  870SOL    HW2 2610   2.835   1.732   0.211  0.5954 -1.6515  1.0982
  871SOL     OW 2611   3.120   0.717   1.502 -0.1124 -0.3867 -0.5895
  871SOL    HW1 2612   0.039   0.749   1.415 -1.1902 -2.7025 -2.0000
  871SOL    HW2 2613   3.058   0.792   1.534 -1.1171  1.1736  0.8188
  872SOL     OW 2614   0.686   1.951   2.615 -1.1805  0.5444  0.5565
  872SOL    HW1 2615   0.777   1.999   2.608  0.4600  1.5236  2.0436
  872SOL    HW2 2616   0.701   1.848   2.611 -1.4974 -3.5549  0.3834
  873SOL     OW 2617   0.439   2.641   1.796  0.1928  0.6687  0.2484
  873SOL    HW1 2618   0.404   2.579   1.724  0.7285  1.8241 -1.0734
  873SOL    HW2 2619   0.487   2.718   1.755  0.1258  1.4038 -0.1042
  874SOL     OW 2620   1.051   1.090   2.128 -0.1225 -0.1979  0.3704
  874SOL    HW1 2621   1.094   1.129   2.208 -2.2373 -0.9044 -1.5179
  874SOL    HW2 2622   1.116   1.048   2.060  0.3583 -0.3594 -1.3248
  875SOL     OW 2623   2.788   2.726   1.361 -0.0049  0.7831 -0.5722
  875SOL    HW1 2624   2.829   2.640   1.401 -2.3347 -0.7717  0.3673
  875SOL    HW2 2625   2.831   2.813   1.397  1.1727 -0.1818 -0.4293
  876SOL     OW 2626   0.940   1.187   0.621  0.5015 -0.5219 -0.2786
  876SOL    HW1 2627   0.922   1.122   0.695 -1.3876  2.9998 -3.9241
  876SOL    HW2 2628   0.878   1.271   0.630 -2.0570  0.8411  1.8934
  877SOL     OW 2629   0.992   0.626   1.242  0.3546 -0.3357  0.1803
  877SOL    HW1 2630   1.084   0.642   1.280 -2.8628 -3.0872  1.7299
  877SOL    HW2 2631   0.966   0.527   1.253  0.5851  2.1971  0.4085
  878SOL     OW 2632   2.625   1.841   2.910  0.1567  0.5872 -0.4058
  878SOL    HW1 2633   2.601   1.742   2.906 -1.6846 -2.0085  1.0424
  878SOL    HW2 2634   2.547   1.903   2.881 -1.7870  2.4371 -0.2230
  879SOL     OW 2635   2.216   1.914   1.831  0.3537  0.1812  0.2977
  879SOL    HW1 2636   2.273   1.984   1.877 -0.7790 -0.4972 -0.3758
  879SOL    HW2 2637   2.171   1.953   1.749 -2.8007 -1.7523  0.8246
  880SOL     OW 2638   0.967   2.286   1.256 -0.2094 -0.0876 -0.3952
  880SOL    HW1 2639   1.034   2.328   1.320  1.6751 -0.2037  2.0273
  880SOL    HW2 2640   0.993   2.188   1.235  1.5881 -1.4388 -1.1400
  881SOL     OW 2641   1.258   1.908   0.798 -0.1586 -0.6068  0.5182
  881SOL    HW1 2642   1.253   1.987   0.738  0.8687 -4.3504  2.3148
  881SOL    HW2 2643   1.171   1.858   0.791  0.7218 -0.5864  1.6036
  882SOL     OW 2644   1.950   1.800   2.610  0.0228  0.4805 -0.0976
  882SOL    HW1 2645   2.028   1.831   2.669  0.1920 -0.5881  1.3752
  882SOL    HW2 2646   1.965   1.717   2.548 -3.3757 -1.4052 -3.3121
  883SOL     OW 2647   1.413   0.595   1.155  0.3513  0.3075 -0.6288
  883SOL    HW1 2648   1.401   0.635   1.064  1.3207 -1.0100 -0.5290
  883SOL    HW2 2649   1.408   0.493   1.149 -1.2182  0.8522  1.2745
  884SOL     OW 2650   0.046   2.902   1.090  0.1839 -0.3822  0.2510
  884SOL    HW1 2651   0.083   2.890   0.991  1.9601 -1.6145 -2.3868
  884SOL    HW2 2652   3.071   2.871   1.093  0.1170  1.6779 -1.4101
  885SOL     OW 2653   0.965   1.435   2.052 -0.0584 -0.5970  0.2116
  885SOL    HW1 2654   0.897   1.360   2.037  0.8698  1.0044 -1.0319
  885SOL    HW2 2655   1.054   1.401   2.022 -1.6590 -0.4193  2.5449
  886SOL     OW 2656   1.011   1.278   2.782 -0.7437 -0.8169  0.1376
  886SOL    HW1 2657   0.934   1.213   2.804 -1.5738  2.7978  0.4684
  886SOL    HW2 2658   1.099   1.225   2.789  0.6056 -0.1570 -1.7100
  887SOL     OW 2659   1.562   0.213   0.906 -0.9438  0.2159 -0.4344
  887SOL    HW1 2660   1.641   0.245   0.846 -0.4024  0.3555  1.6846
  887SOL    HW2 2661   1.571   0.110   0.924 -0.8181 -1.5672 -2.1174
  888SOL     OW 2662   1.951   0.896   2.080  0.2689  0.3181 -0.9676
  888SOL    HW1 2663   1.952   0.965   2.150 -1.4819  3.8084 -0.9785
  888SOL    HW2 2664   1.896   0.926   1.999 -1.8480  2.1104  0.4500
  889SOL     OW 2665   2.999   1.884   0.972  0.2669 -1.1029 -0.0246
  889SOL    HW1 2666   3.070   1.956   0.941  0.6982  2.9557 -1.7311
  889SOL    HW2 2667   2.966   1.895   1.070 -0.8187  0.3334  0.2753
  890SOL     OW 2668   1.296   2.349   0.203  0.0020  0.2165  0.5905
  890SOL    HW1 2669   1.211   2.292   0.199 -0.5416 -0.5327 -0.1023
  890SOL    HW2 2670   1.279   2.444   0.230 -0.5117  1.0678 -1.0533
  891SOL     OW 2671   2.862   0.717   2.458 -0.5647 -0.1914  0.4051
  891SOL    HW1 2672   2.854   0.726   2.355  0.6047  1.6162  0.3266
  891SOL    HW2 2673   2.777   0.743   2.499  3.0630  0.2269 -0.4975
  892SOL     OW 2674   0.015   2.369   1.460  0.5414  0.2717 -0.5804
  892SOL    HW1 2675   0.053   2.377   1.368  1.8273 -0.6893  1.3764
  892SOL    HW2 2676   0.014   2.269   1.487 -1.8110 -2.0737 -1.1322
  893SOL     OW 2677   1.291   0.088   1.381 -0.4264 -0.3644  0.6761
  893SOL    HW1 2678   1.340   0.053   1.461 -0.6070 -0.6525  3.2265
  893SOL    HW2 2679   1.281   0.188   1.391  2.2316 -2.5238  0.4437
  894SOL     OW 2680   2.906   2.857   1.102 -0.0254  0.1158 -0.1597
  894SOL    HW1 2681   2.862   2.767   1.085  0.0398 -0.1678 -0.8756
  894SOL    HW2 2682   2.869   2.900   1.185  3.7308  0.1083  0.7463
  895SOL     OW 2683   1.623   2.088   2.063  0.9807  0.3796 -0.0862
  895SOL    HW1 2684   1.714   2.056   2.090  1.4782 -0.0739 -2.5580
  895SOL    HW2 2685   1.581   2.148   2.130 -1.3823 -0.2975 -1.0825
  896SOL     OW 2686   1.878   0.685   1.170  0.2545 -0.3442 -0.7796
  896SOL    HW1 2687   1.945   0.708   1.247 -0.9684 -0.3905 -1.4700
  896SOL    HW2 2688   1.902   0.730   1.081  2.3964  3.5244  1.2679
  897SOL     OW 2689   0.402   1.449   1.683 -0.1314 -0.3095  0.2638
  897SOL    HW1 2690   0.421   1.378   1.606 -1.3410 -0.3914  0.2968
  897SOL    HW2 2691   0.489   1.474   1.723 -0.1504 -1.4248  0.2222
  898SOL     OW 2692   1.866   2.356   2.169  0.7251 -0.5882 -0.4920
  898SOL    HW1 2693   1.877   2.254   2.172 -3.6404  1.4178 -0.0579
  898SOL    HW2 2694   1.774   2.382   2.201  0.8805  0.7156  1.2559
  899SOL     OW 2695   1.461   2.162   0.789  0.1543  0.0523  0.5966
  899SOL    HW1 2696   1.388   2.209   0.732 -1.4524  1.6921  0.4442
  899SOL    HW2 2697   1.437   2.162   0.887  1.2773  3.1836 -0.8582
  900SOL     OW 2698   0.929   3.048   2.635  0.1138 -0.1115 -0.2398
  900SOL    HW1 2699   0.843   3.088   2.673 -2.4667  0.3648 -1.7981
  900SOL    HW2 2700   0.972   3.117   2.574 -1.3209 -1.4488  1.1632
  901SOL     OW 2701   1.119   1.518   2.297 -0.0817 -0.1707  0.0324
  901SOL    HW1 2702   1.085   1.509   2.205 -1.6558 -2.2092  3.5599
  901SOL    HW2 2703   1.068   1.464   2.362 -0.5320  1.8118  1.0152
  902SOL     OW 2704   2.025   0.834   3.000 -0.1764 -0.0078  0.1592
  902SOL    HW1 2705   2.008   0.932   2.989 -1.0908  3.0480  0.1273
  902SOL    HW2 2706   2.016   0.820   3.100  0.7005 -0.1484  0.7921
  903SOL     OW 2707   1.867   1.300   2.736 -0.1272 -0.7494 -0.2484
  903SOL    HW1 2708   1.936   1.371   2.767  1.7034  2.7252 -0.1054
  903SOL    HW2 2709   1.795   1.342   2.678  2.6994 -3.4070 -0.1924
  904SOL     OW 2710   1.510   1.372   1.804 -0.0629  0.0308  0.0695
  904SOL    HW1 2711   1.507   1.274   1.772  1.4612  1.0840 -2.1976
  904SOL    HW2 2712   1.425   1.424   1.786 -0.8560 -1.1677 -1.0156
  905SOL     OW 2713   2.611   0.457   0.893 -0.6016 -0.3882 -0.0507
  905SOL    HW1 2714   2.543   0.389   0.913  2.3397 -0.9236 -0.9329
  905SOL    HW2 2715   2.706   0.433   0.932  2.1409 -0.8288  0.3920
  906SOL     OW 2716   0.237   1.308   0.728 -0.1352  0.2804 -0.5129
  906SOL    HW1 2717   0.159   1.257   0.773 -2.6196  1.2442  2.5913
  906SOL    HW2 2718   0.225   1.405   0.749 -0.7694 -2.5882 -1.5034
  907SOL     OW 2719   1.407   0.188   0.485 -0.2278  0.3931  0.4666
  907SOL    HW1 2720   1.362   0.178   0.576  2.0069 -1.6511  0.1390
  907SOL    HW2 2721   1.511   0.193   0.496  1.0180 -0.8129 -0.8373
  908SOL     OW 2722   1.248   2.654   1.930 -0.7945  0.4965  0.1333
  908SOL    HW1 2723   1.179   2.583   1.894  1.5856  0.1078 -2.2046
  908SOL    HW2 2724   1.326   2.615   1.986 -0.4133 -2.0090  2.3080
  909SOL     OW 2725   2.542   0.847   1.803 -0.1532 -0.3691 -0.2606
  909SOL    HW1 2726   2.445   0.819   1.819 -1.0555 -0.9550  1.8154
  909SOL    HW2 2727   2.539   0.947   1.802  0.1676 -3.1714 -4.0648
  910SOL     OW 2728   1.279   0.115   2.356  0.2593 -0.4711 -0.3112
  910SOL    HW1 2729   1.303   0.215   2.373  1.0920  0.6317 -1.7767
  910SOL    HW2 2730   1.183   0.099   2.388 -1.5256  0.0298  0.1289
  911SOL     OW 2731   2.470   1.337   2.360 -0.0983 -0.2739 -0.3209
  911SOL    HW1 2732   2.430   1.423   2.331  1.4677  0.3632 -1.8169
  911SOL    HW2 2733   2.575   1.339   2.363 -1.0297  1.6706  2.3408
  912SOL     OW 2734   2.400   1.949   1.525  0.3410  0.0358  0.2633
  912SOL    HW1 2735   2.488   1.908   1.554  1.4705  1.9851 -0.6170
  912SOL    HW2 2736   2.422   2.044   1.513 -0.5337 -3.8500  2.7584
  913SOL     OW 2737   2.596   2.084   1.899  0.6221  0.1208 -0.1375
  913SOL    HW1 2738   2.638   2.177   1.882  0.5593  1.9150  3.2324
  913SOL    HW2 2739   2.494   2.100   1.920 -0.2326  3.1964  0.4122
  914SOL     OW 2740   2.094   2.174   0.723 -0.3353 -0.4854 -0.2470
  914SOL    HW1 2741   2.150   2.185   0.809 -1.6432  0.3888 -2.0381
  914SOL    HW2 2742   2.106   2.084   0.681  0.8654  2.6310 -0.6901
  915SOL     OW 2743   0.968   2.412   2.129  0.3156  0.1665  0.2588
  915SOL    HW1 2744   0.882   2.443   2.170 -0.6143  0.9059 -0.6235
  915SOL    HW2 2745   1.044   2.474   2.166  1.2918  1.0274  0.1202
  916SOL     OW 2746   0.054   2.107   0.849 -0.4219 -0.4149 -0.2730
  916SOL    HW1 2747   0.136   2.151   0.895  2.6641  2.4566  2.6821
  916SOL    HW2 2748   0.085   2.052   0.771 -0.0108 -2.3601 -1.4994
  917SOL     OW 2749   2.657   1.029   2.852 -0.1056 -0.4812  0.4602
  917SOL    HW1 2750   2.658   0.929   2.841  0.0658  0.6621  1.8368
  917SOL    HW2 2751   2.692   1.075   2.772 -1.7517 -1.7299  1.6321
  918SOL     OW 2752   1.609   2.434   2.323  0.4726 -0.2149 -0.1719
  918SOL    HW1 2753   1.556   2.353   2.296  1.3489  1.4322  0.1376
  918SOL    HW2 2754   1.678   2.409   2.393 -1.1415  1.0106  2.7720
  919SOL     OW 2755   1.829   2.239   0.705  0.1179 -0.3280 -0.4793
  919SOL    HW1 2756   1.772   2.155   0.705  0.2307  3.2769 -0.6748
  919SOL    HW2 2757   1.923   2.231   0.730 -0.1113 -0.9326 -1.3643
  920SOL     OW 2758   1.256   0.586   2.369 -0.2324  0.0970  0.0886
  920SOL    HW1 2759   1.289   0.658   2.305 -0.4762  0.6936  2.7965
  920SOL    HW2 2760   1.175   0.625   2.417  1.4991 -2.0878 -3.6050
  921SOL     OW 2761   0.046   0.220   2.781  0.3909 -0.5682 -0.0277
  921SOL    HW1 2762   0.098   0.281   2.713 -0.0485  1.3633 -1.5760
  921SOL    HW2 2763   0.063   0.123   2.753  0.3900  0.9143 -1.5035
  922SOL     OW 2764   2.630   1.606   1.793  0.0712  0.2854  0.1732
  922SOL    HW1 2765   2.542   1.663   1.799 -2.7047  0.1468 -0.3285
  922SOL    HW2 2766   2.635   1.546   1.709 -0.3306 -4.1700 -0.3904
  923SOL     OW 2767   0.232   1.628   2.481 -0.4688 -0.4506  0.3607
  923SOL    HW1 2768   0.267   1.720   2.452 -1.1432 -0.1232 -0.5499
  923SOL    HW2 2769   0.182   1.636   2.564  1.3616 -2.3325 -1.9698
  924SOL     OW 2770   1.603   0.463   2.164 -0.8199  0.3219 -0.5317
  924SOL    HW1 2771   1.627   0.425   2.260 -0.1078  1.1300  2.2128
  924SOL    HW2 2772   1.684   0.522   2.136 -1.2324  2.2939 -2.1648
  925SOL     OW 2773   3.116   0.823   0.229 -0.1436  0.6479  0.2654
  925SOL    HW1 2774   3.054   0.744   0.200 -1.3989 -4.2155 -2.0981
  925SOL    HW2 2775   3.096   0.905   0.172  1.5510  0.0550  2.0124
  926SOL     OW 2776   2.578   0.142   0.887 -0.0532 -0.1573 -0.5161
  926SOL    HW1 2777   2.676   0.151   0.865 -0.9777  1.8718  1.6695
  926SOL    HW2 2778   2.563   0.066   0.953 -1.4548 -2.6739 -2.2081
  927SOL     OW 2779   1.220   0.879   0.870 -0.2862 -0.4299 -0.7508
  927SOL    HW1 2780   1.251   0.879   0.772 -0.6121  5.2696 -0.1364
  927SOL    HW2 2781   1.123   0.845   0.869  0.7187  0.9112 -0.0277
  928SOL     OW 2782   0.107   0.228   2.156 -0.1556  0.7676  0.1199
  928SOL    HW1 2783   0.035   0.284   2.106 -1.1076 -0.4200  0.7392
  928SOL    HW2 2784   0.090   0.225   2.260 -1.0361 -0.4977  0.3981
  929SOL     OW 2785   2.535   0.867   1.491 -0.0283 -0.2329  0.2645
  929SOL    HW1 2786   2.592   0.873   1.407 -2.8854 -1.7868  3.4570
  929SOL    HW2 2787   2.557   0.778   1.539  3.7288  0.6735 -0.3879
  930SOL     OW 2788   2.037   2.728   1.081 -0.4388  0.1940  0.4131
  930SOL    HW1 2789   2.021   2.678   0.993  1.3741  1.6281  1.2920
  930SOL    HW2 2790   2.101   2.807   1.054  3.4075  3.3699 -2.8002
  931SOL     OW 2791   2.046   1.265   0.766 -0.2164  0.2289 -0.5850
  931SOL    HW1 2792   2.022   1.167   0.796 -2.6917 -5.2696  0.4049
  931SOL    HW2 2793   1.975   1.293   0.702  1.4377 -1.7477 -3.0778
  932SOL     OW 2794   0.059   0.845   1.280  0.0852 -0.3207  0.2507
  932SOL    HW1 2795   3.101   0.891   1.242  4.2615 -1.3598 -0.0868
  932SOL    HW2 2796   0.107   0.787   1.213 -1.3996  2.8514  3.5296
  933SOL     OW 2797   2.121   1.614   2.165 -0.1743 -0.4461 -0.2834
  933SOL    HW1 2798   2.050   1.654   2.220  1.3924  0.3345  1.7397
  933SOL    HW2 2799   2.104   1.621   2.066 -2.2949 -0.1855  2.4717
  934SOL     OW 2800   1.539   2.878   1.524  0.7015 -0.2316 -0.4117
  934SOL    HW1 2801   1.568   2.885   1.421  0.6974  0.6818 -1.5397
  934SOL    HW2 2802   1.460   2.941   1.548 -1.7538  1.0099 -2.2553
  935SOL     OW 2803   0.448   0.774   1.512 -0.1487  0.2338 -0.1396
  935SOL    HW1 2804   0.476   0.843   1.442 -1.4595 -0.1769  1.2351
  935SOL    HW2 2805   0.512   0.786   1.594  1.4153  3.5405  2.6290
  936SOL     OW 2806   2.393   0.721   1.238 -0.5633 -0.1921 -0.2772
  936SOL    HW1 2807   2.434   0.702   1.331  1.2642 -0.6000  2.1156
  936SOL    HW2 2808   2.465   0.759   1.174  3.4076 -1.6798 -1.2252
  937SOL     OW 2809   1.025   0.022   1.446 -0.6856  0.1648  0.0820
  937SOL    HW1 2810   0.957   0.102   1.451 -0.7817  1.6065 -0.4385
  937SOL    HW2 2811   1.121   0.058   1.432  2.6796  0.9957 -2.7186
  938SOL     OW 2812   2.992   2.304   0.876 -0.5617  0.1624 -0.0890
  938SOL    HW1 2813   2.988   2.344   0.971 -1.1066 -0.3515  3.0378
  938SOL    HW2 2814   3.046   2.216   0.876 -0.5444 -0.7171 -2.0461
  939SOL     OW 2815   2.982   1.896   2.592  1.2785 -0.1150 -0.2009
  939SOL    HW1 2816   3.048   1.892   2.517  0.0484 -2.2709  0.6056
  939SOL    HW2 2817   3.019   1.844   2.672  1.7607  1.6547  1.6310
  940SOL     OW 2818   2.183   2.685   2.865 -0.2996 -0.1545  0.0088
  940SOL    HW1 2819   2.158   2.618   2.800 -1.2993  0.4157  0.2203
  940SOL    HW2 2820   2.185   2.776   2.817 -3.2747 -0.1580  1.6421
  941SOL     OW 2821   1.657   2.651   0.513  0.9289 -0.3097 -0.0694
  941SOL    HW1 2822   1.724   2.582   0.490 -2.1588 -1.9961  1.7456
  941SOL    HW2 2823   1.696   2.746   0.508 -2.2304  1.5498  0.2142
  942SOL     OW 2824   1.591   2.039   1.098  0.2382 -0.2355  0.2770
  942SOL    HW1 2825   1.689   2.051   1.107 -1.3538  0.6427 -2.4115
  942SOL    HW2 2826   1.535   2.096   1.162  1.1927  0.3161 -1.1428
  943SOL     OW 2827   1.823   1.008   1.846 -0.1593 -0.0345  0.2323
  943SOL    HW1 2828   1.739   0.955   1.814 -3.3202 -1.0113 -2.4672
  943SOL    HW2 2829   1.913   0.968   1.819 -1.4067 -3.2155 -1.0255
  944SOL     OW 2830   1.825   0.625   1.710 -0.6391  0.2100  0.0222
  944SOL    HW1 2831   1.795   0.542   1.664  3.6275  3.6548  1.1320
  944SOL    HW2 2832   1.919   0.604   1.746  0.5990  0.7114  0.0373
  945SOL     OW 2833   2.624   2.345   1.398 -0.2244 -0.7373 -0.1847
  945SOL    HW1 2834   2.623   2.350   1.292  0.4836  0.6312 -3.4937
  945SOL    HW2 2835   2.698   2.411   1.426 -0.6781  0.4779  0.1658
  946SOL     OW 2836   0.628   1.159   1.570  0.2737 -1.1661 -0.1432
  946SOL    HW1 2837   0.592   1.135   1.475 -2.0572  1.3597 -2.8148
  946SOL    HW2 2838   0.566   1.128   1.642  0.5565 -1.2178 -1.8518
  947SOL     OW 2839   0.525   2.394   0.803  0.0011 -0.1734 -0.1658
  947SOL    HW1 2840   0.452   2.418   0.870 -1.3461  0.6802  0.5554
  947SOL    HW2 2841   0.483   2.364   0.713  1.4276  0.1211 -4.6685
  948SOL     OW 2842   3.064   1.478   1.917 -0.2095 -0.5399  0.0301
  948SOL    HW1 2843   3.122   1.453   1.999 -1.8455 -1.0738 -1.1675
  948SOL    HW2 2844   3.023   1.569   1.921  1.2923 -4.0687  0.4862
  949SOL     OW 2845   0.745   0.690   2.319 -0.0712  0.0632  0.1384
  949SOL    HW1 2846   0.773   0.770   2.380  0.4336  0.7908 -1.2220
  949SOL    HW2 2847   0.670   0.714   2.254 -0.1506  1.5494  0.8315
  950SOL     OW 2848   0.281   0.463   1.227  0.0009  0.1272  0.1110
  950SOL    HW1 2849   0.213   0.518   1.173 -3.3507  0.5195 -0.8476
  950SOL    HW2 2850   0.247   0.365   1.239 -0.5361 -3.0067 -0.4144
  951SOL     OW 2851   1.189   1.803   2.291  0.1463 -0.0688  0.0535
  951SOL    HW1 2852   1.171   1.706   2.319 -3.1186  0.4105  1.1423
  951SOL    HW2 2853   1.280   1.822   2.239 -0.9923  1.3531 -2.2563
  952SOL     OW 2854   1.110   1.693   2.882 -0.7893 -0.0950 -0.0829
  952SOL    HW1 2855   1.179   1.731   2.817  1.3426 -1.4372 -0.2162
  952SOL    HW2 2856   1.155   1.655   2.966  3.9319  0.6227  0.2199
  953SOL     OW 2857   1.160   3.075   2.766  0.3607  0.2402  0.2292
  953SOL    HW1 2858   1.068   3.048   2.732  1.9791  2.7852 -1.5877
  953SOL    HW2 2859   1.178   0.055   2.756 -0.3635  0.2877 -0.2053
  954SOL     OW 2860   2.192   1.632   0.340 -0.4605 -0.4169  0.3760
  954SOL    HW1 2861   2.107   1.679   0.368 -1.0350 -0.0884  1.2083
  954SOL    HW2 2862   2.194   1.534   0.367  1.2855  1.2861  1.4743
  955SOL     OW 2863   0.214   2.490   3.087 -0.0627 -0.7352  0.3582
  955SOL    HW1 2864   0.227   2.508   2.988  0.2796 -2.3241 -1.1270
  955SOL    HW2 2865   0.230   2.391   3.099 -1.3582 -1.6297 -0.3239
  956SOL     OW 2866   1.152   1.007   1.674 -0.2524  0.3923  0.1153
  956SOL    HW1 2867   1.138   0.910   1.645  1.1996 -1.2872  1.4868
  956SOL    HW2 2868   1.174   1.069   1.595  2.5938 -0.8944  0.5599
  957SOL     OW 2869   1.936   1.686   2.362  0.9417  0.4739  0.5448
  957SOL    HW1 2870   1.912   1.588   2.372 -1.3663  1.3651  1.3845
  957SOL    HW2 2871   1.851   1.744   2.347 -2.1024  0.9683 -1.0155
  958SOL     OW 2872   1.579   2.507   1.305 -0.3417  0.4168  0.7205
  958SOL    HW1 2873   1.485   2.533   1.330 -0.6206 -0.9021 -0.2217
  958SOL    HW2 2874   1.614   2.563   1.227 -1.9347 -1.2460  2.5153
  959SOL     OW 2875   1.259   1.650   1.317  0.3266 -0.2583 -0.6230
  959SOL    HW1 2876   1.259   1.656   1.214  0.3865  1.4399 -0.8604
  959SOL    HW2 2877   1.336   1.705   1.360 -2.6291  0.9995 -0.6196
  960SOL     OW 2878   2.999   1.222   2.895  0.1532 -0.5059 -0.2390
  960SOL    HW1 2879   3.050   1.134   2.910  1.2322 -0.2561  0.7267
  960SOL    HW2 2880   3.018   1.259   2.803  2.2923  1.6257  1.1188
  961SOL     OW 2881   0.484   0.747   2.183 -0.2947 -0.0447  0.1549
  961SOL    HW1 2882   0.421   0.800   2.245 -1.9307  0.4928 -1.2465
  961SOL    HW2 2883   0.493   0.793   2.094 -0.6670 -2.6299  1.7970
  962SOL     OW 2884   1.329   1.713   0.350 -0.4979  0.4162  0.6364
  962SOL    HW1 2885   1.278   1.797   0.379 -0.0218 -1.3612  2.1146
  962SOL    HW2 2886   1.423   1.710   0.397 -1.5682  1.4186 -0.9329
  963SOL     OW 2887   1.198   2.429   2.650 -0.3207 -0.0751 -0.3041
  963SOL    HW1 2888   1.185   2.396   2.556  0.4191 -2.3268  0.4429
  963SOL    HW2 2889   1.206   2.346   2.713 -2.6678 -1.7936  0.3564
  964SOL     OW 2890   0.970   2.718   0.507  0.0849  0.9214 -0.2424
  964SOL    HW1 2891   1.008   2.752   0.420 -2.6051 -0.8304  0.1439
  964SOL    HW2 2892   0.870   2.706   0.503  0.2261  0.0961 -0.0852
  965SOL     OW 2893   0.667   3.030   1.120  0.2172  0.3935 -0.3787
  965SOL    HW1 2894   0.758   3.027   1.167 -0.2578 -0.4201  0.6910
  965SOL    HW2 2895   0.595   3.022   1.192  0.4085  3.3600 -1.5468
  966SOL     OW 2896   0.282   1.201   0.026 -0.4513 -0.1315 -0.2736
  966SOL    HW1 2897   0.180   1.224   0.021 -1.4782  1.1271  2.2844
  966SOL    HW2 2898   0.304   1.105   3.115  0.0901  0.0965 -0.9043
  967SOL     OW 2899   1.130   2.759   2.392 -0.0950  0.2092 -0.2390
  967SOL    HW1 2900   1.199   2.808   2.445 -0.0592 -0.7229  0.9499
  967SOL    HW2 2901   1.167   2.684   2.331 -0.7481 -0.8459 -1.1126
  968SOL     OW 2902   2.096   0.609   0.371  0.2705 -0.0564  0.5119
  968SOL    HW1 2903   2.047   0.539   0.432 -0.1998 -2.9413  2.5619
  968SOL    HW2 2904   2.034   0.669   0.317 -1.2233 -1.5070 -0.7026
  969SOL     OW 2905   0.058   1.716   2.174 -0.1845  0.4075 -0.4045
  969SOL    HW1 2906   3.098   1.725   2.112 -1.4445 -1.0261 -0.1805
  969SOL    HW2 2907   0.151   1.722   2.125  5.2551  0.7613  1.0338
  970SOL     OW 2908   2.181   1.566   1.269 -0.0544  0.2724  0.3783
  970SOL    HW1 2909   2.101   1.504   1.271  1.5425 -2.3704  2.9671
  970SOL    HW2 2910   2.243   1.567   1.184  3.1192  1.4708 -2.4759
  971SOL     OW 2911   2.047   0.316   1.112 -0.4511  0.1810  0.0800
  971SOL    HW1 2912   2.124   0.372   1.149 -0.3358 -0.7920 -2.7346
  971SOL    HW2 2913   2.050   0.326   1.013  0.7549  0.3351 -1.8519
  972SOL     OW 2914   0.403   3.018   1.732 -0.4366  0.3112 -0.2877
  972SOL    HW1 2915   0.377   3.113   1.703  2.1660  3.5214 -2.5443
  972SOL    HW2 2916   0.354   2.991   1.817  1.5532  0.4697 -0.4543
  973SOL     OW 2917   2.579   0.969   0.405 -0.3272 -0.3157 -0.2389
  973SOL    HW1 2918   2.596   0.931   0.310  1.3750 -1.1779 -0.9503
  973SOL    HW2 2919   2.561   1.069   0.401 -3.3283  0.1689  0.1034
  974SOL     OW 2920   1.693   1.781   2.312  0.0692  0.0018  0.1326
  974SOL    HW1 2921   1.700   1.790   2.209 -0.5691  1.7738 -3.9871
  974SOL    HW2 2922   1.616   1.728   2.337  3.1518  1.6738 -0.7815
  975SOL     OW 2923   0.298   2.781   1.446  0.3427  0.3481 -0.1200
  975SOL    HW1 2924   0.377   2.810   1.502 -1.6321 -1.9362  0.2642
  975SOL    HW2 2925   0.253   2.862   1.404 -0.5358  3.4583 -0.4989
  976SOL     OW 2926   0.203   1.802   1.710  0.1107 -0.1195  0.0065
  976SOL    HW1 2927   0.211   1.895   1.681  2.8466  1.3916  0.2875
  976SOL    HW2 2928   0.193   1.798   1.809 -0.7751  3.1404 -1.5223
  977SOL     OW 2929   0.826   2.620   2.983 -0.0010 -0.3620 -0.3354
  977SOL    HW1 2930   0.869   2.711   3.004 -1.3155 -0.2970 -0.2982
  977SOL    HW2 2931   0.790   2.621   2.887 -2.8707  1.6671 -1.7250
  978SOL     OW 2932   0.292   1.695   2.948  0.2814  0.4131 -0.4078
  978SOL    HW1 2933   0.330   1.782   2.986 -1.2581  0.9088  3.1783
  978SOL    HW2 2934   0.289   1.613   3.011 -1.3953 -1.1063  1.6805
  979SOL     OW 2935   1.660   2.536   1.022  0.0373  0.5999  0.3670
  979SOL    HW1 2936   1.719   2.462   1.067 -1.5471 -1.9556  0.8645
  979SOL    HW2 2937   1.641   2.505   0.926  1.1118 -2.3018 -1.2736
  980SOL     OW 2938   0.941   1.874   2.984  0.0420  0.0294  0.1952
  980SOL    HW1 2939   1.007   1.830   2.923 -1.0369 -1.2981 -1.3202
  980SOL    HW2 2940   0.846   1.880   2.941 -0.3120 -0.0254  1.5206
  981SOL     OW 2941   2.764   0.037   2.325 -0.2939  0.7677  0.2810
  981SOL    HW1 2942   2.739   0.117   2.265 -1.3324 -1.0566  1.8539
  981SOL    HW2 2943   2.703   0.031   2.403  0.2739  1.2126 -3.7496
  982SOL     OW 2944   0.225   2.832   2.798 -0.1024 -0.2491 -0.2051
  982SOL    HW1 2945   0.222   2.927   2.834  0.9442 -2.3958 -1.4868
  982SOL    HW2 2946   0.300   2.819   2.733 -0.1536  0.6287 -1.8187
  983SOL     OW 2947   2.470   1.092   1.838 -0.2262 -0.4170 -0.1500
  983SOL    HW1 2948   2.470   1.149   1.927  0.5926 -0.3030  0.1455
  983SOL    HW2 2949   2.390   1.122   1.785  2.3048  0.7976  0.3973
  984SOL     OW 2950   1.347   0.458   2.063  0.1457 -0.5278 -0.8282
  984SOL    HW1 2951   1.275   0.415   2.118  0.4551  0.1160  1.0342
  984SOL    HW2 2952   1.438   0.454   2.110  0.8312 -0.9902  1.3699
  985SOL     OW 2953   1.401   1.872   2.113  0.0738  0.4437 -0.0485
  985SOL    HW1 2954   1.391   1.777   2.078  0.2223 -0.2953 -2.2619
  985SOL    HW2 2955   1.496   1.906   2.117 -1.0751 -2.2421  0.8554
  986SOL     OW 2956   1.652   0.311   1.914 -0.4304 -0.3849 -0.5657
  986SOL    HW1 2957   1.662   0.373   1.836 -0.3805  1.1102  1.5171
  986SOL    HW2 2958   1.628   0.367   1.995 -1.0433  0.5512  0.3832
  987SOL     OW 2959   2.072   0.948   1.769 -0.1100 -0.0194 -0.3442
  987SOL    HW1 2960   2.126   0.864   1.796 -2.0468 -1.3240 -1.1657
  987SOL    HW2 2961   2.125   1.008   1.708 -2.0148  0.4062 -0.6415
  988SOL     OW 2962   2.592   0.788   2.514  0.2938 -0.4878 -0.1947
  988SOL    HW1 2963   2.515   0.730   2.488  1.5127  2.0796  1.3200
  988SOL    HW2 2964   2.567   0.888   2.504  0.3827 -1.4246 -0.3444
  989SOL     OW 2965   2.462   2.725   2.610 -0.0056 -0.2491  0.1798
  989SOL    HW1 2966   2.462   2.654   2.538 -0.0557 -2.6824  0.4076
  989SOL    HW2 2967   2.506   2.685   2.690 -3.2467  0.1053 -1.8458
  990SOL     OW 2968   0.857   0.477   2.850  0.0699  0.1251 -0.1204
  990SOL    HW1 2969   0.790   0.400   2.852 -1.0717 -1.0570 -0.0293
  990SOL    HW2 2970   0.823   0.556   2.896 -1.4072 -4.0785 -0.2214
  991SOL     OW 2971   1.318   0.612   0.033  0.8644 -0.2110  0.2515
  991SOL    HW1 2972   1.294   0.568   3.072  1.3412  0.1413  0.2522
  991SOL    HW2 2973   1.279   0.706   0.026  0.5618  3.3174  0.9904
  992SOL     OW 2974   2.410   2.374   2.803 -0.1281  0.4139  0.4853
  992SOL    HW1 2975   2.356   2.381   2.717  0.1428 -1.5620  0.9411
  992SOL    HW2 2976   2.490   2.435   2.802 -0.5737  0.1193  0.1950
  993SOL     OW 2977   0.385   0.236   0.533 -0.0081 -0.3083  0.6764
  993SOL    HW1 2978   0.410   0.236   0.434  0.6876 -0.4509 -0.2486
  993SOL    HW2 2979   0.285   0.230   0.561  1.0016  3.0490 -0.7986
  994SOL     OW 2980   0.335   2.307   1.631 -0.3158  0.7772  0.1383
  994SOL    HW1 2981   0.326   2.319   1.732  0.3550  1.4031 -1.7556
  994SOL    HW2 2982   0.367   2.393   1.586  1.5390  1.4635 -2.2577
  995SOL     OW 2983   2.050   1.846   2.902 -0.6931  0.2443  0.2200
  995SOL    HW1 2984   2.112   1.849   2.982  0.9403  1.7667  1.6644
  995SOL    HW2 2985   1.988   1.925   2.909 -0.1094 -0.2329 -0.9483
  996SOL     OW 2986   1.293   1.779   2.676  0.1700  0.4868  0.0263
  996SOL    HW1 2987   1.331   1.698   2.625 -0.6287 -4.3978  1.6806
  996SOL    HW2 2988   1.365   1.825   2.736  1.0865 -0.8044  1.3403
  997SOL     OW 2989   1.763   1.207   1.071 -0.4087 -0.4533  0.1679
  997SOL    HW1 2990   1.732   1.304   1.055 -0.3850 -0.1185 -1.3501
  997SOL    HW2 2991   1.857   1.193   1.048  0.9383 -0.9035 -2.8140
  998SOL     OW 2992   2.593   1.533   0.073  0.6047  0.6306 -0.0638
  998SOL    HW1 2993   2.603   1.434   0.108  0.5652 -0.4555 -0.8690
  998SOL    HW2 2994   2.605   1.535   3.096  2.9552 -0.7440  1.5129
  999SOL     OW 2995   2.863   2.320   0.397  0.1738  0.2216 -0.0534
  999SOL    HW1 2996   2.893   2.347   0.492  0.8467 -1.0090 -1.2228
  999SOL    HW2 2997   2.843   2.392   0.325 -0.2579 -1.3986  1.2441
 1000SOL     OW 2998   0.902   0.172   2.181 -0.2516  0.5060 -0.6126
 1000SOL    HW1 2999   0.829   0.237   2.152  0.0639 -1.8201  0.8786
 1000SOL    HW2 3000   0.953   0.134   2.100  1.5745 -0.5816  0.3758
   3.12232   3.12232   3.12232
