1000 SPC/Fw water molecules t= 303.00000 step= 303000
 3000
    1SOL     OW    1   2.566   0.134   1.145 -0.5312 -0.1384 -0.0102
    1SOL    HW1    2   2.474   0.095   1.129 -2.2056  1.8020 -1.6265
    1SOL    HW2    3   2.640   0.071   1.117 -0.8283  0.3130  1.0900
    2SOL     OW    4   3.031   2.484   1.125 -0.1318 -0.2349  0.3816
    2SOL    HW1    5   0.012   2.541   1.094 -2.5817  0.3981 -2.6340
    2SOL    HW2    6   3.052   2.381   1.120 -2.1792 -0.9339  0.2029
    3SOL     OW    7   0.753   2.780   3.027  0.1883  0.3120  0.1736
    3SOL    HW1    8   0.764   2.681   3.057 -1.1641 -0.2605  2.2018
    3SOL    HW2    9   0.719   2.784   2.927 -1.0326  0.1383 -0.9487
    4SOL     OW   10   2.147   2.292   1.910 -0.2409  0.0718 -0.2885
    4SOL    HW1   11   2.091   2.231   1.846  0.4475 -1.0707 -1.6173
    4SOL    HW2   12   2.246   2.258   1.903  2.8714 -0.1549  0.2023
    5SOL     OW   13   1.748   0.881   1.291 -0.5041  0.1300  0.1774
    5SOL    HW1   14   1.719   0.808   1.227  2.0126  0.6807 -1.4163
    5SOL    HW2   15   1.664   0.930   1.317  1.5188  1.5119 -0.2553
    6SOL     OW   16   2.007   2.739   0.192 -0.1337  0.4195 -0.1710
    6SOL    HW1   17   2.050   2.812   0.135 -0.2845 -0.1062  1.5495
    6SOL    HW2   18   1.908   2.756   0.208  0.4534 -1.2720  1.4180
    7SOL     OW   19   2.864   1.389   1.101 -0.2740 -0.1476  0.3502
    7SOL    HW1   20   2.914   1.463   1.148  1.8683  1.5541  0.0724
    7SOL    HW2   21   2.777   1.370   1.153 -0.8797  0.6786  1.3626
    8SOL     OW   22   1.437   2.541   1.368  0.4094 -0.0896  0.3077
    8SOL    HW1   23   1.519   2.563   1.423 -1.2996  1.5745 -0.3028
    8SOL    HW2   24   1.463   2.495   1.281 -0.5785 -1.3331  1.5489
    9SOL     OW   25   1.384   3.044   2.318  0.6459  0.2575  0.0185
    9SOL    HW1   26   1.356   3.005   2.408  0.7578  0.7197 -1.4508
    9SOL    HW2   27   1.350   2.986   2.239 -2.3593 -0.0033 -0.3688
   10SOL     OW   28   0.739   2.059   1.435  0.0752  0.4145  0.2697
   10SOL    HW1   29   0.822   2.011   1.405 -0.3215  2.4147  2.7109
   10SOL    HW2   30   0.705   2.119   1.361  3.8371 -0.1596  3.1666
   11SOL     OW   31   2.115   1.584   1.042 -0.0539  0.0553  0.3345
   11SOL    HW1   32   2.115   1.600   0.941  1.2321 -1.2421  1.0721
   11SOL    HW2   33   2.183   1.648   1.084  0.5443  2.8382 -1.4841
   12SOL     OW   34   2.408   2.669   1.660  0.5646 -0.0010  0.0055
   12SOL    HW1   35   2.507   2.656   1.670 -0.9018  2.2249  0.2995
   12SOL    HW2   36   2.369   2.679   1.753 -0.5826 -3.9235 -2.1025
   13SOL     OW   37   2.343   2.915   0.255 -0.2048 -0.2742  0.0181
   13SOL    HW1   38   2.322   2.827   0.302  0.0651 -0.1929 -0.4540
   13SOL    HW2   39   2.418   2.911   0.185  2.3019  0.4940  0.4697
   14SOL     OW   40   1.644   2.365   0.618  0.0423  0.7860  0.7298
   14SOL    HW1   41   1.545   2.363   0.645 -0.5555 -0.1672 -0.8943
   14SOL    HW2   42   1.694   2.289   0.665  1.3432  0.4775  0.6303
   15SOL     OW   43   2.925   1.857   1.834  0.5640  0.4386  0.2863
   15SOL    HW1   44   3.004   1.912   1.861 -2.1615 -0.0883 -1.7692
   15SOL    HW2   45   2.872   1.819   1.914 -1.2421 -2.6474  1.5130
   16SOL     OW   46   1.996   2.683   0.713  0.0493  0.0202  0.3475
   16SOL    HW1   47   1.921   2.733   0.664 -2.7586  2.8915  1.2111
   16SOL    HW2   48   1.972   2.657   0.808 -2.3339 -0.6575  0.6296
   17SOL     OW   49   0.603   0.140   1.190 -0.4506  0.3420  0.3331
   17SOL    HW1   50   0.690   0.191   1.219  0.3671  0.9640  0.7841
   17SOL    HW2   51   0.538   0.204   1.145  2.9301  0.4588 -4.3768
   18SOL     OW   52   1.675   1.301   0.018 -0.5058  0.0891 -0.3671
   18SOL    HW1   53   1.689   1.328   0.119  1.5431  0.6438  3.1776
   18SOL    HW2   54   1.644   1.204   0.011 -0.5264 -0.7585  0.0160
   19SOL     OW   55   1.863   2.102   0.412  0.0628  0.3593  0.5234
   19SOL    HW1   56   1.879   2.146   0.325 -2.9442  0.1216  5.6485
   19SOL    HW2   57   1.950   2.075   0.460  0.8631 -0.5218  0.9707
   20SOL     OW   58   2.569   1.773   2.221  0.8458 -0.4519  0.8900
   20SOL    HW1   59   2.486   1.802   2.271  1.0124 -2.3367 -0.6457
   20SOL    HW2   60   2.577   1.827   2.137  1.2690  0.5901  0.0241
   21SOL     OW   61   1.746   1.080   0.757 -0.0714  0.7564  0.5217
   21SOL    HW1   62   1.704   1.070   0.663  1.3752  0.1480 -2.1012
   21SOL    HW2   63   1.772   0.986   0.784 -1.7087 -2.2242 -0.5480
   22SOL     OW   64   2.062   3.080   1.409  0.0380  0.6555  0.0568
   22SOL    HW1   65   2.008   3.033   1.480 -0.2643  0.5703 -0.8125
   22SOL    HW2   66   2.008   0.037   1.341 -1.9599  1.7508 -0.1608
   23SOL     OW   67   2.979   0.536   1.873  0.6297 -0.3127  0.6003
   23SOL    HW1   68   2.892   0.485   1.889 -1.9048 -1.8226 -0.4316
   23SOL    HW2   69   2.983   0.590   1.787  0.8071  1.9197  0.0499
   24SOL     OW   70   2.370   2.672   0.428 -0.6509 -0.1150  0.0212
   24SOL    HW1   71   2.294   2.670   0.495 -1.5325 -0.1714  0.3902
   24SOL    HW2   72   2.463   2.685   0.473  0.9389 -2.0652 -0.3129
   25SOL     OW   73   1.316   0.202   2.231 -0.0338  0.4131 -0.3072
   25SOL    HW1   74   1.332   0.111   2.264  0.8256 -0.8963  0.2427
   25SOL    HW2   75   1.404   0.233   2.192  2.2674 -0.4891 -0.5713
   26SOL     OW   76   1.587   2.348   0.289 -0.3157  0.1163  0.0484
   26SOL    HW1   77   1.630   2.332   0.383 -0.3227 -1.4522  0.5432
   26SOL    HW2   78   1.559   2.256   0.255 -1.5934  1.9266 -2.6797
   27SOL     OW   79   2.415   1.665   0.233  0.1028 -0.7338  0.0746
   27SOL    HW1   80   2.354   1.745   0.226  1.1474 -0.7461  0.1110
   27SOL    HW2   81   2.464   1.654   0.142 -0.7839 -1.4550 -0.4690
   28SOL     OW   82   0.778   1.677   1.625 -0.5596 -0.0572  0.3230
   28SOL    HW1   83   0.755   1.578   1.620  0.4667  3.2500  1.6935
   28SOL    HW2   84   0.811   1.710   1.532 -2.3187  0.3951 -0.7211
   29SOL     OW   85   2.402   2.363   1.653 -0.2656 -0.6041  0.2738
   29SOL    HW1   86   2.363   2.340   1.566  0.7674 -2.7293  1.0140
   29SOL    HW2   87   2.399   2.467   1.655  0.2240  1.2141  2.7336
   30SOL     OW   88   1.372   0.477   0.903  0.4710  0.0917  0.4780
   30SOL    HW1   89   1.332   0.507   0.811 -1.1744 -2.4444 -2.8284
   30SOL    HW2   90   1.443   0.541   0.938  0.8073  0.2918  1.2589
   31SOL     OW   91   1.855   2.790   1.855 -0.0378 -0.7351  0.2201
   31SOL    HW1   92   1.851   2.835   1.947  2.5922  2.3635  2.6635
   31SOL    HW2   93   1.910   2.704   1.865  1.4041  0.0123  0.3906
   32SOL     OW   94   1.039   1.799   0.774  0.3893 -0.1238  0.7062
   32SOL    HW1   95   0.959   1.796   0.834  0.5582 -3.7549  0.8944
   32SOL    HW2   96   1.037   1.890   0.723 -0.5868 -1.4350 -0.6198
   33SOL     OW   97   0.297   0.482   2.510  0.0130  0.3821  0.3583
   33SOL    HW1   98   0.363   0.411   2.537  3.1342 -0.1887  1.2955
   33SOL    HW2   99   0.220   0.448   2.450 -1.2659 -0.8310 -2.5825
   34SOL     OW  100   1.871   2.858   0.503 -0.3512  0.1112  0.0642
   34SOL    HW1  101   1.885   2.942   0.560 -1.5994 -0.6112 -0.4374
   34SOL    HW2  102   1.898   2.875   0.406  1.8782 -1.6517 -1.2917
   35SOL     OW  103   2.158   2.649   1.182  0.2265 -0.0884 -0.0898
   35SOL    HW1  104   2.139   2.750   1.189 -2.0755  1.2048 -1.9054
   35SOL    HW2  105   2.069   2.600   1.174  0.0793  2.3046 -0.8783
   36SOL     OW  106   1.799   2.464   2.702 -0.1391  0.0238  0.3090
   36SOL    HW1  107   1.778   2.366   2.672  1.0711 -0.3031  4.0107
   36SOL    HW2  108   1.876   2.506   2.650 -0.9043  0.1677  0.2156
   37SOL     OW  109   0.842   0.101   2.100  0.2879  0.2654  0.7923
   37SOL    HW1  110   0.816   0.160   2.176 -0.1617 -1.5612 -0.2128
   37SOL    HW2  111   0.945   0.096   2.091  0.6790  2.9201 -0.7401
   38SOL     OW  112   0.129   0.108   2.564 -0.6658  0.1206  0.5002
   38SOL    HW1  113   0.107   0.048   2.485  0.5645 -0.6383  2.5513
   38SOL    HW2  114   0.206   0.167   2.536  1.3181  1.5144 -0.2285
   39SOL     OW  115   2.311   0.979   1.561  0.3321 -0.2444  0.0251
   39SOL    HW1  116   2.303   0.918   1.641 -0.6074  0.5252 -3.2236
   39SOL    HW2  117   2.314   1.076   1.601  0.9378  2.2822  1.3946
   40SOL     OW  118   1.213   2.888   0.311 -0.5857 -0.2416  0.0429
   40SOL    HW1  119   1.272   2.966   0.283  3.5322 -1.9504 -0.5414
   40SOL    HW2  120   1.137   2.914   0.370 -0.3582 -2.2094 -0.8667
   41SOL     OW  121   2.403   1.420   0.946 -0.3238 -0.5092 -0.4439
   41SOL    HW1  122   2.428   1.407   1.045 -2.6402  0.0300  2.7668
   41SOL    HW2  123   2.448   1.356   0.879 -0.8123 -3.2434  0.7376
   42SOL     OW  124   0.860   0.301   1.197  0.7743  0.3011 -0.3295
   42SOL    HW1  125   0.805   0.351   1.266 -1.0395 -0.5046 -0.7714
   42SOL    HW2  126   0.846   0.344   1.106 -0.5098  2.9453 -0.4187
   43SOL     OW  127   2.766   1.607   2.373  0.4959 -0.1403 -0.3440
   43SOL    HW1  128   2.784   1.668   2.454 -0.9604  1.5794  1.4388
   43SOL    HW2  129   2.687   1.633   2.315  1.3891 -1.5895 -2.6115
   44SOL     OW  130   2.394   0.071   1.855  0.2777 -0.5183 -0.1017
   44SOL    HW1  131   2.464   0.053   1.789 -3.1626  1.6625  0.1129
   44SOL    HW2  132   2.427   0.136   1.930  1.2008  2.0897  2.1527
   45SOL     OW  133   0.732   2.975   2.010  0.5832 -0.2705  0.4956
   45SOL    HW1  134   0.651   2.979   1.943 -0.2205 -1.7338  1.4610
   45SOL    HW2  135   0.753   3.059   2.062 -3.5672  0.3706  2.6948
   46SOL     OW  136   1.315   2.897   2.584 -0.5638 -0.5832 -0.2819
   46SOL    HW1  137   1.336   2.825   2.650 -1.5360 -0.1129 -1.3605
   46SOL    HW2  138   1.242   2.866   2.524  3.5375  1.1733  3.9702
   47SOL     OW  139   1.753   1.772   0.496  0.2234 -0.5267  0.0083
   47SOL    HW1  140   1.661   1.781   0.535  1.2964  0.4540 -1.5877
   47SOL    HW2  141   1.773   1.672   0.470  1.9684 -0.1124  0.3983
   48SOL     OW  142   0.960   2.201   0.683 -0.1500 -0.3585 -0.2502
   48SOL    HW1  143   0.883   2.249   0.637 -2.2869 -2.6454  0.3168
   48SOL    HW2  144   0.964   2.104   0.644  1.9194 -2.4182  1.0217
   49SOL     OW  145   2.289   2.916   2.518 -0.0748 -0.2282  0.7594
   49SOL    HW1  146   2.373   2.886   2.477 -1.0176  1.9528  0.8004
   49SOL    HW2  147   2.304   2.927   2.619 -2.1990  0.7826 -0.6719
   50SOL     OW  148   1.630   0.036   0.111  0.0479 -0.6386 -0.4357
   50SOL    HW1  149   1.634   0.088   0.200  1.0152  2.4908 -0.2053
   50SOL    HW2  150   1.587   0.097   0.041  2.4395  4.4090  1.8845
   51SOL     OW  151   2.124   0.911   0.639 -0.6538  0.3545  0.4339
   51SOL    HW1  152   2.098   0.974   0.715  1.1946 -2.1912 -0.3915
   51SOL    HW2  153   2.146   0.815   0.675  1.7188 -1.8893  2.1746
   52SOL     OW  154   1.281   1.594   1.061  0.3184 -0.6430  0.0013
   52SOL    HW1  155   1.361   1.584   1.124  0.3145  1.6715  3.2829
   52SOL    HW2  156   1.197   1.569   1.113 -1.9709  0.4069 -3.1303
   53SOL     OW  157   1.041   1.609   2.440 -0.1348 -0.0676 -0.5043
   53SOL    HW1  158   0.992   1.620   2.351 -2.7065 -0.1214 -0.4968
   53SOL    HW2  159   1.022   1.685   2.506  2.0876  1.3550  0.5209
   54SOL     OW  160   2.658   0.563   1.518 -0.2328  0.1835 -0.6636
   54SOL    HW1  161   2.676   0.651   1.568 -1.4226  0.9834 -0.4611
   54SOL    HW2  162   2.575   0.563   1.458  1.3311 -0.5744 -1.9964
   55SOL     OW  163   2.696   1.986   0.763  0.7281 -0.2993 -0.3570
   55SOL    HW1  164   2.739   1.960   0.852 -0.0155  2.0889 -0.5313
   55SOL    HW2  165   2.698   1.916   0.690 -2.1500 -0.1250  1.2238
   56SOL     OW  166   1.001   0.454   2.207 -0.3530 -0.2939 -0.3411
   56SOL    HW1  167   1.080   0.440   2.269  2.0432 -1.8759 -1.7529
   56SOL    HW2  168   1.033   0.437   2.113  1.9110  1.4349  1.2114
   57SOL     OW  169   1.253   1.306   3.036 -0.0144  0.5716  0.0082
   57SOL    HW1  170   1.296   1.400   3.040 -0.2780  2.3162 -0.2005
   57SOL    HW2  171   1.258   1.265   2.940  0.6964  0.9648 -2.7531
   58SOL     OW  172   0.037   0.657   1.652 -0.4734 -0.0958  0.4144
   58SOL    HW1  173   3.070   0.731   1.615 -3.1852  2.6378 -1.8060
   58SOL    HW2  174   0.123   0.708   1.675 -1.9817 -1.7087 -1.9171
   59SOL     OW  175   1.619   2.907   3.043  0.2704  0.2296 -0.6794
   59SOL    HW1  176   1.692   2.908   2.971  0.1755  0.0281 -1.1006
   59SOL    HW2  177   1.617   2.997   3.085  1.1855 -0.8688 -2.2212
   60SOL     OW  178   0.066   1.811   0.313 -0.5241 -0.1275  0.4497
   60SOL    HW1  179   3.088   1.877   0.331  1.9663  0.4658 -3.0568
   60SOL    HW2  180   0.038   1.715   0.321  2.4101  0.4758 -3.2805
   61SOL     OW  181   1.126   2.960   0.820  0.2889  0.0314 -0.8782
   61SOL    HW1  182   1.190   2.903   0.765 -0.8668 -0.9714  1.9169
   61SOL    HW2  183   1.069   2.900   0.881 -0.7255  0.8075  0.3420
   62SOL     OW  184   2.159   1.843   2.617 -0.1590  0.3113  0.2492
   62SOL    HW1  185   2.139   1.765   2.556  0.0053  0.9040  1.0178
   62SOL    HW2  186   2.173   1.926   2.559  1.8293  0.7745  0.0548
   63SOL     OW  187   2.440   2.630   0.825 -0.5220 -0.4432 -0.4418
   63SOL    HW1  188   2.361   2.660   0.768  0.1199 -0.9879 -0.3507
   63SOL    HW2  189   2.498   2.565   0.775 -1.0394  3.1205  2.7319
   64SOL     OW  190   1.591   1.006   2.433  0.4976  0.2290 -0.5656
   64SOL    HW1  191   1.520   1.007   2.508 -1.4198 -2.3152  2.1382
   64SOL    HW2  192   1.581   0.918   2.380 -0.1532  0.5007  1.4569
   65SOL     OW  193   1.845   1.712   2.521 -0.2577  0.3677  0.0929
   65SOL    HW1  194   1.843   1.623   2.571  1.8476  4.5304 -1.7649
   65SOL    HW2  195   1.752   1.741   2.472 -2.8380  0.6763  3.4952
   66SOL     OW  196   0.281   0.777   1.724 -0.0633  0.3755 -0.1919
   66SOL    HW1  197   0.300   0.866   1.763  0.8660  0.7123 -0.2276
   66SOL    HW2  198   0.365   0.717   1.729 -0.6732  0.2240 -2.3943
   67SOL     OW  199   2.363   2.921   2.759 -0.2724 -0.1742 -0.1602
   67SOL    HW1  200   2.330   2.903   2.854 -2.1759 -1.1371 -0.4560
   67SOL    HW2  201   2.443   2.985   2.771 -0.1706  3.0490 -0.7411
   68SOL     OW  202   1.283   2.914   1.176 -0.0634 -0.2587 -0.0950
   68SOL    HW1  203   1.185   2.933   1.201  1.8315  1.9674 -2.4457
   68SOL    HW2  204   1.281   2.825   1.127  0.2506  1.5723  2.1108
   69SOL     OW  205   0.479   2.608   0.121  0.3344 -0.5686 -0.2521
   69SOL    HW1  206   0.555   2.583   0.055 -2.0088  2.4041  1.4435
   69SOL    HW2  207   0.424   2.525   0.134  2.9866  0.0630  0.1542
   70SOL     OW  208   2.388   0.064   2.458  0.6330 -0.1421 -0.4578
   70SOL    HW1  209   2.389   0.090   2.554 -0.0901 -3.3225  0.3430
   70SOL    HW2  210   2.342   3.070   2.443  1.3809  1.6791  4.2864
   71SOL     OW  211   0.673   1.156   2.497  0.2570  0.2033  0.0591
   71SOL    HW1  212   0.656   1.221   2.575  3.4512  0.6925  0.7593
   71SOL    HW2  213   0.658   1.213   2.415  0.8573  1.5854 -2.1745
   72SOL     OW  214   2.978   1.958   3.052 -0.4870 -0.2738  0.5779
   72SOL    HW1  215   2.942   1.886   0.013  0.8365 -1.7735  1.8662
   72SOL    HW2  216   2.914   1.993   2.983 -1.6702 -1.2891  0.0949
   73SOL     OW  217   1.280   1.332   0.596 -0.0223 -0.2671 -0.3048
   73SOL    HW1  218   1.332   1.418   0.625  0.1346  1.6284 -2.1252
   73SOL    HW2  219   1.210   1.355   0.529 -1.2093 -0.1233  2.5536
   74SOL     OW  220   2.289   2.492   2.786 -0.6578 -0.5432  0.1902
   74SOL    HW1  221   2.253   2.398   2.800 -0.3351  0.6153  0.6129
   74SOL    HW2  222   2.309   2.536   2.879  0.5333  1.3085  1.7037
   75SOL     OW  223   2.391   1.864   0.770  0.1222 -0.0904 -0.0092
   75SOL    HW1  224   2.402   1.966   0.786  2.0061  3.2075 -1.6866
   75SOL    HW2  225   2.437   1.795   0.833  2.0817 -2.1614 -2.5460
   76SOL     OW  226   1.970   2.457   1.545  0.2662 -0.5683  0.3883
   76SOL    HW1  227   2.049   2.521   1.538  0.6080 -1.2183 -0.2358
   76SOL    HW2  228   1.897   2.488   1.607  0.5346  0.1838 -0.2033
   77SOL     OW  229   2.401   3.048   2.183 -0.3304 -0.3465  0.1611
   77SOL    HW1  230   2.416   0.052   2.193 -0.1245  1.2619  0.4671
   77SOL    HW2  231   2.393   3.017   2.081  0.3974 -0.5294  1.1404
   78SOL     OW  232   1.634   1.033   3.031  0.4683 -0.0195 -0.7051
   78SOL    HW1  233   1.545   0.985   3.049 -1.0788 -1.0480 -2.2412
   78SOL    HW2  234   1.709   0.966   3.025  1.7837 -0.1000  1.5921
   79SOL     OW  235   2.431   1.396   2.424 -1.0599 -0.4349  0.4082
   79SOL    HW1  236   2.526   1.362   2.442  0.6818 -2.2424 -0.7084
   79SOL    HW2  237   2.413   1.485   2.471 -0.0011  1.9067  1.3345
   80SOL     OW  238   1.952   1.524   1.526  0.1178  0.4803  0.2742
   80SOL    HW1  239   2.004   1.465   1.460  1.9153  1.2240 -1.5640
   80SOL    HW2  240   1.997   1.524   1.619 -0.0562 -2.5950  2.5518
   81SOL     OW  241   1.424   0.560   1.315 -0.6963 -0.8604 -0.4000
   81SOL    HW1  242   1.331   0.554   1.348  2.5401  0.9658  0.1803
   81SOL    HW2  243   1.439   0.477   1.259  0.0581 -0.0526  0.5606
   82SOL     OW  244   1.799   2.437   1.750 -0.0480  0.8185 -0.3462
   82SOL    HW1  245   1.868   2.427   1.822 -0.7506 -1.0534 -3.8460
   82SOL    HW2  246   1.711   2.469   1.788 -0.1201  0.2601 -0.0613
   83SOL     OW  247   0.172   0.033   0.461  0.1237 -0.2521 -0.4710
   83SOL    HW1  248   0.228   0.106   0.418 -3.6508  4.6726 -1.4729
   83SOL    HW2  249   0.073   0.069   0.438 -2.6232  1.0018 -0.7711
   84SOL     OW  250   0.594   0.994   0.200  0.2547  0.0431 -0.4508
   84SOL    HW1  251   0.660   1.047   0.143  1.2841  1.7592 -3.0348
   84SOL    HW2  252   0.573   0.903   0.165  0.1515 -0.0178  2.4162
   85SOL     OW  253   2.747   2.044   1.536  0.8352 -0.3468 -0.1275
   85SOL    HW1  254   2.825   2.084   1.588 -1.8165 -0.0739  1.7230
   85SOL    HW2  255   2.713   1.961   1.588 -1.0333 -1.9544  0.9443
   86SOL     OW  256   0.184   2.742   1.374  0.2595 -0.1032  0.1669
   86SOL    HW1  257   0.135   2.658   1.407 -2.0156  0.7675  0.0130
   86SOL    HW2  258   0.221   2.793   1.455 -3.3065 -0.0603 -0.5444
   87SOL     OW  259   0.561   0.192   2.253 -0.0330  0.0875 -0.0399
   87SOL    HW1  260   0.644   0.248   2.275 -0.1141 -1.6619 -1.5128
   87SOL    HW2  261   0.560   0.114   2.319  0.5583 -0.6639 -0.4670
   88SOL     OW  262   0.444   2.058   1.047 -0.0765  0.4448  0.1340
   88SOL    HW1  263   0.467   2.157   1.022 -0.3488 -0.2171 -1.7583
   88SOL    HW2  264   0.414   2.013   0.958  1.3390 -1.7571 -2.6669
   89SOL     OW  265   0.891   0.671   1.666  0.1527 -0.5489 -0.3081
   89SOL    HW1  266   0.989   0.662   1.636  1.4579 -2.2336  0.2950
   89SOL    HW2  267   0.846   0.581   1.652 -0.9032  5.0108  0.9820
   90SOL     OW  268   2.722   0.824   1.612 -0.2552  0.0687 -0.4006
   90SOL    HW1  269   2.828   0.828   1.605  2.3407  1.4207  1.0367
   90SOL    HW2  270   2.689   0.859   1.698  1.4278 -1.6263 -2.8661
   91SOL     OW  271   1.437   0.999   1.153  0.1679 -0.2290 -0.3253
   91SOL    HW1  272   1.367   0.936   1.111  0.5913 -0.5878  0.9288
   91SOL    HW2  273   1.491   1.037   1.075 -0.6357 -1.6263  2.6212
   92SOL     OW  274   2.589   1.148   0.953  0.4041 -0.0760  0.1327
   92SOL    HW1  275   2.601   1.233   0.896  0.3827  0.7132 -1.0292
   92SOL    HW2  276   2.490   1.126   0.946  0.9898  0.9164  0.7147
   93SOL     OW  277   2.567   0.732   2.455  0.2456 -0.4066 -0.3345
   93SOL    HW1  278   2.518   0.644   2.441 -0.2994  1.3551 -1.1637
   93SOL    HW2  279   2.495   0.800   2.476 -0.4224  1.4111 -1.7546
   94SOL     OW  280   2.359   1.894   2.363 -0.3771  0.1656  0.1237
   94SOL    HW1  281   2.297   1.893   2.282  0.4346  1.0601 -0.7127
   94SOL    HW2  282   2.327   1.971   2.423 -2.2070  0.2359  2.1206
   95SOL     OW  283   2.220   0.616   0.987  0.4542 -0.0753 -0.1626
   95SOL    HW1  284   2.160   0.533   0.990 -2.9064  3.2410 -0.2295
   95SOL    HW2  285   2.308   0.609   1.040 -2.4883  0.4501 -1.4228
   96SOL     OW  286   2.662   2.954   1.884 -0.3655  0.2241  0.5524
   96SOL    HW1  287   2.564   2.928   1.895  0.1043 -0.8063 -1.8606
   96SOL    HW2  288   2.673   3.010   1.802 -1.8428 -1.6478  0.3204
   97SOL     OW  289   2.740   0.923   1.216  0.2257 -0.1352 -0.1806
   97SOL    HW1  290   2.832   0.891   1.241  1.2726 -2.0477  0.1176
   97SOL    HW2  291   2.693   0.965   1.295  0.3249  1.6762 -1.3298
   98SOL     OW  292   1.457   2.365   1.623  0.2663 -0.1295 -0.0645
   98SOL    HW1  293   1.433   2.386   1.523 -1.1906 -0.2435  0.4281
   98SOL    HW2  294   1.506   2.438   1.672 -2.9426 -0.7533  0.9855
   99SOL     OW  295   2.671   2.359   1.702 -0.3099 -0.1497 -0.9111
   99SOL    HW1  296   2.743   2.342   1.631  1.0629 -2.4757 -0.4242
   99SOL    HW2  297   2.578   2.360   1.662 -0.2167  0.8969 -0.7350
  100SOL     OW  298   0.982   0.787   2.868 -0.1850  0.7977 -0.0445
  100SOL    HW1  299   0.972   0.833   2.961 -0.6012 -1.3227  0.0077
  100SOL    HW2  300   1.046   0.849   2.822 -0.6230 -2.8717 -1.2384
  101SOL     OW  301   2.206   0.256   2.831 -0.0807 -0.6561  0.2177
  101SOL    HW1  302   2.127   0.207   2.794  1.5496 -0.5799 -0.3302
  101SOL    HW2  303   2.182   0.336   2.894  2.8858  0.1687  0.4586
  102SOL     OW  304   0.577   0.431   1.729  0.7396  0.7447  0.0166
  102SOL    HW1  305   0.577   0.531   1.737  1.0241  0.8345  1.5157
  102SOL    HW2  306   0.488   0.388   1.759 -0.3733 -0.8930 -0.6237
  103SOL     OW  307   0.383   0.445   2.959 -0.1953 -0.0004  0.1506
  103SOL    HW1  308   0.482   0.457   2.941  1.0932 -0.8671  2.2071
  103SOL    HW2  309   0.318   0.477   2.883 -1.5204 -0.2442 -0.0079
  104SOL     OW  310   0.938   0.143   2.508  0.5250 -0.2830  0.2519
  104SOL    HW1  311   1.031   0.099   2.526  0.1124 -0.6144 -1.0488
  104SOL    HW2  312   0.864   0.086   2.556 -0.3378 -0.7371  1.1672
  105SOL     OW  313   2.277   1.783   1.791  0.3116 -0.2038 -0.4313
  105SOL    HW1  314   2.297   1.682   1.803  0.7122 -1.2626  0.8557
  105SOL    HW2  315   2.352   1.841   1.829 -3.6930 -2.7395  0.8181
  106SOL     OW  316   1.873   0.796   0.408  0.1047  0.2832 -0.4716
  106SOL    HW1  317   1.891   0.768   0.502  0.8581  1.5327  0.3142
  106SOL    HW2  318   1.949   0.766   0.341  1.6744 -1.5795 -0.0764
  107SOL     OW  319   2.906   1.914   0.958 -0.1150 -0.1511  0.2136
  107SOL    HW1  320   2.916   1.987   1.029 -3.6242 -0.4336 -0.7473
  107SOL    HW2  321   3.001   1.887   0.926 -0.5575 -1.0353 -1.8885
  108SOL     OW  322   2.672   2.627   1.709  0.7262 -0.5069 -0.2235
  108SOL    HW1  323   2.742   2.682   1.760  1.2547  2.2308  1.4194
  108SOL    HW2  324   2.679   2.530   1.745  1.0780 -0.4949  1.4944
  109SOL     OW  325   1.886   2.582   0.921  0.3076  0.6061 -0.1703
  109SOL    HW1  326   1.881   2.476   0.891 -1.8384 -0.5929  0.9751
  109SOL    HW2  327   1.868   2.582   1.021 -1.3940 -2.1145  0.0481
  110SOL     OW  328   0.592   1.870   2.417  0.4848 -0.1988  0.1140
  110SOL    HW1  329   0.546   1.872   2.510  1.3177  0.2163  1.7903
  110SOL    HW2  330   0.592   1.961   2.371 -0.3884 -2.0694 -0.7802
  111SOL     OW  331   1.600   2.225   2.189  0.6119 -0.3784 -0.1136
  111SOL    HW1  332   1.550   2.144   2.149 -1.2403  4.0267  0.7876
  111SOL    HW2  333   1.699   2.216   2.180 -1.9279  1.3096  1.5213
  112SOL     OW  334   2.054   1.954   3.078  0.0181  0.0068 -0.3344
  112SOL    HW1  335   2.086   1.916   0.073 -0.3585 -0.8346  0.0781
  112SOL    HW2  336   1.968   2.005   3.094  1.7287  0.7491  0.4597
  113SOL     OW  337   1.604   2.046   1.362 -0.1430  0.2256  0.3582
  113SOL    HW1  338   1.563   1.970   1.420 -1.5529 -0.0048  0.3259
  113SOL    HW2  339   1.702   2.061   1.389 -1.6257 -1.7863  2.3287
  114SOL     OW  340   2.890   1.207   0.681 -0.5022  0.3444 -0.0524
  114SOL    HW1  341   2.913   1.279   0.750  0.2067  0.0343 -1.5533
  114SOL    HW2  342   2.843   1.237   0.594  0.8022  0.1484 -0.9832
  115SOL     OW  343   0.790   0.615   0.201 -0.1940  0.3847  0.3526
  115SOL    HW1  344   0.712   0.678   0.217 -2.0100 -0.4396  1.7167
  115SOL    HW2  345   0.760   0.520   0.219  0.9075  1.2391  3.1295
  116SOL     OW  346   2.693   1.345   2.418 -0.1678  0.1118  0.5675
  116SOL    HW1  347   2.724   1.271   2.480 -1.3118  2.3681  0.9396
  116SOL    HW2  348   2.749   1.423   2.423  0.8452 -2.9570 -0.7330
  117SOL     OW  349   0.192   3.067   0.741 -0.0038 -0.2789 -0.5445
  117SOL    HW1  350   0.190   3.090   0.640  1.2116  0.3030 -1.1816
  117SOL    HW2  351   0.226   2.972   0.754 -0.3097 -2.0159  0.9692
  118SOL     OW  352   1.031   1.802   2.628  0.0762  0.1098  0.3855
  118SOL    HW1  353   1.098   1.788   2.706  0.1691 -0.3702  2.7194
  118SOL    HW2  354   0.939   1.771   2.660  0.0121 -1.3069  0.5936
  119SOL     OW  355   0.332   2.360   0.197 -0.3263  0.1937 -0.0487
  119SOL    HW1  356   0.312   2.277   0.247  1.1937  2.3957 -2.4710
  119SOL    HW2  357   0.252   2.419   0.163 -0.7453  0.5127  0.0361
  120SOL     OW  358   1.396   0.892   3.037 -0.0266 -0.5103 -0.1856
  120SOL    HW1  359   1.406   0.853   2.939 -1.9892 -2.2116 -0.6863
  120SOL    HW2  360   1.297   0.908   3.058 -3.4951  0.6599 -1.9470
  121SOL     OW  361   1.391   2.580   0.810 -0.1922 -0.5428  0.1056
  121SOL    HW1  362   1.400   2.489   0.760  0.5066 -0.5806 -1.5450
  121SOL    HW2  363   1.483   2.623   0.823 -0.2252  1.4212  0.7261
  122SOL     OW  364   2.167   2.628   1.534  0.1719 -0.4963 -0.0863
  122SOL    HW1  365   2.256   2.666   1.563 -1.4119 -0.2145 -1.2413
  122SOL    HW2  366   2.148   2.653   1.438  0.4018 -1.4212  3.2158
  123SOL     OW  367   0.492   2.165   0.571 -0.6518 -0.5301 -0.3110
  123SOL    HW1  368   0.461   2.254   0.607  0.3614  0.4932 -3.6023
  123SOL    HW2  369   0.424   2.126   0.504 -0.8830 -1.0639 -2.8809
  124SOL     OW  370   2.509   0.688   0.104  0.0087  0.2001 -0.1200
  124SOL    HW1  371   2.524   0.612   0.170  0.5615 -0.9115 -1.5446
  124SOL    HW2  372   2.555   0.673   0.011 -2.4029 -1.2894  0.6792
  125SOL     OW  373   0.484   1.124   0.416 -0.1164  0.0686  0.1927
  125SOL    HW1  374   0.494   1.063   0.499  0.0391  1.2926  2.0465
  125SOL    HW2  375   0.535   1.090   0.333  0.6026 -0.2286 -0.9274
  126SOL     OW  376   0.204   1.679   1.108 -0.1133 -0.1577  0.6278
  126SOL    HW1  377   0.278   1.619   1.087  0.8641  1.5966  1.7393
  126SOL    HW2  378   0.235   1.767   1.153  0.1079 -1.5749  0.0418
  127SOL     OW  379   0.907   1.959   2.274 -0.0353  0.6524  0.1966
  127SOL    HW1  380   0.947   1.864   2.249  0.3073 -2.1696  0.8078
  127SOL    HW2  381   0.951   1.991   2.358  0.8734 -1.9893 -0.8884
  128SOL     OW  382   0.951   1.169   0.190 -0.0799 -0.1377 -0.2994
  128SOL    HW1  383   0.990   1.247   0.232 -0.7695 -3.6791 -3.6913
  128SOL    HW2  384   1.022   1.096   0.179  3.8156 -3.6970 -2.0683
  129SOL     OW  385   2.334   1.283   0.577  0.7308 -0.3493 -0.3085
  129SOL    HW1  386   2.360   1.381   0.573  0.1144  2.5715 -0.6189
  129SOL    HW2  387   2.264   1.273   0.653  0.2713 -0.8985  1.4149
  130SOL     OW  388   2.544   1.604   1.345  0.0132  0.2995  0.0465
  130SOL    HW1  389   2.625   1.651   1.293  1.3434 -0.6942 -0.1407
  130SOL    HW2  390   2.508   1.518   1.296 -1.1879 -2.3949  1.3147
  131SOL     OW  391   3.071   2.905   2.913 -0.1519  0.3063 -0.2376
  131SOL    HW1  392   2.995   2.959   2.959 -1.6265  1.0165  1.5118
  131SOL    HW2  393   0.058   2.964   2.886 -0.7360  0.7910  1.2801
  132SOL     OW  394   0.408   1.427   0.756 -0.0498 -0.4330  0.5530
  132SOL    HW1  395   0.502   1.393   0.744  0.1217  0.1585  0.3190
  132SOL    HW2  396   0.342   1.355   0.780 -2.8090  0.5475  2.0860
  133SOL     OW  397   0.824   0.418   1.626  0.2793  0.4059  0.0982
  133SOL    HW1  398   0.737   0.391   1.673 -2.2929 -1.3409 -0.2824
  133SOL    HW2  399   0.899   0.350   1.646  0.9112  2.4670 -0.3941
  134SOL     OW  400   0.197   1.745   2.844 -0.1365 -0.2302  0.0949
  134SOL    HW1  401   0.116   1.686   2.814 -0.2653 -2.6871 -0.8975
  134SOL    HW2  402   0.164   1.844   2.855 -2.1008 -0.1873 -0.1634
  135SOL     OW  403   1.650   0.514   1.595 -0.0058  0.6734 -0.3177
  135SOL    HW1  404   1.611   0.595   1.553 -1.8694 -2.1719 -2.5276
  135SOL    HW2  405   1.592   0.478   1.678  0.8612 -0.9010  0.8433
  136SOL     OW  406   0.050   1.241   0.221 -0.1436 -0.2593  0.4428
  136SOL    HW1  407   0.109   1.216   0.299 -0.7067  0.0836 -0.5343
  136SOL    HW2  408   3.068   1.173   0.218 -0.0978 -0.7269 -0.9272
  137SOL     OW  409   0.217   1.247   1.120  0.4371 -0.0282  0.0096
  137SOL    HW1  410   0.174   1.258   1.033  2.1047 -0.6509  2.1788
  137SOL    HW2  411   0.179   1.324   1.179  0.6949 -1.0949 -0.0182
  138SOL     OW  412   2.016   0.792   1.078  0.4210 -0.2378 -0.0551
  138SOL    HW1  413   2.083   0.726   1.050 -0.6362 -0.4456 -0.5047
  138SOL    HW2  414   1.998   0.784   1.176 -2.0505 -0.3664  0.6210
  139SOL     OW  415   1.501   2.619   0.335 -0.3087 -0.2510 -0.0180
  139SOL    HW1  416   1.423   2.647   0.278 -0.2502 -0.4711  1.1589
  139SOL    HW2  417   1.528   2.521   0.320  1.0548 -0.0968 -0.5834
  140SOL     OW  418   1.363   1.684   1.742  0.5812  0.0732 -1.0438
  140SOL    HW1  419   1.306   1.754   1.701  1.0676 -1.4763 -0.2592
  140SOL    HW2  420   1.307   1.597   1.765 -1.3246 -3.3853 -0.4547
  141SOL     OW  421   1.533   2.007   0.478 -0.1833  0.1081  0.2286
  141SOL    HW1  422   1.633   2.020   0.464 -2.1374 -0.2640  0.8560
  141SOL    HW2  423   1.521   1.950   0.561 -0.3990  2.8721  1.1881
  142SOL     OW  424   1.086   0.564   2.971  0.0396  0.1237  0.3296
  142SOL    HW1  425   1.154   0.540   2.899 -1.4890 -1.5706 -0.8249
  142SOL    HW2  426   1.038   0.653   2.944 -0.5757  2.5464 -1.1770
  143SOL     OW  427   0.405   1.995   2.757 -0.7311 -0.1029  0.2515
  143SOL    HW1  428   0.323   1.963   2.810 -1.8868  0.3307  0.0985
  143SOL    HW2  429   0.377   2.045   2.669 -0.7299 -0.0801 -1.5100
  144SOL     OW  430   1.554   2.939   1.490  0.0102  0.5729  0.2871
  144SOL    HW1  431   1.620   2.968   1.418  0.5810 -0.8342 -0.1376
  144SOL    HW2  432   1.459   2.943   1.462  3.4089 -1.9898  0.4949
  145SOL     OW  433   2.000   1.066   2.882  0.2208 -0.6884  0.2754
  145SOL    HW1  434   2.018   1.093   2.980  1.4560 -1.6047  1.3565
  145SOL    HW2  435   1.917   1.113   2.843  0.1932  1.2815 -1.4794
  146SOL     OW  436   0.109   2.661   0.977 -0.1825 -0.1625 -0.0368
  146SOL    HW1  437   0.090   2.754   1.018  1.5920 -0.1967  0.5163
  146SOL    HW2  438   0.051   2.645   0.893 -1.2321 -2.0252 -0.7624
  147SOL     OW  439   2.144   3.020   1.824  0.0213  0.2451  0.6911
  147SOL    HW1  440   2.091   3.011   1.908 -0.5972  3.8799 -1.7259
  147SOL    HW2  441   2.224   3.084   1.837  0.9785  0.0658 -1.5443
  148SOL     OW  442   0.685   2.701   2.065  0.5309  0.3419  0.1134
  148SOL    HW1  443   0.725   2.790   2.041 -1.9785  1.0237  1.4823
  148SOL    HW2  444   0.586   2.710   2.045  2.6277  0.6823 -1.3485
  149SOL     OW  445   1.904   0.275   2.528  0.2847  0.1618 -0.2918
  149SOL    HW1  446   1.808   0.302   2.515  2.3299  1.3897  2.4554
  149SOL    HW2  447   1.944   0.226   2.443  0.2563 -0.1788 -0.5947
  150SOL     OW  448   2.965   0.018   0.223  0.5713 -0.1195 -0.3181
  150SOL    HW1  449   3.054   0.056   0.193  0.3508  1.8303  1.7761
  150SOL    HW2  450   2.958   0.024   0.325 -2.8072  0.7437  2.1637
  151SOL     OW  451   0.276   2.103   0.382  0.3666 -0.5458  0.0536
  151SOL    HW1  452   0.241   2.010   0.378  1.6400  3.4377  0.9874
  151SOL    HW2  453   0.195   2.169   0.385 -1.9212 -0.4941  1.9817
  152SOL     OW  454   2.978   0.358   0.494  0.5822 -0.9342  0.0427
  152SOL    HW1  455   3.006   0.401   0.580 -1.6641  1.8685 -1.8320
  152SOL    HW2  456   2.887   0.395   0.477  0.8747 -1.6900 -1.1176
  153SOL     OW  457   2.436   0.576   1.139  0.7370 -0.5938  0.1331
  153SOL    HW1  458   2.423   0.540   1.235 -1.3199 -0.0227  1.7318
  153SOL    HW2  459   2.520   0.526   1.110  1.0145 -1.2308  0.6454
  154SOL     OW  460   0.829   0.290   2.298  0.2560 -0.4942 -0.0003
  154SOL    HW1  461   0.880   0.229   2.362  1.4302 -1.4028  0.7678
  154SOL    HW2  462   0.883   0.371   2.273 -0.1936 -2.3481 -0.6905
  155SOL     OW  463   0.621   1.840   1.097 -0.4293  0.2633  0.8309
  155SOL    HW1  464   0.559   1.919   1.095 -0.0230  1.8093 -1.1581
  155SOL    HW2  465   0.604   1.782   1.183  0.3435  0.9560  1.3159
  156SOL     OW  466   2.408   2.040   0.262 -0.6070 -0.1589  0.1205
  156SOL    HW1  467   2.371   2.132   0.235  0.4221 -0.4522 -1.8231
  156SOL    HW2  468   2.394   2.017   0.357  1.7483  1.1700 -4.5717
  157SOL     OW  469   0.998   0.579   0.380 -0.2136  0.0661 -0.2787
  157SOL    HW1  470   0.938   0.569   0.465 -0.0491  1.1486  0.9741
  157SOL    HW2  471   0.942   0.617   0.311 -0.1286 -2.2853  3.4029
  158SOL     OW  472   2.588   3.088   2.768  0.1911  0.1205 -0.7240
  158SOL    HW1  473   2.640   3.037   2.696  3.0013 -2.0735 -0.5327
  158SOL    HW2  474   2.553   0.082   2.734  0.9201  0.5093 -2.5746
  159SOL     OW  475   0.309   0.493   0.763  0.2371  0.0326 -0.4285
  159SOL    HW1  476   0.285   0.476   0.665 -0.1697 -2.3477  3.6499
  159SOL    HW2  477   0.303   0.406   0.816  0.9662 -1.6051 -2.1558
  160SOL     OW  478   1.359   1.680   2.435 -0.2771  0.6550  0.0186
  160SOL    HW1  479   1.339   1.638   2.527  2.0956  1.9826 -1.1390
  160SOL    HW2  480   1.304   1.765   2.418  1.7042 -1.0960  0.0350
  161SOL     OW  481   0.009   1.327   2.558 -0.0250 -0.0774 -0.5047
  161SOL    HW1  482   0.058   1.318   2.649 -0.7178 -0.7674  3.5890
  161SOL    HW2  483   3.005   1.344   2.578 -3.6376  0.0360 -3.4783
  162SOL     OW  484   0.581   2.299   1.539  0.9764 -0.3458 -0.5078
  162SOL    HW1  485   0.602   2.213   1.582  0.6130  1.8572 -1.6625
  162SOL    HW2  486   0.634   2.313   1.454  1.5176  1.3392  0.6180
  163SOL     OW  487   2.025   0.189   2.307  0.0333  0.4913  0.1022
  163SOL    HW1  488   2.019   0.090   2.309  0.0863 -0.3465  2.3468
  163SOL    HW2  489   2.009   0.228   2.212  0.1632  1.3814 -1.0233
  164SOL     OW  490   1.919   1.805   0.278  0.8035 -0.4535 -0.1102
  164SOL    HW1  491   1.861   1.823   0.361  1.6314 -0.2337  0.8378
  164SOL    HW2  492   1.871   1.743   0.214 -0.2241  0.5403 -1.9043
  165SOL     OW  493   2.828   0.041   1.583 -0.1889  0.1366  0.3951
  165SOL    HW1  494   2.872   3.043   1.589  0.6019 -1.2886 -1.4715
  165SOL    HW2  495   2.831   0.079   1.485  1.3515  1.5490 -2.8524
  166SOL     OW  496   2.027   1.100   0.047  0.2602 -0.9303 -0.6003
  166SOL    HW1  497   2.115   1.153   0.057  0.2016 -0.1326 -1.4761
  166SOL    HW2  498   1.963   1.115   0.127  1.4633 -0.0050 -2.0878
  167SOL     OW  499   2.925   0.821   0.136  0.5985  0.2885 -0.5720
  167SOL    HW1  500   2.905   0.727   0.094 -1.3920 -2.3983  2.5843
  167SOL    HW2  501   2.968   0.876   0.063 -1.0654  0.6440 -2.6430
  168SOL     OW  502   1.653   2.841   2.598  0.1201 -0.5993  0.2126
  168SOL    HW1  503   1.646   2.940   2.620  1.0108 -1.8319  0.0548
  168SOL    HW2  504   1.664   2.787   2.681  1.7460  0.9374  0.1778
  169SOL     OW  505   0.486   1.686   0.398 -0.0772  1.0262  0.0330
  169SOL    HW1  506   0.437   1.710   0.311 -0.9146  2.1024  0.1473
  169SOL    HW2  507   0.499   1.582   0.414 -1.5719 -0.4605  0.4215
  170SOL     OW  508   0.320   0.248   1.200 -0.3860  0.2883  0.3145
  170SOL    HW1  509   0.350   0.295   1.285 -0.6379 -2.7497 -1.0292
  170SOL    HW2  510   0.334   0.150   1.218 -1.5292  2.2278 -0.8559
  171SOL     OW  511   1.476   2.258   2.834  0.6422  0.6675  0.3930
  171SOL    HW1  512   1.573   2.280   2.819  0.7195 -2.0341 -0.6554
  171SOL    HW2  513   1.416   2.302   2.763  1.9722  1.1575 -0.1185
  172SOL     OW  514   2.909   2.862   1.140  0.2352 -0.1170  0.3405
  172SOL    HW1  515   2.866   2.798   1.212 -0.4903  0.2507 -0.1886
  172SOL    HW2  516   3.012   2.860   1.143  1.0150  1.9188 -1.6035
  173SOL     OW  517   1.659   0.846   2.710  0.5848 -0.9549 -0.6068
  173SOL    HW1  518   1.699   0.829   2.804 -1.3701 -1.1428 -0.6196
  173SOL    HW2  519   1.685   0.774   2.643  0.2057 -0.6196  0.5839
  174SOL     OW  520   1.329   0.145   2.885  0.8991  0.3325  0.4294
  174SOL    HW1  521   1.395   0.158   2.959 -0.4695  0.5774 -1.6637
  174SOL    HW2  522   1.232   0.169   2.908 -0.0573 -2.0999  0.5739
  175SOL     OW  523   2.116   2.012   0.528  0.2372 -0.1752  0.0063
  175SOL    HW1  524   2.095   2.103   0.570  0.1701 -0.2515  0.2125
  175SOL    HW2  525   2.055   1.942   0.573 -0.8098 -0.6859  0.1552
  176SOL     OW  526   1.585   0.212   3.003  0.0319  0.3068 -0.0067
  176SOL    HW1  527   1.569   0.311   3.013 -1.0922  0.8218  1.3188
  176SOL    HW2  528   1.682   0.189   2.975  2.3353 -0.4328 -1.5812
  177SOL     OW  529   1.014   1.602   0.252 -0.0211  0.0502  0.3148
  177SOL    HW1  530   0.994   1.702   0.231 -0.5149  1.3787  0.9578
  177SOL    HW2  531   1.006   1.551   0.165 -0.9257 -0.3392 -0.2591
  178SOL     OW  532   2.544   2.282   0.020  0.5235 -0.0285  0.0628
  178SOL    HW1  533   2.463   2.338   0.039  0.3233  0.4589 -0.0061
  178SOL    HW2  534   2.525   2.188   3.080  0.7259 -1.6842  1.1898
  179SOL     OW  535   2.831   2.722   2.985  0.0529 -0.6460  0.1349
  179SOL    HW1  536   2.880   2.717   2.899  1.5974  1.0089 -0.0804
  179SOL    HW2  537   2.859   2.811   3.036  0.4871  2.1110  0.4966
  180SOL     OW  538   1.805   1.629   0.944 -0.2528  0.0184  0.1493
  180SOL    HW1  539   1.823   1.640   1.043  2.0084 -1.0110  2.2753
  180SOL    HW2  540   1.740   1.561   0.911  2.3799 -1.0245 -1.9259
  181SOL     OW  541   1.920   0.758   2.275 -0.0993 -0.0273  0.2750
  181SOL    HW1  542   1.942   0.854   2.265  0.4761 -1.9452 -0.5276
  181SOL    HW2  543   1.858   0.720   2.200 -1.5628  0.4721  0.6502
  182SOL     OW  544   2.670   2.929   2.569  0.1246  0.2668 -0.6926
  182SOL    HW1  545   2.672   2.842   2.622 -0.2468  0.9371 -0.1960
  182SOL    HW2  546   2.615   2.913   2.482 -1.2785  1.6120 -1.4656
  183SOL     OW  547   1.723   0.640   2.122  0.0884  0.6335  0.1511
  183SOL    HW1  548   1.762   0.680   2.036 -0.0398 -1.9612  0.6164
  183SOL    HW2  549   1.707   0.543   2.109 -0.4787  1.4133 -1.1005
  184SOL     OW  550   0.355   1.080   1.273  0.0763 -0.2996  0.5887
  184SOL    HW1  551   0.296   1.111   1.194  0.6605  2.2033 -1.2237
  184SOL    HW2  552   0.299   1.066   1.356  2.4509  0.3407 -0.1457
  185SOL     OW  553   1.920   0.634   0.681 -0.6100  0.1558  0.1557
  185SOL    HW1  554   2.021   0.637   0.673 -0.2872 -0.4848  0.8846
  185SOL    HW2  555   1.889   0.562   0.744 -2.6688  2.8096 -4.3811
  186SOL     OW  556   0.375   2.788   3.052 -0.2390  0.7682  0.0002
  186SOL    HW1  557   0.419   2.717   0.011 -2.1246  3.7226 -1.7724
  186SOL    HW2  558   0.357   2.868   0.020  0.0761 -2.1683 -0.1925
  187SOL     OW  559   2.478   0.870   2.764 -0.3948  0.2646 -0.0508
  187SOL    HW1  560   2.472   0.938   2.689  1.6551 -1.4580  1.8667
  187SOL    HW2  561   2.575   0.853   2.793 -1.1948  0.8818 -3.1267
  188SOL     OW  562   0.064   1.365   1.456 -0.0119  0.1815 -0.0648
  188SOL    HW1  563   0.088   1.315   1.541 -0.8350  0.5398 -2.4641
  188SOL    HW2  564   0.142   1.429   1.435  0.9762 -1.3251 -3.7019
  189SOL     OW  565   2.672   0.293   3.021  0.1883  0.1111  0.6029
  189SOL    HW1  566   2.773   0.276   3.026 -0.4090  1.1699 -2.6798
  189SOL    HW2  567   2.659   0.365   2.952 -0.7993 -0.4567  1.4935
  190SOL     OW  568   1.349   1.030   1.876 -0.7696  0.5964  0.2984
  190SOL    HW1  569   1.372   1.010   1.974 -0.4946  0.9787  0.7537
  190SOL    HW2  570   1.382   1.123   1.853 -1.0637  0.3844  1.9777
  191SOL     OW  571   0.096   0.336   1.845 -0.6965 -0.4031  0.1763
  191SOL    HW1  572   0.019   0.314   1.783 -0.7993  2.2644  0.6563
  191SOL    HW2  573   0.079   0.418   1.902  0.5409 -1.0753  0.9691
  192SOL     OW  574   2.036   1.342   1.124  0.7640 -0.1401  0.0415
  192SOL    HW1  575   1.987   1.297   1.049 -0.3998  1.4844  1.0502
  192SOL    HW2  576   2.092   1.421   1.101 -1.5400 -0.8884  1.0878
  193SOL     OW  577   1.278   0.839   0.997  0.2757 -0.2035 -0.3157
  193SOL    HW1  578   1.226   0.849   0.912  0.3830 -2.8380 -1.1272
  193SOL    HW2  579   1.216   0.811   1.071  1.8777  0.5966  2.4943
  194SOL     OW  580   1.048   2.445   1.804  0.2472 -0.0461  0.5308
  194SOL    HW1  581   1.085   2.509   1.736 -1.1235 -2.5946  0.8588
  194SOL    HW2  582   0.948   2.457   1.813  2.6575 -0.3046  0.3359
  195SOL     OW  583   1.858   0.197   2.936 -0.7887  0.2991 -0.1881
  195SOL    HW1  584   1.876   0.199   2.839  0.9847  3.1507  1.4133
  195SOL    HW2  585   1.920   0.125   2.980  0.5644 -3.0585  0.9684
  196SOL     OW  586   0.847   2.089   1.810  0.1070 -0.0053  0.0808
  196SOL    HW1  587   0.868   1.989   1.814 -0.0342  0.3466 -0.7521
  196SOL    HW2  588   0.932   2.141   1.788  1.6921  0.4184  1.1795
  197SOL     OW  589   1.045   0.108   1.125  0.3555 -0.0623  0.1281
  197SOL    HW1  590   1.111   0.156   1.070 -1.3918  0.2480  0.4089
  197SOL    HW2  591   0.971   0.173   1.152  0.0619  1.0056  3.9303
  198SOL     OW  592   0.865   0.919   0.881  0.5282  0.1351  0.3730
  198SOL    HW1  593   0.898   0.952   0.971 -0.6177  0.3171  2.4864
  198SOL    HW2  594   0.776   0.866   0.892  2.8260  1.5445  1.5039
  199SOL     OW  595   3.074   2.534   1.684  0.6002  0.1586  0.2058
  199SOL    HW1  596   3.083   2.626   1.732  0.1955 -0.4389  0.2813
  199SOL    HW2  597   3.091   2.540   1.583  0.1786 -1.1241  2.6505
  200SOL     OW  598   2.056   2.217   2.190 -0.8490 -0.0613  0.0297
  200SOL    HW1  599   2.131   2.215   2.121  0.1618  2.6564  0.2720
  200SOL    HW2  600   2.095   2.249   2.279 -1.0667  0.7660  1.7973
  201SOL     OW  601   0.254   1.439   1.936  0.1267  0.0750 -0.3795
  201SOL    HW1  602   0.185   1.411   1.869 -0.2430  0.4660 -0.4386
  201SOL    HW2  603   0.313   1.363   1.964 -0.5888  1.6909 -1.5418
  202SOL     OW  604   2.218   0.426   0.175 -0.3974 -0.4033  0.2484
  202SOL    HW1  605   2.233   0.357   0.106 -1.2782  5.6375  3.5584
  202SOL    HW2  606   2.266   0.401   0.264 -0.2018  0.3839 -1.4877
  203SOL     OW  607   1.059   2.451   2.096 -0.4775  0.3015 -0.2420
  203SOL    HW1  608   0.972   2.485   2.142  0.6641  0.2042 -1.8105
  203SOL    HW2  609   1.041   2.445   1.998 -0.1527  1.2235  0.3149
  204SOL     OW  610   1.118   2.189   1.849 -0.4042  0.4036  0.4381
  204SOL    HW1  611   1.176   2.162   1.767 -0.0414 -0.7321  0.8366
  204SOL    HW2  612   1.100   2.294   1.841  1.9780  2.5412 -1.4723
  205SOL     OW  613   1.708   1.717   2.105 -0.1118 -0.4227 -0.1177
  205SOL    HW1  614   1.649   1.781   2.050 -1.3860 -1.7368 -0.9857
  205SOL    HW2  615   1.650   1.637   2.116 -0.4105  2.9137  0.7556
  206SOL     OW  616   0.346   0.749   2.448 -0.2164  0.9955  0.0395
  206SOL    HW1  617   0.345   0.654   2.482  1.0109 -0.7757 -0.1411
  206SOL    HW2  618   0.433   0.804   2.465  3.0603  2.2904  0.7229
  207SOL     OW  619   0.923   2.804   1.929  0.0426 -0.6246 -0.6932
  207SOL    HW1  620   0.858   2.878   1.957  0.6181  0.4278  0.8323
  207SOL    HW2  621   0.892   2.776   1.836  0.3749 -0.5251 -0.1036
  208SOL     OW  622   0.418   2.688   1.991  0.4659 -0.2358 -0.1015
  208SOL    HW1  623   0.380   2.593   1.990  2.7461 -0.1622  0.5967
  208SOL    HW2  624   0.402   2.724   1.899  0.5884 -0.1566  1.2080
  209SOL     OW  625   1.518   0.453   3.061  0.2790  0.1844  0.4334
  209SOL    HW1  626   1.578   0.513   0.015 -1.4513  0.3717  0.5372
  209SOL    HW2  627   1.490   0.499   2.969  0.1693  0.1535 -4.3115
  210SOL     OW  628   2.762   0.530   0.452 -0.0485 -0.1952 -0.0007
  210SOL    HW1  629   2.711   0.544   0.544  0.5072  0.0796  4.0708
  210SOL    HW2  630   2.771   0.624   0.411 -0.9797 -1.4884  2.7895
  211SOL     OW  631   0.717   0.425   1.385  0.0208 -0.5560 -0.1290
  211SOL    HW1  632   0.739   0.521   1.352  0.3522 -0.0767 -1.2367
  211SOL    HW2  633   0.759   0.410   1.473  1.0885  0.7409 -2.3888
  212SOL     OW  634   1.398   1.822   1.262  0.8171  0.3728  0.0804
  212SOL    HW1  635   1.373   1.893   1.192 -1.4409  1.2444 -1.6972
  212SOL    HW2  636   1.488   1.776   1.242  1.2270  0.2639  0.8934
  213SOL     OW  637   2.226   0.305   1.755  0.5538  0.9472  1.0466
  213SOL    HW1  638   2.292   0.231   1.728 -0.5426 -0.5323  0.9396
  213SOL    HW2  639   2.240   0.341   1.853  1.0321 -0.2383  0.1513
  214SOL     OW  640   0.960   2.416   2.724 -0.6713  0.3842 -0.0833
  214SOL    HW1  641   0.961   2.344   2.656  1.2030  1.6011 -1.7079
  214SOL    HW2  642   0.887   2.409   2.791  0.1584 -0.8471 -1.7286
  215SOL     OW  643   2.833   1.463   1.557  0.3932 -0.0809  0.0016
  215SOL    HW1  644   2.906   1.407   1.595 -1.9901 -1.7440  0.3674
  215SOL    HW2  645   2.836   1.467   1.456  0.3906  0.3347 -2.5444
  216SOL     OW  646   0.587   0.992   1.583 -0.1906  0.3097 -0.3331
  216SOL    HW1  647   0.520   1.063   1.614 -0.4116 -0.0954  0.1318
  216SOL    HW2  648   0.549   0.939   1.500 -2.2781 -0.7549 -1.9465
  217SOL     OW  649   3.003   0.103   0.459  0.7963 -0.4665  0.6315
  217SOL    HW1  650   2.938   0.074   0.530 -0.9042  0.4808 -1.5931
  217SOL    HW2  651   2.995   0.205   0.448  0.6231  2.0567  0.9582
  218SOL     OW  652   1.763   1.890   0.874 -0.3809 -0.2130  0.0982
  218SOL    HW1  653   1.738   1.939   0.962 -0.3479 -0.8507 -0.0987
  218SOL    HW2  654   1.793   1.792   0.896  0.6024 -0.0859  0.7687
  219SOL     OW  655   1.674   0.155   0.355  0.3313 -0.4411 -0.2146
  219SOL    HW1  656   1.641   0.180   0.445  2.5950 -2.0264 -2.3471
  219SOL    HW2  657   1.740   0.220   0.318 -1.1385 -1.4858 -1.5340
  220SOL     OW  658   1.418   2.031   1.017  0.4698  0.2169  0.2742
  220SOL    HW1  659   1.365   1.954   0.983 -2.3564 -2.0367  2.5525
  220SOL    HW2  660   1.518   2.014   1.024 -3.6445  0.8964 -1.6274
  221SOL     OW  661   2.931   1.079   0.218 -0.0673  0.0557  0.0545
  221SOL    HW1  662   2.848   1.127   0.177 -2.2601 -1.1903 -0.0347
  221SOL    HW2  663   2.917   0.978   0.208 -0.3731 -0.4934  3.0980
  222SOL     OW  664   0.893   2.471   1.513  0.5697  0.1316  0.2700
  222SOL    HW1  665   0.800   2.466   1.469  1.4213  0.6007 -0.1896
  222SOL    HW2  666   0.952   2.530   1.458  0.6182 -2.1574 -1.9928
  223SOL     OW  667   1.292   0.353   0.108  0.4153  0.2687  0.3842
  223SOL    HW1  668   1.233   0.428   0.068 -2.2459  0.7765  1.5981
  223SOL    HW2  669   1.385   0.353   0.069 -0.2991  0.5507 -1.5569
  224SOL     OW  670   2.912   0.789   0.944 -0.3297  0.2942 -0.1919
  224SOL    HW1  671   2.862   0.878   0.921  0.6126  1.3273  0.7949
  224SOL    HW2  672   2.973   0.811   1.023  0.1570  0.6932  0.8345
  225SOL     OW  673   0.814   1.619   1.345 -0.1397 -0.0805  0.3963
  225SOL    HW1  674   0.905   1.657   1.321 -0.0937 -0.6279 -1.1579
  225SOL    HW2  675   0.808   1.528   1.301  2.3972 -0.3082 -0.1705
  226SOL     OW  676   0.659   2.727   0.790  0.2550 -0.1760  0.9164
  226SOL    HW1  677   0.666   2.830   0.801 -0.9772  2.0432 -1.0848
  226SOL    HW2  678   0.748   2.681   0.782  1.3950  0.3198 -0.9248
  227SOL     OW  679   1.196   1.879   1.654  0.2460  0.0276  0.3888
  227SOL    HW1  680   1.112   1.860   1.711 -3.1266 -0.9457 -1.0989
  227SOL    HW2  681   1.217   1.982   1.652  1.8724 -0.8399 -0.2772
  228SOL     OW  682   0.792   0.218   1.863  0.0676 -0.1775 -0.1697
  228SOL    HW1  683   0.727   0.152   1.820  1.6404  0.9979 -0.9856
  228SOL    HW2  684   0.814   0.192   1.961  0.6850 -4.0357  1.5820
  229SOL     OW  685   2.681   0.649   2.980 -0.1673  0.2539 -0.3151
  229SOL    HW1  686   2.722   0.721   2.922 -0.1370 -1.2089 -1.9492
  229SOL    HW2  687   2.750   0.617   3.047  0.0424 -2.0875  1.0758
  230SOL     OW  688   0.130   0.637   1.350 -0.5780  0.2929  0.3612
  230SOL    HW1  689   0.199   0.676   1.287 -0.9436 -1.1679 -1.5534
  230SOL    HW2  690   0.172   0.583   1.425 -1.0174 -0.4515 -2.0488
  231SOL     OW  691   1.033   2.955   1.244 -0.3101 -0.2262 -0.6244
  231SOL    HW1  692   0.943   2.905   1.247 -1.0832 -2.3455 -0.5974
  231SOL    HW2  693   1.022   3.041   1.191 -2.7370  0.4314  0.3094
  232SOL     OW  694   2.797   2.491   0.490  0.0475 -0.3060 -0.3597
  232SOL    HW1  695   2.791   2.471   0.389  0.7538  0.0307  0.0106
  232SOL    HW2  696   2.731   2.560   0.522 -0.0397 -2.0310  0.3285
  233SOL     OW  697   1.297   2.436   3.032  0.5607 -0.2643  0.1672
  233SOL    HW1  698   1.379   2.393   2.992  2.1672 -1.0177 -0.2733
  233SOL    HW2  699   1.314   2.535   3.036  2.3913  1.5737  0.8652
  234SOL     OW  700   0.687   1.254   1.927 -0.5939  0.0379 -0.4159
  234SOL    HW1  701   0.738   1.338   1.947  0.7926  2.7912  0.1449
  234SOL    HW2  702   0.727   1.171   1.969  0.2041 -2.2296 -1.9856
  235SOL     OW  703   3.094   2.220   2.803 -0.1143  0.4566 -0.2022
  235SOL    HW1  704   0.034   2.232   2.706 -0.1341  0.9980 -0.5510
  235SOL    HW2  705   3.091   2.309   2.855  1.2023  0.9907 -0.3436
  236SOL     OW  706   1.725   2.217   2.660  0.6408  0.2139  0.0917
  236SOL    HW1  707   1.682   2.124   2.659  0.9391  0.7262 -3.1158
  236SOL    HW2  708   1.705   2.264   2.572 -0.2512  0.7422 -1.1745
  237SOL     OW  709   2.051   1.011   0.890 -0.9231 -0.2803  0.1076
  237SOL    HW1  710   2.046   0.935   0.961  0.2845 -0.2680 -0.0743
  237SOL    HW2  711   1.973   1.077   0.903  2.2028  0.3411 -0.4291
  238SOL     OW  712   1.137   2.675   2.006  0.0528  0.1405 -0.3247
  238SOL    HW1  713   1.119   2.589   2.054  2.0068  3.7742  1.0416
  238SOL    HW2  714   1.054   2.727   1.985 -1.1121 -1.9672  0.0098
  239SOL     OW  715   0.506   2.391   1.999  0.5567  0.4195 -0.3733
  239SOL    HW1  716   0.443   2.330   1.950 -1.0800 -1.8993  2.7157
  239SOL    HW2  717   0.589   2.419   1.945  0.2704  0.1758 -2.4136
  240SOL     OW  718   2.836   0.028   0.683  0.5009 -0.3248 -0.3671
  240SOL    HW1  719   2.874   3.032   0.670 -0.4703 -1.1150  0.1541
  240SOL    HW2  720   2.877   0.062   0.769 -1.1226 -2.4436 -0.2374
  241SOL     OW  721   1.220   1.827   2.819 -0.7393 -0.0960 -0.2885
  241SOL    HW1  722   1.155   1.784   2.886 -1.7006 -0.6961  1.3064
  241SOL    HW2  723   1.257   1.914   2.854 -2.8494 -1.1432  3.2903
  242SOL     OW  724   2.382   0.903   3.054  0.3741  1.1754 -0.1273
  242SOL    HW1  725   2.412   0.819   0.009  3.8037 -0.4646 -1.4970
  242SOL    HW2  726   2.418   0.904   2.962 -2.7387 -0.1056  2.4369
  243SOL     OW  727   0.808   0.544   1.947  0.1955  0.0646 -0.0325
  243SOL    HW1  728   0.794   0.450   1.917  1.9801  1.1986 -0.3940
  243SOL    HW2  729   0.905   0.564   1.953 -7.6274 -1.5225  2.7927
  244SOL     OW  730   1.593   2.576   3.040 -0.0805  0.2116  0.2809
  244SOL    HW1  731   1.517   2.616   3.094  0.5349  1.7773 -0.9246
  244SOL    HW2  732   1.663   2.533   0.005  2.2788  0.3202  0.4465
  245SOL     OW  733   1.775   2.448   0.120  0.0349  0.1948 -0.0877
  245SOL    HW1  734   1.709   2.413   0.188  1.8016 -0.9908 -1.2660
  245SOL    HW2  735   1.861   2.469   0.174  0.5779  1.4302  0.3319
  246SOL     OW  736   1.096   0.847   2.454  0.4681  0.0518  0.2731
  246SOL    HW1  737   1.124   0.841   2.355  0.7344 -0.7462 -2.6423
  246SOL    HW2  738   1.020   0.915   2.468  0.0837  1.5694  1.3462
  247SOL     OW  739   0.037   0.789   2.798 -0.3694 -0.4996  0.3845
  247SOL    HW1  740   0.086   0.819   2.711 -0.2203 -3.3937 -2.5202
  247SOL    HW2  741   0.029   0.693   2.799  3.8168  3.9277  0.3922
  248SOL     OW  742   3.077   1.011   1.857 -0.2481  0.0490  0.5850
  248SOL    HW1  743   2.992   0.957   1.892 -0.6478 -3.6188 -0.3955
  248SOL    HW2  744   0.054   1.015   1.930 -0.0974  0.1985 -0.8077
  249SOL     OW  745   0.079   0.314   0.288 -0.3252  0.6017  0.3228
  249SOL    HW1  746   0.087   0.389   0.222  0.8907 -0.7778 -0.6829
  249SOL    HW2  747   0.037   0.348   0.376  1.1694 -0.2201 -0.9971
  250SOL     OW  748   2.935   0.245   3.068 -0.0193  0.1093 -0.4118
  250SOL    HW1  749   2.994   0.161   3.066  4.2198  1.7441 -0.1950
  250SOL    HW2  750   2.932   0.276   0.064  0.3465 -2.1228 -2.5392
  251SOL     OW  751   1.128   1.611   2.010 -0.3627 -0.1808  0.6800
  251SOL    HW1  752   1.215   1.607   2.064 -2.0450 -2.2623 -0.5866
  251SOL    HW2  753   1.142   1.581   1.914  1.8446 -1.9599  0.9460
  252SOL     OW  754   2.085   1.800   1.315  0.4283  0.8054  0.3582
  252SOL    HW1  755   2.094   1.696   1.331  2.4485 -2.0414  0.0270
  252SOL    HW2  756   2.097   1.842   1.402  0.1539 -1.4352 -1.4555
  253SOL     OW  757   1.901   2.557   2.177 -0.5090 -0.3805  0.8041
  253SOL    HW1  758   1.817   2.613   2.190  1.1198  0.5721 -1.9566
  253SOL    HW2  759   1.925   2.496   2.256 -0.7260  0.0480 -0.6785
  254SOL     OW  760   0.569   2.102   2.282 -0.1208 -0.5449 -0.1147
  254SOL    HW1  761   0.565   2.197   2.305 -2.3855 -3.1009 -2.6216
  254SOL    HW2  762   0.640   2.080   2.211  2.4798 -1.3541  0.7591
  255SOL     OW  763   1.617   0.397   0.772 -0.2751  0.0611  0.0388
  255SOL    HW1  764   1.583   0.322   0.716  0.7321  1.3059 -0.7239
  255SOL    HW2  765   1.540   0.422   0.839 -0.9616 -1.0326  1.9548
  256SOL     OW  766   2.060   2.224   1.440  0.0808 -0.2108  0.3336
  256SOL    HW1  767   2.010   2.298   1.488 -0.2982 -1.5304 -0.6654
  256SOL    HW2  768   2.149   2.260   1.406  0.0034  0.3041 -0.4454
  257SOL     OW  769   0.162   2.452   2.907  0.2844  0.3857  0.5735
  257SOL    HW1  770   0.231   2.380   2.878  0.7401 -3.0900 -0.8400
  257SOL    HW2  771   0.157   2.467   3.006  1.0572  1.5276  1.1081
  258SOL     OW  772   0.606   0.906   1.952 -0.1460  0.1716  0.3804
  258SOL    HW1  773   0.608   0.857   2.041 -1.6185 -0.8132  0.0247
  258SOL    HW2  774   0.691   0.900   1.898  0.1389  0.5904 -0.1682
  259SOL     OW  775   1.306   0.968   2.563  0.3196  0.4244  0.2965
  259SOL    HW1  776   1.292   1.069   2.556 -1.1712  2.4807 -0.0285
  259SOL    HW2  777   1.221   0.916   2.534 -1.7305  0.4796 -0.7204
  260SOL     OW  778   2.198   0.911   0.377 -0.1511 -0.3041  0.9046
  260SOL    HW1  779   2.178   0.898   0.473 -0.2800  1.6807 -1.3786
  260SOL    HW2  780   2.174   0.831   0.317  0.7331  1.8544  0.6602
  261SOL     OW  781   0.895   0.235   0.600 -0.5581  0.7652 -0.1590
  261SOL    HW1  782   0.922   0.255   0.507 -0.0836 -2.3547  1.6170
  261SOL    HW2  783   0.974   0.256   0.661 -1.8440 -1.4887  1.0714
  262SOL     OW  784   2.058   2.557   2.570  0.0909 -0.7639 -0.0070
  262SOL    HW1  785   2.115   2.583   2.651  0.8037  0.9495  0.7718
  262SOL    HW2  786   2.008   2.640   2.539  0.3048  1.3388  0.3483
  263SOL     OW  787   0.337   1.514   2.829 -0.5636  0.2824 -0.3961
  263SOL    HW1  788   0.406   1.525   2.757  2.6194  0.8088  0.8699
  263SOL    HW2  789   0.295   1.605   2.854 -0.8888  2.9312 -0.7537
  264SOL     OW  790   0.293   1.881   1.739  0.0766  0.2081 -0.4884
  264SOL    HW1  791   0.339   1.851   1.825 -2.1393  0.8644  0.9731
  264SOL    HW2  792   0.356   1.883   1.663 -1.3313 -3.6599  1.8946
  265SOL     OW  793   1.185   0.920   0.576  0.1261  0.0131  0.5192
  265SOL    HW1  794   1.126   0.994   0.538 -0.5052 -1.1463  0.9411
  265SOL    HW2  795   1.201   0.842   0.512  2.7693  0.2197 -1.1733
  266SOL     OW  796   1.519   1.713   0.043 -0.3196  0.5358  0.1590
  266SOL    HW1  797   1.545   1.805   0.009  2.7835 -2.1737 -1.8243
  266SOL    HW2  798   1.466   1.722   0.131 -1.7120  0.2406  1.6631
  267SOL     OW  799   0.098   0.289   2.962 -0.1491 -0.2919 -0.2781
  267SOL    HW1  800   0.020   0.298   2.896  1.0849  1.0340 -0.9142
  267SOL    HW2  801   0.184   0.274   2.911  3.4220 -0.9883  0.9874
  268SOL     OW  802   1.058   0.184   2.859  0.3726  0.1527 -0.5886
  268SOL    HW1  803   0.985   0.253   2.891  0.8161 -1.2278 -0.5148
  268SOL    HW2  804   1.018   0.100   2.820 -2.4188  1.6027  0.9431
  269SOL     OW  805   1.625   0.316   2.513 -0.4566 -0.2981 -0.1866
  269SOL    HW1  806   1.614   0.259   2.429  0.3540  0.4597  1.3456
  269SOL    HW2  807   1.537   0.303   2.566  0.6415 -3.0242  1.9780
  270SOL     OW  808   0.690   0.701   2.550  0.0107  0.0360  0.3444
  270SOL    HW1  809   0.760   0.677   2.481  0.7226 -2.7628  0.0732
  270SOL    HW2  810   0.675   0.621   2.610  1.1242  3.1491  2.2514
  271SOL     OW  811   0.202   0.969   0.086  0.1982  0.0050 -0.3251
  271SOL    HW1  812   0.278   1.024   0.055 -2.3045 -0.6798  2.3252
  271SOL    HW2  813   0.186   0.996   0.182 -1.1113  1.1783 -0.9725
  272SOL     OW  814   2.277   1.124   2.781  0.7425 -0.1656 -0.2353
  272SOL    HW1  815   2.302   1.093   2.684  0.8403 -0.5634 -1.3900
  272SOL    HW2  816   2.183   1.095   2.809  1.3734 -1.4015 -1.1807
  273SOL     OW  817   2.997   0.178   2.286  0.0668 -0.4378  0.1283
  273SOL    HW1  818   3.091   0.217   2.291  3.0110 -0.4599 -1.1194
  273SOL    HW2  819   2.984   0.113   2.362  0.7508  1.2824 -1.9713
  274SOL     OW  820   2.571   0.018   1.662  0.2483  0.4877  0.1600
  274SOL    HW1  821   2.516   3.060   1.598  0.7342  1.5608  1.6407
  274SOL    HW2  822   2.669   0.046   1.636  1.6938  0.5572 -0.5353
  275SOL     OW  823   1.813   1.642   0.063  0.3653  0.1770 -0.2038
  275SOL    HW1  824   1.857   1.679   3.077 -0.1182 -3.7803  0.2428
  275SOL    HW2  825   1.716   1.670   0.056  0.2784  2.7289 -0.6007
  276SOL     OW  826   0.344   1.112   2.734 -0.6386 -0.0662  0.3818
  276SOL    HW1  827   0.272   1.177   2.759 -0.1457  0.5612  0.5431
  276SOL    HW2  828   0.293   1.034   2.696  0.0001 -1.7835 -0.3572
  277SOL     OW  829   1.671   2.672   2.209 -0.1613 -0.1169 -0.7621
  277SOL    HW1  830   1.650   2.675   2.311 -1.8246 -0.8389 -0.0967
  277SOL    HW2  831   1.589   2.630   2.168  0.3413  0.5658  1.1037
  278SOL     OW  832   1.920   0.099   1.196  0.1901 -0.4001  0.6440
  278SOL    HW1  833   1.859   0.175   1.182  0.8081 -0.7644  2.2481
  278SOL    HW2  834   1.991   0.102   1.127 -0.2899 -0.9486  0.8618
  279SOL     OW  835   1.074   1.448   2.673 -0.3908  0.1790  0.3417
  279SOL    HW1  836   1.164   1.498   2.671  1.2436  0.4675 -0.8572
  279SOL    HW2  837   1.004   1.499   2.614 -1.7605 -1.1008  0.7875
  280SOL     OW  838   0.729   1.775   0.508 -0.1061 -0.0163  0.0050
  280SOL    HW1  839   0.642   1.731   0.474 -1.2828 -2.3647  0.7243
  280SOL    HW2  840   0.762   1.833   0.432 -2.5649 -2.0131 -0.9510
  281SOL     OW  841   2.992   2.853   2.147 -0.0323 -0.3363 -0.2146
  281SOL    HW1  842   2.968   2.904   2.057 -2.4386  1.0799 -0.1163
  281SOL    HW2  843   3.078   2.804   2.143 -1.3425  1.5341 -1.5786
  282SOL     OW  844   0.304   1.926   1.219  0.0972  0.5870 -0.1688
  282SOL    HW1  845   0.366   1.987   1.161  0.6250 -0.4093 -0.8355
  282SOL    HW2  846   0.229   1.980   1.262  0.2350 -0.5505 -1.9687
  283SOL     OW  847   1.345   2.340   2.621 -0.3090  0.1689  0.2444
  283SOL    HW1  848   1.264   2.315   2.568  0.0562 -1.0695 -0.1034
  283SOL    HW2  849   1.431   2.305   2.574 -0.2300 -0.0143 -3.0530
  284SOL     OW  850   2.094   0.821   0.018  0.0408  0.3256 -0.3018
  284SOL    HW1  851   2.061   0.914   0.042  0.3135 -0.5743 -3.5387
  284SOL    HW2  852   2.168   0.829   3.050 -2.3522 -0.4853  1.4624
  285SOL     OW  853   2.645   2.653   2.685 -0.7378  0.5088  0.6585
  285SOL    HW1  854   2.635   2.696   2.773 -0.4173 -0.6697 -2.9937
  285SOL    HW2  855   2.553   2.635   2.643 -1.6341 -0.3666 -0.8294
  286SOL     OW  856   1.893   2.579   1.199  0.1501  0.1469 -0.6303
  286SOL    HW1  857   1.877   2.650   1.275  0.6438  2.0677  0.9838
  286SOL    HW2  858   1.852   2.489   1.225 -1.0173  0.0922  2.6933
  287SOL     OW  859   0.779   1.219   1.031  0.0298  0.2004 -0.1966
  287SOL    HW1  860   0.770   1.270   0.945  1.6381 -2.8651  0.6160
  287SOL    HW2  861   0.854   1.149   1.037 -0.1105 -1.6727  2.5911
  288SOL     OW  862   1.182   2.314   0.141  0.2732  0.1026 -0.8296
  288SOL    HW1  863   1.168   2.375   0.222 -1.5805 -0.0338 -1.5930
  288SOL    HW2  864   1.211   2.363   0.055  0.8471 -1.2405 -0.0863
  289SOL     OW  865   0.055   1.904   2.444 -0.1357  0.5236  0.0422
  289SOL    HW1  866   0.061   1.808   2.462  1.2470  0.5587 -0.9449
  289SOL    HW2  867   0.126   1.958   2.492  1.1940  0.1255  2.2954
  290SOL     OW  868   1.029   2.217   0.959 -0.3427  0.0877  0.1453
  290SOL    HW1  869   1.002   2.198   0.863 -0.8997  0.2454  3.2353
  290SOL    HW2  870   1.018   2.142   1.026  2.7281  0.8042 -1.8856
  291SOL     OW  871   2.061   1.478   2.946  0.0479  0.1903  0.0800
  291SOL    HW1  872   2.128   1.443   2.882 -4.1531 -0.0958 -0.5295
  291SOL    HW2  873   2.032   1.568   2.910 -1.6329 -2.7776  0.5261
  292SOL     OW  874   1.237   1.441   1.797  0.0443 -0.7262 -0.4071
  292SOL    HW1  875   1.146   1.405   1.764 -2.8596  0.4502  1.1650
  292SOL    HW2  876   1.305   1.363   1.808  0.8621 -0.3340  0.2591
  293SOL     OW  877   1.869   2.324   0.903  0.4237  0.0954  0.5632
  293SOL    HW1  878   1.911   2.304   0.992 -2.0741 -0.4226  0.8448
  293SOL    HW2  879   1.873   2.237   0.851  1.2058 -0.9722  0.6087
  294SOL     OW  880   0.184   1.282   2.359 -0.0714  0.2216 -0.1770
  294SOL    HW1  881   0.119   1.303   2.431  0.5354 -2.1674 -3.0523
  294SOL    HW2  882   0.136   1.250   2.276  2.3929 -3.5492 -1.1281
  295SOL     OW  883   0.914   1.948   2.903 -0.0797 -0.5816 -0.2277
  295SOL    HW1  884   0.946   2.011   2.973  0.5982  0.8595 -1.5046
  295SOL    HW2  885   0.941   1.854   2.930  1.0304 -1.3945  0.1077
  296SOL     OW  886   2.004   1.732   2.090  0.0123  0.8603 -0.2441
  296SOL    HW1  887   2.028   1.824   2.045 -1.0782 -0.7854  1.1450
  296SOL    HW2  888   1.907   1.728   2.115  0.2733 -0.6019  0.2495
  297SOL     OW  889   2.808   0.744   2.547 -0.2605  0.1703 -0.0499
  297SOL    HW1  890   2.863   0.688   2.488 -2.4057  0.1447  1.9963
  297SOL    HW2  891   2.712   0.756   2.515 -0.6611 -0.2051 -0.0912
  298SOL     OW  892   0.824   2.190   2.570 -0.8632  0.5672 -0.7830
  298SOL    HW1  893   0.773   2.146   2.648 -1.9324  1.2920  2.2110
  298SOL    HW2  894   0.765   2.211   2.495  1.2206  0.6061  1.9848
  299SOL     OW  895   0.917   2.596   2.513 -0.2446 -0.5101  0.1498
  299SOL    HW1  896   0.847   2.670   2.519 -1.6292 -0.8286 -2.2200
  299SOL    HW2  897   0.926   2.545   2.598 -0.7989  2.0974 -2.2609
  300SOL     OW  898   2.902   0.551   0.006  0.0744  0.1209  0.5410
  300SOL    HW1  899   2.872   0.460   3.083  0.6781  2.5081  1.4214
  300SOL    HW2  900   3.000   0.548   0.042  0.2478  2.3710 -2.6212
  301SOL     OW  901   1.126   0.724   1.195 -0.2712 -0.5964  0.2022
  301SOL    HW1  902   1.142   0.646   1.251 -1.1101  2.0085  1.2822
  301SOL    HW2  903   1.076   0.798   1.249  0.7633  1.2956  1.9613
  302SOL     OW  904   2.738   1.849   2.828  0.5782 -0.2088  0.2827
  302SOL    HW1  905   2.771   1.945   2.844 -1.1558  1.2182  1.6856
  302SOL    HW2  906   2.677   1.821   2.900  2.4135  0.8133 -0.1467
  303SOL     OW  907   2.951   2.885   2.497  0.4445 -0.4620 -0.1978
  303SOL    HW1  908   3.031   2.915   2.445 -2.2134  0.3643  0.8757
  303SOL    HW2  909   2.892   2.964   2.520  0.3824  0.3706 -1.8244
  304SOL     OW  910   2.969   0.270   1.688 -0.3954  0.0187  0.1336
  304SOL    HW1  911   2.922   0.183   1.671 -2.1561  0.9190 -1.1746
  304SOL    HW2  912   2.906   0.340   1.729  0.5271 -1.0344  1.9178
  305SOL     OW  913   0.036   3.032   2.331  0.2294 -0.7604  0.1848
  305SOL    HW1  914   0.128   2.985   2.336  0.8125  0.4716 -0.2586
  305SOL    HW2  915   3.071   2.982   2.264  1.5248 -0.8815 -2.9178
  306SOL     OW  916   2.666   1.237   1.224  0.6543 -0.3143 -0.0123
  306SOL    HW1  917   2.682   1.170   1.297 -0.6749 -0.0239 -0.1691
  306SOL    HW2  918   2.646   1.196   1.135 -0.5760 -0.9928  1.9089
  307SOL     OW  919   1.872   0.486   1.315 -0.2381 -0.4775 -0.2376
  307SOL    HW1  920   1.834   0.397   1.356  0.6892 -0.2357  1.0963
  307SOL    HW2  921   1.797   0.548   1.280 -1.3442  2.4331 -1.1335
  308SOL     OW  922   0.158   2.146   1.362  0.4448 -0.4375  0.4129
  308SOL    HW1  923   0.119   2.206   1.285 -0.0807  0.3579  0.9241
  308SOL    HW2  924   0.082   2.081   1.386 -0.1763 -3.7623  1.1353
  309SOL     OW  925   2.431   1.852   1.401 -0.3550  0.6139 -0.5431
  309SOL    HW1  926   2.446   1.751   1.394  0.3473  2.9470 -0.5400
  309SOL    HW2  927   2.347   1.872   1.458  2.7018 -0.6437  2.9762
  310SOL     OW  928   2.728   1.775   0.067 -0.0823 -0.2601 -0.3445
  310SOL    HW1  929   2.705   1.857   0.122 -3.3416 -0.4790 -1.3183
  310SOL    HW2  930   2.803   1.725   0.109 -4.8942 -1.2508  1.8754
  311SOL     OW  931   2.168   1.507   2.602 -0.3039 -0.1512 -0.7207
  311SOL    HW1  932   2.158   1.410   2.574  0.6838 -2.9502 -0.2492
  311SOL    HW2  933   2.136   1.573   2.528 -1.0560  0.8012  0.6016
  312SOL     OW  934   2.250   2.338   0.803  0.3989  0.1405  0.2971
  312SOL    HW1  935   2.296   2.253   0.830 -0.7814  3.0904 -1.5107
  312SOL    HW2  936   2.322   2.410   0.787 -1.1745  0.0467 -0.2298
  313SOL     OW  937   2.882   2.600   1.328  0.5535  0.0330 -0.2000
  313SOL    HW1  938   2.927   2.555   1.252 -0.8050  2.2485  0.8069
  313SOL    HW2  939   2.860   2.541   1.408  1.2698  1.2616  1.2444
  314SOL     OW  940   1.176   2.158   1.385  0.3898  0.5691  0.2864
  314SOL    HW1  941   1.101   2.191   1.447 -0.8503  2.1759 -1.4964
  314SOL    HW2  942   1.137   2.092   1.321  0.1796  1.5174 -0.2394
  315SOL     OW  943   0.270   2.695   2.465  0.2848 -0.2352  0.3742
  315SOL    HW1  944   0.209   2.649   2.527  0.8704 -1.3994  0.2965
  315SOL    HW2  945   0.289   2.793   2.483  0.5579 -2.5474  1.4750
  316SOL     OW  946   0.041   1.772   0.889  0.9636  0.9304  0.1097
  316SOL    HW1  947   0.092   1.740   0.971 -0.0408 -1.4559 -1.0587
  316SOL    HW2  948   0.096   1.835   0.833  0.5463  0.3640  1.1902
  317SOL     OW  949   1.849   0.399   0.523 -0.0382  0.6250  0.3221
  317SOL    HW1  950   1.841   0.489   0.569 -0.9404 -0.9943  1.0944
  317SOL    HW2  951   1.887   0.337   0.593  0.7141 -0.5181 -0.3090
  318SOL     OW  952   2.826   2.875   0.386 -0.4025  0.2234  0.1449
  318SOL    HW1  953   2.871   2.810   0.319  1.2304 -2.5751  0.6640
  318SOL    HW2  954   2.774   2.952   0.345  0.6715 -2.2264  1.7055
  319SOL     OW  955   1.028   1.450   0.010 -0.3969  0.3565  0.1688
  319SOL    HW1  956   1.109   1.392   3.090 -0.2243  1.2435 -1.9636
  319SOL    HW2  957   0.937   1.411   3.071 -1.5475 -1.1834  1.3773
  320SOL     OW  958   0.622   2.804   2.785 -0.0462 -0.0636 -0.9542
  320SOL    HW1  959   0.643   2.786   2.684 -1.3889  0.5820 -1.4313
  320SOL    HW2  960   0.530   2.849   2.797 -1.0546 -0.2477 -0.9595
  321SOL     OW  961   1.028   3.073   0.096  0.7758 -0.2610  0.4698
  321SOL    HW1  962   1.116   0.011   0.134 -0.4161 -0.8446 -0.1303
  321SOL    HW2  963   1.050   2.999   0.028 -0.4100 -1.7719  1.9054
  322SOL     OW  964   2.318   1.075   1.924  0.2124 -0.6672 -0.4747
  322SOL    HW1  965   2.309   1.084   2.024 -0.5786  2.0952  1.2561
  322SOL    HW2  966   2.410   1.104   1.890  0.5840  0.8233  1.3485
  323SOL     OW  967   2.481   0.861   0.332 -0.2970  0.3972  0.0388
  323SOL    HW1  968   2.384   0.894   0.350 -0.0558  2.5361  1.9661
  323SOL    HW2  969   2.478   0.787   0.259 -1.3226 -0.9302  1.8934
  324SOL     OW  970   0.203   0.445   2.760 -0.2837  0.5559 -0.5330
  324SOL    HW1  971   0.105   0.409   2.753 -0.3574  0.9970  0.2673
  324SOL    HW2  972   0.236   0.477   2.668  0.0794  0.8763  1.2924
  325SOL     OW  973   1.282   2.902   2.113  0.0889  0.2945  0.5862
  325SOL    HW1  974   1.318   2.945   2.025 -1.1400  1.2338 -0.1390
  325SOL    HW2  975   1.238   2.814   2.088  3.0136  0.7780  0.0394
  326SOL     OW  976   2.350   0.054   1.426 -0.9011 -0.4226  0.3608
  326SOL    HW1  977   2.252   0.049   1.419  0.9649  0.3892  0.8613
  326SOL    HW2  978   2.388   0.144   1.453  0.5623 -0.6624 -1.2557
  327SOL     OW  979   1.783   0.790   2.930  0.3832  0.1215 -0.0502
  327SOL    HW1  980   1.749   0.734   3.004  2.2286  2.1646 -0.6013
  327SOL    HW2  981   1.884   0.786   2.933  0.3954  2.0654  0.8247
  328SOL     OW  982   2.946   1.382   2.086  0.1697 -0.1441  0.3237
  328SOL    HW1  983   2.961   1.285   2.105 -1.6943  0.8153 -0.7284
  328SOL    HW2  984   2.997   1.442   2.151 -1.8393 -3.1151  0.2282
  329SOL     OW  985   1.561   2.561   1.791  0.1542 -0.2906 -0.5733
  329SOL    HW1  986   1.482   2.530   1.850  0.4026 -3.3865  2.1033
  329SOL    HW2  987   1.568   2.661   1.783  2.4416 -0.5102  0.8102
  330SOL     OW  988   2.642   1.463   1.746  1.1206 -0.3243 -0.3906
  330SOL    HW1  989   2.697   1.456   1.663 -2.0292 -0.5497  1.7813
  330SOL    HW2  990   2.695   1.506   1.825  0.1402 -0.4848 -1.8235
  331SOL     OW  991   3.065   2.134   0.594 -0.7458 -0.0288  0.2880
  331SOL    HW1  992   0.036   2.073   0.642  0.3940  1.7418  2.6527
  331SOL    HW2  993   0.016   2.184   0.516  2.1133 -3.3460  0.7003
  332SOL     OW  994   0.822   0.503   1.026  0.3570 -0.3020  0.0868
  332SOL    HW1  995   0.789   0.551   1.106 -0.8464  1.9417 -1.7174
  332SOL    HW2  996   0.908   0.536   0.982  1.9483 -1.0814  0.7898
  333SOL     OW  997   2.143   2.765   2.306  0.4670 -0.0219 -0.3426
  333SOL    HW1  998   2.051   2.723   2.318 -0.6332  0.5004  1.3138
  333SOL    HW2  999   2.208   2.760   2.383 -0.0991 -0.7609 -2.4970
  334SOL     OW 1000   1.216   1.181   1.142  0.1948  0.5998 -0.5966
  334SOL    HW1 1001   1.307   1.148   1.115  1.2680 -0.4126  2.0952
  334SOL    HW2 1002   1.216   1.238   1.230 -0.3111  2.4024 -0.0345
  335SOL     OW 1003   0.108   2.570   2.657  0.1044 -0.3160  0.1867
  335SOL    HW1 1004   0.008   2.591   2.664 -5.5652 -1.3700 -2.7850
  335SOL    HW2 1005   0.146   2.530   2.743 -0.8529 -1.1203  0.6660
  336SOL     OW 1006   2.678   2.306   1.986  0.5354  0.2203  0.4240
  336SOL    HW1 1007   2.762   2.348   2.012 -3.1989 -1.0731 -1.5123
  336SOL    HW2 1008   2.652   2.323   1.889 -0.1820  2.1041 -1.5512
  337SOL     OW 1009   2.113   1.620   0.446 -0.3195  0.1159 -0.3043
  337SOL    HW1 1010   2.190   1.557   0.468  2.1788  0.9162  2.2901
  337SOL    HW2 1011   2.114   1.651   0.353 -1.9766  0.6545  0.2688
  338SOL     OW 1012   1.180   1.780   1.403  0.5073  0.0156  0.1200
  338SOL    HW1 1013   1.195   1.819   1.496 -0.3104  1.0444 -2.0587
  338SOL    HW2 1014   1.270   1.790   1.353 -2.3486  0.7229 -1.4140
  339SOL     OW 1015   3.069   0.455   1.206 -0.0798 -0.6066 -0.1131
  339SOL    HW1 1016   0.031   0.526   1.254  0.5392  2.1439  0.2682
  339SOL    HW2 1017   2.973   0.479   1.224 -0.3413  2.1826 -0.9545
  340SOL     OW 1018   1.586   2.833   1.771 -0.2365  0.4123 -0.8526
  340SOL    HW1 1019   1.581   2.869   1.675  0.8913  4.1548 -0.3493
  340SOL    HW2 1020   1.677   2.850   1.808  1.0195  2.1403 -1.7009
  341SOL     OW 1021   2.190   1.348   0.799 -0.0133  0.3822 -0.5055
  341SOL    HW1 1022   2.259   1.389   0.864 -0.4575 -0.3417 -0.1929
  341SOL    HW2 1023   2.111   1.411   0.780 -1.6125  0.1645 -3.6312
  342SOL     OW 1024   0.480   1.719   0.720  0.7163 -0.3095  0.4149
  342SOL    HW1 1025   0.574   1.728   0.752 -0.5625  2.1659 -0.6332
  342SOL    HW2 1026   0.463   1.622   0.691 -3.4172  1.0330 -0.9219
  343SOL     OW 1027   2.616   1.026   1.420  0.2895 -0.5243 -0.2763
  343SOL    HW1 1028   2.517   1.012   1.433  2.8181 -0.4240 -1.6017
  343SOL    HW2 1029   2.673   0.978   1.490 -0.7912 -0.2570  0.5523
  344SOL     OW 1030   2.266   0.288   0.734 -0.0113 -0.0030  0.2415
  344SOL    HW1 1031   2.307   0.374   0.697 -0.0456  0.4086  1.8151
  344SOL    HW2 1032   2.302   0.210   0.678 -1.9508 -0.0057  0.4030
  345SOL     OW 1033   2.755   2.579   2.457 -0.0201 -0.1669 -0.2127
  345SOL    HW1 1034   2.736   2.586   2.559 -3.3642  0.1921 -3.1063
  345SOL    HW2 1035   2.686   2.639   2.411  0.4136  0.5251  0.0368
  346SOL     OW 1036   0.040   1.272   0.571 -0.2481  0.6459 -0.0248
  346SOL    HW1 1037   3.040   1.305   0.545 -3.3542  1.8509 -2.0429
  346SOL    HW2 1038   0.059   1.173   0.562 -0.0211 -1.0668 -0.1593
  347SOL     OW 1039   1.839   2.786   1.380 -0.3427  0.6652 -0.1485
  347SOL    HW1 1040   1.895   2.818   1.460 -2.5669 -0.2011 -0.2136
  347SOL    HW2 1041   1.753   2.748   1.424  0.4740 -0.4983  1.0553
  348SOL     OW 1042   1.114   0.978   1.750  0.0940 -0.3498 -0.1078
  348SOL    HW1 1043   1.210   1.011   1.768 -0.6478  0.7332 -2.0036
  348SOL    HW2 1044   1.077   0.951   1.839  0.3635  1.8307 -0.1340
  349SOL     OW 1045   2.420   1.414   2.144 -0.0383 -0.1444 -0.2277
  349SOL    HW1 1046   2.402   1.408   2.247  0.1097 -0.7577  1.4328
  349SOL    HW2 1047   2.469   1.499   2.135 -1.7574 -0.2915 -0.7518
  350SOL     OW 1048   2.839   2.215   0.818 -0.3541  0.5782 -0.4673
  350SOL    HW1 1049   2.901   2.280   0.765  2.2641  1.7601  0.0155
  350SOL    HW2 1050   2.795   2.142   0.761  0.8141 -1.0991  1.7394
  351SOL     OW 1051   0.264   0.488   1.605 -0.0536  0.0380  0.4067
  351SOL    HW1 1052   0.281   0.413   1.674  1.3897 -2.0014 -0.3107
  351SOL    HW2 1053   0.181   0.543   1.632 -0.9383  3.3243 -0.4023
  352SOL     OW 1054   0.827   2.687   1.682  0.2552  0.6436 -0.2655
  352SOL    HW1 1055   0.730   2.662   1.692  1.6388  2.0805 -1.9511
  352SOL    HW2 1056   0.863   2.620   1.617 -1.5746  2.1047 -2.0210
  353SOL     OW 1057   0.745   1.389   2.311 -0.7978 -0.4450 -0.8848
  353SOL    HW1 1058   0.831   1.340   2.326  1.2941  1.0550  0.5221
  353SOL    HW2 1059   0.748   1.471   2.378 -1.7618 -0.0152  0.4525
  354SOL     OW 1060   1.326   1.739   0.246 -0.2288 -0.2544  0.4086
  354SOL    HW1 1061   1.227   1.725   0.256  0.3324 -0.2502  0.8496
  354SOL    HW2 1062   1.378   1.706   0.326 -2.2252  0.7900 -1.1867
  355SOL     OW 1063   1.997   0.242   0.732 -0.1359 -0.4334 -0.2685
  355SOL    HW1 1064   1.956   0.328   0.764 -0.2291  3.5035  1.2623
  355SOL    HW2 1065   2.097   0.253   0.716 -0.6247 -0.7328  1.5749
  356SOL     OW 1066   0.116   1.250   3.061 -0.5189  0.2774 -0.1908
  356SOL    HW1 1067   0.211   1.228   3.061 -0.1186 -1.6591 -0.5930
  356SOL    HW2 1068   0.087   1.248   0.063 -0.3482 -1.7339 -0.4404
  357SOL     OW 1069   2.991   3.007   1.942  0.0743  0.3131  0.1686
  357SOL    HW1 1070   2.970   0.002   1.980  0.0945  1.3280 -1.3321
  357SOL    HW2 1071   3.073   3.016   1.882  3.5653  2.1173 -1.6651
  358SOL     OW 1072   0.579   1.294   2.712 -0.7903 -0.3336 -0.0174
  358SOL    HW1 1073   0.560   1.392   2.719 -0.1060  2.0047 -0.4959
  358SOL    HW2 1074   0.499   1.231   2.694  0.1537  0.3011  0.7454
  359SOL     OW 1075   2.410   2.607   2.567 -0.1476  0.4560  0.1083
  359SOL    HW1 1076   2.361   2.580   2.650  4.2563 -3.0597  2.7836
  359SOL    HW2 1077   2.401   2.538   2.492 -1.6470 -1.0650  0.3207
  360SOL     OW 1078   1.620   1.413   0.881 -0.4196  0.1346 -0.0422
  360SOL    HW1 1079   1.519   1.430   0.864  0.5446  1.2641 -1.4390
  360SOL    HW2 1080   1.626   1.377   0.978 -2.3435 -1.0568  0.9040
  361SOL     OW 1081   1.991   2.219   1.130 -0.5851  0.3728 -0.4226
  361SOL    HW1 1082   2.018   2.220   1.226  2.1700  0.4089 -2.2355
  361SOL    HW2 1083   1.993   2.121   1.106 -1.0143  1.5854  0.5395
  362SOL     OW 1084   1.969   1.474   0.740  0.0159  0.0913 -0.0925
  362SOL    HW1 1085   1.949   1.504   0.641  0.2949 -0.7667 -0.0414
  362SOL    HW2 1086   1.926   1.529   0.814  0.7533 -1.6269  2.2767
  363SOL     OW 1087   2.549   2.194   0.535 -0.0402 -0.3390  0.1290
  363SOL    HW1 1088   2.500   2.105   0.552 -0.3162 -3.1673  0.2809
  363SOL    HW2 1089   2.637   2.175   0.480  3.0055 -2.2016 -0.4431
  364SOL     OW 1090   2.581   0.249   1.399 -0.6667 -0.4108  0.8226
  364SOL    HW1 1091   2.570   0.185   1.317 -0.0021  0.7910 -2.9857
  364SOL    HW2 1092   2.684   0.271   1.400  1.4852  0.0893  1.2451
  365SOL     OW 1093   0.374   2.742   1.177  0.2908  0.6584  0.0649
  365SOL    HW1 1094   0.400   2.840   1.163 -0.1917 -1.0429  0.7740
  365SOL    HW2 1095   0.300   2.733   1.250  0.1233 -0.5386 -0.5894
  366SOL     OW 1096   2.942   1.433   0.409 -0.8674  0.4195  0.2237
  366SOL    HW1 1097   2.864   1.442   0.344  1.2874 -1.6079  0.8278
  366SOL    HW2 1098   3.034   1.437   0.363  4.0514  1.3855 -0.8201
  367SOL     OW 1099   2.187   2.208   2.850  0.5522  0.0068  0.2266
  367SOL    HW1 1100   2.096   2.172   2.859  2.4615  0.4028 -0.3480
  367SOL    HW2 1101   2.245   2.137   2.805 -1.1710  0.0900  1.5954
  368SOL     OW 1102   2.449   2.141   0.894  0.5403  0.4177  0.6797
  368SOL    HW1 1103   2.523   2.112   0.830  0.9331 -1.5028  1.5354
  368SOL    HW2 1104   2.432   2.072   0.970  1.2037 -2.3474 -0.2471
  369SOL     OW 1105   0.795   1.122   0.696 -0.1720 -0.2142  0.2624
  369SOL    HW1 1106   0.811   1.040   0.748 -0.0453 -2.1057 -0.4544
  369SOL    HW2 1107   0.854   1.121   0.614 -1.2878 -3.8109  1.3667
  370SOL     OW 1108   0.753   0.277   0.856  0.1391 -0.2287 -0.1905
  370SOL    HW1 1109   0.768   0.360   0.910  1.5253  0.4195 -0.4459
  370SOL    HW2 1110   0.789   0.276   0.764 -2.7540 -0.6297  3.4702
  371SOL     OW 1111   2.531   1.206   2.848  0.3156 -0.8258 -0.3318
  371SOL    HW1 1112   2.532   1.219   2.948 -1.1923 -2.2526 -1.7864
  371SOL    HW2 1113   2.437   1.189   2.816  1.0566  0.5930 -0.0272
  372SOL     OW 1114   0.704   0.374   2.639  0.0057  0.0095  0.8392
  372SOL    HW1 1115   0.800   0.356   2.605 -0.1601  0.5733 -0.2038
  372SOL    HW2 1116   0.636   0.302   2.618 -1.7156 -1.4791 -0.2749
  373SOL     OW 1117   0.656   0.484   2.880 -0.2462 -0.5043  0.2572
  373SOL    HW1 1118   0.661   0.431   2.795  1.2651  1.5694 -1.0482
  373SOL    HW2 1119   0.742   0.467   2.931 -1.9121 -0.5701  0.9266
  374SOL     OW 1120   0.960   2.528   3.090 -0.1041 -0.1318 -0.1301
  374SOL    HW1 1121   1.027   2.510   3.011  0.8238 -1.0313 -3.1247
  374SOL    HW2 1122   1.016   2.580   0.066  3.1098  1.2842  0.2171
  375SOL     OW 1123   0.911   3.047   0.700  0.5696 -0.0984 -0.0283
  375SOL    HW1 1124   1.001   3.007   0.727 -4.3909  1.5561  0.4929
  375SOL    HW2 1125   0.919   0.051   0.691 -1.9722 -0.6351 -0.7515
  376SOL     OW 1126   3.025   2.263   1.982  0.1940 -0.8661  0.0867
  376SOL    HW1 1127   2.949   2.328   2.001 -0.8938 -0.2671  0.8292
  376SOL    HW2 1128   3.092   2.305   1.916  1.3371  0.6939  1.4772
  377SOL     OW 1129   2.657   2.032   0.166  0.2486  0.2176 -0.5791
  377SOL    HW1 1130   2.561   2.033   0.203  1.6495  0.6846  4.0448
  377SOL    HW2 1131   2.663   2.096   0.090  0.4205 -0.8171  0.8852
  378SOL     OW 1132   1.757   0.818   0.860 -0.0967 -0.2339 -0.7189
  378SOL    HW1 1133   1.797   0.749   0.800 -0.1783 -0.2873  4.9262
  378SOL    HW2 1134   1.826   0.843   0.929 -1.1953 -3.2844 -1.4880
  379SOL     OW 1135   1.351   1.094   0.715  0.7141 -0.1665  0.0345
  379SOL    HW1 1136   1.312   1.014   0.663 -1.3179 -4.4159  0.7251
  379SOL    HW2 1137   1.337   1.177   0.665 -0.4366 -0.0605  0.4557
  380SOL     OW 1138   2.502   1.929   1.853 -0.5153  0.5239 -0.5757
  380SOL    HW1 1139   2.568   1.874   1.794 -3.9598  4.4503 -1.3410
  380SOL    HW2 1140   2.542   1.940   1.948 -1.3617  0.2564 -1.5613
  381SOL     OW 1141   0.015   1.147   2.181 -0.0109  0.0988 -0.0166
  381SOL    HW1 1142   0.013   1.110   2.277  1.3382 -0.0868 -0.3281
  381SOL    HW2 1143   0.095   1.113   2.132 -0.4703  1.5163  0.0508
  382SOL     OW 1144   2.735   2.389   0.214  0.1400  0.1204  0.3899
  382SOL    HW1 1145   2.751   2.302   0.267 -0.3898  0.8514  0.2969
  382SOL    HW2 1146   2.649   2.394   0.159 -1.4634  0.5363 -1.5189
  383SOL     OW 1147   1.414   1.022   2.182 -0.4456  0.1902  0.3194
  383SOL    HW1 1148   1.476   1.090   2.135 -1.1792 -2.2491  0.8769
  383SOL    HW2 1149   1.429   1.031   2.283 -0.9668  1.0012  1.0065
  384SOL     OW 1150   1.041   2.057   2.521 -0.2285  0.6806  0.8647
  384SOL    HW1 1151   1.040   1.969   2.566 -2.4097 -0.0196 -0.6111
  384SOL    HW2 1152   0.968   2.109   2.563  0.2158 -0.9030  2.1263
  385SOL     OW 1153   2.295   2.260   0.192 -0.1801  0.3017 -0.5915
  385SOL    HW1 1154   2.230   2.294   0.117 -4.6674 -1.7238  0.9699
  385SOL    HW2 1155   2.310   2.325   0.271 -2.3142  0.4297 -2.2594
  386SOL     OW 1156   1.593   1.324   0.327  0.3379 -0.5704  0.1854
  386SOL    HW1 1157   1.567   1.345   0.424 -1.1887  1.2537  1.0255
  386SOL    HW2 1158   1.693   1.326   0.322 -0.2888  0.8134 -0.4948
  387SOL     OW 1159   3.010   1.209   1.269  0.6336  0.0188  0.0871
  387SOL    HW1 1160   2.960   1.278   1.212  0.7076  0.6755 -0.4874
  387SOL    HW2 1161   3.062   1.267   1.339 -1.6304 -0.0962  0.4742
  388SOL     OW 1162   0.511   0.862   1.359  0.0823 -0.2038 -0.0683
  388SOL    HW1 1163   0.465   0.942   1.319  0.0139 -0.0731  1.5847
  388SOL    HW2 1164   0.467   0.775   1.331  0.0277  0.0367  0.4243
  389SOL     OW 1165   2.156   1.206   2.141 -0.0250 -0.1781 -0.4168
  389SOL    HW1 1166   2.250   1.189   2.188  1.6842 -3.2175  0.6936
  389SOL    HW2 1167   2.132   1.305   2.133 -0.1138  1.5726  1.9068
  390SOL     OW 1168   1.271   2.022   0.429  0.3254  0.0304  0.5861
  390SOL    HW1 1169   1.286   2.019   0.323  2.2235  2.1525 -1.1840
  390SOL    HW2 1170   1.363   2.011   0.466 -2.4768  0.0352  1.4595
  391SOL     OW 1171   1.064   1.954   1.087  0.2166  0.0812 -0.1546
  391SOL    HW1 1172   1.150   1.925   1.039 -0.5121 -2.0769 -0.7610
  391SOL    HW2 1173   0.986   1.946   1.024  0.7353 -1.3960  1.5891
  392SOL     OW 1174   2.500   2.559   2.107 -0.1677 -0.2223 -0.0973
  392SOL    HW1 1175   2.411   2.610   2.084  3.0935 -0.0560 -0.8612
  392SOL    HW2 1176   2.518   2.477   2.048 -2.3834  0.0548 -0.8460
  393SOL     OW 1177   1.376   2.041   2.969  0.0726 -0.2746  0.0308
  393SOL    HW1 1178   1.406   2.123   2.922 -2.3613  1.0796  0.6681
  393SOL    HW2 1179   1.457   1.982   2.977 -2.5259 -1.6249  0.8375
  394SOL     OW 1180   0.134   0.390   2.307 -0.4336 -0.0103 -0.4386
  394SOL    HW1 1181   0.073   0.466   2.264 -0.9244  2.9710 -1.7584
  394SOL    HW2 1182   0.217   0.376   2.247  0.1477  0.5833 -0.9277
  395SOL     OW 1183   0.361   1.120   0.838  0.2470  0.1578 -0.0294
  395SOL    HW1 1184   0.432   1.139   0.908  0.0523 -0.2364  2.0154
  395SOL    HW2 1185   0.394   1.056   0.765 -0.6758  0.3739  0.7495
  396SOL     OW 1186   2.396   1.055   2.530 -0.1317 -0.0827 -0.0751
  396SOL    HW1 1187   2.358   0.971   2.490  0.4877  1.0838  0.7513
  396SOL    HW2 1188   2.459   1.100   2.469 -0.4490  2.2435  1.6423
  397SOL     OW 1189   0.522   0.722   2.950 -0.7982  0.3017 -0.0126
  397SOL    HW1 1190   0.535   0.818   2.923 -2.1911 -3.9536  1.9139
  397SOL    HW2 1191   0.581   0.655   2.903  1.2758  0.8330  0.5984
  398SOL     OW 1192   1.120   2.654   0.543  0.2725  0.1627  0.0908
  398SOL    HW1 1193   1.213   2.677   0.587  0.9365  0.6666  0.2523
  398SOL    HW2 1194   1.063   2.736   0.530 -1.3430 -1.3579 -1.2078
  399SOL     OW 1195   2.026   2.542   1.942 -0.6189 -0.6442  0.0637
  399SOL    HW1 1196   1.980   2.536   2.027  0.5624 -0.4249 -2.5824
  399SOL    HW2 1197   2.070   2.458   1.918 -1.4526  0.9998  0.3955
  400SOL     OW 1198   0.120   1.229   1.703 -0.0240  0.0144 -0.0046
  400SOL    HW1 1199   0.093   1.139   1.734  2.3962  0.9640 -1.6352
  400SOL    HW2 1200   0.060   1.304   1.744  1.8863 -1.9282  0.2915
  401SOL     OW 1201   0.488   0.934   0.662 -0.0344  0.4671  0.4201
  401SOL    HW1 1202   0.455   0.879   0.588 -0.1864  1.3496 -2.3056
  401SOL    HW2 1203   0.546   0.873   0.721 -2.6648 -0.8501 -0.0736
  402SOL     OW 1204   0.662   2.927   2.310 -0.1728  0.6116  0.1295
  402SOL    HW1 1205   0.761   2.907   2.286 -1.5706 -2.5714  1.2874
  402SOL    HW2 1206   0.600   2.902   2.235 -0.1592  0.0147  0.8304
  403SOL     OW 1207   2.696   1.826   1.698  0.1625  1.2783  0.6247
  403SOL    HW1 1208   2.787   1.848   1.739 -2.1786 -0.7074 -0.1607
  403SOL    HW2 1209   2.688   1.727   1.672 -1.4625 -0.5925  0.4598
  404SOL     OW 1210   2.654   2.039   2.078  0.6534 -0.7187 -0.0664
  404SOL    HW1 1211   2.667   2.047   2.180 -0.2245 -0.5592  1.2167
  404SOL    HW2 1212   2.645   2.135   2.038 -2.8014 -2.0249 -0.1210
  405SOL     OW 1213   2.012   0.118   2.732 -0.8359  0.3234 -0.0423
  405SOL    HW1 1214   2.031   0.023   2.711 -0.4211  1.3696  0.5655
  405SOL    HW2 1215   1.984   0.167   2.650  1.3022 -1.0815  0.4117
  406SOL     OW 1216   1.059   1.899   0.145  0.3827  0.4551 -0.6088
  406SOL    HW1 1217   1.147   1.938   0.119  0.1109  0.6217 -0.9263
  406SOL    HW2 1218   1.001   1.959   0.201  1.1459 -2.1426 -0.2437
  407SOL     OW 1219   1.327   1.298   0.209  0.7445  0.3438 -0.1603
  407SOL    HW1 1220   1.340   1.306   0.109 -0.1916 -0.2779 -0.2566
  407SOL    HW2 1221   1.412   1.322   0.263  0.6013  1.2089  0.6467
  408SOL     OW 1222   0.417   0.383   1.409 -1.0696  0.3075 -0.2367
  408SOL    HW1 1223   0.356   0.447   1.464 -1.3430 -0.1901 -1.0010
  408SOL    HW2 1224   0.469   0.312   1.463 -0.3665  1.0135 -0.8420
  409SOL     OW 1225   2.846   1.560   2.898 -0.0238 -0.1101 -0.4839
  409SOL    HW1 1226   2.768   1.539   2.839  0.0171  0.6164  1.9018
  409SOL    HW2 1227   2.851   1.657   2.934  2.8569  0.2903 -0.2217
  410SOL     OW 1228   2.740   2.704   0.755  0.0378 -0.2762  0.5039
  410SOL    HW1 1229   2.689   2.762   0.825  1.9755  1.7271  2.3123
  410SOL    HW2 1230   2.759   2.622   0.802 -1.4427 -0.3542 -1.5054
  411SOL     OW 1231   3.077   0.718   0.511  0.1666 -0.1303 -0.5210
  411SOL    HW1 1232   3.085   0.712   0.611 -2.1242  3.6362 -0.5339
  411SOL    HW2 1233   2.979   0.734   0.481  2.5794 -2.0345 -1.9425
  412SOL     OW 1234   1.609   2.981   0.392 -0.0307  0.2606  0.0571
  412SOL    HW1 1235   1.629   3.078   0.372 -1.8367 -0.6964  0.2000
  412SOL    HW2 1236   1.660   2.919   0.331 -3.2002 -2.6177  0.2012
  413SOL     OW 1237   1.573   0.407   1.852 -0.3015 -0.8799 -0.5475
  413SOL    HW1 1238   1.618   0.359   1.928  1.6190 -2.4846  2.3473
  413SOL    HW2 1239   1.493   0.452   1.894 -1.9235 -1.3591  0.0201
  414SOL     OW 1240   0.224   1.059   0.346  0.0595 -0.0958  0.5012
  414SOL    HW1 1241   0.179   1.002   0.419  0.0416 -1.7622  0.1244
  414SOL    HW2 1242   0.319   1.085   0.374 -0.9670  1.5217 -0.7803
  415SOL     OW 1243   2.760   1.440   0.201 -0.4225  0.3511 -0.4521
  415SOL    HW1 1244   2.760   1.355   0.145 -0.9164  0.8992  0.3098
  415SOL    HW2 1245   2.661   1.443   0.234 -2.7115 -1.1975  0.9994
  416SOL     OW 1246   2.625   0.435   2.796 -0.1235 -0.4884  0.1818
  416SOL    HW1 1247   2.544   0.438   2.730 -0.8154  1.6948  0.0041
  416SOL    HW2 1248   2.629   0.514   2.861  0.5728 -3.4898 -2.1381
  417SOL     OW 1249   2.585   0.117   0.620  0.1575  0.0140 -0.2693
  417SOL    HW1 1250   2.674   0.063   0.628 -0.5332  0.0278 -2.9453
  417SOL    HW2 1251   2.522   0.084   0.551 -2.3565 -0.4474  3.3291
  418SOL     OW 1252   0.444   0.324   0.108 -0.1776  0.5487 -0.5067
  418SOL    HW1 1253   0.511   0.378   0.154 -0.7020 -2.6234 -1.8490
  418SOL    HW2 1254   0.401   0.373   0.030 -0.6081  1.1427 -1.1506
  419SOL     OW 1255   0.610   0.828   0.930  0.0770 -0.4174 -0.7669
  419SOL    HW1 1256   0.587   0.925   0.966 -1.3514  2.8254  1.8714
  419SOL    HW2 1257   0.549   0.755   0.969  0.4016  2.7520 -0.2904
  420SOL     OW 1258   0.141   0.956   0.913  0.5010  0.0419  0.6821
  420SOL    HW1 1259   0.210   1.030   0.912 -1.7778 -1.0375  2.2995
  420SOL    HW2 1260   0.056   0.992   0.959 -1.1886  0.6062 -3.3495
  421SOL     OW 1261   0.750   2.082   0.098 -0.2065 -0.2940  0.0935
  421SOL    HW1 1262   0.669   2.135   0.063  4.9496  0.4186 -1.1102
  421SOL    HW2 1263   0.835   2.141   0.093  3.3006  0.1230  0.2057
  422SOL     OW 1264   2.473   0.234   2.049  0.0947 -0.4035 -0.1627
  422SOL    HW1 1265   2.496   0.254   2.145  2.2612 -0.2072  0.6162
  422SOL    HW2 1266   2.401   0.303   2.022  0.2190 -2.3842 -1.1174
  423SOL     OW 1267   1.930   1.759   2.927  0.2138  0.1693  0.6109
  423SOL    HW1 1268   2.000   1.824   2.968  1.9231  1.2990  0.7831
  423SOL    HW2 1269   1.873   1.814   2.856 -2.4587  2.2650 -3.6513
  424SOL     OW 1270   1.653   1.362   2.306  0.1203 -0.2184 -0.2867
  424SOL    HW1 1271   1.751   1.390   2.302 -0.1386  1.1040 -0.1468
  424SOL    HW2 1272   1.615   1.334   2.397 -3.1689  1.6738 -0.7088
  425SOL     OW 1273   2.962   2.576   2.265 -0.3020 -0.0806  0.0703
  425SOL    HW1 1274   3.039   2.637   2.301 -1.6001 -0.8091  0.6104
  425SOL    HW2 1275   2.883   2.587   2.330  0.3673 -0.6818  0.2621
  426SOL     OW 1276   2.243   2.746   0.664  0.0244  0.0961 -0.1015
  426SOL    HW1 1277   2.150   2.706   0.679 -2.7696 -1.1483  2.7377
  426SOL    HW2 1278   2.231   2.846   0.654 -0.6267  0.1562  0.8706
  427SOL     OW 1279   0.544   0.931   2.486  0.1563 -0.5391  0.1929
  427SOL    HW1 1280   0.584   1.021   2.506 -0.1302 -4.2414  1.1743
  427SOL    HW2 1281   0.595   0.852   2.523 -3.0899 -2.9715 -1.4220
  428SOL     OW 1282   2.850   1.288   2.655 -0.1246 -0.3556 -0.4787
  428SOL    HW1 1283   2.855   1.213   2.721  1.9876  0.9284 -1.6481
  428SOL    HW2 1284   2.769   1.347   2.674 -0.5987  0.1940 -2.1068
  429SOL     OW 1285   2.395   0.277   0.357 -0.1127  0.5222  0.2969
  429SOL    HW1 1286   2.447   0.264   0.270 -0.9810 -1.0014 -2.6258
  429SOL    HW2 1287   2.379   0.187   0.406 -2.5708  0.6939  1.2852
  430SOL     OW 1288   1.621   1.764   2.389 -0.1491  0.1788  0.0897
  430SOL    HW1 1289   1.639   1.788   2.292 -4.3443  0.9915  0.5096
  430SOL    HW2 1290   1.523   1.742   2.412  3.4089  0.5102  2.2749
  431SOL     OW 1291   0.032   1.703   1.741 -0.8188 -0.3286  0.6876
  431SOL    HW1 1292   3.054   1.755   1.784  0.4077 -1.3468  1.1592
  431SOL    HW2 1293   0.115   1.763   1.737 -1.0014 -1.9413  3.0953
  432SOL     OW 1294   1.290   1.901   2.305  0.3378 -0.0157 -0.4007
  432SOL    HW1 1295   1.348   1.938   2.231  0.5705  0.0562  1.4652
  432SOL    HW2 1296   1.200   1.946   2.304 -1.1065  2.6561  1.7815
  433SOL     OW 1297   0.744   2.248   0.492 -0.3074 -0.7488  0.0062
  433SOL    HW1 1298   0.717   2.331   0.441 -1.1046 -0.7400 -1.3684
  433SOL    HW2 1299   0.660   2.205   0.519  2.2502  2.3145 -1.2790
  434SOL     OW 1300   0.308   2.159   2.518  0.4186 -0.5756  0.6520
  434SOL    HW1 1301   0.225   2.223   2.516 -2.0315  1.5977 -2.0950
  434SOL    HW2 1302   0.339   2.146   2.419  0.1809  2.1241 -0.9416
  435SOL     OW 1303   0.231   1.469   0.458  0.1224  0.3747  0.1993
  435SOL    HW1 1304   0.172   1.404   0.506  0.6210  1.0703  1.6311
  435SOL    HW2 1305   0.329   1.448   0.477 -1.1223  0.2765  1.2243
  436SOL     OW 1306   0.117   2.349   1.823  0.4279 -0.3802 -0.1791
  436SOL    HW1 1307   0.069   2.415   1.763  0.7604  2.2849 -0.1838
  436SOL    HW2 1308   0.169   2.276   1.775 -0.4990 -2.4601  1.9742
  437SOL     OW 1309   1.011   0.301   0.336  0.0752  0.6144  0.0507
  437SOL    HW1 1310   0.975   0.276   0.247 -3.5217 -3.0223  0.8790
  437SOL    HW2 1311   1.028   0.404   0.337  1.4328  2.7405 -1.0631
  438SOL     OW 1312   0.400   2.412   0.651  0.4462 -0.1987 -0.2539
  438SOL    HW1 1313   0.396   2.490   0.584 -0.2271  1.7233  0.4316
  438SOL    HW2 1314   0.405   2.442   0.750 -0.9634  1.4229 -1.6419
  439SOL     OW 1315   0.581   2.533   1.680 -0.5863 -0.1163 -0.1191
  439SOL    HW1 1316   0.578   2.448   1.625 -0.3802  0.1337 -1.6122
  439SOL    HW2 1317   0.492   2.581   1.692  1.6512 -1.5334 -1.6628
  440SOL     OW 1318   1.441   3.035   1.893 -0.2446  1.0252 -0.9055
  440SOL    HW1 1319   1.464   0.025   1.840  1.2397  1.3278 -3.7229
  440SOL    HW2 1320   1.485   2.952   1.848  0.2652 -1.0255 -1.4724
  441SOL     OW 1321   0.032   0.307   1.443  0.5212  0.0106  0.2960
  441SOL    HW1 1322   3.072   0.339   1.522  0.9174 -1.6146 -1.1704
  441SOL    HW2 1323   0.015   0.356   1.357  0.1301 -1.4044  3.1061
  442SOL     OW 1324   1.760   2.134   0.712 -0.5288 -0.1713 -0.0814
  442SOL    HW1 1325   1.768   2.048   0.761 -1.5299  0.0473 -0.9597
  442SOL    HW2 1326   1.818   2.147   0.632 -2.5926 -0.6052 -0.9066
  443SOL     OW 1327   2.769   0.366   2.345 -0.2081 -0.4121  0.4450
  443SOL    HW1 1328   2.845   0.305   2.319 -2.7880  2.7221 -3.0883
  443SOL    HW2 1329   2.676   0.316   2.339 -0.1943  0.3900  0.0902
  444SOL     OW 1330   2.270   0.850   1.782  0.0688  0.6872 -0.0036
  444SOL    HW1 1331   2.272   0.932   1.841  0.0323 -1.3636 -1.5281
  444SOL    HW2 1332   2.192   0.791   1.801  0.6538  0.1466  0.4443
  445SOL     OW 1333   2.708   2.336   1.391 -0.1124  0.0818 -0.0869
  445SOL    HW1 1334   2.641   2.267   1.416  3.6866  3.4095 -1.1319
  445SOL    HW2 1335   2.677   2.390   1.310  0.2032  1.0028  0.5667
  446SOL     OW 1336   2.924   1.641   0.589 -0.1522 -0.0278 -0.0814
  446SOL    HW1 1337   2.887   1.581   0.514  0.8157 -2.2315  0.7330
  446SOL    HW2 1338   3.008   1.605   0.629  0.2644  1.3343 -1.1786
  447SOL     OW 1339   0.672   1.361   0.707 -0.1328 -0.1879  0.5162
  447SOL    HW1 1340   0.712   1.271   0.694 -0.6404  1.2048 -1.2683
  447SOL    HW2 1341   0.737   1.434   0.679  1.5894 -2.6213  0.7695
  448SOL     OW 1342   1.500   1.488   1.463 -0.1091 -0.1207  0.2200
  448SOL    HW1 1343   1.559   1.405   1.464 -1.1848  2.3771  0.6770
  448SOL    HW2 1344   1.517   1.551   1.386 -0.7137 -0.8109 -0.5426
  449SOL     OW 1345   0.784   1.335   3.085  0.2799  0.3468  0.3457
  449SOL    HW1 1346   0.696   1.335   0.047  0.1711 -2.7565  0.3394
  449SOL    HW2 1347   0.779   1.273   3.006  1.5931  2.8614 -0.3144
  450SOL     OW 1348   2.338   2.192   2.121  0.4740 -0.0034 -0.1016
  450SOL    HW1 1349   2.361   2.195   2.017  0.5848  0.3642 -6.1532
  450SOL    HW2 1350   2.420   2.192   2.179  2.4202  0.8587  0.5119
  451SOL     OW 1351   1.829   3.036   2.364  0.6185 -0.4737  0.0762
  451SOL    HW1 1352   1.734   3.074   2.367  1.0298  0.1361  0.4320
  451SOL    HW2 1353   1.869   3.024   2.457 -0.3062 -2.0170  0.8379
  452SOL     OW 1354   1.156   2.934   1.567 -0.6508 -0.0316  0.4167
  452SOL    HW1 1355   1.116   2.989   1.490 -3.0337 -0.2880  0.0143
  452SOL    HW2 1356   1.203   2.853   1.526  0.6509 -0.7966 -2.0702
  453SOL     OW 1357   1.524   1.124   0.925 -0.4664  0.1311 -0.0618
  453SOL    HW1 1358   1.457   1.111   0.849  1.8796  1.6539 -2.5873
  453SOL    HW2 1359   1.617   1.130   0.886  0.0095  0.1340 -1.5355
  454SOL     OW 1360   0.389   1.514   1.030  0.0212  0.1116  0.2115
  454SOL    HW1 1361   0.384   1.496   0.928 -0.0487 -0.6051 -3.0814
  454SOL    HW2 1362   0.483   1.549   1.060  0.1590 -0.6158  1.0304
  455SOL     OW 1363   2.677   0.012   0.267  0.5529 -0.1794  0.1645
  455SOL    HW1 1364   2.614   0.072   0.215  1.7824  2.7108 -3.5711
  455SOL    HW2 1365   2.771   0.027   0.233 -2.8616 -0.7554 -1.0078
  456SOL     OW 1366   2.525   2.539   1.273  0.2125  0.3095 -0.2768
  456SOL    HW1 1367   2.517   2.634   1.234 -2.6216  1.3191 -1.2262
  456SOL    HW2 1368   2.489   2.528   1.367 -3.6242 -2.0348 -0.9349
  457SOL     OW 1369   1.242   0.092   0.197  0.1672  0.1017  0.7053
  457SOL    HW1 1370   1.249   0.181   0.149  1.9509 -1.5902 -0.5339
  457SOL    HW2 1371   1.218   0.107   0.297 -2.7160 -3.1167  1.7860
  458SOL     OW 1372   2.812   0.330   0.243 -0.1402  0.0202 -1.1970
  458SOL    HW1 1373   2.838   0.401   0.318 -1.9892  0.5761  3.6604
  458SOL    HW2 1374   2.723   0.285   0.262 -0.9789  2.5656  1.6657
  459SOL     OW 1375   2.086   0.458   2.636  0.1087 -0.1414  0.2867
  459SOL    HW1 1376   2.016   0.389   2.612  0.6460  1.0945  0.9035
  459SOL    HW2 1377   2.156   0.422   2.699 -0.7955  0.3438  0.2612
  460SOL     OW 1378   2.821   0.336   2.609 -0.0264 -0.1728 -0.1226
  460SOL    HW1 1379   2.767   0.375   2.689 -1.7048  2.8217  0.2390
  460SOL    HW2 1380   2.771   0.344   2.521  0.8283  2.4597 -0.3749
  461SOL     OW 1381   1.262   1.831   0.936 -0.1788 -0.2523 -0.3950
  461SOL    HW1 1382   1.291   1.737   0.961 -0.2922 -1.6208 -0.0894
  461SOL    HW2 1383   1.187   1.832   0.866 -1.3368  2.7297 -0.7558
  462SOL     OW 1384   2.452   2.902   1.450 -0.3212 -0.0032 -0.0454
  462SOL    HW1 1385   2.398   2.984   1.419  1.9191 -1.2864 -4.2688
  462SOL    HW2 1386   2.420   2.855   1.534 -1.6936 -3.1015 -0.8835
  463SOL     OW 1387   2.789   1.182   0.439  0.5577  0.0026 -0.1598
  463SOL    HW1 1388   2.849   1.158   0.364  0.5651  0.7966  1.1150
  463SOL    HW2 1389   2.715   1.114   0.456  1.4278 -0.7254  0.0683
  464SOL     OW 1390   0.233   2.417   1.167 -0.0012  0.1058  0.0991
  464SOL    HW1 1391   0.225   2.497   1.101  1.0263  1.7309 -1.8772
  464SOL    HW2 1392   0.220   2.454   1.261  0.6029 -3.5644  2.0929
  465SOL     OW 1393   0.069   1.522   0.233 -0.0172 -0.1575 -0.5644
  465SOL    HW1 1394   0.072   1.430   0.197  0.1627  5.1079 -0.8655
  465SOL    HW2 1395   0.124   1.529   0.319  1.1642  2.5426  0.8277
  466SOL     OW 1396   1.157   0.402   2.658  0.1001 -0.3360  0.0829
  466SOL    HW1 1397   1.085   0.346   2.701  0.4498  0.7358  0.4376
  466SOL    HW2 1398   1.116   0.493   2.637 -3.3394  0.7315  0.6003
  467SOL     OW 1399   0.673   0.664   2.152 -0.2985 -0.2587  0.2780
  467SOL    HW1 1400   0.726   0.641   2.071 -2.1458  0.3147  0.6157
  467SOL    HW2 1401   0.722   0.648   2.241 -2.7419  0.7752 -0.6371
  468SOL     OW 1402   0.646   0.924   2.223  0.6089  0.3196  0.5900
  468SOL    HW1 1403   0.655   0.827   2.189 -0.8863 -1.1000 -0.3319
  468SOL    HW2 1404   0.606   0.928   2.315  2.2243  1.7584  0.4060
  469SOL     OW 1405   3.064   2.174   0.115  0.5599  0.5084 -0.5373
  469SOL    HW1 1406   3.063   2.091   0.059 -1.3336  1.6048  1.6521
  469SOL    HW2 1407   3.025   2.257   0.073 -0.8117  2.1665  3.2554
  470SOL     OW 1408   2.411   2.025   3.046 -0.2060  0.1671  0.3145
  470SOL    HW1 1409   2.361   1.966   2.979  1.1383  0.4521  0.3124
  470SOL    HW2 1410   2.379   2.012   0.043  0.6968  0.0393  2.1096
  471SOL     OW 1411   2.141   0.596   2.193 -0.0982 -0.2573  0.9314
  471SOL    HW1 1412   2.222   0.658   2.219 -0.7268  1.3010  0.8989
  471SOL    HW2 1413   2.058   0.637   2.231  2.1827 -0.0330 -0.1048
  472SOL     OW 1414   0.523   2.541   1.336  0.2736 -0.2115  0.3420
  472SOL    HW1 1415   0.457   2.466   1.358  0.0017 -1.8630  1.4228
  472SOL    HW2 1416   0.484   2.608   1.268 -0.5287 -1.2873 -2.0826
  473SOL     OW 1417   0.306   2.970   2.397  0.3784 -0.6279 -0.2918
  473SOL    HW1 1418   0.390   3.014   2.434 -3.8154  1.5722  1.8951
  473SOL    HW2 1419   0.343   2.923   2.317 -1.1125 -0.6169  3.6534
  474SOL     OW 1420   1.615   0.082   2.057  0.0984  0.2073 -0.0392
  474SOL    HW1 1421   1.598   0.094   1.954 -2.6459  0.6982 -3.9220
  474SOL    HW2 1422   1.609   3.080   2.076  1.1195  1.2134 -0.6203
  475SOL     OW 1423   1.642   2.679   0.821 -0.0706  0.6874 -0.3892
  475SOL    HW1 1424   1.655   2.651   0.721  0.4791  0.3050 -1.1121
  475SOL    HW2 1425   1.705   2.626   0.875 -2.4646 -1.4643 -2.0909
  476SOL     OW 1426   0.318   0.700   0.973 -0.3935  0.1295 -0.2057
  476SOL    HW1 1427   0.283   0.792   0.945  2.1079 -1.5193  0.2220
  476SOL    HW2 1428   0.304   0.625   0.906  1.4031 -0.1384  3.0384
  477SOL     OW 1429   1.170   2.264   0.513  0.7511  0.5619 -0.2273
  477SOL    HW1 1430   1.201   2.172   0.489  2.3156 -1.3296  0.6532
  477SOL    HW2 1431   1.090   2.257   0.573  3.2001 -0.2117 -0.8102
  478SOL     OW 1432   0.077   2.326   2.531  0.1183  0.5589  0.1147
  478SOL    HW1 1433   0.087   2.425   2.559  2.2845  2.7116  1.3983
  478SOL    HW2 1434   0.038   2.324   2.437 -2.1870 -0.1065 -3.6058
  479SOL     OW 1435   2.660   0.402   1.091  0.4827 -0.8439  0.1420
  479SOL    HW1 1436   2.712   0.405   1.005  0.5742  0.2869  0.4303
  479SOL    HW2 1437   2.628   0.308   1.115 -0.5996  0.9934  0.0820
  480SOL     OW 1438   0.223   2.873   0.368 -1.0865  0.1783 -0.8655
  480SOL    HW1 1439   0.220   2.954   0.428 -0.8674  2.9212  0.1979
  480SOL    HW2 1440   0.157   2.801   0.390  1.3205  0.5013 -0.8144
  481SOL     OW 1441   2.518   2.110   1.426 -0.9398 -0.4176 -0.3411
  481SOL    HW1 1442   2.460   2.026   1.421 -2.4439 -1.5666  1.7561
  481SOL    HW2 1443   2.612   2.080   1.456 -0.3231 -0.5100  0.4735
  482SOL     OW 1444   1.099   2.612   2.872  0.1139 -0.0990  0.3815
  482SOL    HW1 1445   1.175   2.652   2.819 -0.3002  0.3132  1.9887
  482SOL    HW2 1446   1.038   2.555   2.811 -2.3033  0.2764 -1.5419
  483SOL     OW 1447   0.494   2.540   2.436  0.3982  0.1224  0.1009
  483SOL    HW1 1448   0.402   2.583   2.433 -0.5916  3.1483  1.5990
  483SOL    HW2 1449   0.525   2.473   2.362  1.2384 -0.5130 -0.2846
  484SOL     OW 1450   1.165   0.703   1.639 -0.2699  0.1487  0.5760
  484SOL    HW1 1451   1.254   0.668   1.664 -1.3017  1.6971 -0.2022
  484SOL    HW2 1452   1.158   0.803   1.651 -0.7709  1.1935 -0.3629
  485SOL     OW 1453   2.290   0.834   2.440 -0.1903  0.1427 -0.0892
  485SOL    HW1 1454   2.208   0.789   2.471  1.1740 -0.0915 -0.3891
  485SOL    HW2 1455   2.301   0.842   2.340  0.8742 -1.8176  2.1896
  486SOL     OW 1456   2.323   3.075   1.019 -0.0208 -0.5094  0.4298
  486SOL    HW1 1457   2.317   2.975   1.034 -5.7274 -0.7068  2.1770
  486SOL    HW2 1458   2.393   0.012   0.954  0.8912  1.9762  2.2392
  487SOL     OW 1459   0.583   2.081   1.758  0.8230  0.1473 -0.4319
  487SOL    HW1 1460   0.577   1.991   1.711  0.7843 -1.5926 -1.3766
  487SOL    HW2 1461   0.675   2.099   1.799  1.5819 -2.1013  2.9002
  488SOL     OW 1462   2.613   1.449   2.746  0.0500 -0.1187 -0.8255
  488SOL    HW1 1463   2.567   1.530   2.775 -0.0460 -0.4288 -0.9588
  488SOL    HW2 1464   2.588   1.369   2.806  3.2397 -0.8997 -0.2020
  489SOL     OW 1465   1.936   3.056   0.707  0.3261 -0.3460 -0.4096
  489SOL    HW1 1466   1.892   3.034   0.800  1.2660 -0.0670  3.7657
  489SOL    HW2 1467   1.967   0.058   0.708 -1.3686 -0.9427  1.9459
  490SOL     OW 1468   0.983   1.107   0.522 -0.7224  0.1048  0.0542
  490SOL    HW1 1469   1.015   1.197   0.491 -0.3458  0.9689 -0.0212
  490SOL    HW2 1470   0.949   1.053   0.444  3.0713 -0.2972  0.0267
  491SOL     OW 1471   0.497   2.325   1.066  0.2452 -0.3829 -0.2291
  491SOL    HW1 1472   0.510   2.407   1.009  3.8588 -0.0900  0.9042
  491SOL    HW2 1473   0.410   2.325   1.126 -0.9057  0.2417  2.2595
  492SOL     OW 1474   1.500   1.860   1.890  0.4877 -0.7242 -0.3088
  492SOL    HW1 1475   1.515   1.942   1.831  1.2696  1.4126  0.9953
  492SOL    HW2 1476   1.466   1.777   1.837  2.2577 -3.1278  0.8493
  493SOL     OW 1477   2.793   2.493   0.902  0.0617 -0.0554  0.5693
  493SOL    HW1 1478   2.854   2.515   0.978 -1.9412  0.9028 -0.0703
  493SOL    HW2 1479   2.730   2.413   0.918 -0.1806 -0.7403  0.2670
  494SOL     OW 1480   2.766   2.164   0.371  0.1840 -0.3685 -0.2775
  494SOL    HW1 1481   2.744   2.094   0.302  1.3345  0.9364  0.4483
  494SOL    HW2 1482   2.867   2.162   0.394  0.7695 -1.7099 -1.1814
  495SOL     OW 1483   2.727   2.704   0.129  0.7720 -0.2928 -0.6371
  495SOL    HW1 1484   2.809   2.701   0.188  2.6094  2.4622 -0.2090
  495SOL    HW2 1485   2.759   2.687   0.032  1.2610 -1.3635  1.3372
  496SOL     OW 1486   2.441   0.488   1.381  0.1561 -0.0267  0.6150
  496SOL    HW1 1487   2.372   0.486   1.457 -1.4544 -2.4989  2.0300
  496SOL    HW2 1488   2.495   0.403   1.381 -0.5499  0.6827 -1.8515
  497SOL     OW 1489   2.943   1.311   2.997 -0.4918 -0.7157  0.1890
  497SOL    HW1 1490   3.041   1.293   3.027  0.6052  2.4165 -0.0981
  497SOL    HW2 1491   2.932   1.407   2.968 -2.4210 -1.4591  0.1035
  498SOL     OW 1492   3.095   1.447   1.778  0.2008 -0.1666 -0.2173
  498SOL    HW1 1493   3.001   1.444   1.812  3.8058 -0.3222 -0.3255
  498SOL    HW2 1494   0.030   1.543   1.754  0.8883  1.1980 -0.4542
  499SOL     OW 1495   0.699   2.362   2.833  0.6888 -0.1394  0.2456
  499SOL    HW1 1496   0.626   2.404   2.777  1.4013  0.9688  0.1090
  499SOL    HW2 1497   0.686   2.261   2.848 -0.8177 -1.6722  0.8561
  500SOL     OW 1498   1.903   0.432   3.061 -0.0869  0.0428 -0.5118
  500SOL    HW1 1499   1.976   0.490   3.030 -4.2703 -1.8842  0.2082
  500SOL    HW2 1500   1.891   0.344   3.005  0.3636 -1.1487  1.4910
  501SOL     OW 1501   1.105   0.067   2.081 -0.0714 -0.0910  0.4101
  501SOL    HW1 1502   1.176   0.112   2.141 -2.0925 -1.6702  1.4620
  501SOL    HW2 1503   1.151   0.011   2.008  0.7508 -1.6749  0.8554
  502SOL     OW 1504   2.547   0.391   1.706 -0.0169  0.2824  0.0363
  502SOL    HW1 1505   2.615   0.433   1.645  0.1863  2.1162 -2.6967
  502SOL    HW2 1506   2.538   0.291   1.691  0.4145  0.8685 -0.7502
  503SOL     OW 1507   2.293   1.924   2.084 -0.1351 -0.3728  0.2083
  503SOL    HW1 1508   2.293   2.029   2.092  0.0954  1.8903 -0.4046
  503SOL    HW2 1509   2.220   1.894   2.020  1.0340  0.1859  1.8287
  504SOL     OW 1510   1.485   0.742   1.501 -0.5633 -0.2919 -0.0177
  504SOL    HW1 1511   1.437   0.828   1.470 -2.1232 -0.3193 -0.0528
  504SOL    HW2 1512   1.488   0.673   1.430 -1.8509  0.4567 -1.2011
  505SOL     OW 1513   0.833   0.872   1.835 -0.2157 -0.0692  0.0241
  505SOL    HW1 1514   0.910   0.874   1.901  0.3007 -0.1533  1.5229
  505SOL    HW2 1515   0.847   0.795   1.771  4.0531 -2.3663  2.8609
  506SOL     OW 1516   0.386   0.217   2.558 -0.0794 -0.0765  0.3037
  506SOL    HW1 1517   0.371   0.202   2.656 -0.5104 -1.2761 -5.0901
  506SOL    HW2 1518   0.456   0.147   2.525  2.4281  0.1105 -0.0173
  507SOL     OW 1519   0.157   0.146   0.084 -0.0996 -0.1425  0.4755
  507SOL    HW1 1520   0.159   0.203   0.169  1.3769  0.2601  1.5481
  507SOL    HW2 1521   0.145   0.210   0.005 -1.1720 -0.2840 -2.1467
  508SOL     OW 1522   1.156   1.152   1.539 -0.0912  0.2491  0.0013
  508SOL    HW1 1523   1.074   1.206   1.509 -1.7131  0.6326  0.0048
  508SOL    HW2 1524   1.126   1.092   1.616 -0.9269 -0.8142  1.3361
  509SOL     OW 1525   1.417   2.215   1.316 -0.0530  0.3407  0.4813
  509SOL    HW1 1526   1.492   2.153   1.348  0.4604 -0.3109 -0.7317
  509SOL    HW2 1527   1.321   2.189   1.349 -0.4983  0.6158  1.9603
  510SOL     OW 1528   2.592   1.208   1.894  0.6033  0.3122  0.0676
  510SOL    HW1 1529   2.582   1.297   1.850  1.7030 -0.6444 -0.3511
  510SOL    HW2 1530   2.641   1.229   1.980  2.3021  2.0495 -0.6545
  511SOL     OW 1531   0.966   2.234   1.529  0.1521 -0.0848 -0.1469
  511SOL    HW1 1532   0.946   2.339   1.524  0.2763  1.9294 -0.8397
  511SOL    HW2 1533   0.880   2.184   1.525 -0.3198  3.2731 -0.0503
  512SOL     OW 1534   2.762   1.677   0.983 -0.1563  0.1734 -0.2916
  512SOL    HW1 1535   2.800   1.615   0.911  3.6830  1.4856 -1.6322
  512SOL    HW2 1536   2.793   1.773   0.967  0.3751 -0.5866  1.6569
  513SOL     OW 1537   0.164   1.321   2.772  0.0147 -0.5104  0.5815
  513SOL    HW1 1538   0.233   1.397   2.794  1.1598  0.5565 -0.9974
  513SOL    HW2 1539   0.125   1.291   2.858  1.7907  2.4157 -2.2524
  514SOL     OW 1540   2.769   2.314   2.415  0.1886 -0.4219 -0.1590
  514SOL    HW1 1541   2.859   2.276   2.387  1.0022  0.0020  0.9617
  514SOL    HW2 1542   2.775   2.415   2.431  0.3976  1.4440 -2.5568
  515SOL     OW 1543   2.312   1.122   0.946  0.3353  0.0039  0.2165
  515SOL    HW1 1544   2.235   1.058   0.927  1.3848  0.4618  0.5958
  515SOL    HW2 1545   2.286   1.213   0.916  0.1817  0.5446  0.7217
  516SOL     OW 1546   2.179   1.880   0.247  0.2204  0.0085  0.3037
  516SOL    HW1 1547   2.196   1.953   0.316 -0.4009 -1.6914  0.8735
  516SOL    HW2 1548   2.088   1.844   0.265  1.5094 -0.8696  0.1563
  517SOL     OW 1549   0.791   1.044   0.010 -0.6157  0.2102  0.2979
  517SOL    HW1 1550   0.791   1.060   3.007  4.0425  0.7093  0.7702
  517SOL    HW2 1551   0.858   1.103   0.062  0.4324  0.5729  0.9833
  518SOL     OW 1552   2.724   3.066   2.146  0.2391  0.2582 -0.3567
  518SOL    HW1 1553   2.800   3.023   2.195  0.2337  2.2220 -0.5586
  518SOL    HW2 1554   2.729   3.024   2.053 -0.4164 -0.8132  0.2711
  519SOL     OW 1555   1.571   1.531   2.777 -0.6725 -0.1790  0.5040
  519SOL    HW1 1556   1.531   1.515   2.870  0.2240 -3.1550  0.6020
  519SOL    HW2 1557   1.672   1.518   2.771 -0.0677  1.8846  3.0770
  520SOL     OW 1558   2.515   2.878   2.348  0.3079  0.1888  0.0097
  520SOL    HW1 1559   2.475   2.947   2.288 -0.0032  0.5501  1.3183
  520SOL    HW2 1560   2.588   2.832   2.290  1.2800  1.5554  0.2761
  521SOL     OW 1561   0.566   1.470   2.120 -0.0205  0.4753 -0.0271
  521SOL    HW1 1562   0.628   1.421   2.185 -2.6043 -1.9615 -0.7831
  521SOL    HW2 1563   0.488   1.404   2.088 -0.1306  0.1070 -0.0649
  522SOL     OW 1564   0.765   2.487   1.888  0.1335  0.3874 -0.5118
  522SOL    HW1 1565   0.693   2.508   1.814  2.6583 -1.8332 -1.0712
  522SOL    HW2 1566   0.760   2.545   1.971 -1.1030  2.6242  2.6655
  523SOL     OW 1567   2.970   2.278   1.414 -0.5392 -0.1022 -0.3850
  523SOL    HW1 1568   2.980   2.226   1.502 -0.3479 -1.2346  0.0358
  523SOL    HW2 1569   2.871   2.290   1.397  2.4433 -1.2710  3.8017
  524SOL     OW 1570   1.352   2.343   0.707 -0.2762 -0.0131 -0.0818
  524SOL    HW1 1571   1.296   2.285   0.641 -0.1661  2.0889  1.2789
  524SOL    HW2 1572   1.336   2.317   0.806  1.0255  0.5635 -0.9417
  525SOL     OW 1573   2.808   1.038   0.880  0.0052 -0.0819  0.6475
  525SOL    HW1 1574   2.834   1.096   0.799  1.9390  0.6068 -3.8581
  525SOL    HW2 1575   2.717   1.061   0.921  0.8796 -2.9685 -1.2222
  526SOL     OW 1576   0.926   2.469   0.888  0.2127  0.0964  0.4890
  526SOL    HW1 1577   0.917   2.468   0.783 -0.2173 -2.0776  0.6776
  526SOL    HW2 1578   0.953   2.379   0.929 -0.1199  0.7110  0.0589
  527SOL     OW 1579   2.080   2.257   0.597  0.3725 -0.6117  0.0498
  527SOL    HW1 1580   2.019   2.335   0.570 -2.3512 -0.2621  1.1627
  527SOL    HW2 1581   2.132   2.285   0.684  0.7793  0.5147  1.2802
  528SOL     OW 1582   2.249   0.192   0.017  0.2249  0.0847  0.2353
  528SOL    HW1 1583   2.262   0.200   3.014  0.5296 -1.0796 -0.8296
  528SOL    HW2 1584   2.216   0.096   0.037 -1.3025  2.1295  2.4251
  529SOL     OW 1585   1.364   1.520   2.165 -0.4017 -0.3616 -0.9295
  529SOL    HW1 1586   1.438   1.453   2.175 -1.6966  3.2444 -0.8041
  529SOL    HW2 1587   1.358   1.587   2.245 -0.2164 -0.0129  0.2179
  530SOL     OW 1588   2.405   1.145   2.205 -0.0577 -0.3528 -0.1172
  530SOL    HW1 1589   2.483   1.083   2.225  0.8359  0.5896  1.5185
  530SOL    HW2 1590   2.434   1.230   2.169 -0.7713 -2.0338  0.1529
  531SOL     OW 1591   0.926   0.825   0.065  0.5292 -0.2389  0.2975
  531SOL    HW1 1592   0.845   0.885   0.052  1.0414 -1.7546  1.4353
  531SOL    HW2 1593   0.901   0.740   0.112 -0.5547  2.1689 -0.8282
  532SOL     OW 1594   1.598   1.449   0.602  0.0418  0.5671 -0.0515
  532SOL    HW1 1595   1.687   1.480   0.569 -1.7536  1.4518 -0.8876
  532SOL    HW2 1596   1.602   1.390   0.686  1.2439 -2.4263  2.9631
  533SOL     OW 1597   0.218   0.719   2.008  0.3466  0.1659 -0.2360
  533SOL    HW1 1598   0.218   0.706   1.906 -1.8130 -0.9401  0.4800
  533SOL    HW2 1599   0.303   0.679   2.056 -0.9120 -1.7992 -0.4001
  534SOL     OW 1600   1.399   0.288   2.660 -1.0007  0.1182 -0.1851
  534SOL    HW1 1601   1.309   0.337   2.662  1.6230  0.5774 -0.1376
  534SOL    HW2 1602   1.403   0.222   2.736 -1.1583  1.2766  0.0346
  535SOL     OW 1603   0.528   0.500   0.481  0.2239 -0.7016 -0.2387
  535SOL    HW1 1604   0.448   0.442   0.493 -0.2112 -2.9813  2.1774
  535SOL    HW2 1605   0.509   0.587   0.526 -0.2993 -1.1860 -3.0727
  536SOL     OW 1606   0.912   0.375   2.976  0.8853 -0.0236  0.2978
  536SOL    HW1 1607   0.974   0.456   2.986 -2.7080 -0.5342  1.9762
  536SOL    HW2 1608   0.901   0.333   3.068 -3.8418 -1.0075  1.3871
  537SOL     OW 1609   1.183   3.033   1.830  0.0660  0.0538 -0.1655
  537SOL    HW1 1610   1.158   2.988   1.740 -1.8253  0.5514 -0.4460
  537SOL    HW2 1611   1.285   3.025   1.837  0.4206  0.3269 -1.7307
  538SOL     OW 1612   0.285   3.006   0.115  0.4701 -0.4742  0.2794
  538SOL    HW1 1613   0.251   3.095   0.075 -0.5628  2.6152  0.7846
  538SOL    HW2 1614   0.249   2.991   0.208 -0.4588 -0.9024 -0.2767
  539SOL     OW 1615   2.604   0.935   1.835  0.1833  0.1867  0.5279
  539SOL    HW1 1616   2.579   0.901   1.930 -3.0731 -0.0429  0.5051
  539SOL    HW2 1617   2.619   1.037   1.836  0.0766 -1.2737 -1.6519
  540SOL     OW 1618   2.383   2.186   1.853  0.1817  0.1675  0.3211
  540SOL    HW1 1619   2.367   2.227   1.759  0.2154 -0.0094 -1.0982
  540SOL    HW2 1620   2.423   2.092   1.849 -1.8950  1.0479  3.2526
  541SOL     OW 1621   0.336   2.701   1.714 -0.2185 -0.0832  0.0377
  541SOL    HW1 1622   0.326   2.785   1.657  1.1860  2.4776 -1.6625
  541SOL    HW2 1623   0.253   2.646   1.722  1.0659  2.4548 -2.8564
  542SOL     OW 1624   2.723   0.445   1.938  0.1554  0.2666 -0.6371
  542SOL    HW1 1625   2.637   0.499   1.914 -1.7983 -1.7660  1.3140
  542SOL    HW2 1626   2.710   0.345   1.915 -0.5191 -3.6682  1.4369
  543SOL     OW 1627   1.063   0.551   0.918  0.3033  0.2858  0.1941
  543SOL    HW1 1628   1.081   0.643   0.877 -1.5098  1.0387 -1.0886
  543SOL    HW2 1629   1.137   0.523   0.981 -0.0710 -0.5295 -1.8810
  544SOL     OW 1630   2.338   2.318   1.382 -0.6671 -0.0023 -0.1183
  544SOL    HW1 1631   2.402   2.237   1.387  0.5348  2.7954  0.1677
  544SOL    HW2 1632   2.312   2.347   1.289 -0.1216 -0.0189  1.4677
  545SOL     OW 1633   1.547   1.604   1.176  0.0197  0.2706 -0.1811
  545SOL    HW1 1634   1.567   1.500   1.168  1.6439 -4.3550 -2.3236
  545SOL    HW2 1635   1.633   1.656   1.179 -2.5471 -1.4986  1.3112
  546SOL     OW 1636   2.864   0.053   2.518 -0.1217  0.4657 -0.8241
  546SOL    HW1 1637   2.839   0.144   2.549 -0.2430 -1.5966 -2.1202
  546SOL    HW2 1638   2.787   3.081   2.536 -0.2910  2.5514 -0.1218
  547SOL     OW 1639   2.443   0.211   2.701 -0.1306 -0.1530  0.2551
  547SOL    HW1 1640   2.358   0.213   2.755  2.9707 -1.3401 -2.2025
  547SOL    HW2 1641   2.454   0.306   2.665 -3.2075 -0.5312  3.3744
  548SOL     OW 1642   2.720   1.775   2.556 -0.1961 -0.3194 -0.4098
  548SOL    HW1 1643   2.623   1.738   2.547 -2.2291 -1.0782 -0.7420
  548SOL    HW2 1644   2.749   1.796   2.653  2.9999  0.1317  0.1186
  549SOL     OW 1645   2.355   0.497   0.571 -0.4382  0.4772 -0.0988
  549SOL    HW1 1646   2.434   0.531   0.630 -0.0745  2.4910  2.8197
  549SOL    HW2 1647   2.373   0.419   0.506 -2.2494 -2.2521 -0.9493
  550SOL     OW 1648   2.763   1.215   0.063 -0.0103  0.0260  0.1346
  550SOL    HW1 1649   2.834   1.237   3.087  1.2655 -1.2662 -0.6024
  550SOL    HW2 1650   2.667   1.242   0.037  1.3875 -1.1410 -0.7219
  551SOL     OW 1651   1.261   2.736   1.391 -0.2227  0.7555 -0.0897
  551SOL    HW1 1652   1.275   2.799   1.309  2.2228  0.6080  0.8453
  551SOL    HW2 1653   1.326   2.659   1.387 -0.3545  1.8448 -0.9949
  552SOL     OW 1654   2.674   2.332   2.873  0.0244 -0.0109  0.2925
  552SOL    HW1 1655   2.603   2.360   2.805 -2.7994  0.0585  1.7594
  552SOL    HW2 1656   2.630   2.318   2.958  0.8169  2.0330 -2.7978
  553SOL     OW 1657   0.632   3.034   0.710  0.5670  0.0164 -0.3183
  553SOL    HW1 1658   0.589   3.091   0.787  0.4496 -2.9360 -0.7111
  553SOL    HW2 1659   0.728   3.065   0.694  0.6568 -0.5830  0.6438
  554SOL     OW 1660   1.800   2.001   1.864 -0.3960 -0.3889 -0.0913
  554SOL    HW1 1661   1.824   2.023   1.963  0.5285 -1.7153 -0.9139
  554SOL    HW2 1662   1.810   1.900   1.845  1.5391  0.9941 -0.5438
  555SOL     OW 1663   1.472   2.461   2.170  0.1137 -0.1854 -0.1596
  555SOL    HW1 1664   1.416   2.466   2.085  0.2722 -1.3058 -0.4305
  555SOL    HW2 1665   1.523   2.372   2.172  0.5640 -0.5355 -0.6874
  556SOL     OW 1666   1.856   1.519   0.463  0.1776  0.2870 -0.1450
  556SOL    HW1 1667   1.851   1.439   0.400  0.0302 -0.6842 -1.6180
  556SOL    HW2 1668   1.933   1.578   0.436 -2.8427  1.1452  1.1811
  557SOL     OW 1669   1.180   2.128   2.099  0.2030  0.2523  0.0548
  557SOL    HW1 1670   1.186   2.220   2.130 -0.2962 -4.7731 -2.4394
  557SOL    HW2 1671   1.147   2.124   2.006 -2.7593 -0.8187 -1.1506
  558SOL     OW 1672   3.058   1.042   2.461 -0.4548 -0.4912 -0.2425
  558SOL    HW1 1673   3.077   1.131   2.510  1.7640  0.6670 -0.2253
  558SOL    HW2 1674   2.961   1.028   2.447 -4.0170 -0.3782  0.8434
  559SOL     OW 1675   2.243   2.675   2.065 -0.0379  0.1764 -0.1476
  559SOL    HW1 1676   2.172   2.615   2.019 -0.6649 -0.0706 -0.4254
  559SOL    HW2 1677   2.209   2.701   2.158  1.7330 -0.2475  2.4057
  560SOL     OW 1678   0.164   3.076   2.816  0.1996  0.2007 -0.0047
  560SOL    HW1 1679   0.263   3.089   2.841  2.0167 -0.1546  2.1303
  560SOL    HW2 1680   0.141   0.041   2.736 -1.5253  0.3924 -2.1297
  561SOL     OW 1681   1.924   1.091   0.420  0.0829  0.0588 -0.0472
  561SOL    HW1 1682   1.890   1.000   0.388  1.9720  0.7230  0.9468
  561SOL    HW2 1683   2.006   1.075   0.481  0.7230 -0.2572  3.2516
  562SOL     OW 1684   0.832   1.115   2.117  0.3231  0.4569  0.2023
  562SOL    HW1 1685   0.755   1.059   2.156  3.2585  1.2950  0.8507
  562SOL    HW2 1686   0.870   1.176   2.189  2.1121  1.2191 -0.1544
  563SOL     OW 1687   1.550   2.045   0.195  0.1031 -0.1260  0.7312
  563SOL    HW1 1688   1.540   1.998   0.284  1.4085  0.1570 -4.7645
  563SOL    HW2 1689   1.459   2.054   0.158  2.2994 -1.3396  2.2150
  564SOL     OW 1690   0.397   1.976   0.805 -0.0067  0.2690  0.1986
  564SOL    HW1 1691   0.390   2.013   0.707 -0.1712 -1.2087  0.6447
  564SOL    HW2 1692   0.430   1.883   0.791 -0.0108  2.2476 -0.6999
  565SOL     OW 1693   0.772   2.986   0.127  0.1738  0.3555  0.3766
  565SOL    HW1 1694   0.754   2.944   0.035 -1.2722 -0.1059 -3.1130
  565SOL    HW2 1695   0.873   3.006   0.131 -1.3444 -3.5958  0.7983
  566SOL     OW 1696   1.904   2.508   2.967  0.3953  0.5895 -0.0983
  566SOL    HW1 1697   1.871   2.468   2.884  1.7503  2.7194  3.2150
  566SOL    HW2 1698   1.845   2.481   3.045 -2.0171  1.2408  0.4845
  567SOL     OW 1699   2.491   1.680   0.933  0.0556  0.0399 -0.1222
  567SOL    HW1 1700   2.592   1.676   0.951  1.5430 -2.6591 -1.8000
  567SOL    HW2 1701   2.452   1.582   0.935 -0.7540 -1.2150  0.3512
  568SOL     OW 1702   1.811   1.131   2.375 -0.0389 -0.1750  0.2497
  568SOL    HW1 1703   1.722   1.085   2.408 -1.8282 -3.0221 -1.4819
  568SOL    HW2 1704   1.800   1.231   2.368 -1.0705 -1.3600  0.4150
  569SOL     OW 1705   2.291   1.451   1.876  0.0423  0.2722  0.2962
  569SOL    HW1 1706   2.338   1.394   1.806 -0.0167  0.2413  0.6950
  569SOL    HW2 1707   2.323   1.437   1.971 -1.5790 -0.5604  0.9139
  570SOL     OW 1708   2.888   2.495   2.022  0.1746  0.0865 -0.1637
  570SOL    HW1 1709   2.912   2.536   2.112 -1.4094 -2.1229 -3.6275
  570SOL    HW2 1710   2.878   2.567   1.951 -1.3276 -1.6246 -0.8103
  571SOL     OW 1711   0.096   0.063   1.729  0.0047 -0.2410  0.7072
  571SOL    HW1 1712   0.110   0.115   1.817  2.1635  0.2889  2.1759
  571SOL    HW2 1713   0.063   0.121   1.655 -2.1599 -0.2468 -0.5734
  572SOL     OW 1714   0.818   1.945   0.925 -0.1051  0.0440 -0.5099
  572SOL    HW1 1715   0.737   1.938   0.986  0.4276  1.6113  0.1266
  572SOL    HW2 1716   0.786   1.961   0.830  2.8993 -0.3442 -2.0106
  573SOL     OW 1717   1.158   0.912   0.015 -0.2364  0.0747  0.0947
  573SOL    HW1 1718   1.075   0.855   0.035  1.1996  1.6471 -2.9840
  573SOL    HW2 1719   1.183   0.973   0.097  3.3193  2.2485  3.2783
  574SOL     OW 1720   0.358   0.197   0.352  0.1667 -0.6185  0.1616
  574SOL    HW1 1721   0.405   0.109   0.383 -0.5228  2.4713  0.6430
  574SOL    HW2 1722   0.398   0.229   0.265  1.2650 -0.0698  0.4712
  575SOL     OW 1723   0.957   1.921   1.351  0.0714 -0.2624 -0.1064
  575SOL    HW1 1724   0.990   1.929   1.253  0.7423  1.2032 -2.4039
  575SOL    HW2 1725   1.023   1.869   1.402 -1.0498  2.7467  1.6884
  576SOL     OW 1726   2.714   0.191   1.870  0.3767 -0.0638  0.5019
  576SOL    HW1 1727   2.633   0.161   1.917 -0.1389  1.1822 -2.2931
  576SOL    HW2 1728   2.804   0.167   1.911 -0.1732 -0.9966  1.4326
  577SOL     OW 1729   2.798   1.535   1.941  0.6178 -0.2328  0.8787
  577SOL    HW1 1730   2.818   1.627   1.984  3.6882  0.3108 -1.6281
  577SOL    HW2 1731   2.856   1.471   1.992  1.7522  2.3601  0.7261
  578SOL     OW 1732   0.922   2.855   2.258  0.1974 -0.0185 -0.4021
  578SOL    HW1 1733   0.943   2.831   2.164 -2.7564  0.7006  1.8687
  578SOL    HW2 1734   0.998   2.903   2.308 -0.3364 -0.9001  0.1686
  579SOL     OW 1735   2.078   1.921   1.917 -0.1424  0.2001  0.2414
  579SOL    HW1 1736   2.120   1.845   1.865 -2.0896 -0.1224 -0.7673
  579SOL    HW2 1737   2.049   1.991   1.851  0.1404  0.7311 -0.2297
  580SOL     OW 1738   1.811   1.039   1.973  0.1855 -0.3249 -0.3887
  580SOL    HW1 1739   1.823   0.945   1.930  1.0832 -0.3156  1.0275
  580SOL    HW2 1740   1.881   1.044   2.046 -0.4081 -1.8451 -0.8875
  581SOL     OW 1741   1.318   1.224   2.493  0.3015  0.1336  0.2284
  581SOL    HW1 1742   1.405   1.262   2.529 -1.9858 -4.1431 -3.9284
  581SOL    HW2 1743   1.291   1.261   2.405 -0.8263 -3.9444 -2.1555
  582SOL     OW 1744   0.031   1.978   1.948 -0.6461  0.0398 -0.8755
  582SOL    HW1 1745   0.116   1.953   2.000  0.8483  0.4934  1.2338
  582SOL    HW2 1746   3.088   2.067   1.976 -3.4175  3.8721  2.9278
  583SOL     OW 1747   1.886   1.259   0.917  0.1417  0.6816 -0.2535
  583SOL    HW1 1748   1.797   1.225   0.883  0.6771 -0.9650 -1.1688
  583SOL    HW2 1749   1.933   1.319   0.847  1.4153 -1.2326  2.1909
  584SOL     OW 1750   0.722   2.507   0.372 -0.2649  0.4323 -0.2539
  584SOL    HW1 1751   0.638   2.533   0.315 -2.1266  0.9564 -2.0720
  584SOL    HW2 1752   0.787   2.586   0.369  0.1123 -2.4024 -3.9441
  585SOL     OW 1753   0.124   2.487   0.073 -0.4353 -0.5241 -0.0218
  585SOL    HW1 1754   0.027   2.466   0.065  1.3465  0.5166 -1.4228
  585SOL    HW2 1755   0.135   2.588   0.089 -1.6227 -2.7029 -1.5764
  586SOL     OW 1756   2.301   1.172   0.332  0.0835 -0.0861 -0.4548
  586SOL    HW1 1757   2.273   1.071   0.345 -2.3265 -5.7301  0.2005
  586SOL    HW2 1758   2.327   1.213   0.421 -0.4889  1.5068  0.7767
  587SOL     OW 1759   2.950   1.955   0.420  0.0093 -0.0305  0.0934
  587SOL    HW1 1760   2.995   2.012   0.491  0.8912  4.1069  0.1002
  587SOL    HW2 1761   2.873   1.898   0.457  0.5447  1.0228 -0.7059
  588SOL     OW 1762   0.008   0.718   0.776 -0.0267 -0.1159  0.5721
  588SOL    HW1 1763   0.073   0.773   0.829 -1.4805  0.4412 -2.9818
  588SOL    HW2 1764   3.013   0.726   0.824  0.8722 -0.2900 -1.9111
  589SOL     OW 1765   1.529   0.197   0.616  0.0570 -0.0993  0.0033
  589SOL    HW1 1766   1.453   0.253   0.575 -0.7364 -0.7316 -3.3146
  589SOL    HW2 1767   1.505   0.094   0.620  0.1617 -1.9407  2.8836
  590SOL     OW 1768   2.370   2.385   0.429  0.3180 -0.4099 -0.5759
  590SOL    HW1 1769   2.442   2.327   0.470 -2.6213 -2.4704 -0.5186
  590SOL    HW2 1770   2.395   2.483   0.420  0.1838  1.4320  0.1169
  591SOL     OW 1771   0.242   2.480   2.057 -0.5217 -0.1518  0.8985
  591SOL    HW1 1772   0.293   2.404   2.101 -0.3422  2.0579  0.6327
  591SOL    HW2 1773   0.173   2.445   1.988 -1.3527  0.6017 -2.1877
  592SOL     OW 1774   0.414   1.261   2.033 -0.2675  0.0319  0.0785
  592SOL    HW1 1775   0.403   1.179   2.092  4.3616  0.9418 -2.3815
  592SOL    HW2 1776   0.496   1.254   1.975 -1.4158 -0.4768 -2.8461
  593SOL     OW 1777   1.552   1.820   1.552  0.3074  0.3614  0.1091
  593SOL    HW1 1778   1.522   1.734   1.593 -1.0379  2.7503 -2.0002
  593SOL    HW2 1779   1.551   1.894   1.621  1.0865  0.6070 -2.0492
  594SOL     OW 1780   0.550   0.984   2.886 -0.3763  0.1454 -0.1043
  594SOL    HW1 1781   0.634   1.046   2.889  0.8480  5.0406 -1.8743
  594SOL    HW2 1782   0.480   1.013   2.815 -2.7058  2.1355 -0.9611
  595SOL     OW 1783   1.852   0.425   0.846 -0.5109 -0.1376 -0.0527
  595SOL    HW1 1784   1.862   0.396   0.945  3.1110  3.5182  1.4480
  595SOL    HW2 1785   1.753   0.422   0.811 -2.3877 -1.2215  0.6186
  596SOL     OW 1786   0.545   1.077   1.041  0.2968 -0.1360  0.3986
  596SOL    HW1 1787   0.629   1.135   1.053  0.5729  1.5088  0.4758
  596SOL    HW2 1788   0.491   1.076   1.125  1.1076 -0.6061 -1.5621
  597SOL     OW 1789   2.911   2.452   2.873  0.3921  0.2094  0.4460
  597SOL    HW1 1790   2.822   2.401   2.872 -0.9443 -1.3630  1.4841
  597SOL    HW2 1791   2.902   2.541   2.833  0.7840 -1.1246 -1.1018
  598SOL     OW 1792   2.226   2.080   2.510  0.6508  0.1956  0.5328
  598SOL    HW1 1793   2.193   2.175   2.486  1.3375 -1.5306  2.5750
  598SOL    HW2 1794   2.298   2.078   2.579 -2.0328 -0.6794 -0.2534
  599SOL     OW 1795   1.650   0.714   0.295 -0.4448  0.0999 -0.0420
  599SOL    HW1 1796   1.596   0.660   0.362  0.7300  0.0065 -2.4250
  599SOL    HW2 1797   1.729   0.766   0.335 -0.1374  1.2197  0.4912
  600SOL     OW 1798   0.906   0.216   0.088 -0.8044 -0.1445  0.0021
  600SOL    HW1 1799   0.829   0.202   0.155  2.3575  0.1898  2.0109
  600SOL    HW2 1800   0.966   0.136   0.074 -0.6034  0.6848  1.3407
  601SOL     OW 1801   0.652   0.162   1.495  0.0289 -0.5098  0.1280
  601SOL    HW1 1802   0.740   0.127   1.518 -0.4006  0.0140  2.7015
  601SOL    HW2 1803   0.652   0.219   1.408 -1.3765  1.4718 -1.1990
  602SOL     OW 1804   0.262   2.804   0.755  0.0273 -0.1157 -0.8085
  602SOL    HW1 1805   0.329   2.772   0.688 -0.0806 -1.9411  0.9255
  602SOL    HW2 1806   0.217   2.729   0.803  0.5186 -1.7919 -2.9718
  603SOL     OW 1807   0.667   2.753   2.513  0.5003  0.1001 -0.6056
  603SOL    HW1 1808   0.671   2.834   2.448 -1.2469  0.2269  0.8023
  603SOL    HW2 1809   0.612   2.680   2.480  0.2935  0.1390 -0.4524
  604SOL     OW 1810   1.075   2.667   0.212 -0.0610  0.3725 -0.3300
  604SOL    HW1 1811   1.115   2.584   0.256  1.0131  2.3479 -1.8492
  604SOL    HW2 1812   1.120   2.750   0.253 -0.8950 -2.2205 -0.2312
  605SOL     OW 1813   1.656   0.862   1.683 -0.1868  0.0827 -0.1113
  605SOL    HW1 1814   1.600   0.834   1.603  0.6243  0.1660  0.5860
  605SOL    HW2 1815   1.715   0.942   1.658  1.1553 -0.5280 -1.0519
  606SOL     OW 1816   0.885   0.619   2.375  0.0664 -0.5536  0.4632
  606SOL    HW1 1817   0.930   0.576   2.296 -0.5166  0.7334 -0.8359
  606SOL    HW2 1818   0.942   0.627   2.456  1.7944  0.9064  1.1153
  607SOL     OW 1819   0.459   1.375   1.263  0.2332 -0.1704 -0.1810
  607SOL    HW1 1820   0.418   1.286   1.273  0.1784  1.2123 -0.5034
  607SOL    HW2 1821   0.439   1.418   1.174 -0.1686  1.2914  2.3586
  608SOL     OW 1822   2.553   2.179   2.316  0.2675  0.0616  0.0571
  608SOL    HW1 1823   2.637   2.226   2.347 -0.9046 -1.9828 -4.6824
  608SOL    HW2 1824   2.558   2.086   2.355 -1.9110  1.4109 -1.9317
  609SOL     OW 1825   2.152   3.027   0.071  0.3447  0.6112 -0.2915
  609SOL    HW1 1826   2.053   3.059   0.069 -1.7528 -0.1852 -0.5075
  609SOL    HW2 1827   2.192   2.998   0.162 -0.5955 -1.5705  1.0217
  610SOL     OW 1828   0.628   2.785   1.385 -0.1666 -0.3095  0.4156
  610SOL    HW1 1829   0.594   2.693   1.414  0.7230 -0.7091  1.6831
  610SOL    HW2 1830   0.648   2.787   1.286 -0.5213 -1.8245 -0.7455
  611SOL     OW 1831   1.002   1.414   0.831 -0.3414 -0.5141  0.2704
  611SOL    HW1 1832   0.924   1.431   0.769  1.6553  0.0446 -1.7594
  611SOL    HW2 1833   1.018   1.317   0.839  0.9569  2.3400  1.3657
  612SOL     OW 1834   0.556   3.089   2.488  0.0795  1.1628  0.6299
  612SOL    HW1 1835   0.601   3.061   2.576 -2.8067 -1.2637  1.6268
  612SOL    HW2 1836   0.606   3.045   2.407 -0.4147 -0.0344 -0.6748
  613SOL     OW 1837   2.753   1.838   0.548  0.1745 -0.2121 -0.1236
  613SOL    HW1 1838   2.811   1.776   0.600 -2.9078  1.9278  0.6671
  613SOL    HW2 1839   2.670   1.794   0.501 -2.4207 -1.5634 -1.4850
  614SOL     OW 1840   1.562   0.144   1.777  0.0098  0.3555  0.0476
  614SOL    HW1 1841   1.566   0.246   1.792 -0.8835  1.9544 -0.0130
  614SOL    HW2 1842   1.630   0.107   1.712  0.6419 -2.6146 -2.8309
  615SOL     OW 1843   1.105   1.545   1.282 -0.0333  0.0756  0.2079
  615SOL    HW1 1844   1.130   1.456   1.327 -3.0824 -0.5634  0.3582
  615SOL    HW2 1845   1.147   1.624   1.324  1.4535 -1.0900 -0.2688
  616SOL     OW 1846   1.462   1.476   3.053  0.1601  0.1649  0.4368
  616SOL    HW1 1847   1.523   1.393   3.072  1.8938  1.4173 -0.5707
  616SOL    HW2 1848   1.500   1.568   3.081 -0.5008  0.3928 -1.2066
  617SOL     OW 1849   1.734   2.780   0.208 -0.0035  0.4521 -0.1904
  617SOL    HW1 1850   1.736   2.756   0.113  0.1786 -0.0585  0.6695
  617SOL    HW2 1851   1.646   2.741   0.249 -0.4428  0.0662  0.0840
  618SOL     OW 1852   1.063   0.650   2.646  0.1838  0.4743 -0.3336
  618SOL    HW1 1853   1.025   0.684   2.735  1.1044  0.6448  0.4450
  618SOL    HW2 1854   1.090   0.727   2.583  2.0382  0.7801  1.3084
  619SOL     OW 1855   2.646   1.418   0.520 -0.4582 -0.5781 -0.1454
  619SOL    HW1 1856   2.709   1.348   0.482 -0.3402 -0.2673  1.2240
  619SOL    HW2 1857   2.563   1.417   0.460  0.1544  0.7114 -1.3648
  620SOL     OW 1858   2.333   2.576   3.038  0.1464  0.0787  0.5783
  620SOL    HW1 1859   2.389   2.574   0.031  0.1669  0.2968  1.2809
  620SOL    HW2 1860   2.248   2.521   3.057 -2.1589 -1.1749 -1.5361
  621SOL     OW 1861   2.530   1.333   0.000 -0.0733 -0.3394  0.0374
  621SOL    HW1 1862   2.441   1.291   0.030  0.6858 -1.7297  2.1054
  621SOL    HW2 1863   2.532   1.435   3.094 -0.0635  1.8496  0.0315
  622SOL     OW 1864   1.276   2.550   2.350 -0.2290 -0.3809  0.2192
  622SOL    HW1 1865   1.215   2.472   2.364  0.9858 -0.3950  1.9598
  622SOL    HW2 1866   1.348   2.538   2.280  1.2635 -0.2896 -0.4271
  623SOL     OW 1867   0.762   1.804   0.062  0.9059 -0.1219 -0.5451
  623SOL    HW1 1868   0.764   1.904   0.048 -0.2803 -1.8715 -2.8253
  623SOL    HW2 1869   0.718   1.771   0.150  2.6322 -1.1915  0.6452
  624SOL     OW 1870   0.425   0.034   2.823  0.2606  0.0169  0.1990
  624SOL    HW1 1871   0.453   0.031   2.920  1.4928 -0.0633  0.1420
  624SOL    HW2 1872   0.424   3.034   2.789 -0.1611 -3.6452  1.6510
  625SOL     OW 1873   1.021   1.974   0.545 -0.0465 -0.1919 -0.8782
  625SOL    HW1 1874   0.950   1.977   0.476  1.5525 -1.5847 -0.3231
  625SOL    HW2 1875   1.115   1.949   0.507  1.7610 -0.1965 -1.0900
  626SOL     OW 1876   2.658   0.013   3.041  0.2613  0.4242  0.7970
  626SOL    HW1 1877   2.609   0.009   2.956  1.6184  1.6319  2.2566
  626SOL    HW2 1878   2.687   0.111   3.056 -1.4413  0.7330  1.0059
  627SOL     OW 1879   1.572   1.306   2.566  0.3310 -0.7589 -0.3114
  627SOL    HW1 1880   1.598   1.225   2.622 -0.2629  1.3390 -2.2073
  627SOL    HW2 1881   1.584   1.395   2.618  2.3601  0.8090 -1.6441
  628SOL     OW 1882   0.400   0.646   2.187 -0.0170 -0.3917  0.1465
  628SOL    HW1 1883   0.390   0.699   2.277 -1.0617  0.4056  2.4440
  628SOL    HW2 1884   0.496   0.640   2.162 -0.1344  1.2826  2.2623
  629SOL     OW 1885   0.219   2.924   1.922 -0.1189 -0.0129 -0.2831
  629SOL    HW1 1886   0.200   2.853   1.992 -2.1585  0.8263  2.8935
  629SOL    HW2 1887   0.203   3.017   1.958 -1.0859 -0.5071  2.2139
  630SOL     OW 1888   1.811   0.735   1.871  0.7360 -0.0312 -0.0484
  630SOL    HW1 1889   1.834   0.651   1.819  0.6833 -4.1825 -0.4933
  630SOL    HW2 1890   1.758   0.792   1.809 -0.5700  2.5676 -3.5040
  631SOL     OW 1891   2.304   1.160   0.045  0.3297 -0.0432 -0.2914
  631SOL    HW1 1892   2.335   1.067   0.014  0.9709 -0.5979  1.6362
  631SOL    HW2 1893   2.303   1.163   0.149  1.8470 -0.7157 -1.1116
  632SOL     OW 1894   1.969   0.270   2.041 -0.3249 -0.0555  0.5714
  632SOL    HW1 1895   1.976   0.170   2.032 -0.2579 -0.9551 -2.9827
  632SOL    HW2 1896   1.943   0.306   1.944 -0.6118  1.7920 -2.0972
  633SOL     OW 1897   0.829   2.754   0.272  0.1418 -0.0316 -0.0685
  633SOL    HW1 1898   0.794   2.826   0.208 -0.0200 -2.2981 -1.7562
  633SOL    HW2 1899   0.910   2.707   0.228  0.2270 -0.9452 -0.8778
  634SOL     OW 1900   1.358   2.667   2.755 -0.3466  0.3975  0.1398
  634SOL    HW1 1901   1.340   2.582   2.810  0.4150  0.3816  2.0384
  634SOL    HW2 1902   1.460   2.675   2.739  3.3893  2.6499  0.0372
  635SOL     OW 1903   2.519   0.236   0.120 -0.1797 -0.0592 -0.1537
  635SOL    HW1 1904   2.584   0.271   0.048  1.3857  0.5948  0.6001
  635SOL    HW2 1905   2.429   0.220   0.077 -2.2520  1.9078  0.6951
  636SOL     OW 1906   0.946   1.595   1.029  0.6299  0.0602 -0.0173
  636SOL    HW1 1907   0.998   1.578   1.113  0.8540 -0.9244 -2.2098
  636SOL    HW2 1908   0.987   1.544   0.955  0.8202 -1.5670  1.4076
  637SOL     OW 1909   0.042   2.545   0.413  0.2632 -0.4801 -0.4100
  637SOL    HW1 1910   3.064   2.484   0.448 -1.3954 -0.1681 -0.4148
  637SOL    HW2 1911   0.107   2.555   0.491 -0.8761 -0.3681  0.0101
  638SOL     OW 1912   0.530   3.083   0.441 -0.2695 -0.4439 -0.0215
  638SOL    HW1 1913   0.565   3.054   0.532 -2.1705  0.8163 -0.8913
  638SOL    HW2 1914   0.514   3.005   0.380 -0.1173  2.1508  1.1431
  639SOL     OW 1915   1.101   1.361   0.382  0.2858 -0.2061 -0.7330
  639SOL    HW1 1916   1.176   1.346   0.316  1.0784 -3.3049  0.9072
  639SOL    HW2 1917   1.050   1.445   0.350  0.0929 -0.8742 -0.2134
  640SOL     OW 1918   1.251   2.653   1.050 -0.0834 -0.5979 -0.2909
  640SOL    HW1 1919   1.211   2.573   1.103  2.5080 -0.2905 -0.1756
  640SOL    HW2 1920   1.316   2.626   0.973  1.1396  1.1249  1.3138
  641SOL     OW 1921   2.996   2.416   0.625  0.2705  0.1625  0.5428
  641SOL    HW1 1922   3.017   2.316   0.619  0.9409  0.4300  1.9164
  641SOL    HW2 1923   2.911   2.450   0.579 -2.7013 -1.2579  2.9486
  642SOL     OW 1924   1.044   0.179   1.784 -0.4043  0.0237 -0.2689
  642SOL    HW1 1925   0.947   0.182   1.812  1.1336 -0.0354 -0.8827
  642SOL    HW2 1926   1.090   0.087   1.808 -1.2624 -1.7738  1.7419
  643SOL     OW 1927   0.678   1.718   2.116  0.1215  0.2027 -0.1251
  643SOL    HW1 1928   0.619   1.638   2.141 -0.4572 -1.4195  3.5114
  643SOL    HW2 1929   0.642   1.803   2.159  1.8747 -0.6497 -1.9659
  644SOL     OW 1930   0.949   2.882   0.471 -0.0227  0.1830 -0.0434
  644SOL    HW1 1931   0.878   2.844   0.405  0.9206 -1.6767 -1.3251
  644SOL    HW2 1932   0.915   2.939   0.550  1.0441 -0.0784  1.1469
  645SOL     OW 1933   1.315   1.594   2.699  0.4385  0.2559 -0.1428
  645SOL    HW1 1934   1.284   1.677   2.745 -0.9795 -0.1890 -1.3467
  645SOL    HW2 1935   1.403   1.562   2.742  1.5425  0.8273  0.0674
  646SOL     OW 1936   0.569   1.356   0.149 -0.0910 -0.3109 -0.6143
  646SOL    HW1 1937   0.566   1.354   0.248 -1.4913  1.8315 -1.2571
  646SOL    HW2 1938   0.491   1.411   0.112 -2.6863 -1.1583 -0.4242
  647SOL     OW 1939   1.224   0.094   0.891  0.1428 -0.1863  0.2027
  647SOL    HW1 1940   1.301   0.100   0.954  2.4525  0.2446 -0.2141
  647SOL    HW2 1941   1.182   3.093   0.888 -0.6106 -1.6430 -2.7098
  648SOL     OW 1942   2.864   2.742   1.854 -0.1343 -0.5043  0.5985
  648SOL    HW1 1943   2.801   2.818   1.877  0.7880  0.4923  1.0216
  648SOL    HW2 1944   2.958   2.772   1.831 -1.5319  1.0920  0.2932
  649SOL     OW 1945   0.513   2.229   0.010  0.6638 -0.0854 -0.3453
  649SOL    HW1 1946   0.460   2.243   3.020  0.2676 -1.1878  0.4411
  649SOL    HW2 1947   0.466   2.277   0.088 -0.4312  2.0250 -1.9784
  650SOL     OW 1948   0.155   2.128   1.640  0.1594 -0.3849  0.1221
  650SOL    HW1 1949   0.234   2.069   1.671 -0.9002  0.7755  2.9810
  650SOL    HW2 1950   0.154   2.128   1.540  2.2060 -1.0117 -1.6380
  651SOL     OW 1951   0.499   0.068   3.072 -0.3181 -0.1038 -0.0707
  651SOL    HW1 1952   0.491   0.159   0.023  0.7039  1.5513  0.0610
  651SOL    HW2 1953   0.461   0.002   0.037  3.1099  0.4579 -1.7507
  652SOL     OW 1954   2.585   1.670   0.453 -0.0069  0.6104  0.0841
  652SOL    HW1 1955   2.532   1.682   0.364 -0.3151  1.2497  0.3924
  652SOL    HW2 1956   2.646   1.586   0.447  2.6380 -3.2287 -0.9374
  653SOL     OW 1957   3.048   0.066   0.900  0.5168  0.9656 -0.1314
  653SOL    HW1 1958   0.002   0.120   0.973 -0.9281  0.3560 -0.0467
  653SOL    HW2 1959   0.006   0.028   0.824 -3.8193 -2.2518  0.7781
  654SOL     OW 1960   1.697   0.027   2.639 -0.2435  0.1083 -0.0280
  654SOL    HW1 1961   1.613   3.089   2.690 -2.4641  3.1102  1.4670
  654SOL    HW2 1962   1.687   0.121   2.601 -1.2350  0.3028 -1.6736
  655SOL     OW 1963   0.948   2.680   1.314  0.2763  0.2172  0.4280
  655SOL    HW1 1964   1.037   2.724   1.312  0.3983 -3.6335 -2.0051
  655SOL    HW2 1965   0.948   2.602   1.252 -0.7562  1.1616  3.2269
  656SOL     OW 1966   0.410   2.899   2.163  0.0447 -0.3344  0.0236
  656SOL    HW1 1967   0.419   2.994   2.125  3.6431  2.4492 -1.5280
  656SOL    HW2 1968   0.415   2.830   2.088  1.4545  1.1867  0.9633
  657SOL     OW 1969   2.074   0.721   1.915  0.3596  0.0893 -0.2038
  657SOL    HW1 1970   2.112   0.680   1.998 -1.5176  3.7578 -2.3833
  657SOL    HW2 1971   1.977   0.741   1.917  3.5727  2.3712 -0.7699
  658SOL     OW 1972   2.417   1.924   1.075  0.3343 -0.3526 -0.0939
  658SOL    HW1 1973   2.455   1.923   1.170 -0.1274  0.4513  1.0351
  658SOL    HW2 1974   2.420   1.832   1.035 -1.0897  0.0620  0.7046
  659SOL     OW 1975   2.489   2.569   0.170  0.2604  0.2470  0.2797
  659SOL    HW1 1976   2.579   2.606   0.146 -0.0672 -0.1170  0.1482
  659SOL    HW2 1977   2.455   2.614   0.253 -0.0564  1.4135 -2.7542
  660SOL     OW 1978   0.977   1.202   2.722 -0.2522  0.5680 -0.2194
  660SOL    HW1 1979   1.018   1.290   2.689  0.7130  1.5099 -0.9853
  660SOL    HW2 1980   1.045   1.144   2.773  2.2047 -0.9753  2.0184
  661SOL     OW 1981   2.278   2.414   1.128  0.2746  0.5260 -0.3822
  661SOL    HW1 1982   2.246   2.506   1.152 -1.6244  1.3103 -0.3036
  661SOL    HW2 1983   2.214   2.366   1.066 -2.3311  0.3072  1.3654
  662SOL     OW 1984   0.530   0.734   0.123 -0.2310 -1.0907  0.0906
  662SOL    HW1 1985   0.436   0.708   0.150  1.9582  0.9874 -0.4807
  662SOL    HW2 1986   0.543   0.728   0.023 -0.4799 -0.5194  1.6238
  663SOL     OW 1987   0.944   2.223   3.095  0.1022 -0.2505  0.3450
  663SOL    HW1 1988   0.945   2.284   3.014 -0.7039  0.0529  0.6640
  663SOL    HW2 1989   1.018   2.254   0.062 -0.3788  2.8971 -0.3218
  664SOL     OW 1990   0.845   2.916   1.520 -0.0491 -0.2077 -0.0896
  664SOL    HW1 1991   0.790   2.906   1.437 -3.4374  1.6185  0.6133
  664SOL    HW2 1992   0.844   2.834   1.576  2.6195 -0.5653 -0.9416
  665SOL     OW 1993   1.797   1.705   1.826  0.0350  0.2678  0.3916
  665SOL    HW1 1994   1.734   1.621   1.827 -0.3730 -2.1968 -1.6825
  665SOL    HW2 1995   1.896   1.673   1.835 -1.1345 -0.9919  0.0712
  666SOL     OW 1996   0.493   2.844   0.302  0.0330 -0.6883  0.5241
  666SOL    HW1 1997   0.395   2.844   0.324 -0.3933  1.6645 -0.0891
  666SOL    HW2 1998   0.515   2.770   0.239  2.8474  0.9258  3.7733
  667SOL     OW 1999   1.843   1.810   1.539 -0.2281  0.3859 -0.0790
  667SOL    HW1 2000   1.887   1.720   1.554 -1.4465  2.6734  0.1208
  667SOL    HW2 2001   1.751   1.807   1.591 -1.6601 -1.3711  0.7014
  668SOL     OW 2002   0.367   0.368   2.156  0.5423 -0.3657  0.1328
  668SOL    HW1 2003   0.365   0.467   2.185  0.7645  2.1990 -0.7635
  668SOL    HW2 2004   0.455   0.323   2.194  0.4836  0.8581  0.7183
  669SOL     OW 2005   1.832   2.081   2.119  0.1704  0.0182  0.1236
  669SOL    HW1 2006   1.917   2.135   2.122 -1.2160 -0.3418  0.7126
  669SOL    HW2 2007   1.802   2.057   2.212  0.1662  0.1565 -1.4525
  670SOL     OW 2008   2.378   1.948   0.518 -0.3650 -0.2410 -0.4271
  670SOL    HW1 2009   2.424   1.900   0.591  1.7948  4.6042 -0.2978
  670SOL    HW2 2010   2.282   1.974   0.535 -0.1489 -0.8332 -1.7197
  671SOL     OW 2011   0.722   1.331   1.287  0.2196  0.1060 -0.1251
  671SOL    HW1 2012   0.750   1.301   1.191  0.5888 -0.2520  0.8388
  671SOL    HW2 2013   0.620   1.338   1.303 -0.9550  0.1827  2.7764
  672SOL     OW 2014   2.707   1.264   2.155 -0.3784  0.1010 -0.2165
  672SOL    HW1 2015   2.676   1.288   2.249  0.2276 -1.4256 -0.6424
  672SOL    HW2 2016   2.774   1.333   2.120  0.1000  2.5491 -1.8713
  673SOL     OW 2017   3.027   1.557   2.277  0.2026  0.4561  0.2439
  673SOL    HW1 2018   2.931   1.575   2.302 -0.5674 -0.1867 -1.1520
  673SOL    HW2 2019   3.089   1.558   2.355 -2.9163  0.1665 -2.0829
  674SOL     OW 2020   0.821   2.539   2.243 -0.4502  0.0891  0.0446
  674SOL    HW1 2021   0.846   2.574   2.336 -0.7877 -1.6605  0.7227
  674SOL    HW2 2022   0.760   2.601   2.189  0.7334 -2.3306  0.8621
  675SOL     OW 2023   0.849   0.981   1.580 -0.2431  0.1719  0.0148
  675SOL    HW1 2024   0.889   0.954   1.668 -0.4393 -0.5393  0.9290
  675SOL    HW2 2025   0.749   0.978   1.580  3.0657  1.8518 -0.2300
  676SOL     OW 2026   1.850   1.310   0.305 -0.1361  0.1718 -0.7049
  676SOL    HW1 2027   1.891   1.235   0.362 -0.1422  3.4400 -1.9779
  676SOL    HW2 2028   1.918   1.337   0.232 -2.8033  0.2203 -0.1596
  677SOL     OW 2029   0.006   1.565   2.757 -0.4682  0.3788 -0.4985
  677SOL    HW1 2030   3.017   1.584   2.805  0.0839 -1.2200 -0.1358
  677SOL    HW2 2031   0.014   1.468   2.738  0.7719  1.6676  1.0400
  678SOL     OW 2032   2.750   2.851   1.392  0.2087 -0.2206  0.8985
  678SOL    HW1 2033   2.646   2.855   1.407 -3.9568  0.8550 -1.5728
  678SOL    HW2 2034   2.783   2.757   1.389  1.5603  2.0974 -0.8793
  679SOL     OW 2035   2.209   3.042   0.674  0.3496 -0.2323 -0.3101
  679SOL    HW1 2036   2.108   3.050   0.696  0.9410  1.0976 -3.7199
  679SOL    HW2 2037   2.268   3.047   0.759  0.1618 -0.4886  0.9916
  680SOL     OW 2038   0.099   2.237   2.258  0.0546  0.0095 -0.3727
  680SOL    HW1 2039   0.195   2.199   2.256 -0.4888  2.2842  0.4317
  680SOL    HW2 2040   0.059   2.234   2.166  2.3567 -1.2691  3.1572
  681SOL     OW 2041   0.304   1.515   1.433  0.3767  0.1232 -0.4556
  681SOL    HW1 2042   0.360   1.464   1.367 -1.5968  0.1871  2.0081
  681SOL    HW2 2043   0.343   1.521   1.525 -1.9117 -0.7502 -0.1550
  682SOL     OW 2044   0.336   2.344   1.440 -0.0019 -0.0138 -0.0548
  682SOL    HW1 2045   0.408   2.302   1.501  0.2166 -0.5587 -1.1759
  682SOL    HW2 2046   0.280   2.270   1.399  0.7935 -0.1275  0.2547
  683SOL     OW 2047   0.037   1.681   1.472 -0.1954  0.2702 -0.2051
  683SOL    HW1 2048   0.033   1.679   1.575 -0.4944  1.9738  0.3434
  683SOL    HW2 2049   0.130   1.663   1.439 -2.2265 -1.9664 -1.1159
  684SOL     OW 2050   2.954   1.633   0.107  0.3389 -0.0536  0.4773
  684SOL    HW1 2051   2.897   1.558   0.148 -0.5928  1.9302  1.2540
  684SOL    HW2 2052   3.053   1.628   0.137 -2.2760  1.4475 -0.0085
  685SOL     OW 2053   1.232   0.712   0.410 -0.4680  0.1616 -0.1268
  685SOL    HW1 2054   1.147   0.662   0.388 -2.1399 -1.1722  0.1300
  685SOL    HW2 2055   1.290   0.740   0.328 -0.4682  2.1416 -1.2758
  686SOL     OW 2056   0.309   3.080   1.235 -0.4798  0.3417  0.2795
  686SOL    HW1 2057   0.381   3.050   1.304  1.1057  0.0456  2.3359
  686SOL    HW2 2058   0.337   3.045   1.141 -0.8550 -0.8303 -2.3455
  687SOL     OW 2059   0.971   1.237   2.328 -0.3946 -0.0900  0.4801
  687SOL    HW1 2060   1.050   1.295   2.348 -1.1857 -0.4463  1.5036
  687SOL    HW2 2061   0.961   1.157   2.392  1.6703 -0.0462 -1.5590
  688SOL     OW 2062   0.938   1.810   1.811 -0.3989 -0.3951  0.4063
  688SOL    HW1 2063   0.888   1.772   1.732 -0.1518  0.8038 -0.8162
  688SOL    HW2 2064   0.981   1.736   1.866 -0.4522 -0.9862  1.6586
  689SOL     OW 2065   2.048   0.414   1.098 -0.0904 -0.4363 -0.5285
  689SOL    HW1 2066   2.063   0.315   1.097  0.5240  1.5938 -2.1704
  689SOL    HW2 2067   1.973   0.439   1.158  1.7693  1.8804  0.8599
  690SOL     OW 2068   2.890   1.433   0.843  0.5193  0.3549  0.1000
  690SOL    HW1 2069   2.978   1.463   0.802 -0.4961  0.2410 -2.3062
  690SOL    HW2 2070   2.901   1.432   0.943 -0.4294  3.7332 -2.0908
  691SOL     OW 2071   0.089   2.491   1.433  0.0319 -0.1555 -0.5626
  691SOL    HW1 2072   0.187   2.453   1.448  4.0096 -1.5819  0.5392
  691SOL    HW2 2073   0.019   2.416   1.430 -0.0173  0.5497 -1.8504
  692SOL     OW 2074   1.830   2.985   0.979  0.6507  0.0199 -0.1221
  692SOL    HW1 2075   1.892   2.922   1.029  0.5281  2.4116  2.2114
  692SOL    HW2 2076   1.797   3.058   1.045  0.9740  2.6996  0.1312
  693SOL     OW 2077   0.504   1.537   2.599 -0.3148  0.4218 -0.3802
  693SOL    HW1 2078   0.593   1.527   2.551  0.3735 -2.2687 -1.6934
  693SOL    HW2 2079   0.432   1.523   2.529 -0.0561 -3.7461 -0.5642
  694SOL     OW 2080   1.961   1.021   1.372  0.4237  0.2279 -0.6548
  694SOL    HW1 2081   2.051   0.974   1.359 -0.9850  0.7797  0.0508
  694SOL    HW2 2082   1.892   0.965   1.328  2.8353  2.3152  1.4692
  695SOL     OW 2083   1.018   0.908   1.359 -0.0308 -0.2003 -0.2511
  695SOL    HW1 2084   0.953   0.925   1.435  1.0383 -0.5710 -1.8759
  695SOL    HW2 2085   1.113   0.924   1.390  0.3153 -0.9953 -0.7719
  696SOL     OW 2086   1.474   3.015   0.613 -0.7841 -0.0848  0.6360
  696SOL    HW1 2087   1.530   2.982   0.694  0.3149  0.6696  1.5256
  696SOL    HW2 2088   1.527   2.993   0.530 -1.1793  1.5610  1.8235
  697SOL     OW 2089   1.031   0.273   1.443 -0.3566  0.6964 -0.2840
  697SOL    HW1 2090   1.000   0.195   1.500  0.1219  1.8823 -2.0041
  697SOL    HW2 2091   0.989   0.271   1.354  2.6663  2.7241  0.6801
  698SOL     OW 2092   1.615   1.192   2.074 -0.7112 -0.2521 -0.5671
  698SOL    HW1 2093   1.677   1.113   2.037  0.9190  0.3628 -3.6490
  698SOL    HW2 2094   1.648   1.239   2.159  0.2906 -0.1789 -0.6071
  699SOL     OW 2095   1.527   0.705   0.943 -0.1405  0.0781 -0.3063
  699SOL    HW1 2096   1.595   0.762   0.892  0.5572  2.4520  0.7360
  699SOL    HW2 2097   1.446   0.764   0.958  1.4075 -1.6171 -1.3285
  700SOL     OW 2098   1.191   2.481   0.355 -0.1929  0.2769  0.0877
  700SOL    HW1 2099   1.166   2.543   0.435 -1.2419  1.2690  1.0975
  700SOL    HW2 2100   1.206   2.387   0.387 -0.0757  0.6496  1.3644
  701SOL     OW 2101   2.146   2.390   3.058  0.2759  0.0593 -0.3567
  701SOL    HW1 2102   2.057   2.431   3.038  2.3701 -2.0942  1.8806
  701SOL    HW2 2103   2.159   2.314   2.994  2.0489 -0.9911 -2.2542
  702SOL     OW 2104   1.106   0.295   0.755  0.6196 -1.1471  0.3405
  702SOL    HW1 2105   1.148   0.215   0.805  0.5488 -1.0141 -1.5870
  702SOL    HW2 2106   1.128   0.384   0.796 -2.0150  1.9685  1.0987
  703SOL     OW 2107   2.280   0.261   2.318  0.1106 -0.2060 -0.7280
  703SOL    HW1 2108   2.325   0.196   2.379 -1.8723 -3.8577 -2.9007
  703SOL    HW2 2109   2.180   0.248   2.313  1.2096 -0.3386 -0.2149
  704SOL     OW 2110   0.041   2.266   0.350 -0.4420 -0.1375 -0.0458
  704SOL    HW1 2111   0.019   2.222   0.260 -0.0483 -1.7941 -0.0240
  704SOL    HW2 2112   0.052   2.367   0.338  1.6052 -0.2459 -0.7470
  705SOL     OW 2113   2.701   2.716   2.228  0.2603 -0.0889  0.0090
  705SOL    HW1 2114   2.792   2.758   2.199  0.3183  3.0816 -0.7541
  705SOL    HW2 2115   2.665   2.649   2.156 -1.2862 -0.4826 -1.3532
  706SOL     OW 2116   2.341   2.774   1.007  0.0757  0.1630 -0.0650
  706SOL    HW1 2117   2.273   2.712   1.054 -1.2979 -1.4649  0.0186
  706SOL    HW2 2118   2.375   2.721   0.927 -2.6181 -0.4609 -1.3352
  707SOL     OW 2119   0.602   2.384   2.254 -0.3762  0.0899  0.4511
  707SOL    HW1 2120   0.569   2.388   2.154 -0.7800  1.4727 -3.2597
  707SOL    HW2 2121   0.701   2.402   2.268  1.8241  1.5831 -0.9551
  708SOL     OW 2122   2.987   2.097   2.360  0.6011  0.0048 -0.0263
  708SOL    HW1 2123   3.037   2.019   2.398 -1.8712  0.5528 -0.8139
  708SOL    HW2 2124   3.047   2.151   2.300  0.4231 -1.7781  0.3294
  709SOL     OW 2125   1.986   3.069   2.033  0.5717  0.2533  0.2951
  709SOL    HW1 2126   1.890   3.063   2.010 -1.2197 -0.2643 -2.0727
  709SOL    HW2 2127   2.010   3.053   2.130  0.0045  0.2905 -0.8474
  710SOL     OW 2128   1.580   0.749   2.355  0.2199 -0.2181  0.5757
  710SOL    HW1 2129   1.611   0.698   2.437 -1.5789  1.5072 -2.4869
  710SOL    HW2 2130   1.632   0.720   2.274  5.4352 -2.4449  2.7266
  711SOL     OW 2131   0.720   2.092   2.794  0.1764  0.3872 -0.1321
  711SOL    HW1 2132   0.792   2.036   2.839  1.6882  0.9854  0.1807
  711SOL    HW2 2133   0.632   2.051   2.798  0.2275 -0.3787 -0.3300
  712SOL     OW 2134   0.487   2.487   2.701 -0.5549 -0.1200  0.0027
  712SOL    HW1 2135   0.467   2.579   2.736  2.5397  0.1588  2.9176
  712SOL    HW2 2136   0.499   2.489   2.597 -1.0597 -1.5201 -2.8502
  713SOL     OW 2137   1.844   1.469   2.647 -0.2009  0.2946  0.1228
  713SOL    HW1 2138   1.874   1.428   2.558 -0.0285 -1.6639 -0.7393
  713SOL    HW2 2139   1.858   1.408   2.726  0.4027  0.9438 -0.5536
  714SOL     OW 2140   1.473   1.279   1.852 -0.4243 -0.0369  0.4726
  714SOL    HW1 2141   1.529   1.356   1.811  0.5449  0.0371 -2.5974
  714SOL    HW2 2142   1.509   1.250   1.943 -2.4314 -2.9429 -0.3234
  715SOL     OW 2143   2.035   0.697   2.517  0.1529  0.6186 -0.1832
  715SOL    HW1 2144   2.051   0.612   2.573  0.7606  1.6998 -0.5321
  715SOL    HW2 2145   1.973   0.676   2.441  1.1189 -1.9257  1.2481
  716SOL     OW 2146   2.979   2.156   1.662 -0.1810  0.2459  0.1608
  716SOL    HW1 2147   2.934   2.178   1.752 -0.5039 -1.6986 -0.6062
  716SOL    HW2 2148   3.080   2.135   1.680 -1.7520  0.3940 -2.6705
  717SOL     OW 2149   2.642   1.364   0.800  0.1354  0.4016  0.0856
  717SOL    HW1 2150   2.740   1.366   0.831 -0.1600 -2.6357  1.8343
  717SOL    HW2 2151   2.641   1.390   0.703  0.4236  0.1311 -1.1032
  718SOL     OW 2152   0.960   1.691   2.197  0.2226  0.6886 -0.0850
  718SOL    HW1 2153   0.863   1.715   2.171 -1.9818 -0.9436 -1.2432
  718SOL    HW2 2154   1.026   1.660   2.117  0.2055  0.5001 -0.4225
  719SOL     OW 2155   2.033   0.792   2.797 -0.2334  0.0324 -0.8644
  719SOL    HW1 2156   2.049   0.789   2.697  0.2548 -1.3209 -0.4314
  719SOL    HW2 2157   1.992   0.878   2.820 -2.9060 -2.6769 -0.6835
  720SOL     OW 2158   0.601   0.565   0.757  0.0315  0.1462 -0.2643
  720SOL    HW1 2159   0.671   0.541   0.822 -1.8636  1.2044 -1.7558
  720SOL    HW2 2160   0.518   0.508   0.764 -0.7792 -5.5567  0.9004
  721SOL     OW 2161   2.823   0.788   0.396 -0.6203 -0.4169  0.2048
  721SOL    HW1 2162   2.767   0.859   0.442 -0.3369  1.6102  0.2058
  721SOL    HW2 2163   2.848   0.814   0.302 -3.0662  0.5194  3.7830
  722SOL     OW 2164   2.947   0.591   2.375  0.2577 -0.3129  0.6604
  722SOL    HW1 2165   2.991   0.609   2.284 -0.1138 -0.3816 -1.9699
  722SOL    HW2 2166   2.907   0.499   2.375  0.8879 -0.3066  1.8290
  723SOL     OW 2167   1.890   0.313   0.231  0.0245  0.1945  0.2517
  723SOL    HW1 2168   1.922   0.362   0.150 -3.8208 -5.1407  1.4729
  723SOL    HW2 2169   1.905   0.363   0.317  1.3319  0.0526 -0.0342
  724SOL     OW 2170   0.512   1.920   1.972 -0.5175  0.5010 -0.2745
  724SOL    HW1 2171   0.587   1.988   1.994 -0.3278 -1.4933  2.5016
  724SOL    HW2 2172   0.547   1.848   1.909  0.6751  0.0951 -0.8769
  725SOL     OW 2173   1.625   2.948   0.805  0.0454  0.5032  0.5530
  725SOL    HW1 2174   1.604   2.849   0.800  0.6510  2.3387  0.9389
  725SOL    HW2 2175   1.703   2.953   0.872 -2.1891 -0.3867  0.9577
  726SOL     OW 2176   1.977   2.496   0.291 -0.0916 -0.1271 -0.2281
  726SOL    HW1 2177   1.995   2.592   0.255 -0.6477  0.6628 -1.1325
  726SOL    HW2 2178   1.962   2.501   0.394  0.2769 -0.2029  0.2268
  727SOL     OW 2179   1.777   1.736   1.239  0.2803  0.2053 -0.2730
  727SOL    HW1 2180   1.809   1.738   1.335  0.7606  0.8351 -2.4691
  727SOL    HW2 2181   1.815   1.820   1.195  2.2611  2.5180  1.2844
  728SOL     OW 2182   1.945   2.978   1.647 -0.2828 -0.0717 -0.0329
  728SOL    HW1 2183   2.022   3.015   1.705 -2.2969 -2.3196 -0.9280
  728SOL    HW2 2184   1.905   2.904   1.709 -2.3727 -2.1141  0.3063
  729SOL     OW 2185   1.983   1.939   1.100  0.0171 -0.4111 -0.2790
  729SOL    HW1 2186   2.045   1.899   1.028  1.1638  1.7953  1.6392
  729SOL    HW2 2187   2.013   1.893   1.186  0.8562  0.5060 -1.3733
  730SOL     OW 2188   1.410   0.820   2.770 -0.1438 -0.3775 -0.3664
  730SOL    HW1 2189   1.363   0.883   2.702 -0.9090  0.6163  0.3661
  730SOL    HW2 2190   1.512   0.819   2.745  0.5494 -1.3967 -2.5491
  731SOL     OW 2191   0.529   0.107   0.892 -0.4227  0.0426 -0.3318
  731SOL    HW1 2192   0.442   0.164   0.879 -0.7688 -0.1675 -0.3627
  731SOL    HW2 2193   0.604   0.171   0.898 -1.8961 -0.1950 -0.9258
  732SOL     OW 2194   1.557   0.534   0.491  0.7552 -0.5105  0.9413
  732SOL    HW1 2195   1.468   0.487   0.512 -1.9754 -3.5756 -3.1247
  732SOL    HW2 2196   1.642   0.493   0.529  0.3235 -0.3903 -1.9418
  733SOL     OW 2197   0.542   1.896   1.545 -0.1298  0.2934 -0.2502
  733SOL    HW1 2198   0.541   1.809   1.490  2.3552  1.7705 -0.0510
  733SOL    HW2 2199   0.613   1.952   1.503 -3.1418 -3.1728  0.3536
  734SOL     OW 2200   3.008   2.713   0.249 -0.1840  0.4837  0.0700
  734SOL    HW1 2201   3.049   2.654   0.325  0.9332  0.6353  1.8636
  734SOL    HW2 2202   3.074   2.727   0.178 -0.6527  0.5545  1.0706
  735SOL     OW 2203   1.393   0.086   1.120  0.2595  0.0241 -0.5534
  735SOL    HW1 2204   1.344   0.005   1.157  1.3848  0.3086 -2.0589
  735SOL    HW2 2205   1.492   0.065   1.099  0.5074 -0.9061 -1.6351
  736SOL     OW 2206   1.987   2.235   0.212  0.0961 -0.1816 -0.1009
  736SOL    HW1 2207   2.079   2.190   0.220 -0.1624 -0.5519  0.1480
  736SOL    HW2 2208   1.993   2.334   0.237 -0.8746 -2.9611 -2.6098
  737SOL     OW 2209   0.082   1.461   1.205 -0.1961  0.3359 -0.0715
  737SOL    HW1 2210   0.101   1.548   1.148 -1.8333 -0.4310 -0.3277
  737SOL    HW2 2211   3.091   1.481   1.261 -3.5929  1.9303  3.3401
  738SOL     OW 2212   2.162   2.338   2.418  0.9524  0.0651 -0.1409
  738SOL    HW1 2213   2.109   2.398   2.482  2.4817 -1.2642 -4.3770
  738SOL    HW2 2214   2.250   2.380   2.387 -0.4784 -0.1236 -0.8825
  739SOL     OW 2215   1.307   2.016   2.618 -0.0934 -0.2283 -0.5249
  739SOL    HW1 2216   1.230   2.060   2.571  0.7034 -1.5532 -1.8969
  739SOL    HW2 2217   1.285   1.925   2.662 -1.3090 -0.5338  0.9060
  740SOL     OW 2218   1.611   0.106   0.884 -0.2221 -0.1365  0.0687
  740SOL    HW1 2219   1.548   0.164   0.827 -0.6590  0.5067  0.0330
  740SOL    HW2 2220   1.626   0.016   0.842 -1.2837  1.1944 -0.6075
  741SOL     OW 2221   0.153   1.283   0.826 -0.0338 -0.2415 -0.5776
  741SOL    HW1 2222   0.220   1.208   0.835 -1.8262  0.3440  0.7363
  741SOL    HW2 2223   0.093   1.270   0.745  0.2362  2.2557  0.2153
  742SOL     OW 2224   0.921   1.038   2.501 -0.2430  0.1220  0.5588
  742SOL    HW1 2225   0.939   1.099   2.583 -0.4087  0.4376  1.4404
  742SOL    HW2 2226   0.823   1.021   2.493  2.6085 -2.3126 -0.6943
  743SOL     OW 2227   0.988   0.900   2.038  0.1420  0.1178  0.8310
  743SOL    HW1 2228   0.934   0.988   2.059 -1.2085  1.1286  3.6602
  743SOL    HW2 2229   1.055   0.878   2.108  2.6406  1.0396 -1.0624
  744SOL     OW 2230   1.755   0.074   1.606 -0.2601 -0.4603  0.6649
  744SOL    HW1 2231   1.809   3.086   1.612 -0.6819  0.9116  0.2471
  744SOL    HW2 2232   1.813   0.152   1.645  1.8380  3.4685 -0.7709
  745SOL     OW 2233   2.235   1.260   1.566 -0.2964 -0.3701  0.5372
  745SOL    HW1 2234   2.309   1.329   1.562 -0.5970 -0.6262  1.3165
  745SOL    HW2 2235   2.222   1.207   1.477  0.7766 -1.2568 -2.5639
  746SOL     OW 2236   1.985   1.394   0.099  0.3102  0.5066  0.3546
  746SOL    HW1 2237   1.922   1.475   0.087 -0.7560 -1.3891  0.1177
  746SOL    HW2 2238   2.056   1.384   0.023  1.0121 -1.5046  2.9736
  747SOL     OW 2239   2.748   1.735   1.234  0.4670 -0.3077  0.0914
  747SOL    HW1 2240   2.757   1.698   1.139 -0.2500  2.9844 -1.6328
  747SOL    HW2 2241   2.759   1.836   1.230 -0.3278 -1.0567  1.6685
  748SOL     OW 2242   0.264   1.853   0.514 -0.6278  0.2058 -0.0698
  748SOL    HW1 2243   0.217   1.794   0.446  2.7714 -2.8613 -2.6327
  748SOL    HW2 2244   0.350   1.808   0.540 -2.8577 -1.2377 -3.6251
  749SOL     OW 2245   2.548   2.337   2.597  0.3375  0.6297  0.4958
  749SOL    HW1 2246   2.637   2.294   2.570  0.9997  0.0659 -0.9926
  749SOL    HW2 2247   2.504   2.379   2.515  0.2625  0.0607  0.7948
  750SOL     OW 2248   2.614   0.871   0.792  0.0648  0.0103  0.1827
  750SOL    HW1 2249   2.708   0.906   0.803 -0.8512  1.3456  0.1432
  750SOL    HW2 2250   2.566   0.852   0.879  2.5082 -1.9171 -1.5203
  751SOL     OW 2251   2.544   2.892   0.091 -0.0624  0.5197  0.2460
  751SOL    HW1 2252   2.579   2.982   0.048  0.7793  1.7625 -1.3591
  751SOL    HW2 2253   2.625   2.831   0.096 -0.3007 -2.2430  2.1150
  752SOL     OW 2254   3.089   2.646   0.736 -0.1819  0.2012 -0.3450
  752SOL    HW1 2255   3.042   2.728   0.704 -2.6013  1.7939  1.3628
  752SOL    HW2 2256   3.055   2.560   0.699  1.9407  1.2518 -0.2489
  753SOL     OW 2257   1.964   1.030   2.191 -0.3903 -0.3746 -0.2066
  753SOL    HW1 2258   2.042   1.096   2.174  0.8705 -2.1503 -1.6937
  753SOL    HW2 2259   1.899   1.057   2.269 -1.3810 -0.5878  1.2932
  754SOL     OW 2260   1.876   2.034   1.406 -0.3916  0.5084 -1.0579
  754SOL    HW1 2261   1.960   2.098   1.424  2.5337  4.4035  0.9475
  754SOL    HW2 2262   1.868   1.952   1.465  0.1575 -2.1497  0.4124
  755SOL     OW 2263   2.651   0.957   0.505  0.7415  0.2175 -0.0150
  755SOL    HW1 2264   2.578   0.920   0.437 -2.0105 -0.9012 -1.1672
  755SOL    HW2 2265   2.612   0.942   0.597  1.0611  1.3174  0.0383
  756SOL     OW 2266   0.760   1.174   2.866 -0.0630  0.0739  0.4564
  756SOL    HW1 2267   0.692   1.224   2.806  0.9383  0.3381  0.1252
  756SOL    HW2 2268   0.850   1.178   2.819  1.3062  1.5211  4.4119
  757SOL     OW 2269   1.203   2.429   1.192 -0.4853 -0.1540 -0.7203
  757SOL    HW1 2270   1.251   2.385   1.115  0.1926  0.7386  0.8432
  757SOL    HW2 2271   1.221   2.384   1.282 -4.1941 -3.4611  0.3272
  758SOL     OW 2272   1.177   2.619   1.649 -0.5068 -0.5151 -0.1261
  758SOL    HW1 2273   1.147   2.714   1.675  0.8678  0.2532 -1.0773
  758SOL    HW2 2274   1.222   2.631   1.563 -0.5097  0.7994  1.5137
  759SOL     OW 2275   3.024   1.042   1.037 -0.4398  0.3400 -0.4268
  759SOL    HW1 2276   2.943   1.066   0.980 -2.9215  5.1293  0.1737
  759SOL    HW2 2277   3.020   1.092   1.126  0.2251 -2.4047  0.4828
  760SOL     OW 2278   2.243   1.228   1.278  0.4708 -0.3597  0.2431
  760SOL    HW1 2279   2.296   1.146   1.252  1.9350 -0.0660 -2.3773
  760SOL    HW2 2280   2.171   1.247   1.209  2.5386  3.0377 -1.0980
  761SOL     OW 2281   1.908   0.056   0.094  0.4097  0.9256  0.5543
  761SOL    HW1 2282   1.812   0.019   0.107 -3.2947 -1.2750 -1.4175
  761SOL    HW2 2283   1.926   0.137   0.155  1.7145 -1.1867  1.2732
  762SOL     OW 2284   2.298   1.409   2.812  0.0833  0.2656  0.0110
  762SOL    HW1 2285   2.284   1.309   2.802  0.9768  1.1525 -2.1939
  762SOL    HW2 2286   2.263   1.453   2.724 -1.8549  1.8907 -2.8565
  763SOL     OW 2287   0.378   2.215   1.848  0.5549  0.4400  0.0135
  763SOL    HW1 2288   0.330   2.132   1.887 -0.3681 -3.6893 -3.3877
  763SOL    HW2 2289   0.464   2.177   1.807  1.4291 -0.8652 -0.7182
  764SOL     OW 2290   2.962   2.423   0.047  0.0616 -0.0836  0.7950
  764SOL    HW1 2291   2.883   2.424   0.111  0.6584 -0.3041 -1.1369
  764SOL    HW2 2292   2.930   2.447   3.046  1.3946 -1.4599  2.7074
  765SOL     OW 2293   0.513   3.030   1.453  0.1743  0.1439  0.2409
  765SOL    HW1 2294   0.564   0.021   1.463 -0.2253 -1.5384  2.3601
  765SOL    HW2 2295   0.577   2.954   1.427 -0.0134 -0.3114  1.1450
  766SOL     OW 2296   2.743   1.974   2.351 -0.0660 -0.1843 -0.3687
  766SOL    HW1 2297   2.846   2.006   2.353  1.7005 -0.7966  2.4550
  766SOL    HW2 2298   2.735   1.895   2.409  1.8803  0.2990 -0.6329
  767SOL     OW 2299   2.550   0.769   2.033 -0.5352  0.2347 -0.5508
  767SOL    HW1 2300   2.514   0.713   1.954  0.2625 -1.8885  0.2033
  767SOL    HW2 2301   2.595   0.703   2.103 -0.1091 -0.7222  1.5543
  768SOL     OW 2302   1.128   3.004   2.871 -0.1565  0.5554  1.2230
  768SOL    HW1 2303   1.075   2.959   2.946 -0.8358  0.4728 -2.5017
  768SOL    HW2 2304   1.219   3.031   2.902 -1.2932  1.5166  2.2300
  769SOL     OW 2305   2.667   2.888   0.966  0.2799  0.1353  0.1255
  769SOL    HW1 2306   2.770   2.886   0.972 -1.7860 -1.3163  2.6429
  769SOL    HW2 2307   2.628   2.839   1.049 -0.5736 -2.2413  4.4463
  770SOL     OW 2308   0.351   2.868   2.788 -0.4724 -0.0432  0.4583
  770SOL    HW1 2309   0.249   2.885   2.780 -1.0297 -1.1971 -0.2407
  770SOL    HW2 2310   0.358   2.823   2.884 -1.0619 -0.4856  0.4489
  771SOL     OW 2311   1.420   2.024   2.090 -0.5861 -0.3445 -0.7281
  771SOL    HW1 2312   1.325   2.062   2.084 -0.7168 -0.8105 -1.4167
  771SOL    HW2 2313   1.435   1.958   2.017 -2.6247  1.9270  0.1587
  772SOL     OW 2314   1.408   2.747   0.038  0.2861 -0.2068 -0.1077
  772SOL    HW1 2315   1.348   2.808   0.093  1.2118 -1.0133  0.5155
  772SOL    HW2 2316   1.474   2.809   3.079  4.5344  1.9637 -0.5527
  773SOL     OW 2317   2.025   0.660   1.469  0.3450 -0.7647  0.4178
  773SOL    HW1 2318   2.087   0.727   1.427 -1.3884  0.7914  0.6059
  773SOL    HW2 2319   1.981   0.596   1.402  2.0416  3.2003  0.1408
  774SOL     OW 2320   0.976   1.036   1.103  0.6629  0.2042  0.1133
  774SOL    HW1 2321   1.051   1.104   1.115 -1.3066 -0.8432 -0.8548
  774SOL    HW2 2322   0.967   0.983   1.185 -1.6843 -1.0454 -1.7317
  775SOL     OW 2323   2.037   2.741   2.850 -0.2746  0.2282  0.4656
  775SOL    HW1 2324   2.121   2.762   2.901  1.7205  0.3716 -0.6372
  775SOL    HW2 2325   1.980   2.666   2.894 -1.4480 -2.1604  1.4818
  776SOL     OW 2326   2.187   0.877   1.354 -0.4916 -0.5379 -0.5039
  776SOL    HW1 2327   2.235   0.914   1.436 -0.4767  2.7942  1.7932
  776SOL    HW2 2328   2.245   0.902   1.268  3.1180 -0.3664 -3.7320
  777SOL     OW 2329   0.177   0.973   2.048 -0.4204  0.9365  0.5804
  777SOL    HW1 2330   0.176   0.870   2.048  2.1732  2.9197 -1.3040
  777SOL    HW2 2331   0.248   1.009   1.983  2.2705  2.1698 -0.1895
  778SOL     OW 2332   0.255   0.684   0.055 -0.4902  0.3529  0.8312
  778SOL    HW1 2333   0.318   0.651   3.076  0.7456 -0.0604  2.1157
  778SOL    HW2 2334   0.222   0.777   0.033  0.1900  1.2759 -2.0440
  779SOL     OW 2335   0.761   3.091   2.675  0.5601 -0.5768  0.1997
  779SOL    HW1 2336   0.843   3.034   2.677 -1.6205  1.4379 -0.6458
  779SOL    HW2 2337   0.730   0.023   2.765  2.6459 -0.9654 -0.7751
  780SOL     OW 2338   2.171   1.243   2.481 -0.3180  0.0304 -0.0664
  780SOL    HW1 2339   2.168   1.141   2.484 -0.1326 -0.3188 -0.0745
  780SOL    HW2 2340   2.264   1.287   2.466  1.8924  0.6381  0.1973
  781SOL     OW 2341   2.875   0.877   1.942 -0.3365  0.3425 -0.2454
  781SOL    HW1 2342   2.794   0.870   1.883  2.3289 -0.1347  2.4358
  781SOL    HW2 2343   2.856   0.830   2.028  1.5031  1.0677  0.5242
  782SOL     OW 2344   0.816   1.690   2.730  0.6538 -0.0435  0.0898
  782SOL    HW1 2345   0.798   1.641   2.816  1.4844  0.2592  0.6462
  782SOL    HW2 2346   0.744   1.761   2.713  0.4206  1.1200 -2.0638
  783SOL     OW 2347   0.912   2.433   1.168 -0.3643 -0.0153  0.3641
  783SOL    HW1 2348   1.004   2.401   1.141  1.7143 -0.6372  0.9483
  783SOL    HW2 2349   0.855   2.443   1.085  0.2125  0.6089  0.7451
  784SOL     OW 2350   1.698   0.614   2.582 -0.3840 -0.0386  0.5171
  784SOL    HW1 2351   1.786   0.591   2.630 -0.2216 -1.6104 -0.7389
  784SOL    HW2 2352   1.630   0.538   2.592  0.7326 -2.7584  0.8848
  785SOL     OW 2353   0.124   0.084   2.076 -0.3222  0.0299 -0.5073
  785SOL    HW1 2354   0.219   0.116   2.089  1.6301 -0.0332 -1.2213
  785SOL    HW2 2355   0.077   0.069   2.164 -0.5665 -3.8407  0.9555
  786SOL     OW 2356   0.863   2.036   0.345  0.0001 -0.1142  0.1055
  786SOL    HW1 2357   0.809   2.037   0.260  0.4622 -0.7023  0.2751
  786SOL    HW2 2358   0.849   2.123   0.393 -0.7187 -2.7559  1.1039
  787SOL     OW 2359   1.333   0.354   0.505  0.4790  0.1945 -0.1073
  787SOL    HW1 2360   1.282   0.338   0.418 -1.1980  1.3535 -0.5365
  787SOL    HW2 2361   1.270   0.401   0.566  1.7839 -0.5353 -2.9330
  788SOL     OW 2362   2.936   1.560   1.314  0.0419 -0.0020 -1.0996
  788SOL    HW1 2363   2.871   1.629   1.280  0.6475 -0.3316 -1.3902
  788SOL    HW2 2364   2.993   1.597   1.389 -2.3306 -2.2744  0.1815
  789SOL     OW 2365   2.647   1.014   2.255  0.9553 -0.0458  0.1980
  789SOL    HW1 2366   2.676   0.925   2.220  0.4500  1.9450 -0.1868
  789SOL    HW2 2367   2.683   1.092   2.193  2.8264  0.2738 -1.6274
  790SOL     OW 2368   0.661   0.390   0.258  0.7206  0.1052 -0.3926
  790SOL    HW1 2369   0.614   0.447   0.330  1.7207 -0.4725 -0.8702
  790SOL    HW2 2370   0.656   0.289   0.278 -0.0254  0.0842  0.7003
  791SOL     OW 2371   2.888   2.974   0.007 -0.0511  0.2951 -0.0638
  791SOL    HW1 2372   2.808   3.028   3.073  0.3290 -0.7067  2.1975
  791SOL    HW2 2373   2.918   3.017   0.096 -1.0277  1.6410 -0.1703
  792SOL     OW 2374   1.351   0.610   2.232 -0.1713 -0.0238 -0.2111
  792SOL    HW1 2375   1.431   0.659   2.280  1.1091 -0.4811  2.9615
  792SOL    HW2 2376   1.286   0.559   2.296 -1.6126 -2.0905 -0.4986
  793SOL     OW 2377   2.798   0.509   0.878 -0.3434 -0.1684 -0.1933
  793SOL    HW1 2378   2.887   0.499   0.830  2.0928 -0.6537  0.3212
  793SOL    HW2 2379   2.799   0.585   0.948  0.3754 -1.3003 -0.2444
  794SOL     OW 2380   3.076   0.580   2.136  0.6880  0.1920  0.2090
  794SOL    HW1 2381   0.040   0.663   2.133 -1.9332  0.0659  0.1884
  794SOL    HW2 2382   3.040   0.566   2.041 -1.0536 -2.7432 -0.7702
  795SOL     OW 2383   0.512   1.399   0.458 -0.2214 -0.4339  1.0887
  795SOL    HW1 2384   0.571   1.410   0.542 -1.6299 -0.1826 -0.8229
  795SOL    HW2 2385   0.500   1.299   0.436 -0.0995  0.3398  2.6729
  796SOL     OW 2386   3.085   0.928   3.020 -0.2934  0.0116  0.3430
  796SOL    HW1 2387   0.066   0.935   3.086 -3.0566  0.2369 -0.9789
  796SOL    HW2 2388   0.013   0.873   2.935 -1.7053 -1.0119 -0.3029
  797SOL     OW 2389   1.906   2.761   2.495 -0.3814 -0.1684 -0.1454
  797SOL    HW1 2390   1.961   2.827   2.554 -1.5004 -0.8436 -0.4643
  797SOL    HW2 2391   1.807   2.787   2.494 -0.2275  0.9962 -0.9763
  798SOL     OW 2392   0.083   0.023   1.405  0.0223  0.0035 -0.8247
  798SOL    HW1 2393   0.071   0.123   1.421 -3.0211  0.1962 -1.4978
  798SOL    HW2 2394   0.166   0.002   1.349  1.2048  1.5521  2.8259
  799SOL     OW 2395   2.467   0.622   1.819  0.2204 -0.2994 -0.4106
  799SOL    HW1 2396   2.428   0.700   1.760 -1.2288  2.3339 -0.5902
  799SOL    HW2 2397   2.471   0.536   1.764  1.4220 -0.2147  0.5864
  800SOL     OW 2398   0.146   1.975   0.721 -0.3378 -0.0850  0.3834
  800SOL    HW1 2399   0.230   1.989   0.777 -1.1419 -0.1701  0.4219
  800SOL    HW2 2400   0.174   1.925   0.636  1.6391 -1.0948  0.2732
  801SOL     OW 2401   1.428   1.637   0.468  0.0699  0.4975 -0.3980
  801SOL    HW1 2402   1.353   1.658   0.533  1.0317 -1.5276 -0.8312
  801SOL    HW2 2403   1.476   1.554   0.502  1.9080 -0.1595  0.4746
  802SOL     OW 2404   1.313   1.205   2.776  0.5296  0.1346  0.3616
  802SOL    HW1 2405   1.286   1.246   2.684 -0.3067 -0.0934 -0.5753
  802SOL    HW2 2406   1.404   1.157   2.767  1.3120  2.7883  1.7584
  803SOL     OW 2407   0.254   1.910   2.078 -0.0145 -0.3081 -0.9482
  803SOL    HW1 2408   0.350   1.912   2.037 -0.7930 -2.1827 -1.7838
  803SOL    HW2 2409   0.235   1.814   2.103 -0.3206 -0.9368  0.3804
  804SOL     OW 2410   1.291   2.271   0.972 -0.0190 -0.0012 -0.1665
  804SOL    HW1 2411   1.343   2.186   1.007 -0.5777  1.3689 -0.2245
  804SOL    HW2 2412   1.195   2.242   0.946 -0.7745  0.4274  0.5365
  805SOL     OW 2413   2.415   2.100   2.706  0.2652 -0.2537 -0.8188
  805SOL    HW1 2414   2.480   2.064   2.778  0.1791 -2.3371  0.8113
  805SOL    HW2 2415   2.451   2.187   2.658 -1.4359 -1.4426 -1.5551
  806SOL     OW 2416   3.035   0.460   0.758 -0.2296  0.5348  0.2023
  806SOL    HW1 2417   3.092   0.407   0.823 -2.6361  0.7841 -3.1953
  806SOL    HW2 2418   3.065   0.554   0.752 -3.1440 -0.9046 -0.6124
  807SOL     OW 2419   2.765   0.840   2.798  0.2190 -0.1104  0.2323
  807SOL    HW1 2420   2.790   0.796   2.713  1.4380  2.6661 -3.4890
  807SOL    HW2 2421   2.824   0.919   2.817 -1.1339  1.0223 -1.5930
  808SOL     OW 2422   0.708   1.982   0.697 -0.3092 -0.1184  0.0591
  808SOL    HW1 2423   0.720   1.905   0.630  1.1973 -0.1645  0.0496
  808SOL    HW2 2424   0.648   2.057   0.660 -3.5251  0.7684 -0.6854
  809SOL     OW 2425   2.591   0.169   2.290  0.0364 -0.2425  0.6039
  809SOL    HW1 2426   2.642   0.102   2.227  1.2828 -4.1339 -1.2701
  809SOL    HW2 2427   2.541   0.119   2.365  0.4327  0.1186  1.1850
  810SOL     OW 2428   1.631   1.096   0.520 -0.1440  0.5119  0.1690
  810SOL    HW1 2429   1.721   1.098   0.477 -1.6454 -0.4972 -1.3866
  810SOL    HW2 2430   1.556   1.117   0.458  2.9385  1.7142 -0.7474
  811SOL     OW 2431   1.754   2.907   2.127 -0.0341  0.2554  0.0171
  811SOL    HW1 2432   1.801   2.963   2.204  0.4080  0.2749  0.5627
  811SOL    HW2 2433   1.726   2.815   2.167 -0.8386 -2.3189  0.3622
  812SOL     OW 2434   1.890   2.476   0.557 -0.2562 -0.3146  0.3019
  812SOL    HW1 2435   1.799   2.456   0.580  4.2496 -0.8039  0.6456
  812SOL    HW2 2436   1.921   2.550   0.621 -0.4659 -0.6516 -1.2510
  813SOL     OW 2437   1.113   0.363   1.973 -0.1784  0.1767  0.1542
  813SOL    HW1 2438   1.191   0.417   1.961  0.1224 -1.0670  0.9158
  813SOL    HW2 2439   1.099   0.301   1.894  1.0533  1.2033 -1.0109
  814SOL     OW 2440   0.261   2.932   1.579  0.0119 -0.3656  0.4097
  814SOL    HW1 2441   0.343   2.974   1.537 -2.0731 -0.0173  0.1859
  814SOL    HW2 2442   0.188   3.005   1.589 -1.0732 -1.3334 -0.1686
  815SOL     OW 2443   0.285   0.246   0.856 -0.7168 -0.0393  0.0167
  815SOL    HW1 2444   0.249   0.177   0.793 -1.1141  0.4922 -1.9283
  815SOL    HW2 2445   0.234   0.247   0.946 -1.6057  0.9583  0.1697
  816SOL     OW 2446   2.877   1.755   2.109 -0.3025  0.3863 -0.1356
  816SOL    HW1 2447   2.814   1.814   2.166 -1.8770 -0.1568  4.1263
  816SOL    HW2 2448   2.973   1.767   2.140  1.4515  0.6893 -1.0783
  817SOL     OW 2449   1.255   0.076   0.483 -0.4522  0.6997  0.3789
  817SOL    HW1 2450   1.220   0.151   0.540  0.5566  0.8159 -1.2371
  817SOL    HW2 2451   1.308   0.004   0.531 -1.8115 -0.3481  1.4907
  818SOL     OW 2452   1.722   0.639   0.050  0.4146 -0.1284  0.3173
  818SOL    HW1 2453   1.791   0.568   0.047  0.4381  2.3601 -2.3073
  818SOL    HW2 2454   1.707   0.669   0.145  1.6763  1.6458 -1.3852
  819SOL     OW 2455   2.252   2.829   3.000  0.1851 -0.2994 -0.1093
  819SOL    HW1 2456   2.304   2.742   3.004 -0.6752  0.3924 -1.8797
  819SOL    HW2 2457   2.236   2.875   3.089  0.2175 -3.9549 -0.7502
  820SOL     OW 2458   1.568   1.101   2.777  0.5271  0.5689  0.1695
  820SOL    HW1 2459   1.597   1.115   2.873  0.9593  0.2321 -0.5434
  820SOL    HW2 2460   1.599   1.009   2.740 -1.4097  1.0709 -1.1358
  821SOL     OW 2461   0.390   0.654   1.235  0.6542  0.6271  0.4684
  821SOL    HW1 2462   0.390   0.555   1.255  0.3263 -1.1603 -0.4292
  821SOL    HW2 2463   0.363   0.670   1.138 -2.2256 -0.8252  1.5530
  822SOL     OW 2464   1.122   2.765   2.462 -0.2210  0.4100 -0.1241
  822SOL    HW1 2465   1.200   2.716   2.416 -1.6018  1.5407  1.3835
  822SOL    HW2 2466   1.042   2.700   2.472 -0.7715 -0.6690 -0.2186
  823SOL     OW 2467   0.405   1.533   1.700  0.4521  0.2833 -0.4540
  823SOL    HW1 2468   0.348   1.523   1.785  0.3711 -0.9218  1.8457
  823SOL    HW2 2469   0.482   1.598   1.726 -0.9021 -0.4572 -0.4621
  824SOL     OW 2470   1.552   2.630   2.444 -0.1113  0.4136 -0.2178
  824SOL    HW1 2471   1.578   2.714   2.500  1.8174 -1.3943  0.2353
  824SOL    HW2 2472   1.454   2.614   2.439  0.4552  0.5307 -1.5511
  825SOL     OW 2473   1.215   1.029   0.263 -0.5493 -0.5367 -0.1611
  825SOL    HW1 2474   1.274   0.950   0.282  2.3378  2.1431 -0.7408
  825SOL    HW2 2475   1.269   1.117   0.265 -0.8046  1.7151  1.3790
  826SOL     OW 2476   2.299   0.673   2.837  0.0138 -0.1100  0.3699
  826SOL    HW1 2477   2.206   0.720   2.846 -1.2953 -2.2180  0.9851
  826SOL    HW2 2478   2.371   0.737   2.806  0.2538 -3.1738  2.3513
  827SOL     OW 2479   0.384   2.278   2.870 -0.4875  0.0727 -0.6430
  827SOL    HW1 2480   0.402   2.362   2.819  2.2532 -3.1803 -0.1329
  827SOL    HW2 2481   0.353   2.203   2.815  2.7730  1.5185 -1.2843
  828SOL     OW 2482   2.949   0.755   1.277 -0.2161 -0.0881  0.2993
  828SOL    HW1 2483   2.879   0.676   1.272 -0.2315 -0.6088  0.4922
  828SOL    HW2 2484   3.027   0.726   1.334  0.0684  2.5737 -0.6286
  829SOL     OW 2485   0.710   1.659   0.913 -0.3839  0.3807 -0.3538
  829SOL    HW1 2486   0.670   1.742   0.963 -2.8940  1.8203 -0.1711
  829SOL    HW2 2487   0.804   1.629   0.947 -0.6348 -0.5013  1.1997
  830SOL     OW 2488   0.888   1.265   1.481  0.2933 -0.0023 -0.2105
  830SOL    HW1 2489   0.817   1.285   1.408  0.5307  0.8882 -0.1433
  830SOL    HW2 2490   0.893   1.167   1.503 -2.0258 -2.0158  1.9599
  831SOL     OW 2491   0.327   1.972   0.005  0.0022  0.6832  0.4947
  831SOL    HW1 2492   0.265   1.993   3.021 -2.0177 -2.3679 -0.9853
  831SOL    HW2 2493   0.408   2.034   0.012  0.1374  1.1046 -0.6782
  832SOL     OW 2494   0.736   0.103   2.924 -0.0857  0.3589 -0.8517
  832SOL    HW1 2495   0.648   0.080   2.975 -0.4456  2.0049  1.7888
  832SOL    HW2 2496   0.799   0.159   2.979 -0.8182 -1.6421  1.0748
  833SOL     OW 2497   0.364   0.331   1.861 -0.2157  0.3747  0.0695
  833SOL    HW1 2498   0.371   0.359   1.960  0.4439  0.7475 -1.2070
  833SOL    HW2 2499   0.268   0.300   1.844  0.0606 -2.2904 -0.0653
  834SOL     OW 2500   0.081   0.248   1.058  0.1844 -0.2434 -0.4881
  834SOL    HW1 2501   0.026   0.332   1.075  2.3440 -0.8238 -0.4676
  834SOL    HW2 2502   0.146   0.234   1.139  0.1899 -0.4027  2.2582
  835SOL     OW 2503   2.851   0.049   1.141 -0.6826 -0.2986 -0.2230
  835SOL    HW1 2504   2.903   0.056   1.055 -0.7777 -1.4776  1.4252
  835SOL    HW2 2505   2.858   3.049   1.168 -0.2771  2.1092  0.0010
  836SOL     OW 2506   0.106   1.992   2.895 -0.5119  0.4437 -0.3529
  836SOL    HW1 2507   0.058   2.077   2.855 -0.2249 -0.9004 -0.3609
  836SOL    HW2 2508   0.050   1.954   2.971 -0.3021 -2.8725  1.6406
  837SOL     OW 2509   1.770   1.869   2.740 -0.6352 -0.1680  0.1356
  837SOL    HW1 2510   1.817   1.810   2.674 -0.1480  0.1263  1.2304
  837SOL    HW2 2511   1.697   1.919   2.689 -1.6557 -0.4545 -1.1976
  838SOL     OW 2512   2.996   0.996   1.404  0.0870  0.3563 -0.0821
  838SOL    HW1 2513   2.987   0.903   1.363 -1.0143  1.4483  1.4418
  838SOL    HW2 2514   2.985   1.071   1.335  1.4527 -1.0276  0.0475
  839SOL     OW 2515   1.098   0.779   0.778  0.2813 -0.1337  0.2315
  839SOL    HW1 2516   1.001   0.771   0.753 -1.3584 -1.9626 -0.2060
  839SOL    HW2 2517   1.146   0.842   0.717 -0.4522 -2.2584 -0.5298
  840SOL     OW 2518   1.742   0.270   1.064  0.2703  1.1298  0.6507
  840SOL    HW1 2519   1.708   0.210   0.995  1.1529  2.6202  4.0973
  840SOL    HW2 2520   1.668   0.303   1.124 -0.2783  1.7984 -1.9066
  841SOL     OW 2521   0.469   2.690   0.590  0.5139 -0.6568 -0.5967
  841SOL    HW1 2522   0.508   2.746   0.511 -0.0121  3.4517 -3.2230
  841SOL    HW2 2523   0.534   2.688   0.669  0.4972 -2.7088  1.0546
  842SOL     OW 2524   0.432   0.792   0.428  0.4599  0.0316 -0.0169
  842SOL    HW1 2525   0.492   0.829   0.351  1.6882  0.1693  1.0871
  842SOL    HW2 2526   0.351   0.736   0.391  0.6014 -1.1326 -1.4157
  843SOL     OW 2527   0.988   1.378   1.778 -0.2880  0.0355  0.3003
  843SOL    HW1 2528   0.948   1.401   1.869  2.7458  0.8466 -5.0406
  843SOL    HW2 2529   0.912   1.380   1.707  1.1138  2.6823  0.9071
  844SOL     OW 2530   1.283   2.059   0.133 -0.5337  0.1879 -0.2983
  844SOL    HW1 2531   1.306   2.043   0.035  0.6250  2.1528 -1.4084
  844SOL    HW2 2532   1.228   2.145   0.138  0.2863  0.4215 -1.2512
  845SOL     OW 2533   2.420   2.407   2.369  0.2751 -0.1019  0.0053
  845SOL    HW1 2534   2.438   2.477   2.300 -0.3869  0.0313  0.6471
  845SOL    HW2 2535   2.458   2.316   2.329  0.5226  2.6077  0.2731
  846SOL     OW 2536   1.886   2.162   2.912  0.1505 -0.3469 -0.0177
  846SOL    HW1 2537   1.816   2.181   2.840 -2.0177  1.1332 -1.4670
  846SOL    HW2 2538   1.848   2.163   3.004 -2.6049  0.8951  0.1212
  847SOL     OW 2539   2.037   2.939   2.655 -0.3880 -0.0646  0.4621
  847SOL    HW1 2540   2.113   2.933   2.591 -1.7163  0.9420  0.8684
  847SOL    HW2 2541   2.051   2.876   2.731 -0.7004 -0.3061 -1.7176
  848SOL     OW 2542   0.854   0.519   0.594 -0.1662 -0.1386  0.9126
  848SOL    HW1 2543   0.765   0.552   0.628 -0.7656  1.8897 -1.7484
  848SOL    HW2 2544   0.845   0.423   0.568  1.4963  2.2964  0.0077
  849SOL     OW 2545   0.664   2.965   1.160  0.3045  0.0336  0.2052
  849SOL    HW1 2546   0.703   2.956   1.069 -1.7444 -0.2083  1.0300
  849SOL    HW2 2547   0.621   3.057   1.171  0.5928  0.7265 -0.0366
  850SOL     OW 2548   0.366   1.483   0.044 -0.4284 -0.0288 -0.3002
  850SOL    HW1 2549   0.326   1.564   0.084  1.1211 -0.4877 -0.5059
  850SOL    HW2 2550   0.365   1.485   3.040  0.0334 -0.3462 -1.2113
  851SOL     OW 2551   0.111   0.974   0.582 -0.2446  0.2017 -0.3887
  851SOL    HW1 2552   0.107   0.988   0.685 -1.9359 -1.5344  1.6014
  851SOL    HW2 2553   0.072   0.882   0.567  0.6429  0.5096 -0.9371
  852SOL     OW 2554   1.998   2.114   1.735 -0.1080  0.0543 -0.2981
  852SOL    HW1 2555   1.986   2.146   1.639  0.6305  1.1540 -2.8425
  852SOL    HW2 2556   1.906   2.093   1.779 -2.1984 -1.5749 -1.0107
  853SOL     OW 2557   0.293   1.759   0.175 -0.1457  0.3821  0.6454
  853SOL    HW1 2558   0.198   1.773   0.206  0.8273  2.9353  0.4925
  853SOL    HW2 2559   0.305   1.833   0.105 -1.2225  1.2734 -1.1163
  854SOL     OW 2560   1.689   1.306   1.525 -0.0997 -0.0977 -0.4949
  854SOL    HW1 2561   1.754   1.327   1.447  4.0423  2.3389 -1.1888
  854SOL    HW2 2562   1.723   1.238   1.588 -0.3982 -1.0965  0.3225
  855SOL     OW 2563   0.688   2.515   3.077  0.3648 -0.1593  0.7634
  855SOL    HW1 2564   0.783   2.510   0.005 -1.1001 -0.6574 -0.5235
  855SOL    HW2 2565   0.656   2.441   3.015 -0.9024  2.2335 -1.8882
  856SOL     OW 2566   2.957   0.168   2.014  0.4394 -0.7135  0.2827
  856SOL    HW1 2567   3.039   0.219   1.999  0.5731 -0.8740  0.9338
  856SOL    HW2 2568   2.936   0.165   2.116 -0.9331  1.6672  1.1860
  857SOL     OW 2569   0.563   0.699   1.714 -0.5493  0.6682  0.5778
  857SOL    HW1 2570   0.571   0.777   1.778  2.3334 -1.4315  0.3234
  857SOL    HW2 2571   0.634   0.702   1.641  1.3786  1.6559 -0.4877
  858SOL     OW 2572   0.387   1.097   2.264  0.1167  0.7866 -0.1941
  858SOL    HW1 2573   0.349   1.175   2.315  2.1131 -0.4229  0.5929
  858SOL    HW2 2574   0.390   1.019   2.329 -0.2453 -0.1217  0.4311
  859SOL     OW 2575   2.380   0.015   0.462 -0.5118  0.4395 -0.6377
  859SOL    HW1 2576   2.382   3.046   0.386  0.5683  2.2375 -1.8075
  859SOL    HW2 2577   2.332   3.072   0.542  1.2044 -0.8580  1.9441
  860SOL     OW 2578   1.803   2.934   2.863 -0.5392  0.4785  0.0913
  860SOL    HW1 2579   1.768   2.980   2.778 -0.1371 -2.2494  0.9408
  860SOL    HW2 2580   1.884   2.871   2.849 -2.2484 -0.2662 -1.3397
  861SOL     OW 2581   0.186   0.666   0.345 -0.0685 -0.1033  0.1232
  861SOL    HW1 2582   0.176   0.665   0.244 -0.5411  2.3136 -1.4969
  861SOL    HW2 2583   0.093   0.693   0.381 -1.4920 -1.5560 -3.5787
  862SOL     OW 2584   1.710   0.340   2.091  0.3218 -0.2793 -0.0217
  862SOL    HW1 2585   1.809   0.313   2.107 -2.8687  0.6336 -0.4486
  862SOL    HW2 2586   1.647   0.257   2.093 -2.8330 -2.1102 -0.6518
  863SOL     OW 2587   2.787   2.206   1.068  0.2551 -0.4549 -0.3426
  863SOL    HW1 2588   2.808   2.186   0.970  3.1428  0.6671  0.1900
  863SOL    HW2 2589   2.707   2.272   1.075  0.4909 -0.9764 -0.4546
  864SOL     OW 2590   2.383   2.894   1.949  0.1654 -1.0715 -0.1150
  864SOL    HW1 2591   2.330   2.937   1.873 -0.4288  1.2640 -0.2433
  864SOL    HW2 2592   2.331   2.808   1.979 -1.4606 -1.6893  0.8634
  865SOL     OW 2593   1.172   0.539   1.423 -0.2733  0.0483  0.1508
  865SOL    HW1 2594   1.177   0.603   1.505 -0.4816  1.1068  2.4345
  865SOL    HW2 2595   1.129   0.447   1.441  0.2366 -0.6860 -1.8816
  866SOL     OW 2596   2.509   3.084   0.837  0.7045 -0.3723 -0.6800
  866SOL    HW1 2597   2.541   0.041   0.757 -0.1631 -0.6046  0.1091
  866SOL    HW2 2598   2.574   3.012   0.868  1.6559 -1.0524  1.2773
  867SOL     OW 2599   2.941   2.854   0.638  0.2567 -0.3180 -0.0576
  867SOL    HW1 2600   2.923   2.854   0.538  0.2725 -2.6193  1.3078
  867SOL    HW2 2601   2.874   2.792   0.694 -2.1866  0.7100  0.6407
  868SOL     OW 2602   1.109   2.326   2.418 -0.1845  0.0114 -0.7699
  868SOL    HW1 2603   1.093   2.227   2.408 -0.7434  2.0568 -1.0372
  868SOL    HW2 2604   1.030   2.383   2.413 -1.7268 -0.0579  1.2928
  869SOL     OW 2605   1.778   2.107   0.085 -0.4887 -0.1694  0.2425
  869SOL    HW1 2606   1.688   2.088   0.131  0.8765 -3.1750 -0.1124
  869SOL    HW2 2607   1.838   2.165   0.144  0.5858 -1.9296  1.7645
  870SOL     OW 2608   2.545   2.409   0.703  0.1997 -0.2330 -0.6718
  870SOL    HW1 2609   2.641   2.437   0.720 -2.1313  0.8220 -0.5341
  870SOL    HW2 2610   2.534   2.322   0.650 -2.9687 -1.6195 -2.2104
  871SOL     OW 2611   0.427   1.229   1.660  0.0827 -0.2968 -0.2698
  871SOL    HW1 2612   0.458   1.324   1.676 -1.0101 -1.8093 -0.1581
  871SOL    HW2 2613   0.324   1.232   1.649 -1.7553  1.1414 -0.0865
  872SOL     OW 2614   0.760   1.597   2.472 -0.1195  0.2454 -0.4706
  872SOL    HW1 2615   0.754   1.628   2.567  0.1912 -2.9851 -3.6735
  872SOL    HW2 2616   0.710   1.665   2.410  0.0806  2.5357 -1.4997
  873SOL     OW 2617   0.495   2.961   1.838 -0.2542 -0.1468 -0.6044
  873SOL    HW1 2618   0.402   2.924   1.840 -2.7271  0.9466  0.3389
  873SOL    HW2 2619   0.486   3.044   1.783  0.6087 -0.1741 -0.0471
  874SOL     OW 2620   1.198   0.843   2.195  0.2862 -0.6148  0.3673
  874SOL    HW1 2621   1.281   0.905   2.188 -0.6919  0.9579 -0.9973
  874SOL    HW2 2622   1.206   0.748   2.188  0.2562  4.3063  2.8785
  875SOL     OW 2623   2.534   2.785   1.177  0.3391 -0.2205  0.1700
  875SOL    HW1 2624   2.508   2.842   1.258 -0.7953  2.3217  0.3723
  875SOL    HW2 2625   2.462   2.775   1.106  0.4716  2.0496  0.2375
  876SOL     OW 2626   1.083   1.165   0.828  0.3376 -0.5516  0.3905
  876SOL    HW1 2627   1.143   1.157   0.913  0.1521  1.1992  1.5266
  876SOL    HW2 2628   1.122   1.114   0.749 -0.8051  3.5115  1.0041
  877SOL     OW 2629   2.867   0.217   1.362 -0.0564 -0.5470 -1.2526
  877SOL    HW1 2630   2.965   0.206   1.389 -1.8076 -2.0305  1.5390
  877SOL    HW2 2631   2.855   0.172   1.271 -0.9454  0.4683  0.2131
  878SOL     OW 2632   2.511   1.602   3.095  0.0282 -0.2204 -1.5339
  878SOL    HW1 2633   2.586   1.672   0.013  2.0726  4.9566  0.1904
  878SOL    HW2 2634   2.456   1.633   3.018  0.5784  1.7752 -0.0168
  879SOL     OW 2635   2.809   2.015   1.257 -0.6880 -0.0171 -0.3446
  879SOL    HW1 2636   2.751   2.039   1.336 -0.6365  0.1489  2.0241
  879SOL    HW2 2637   2.809   2.099   1.192  0.5950  1.1263  0.6080
  880SOL     OW 2638   0.720   2.309   1.313  0.2312 -0.7362  0.2094
  880SOL    HW1 2639   0.645   2.354   1.263  1.1296  0.9622 -1.2528
  880SOL    HW2 2640   0.808   2.335   1.267  0.5276 -3.9575 -0.0171
  881SOL     OW 2641   1.361   1.469   0.853 -0.1962  0.1985  0.3790
  881SOL    HW1 2642   1.311   1.380   0.843 -0.8331 -0.6887  0.8258
  881SOL    HW2 2643   1.334   1.523   0.932 -0.7146 -1.8452 -2.0576
  882SOL     OW 2644   2.784   1.027   2.475 -0.3983  0.2249  0.5175
  882SOL    HW1 2645   2.705   1.031   2.407 -0.6396  0.1653 -0.1392
  882SOL    HW2 2646   2.783   0.938   2.524  0.4956 -1.8840 -1.2010
  883SOL     OW 2647   1.453   0.351   1.112  0.2356  0.0313 -0.0853
  883SOL    HW1 2648   1.428   0.254   1.134 -1.3725  0.5254  1.3460
  883SOL    HW2 2649   1.407   0.378   1.027  3.9347 -1.4676  2.8720
  884SOL     OW 2650   0.080   2.888   1.168  0.0013  0.2243  0.0636
  884SOL    HW1 2651   0.142   2.967   1.157 -0.7861 -1.0494 -0.7882
  884SOL    HW2 2652   0.104   2.841   1.255  0.3863 -0.1582  2.2571
  885SOL     OW 2653   1.288   1.342   1.375  0.1034 -0.4062  0.1569
  885SOL    HW1 2654   1.244   1.279   1.443 -3.4037 -1.0818  0.3749
  885SOL    HW2 2655   1.357   1.401   1.418 -2.2100 -0.5433 -0.2016
  886SOL     OW 2656   1.124   1.017   2.845 -0.1396 -0.2191  0.0285
  886SOL    HW1 2657   1.117   1.000   2.942 -1.3659  0.2864  1.2905
  886SOL    HW2 2658   1.212   1.063   2.822  1.3118  0.9857 -0.5866
  887SOL     OW 2659   1.262   0.570   0.671 -0.0899 -0.0895 -0.0638
  887SOL    HW1 2660   1.290   0.616   0.587  0.7372 -0.6692  2.3379
  887SOL    HW2 2661   1.207   0.631   0.733  0.7620 -2.2688  2.7480
  888SOL     OW 2662   2.078   1.133   1.776  0.0562  0.2739 -0.7040
  888SOL    HW1 2663   2.109   1.174   1.684 -0.0818  2.4518 -3.2010
  888SOL    HW2 2664   2.157   1.126   1.839 -0.6753  1.6060 -3.9260
  889SOL     OW 2665   2.569   2.366   1.055  0.3051  0.1286 -0.0654
  889SOL    HW1 2666   2.514   2.307   0.997  0.6080  1.2891 -0.4574
  889SOL    HW2 2667   2.520   2.437   1.109  1.8003  0.4181  2.5200
  890SOL     OW 2668   1.554   1.856   0.698 -0.7264 -0.0137 -0.0011
  890SOL    HW1 2669   1.620   1.855   0.777  0.2019 -1.7545  1.2289
  890SOL    HW2 2670   1.465   1.814   0.721 -0.8381 -0.4308  1.6642
  891SOL     OW 2671   2.388   0.506   2.354 -0.2502 -0.7283  0.2844
  891SOL    HW1 2672   2.442   0.538   2.270 -1.2926 -0.0059 -5.6346
  891SOL    HW2 2673   2.330   0.423   2.346 -0.3613  4.8758  0.3227
  892SOL     OW 2674   0.530   0.120   1.737  0.4095  0.5789 -0.7550
  892SOL    HW1 2675   0.512   0.208   1.785 -1.2403  0.9939 -1.2904
  892SOL    HW2 2676   0.574   0.131   1.647  2.9072 -1.3891  3.0211
  893SOL     OW 2677   1.216   0.411   2.369  0.5121 -0.3312 -0.5318
  893SOL    HW1 2678   1.241   0.327   2.311  0.0923 -0.2605 -4.2224
  893SOL    HW2 2679   1.208   0.389   2.466 -0.3271  2.1284  2.6104
  894SOL     OW 2680   2.557   0.612   0.728 -0.2619  0.4742  0.1261
  894SOL    HW1 2681   2.627   0.554   0.777 -1.7827  0.5193  0.2996
  894SOL    HW2 2682   2.575   0.712   0.753 -0.6079  2.7404  1.4031
  895SOL     OW 2683   1.834   1.969   2.429 -0.1073  0.2904  1.1982
  895SOL    HW1 2684   1.895   2.028   2.481 -2.2388 -1.7463  0.8021
  895SOL    HW2 2685   1.852   1.878   2.463 -1.0099  0.7079  0.0444
  896SOL     OW 2686   1.738   0.288   1.417  0.2512 -0.3845  0.0128
  896SOL    HW1 2687   1.751   0.195   1.454 -1.4287 -2.3074 -0.4226
  896SOL    HW2 2688   1.712   0.362   1.482  1.1974 -0.0417  1.1551
  897SOL     OW 2689   0.629   1.713   1.842  0.6265 -0.1937  0.5834
  897SOL    HW1 2690   0.674   1.685   1.931 -1.6393 -0.1331  3.2952
  897SOL    HW2 2691   0.680   1.692   1.760 -0.1608 -0.7898  0.6989
  898SOL     OW 2692   2.023   1.515   1.797 -0.5519  0.1898  0.5482
  898SOL    HW1 2693   2.117   1.508   1.831  1.7972  1.1298  1.1446
  898SOL    HW2 2694   1.968   1.435   1.833  1.3803  0.1322 -0.2890
  899SOL     OW 2695   1.708   1.995   1.110 -0.3569  0.0805  0.4861
  899SOL    HW1 2696   1.812   2.016   1.096  4.5285 -0.3445  0.5380
  899SOL    HW2 2697   1.685   2.003   1.213 -0.5245  1.9843  1.8105
  900SOL     OW 2698   0.983   2.927   2.662  0.0819  0.1427  0.0837
  900SOL    HW1 2699   1.035   2.884   2.592 -3.8829  1.1645 -0.3961
  900SOL    HW2 2700   1.038   2.941   2.747  1.3853 -1.3603 -0.4124
  901SOL     OW 2701   1.174   1.402   2.335  0.0484  0.1231 -0.2046
  901SOL    HW1 2702   1.151   1.473   2.399 -1.2996 -1.3621 -2.3276
  901SOL    HW2 2703   1.236   1.436   2.263 -0.5933  1.1432  5.2835
  902SOL     OW 2704   2.174   0.480   2.989 -0.2413 -0.0858  0.4519
  902SOL    HW1 2705   2.223   0.547   2.929 -0.5607 -0.3477  1.6960
  902SOL    HW2 2706   2.196   0.487   3.090 -2.1002 -0.5437  0.5115
  903SOL     OW 2707   2.310   0.815   2.185  0.1665 -0.0247 -0.2382
  903SOL    HW1 2708   2.383   0.807   2.118 -1.3042 -1.8027  1.2284
  903SOL    HW2 2709   2.247   0.889   2.153 -1.1401 -2.9207  0.4489
  904SOL     OW 2710   1.860   1.064   1.631 -0.1181 -0.0775 -0.5298
  904SOL    HW1 2711   1.877   1.045   1.530  1.9260 -2.0568 -3.2923
  904SOL    HW2 2712   1.944   1.067   1.685 -4.2860  3.0928 -0.0967
  905SOL     OW 2713   2.173   0.665   0.716  0.6301  0.3503  0.3234
  905SOL    HW1 2714   2.237   0.622   0.649  0.7774  3.0213 -0.6641
  905SOL    HW2 2715   2.203   0.639   0.807 -0.1125 -2.5433 -2.3102
  906SOL     OW 2716   2.376   1.566   0.592  0.4414  0.4940 -0.2504
  906SOL    HW1 2717   2.454   1.587   0.528  0.4763 -0.2312 -2.1458
  906SOL    HW2 2718   2.363   1.632   0.663 -2.3278 -3.3547 -0.8235
  907SOL     OW 2719   1.305   2.813   0.684  0.0678  0.4326 -0.1546
  907SOL    HW1 2720   1.342   2.746   0.750 -2.1205 -0.6607 -2.6114
  907SOL    HW2 2721   1.376   2.866   0.639 -4.7160 -0.1057  1.6914
  908SOL     OW 2722   1.654   2.358   2.451 -0.3719  0.5338  0.7190
  908SOL    HW1 2723   1.622   2.299   2.374 -1.3724  1.2288 -0.8484
  908SOL    HW2 2724   1.634   2.453   2.437  0.5315 -2.1667  2.1920
  909SOL     OW 2725   2.295   0.426   2.003  0.1865 -0.2719 -0.1989
  909SOL    HW1 2726   2.250   0.461   2.091  1.0258 -0.8360  2.5700
  909SOL    HW2 2727   2.354   0.496   1.955  0.9818  0.7175 -1.4010
  910SOL     OW 2728   1.214   0.082   2.573 -0.2005 -0.3757  0.5467
  910SOL    HW1 2729   1.277   0.154   2.600  1.8816 -1.2459  1.3139
  910SOL    HW2 2730   1.215   0.005   2.638 -2.2327  2.4662  1.2840
  911SOL     OW 2731   2.911   1.093   2.849  0.1319 -0.1400 -0.6792
  911SOL    HW1 2732   2.965   1.029   2.908 -1.3787 -1.9607 -0.3364
  911SOL    HW2 2733   2.913   1.184   2.893 -0.3559  1.4075  2.3159
  912SOL     OW 2734   3.046   2.223   1.165 -0.1375 -0.3351 -0.2668
  912SOL    HW1 2735   2.963   2.202   1.110  0.8818 -1.2314  2.3230
  912SOL    HW2 2736   3.017   2.241   1.262  2.0915 -2.4804 -1.7794
  913SOL     OW 2737   2.454   1.677   2.514  0.3900  0.1592  0.0239
  913SOL    HW1 2738   2.420   1.754   2.461 -2.4141  2.3862  0.9960
  913SOL    HW2 2739   2.410   1.669   2.604  2.3070 -1.4990 -3.6506
  914SOL     OW 2740   1.979   1.814   0.633  0.2875  0.1418 -0.2525
  914SOL    HW1 2741   2.042   1.757   0.576  1.7792  0.7250  3.5529
  914SOL    HW2 2742   1.885   1.821   0.593 -0.0903 -1.3517  1.8015
  915SOL     OW 2743   0.129   2.714   2.204 -0.6717  0.7730  0.2861
  915SOL    HW1 2744   0.188   2.713   2.290  3.0223  4.0234  1.2303
  915SOL    HW2 2745   0.157   2.642   2.137 -1.3413 -0.2167 -1.1374
  916SOL     OW 2746   0.828   2.928   0.921 -0.0739 -0.0306 -0.8013
  916SOL    HW1 2747   0.898   2.855   0.927  1.5686  0.5735  1.6297
  916SOL    HW2 2748   0.843   2.993   0.849 -3.1878 -1.9068  0.5915
  917SOL     OW 2749   2.420   0.482   2.613  0.0364  0.1767  0.4423
  917SOL    HW1 2750   2.371   0.558   2.653  1.0354  0.6052 -1.1147
  917SOL    HW2 2751   2.400   0.486   2.512  0.0404 -0.3675 -0.6809
  918SOL     OW 2752   1.632   2.645   2.782 -0.8583  0.0310  0.0976
  918SOL    HW1 2753   1.628   2.637   2.879 -2.7338  1.1957 -2.7026
  918SOL    HW2 2754   1.705   2.582   2.747  1.2611  0.6146 -0.3138
  919SOL     OW 2755   1.530   2.365   1.120 -0.1186 -0.6782  0.3682
  919SOL    HW1 2756   1.488   2.370   1.025  1.9892  1.6494  0.6600
  919SOL    HW2 2757   1.477   2.295   1.167 -0.3523  0.3704  0.1037
  920SOL     OW 2758   1.486   3.048   2.763  0.0359  0.2084 -0.2853
  920SOL    HW1 2759   1.434   0.027   2.812 -0.3032  2.7110  1.0561
  920SOL    HW2 2760   1.418   2.986   2.719 -2.5872  2.4171  1.7389
  921SOL     OW 2761   0.194   0.910   2.609  0.6198  0.2835 -0.0641
  921SOL    HW1 2762   0.268   0.858   2.563 -1.7869 -1.4856  0.6134
  921SOL    HW2 2763   0.118   0.928   2.545 -1.0710 -1.2865  2.2803
  922SOL     OW 2764   3.059   1.924   1.352  0.5647  0.3236  0.1396
  922SOL    HW1 2765   2.963   1.951   1.331 -2.3753 -1.5261 -0.4100
  922SOL    HW2 2766   3.072   1.821   1.364  0.6772  0.0929  0.1627
  923SOL     OW 2767   0.356   1.503   2.376 -0.6239  1.1836  0.0910
  923SOL    HW1 2768   0.361   1.577   2.307 -0.8899 -0.4915  1.2791
  923SOL    HW2 2769   0.326   1.412   2.343  0.7103 -1.7964  3.5159
  924SOL     OW 2770   1.602   0.134   2.321 -0.1278  0.1563 -0.2946
  924SOL    HW1 2771   1.665   0.122   2.239  1.8353 -1.1620 -0.4563
  924SOL    HW2 2772   1.518   0.074   2.317 -1.2477 -0.0687 -2.3166
  925SOL     OW 2773   0.028   1.525   0.775  0.4457 -0.7431  0.3505
  925SOL    HW1 2774   0.037   1.623   0.805 -1.7206  0.9644 -1.7195
  925SOL    HW2 2775   0.113   1.469   0.785  0.7777  0.4204  1.4408
  926SOL     OW 2776   2.527   0.811   1.046 -0.2248 -0.5050 -0.3342
  926SOL    HW1 2777   2.488   0.718   1.058  2.8555  0.6587 -0.9156
  926SOL    HW2 2778   2.608   0.822   1.106  0.2131  1.0228 -1.2288
  927SOL     OW 2779   1.668   0.633   1.196  0.3213 -0.4474 -0.1656
  927SOL    HW1 2780   1.666   0.625   1.096  2.1427 -2.0279  0.0499
  927SOL    HW2 2781   1.580   0.613   1.244 -1.0273  2.0605  0.9963
  928SOL     OW 2782   2.821   0.785   2.206 -0.5274  0.7315  0.1526
  928SOL    HW1 2783   2.886   0.852   2.241 -1.8743 -0.5947  0.6267
  928SOL    HW2 2784   2.831   0.693   2.251  0.0405 -2.5214 -1.0515
  929SOL     OW 2785   2.355   0.997   1.168  0.2954 -0.0923  0.2209
  929SOL    HW1 2786   2.438   0.941   1.148 -1.2277  1.2638  0.1101
  929SOL    HW2 2787   2.340   1.056   1.084 -0.1903  0.7242 -0.9295
  930SOL     OW 2788   1.736   2.382   1.311 -0.1910 -0.0689  0.6305
  930SOL    HW1 2789   1.771   2.288   1.324 -1.4739 -2.3184  1.2964
  930SOL    HW2 2790   1.654   2.385   1.252  1.6995 -1.6492  0.1087
  931SOL     OW 2791   1.850   1.277   1.317  0.0126  0.4202  0.4345
  931SOL    HW1 2792   1.899   1.300   1.229  1.7271  2.6852 -0.7434
  931SOL    HW2 2793   1.893   1.192   1.358  2.8406 -1.6057  0.9504
  932SOL     OW 2794   2.994   0.890   1.639  0.6871 -0.5235 -0.1574
  932SOL    HW1 2795   2.974   0.942   1.552 -2.6004  1.2148  0.0812
  932SOL    HW2 2796   3.026   0.953   1.717  2.1608 -1.1031  1.4962
  933SOL     OW 2797   2.177   1.894   1.557 -0.2529  0.0403 -0.5163
  933SOL    HW1 2798   2.119   1.975   1.575 -0.3853 -1.9391 -0.2286
  933SOL    HW2 2799   2.197   1.844   1.645  0.4554 -0.8759 -1.0508
  934SOL     OW 2800   1.337   2.481   1.927  0.1654 -0.6026  0.6092
  934SOL    HW1 2801   1.286   2.409   1.872 -0.9376 -1.4094  0.6595
  934SOL    HW2 2802   1.275   2.558   1.951 -1.7188  1.4102  0.3814
  935SOL     OW 2803   0.184   1.038   1.476 -0.3285  0.1604  0.0333
  935SOL    HW1 2804   0.196   1.000   1.567  2.0640  2.5069 -1.8865
  935SOL    HW2 2805   0.090   1.032   1.447  0.0437 -1.5810 -0.7165
  936SOL     OW 2806   2.816   0.527   1.310 -0.0825  0.1916  0.1905
  936SOL    HW1 2807   2.760   0.476   1.249  0.4534 -1.8980 -0.2969
  936SOL    HW2 2808   2.768   0.536   1.400  2.9202 -2.6743 -3.1575
  937SOL     OW 2809   0.903   0.070   1.571  0.3884  0.3294  0.1625
  937SOL    HW1 2810   0.969   0.074   1.648  2.5876 -1.1869  3.5346
  937SOL    HW2 2811   0.880   3.070   1.547  0.3187  1.1148  0.1276
  938SOL     OW 2812   0.366   2.970   1.009  0.0445 -0.0384 -0.2384
  938SOL    HW1 2813   0.322   2.899   0.951  1.0081  1.7977 -1.1941
  938SOL    HW2 2814   0.409   3.038   0.944  0.3589  0.1880 -0.5030
  939SOL     OW 2815   2.819   2.112   2.859 -0.4746  0.1404 -0.0659
  939SOL    HW1 2816   2.905   2.134   2.811  1.5511 -0.4046  2.4877
  939SOL    HW2 2817   2.766   2.200   2.863 -3.3794  0.0366 -0.1511
  940SOL     OW 2818   1.634   1.940   2.979 -0.4257  0.0649  0.3371
  940SOL    HW1 2819   1.688   2.008   3.032 -2.1692  1.3101  4.1537
  940SOL    HW2 2820   1.675   1.905   2.895  0.5307  4.2930  1.8302
  941SOL     OW 2821   1.668   2.691   0.558  0.4736 -0.5962  0.1685
  941SOL    HW1 2822   1.740   2.755   0.532 -0.4701  0.5483 -1.5003
  941SOL    HW2 2823   1.603   2.684   0.480  1.2688 -1.3186  1.8924
  942SOL     OW 2824   2.133   1.849   0.880 -0.2805  0.0836 -0.7196
  942SOL    HW1 2825   2.219   1.881   0.841  0.2020 -2.3091 -0.5708
  942SOL    HW2 2826   2.051   1.853   0.819 -0.6755 -0.4533 -2.3339
  943SOL     OW 2827   1.901   0.562   1.672 -0.0241 -0.0430  0.0772
  943SOL    HW1 2828   1.816   0.557   1.616 -1.2863 -2.1243 -0.4480
  943SOL    HW2 2829   1.973   0.609   1.615 -1.3674 -1.2416 -0.2633
  944SOL     OW 2830   1.421   0.766   1.812  0.5733  0.7663  0.2697
  944SOL    HW1 2831   1.394   0.858   1.853 -2.0084 -0.0179  2.5530
  944SOL    HW2 2832   1.514   0.776   1.769 -1.0074  0.6768 -0.5631
  945SOL     OW 2833   2.123   2.931   1.181 -0.2220  0.0316  0.1413
  945SOL    HW1 2834   2.166   2.983   1.107  1.0631  2.2586  0.1974
  945SOL    HW2 2835   2.107   2.987   1.265  0.0194  0.0046 -1.8921
  946SOL     OW 2836   0.847   1.559   0.614  0.0850 -0.2799 -0.3670
  946SOL    HW1 2837   0.937   1.608   0.608  0.6350 -1.4921 -0.7884
  946SOL    HW2 2838   0.781   1.633   0.608  0.8995 -1.3871  0.0008
  947SOL     OW 2839   1.004   2.730   0.917 -0.4380  0.3877  0.0906
  947SOL    HW1 2840   1.097   2.722   0.962  2.4559 -1.6793 -0.0240
  947SOL    HW2 2841   0.956   2.639   0.893  0.9518 -2.4557 -2.4313
  948SOL     OW 2842   0.449   1.704   1.305  0.6675 -0.3509 -0.2787
  948SOL    HW1 2843   0.397   1.793   1.281 -2.6246 -0.5826 -1.5051
  948SOL    HW2 2844   0.392   1.630   1.345  0.1927  0.5531  0.8745
  949SOL     OW 2845   0.724   1.384   1.660  0.3033  0.1404  0.2164
  949SOL    HW1 2846   0.689   1.326   1.735  0.3935  0.7316 -1.5714
  949SOL    HW2 2847   0.768   1.324   1.591 -1.7371  0.6660  0.2800
  950SOL     OW 2848   0.707   0.658   1.202  0.3100 -0.5585  0.4342
  950SOL    HW1 2849   0.764   0.727   1.249 -2.7098 -1.4542  0.3118
  950SOL    HW2 2850   0.607   0.665   1.224  0.3349  0.1089  0.5414
  951SOL     OW 2851   0.747   2.059   2.079 -0.4343  0.0914 -0.2017
  951SOL    HW1 2852   0.782   2.107   1.997 -0.2981 -1.0392 -1.9077
  951SOL    HW2 2853   0.819   2.016   2.136 -0.7444 -0.4851  3.0089
  952SOL     OW 2854   1.059   1.735   3.016 -0.0460 -0.3279 -0.6830
  952SOL    HW1 2855   1.046   1.638   3.039 -0.0625 -2.1154  0.8441
  952SOL    HW2 2856   1.069   1.786   0.007 -1.0599 -2.5193 -0.2263
  953SOL     OW 2857   1.033   2.845   3.053  0.0105  0.2842 -0.4336
  953SOL    HW1 2858   0.930   2.838   3.055  0.1857 -0.0806  1.2003
  953SOL    HW2 2859   1.080   2.782   2.994  2.0751  1.8821  1.7224
  954SOL     OW 2860   1.836   1.343   2.886  0.4282  0.0291  0.5382
  954SOL    HW1 2861   1.762   1.338   2.956 -1.0288  1.9429  1.3417
  954SOL    HW2 2862   1.920   1.387   2.923 -2.2558 -0.5044 -4.0057
  955SOL     OW 2863   0.097   2.770   0.069 -0.1894 -0.0885 -0.1681
  955SOL    HW1 2864   0.176   2.826   0.089 -1.6178 -0.7180 -0.7125
  955SOL    HW2 2865   0.049   2.807   3.084  0.3074  0.3571 -0.6264
  956SOL     OW 2866   1.332   0.977   1.407  0.0175 -0.5153 -0.8114
  956SOL    HW1 2867   1.367   1.003   1.310 -1.0920  0.2609  0.3693
  956SOL    HW2 2868   1.283   1.057   1.452  0.0199 -0.4542  0.3456
  957SOL     OW 2869   1.564   2.052   1.724  0.0614 -0.8389 -0.9188
  957SOL    HW1 2870   1.658   2.038   1.768  3.5446 -0.8562 -0.0456
  957SOL    HW2 2871   1.544   2.147   1.702 -0.0477 -1.2219 -0.3685
  958SOL     OW 2872   1.291   2.153   1.622 -0.0184 -0.1195  0.4800
  958SOL    HW1 2873   1.344   2.239   1.643 -0.9959  2.7200 -0.0295
  958SOL    HW2 2874   1.257   2.157   1.524 -0.9718 -0.4835  1.6755
  959SOL     OW 2875   1.640   1.342   1.149  0.4781 -0.3847  0.3522
  959SOL    HW1 2876   1.718   1.336   1.218 -4.7778  2.2546 -0.2522
  959SOL    HW2 2877   1.591   1.252   1.140 -2.4044 -0.2945 -1.6080
  960SOL     OW 2878   0.398   1.128   3.095 -0.3139 -0.5362  0.3397
  960SOL    HW1 2879   0.435   1.205   0.054 -3.6626 -1.2716 -2.2566
  960SOL    HW2 2880   0.471   1.077   3.049 -1.5087 -0.3872  0.4817
  961SOL     OW 2881   0.860   1.435   2.015  0.3068  0.0134  0.4985
  961SOL    HW1 2882   0.778   1.454   2.069  1.0801  1.3399 -2.3407
  961SOL    HW2 2883   0.944   1.481   2.058 -0.4149  0.2107  0.6199
  962SOL     OW 2884   1.274   1.662   0.689  0.1995  0.1723  0.1818
  962SOL    HW1 2885   1.307   1.587   0.750 -2.0306 -0.4545  1.2265
  962SOL    HW2 2886   1.173   1.684   0.709 -1.1423  1.3918 -0.4686
  963SOL     OW 2887   1.576   1.993   2.604  0.1418 -0.1427 -0.4249
  963SOL    HW1 2888   1.588   1.962   2.512 -0.6511 -0.9352  1.8388
  963SOL    HW2 2889   1.475   2.008   2.628  1.7413 -1.0093  0.1013
  964SOL     OW 2890   0.695   0.111   0.260 -0.1447  0.4930 -0.5444
  964SOL    HW1 2891   0.639   0.077   0.337 -1.6631 -1.9384 -3.1447
  964SOL    HW2 2892   0.732   0.028   0.214 -0.0798 -0.0662  2.5192
  965SOL     OW 2893   0.490   2.575   0.927  0.4342  0.4915  0.4303
  965SOL    HW1 2894   0.552   2.654   0.903 -1.6376  0.9664  0.2576
  965SOL    HW2 2895   0.430   2.610   1.004 -2.1685  0.4816  0.8342
  966SOL     OW 2896   0.569   1.799   2.693 -0.5465 -0.3611 -0.0218
  966SOL    HW1 2897   0.501   1.870   2.717  2.4837 -1.7440 -0.4161
  966SOL    HW2 2898   0.539   1.706   2.720 -3.9491 -0.0915  2.2591
  967SOL     OW 2899   2.969   2.718   2.719 -0.0832 -0.1907 -0.1441
  967SOL    HW1 2900   2.967   2.763   2.629  1.1971 -1.8403 -0.3942
  967SOL    HW2 2901   3.009   2.779   2.787 -0.4095 -1.8320 -2.8920
  968SOL     OW 2902   2.102   0.685   0.232  0.1658 -0.0052 -0.1464
  968SOL    HW1 2903   2.151   0.596   0.222 -0.3164 -0.6795  0.1176
  968SOL    HW2 2904   2.088   0.734   0.146  0.5661 -2.7189 -0.1077
  969SOL     OW 2905   0.382   1.018   1.843 -0.3418 -0.1000  0.8096
  969SOL    HW1 2906   0.402   1.103   1.784  0.1764  0.5912  0.7635
  969SOL    HW2 2907   0.468   0.985   1.884 -2.5685 -0.4975 -3.6303
  970SOL     OW 2908   2.451   1.384   1.222  0.5340 -0.3428 -0.2771
  970SOL    HW1 2909   2.371   1.332   1.267 -0.3056 -1.6952  0.5811
  970SOL    HW2 2910   2.538   1.330   1.232 -0.1685  3.4715 -0.4034
  971SOL     OW 2911   2.102   0.152   1.014 -0.5814  0.4693 -0.1501
  971SOL    HW1 2912   2.079   0.188   0.923  0.9538  1.3857 -1.8224
  971SOL    HW2 2913   2.189   0.098   1.017 -0.4622 -2.8451 -1.6813
  972SOL     OW 2914   0.011   2.817   1.740 -0.0168  0.3674  0.2065
  972SOL    HW1 2915   0.096   2.862   1.769 -0.5145 -2.3381 -0.6466
  972SOL    HW2 2916   3.060   2.856   1.656  0.3158 -0.4711  0.5580
  973SOL     OW 2917   0.051   0.498   0.074  0.2975  0.0481 -0.0623
  973SOL    HW1 2918   0.128   0.568   0.080 -2.4764  1.7697 -1.4846
  973SOL    HW2 2919   0.070   0.423   0.006 -0.3694 -1.4031  1.0121
  974SOL     OW 2920   1.987   1.452   2.128 -1.1105  0.0878 -0.0524
  974SOL    HW1 2921   1.990   1.552   2.106 -1.0591  1.2123 -1.8520
  974SOL    HW2 2922   1.944   1.405   2.049  1.0265  0.6065  0.6832
  975SOL     OW 2923   3.024   2.908   1.503  0.1101 -0.3489 -0.3046
  975SOL    HW1 2924   3.086   2.975   1.457 -1.5911 -2.0335  1.1927
  975SOL    HW2 2925   2.939   2.882   1.450  0.5076  0.9636 -1.2559
  976SOL     OW 2926   0.312   2.114   2.240  0.2725  0.4290  0.9609
  976SOL    HW1 2927   0.409   2.092   2.235 -0.3207  0.3339  0.4235
  976SOL    HW2 2928   0.263   2.042   2.186 -0.4100  0.1378 -3.2077
  977SOL     OW 2929   0.885   2.542   0.639  0.3656  0.5255 -0.1193
  977SOL    HW1 2930   0.829   2.523   0.557  0.8312  0.9431 -0.1778
  977SOL    HW2 2931   0.971   2.584   0.607 -0.0257  1.5250 -1.8454
  978SOL     OW 2932   0.117   1.612   2.481 -0.3383  0.0478  0.0082
  978SOL    HW1 2933   0.191   1.552   2.449 -1.1583  2.1551  2.7314
  978SOL    HW2 2934   0.093   1.605   2.577  0.1612  1.3816  0.0189
  979SOL     OW 2935   1.653   2.604   1.514 -0.4958  0.4300  0.0334
  979SOL    HW1 2936   1.656   2.590   1.617 -0.2770 -1.7361  2.7125
  979SOL    HW2 2937   1.697   2.523   1.469  0.6936 -0.3207 -2.4914
  980SOL     OW 2938   0.742   1.604   2.991  0.0786 -0.3128  0.0191
  980SOL    HW1 2939   0.728   1.523   3.055 -1.4298  0.7893  0.0860
  980SOL    HW2 2940   0.747   1.691   3.046  0.1331 -2.2646  0.1931
  981SOL     OW 2941   2.135   3.020   2.253 -0.5377  0.2656  0.0548
  981SOL    HW1 2942   2.237   3.035   2.247 -2.4166 -1.4133  0.5715
  981SOL    HW2 2943   2.121   2.922   2.276  1.7394  0.7149  1.9973
  982SOL     OW 2944   3.086   0.296   2.710 -0.1117 -0.5317  0.2791
  982SOL    HW1 2945   2.989   0.303   2.678  1.2176 -0.1005 -0.2226
  982SOL    HW2 2946   0.046   0.226   2.661  1.2152  0.8551  0.9254
  983SOL     OW 2947   1.895   1.311   1.899 -0.2480  0.0300 -0.3688
  983SOL    HW1 2948   1.972   1.243   1.880 -0.0805 -1.3494 -0.0460
  983SOL    HW2 2949   1.814   1.261   1.916  1.3212  1.5317  0.3792
  984SOL     OW 2950   1.357   0.538   1.960 -0.0605 -0.0667 -0.1241
  984SOL    HW1 2951   1.344   0.567   2.058  0.5624  1.0464 -4.5051
  984SOL    HW2 2952   1.392   0.621   1.906  2.0458 -0.8257 -2.4398
  985SOL     OW 2953   1.615   1.478   1.754 -0.2790  0.1417 -0.0932
  985SOL    HW1 2954   1.557   1.556   1.742 -1.5115  0.3679  1.4276
  985SOL    HW2 2955   1.644   1.430   1.666 -2.1970 -1.5819 -0.8005
  986SOL     OW 2956   1.955   0.304   1.764 -0.1536 -0.2239 -0.8370
  986SOL    HW1 2957   2.053   0.294   1.732  0.2559 -0.1615  1.3325
  986SOL    HW2 2958   1.917   0.393   1.727 -0.9380 -1.5131 -1.0803
  987SOL     OW 2959   2.269   0.506   1.569 -0.1237 -0.7307  0.3457
  987SOL    HW1 2960   2.241   0.436   1.637  0.1827  0.0132  0.0081
  987SOL    HW2 2961   2.191   0.563   1.533  1.6282 -2.1099 -1.4236
  988SOL     OW 2962   2.633   0.536   2.168 -0.5212 -0.2608  0.3711
  988SOL    HW1 2963   2.697   0.529   2.091 -0.2407 -1.5428  0.1146
  988SOL    HW2 2964   2.666   0.483   2.247 -3.0628  0.6889  0.9443
  989SOL     OW 2965   2.223   1.861   2.881  0.3985 -0.7423 -0.2380
  989SOL    HW1 2966   2.204   1.862   2.780 -1.3673 -0.6875 -1.7718
  989SOL    HW2 2967   2.156   1.906   2.944  3.6411  0.8850  0.8608
  990SOL     OW 2968   1.447   0.537   2.799  0.1447  0.3209 -0.0336
  990SOL    HW1 2969   1.443   0.451   2.746  1.1056 -0.3644  1.1139
  990SOL    HW2 2970   1.419   0.621   2.754  1.6565 -0.3358  1.6782
  991SOL     OW 2971   1.397   0.809   0.212 -0.0840 -0.2362  0.0881
  991SOL    HW1 2972   1.476   0.765   0.259 -2.7126 -3.0378  0.0369
  991SOL    HW2 2973   1.412   0.822   0.111  1.2516 -1.2655  1.2084
  992SOL     OW 2974   2.395   1.662   2.864  0.6001  0.0921  0.2930
  992SOL    HW1 2975   2.348   1.574   2.846  2.4707  3.1588  0.7513
  992SOL    HW2 2976   2.328   1.741   2.857  0.1397  0.4121 -0.5763
  993SOL     OW 2977   0.264   0.443   0.487  0.3973  0.0009 -0.2586
  993SOL    HW1 2978   0.284   0.357   0.436 -1.7698  2.5324  1.0645
  993SOL    HW2 2979   0.247   0.518   0.423  0.9579 -1.6121 -0.3016
  994SOL     OW 2980   0.195   1.632   2.132 -0.0368 -0.6913  0.1491
  994SOL    HW1 2981   0.110   1.599   2.172  0.3684  0.5341 -0.1276
  994SOL    HW2 2982   0.219   1.571   2.052 -2.1111 -0.2958  0.2952
  995SOL     OW 2983   1.905   1.400   2.377 -0.3739  0.0660  0.5575
  995SOL    HW1 2984   1.933   1.439   2.287  0.4324  0.4062 -0.4141
  995SOL    HW2 2985   1.974   1.324   2.405  1.6888 -1.4353  3.6620
  996SOL     OW 2986   2.075   1.667   2.372 -0.4471  0.3764 -0.5872
  996SOL    HW1 2987   2.057   1.683   2.276 -1.0897  1.7793  3.2923
  996SOL    HW2 2988   1.987   1.648   2.420 -2.2172 -1.4956 -0.4820
  997SOL     OW 2989   2.424   1.464   1.570 -0.0420 -0.7890  0.3663
  997SOL    HW1 2990   2.464   1.520   1.492 -2.1476  1.9873  1.2117
  997SOL    HW2 2991   2.503   1.458   1.635  1.6211 -1.6912 -2.7851
  998SOL     OW 2992   2.476   1.404   0.305  0.5428 -0.2340 -0.4258
  998SOL    HW1 2993   2.429   1.322   0.272 -2.2467 -3.9183 -0.1829
  998SOL    HW2 2994   2.423   1.486   0.276 -3.2085  0.7406  1.6236
  999SOL     OW 2995   2.625   2.708   0.521  0.1039 -0.3092  0.2452
  999SOL    HW1 2996   2.649   2.721   0.619 -0.2790  0.6428 -1.1623
  999SOL    HW2 2997   2.691   2.754   0.457 -1.1982  0.6001 -1.4580
 1000SOL     OW 2998   0.431   0.072   2.049 -0.0902  0.3978 -0.2990
 1000SOL    HW1 2999   0.450   0.077   1.947  0.6487  3.2582 -2.4356
 1000SOL    HW2 3000   0.481   0.146   2.095 -2.3527 -2.0213  1.1911
   3.09609   3.09609   3.09609
