1000 SPC/Fw water molecules t= 252.00000 step= 252000
 3000
    1SOL     OW    1   2.803   2.475   0.984  0.3589  0.1962  0.9543
    1SOL    HW1    2   2.776   2.374   0.988 -0.8798 -3.1250 -0.3869
    1SOL    HW2    3   2.733   2.533   0.940  0.4300  2.6961  1.1024
    2SOL     OW    4   1.676   1.882   0.996  0.2603 -0.0295 -0.2920
    2SOL    HW1    5   1.594   1.939   1.024 -0.8951 -0.1267  0.7078
    2SOL    HW2    6   1.694   1.815   1.067  0.2870 -0.2714  1.7287
    3SOL     OW    7   1.256   2.682   2.967  0.0419 -0.2042  0.1987
    3SOL    HW1    8   1.294   2.685   2.876 -2.4435  1.3952  1.2215
    3SOL    HW2    9   1.232   2.777   2.995 -2.0869 -0.2702  0.1103
    4SOL     OW   10   1.875   1.954   1.797  0.1223  0.4433 -0.1210
    4SOL    HW1   11   1.931   1.958   1.880 -1.7077 -1.1722 -2.3392
    4SOL    HW2   12   1.886   2.033   1.735  4.0390  1.0253 -0.2447
    5SOL     OW   13   1.534   1.140   1.599  0.3869 -0.0502 -0.0681
    5SOL    HW1   14   1.517   1.227   1.548  1.3786 -1.5018  2.7512
    5SOL    HW2   15   1.614   1.101   1.558 -0.3091  0.9405  0.8241
    6SOL     OW   16   2.480   0.125   0.163 -0.5098  0.5267 -0.5304
    6SOL    HW1   17   2.540   0.141   0.079 -0.7170  0.2050  0.9304
    6SOL    HW2   18   2.389   0.080   0.132 -5.8845 -2.2817 -1.0651
    7SOL     OW   19   2.632   1.513   1.294 -0.8005 -0.4182 -0.5373
    7SOL    HW1   20   2.643   1.425   1.345  0.8465 -0.1012  1.6343
    7SOL    HW2   21   2.715   1.521   1.234 -0.1823  0.6673 -2.9568
    8SOL     OW   22   1.141   0.212   0.765 -0.5268  0.1041  0.2791
    8SOL    HW1   23   1.140   0.115   0.800  1.1300 -0.1647 -0.8672
    8SOL    HW2   24   1.226   0.260   0.799  0.2000  4.9153 -0.3404
    9SOL     OW   25   1.505   0.289   2.504  0.9935 -0.0857 -0.4763
    9SOL    HW1   26   1.406   0.304   2.487 -1.8592 -1.8790  2.0922
    9SOL    HW2   27   1.518   0.207   2.567 -1.0181  0.2003  1.4970
   10SOL     OW   28   0.654   2.031   0.541 -0.4615  0.7176  0.5000
   10SOL    HW1   29   0.560   2.028   0.502  0.4846 -2.0804  1.3912
   10SOL    HW2   30   0.676   1.939   0.573 -0.6408  2.2348  1.7855
   11SOL     OW   31   1.406   1.206   0.375  0.1049 -0.5763  0.3895
   11SOL    HW1   32   1.330   1.262   0.412  1.7406  0.2157  0.8560
   11SOL    HW2   33   1.474   1.273   0.332 -1.0219  2.1354  2.0851
   12SOL     OW   34   2.925   3.103   1.727 -0.3705  0.2559 -0.3615
   12SOL    HW1   35   2.827   0.011   1.742 -0.6194  0.0249 -0.3543
   12SOL    HW2   36   2.954   0.033   1.643 -1.3160 -1.3010  1.6929
   13SOL     OW   37   1.548   0.240   0.457 -0.4198 -0.0521  0.1191
   13SOL    HW1   38   1.498   0.313   0.502 -1.2691 -1.9603  0.1596
   13SOL    HW2   39   1.631   0.212   0.510  2.4018 -0.4143 -1.3504
   14SOL     OW   40   1.394   2.627   1.347  0.1150  0.5411  0.1772
   14SOL    HW1   41   1.368   2.697   1.278  0.5121 -1.2453  2.9026
   14SOL    HW2   42   1.479   2.575   1.321 -2.4915  1.1398 -0.3129
   15SOL     OW   43   2.524   1.212   1.646 -0.0192  0.4413  0.0890
   15SOL    HW1   44   2.566   1.235   1.558  0.2481  1.2680 -0.8777
   15SOL    HW2   45   2.565   1.268   1.718 -0.9878 -1.7556 -1.3696
   16SOL     OW   46   2.041   2.592   0.412 -0.5087  0.6452 -0.5840
   16SOL    HW1   47   2.098   2.671   0.432 -0.9531 -1.6630 -1.6482
   16SOL    HW2   48   2.011   2.591   0.317  0.9825  0.7220 -1.3754
   17SOL     OW   49   0.959   0.173   1.326 -0.3076 -0.0828  0.4470
   17SOL    HW1   50   0.957   0.268   1.291  1.1974  1.2926  0.1880
   17SOL    HW2   51   0.859   0.154   1.351 -2.4179  0.3236 -0.3248
   18SOL     OW   52   1.593   0.744   2.698  0.3744  0.1467  0.0107
   18SOL    HW1   53   1.642   0.734   2.789 -1.2105  0.4899  1.4471
   18SOL    HW2   54   1.659   0.787   2.632  0.2413 -0.6717  0.8530
   19SOL     OW   55   1.765   1.993   0.240  0.1428 -0.4846 -0.1425
   19SOL    HW1   56   1.851   1.949   0.210  1.7062  0.2121 -2.3180
   19SOL    HW2   57   1.747   2.085   0.197 -0.5421  3.8009 -2.7004
   20SOL     OW   58   2.156   2.166   1.737  0.0597 -0.0236 -0.6567
   20SOL    HW1   59   2.197   2.096   1.802 -2.1910  1.7466  1.5394
   20SOL    HW2   60   2.114   2.247   1.790 -1.6788  0.9747  0.8095
   21SOL     OW   61   0.934   1.745   0.065 -0.0639  0.0505 -0.1947
   21SOL    HW1   62   0.954   1.665   0.131  1.7060 -2.7608  2.8880
   21SOL    HW2   63   0.863   1.810   0.092 -1.1183  1.7997  0.0257
   22SOL     OW   64   2.121   2.880   1.363 -0.4251  0.0293 -0.3805
   22SOL    HW1   65   2.160   2.970   1.353  0.8639 -1.6913  0.7206
   22SOL    HW2   66   2.103   2.869   1.462  0.7586 -0.9485 -1.4478
   23SOL     OW   67   2.969   1.008   2.045 -0.2761  0.8861  0.3928
   23SOL    HW1   68   2.870   1.017   2.055  2.2321  2.3672  1.6447
   23SOL    HW2   69   3.017   1.077   2.097 -2.2926  1.6081 -1.6265
   24SOL     OW   70   2.267   2.542   0.727 -0.3865  0.8185 -0.2266
   24SOL    HW1   71   2.191   2.476   0.761 -1.9627 -1.8464  0.3905
   24SOL    HW2   72   2.314   2.592   0.808 -1.2164 -0.2066  0.2387
   25SOL     OW   73   1.100   2.833   2.630  0.2499 -0.1880 -0.2869
   25SOL    HW1   74   1.178   2.775   2.647  0.1703  2.0308  2.9929
   25SOL    HW2   75   1.108   2.875   2.535  1.9062 -0.2727 -1.1769
   26SOL     OW   76   1.964   2.750   3.040 -0.1584 -0.0127 -0.0872
   26SOL    HW1   77   1.948   2.817   2.970 -1.2104 -1.3250 -0.2723
   26SOL    HW2   78   1.882   2.749   3.109 -0.2028 -0.9211  1.1237
   27SOL     OW   79   3.012   1.924   3.060 -0.6680 -0.2571 -0.3415
   27SOL    HW1   80   2.914   1.939   3.032  3.0200 -2.7101 -1.7678
   27SOL    HW2   81   3.061   1.903   2.976 -3.3907 -0.4937  0.1837
   28SOL     OW   82   2.931   1.050   1.601 -0.2922  0.4297  0.2210
   28SOL    HW1   83   2.833   1.036   1.632  1.5975 -1.7229 -1.1084
   28SOL    HW2   84   2.945   1.133   1.543 -1.0070 -0.4643  0.8735
   29SOL     OW   85   2.549   2.400   1.358 -0.2106 -0.5652 -0.2317
   29SOL    HW1   86   2.506   2.485   1.399  0.6879 -1.6911  0.1266
   29SOL    HW2   87   2.649   2.391   1.393  1.9327  0.3426 -0.9276
   30SOL     OW   88   1.557   0.538   0.072  0.4935 -0.1921  0.2526
   30SOL    HW1   89   1.503   0.454   0.062  0.7818  1.8690 -1.0320
   30SOL    HW2   90   1.594   0.554   0.167 -1.7257  2.2581 -0.6056
   31SOL     OW   91   2.857   2.725   1.622 -0.6116  0.4271 -0.0264
   31SOL    HW1   92   2.811   2.742   1.534 -0.0800  2.2855  0.3370
   31SOL    HW2   93   2.942   2.666   1.612  1.1085 -0.9484 -1.1815
   32SOL     OW   94   0.661   1.690   1.407 -0.1761 -0.4128 -0.6832
   32SOL    HW1   95   0.739   1.747   1.377  1.5549  2.2694  1.3725
   32SOL    HW2   96   0.582   1.751   1.429  2.1314 -2.8387  1.1975
   33SOL     OW   97   0.536   2.656   2.374  0.1828  0.4965 -0.0655
   33SOL    HW1   98   0.636   2.641   2.395 -0.5489 -1.8489 -1.9179
   33SOL    HW2   99   0.511   2.751   2.395 -0.5632 -1.9019  1.6484
   34SOL     OW  100   1.500   0.073   0.788 -0.0618  0.2899  0.0410
   34SOL    HW1  101   1.516   0.023   0.874  2.5958 -0.9641 -0.8332
   34SOL    HW2  102   1.528   0.019   0.703 -0.6257  0.2518 -1.5513
   35SOL     OW  103   2.076   3.019   1.019  0.9584  0.4450  0.0847
   35SOL    HW1  104   1.983   3.014   0.986 -1.2499 -0.5522  0.0979
   35SOL    HW2  105   2.081   3.063   1.112 -4.3914 -2.1005  3.0536
   36SOL     OW  106   1.928   2.652   2.273 -0.6123 -0.2768 -0.3802
   36SOL    HW1  107   1.841   2.603   2.261  3.5544  0.5503  2.3324
   36SOL    HW2  108   1.971   2.657   2.365  0.9066  1.4338 -3.2273
   37SOL     OW  109   0.693   3.100   2.323  0.8058  0.2446 -0.5491
   37SOL    HW1  110   0.765   3.071   2.257 -0.0287  0.0127 -2.5354
   37SOL    HW2  111   0.645   3.014   2.358 -1.6956  0.9459  0.6407
   38SOL     OW  112   0.156   2.498   2.565  0.7163 -0.2902  0.6326
   38SOL    HW1  113   0.254   2.521   2.580 -2.7827 -2.4983 -1.5673
   38SOL    HW2  114   0.112   2.577   2.515  0.6846 -0.0146  0.2238
   39SOL     OW  115   2.185   1.374   2.216  0.2490  0.1738  0.6812
   39SOL    HW1  116   2.156   1.309   2.139 -0.3786 -0.3411  1.5366
   39SOL    HW2  117   2.139   1.464   2.207 -3.0848  0.2714 -0.9955
   40SOL     OW  118   0.698   2.844   3.078 -0.3574  0.0704 -0.3102
   40SOL    HW1  119   0.781   2.784   3.094 -0.4615 -0.5226  2.7830
   40SOL    HW2  120   0.683   2.911   0.043 -1.6570 -1.5763 -0.3272
   41SOL     OW  121   2.217   0.995   1.135 -0.2113 -0.1065 -0.1894
   41SOL    HW1  122   2.304   0.960   1.171  1.1765 -0.1284 -2.4974
   41SOL    HW2  123   2.226   1.055   1.058 -0.3226 -1.8191  3.5852
   42SOL     OW  124   0.395   0.608   0.989  0.3369  0.3173  0.0361
   42SOL    HW1  125   0.460   0.677   1.028  1.0682  0.3667  0.4164
   42SOL    HW2  126   0.305   0.649   0.965 -1.0514  0.4987 -2.2802
   43SOL     OW  127   2.152   1.619   2.810 -0.0029 -0.0117  0.2802
   43SOL    HW1  128   2.095   1.558   2.870 -0.0747 -0.6690  1.3380
   43SOL    HW2  129   2.148   1.586   2.716 -2.2283  0.6067  1.1746
   44SOL     OW  130   0.134   2.928   1.012 -0.3965  0.0055  0.0359
   44SOL    HW1  131   0.176   2.879   0.937 -1.3297  0.3763  2.8121
   44SOL    HW2  132   0.205   2.996   1.052  2.5678  4.0335 -0.1285
   45SOL     OW  133   0.140   2.605   1.156  0.1528  0.1265 -0.0589
   45SOL    HW1  134   0.222   2.669   1.146  3.6806  2.1846 -2.5444
   45SOL    HW2  135   0.066   2.613   1.081 -3.2860 -0.1504 -1.1953
   46SOL     OW  136   2.297   2.780   2.618  0.2122 -0.3798 -0.7061
   46SOL    HW1  137   2.321   2.706   2.549 -0.3117 -1.8933 -2.9951
   46SOL    HW2  138   2.375   2.811   2.679  3.7087 -0.3932  1.3070
   47SOL     OW  139   1.926   1.937   1.119  0.0205  0.0162  0.4586
   47SOL    HW1  140   2.001   1.902   1.057  0.1071 -0.4017  0.6087
   47SOL    HW2  141   1.845   1.954   1.066  0.9774 -0.8300 -0.0665
   48SOL     OW  142   0.694   1.728   0.348 -0.5559  0.3021 -0.8138
   48SOL    HW1  143   0.734   1.790   0.278  1.2749  2.4611 -1.0093
   48SOL    HW2  144   0.602   1.693   0.321 -0.4345  2.6765  0.8909
   49SOL     OW  145   2.890   0.092   2.714  0.0321  0.1933 -0.3720
   49SOL    HW1  146   2.874   0.050   2.806 -1.2404  0.6602 -0.8921
   49SOL    HW2  147   2.876   0.018   2.644  0.7271 -0.0139  1.1235
   50SOL     OW  148   2.021   0.674   0.324 -0.0039 -0.3347  0.2532
   50SOL    HW1  149   1.953   0.745   0.301 -0.3754 -1.1771 -2.1959
   50SOL    HW2  150   1.971   0.606   0.380  0.2308  0.5371 -0.7374
   51SOL     OW  151   2.399   0.762   0.870 -0.0584  0.5945  0.2428
   51SOL    HW1  152   2.461   0.839   0.893  0.6458  0.3691 -0.9417
   51SOL    HW2  153   2.339   0.800   0.797  1.2598  0.9118  0.6454
   52SOL     OW  154   1.480   1.304   2.366  0.3073  0.0592  0.2555
   52SOL    HW1  155   1.563   1.302   2.302  0.5539  0.7027  0.7422
   52SOL    HW2  156   1.467   1.212   2.405  0.0350 -0.5335 -1.4773
   53SOL     OW  157   0.630   1.890   2.163 -0.2225  0.1564 -0.3663
   53SOL    HW1  158   0.674   1.979   2.144 -0.6717  2.1319  0.5666
   53SOL    HW2  159   0.653   1.862   2.256  0.9884 -1.1021 -0.7643
   54SOL     OW  160   2.218   0.321   1.105 -0.3780  0.5630 -0.0376
   54SOL    HW1  161   2.132   0.276   1.085  1.6510  0.1967  2.0311
   54SOL    HW2  162   2.231   0.403   1.049 -0.4045 -2.1665 -0.5930
   55SOL     OW  163   2.635   2.230   0.961  0.0623  0.3215 -0.8480
   55SOL    HW1  164   2.683   2.155   1.016  2.1511 -3.2405  2.5215
   55SOL    HW2  165   2.554   2.192   0.917  1.1052 -0.5633 -0.1344
   56SOL     OW  166   1.132   3.082   1.729  0.0933 -0.0561  0.1755
   56SOL    HW1  167   1.176   3.087   1.820  1.2451 -1.5469  2.9948
   56SOL    HW2  168   1.170   0.049   1.677 -0.8683  0.5628  0.9455
   57SOL     OW  169   1.450   1.620   0.254 -0.1332  0.0263 -0.2942
   57SOL    HW1  170   1.398   1.646   0.338  1.3089  1.1136 -0.7076
   57SOL    HW2  171   1.493   1.704   0.212 -0.5351  0.4752 -1.4085
   58SOL     OW  172   3.098   0.932   2.376 -0.4023 -0.0450 -0.2334
   58SOL    HW1  173   0.074   0.928   2.432  0.9398  0.5108 -0.3547
   58SOL    HW2  174   0.009   0.901   2.279 -2.7861  2.1556  0.3672
   59SOL     OW  175   0.658   2.867   2.674  0.7108  0.3339 -0.3733
   59SOL    HW1  176   0.679   2.951   2.727  0.8837  0.1364 -0.5092
   59SOL    HW2  177   0.727   2.791   2.682 -2.9369 -0.9719 -0.0385
   60SOL     OW  178   2.584   2.139   0.407  0.4589  0.3260 -0.5092
   60SOL    HW1  179   2.603   2.151   0.309 -0.3112 -2.0460  2.2050
   60SOL    HW2  180   2.655   2.185   0.462 -1.7290 -0.2270 -0.1674
   61SOL     OW  181   1.298   2.123   0.613  0.0717  0.0625  0.6746
   61SOL    HW1  182   1.257   2.084   0.701 -1.7922 -1.6955  3.4971
   61SOL    HW2  183   1.232   2.185   0.571  2.5582 -0.1164  2.0561
   62SOL     OW  184   2.216   2.235   2.511  0.0107  0.1332  0.0364
   62SOL    HW1  185   2.184   2.137   2.526  1.0861 -2.9647 -0.3808
   62SOL    HW2  186   2.191   2.261   2.414 -0.3352 -0.0386 -0.1376
   63SOL     OW  187   2.294   2.800   0.036 -0.3028 -0.1947 -0.0135
   63SOL    HW1  188   2.204   2.780   3.096 -5.5922 -0.6827  0.9480
   63SOL    HW2  189   2.349   2.867   3.098 -1.6972 -0.4544 -0.8598
   64SOL     OW  190   1.733   1.157   2.564  0.3112  0.4071 -0.1810
   64SOL    HW1  191   1.755   1.207   2.473  2.3866 -1.8604 -3.0123
   64SOL    HW2  192   1.767   1.061   2.567  3.5072 -1.9322 -0.0794
   65SOL     OW  193   1.250   2.380   2.985 -0.7728  0.0550  0.2533
   65SOL    HW1  194   1.291   2.340   2.899 -1.9105  0.7324  1.2671
   65SOL    HW2  195   1.262   2.482   2.990  0.8602  1.6825 -1.1487
   66SOL     OW  196   0.216   1.353   1.941  0.3449 -0.0939 -0.1094
   66SOL    HW1  197   0.308   1.365   1.986  1.6513 -0.7866 -0.1318
   66SOL    HW2  198   0.204   1.261   1.904 -0.1961  0.8475  1.5155
   67SOL     OW  199   2.964   2.679   2.829  0.5156 -0.2617 -0.2709
   67SOL    HW1  200   2.864   2.669   2.798 -0.0879 -2.2701  0.9136
   67SOL    HW2  201   3.015   2.754   2.780  1.9744 -0.3500  0.5172
   68SOL     OW  202   1.020   2.546   1.482  0.2314 -0.2618 -0.1925
   68SOL    HW1  203   1.101   2.535   1.544 -2.4842 -2.9081  2.0832
   68SOL    HW2  204   0.995   2.646   1.488  0.9132 -0.2628  3.2597
   69SOL     OW  205   0.641   2.294   0.369 -0.0478 -0.2311  0.3574
   69SOL    HW1  206   0.627   2.353   0.452 -2.9097 -3.3942  2.8964
   69SOL    HW2  207   0.708   2.217   0.386  0.4670  2.6223  1.6646
   70SOL     OW  208   2.616   0.904   2.550 -0.0598  0.3115  0.4940
   70SOL    HW1  209   2.713   0.932   2.535 -1.3119  1.7155  1.1099
   70SOL    HW2  210   2.609   0.806   2.577 -0.2089 -3.0429  1.1655
   71SOL     OW  211   0.725   1.149   2.405 -0.2842  0.3190  0.0605
   71SOL    HW1  212   0.669   1.064   2.390  0.0394 -1.2664  1.5774
   71SOL    HW2  213   0.667   1.228   2.375  0.9176  2.3255 -1.2490
   72SOL     OW  214   0.328   2.024   0.800 -0.0470  0.2820 -0.0382
   72SOL    HW1  215   0.375   1.944   0.752  0.5937 -2.5970 -1.3158
   72SOL    HW2  216   0.228   2.004   0.799  1.9797  0.8681 -1.7455
   73SOL     OW  217   0.965   1.536   0.257 -0.0292 -0.3679  0.3391
   73SOL    HW1  218   0.898   1.478   0.202 -0.9879  2.4401 -1.7808
   73SOL    HW2  219   0.944   1.540   0.353  0.6651 -1.9020  1.0073
   74SOL     OW  220   2.632   3.038   0.314 -0.5434 -0.1122  0.3288
   74SOL    HW1  221   2.613   2.939   0.308  2.1190  0.4442 -0.2079
   74SOL    HW2  222   2.567   3.094   0.260 -1.8433 -1.3043 -1.0980
   75SOL     OW  223   2.325   1.670   2.035 -0.1682  0.0932  0.3340
   75SOL    HW1  224   2.226   1.651   2.053 -0.9815 -3.9962 -3.7177
   75SOL    HW2  225   2.340   1.702   1.938 -1.0005 -0.3678  0.2626
   76SOL     OW  226   1.891   2.503   1.589  0.3496 -0.5241  1.2562
   76SOL    HW1  227   1.851   2.596   1.594  1.1769 -0.0104 -1.7167
   76SOL    HW2  228   1.925   2.477   1.494 -0.3218  2.0259  1.4988
   77SOL     OW  229   2.665   0.355   1.473  0.4463  0.2621 -0.2911
   77SOL    HW1  230   2.614   0.350   1.559 -0.5983  0.8544 -1.4872
   77SOL    HW2  231   2.679   0.454   1.448 -3.0506  2.8093  1.1344
   78SOL     OW  232   1.933   0.941   2.760  0.1864 -0.5510 -0.3113
   78SOL    HW1  233   1.992   0.859   2.760 -1.2631 -2.4581 -0.5863
   78SOL    HW2  234   1.915   0.985   2.853  0.4112  2.0821  0.9432
   79SOL     OW  235   0.050   1.569   1.990 -0.3077  0.2545 -0.3414
   79SOL    HW1  236   0.094   1.482   1.962 -2.4878  0.6127 -0.3905
   79SOL    HW2  237   0.046   1.639   1.915  2.0608 -0.1499  0.8938
   80SOL     OW  238   1.984   1.116   1.269 -0.1095  0.0431  0.2287
   80SOL    HW1  239   2.068   1.086   1.218  2.5835 -2.1199 -2.9517
   80SOL    HW2  240   1.921   1.160   1.206 -1.6552 -1.7880  2.7838
   81SOL     OW  241   1.420   0.551   1.618  0.4906 -0.5794 -0.4495
   81SOL    HW1  242   1.468   0.638   1.606  1.0536  0.6042 -1.0943
   81SOL    HW2  243   1.377   0.515   1.534  0.2727  0.0760 -0.4745
   82SOL     OW  244   1.556   2.499   1.717  0.2013  0.1748  0.0098
   82SOL    HW1  245   1.604   2.572   1.667 -0.2823 -0.9415  1.1138
   82SOL    HW2  246   1.583   2.507   1.816 -0.0297  1.1554 -0.8517
   83SOL     OW  247   0.502   3.047   0.666  0.7817 -0.2036  0.1627
   83SOL    HW1  248   0.496   2.953   0.638 -0.0139  2.2600 -0.3095
   83SOL    HW2  249   0.474   3.057   0.763  0.5853  0.9323 -0.0724
   84SOL     OW  250   0.102   0.897   2.888  0.2085  0.3109 -0.0928
   84SOL    HW1  251   0.190   0.873   2.844 -1.1938  0.0785  0.6301
   84SOL    HW2  252   0.061   0.994   2.868  0.5327  2.8469  2.6006
   85SOL     OW  253   2.698   2.204   1.735  0.2779 -0.0673 -0.4944
   85SOL    HW1  254   2.782   2.246   1.694 -0.5679 -2.9408  0.2318
   85SOL    HW2  255   2.630   2.282   1.748 -0.1698 -0.9815 -2.0574
   86SOL     OW  256   2.925   2.308   1.652 -0.0457 -0.3081 -0.7355
   86SOL    HW1  257   2.968   2.365   1.728  2.0533  1.0883  1.2308
   86SOL    HW2  258   2.912   2.361   1.566 -0.0673 -1.4381 -1.4276
   87SOL     OW  259   0.337   2.948   0.140  0.2631 -0.1220 -0.1893
   87SOL    HW1  260   0.360   2.874   0.073 -0.2702 -1.9925 -1.1762
   87SOL    HW2  261   0.392   3.032   0.121 -0.8912  0.1748 -0.4873
   88SOL     OW  262   0.248   1.992   1.175  0.3505 -0.1859 -0.9413
   88SOL    HW1  263   0.215   2.067   1.115  1.9883 -0.7814  0.6282
   88SOL    HW2  264   0.338   2.024   1.213 -0.9996  0.2038  0.9334
   89SOL     OW  265   0.926   0.770   1.447 -0.3895  0.6328 -0.1897
   89SOL    HW1  266   1.010   0.799   1.399  0.4147  0.6352  0.8111
   89SOL    HW2  267   0.942   0.670   1.477 -0.1892 -0.3233  0.8273
   90SOL     OW  268   2.609   1.630   1.813  0.1287  0.3069  0.1885
   90SOL    HW1  269   2.646   1.538   1.845 -1.1358 -1.5975 -0.1930
   90SOL    HW2  270   2.582   1.622   1.711  1.9161 -0.1445 -2.8937
   91SOL     OW  271   1.312   1.829   0.749 -0.8406  0.1062 -0.3897
   91SOL    HW1  272   1.227   1.883   0.737 -2.1443 -0.1925  0.1081
   91SOL    HW2  273   1.295   1.729   0.781  0.3615 -0.0312  0.0381
   92SOL     OW  274   2.233   0.597   1.042 -0.3345  0.0195  0.8663
   92SOL    HW1  275   2.299   0.654   0.989  0.8330  0.2548  0.2786
   92SOL    HW2  276   2.250   0.621   1.138 -2.1722  1.0983 -2.9009
   93SOL     OW  277   2.224   1.320   0.134  0.6976 -0.1775 -0.8384
   93SOL    HW1  278   2.201   1.226   0.167 -2.0042 -2.8298  1.7850
   93SOL    HW2  279   2.166   1.389   0.180 -0.4339 -0.4512 -3.4508
   94SOL     OW  280   2.344   2.118   2.189 -0.1273 -0.1976 -0.1292
   94SOL    HW1  281   2.424   2.130   2.253  2.4723  0.4670  0.0222
   94SOL    HW2  282   2.354   2.182   2.113  1.9180  1.5760  1.5569
   95SOL     OW  283   2.076   0.499   0.827 -0.4782 -0.1789  0.1745
   95SOL    HW1  284   2.133   0.550   0.895  0.2358 -1.0029  0.6429
   95SOL    HW2  285   2.131   0.412   0.803  2.2003 -3.2491 -1.4137
   96SOL     OW  286   2.972   2.951   1.396  0.4916 -0.3200 -0.1361
   96SOL    HW1  287   2.880   2.919   1.424  1.0822 -1.0733  2.4389
   96SOL    HW2  288   2.959   3.036   1.342  0.3854 -2.7097 -1.5825
   97SOL     OW  289   2.415   0.166   1.019  0.7211 -0.4141 -0.3518
   97SOL    HW1  290   2.342   0.215   1.073 -1.3430  1.3279 -0.8245
   97SOL    HW2  291   2.371   0.099   0.958  2.5116 -2.4037 -2.0183
   98SOL     OW  292   1.550   2.242   1.511  0.9725 -0.2680  0.0370
   98SOL    HW1  293   1.581   2.286   1.425 -0.9026 -2.8315  0.3393
   98SOL    HW2  294   1.614   2.258   1.586 -3.5499  0.3072 -0.7650
   99SOL     OW  295   2.678   2.694   1.824 -0.4379 -0.3504  0.3288
   99SOL    HW1  296   2.712   2.749   1.901 -0.1089  1.5631 -0.7678
   99SOL    HW2  297   2.741   2.694   1.746 -1.9019 -1.5010  1.9716
  100SOL     OW  298   0.322   0.834   2.747  0.7695 -0.3116 -0.4528
  100SOL    HW1  299   0.390   0.877   2.807  0.5973  1.4892 -2.6251
  100SOL    HW2  300   0.365   0.767   2.683 -4.3239  0.9283  0.9116
  101SOL     OW  301   1.914   0.720   3.001  0.0087 -0.5923  0.1524
  101SOL    HW1  302   1.945   0.707   2.907 -0.9871  2.1710  0.7580
  101SOL    HW2  303   1.995   0.702   3.060 -0.8416 -1.0869  0.2977
  102SOL     OW  304   0.175   0.409   1.608 -0.3432  0.0500  0.0448
  102SOL    HW1  305   0.136   0.409   1.704 -0.8688 -3.0484 -1.1990
  102SOL    HW2  306   0.241   0.331   1.601 -2.0690 -2.2321 -1.5206
  103SOL     OW  307   2.700   1.136   2.368  0.5860 -0.2440 -0.2227
  103SOL    HW1  308   2.677   1.229   2.390  0.5110 -4.5059  1.0139
  103SOL    HW2  309   2.659   1.098   2.281  0.1013 -2.2082 -0.4936
  104SOL     OW  310   0.394   0.318   2.449 -0.1988 -0.1304 -0.3188
  104SOL    HW1  311   0.492   0.320   2.474 -1.9019  0.8355 -0.9370
  104SOL    HW2  312   0.331   0.362   2.515  0.1669 -1.4397 -0.9261
  105SOL     OW  313   1.934   1.480   1.241 -0.3484 -0.2574 -1.0635
  105SOL    HW1  314   1.913   1.394   1.193 -0.5962  1.8670  1.0028
  105SOL    HW2  315   1.872   1.493   1.320 -0.1876 -1.0716 -0.0479
  106SOL     OW  316   2.032   0.180   0.547  0.0069  0.6784 -0.0479
  106SOL    HW1  317   2.116   0.127   0.510 -0.9793  0.5475  2.0085
  106SOL    HW2  318   2.065   0.225   0.630  0.9564  0.9040 -1.0147
  107SOL     OW  319   0.127   1.558   1.455  0.1171 -0.4123 -0.0352
  107SOL    HW1  320   0.214   1.578   1.407 -0.6380 -1.6824 -1.4842
  107SOL    HW2  321   0.055   1.625   1.418 -2.2572  0.9599 -3.8034
  108SOL     OW  322   2.989   2.599   2.159  0.5138  0.4755  0.4980
  108SOL    HW1  323   3.042   2.653   2.092  2.3731 -0.5140  1.1598
  108SOL    HW2  324   3.014   2.499   2.170  0.3145 -1.1250 -0.2656
  109SOL     OW  325   1.766   0.159   0.610  0.6628  0.1923  0.4100
  109SOL    HW1  326   1.865   0.165   0.581  0.2668  2.1700 -1.3277
  109SOL    HW2  327   1.728   0.063   0.606  1.1353 -0.9135  0.4405
  110SOL     OW  328   0.387   2.092   2.336 -0.0289  0.5046 -0.8265
  110SOL    HW1  329   0.333   2.111   2.419  1.8566 -2.2215  0.2181
  110SOL    HW2  330   0.374   1.997   2.308  2.8462  1.0663  0.7334
  111SOL     OW  331   1.597   2.454   1.992  0.0177  0.5583  0.0662
  111SOL    HW1  332   1.624   2.362   1.959  1.4469  0.0134 -0.0421
  111SOL    HW2  333   1.517   2.459   2.060 -1.7587  0.3557  0.0395
  112SOL     OW  334   1.636   2.738   3.100 -0.5460  0.5337  0.2636
  112SOL    HW1  335   1.587   2.720   0.074  1.6415 -0.2605 -1.3106
  112SOL    HW2  336   1.610   2.668   3.028  1.6810  0.9516 -2.0004
  113SOL     OW  337   1.951   2.397   1.351 -0.1997  0.3473 -0.6626
  113SOL    HW1  338   1.935   2.332   1.276  0.0911 -0.7692  2.6207
  113SOL    HW2  339   2.013   2.477   1.335  2.1350 -1.1881 -2.6075
  114SOL     OW  340   2.991   1.091   0.746 -0.0598  0.2643  0.1909
  114SOL    HW1  341   2.943   1.048   0.829  1.3201 -2.2155  2.2024
  114SOL    HW2  342   3.087   1.122   0.768  0.3103 -0.0401 -0.2257
  115SOL     OW  343   0.487   0.952   2.904  0.0380  0.7211  0.2252
  115SOL    HW1  344   0.486   1.054   2.890  1.8512  1.2147  1.3805
  115SOL    HW2  345   0.483   0.920   3.003 -1.1806 -2.0564  0.9135
  116SOL     OW  346   2.716   1.576   2.166  0.1648  0.5803 -0.4151
  116SOL    HW1  347   2.785   1.500   2.164 -0.0126 -0.2569  0.1003
  116SOL    HW2  348   2.768   1.667   2.174  0.8114 -0.7981 -1.3583
  117SOL     OW  349   2.785   0.021   0.799  0.3242  0.7557 -0.1486
  117SOL    HW1  350   2.795   3.091   0.706  0.5494  1.7035 -1.9084
  117SOL    HW2  351   2.874   0.013   0.854  1.0369 -0.4633  0.0221
  118SOL     OW  352   1.141   2.205   1.599  0.1434 -0.0218 -0.0826
  118SOL    HW1  353   1.208   2.124   1.597  2.2320  0.2834  0.3481
  118SOL    HW2  354   1.192   2.291   1.579  1.9516  0.8169 -0.8669
  119SOL     OW  355   0.533   2.339   2.735  0.4037  0.0341 -0.6228
  119SOL    HW1  356   0.593   2.352   2.814 -0.7247 -0.2319 -0.7417
  119SOL    HW2  357   0.443   2.296   2.762 -3.0574 -0.3177  1.6620
  120SOL     OW  358   0.734   0.726   2.933  0.1680 -0.4116  0.2258
  120SOL    HW1  359   0.695   0.647   2.884 -2.1944 -1.8023 -4.5468
  120SOL    HW2  360   0.729   0.806   2.868 -0.1993  0.3255 -1.4537
  121SOL     OW  361   1.578   2.764   1.054  0.1291 -0.0744  0.7877
  121SOL    HW1  362   1.639   2.715   1.120 -1.9375 -2.9827 -1.2374
  121SOL    HW2  363   1.604   2.734   0.962 -0.3575 -2.9137  0.9242
  122SOL     OW  364   2.348   2.406   1.684 -0.2127  0.0958  0.3246
  122SOL    HW1  365   2.366   2.457   1.597 -0.6766 -0.2502 -1.7865
  122SOL    HW2  366   2.299   2.319   1.658 -0.8271 -1.1394  0.1648
  123SOL     OW  367   0.528   2.740   0.883 -0.6635  0.4855  0.2190
  123SOL    HW1  368   0.503   2.841   0.898 -0.9354  0.9353  3.3997
  123SOL    HW2  369   0.450   2.697   0.831  0.4820  2.2185 -2.9849
  124SOL     OW  370   2.249   1.328   2.927 -0.2700  0.4486 -0.2639
  124SOL    HW1  371   2.340   1.323   2.876  0.6319 -1.5166 -3.6289
  124SOL    HW2  372   2.266   1.331   3.024 -1.4433 -0.3246 -4.2620
  125SOL     OW  373   0.751   1.003   0.375  0.2792 -0.4337  0.3127
  125SOL    HW1  374   0.682   1.035   0.439  0.8280 -0.8912 -0.9539
  125SOL    HW2  375   0.795   1.081   0.325 -1.3334 -0.4330  2.0471
  126SOL     OW  376   2.645   1.639   0.814 -0.3417 -0.1989  0.2225
  126SOL    HW1  377   2.674   1.700   0.737 -0.2529  0.6666 -2.2432
  126SOL    HW2  378   2.704   1.553   0.806 -0.2661 -1.0420 -2.3182
  127SOL     OW  379   0.037   2.029   1.884 -0.2153 -0.1593  0.3795
  127SOL    HW1  380   0.126   1.986   1.849  0.1167 -1.4742 -0.8777
  127SOL    HW2  381   0.007   1.998   1.974  1.6865 -0.6607 -1.5954
  128SOL     OW  382   1.302   1.089   0.142 -0.2697  0.1899  0.1754
  128SOL    HW1  383   1.343   1.107   0.051  1.4828  0.6138 -0.6754
  128SOL    HW2  384   1.356   1.129   0.218 -0.4291 -1.0460  0.8257
  129SOL     OW  385   2.575   0.967   0.872 -0.0081  0.6830 -0.3932
  129SOL    HW1  386   2.570   1.053   0.925 -0.2031 -1.1731 -2.8348
  129SOL    HW2  387   2.573   0.986   0.772 -0.0942  2.9398  3.5469
  130SOL     OW  388   2.406   0.823   1.463 -0.0350  0.1339 -0.2760
  130SOL    HW1  389   2.495   0.802   1.513 -1.3501 -0.3441  1.4837
  130SOL    HW2  390   2.427   0.872   1.373 -0.8852  2.4813 -0.2909
  131SOL     OW  391   3.022   2.613   0.003 -0.5234  0.5729  1.2170
  131SOL    HW1  392   3.019   2.625   3.013 -0.9483  0.1684 -1.2697
  131SOL    HW2  393   3.052   2.697   0.050  2.0140 -1.2201 -0.8776
  132SOL     OW  394   2.986   2.052   1.647 -0.5820  0.0610  0.0239
  132SOL    HW1  395   2.959   2.149   1.637 -1.1079 -1.8782 -0.0477
  132SOL    HW2  396   3.043   2.038   1.729 -3.0501 -0.9959  0.0888
  133SOL     OW  397   1.318   0.395   1.383 -0.2214  0.2835 -0.0740
  133SOL    HW1  398   1.409   0.361   1.366  1.1977  1.9714 -1.0291
  133SOL    HW2  399   1.244   0.329   1.396  2.8974 -0.2046 -1.1590
  134SOL     OW  400   0.083   1.401   0.230  0.1193  0.0761 -0.0035
  134SOL    HW1  401   3.103   1.351   0.239 -1.7377 -1.1694  4.7153
  134SOL    HW2  402   0.088   1.449   0.139  2.4852 -2.3222  3.4015
  135SOL     OW  403   2.266   1.135   1.706  0.3783  0.4436 -0.1330
  135SOL    HW1  404   2.355   1.148   1.658  0.5325 -2.1698 -2.1124
  135SOL    HW2  405   2.255   1.191   1.794 -0.1335  2.0207  2.4254
  136SOL     OW  406   0.101   1.114   0.552 -0.3788 -0.4172  0.3490
  136SOL    HW1  407   0.095   1.211   0.585 -0.1435  0.2775  1.9734
  136SOL    HW2  408   0.139   1.118   0.455  1.4671 -0.1912 -0.6646
  137SOL     OW  409   2.688   1.268   1.402  0.1282  0.3836  0.0911
  137SOL    HW1  410   2.660   1.219   1.317  0.9984  0.3339 -0.8299
  137SOL    HW2  411   2.785   1.256   1.431 -1.7353  1.0148  2.1350
  138SOL     OW  412   1.758   1.024   1.522 -0.4699  0.3427  1.2462
  138SOL    HW1  413   1.753   0.929   1.482 -0.5269 -0.3563  1.0674
  138SOL    HW2  414   1.841   1.073   1.485  0.6132 -0.5871 -0.5127
  139SOL     OW  415   1.996   3.084   0.088  0.5430 -0.3787  0.5088
  139SOL    HW1  416   1.964   3.089   0.183  1.1434  0.8965 -1.8025
  139SOL    HW2  417   1.909   3.098   0.035 -0.1379  1.1256 -0.9546
  140SOL     OW  418   1.475   2.087   1.858 -0.1580  0.0340  0.0479
  140SOL    HW1  419   1.548   2.123   1.920  0.5371 -1.2275  1.2470
  140SOL    HW2  420   1.489   1.990   1.836 -0.1704 -1.8986  0.4978
  141SOL     OW  421   1.697   2.350   0.614  0.4781  0.1633 -0.2674
  141SOL    HW1  422   1.742   2.353   0.525 -0.0645  1.2340  0.5914
  141SOL    HW2  423   1.656   2.259   0.631 -1.2254  0.2956  0.7353
  142SOL     OW  424   0.427   0.889   0.051  0.3452  0.1145 -1.0920
  142SOL    HW1  425   0.489   0.855   0.125 -0.4041 -0.4325 -0.8686
  142SOL    HW2  426   0.329   0.880   0.078  1.4272  2.8756  0.9671
  143SOL     OW  427   0.289   2.203   2.788 -0.4358 -0.1312  0.1613
  143SOL    HW1  428   0.260   2.291   2.831 -0.4062  1.4794 -0.2706
  143SOL    HW2  429   0.206   2.152   2.756 -1.2147  2.0524 -0.7536
  144SOL     OW  430   1.456   0.078   1.488 -0.0356 -0.2868 -0.3121
  144SOL    HW1  431   1.366   0.124   1.498 -3.4586 -0.9391 -1.0593
  144SOL    HW2  432   1.467   0.086   1.387  0.8672 -1.2832  0.6997
  145SOL     OW  433   2.442   1.313   0.631 -0.4020 -0.4663  0.3405
  145SOL    HW1  434   2.518   1.322   0.565  1.6545 -0.6734  1.1641
  145SOL    HW2  435   2.466   1.273   0.720  0.5634  2.2800 -0.8281
  146SOL     OW  436   2.628   2.114   0.146  0.0469  0.2609  0.0660
  146SOL    HW1  437   2.607   2.018   0.121 -1.3683  2.5072  0.9834
  146SOL    HW2  438   2.567   2.176   0.097  1.8938 -0.1914  0.3545
  147SOL     OW  439   2.371   2.753   1.271  0.2586  0.3048 -0.3713
  147SOL    HW1  440   2.285   2.799   1.277  1.0098 -4.2342 -1.2838
  147SOL    HW2  441   2.448   2.812   1.235 -1.1006 -0.6489  0.0657
  148SOL     OW  442   1.439   2.834   1.823  0.6327 -0.2220  0.0456
  148SOL    HW1  443   1.530   2.798   1.857 -0.5688  0.6704 -0.8350
  148SOL    HW2  444   1.368   2.800   1.885 -0.9516 -0.2728 -1.3054
  149SOL     OW  445   1.481   0.611   2.444 -0.0785  0.0547  0.4500
  149SOL    HW1  446   1.570   0.602   2.396 -0.2574 -0.2454 -0.7454
  149SOL    HW2  447   1.485   0.596   2.544 -0.3077 -1.8371 -1.5640
  150SOL     OW  448   0.543   2.801   0.566 -0.5332  0.3592  0.1155
  150SOL    HW1  449   0.600   2.718   0.560  0.0158  1.2717  0.6329
  150SOL    HW2  450   0.449   2.787   0.523 -1.1632 -1.5591 -0.2826
  151SOL     OW  451   0.080   1.516   3.084  0.8728 -0.8939  0.1159
  151SOL    HW1  452   3.105   1.564   3.112  0.4723 -2.2196 -0.0976
  151SOL    HW2  453   0.087   1.520   2.980 -1.8484 -0.8597 -1.2989
  152SOL     OW  454   0.050   0.102   0.552 -0.3686  0.0517  0.0156
  152SOL    HW1  455   0.107   0.020   0.527 -0.8491 -0.1124  0.1097
  152SOL    HW2  456   3.100   0.120   0.477 -0.2167  0.1185  1.4213
  153SOL     OW  457   2.272   0.018   0.847  0.0236  0.6782 -0.3601
  153SOL    HW1  458   2.213   3.073   0.905 -1.6803  0.2632  0.8275
  153SOL    HW2  459   2.337   3.074   0.788 -1.4427 -0.4644  1.2590
  154SOL     OW  460   1.060   0.337   1.703 -0.1824 -0.2563  0.1388
  154SOL    HW1  461   1.017   0.335   1.793  1.5843 -0.9185  2.4319
  154SOL    HW2  462   1.155   0.373   1.721 -0.6750 -0.0526 -0.9152
  155SOL     OW  463   2.627   1.154   1.171 -0.1256  0.1900 -0.5903
  155SOL    HW1  464   2.691   1.131   1.096  0.9986  0.1673 -0.5632
  155SOL    HW2  465   2.552   1.208   1.139  1.8598 -1.1065 -0.0012
  156SOL     OW  466   2.878   2.159   0.231 -0.3543  0.0480 -0.0738
  156SOL    HW1  467   2.916   2.253   0.233  0.3127  1.1250  0.3518
  156SOL    HW2  468   2.785   2.156   0.186 -1.5782  0.0438 -0.5738
  157SOL     OW  469   0.849   0.249   0.023  0.4871  0.2533  0.2122
  157SOL    HW1  470   0.847   0.149   0.039  0.6357 -0.3555 -0.2108
  157SOL    HW2  471   0.756   0.304   0.031  0.5884  3.4523 -0.1303
  158SOL     OW  472   2.506   0.158   2.752 -0.1373 -0.0007  0.2878
  158SOL    HW1  473   2.562   0.180   2.672 -2.4167 -0.7136 -0.6946
  158SOL    HW2  474   2.416   0.112   2.723 -1.9996  1.2562 -0.7527
  159SOL     OW  475   0.466   0.059   0.081  0.7787 -0.2671 -0.2213
  159SOL    HW1  476   0.566   0.051   0.095 -0.8909 -0.7753 -0.7927
  159SOL    HW2  477   0.446   0.050   3.093 -1.0366 -2.4457  1.5770
  160SOL     OW  478   1.110   1.901   3.059 -0.3408 -0.2402  0.7430
  160SOL    HW1  479   1.063   1.983   3.020  0.2346  3.4255  0.9288
  160SOL    HW2  480   1.043   1.828   3.085 -0.2000 -0.2096 -0.0829
  161SOL     OW  481   2.956   1.737   2.628 -0.4213 -0.8172  0.2664
  161SOL    HW1  482   2.882   1.803   2.601 -1.3677  0.5112 -2.2165
  161SOL    HW2  483   2.940   1.646   2.588  2.0040  1.9901 -0.2592
  162SOL     OW  484   0.237   2.346   1.259  0.2063  0.5872 -0.0554
  162SOL    HW1  485   0.334   2.353   1.291  0.7224 -2.1501  0.9297
  162SOL    HW2  486   0.203   2.436   1.239  2.1124  0.5593  1.0748
  163SOL     OW  487   2.124   0.298   2.773 -0.1294 -0.1308 -0.1596
  163SOL    HW1  488   2.173   0.306   2.864 -0.4863  0.2394 -0.9943
  163SOL    HW2  489   2.158   0.215   2.719 -2.2451 -0.4685 -0.9138
  164SOL     OW  490   2.815   1.427   0.758 -0.2185 -0.1280  0.1084
  164SOL    HW1  491   2.820   1.405   0.656  0.9628  2.3877 -1.6091
  164SOL    HW2  492   2.841   1.348   0.816 -0.0398  1.5624 -0.8310
  165SOL     OW  493   0.119   2.990   2.069 -0.2051 -0.6006  0.0616
  165SOL    HW1  494   0.108   2.888   2.071  1.6394 -2.4099  0.2012
  165SOL    HW2  495   0.121   3.031   1.975  1.5009  1.6113 -0.0491
  166SOL     OW  496   2.234   0.827   0.673 -0.3352 -0.4929 -0.6213
  166SOL    HW1  497   2.282   0.776   0.597 -0.2450 -0.2360  0.2176
  166SOL    HW2  498   2.149   0.779   0.703  1.8146 -2.3371  1.3675
  167SOL     OW  499   0.520   0.648   0.476  0.7374 -0.2595  0.3834
  167SOL    HW1  500   0.534   0.691   0.383  1.2789  2.6193 -1.0702
  167SOL    HW2  501   0.419   0.634   0.489  2.2992 -0.2867  1.4618
  168SOL     OW  502   1.881   2.804   2.067 -0.3128  0.4441 -0.0713
  168SOL    HW1  503   1.893   2.756   2.159  0.9581  0.6929 -2.5618
  168SOL    HW2  504   1.885   2.907   2.074 -1.9613  2.1662 -0.4724
  169SOL     OW  505   1.111   1.126   0.654 -0.3336  0.0451 -0.4021
  169SOL    HW1  506   1.070   1.055   0.598  0.2231  1.3894 -2.0726
  169SOL    HW2  507   1.054   1.140   0.738 -1.4065  0.1310 -0.3596
  170SOL     OW  508   0.053   0.216   1.394  0.6687  0.0883 -0.1245
  170SOL    HW1  509   0.135   0.264   1.432  0.9640 -2.1175 -0.4142
  170SOL    HW2  510   3.079   0.253   1.431  1.5542 -0.2643 -1.7451
  171SOL     OW  511   0.960   2.858   1.757  0.0364  0.4978 -0.4867
  171SOL    HW1  512   0.962   2.824   1.657  1.6156  1.0641 -0.5250
  171SOL    HW2  513   1.014   2.941   1.772 -0.3896 -0.5959  0.9930
  172SOL     OW  514   0.382   2.311   1.542  0.2765 -0.0715  0.2275
  172SOL    HW1  515   0.375   2.212   1.573 -2.3219  1.8314  0.3524
  172SOL    HW2  516   0.469   2.326   1.491 -0.8421 -1.0269 -0.3424
  173SOL     OW  517   1.350   0.875   2.748 -0.3170 -0.1436  0.2478
  173SOL    HW1  518   1.267   0.837   2.698 -1.0029  2.4778 -0.6632
  173SOL    HW2  519   1.425   0.803   2.754  1.4189 -0.4403  1.5403
  174SOL     OW  520   1.784   0.040   3.034 -0.0845  0.5536  0.3307
  174SOL    HW1  521   1.742   0.105   3.103 -0.5440 -1.3005 -0.0653
  174SOL    HW2  522   1.833   0.089   2.960 -1.1772  0.2631 -0.7863
  175SOL     OW  523   1.801   2.788   0.240  0.5786  0.2337 -0.5201
  175SOL    HW1  524   1.699   2.777   0.239  0.5391 -1.3772 -0.5369
  175SOL    HW2  525   1.846   2.701   0.200 -0.9924 -1.1878 -0.5837
  176SOL     OW  526   1.482   0.066   2.648  0.2678  0.4552 -0.4767
  176SOL    HW1  527   1.461   0.134   2.724 -0.4384  2.0244 -0.1892
  176SOL    HW2  528   1.578   0.030   2.649  0.0772  0.4749 -0.6558
  177SOL     OW  529   1.093   1.584   0.600  0.5634 -0.9093  0.0947
  177SOL    HW1  530   1.155   1.555   0.674  0.4990  1.7371  0.6358
  177SOL    HW2  531   0.995   1.601   0.634  0.2888  2.3304  1.6358
  178SOL     OW  532   2.830   2.168   2.435 -0.2159 -0.5345 -0.0013
  178SOL    HW1  533   2.841   2.229   2.517  0.8741  1.5958  2.1620
  178SOL    HW2  534   2.924   2.152   2.396 -1.6045  0.8749  2.8713
  179SOL     OW  535   0.422   2.567   2.598 -0.2770  0.1369  0.5431
  179SOL    HW1  536   0.476   2.604   2.520  1.7342  1.7867  1.7403
  179SOL    HW2  537   0.474   2.495   2.648  1.1850  0.8614  0.2994
  180SOL     OW  538   1.584   1.860   0.733  0.4444  0.2640  0.0495
  180SOL    HW1  539   1.619   1.870   0.829 -2.8605 -2.4808 -1.0383
  180SOL    HW2  540   1.479   1.854   0.732 -1.6724  1.6025 -0.3847
  181SOL     OW  541   2.074   1.058   2.366  0.0768 -0.2750  0.0121
  181SOL    HW1  542   2.106   1.002   2.448 -1.8471  0.3430 -1.1183
  181SOL    HW2  543   2.153   1.111   2.339 -2.4080  2.9847  0.4473
  182SOL     OW  544   2.864   2.727   2.481  0.5295 -0.4138  0.5562
  182SOL    HW1  545   2.765   2.736   2.482  4.1541  0.1290 -0.9839
  182SOL    HW2  546   2.898   2.818   2.482 -0.0890  0.9569  0.4952
  183SOL     OW  547   1.237   0.674   2.372 -0.0405  0.6182  0.3761
  183SOL    HW1  548   1.333   0.654   2.400  0.6970 -0.6592 -0.5396
  183SOL    HW2  549   1.243   0.707   2.276  2.1803  0.6665 -0.6735
  184SOL     OW  550   0.784   0.718   1.787 -0.6761  0.1187  0.6070
  184SOL    HW1  551   0.824   0.811   1.785 -2.1453  0.2073  2.6527
  184SOL    HW2  552   0.804   0.667   1.874 -2.4730 -2.3510  1.5461
  185SOL     OW  553   1.942   1.079   0.629 -0.1717 -0.0051 -0.3167
  185SOL    HW1  554   1.919   1.085   0.531  2.4902 -0.6488  2.5453
  185SOL    HW2  555   2.044   1.081   0.638  0.8537 -1.4169 -2.9095
  186SOL     OW  556   0.021   2.106   2.710  0.4147 -0.1872  0.0630
  186SOL    HW1  557   0.016   2.010   2.752 -0.9227 -2.2272 -1.1970
  186SOL    HW2  558   3.050   2.159   2.730  0.5825  0.1346 -0.5485
  187SOL     OW  559   2.606   1.370   0.400  0.3357 -0.1853  0.0426
  187SOL    HW1  560   2.610   1.472   0.390  0.0348  1.4292  0.9826
  187SOL    HW2  561   2.564   1.334   0.316  1.2317  0.8597 -1.1235
  188SOL     OW  562   0.264   1.712   1.069  0.1105 -0.2108  0.1018
  188SOL    HW1  563   0.320   1.725   0.984  0.2826  2.4975 -0.9912
  188SOL    HW2  564   0.236   1.805   1.105  0.9932  1.3514 -0.9802
  189SOL     OW  565   2.348   0.467   0.336  0.2694  0.5952 -0.3623
  189SOL    HW1  566   2.269   0.452   0.275  3.1797  1.9803  0.9292
  189SOL    HW2  567   2.427   0.437   0.282  1.0321  0.2669 -0.9278
  190SOL     OW  568   1.212   1.611   2.094  0.7227  0.0886 -0.7419
  190SOL    HW1  569   1.135   1.674   2.114  3.5822 -1.2236  0.9713
  190SOL    HW2  570   1.194   1.522   2.136 -0.4289  1.7125 -1.4486
  191SOL     OW  571   2.970   0.313   1.736  0.0948  0.3590  0.0235
  191SOL    HW1  572   2.890   0.278   1.792  1.5119 -0.1077 -1.3822
  191SOL    HW2  573   3.054   0.306   1.800 -2.3238  0.2425  1.1313
  192SOL     OW  574   1.783   1.522   1.470 -0.1379 -0.1773  0.6403
  192SOL    HW1  575   1.844   1.439   1.493  3.4246 -3.5769 -1.6252
  192SOL    HW2  576   1.808   1.603   1.534 -1.1004  0.9780  1.8345
  193SOL     OW  577   1.091   0.838   0.524 -0.8908  0.3664  0.0046
  193SOL    HW1  578   0.993   0.841   0.518  4.4975 -0.7711 -0.9922
  193SOL    HW2  579   1.130   0.820   0.617 -0.9251 -0.3605  0.4941
  194SOL     OW  580   1.359   2.865   1.192  0.4953 -0.3512  0.6851
  194SOL    HW1  581   1.440   2.828   1.140  0.6477 -1.0043  0.6320
  194SOL    HW2  582   1.333   2.962   1.161  0.8044  0.8642 -0.3955
  195SOL     OW  583   2.288   0.255   3.042 -0.2549 -0.2694 -0.4042
  195SOL    HW1  584   2.386   0.285   3.028  2.0628 -0.4332 -0.2145
  195SOL    HW2  585   2.287   0.158   3.073  1.2501  0.1404  1.0205
  196SOL     OW  586   0.654   2.493   1.498  0.2681  0.1481 -0.9251
  196SOL    HW1  587   0.658   2.409   1.562  2.5240 -1.6064  0.6348
  196SOL    HW2  588   0.748   2.517   1.460  1.3303  1.2779  2.9585
  197SOL     OW  589   0.647   2.501   0.568  0.8587  0.2148  0.0092
  197SOL    HW1  590   0.686   2.517   0.662  1.8834 -0.7957  0.3974
  197SOL    HW2  591   0.542   2.498   0.559 -1.2119  0.1850 -1.0907
  198SOL     OW  592   0.812   0.797   0.531  0.1892 -0.8737  0.1455
  198SOL    HW1  593   0.741   0.789   0.607 -1.8541  0.6708  2.3969
  198SOL    HW2  594   0.780   0.872   0.469  0.4591 -1.1152  1.5630
  199SOL     OW  595   0.127   2.928   1.439 -0.3428 -0.2361 -0.5266
  199SOL    HW1  596   0.028   2.959   1.437  0.4796  1.8736  1.0460
  199SOL    HW2  597   0.136   2.835   1.405 -0.4203  2.0399  0.0592
  200SOL     OW  598   2.331   1.826   2.902 -0.4558 -0.1528 -0.4296
  200SOL    HW1  599   2.281   1.769   2.836  1.6972  1.3280  0.1590
  200SOL    HW2  600   2.319   1.792   2.995  1.1835  0.9378  0.2350
  201SOL     OW  601   2.896   2.188   1.257  0.0283  0.3411 -0.3528
  201SOL    HW1  602   2.985   2.206   1.305 -0.4523 -1.5787 -1.8533
  201SOL    HW2  603   2.835   2.125   1.310 -0.6304  2.1711  2.5718
  202SOL     OW  604   2.876   0.352   0.571  0.2872  0.2766  0.5177
  202SOL    HW1  605   2.831   0.421   0.510 -0.5143 -0.5368  0.8382
  202SOL    HW2  606   2.946   0.294   0.528 -0.0493 -2.4550  0.9076
  203SOL     OW  607   1.042   2.181   2.139  0.0368 -0.4411  1.0924
  203SOL    HW1  608   1.079   2.131   2.220  2.1150 -0.3754  0.0869
  203SOL    HW2  609   1.083   2.272   2.143  1.3879 -2.0210 -0.2682
  204SOL     OW  610   1.066   1.724   1.672  0.6307 -0.5454 -0.4567
  204SOL    HW1  611   0.993   1.788   1.714 -2.3630  1.1878 -0.6555
  204SOL    HW2  612   1.148   1.719   1.734  0.8751  1.1520 -0.9714
  205SOL     OW  613   0.915   2.190   1.737 -0.4126 -0.2459 -0.0775
  205SOL    HW1  614   1.008   2.193   1.685  4.8068 -1.6458 -0.1128
  205SOL    HW2  615   0.901   2.101   1.790  0.2217 -2.9766  1.0857
  206SOL     OW  616   0.210   0.496   2.610 -0.4998 -0.5017  0.4462
  206SOL    HW1  617   0.298   0.556   2.621  2.5891  1.2114  1.8630
  206SOL    HW2  618   0.131   0.553   2.634 -0.6586  0.5137  0.3944
  207SOL     OW  619   1.635   3.042   1.980 -0.0505  0.5513  0.3785
  207SOL    HW1  620   1.572   3.051   1.904 -0.9923 -0.8916 -0.1455
  207SOL    HW2  621   1.608   3.107   2.055  1.1162  1.9393 -0.1091
  208SOL     OW  622   0.704   2.545   1.936  0.1019  0.0984 -0.0172
  208SOL    HW1  623   0.687   2.602   2.018  0.1898  0.0359  1.4956
  208SOL    HW2  624   0.673   2.593   1.851  1.2135  2.4854 -2.2040
  209SOL     OW  625   1.743   0.882   0.035  0.5151  0.1619 -0.0340
  209SOL    HW1  626   1.802   0.821   3.094 -0.3368  2.1986  0.2991
  209SOL    HW2  627   1.652   0.891   3.108  2.2802  0.4729 -0.8358
  210SOL     OW  628   0.072   0.388   0.942  0.0938 -0.2381  0.1683
  210SOL    HW1  629   0.001   0.355   0.876  0.5110  1.4388 -0.0740
  210SOL    HW2  630   0.034   0.390   1.037  0.3188 -0.4902  0.0310
  211SOL     OW  631   0.784   0.903   1.253  0.2122 -0.0997 -0.0767
  211SOL    HW1  632   0.688   0.868   1.251  3.2080 -0.1805 -0.2733
  211SOL    HW2  633   0.825   0.871   1.337 -1.3921  1.5623 -1.7637
  212SOL     OW  634   1.221   2.268   0.922  0.2837  0.1372 -0.0247
  212SOL    HW1  635   1.242   2.298   1.021 -3.8989  0.1173  0.0809
  212SOL    HW2  636   1.246   2.345   0.859 -0.5076  0.6354  1.1049
  213SOL     OW  637   2.144   0.204   1.894  0.4834  0.6705 -0.3210
  213SOL    HW1  638   2.048   0.191   1.873 -0.9217  1.9275  2.1519
  213SOL    HW2  639   2.194   0.117   1.880  0.3062  0.5464 -0.3048
  214SOL     OW  640   1.348   2.489   2.506 -0.0514  0.0876 -0.0140
  214SOL    HW1  641   1.370   2.570   2.558  1.1040  0.3396 -0.4171
  214SOL    HW2  642   1.392   2.479   2.411 -1.5968  1.4211 -2.8006
  215SOL     OW  643   3.047   1.722   1.364  0.2178 -0.2535  0.4788
  215SOL    HW1  644   2.978   1.757   1.432  1.3742  0.9219  1.5475
  215SOL    HW2  645   2.998   1.695   1.280 -0.0500  1.8254  2.8193
  216SOL     OW  646   0.316   0.264   2.085  0.4670 -0.1168 -0.4897
  216SOL    HW1  647   0.385   0.217   2.145  0.9984  0.9429 -1.5792
  216SOL    HW2  648   0.355   0.335   2.022 -1.4572  0.7451  1.6521
  217SOL     OW  649   2.739   0.380   3.091 -0.4903  0.0406 -0.1771
  217SOL    HW1  650   2.730   0.479   3.066 -0.8707 -0.0444 -0.1919
  217SOL    HW2  651   2.837   0.352   0.002 -0.0114 -1.1295  1.4812
  218SOL     OW  652   1.550   1.949   2.163 -0.4983 -0.2498 -0.2055
  218SOL    HW1  653   1.613   1.936   2.242 -2.0018  0.6878 -3.4111
  218SOL    HW2  654   1.584   1.902   2.078 -1.5680 -0.6466  0.4861
  219SOL     OW  655   1.899   0.912   0.261  0.2267 -0.0685 -0.5232
  219SOL    HW1  656   1.839   0.904   0.179 -3.0809 -0.4930 -2.0208
  219SOL    HW2  657   1.842   0.909   0.348 -1.5120  1.0815 -0.1640
  220SOL     OW  658   1.453   2.035   1.020  0.1891 -0.0336 -0.2973
  220SOL    HW1  659   1.386   2.009   1.095 -1.2971 -0.0355  0.2650
  220SOL    HW2  660   1.422   1.994   0.929  2.8000  1.1160  0.0351
  221SOL     OW  661   0.173   0.811   0.038 -0.1609  0.5926  0.4950
  221SOL    HW1  662   0.129   0.849   0.126 -0.1939  0.8449 -0.8885
  221SOL    HW2  663   0.123   0.840   3.065  0.4270  0.7289 -3.8297
  222SOL     OW  664   1.147   2.896   1.338  0.1575 -0.6903 -0.3758
  222SOL    HW1  665   1.184   2.896   1.435 -1.7555 -0.3073  0.1933
  222SOL    HW2  666   1.226   2.881   1.276 -1.5865 -0.7688  0.5952
  223SOL     OW  667   1.480   0.499   2.712  0.7243  0.0509  0.3201
  223SOL    HW1  668   1.504   0.424   2.779 -1.1103 -0.1324  0.1186
  223SOL    HW2  669   1.536   0.585   2.724  2.5226  4.6730 -1.8774
  224SOL     OW  670   3.025   0.911   1.126  0.3196  0.1283  0.2860
  224SOL    HW1  671   3.023   0.812   1.119 -1.3522  2.3473  0.8784
  224SOL    HW2  672   3.085   0.937   1.206 -0.4334 -3.0140 -1.4417
  225SOL     OW  673   1.100   1.190   1.474 -0.0922  0.2144  0.2041
  225SOL    HW1  674   1.041   1.169   1.558  2.4342 -1.2361 -1.8981
  225SOL    HW2  675   1.091   1.286   1.436  2.2181  2.3985 -1.7842
  226SOL     OW  676   0.923   3.079   0.110  0.0070 -0.3828  0.2540
  226SOL    HW1  677   0.976   3.034   0.031  1.1230  0.3979 -2.3144
  226SOL    HW2  678   0.990   3.110   0.187  2.6999  1.0388  0.3228
  227SOL     OW  679   0.682   1.430   1.460 -0.2697  0.1387  0.6332
  227SOL    HW1  680   0.659   1.524   1.430 -0.2935 -0.3686 -2.5583
  227SOL    HW2  681   0.616   1.384   1.524 -0.9869 -0.3787 -0.2049
  228SOL     OW  682   0.540   2.803   1.382  0.3218  0.2169  0.2275
  228SOL    HW1  683   0.605   2.877   1.387  0.3645 -0.7423 -2.5022
  228SOL    HW2  684   0.508   2.769   1.473  0.1323 -0.8623  0.7276
  229SOL     OW  685   2.424   0.944   0.359 -0.3904 -0.1089  0.1727
  229SOL    HW1  686   2.386   0.847   0.353  0.2846 -2.2225  2.1858
  229SOL    HW2  687   2.481   0.963   0.279 -1.7187 -1.8235  0.9816
  230SOL     OW  688   0.644   1.240   1.984 -0.0191  0.0516 -0.2016
  230SOL    HW1  689   0.625   1.174   1.913  1.4973  0.4359 -0.3198
  230SOL    HW2  690   0.719   1.210   2.047  3.2265  1.6555  0.0696
  231SOL     OW  691   1.312   2.438   1.518 -0.4958  0.2268 -0.4261
  231SOL    HW1  692   1.397   2.401   1.560 -1.1803  1.2070  2.1537
  231SOL    HW2  693   1.332   2.512   1.453 -2.2438 -1.2386  0.4810
  232SOL     OW  694   2.074   2.369   0.571 -0.2661  0.3256  0.1083
  232SOL    HW1  695   2.014   2.361   0.648  0.3798  1.2776 -1.0086
  232SOL    HW2  696   2.056   2.454   0.520  0.6495 -2.8800 -0.0520
  233SOL     OW  697   0.885   2.541   2.923  0.0883  0.2132 -0.3348
  233SOL    HW1  698   0.890   2.614   2.995  0.4631  1.2861  4.1682
  233SOL    HW2  699   0.923   2.448   2.958 -1.1573 -0.9983 -0.3734
  234SOL     OW  700   1.106   0.239   2.373  0.0247 -0.0486  0.1372
  234SOL    HW1  701   1.135   0.268   2.462  0.7412 -3.4526 -1.6360
  234SOL    HW2  702   1.036   0.167   2.383 -1.6969 -1.1473 -1.9630
  235SOL     OW  703   0.038   2.181   0.025 -0.5938  0.2839 -0.1945
  235SOL    HW1  704   3.083   2.120   0.073  0.5442  1.5485  4.7845
  235SOL    HW2  705   0.137   2.154   0.049  0.9711  1.1205  2.1557
  236SOL     OW  706   2.079   2.673   2.511  0.2172  0.2753  0.6107
  236SOL    HW1  707   2.093   2.569   2.521  0.8517 -0.6504  0.4583
  236SOL    HW2  708   2.150   2.727   2.561  1.1746 -1.9097 -1.0334
  237SOL     OW  709   1.958   1.308   1.475 -0.4167 -0.1582 -0.2023
  237SOL    HW1  710   2.046   1.363   1.490 -0.9226  0.3427 -0.0917
  237SOL    HW2  711   1.974   1.220   1.427  1.6589  2.9312  0.4279
  238SOL     OW  712   2.100   0.026   2.463 -0.6739  0.1136 -0.2937
  238SOL    HW1  713   2.081   0.105   2.403 -1.8272 -1.2868  2.8877
  238SOL    HW2  714   2.035   3.069   2.448  0.5320  0.7841  0.4672
  239SOL     OW  715   0.469   1.767   1.760  0.3723  0.4484  0.1971
  239SOL    HW1  716   0.409   1.691   1.727 -1.4944  0.8147  0.0400
  239SOL    HW2  717   0.562   1.761   1.725 -0.5252  1.8991  0.5360
  240SOL     OW  718   0.248   2.195   0.579  0.0277 -0.3785 -0.0841
  240SOL    HW1  719   0.150   2.166   0.560  0.2634 -0.0238  1.0253
  240SOL    HW2  720   0.293   2.146   0.652 -2.3301  0.7507 -0.5329
  241SOL     OW  721   1.303   2.385   0.288 -0.0192 -0.2455  1.0841
  241SOL    HW1  722   1.373   2.437   0.345  0.0810 -0.3612 -0.0967
  241SOL    HW2  723   1.338   2.338   0.205  0.5420 -4.1237 -0.7239
  242SOL     OW  724   1.807   1.224   0.392  0.1831 -0.2646  0.0614
  242SOL    HW1  725   1.785   1.173   0.307 -0.1083  0.6453  0.7996
  242SOL    HW2  726   1.732   1.256   0.450  2.9637 -0.3207 -0.4566
  243SOL     OW  727   0.888   0.073   1.900 -0.8093  0.0087 -0.0538
  243SOL    HW1  728   0.958   0.033   1.835 -0.6592  2.7518  0.5883
  243SOL    HW2  729   0.907   0.173   1.907 -0.1940  0.4540  1.0227
  244SOL     OW  730   1.892   2.955   2.871 -0.5816 -0.3604  0.2385
  244SOL    HW1  731   1.851   3.032   2.925  1.2748  3.8481 -0.9065
  244SOL    HW2  732   1.826   2.931   2.797 -0.5757  0.4535  0.1953
  245SOL     OW  733   1.336   3.071   2.917 -0.2326 -0.2904  0.9013
  245SOL    HW1  734   1.355   3.100   2.821 -2.7344 -1.7636  1.0410
  245SOL    HW2  735   1.427   3.054   2.960  2.2997 -1.2465  0.2113
  246SOL     OW  736   0.871   0.823   2.542 -0.1410  0.0646 -0.1956
  246SOL    HW1  737   0.857   0.722   2.548 -0.3234 -0.8357 -0.2150
  246SOL    HW2  738   0.827   0.871   2.621 -1.9762 -1.6327 -1.1296
  247SOL     OW  739   0.145   0.544   1.965 -0.0255  0.1095  0.1679
  247SOL    HW1  740   0.230   0.574   2.007 -1.0454  0.0737 -1.0352
  247SOL    HW2  741   0.068   0.606   1.981 -0.8059 -1.2923 -0.2254
  248SOL     OW  742   0.631   0.867   2.041 -0.0176 -0.5556  0.2064
  248SOL    HW1  743   0.724   0.830   2.066 -3.2236 -1.5875  0.6711
  248SOL    HW2  744   0.639   0.926   1.964  0.2666 -1.8254  2.1521
  249SOL     OW  745   2.093   0.649   0.074  0.0674 -0.0610 -0.2253
  249SOL    HW1  746   2.060   0.556   0.069  0.5511  1.2275  0.0580
  249SOL    HW2  747   2.090   0.684   0.171  2.4611  1.6566  0.9915
  250SOL     OW  748   0.316   0.391   0.367  0.0401 -0.5989 -0.2744
  250SOL    HW1  749   0.239   0.462   0.371 -1.3884 -1.0343  0.3616
  250SOL    HW2  750   0.322   0.337   0.454  0.2209 -1.0998  0.1321
  251SOL     OW  751   1.025   0.506   2.336 -0.4922 -0.0758 -0.8484
  251SOL    HW1  752   1.066   0.414   2.332 -1.5466 -0.9557  0.6008
  251SOL    HW2  753   1.093   0.581   2.345 -0.2043 -1.8346 -0.8339
  252SOL     OW  754   1.466   1.799   1.703  0.0010  0.4704  0.4876
  252SOL    HW1  755   1.475   1.725   1.634 -0.6219  1.2744 -1.6333
  252SOL    HW2  756   1.390   1.786   1.769  0.3839  0.9915 -0.2097
  253SOL     OW  757   1.685   2.697   1.910  0.1717  0.0273 -0.8004
  253SOL    HW1  758   1.748   2.748   1.973 -2.8263  2.3835 -0.4764
  253SOL    HW2  759   1.669   2.603   1.950 -1.4884 -3.7480  1.9717
  254SOL     OW  760   0.780   2.095   2.073  0.1139 -0.4743 -0.1625
  254SOL    HW1  761   0.872   2.142   2.105 -0.4288  3.4719  1.8662
  254SOL    HW2  762   0.800   2.029   2.002  3.3938 -0.2147 -1.6151
  255SOL     OW  763   1.335   0.592   0.363 -0.1741  0.3531  0.2894
  255SOL    HW1  764   1.322   0.687   0.332  1.4336 -2.2513 -1.5671
  255SOL    HW2  765   1.249   0.543   0.365 -1.0954  0.5263  0.9944
  256SOL     OW  766   1.847   2.081   1.513 -0.2368  0.0998 -0.5499
  256SOL    HW1  767   1.933   2.096   1.468 -0.0264 -0.3690  0.1599
  256SOL    HW2  768   1.778   2.025   1.466  0.8615  1.3487  0.5716
  257SOL     OW  769   0.154   2.224   2.511 -0.0127  0.1307 -0.1735
  257SOL    HW1  770   0.149   2.327   2.516  0.9044 -2.2352  1.6830
  257SOL    HW2  771   0.102   2.180   2.592  0.3804  0.8570  2.1604
  258SOL     OW  772   0.704   0.441   2.056 -0.0286 -0.2314  0.3808
  258SOL    HW1  773   0.754   0.530   2.081  1.3423  1.9480 -0.3148
  258SOL    HW2  774   0.678   0.403   2.145 -0.2370  1.2404 -0.5961
  259SOL     OW  775   1.140   0.808   2.595 -0.5874 -0.0095  0.4813
  259SOL    HW1  776   1.045   0.837   2.578 -3.5434  0.9113  0.3184
  259SOL    HW2  777   1.180   0.776   2.509 -0.5565 -0.8154  1.3658
  260SOL     OW  778   1.672   0.710   0.652 -0.2890 -0.1186 -0.2130
  260SOL    HW1  779   1.599   0.740   0.717 -0.0865 -0.0773 -1.4254
  260SOL    HW2  780   1.725   0.628   0.688  0.0117  0.1476 -0.9754
  261SOL     OW  781   0.486   0.017   2.898  0.2049 -0.3686  0.1185
  261SOL    HW1  782   0.582   3.102   2.878 -0.3488  0.7227 -0.7677
  261SOL    HW2  783   0.426   0.034   2.814 -0.6037  0.9561 -1.1928
  262SOL     OW  784   2.625   3.025   2.912 -0.0083  0.6531 -0.2476
  262SOL    HW1  785   2.728   3.010   2.919  1.8386 -2.0019  1.8270
  262SOL    HW2  786   2.601   3.099   2.976  1.4822  1.9147  3.1057
  263SOL     OW  787   0.372   2.187   0.323  0.5428  0.2645  0.5229
  263SOL    HW1  788   0.306   2.191   0.402  0.4837  1.9148  0.9908
  263SOL    HW2  789   0.470   2.209   0.349  0.8698 -2.8120  2.0832
  264SOL     OW  790   0.485   1.344   1.648  0.1943  0.5067 -0.2511
  264SOL    HW1  791   0.561   1.361   1.708 -0.4664 -1.8277  0.0415
  264SOL    HW2  792   0.411   1.415   1.662 -1.6836  0.5002 -0.4641
  265SOL     OW  793   0.510   1.386   0.240  0.5477  0.2727  0.6555
  265SOL    HW1  794   0.461   1.300   0.210 -2.4638 -2.0160 -2.0779
  265SOL    HW2  795   0.603   1.382   0.201  2.0920  0.2933 -1.3165
  266SOL     OW  796   2.007   1.435   0.452 -0.3245 -0.4398 -0.0348
  266SOL    HW1  797   1.973   1.338   0.463 -0.3817 -1.1394 -0.6260
  266SOL    HW2  798   2.068   1.456   0.530  3.8604 -0.4408  0.8718
  267SOL     OW  799   3.029   0.356   0.007 -0.0949  0.3498  0.2089
  267SOL    HW1  800   3.108   0.293   0.008 -1.3502  0.6582 -2.2689
  267SOL    HW2  801   3.021   0.399   3.027  0.6695  0.5630 -0.9503
  268SOL     OW  802   0.291   0.034   2.679 -0.1522  0.0261  0.0381
  268SOL    HW1  803   0.239   3.066   2.724 -1.6950 -1.0965  0.7767
  268SOL    HW2  804   0.307   0.016   2.581  1.0313  0.9408  0.9726
  269SOL     OW  805   1.883   0.204   2.823 -0.1445  0.5200  0.1185
  269SOL    HW1  806   1.859   0.279   2.887  2.8262  0.6571  0.8483
  269SOL    HW2  807   1.965   0.229   2.769 -1.4306 -1.0171  0.8699
  270SOL     OW  808   0.727   0.943   2.757  0.2231  0.7169  0.5696
  270SOL    HW1  809   0.636   0.964   2.798 -0.7656 -2.1903  0.2054
  270SOL    HW2  810   0.802   1.003   2.785 -1.9667  0.3953 -0.8477
  271SOL     OW  811   2.544   0.948   0.129 -0.3279  0.2997  0.2105
  271SOL    HW1  812   2.472   0.917   0.064  1.7267 -0.0277 -3.5914
  271SOL    HW2  813   2.603   1.019   0.082 -1.6120  1.4575  0.0961
  272SOL     OW  814   2.783   1.885   2.455 -0.0685 -0.0624 -0.1402
  272SOL    HW1  815   2.814   1.981   2.474  2.9909  1.8897  1.1188
  272SOL    HW2  816   2.688   1.872   2.500  0.9796 -0.1151  4.0023
  273SOL     OW  817   2.470   0.442   2.853 -0.0599  0.0600  0.0859
  273SOL    HW1  818   2.457   0.345   2.815  2.5288 -0.2247  0.4032
  273SOL    HW2  819   2.543   0.489   2.802  1.4370  0.3877  0.1263
  274SOL     OW  820   0.413   2.733   1.135  0.0619 -0.4059 -0.4635
  274SOL    HW1  821   0.482   2.723   1.062 -0.1127 -2.0564 -0.9600
  274SOL    HW2  822   0.453   2.790   1.206 -2.4421  0.1218 -0.2431
  275SOL     OW  823   2.053   1.406   0.855  0.2838 -0.6315  0.0302
  275SOL    HW1  824   1.955   1.372   0.848 -2.5578 -0.0159 -1.2817
  275SOL    HW2  825   2.086   1.416   0.765 -0.2991 -2.8607  4.0270
  276SOL     OW  826   0.124   1.330   2.632 -0.3793 -0.6079 -0.0039
  276SOL    HW1  827   0.223   1.363   2.613  1.5277 -0.6805 -1.9882
  276SOL    HW2  828   0.075   1.329   2.543  0.2467  1.5021 -0.0835
  277SOL     OW  829   1.757   2.729   1.661 -0.6246  0.1559 -0.0919
  277SOL    HW1  830   1.678   2.755   1.604  1.2367 -1.0655  1.3584
  277SOL    HW2  831   1.733   2.722   1.760  0.0156 -0.6200 -0.5198
  278SOL     OW  832   1.649   0.337   1.884  0.4293 -0.2525 -0.1761
  278SOL    HW1  833   1.636   0.302   1.791  0.3871 -2.6124  1.3202
  278SOL    HW2  834   1.725   0.407   1.886  0.9056 -1.5136 -0.7913
  279SOL     OW  835   2.083   1.546   0.212  0.2138 -0.7156  0.0239
  279SOL    HW1  836   2.118   1.633   0.252 -1.0998 -0.0776 -0.9525
  279SOL    HW2  837   2.049   1.495   0.290 -0.9418  1.6718 -1.8972
  280SOL     OW  838   0.688   1.356   1.026 -0.2597  0.4769 -0.5795
  280SOL    HW1  839   0.666   1.257   1.034 -0.2875  0.6172 -0.1136
  280SOL    HW2  840   0.754   1.374   0.946  0.6912 -2.5389 -2.6261
  281SOL     OW  841   0.353   0.009   2.422  0.4865  0.7850  0.4957
  281SOL    HW1  842   0.388   0.104   2.429  0.2761 -1.6614  2.9438
  281SOL    HW2  843   0.259   0.012   2.376 -0.2715 -2.5049 -1.2097
  282SOL     OW  844   0.235   0.781   1.231  0.1287 -0.5985 -0.2473
  282SOL    HW1  845   0.220   0.783   1.132 -1.0178  0.3304  0.2470
  282SOL    HW2  846   0.184   0.703   1.277  1.3929  0.4366 -1.6899
  283SOL     OW  847   1.684   2.215   0.096  0.2482 -0.0055 -0.2167
  283SOL    HW1  848   1.724   2.257   0.013  1.4987  0.8029  1.3762
  283SOL    HW2  849   1.583   2.207   0.095 -1.6262  2.4369  1.4733
  284SOL     OW  850   1.523   1.573   0.608  0.0188 -0.0825 -0.3830
  284SOL    HW1  851   1.535   1.661   0.661  0.7432  1.1986  0.0242
  284SOL    HW2  852   1.601   1.558   0.547 -0.6755  0.7472  2.2262
  285SOL     OW  853   2.898   2.992   2.934  0.1568 -0.0463 -0.6606
  285SOL    HW1  854   2.938   2.964   3.020  1.7342  3.6561 -2.9772
  285SOL    HW2  855   2.958   2.958   2.860 -0.5651  1.2219 -0.4555
  286SOL     OW  856   1.871   0.023   1.569 -0.1971  0.4823 -0.7871
  286SOL    HW1  857   1.917   3.048   1.582 -0.0424  0.6561 -1.9537
  286SOL    HW2  858   1.833   0.043   1.474  2.9558 -0.2555  2.7520
  287SOL     OW  859   0.911   1.132   1.161  0.4798 -0.1349 -0.0595
  287SOL    HW1  860   0.849   1.058   1.187  3.3443 -0.0137 -0.4762
  287SOL    HW2  861   0.887   1.219   1.203 -2.0667 -1.4117 -0.5207
  288SOL     OW  862   1.353   3.005   0.145 -0.7585 -0.6022 -0.4477
  288SOL    HW1  863   1.430   3.030   0.080 -0.0965 -0.5507  0.2783
  288SOL    HW2  864   1.321   3.090   0.197  2.8657  3.3958  2.1579
  289SOL     OW  865   0.068   1.545   2.827 -0.3479 -0.2310 -0.3774
  289SOL    HW1  866   3.095   1.556   2.777  0.5640  0.0171  3.1640
  289SOL    HW2  867   0.126   1.469   2.789  0.9561 -1.8943 -0.3620
  290SOL     OW  868   1.139   2.891   0.584 -0.2694  0.7767  0.0251
  290SOL    HW1  869   1.042   2.856   0.602 -1.6319 -1.8296 -0.0480
  290SOL    HW2  870   1.204   2.855   0.656 -1.5275  0.3510  0.7493
  291SOL     OW  871   2.303   2.101   2.912  0.4278 -0.5987  0.1576
  291SOL    HW1  872   2.303   2.001   2.894  1.3867  1.1746  2.4262
  291SOL    HW2  873   2.345   2.150   2.829  1.0589  0.2453 -0.3522
  292SOL     OW  874   1.142   0.922   2.164 -0.1576  0.5813 -0.4477
  292SOL    HW1  875   1.163   0.996   2.226  1.0764 -1.0483  0.2056
  292SOL    HW2  876   1.189   0.933   2.076 -0.3253  1.7625 -0.1049
  293SOL     OW  877   2.125   2.731   1.003 -0.0317  0.2628  0.0428
  293SOL    HW1  878   2.137   2.829   0.982 -0.4659 -1.7104 -0.6149
  293SOL    HW2  879   2.212   2.676   0.988  0.8073 -1.3666 -1.0145
  294SOL     OW  880   0.067   0.553   2.338 -0.7798 -0.0259  0.0728
  294SOL    HW1  881   0.138   0.511   2.401 -1.2346  2.0605 -2.6132
  294SOL    HW2  882   0.109   0.627   2.277 -0.7602  0.2329  0.0149
  295SOL     OW  883   1.205   1.968   0.353  0.2422 -1.2322 -0.0947
  295SOL    HW1  884   1.231   2.036   0.427  0.9779  2.8152 -0.8316
  295SOL    HW2  885   1.245   1.879   0.371  1.0555  1.6903  1.3648
  296SOL     OW  886   2.042   1.942   0.121  0.1636 -0.0791  0.0348
  296SOL    HW1  887   2.063   2.025   0.067  0.4023 -0.3445 -2.3715
  296SOL    HW2  888   2.077   1.851   0.083  1.8135  1.2000 -0.3619
  297SOL     OW  889   2.363   0.585   3.068 -0.1777  0.0526 -0.5689
  297SOL    HW1  890   2.387   0.512   3.000  2.1519  0.9599  0.6428
  297SOL    HW2  891   2.263   0.572   3.098 -1.6264  0.5726  1.5896
  298SOL     OW  892   1.018   2.191   2.626  0.2825 -0.8133  0.3064
  298SOL    HW1  893   1.050   2.270   2.571  0.8357 -1.1631 -2.2066
  298SOL    HW2  894   0.921   2.193   2.645  3.1812 -1.3936 -0.0935
  299SOL     OW  895   1.096   2.959   2.360  0.0038 -0.5824 -0.6304
  299SOL    HW1  896   1.155   2.998   2.284  1.1128 -0.6568  1.1668
  299SOL    HW2  897   1.038   3.032   2.405 -2.0668  1.0698 -1.0509
  300SOL     OW  898   2.588   0.162   3.031  0.3511  0.2536 -0.0895
  300SOL    HW1  899   2.646   0.247   3.042  0.2084  1.9610  0.4125
  300SOL    HW2  900   2.566   0.149   2.934 -0.3756  1.9465  0.8565
  301SOL     OW  901   1.326   1.098   1.364 -0.1744  0.3062  0.1745
  301SOL    HW1  902   1.409   1.101   1.419  0.9449  0.2850 -1.6390
  301SOL    HW2  903   1.253   1.156   1.402  1.5612 -0.1095  1.4246
  302SOL     OW  904   2.753   2.526   0.377 -0.4290 -0.2339  0.3516
  302SOL    HW1  905   2.853   2.549   0.366  1.1406  1.2602  0.1070
  302SOL    HW2  906   2.706   2.545   0.287  1.2448  1.1240 -1.0894
  303SOL     OW  907   2.988   2.477   2.508  0.4955  0.3432 -0.0355
  303SOL    HW1  908   2.967   2.574   2.526  0.2954 -0.7280  1.4052
  303SOL    HW2  909   3.071   2.455   2.557 -2.2928  1.5904  1.1678
  304SOL     OW  910   3.091   0.771   1.948  0.1019 -0.0185 -0.3333
  304SOL    HW1  911   3.035   0.857   1.964 -1.1846 -0.6201  1.7369
  304SOL    HW2  912   3.033   0.720   1.882 -0.4692 -3.9773 -0.4332
  305SOL     OW  913   0.444   2.048   2.048 -0.0234  0.4764  0.1361
  305SOL    HW1  914   0.520   1.983   2.043 -2.3181  0.4630  1.5175
  305SOL    HW2  915   0.440   2.094   2.141 -0.4896 -0.7847  2.2262
  306SOL     OW  916   2.691   1.033   2.032 -0.6248  0.0694  0.3490
  306SOL    HW1  917   2.674   1.131   2.039 -0.0313 -0.5108 -0.7515
  306SOL    HW2  918   2.607   0.976   2.046  0.8392 -0.9355  2.4571
  307SOL     OW  919   1.681   0.924   1.776  0.4787  0.0257  0.0343
  307SOL    HW1  920   1.759   0.865   1.759  0.2934 -0.5401 -0.3139
  307SOL    HW2  921   1.663   0.981   1.694 -0.8760  2.6600  0.3881
  308SOL     OW  922   2.628   1.723   1.069 -0.1161  0.4508 -0.2334
  308SOL    HW1  923   2.539   1.710   1.123 -0.0778 -0.3411 -1.2000
  308SOL    HW2  924   2.617   1.683   0.977 -0.1506  2.0228  3.4425
  309SOL     OW  925   2.080   1.631   1.668 -0.1587  0.1580 -0.3428
  309SOL    HW1  926   1.988   1.660   1.634  0.4163 -0.4589  0.6727
  309SOL    HW2  927   2.133   1.575   1.598 -0.2113 -1.6983  0.9373
  310SOL     OW  928   2.707   1.619   2.792 -0.2000  1.0201 -0.5616
  310SOL    HW1  929   2.675   1.717   2.807 -0.1484  0.5666  1.3917
  310SOL    HW2  930   2.641   1.569   2.727 -0.8852 -0.0429 -1.5903
  311SOL     OW  931   2.577   1.847   2.786  0.0038  0.5463 -0.3479
  311SOL    HW1  932   2.484   1.834   2.823 -2.9502 -1.9808  0.5759
  311SOL    HW2  933   2.566   1.899   2.702  2.1792  1.1455  0.6773
  312SOL     OW  934   2.390   1.742   1.226  0.3051 -0.6734  0.3942
  312SOL    HW1  935   2.319   1.674   1.256  0.3826 -2.7644  0.7618
  312SOL    HW2  936   2.424   1.801   1.307  1.6749  2.6497  0.8329
  313SOL     OW  937   2.369   2.627   0.973  0.0734  0.1226  0.4881
  313SOL    HW1  938   2.414   2.719   0.968  0.9052 -0.3110  0.7521
  313SOL    HW2  939   2.411   2.557   1.037  1.0062 -0.1541 -1.7036
  314SOL     OW  940   0.944   2.099   0.356 -0.2394  0.3815 -0.3397
  314SOL    HW1  941   1.037   2.071   0.331 -0.2630  1.2812 -0.9012
  314SOL    HW2  942   0.943   2.103   0.455  0.3475 -1.9721 -0.3039
  315SOL     OW  943   0.785   2.683   2.442 -0.0302 -0.3071  0.0189
  315SOL    HW1  944   0.870   2.686   2.383 -2.6530  1.1162  0.3648
  315SOL    HW2  945   0.827   2.689   2.534  1.1359 -2.6801  0.5272
  316SOL     OW  946   0.045   0.835   0.589  0.0054 -0.6875 -0.4907
  316SOL    HW1  947   0.058   0.933   0.571  2.2073 -2.7290  0.1588
  316SOL    HW2  948   3.062   0.808   0.573  0.8507 -1.1123 -0.7568
  317SOL     OW  949   1.092   0.509   0.732  0.1930  0.1692  0.6104
  317SOL    HW1  950   1.079   0.423   0.782  1.7462  0.2846 -0.9110
  317SOL    HW2  951   1.040   0.514   0.642  0.4431  0.0648 -1.1277
  318SOL     OW  952   0.036   2.485   0.630  0.3766  0.4566  0.1754
  318SOL    HW1  953   0.011   2.574   0.675  0.6092 -1.5962 -2.6952
  318SOL    HW2  954   3.104   2.403   0.669  0.2983  2.2727  1.1731
  319SOL     OW  955   0.228   1.561   2.398  0.3814  0.0805 -0.4194
  319SOL    HW1  956   0.274   1.497   2.463  0.6874  0.0715  1.3421
  319SOL    HW2  957   0.277   1.649   2.395  0.6921  0.4479 -2.1377
  320SOL     OW  958   0.932   2.769   2.010 -0.5176 -0.0330 -0.3689
  320SOL    HW1  959   0.950   2.782   1.909  1.4105  1.4356  0.0633
  320SOL    HW2  960   0.837   2.763   2.032  2.8885  2.2939  0.4805
  321SOL     OW  961   0.892   2.663   0.057  0.3193 -0.0689 -0.3863
  321SOL    HW1  962   0.986   2.669   0.099 -0.5902 -0.7777 -1.2876
  321SOL    HW2  963   0.844   2.586   0.101 -0.9011  0.9331 -0.0848
  322SOL     OW  964   2.563   1.292   2.069  0.1794  0.1535 -0.1650
  322SOL    HW1  965   2.485   1.356   2.091 -2.2074  0.6376  2.4101
  322SOL    HW2  966   2.650   1.320   2.109 -3.4586 -3.8240 -2.5430
  323SOL     OW  967   2.269   0.701   0.438 -0.3427  0.1405  0.4393
  323SOL    HW1  968   2.181   0.700   0.395 -0.2291 -0.9415 -0.3023
  323SOL    HW2  969   2.317   0.617   0.412  1.0672 -0.7192  1.0767
  324SOL     OW  970   0.241   2.611   0.039  0.0343  0.2718 -0.3677
  324SOL    HW1  971   0.210   2.539   3.086 -0.1263 -1.1759  1.0322
  324SOL    HW2  972   0.308   2.672   3.107 -0.7243  0.9629  0.7151
  325SOL     OW  973   1.738   0.010   2.651 -0.0247 -0.0120 -0.1822
  325SOL    HW1  974   1.783   0.069   2.722 -0.3787  0.6905  0.9211
  325SOL    HW2  975   1.792   3.110   2.567  0.4456  0.2403  0.7326
  326SOL     OW  976   2.406   2.595   1.475  0.2865  0.0162  0.0827
  326SOL    HW1  977   2.416   2.667   1.548  2.1283  0.3458  1.0327
  326SOL    HW2  978   2.385   2.642   1.389 -0.3399  0.9907  2.5556
  327SOL     OW  979   1.453   0.254   2.868 -0.4034  0.5921 -0.2414
  327SOL    HW1  980   1.370   0.295   2.913 -0.7163 -1.4676 -0.6161
  327SOL    HW2  981   1.527   0.235   2.941 -1.7417 -0.3069  2.7536
  328SOL     OW  982   2.709   1.406   2.414 -0.4363 -0.2944  0.1737
  328SOL    HW1  983   2.707   1.471   2.335  1.1502  0.3095 -1.8792
  328SOL    HW2  984   2.637   1.428   2.482  2.4557 -1.5366  0.3086
  329SOL     OW  985   1.899   0.091   1.826 -0.2970 -0.1041  0.1275
  329SOL    HW1  986   1.912   0.074   1.727  2.0834 -1.2903 -0.8702
  329SOL    HW2  987   1.813   0.047   1.858 -0.9819 -1.0630 -1.1470
  330SOL     OW  988   2.493   1.638   1.568 -0.0702 -0.1522 -0.2844
  330SOL    HW1  989   2.479   1.737   1.547  1.2212  4.0656 -2.7352
  330SOL    HW2  990   2.536   1.597   1.485 -0.1950  2.4433 -0.6274
  331SOL     OW  991   0.373   1.200   1.458  0.4009  0.2683  0.0236
  331SOL    HW1  992   0.332   1.279   1.408  0.4904 -0.9422 -0.5659
  331SOL    HW2  993   0.417   1.243   1.541 -2.0614  0.6161  0.4603
  332SOL     OW  994   0.722   0.280   1.059  0.7994  0.5980  0.4562
  332SOL    HW1  995   0.775   0.310   0.978  0.9562  0.5824 -0.9450
  332SOL    HW2  996   0.760   0.326   1.143 -1.9130  1.9025  0.1677
  333SOL     OW  997   2.428   2.767   1.681  0.2335 -0.0353  0.3395
  333SOL    HW1  998   2.510   2.758   1.742 -0.3344 -1.2894  1.2332
  333SOL    HW2  999   2.342   2.738   1.722 -0.2221 -0.5120 -1.6805
  334SOL     OW 1000   1.044   1.438   1.408 -0.0591  0.3110 -0.3290
  334SOL    HW1 1001   0.965   1.439   1.351  5.6289  3.4961  1.9801
  334SOL    HW2 1002   1.095   1.526   1.402  0.9903  0.6590 -0.7285
  335SOL     OW 1003   0.436   2.775   3.018  0.4904  0.2168  0.2829
  335SOL    HW1 1004   0.533   2.789   3.040 -0.5402  0.9103  0.0435
  335SOL    HW2 1005   0.414   2.781   2.915 -2.5671 -0.4443 -0.2270
  336SOL     OW 1006   3.008   2.851   1.826 -0.3758  0.2822 -0.1332
  336SOL    HW1 1007   3.004   2.952   1.829  1.1525 -0.6367 -0.0190
  336SOL    HW2 1008   2.955   2.818   1.746  0.6171 -0.1622 -0.4520
  337SOL     OW 1009   2.649   1.817   0.598  0.3085 -0.0262  0.2829
  337SOL    HW1 1010   2.553   1.853   0.603 -0.9390  0.9703 -1.5134
  337SOL    HW2 1011   2.711   1.882   0.546 -0.9990  4.6869 -0.3329
  338SOL     OW 1012   1.006   2.083   1.256  0.0914  0.0301 -0.2689
  338SOL    HW1 1013   1.000   1.986   1.290 -4.4740  0.2016 -2.1203
  338SOL    HW2 1014   0.945   2.147   1.308 -3.2456 -1.2723  1.3670
  339SOL     OW 1015   2.901   0.567   2.402  0.2795 -0.0554 -0.1107
  339SOL    HW1 1016   2.863   0.482   2.362 -1.0260 -1.1874 -1.5010
  339SOL    HW2 1017   3.000   0.553   2.399 -3.8330 -1.7584  0.6772
  340SOL     OW 1018   1.557   3.035   1.028 -0.0373  0.3653 -0.2193
  340SOL    HW1 1019   1.544   3.100   1.102 -0.1074 -0.4914  0.7543
  340SOL    HW2 1020   1.557   2.934   1.053  0.3180 -0.1014  1.9821
  341SOL     OW 1021   1.703   1.661   1.136  0.6357 -0.0915 -0.2794
  341SOL    HW1 1022   1.720   1.561   1.121  1.1185  1.2673  2.0060
  341SOL    HW2 1023   1.716   1.678   1.239 -0.9726 -1.8017  0.2216
  342SOL     OW 1024   0.357   1.297   0.954 -0.0484 -0.5292  0.5543
  342SOL    HW1 1025   0.319   1.221   0.897  0.1959 -0.8098 -1.0910
  342SOL    HW2 1026   0.394   1.370   0.888  1.1591 -0.7495 -0.5920
  343SOL     OW 1027   2.174   0.248   1.399 -0.1544 -0.1590 -0.2268
  343SOL    HW1 1028   2.233   0.317   1.352  0.1215  1.4441 -0.4081
  343SOL    HW2 1029   2.077   0.252   1.367 -1.3163 -0.8268 -0.3917
  344SOL     OW 1030   2.216   2.333   1.074  0.0600  0.1575 -0.3791
  344SOL    HW1 1031   2.236   2.236   1.101  2.4177 -0.9214  0.9595
  344SOL    HW2 1032   2.302   2.387   1.066 -0.8801  0.9084 -0.5057
  345SOL     OW 1033   2.703   2.230   2.943  0.5536  0.2018 -0.0270
  345SOL    HW1 1034   2.738   2.323   2.964  3.3861  0.1728  0.7539
  345SOL    HW2 1035   2.613   2.213   2.984  1.0072  1.6932 -0.0740
  346SOL     OW 1036   0.119   1.381   0.734 -0.3358 -0.1093 -0.2220
  346SOL    HW1 1037   0.124   1.453   0.805 -1.5356 -1.3938 -1.0593
  346SOL    HW2 1038   0.097   1.419   0.639  0.6560 -1.5698  1.9357
  347SOL     OW 1039   1.882   2.677   0.831 -0.1347 -0.2577  0.1313
  347SOL    HW1 1040   1.878   2.575   0.820  0.7065 -0.3814  0.1318
  347SOL    HW2 1041   1.939   2.703   0.912  0.4504  0.3465 -0.2851
  348SOL     OW 1042   1.360   1.318   2.683  0.1730 -0.0835 -0.0103
  348SOL    HW1 1043   1.442   1.267   2.650 -0.7508 -0.9894  0.1974
  348SOL    HW2 1044   1.359   1.415   2.648  3.0221 -0.3217  0.7809
  349SOL     OW 1045   2.321   1.332   2.436  0.0146  0.2020  0.2497
  349SOL    HW1 1046   2.290   1.331   2.339  0.0794 -1.2063  0.1278
  349SOL    HW2 1047   2.368   1.248   2.460 -1.3265  3.2069  1.6467
  350SOL     OW 1048   0.102   1.958   1.407  0.5232 -0.0567  0.4736
  350SOL    HW1 1049   0.041   1.877   1.404  0.2840 -4.0622  1.4618
  350SOL    HW2 1050   0.146   1.981   1.313 -1.6235  2.8328 -0.1595
  351SOL     OW 1051   0.671   0.324   2.532 -0.0735  0.1039 -0.1867
  351SOL    HW1 1052   0.697   0.253   2.595 -0.6464 -1.4215 -1.5478
  351SOL    HW2 1053   0.736   0.401   2.524  0.5340  0.3615  0.6735
  352SOL     OW 1054   0.936   2.806   1.497 -0.3643 -0.0127 -0.0206
  352SOL    HW1 1055   1.020   2.837   1.450  0.3926  1.1846 -0.3296
  352SOL    HW2 1056   0.862   2.874   1.483  2.7417 -1.5448 -0.8113
  353SOL     OW 1057   0.815   1.120   2.159 -0.2048 -0.3889 -0.2451
  353SOL    HW1 1058   0.781   1.133   2.254  0.3331 -0.7457 -1.2863
  353SOL    HW2 1059   0.881   1.038   2.161  1.8004 -0.0550 -0.4352
  354SOL     OW 1060   1.812   1.223   0.826  0.2979  0.2982 -0.0500
  354SOL    HW1 1061   1.714   1.232   0.805  0.1327 -1.5750  1.7084
  354SOL    HW2 1062   1.861   1.171   0.755  1.0952  0.2654  0.7477
  355SOL     OW 1063   2.389   0.340   0.574 -0.3935 -0.0760 -0.0413
  355SOL    HW1 1064   2.366   0.385   0.482  2.2924 -0.7761 -1.2351
  355SOL    HW2 1065   2.476   0.288   0.568 -2.5615  0.9274 -3.5327
  356SOL     OW 1066   2.872   0.990   2.501  0.1847  1.0170 -0.6286
  356SOL    HW1 1067   2.815   1.055   2.453  0.8547 -4.8324 -0.3635
  356SOL    HW2 1068   2.959   0.970   2.454 -2.3647  0.7156  0.2025
  357SOL     OW 1069   0.578   2.964   1.701 -0.5969 -0.1355  0.5077
  357SOL    HW1 1070   0.601   3.017   1.781 -1.9116 -0.3538  0.7800
  357SOL    HW2 1071   0.480   2.995   1.682 -1.3571  1.5224  1.8284
  358SOL     OW 1072   2.862   1.122   2.742 -0.2722  0.2246 -0.0926
  358SOL    HW1 1073   2.867   1.085   2.650 -0.4962  0.5338  1.9495
  358SOL    HW2 1074   2.861   1.220   2.740  1.0311 -3.7234  0.4294
  359SOL     OW 1075   2.758   2.485   2.999 -0.4814  0.7533  0.0869
  359SOL    HW1 1076   2.855   2.501   3.020 -1.2347 -0.6723 -0.6821
  359SOL    HW2 1077   2.728   2.550   2.922 -0.5722 -0.1320 -1.7421
  360SOL     OW 1078   1.588   1.212   1.198  0.1628  0.5790 -0.2445
  360SOL    HW1 1079   1.550   1.119   1.172 -1.3166 -3.9265 -0.2056
  360SOL    HW2 1080   1.534   1.290   1.158 -0.3757  0.4836 -0.6566
  361SOL     OW 1081   2.037   2.641   1.262  0.3527 -0.5862 -0.5256
  361SOL    HW1 1082   2.052   2.735   1.296 -1.7753 -0.4679 -1.7444
  361SOL    HW2 1083   2.084   2.640   1.174  0.0035 -2.6853  2.5806
  362SOL     OW 1084   1.407   1.442   1.125 -0.5457 -0.1540  0.0279
  362SOL    HW1 1085   1.392   1.534   1.092 -2.5423 -0.2050 -2.4960
  362SOL    HW2 1086   1.322   1.389   1.111  0.6370 -0.4218  0.9716
  363SOL     OW 1087   2.757   1.963   2.975 -0.7946 -0.0356  0.1039
  363SOL    HW1 1088   2.710   1.926   2.892 -0.7351  0.9693 -0.6177
  363SOL    HW2 1089   2.750   2.064   2.978 -0.2157 -0.7831 -2.1871
  364SOL     OW 1090   2.261   0.403   1.605  0.5498 -0.4371 -0.5029
  364SOL    HW1 1091   2.216   0.364   1.521  2.2066 -0.3538 -1.1163
  364SOL    HW2 1092   2.362   0.406   1.603 -0.4019  0.0492  1.4434
  365SOL     OW 1093   2.876   2.620   1.205 -0.1111 -0.4946 -0.1902
  365SOL    HW1 1094   2.924   2.709   1.179  2.1838 -0.7936 -0.0513
  365SOL    HW2 1095   2.860   2.566   1.120 -1.1892  1.0475 -1.1741
  366SOL     OW 1096   2.954   1.252   0.217 -0.7410 -0.3293 -0.5808
  366SOL    HW1 1097   2.921   1.304   0.137 -0.3109 -1.1793  1.5313
  366SOL    HW2 1098   2.899   1.167   0.232  0.0762  1.0825  0.4667
  367SOL     OW 1099   2.451   2.278   3.081  1.0214 -0.1255 -0.5488
  367SOL    HW1 1100   2.381   2.215   3.037  0.4392 -2.2220 -1.8478
  367SOL    HW2 1101   2.412   2.362   0.012 -0.0412  0.8257  0.2566
  368SOL     OW 1102   2.677   2.000   1.349  0.4255 -0.1230  0.5369
  368SOL    HW1 1103   2.594   1.959   1.391  0.6049  0.4952  1.2526
  368SOL    HW2 1104   2.680   2.002   1.249  1.3415 -0.9226  1.0092
  369SOL     OW 1105   0.654   0.430   0.583  0.2801 -0.2459  0.2072
  369SOL    HW1 1106   0.592   0.354   0.609 -1.6092 -1.1656 -0.1734
  369SOL    HW2 1107   0.605   0.511   0.545 -0.8333  0.1690 -0.3430
  370SOL     OW 1108   0.947   0.755   1.051 -0.2811 -0.0539 -0.3076
  370SOL    HW1 1109   0.892   0.816   1.115  0.9336  3.5919  0.6134
  370SOL    HW2 1110   0.882   0.704   0.980 -1.6852  0.9671 -2.4830
  371SOL     OW 1111   2.571   1.640   0.389 -0.1326 -0.3527 -0.4430
  371SOL    HW1 1112   2.655   1.698   0.400 -1.1928 -1.6770  0.2888
  371SOL    HW2 1113   2.517   1.639   0.476 -0.5726 -1.8009 -0.1599
  372SOL     OW 1114   0.207   0.925   2.522 -0.2077 -0.3313  0.1085
  372SOL    HW1 1115   0.255   0.898   2.612  0.5877  1.0738 -0.6361
  372SOL    HW2 1116   0.272   0.983   2.464  1.2731 -1.8292  1.0502
  373SOL     OW 1117   2.876   0.989   0.508  0.2274 -0.6214 -0.0098
  373SOL    HW1 1118   2.932   1.028   0.589  0.6284  2.7074 -0.0430
  373SOL    HW2 1119   2.886   0.889   0.501  1.6787  3.8460  1.7956
  374SOL     OW 1120   0.696   2.212   0.061  0.0183 -0.1766 -0.2903
  374SOL    HW1 1121   0.703   2.256   0.153  0.2508 -1.8960  1.2251
  374SOL    HW2 1122   0.724   2.269   3.099 -2.5799 -2.1404  3.9247
  375SOL     OW 1123   1.172   0.629   3.058  0.1277  0.4344  0.3990
  375SOL    HW1 1124   1.126   0.694   2.993 -1.0468 -0.8673 -0.8496
  375SOL    HW2 1125   1.113   0.623   0.031 -1.6887  2.1198  3.3533
  376SOL     OW 1126   0.052   2.738   1.991 -0.0634 -0.8287 -0.0761
  376SOL    HW1 1127   0.005   2.773   1.907 -1.5905  1.9751  0.2317
  376SOL    HW2 1128   0.136   2.685   1.958  0.9471  1.4199  0.6336
  377SOL     OW 1129   0.308   1.844   2.356  0.3508  0.3232  0.5620
  377SOL    HW1 1130   0.223   1.863   2.408 -1.2087  0.7303  0.4741
  377SOL    HW2 1131   0.288   1.814   2.262  0.1437  0.0081  1.1619
  378SOL     OW 1132   1.749   0.898   0.466  0.2201 -0.2864  0.1660
  378SOL    HW1 1133   1.658   0.943   0.456 -0.0865  1.7530 -1.4252
  378SOL    HW2 1134   1.750   0.825   0.536  1.2602 -1.6508  0.4565
  379SOL     OW 1135   1.232   1.514   0.129  0.4322  0.2011 -0.0476
  379SOL    HW1 1136   1.149   1.525   0.187 -0.2922  3.6370 -2.8641
  379SOL    HW2 1137   1.321   1.523   0.178 -0.8361  1.3526  1.1196
  380SOL     OW 1138   2.402   2.285   1.971 -0.6117 -0.0407 -0.1207
  380SOL    HW1 1139   2.493   2.276   1.929 -1.1675  1.5449  0.2664
  380SOL    HW2 1140   2.345   2.327   1.897 -0.6943 -0.3520 -1.1585
  381SOL     OW 1141   0.156   0.933   2.099 -0.3289  0.5513  0.3101
  381SOL    HW1 1142   0.192   0.989   2.024  1.3563 -1.0951 -1.8720
  381SOL    HW2 1143   0.100   0.857   2.058 -0.9445  0.2040 -2.8300
  382SOL     OW 1144   2.610   2.579   0.103  0.3152 -0.1980  0.4458
  382SOL    HW1 1145   2.510   2.570   0.073 -0.3473 -2.1315 -2.3178
  382SOL    HW2 1146   2.666   2.541   0.029  0.1747  0.0776  0.7387
  383SOL     OW 1147   1.939   1.114   2.062 -0.5732 -0.5811  0.4473
  383SOL    HW1 1148   1.894   1.023   2.074  1.2240  0.0843 -0.2066
  383SOL    HW2 1149   1.874   1.184   2.044  2.2709  1.5934 -0.3844
  384SOL     OW 1150   0.631   2.238   2.314 -0.1118  0.5672 -0.0759
  384SOL    HW1 1151   0.698   2.171   2.272  1.5539 -3.3219 -1.0681
  384SOL    HW2 1152   0.536   2.205   2.322  0.5071  1.0545  2.2015
  385SOL     OW 1153   2.686   2.359   0.576 -0.2002 -0.2208  0.2494
  385SOL    HW1 1154   2.714   2.430   0.512  0.9817  0.3859  2.5248
  385SOL    HW2 1155   2.590   2.355   0.601 -1.9744  0.6791 -2.2718
  386SOL     OW 1156   1.663   0.646   2.940 -0.0828  0.3873 -0.1528
  386SOL    HW1 1157   1.598   0.633   3.018 -0.8937  2.4643  0.3790
  386SOL    HW2 1158   1.762   0.650   2.971  1.6065  1.6099 -0.8173
  387SOL     OW 1159   0.479   0.635   1.561  0.4911 -0.0285 -0.1376
  387SOL    HW1 1160   0.399   0.585   1.520 -0.5097 -2.5597 -0.7338
  387SOL    HW2 1161   0.470   0.642   1.661  0.2604 -1.3221  0.5398
  388SOL     OW 1162   3.069   0.789   1.568  0.1992 -0.4681  0.4080
  388SOL    HW1 1163   3.056   0.737   1.655 -1.2695 -1.6848  1.0048
  388SOL    HW2 1164   3.014   0.877   1.560  2.0397  1.0948  3.9012
  389SOL     OW 1165   1.809   1.293   2.790 -0.1627 -0.1537 -0.4593
  389SOL    HW1 1166   1.752   1.271   2.872 -1.8133  0.3722 -3.8051
  389SOL    HW2 1167   1.796   1.219   2.723 -0.9891  2.0195  0.8745
  390SOL     OW 1168   1.768   2.365   0.362  0.3037  0.1696 -0.1555
  390SOL    HW1 1169   1.819   2.434   0.306  1.0872  0.5831 -3.0814
  390SOL    HW2 1170   1.737   2.282   0.310  0.6115  1.7877 -0.5021
  391SOL     OW 1171   1.204   2.630   0.988 -0.2279 -0.1939  0.3779
  391SOL    HW1 1172   1.140   2.696   1.031  0.4770  0.2984 -1.7049
  391SOL    HW2 1173   1.193   2.535   1.033  1.9617 -1.8906  1.0744
  392SOL     OW 1174   2.729   2.758   1.382  0.0335 -0.4994  0.4406
  392SOL    HW1 1175   2.796   2.706   1.321  0.8913 -2.7456 -0.5081
  392SOL    HW2 1176   2.636   2.754   1.344 -2.6144  0.5275 -1.2358
  393SOL     OW 1177   2.059   2.437   2.646  0.2382  0.3701  0.6024
  393SOL    HW1 1178   2.057   2.471   2.743 -2.0295  1.3953  3.0947
  393SOL    HW2 1179   2.117   2.356   2.629  1.7432  0.3653  1.5417
  394SOL     OW 1180   0.406   2.787   2.750  0.7894 -0.1988 -0.1839
  394SOL    HW1 1181   0.412   2.696   2.699  3.0495 -3.7560  1.5029
  394SOL    HW2 1182   0.493   2.841   2.735 -1.9341  3.3792 -0.7352
  395SOL     OW 1183   0.540   1.085   1.278  0.0532  0.2812 -0.0308
  395SOL    HW1 1184   0.528   0.987   1.314 -1.1451 -1.7873 -2.2859
  395SOL    HW2 1185   0.461   1.141   1.307 -1.6353 -2.2345 -4.3766
  396SOL     OW 1186   1.901   1.442   2.532 -1.1748 -0.5052 -0.7602
  396SOL    HW1 1187   1.905   1.359   2.480  1.3086  0.8936 -0.0641
  396SOL    HW2 1188   1.841   1.425   2.615 -1.2227 -2.3934 -0.4373
  397SOL     OW 1189   2.693   0.243   2.544 -0.3989 -0.3675  0.2804
  397SOL    HW1 1190   2.732   0.272   2.455  0.7640 -2.2304 -0.4272
  397SOL    HW2 1191   2.766   0.240   2.618  1.2338 -1.3868 -1.4651
  398SOL     OW 1192   1.740   0.270   0.847  0.2129 -0.0176  0.5158
  398SOL    HW1 1193   1.777   0.236   0.755  0.1258  1.5963 -1.5241
  398SOL    HW2 1194   1.658   0.215   0.873 -1.2115 -0.3349 -1.2168
  399SOL     OW 1195   2.377   3.047   1.589 -0.4794 -0.2414 -0.2239
  399SOL    HW1 1196   2.354   3.070   1.493 -2.1941 -0.2324 -0.7882
  399SOL    HW2 1197   2.421   2.957   1.594 -1.2029  0.1520  0.0492
  400SOL     OW 1198   0.012   2.314   1.873 -0.2189 -0.7174 -0.1021
  400SOL    HW1 1199   0.029   2.216   1.898  0.4567 -0.5784  2.4558
  400SOL    HW2 1200   0.073   2.343   1.793 -0.0502  0.2505 -0.2015
  401SOL     OW 1201   0.523   0.261   0.260  0.9862 -0.1306 -0.0428
  401SOL    HW1 1202   0.548   0.190   0.321 -0.5021 -0.2406 -2.4959
  401SOL    HW2 1203   0.439   0.310   0.292 -2.4708 -2.2707  0.7510
  402SOL     OW 1204   0.620   2.700   1.721 -0.3117 -0.6820  0.0465
  402SOL    HW1 1205   0.698   2.676   1.657  0.2493 -0.3454 -1.1532
  402SOL    HW2 1206   0.603   2.801   1.723 -1.5910 -2.0532  1.6927
  403SOL     OW 1207   0.218   1.082   1.856  0.4909 -0.3123 -0.2427
  403SOL    HW1 1208   0.122   1.105   1.824 -1.7497 -0.1340 -0.5194
  403SOL    HW2 1209   0.274   1.042   1.777 -1.5964  0.6244 -1.9374
  404SOL     OW 1210   2.767   2.373   2.122  0.1463 -0.2509 -0.0156
  404SOL    HW1 1211   2.862   2.346   2.128 -1.7051  1.0170 -0.9921
  404SOL    HW2 1212   2.719   2.305   2.057 -3.2306 -3.6699  1.7470
  405SOL     OW 1213   2.413   0.236   2.445  0.3833  0.0644 -0.4712
  405SOL    HW1 1214   2.384   0.141   2.413  0.1012 -1.0181 -1.4422
  405SOL    HW2 1215   2.506   0.238   2.484 -0.4682  2.1069  0.3377
  406SOL     OW 1216   1.498   2.740   0.208 -0.3067  0.4318  0.2793
  406SOL    HW1 1217   1.415   2.790   0.174 -0.4564  0.5645  1.8020
  406SOL    HW2 1218   1.470   2.682   0.285  1.1271 -0.2167 -0.2482
  407SOL     OW 1219   1.795   1.596   0.563  0.5782  0.3113 -0.1081
  407SOL    HW1 1220   1.816   1.535   0.487 -0.6534  0.3480 -1.8111
  407SOL    HW2 1221   1.882   1.627   0.604 -0.4103 -0.4018 -2.3009
  408SOL     OW 1222   0.356   0.678   2.071 -0.3137 -0.2163 -0.4564
  408SOL    HW1 1223   0.419   0.615   2.123  0.7140 -1.5403 -1.6475
  408SOL    HW2 1224   0.367   0.770   2.104 -2.1632 -0.5597 -0.2661
  409SOL     OW 1225   2.889   1.350   3.094 -0.1229 -0.0837  0.5791
  409SOL    HW1 1226   2.824   1.425   3.083  0.9489  0.7953 -1.0469
  409SOL    HW2 1227   2.946   1.345   3.005  1.2017 -0.0210 -5.2489
  410SOL     OW 1228   2.454   1.425   1.098  0.1787 -0.6410  0.2402
  410SOL    HW1 1229   2.392   1.489   1.049  1.0564  4.1237 -0.6266
  410SOL    HW2 1230   2.500   1.472   1.179  1.1293  2.2731 -0.6800
  411SOL     OW 1231   2.928   0.727   0.483  0.3445  0.4008 -0.2130
  411SOL    HW1 1232   3.004   0.710   0.421 -2.1181 -0.8062  3.7845
  411SOL    HW2 1233   2.850   0.666   0.459 -1.9748  1.7550 -0.5449
  412SOL     OW 1234   1.717   0.234   0.107  0.2001 -0.4247 -0.4976
  412SOL    HW1 1235   1.623   0.245   0.143  0.2522 -0.5734 -0.7140
  412SOL    HW2 1236   1.778   0.253   0.188  1.4646  0.8804  3.2826
  413SOL     OW 1237   1.270   0.443   1.821 -0.4420  0.0951  0.1827
  413SOL    HW1 1238   1.325   0.365   1.851  0.5446  1.5825 -2.1651
  413SOL    HW2 1239   1.326   0.493   1.755 -1.1645 -0.8903  0.5650
  414SOL     OW 1240   0.398   1.166   0.116 -0.1948  0.3496 -0.3355
  414SOL    HW1 1241   0.420   1.070   0.096  4.6910  0.7198 -0.4395
  414SOL    HW2 1242   0.365   1.215   0.034  0.8983 -2.1548 -0.7367
  415SOL     OW 1243   0.081   1.471   0.497 -0.1146  0.0415 -0.1423
  415SOL    HW1 1244   0.035   1.563   0.512  1.7488 -2.3938 -0.0092
  415SOL    HW2 1245   0.101   1.448   0.400  0.7663  2.3174  0.4249
  416SOL     OW 1246   2.170   1.056   0.247 -0.2554 -0.0608  0.6169
  416SOL    HW1 1247   2.255   1.024   0.293 -1.3124 -0.6083  1.5192
  416SOL    HW2 1248   2.086   0.995   0.258  0.7296 -0.4898  0.0437
  417SOL     OW 1249   2.922   3.094   0.261 -0.0226  0.6188 -0.6676
  417SOL    HW1 1250   2.960   3.008   0.213  1.2857 -4.4326 -2.0868
  417SOL    HW2 1251   2.818   3.097   0.267 -1.8245  0.9359 -0.4273
  418SOL     OW 1252   2.600   0.671   0.055 -0.3766  0.5069 -0.0502
  418SOL    HW1 1253   2.512   0.628   0.033  0.5435 -0.2899  0.9054
  418SOL    HW2 1254   2.598   0.755   0.107 -2.9043  0.8628 -0.3576
  419SOL     OW 1255   0.789   0.303   0.362  0.7966 -0.1676  0.1128
  419SOL    HW1 1256   0.730   0.293   0.279 -0.2265 -1.0629 -0.5625
  419SOL    HW2 1257   0.734   0.347   0.431  0.4143 -2.2292 -4.3741
  420SOL     OW 1258   0.576   1.076   0.568  0.3987 -0.7766 -0.3084
  420SOL    HW1 1259   0.486   1.034   0.577  0.5926  0.4032  1.0240
  420SOL    HW2 1260   0.621   1.083   0.664 -0.4321  1.4427  1.2689
  421SOL     OW 1261   0.395   1.852   0.587  0.1561 -0.0970 -0.2118
  421SOL    HW1 1262   0.465   1.778   0.584  1.5727  0.1205 -0.3817
  421SOL    HW2 1263   0.328   1.854   0.508  0.5714  2.6290 -1.7314
  422SOL     OW 1264   2.947   0.397   1.474 -0.3592 -0.0241  0.5138
  422SOL    HW1 1265   2.876   0.467   1.450  0.1876 -3.1702 -1.5924
  422SOL    HW2 1266   2.948   0.373   1.570  1.5248 -0.4696 -2.7095
  423SOL     OW 1267   1.997   1.938   0.730  0.0321 -0.2889  0.1603
  423SOL    HW1 1268   1.971   1.862   0.792 -3.0951  2.2415 -2.1019
  423SOL    HW2 1269   1.935   1.935   0.649 -0.1478  1.1134  2.1724
  424SOL     OW 1270   1.606   1.641   3.091 -0.0612 -0.0764  0.1076
  424SOL    HW1 1271   1.595   1.714   0.046  0.7053 -4.3898  1.6958
  424SOL    HW2 1272   1.694   1.590   3.108  1.3348  0.5563 -2.1014
  425SOL     OW 1273   0.427   2.825   2.026 -0.1216 -0.4426 -0.3103
  425SOL    HW1 1274   0.403   2.925   2.024  2.4843 -0.4374 -0.5305
  425SOL    HW2 1275   0.364   2.784   2.090 -0.6870 -0.0179  1.3444
  426SOL     OW 1276   2.355   2.990   2.961  0.4224 -0.2347 -0.2645
  426SOL    HW1 1277   2.454   2.977   2.928  1.5788 -0.6638  1.9026
  426SOL    HW2 1278   2.289   2.966   2.884 -0.5608  0.5434 -0.8245
  427SOL     OW 1279   0.454   1.412   2.073 -0.1009  0.0446  0.4056
  427SOL    HW1 1280   0.530   1.347   2.046  2.8919  0.0120 -0.5048
  427SOL    HW2 1281   0.481   1.508   2.049 -0.4221  0.0159 -0.0627
  428SOL     OW 1282   2.160   1.522   2.548  0.1886 -0.8323 -0.2514
  428SOL    HW1 1283   2.217   1.443   2.516  1.2944  3.5609  0.4613
  428SOL    HW2 1284   2.062   1.492   2.547 -0.0276 -1.9011  0.4993
  429SOL     OW 1285   2.623   0.187   0.593  0.0647  0.1356  0.4932
  429SOL    HW1 1286   2.711   0.231   0.567  0.1319  0.8098 -0.8900
  429SOL    HW2 1287   2.633   0.131   0.678  0.9965  1.5523  0.7640
  430SOL     OW 1288   1.732   1.877   2.356 -0.1187  0.4490  0.3486
  430SOL    HW1 1289   1.785   1.790   2.338 -2.3029 -1.8529  1.4642
  430SOL    HW2 1290   1.713   1.878   2.458  1.5104  0.8031  1.6334
  431SOL     OW 1291   2.888   1.697   1.740 -0.1978 -0.0220  1.1223
  431SOL    HW1 1292   2.868   1.731   1.644  0.4547  1.2712 -1.4392
  431SOL    HW2 1293   2.819   1.723   1.806  0.3037  1.8485 -0.3012
  432SOL     OW 1294   1.168   2.418   1.952 -0.6255  0.6388  0.2164
  432SOL    HW1 1295   1.236   2.356   1.902 -0.9297  3.4681 -0.6416
  432SOL    HW2 1296   1.083   2.425   1.898  2.4106  0.4258  2.0845
  433SOL     OW 1297   1.200   0.037   0.526 -0.1883 -0.1836 -0.4788
  433SOL    HW1 1298   1.239   0.104   0.593  0.8263  0.3770  0.9866
  433SOL    HW2 1299   1.187   3.051   0.566 -0.5785  0.5631 -0.2832
  434SOL     OW 1300   0.241   2.325   2.222  0.0841  0.2880  0.3355
  434SOL    HW1 1301   0.291   2.324   2.129  1.5794  0.3924 -1.5177
  434SOL    HW2 1302   0.283   2.264   2.291 -0.1927  1.8433 -1.6978
  435SOL     OW 1303   0.522   1.342   0.542  0.3597 -0.3160  0.2820
  435SOL    HW1 1304   0.547   1.246   0.545 -0.0425  1.4061 -2.5583
  435SOL    HW2 1305   0.519   1.373   0.440 -1.2223  1.8657 -1.9971
  436SOL     OW 1306   0.288   1.535   1.713 -0.0666  0.1708  0.5896
  436SOL    HW1 1307   0.250   1.505   1.806 -0.9640  0.0563  0.6554
  436SOL    HW2 1308   0.209   1.544   1.650 -0.2907 -1.2548  0.1421
  437SOL     OW 1309   1.076   0.497   0.339  0.3554  0.0012 -0.9810
  437SOL    HW1 1310   1.011   0.508   0.418  1.6954  0.9870  0.2395
  437SOL    HW2 1311   1.051   0.562   0.270  1.1322  0.4302  0.8099
  438SOL     OW 1312   0.900   1.823   1.319 -0.5288 -0.4596  0.2365
  438SOL    HW1 1313   0.988   1.771   1.331 -0.0870 -2.3687  0.1777
  438SOL    HW2 1314   0.844   1.814   1.230  0.0775  1.5871 -1.3708
  439SOL     OW 1315   1.576   2.134   2.574 -0.0312  0.2609 -0.5759
  439SOL    HW1 1316   1.500   2.113   2.634 -1.6817  0.7481  2.3142
  439SOL    HW2 1317   1.662   2.140   2.625 -1.1187  0.1693 -0.4528
  440SOL     OW 1318   1.601   0.362   1.387  0.0088  0.1158  0.2577
  440SOL    HW1 1319   1.637   0.333   1.479 -0.0035 -1.8558  0.1939
  440SOL    HW2 1320   1.666   0.429   1.345 -2.7706 -0.6530 -2.5061
  441SOL     OW 1321   0.712   0.173   1.418 -0.2718 -0.4635  0.2414
  441SOL    HW1 1322   0.634   0.174   1.358  1.2192 -1.6171  0.2616
  441SOL    HW2 1323   0.690   0.208   1.510 -0.1631  0.0457 -1.1824
  442SOL     OW 1324   2.386   2.138   0.844  0.1005 -0.9534 -0.0854
  442SOL    HW1 1325   2.368   2.135   0.946  2.3377 -2.4359 -2.0183
  442SOL    HW2 1326   2.297   2.131   0.790 -3.1874 -0.3773 -0.0927
  443SOL     OW 1327   2.756   0.345   2.303  0.0817  0.1620 -0.1946
  443SOL    HW1 1328   2.668   0.342   2.252  1.8135 -0.1980  2.6742
  443SOL    HW2 1329   2.820   0.291   2.247 -0.8123  1.6896 -0.8250
  444SOL     OW 1330   1.859   1.243   2.336 -0.3466 -0.1399 -0.3552
  444SOL    HW1 1331   1.802   1.253   2.251 -0.3619 -2.7179 -0.1824
  444SOL    HW2 1332   1.925   1.163   2.332  2.1507 -1.9785 -0.3253
  445SOL     OW 1333   2.416   1.899   1.454  0.3865 -0.0156 -0.2516
  445SOL    HW1 1334   2.356   1.977   1.422  0.0532 -1.8649 -2.4637
  445SOL    HW2 1335   2.471   1.926   1.533 -0.2589 -0.6872  0.5618
  446SOL     OW 1336   0.338   0.951   0.577  0.3854 -0.6616 -0.0679
  446SOL    HW1 1337   0.316   0.861   0.540 -0.3703  0.1082  0.0797
  446SOL    HW2 1338   0.253   1.008   0.583 -1.0447 -2.4393 -4.2326
  447SOL     OW 1339   0.805   1.843   1.051 -0.3861 -0.0289  0.5258
  447SOL    HW1 1340   0.790   1.944   1.046 -1.4098 -0.9450 -2.8502
  447SOL    HW2 1341   0.728   1.788   1.014  0.8932  0.6800 -0.5845
  448SOL     OW 1342   1.201   0.998   1.894  0.0893 -0.3584 -0.1054
  448SOL    HW1 1343   1.136   1.076   1.890  2.6876 -0.3422 -1.5084
  448SOL    HW2 1344   1.267   0.992   1.818 -3.2354 -0.4853  0.6679
  449SOL     OW 1345   0.270   1.767   2.889 -0.0614  0.1302 -0.0874
  449SOL    HW1 1346   0.220   1.677   2.883 -0.0265 -1.0137  1.2953
  449SOL    HW2 1347   0.342   1.761   2.966 -0.0545 -0.3025  1.7146
  450SOL     OW 1348   2.498   2.504   2.099  0.2126 -0.5557  0.0823
  450SOL    HW1 1349   2.448   2.430   2.048 -1.8264  1.1901  0.5225
  450SOL    HW2 1350   2.597   2.492   2.113  0.5462 -0.0834  5.1807
  451SOL     OW 1351   2.384   0.350   1.921 -0.0726  0.2698  0.1243
  451SOL    HW1 1352   2.315   0.276   1.912 -2.8647 -0.7000 -1.8801
  451SOL    HW2 1353   2.347   0.445   1.937  1.7844  1.1154 -0.3252
  452SOL     OW 1354   1.004   2.786   1.118 -0.2089 -0.4401  0.8571
  452SOL    HW1 1355   0.955   2.865   1.074 -0.2416  0.8928  2.6185
  452SOL    HW2 1356   1.051   2.822   1.200 -2.3149 -2.0836  1.8341
  453SOL     OW 1357   0.951   1.153   0.887 -0.1660 -0.0555 -0.0206
  453SOL    HW1 1358   0.921   1.248   0.867  2.2193  1.0720 -1.7080
  453SOL    HW2 1359   0.952   1.135   0.985  1.1093  0.5728 -0.4007
  454SOL     OW 1360   0.104   1.149   0.894  0.0092 -0.2186  0.2685
  454SOL    HW1 1361   0.023   1.163   0.953 -0.4045 -1.0729 -2.8094
  454SOL    HW2 1362   0.138   1.236   0.852 -0.1943 -1.6584 -0.1458
  455SOL     OW 1363   0.268   0.150   0.252  0.3153  0.5937 -0.0592
  455SOL    HW1 1364   0.360   0.151   0.207 -0.5323  1.7495 -0.4364
  455SOL    HW2 1365   0.248   0.244   0.283  1.2602 -0.1408 -1.6725
  456SOL     OW 1366   2.433   2.365   0.674  0.6664  0.9737 -0.0477
  456SOL    HW1 1367   2.420   2.282   0.734  1.0963 -0.9690  1.0343
  456SOL    HW2 1368   2.357   2.430   0.691  2.0073  1.1637 -0.1314
  457SOL     OW 1369   1.021   3.001   2.833 -0.5143  0.0814 -0.0506
  457SOL    HW1 1370   1.086   2.980   2.911 -0.9930 -0.3971  0.2626
  457SOL    HW2 1371   1.046   2.950   2.748 -0.2903  0.9686 -0.8053
  458SOL     OW 1372   2.744   2.706   0.604  0.1472  0.0121 -0.1682
  458SOL    HW1 1373   2.706   2.664   0.685  1.7928 -0.1288  2.0706
  458SOL    HW2 1374   2.735   2.649   0.522 -1.8783 -0.2449 -0.1604
  459SOL     OW 1375   2.509   0.337   2.178 -0.0737  0.2499 -0.3044
  459SOL    HW1 1376   2.448   0.324   2.259 -1.2644 -0.4328  2.9952
  459SOL    HW2 1377   2.457   0.346   2.089 -0.3950 -0.7130  1.4059
  460SOL     OW 1378   2.988   0.576   0.177 -0.3304 -0.1470  0.1626
  460SOL    HW1 1379   2.959   0.668   0.136 -0.8180  2.1148  1.0716
  460SOL    HW2 1380   3.007   0.504   0.105 -0.4536  0.1269  2.5064
  461SOL     OW 1381   0.496   2.064   1.246  0.2530  0.2325 -0.1787
  461SOL    HW1 1382   0.506   2.078   1.144  0.1564 -2.0968 -0.9394
  461SOL    HW2 1383   0.582   2.092   1.285  0.7291  0.3247 -0.6415
  462SOL     OW 1384   3.006   2.835   1.138  0.2351  0.3590  0.2503
  462SOL    HW1 1385   3.094   2.883   1.128 -2.7126 -0.1565 -1.7233
  462SOL    HW2 1386   2.960   2.872   1.219 -0.0026 -0.9138  2.7410
  463SOL     OW 1387   2.656   1.131   3.093 -0.0706 -0.1531 -0.7364
  463SOL    HW1 1388   2.645   1.141   2.990 -2.1698  0.3812 -3.1768
  463SOL    HW2 1389   2.745   1.165   0.014  1.0280 -1.2887 -1.3915
  464SOL     OW 1390   0.506   2.488   1.248 -0.1916  0.5397  0.0050
  464SOL    HW1 1391   0.581   2.477   1.313 -1.8935  0.0195 -0.7473
  464SOL    HW2 1392   0.482   2.584   1.233 -1.4424 -0.9809 -2.4630
  465SOL     OW 1393   0.776   0.629   0.891  0.4325  0.0868 -0.0395
  465SOL    HW1 1394   0.797   0.544   0.837 -1.4749  0.7346 -1.1487
  465SOL    HW2 1395   0.719   0.689   0.835 -0.0545  0.9251  1.3584
  466SOL     OW 1396   1.480   2.794   2.183  0.3346  0.5904  0.1031
  466SOL    HW1 1397   1.579   2.770   2.183 -0.9075 -0.9364  0.5271
  466SOL    HW2 1398   1.438   2.733   2.111  1.3405  0.3056 -1.2413
  467SOL     OW 1399   0.954   0.318   1.948  0.0100 -0.1157  0.3161
  467SOL    HW1 1400   1.036   0.298   2.006 -2.0679 -1.2091  0.2156
  467SOL    HW2 1401   0.879   0.370   1.991  1.1059 -1.1666 -0.1929
  468SOL     OW 1402   0.289   1.052   2.302  0.5244 -0.2678 -0.4476
  468SOL    HW1 1403   0.236   0.990   2.243  3.2735 -2.1743 -2.3516
  468SOL    HW2 1404   0.268   1.146   2.275  0.9552  0.1022  1.3587
  469SOL     OW 1405   0.395   1.697   0.821  0.1096 -0.3309  0.1437
  469SOL    HW1 1406   0.379   1.753   0.734 -1.2085  4.2624  1.8684
  469SOL    HW2 1407   0.373   1.597   0.809  0.7847 -1.1888 -1.1567
  470SOL     OW 1408   2.278   1.985   1.890  0.2696 -0.1954  0.0837
  470SOL    HW1 1409   2.302   1.895   1.854  2.4889  2.3908  0.9282
  470SOL    HW2 1410   2.359   2.034   1.927  3.3679 -0.3298  1.4567
  471SOL     OW 1411   1.258   0.360   2.598 -0.5418  0.6800  0.3444
  471SOL    HW1 1412   1.230   0.290   2.664  2.1909  1.8533 -2.0184
  471SOL    HW2 1413   1.339   0.411   2.630  1.4702  2.4399 -1.5439
  472SOL     OW 1414   0.391   2.575   1.566 -0.6321 -0.4548  0.4782
  472SOL    HW1 1415   0.393   2.477   1.581  0.5870  3.4632  1.2499
  472SOL    HW2 1416   0.485   2.608   1.560 -1.3423 -1.9970 -1.5527
  473SOL     OW 1417   0.678   0.263   2.258  0.1470 -0.4522 -0.3294
  473SOL    HW1 1418   0.670   0.301   2.351  2.7236 -0.0401 -1.7612
  473SOL    HW2 1419   0.671   0.163   2.256  2.2966  0.4099  0.7144
  474SOL     OW 1420   1.911   0.289   1.282  0.0005 -0.5397  0.5059
  474SOL    HW1 1421   1.850   0.373   1.291 -1.8974 -2.0999 -0.2622
  474SOL    HW2 1422   1.948   0.281   1.190  0.2448  2.7774  0.9458
  475SOL     OW 1423   2.012   0.660   1.263  0.7580 -0.2959  0.6298
  475SOL    HW1 1424   2.109   0.640   1.292  0.9537 -2.3492 -0.6686
  475SOL    HW2 1425   2.005   0.717   1.180  4.0263 -0.4079  5.4418
  476SOL     OW 1426   0.691   1.080   0.802 -0.0053 -0.2146 -0.0265
  476SOL    HW1 1427   0.638   1.059   0.885  0.2229 -4.1298 -0.7419
  476SOL    HW2 1428   0.787   1.063   0.821  0.3437  0.3757 -0.0995
  477SOL     OW 1429   1.231   2.472   0.740  0.0784 -0.5418 -0.4699
  477SOL    HW1 1430   1.175   2.436   0.665  0.6039  1.7363 -0.8676
  477SOL    HW2 1431   1.190   2.554   0.781  1.5100  0.8164  0.4619
  478SOL     OW 1432   0.062   2.682   2.383 -0.5871  0.4410 -0.1270
  478SOL    HW1 1433   3.094   2.664   2.322  2.7104  1.2881 -0.5097
  478SOL    HW2 1434   0.151   2.666   2.334 -1.9866  0.8320 -0.8479
  479SOL     OW 1435   2.418   0.373   1.352 -0.0343 -0.2450 -0.2402
  479SOL    HW1 1436   2.503   0.360   1.411  0.4672  0.9911 -1.0248
  479SOL    HW2 1437   2.446   0.393   1.257 -1.1694 -1.3556  0.0251
  480SOL     OW 1438   0.388   2.446   0.531 -0.1554  0.4611  0.1425
  480SOL    HW1 1439   0.372   2.456   0.430  0.7563 -1.8702 -3.1226
  480SOL    HW2 1440   0.350   2.355   0.571  2.7520 -2.4082 -0.2904
  481SOL     OW 1441   2.106   2.195   1.471 -0.1141 -0.0383  0.5426
  481SOL    HW1 1442   2.056   2.284   1.457  1.1087 -2.5426 -0.5879
  481SOL    HW2 1443   2.141   2.185   1.568 -0.4342  0.9168  0.7877
  482SOL     OW 1444   1.362   2.723   2.657  0.0896 -0.4913 -0.1300
  482SOL    HW1 1445   1.393   2.805   2.608  1.1355 -0.7548  1.1278
  482SOL    HW2 1446   1.442   2.694   2.714  1.9269  0.5346 -2.2914
  483SOL     OW 1447   0.829   1.895   1.841 -0.6179  0.0515  0.2412
  483SOL    HW1 1448   0.874   1.852   1.928  3.4376  0.0121  0.9436
  483SOL    HW2 1449   0.756   1.838   1.797 -3.0546  1.5684  1.6943
  484SOL     OW 1450   0.879   0.458   1.212 -0.7620  0.0502  0.1883
  484SOL    HW1 1451   0.882   0.504   1.303  1.0569  1.5402  1.0047
  484SOL    HW2 1452   0.905   0.522   1.133  2.1506  0.4391 -0.2902
  485SOL     OW 1453   1.984   1.083   3.085  0.2661  0.2064  0.1546
  485SOL    HW1 1454   1.903   1.133   0.006 -2.0919 -2.4097  1.7721
  485SOL    HW2 1455   2.003   1.012   0.045 -1.6569  1.2586  0.7994
  486SOL     OW 1456   2.296   0.009   1.331 -0.4291 -0.0077 -0.2629
  486SOL    HW1 1457   2.267   0.106   1.351  1.1646 -3.4782 -0.5760
  486SOL    HW2 1458   2.391   0.002   1.288 -0.9769  0.4174  0.5316
  487SOL     OW 1459   0.727   2.215   1.326  0.2986 -0.2138 -0.3216
  487SOL    HW1 1460   0.791   2.289   1.309 -1.6319 -0.1221 -0.0202
  487SOL    HW2 1461   0.705   2.216   1.426 -1.8627 -0.2196  0.5267
  488SOL     OW 1462   2.095   2.398   0.037 -0.0065  0.0067  0.8822
  488SOL    HW1 1463   2.070   2.315   3.100 -1.6640  0.9030 -1.0423
  488SOL    HW2 1464   2.140   2.379   0.123  0.2181  1.9326  1.4287
  489SOL     OW 1465   1.868   2.890   0.688  0.3284  0.0576 -0.0297
  489SOL    HW1 1466   1.886   2.807   0.748  1.7707  2.3425  0.1298
  489SOL    HW2 1467   1.948   2.904   0.628  0.4435  0.1376 -2.2559
  490SOL     OW 1468   0.950   2.092   2.936  0.0756  0.4418 -0.0491
  490SOL    HW1 1469   0.993   2.133   2.853 -2.1399  0.9390 -3.4315
  490SOL    HW2 1470   0.928   2.167   3.004 -0.4660 -2.1713  1.8315
  491SOL     OW 1471   0.282   1.943   1.842 -0.7337  0.3068 -0.3053
  491SOL    HW1 1472   0.365   1.886   1.811  0.2465 -2.0328 -2.1968
  491SOL    HW2 1473   0.314   1.998   1.926  0.3891  2.5627 -1.0956
  492SOL     OW 1474   0.774   1.469   1.831 -0.0162  0.4417 -0.3672
  492SOL    HW1 1475   0.874   1.459   1.814 -1.7462 -1.0331 -1.0073
  492SOL    HW2 1476   0.742   1.409   1.905 -0.2698  1.5849 -1.0609
  493SOL     OW 1477   2.369   1.679   0.765  0.6655 -0.2894 -0.1605
  493SOL    HW1 1478   2.350   1.769   0.718 -1.2694  2.4086  1.2907
  493SOL    HW2 1479   2.469   1.680   0.778  1.4108 -0.4228 -0.9461
  494SOL     OW 1480   2.986   1.655   0.811  0.4201  0.3947  0.5182
  494SOL    HW1 1481   2.955   1.572   0.766  1.4117  0.2272 -0.9359
  494SOL    HW2 1482   2.913   1.721   0.819  2.3793 -1.7247 -2.3551
  495SOL     OW 1483   2.269   2.795   0.620 -0.2431 -0.5292  0.5303
  495SOL    HW1 1484   2.216   2.838   0.544 -2.8538  2.0420  0.0216
  495SOL    HW2 1485   2.221   2.712   0.651  1.3076  0.9495 -2.1316
  496SOL     OW 1486   2.755   0.114   1.416 -0.0461 -0.2304  0.8804
  496SOL    HW1 1487   2.840   0.114   1.366 -0.6665  2.0244 -0.3612
  496SOL    HW2 1488   2.727   0.210   1.437 -2.7414 -0.6133 -0.0629
  497SOL     OW 1489   2.447   1.279   2.742 -0.2045 -0.1898  0.4869
  497SOL    HW1 1490   2.389   1.243   2.663 -0.3377 -2.1826 -1.5914
  497SOL    HW2 1491   2.502   1.201   2.781  0.1038  1.5908  0.7351
  498SOL     OW 1492   2.859   1.853   1.532 -0.4174  0.4787 -0.5894
  498SOL    HW1 1493   2.896   1.938   1.580  1.4270 -2.0665 -1.1296
  498SOL    HW2 1494   2.805   1.884   1.451  0.9045  0.1363  0.4375
  499SOL     OW 1495   1.138   2.339   2.439  0.4344  0.6295 -0.1772
  499SOL    HW1 1496   1.197   2.401   2.495  3.0066 -1.0391 -2.3025
  499SOL    HW2 1497   1.121   2.392   2.354 -0.6854 -0.2531  2.1986
  500SOL     OW 1498   1.289   1.525   0.749 -0.3851  0.0791  0.4928
  500SOL    HW1 1499   1.365   1.541   0.677  1.5779  0.0763  0.3087
  500SOL    HW2 1500   1.303   1.438   0.806 -0.5999 -2.2690 -0.0397
  501SOL     OW 1501   1.661   0.218   1.627 -0.3831  0.1495  0.1288
  501SOL    HW1 1502   1.582   0.169   1.589  1.8932 -2.5817  2.1293
  501SOL    HW2 1503   1.736   0.151   1.643  3.8134 -2.2485  1.8691
  502SOL     OW 1504   2.661   0.557   1.816 -0.2223 -0.0544 -0.1945
  502SOL    HW1 1505   2.636   0.582   1.913  0.4866 -1.7574  0.5608
  502SOL    HW2 1506   2.609   0.478   1.778 -0.2159  0.5646  0.0716
  503SOL     OW 1507   2.467   1.674   2.255 -0.2260  0.1352  0.6016
  503SOL    HW1 1508   2.412   1.656   2.172 -2.0524  0.4716 -1.9956
  503SOL    HW2 1509   2.565   1.647   2.236  2.2492  0.2871 -0.8065
  504SOL     OW 1510   1.326   1.416   1.782 -0.1438 -0.2152 -0.0578
  504SOL    HW1 1511   1.234   1.369   1.789 -1.4968  0.3277  0.1293
  504SOL    HW2 1512   1.397   1.369   1.839 -1.7932  2.2436  0.9916
  505SOL     OW 1513   0.470   0.196   1.312  0.1315  0.0416 -0.5887
  505SOL    HW1 1514   0.402   0.132   1.353 -0.0306  0.9638 -1.5264
  505SOL    HW2 1515   0.426   0.254   1.241  2.4467 -0.3886  0.2258
  506SOL     OW 1516   0.179   0.225   3.062  0.0618 -0.1622  0.2989
  506SOL    HW1 1517   0.215   0.299   0.013 -0.7925 -2.0496  0.4351
  506SOL    HW2 1518   0.181   0.252   2.959 -0.9214 -0.7001  0.2066
  507SOL     OW 1519   0.170   2.373   2.992  0.4245 -0.4760 -0.1506
  507SOL    HW1 1520   0.111   2.393   2.914 -0.9136 -0.5716  2.9885
  507SOL    HW2 1521   0.123   2.301   3.044  2.3835  1.4107 -2.6499
  508SOL     OW 1522   1.194   0.280   2.124 -0.1336 -0.1570  0.7038
  508SOL    HW1 1523   1.234   0.370   2.133 -2.8400 -0.7449 -0.9320
  508SOL    HW2 1524   1.169   0.246   2.217 -2.5364 -0.0827 -1.3705
  509SOL     OW 1525   1.293   2.046   1.264 -0.0334 -0.2694 -0.1606
  509SOL    HW1 1526   1.335   2.053   1.354 -1.6022 -2.3311  0.6615
  509SOL    HW2 1527   1.195   2.063   1.272  1.4555  0.7511  0.6740
  510SOL     OW 1528   2.681   0.994   1.714 -0.4306  0.1740  0.0597
  510SOL    HW1 1529   2.680   0.994   1.815  0.9335  0.7990 -2.6292
  510SOL    HW2 1530   2.609   1.052   1.686 -0.0383 -1.8245  1.0179
  511SOL     OW 1531   1.222   1.722   1.096 -0.2683  0.3547  0.7047
  511SOL    HW1 1532   1.278   1.805   1.084  0.8479  2.1333 -1.7391
  511SOL    HW2 1533   1.211   1.697   1.198  0.7743  0.4140  1.7155
  512SOL     OW 1534   0.221   1.806   0.364 -0.1260 -0.9732  0.4668
  512SOL    HW1 1535   0.155   1.751   0.418  2.0284 -1.6864 -0.1005
  512SOL    HW2 1536   0.176   1.846   0.281  0.4792  0.5023 -0.2495
  513SOL     OW 1537   0.224   1.252   3.021  0.3626  0.3512  0.1620
  513SOL    HW1 1538   0.172   1.297   3.100  0.7174 -0.5765 -0.1123
  513SOL    HW2 1539   0.164   1.204   2.951 -2.0798  0.3859  0.4717
  514SOL     OW 1540   2.167   2.333   2.240 -0.2057 -0.4297  0.3347
  514SOL    HW1 1541   2.071   2.307   2.209  0.0070 -0.3613 -0.5574
  514SOL    HW2 1542   2.235   2.259   2.235  2.5362  0.9450 -0.0682
  515SOL     OW 1543   2.592   0.961   0.587  0.8402 -0.0557 -0.2756
  515SOL    HW1 1544   2.521   0.982   0.511 -2.7820  1.0963  1.5803
  515SOL    HW2 1545   2.684   0.991   0.555 -0.0524 -1.5405  0.0914
  516SOL     OW 1546   2.561   2.775   0.304  0.6735 -0.0969  0.2899
  516SOL    HW1 1547   2.570   2.709   0.225  0.8166 -0.0197  1.0037
  516SOL    HW2 1548   2.538   2.721   0.388 -1.2431  0.9920 -0.0516
  517SOL     OW 1549   0.680   1.643   2.901 -0.4813  0.3078  0.5434
  517SOL    HW1 1550   0.740   1.715   2.871  0.5078 -2.7374  0.7752
  517SOL    HW2 1551   0.599   1.682   2.949 -0.1986 -2.0718 -0.5637
  518SOL     OW 1552   0.089   0.021   1.822  0.1113  0.3024 -0.2949
  518SOL    HW1 1553   3.111   0.025   1.781  2.6051 -0.5982  2.9461
  518SOL    HW2 1554   0.105   0.108   1.865  1.2170 -1.3719  2.5370
  519SOL     OW 1555   1.595   1.372   0.284  0.2265 -0.4461 -0.0109
  519SOL    HW1 1556   1.670   1.343   0.223 -1.5357  3.9154 -1.1030
  519SOL    HW2 1557   1.562   1.470   0.270  2.7698  0.7978  1.2089
  520SOL     OW 1558   2.623   2.724   2.272  0.5206  0.3597 -0.0094
  520SOL    HW1 1559   2.658   2.760   2.185  1.7100  1.9496  0.2770
  520SOL    HW2 1560   2.661   2.635   2.302 -1.0834 -0.0433 -1.3418
  521SOL     OW 1561   0.001   1.923   2.149  0.0013 -0.0748  0.0294
  521SOL    HW1 1562   3.097   1.984   2.232  0.2635  1.1934  1.9599
  521SOL    HW2 1563   0.081   1.860   2.162  0.5916 -1.8607  1.3338
  522SOL     OW 1564   1.476   3.080   1.735  0.1851 -0.2332  0.7898
  522SOL    HW1 1565   1.459   2.980   1.741 -0.9693  0.2669  4.1126
  522SOL    HW2 1566   1.470   0.002   1.637 -1.3200 -1.6962  1.9434
  523SOL     OW 1567   1.912   2.207   1.136 -0.0190 -0.1281  0.3344
  523SOL    HW1 1568   1.909   2.107   1.151  0.5814  4.0636  1.8776
  523SOL    HW2 1569   2.002   2.233   1.100  1.7247  0.8147 -0.3889
  524SOL     OW 1570   0.931   2.258   0.878 -0.3298  0.1680  0.1646
  524SOL    HW1 1571   1.033   2.277   0.894  1.3315 -0.0029 -2.2291
  524SOL    HW2 1572   0.883   2.219   0.957 -0.2674  2.2598 -0.9968
  525SOL     OW 1573   2.746   0.428   0.812  0.4435  0.2462 -0.0638
  525SOL    HW1 1574   2.650   0.456   0.812 -2.2585  0.3218  1.5617
  525SOL    HW2 1575   2.785   0.423   0.717  0.5838  0.6409  1.1653
  526SOL     OW 1576   1.098   0.311   0.145  0.0741  0.0491  0.1322
  526SOL    HW1 1577   1.096   0.367   0.231  2.1392  1.4218 -1.0123
  526SOL    HW2 1578   1.005   0.295   0.117  0.9313 -2.2611  3.7532
  527SOL     OW 1579   1.822   1.273   1.094  0.0928 -0.2195  0.0213
  527SOL    HW1 1580   1.739   1.244   1.142  1.4582  0.0007  0.3201
  527SOL    HW2 1581   1.815   1.253   0.993  2.1142  0.7903 -0.6463
  528SOL     OW 1582   2.715   2.461   2.360 -0.3717 -0.0243  0.4184
  528SOL    HW1 1583   2.804   2.491   2.402 -0.1685  1.3164 -1.4379
  528SOL    HW2 1584   2.735   2.427   2.265  2.8221  0.7809  0.4563
  529SOL     OW 1585   0.922   1.191   2.584  0.2508  0.1234  0.4422
  529SOL    HW1 1586   0.927   1.150   2.678  0.0719 -0.0188  1.4753
  529SOL    HW2 1587   0.849   1.150   2.524  0.2056  0.6851 -2.6929
  530SOL     OW 1588   1.767   0.891   2.565  0.4543  0.1561 -0.2574
  530SOL    HW1 1589   1.818   0.859   2.483 -3.5651  0.6467 -1.1026
  530SOL    HW2 1590   1.834   0.912   2.642  1.9554 -2.5757  2.7517
  531SOL     OW 1591   0.014   0.876   0.269  0.3145  0.2433  0.3637
  531SOL    HW1 1592   3.058   0.873   0.196 -0.7483  0.9653 -1.8783
  531SOL    HW2 1593   3.107   0.961   0.317  0.4905 -2.0056 -1.3590
  532SOL     OW 1594   1.579   1.319   0.734 -0.1577 -0.3704  0.0576
  532SOL    HW1 1595   1.486   1.311   0.771 -1.7359  0.8447  3.3478
  532SOL    HW2 1596   1.600   1.405   0.689  2.0914  0.4738 -0.0191
  533SOL     OW 1597   0.477   0.529   2.294 -0.0345  0.2432  0.1812
  533SOL    HW1 1598   0.440   0.445   2.340 -1.3358  0.6741 -0.1311
  533SOL    HW2 1599   0.516   0.597   2.358 -0.1009 -0.4329  1.0667
  534SOL     OW 1600   0.805   0.164   2.709 -0.8882  0.1323  0.0362
  534SOL    HW1 1601   0.844   0.244   2.760  1.9870 -0.2470 -1.2854
  534SOL    HW2 1602   0.784   0.087   2.771  0.8210 -2.3641  1.5657
  535SOL     OW 1603   0.385   0.425   2.975 -0.0597 -0.0075 -0.2344
  535SOL    HW1 1604   0.326   0.487   3.033 -0.9291 -0.4214 -0.5380
  535SOL    HW2 1605   0.325   0.370   2.914  1.3761  2.9064  1.5339
  536SOL     OW 1606   0.566   0.968   2.275  0.1545  0.3435 -0.3840
  536SOL    HW1 1607   0.466   0.997   2.279 -1.8461  1.7822  0.7279
  536SOL    HW2 1608   0.590   0.930   2.181  2.1629  1.0995 -3.7196
  537SOL     OW 1609   1.457   0.091   1.220 -0.4076 -0.1589 -0.7459
  537SOL    HW1 1610   1.367   0.055   1.189  2.6997  0.4659  0.7503
  537SOL    HW2 1611   1.485   0.170   1.162  1.1856  2.2821 -2.4118
  538SOL     OW 1612   0.540   2.013   3.060 -0.8009  0.5119 -0.1685
  538SOL    HW1 1613   0.602   2.093   3.072 -0.6150 -1.2869 -1.8806
  538SOL    HW2 1614   0.524   2.000   2.958  0.8777  0.9941  0.8380
  539SOL     OW 1615   2.159   1.247   1.968  0.4378 -0.4670 -0.0344
  539SOL    HW1 1616   2.156   1.345   1.937 -2.5040  1.9512 -2.0405
  539SOL    HW2 1617   2.067   1.203   1.979  0.5923 -1.0028 -0.0157
  540SOL     OW 1618   1.815   1.741   1.603  0.1125 -0.2833 -0.2200
  540SOL    HW1 1619   1.848   1.785   1.521  0.1819 -0.3360  1.2571
  540SOL    HW2 1620   1.794   1.811   1.674  0.3072  0.4886  1.1972
  541SOL     OW 1621   0.725   1.696   1.700  0.2330  0.0518 -0.3280
  541SOL    HW1 1622   0.746   1.606   1.742  0.2278 -2.6121  1.1692
  541SOL    HW2 1623   0.747   1.691   1.599 -0.6534 -0.3198  1.4306
  542SOL     OW 1624   1.919   0.854   2.341 -0.1693 -0.1366  0.0604
  542SOL    HW1 1625   1.968   0.942   2.331  0.4276 -2.6670  1.6730
  542SOL    HW2 1626   1.982   0.776   2.317  2.7091 -0.5712  0.7260
  543SOL     OW 1627   0.902   0.553   0.545  0.1027  0.0060  0.0594
  543SOL    HW1 1628   0.885   0.655   0.518  2.9572  2.4545 -0.5989
  543SOL    HW2 1629   0.821   0.503   0.567 -0.0754  2.5210 -0.7549
  544SOL     OW 1630   2.182   1.951   2.534 -0.2525 -0.4948  0.5124
  544SOL    HW1 1631   2.174   1.952   2.433 -1.7085 -1.3038 -1.7642
  544SOL    HW2 1632   2.251   1.880   2.558 -2.4128 -1.4820  0.3119
  545SOL     OW 1633   1.975   1.825   1.377 -0.0226  0.5308  0.2565
  545SOL    HW1 1634   1.969   1.845   1.278  1.7607  1.2329  0.7922
  545SOL    HW2 1635   2.068   1.842   1.414  0.0297  0.0363  2.1770
  546SOL     OW 1636   0.232   0.283   2.793 -0.1410  0.0372 -0.2937
  546SOL    HW1 1637   0.230   0.358   2.720 -2.3290  1.4023 -1.4402
  546SOL    HW2 1638   0.274   0.198   2.759  0.6052  1.5158  1.6302
  547SOL     OW 1639   2.324   0.857   3.099  0.1160 -0.3083  0.2609
  547SOL    HW1 1640   2.245   0.894   3.049  0.6705  0.8040 -1.2331
  547SOL    HW2 1641   2.326   0.756   3.089  0.4437  1.2641  1.3810
  548SOL     OW 1642   2.243   1.883   2.275  0.4471 -0.1770 -0.1021
  548SOL    HW1 1643   2.278   1.970   2.235  0.4344 -1.3514  2.6176
  548SOL    HW2 1644   2.316   1.813   2.260  1.1561 -1.5502 -1.3972
  549SOL     OW 1645   2.199   0.282   0.761  0.0952 -0.5773 -0.0037
  549SOL    HW1 1646   2.214   0.184   0.784  3.4759 -1.6382  2.5510
  549SOL    HW2 1647   2.260   0.320   0.687  1.1754  3.0169 -2.4849
  550SOL     OW 1648   2.117   1.760   0.565 -0.6654 -0.6078  0.2125
  550SOL    HW1 1649   2.145   1.784   0.468 -0.1634  2.0634 -0.0825
  550SOL    HW2 1650   2.076   1.837   0.617 -1.2190 -0.8924 -0.7987
  551SOL     OW 1651   1.333   0.200   1.901 -0.4450  0.1832 -0.4640
  551SOL    HW1 1652   1.300   0.218   1.997  1.3755  2.1522 -0.1301
  551SOL    HW2 1653   1.370   0.108   1.893  0.9902 -1.0573 -0.1372
  552SOL     OW 1654   3.096   2.115   2.324  0.2193  0.2545 -0.3314
  552SOL    HW1 1655   3.099   2.193   2.259  0.2343 -1.5856  1.9966
  552SOL    HW2 1656   0.046   2.139   2.401  1.5669  0.0029 -0.5476
  553SOL     OW 1657   0.676   3.030   0.153  0.1001  0.1741  0.2226
  553SOL    HW1 1658   0.779   3.033   0.140  0.3882 -0.8550 -0.1420
  553SOL    HW2 1659   0.651   3.041   0.254  0.9808  0.0732  0.3247
  554SOL     OW 1660   1.752   2.273   1.673 -0.4141  0.1739 -0.0503
  554SOL    HW1 1661   1.781   2.196   1.610  2.1025  3.1109 -1.5661
  554SOL    HW2 1662   1.798   2.356   1.637 -2.3195 -1.1167  0.2844
  555SOL     OW 1663   1.219   2.005   1.977  0.0011 -0.2531  0.0091
  555SOL    HW1 1664   1.152   2.063   2.022 -0.4388 -0.2379  1.8924
  555SOL    HW2 1665   1.306   2.053   1.948  0.8912 -1.2386 -1.5517
  556SOL     OW 1666   1.082   1.976   0.743  0.0604 -0.1520 -0.1710
  556SOL    HW1 1667   1.011   2.029   0.696 -0.4207  1.1102 -1.0145
  556SOL    HW2 1668   1.079   1.994   0.843 -0.9051 -0.9186  0.1738
  557SOL     OW 1669   1.698   2.221   1.922  0.2394 -0.0052 -0.2046
  557SOL    HW1 1670   1.726   2.222   1.826  1.8635 -2.2550  1.1972
  557SOL    HW2 1671   1.770   2.209   1.993  1.5508  0.2754  0.5770
  558SOL     OW 1672   0.334   0.166   1.590 -0.0979 -0.6816 -0.0799
  558SOL    HW1 1673   0.340   0.069   1.630  0.7864 -0.4393  0.4930
  558SOL    HW2 1674   0.426   0.206   1.583  1.5461 -1.7696  2.9890
  559SOL     OW 1675   2.568   2.993   1.207 -0.6535 -0.1518  0.3364
  559SOL    HW1 1676   2.532   2.957   1.120 -3.2964 -1.0104  2.8517
  559SOL    HW2 1677   2.637   3.071   1.189  0.9874  0.3066 -2.8723
  560SOL     OW 1678   0.770   2.466   0.188 -0.3049  0.2416  0.2723
  560SOL    HW1 1679   0.856   2.407   0.194 -0.2901 -1.3625  1.8739
  560SOL    HW2 1680   0.703   2.424   0.248 -2.3151 -0.4135 -1.1316
  561SOL     OW 1681   0.995   0.672   0.139 -0.2312  0.4719  0.1919
  561SOL    HW1 1682   0.898   0.637   0.136 -3.9395 -0.6690  1.0723
  561SOL    HW2 1683   0.986   0.763   0.179 -2.1388  0.1098  0.1538
  562SOL     OW 1684   0.856   0.546   2.531 -0.4655 -0.3709  0.5382
  562SOL    HW1 1685   0.912   0.531   2.617  0.5876  1.9785  2.7102
  562SOL    HW2 1686   0.911   0.534   2.445 -0.9155 -2.0319 -2.2741
  563SOL     OW 1687   1.789   2.413   2.525 -0.0636  0.0232 -0.6420
  563SOL    HW1 1688   1.773   2.329   2.476 -0.3793  0.3384  1.7861
  563SOL    HW2 1689   1.879   2.417   2.570 -1.1379 -0.7413  0.3561
  564SOL     OW 1690   0.204   1.177   0.316  0.1884  0.3781 -0.3407
  564SOL    HW1 1691   0.280   1.153   0.256  0.7589 -0.7627  0.9142
  564SOL    HW2 1692   0.150   1.258   0.275 -1.0705  2.2126 -0.8743
  565SOL     OW 1693   1.386   2.964   2.502  0.2855  0.0830  0.7248
  565SOL    HW1 1694   1.341   2.983   2.414 -2.5356  0.0846  0.3692
  565SOL    HW2 1695   1.395   3.045   2.561  1.8203 -1.0044 -4.2192
  566SOL     OW 1696   1.859   3.054   2.367 -0.1434 -0.0861  0.2970
  566SOL    HW1 1697   1.783   2.988   2.371  1.8833  0.8934  1.5154
  566SOL    HW2 1698   1.911   3.037   2.281  0.4018  0.6388  0.5269
  567SOL     OW 1699   2.504   1.232   0.916  0.3787  0.4602  0.4937
  567SOL    HW1 1700   2.509   1.316   0.980  1.6136 -0.4925 -0.2718
  567SOL    HW2 1701   2.404   1.204   0.917 -1.1535 -0.9999 -1.0206
  568SOL     OW 1702   1.843   1.893   0.515  0.2963  0.1030 -0.4458
  568SOL    HW1 1703   1.785   1.925   0.437 -0.6526 -0.2552 -2.3546
  568SOL    HW2 1704   1.794   1.824   0.565  1.4071 -2.0079 -4.9264
  569SOL     OW 1705   2.115   1.735   3.097 -0.3571  0.4291 -0.1929
  569SOL    HW1 1706   2.119   1.642   0.028  1.0504  1.7838 -1.3199
  569SOL    HW2 1707   2.082   1.730   3.002  0.4227 -0.5428 -1.3241
  570SOL     OW 1708   3.078   2.591   1.585 -0.3656 -0.2027  0.1332
  570SOL    HW1 1709   0.032   2.645   1.534  0.0412 -3.2707  1.8406
  570SOL    HW2 1710   0.017   2.506   1.620  0.0856 -1.1839 -0.1831
  571SOL     OW 1711   0.063   0.306   2.191  0.1090 -0.4439  0.4675
  571SOL    HW1 1712   0.155   0.297   2.147 -0.1127  0.7323  0.2613
  571SOL    HW2 1713   0.049   0.398   2.237 -0.6111 -0.9826  0.1455
  572SOL     OW 1714   0.914   1.410   0.835  0.1670  0.2427 -0.0563
  572SOL    HW1 1715   0.943   1.492   0.888 -0.7915 -0.5430  0.2911
  572SOL    HW2 1716   0.907   1.421   0.731  1.3738  0.1377 -2.9523
  573SOL     OW 1717   0.867   0.372   2.900  0.2896 -0.3570  0.5788
  573SOL    HW1 1718   0.858   0.346   2.998  0.3602 -0.5168  0.7976
  573SOL    HW2 1719   0.949   0.429   2.893 -2.2758 -2.0591 -0.1932
  574SOL     OW 1720   0.750   0.087   0.661  0.1499  0.3945  0.2352
  574SOL    HW1 1721   0.819   0.081   0.583 -0.5469 -0.3675  2.6867
  574SOL    HW2 1722   0.660   0.038   0.639 -4.4075 -0.7469  1.0878
  575SOL     OW 1723   2.972   1.272   1.453 -0.5649  0.1538  0.4856
  575SOL    HW1 1724   3.047   1.257   1.385  3.3787  2.5361 -0.6832
  575SOL    HW2 1725   2.995   1.354   1.514 -1.0382 -0.8878  1.3086
  576SOL     OW 1726   2.521   0.307   1.702 -0.0045 -0.5936  0.2924
  576SOL    HW1 1727   2.452   0.315   1.775 -1.5901 -0.6257 -1.1574
  576SOL    HW2 1728   2.562   0.213   1.696 -0.1524 -0.2920 -0.3408
  577SOL     OW 1729   2.842   1.317   2.106  0.3449 -0.3944 -0.2809
  577SOL    HW1 1730   2.889   1.257   2.174 -0.8165 -0.6161  1.1880
  577SOL    HW2 1731   2.903   1.345   2.028  0.6300  1.3258 -2.0518
  578SOL     OW 1732   1.658   2.865   2.441 -0.1408 -0.3451 -0.3260
  578SOL    HW1 1733   1.645   2.772   2.401  1.5471  4.0255 -0.2081
  578SOL    HW2 1734   1.564   2.905   2.461  0.7603 -1.4336  1.2270
  579SOL     OW 1735   2.055   2.381   1.870  0.0739 -0.2430 -0.4189
  579SOL    HW1 1736   2.022   2.343   1.958 -0.1576 -0.8457 -1.4261
  579SOL    HW2 1737   2.001   2.456   1.832  1.6405  0.2884  1.3301
  580SOL     OW 1738   1.680   1.586   2.159 -0.2398 -0.3427  0.4327
  580SOL    HW1 1739   1.583   1.605   2.189  0.6039  0.6297 -0.9781
  580SOL    HW2 1740   1.692   1.630   2.068 -1.6625 -0.1237 -3.2540
  581SOL     OW 1741   1.463   1.092   2.538 -0.2325 -0.1203  0.0056
  581SOL    HW1 1742   1.556   1.077   2.576 -0.8685 -0.4818  1.5582
  581SOL    HW2 1743   1.391   1.063   2.602 -0.3273  2.3122 -0.6503
  582SOL     OW 1744   0.318   2.377   1.960  0.5242  0.3984 -0.1112
  582SOL    HW1 1745   0.371   2.328   1.889  1.5687  1.0275  1.3388
  582SOL    HW2 1746   0.280   2.463   1.923 -1.1932  0.4344 -1.6030
  583SOL     OW 1747   1.454   0.975   1.148 -0.1713 -0.3389  0.5992
  583SOL    HW1 1748   1.404   0.923   1.075 -0.9286 -1.4454 -1.1603
  583SOL    HW2 1749   1.394   0.990   1.229  1.5831  2.2831  1.3542
  584SOL     OW 1750   1.065   2.340   0.521 -0.5561 -0.3009  0.5909
  584SOL    HW1 1751   1.022   2.431   0.504 -0.3129 -2.0903 -1.8810
  584SOL    HW2 1752   0.994   2.270   0.545 -1.4839  1.2922 -0.9285
  585SOL     OW 1753   3.104   2.407   0.153  0.4713  0.1690  0.1186
  585SOL    HW1 1754   0.010   2.310   0.116  0.5202  1.3449  0.0317
  585SOL    HW2 1755   3.087   2.477   0.078  0.0109  2.0286  1.8914
  586SOL     OW 1756   2.876   1.436   0.467  0.1498 -0.5495 -0.0729
  586SOL    HW1 1757   2.954   1.373   0.444 -3.8786 -0.7070  2.9678
  586SOL    HW2 1758   2.785   1.398   0.439 -0.2362 -1.2221  1.1656
  587SOL     OW 1759   1.106   1.476   2.953  0.4094 -0.1972  0.1350
  587SOL    HW1 1760   1.133   1.385   2.923 -0.8609  0.4012  0.9250
  587SOL    HW2 1761   1.155   1.493   3.042  1.3332 -0.7616 -1.2060
  588SOL     OW 1762   0.415   0.270   0.623 -0.4961 -0.0545  0.4627
  588SOL    HW1 1763   0.389   0.182   0.653  2.5509  0.8497 -1.3540
  588SOL    HW2 1764   0.362   0.341   0.667  0.8004 -0.0617 -1.7035
  589SOL     OW 1765   1.374   0.424   0.575 -0.0336 -0.5572 -0.4560
  589SOL    HW1 1766   1.279   0.440   0.598  3.3935 -0.4857  1.1746
  589SOL    HW2 1767   1.405   0.478   0.497  0.8457 -1.8818  0.1876
  590SOL     OW 1768   2.233   2.400   0.286  0.1233 -0.3453  0.1262
  590SOL    HW1 1769   2.282   2.327   0.330  1.2199  0.7301  0.2281
  590SOL    HW2 1770   2.150   2.431   0.335 -0.4274  0.9885  1.6793
  591SOL     OW 1771   0.294   2.623   1.843 -0.1961 -0.0378  0.2123
  591SOL    HW1 1772   0.382   2.653   1.882 -0.3853 -1.0692 -1.0759
  591SOL    HW2 1773   0.295   2.625   1.741  1.7084 -2.1107  1.8044
  592SOL     OW 1774   2.817   1.827   2.183 -0.0121  0.4487 -0.2321
  592SOL    HW1 1775   2.788   1.848   2.275  1.5611 -1.5420 -3.7481
  592SOL    HW2 1776   2.914   1.848   2.176 -1.1170  1.8547  2.3525
  593SOL     OW 1777   1.564   1.347   1.440 -0.0180  0.3725 -0.0986
  593SOL    HW1 1778   1.636   1.417   1.454 -0.0823 -1.0597  1.0281
  593SOL    HW2 1779   1.585   1.302   1.347  1.1163 -3.0229 -0.4293
  594SOL     OW 1780   0.758   1.204   2.971 -0.2399  0.2084  0.3447
  594SOL    HW1 1781   0.655   1.204   2.964 -2.5988  4.2625  0.5314
  594SOL    HW2 1782   0.795   1.285   3.019 -0.8110  0.4233  0.5041
  595SOL     OW 1783   1.490   0.792   0.810  0.4138  0.5373 -0.4280
  595SOL    HW1 1784   1.398   0.755   0.785  2.5809 -1.8959  2.0792
  595SOL    HW2 1785   1.483   0.893   0.808 -1.4504 -0.0835  0.0941
  596SOL     OW 1786   2.869   1.109   1.050 -0.0596 -0.1502 -0.0631
  596SOL    HW1 1787   2.913   1.020   1.083 -0.1736 -2.7897  2.1007
  596SOL    HW2 1788   2.924   1.187   1.077 -1.5820 -4.1743 -2.6342
  597SOL     OW 1789   0.946   2.451   1.810  0.4255  0.2604  0.2572
  597SOL    HW1 1790   0.859   2.472   1.859  0.3107  0.4430 -3.0863
  597SOL    HW2 1791   0.951   2.351   1.787 -0.8961 -0.7576 -0.4191
  598SOL     OW 1792   2.245   2.618   1.812  0.0592 -0.1941 -0.0517
  598SOL    HW1 1793   2.242   2.589   1.913 -0.3488 -0.1506  1.2841
  598SOL    HW2 1794   2.279   2.541   1.753 -0.6808 -0.0358 -3.0340
  599SOL     OW 1795   0.962   1.216   0.258 -0.5542 -0.1475 -0.0163
  599SOL    HW1 1796   1.046   1.221   0.317  1.0825  2.3094 -0.9389
  599SOL    HW2 1797   0.983   1.153   0.178  3.0275  0.3530  1.0460
  600SOL     OW 1798   1.410   0.763   0.028 -0.1148  0.0561 -0.1298
  600SOL    HW1 1799   1.327   0.740   3.093  1.1743 -0.4919 -0.7886
  600SOL    HW2 1800   1.459   0.675   0.043 -1.0051 -2.2526 -0.2523
  601SOL     OW 1801   0.935   0.505   1.498 -0.2197  0.3255 -0.0453
  601SOL    HW1 1802   0.992   0.448   1.558 -0.2536 -1.0175  0.1099
  601SOL    HW2 1803   0.836   0.507   1.531 -0.0522  1.1339  1.1066
  602SOL     OW 1804   0.524   2.115   0.969  0.0919  0.2777 -0.2825
  602SOL    HW1 1805   0.456   2.081   0.906  0.8452  0.6439  1.2391
  602SOL    HW2 1806   0.531   2.217   0.959 -1.5276 -2.8056  0.8622
  603SOL     OW 1807   1.138   2.481   2.199  0.0038 -0.3535 -0.0763
  603SOL    HW1 1808   1.156   2.469   2.101 -2.4291  0.2302 -0.9091
  603SOL    HW2 1809   1.085   2.564   2.224  2.0699 -1.3441 -0.4069
  604SOL     OW 1810   0.303   2.088   0.083 -0.1166  0.3560  0.1567
  604SOL    HW1 1811   0.328   2.140   0.169 -0.6731  0.3067 -0.0930
  604SOL    HW2 1812   0.390   2.056   0.036 -0.3551  2.2238 -1.6600
  605SOL     OW 1813   1.999   1.496   1.900 -0.6075  0.0231  0.1048
  605SOL    HW1 1814   1.918   1.440   1.881  1.7786  0.2056  1.7030
  605SOL    HW2 1815   2.019   1.548   1.817  0.9812 -0.4139 -1.3334
  606SOL     OW 1816   0.950   1.075   2.835  0.7134  0.3928  0.0370
  606SOL    HW1 1817   0.888   1.122   2.902  0.0491  0.2831 -2.4246
  606SOL    HW2 1818   1.034   1.128   2.825 -2.0998  1.4741  0.5253
  607SOL     OW 1819   1.191   1.230   1.103 -0.0582  0.6304  0.2502
  607SOL    HW1 1820   1.250   1.182   1.173  1.5975  1.0470 -0.6570
  607SOL    HW2 1821   1.097   1.194   1.099 -1.2147  0.3992 -1.0327
  608SOL     OW 1822   2.670   2.140   1.998  0.0707 -0.2399 -0.2299
  608SOL    HW1 1823   2.714   2.164   1.908  0.4340  1.1911 -1.2485
  608SOL    HW2 1824   2.654   2.040   2.005 -0.8890  3.0957  1.2444
  609SOL     OW 1825   2.258   0.068   0.480 -0.5370 -0.6402 -0.3909
  609SOL    HW1 1826   2.326   0.127   0.525  0.1585 -1.5576 -0.5421
  609SOL    HW2 1827   2.303   0.019   0.403 -1.0364 -0.3141  0.0714
  610SOL     OW 1828   0.020   2.227   1.366 -0.2968  0.4634 -0.2289
  610SOL    HW1 1829   0.108   2.270   1.342 -2.2888 -0.9180 -1.3938
  610SOL    HW2 1830   0.031   2.129   1.396  1.6059 -3.4914  0.4683
  611SOL     OW 1831   1.510   2.527   0.418 -0.0869 -0.1174  0.1180
  611SOL    HW1 1832   1.590   2.459   0.402  0.2872 -1.2546 -0.1949
  611SOL    HW2 1833   1.493   2.540   0.517  2.1155 -1.2943 -2.1599
  612SOL     OW 1834   0.626   0.085   1.853  0.1846  0.2972 -0.3981
  612SOL    HW1 1835   0.724   0.076   1.884 -0.8381  1.6505 -0.7511
  612SOL    HW2 1836   0.608   0.155   1.782  0.1308  0.7152  0.0974
  613SOL     OW 1837   3.095   1.733   0.536  0.2869  0.5014  0.1535
  613SOL    HW1 1838   3.105   1.749   0.639  2.8968  0.5006  0.2211
  613SOL    HW2 1839   3.030   1.800   0.495  1.2856 -1.8265 -2.1381
  614SOL     OW 1840   1.842   0.550   2.196 -0.2444 -0.0306 -0.0806
  614SOL    HW1 1841   1.925   0.576   2.243  0.0570  0.0330 -1.2505
  614SOL    HW2 1842   1.859   0.537   2.094  0.5073  0.7558 -1.2349
  615SOL     OW 1843   0.837   1.377   1.258  0.0837 -0.1026 -0.6206
  615SOL    HW1 1844   0.779   1.396   1.340 -0.5472 -0.8518 -0.9981
  615SOL    HW2 1845   0.781   1.375   1.172 -0.5439  2.0941  0.2085
  616SOL     OW 1846   1.559   1.844   0.147  0.1296  0.7455  0.4091
  616SOL    HW1 1847   1.479   1.899   0.113 -0.1705  0.1116 -1.8652
  616SOL    HW2 1848   1.622   1.906   0.193 -1.2080 -0.0950  0.1443
  617SOL     OW 1849   2.097   2.864   0.433  0.1401 -0.2463 -0.6005
  617SOL    HW1 1850   2.168   2.918   0.388 -1.2448  0.5770  1.2579
  617SOL    HW2 1851   2.001   2.910   0.421 -2.9503  0.9228  0.5861
  618SOL     OW 1852   0.592   0.751   2.447 -0.2074 -0.1054  0.1898
  618SOL    HW1 1853   0.576   0.832   2.385  0.0311 -0.6729 -1.7730
  618SOL    HW2 1854   0.693   0.735   2.459  0.6695  0.6404 -0.6129
  619SOL     OW 1855   2.877   1.626   1.163 -0.4039  0.1020  0.0421
  619SOL    HW1 1856   2.927   1.571   1.087  1.8002 -1.1560 -1.5768
  619SOL    HW2 1857   2.790   1.668   1.129  1.0654  0.7268  0.0081
  620SOL     OW 1858   2.152   2.961   2.764 -0.6987  0.0847  0.0557
  620SOL    HW1 1859   2.185   2.906   2.685 -2.6869  0.1358  0.6222
  620SOL    HW2 1860   2.052   2.962   2.781 -1.0847  0.6795  0.7541
  621SOL     OW 1861   2.506   1.622   0.133  0.1801  0.5892 -0.4177
  621SOL    HW1 1862   2.483   1.523   0.121 -0.6978  0.8055 -1.0419
  621SOL    HW2 1863   2.523   1.637   0.238 -0.1693  0.6798  3.4434
  622SOL     OW 1864   1.957   3.053   2.108 -0.0815  0.2300 -0.4257
  622SOL    HW1 1865   1.899   0.028   2.102 -0.7302  1.6543  3.3027
  622SOL    HW2 1866   2.052   3.066   2.077  1.9280 -2.4397 -2.2154
  623SOL     OW 1867   1.114   2.040   0.999 -0.4747 -0.1183 -0.7780
  623SOL    HW1 1868   1.057   2.065   1.082 -1.2907 -0.3227  2.4402
  623SOL    HW2 1869   1.178   2.114   0.973  2.4280 -1.2379 -0.6131
  624SOL     OW 1870   0.139   3.028   3.093 -0.2159 -0.1107 -0.2442
  624SOL    HW1 1871   0.205   2.996   0.047 -0.4398  0.5537 -1.2264
  624SOL    HW2 1872   0.152   0.016   3.085 -0.4181 -0.4863  0.4570
  625SOL     OW 1873   0.874   1.768   0.738  0.7799  0.2879  0.5916
  625SOL    HW1 1874   0.866   1.703   0.816  3.2947  0.8140  1.9988
  625SOL    HW2 1875   0.954   1.827   0.747 -0.8965  0.7122  1.3982
  626SOL     OW 1876   3.072   2.873   0.140 -0.4249  0.1512 -0.0385
  626SOL    HW1 1877   0.010   2.940   0.091  0.7166  1.4156  1.3955
  626SOL    HW2 1878   0.014   2.823   0.207 -0.4058 -0.1790 -0.1060
  627SOL     OW 1879   1.300   1.855   2.836  0.1899  0.6280 -0.6407
  627SOL    HW1 1880   1.236   1.804   2.775  2.7085 -1.2162 -0.3494
  627SOL    HW2 1881   1.261   1.865   2.928  1.9928  0.6462 -2.5125
  628SOL     OW 1882   0.181   2.955   2.852 -0.2737  0.1174  0.2020
  628SOL    HW1 1883   0.266   2.895   2.852  0.8643  1.2188 -0.8226
  628SOL    HW2 1884   0.161   2.981   2.947 -0.6501  1.2928 -2.2728
  629SOL     OW 1885   0.526   2.915   2.433 -0.4267  0.8869 -0.3484
  629SOL    HW1 1886   0.567   2.910   2.525  2.7379 -0.0468 -1.8179
  629SOL    HW2 1887   0.461   2.992   2.429 -1.1384 -1.1404 -0.5212
  630SOL     OW 1888   1.420   1.106   2.034  0.2674  0.4050 -0.5733
  630SOL    HW1 1889   1.424   1.060   2.124  0.6190  0.3439  0.5482
  630SOL    HW2 1890   1.343   1.074   1.977  1.4348  2.3542  1.9777
  631SOL     OW 1891   2.207   1.112   0.646  0.4612  0.3784  0.1954
  631SOL    HW1 1892   2.272   1.188   0.632  1.2467  2.0646 -1.1115
  631SOL    HW2 1893   2.248   1.015   0.633  0.4063 -2.0027 -1.3154
  632SOL     OW 1894   2.609   0.590   2.062 -0.1788  0.3372 -0.2038
  632SOL    HW1 1895   2.657   0.666   2.117  0.2516  1.2474 -0.1200
  632SOL    HW2 1896   2.610   0.501   2.113  2.1317  1.5691 -0.4832
  633SOL     OW 1897   0.796   1.962   0.181 -0.2100  0.8746 -0.1414
  633SOL    HW1 1898   0.756   2.041   0.129 -0.1443  0.9388 -0.5692
  633SOL    HW2 1899   0.867   2.000   0.250  1.2560  1.7913  2.8468
  634SOL     OW 1900   1.826   2.790   2.644 -0.4345 -0.0201  0.5964
  634SOL    HW1 1901   1.777   2.820   2.560 -2.4649 -3.7875 -0.4423
  634SOL    HW2 1902   1.922   2.760   2.621  1.4935  0.2445  1.2204
  635SOL     OW 1903   2.159   0.387   0.162  1.1440 -0.0758  0.7074
  635SOL    HW1 1904   2.208   0.334   0.089 -0.6122  1.0479  1.5615
  635SOL    HW2 1905   2.065   0.351   0.186 -2.7305 -0.5912 -1.6324
  636SOL     OW 1906   0.839   1.356   0.484  0.4605 -0.2017 -0.4350
  636SOL    HW1 1907   0.871   1.283   0.420 -2.5456  1.1201  1.6162
  636SOL    HW2 1908   0.738   1.382   0.464 -1.1476  0.2313 -2.1306
  637SOL     OW 1909   3.101   2.109   0.535 -0.1498  0.2624  0.0257
  637SOL    HW1 1910   3.054   2.075   0.453  0.3844 -0.8956  0.5629
  637SOL    HW2 1911   3.053   2.193   0.571 -0.2707 -0.0706  1.2227
  638SOL     OW 1912   0.885   2.695   2.706  0.4451  0.0941 -0.6032
  638SOL    HW1 1913   0.970   2.743   2.681  1.0235 -2.0716 -0.4157
  638SOL    HW2 1914   0.901   2.634   2.788  1.3824 -0.4169 -1.3937
  639SOL     OW 1915   1.313   1.977   0.108  0.7185  0.1185 -0.4479
  639SOL    HW1 1916   1.250   1.953   0.034  1.6354  2.2642 -1.2160
  639SOL    HW2 1917   1.271   1.966   0.205  1.1777 -0.6773  3.8744
  640SOL     OW 1918   1.802   3.078   0.917  0.0554  0.1245 -0.2237
  640SOL    HW1 1919   1.719   3.058   0.975  0.9801 -0.9204  1.3361
  640SOL    HW2 1920   1.809   3.024   0.830  0.4876  0.4135  0.3004
  641SOL     OW 1921   3.065   2.901   0.520 -0.4012  0.0949 -0.1358
  641SOL    HW1 1922   2.970   2.941   0.509 -0.7302  0.4073 -2.2867
  641SOL    HW2 1923   0.025   2.955   0.477  0.4962 -0.0443  0.1784
  642SOL     OW 1924   1.156   0.169   1.510  0.0381  0.2315  0.0651
  642SOL    HW1 1925   1.085   0.152   1.438 -0.8579 -1.2889  0.2914
  642SOL    HW2 1926   1.118   0.225   1.585  1.7781  1.8544 -1.0129
  643SOL     OW 1927   0.477   1.697   2.014 -0.0695  0.1928  0.2322
  643SOL    HW1 1928   0.555   1.754   2.050 -0.1213  0.2457 -2.5728
  643SOL    HW2 1929   0.468   1.721   1.915 -0.3371 -0.3838 -0.6442
  644SOL     OW 1930   0.572   2.649   0.298  0.3672 -0.0729  0.0729
  644SOL    HW1 1931   0.661   2.659   0.247  1.1648 -0.2395 -0.6523
  644SOL    HW2 1932   0.513   2.570   0.265 -0.4463  1.0445 -1.8787
  645SOL     OW 1933   1.393   2.231   0.067 -0.5514 -0.3537  0.2208
  645SOL    HW1 1934   1.336   2.289   0.003  0.0172 -3.3545  0.5862
  645SOL    HW2 1935   1.364   2.132   0.067 -3.1758  2.0877  1.2421
  646SOL     OW 1936   0.470   1.223   2.882  0.3634  0.2600 -0.0517
  646SOL    HW1 1937   0.492   1.296   2.815 -2.2520  1.3595 -0.8029
  646SOL    HW2 1938   0.392   1.260   2.942  0.0100  0.8913  0.7818
  647SOL     OW 1939   0.695   0.032   0.916 -0.0097  0.2494  0.1137
  647SOL    HW1 1940   0.712   0.064   0.818 -1.2301  0.2294 -1.1510
  647SOL    HW2 1941   0.714   0.109   0.979  0.0798 -1.3638 -2.9013
  648SOL     OW 1942   1.977   0.392   1.586  0.2307  0.3299 -0.1851
  648SOL    HW1 1943   1.909   0.335   1.628  0.2299 -1.7267  0.7142
  648SOL    HW2 1944   2.073   0.379   1.620  0.4452 -0.4105 -1.1607
  649SOL     OW 1945   1.286   2.084   2.669 -0.0422  0.6648 -0.0103
  649SOL    HW1 1946   1.190   2.077   2.636 -0.1901 -0.1179  1.2710
  649SOL    HW2 1947   1.313   1.994   2.709  1.1035  1.6105  3.7886
  650SOL     OW 1948   2.652   1.855   1.959  0.2200 -0.0709  0.1168
  650SOL    HW1 1949   2.637   1.762   1.926  2.4076  1.2356 -0.9412
  650SOL    HW2 1950   2.695   1.836   2.049  0.9328 -1.5489  0.2073
  651SOL     OW 1951   1.152   0.166   2.779  0.3883  0.6039  0.4407
  651SOL    HW1 1952   1.112   0.076   2.760 -0.0018  2.0798  1.1776
  651SOL    HW2 1953   1.179   0.167   2.878 -1.6716  1.5275 -0.2014
  652SOL     OW 1954   2.954   1.662   0.051  0.4451  0.0391 -0.0728
  652SOL    HW1 1955   2.869   1.642   3.106  1.1610  2.6359  0.8103
  652SOL    HW2 1956   2.971   1.760   0.039 -2.2768  0.1067 -0.3243
  653SOL     OW 1957   0.298   0.092   1.048 -0.1444 -0.4619  0.1171
  653SOL    HW1 1958   0.266   0.068   1.142 -0.3052  0.6069  0.9274
  653SOL    HW2 1959   0.359   0.173   1.050 -0.7166 -2.5462  1.8054
  654SOL     OW 1960   2.259   0.074   2.688 -0.2434  0.6469 -0.5863
  654SOL    HW1 1961   2.235   0.075   2.590 -0.1701 -1.5574 -0.5134
  654SOL    HW2 1962   2.225   3.100   2.731 -1.8035 -0.2678  0.0284
  655SOL     OW 1963   0.514   2.382   0.988 -0.2265  0.5325  0.3525
  655SOL    HW1 1964   0.418   2.379   0.955  2.5270  1.6532 -0.1785
  655SOL    HW2 1965   0.516   2.409   1.088 -0.0556 -1.2931  1.2140
  656SOL     OW 1966   3.082   2.946   2.417 -0.2111 -0.3112  0.1571
  656SOL    HW1 1967   0.040   3.019   2.399  0.2234 -0.1024 -1.0376
  656SOL    HW2 1968   0.012   2.851   2.397 -0.3143 -2.3440 -1.3224
  657SOL     OW 1969   2.392   0.509   2.473 -0.3125 -0.1205 -0.1887
  657SOL    HW1 1970   2.380   0.538   2.377 -1.3814  2.0400  1.3286
  657SOL    HW2 1971   2.365   0.412   2.495  0.9340  0.1322  2.5089
  658SOL     OW 1972   2.198   1.847   1.037 -0.0536 -0.8182  0.2506
  658SOL    HW1 1973   2.168   1.808   0.950 -1.7909 -2.3960  2.8164
  658SOL    HW2 1974   2.259   1.788   1.085  0.8978 -0.1158  0.5385
  659SOL     OW 1975   2.268   0.025   0.050  0.2324  0.8301 -0.4620
  659SOL    HW1 1976   2.308   3.081   3.085 -0.0152 -0.3702  2.0831
  659SOL    HW2 1977   2.173   3.101   0.073  1.7646  0.2916  0.0921
  660SOL     OW 1978   1.445   1.428   3.080 -0.0525  0.0362 -0.2734
  660SOL    HW1 1979   1.498   1.516   3.068 -0.8774  0.4178 -0.5310
  660SOL    HW2 1980   1.360   1.453   0.016 -0.3804  1.1953 -0.1883
  661SOL     OW 1981   2.479   2.416   1.089 -0.1470  0.4219 -0.5666
  661SOL    HW1 1982   2.544   2.365   1.031 -1.2415  0.5202  1.7409
  661SOL    HW2 1983   2.516   2.425   1.183 -0.3325  2.2503  0.0649
  662SOL     OW 1984   0.614   0.796   0.247  0.9277 -0.0906  0.6817
  662SOL    HW1 1985   0.660   0.725   0.192 -1.6376 -0.4185  1.4819
  662SOL    HW2 1986   0.672   0.867   0.291  1.2349  0.7267 -2.0528
  663SOL     OW 1987   1.885   2.526   0.152  0.2989  0.2259  0.0364
  663SOL    HW1 1988   1.804   2.520   0.094  1.4341 -1.5608  1.1997
  663SOL    HW2 1989   1.959   2.475   0.104  0.8544  1.4048  0.8061
  664SOL     OW 1990   0.669   2.243   1.631 -0.2556  0.6218 -0.0968
  664SOL    HW1 1991   0.618   2.240   1.721 -2.1583 -0.1703  1.0855
  664SOL    HW2 1992   0.766   2.211   1.653  1.2042  0.8566 -1.8974
  665SOL     OW 1993   1.908   2.154   2.100 -0.0783  0.2263  0.4042
  665SOL    HW1 1994   1.878   2.137   2.198 -1.6340 -2.6858  3.6456
  665SOL    HW2 1995   1.977   2.082   2.079  1.6737  1.0625  1.3896
  666SOL     OW 1996   0.402   2.450   0.247  0.4464  0.5320  0.6381
  666SOL    HW1 1997   0.388   2.350   0.264  2.6161  1.9200  0.3217
  666SOL    HW2 1998   0.337   2.494   0.184 -0.3199  3.0404  3.1420
  667SOL     OW 1999   2.078   1.635   2.123 -0.0163  0.0299  0.2965
  667SOL    HW1 2000   2.008   1.641   2.198  2.3985 -1.4027  2.3317
  667SOL    HW2 2001   2.028   1.598   2.042  1.3581 -0.3467  0.8218
  668SOL     OW 2002   0.449   0.609   2.632 -0.4745  0.0006 -0.0517
  668SOL    HW1 2003   0.502   0.658   2.561 -0.2121  0.3941 -1.3922
  668SOL    HW2 2004   0.508   0.562   2.707  2.1956  0.8214  2.2801
  669SOL     OW 2005   1.641   2.404   2.758 -0.4278 -0.3251 -0.6119
  669SOL    HW1 2006   1.545   2.368   2.747 -2.6704 -0.6870 -0.2835
  669SOL    HW2 2007   1.695   2.394   2.675  2.1208 -0.9257 -0.6394
  670SOL     OW 2008   2.560   1.866   0.044 -0.5899  0.1834 -0.8187
  670SOL    HW1 2009   2.622   1.859   3.073  2.7152  0.4770  1.3853
  670SOL    HW2 2010   2.543   1.768   0.080  0.0405 -2.7498  0.0074
  671SOL     OW 2011   0.554   1.101   1.019  0.1403 -0.4691  0.8891
  671SOL    HW1 2012   0.478   1.169   1.004 -4.0256  1.9072 -2.0789
  671SOL    HW2 2013   0.557   1.079   1.118  1.5945 -1.3065 -0.3409
  672SOL     OW 2014   2.464   0.861   2.296 -0.2538 -0.3557  0.1930
  672SOL    HW1 2015   2.406   0.930   2.251  1.0003 -0.7681 -2.2927
  672SOL    HW2 2016   2.496   0.892   2.387 -2.5952 -1.7718  1.0836
  673SOL     OW 2017   2.369   2.755   2.113  0.0522  0.8252 -0.0515
  673SOL    HW1 2018   2.452   2.696   2.096  2.1053 -0.9158  2.0845
  673SOL    HW2 2019   2.283   2.698   2.120 -1.5974 -1.3255 -1.6240
  674SOL     OW 2020   1.422   2.440   2.247 -0.6242 -0.2510  0.2954
  674SOL    HW1 2021   1.326   2.461   2.237  1.5582 -0.1616 -0.5852
  674SOL    HW2 2022   1.429   2.342   2.264 -2.0217  2.2222 -2.7985
  675SOL     OW 2023   0.510   0.824   1.337  0.1294  0.2370 -0.2511
  675SOL    HW1 2024   0.428   0.814   1.280  1.4092  0.0486  1.3801
  675SOL    HW2 2025   0.517   0.738   1.395 -2.4386  0.0234 -2.0367
  676SOL     OW 2026   1.959   0.836   0.799 -0.5020 -0.2350  0.3497
  676SOL    HW1 2027   1.891   0.765   0.783  1.1564  0.4610  2.2859
  676SOL    HW2 2028   1.941   0.917   0.739 -0.8605  1.3925 -0.4650
  677SOL     OW 2029   2.900   1.422   2.765  0.1573  0.2847  0.0533
  677SOL    HW1 2030   2.936   1.422   2.670  1.7053 -0.6399  0.9161
  677SOL    HW2 2031   2.841   1.504   2.794 -0.2733  0.0936  3.0999
  678SOL     OW 2032   2.731   1.991   1.066  0.1804  0.5966  0.1423
  678SOL    HW1 2033   2.794   1.995   0.983  2.6982 -0.9033  1.8737
  678SOL    HW2 2034   2.672   1.906   1.057 -1.5480  2.2206 -1.5949
  679SOL     OW 2035   1.602   2.773   0.788 -0.0661  0.3055  0.5232
  679SOL    HW1 2036   1.553   2.687   0.752 -2.1351 -2.6948 -1.2496
  679SOL    HW2 2037   1.703   2.773   0.786  1.7065  1.8814  0.7038
  680SOL     OW 2038   0.295   2.609   2.272  0.0043 -0.4986 -0.0434
  680SOL    HW1 2039   0.388   2.630   2.313 -0.1663 -0.1002  1.1542
  680SOL    HW2 2040   0.287   2.508   2.262 -0.4977 -0.9645  1.2402
  681SOL     OW 2041   2.658   1.352   1.834 -0.4810  0.0478  0.7284
  681SOL    HW1 2042   2.754   1.330   1.828 -1.2702 -1.0416 -0.8928
  681SOL    HW2 2043   2.617   1.312   1.918  1.8243  2.7175  1.1824
  682SOL     OW 2044   0.456   1.854   1.427 -0.3560  0.2375  0.0978
  682SOL    HW1 2045   0.421   1.902   1.506  2.7631 -1.3982 -1.2678
  682SOL    HW2 2046   0.450   1.925   1.350  0.3711  2.6573 -0.7624
  683SOL     OW 2047   2.191   1.568   1.255  0.4052 -0.6760  0.2362
  683SOL    HW1 2048   2.237   1.551   1.163 -1.0144  0.1943  1.5086
  683SOL    HW2 2049   2.093   1.538   1.259  0.8460  0.5936  0.6051
  684SOL     OW 2050   2.719   1.559   3.065  0.5169  0.1186 -0.3258
  684SOL    HW1 2051   2.694   1.596   2.969 -1.1904 -0.1896 -4.4340
  684SOL    HW2 2052   2.639   1.568   0.012 -0.9784  0.5555  1.6820
  685SOL     OW 2053   1.605   1.206   2.992  0.1304  0.2896  0.1323
  685SOL    HW1 2054   1.554   1.296   2.991 -1.5623 -3.1374 -1.3673
  685SOL    HW2 2055   1.539   1.129   2.996  0.4758 -0.6110  1.3102
  686SOL     OW 2056   0.320   0.504   1.329 -0.0970 -0.6938 -0.0837
  686SOL    HW1 2057   0.343   0.456   1.241  1.7884 -0.5944 -0.9357
  686SOL    HW2 2058   0.222   0.529   1.346  1.8918  1.7405  0.8219
  687SOL     OW 2059   1.147   2.061   2.372 -0.0062  0.1109 -0.8495
  687SOL    HW1 2060   1.244   2.080   2.361  1.6819  1.3432  3.0770
  687SOL    HW2 2061   1.110   2.135   2.431  1.6164  1.3437  0.0264
  688SOL     OW 2062   0.374   1.616   1.304  0.2766 -0.1817  0.2897
  688SOL    HW1 2063   0.417   1.691   1.356  0.7684  0.6168 -2.3030
  688SOL    HW2 2064   0.336   1.658   1.215  0.6330  0.2157  1.1588
  689SOL     OW 2065   1.357   0.961   1.673 -0.7550 -0.5360  0.5281
  689SOL    HW1 2066   1.425   1.032   1.649  1.3296  0.8824  1.2882
  689SOL    HW2 2067   1.353   0.890   1.600  1.1877 -0.2096  1.2752
  690SOL     OW 2068   2.634   0.689   1.123 -0.3264 -0.2847  0.0174
  690SOL    HW1 2069   2.577   0.608   1.126 -0.3587  0.2628  0.9804
  690SOL    HW2 2070   2.731   0.665   1.095  0.7883  0.2093  1.9634
  691SOL     OW 2071   0.573   2.303   1.883 -0.4018 -0.0534 -0.3616
  691SOL    HW1 2072   0.542   2.254   1.965  1.0671 -0.7633 -1.1428
  691SOL    HW2 2073   0.627   2.389   1.909 -0.8857  1.7410 -0.1230
  692SOL     OW 2074   1.984   0.200   1.005 -0.1068 -0.0197  0.3021
  692SOL    HW1 2075   1.981   0.103   0.995  0.8059  1.1398 -0.8484
  692SOL    HW2 2076   1.904   0.245   0.962 -1.0669 -1.8539  0.8511
  693SOL     OW 2077   0.211   1.307   2.222  0.2159  0.5501 -0.5155
  693SOL    HW1 2078   0.193   1.309   2.121  1.1593 -0.1671 -1.1037
  693SOL    HW2 2079   0.236   1.397   2.260  0.8767 -4.0693 -0.8133
  694SOL     OW 2080   2.272   0.628   1.334 -0.1945 -0.7583  0.4297
  694SOL    HW1 2081   2.301   0.538   1.376 -1.6108  1.1331 -0.6001
  694SOL    HW2 2082   2.309   0.707   1.393  0.3631  3.7594  0.8780
  695SOL     OW 2083   1.007   1.451   1.688 -0.2375 -0.1774 -0.2518
  695SOL    HW1 2084   1.049   1.548   1.685 -2.5854  3.3221 -3.7152
  695SOL    HW2 2085   0.996   1.412   1.596  0.1106 -0.4859  0.8251
  696SOL     OW 2086   1.139   2.949   3.066  0.0008 -0.1863  0.0289
  696SOL    HW1 2087   1.167   2.894   0.037 -1.4011  2.3556 -1.4191
  696SOL    HW2 2088   1.215   3.012   3.040 -1.2609  0.8642  1.6917
  697SOL     OW 2089   0.881   0.290   0.823 -0.3873 -0.1855 -0.0442
  697SOL    HW1 2090   0.819   0.222   0.782 -0.0348  1.1270  0.0050
  697SOL    HW2 2091   0.971   0.265   0.801 -5.7227  3.3460  0.8679
  698SOL     OW 2092   1.109   1.298   2.396 -0.1059 -0.2294  0.6380
  698SOL    HW1 2093   1.061   1.252   2.478 -0.8919  0.5179 -0.8723
  698SOL    HW2 2094   1.184   1.360   2.424  2.1156  1.3787 -0.6275
  699SOL     OW 2095   1.730   0.806   1.164 -0.0146  0.6843  0.1577
  699SOL    HW1 2096   1.654   0.857   1.125 -1.5271 -2.6611  0.9353
  699SOL    HW2 2097   1.820   0.831   1.115  0.1587  0.4131 -1.6406
  700SOL     OW 2098   0.812   2.880   0.498 -0.4538 -0.4244 -0.0941
  700SOL    HW1 2099   0.713   2.901   0.500 -0.3932 -3.8325 -0.8941
  700SOL    HW2 2100   0.872   2.963   0.480  0.4019  0.3041  2.3863
  701SOL     OW 2101   2.553   2.855   2.721 -0.5861  0.4663  0.2776
  701SOL    HW1 2102   2.603   2.924   2.774  0.7203 -0.2909 -2.6994
  701SOL    HW2 2103   2.546   2.879   2.619 -0.8999 -0.8216 -0.6696
  702SOL     OW 2104   1.217   0.340   3.008  0.1470 -0.6135  0.3861
  702SOL    HW1 2105   1.178   0.327   3.102  0.3442 -0.7972  0.7878
  702SOL    HW2 2106   1.208   0.441   2.992 -2.1045  0.9904  3.3724
  703SOL     OW 2107   2.556   2.895   2.456  0.2292  0.3591 -0.7211
  703SOL    HW1 2108   2.497   2.972   2.425 -0.1233 -2.4154 -1.4690
  703SOL    HW2 2109   2.561   2.824   2.379 -0.7667 -0.5600 -1.2140
  704SOL     OW 2110   0.060   1.972   0.753 -0.1343  0.3727  0.0457
  704SOL    HW1 2111   0.019   2.008   0.670 -1.7235  2.5185 -0.2198
  704SOL    HW2 2112   3.103   1.977   0.829 -2.5971  1.5138 -0.7069
  705SOL     OW 2113   2.884   3.017   2.213  0.0294  0.4329 -0.2458
  705SOL    HW1 2114   2.960   2.969   2.264  1.5099 -0.7851  0.9750
  705SOL    HW2 2115   2.836   2.941   2.167 -0.9086  0.6136  4.1455
  706SOL     OW 2116   1.873   3.024   0.350  0.2385  0.2639  0.5968
  706SOL    HW1 2117   1.845   2.934   0.308 -0.2907  0.5484 -2.4585
  706SOL    HW2 2118   1.800   3.092   0.361 -1.2282  0.5519  0.7370
  707SOL     OW 2119   0.931   1.783   2.051 -0.3064 -0.5831  0.8471
  707SOL    HW1 2120   0.990   1.815   2.131  1.6643  1.5377  1.5826
  707SOL    HW2 2121   0.868   1.713   2.080  2.4599  4.8153  0.3424
  708SOL     OW 2122   0.135   2.381   1.621  0.2724  0.1561  0.0386
  708SOL    HW1 2123   0.083   2.325   1.554  0.6555 -1.1526 -0.1614
  708SOL    HW2 2124   0.232   2.367   1.605 -1.7109  1.0649 -0.4754
  709SOL     OW 2125   2.291   3.041   1.844 -0.1211  0.9417 -0.3987
  709SOL    HW1 2126   2.219   2.967   1.852  4.5457 -1.6676 -0.3018
  709SOL    HW2 2127   2.314   3.056   1.747 -1.4959 -1.1906  0.8342
  710SOL     OW 2128   2.174   0.930   2.569 -0.4372  0.3955 -0.2121
  710SOL    HW1 2129   2.118   0.961   2.649  1.0023 -0.2273  1.0002
  710SOL    HW2 2130   2.222   0.842   2.589  0.7401 -1.2907  2.7931
  711SOL     OW 2131   0.986   2.324   3.061  0.6024  0.5865 -0.5224
  711SOL    HW1 2132   0.983   2.332   0.054 -2.0560  0.2049  4.2020
  711SOL    HW2 2133   1.082   2.339   3.030  1.4128 -2.2698  1.7296
  712SOL     OW 2134   0.658   2.748   2.115  0.0074  0.6936  0.7796
  712SOL    HW1 2135   0.579   2.788   2.066  1.5888 -2.5039 -0.7729
  712SOL    HW2 2136   0.633   2.735   2.210 -0.1867  0.5963 -1.4881
  713SOL     OW 2137   1.783   1.260   0.078 -0.2096 -0.7006 -0.1048
  713SOL    HW1 2138   1.705   1.247   0.017 -0.5019 -1.3072  0.5980
  713SOL    HW2 2139   1.843   1.338   0.054  0.1350 -1.6322 -1.1113
  714SOL     OW 2140   0.743   1.167   1.466  0.4204  0.2379 -0.8875
  714SOL    HW1 2141   0.733   1.267   1.473  1.7096  2.2942  0.2235
  714SOL    HW2 2142   0.671   1.132   1.400  1.0429  2.0719  0.4559
  715SOL     OW 2143   1.766   0.385   2.993 -0.1795 -0.3095  0.1748
  715SOL    HW1 2144   1.734   0.478   2.978 -0.7441 -3.3780 -2.2783
  715SOL    HW2 2145   1.743   0.340   3.079 -0.5789 -0.1021 -0.5947
  716SOL     OW 2146   2.836   2.780   2.053  0.0548  0.0441  0.5038
  716SOL    HW1 2147   2.896   2.808   1.975  1.0349 -1.1822  0.4879
  716SOL    HW2 2148   2.876   2.701   2.107 -0.6252 -0.1422 -0.0352
  717SOL     OW 2149   3.039   0.651   1.033  0.3489 -0.2401  0.2194
  717SOL    HW1 2150   3.044   0.645   0.935 -0.5605  1.7591  3.8133
  717SOL    HW2 2151   3.032   0.557   1.071 -0.9969  3.0670  0.9331
  718SOL     OW 2152   0.527   1.354   2.341  0.0749 -0.0209  0.1344
  718SOL    HW1 2153   0.566   1.443   2.367 -0.4774 -1.0293 -0.3572
  718SOL    HW2 2154   0.496   1.354   2.243  3.6411 -0.8806 -0.0211
  719SOL     OW 2155   2.489   1.367   0.103 -0.0341 -0.1318 -0.5978
  719SOL    HW1 2156   2.391   1.347   0.109  0.9081  3.3713 -0.2987
  719SOL    HW2 2157   2.547   1.294   0.060  4.3671 -0.2568 -0.7417
  720SOL     OW 2158   1.215   0.762   0.765  0.3967 -0.5239 -0.7721
  720SOL    HW1 2159   1.170   0.668   0.753  1.4688  1.1600  1.4671
  720SOL    HW2 2160   1.215   0.798   0.861  1.5297 -1.2541  1.6511
  721SOL     OW 2161   2.560   0.386   0.183  0.0983 -0.1832 -0.0322
  721SOL    HW1 2162   2.631   0.399   0.109 -0.2130  0.7140 -1.1014
  721SOL    HW2 2163   2.518   0.293   0.201  0.0239  3.0116 -1.0750
  722SOL     OW 2164   2.032   0.694   2.772  0.3409  0.1663 -0.4542
  722SOL    HW1 2165   2.126   0.734   2.764  0.7274  2.1955 -1.8541
  722SOL    HW2 2166   2.019   0.618   2.702 -1.9503 -1.4101 -1.6580
  723SOL     OW 2167   2.740   0.540   0.421 -0.5689 -0.4291  0.1473
  723SOL    HW1 2168   2.721   0.512   0.326  3.2147  2.1702 -2.0557
  723SOL    HW2 2169   2.664   0.583   0.469  2.7584  1.7501 -2.7678
  724SOL     OW 2170   0.827   1.539   2.153  0.3249 -0.1860  0.2431
  724SOL    HW1 2171   0.785   1.567   2.238  1.4022 -1.1321 -2.6373
  724SOL    HW2 2172   0.910   1.481   2.169 -2.1476  0.4641  1.8639
  725SOL     OW 2173   1.934   0.529   1.938  0.3776  0.6006 -0.4485
  725SOL    HW1 2174   1.937   0.613   1.882 -1.6157 -1.4927  0.0213
  725SOL    HW2 2175   2.023   0.477   1.940  0.4069  0.7466 -1.1460
  726SOL     OW 2176   1.643   3.028   0.608  0.8924  0.1419  0.1717
  726SOL    HW1 2177   1.701   2.956   0.648  0.0988  5.8988 -0.5103
  726SOL    HW2 2178   1.558   2.982   0.573  1.4523 -0.4890 -0.4331
  727SOL     OW 2179   1.436   1.698   2.242  0.2069  0.5521 -0.2957
  727SOL    HW1 2180   1.356   1.676   2.179 -0.5973 -0.5975 -0.4472
  727SOL    HW2 2181   1.463   1.800   2.244 -1.2794  2.4682 -0.6221
  728SOL     OW 2182   1.991   2.886   1.598 -0.2408 -0.4514 -0.4415
  728SOL    HW1 2183   1.899   2.839   1.596 -1.5796 -0.7472 -0.0485
  728SOL    HW2 2184   2.033   2.892   1.687  0.8116 -0.9311 -1.1943
  729SOL     OW 2185   2.231   1.165   0.919 -0.3481 -0.1719 -0.0680
  729SOL    HW1 2186   2.183   1.251   0.933 -0.1289 -5.0504  0.3150
  729SOL    HW2 2187   2.195   1.111   0.837  0.2483 -2.4925  0.0700
  730SOL     OW 2188   0.399   1.403   2.565  0.9700 -0.4918  0.3136
  730SOL    HW1 2189   0.470   1.447   2.621 -1.7845 -0.1022 -0.5375
  730SOL    HW2 2190   0.433   1.353   2.482  2.5151  0.1808 -3.3665
  731SOL     OW 2191   0.240   0.062   0.782  0.6389 -0.1782  0.0937
  731SOL    HW1 2192   0.200   0.133   0.723  3.1186 -1.6986  0.0373
  731SOL    HW2 2193   0.224   0.077   0.882 -2.2006 -1.1812  0.4146
  732SOL     OW 2194   1.285   0.850   0.339  0.5224  0.3540 -0.1493
  732SOL    HW1 2195   1.271   0.911   0.258  0.4880 -0.4273 -0.7735
  732SOL    HW2 2196   1.212   0.865   0.408 -0.7052  1.1108 -2.7828
  733SOL     OW 2197   0.626   1.660   0.969 -0.0601  0.0272  0.3224
  733SOL    HW1 2198   0.632   1.560   0.989  0.5283  0.7213 -0.9890
  733SOL    HW2 2199   0.540   1.678   0.918 -2.0029  0.9187  0.4110
  734SOL     OW 2200   3.022   2.545   0.371 -0.0401 -0.1375  0.2679
  734SOL    HW1 2201   3.053   2.478   0.299  0.7804 -1.7405 -0.1862
  734SOL    HW2 2202   3.083   2.543   0.449 -0.8898  0.2653 -3.9504
  735SOL     OW 2203   1.354   0.642   1.220  0.0558 -0.3575 -0.0229
  735SOL    HW1 2204   1.339   0.549   1.261  1.3620  0.1645 -0.2166
  735SOL    HW2 2205   1.414   0.632   1.141 -1.8379 -0.8002  2.5721
  736SOL     OW 2206   2.349   2.537   0.089  0.4139 -0.3043  0.5709
  736SOL    HW1 2207   2.324   2.634   0.087 -0.0505 -2.5389 -0.3771
  736SOL    HW2 2208   2.307   2.483   0.166  0.7110 -1.8153 -0.1097
  737SOL     OW 2209   3.000   0.649   0.770  0.0410 -0.7986 -0.2294
  737SOL    HW1 2210   2.937   0.721   0.812  1.4450 -1.3313  1.4212
  737SOL    HW2 2211   2.982   0.631   0.669  0.1810 -1.2409 -0.0157
  738SOL     OW 2212   2.664   0.071   1.052  0.1863  0.1097 -0.0689
  738SOL    HW1 2213   2.699   0.035   0.964 -0.5927  0.8521  0.2448
  738SOL    HW2 2214   2.566   0.104   1.043  2.4563 -0.6579  1.3757
  739SOL     OW 2215   1.127   2.615   0.230 -0.4882  0.3012  0.2534
  739SOL    HW1 2216   1.184   2.538   0.254 -1.4084  0.5524 -0.3505
  739SOL    HW2 2217   1.165   2.706   0.266  0.1231  1.2935 -3.8039
  740SOL     OW 2218   1.786   0.526   1.226  0.6559  0.3312 -0.3921
  740SOL    HW1 2219   1.718   0.594   1.189 -0.1083  1.6739 -0.2370
  740SOL    HW2 2220   1.873   0.579   1.244  1.3550 -0.9340 -0.4358
  741SOL     OW 2221   2.827   0.843   0.905  0.0981  1.0009  0.0188
  741SOL    HW1 2222   2.875   0.874   0.988  1.2263  0.8710  1.1178
  741SOL    HW2 2223   2.732   0.891   0.897 -4.0210  2.2688  1.2105
  742SOL     OW 2224   0.615   1.415   2.726  0.2304  0.2038 -0.3279
  742SOL    HW1 2225   0.703   1.379   2.689 -4.0541  0.4101  1.6746
  742SOL    HW2 2226   0.628   1.505   2.779 -2.7631 -0.3019 -0.8866
  743SOL     OW 2227   1.439   0.652   2.127 -1.4260 -0.1371  0.3603
  743SOL    HW1 2228   1.428   0.700   2.038  0.0213  0.0288 -1.7711
  743SOL    HW2 2229   1.500   0.708   2.190 -1.9582  1.5757 -0.3132
  744SOL     OW 2230   2.204   0.882   1.661 -0.6425 -0.2182 -0.0116
  744SOL    HW1 2231   2.271   0.886   1.586  1.8119  0.8945 -0.8995
  744SOL    HW2 2232   2.189   0.976   1.689  2.6198 -3.3043 -1.8012
  745SOL     OW 2233   1.355   1.530   1.531  0.2261 -0.3444 -0.2682
  745SOL    HW1 2234   1.415   1.457   1.490 -1.3986 -1.8054 -1.1909
  745SOL    HW2 2235   1.313   1.492   1.617  1.5297 -0.0727 -2.1628
  746SOL     OW 2236   1.954   1.716   0.882  0.2127  0.3129 -0.2122
  746SOL    HW1 2237   1.859   1.703   0.909 -0.7501 -1.9599 -2.2837
  746SOL    HW2 2238   2.009   1.627   0.886  0.2296 -0.6756  0.1592
  747SOL     OW 2239   2.247   1.551   0.983 -0.4406 -0.1159  0.1187
  747SOL    HW1 2240   2.281   1.604   0.904 -0.6144  0.2288 -0.8780
  747SOL    HW2 2241   2.183   1.478   0.953  0.8577  0.8276  0.9917
  748SOL     OW 2242   0.762   2.090   1.061 -0.2564  0.0901  0.1185
  748SOL    HW1 2243   0.670   2.107   1.011 -1.6216 -1.9038 -2.2729
  748SOL    HW2 2244   0.770   2.153   1.145  0.4829 -0.7627 -1.4239
  749SOL     OW 2245   2.392   3.012   2.090  0.6235 -0.1467 -0.3365
  749SOL    HW1 2246   2.338   3.041   2.007  1.6881 -1.3919  1.3954
  749SOL    HW2 2247   2.395   2.909   2.096  0.2586 -1.1533  0.4364
  750SOL     OW 2248   2.487   0.511   0.808 -0.3543 -0.0525  0.1721
  750SOL    HW1 2249   2.439   0.445   0.744  0.0836 -2.5331 -1.7622
  750SOL    HW2 2250   2.439   0.601   0.821  1.6363  2.1969  1.6971
  751SOL     OW 2251   2.737   2.990   0.564  0.9517 -0.2001  0.2603
  751SOL    HW1 2252   2.744   2.890   0.589  0.1223 -3.1015 -0.8579
  751SOL    HW2 2253   2.695   3.003   0.472 -2.8091 -1.2019  2.5738
  752SOL     OW 2254   0.202   2.878   0.706  0.5074  0.0925  0.7708
  752SOL    HW1 2255   0.131   2.891   0.634 -1.6430  1.5214  1.7440
  752SOL    HW2 2256   0.265   2.959   0.727 -1.0552  0.0721  1.8285
  753SOL     OW 2257   1.680   0.757   2.258 -0.3244 -0.3513 -0.7620
  753SOL    HW1 2258   1.715   0.662   2.237  0.4988  1.8673  0.4130
  753SOL    HW2 2259   1.748   0.814   2.306 -0.3264 -0.3223  0.1140
  754SOL     OW 2260   1.352   2.312   1.808  0.3118 -0.0898 -0.1486
  754SOL    HW1 2261   1.420   2.373   1.761  2.2459  3.8664  0.5921
  754SOL    HW2 2262   1.392   2.219   1.832  0.1774 -1.7453  0.3483
  755SOL     OW 2263   2.558   0.691   0.578 -0.6226 -0.6316 -0.8917
  755SOL    HW1 2264   2.548   0.650   0.673 -1.4254  1.2186  1.0516
  755SOL    HW2 2265   2.563   0.791   0.585 -1.5523 -1.0069 -0.6850
  756SOL     OW 2266   1.039   1.683   2.793 -0.6582  0.4812  0.6063
  756SOL    HW1 2267   1.065   1.615   2.864 -2.7004 -0.4599 -0.2172
  756SOL    HW2 2268   0.962   1.746   2.822 -3.3446  0.1027  0.9299
  757SOL     OW 2269   0.912   0.062   0.448 -0.0092 -0.3469 -0.4873
  757SOL    HW1 2270   1.009   0.067   0.482 -0.1456 -0.5672  1.4346
  757SOL    HW2 2271   0.887   0.154   0.419  0.9609  0.6952 -1.5197
  758SOL     OW 2272   1.233   0.004   1.124  0.1871  0.4078 -0.3924
  758SOL    HW1 2273   1.206   3.101   1.028 -1.2296 -0.0465 -1.9977
  758SOL    HW2 2274   1.155   3.105   1.185  1.9630  1.5984 -0.0874
  759SOL     OW 2275   0.265   0.638   0.559 -0.4731 -0.7729  0.3770
  759SOL    HW1 2276   0.176   0.684   0.587 -2.3322  2.7070  4.1969
  759SOL    HW2 2277   0.267   0.554   0.614 -0.0745  3.7122 -1.1540
  760SOL     OW 2278   2.495   0.910   1.214  0.2484  0.3616  0.1145
  760SOL    HW1 2279   2.533   0.817   1.196  0.7646  2.6375 -0.8831
  760SOL    HW2 2280   2.560   0.984   1.189 -2.9305  0.0934  1.0065
  761SOL     OW 2281   1.814   0.516   0.780  0.0463 -0.0687 -0.1528
  761SOL    HW1 2282   1.790   0.422   0.814 -1.5451  1.1462  1.4885
  761SOL    HW2 2283   1.915   0.524   0.784  0.2732  0.0288 -0.1144
  762SOL     OW 2284   2.177   2.134   0.683  0.3059  0.1138 -0.2791
  762SOL    HW1 2285   2.100   2.064   0.712 -3.7846 -1.6340  0.9290
  762SOL    HW2 2286   2.142   2.213   0.634 -1.9765  0.2800 -0.2494
  763SOL     OW 2287   1.091   1.278   1.894 -0.7977 -0.6945 -0.2426
  763SOL    HW1 2288   1.064   1.323   1.983 -2.1037 -0.7160  1.2830
  763SOL    HW2 2289   1.042   1.325   1.815 -2.0091  1.9197 -1.6480
  764SOL     OW 2290   2.519   2.002   2.579  0.1785 -0.0290 -0.0516
  764SOL    HW1 2291   2.521   2.030   2.484 -2.1569  0.9557  2.5047
  764SOL    HW2 2292   2.486   2.079   2.635  0.6200 -2.2910  1.2031
  765SOL     OW 2293   0.888   2.553   1.071 -0.2462  0.4737 -0.1752
  765SOL    HW1 2294   0.833   2.556   0.985  0.2384  0.1228  0.2726
  765SOL    HW2 2295   0.941   2.640   1.088 -1.6808 -1.0795  1.7561
  766SOL     OW 2296   3.083   1.540   2.254 -0.0478  0.0974 -0.0490
  766SOL    HW1 2297   0.060   1.538   2.304 -1.0005  2.6688 -2.3092
  766SOL    HW2 2298   3.094   1.560   2.154  2.2372  0.3973  0.3137
  767SOL     OW 2299   2.305   0.729   2.676 -0.0913 -0.8426 -0.4507
  767SOL    HW1 2300   2.384   0.740   2.735 -2.4616  0.9657 -2.4085
  767SOL    HW2 2301   2.331   0.669   2.598 -0.8970 -0.9792 -0.6648
  768SOL     OW 2302   0.921   0.040   2.474  0.6614 -0.1502  0.0687
  768SOL    HW1 2303   0.896   0.087   2.562 -0.8509  0.6896 -2.0595
  768SOL    HW2 2304   0.839   0.021   2.416  1.4565 -1.1509  1.6430
  769SOL     OW 2305   0.248   2.425   0.914  0.2434  0.2864 -0.5659
  769SOL    HW1 2306   0.290   2.457   0.828 -1.3686 -3.3384  0.1363
  769SOL    HW2 2307   0.170   2.486   0.953 -0.5895  0.2607 -1.4841
  770SOL     OW 2308   0.591   0.376   0.032 -0.0849  0.1092  0.1662
  770SOL    HW1 2309   0.522   0.374   3.070 -3.0944 -2.0675  1.7029
  770SOL    HW2 2310   0.558   0.340   0.120 -1.1079  3.3489  4.2633
  771SOL     OW 2311   1.086   1.608   2.515  0.1646 -0.1995  0.2604
  771SOL    HW1 2312   1.046   1.631   2.607 -0.4638 -0.6254  0.5513
  771SOL    HW2 2313   1.175   1.563   2.517 -0.3989  1.7188 -1.1964
  772SOL     OW 2314   2.343   3.085   2.344 -0.3239  0.3026  0.0810
  772SOL    HW1 2315   2.373   3.073   2.249  1.0125  4.3308 -1.2377
  772SOL    HW2 2316   2.253   3.041   2.361 -0.7434 -1.1639  0.6353
  773SOL     OW 2317   1.470   0.372   2.108  0.7090  0.2440 -0.3860
  773SOL    HW1 2318   1.463   0.470   2.129 -0.4578 -0.4041 -0.1709
  773SOL    HW2 2319   1.526   0.367   2.022 -1.1452  1.6405 -3.2421
  774SOL     OW 2320   1.439   0.773   1.462  0.0042  0.2247 -0.0281
  774SOL    HW1 2321   1.379   0.737   1.384 -0.5179  0.7348 -0.6039
  774SOL    HW2 2322   1.539   0.765   1.436  0.2074  0.8612  0.5949
  775SOL     OW 2323   2.340   2.937   0.281 -0.5799  0.4955 -0.3466
  775SOL    HW1 2324   2.314   2.922   0.184  1.7400  0.2981 -0.6730
  775SOL    HW2 2325   2.423   2.877   0.309  1.8520 -0.9659  0.4036
  776SOL     OW 2326   2.081   0.798   2.052  0.2359  0.1316  0.2291
  776SOL    HW1 2327   1.996   0.835   2.019  0.7994 -0.2034 -0.2233
  776SOL    HW2 2328   2.138   0.874   2.096  0.0125  2.2593  1.1409
  777SOL     OW 2329   2.942   1.488   2.504 -0.2749  0.2335  0.3030
  777SOL    HW1 2330   2.855   1.440   2.484 -0.3093  1.0500 -4.0283
  777SOL    HW2 2331   2.977   1.513   2.412 -1.5893  1.2788 -2.0540
  778SOL     OW 2332   2.396   1.089   2.521  0.5405  0.1952 -0.2840
  778SOL    HW1 2333   2.320   1.028   2.549 -0.6119 -0.0894  0.0483
  778SOL    HW2 2334   2.487   1.056   2.544 -1.2080  4.3799 -1.9940
  779SOL     OW 2335   2.861   0.348   2.758 -0.1910 -0.1585  0.5815
  779SOL    HW1 2336   2.934   0.405   2.805  2.0405 -0.6126 -0.3852
  779SOL    HW2 2337   2.892   0.250   2.756  0.7985 -0.9075  1.5008
  780SOL     OW 2338   2.383   2.567   2.430  0.1064 -0.5891  0.0853
  780SOL    HW1 2339   2.328   2.495   2.387  2.4218  1.3313  0.2632
  780SOL    HW2 2340   2.449   2.609   2.364 -0.2090  3.6859  0.4823
  781SOL     OW 2341   3.073   1.125   1.824 -0.4355 -0.4059  0.7984
  781SOL    HW1 2342   3.038   1.083   1.909 -0.5524  0.9042 -0.2741
  781SOL    HW2 2343   3.047   1.081   1.732  0.9257  0.8792  0.6557
  782SOL     OW 2344   1.750   2.423   3.007 -0.6694 -0.6925  0.1876
  782SOL    HW1 2345   1.697   2.419   2.921  1.2416 -0.3387 -0.9929
  782SOL    HW2 2346   1.845   2.408   2.982 -1.5040 -0.1128 -2.5995
  783SOL     OW 2347   0.940   2.391   1.287  0.1173  0.3811 -0.2053
  783SOL    HW1 2348   0.975   2.449   1.362 -0.5809 -0.3292 -1.5986
  783SOL    HW2 2349   0.933   2.444   1.203 -2.8763 -1.7038  1.2479
  784SOL     OW 2350   2.324   0.622   2.240 -0.2334 -0.9379 -0.6506
  784SOL    HW1 2351   2.303   0.588   2.148  1.7741  1.1616 -0.1215
  784SOL    HW2 2352   2.386   0.703   2.229 -0.2233 -0.6246  1.8738
  785SOL     OW 2353   0.225   0.025   1.311  0.7063  0.4735 -0.0562
  785SOL    HW1 2354   0.150   0.093   1.336 -1.1998  2.4599 -0.9003
  785SOL    HW2 2355   0.228   3.057   1.374 -1.6762  0.7841 -0.4738
  786SOL     OW 2356   1.252   2.836   0.354  0.4329  0.1644 -0.1727
  786SOL    HW1 2357   1.203   2.862   0.434  2.2495 -0.8103 -0.1825
  786SOL    HW2 2358   1.266   2.922   0.302 -1.7243  1.6310  1.3012
  787SOL     OW 2359   1.410   0.306   0.835 -0.0042  0.3349 -0.0262
  787SOL    HW1 2360   1.407   0.378   0.763  0.5307 -0.8566 -0.6056
  787SOL    HW2 2361   1.441   0.216   0.797  1.4581 -0.8496 -1.0358
  788SOL     OW 2362   3.067   1.312   1.056 -0.5079  0.0757  0.1753
  788SOL    HW1 2363   0.013   1.377   0.996  2.4710  1.7695  0.2614
  788SOL    HW2 2364   3.110   1.296   1.152  3.2867 -0.7699  2.2674
  789SOL     OW 2365   2.732   0.715   2.245 -0.3443  0.6993 -0.1679
  789SOL    HW1 2366   2.663   0.775   2.294 -1.4182 -0.4091  0.5317
  789SOL    HW2 2367   2.813   0.682   2.301  0.0979 -0.9210 -0.7117
  790SOL     OW 2368   0.996   0.836   2.965 -0.4531  0.1152  0.6419
  790SOL    HW1 2369   0.992   0.924   2.913  1.5395 -0.6178 -1.0866
  790SOL    HW2 2370   0.910   0.783   2.966  0.0853  2.1074  0.9051
  791SOL     OW 2371   0.104   2.694   0.273 -0.3512 -0.9882 -0.4234
  791SOL    HW1 2372   0.138   2.646   0.192 -1.3978  1.9452 -1.6772
  791SOL    HW2 2373   0.020   2.639   0.308 -3.3631 -1.0600  1.0397
  792SOL     OW 2374   1.087   0.663   1.898 -0.6091 -0.0019 -0.7758
  792SOL    HW1 2375   1.134   0.751   1.908  0.6938  0.5989 -2.3667
  792SOL    HW2 2376   1.151   0.588   1.863 -0.1222 -0.9185 -2.3885
  793SOL     OW 2377   3.034   0.408   1.161  0.9690  0.4836  0.1252
  793SOL    HW1 2378   3.036   0.430   1.258  0.0818 -2.5136  0.0447
  793SOL    HW2 2379   2.951   0.351   1.139  2.2424 -1.4496 -0.9277
  794SOL     OW 2380   2.921   0.193   2.171 -0.2181 -0.4049 -0.1975
  794SOL    HW1 2381   2.942   0.096   2.168 -2.0333  2.9841 -2.6674
  794SOL    HW2 2382   3.011   0.243   2.188  2.4265 -0.5490  0.7563
  795SOL     OW 2383   0.490   1.746   3.058 -0.0105  0.2377  0.0811
  795SOL    HW1 2384   0.484   1.714   0.043 -0.6870  2.0677  0.7121
  795SOL    HW2 2385   0.513   1.845   3.059 -0.6870 -0.3265  0.8948
  796SOL     OW 2386   2.803   0.703   3.003 -0.3751 -0.3227  0.0728
  796SOL    HW1 2387   2.777   0.717   2.907  0.7292 -0.2922 -0.2717
  796SOL    HW2 2388   2.718   0.697   3.062  0.9979 -1.0745 -0.1281
  797SOL     OW 2389   2.395   2.227   2.703 -0.3833  0.4930 -0.3242
  797SOL    HW1 2390   2.336   2.254   2.625 -4.0540 -1.0783  1.3136
  797SOL    HW2 2391   2.471   2.292   2.724 -0.6242  0.4378 -1.4287
  798SOL     OW 2392   3.018   0.006   0.974  0.1241 -0.1409 -0.0623
  798SOL    HW1 2393   3.079   3.038   0.961  3.2585  3.4594  0.6625
  798SOL    HW2 2394   3.045   0.086   0.918 -0.1675  0.2095  2.3603
  799SOL     OW 2395   2.937   0.611   1.792 -0.1595  0.2350 -0.1596
  799SOL    HW1 2396   2.999   0.533   1.802  1.0584  1.4707 -1.7027
  799SOL    HW2 2397   2.839   0.583   1.793 -1.6830  0.5418  0.1545
  800SOL     OW 2398   0.440   1.662   0.225  0.6316 -0.0588 -0.1996
  800SOL    HW1 2399   0.433   1.560   0.220 -0.0679 -1.2708  1.7267
  800SOL    HW2 2400   0.358   1.700   0.268  1.2638 -1.6721 -0.9420
  801SOL     OW 2401   1.588   2.111   0.645 -0.3038 -0.2517 -0.6529
  801SOL    HW1 2402   1.496   2.108   0.606 -1.4492  0.3926  0.3305
  801SOL    HW2 2403   1.616   2.016   0.663 -1.5242 -0.6621  0.6813
  802SOL     OW 2404   1.376   1.011   2.979 -0.2171 -0.4280 -0.8010
  802SOL    HW1 2405   1.351   0.975   2.890  1.7702  0.0115  1.7092
  802SOL    HW2 2406   1.414   0.938   3.039 -0.3015 -2.7494 -1.4511
  803SOL     OW 2407   1.266   1.762   1.869 -0.0609 -0.4226  0.2128
  803SOL    HW1 2408   1.228   1.855   1.899 -4.8972  2.4039  2.8144
  803SOL    HW2 2409   1.265   1.693   1.945  0.5939 -1.4510 -0.2661
  804SOL     OW 2410   1.502   2.523   0.684 -0.3441  0.2018  0.2523
  804SOL    HW1 2411   1.564   2.451   0.648 -2.0766 -0.0878  1.3907
  804SOL    HW2 2412   1.412   2.486   0.707  1.9656 -1.1544 -0.7531
  805SOL     OW 2413   3.097   2.346   2.129 -0.6768  0.5434 -0.1721
  805SOL    HW1 2414   3.107   2.322   2.032 -0.7793 -0.8667 -0.8762
  805SOL    HW2 2415   0.079   2.353   2.168  1.0569  2.1595  0.8833
  806SOL     OW 2416   0.170   3.025   0.405  0.1939  0.3501 -0.5510
  806SOL    HW1 2417   0.173   3.090   0.329 -2.2821  0.5226 -3.7684
  806SOL    HW2 2418   0.248   2.955   0.405  1.3553 -0.7490  1.0902
  807SOL     OW 2419   2.525   0.761   2.842 -0.2838  0.1496 -0.0988
  807SOL    HW1 2420   2.493   0.750   2.937 -1.9351 -1.2190  0.1510
  807SOL    HW2 2421   2.600   0.697   2.820  0.6147  2.6283  2.5536
  808SOL     OW 2422   1.324   2.827   0.830  0.5534  0.0126 -0.3070
  808SOL    HW1 2423   1.293   2.762   0.903  1.4451 -1.0722  1.0797
  808SOL    HW2 2424   1.422   2.849   0.838  0.1886 -0.0653  2.2521
  809SOL     OW 2425   3.021   0.230   0.358  0.2021  0.0332 -0.4466
  809SOL    HW1 2426   2.990   0.150   0.296  0.5210 -1.3179 -0.1124
  809SOL    HW2 2427   3.040   0.320   0.311 -0.7757  0.3282  1.7828
  810SOL     OW 2428   1.333   1.281   0.852 -0.0686 -0.0936  0.1107
  810SOL    HW1 2429   1.280   1.277   0.940 -1.4295 -1.3958 -0.1954
  810SOL    HW2 2430   1.361   1.190   0.816  0.3376 -0.9877 -1.0273
  811SOL     OW 2431   1.710   2.890   1.362  0.0587 -0.2868  0.5667
  811SOL    HW1 2432   1.733   2.984   1.331 -1.9977 -2.0952  0.7059
  811SOL    HW2 2433   1.623   2.888   1.413  0.1487  2.1486 -0.6690
  812SOL     OW 2434   1.470   0.296   0.183 -0.2532 -0.9643  0.1503
  812SOL    HW1 2435   1.489   0.268   0.279  0.4778 -0.4179  0.1918
  812SOL    HW2 2436   1.394   0.241   0.148  2.0584  1.0864 -1.9568
  813SOL     OW 2437   1.270   3.026   1.964  0.1877 -0.1632  0.3334
  813SOL    HW1 2438   1.299   3.027   2.063  4.0511 -1.0277 -0.5997
  813SOL    HW2 2439   1.349   2.990   1.912 -0.9707 -1.2495  0.9470
  814SOL     OW 2440   0.463   3.005   0.936  0.1564 -0.0901 -0.0364
  814SOL    HW1 2441   0.557   3.039   0.945 -4.4011 -3.3342  0.8770
  814SOL    HW2 2442   0.400   3.081   0.962  1.8462  0.3730  0.0231
  815SOL     OW 2443   0.323   2.619   0.735 -0.1293 -0.3631  0.1654
  815SOL    HW1 2444   0.250   2.693   0.744 -3.3264 -0.4717  2.8518
  815SOL    HW2 2445   0.308   2.559   0.657 -1.1154  1.5250  0.3622
  816SOL     OW 2446   2.530   1.497   2.610 -0.2515 -0.4626 -0.1124
  816SOL    HW1 2447   2.501   1.408   2.649 -1.9539  1.3085 -0.3765
  816SOL    HW2 2448   2.451   1.547   2.572  1.6323 -2.3784 -3.4581
  817SOL     OW 2449   1.625   2.683   2.794  0.1401 -0.1193 -0.1152
  817SOL    HW1 2450   1.675   2.594   2.807 -0.4556  2.9216 -0.3543
  817SOL    HW2 2451   1.685   2.750   2.737  2.5444  0.9132  0.7664
  818SOL     OW 2452   1.512   0.972   0.461  0.1773  0.3953  0.1203
  818SOL    HW1 2453   1.486   1.065   0.442 -0.6800 -3.6688  1.2783
  818SOL    HW2 2454   1.442   0.905   0.429 -0.1229 -1.0661 -1.4409
  819SOL     OW 2455   1.916   1.966   2.937 -0.1499  0.4197  0.6290
  819SOL    HW1 2456   1.853   1.900   2.984  0.9995  1.7936 -0.9591
  819SOL    HW2 2457   1.946   1.929   2.846 -2.0418  0.6353 -1.5016
  820SOL     OW 2458   0.704   0.608   0.072 -0.6934  0.8439 -0.2403
  820SOL    HW1 2459   0.718   0.662   3.097 -0.0319  1.8894 -0.8786
  820SOL    HW2 2460   0.654   0.518   0.061 -0.5950 -1.3005 -1.9694
  821SOL     OW 2461   0.422   0.347   1.080 -0.2721  0.1984 -0.3071
  821SOL    HW1 2462   0.407   0.440   1.041  0.6702 -3.1797  0.5795
  821SOL    HW2 2463   0.524   0.326   1.082  0.5833  0.1564  0.7565
  822SOL     OW 2464   1.645   2.601   2.334  0.2655  0.0130 -0.5227
  822SOL    HW1 2465   1.670   2.566   2.427 -0.6632  0.9110  0.0934
  822SOL    HW2 2466   1.564   2.554   2.283 -1.9727 -0.2576  0.2696
  823SOL     OW 2467   0.880   0.850   2.264  0.3287 -0.1463 -0.3728
  823SOL    HW1 2468   0.971   0.849   2.222  0.7096 -1.6974  0.1038
  823SOL    HW2 2469   0.877   0.859   2.367  1.7794  0.1433  0.3223
  824SOL     OW 2470   2.621   0.032   1.648 -0.2904 -0.0133 -0.4271
  824SOL    HW1 2471   2.531   3.101   1.631 -2.2703 -1.1683 -1.0173
  824SOL    HW2 2472   2.663   0.065   1.559  3.0747  0.4541 -0.4504
  825SOL     OW 2473   0.761   1.369   0.160 -0.2405 -0.4430 -0.4372
  825SOL    HW1 2474   0.841   1.308   0.184 -1.1427 -0.1594 -1.0263
  825SOL    HW2 2475   0.772   1.414   0.068  0.8379 -1.8343 -0.6830
  826SOL     OW 2476   1.985   0.483   2.618 -0.0025  0.2512 -0.1570
  826SOL    HW1 2477   2.030   0.406   2.667  1.2465 -0.9511  1.9713
  826SOL    HW2 2478   1.905   0.456   2.565  0.2913 -2.9183 -0.3717
  827SOL     OW 2479   0.725   2.231   2.560  0.2151  0.3888 -0.1998
  827SOL    HW1 2480   0.707   2.245   2.460 -1.7008  0.4690 -1.7074
  827SOL    HW2 2481   0.669   2.285   2.625 -0.4843 -0.3784  2.9281
  828SOL     OW 2482   2.991   0.036   1.238  0.2120 -0.2729  0.0389
  828SOL    HW1 2483   2.983   0.028   1.134  0.5275  2.6444 -0.8622
  828SOL    HW2 2484   3.061   0.106   1.266 -0.4561 -1.3785 -1.0147
  829SOL     OW 2485   1.166   1.686   1.399 -0.5608  0.0430  0.2286
  829SOL    HW1 2486   1.254   1.633   1.407 -2.1136  0.9592  1.4771
  829SOL    HW2 2487   1.143   1.720   1.493  0.7585  4.6106  3.2593
  830SOL     OW 2488   0.623   1.038   1.816 -0.1035 -0.1898 -0.0829
  830SOL    HW1 2489   0.699   0.996   1.760 -0.6731  1.4417 -1.0529
  830SOL    HW2 2490   0.540   1.022   1.768  2.9944 -1.1489  1.4950
  831SOL     OW 2491   0.107   1.919   0.147 -0.3909 -0.6664  0.1255
  831SOL    HW1 2492   0.045   1.917   0.064 -2.8956 -1.7776 -0.7538
  831SOL    HW2 2493   0.192   1.970   0.120 -0.7075  0.6784  0.0773
  832SOL     OW 2494   0.745   3.043   2.866  0.2264 -0.3803 -0.2648
  832SOL    HW1 2495   0.850   3.042   2.852  1.7650 -3.5502 -1.2224
  832SOL    HW2 2496   0.723   2.989   2.951  2.5384 -0.4407  0.0720
  833SOL     OW 2497   0.049   0.301   1.913 -0.4240  0.1066  0.1442
  833SOL    HW1 2498   0.022   0.281   2.008  2.7737 -2.9320  0.9272
  833SOL    HW2 2499   0.101   0.392   1.919 -0.5094  0.7524 -0.7402
  834SOL     OW 2500   0.181   0.769   0.968  0.0359 -0.2477  0.0120
  834SOL    HW1 2501   0.195   0.800   0.872  1.4970 -2.1486  3.3101
  834SOL    HW2 2502   0.086   0.784   0.995 -0.8080 -1.0282  1.0069
  835SOL     OW 2503   2.496   2.871   0.968 -0.2023  0.2883  0.3292
  835SOL    HW1 2504   2.462   2.918   0.886  0.0225 -3.0206 -1.4218
  835SOL    HW2 2505   2.596   2.852   0.962  3.1422 -2.5039 -1.6167
  836SOL     OW 2506   0.828   1.871   2.866  0.2452  0.2886 -0.8067
  836SOL    HW1 2507   0.769   1.914   2.794  0.8121  1.2722 -2.1714
  836SOL    HW2 2508   0.878   1.946   2.916  0.4340  1.0938 -0.9007
  837SOL     OW 2509   2.084   2.143   3.051  0.2931  0.0611  0.6217
  837SOL    HW1 2510   2.023   2.079   3.004  2.3718  3.4038  1.2617
  837SOL    HW2 2511   2.177   2.135   3.005  1.1763 -2.1399 -0.4632
  838SOL     OW 2512   3.017   1.187   2.263 -0.0517 -0.3763 -0.5345
  838SOL    HW1 2513   3.067   1.127   2.329 -0.8341 -0.7907  0.7549
  838SOL    HW2 2514   3.066   1.275   2.258  0.7800 -0.3178  0.3864
  839SOL     OW 2515   1.051   0.979   0.102 -0.3159  0.3816 -0.1731
  839SOL    HW1 2516   1.046   0.928   0.015 -2.1485  1.1720  4.2717
  839SOL    HW2 2517   1.147   1.002   0.127 -1.4415  0.4950 -1.9225
  840SOL     OW 2518   1.601   0.572   0.352 -0.0308 -0.2177 -0.3767
  840SOL    HW1 2519   1.651   0.663   0.367  0.5946  2.5694  1.2567
  840SOL    HW2 2520   1.504   0.589   0.352  0.1376 -1.2398  3.5059
  841SOL     OW 2521   0.867   2.793   0.754  0.0117 -0.3811 -0.0147
  841SOL    HW1 2522   0.818   2.705   0.784  0.9068 -3.6955 -0.0895
  841SOL    HW2 2523   0.835   2.811   0.658  0.7398  0.7990 -0.0437
  842SOL     OW 2524   0.123   0.574   0.294 -0.1299 -0.3375  0.0612
  842SOL    HW1 2525   0.033   0.556   0.250 -3.2741 -0.7313 -1.4783
  842SOL    HW2 2526   0.138   0.654   0.353 -0.0902 -1.2603 -1.9164
  843SOL     OW 2527   0.702   0.516   1.620  0.1728 -0.1405  0.0393
  843SOL    HW1 2528   0.750   0.584   1.679  1.1862  1.5646 -1.0526
  843SOL    HW2 2529   0.616   0.560   1.592 -0.4511  1.9524 -0.3321
  844SOL     OW 2530   2.073   2.535   2.927 -0.4231  0.3847  0.0629
  844SOL    HW1 2531   2.038   2.629   2.949 -0.9029  1.9623 -1.4455
  844SOL    HW2 2532   2.126   2.493   3.000 -1.8659  1.7033 -0.5516
  845SOL     OW 2533   2.778   0.271   1.948  0.1646  0.0939 -0.2878
  845SOL    HW1 2534   2.725   0.181   1.939 -1.5022 -3.5441 -0.5104
  845SOL    HW2 2535   2.833   0.267   2.034  2.1095  0.1838  0.6312
  846SOL     OW 2536   2.010   1.826   2.715  0.3475  0.1917  0.2090
  846SOL    HW1 2537   2.069   1.749   2.746  0.3620  0.7165 -0.4645
  846SOL    HW2 2538   2.035   1.876   2.632 -0.2757  3.0805 -0.3198
  847SOL     OW 2539   2.103   2.835   1.871  1.0246  0.0085 -0.0771
  847SOL    HW1 2540   2.029   2.809   1.935 -2.0210 -0.2455  0.3144
  847SOL    HW2 2541   2.141   2.747   1.837  1.9290 -2.4468 -1.7085
  848SOL     OW 2542   0.334   2.807   0.393  0.6262 -0.0621 -0.3989
  848SOL    HW1 2543   0.408   2.774   0.335 -0.1390 -0.2505  2.0441
  848SOL    HW2 2544   0.236   2.789   0.358 -5.0394 -1.1085 -0.1672
  849SOL     OW 2545   0.724   2.993   1.470 -0.0976 -0.3093  0.4204
  849SOL    HW1 2546   0.728   3.086   1.433  1.0228 -2.0734 -0.2771
  849SOL    HW2 2547   0.671   2.987   1.557  0.2375  0.4641 -0.5070
  850SOL     OW 2548   0.069   1.538   0.944 -0.2476  0.3259 -0.0359
  850SOL    HW1 2549   0.010   1.601   0.891  3.3903 -0.7297  3.2069
  850SOL    HW2 2550   0.140   1.591   0.996 -1.3609 -0.0437  0.1048
  851SOL     OW 2551   3.001   0.545   2.892  0.2136  0.2426 -0.5144
  851SOL    HW1 2552   3.057   0.599   2.827  1.6902  0.4731  0.2924
  851SOL    HW2 2553   2.920   0.598   2.927 -2.0105 -0.4927  2.6113
  852SOL     OW 2554   1.878   2.123   2.373 -1.1809 -0.6536 -0.5711
  852SOL    HW1 2555   1.888   2.124   2.472  0.4258 -1.6388 -0.8106
  852SOL    HW2 2556   1.802   2.060   2.355 -1.5684 -1.6938  0.4265
  853SOL     OW 2557   0.636   1.734   0.599  0.4044  0.7834  0.1459
  853SOL    HW1 2558   0.720   1.747   0.657  2.3273 -0.0577 -0.4226
  853SOL    HW2 2559   0.659   1.717   0.498 -0.0277 -4.1053 -1.1812
  854SOL     OW 2560   1.630   1.158   1.919 -0.6778 -0.1004  0.2850
  854SOL    HW1 2561   1.540   1.141   1.960  0.5624 -0.1101 -2.2615
  854SOL    HW2 2562   1.650   1.080   1.853  2.4103 -1.0889  0.6154
  855SOL     OW 2563   0.447   1.980   2.798  0.6202  0.0928  0.8698
  855SOL    HW1 2564   0.390   1.905   2.836  0.1642  3.2528  0.7783
  855SOL    HW2 2565   0.391   2.057   2.754 -1.2209  1.1055  1.3081
  856SOL     OW 2566   0.334   3.018   1.654  0.1164  0.5543 -0.1482
  856SOL    HW1 2567   0.284   2.957   1.590  2.3859 -0.5780 -0.1478
  856SOL    HW2 2568   0.275   3.051   1.733 -1.3933 -0.3063  0.2769
  857SOL     OW 2569   0.592   0.294   1.682  0.0419 -0.0935 -0.6322
  857SOL    HW1 2570   0.546   0.324   1.766  2.2011  3.0597 -2.1887
  857SOL    HW2 2571   0.645   0.369   1.639 -0.7532 -0.3928 -2.8288
  858SOL     OW 2572   0.071   1.889   2.485  1.0782 -0.0435  0.2464
  858SOL    HW1 2573   0.018   1.819   2.533 -0.6202 -3.5658 -0.3273
  858SOL    HW2 2574   0.003   1.943   2.426 -1.2393 -0.0080  0.6073
  859SOL     OW 2575   2.051   2.425   0.864 -0.3285  0.7833  0.4109
  859SOL    HW1 2576   2.106   2.390   0.940 -0.0870 -0.0180 -2.5172
  859SOL    HW2 2577   1.952   2.414   0.884 -1.4616 -2.7262 -1.6857
  860SOL     OW 2578   1.833   0.500   0.451  0.1165  0.0774 -0.4166
  860SOL    HW1 2579   1.846   0.488   0.550  0.0909 -0.2077 -0.2961
  860SOL    HW2 2580   1.732   0.504   0.437 -0.1914 -1.8252 -0.3252
  861SOL     OW 2581   0.282   0.473   0.770  0.7160 -0.0953  0.3454
  861SOL    HW1 2582   0.366   0.507   0.817 -0.1922  2.3551 -0.6114
  861SOL    HW2 2583   0.209   0.458   0.840 -0.1904  0.4069 -1.2068
  862SOL     OW 2584   2.316   0.656   1.729  0.4302 -0.2081 -0.4316
  862SOL    HW1 2585   2.302   0.570   1.678  0.9985  1.8155 -0.2496
  862SOL    HW2 2586   2.260   0.741   1.701 -1.0372 -0.1269  1.1564
  863SOL     OW 2587   0.308   1.350   1.212  0.2115 -0.8072 -0.3511
  863SOL    HW1 2588   0.319   1.324   1.117 -2.7132 -0.1984  3.6635
  863SOL    HW2 2589   0.321   1.452   1.225  3.8704  1.3082 -0.1383
  864SOL     OW 2590   2.645   0.053   1.924 -0.0919  0.2568  0.1678
  864SOL    HW1 2591   2.611   0.026   1.831  0.6582  0.8411  0.0498
  864SOL    HW2 2592   2.572   0.040   1.997  1.5587 -1.1332 -0.1875
  865SOL     OW 2593   1.811   0.181   2.141  0.3014 -0.4133 -0.1198
  865SOL    HW1 2594   1.782   0.240   2.068 -3.5235 -1.5336  1.3491
  865SOL    HW2 2595   1.727   0.152   2.196 -0.6315 -2.4946 -0.1293
  866SOL     OW 2596   2.478   2.976   0.718  0.4559 -0.2539 -0.4056
  866SOL    HW1 2597   2.397   2.929   0.669  0.1300 -1.3615 -1.2207
  866SOL    HW2 2598   2.565   2.977   0.663  0.6306  0.5934  0.7592
  867SOL     OW 2599   2.599   2.582   0.815  0.4379 -0.0730 -0.4390
  867SOL    HW1 2600   2.527   2.611   0.881 -0.7433  0.5034  3.5502
  867SOL    HW2 2601   2.568   2.498   0.768 -0.6067  1.9654  1.2411
  868SOL     OW 2602   1.566   1.782   2.848  0.6720  0.0915  0.0919
  868SOL    HW1 2603   1.465   1.800   2.844  2.0823 -0.5898 -1.4803
  868SOL    HW2 2604   1.580   1.708   2.919 -0.7224 -0.0844  2.6105
  869SOL     OW 2605   2.408   1.919   0.623  0.4693  0.1626  0.0919
  869SOL    HW1 2606   2.391   1.967   0.532 -1.0932  0.4576  0.0914
  869SOL    HW2 2607   2.415   1.985   0.702 -1.9925 -2.2794  2.1026
  870SOL     OW 2608   2.818   1.947   0.427 -0.2881  0.2326  0.0408
  870SOL    HW1 2609   2.841   1.860   0.377  1.6168 -1.2515 -2.4369
  870SOL    HW2 2610   2.804   2.024   0.360  0.4276 -1.1093  0.4391
  871SOL     OW 2611   0.349   0.987   1.630 -0.3468 -0.6180  0.0597
  871SOL    HW1 2612   0.335   1.062   1.569 -1.3974 -0.8327  2.8645
  871SOL    HW2 2613   0.343   0.899   1.580 -1.5035  2.3291  2.2952
  872SOL     OW 2614   0.234   1.768   2.116  0.1969  0.2045  0.3000
  872SOL    HW1 2615   0.174   1.704   2.062 -1.9188 -0.6333 -1.8772
  872SOL    HW2 2616   0.335   1.757   2.095  2.1231  0.3454 -1.0825
  873SOL     OW 2617   0.164   2.646   1.413 -0.3352  0.4298  0.0128
  873SOL    HW1 2618   0.155   2.626   1.311 -2.4221  0.4527  1.8779
  873SOL    HW2 2619   0.248   2.612   1.455  2.4144  1.0779 -1.8156
  874SOL     OW 2620   0.877   0.654   2.056  0.0193 -0.2825  0.3708
  874SOL    HW1 2621   0.897   0.658   2.153 -1.9447 -0.2006  0.9179
  874SOL    HW2 2622   0.963   0.652   1.997  3.0421 -0.1597 -0.9059
  875SOL     OW 2623   2.766   2.886   0.943  0.4434  0.3191  0.4687
  875SOL    HW1 2624   2.850   2.869   0.994 -0.1380  2.8292 -1.7342
  875SOL    HW2 2625   2.768   2.979   0.905 -1.7091 -0.6323  1.1711
  876SOL     OW 2626   1.190   1.313   0.494 -0.3868 -0.4794 -0.5311
  876SOL    HW1 2627   1.152   1.249   0.560 -0.6302  1.1010 -3.2640
  876SOL    HW2 2628   1.156   1.408   0.509 -1.0811  0.4264 -0.9661
  877SOL     OW 2629   1.211   0.808   1.058 -0.3559 -0.9729  0.4505
  877SOL    HW1 2630   1.110   0.785   1.042  0.4060 -0.4959  2.0307
  877SOL    HW2 2631   1.257   0.728   1.097 -0.5503  0.1757 -2.7422
  878SOL     OW 2632   2.444   1.922   0.282  0.0184  0.1323  0.1664
  878SOL    HW1 2633   2.510   1.992   0.317  3.1365  1.0468 -2.5685
  878SOL    HW2 2634   2.468   1.893   0.183 -0.9679 -0.3798 -3.6419
  879SOL     OW 2635   2.572   1.946   1.666 -0.4835 -0.1728 -0.3345
  879SOL    HW1 2636   2.629   1.898   1.736  0.7534 -1.4327  0.3500
  879SOL    HW2 2637   2.605   2.047   1.681  0.7668  2.3856  0.1748
  880SOL     OW 2638   1.201   2.403   1.166 -0.4258  0.2538  0.1703
  880SOL    HW1 2639   1.270   2.448   1.225 -1.2141  1.4007  0.5276
  880SOL    HW2 2640   1.114   2.377   1.212  1.0109 -1.6745  0.5042
  881SOL     OW 2641   0.893   2.150   0.625 -0.3060 -0.2961  0.1462
  881SOL    HW1 2642   0.898   2.190   0.719 -0.4007  1.9340  1.7668
  881SOL    HW2 2643   0.804   2.105   0.605  2.6549 -0.3819 -0.1049
  882SOL     OW 2644   1.870   1.520   0.027  0.1412  0.6645 -0.1664
  882SOL    HW1 2645   1.911   1.476   3.054  1.3892  0.4726 -1.5244
  882SOL    HW2 2646   1.946   1.546   0.091 -1.5905  0.3832 -1.1005
  883SOL     OW 2647   1.700   0.786   1.418 -0.2797  0.9844  0.8889
  883SOL    HW1 2648   1.708   0.805   1.319  2.4550  3.4555  2.4514
  883SOL    HW2 2649   1.777   0.729   1.452 -0.4369  0.2648 -4.5329
  884SOL     OW 2650   2.993   2.709   0.724  0.2659  0.6101 -0.1473
  884SOL    HW1 2651   2.900   2.682   0.694 -0.0761 -0.0237 -0.9204
  884SOL    HW2 2652   3.026   2.778   0.658 -3.5876  1.0077  0.7967
  885SOL     OW 2653   1.019   1.333   2.146 -0.6392  0.5251  0.1755
  885SOL    HW1 2654   0.954   1.256   2.133  0.3509 -1.1400  3.4474
  885SOL    HW2 2655   1.067   1.328   2.236  1.7057 -1.8503  2.3778
  886SOL     OW 2656   0.853   1.457   2.530  0.0772 -0.3783 -0.4542
  886SOL    HW1 2657   0.940   1.513   2.530 -1.8939 -0.6639  0.6673
  886SOL    HW2 2658   0.880   1.356   2.531  1.5800 -0.8442 -1.9433
  887SOL     OW 2659   1.552   0.600   1.036 -0.0911  0.3399  0.0651
  887SOL    HW1 2660   1.548   0.691   0.992  0.1502 -5.6693  2.0081
  887SOL    HW2 2661   1.597   0.530   0.972  1.7079 -2.9963 -2.1518
  888SOL     OW 2662   2.068   0.609   2.335  0.0018 -0.3548 -0.4447
  888SOL    HW1 2663   2.055   0.565   2.425  0.7159 -0.9761  1.2324
  888SOL    HW2 2664   2.166   0.608   2.310 -0.8431 -1.6518  3.0355
  889SOL     OW 2665   2.894   2.029   0.857  0.0878 -0.0776  0.0410
  889SOL    HW1 2666   2.892   2.047   0.756 -1.4441 -3.1243 -1.9397
  889SOL    HW2 2667   2.916   2.114   0.913 -1.5444 -0.1850  2.5184
  890SOL     OW 2668   0.998   2.331   0.222 -0.2660  0.2088  0.4370
  890SOL    HW1 2669   1.081   2.379   0.248 -1.6032 -4.3590 -2.0029
  890SOL    HW2 2670   0.990   2.243   0.276  1.8525  1.4903  0.1523
  891SOL     OW 2671   2.706   0.560   2.773 -0.1729  0.2797  0.1338
  891SOL    HW1 2672   2.765   0.477   2.783  0.2235 -1.1856 -0.2916
  891SOL    HW2 2673   2.691   0.591   2.676 -1.9309  0.9613  2.0404
  892SOL     OW 2674   2.977   2.238   1.006 -0.4233 -0.0879  0.2514
  892SOL    HW1 2675   3.078   2.230   1.024  2.3648 -0.1482  2.9225
  892SOL    HW2 2676   2.934   2.205   1.093  0.3150 -2.5384  1.4376
  893SOL     OW 2677   1.547   0.274   1.058  0.2066 -0.3144 -0.2638
  893SOL    HW1 2678   1.470   0.318   1.009  1.3863  0.1719 -0.1757
  893SOL    HW2 2679   1.627   0.336   1.057 -4.2674 -1.8380  0.9790
  894SOL     OW 2680   2.799   0.328   1.069  0.6917 -0.4661 -0.7320
  894SOL    HW1 2681   2.777   0.359   0.973  0.3068 -1.1569  1.1217
  894SOL    HW2 2682   2.761   0.233   1.080 -0.0561  1.7332 -1.0785
  895SOL     OW 2683   1.742   1.850   2.645  0.1542  0.1811  0.6496
  895SOL    HW1 2684   1.826   1.790   2.657 -1.0552  0.6870  0.2968
  895SOL    HW2 2685   1.671   1.831   2.718 -1.1414 -0.5630  2.6985
  896SOL     OW 2686   1.959   0.763   1.748 -0.5271 -0.2717  0.6805
  896SOL    HW1 2687   2.053   0.800   1.717  1.5635  0.5608 -3.4882
  896SOL    HW2 2688   1.917   0.710   1.671  0.1277  1.0084  0.8058
  897SOL     OW 2689   0.078   1.218   1.300  0.2727  0.0284  0.3208
  897SOL    HW1 2690   0.157   1.266   1.261  2.6369 -0.9533  0.3410
  897SOL    HW2 2691   0.096   1.126   1.343 -1.6760 -0.8820 -0.7901
  898SOL     OW 2692   2.128   2.587   2.094  0.3074 -0.1375  0.1455
  898SOL    HW1 2693   2.055   2.626   2.155 -0.2409  2.0274  1.0700
  898SOL    HW2 2694   2.155   2.491   2.120  2.4453  1.3312 -1.3107
  899SOL     OW 2695   0.970   1.645   0.978  0.3969  0.2226  1.1363
  899SOL    HW1 2696   1.066   1.651   1.009 -0.2638 -1.2715  0.5523
  899SOL    HW2 2697   0.915   1.717   1.020  1.1949 -1.0448  2.5295
  900SOL     OW 2698   1.003   2.727   2.273  0.0226 -0.1377  0.3278
  900SOL    HW1 2699   1.050   2.812   2.294 -1.4364 -0.7244 -0.3052
  900SOL    HW2 2700   0.970   2.730   2.178 -0.7650  3.1342  0.6225
  901SOL     OW 2701   0.664   1.581   2.366  0.1766  0.0667  0.1584
  901SOL    HW1 2702   0.610   1.662   2.398 -0.0349 -1.5651  0.9934
  901SOL    HW2 2703   0.726   1.537   2.437  1.5361 -0.4659  3.0984
  902SOL     OW 2704   2.184   1.015   2.905 -0.6187 -0.1534  0.7503
  902SOL    HW1 2705   2.109   1.020   2.974  0.8329 -0.3528  2.6626
  902SOL    HW2 2706   2.222   1.108   2.882  0.5794 -0.7901 -1.5743
  903SOL     OW 2707   1.999   1.400   2.940  0.4299  0.0396  0.1771
  903SOL    HW1 2708   2.097   1.372   2.937 -3.2612  1.8381 -0.1300
  903SOL    HW2 2709   1.937   1.350   2.875 -0.8987 -1.5142 -2.6653
  904SOL     OW 2710   1.460   0.986   2.273  0.7532 -0.0472  0.3355
  904SOL    HW1 2711   1.514   0.906   2.295 -1.0426  1.4065  1.1073
  904SOL    HW2 2712   1.424   1.023   2.358  0.2615 -1.1719 -0.7380
  905SOL     OW 2713   2.520   0.436   1.086  0.0063  0.1742 -0.5878
  905SOL    HW1 2714   2.604   0.383   1.099 -1.1985 -0.0527 -0.5757
  905SOL    HW2 2715   2.475   0.427   0.991 -0.2483  0.9278  0.3473
  906SOL     OW 2716   0.385   1.452   0.739 -0.3641  0.4112  0.9067
  906SOL    HW1 2717   0.445   1.411   0.668 -0.3207 -1.2725 -1.2866
  906SOL    HW2 2718   0.291   1.417   0.734 -1.4027 -1.0830  1.4479
  907SOL     OW 2719   1.214   0.087   0.264 -0.0170  0.3836 -0.0875
  907SOL    HW1 2720   1.213   0.069   0.366 -0.8752  0.2765 -0.0595
  907SOL    HW2 2721   1.149   0.160   0.244 -0.1384  0.1237  0.4610
  908SOL     OW 2722   1.522   2.763   1.536 -0.4525  0.7535  0.2464
  908SOL    HW1 2723   1.482   2.705   1.466  0.3448 -1.2722  1.3632
  908SOL    HW2 2724   1.456   2.783   1.611 -1.3137  3.0133  1.3485
  909SOL     OW 2725   2.462   0.837   1.925  0.1907  0.2008  0.4520
  909SOL    HW1 2726   2.481   0.766   1.998  1.2654 -1.4927  2.8016
  909SOL    HW2 2727   2.410   0.795   1.847 -0.4839 -1.5687 -2.6972
  910SOL     OW 2728   1.356   3.041   2.224 -0.7655  0.3422  0.2572
  910SOL    HW1 2729   1.417   0.013   2.226  1.6852  0.2633  0.0856
  910SOL    HW2 2730   1.410   2.954   2.214 -0.7753 -0.1802 -0.6656
  911SOL     OW 2731   2.360   1.700   2.501  0.1435 -0.2525 -0.0463
  911SOL    HW1 2732   2.426   1.689   2.422 -0.5053 -1.1716  0.2190
  911SOL    HW2 2733   2.271   1.644   2.486 -1.5137 -3.3680 -0.7861
  912SOL     OW 2734   2.370   2.179   1.390 -0.2701 -0.3382  0.5530
  912SOL    HW1 2735   2.456   2.235   1.379  1.3790 -1.6195  1.9246
  912SOL    HW2 2736   2.286   2.233   1.372  0.5938  1.4315 -0.5066
  913SOL     OW 2737   2.590   2.433   1.800 -0.0499  0.1150  0.0142
  913SOL    HW1 2738   2.634   2.527   1.800  1.9803  0.3281  2.8077
  913SOL    HW2 2739   2.500   2.433   1.750 -0.7708 -0.5217 -1.6438
  914SOL     OW 2740   2.300   2.088   1.119 -0.3483  0.6884  0.4877
  914SOL    HW1 2741   2.343   2.093   1.212  0.4847  2.1276  2.4242
  914SOL    HW2 2742   2.273   1.990   1.108  1.0123 -0.6523  0.8048
  915SOL     OW 2743   1.170   2.590   1.723  0.2965  0.1467  0.2262
  915SOL    HW1 2744   1.076   2.550   1.745 -3.1044  1.6888 -1.8313
  915SOL    HW2 2745   1.240   2.521   1.697  0.3522  0.8242  2.2568
  916SOL     OW 2746   0.128   2.217   1.057  0.2745 -0.2770  0.5626
  916SOL    HW1 2747   0.150   2.277   0.975  3.1244 -0.4483  2.9564
  916SOL    HW2 2748   0.180   2.258   1.135  0.9331 -1.1401  1.4050
  917SOL     OW 2749   2.610   1.080   2.817  0.1295 -0.5595  0.1045
  917SOL    HW1 2750   2.591   0.981   2.806  0.3296  0.3616  1.2004
  917SOL    HW2 2751   2.709   1.095   2.797  2.5849 -1.0085 -3.9308
  918SOL     OW 2752   1.850   2.107   2.672 -0.2627  0.0120 -0.4758
  918SOL    HW1 2753   1.910   2.112   2.754  0.0862  2.1130 -0.1041
  918SOL    HW2 2754   1.799   2.020   2.660  1.1293  0.2377  0.7251
  919SOL     OW 2755   1.627   2.286   1.074  0.1754  0.0267 -0.4141
  919SOL    HW1 2756   1.561   2.214   1.035 -0.9163 -2.0280 -0.6220
  919SOL    HW2 2757   1.715   2.237   1.103  0.6432 -0.1738  2.8534
  920SOL     OW 2758   1.053   0.548   2.726  0.0121 -0.4343  0.0779
  920SOL    HW1 2759   1.122   0.500   2.666  0.8549 -2.3503 -2.1252
  920SOL    HW2 2760   1.068   0.644   2.736  1.3190 -0.1570  0.3492
  921SOL     OW 2761   3.062   2.902   2.718 -0.1907 -0.1437  0.0935
  921SOL    HW1 2762   3.065   2.957   2.631 -1.7663  0.4099 -0.8589
  921SOL    HW2 2763   0.039   2.906   2.766  0.3264  0.8517  1.5500
  922SOL     OW 2764   2.323   1.743   1.767 -0.7273  0.4225  0.4097
  922SOL    HW1 2765   2.393   1.673   1.737 -0.0517 -2.0873  1.8546
  922SOL    HW2 2766   2.231   1.725   1.725  0.9525 -0.3869  0.6037
  923SOL     OW 2767   0.689   1.986   2.658  0.1095 -0.3053  0.0882
  923SOL    HW1 2768   0.598   1.989   2.705  3.6525 -0.3234  2.0572
  923SOL    HW2 2769   0.710   2.072   2.611  1.5492 -0.4680 -0.2371
  924SOL     OW 2770   1.777   0.412   2.461  0.5828 -0.4314 -0.2538
  924SOL    HW1 2771   1.695   0.368   2.491  1.0869  1.8893 -0.2486
  924SOL    HW2 2772   1.794   0.432   2.363 -0.4504 -1.5180 -1.2057
  925SOL     OW 2773   2.925   0.851   0.098 -0.6611 -0.0535  0.5959
  925SOL    HW1 2774   2.878   0.811   0.015  0.0732  1.6572  3.9170
  925SOL    HW2 2775   2.868   0.926   0.140 -0.0550 -0.1818  0.5118
  926SOL     OW 2776   3.046   0.218   0.787  0.1527 -0.4462 -0.0453
  926SOL    HW1 2777   3.087   0.195   0.693 -0.1302 -0.7660 -2.5456
  926SOL    HW2 2778   2.951   0.245   0.775  0.1918 -1.3756 -1.7334
  927SOL     OW 2779   1.374   1.038   0.741 -0.3228 -0.3972  0.1706
  927SOL    HW1 2780   1.428   1.050   0.656 -2.1423  3.1728 -0.3689
  927SOL    HW2 2781   1.278   1.046   0.716  1.9702 -0.8130  0.9586
  928SOL     OW 2782   0.118   0.041   2.293 -0.3382 -0.1275 -0.3405
  928SOL    HW1 2783   0.124   3.099   2.210 -0.7836  4.6511  1.2556
  928SOL    HW2 2784   0.126   0.137   2.262  1.0364  0.4238  1.5170
  929SOL     OW 2785   2.663   0.751   1.613 -0.5224 -0.3662 -0.3434
  929SOL    HW1 2786   2.671   0.840   1.659 -0.0722 -2.3156 -0.1110
  929SOL    HW2 2787   2.682   0.681   1.682  1.1711  0.6230  2.1616
  930SOL     OW 2788   1.778   2.401   0.891 -0.0057 -0.0474  0.2825
  930SOL    HW1 2789   1.738   2.384   0.798 -1.7238  0.7209  0.4458
  930SOL    HW2 2790   1.708   2.378   0.964  0.8504  1.4326 -2.0680
  931SOL     OW 2791   1.992   0.840   1.054  0.1481  0.4148 -0.3548
  931SOL    HW1 2792   1.991   0.824   0.958 -0.8715  0.2293  2.9005
  931SOL    HW2 2793   2.077   0.886   1.084 -0.7115  1.5454 -1.7246
  932SOL     OW 2794   0.062   0.609   1.404 -0.1509 -0.4043 -0.1364
  932SOL    HW1 2795   0.012   0.686   1.453 -1.5109  0.3188  2.8734
  932SOL    HW2 2796   0.071   0.532   1.475 -1.9415 -0.0826 -1.2759
  933SOL     OW 2797   2.055   1.943   2.041  0.0878 -0.0010  0.0806
  933SOL    HW1 2798   2.093   1.882   2.116 -0.1147  1.5061  0.1958
  933SOL    HW2 2799   2.126   1.968   1.976 -1.8747 -1.5736  1.3575
  934SOL     OW 2800   1.722   0.071   1.334  0.1065  0.1247  0.2486
  934SOL    HW1 2801   1.772   0.160   1.322 -2.4677 -1.3079  0.6096
  934SOL    HW2 2802   1.628   0.078   1.303  0.9956 -0.1163  0.3373
  935SOL     OW 2803   0.073   0.958   1.361 -0.2296 -0.0715 -0.1177
  935SOL    HW1 2804   0.049   0.907   1.445  0.9517  0.0905 -0.8353
  935SOL    HW2 2805   0.157   0.913   1.327  1.8676 -0.8655  1.8460
  936SOL     OW 2806   2.723   0.597   1.408  0.2723  0.0614 -0.0652
  936SOL    HW1 2807   2.719   0.647   1.316  0.2501 -0.5922 -1.6521
  936SOL    HW2 2808   2.699   0.663   1.484 -2.6634  1.2795  0.3797
  937SOL     OW 2809   1.164   3.077   0.863  0.1340 -0.1166  0.3223
  937SOL    HW1 2810   1.067   3.044   0.886 -1.3388  0.3288  0.4171
  937SOL    HW2 2811   1.226   2.998   0.861 -0.2178  1.0313  1.1638
  938SOL     OW 2812   2.922   2.292   0.709 -0.4606  0.0552  0.8158
  938SOL    HW1 2813   2.938   2.304   0.809  2.5642 -0.2766  0.3084
  938SOL    HW2 2814   2.828   2.328   0.680  1.9039 -1.1046 -2.7165
  939SOL     OW 2815   0.018   1.845   2.817  0.0511 -0.2643  0.2022
  939SOL    HW1 2816   3.083   1.773   2.760  0.1851 -0.3441  1.7005
  939SOL    HW2 2817   0.114   1.817   2.847 -1.3457 -0.2394  0.6028
  940SOL     OW 2818   2.704   2.629   2.766  0.0707 -0.1210 -0.6495
  940SOL    HW1 2819   2.660   2.555   2.707  0.2824 -2.1780  0.2821
  940SOL    HW2 2820   2.660   2.720   2.754 -1.1778  0.8183 -0.3406
  941SOL     OW 2821   1.560   3.012   3.062 -0.0664 -0.0318  0.2752
  941SOL    HW1 2822   1.571   2.914   3.085 -0.5765 -1.6928 -0.2067
  941SOL    HW2 2823   1.655   3.054   3.048 -0.1628 -1.7181  0.5717
  942SOL     OW 2824   1.361   2.050   1.542  0.4643  0.0250  0.2468
  942SOL    HW1 2825   1.402   1.964   1.579 -1.5955 -0.2212 -0.4286
  942SOL    HW2 2826   1.423   2.132   1.552 -2.0076  0.7856 -0.6617
  943SOL     OW 2827   1.799   0.903   2.029 -0.0428  0.3626  0.4256
  943SOL    HW1 2828   1.750   0.905   1.945  2.0116 -2.2145  2.7634
  943SOL    HW2 2829   1.752   0.839   2.095 -3.4643  0.8775  0.8450
  944SOL     OW 2830   1.400   0.757   1.868 -0.1204 -0.1453  0.2259
  944SOL    HW1 2831   1.402   0.850   1.828  0.1681 -2.4034 -2.2819
  944SOL    HW2 2832   1.383   0.683   1.799  1.2019  1.6022  3.5362
  945SOL     OW 2833   2.832   2.410   1.398 -0.0510 -0.2182  0.1448
  945SOL    HW1 2834   2.857   2.494   1.346 -0.8234 -0.4702 -0.7900
  945SOL    HW2 2835   2.845   2.330   1.333 -0.8677 -2.1267  0.1177
  946SOL     OW 2836   0.847   0.963   1.639  0.4161 -0.2351  0.0506
  946SOL    HW1 2837   0.904   0.895   1.592 -0.6912  3.4555  0.6729
  946SOL    HW2 2838   0.825   1.038   1.574 -0.9220 -2.4953  0.1976
  947SOL     OW 2839   0.696   2.537   0.859  0.0150  0.3200 -0.0697
  947SOL    HW1 2840   0.649   2.456   0.897  0.7507  0.9306 -1.5018
  947SOL    HW2 2841   0.629   2.616   0.850 -1.0783  1.6075 -0.3394
  948SOL     OW 2842   2.945   1.347   1.849  0.0526 -0.0288  0.2853
  948SOL    HW1 2843   3.002   1.261   1.838 -3.9774  0.3214  0.8585
  948SOL    HW2 2844   2.969   1.413   1.776  0.8834 -0.5808 -1.2385
  949SOL     OW 2845   0.469   0.420   1.891 -0.3393 -0.0200 -0.3789
  949SOL    HW1 2846   0.557   0.413   1.941 -1.6719  2.4211  0.7402
  949SOL    HW2 2847   0.449   0.519   1.878 -0.9661 -0.0377  1.7028
  950SOL     OW 2848   0.587   0.783   0.716  0.3110  0.5286 -0.4109
  950SOL    HW1 2849   0.521   0.856   0.723  2.3431 -3.8606 -2.4308
  950SOL    HW2 2850   0.574   0.721   0.633  1.4429 -3.4714 -0.4592
  951SOL     OW 2851   1.042   1.784   2.298 -0.3509  0.2531 -0.3652
  951SOL    HW1 2852   1.074   1.883   2.313  1.8010 -0.1237 -0.5624
  951SOL    HW2 2853   1.068   1.736   2.387 -0.1765  1.1639 -0.8964
  952SOL     OW 2854   1.192   1.201   2.874  0.2327  0.4497 -0.1253
  952SOL    HW1 2855   1.248   1.259   2.814  1.8824 -0.4906 -0.8586
  952SOL    HW2 2856   1.249   1.135   2.928  0.8676  1.7212  2.3269
  953SOL     OW 2857   1.273   2.692   1.999 -1.1408 -0.3641 -0.4019
  953SOL    HW1 2858   1.234   2.606   1.966 -0.3910  0.6318 -1.6045
  953SOL    HW2 2859   1.205   2.750   2.045  1.6558  0.4565 -0.6952
  954SOL     OW 2860   2.217   1.483   0.618 -0.1623 -0.3666  0.5913
  954SOL    HW1 2861   2.217   1.587   0.617 -1.0239 -0.5764  5.0516
  954SOL    HW2 2862   2.312   1.447   0.639 -0.6368  1.5474  1.3671
  955SOL     OW 2863   2.841   2.262   2.708  0.5276 -0.0851  0.2101
  955SOL    HW1 2864   2.835   2.357   2.687  1.9799 -1.1447  0.2520
  955SOL    HW2 2865   2.784   2.239   2.792 -2.2755 -0.4778 -0.4470
  956SOL     OW 2866   1.131   0.882   1.315 -0.2942  0.1759 -0.0422
  956SOL    HW1 2867   1.150   0.861   1.215 -0.1527  1.4751 -2.9642
  956SOL    HW2 2868   1.166   0.966   1.348 -2.0502 -1.2335  0.5741
  957SOL     OW 2869   1.879   1.636   2.326  0.2576 -0.3666 -0.1548
  957SOL    HW1 2870   1.795   1.609   2.277  1.6319 -0.9267  2.2485
  957SOL    HW2 2871   1.899   1.564   2.395  0.7382  1.0134  3.3226
  958SOL     OW 2872   1.754   2.671   1.243  0.3905 -0.0760  0.0953
  958SOL    HW1 2873   1.853   2.654   1.237 -0.5503 -2.8740 -1.5842
  958SOL    HW2 2874   1.745   2.758   1.294  2.7795 -1.1014 -1.2053
  959SOL     OW 2875   1.627   1.856   1.919  0.2105 -0.1605 -0.1575
  959SOL    HW1 2876   1.721   1.886   1.888  2.7888 -1.7314 -0.4738
  959SOL    HW2 2877   1.577   1.806   1.848  0.9491 -0.6281  1.5542
  960SOL     OW 2878   0.030   0.694   2.699  0.3842 -0.2274 -0.5590
  960SOL    HW1 2879   0.045   0.772   2.766  2.1682  0.4887 -0.2973
  960SOL    HW2 2880   0.004   0.739   2.614 -3.8558 -1.0762 -0.6830
  961SOL     OW 2881   0.493   0.688   1.825  0.3038 -0.4717 -0.0091
  961SOL    HW1 2882   0.592   0.705   1.813  0.3857 -2.1350  0.2370
  961SOL    HW2 2883   0.464   0.729   1.917  0.7460 -0.2579  1.0325
  962SOL     OW 2884   1.280   1.728   0.461 -0.3755 -0.3105  0.3331
  962SOL    HW1 2885   1.209   1.669   0.495  0.0953  1.2635  0.1267
  962SOL    HW2 2886   1.345   1.769   0.529  2.3419 -0.6430 -0.3037
  963SOL     OW 2887   1.381   2.331   2.735 -0.3140 -0.3948  0.3890
  963SOL    HW1 2888   1.349   2.399   2.665 -1.3972  0.0707 -0.4100
  963SOL    HW2 2889   1.353   2.235   2.713  0.3816 -2.4705 -3.7119
  964SOL     OW 2890   0.923   2.570   0.494 -0.3753 -0.4316 -0.0177
  964SOL    HW1 2891   0.835   2.530   0.519  0.8921  1.4046 -1.2573
  964SOL    HW2 2892   0.923   2.653   0.438  0.5845 -1.7696 -0.1775
  965SOL     OW 2893   0.902   2.979   0.957 -0.1689 -0.2755 -0.1482
  965SOL    HW1 2894   0.824   3.040   0.963  0.9553 -3.1851 -1.2506
  965SOL    HW2 2895   0.882   2.909   0.887  0.5167 -0.8419 -1.1618
  966SOL     OW 2896   0.025   1.155   2.849 -0.4708 -0.0688  0.3325
  966SOL    HW1 2897   0.055   1.225   2.776  0.6764  2.7048 -2.0686
  966SOL    HW2 2898   3.041   1.133   2.827  1.4129  0.9935  0.1677
  967SOL     OW 2899   1.209   2.831   1.604  0.4095 -0.6647 -0.3724
  967SOL    HW1 2900   1.186   2.919   1.655  1.8205 -0.5289  0.8441
  967SOL    HW2 2901   1.211   2.755   1.668  2.1968 -1.6046  1.7888
  968SOL     OW 2902   1.887   0.280   0.310 -0.5292  0.4639 -0.0833
  968SOL    HW1 2903   1.920   0.215   0.382  0.7691 -0.1884 -1.4587
  968SOL    HW2 2904   1.879   0.373   0.347  0.3129  1.9990 -2.3100
  969SOL     OW 2905   0.067   1.732   1.778 -0.0705 -0.6318 -0.4108
  969SOL    HW1 2906   3.089   1.749   1.740 -0.6381  1.9103  0.8343
  969SOL    HW2 2907   0.134   1.809   1.759  1.7328  0.7704 -2.3596
  970SOL     OW 2908   2.200   1.438   1.516 -0.3322 -0.3537 -0.0863
  970SOL    HW1 2909   2.230   1.485   1.429  2.8907 -0.3031 -2.0166
  970SOL    HW2 2910   2.251   1.353   1.534 -0.8363 -1.0715  1.7752
  971SOL     OW 2911   1.924   0.646   1.516 -0.4036  0.2201 -0.2475
  971SOL    HW1 2912   1.951   0.652   1.421  0.5749  2.4744 -0.9902
  971SOL    HW2 2913   1.942   0.552   1.546 -0.7128  3.4001 -1.6832
  972SOL     OW 2914   0.388   0.001   1.979 -0.0914  0.0567 -0.0791
  972SOL    HW1 2915   0.479   0.025   1.947 -1.7459  0.4164 -0.0834
  972SOL    HW2 2916   0.334   0.084   1.997  1.9587 -2.0711 -1.4618
  973SOL     OW 2917   2.805   1.047   0.268 -0.2588 -0.0352 -0.0806
  973SOL    HW1 2918   2.707   1.032   0.265  1.9707  0.6044  0.5641
  973SOL    HW2 2919   2.836   1.045   0.364 -2.0068 -2.4587  1.4628
  974SOL     OW 2920   1.679   1.307   2.150 -0.4644  0.5976  0.3140
  974SOL    HW1 2921   1.645   1.251   2.068 -0.5189 -0.5353 -1.9054
  974SOL    HW2 2922   1.680   1.407   2.124 -1.8003  1.7213 -0.6908
  975SOL     OW 2923   3.080   2.566   0.948 -1.0514 -0.6517 -0.1903
  975SOL    HW1 2924   3.068   2.639   0.880 -0.4695 -0.9685 -1.3921
  975SOL    HW2 2925   2.990   2.530   0.972 -0.1170  1.2151 -0.2917
  976SOL     OW 2926   3.034   1.481   1.635  0.2653 -0.3602  0.4425
  976SOL    HW1 2927   0.005   1.520   1.587 -0.7658  0.0334  0.6127
  976SOL    HW2 2928   2.981   1.557   1.671 -0.9870 -0.8065 -0.6834
  977SOL     OW 2929   0.641   2.432   2.965  0.0117 -0.2419  0.0716
  977SOL    HW1 2930   0.561   2.477   3.011 -2.9019  0.0413 -0.4751
  977SOL    HW2 2931   0.721   2.491   2.937  0.0319  1.7724 -0.8600
  978SOL     OW 2932   0.594   1.835   2.451  0.4187 -0.2890  0.2510
  978SOL    HW1 2933   0.490   1.841   2.458 -0.0626 -2.0528 -1.3774
  978SOL    HW2 2934   0.643   1.895   2.520  0.3802  0.2586 -2.2623
  979SOL     OW 2935   1.604   2.438   1.287 -0.2119 -0.3917 -0.4194
  979SOL    HW1 2936   1.658   2.527   1.289  0.2459  3.7824 -0.5478
  979SOL    HW2 2937   1.613   2.383   1.201  0.5178 -0.9683  1.4305
  980SOL     OW 2938   0.829   1.469   3.030 -0.0102 -0.5986  0.7192
  980SOL    HW1 2939   0.764   1.532   2.975 -0.8831  0.4713 -0.3464
  980SOL    HW2 2940   0.924   1.466   2.994 -1.0720  0.9711  1.5947
  981SOL     OW 2941   2.816   3.020   2.511 -0.1039 -0.0475 -0.1914
  981SOL    HW1 2942   2.719   3.011   2.471 -2.4236  0.4633 -2.0053
  981SOL    HW2 2943   2.883   3.039   2.439  2.1523 -1.1273  0.4042
  982SOL     OW 2944   0.006   2.441   2.797  0.5023  0.2362  0.0602
  982SOL    HW1 2945   0.062   2.448   2.714  2.6621 -0.6308 -2.6464
  982SOL    HW2 2946   3.068   2.527   2.810  0.7843 -2.1378  0.8583
  983SOL     OW 2947   2.301   0.979   2.097 -0.2700  0.4996  0.0269
  983SOL    HW1 2948   2.265   1.071   2.073 -0.1085  0.2068 -3.4202
  983SOL    HW2 2949   2.364   0.949   2.020  0.5046  0.7928 -1.4408
  984SOL     OW 2950   1.547   0.152   2.261  0.0517  0.6498 -0.5022
  984SOL    HW1 2951   1.542   0.159   2.361 -1.7234 -1.1083 -1.3361
  984SOL    HW2 2952   1.511   0.234   2.212 -1.8602 -0.4000 -1.1883
  985SOL     OW 2953   1.444   2.164   2.318  0.1606 -0.1947  0.3065
  985SOL    HW1 2954   1.460   2.103   2.235  0.0598 -2.0845  2.0325
  985SOL    HW2 2955   1.494   2.134   2.400 -2.0911 -2.2167  2.9973
  986SOL     OW 2956   2.098   0.212   2.221  0.5253 -0.2525 -0.1949
  986SOL    HW1 2957   2.140   0.255   2.137 -0.4990  0.2436 -0.9744
  986SOL    HW2 2958   1.994   0.211   2.215  1.4440  0.5497 -1.3947
  987SOL     OW 2959   2.239   0.583   1.990 -0.1223 -0.1103 -0.5991
  987SOL    HW1 2960   2.164   0.636   2.035 -1.0080 -1.7805  0.7061
  987SOL    HW2 2961   2.263   0.632   1.901  0.6702 -0.1387 -1.2746
  988SOL     OW 2962   2.648   0.645   2.519  0.7498  0.1629 -0.0507
  988SOL    HW1 2963   2.733   0.608   2.476 -0.2058 -1.3838 -0.7494
  988SOL    HW2 2964   2.563   0.591   2.495 -1.9651 -1.4988  0.8440
  989SOL     OW 2965   2.562   2.446   2.614  0.0536 -0.2625 -0.2341
  989SOL    HW1 2966   2.490   2.504   2.577 -1.0598 -3.1375  4.1394
  989SOL    HW2 2967   2.616   2.409   2.537 -1.7456 -0.3360  1.0412
  990SOL     OW 2968   0.221   0.527   0.033  0.3517 -0.0335  0.4369
  990SOL    HW1 2969   0.174   0.510   0.120  0.6354  0.2999  0.8365
  990SOL    HW2 2970   0.231   0.627   0.023  1.6127 -2.1943  1.8457
  991SOL     OW 2971   0.601   0.488   2.820  0.2871  0.3063 -0.2519
  991SOL    HW1 2972   0.524   0.478   2.882  2.5833  1.4730  0.6366
  991SOL    HW2 2973   0.678   0.421   2.841  2.9854 -0.7572 -1.5131
  992SOL     OW 2974   2.583   2.108   2.323  0.2988  0.2672 -0.0406
  992SOL    HW1 2975   2.651   2.166   2.376  0.8404 -1.1355 -2.3350
  992SOL    HW2 2976   2.622   2.089   2.234  0.4080 -0.1808  0.9582
  993SOL     OW 2977   0.530   3.104   0.389 -0.1591 -0.1563 -0.0696
  993SOL    HW1 2978   0.484   3.076   0.474  1.4290  1.1955  0.4964
  993SOL    HW2 2979   0.468   0.008   0.307 -2.6051  0.3816 -1.0596
  994SOL     OW 2980   0.319   2.034   1.574 -0.1447 -0.1911 -0.7794
  994SOL    HW1 2981   0.307   2.011   1.675  0.0948  0.6220  1.0994
  994SOL    HW2 2982   0.239   2.000   1.520  1.7332  1.6721  1.7842
  995SOL     OW 2983   2.180   1.799   0.314 -0.2061  0.0482  0.1780
  995SOL    HW1 2984   2.276   1.828   0.297 -0.6481  0.1717  0.8102
  995SOL    HW2 2985   2.115   1.859   0.265  0.4093  0.9017 -0.5673
  996SOL     OW 2986   1.327   1.483   2.467 -0.5577  0.1506  0.1731
  996SOL    HW1 2987   1.369   1.394   2.432  0.1701 -1.3096 -0.4614
  996SOL    HW2 2988   1.358   1.561   2.407  1.7411  1.2094  2.2893
  997SOL     OW 2989   1.833   1.312   1.803  0.0811  0.1789  0.2479
  997SOL    HW1 2990   1.838   1.306   1.702  0.0448  1.1911 -0.0267
  997SOL    HW2 2991   1.778   1.234   1.841 -1.9840 -1.6128  3.1671
  998SOL     OW 2992   2.865   1.672   0.314  0.0957  0.4564 -0.3133
  998SOL    HW1 2993   2.871   1.597   0.384 -2.8120 -0.6747  1.1868
  998SOL    HW2 2994   2.923   1.652   0.233  0.1310 -1.5598  1.4765
  999SOL     OW 2995   2.454   2.624   0.507 -0.3689  0.0415  0.7544
  999SOL    HW1 2996   2.401   2.689   0.557  0.4497 -4.6520 -0.2314
  999SOL    HW2 2997   2.433   2.532   0.534  0.5097  2.4966  1.1019
 1000SOL     OW 2998   0.864   3.034   2.132  0.3120 -0.1894 -0.5706
 1000SOL    HW1 2999   0.872   3.109   2.059 -0.7525  3.3323 -3.0619
 1000SOL    HW2 3000   0.879   2.941   2.101 -2.7167  0.1389  1.7466
   3.11209   3.11209   3.11209
