1000 SPC/Fw water molecules t= 451.00000 step= 451000
 3000
    1SOL     OW    1   3.043   3.093   1.536  0.2122  0.0102 -0.5596
    1SOL    HW1    2   3.027   3.031   1.456 -1.2346 -1.3038  0.3409
    1SOL    HW2    3   3.065   3.036   1.618  1.9563 -2.5109  0.9548
    2SOL     OW    4   2.704   0.105   0.009 -0.4044  0.1215  0.2822
    2SOL    HW1    5   2.796   0.070   0.011 -0.3808  0.2145 -0.9122
    2SOL    HW2    6   2.644   0.056   0.080  1.3657 -1.2035 -0.3378
    3SOL     OW    7   1.298   2.755   0.146 -0.3542 -0.0187 -0.1435
    3SOL    HW1    8   1.277   2.660   0.109  1.9728  2.3767 -2.2915
    3SOL    HW2    9   1.398   2.774   0.141 -0.1269  0.1113 -4.7957
    4SOL     OW   10   1.144   2.677   2.428 -0.2181  0.2398  0.2077
    4SOL    HW1   11   1.249   2.675   2.426  1.9885  2.0758 -0.8488
    4SOL    HW2   12   1.116   2.660   2.526  1.7222 -1.5594 -1.7819
    5SOL     OW   13   2.250   0.429   2.007 -0.4013 -0.0580 -0.6734
    5SOL    HW1   14   2.281   0.355   1.940  1.2932 -0.1722  3.4368
    5SOL    HW2   15   2.330   0.486   2.038 -0.9676  1.1699  0.7444
    6SOL     OW   16   2.622   1.979   1.326  0.2317 -0.4000 -0.2202
    6SOL    HW1   17   2.606   1.938   1.231 -1.7595 -0.6261 -1.1012
    6SOL    HW2   18   2.653   2.079   1.320  2.1318  2.0623 -1.9676
    7SOL     OW   19   1.122   2.033   0.540  0.1823 -0.1831  0.0236
    7SOL    HW1   20   1.069   2.012   0.623  3.7634  1.9214 -2.6034
    7SOL    HW2   21   1.091   2.124   0.507  2.7013 -1.2355  1.6838
    8SOL     OW   22   0.322   0.822   0.649 -0.7586  0.1524 -0.2823
    8SOL    HW1   23   0.386   0.898   0.625  0.0525  4.4501  0.9689
    8SOL    HW2   24   0.303   0.767   0.561 -0.8403 -0.3599 -0.9328
    9SOL     OW   25   0.361   2.992   1.466 -0.0977  0.3318 -0.1773
    9SOL    HW1   26   0.283   2.932   1.429 -1.4727 -0.6444 -3.0482
    9SOL    HW2   27   0.341   3.022   1.560 -1.0713 -1.0032 -1.2439
   10SOL     OW   28   1.171   2.447   0.750  0.6437  0.0803  0.7374
   10SOL    HW1   29   1.122   2.356   0.761 -2.0777 -2.4890 -2.1230
   10SOL    HW2   30   1.106   2.526   0.750 -2.3816  0.4038  0.4234
   11SOL     OW   31   2.493   1.191   1.260 -0.4188  0.0105 -0.3210
   11SOL    HW1   32   2.451   1.103   1.274  1.4981 -0.5241 -0.5809
   11SOL    HW2   33   2.420   1.254   1.218 -0.0485  0.9374 -2.7964
   12SOL     OW   34   0.149   0.908   2.020  0.7970 -0.0770 -0.2845
   12SOL    HW1   35   0.204   0.901   1.938 -0.3062 -1.7493  1.8636
   12SOL    HW2   36   0.197   0.882   2.106  0.2024 -2.0515 -1.4155
   13SOL     OW   37   2.288   0.158   0.140  0.3527 -0.2120  0.1486
   13SOL    HW1   38   2.229   0.190   0.222 -0.2959  0.2304  0.8161
   13SOL    HW2   39   2.224   0.136   0.063  1.4063  0.9588 -1.8376
   14SOL     OW   40   1.540   1.879   0.159 -0.0368 -0.1569 -0.2505
   14SOL    HW1   41   1.559   1.892   0.259  0.6761 -0.1611 -0.9319
   14SOL    HW2   42   1.543   1.968   0.110 -4.4484 -1.0005  4.4865
   15SOL     OW   43   2.986   2.389   2.179 -0.1361 -0.1664  0.3183
   15SOL    HW1   44   3.043   2.473   2.170 -0.7974  1.4385  1.9806
   15SOL    HW2   45   3.023   2.312   2.124 -1.8708 -0.3971 -1.5683
   16SOL     OW   46   2.833   0.570   1.051 -0.7008 -0.1227  0.2616
   16SOL    HW1   47   2.904   0.505   1.026 -4.4951 -0.6023  0.8264
   16SOL    HW2   48   2.790   0.551   1.144 -3.3552  0.2762  1.2645
   17SOL     OW   49   0.827   0.391   0.800 -0.1480 -0.0791 -0.1403
   17SOL    HW1   50   0.815   0.400   0.904  1.4862  1.5255  0.7332
   17SOL    HW2   51   0.925   0.398   0.777  0.0986 -0.3047  2.7068
   18SOL     OW   52   0.279   0.176   0.474  0.7889 -0.1738  0.4031
   18SOL    HW1   53   0.207   0.172   0.543  1.1755 -0.4855 -0.2968
   18SOL    HW2   54   0.370   0.136   0.494 -0.8635  1.1335  0.9930
   19SOL     OW   55   1.555   0.996   0.774  0.0524 -0.3941 -0.0712
   19SOL    HW1   56   1.513   1.092   0.771 -3.4309  1.7167  1.2669
   19SOL    HW2   57   1.494   0.948   0.845 -0.1320 -2.2394  2.2111
   20SOL     OW   58   2.184   1.890   2.703  0.4825  0.0807  0.2500
   20SOL    HW1   59   2.188   1.989   2.686 -2.7202  0.0437  2.5107
   20SOL    HW2   60   2.271   1.841   2.720 -2.3290 -0.8779  0.7074
   21SOL     OW   61   1.328   2.720   0.548 -0.0599 -0.1192  0.5204
   21SOL    HW1   62   1.372   2.632   0.561 -2.0348  2.0038 -0.6124
   21SOL    HW2   63   1.389   2.800   0.574  2.5530  1.3061 -1.9500
   22SOL     OW   64   2.337   1.048   0.324 -0.5854  0.4482 -0.7444
   22SOL    HW1   65   2.333   1.009   0.419 -0.6309 -0.1386 -0.9379
   22SOL    HW2   66   2.256   1.101   0.294  0.4563 -0.8826 -2.6908
   23SOL     OW   67   0.807   0.537   1.891  0.1628  1.1172 -0.6647
   23SOL    HW1   68   0.803   0.491   1.795 -1.0176 -1.6497 -1.6838
   23SOL    HW2   69   0.894   0.503   1.937  0.3879  1.3990 -0.7585
   24SOL     OW   70   1.838   2.391   0.574 -0.0527 -0.4496  0.5134
   24SOL    HW1   71   1.748   2.366   0.531  3.1558 -0.4232 -0.6074
   24SOL    HW2   72   1.900   2.311   0.581  0.6160  0.2554  0.5701
   25SOL     OW   73   1.705   0.083   2.524  0.3186  0.4976  0.1654
   25SOL    HW1   74   1.700   0.117   2.620  1.1315 -0.8447  2.2840
   25SOL    HW2   75   1.660   0.144   2.454 -1.6778  2.7164 -0.4128
   26SOL     OW   76   1.545   2.735   2.886  0.0957  0.1746  0.3845
   26SOL    HW1   77   1.519   2.638   2.875 -1.0997  2.1293  1.9174
   26SOL    HW2   78   1.592   2.759   2.971  0.1220 -0.6999  1.5620
   27SOL     OW   79   1.272   0.318   1.056  0.8082 -0.2104  0.3247
   27SOL    HW1   80   1.182   0.319   1.104 -1.4938 -0.4806  0.6598
   27SOL    HW2   81   1.318   0.232   1.085  1.6606 -0.1763  1.1694
   28SOL     OW   82   0.420   1.742   1.035 -0.2167  0.8344 -0.3081
   28SOL    HW1   83   0.522   1.735   1.041  1.4887  1.0808  0.8809
   28SOL    HW2   84   0.386   1.731   1.128 -0.0746  0.0034 -0.2335
   29SOL     OW   85   2.565   0.861   1.432 -0.2717 -0.2389 -0.2427
   29SOL    HW1   86   2.477   0.913   1.431 -0.0736  2.2156 -1.5810
   29SOL    HW2   87   2.642   0.912   1.480  0.1658 -0.7555  0.0455
   30SOL     OW   88   1.667   2.374   1.505  0.0385 -0.0862 -0.4531
   30SOL    HW1   89   1.768   2.383   1.536 -0.5537  0.0690 -0.2067
   30SOL    HW2   90   1.670   2.354   1.404 -2.1488  0.5097  1.6869
   31SOL     OW   91   1.877   2.748   1.432  0.6543  0.1869  0.5418
   31SOL    HW1   92   1.871   2.702   1.338 -2.7751 -0.1524 -1.5994
   31SOL    HW2   93   1.960   2.724   1.483 -0.2818  1.6466 -1.3355
   32SOL     OW   94   2.238   1.522   2.101  0.3793  0.4176  0.1877
   32SOL    HW1   95   2.310   1.464   2.143 -0.8800 -1.4911  2.8035
   32SOL    HW2   96   2.248   1.515   2.002  1.6882 -0.0526  0.5401
   33SOL     OW   97   2.255   2.978   2.362  0.1006  0.1162  0.3487
   33SOL    HW1   98   2.330   3.040   2.342  0.1086 -1.5537 -1.6657
   33SOL    HW2   99   2.169   3.010   2.321 -0.0551 -2.4267 -1.9957
   34SOL     OW  100   2.133   0.686   0.860  0.3022  0.0474  0.1713
   34SOL    HW1  101   2.192   0.610   0.818 -1.5210 -1.4990 -2.3267
   34SOL    HW2  102   2.062   0.708   0.792 -0.0354 -2.2522 -0.0788
   35SOL     OW  103   0.261   1.596   1.882 -0.0641 -0.6764 -0.4682
   35SOL    HW1  104   0.292   1.499   1.906  1.0078 -0.7835 -0.3286
   35SOL    HW2  105   0.162   1.606   1.900 -0.7347  0.0308  1.6376
   36SOL     OW  106   2.565   2.334   2.741  0.7862 -0.0289 -0.0175
   36SOL    HW1  107   2.661   2.351   2.775  1.7087 -1.7891  1.0868
   36SOL    HW2  108   2.500   2.369   2.807  3.0158  0.2104 -3.8999
   37SOL     OW  109   1.147   2.837   1.789 -0.0338 -0.5076 -0.1598
   37SOL    HW1  110   1.179   2.904   1.860  3.7152 -1.9861 -1.0932
   37SOL    HW2  111   1.227   2.806   1.740 -1.9325 -1.3640  1.9507
   38SOL     OW  112   0.896   0.904   2.300 -0.3105 -0.0707 -0.3084
   38SOL    HW1  113   0.919   0.806   2.289 -2.3231  1.1192 -0.7258
   38SOL    HW2  114   0.859   0.942   2.216  1.4629  1.1695  1.1162
   39SOL     OW  115   1.899   0.823   1.628 -0.1746  0.3461  0.4460
   39SOL    HW1  116   1.968   0.771   1.574  0.7563  0.8279 -0.0098
   39SOL    HW2  117   1.845   0.761   1.692  0.2046 -0.5711 -0.7882
   40SOL     OW  118   0.842   2.472   0.783 -0.2311  0.3656 -0.2426
   40SOL    HW1  119   0.909   2.399   0.816  0.2704 -0.4925  0.9190
   40SOL    HW2  120   0.784   2.427   0.712  0.7997 -1.2312 -0.4613
   41SOL     OW  121   2.217   2.073   1.163 -0.4762  0.2793  0.4126
   41SOL    HW1  122   2.233   2.004   1.086 -0.1949 -0.0726 -1.1574
   41SOL    HW2  123   2.285   2.155   1.159 -1.9715  1.6270  0.8092
   42SOL     OW  124   2.486   0.717   0.460  0.1418 -0.0806 -0.2539
   42SOL    HW1  125   2.540   0.745   0.376 -0.1024  2.7530  0.0936
   42SOL    HW2  126   2.534   0.660   0.521 -3.3930  0.5156  0.3610
   43SOL     OW  127   0.746   1.010   2.626  0.2385  0.1807 -0.9086
   43SOL    HW1  128   0.801   0.986   2.548 -1.3134  2.2052  1.6941
   43SOL    HW2  129   0.767   0.954   2.704 -0.7714 -1.3720 -0.5670
   44SOL     OW  130   1.858   2.588   1.215  0.7827 -0.0917  0.3485
   44SOL    HW1  131   1.764   2.567   1.254 -1.1497  2.7947 -1.3783
   44SOL    HW2  132   1.921   2.508   1.211  1.9235  1.5730 -1.3483
   45SOL     OW  133   0.441   2.606   2.950 -0.3317 -0.2965 -0.3976
   45SOL    HW1  134   0.429   2.576   3.046  1.5052 -0.5207 -1.6844
   45SOL    HW2  135   0.533   2.593   2.910  1.8700  0.8035 -0.6470
   46SOL     OW  136   0.384   2.762   1.971  0.1570 -0.2965  0.0196
   46SOL    HW1  137   0.462   2.787   1.908 -0.4632 -0.2794 -1.8748
   46SOL    HW2  138   0.420   2.751   2.065  0.0113  1.3489  2.5421
   47SOL     OW  139   0.325   1.934   0.608 -0.4639  0.4059 -0.2632
   47SOL    HW1  140   0.408   1.873   0.602 -0.0565  2.6374  0.6861
   47SOL    HW2  141   0.314   1.962   0.705  0.7790  1.8868 -0.5875
   48SOL     OW  142   0.837   3.033   1.250  0.5393  0.1721  0.0914
   48SOL    HW1  143   0.843   2.957   1.317  0.8000  0.8000  0.7257
   48SOL    HW2  144   0.744   3.031   1.202  0.7531 -0.2856 -1.9038
   49SOL     OW  145   2.941   2.794   2.876 -0.2452 -0.4252 -0.5127
   49SOL    HW1  146   2.850   2.814   2.921 -1.4017 -1.3602  0.7309
   49SOL    HW2  147   2.978   2.710   2.924 -0.8277  1.0791 -0.0902
   50SOL     OW  148   1.268   0.956   0.156 -0.1320  0.2174 -0.6274
   50SOL    HW1  149   1.183   0.998   0.117 -1.3788 -1.0984  0.8438
   50SOL    HW2  150   1.350   1.023   0.157  1.7433  0.3607  0.1837
   51SOL     OW  151   1.894   0.210   0.547  0.2854  0.3080  0.3254
   51SOL    HW1  152   1.856   0.268   0.472 -0.3656  3.3359 -1.3220
   51SOL    HW2  153   1.892   0.254   0.641  1.0279 -0.0563 -1.2482
   52SOL     OW  154   0.428   1.556   0.815 -0.3146 -0.5890  0.3582
   52SOL    HW1  155   0.422   1.613   0.899  0.2058 -1.4103  0.3021
   52SOL    HW2  156   0.448   1.458   0.841  0.2063 -1.8731  1.8207
   53SOL     OW  157   0.200   1.170   2.802  0.1202 -0.1686 -0.7430
   53SOL    HW1  158   0.105   1.209   2.779 -0.9402 -1.4468 -0.3974
   53SOL    HW2  159   0.211   1.168   2.903  0.4643  0.3346  2.3583
   54SOL     OW  160   2.642   2.097   2.984 -0.3531 -0.1141  0.2712
   54SOL    HW1  161   2.708   2.091   3.066 -0.3654  0.2534 -0.1023
   54SOL    HW2  162   2.576   2.174   2.995  1.6111  0.4003 -1.0305
   55SOL     OW  163   2.644   2.242   1.216  0.2268  0.2126  0.5295
   55SOL    HW1  164   2.713   2.295   1.272 -0.6927  1.5368  1.4611
   55SOL    HW2  165   2.547   2.270   1.243 -1.3095  2.2283  1.9298
   56SOL     OW  166   1.925   0.258   1.577  0.7145  0.1698  0.2664
   56SOL    HW1  167   1.841   0.313   1.595  1.1808 -1.1214  1.0971
   56SOL    HW2  168   1.905   0.176   1.521  0.2038  0.7215 -0.4037
   57SOL     OW  169   2.073   1.948   1.350 -0.0390 -0.0921  0.4520
   57SOL    HW1  170   2.145   1.999   1.297 -0.8434  1.2347  0.2550
   57SOL    HW2  171   1.984   1.944   1.301 -0.1033  0.4863 -2.4219
   58SOL     OW  172   2.646   0.409   2.083  0.1088  0.5034  0.4448
   58SOL    HW1  173   2.695   0.424   2.171  1.4061  0.3463  0.2210
   58SOL    HW2  174   2.565   0.471   2.073  0.6460 -0.2139 -1.5199
   59SOL     OW  175   1.246   2.542   2.041 -0.7337  0.0618 -0.5618
   59SOL    HW1  176   1.161   2.551   2.098  1.5831 -0.6968 -1.5266
   59SOL    HW2  177   1.215   2.535   1.947 -1.5632  1.0921  1.9445
   60SOL     OW  178   0.685   2.599   2.822 -0.1883 -0.2002  0.2487
   60SOL    HW1  179   0.759   2.606   2.896 -1.2681  0.1574  1.9486
   60SOL    HW2  180   0.692   2.674   2.751 -2.9888  0.5900 -1.0733
   61SOL     OW  181   0.647   2.245   0.323 -0.3070 -0.4261 -0.1550
   61SOL    HW1  182   0.638   2.261   0.221  0.2692  1.6948 -0.4019
   61SOL    HW2  183   0.587   2.169   0.349 -1.4355 -2.7048 -1.9225
   62SOL     OW  184   1.309   1.565   1.741 -0.3994 -0.0370  0.2714
   62SOL    HW1  185   1.231   1.623   1.778  1.7273 -0.5796  0.1536
   62SOL    HW2  186   1.396   1.625   1.722  3.3633  3.1030 -0.0545
   63SOL     OW  187   0.986   1.970   0.785  0.2979 -0.2160  0.7833
   63SOL    HW1  188   0.884   1.979   0.784 -0.2157 -1.6451 -0.8931
   63SOL    HW2  189   1.016   1.881   0.822  0.3285  0.6901 -1.1642
   64SOL     OW  190   1.429   1.558   2.818  0.3659 -0.1073 -0.1265
   64SOL    HW1  191   1.335   1.582   2.850  0.5344  1.8099  0.4635
   64SOL    HW2  192   1.457   1.472   2.874  1.2966 -2.8859  0.0906
   65SOL     OW  193   1.717   1.999   2.107  0.8562 -0.7132  0.1970
   65SOL    HW1  194   1.792   2.023   2.043 -0.0785  0.7655 -0.1666
   65SOL    HW2  195   1.745   1.943   2.185 -1.9795 -0.7726 -3.8204
   66SOL     OW  196   0.036   0.924   1.017  0.3779 -0.6940 -0.6365
   66SOL    HW1  197   3.099   0.873   1.088 -0.5535 -1.7883 -2.0372
   66SOL    HW2  198   0.027   0.880   0.930 -0.4870  0.0780  0.3334
   67SOL     OW  199   2.135   2.443   0.640  1.2150  0.3017 -0.4446
   67SOL    HW1  200   2.141   2.345   0.667 -1.3440  0.1330 -0.2875
   67SOL    HW2  201   2.134   2.452   0.540 -1.1339  0.6114  0.3414
   68SOL     OW  202   2.511   2.659   1.704 -0.3614  0.5983  0.4610
   68SOL    HW1  203   2.595   2.703   1.669  1.6883  1.5760 -0.3100
   68SOL    HW2  204   2.538   2.608   1.786  2.3920  2.6192  0.3937
   69SOL     OW  205   2.506   2.641   3.040 -0.0165  0.0305 -0.1004
   69SOL    HW1  206   2.424   2.675   2.988  1.5189 -3.4863 -1.0168
   69SOL    HW2  207   2.533   2.710   0.004  1.7806  3.9276  1.2973
   70SOL     OW  208   0.530   1.444   2.688  0.8233  0.5992  0.4795
   70SOL    HW1  209   0.600   1.378   2.713  1.3890 -0.1298 -0.3049
   70SOL    HW2  210   0.450   1.430   2.749  0.9451  2.2203  0.7318
   71SOL     OW  211   0.696   1.259   2.133 -0.0328  0.4860 -0.4510
   71SOL    HW1  212   0.597   1.266   2.097 -0.3926 -0.3730  0.6349
   71SOL    HW2  213   0.754   1.342   2.111  0.5392  0.9635  0.4381
   72SOL     OW  214   2.969   1.499   1.694  0.3495 -0.3255  0.1168
   72SOL    HW1  215   3.038   1.566   1.658 -0.9695 -1.4405  1.0902
   72SOL    HW2  216   2.976   1.486   1.795  0.2450 -0.1321  2.3006
   73SOL     OW  217   0.889   1.955   2.485 -0.1976 -0.2574 -0.2010
   73SOL    HW1  218   0.832   2.007   2.551  0.7233  0.2990 -3.4159
   73SOL    HW2  219   0.853   1.976   2.392  0.4306  0.9127 -1.4334
   74SOL     OW  220   1.547   3.069   1.956 -0.1788 -0.2520 -0.3876
   74SOL    HW1  221   1.640   3.059   1.996 -1.1499  0.2806  0.4326
   74SOL    HW2  222   1.484   3.015   2.024 -4.1263 -0.3597  1.6871
   75SOL     OW  223   1.157   2.896   0.788  0.4433  0.0065  0.1740
   75SOL    HW1  224   1.105   2.819   0.740 -1.4645 -0.5420 -2.0424
   75SOL    HW2  225   1.190   2.967   0.720 -1.7034  2.0884 -0.9596
   76SOL     OW  226   0.521   1.847   2.884  0.0053  0.3825  0.4194
   76SOL    HW1  227   0.599   1.888   2.934 -3.2872  3.1330  1.4764
   76SOL    HW2  228   0.543   1.788   2.803  0.1578  0.2792 -1.5081
   77SOL     OW  229   0.576   2.576   1.096 -0.5276 -0.2622  0.0345
   77SOL    HW1  230   0.534   2.654   1.144  1.0822 -2.7148 -0.1507
   77SOL    HW2  231   0.568   2.589   1.000 -2.2103 -0.4445  4.9065
   78SOL     OW  232   2.415   1.337   0.142 -0.2668  0.0596  0.0730
   78SOL    HW1  233   2.477   1.262   0.119 -1.0467  1.6133 -0.7284
   78SOL    HW2  234   2.466   1.418   0.183 -0.2363 -1.1858 -1.4315
   79SOL     OW  235   0.455   1.696   0.004  0.4619 -0.1710  0.2570
   79SOL    HW1  236   0.449   1.593   0.004 -2.4069  0.4580  0.5357
   79SOL    HW2  237   0.505   1.739   3.034 -0.7078 -2.7836  2.9244
   80SOL     OW  238   1.862   1.623   1.734  0.0558 -0.0115  0.2127
   80SOL    HW1  239   1.808   1.688   1.674  0.3806  0.5368 -0.2718
   80SOL    HW2  240   1.807   1.584   1.806  0.2598 -1.9331 -0.7656
   81SOL     OW  241   2.239   0.793   2.338  0.5813  0.9250 -0.6738
   81SOL    HW1  242   2.153   0.755   2.300  1.5682  2.0590  0.8166
   81SOL    HW2  243   2.218   0.869   2.401 -0.2139 -0.1623  3.8768
   82SOL     OW  244   1.703   1.794   1.586  0.6355  0.2325  0.3303
   82SOL    HW1  245   1.608   1.777   1.582  4.1649 -1.8754  0.0095
   82SOL    HW2  246   1.715   1.893   1.579 -2.2308  0.5493  0.4874
   83SOL     OW  247   2.934   0.087   2.659  0.3482  0.2588 -0.2268
   83SOL    HW1  248   2.905   0.028   2.581 -1.4979  1.1151 -2.3231
   83SOL    HW2  249   2.871   0.075   2.737  0.3550  4.0529 -1.6192
   84SOL     OW  250   0.653   1.136   0.193 -0.1408  0.2338  0.0183
   84SOL    HW1  251   0.663   1.078   0.107  1.9745 -0.6902 -0.3579
   84SOL    HW2  252   0.616   1.079   0.273  0.8912 -2.4904  0.7893
   85SOL     OW  253   2.192   1.694   1.370 -0.6634  0.2239  0.7504
   85SOL    HW1  254   2.155   1.791   1.356 -2.6876  2.0831 -0.4331
   85SOL    HW2  255   2.197   1.643   1.281 -0.3310 -0.2743 -1.4149
   86SOL     OW  256   0.708   0.898   1.038  0.1159 -1.1934 -0.2882
   86SOL    HW1  257   0.765   0.974   1.081  0.6594  0.0229  0.6392
   86SOL    HW2  258   0.643   0.873   1.114  0.1668 -1.4566  0.4290
   87SOL     OW  259   2.805   2.140   2.537 -1.1932  0.1618 -0.0320
   87SOL    HW1  260   2.743   2.090   2.597  0.6368 -1.5269 -1.4126
   87SOL    HW2  261   2.752   2.209   2.483  1.2779 -0.7755 -1.2690
   88SOL     OW  262   0.100   2.895   0.196 -0.2278  0.1643 -0.4163
   88SOL    HW1  263   0.169   2.951   0.141 -1.0106 -1.2089  1.6254
   88SOL    HW2  264   0.044   2.962   0.243  1.3741  0.7102  3.4420
   89SOL     OW  265   1.223   3.081   0.603 -0.1699  0.1167 -0.4540
   89SOL    HW1  266   1.297   3.009   0.595  1.2967  0.6496  1.2580
   89SOL    HW2  267   1.273   0.054   0.627  1.1908 -3.1617 -0.1092
   90SOL     OW  268   2.698   0.972   2.390  0.6620  0.3618  0.5108
   90SOL    HW1  269   2.650   1.050   2.439  2.2304  0.9340  0.8817
   90SOL    HW2  270   2.799   0.982   2.378  1.7437 -1.4145 -3.7349
   91SOL     OW  271   2.181   3.103   0.978 -0.1263  0.1332 -0.9800
   91SOL    HW1  272   2.196   0.016   1.072 -0.1253  2.0436 -3.8760
   91SOL    HW2  273   2.159   3.004   0.969  1.5346  0.8225 -0.0458
   92SOL     OW  274   1.581   1.657   0.919  0.4581 -0.2569  0.4689
   92SOL    HW1  275   1.610   1.574   0.867 -0.6722 -1.5382 -0.0101
   92SOL    HW2  276   1.658   1.722   0.931 -2.7280  1.6664  0.2641
   93SOL     OW  277   0.168   1.565   0.381 -0.2167  0.0193  0.3543
   93SOL    HW1  278   0.118   1.656   0.385 -2.1268 -1.4409  1.5865
   93SOL    HW2  279   0.261   1.582   0.339 -2.1549  3.8669 -2.3471
   94SOL     OW  280   0.973   2.595   1.359  0.2069 -0.0494 -0.5449
   94SOL    HW1  281   1.060   2.590   1.417  1.3311 -3.2666 -0.3598
   94SOL    HW2  282   0.997   2.582   1.257  0.1624  0.1054 -0.6500
   95SOL     OW  283   0.069   0.821   0.779 -0.1152  0.0982 -0.8068
   95SOL    HW1  284   0.158   0.823   0.733  0.3626  1.0361  2.0911
   95SOL    HW2  285   0.015   0.741   0.740 -0.5360 -0.2673 -0.2147
   96SOL     OW  286   0.625   2.829   1.867  0.0289 -0.8248 -0.0703
   96SOL    HW1  287   0.628   2.824   1.765  0.9703  2.1633  1.6040
   96SOL    HW2  288   0.720   2.844   1.901  0.8145  1.7946  0.0925
   97SOL     OW  289   2.491   0.896   1.031 -0.3540  0.0991 -0.0767
   97SOL    HW1  290   2.483   0.842   1.114 -1.2750  0.1431 -2.2610
   97SOL    HW2  291   2.408   0.911   0.972 -0.7930  0.6409  0.8534
   98SOL     OW  292   0.048   2.398   1.768 -1.0054  0.4249  0.4402
   98SOL    HW1  293   0.093   2.493   1.776  1.4351 -0.0329 -0.3505
   98SOL    HW2  294   3.067   2.391   1.812  0.9335 -0.8052 -0.6528
   99SOL     OW  295   2.901   0.433   1.452  0.2655 -0.1255 -0.1184
   99SOL    HW1  296   2.968   0.350   1.461 -1.0749 -3.0474  0.7107
   99SOL    HW2  297   2.901   0.488   1.539  1.2797  3.4117  0.5168
  100SOL     OW  298   1.983   0.367   2.697  0.3190  0.0312  0.7406
  100SOL    HW1  299   2.079   0.395   2.670  1.9153 -0.2115 -1.4060
  100SOL    HW2  300   1.954   0.294   2.633  2.0100 -0.5760  0.2220
  101SOL     OW  301   1.015   0.124   2.108  0.3548 -0.1038  0.0973
  101SOL    HW1  302   0.931   0.062   2.095 -0.2216  0.9133 -2.0015
  101SOL    HW2  303   1.012   0.170   2.198 -0.5691 -0.3719  1.4757
  102SOL     OW  304   0.864   0.722   1.616 -0.6420  0.0395  0.2851
  102SOL    HW1  305   0.789   0.719   1.686 -0.6106  2.9616  1.7322
  102SOL    HW2  306   0.839   0.793   1.546  0.1075 -1.4782  0.5983
  103SOL     OW  307   0.850   0.660   2.844 -0.5837 -0.1140 -0.5780
  103SOL    HW1  308   0.943   0.630   2.866 -0.1393  1.0341 -1.5477
  103SOL    HW2  309   0.777   0.628   2.913 -0.8212  0.4332 -1.3058
  104SOL     OW  310   0.341   0.371   2.076 -0.2273 -0.2010  0.3343
  104SOL    HW1  311   0.429   0.363   2.024  2.7979 -0.9311  1.4168
  104SOL    HW2  312   0.336   0.296   2.145  0.8799  3.3286 -2.9812
  105SOL     OW  313   2.840   2.290   1.629 -0.6524  0.2246 -0.1270
  105SOL    HW1  314   2.817   2.190   1.618  1.5250 -3.0217 -2.2262
  105SOL    HW2  315   2.875   2.315   1.724  0.2667  0.0314  1.4068
  106SOL     OW  316   0.915   3.089   0.821  0.5817  0.2354 -0.2131
  106SOL    HW1  317   0.918   0.019   0.727 -0.0383 -0.3654 -2.6612
  106SOL    HW2  318   0.989   3.019   0.821 -0.0022  2.9775  0.1344
  107SOL     OW  319   3.018   2.140   1.444  0.2893 -0.1003 -0.2121
  107SOL    HW1  320   3.004   2.045   1.424  1.7764  1.2273  1.9963
  107SOL    HW2  321   2.982   2.157   1.537 -1.0165 -0.8854 -0.2780
  108SOL     OW  322   0.000   2.266   0.474 -0.3485 -0.3382  0.2884
  108SOL    HW1  323   0.092   2.217   0.474  1.6964  0.3740 -1.9939
  108SOL    HW2  324   3.084   2.294   0.568 -0.7279  2.0205 -1.4027
  109SOL     OW  325   1.695   2.996   0.775  0.4615 -0.4774 -0.4473
  109SOL    HW1  326   1.749   2.915   0.743  0.6873  0.6426 -0.9758
  109SOL    HW2  327   1.743   3.049   0.846 -0.0944 -1.5653 -1.2366
  110SOL     OW  328   1.830   1.829   0.953 -0.6604 -0.6088 -0.6118
  110SOL    HW1  329   1.787   1.892   1.022  2.4894 -0.0123 -2.6441
  110SOL    HW2  330   1.882   1.755   1.009  0.6012 -4.0793  0.7563
  111SOL     OW  331   1.838   2.637   1.902 -0.5821 -0.1973 -0.2750
  111SOL    HW1  332   1.934   2.598   1.899  2.3568  0.0343 -2.1467
  111SOL    HW2  333   1.817   2.673   1.995  2.0894 -2.4379 -1.4041
  112SOL     OW  334   1.657   2.156   2.506 -0.0772  0.0509 -0.3790
  112SOL    HW1  335   1.559   2.120   2.518 -0.0075 -1.0709  3.7911
  112SOL    HW2  336   1.655   2.246   2.457  0.0389  0.2352  1.1445
  113SOL     OW  337   2.176   2.009   2.099  0.8567  0.2013  0.3586
  113SOL    HW1  338   2.208   1.918   2.133  0.7053 -1.0744 -1.3003
  113SOL    HW2  339   2.101   1.991   2.030  1.4901 -1.7602 -1.7553
  114SOL     OW  340   0.056   1.213   0.973 -0.4538 -0.2129  0.4307
  114SOL    HW1  341   0.039   1.117   0.988 -1.5525  0.1404  0.5778
  114SOL    HW2  342   3.099   1.275   1.015 -0.1479 -1.2277 -0.4785
  115SOL     OW  343   2.688   0.703   2.706 -0.2847  0.1651 -0.4986
  115SOL    HW1  344   2.759   0.774   2.717 -2.0457 -2.7292 -2.4819
  115SOL    HW2  345   2.685   0.674   2.606  1.1473 -0.3971 -1.2923
  116SOL     OW  346   2.768   0.500   2.878 -0.1167  0.0931 -0.1662
  116SOL    HW1  347   2.750   0.585   2.823  0.6289 -0.3513  0.1523
  116SOL    HW2  348   2.729   0.420   2.832  0.8474 -3.4833  2.4726
  117SOL     OW  349   2.547   2.717   0.636 -0.0674  0.7274 -0.2421
  117SOL    HW1  350   2.542   2.617   0.629  0.2084  3.0031  0.1377
  117SOL    HW2  351   2.551   2.754   0.544 -0.9994 -0.8507  1.0217
  118SOL     OW  352   0.846   2.092   2.218  0.4599  0.2205 -0.0347
  118SOL    HW1  353   0.755   2.140   2.215  0.7525  1.3973 -2.3049
  118SOL    HW2  354   0.909   2.122   2.146  2.1011  0.0590  0.1787
  119SOL     OW  355   0.738   2.801   0.473  0.7913 -0.1713 -0.0795
  119SOL    HW1  356   0.791   2.829   0.393  1.1563 -0.4870 -0.5692
  119SOL    HW2  357   0.729   2.698   0.468  2.6143 -1.7659 -0.3729
  120SOL     OW  358   1.318   0.627   0.308  0.3721 -0.1829 -0.1230
  120SOL    HW1  359   1.328   0.720   0.348  0.3358 -1.5063 -0.9938
  120SOL    HW2  360   1.315   0.628   0.210 -1.2231 -1.6761  0.3266
  121SOL     OW  361   1.786   0.582   0.811  0.7208 -0.5763 -0.4797
  121SOL    HW1  362   1.732   0.633   0.881  0.6931  0.0748 -1.2901
  121SOL    HW2  363   1.851   0.637   0.755  0.5444 -0.1846 -1.0397
  122SOL     OW  364   2.106   1.203   2.441 -0.7260  0.0247  0.0937
  122SOL    HW1  365   2.026   1.140   2.451 -0.2442  0.4392  1.7543
  122SOL    HW2  366   2.097   1.265   2.360  1.3098  3.3111 -2.9172
  123SOL     OW  367   0.912   1.276   0.986  0.1996 -0.8343 -0.0039
  123SOL    HW1  368   0.969   1.210   0.934 -1.3222  0.7099  1.1813
  123SOL    HW2  369   0.870   1.340   0.921 -1.4202  1.5854 -1.3450
  124SOL     OW  370   0.605   0.413   2.674 -0.3587  0.0308  0.3111
  124SOL    HW1  371   0.602   0.416   2.776 -1.3152 -0.3873  0.8317
  124SOL    HW2  372   0.698   0.393   2.638 -1.2167  1.3974 -0.9681
  125SOL     OW  373   0.967   3.089   0.000  0.0465 -0.0843 -0.9913
  125SOL    HW1  374   1.061   3.062   3.091 -0.9558  0.0066  2.2928
  125SOL    HW2  375   0.966   0.018   0.097  0.0568  0.4787 -1.7470
  126SOL     OW  376   0.648   1.403   0.195  0.2622 -0.2063  0.2450
  126SOL    HW1  377   0.660   1.298   0.201  1.3858 -1.6680  0.5657
  126SOL    HW2  378   0.614   1.442   0.281  1.1507 -1.4556 -2.9371
  127SOL     OW  379   1.196   2.561   1.505  0.0724  0.0746  0.2605
  127SOL    HW1  380   1.275   2.595   1.564  1.9047  0.0072  0.0231
  127SOL    HW2  381   1.227   2.516   1.419  0.6571  0.5111 -0.8548
  128SOL     OW  382   0.855   1.710   0.296 -0.2283 -0.4221  0.1413
  128SOL    HW1  383   0.866   1.637   0.221 -0.4910  1.0599 -1.0827
  128SOL    HW2  384   0.929   1.716   0.368 -0.3923 -0.9442  1.9532
  129SOL     OW  385   2.021   1.415   2.249  0.0373  0.0310 -0.4739
  129SOL    HW1  386   1.963   1.369   2.183  0.5470  2.1560  0.5733
  129SOL    HW2  387   2.096   1.472   2.214  0.0826 -1.1206  0.0396
  130SOL     OW  388   2.070   1.769   1.760 -0.1310 -0.0757  0.2736
  130SOL    HW1  389   2.149   1.713   1.777  0.0496  0.8952  1.1249
  130SOL    HW2  390   1.984   1.711   1.759  2.3137 -2.0994 -0.4953
  131SOL     OW  391   0.568   2.493   2.184 -0.2335  0.0930 -0.0418
  131SOL    HW1  392   0.578   2.426   2.261  1.8148  0.7292  1.1826
  131SOL    HW2  393   0.503   2.462   2.111 -0.6276 -0.4444  2.1253
  132SOL     OW  394   2.449   1.611   0.643  0.3297  0.0729  0.7106
  132SOL    HW1  395   2.481   1.519   0.628  0.9894 -1.5618 -1.9066
  132SOL    HW2  396   2.518   1.672   0.602  1.9484 -1.4337  0.8569
  133SOL     OW  397   0.517   1.409   1.804  0.4063 -0.2329  0.0969
  133SOL    HW1  398   0.528   1.505   1.835 -1.2504 -1.4494  1.3143
  133SOL    HW2  399   0.521   1.352   1.888  0.4211  1.4790 -1.4685
  134SOL     OW  400   2.830   1.329   0.672  0.4151  0.1626  0.6738
  134SOL    HW1  401   2.803   1.231   0.673  2.0194  0.2326 -1.7068
  134SOL    HW2  402   2.910   1.344   0.612  1.1552 -1.2845  2.2362
  135SOL     OW  403   1.778   1.179   2.784  0.3543 -0.0552 -0.1281
  135SOL    HW1  404   1.778   1.258   2.720  0.1259 -1.3498  1.0536
  135SOL    HW2  405   1.680   1.140   2.798 -3.2156  0.4373 -1.7641
  136SOL     OW  406   0.012   1.585   1.001  0.1617  0.2676 -0.0004
  136SOL    HW1  407   0.062   1.584   1.090 -1.2429 -1.1748 -0.0931
  136SOL    HW2  408   0.039   1.667   0.945  2.9550 -0.6553  0.8030
  137SOL     OW  409   2.171   1.655   0.635 -0.6821 -0.2747  0.4945
  137SOL    HW1  410   2.146   1.555   0.630  2.4690 -0.9844 -0.7351
  137SOL    HW2  411   2.267   1.663   0.676 -1.0700  0.8424 -1.5817
  138SOL     OW  412   2.561   0.529   0.647 -0.3722  0.3218 -0.1281
  138SOL    HW1  413   2.529   0.558   0.739  1.2744  1.2454  1.1121
  138SOL    HW2  414   2.519   0.438   0.618 -0.7161 -3.4425 -0.0855
  139SOL     OW  415   2.735   0.048   2.829 -0.1534 -0.1589  0.5375
  139SOL    HW1  416   2.705   0.031   2.925 -0.9290  3.7685  1.1281
  139SOL    HW2  417   2.716   3.078   2.775  1.5772  0.6038  1.3863
  140SOL     OW  418   0.889   1.244   1.518 -0.1980 -0.0335  0.2053
  140SOL    HW1  419   0.853   1.167   1.466 -0.6704 -1.0699 -0.7840
  140SOL    HW2  420   0.821   1.273   1.593 -3.0205  0.0904  2.2697
  141SOL     OW  421   1.224   1.527   0.737 -0.9784  0.7916  0.1664
  141SOL    HW1  422   1.274   1.464   0.801 -1.1328 -1.4148 -0.2246
  141SOL    HW2  423   1.178   1.610   0.779  0.8040 -1.6256 -1.1881
  142SOL     OW  424   1.564   0.662   1.012 -0.0256  0.0947  0.3210
  142SOL    HW1  425   1.508   0.604   1.076  2.2393  0.3479 -1.4346
  142SOL    HW2  426   1.525   0.758   1.021 -0.3722 -1.0927 -2.5022
  143SOL     OW  427   0.623   0.595   3.002  0.3490 -0.0348  0.1050
  143SOL    HW1  428   0.592   0.655   2.923  1.0450 -2.3136  1.4712
  143SOL    HW2  429   0.587   0.500   2.995  3.1112  2.1964  1.8752
  144SOL     OW  430   2.513   3.100   0.148  0.0052  0.1543 -0.4246
  144SOL    HW1  431   2.418   0.019   0.124 -2.6921  0.0091 -1.1201
  144SOL    HW2  432   2.530   0.022   0.243 -2.1617  0.8960 -0.2447
  145SOL     OW  433   2.155   0.105   2.580 -0.2751 -0.0229  0.0127
  145SOL    HW1  434   2.222   0.108   2.660  0.0826 -2.1872  0.2188
  145SOL    HW2  435   2.196   0.147   2.494  0.8762  0.0901 -0.7005
  146SOL     OW  436   2.825   2.869   0.327 -0.0734 -0.3786  0.2888
  146SOL    HW1  437   2.815   2.846   0.225  0.0877 -0.2829 -1.2104
  146SOL    HW2  438   2.909   2.927   0.352  1.0880  1.9405 -0.3060
  147SOL     OW  439   1.164   0.688   2.763 -0.5007  0.2546 -0.7698
  147SOL    HW1  440   1.261   0.684   2.791 -0.9374  0.6837 -1.4093
  147SOL    HW2  441   1.110   0.771   2.789  0.3619  0.9556 -1.8735
  148SOL     OW  442   0.967   0.065   0.569 -0.0025 -0.1536  0.2284
  148SOL    HW1  443   1.042   3.105   0.554  0.4217 -0.6778  0.8405
  148SOL    HW2  444   0.937   0.116   0.490 -1.0137 -0.3967 -0.2764
  149SOL     OW  445   1.234   0.757   2.161  0.0860 -0.2733  0.2045
  149SOL    HW1  446   1.299   0.808   2.217 -0.4108 -1.0457 -0.5440
  149SOL    HW2  447   1.164   0.823   2.124 -1.1549  1.2040  2.8063
  150SOL     OW  448   1.752   3.104   2.971 -0.0334 -0.0018 -0.4701
  150SOL    HW1  449   1.749   0.004   3.071  2.8300  0.2981 -0.3259
  150SOL    HW2  450   1.831   0.045   2.929  0.2683  0.0114  0.2957
  151SOL     OW  451   0.413   1.391   0.011 -0.8406  0.2128 -0.0770
  151SOL    HW1  452   0.368   1.301   0.021 -0.4329  2.6180  0.5334
  151SOL    HW2  453   0.490   1.400   0.078 -0.0880  0.5794 -2.5891
  152SOL     OW  454   0.812   0.488   1.078 -0.4973  0.9248 -0.8181
  152SOL    HW1  455   0.740   0.513   1.142 -1.0723  0.9082 -0.1196
  152SOL    HW2  456   0.898   0.467   1.130 -0.0278  2.6561  2.2842
  153SOL     OW  457   2.492   3.048   1.894  0.1101  0.2868 -0.0522
  153SOL    HW1  458   2.495   0.030   1.934 -0.7446 -0.6468 -1.5540
  153SOL    HW2  459   2.402   3.006   1.928 -0.5553 -1.3173  0.2053
  154SOL     OW  460   2.253   2.940   1.979  0.4840  0.1691  0.5575
  154SOL    HW1  461   2.173   2.986   2.022  0.8621 -0.2142 -2.6556
  154SOL    HW2  462   2.219   2.857   1.925 -0.1191 -0.1001  0.5586
  155SOL     OW  463   2.919   1.066   0.452 -0.6371  0.3422  0.0274
  155SOL    HW1  464   2.972   1.003   0.392 -1.8469 -2.0356 -0.5575
  155SOL    HW2  465   2.976   1.081   0.537 -0.4155 -1.1966  1.5328
  156SOL     OW  466   2.067   1.415   0.632 -0.6659  0.1914 -0.1056
  156SOL    HW1  467   2.050   1.338   0.695  0.5650  3.9176  1.1521
  156SOL    HW2  468   2.078   1.386   0.537  0.2972  1.7377  1.0999
  157SOL     OW  469   0.735   0.050   2.741  0.9643 -0.5261 -0.1064
  157SOL    HW1  470   0.760   0.079   2.839  3.2766  0.3713  1.4768
  157SOL    HW2  471   0.634   0.047   2.740 -0.8123 -0.3573  0.8989
  158SOL     OW  472   2.088   1.112   1.234 -0.4843  0.0255  0.0455
  158SOL    HW1  473   2.169   1.083   1.290  0.3795  0.2842  1.6496
  158SOL    HW2  474   2.022   1.170   1.285 -0.7859 -0.9345 -0.9346
  159SOL     OW  475   0.203   0.163   0.195 -0.2040 -0.4598 -0.8095
  159SOL    HW1  476   0.253   0.087   0.152  1.2118  2.6828  0.9810
  159SOL    HW2  477   0.210   0.160   0.297  0.3120 -0.9536  0.7110
  160SOL     OW  478   2.728   2.183   1.941  0.4198 -0.1075  0.8196
  160SOL    HW1  479   2.712   2.159   2.038  0.7626 -1.7935 -2.0331
  160SOL    HW2  480   2.638   2.214   1.903 -2.3957 -3.5261 -0.4804
  161SOL     OW  481   0.274   0.675   2.938  0.5128  0.6077  0.3953
  161SOL    HW1  482   0.355   0.718   2.897 -0.3329 -0.8426  1.7616
  161SOL    HW2  483   0.227   0.613   2.873  0.7441 -1.1461  0.0523
  162SOL     OW  484   0.806   0.425   1.653 -0.0706 -0.1421  0.1727
  162SOL    HW1  485   0.759   0.492   1.593 -1.9642 -0.1388  0.6657
  162SOL    HW2  486   0.781   0.322   1.638  2.2157 -3.9699 -0.7349
  163SOL     OW  487   2.605   2.954   2.395  0.2986 -0.1801  0.3088
  163SOL    HW1  488   2.610   2.880   2.325 -0.5439  1.1402 -1.9645
  163SOL    HW2  489   2.546   3.032   2.360 -2.3858  3.3754 -0.3126
  164SOL     OW  490   2.197   1.733   0.364  0.0048 -0.5411  0.5158
  164SOL    HW1  491   2.157   1.664   0.299  2.0516 -0.9405  0.7060
  164SOL    HW2  492   2.172   1.709   0.463 -0.7434  1.2799  3.0092
  165SOL     OW  493   0.345   0.195   0.829 -0.1803  0.2861 -0.3571
  165SOL    HW1  494   0.386   0.154   0.745  0.0683 -1.3362 -1.1001
  165SOL    HW2  495   0.401   0.178   0.910 -0.5032  0.5183 -1.3702
  166SOL     OW  496   2.844   0.354   3.097  0.0045  0.4349 -0.4122
  166SOL    HW1  497   2.836   0.406   3.006  0.7583  0.4847 -3.7820
  166SOL    HW2  498   2.793   0.264   0.002  2.2460  0.0374 -1.2811
  167SOL     OW  499   2.211   0.631   0.395  0.0747  0.0987 -0.2364
  167SOL    HW1  500   2.301   0.637   0.444 -1.3083  1.6324  0.6284
  167SOL    HW2  501   2.228   0.622   0.293  2.5415  0.0669 -4.1286
  168SOL     OW  502   1.622   0.284   2.293  0.1663  0.4687 -0.3143
  168SOL    HW1  503   1.540   0.248   2.342  3.2114 -0.1027  0.5852
  168SOL    HW2  504   1.603   0.378   2.248 -0.1485  1.5786 -0.4694
  169SOL     OW  505   0.306   1.935   0.873 -0.4485 -0.3871  0.6944
  169SOL    HW1  506   0.345   1.864   0.936  2.5486  0.9026 -0.3421
  169SOL    HW2  507   0.318   2.033   0.913 -1.7457  2.7134  1.3651
  170SOL     OW  508   0.405   0.138   1.341  0.2681  0.1679  0.6316
  170SOL    HW1  509   0.468   0.207   1.374 -0.3466 -3.3244 -2.9004
  170SOL    HW2  510   0.402   0.054   1.396 -1.2649  2.4072 -1.1392
  171SOL     OW  511   2.520   1.411   2.329 -0.1815 -0.6291 -0.5276
  171SOL    HW1  512   2.481   1.352   2.253 -0.9589  0.5026 -2.4992
  171SOL    HW2  513   2.591   1.468   2.287 -1.5705 -0.6239  1.8294
  172SOL     OW  514   0.914   1.724   1.108 -0.0752 -0.4492 -0.1807
  172SOL    HW1  515   0.818   1.689   1.113 -1.6158  0.0013 -1.2890
  172SOL    HW2  516   0.967   1.679   1.179 -0.3868  2.0497 -1.6186
  173SOL     OW  517   1.861   2.072   2.957 -0.1301 -0.0938 -0.1193
  173SOL    HW1  518   1.894   1.974   2.971  3.0327 -1.1105 -0.6104
  173SOL    HW2  519   1.896   2.134   3.029  0.7047  0.2668 -0.6512
  174SOL     OW  520   1.879   0.599   0.072  0.2379  0.2091 -0.2214
  174SOL    HW1  521   1.958   0.654   0.036 -1.1205  0.7377 -1.0318
  174SOL    HW2  522   1.797   0.657   0.082 -3.5507  1.4394 -0.9957
  175SOL     OW  523   0.576   1.658   1.883  0.2978  0.7589 -0.2335
  175SOL    HW1  524   0.486   1.693   1.859  1.9449  2.4040  1.2988
  175SOL    HW2  525   0.623   1.721   1.946 -1.9667 -0.2447  2.0762
  176SOL     OW  526   0.793   0.307   0.367 -0.2610 -0.1834  0.2560
  176SOL    HW1  527   0.810   0.409   0.379 -0.1913  3.5839  2.1418
  176SOL    HW2  528   0.738   0.280   0.450 -0.8075  0.9739  0.8520
  177SOL     OW  529   0.103   1.546   3.098  0.0598 -0.0813 -0.5858
  177SOL    HW1  530   0.027   1.502   3.044  2.0891 -0.4285  0.8326
  177SOL    HW2  531   0.184   1.489   3.108 -0.5110  0.9916 -0.2973
  178SOL     OW  532   0.053   2.128   2.347  0.1957 -0.5351  0.0510
  178SOL    HW1  533   0.079   2.032   2.366  2.0026  0.5329  1.5194
  178SOL    HW2  534   0.035   2.146   2.247 -1.1031  0.9914 -2.5447
  179SOL     OW  535   2.316   0.091   2.813 -0.4312 -0.6726  0.8088
  179SOL    HW1  536   2.364   0.182   2.820 -0.0650  0.0009  1.3874
  179SOL    HW2  537   2.238   0.091   2.876  0.6816  1.4930 -2.2192
  180SOL     OW  538   2.499   0.318   0.947 -0.4612  0.3296 -0.2465
  180SOL    HW1  539   2.405   0.294   0.911 -0.2097  1.9213  0.6159
  180SOL    HW2  540   2.515   0.421   0.939 -0.3552  0.2324 -3.0382
  181SOL     OW  541   2.863   3.034   2.449  0.0197 -0.1694 -0.4728
  181SOL    HW1  542   2.781   2.979   2.434  0.9548  3.3942  1.8620
  181SOL    HW2  543   2.946   2.982   2.428 -0.9262  0.0785  1.4286
  182SOL     OW  544   2.250   2.325   2.337  0.2147  0.2371 -0.3869
  182SOL    HW1  545   2.320   2.332   2.409  1.9889 -3.4851 -4.1260
  182SOL    HW2  546   2.284   2.257   2.265  0.2719 -1.7895  0.9708
  183SOL     OW  547   2.844   1.314   1.548 -0.4430 -0.0439 -0.5256
  183SOL    HW1  548   2.885   1.392   1.601 -0.6640  2.6185 -0.0575
  183SOL    HW2  549   2.746   1.333   1.521  0.2938  0.4078 -1.1978
  184SOL     OW  550   2.854   1.529   0.860  0.2000  0.3176 -0.4075
  184SOL    HW1  551   2.948   1.548   0.894  4.0512 -3.1183 -0.2805
  184SOL    HW2  552   2.862   1.443   0.803 -0.2057 -0.3452  0.5187
  185SOL     OW  553   0.106   2.938   0.961 -0.0633 -0.3530  0.5919
  185SOL    HW1  554   0.174   2.877   0.926  1.4308  0.0957  1.0254
  185SOL    HW2  555   0.033   2.967   0.890  1.5760  1.9606  0.1169
  186SOL     OW  556   2.235   2.570   2.143  0.4626 -0.5179 -0.4935
  186SOL    HW1  557   2.189   2.629   2.218 -0.9715 -1.9857  3.5141
  186SOL    HW2  558   2.263   2.485   2.190  0.8519 -0.2027  0.3598
  187SOL     OW  559   0.211   1.553   0.650  0.4835 -0.3400  0.6692
  187SOL    HW1  560   0.234   1.517   0.558  1.7039  0.6861 -1.2212
  187SOL    HW2  561   0.295   1.570   0.704 -0.6546  0.9465 -1.1657
  188SOL     OW  562   1.620   1.891   0.431 -0.0920  0.1749  0.0186
  188SOL    HW1  563   1.606   1.790   0.455  1.1777 -2.7994 -2.0973
  188SOL    HW2  564   1.536   1.939   0.460  1.6020  1.5878  0.1290
  189SOL     OW  565   3.008   1.457   2.944 -0.1045  0.3235 -0.1595
  189SOL    HW1  566   3.033   1.374   2.888 -2.3549  2.5363 -1.0582
  189SOL    HW2  567   2.937   1.513   2.894  2.2916 -1.7448  0.2682
  190SOL     OW  568   2.357   0.664   2.547 -0.0963  0.4250 -0.2972
  190SOL    HW1  569   2.310   0.710   2.466 -0.5422  0.0809 -2.4939
  190SOL    HW2  570   2.458   0.643   2.523 -0.6192 -1.0432 -1.5274
  191SOL     OW  571   0.822   1.024   2.047  0.1191  0.2706  0.1678
  191SOL    HW1  572   0.831   1.019   1.945 -0.6061  0.9070  0.0555
  191SOL    HW2  573   0.763   1.102   2.077  0.7979 -2.5986 -2.0059
  192SOL     OW  574   1.777   1.318   2.166 -0.3953 -0.4198 -0.2666
  192SOL    HW1  575   1.687   1.278   2.146  0.0150  0.5138  1.9949
  192SOL    HW2  576   1.827   1.269   2.235  0.1324 -0.6958 -1.3202
  193SOL     OW  577   1.568   2.770   1.127 -0.3724 -0.5927 -0.0086
  193SOL    HW1  578   1.640   2.843   1.130 -1.2550 -0.4464  0.9564
  193SOL    HW2  579   1.528   2.766   1.033  1.0249  0.4157  1.0930
  194SOL     OW  580   1.358   1.306   1.832 -0.3178  0.4273  0.3801
  194SOL    HW1  581   1.407   1.247   1.761  0.1368 -1.1227 -0.0527
  194SOL    HW2  582   1.344   1.398   1.794 -0.0973 -2.9105  0.0311
  195SOL     OW  583   1.901   0.346   0.775 -0.1511 -0.6898 -0.4148
  195SOL    HW1  584   1.870   0.444   0.791  0.9441 -1.6262 -0.8726
  195SOL    HW2  585   1.945   0.306   0.857 -2.7182 -0.1267 -0.4476
  196SOL     OW  586   1.041   1.233   2.402  0.1303 -0.1909  0.1589
  196SOL    HW1  587   0.939   1.236   2.415  2.2670 -0.0218  2.2321
  196SOL    HW2  588   1.083   1.140   2.427  2.1356 -1.1101  0.6782
  197SOL     OW  589   0.354   0.190   2.286  0.4225  0.2028 -0.3012
  197SOL    HW1  590   0.272   0.194   2.344  1.4608 -0.8965  0.2456
  197SOL    HW2  591   0.389   0.099   2.296 -0.5139  3.9256 -1.2136
  198SOL     OW  592   2.976   1.360   1.122 -0.2508 -0.4037  0.3795
  198SOL    HW1  593   3.022   1.448   1.100  0.0292 -1.3667  1.6749
  198SOL    HW2  594   2.875   1.365   1.103  0.3531 -0.3239 -0.5313
  199SOL     OW  595   0.353   2.188   0.999 -0.0228 -0.2040 -0.5867
  199SOL    HW1  596   0.408   2.219   0.916  0.2724 -1.7959 -4.0593
  199SOL    HW2  597   0.387   2.235   1.085  0.7996  2.0644  2.8036
  200SOL     OW  598   2.590   2.037   2.712  0.0702 -0.1845  0.2942
  200SOL    HW1  599   2.637   2.079   2.794  0.2929 -2.6451 -1.4143
  200SOL    HW2  600   2.511   1.972   2.743 -1.8673  0.1890 -0.4459
  201SOL     OW  601   0.843   1.976   1.230  0.0164 -0.0518  0.0082
  201SOL    HW1  602   0.881   1.979   1.320 -1.5775  1.0023 -2.3361
  201SOL    HW2  603   0.867   1.891   1.177 -3.0724  0.5415  0.0871
  202SOL     OW  604   0.856   2.314   0.100  0.2016  0.0473 -0.2898
  202SOL    HW1  605   0.875   2.397   0.155  1.8994 -0.2094 -0.8070
  202SOL    HW2  606   0.897   2.233   0.152 -2.4454 -1.5305 -0.4284
  203SOL     OW  607   1.864   0.363   2.382  0.0725  0.3968 -0.1721
  203SOL    HW1  608   1.937   0.348   2.312  2.6473 -1.9759  0.7312
  203SOL    HW2  609   1.774   0.330   2.351  2.4289 -1.0488  1.0092
  204SOL     OW  610   0.189   1.328   1.696  0.2424  0.8713  0.3410
  204SOL    HW1  611   0.248   1.407   1.664  1.4356  3.1762 -0.9926
  204SOL    HW2  612   0.247   1.244   1.716  0.6094 -0.9569  0.2495
  205SOL     OW  613   2.367   1.544   2.530  0.1959 -0.1072  0.1334
  205SOL    HW1  614   2.437   1.520   2.461 -1.5309 -0.4784  1.9505
  205SOL    HW2  615   2.318   1.627   2.493  0.5536  0.4789  0.8091
  206SOL     OW  616   0.167   2.048   2.673 -0.5972  0.5866  0.1029
  206SOL    HW1  617   0.153   1.944   2.672  1.1762 -1.4258 -0.7354
  206SOL    HW2  618   0.081   2.100   2.665 -0.7048  0.0957 -4.1089
  207SOL     OW  619   0.627   2.976   1.539  0.0009  0.4143  0.2271
  207SOL    HW1  620   0.542   2.962   1.486 -0.9271 -0.3562 -4.2352
  207SOL    HW2  621   0.701   2.942   1.479 -3.1047  0.6954 -0.6881
  208SOL     OW  622   0.614   2.421   1.535  0.3381 -0.0337 -0.0642
  208SOL    HW1  623   0.600   2.349   1.463  5.4267 -1.4275  0.7135
  208SOL    HW2  624   0.530   2.435   1.593  0.2944  1.3919  1.0757
  209SOL     OW  625   1.022   2.686   2.660 -0.0226  0.2257  0.0710
  209SOL    HW1  626   1.019   2.593   2.700  2.1261 -1.9833  3.3202
  209SOL    HW2  627   0.953   2.748   2.707  1.7577  1.2927 -0.4361
  210SOL     OW  628   2.865   1.409   2.243  0.2631 -0.0808 -0.0594
  210SOL    HW1  629   2.902   1.349   2.315  0.9596  3.1618 -1.5042
  210SOL    HW2  630   2.874   1.506   2.274 -1.4607  1.0704  2.3103
  211SOL     OW  631   1.231   3.019   1.968 -0.3635  0.8840  0.1215
  211SOL    HW1  632   1.303   2.974   2.024  0.2529 -1.3296  0.7480
  211SOL    HW2  633   1.177   3.084   2.022  2.0707 -2.3412  0.0624
  212SOL     OW  634   1.407   2.672   1.654  0.1082 -0.0824 -0.4455
  212SOL    HW1  635   1.478   2.607   1.688  2.0359 -1.0562  0.8482
  212SOL    HW2  636   1.452   2.726   1.578 -0.8981 -2.4524  1.2971
  213SOL     OW  637   2.633   0.752   1.781  0.1379 -0.2388 -0.3959
  213SOL    HW1  638   2.657   0.758   1.681 -1.3354 -2.5439  1.3015
  213SOL    HW2  639   2.709   0.775   1.845 -0.8776  0.6664 -0.5582
  214SOL     OW  640   0.756   2.397   1.208  0.6414 -0.7161  0.1330
  214SOL    HW1  641   0.746   2.394   1.307  1.3864 -0.4123 -0.2481
  214SOL    HW2  642   0.702   2.475   1.168 -2.0805  0.3690 -0.2488
  215SOL     OW  643   2.446   2.149   0.760 -0.0440  0.7880 -0.0549
  215SOL    HW1  644   2.534   2.170   0.809 -0.4131  2.7064 -1.3098
  215SOL    HW2  645   2.464   2.131   0.663 -2.4957  0.5906 -1.1256
  216SOL     OW  646   0.137   0.794   1.434 -0.1589 -0.3653  0.1791
  216SOL    HW1  647   0.124   0.696   1.404 -0.5080  2.4318  0.9639
  216SOL    HW2  648   0.054   0.852   1.410 -1.7511  0.9382 -1.6780
  217SOL     OW  649   2.287   0.261   1.356  0.2045 -0.0616  0.4600
  217SOL    HW1  650   2.388   0.258   1.354  0.5329 -0.2788  0.6534
  217SOL    HW2  651   2.261   0.190   1.291  1.6738 -0.2533 -1.2037
  218SOL     OW  652   1.722   2.316   1.019  0.0999 -0.4302  0.2541
  218SOL    HW1  653   1.809   2.358   0.986 -0.6438  3.1489 -1.3661
  218SOL    HW2  654   1.651   2.391   1.044 -0.5159  2.0312  0.7340
  219SOL     OW  655   1.505   2.165   0.102 -0.1277 -0.2654 -0.1895
  219SOL    HW1  656   1.554   2.256   0.099  1.6357  0.4960  1.0311
  219SOL    HW2  657   1.410   2.187   0.139 -2.5014 -1.0498 -0.3125
  220SOL     OW  658   1.572   2.406   2.835  0.0158  0.3959  0.2929
  220SOL    HW1  659   1.478   2.424   2.800 -1.0811 -0.3827  0.6084
  220SOL    HW2  660   1.599   2.303   2.833  3.3550 -2.5255 -2.2613
  221SOL     OW  661   0.353   2.446   1.646  0.5532  0.1490  0.4169
  221SOL    HW1  662   0.321   2.496   1.723  0.1403  0.9842 -3.5593
  221SOL    HW2  663   0.279   2.396   1.591 -2.8179 -0.5910 -1.1156
  222SOL     OW  664   1.965   2.453   0.889  0.1024 -0.0886 -0.0568
  222SOL    HW1  665   1.919   2.538   0.925  0.1825  1.6540  0.3996
  222SOL    HW2  666   2.006   2.466   0.798 -1.2464 -2.9079  1.9576
  223SOL     OW  667   0.875   2.456   1.886  0.2786 -0.0350 -0.0014
  223SOL    HW1  668   0.801   2.438   1.814  0.0034 -2.3187 -2.9797
  223SOL    HW2  669   0.835   2.508   1.966 -0.5482 -0.7918  2.4606
  224SOL     OW  670   2.816   2.402   1.376  0.2092  0.6314 -0.0043
  224SOL    HW1  671   2.875   2.483   1.392 -0.2066 -1.0490 -0.1475
  224SOL    HW2  672   2.812   2.354   1.466  0.8820 -0.0188 -2.1654
  225SOL     OW  673   2.187   2.168   0.674  0.1055  0.4770  0.5314
  225SOL    HW1  674   2.285   2.147   0.701 -0.0592  1.9859  2.6699
  225SOL    HW2  675   2.167   2.117   0.589  1.6333  0.3665  2.4802
  226SOL     OW  676   1.422   2.495   0.646 -0.5320 -0.0490 -0.0057
  226SOL    HW1  677   1.328   2.477   0.686 -1.8050 -0.2765 -0.9110
  226SOL    HW2  678   1.495   2.433   0.682  0.4573  1.8005  2.2748
  227SOL     OW  679   2.214   1.177   1.017  0.2007  0.1381 -0.0782
  227SOL    HW1  680   2.171   1.160   1.108  1.1055 -3.1138 -0.6830
  227SOL    HW2  681   2.292   1.235   1.029  2.7155 -1.2826 -0.2168
  228SOL     OW  682   1.350   0.452   2.456 -0.3156  1.0468 -0.1723
  228SOL    HW1  683   1.376   0.398   2.542  0.4921  0.1184  0.3884
  228SOL    HW2  684   1.422   0.519   2.428 -1.4797  1.1356 -0.6585
  229SOL     OW  685   3.036   1.231   2.799  0.2599  0.4429 -0.4142
  229SOL    HW1  686   3.048   1.147   2.852  0.8929  0.9008 -1.1288
  229SOL    HW2  687   2.939   1.241   2.767 -0.2591  2.3055 -0.5799
  230SOL     OW  688   0.578   1.325   1.103  0.0005  0.0422 -0.3466
  230SOL    HW1  689   0.478   1.315   1.082 -1.2914 -0.6289  0.0017
  230SOL    HW2  690   0.634   1.268   1.040 -0.4553  1.1024  2.3025
  231SOL     OW  691   2.276   2.921   2.734 -0.1496  0.1926 -0.1645
  231SOL    HW1  692   2.311   3.014   2.754 -0.2558  0.6199  0.8649
  231SOL    HW2  693   2.248   2.903   2.638 -0.9681 -2.1732  0.0944
  232SOL     OW  694   0.367   2.163   0.175 -0.7770 -0.4049 -0.1351
  232SOL    HW1  695   0.451   2.198   0.124 -1.1282 -1.1914 -0.1152
  232SOL    HW2  696   0.288   2.211   0.141 -0.2818 -0.5842  0.3425
  233SOL     OW  697   1.321   2.327   2.194 -0.1554 -0.2428 -0.0876
  233SOL    HW1  698   1.285   2.406   2.144  0.4884 -1.3173  2.1001
  233SOL    HW2  699   1.410   2.305   2.156  3.5375 -0.2807  1.1936
  234SOL     OW  700   1.306   1.502   1.478 -0.2744  0.2258  0.7275
  234SOL    HW1  701   1.403   1.517   1.443  0.6851  0.2452  0.3670
  234SOL    HW2  702   1.305   1.503   1.581  4.0531 -0.3441 -0.0102
  235SOL     OW  703   1.099   1.734   1.795  0.2545 -0.1448  0.3337
  235SOL    HW1  704   1.146   1.826   1.777  0.6144  2.8389  2.0747
  235SOL    HW2  705   1.066   1.733   1.889  0.5277  0.2793 -4.1317
  236SOL     OW  706   1.495   3.006   2.893 -0.0798 -0.8720  0.2221
  236SOL    HW1  707   1.589   3.044   2.894  1.4499 -0.6162 -1.3533
  236SOL    HW2  708   1.502   2.907   2.889 -1.9992  1.2293  1.6834
  237SOL     OW  709   1.412   0.321   1.417 -0.4339 -0.0930 -0.3578
  237SOL    HW1  710   1.432   0.259   1.338 -0.7180  0.1254 -1.4540
  237SOL    HW2  711   1.443   0.280   1.503 -2.6074 -1.4971 -1.5113
  238SOL     OW  712   1.246   0.517   3.100  0.1414 -0.1809 -0.2517
  238SOL    HW1  713   1.299   0.609   0.003 -0.6748  3.6154  1.5980
  238SOL    HW2  714   1.146   0.530   0.016 -0.7009  0.5400 -0.9022
  239SOL     OW  715   2.843   0.913   2.708  0.9622 -0.3994 -0.4015
  239SOL    HW1  716   2.822   1.009   2.695  0.1188  1.5072  0.4818
  239SOL    HW2  717   2.932   0.900   2.751  0.4694 -0.7080 -0.7594
  240SOL     OW  718   2.361   2.482   0.802  0.1857  0.0516 -0.3355
  240SOL    HW1  719   2.394   2.388   0.778  1.1202 -1.1376  1.3676
  240SOL    HW2  720   2.272   2.510   0.756 -0.3496  3.0102  1.5612
  241SOL     OW  721   1.129   1.216   1.133  0.8268  0.1380 -0.2748
  241SOL    HW1  722   1.118   1.269   1.219 -0.8951  0.6005 -1.5038
  241SOL    HW2  723   1.051   1.237   1.074  2.0295  1.4851  0.7294
  242SOL     OW  724   0.634   0.571   0.754 -0.1326  0.4976 -0.4051
  242SOL    HW1  725   0.669   0.638   0.686 -0.5461  1.0698  0.8653
  242SOL    HW2  726   0.703   0.497   0.777  2.1103  0.2955  1.6465
  243SOL     OW  727   0.182   0.457   1.104 -0.2259  0.1490  0.4586
  243SOL    HW1  728   0.137   0.533   1.157 -1.3665 -0.6728  0.4835
  243SOL    HW2  729   0.285   0.471   1.092  2.9306  0.0836 -0.5882
  244SOL     OW  730   0.971   0.110   0.265  0.2431  0.2906 -0.7533
  244SOL    HW1  731   0.901   0.187   0.258  2.0510 -2.1263  0.1601
  244SOL    HW2  732   1.060   0.152   0.249 -1.7657 -1.5900  1.2616
  245SOL     OW  733   2.046   0.825   0.245  0.2103  0.1216  0.3952
  245SOL    HW1  734   2.064   0.811   0.145  1.1102 -0.2427  1.8799
  245SOL    HW2  735   2.112   0.770   0.299  2.3499 -2.1555  3.4843
  246SOL     OW  736   0.326   0.681   1.751 -0.1043  0.0734  0.6562
  246SOL    HW1  737   0.309   0.777   1.710  0.1866  1.6083 -0.7341
  246SOL    HW2  738   0.240   0.624   1.765  0.2237 -0.9456  0.4421
  247SOL     OW  739   0.648   0.124   2.046 -0.0662  0.3799  0.3582
  247SOL    HW1  740   0.556   0.081   2.030 -0.0421  0.4742 -1.6262
  247SOL    HW2  741   0.716   0.048   2.058  0.9334  0.8714  0.5296
  248SOL     OW  742   0.687   1.647   2.256  0.8743 -0.0332  0.5947
  248SOL    HW1  743   0.727   1.654   2.349 -1.3461 -0.7192  0.5213
  248SOL    HW2  744   0.749   1.596   2.197 -3.5409  4.0732  0.8351
  249SOL     OW  745   0.642   2.834   3.011 -0.0715 -0.0375  0.1348
  249SOL    HW1  746   0.686   2.855   2.919  0.9016  2.5275  0.0540
  249SOL    HW2  747   0.566   2.761   2.997 -1.2963 -0.1427  0.6878
  250SOL     OW  748   0.623   0.322   2.253 -0.8114  0.0952 -0.3555
  250SOL    HW1  749   0.554   0.322   2.327 -2.9872 -1.2243 -0.6200
  250SOL    HW2  750   0.611   0.241   2.196 -0.5547  0.5641 -1.2300
  251SOL     OW  751   3.100   1.897   1.280  0.1701 -0.3480  0.2622
  251SOL    HW1  752   0.008   1.887   1.178  2.2390  1.7699 -3.0575
  251SOL    HW2  753   3.028   1.835   1.315 -0.1601  0.0878  0.4544
  252SOL     OW  754   1.929   0.038   1.859 -0.2766  0.5036 -0.2049
  252SOL    HW1  755   1.924   0.061   1.961 -1.0911  0.5865  1.6059
  252SOL    HW2  756   1.892   3.055   1.841  2.5335 -1.4407 -0.2970
  253SOL     OW  757   2.130   1.715   2.495  1.0070  0.6974  0.3794
  253SOL    HW1  758   2.047   1.650   2.493 -3.0208 -1.6015 -1.1946
  253SOL    HW2  759   2.138   1.765   2.583 -1.4864 -1.0942 -2.7294
  254SOL     OW  760   0.759   1.587   1.645  0.1739 -0.6300  0.2368
  254SOL    HW1  761   0.823   1.655   1.602  0.5888 -1.9706 -1.1470
  254SOL    HW2  762   0.684   1.631   1.699  0.6461  1.4332 -0.7461
  255SOL     OW  763   0.713   0.123   1.588 -0.2146 -0.1549 -0.0937
  255SOL    HW1  764   0.815   0.115   1.592  1.3406  1.4483  1.8017
  255SOL    HW2  765   0.667   0.034   1.568 -0.5423  0.2809  0.5683
  256SOL     OW  766   0.084   2.512   0.768 -0.4264 -0.1601 -0.0067
  256SOL    HW1  767   0.024   2.429   0.759 -0.1981 -1.0677  0.7373
  256SOL    HW2  768   0.094   2.540   0.867  0.8235 -1.2876  2.3985
  257SOL     OW  769   0.521   2.756   2.246 -0.1901 -0.3480 -0.7591
  257SOL    HW1  770   0.541   2.660   2.213 -0.7211  0.3055 -1.7226
  257SOL    HW2  771   0.601   2.804   2.294  2.2020 -1.4680  2.6098
  258SOL     OW  772   1.350   1.463   2.114 -0.0818  0.0414  0.0870
  258SOL    HW1  773   1.348   1.437   2.017 -0.1017  0.0676 -2.3871
  258SOL    HW2  774   1.422   1.532   2.125 -1.2693 -0.2076 -1.5957
  259SOL     OW  775   1.083   1.307   1.860  0.8123  0.2540 -0.1962
  259SOL    HW1  776   1.094   1.285   1.958 -1.4668 -0.7918 -1.0754
  259SOL    HW2  777   1.177   1.328   1.822 -0.6621  0.0355 -0.4805
  260SOL     OW  778   2.002   0.675   2.267  0.0039  0.1526 -0.0207
  260SOL    HW1  779   2.039   0.580   2.256  1.4427 -1.1015 -3.4901
  260SOL    HW2  780   1.932   0.694   2.195  0.1206  2.4942  1.0353
  261SOL     OW  781   0.726   1.385   0.777  0.1825  0.3516  0.2039
  261SOL    HW1  782   0.622   1.396   0.780 -0.0902  2.1795 -0.1195
  261SOL    HW2  783   0.751   1.317   0.705 -0.3396  2.7797  1.1259
  262SOL     OW  784   2.044   2.164   2.551  0.0200  0.2378 -0.3631
  262SOL    HW1  785   2.009   2.224   2.474 -0.9211 -0.0545 -3.6034
  262SOL    HW2  786   2.031   2.200   2.646  3.0495 -0.0643  1.3706
  263SOL     OW  787   0.982   2.313   1.076 -0.2458 -0.2943  0.0016
  263SOL    HW1  788   0.896   2.335   1.126 -0.9319 -1.1516 -0.9538
  263SOL    HW2  789   1.040   2.259   1.137 -2.5964  0.9903 -1.3224
  264SOL     OW  790   3.078   2.456   0.283 -1.1826  0.1155 -0.3806
  264SOL    HW1  791   3.078   2.389   0.361 -2.2132 -1.8686 -1.4914
  264SOL    HW2  792   0.019   2.415   0.205 -1.5915 -0.9469 -0.7056
  265SOL     OW  793   1.450   1.300   2.901  0.2756  0.5680 -0.5131
  265SOL    HW1  794   1.509   1.219   2.880 -1.7607 -0.3162  0.6586
  265SOL    HW2  795   1.352   1.278   2.889  0.1476 -1.5045  0.9845
  266SOL     OW  796   1.156   1.830   2.290 -0.1449 -0.0604 -0.3658
  266SOL    HW1  797   1.143   1.929   2.272  0.3644  0.5985 -1.3431
  266SOL    HW2  798   1.115   1.776   2.215  0.9226  1.0588 -3.5380
  267SOL     OW  799   2.414   1.138   2.686 -0.6039 -0.5044  0.3032
  267SOL    HW1  800   2.468   1.165   2.766 -0.7509 -0.4383 -0.8599
  267SOL    HW2  801   2.333   1.199   2.676  0.8491  0.2747 -1.7551
  268SOL     OW  802   1.084   1.384   0.019  0.4472 -0.5832 -0.2086
  268SOL    HW1  803   1.160   1.436   0.058 -0.4367 -0.3339 -1.1836
  268SOL    HW2  804   1.110   1.317   3.057 -1.1686  1.2976  3.1604
  269SOL     OW  805   2.919   1.973   2.349 -0.3737  0.3747  0.1178
  269SOL    HW1  806   2.908   2.037   2.270 -1.2444 -0.7526 -0.1567
  269SOL    HW2  807   2.885   2.013   2.432 -0.0498  1.9033 -5.5496
  270SOL     OW  808   0.378   2.307   2.929 -0.0263  0.0283 -0.1350
  270SOL    HW1  809   0.372   2.204   2.909 -1.2511  1.2788  0.9630
  270SOL    HW2  810   0.364   2.365   2.849  1.0081 -2.8785  0.6768
  271SOL     OW  811   0.189   0.481   0.222 -0.3401  0.4458 -0.5554
  271SOL    HW1  812   0.189   0.376   0.220  1.6635 -1.7675 -0.9816
  271SOL    HW2  813   0.095   0.509   0.189 -1.5173  1.8957 -1.1842
  272SOL     OW  814   3.053   3.067   0.329  0.1138  0.1368  0.0639
  272SOL    HW1  815   3.096   3.055   0.421 -1.1764 -0.9344 -0.3113
  272SOL    HW2  816   2.980   0.030   0.331 -0.9664  1.0253  0.5863
  273SOL     OW  817   0.294   3.098   1.736  0.3150 -0.4496 -0.8970
  273SOL    HW1  818   0.332   3.089   1.830 -1.7178  1.3221 -2.5748
  273SOL    HW2  819   0.259   0.081   1.712 -0.5466 -0.9363 -1.1795
  274SOL     OW  820   0.038   0.550   1.313  0.6394 -0.9044 -0.0859
  274SOL    HW1  821   3.045   0.544   1.341 -2.5166 -0.3991 -0.1811
  274SOL    HW2  822   0.103   0.512   1.381  0.6126 -1.7616 -0.4270
  275SOL     OW  823   0.671   1.601   1.085  0.0935  0.2050 -0.0699
  275SOL    HW1  824   0.701   1.610   0.985 -0.2595 -0.5045 -0.2626
  275SOL    HW2  825   0.647   1.509   1.120 -0.3582  2.7111 -3.7909
  276SOL     OW  826   0.383   1.144   1.747  0.2833 -0.5993  0.0095
  276SOL    HW1  827   0.405   1.169   1.839  0.2268 -4.8144 -2.2292
  276SOL    HW2  828   0.455   1.079   1.712 -1.6889  1.3545  2.4261
  277SOL     OW  829   1.268   1.940   1.755 -0.1453  0.5018  0.2101
  277SOL    HW1  830   1.299   1.921   1.851  3.0054 -0.0502  1.1706
  277SOL    HW2  831   1.255   2.044   1.749 -0.2814  2.2070  0.5763
  278SOL     OW  832   2.425   2.727   2.071 -0.7171 -0.4039  0.1161
  278SOL    HW1  833   2.382   2.818   2.041 -2.7205 -1.3457  0.8841
  278SOL    HW2  834   2.352   2.664   2.107  0.7737  0.2252 -1.2560
  279SOL     OW  835   1.324   1.876   3.091  0.9760 -1.2242 -0.1145
  279SOL    HW1  836   1.407   1.879   0.039  2.0723 -0.6619  2.2070
  279SOL    HW2  837   1.342   1.936   3.013 -0.1384  0.0974  0.6608
  280SOL     OW  838   1.379   0.326   0.377 -0.1519  0.1649 -0.7530
  280SOL    HW1  839   1.387   0.277   0.465  0.6603  1.8844  0.0842
  280SOL    HW2  840   1.423   0.420   0.390  1.2295  0.4188 -0.4663
  281SOL     OW  841   0.628   0.575   1.249  0.1695 -0.0506 -0.4189
  281SOL    HW1  842   0.613   0.677   1.237  1.7898  1.6304  2.3839
  281SOL    HW2  843   0.666   0.552   1.344  0.4883 -1.6292  0.3000
  282SOL     OW  844   0.017   2.692   0.585  0.2861  0.3011 -0.0167
  282SOL    HW1  845   0.040   2.623   0.661  1.5943 -1.7307 -0.9482
  282SOL    HW2  846   0.102   2.719   0.534  2.1399 -0.2786  0.0477
  283SOL     OW  847   1.435   1.776   1.588 -0.2377 -0.3744  0.3557
  283SOL    HW1  848   1.406   1.774   1.487  0.8126 -0.0125 -1.7067
  283SOL    HW2  849   1.370   1.837   1.640 -1.1149  1.8669 -0.4569
  284SOL     OW  850   2.812   2.755   1.630 -0.0735  0.4692  0.1015
  284SOL    HW1  851   2.786   2.837   1.576  2.3659  0.6177  1.4679
  284SOL    HW2  852   2.881   2.699   1.580 -1.5797 -1.6229  1.4162
  285SOL     OW  853   0.257   2.402   0.368  0.2506 -0.1989  0.0996
  285SOL    HW1  854   0.209   2.412   0.278  2.5302 -0.3193 -1.5595
  285SOL    HW2  855   0.247   2.305   0.402  2.0084 -1.7016  1.7128
  286SOL     OW  856   0.468   2.772   1.227  0.1869 -0.2151  0.2632
  286SOL    HW1  857   0.525   2.856   1.220  2.6915 -3.2413  2.2356
  286SOL    HW2  858   0.370   2.794   1.218 -1.2088 -1.6468  0.0750
  287SOL     OW  859   0.449   1.296   0.776  0.1203  0.1852  0.5224
  287SOL    HW1  860   0.389   1.232   0.828 -0.2460 -0.1439 -1.9510
  287SOL    HW2  861   0.453   1.271   0.674 -0.3332  1.9935  1.9768
  288SOL     OW  862   1.403   2.074   2.515 -0.4451 -0.2920 -0.0037
  288SOL    HW1  863   1.338   2.042   2.588 -1.0092  2.7102 -0.8191
  288SOL    HW2  864   1.430   1.994   2.463 -0.5162 -0.4770  4.2100
  289SOL     OW  865   2.427   1.772   0.231 -0.2924  0.5921  0.9453
  289SOL    HW1  866   2.348   1.755   0.292  0.0254 -2.9709 -2.3979
  289SOL    HW2  867   2.492   1.694   0.241 -2.6524 -0.0068  1.3539
  290SOL     OW  868   1.313   1.382   0.971  0.0051  0.2363  0.3729
  290SOL    HW1  869   1.349   1.447   1.041 -1.3913  1.9857 -0.1093
  290SOL    HW2  870   1.252   1.317   1.017  0.0387  0.8398 -1.6277
  291SOL     OW  871   1.563   1.051   2.883  0.7809  0.2949  0.3104
  291SOL    HW1  872   1.568   0.997   2.969  1.6485 -0.5516 -1.5985
  291SOL    HW2  873   1.508   0.999   2.811 -2.8751 -1.4435 -2.9877
  292SOL     OW  874   1.344   1.683   0.388 -0.1139  0.6473  0.0510
  292SOL    HW1  875   1.264   1.743   0.394 -2.2219 -0.8186 -0.2452
  292SOL    HW2  876   1.371   1.637   0.477 -1.2933 -0.3096 -1.2802
  293SOL     OW  877   1.592   0.098   1.309  0.7691  0.2350  0.7132
  293SOL    HW1  878   1.672   0.083   1.369 -0.1700 -2.0544 -1.3855
  293SOL    HW2  879   1.503   0.061   1.348  2.6224 -0.2620 -0.7875
  294SOL     OW  880   1.956   0.970   2.891  0.2472 -0.5548 -0.0573
  294SOL    HW1  881   1.891   1.041   2.883  2.0124 -2.8350  1.6857
  294SOL    HW2  882   2.040   1.016   2.916 -0.7039 -2.9924  1.2995
  295SOL     OW  883   1.830   1.755   2.932  0.1926 -0.2508  0.0266
  295SOL    HW1  884   1.746   1.768   2.988 -0.8895 -0.8576 -0.4870
  295SOL    HW2  885   1.810   1.708   2.843  0.1590 -0.1496 -0.3565
  296SOL     OW  886   1.692   1.312   1.229  0.6954 -0.2711 -0.0235
  296SOL    HW1  887   1.755   1.331   1.145  0.8340  2.9110 -0.2957
  296SOL    HW2  888   1.633   1.230   1.221 -0.8460 -0.0860  0.1926
  297SOL     OW  889   0.263   0.845   2.255  0.6978  0.1164 -0.2956
  297SOL    HW1  890   0.309   0.753   2.250  0.5968 -0.6367 -0.7900
  297SOL    HW2  891   0.181   0.833   2.316  1.3186  1.4024 -1.3575
  298SOL     OW  892   1.466   1.976   1.322  0.1077  0.5269  0.0073
  298SOL    HW1  893   1.418   1.885   1.334  1.1566 -2.3272 -0.5900
  298SOL    HW2  894   1.447   2.049   1.392  1.2527 -0.7310  0.7733
  299SOL     OW  895   1.095   0.149   2.525 -0.9904 -0.4898 -0.2966
  299SOL    HW1  896   1.069   0.052   2.517 -0.0601  1.5121 -0.3143
  299SOL    HW2  897   1.041   0.207   2.462  0.0306  1.4942  0.9066
  300SOL     OW  898   2.547   2.088   0.503 -0.1915  0.0780  0.1244
  300SOL    HW1  899   2.621   2.142   0.457 -1.1653 -0.1292  0.7802
  300SOL    HW2  900   2.469   2.091   0.438 -1.1730 -0.3133 -1.1244
  301SOL     OW  901   2.232   0.452   2.630 -0.1305 -0.0448  0.6580
  301SOL    HW1  902   2.276   0.548   2.609  3.8515  1.4350  0.6618
  301SOL    HW2  903   2.293   0.403   2.698 -0.7257 -2.4145  0.4521
  302SOL     OW  904   2.313   2.199   2.804  0.5148  0.3780 -0.2542
  302SOL    HW1  905   2.400   2.170   2.763 -2.4648  2.9781  0.5506
  302SOL    HW2  906   2.328   2.278   2.863  1.8431  0.0400 -1.0070
  303SOL     OW  907   3.040   2.722   2.412  0.7193  0.0249  0.0354
  303SOL    HW1  908   3.080   2.758   2.327 -1.0100  0.7292  0.1102
  303SOL    HW2  909   3.107   2.667   2.461 -0.1142  1.0030 -0.2980
  304SOL     OW  910   0.151   1.527   1.222  0.0932 -0.0533  0.1433
  304SOL    HW1  911   0.116   1.466   1.297 -1.7515 -0.3628 -2.7127
  304SOL    HW2  912   0.232   1.583   1.253 -1.7022  1.2546 -1.8698
  305SOL     OW  913   0.082   0.428   2.025  0.0108  0.0073  0.0344
  305SOL    HW1  914   0.180   0.427   2.050 -0.1878 -2.1375  0.5941
  305SOL    HW2  915   0.043   0.334   2.008 -0.0718 -3.2263  0.8823
  306SOL     OW  916   1.039   1.582   0.541 -0.6043 -0.8314  0.1976
  306SOL    HW1  917   1.098   1.562   0.624 -0.2276  0.6784  1.0037
  306SOL    HW2  918   1.066   1.671   0.496  0.4898  3.7495  1.7422
  307SOL     OW  919   0.043   3.042   0.578 -0.0293 -0.6851  0.4637
  307SOL    HW1  920   0.139   3.004   0.581  1.4571  0.3813  0.1894
  307SOL    HW2  921   3.092   3.004   0.647 -2.0431  0.7376 -1.4087
  308SOL     OW  922   2.987   1.014   2.330 -0.0233 -0.1125  0.4536
  308SOL    HW1  923   3.053   0.946   2.363 -1.1751  2.8940  0.3562
  308SOL    HW2  924   3.020   1.059   2.243 -0.6723  1.7882 -2.2141
  309SOL     OW  925   2.985   1.849   2.660  0.5543  0.1314  0.4031
  309SOL    HW1  926   2.932   1.760   2.650 -1.4064 -0.2053  0.1639
  309SOL    HW2  927   2.930   1.915   2.713  0.8784 -1.4200 -1.0629
  310SOL     OW  928   2.286   0.637   0.129  0.2505  0.1463  0.6256
  310SOL    HW1  929   2.335   0.723   0.115  3.0785  1.7668 -3.0752
  310SOL    HW2  930   2.297   0.585   0.042 -1.3025  1.4854  2.7387
  311SOL     OW  931   2.056   0.758   3.052 -0.1292  0.0322 -0.4430
  311SOL    HW1  932   2.026   0.835   2.993  1.5674 -3.6011 -1.5917
  311SOL    HW2  933   2.142   0.724   3.014 -0.6667  0.4135 -0.9398
  312SOL     OW  934   1.293   1.860   2.748 -0.2777 -0.5873 -0.3165
  312SOL    HW1  935   1.395   1.863   2.771  3.6101  0.5390  0.5546
  312SOL    HW2  936   1.237   1.794   2.804 -0.7320  0.6605 -0.2028
  313SOL     OW  937   0.243   0.616   0.454 -0.1902  0.7414  0.1536
  313SOL    HW1  938   0.205   0.542   0.392 -3.5214 -1.6374 -1.5161
  313SOL    HW2  939   0.229   0.595   0.550 -0.1649  1.5763 -1.7578
  314SOL     OW  940   0.579   1.449   1.355  0.1012  0.4917 -0.7622
  314SOL    HW1  941   0.668   1.440   1.405 -1.2421 -1.3583 -0.8694
  314SOL    HW2  942   0.563   1.378   1.278 -2.4857 -2.6053  0.6219
  315SOL     OW  943   0.981   1.761   2.063  0.4862  0.1828  0.1760
  315SOL    HW1  944   0.922   1.679   2.075  0.5681  1.3222 -1.1448
  315SOL    HW2  945   0.922   1.841   2.067  1.4678 -0.4756  0.3359
  316SOL     OW  946   0.297   2.362   0.666 -0.2492 -0.1075  0.1489
  316SOL    HW1  947   0.220   2.424   0.701  0.4801  2.1535  1.6051
  316SOL    HW2  948   0.305   2.382   0.567 -1.4956  1.0872  0.0861
  317SOL     OW  949   2.550   0.221   1.224 -0.2914  0.5572 -0.1870
  317SOL    HW1  950   2.523   0.266   1.138  1.8253 -2.5563  0.3166
  317SOL    HW2  951   2.569   0.117   1.217  2.1340  0.4830 -0.1455
  318SOL     OW  952   1.485   3.016   0.353 -0.1787  0.6335 -0.7871
  318SOL    HW1  953   1.403   3.062   0.317 -1.4894  1.7413  0.7459
  318SOL    HW2  954   1.503   2.928   0.298  1.3182 -0.2491  0.3808
  319SOL     OW  955   1.614   0.513   2.864  0.2059 -0.7919 -0.7443
  319SOL    HW1  956   1.630   0.451   2.942  0.0633 -1.8413 -1.4041
  319SOL    HW2  957   1.697   0.522   2.805 -1.8158  0.3458  0.7640
  320SOL     OW  958   3.107   1.986   1.715 -0.0817  0.0157  0.4549
  320SOL    HW1  959   3.049   2.010   1.796 -0.9911  2.5893  0.5687
  320SOL    HW2  960   3.086   1.895   1.672 -0.3332 -0.4967 -2.6386
  321SOL     OW  961   3.098   2.600   2.967  0.3224 -0.6408 -0.2003
  321SOL    HW1  962   3.081   2.599   3.067  2.1832 -0.0718 -0.0584
  321SOL    HW2  963   3.078   2.503   2.939 -1.4817  1.9370 -1.0877
  322SOL     OW  964   2.613   0.591   2.460  0.0026  0.1650  0.3673
  322SOL    HW1  965   2.586   0.656   2.385 -0.8744  1.3862 -0.7088
  322SOL    HW2  966   2.657   0.509   2.423 -2.1857  0.6979  0.3013
  323SOL     OW  967   2.001   1.226   0.838 -0.6207 -0.0588  0.2574
  323SOL    HW1  968   2.058   1.177   0.908  0.3326  0.3674  2.5222
  323SOL    HW2  969   1.972   1.163   0.760 -0.2553  2.1441  0.9849
  324SOL     OW  970   0.160   0.195   1.233 -0.6130 -0.4953 -0.1333
  324SOL    HW1  971   0.258   0.184   1.251 -0.1795  0.5967 -0.5976
  324SOL    HW2  972   0.144   0.289   1.190  1.7174 -6.0032  0.6469
  325SOL     OW  973   2.747   0.018   1.765 -0.0528  0.4753  0.6362
  325SOL    HW1  974   2.792   0.094   1.814  0.2256 -0.4297 -1.6189
  325SOL    HW2  975   2.649   0.003   1.796 -0.5607  1.9412  0.5192
  326SOL     OW  976   1.571   2.812   0.206 -0.0789 -0.7850  0.5915
  326SOL    HW1  977   1.589   2.725   0.254 -2.1478  1.7805 -0.8878
  326SOL    HW2  978   1.618   2.826   0.120 -2.3991 -3.0024  0.3158
  327SOL     OW  979   1.770   2.129   0.324 -0.0990  0.4725 -0.3939
  327SOL    HW1  980   1.681   2.179   0.337  1.5154 -2.1629 -0.5691
  327SOL    HW2  981   1.763   2.038   0.379 -2.5687 -0.6730 -0.0736
  328SOL     OW  982   3.110   2.167   2.051 -0.0984  0.2915  0.3068
  328SOL    HW1  983   3.058   2.086   2.023  2.3841 -1.9454  0.5890
  328SOL    HW2  984   0.074   2.187   1.983 -0.0502 -1.4436  0.9415
  329SOL     OW  985   3.068   2.281   1.227  0.1507 -0.3557 -0.1476
  329SOL    HW1  986   2.979   2.320   1.243  2.5148 -0.7948  1.5461
  329SOL    HW2  987   3.075   2.203   1.289  0.8847  2.7310 -2.0842
  330SOL     OW  988   2.236   0.922   2.635 -0.3422 -0.3772  0.4875
  330SOL    HW1  989   2.278   0.831   2.647 -3.0179  0.6089  3.0510
  330SOL    HW2  990   2.299   1.001   2.649 -0.9068  0.4108  0.3230
  331SOL     OW  991   2.408   1.682   0.901  0.2002 -0.4936 -0.3332
  331SOL    HW1  992   2.435   1.659   0.806  0.6301 -0.8545  3.5363
  331SOL    HW2  993   2.386   1.781   0.909  0.8114 -1.9469  1.1324
  332SOL     OW  994   0.305   2.760   0.812 -0.0406 -0.5038 -0.1173
  332SOL    HW1  995   0.298   2.829   0.737  0.1267 -0.0077 -0.5563
  332SOL    HW2  996   0.381   2.698   0.799  0.4839  0.2540 -1.1682
  333SOL     OW  997   3.100   1.815   2.234 -0.0369 -0.0609 -0.7086
  333SOL    HW1  998   0.039   1.760   2.302 -2.3501  3.1735 -1.6764
  333SOL    HW2  999   3.028   1.865   2.285 -1.1532 -0.3787  0.3274
  334SOL     OW 1000   0.573   0.967   0.802 -0.3017 -0.2043  0.1764
  334SOL    HW1 1001   0.509   1.042   0.804 -0.7648 -4.9395  1.4947
  334SOL    HW2 1002   0.588   0.927   0.895 -1.2733 -1.4809 -1.5447
  335SOL     OW 1003   0.097   1.592   2.366  0.1446  0.4383 -0.3624
  335SOL    HW1 1004   0.183   1.586   2.422  2.1056  0.1732  0.2512
  335SOL    HW2 1005   0.099   1.511   2.303 -1.3450  3.1277  1.7375
  336SOL     OW 1006   2.061   3.032   2.184 -0.1260 -0.2364  0.0127
  336SOL    HW1 1007   1.994   2.982   2.243  0.5100  1.1236 -0.7712
  336SOL    HW2 1008   2.026   0.018   2.169  2.0790  0.7663  0.4362
  337SOL     OW 1009   0.893   0.706   0.928  0.7198  0.0126  0.1204
  337SOL    HW1 1010   0.829   0.787   0.946 -0.9516  3.2654  1.1270
  337SOL    HW2 1011   0.865   0.623   0.976 -2.1284  2.6052 -0.6149
  338SOL     OW 1012   1.698   1.901   1.206 -0.2162 -0.1313 -0.6881
  338SOL    HW1 1013   1.734   1.816   1.247 -0.0719  1.8453 -0.0064
  338SOL    HW2 1014   1.602   1.928   1.237  2.4853 -0.1432 -0.8069
  339SOL     OW 1015   0.356   1.674   1.313  0.1327 -0.2922 -0.0063
  339SOL    HW1 1016   0.442   1.631   1.340  0.8444  0.2278  0.0295
  339SOL    HW2 1017   0.320   1.736   1.384 -0.2994 -3.4573  0.5570
  340SOL     OW 1018   0.810   3.006   2.118  0.1787  0.1746 -0.2150
  340SOL    HW1 1019   0.788   2.964   2.204  0.1734 -0.9806  0.3349
  340SOL    HW2 1020   0.852   2.934   2.063 -1.3560  1.8178  4.0833
  341SOL     OW 1021   1.822   1.566   0.534 -0.5395  0.4679  0.0271
  341SOL    HW1 1022   1.861   1.622   0.609  3.2563  0.5621  0.6722
  341SOL    HW2 1023   1.897   1.515   0.495 -0.3629  0.3236  2.5002
  342SOL     OW 1024   2.025   1.310   0.379  0.2305  0.2026 -0.4031
  342SOL    HW1 1025   2.106   1.302   0.317  2.4634  1.3246  2.8009
  342SOL    HW2 1026   1.940   1.288   0.324 -1.8452  0.9833  0.8584
  343SOL     OW 1027   2.064   0.258   1.002  0.1798  0.5711 -0.2710
  343SOL    HW1 1028   2.041   0.290   1.102 -1.4169 -2.0437 -0.2235
  343SOL    HW2 1029   2.095   0.159   0.993 -1.4889  1.0031 -1.1249
  344SOL     OW 1030   2.722   0.500   0.186 -0.1933 -0.0453  0.2521
  344SOL    HW1 1031   2.758   0.467   0.097  0.5186  0.9426 -1.9008
  344SOL    HW2 1032   2.631   0.465   0.204 -0.3479 -1.9316  0.9748
  345SOL     OW 1033   1.116   2.481   1.790 -0.0737  0.0539  0.1311
  345SOL    HW1 1034   1.122   2.532   1.701  1.1335  1.2721 -0.3787
  345SOL    HW2 1035   1.022   2.464   1.822  3.0851 -2.7844 -1.8236
  346SOL     OW 1036   2.360   2.305   1.252  0.3852 -0.0961 -0.0774
  346SOL    HW1 1037   2.318   2.345   1.164  0.5083 -2.3911 -1.7539
  346SOL    HW2 1038   2.350   2.365   1.333  0.1062  2.1434  0.7577
  347SOL     OW 1039   2.207   0.018   1.238  0.2103  0.4605  0.0679
  347SOL    HW1 1040   2.290   3.072   1.257 -0.5452 -1.4543  0.4425
  347SOL    HW2 1041   2.131   3.105   1.304  2.4983 -0.5878  1.0396
  348SOL     OW 1042   0.800   0.929   1.444 -0.3234 -0.5866  0.4679
  348SOL    HW1 1043   0.821   0.921   1.343 -0.7793 -0.0730 -4.3335
  348SOL    HW2 1044   0.717   0.987   1.452 -1.6225 -1.8007  0.2476
  349SOL     OW 1045   2.450   0.545   3.026 -0.0775 -0.2022 -0.0710
  349SOL    HW1 1046   2.506   0.624   3.008  0.2633  0.3187  0.9077
  349SOL    HW2 1047   2.482   0.478   3.092 -1.5303  0.9771 -1.2763
  350SOL     OW 1048   1.995   2.268   2.813  0.1394  0.0937  0.4250
  350SOL    HW1 1049   1.920   2.220   2.858 -0.2348 -0.3675 -1.0584
  350SOL    HW2 1050   2.075   2.253   2.870 -1.5163  0.5973 -1.7860
  351SOL     OW 1051   1.115   0.480   0.451  0.0452 -0.0235 -0.1051
  351SOL    HW1 1052   1.022   0.500   0.419 -0.3382  1.7704  1.9566
  351SOL    HW2 1053   1.173   0.530   0.385  0.0509  1.2680  3.4746
  352SOL     OW 1054   1.619   2.146   2.804 -0.6404  0.0887  0.1342
  352SOL    HW1 1055   1.638   2.150   2.705  1.8604  2.5541 -2.4735
  352SOL    HW2 1056   1.697   2.096   2.848  1.3049 -2.0404 -0.4418
  353SOL     OW 1057   0.507   0.755   2.797  0.7875  0.6680 -0.3008
  353SOL    HW1 1058   0.460   0.720   2.714  0.0326  2.1895  3.5876
  353SOL    HW2 1059   0.522   0.858   2.794  1.2400  1.5766 -0.9073
  354SOL     OW 1060   0.765   2.351   2.701 -0.7522 -0.0089 -0.4577
  354SOL    HW1 1061   0.703   2.269   2.700 -2.0351 -0.1971 -0.5411
  354SOL    HW2 1062   0.726   2.429   2.749  3.2862 -1.2827 -2.1434
  355SOL     OW 1063   2.827   2.636   1.884 -0.2478 -0.3740  0.0084
  355SOL    HW1 1064   2.861   2.704   1.954  0.3582 -1.6483  2.7489
  355SOL    HW2 1065   2.816   2.679   1.792 -0.2448  0.0446  0.1374
  356SOL     OW 1066   2.715   1.296   1.108  0.5008  0.0639 -0.4809
  356SOL    HW1 1067   2.655   1.260   1.184 -1.4229 -0.2353  1.5971
  356SOL    HW2 1068   2.663   1.315   1.024  2.3777 -0.2942  3.3901
  357SOL     OW 1069   2.661   3.041   1.233 -0.3862  0.1042 -0.7881
  357SOL    HW1 1070   2.697   3.017   1.321  0.3034  2.4148 -3.9547
  357SOL    HW2 1071   2.733   3.105   1.196  0.8206  1.7358  0.5746
  358SOL     OW 1072   0.880   2.019   1.488  0.0280  0.2069 -0.7479
  358SOL    HW1 1073   0.925   2.110   1.478 -0.4765 -2.5526 -0.4299
  358SOL    HW2 1074   0.798   2.031   1.548 -2.0351 -0.6244  1.1091
  359SOL     OW 1075   2.862   2.654   2.611 -0.5965 -0.4233  0.7360
  359SOL    HW1 1076   2.845   2.730   2.678  0.0638 -0.5820 -0.6990
  359SOL    HW2 1077   2.930   2.677   2.532 -0.7628 -0.7929 -1.5088
  360SOL     OW 1078   1.247   0.814   1.413 -0.0196  0.8266  0.2188
  360SOL    HW1 1079   1.178   0.748   1.454 -2.0218 -1.0954  1.4927
  360SOL    HW2 1080   1.338   0.768   1.393 -2.3327  0.7059  0.4473
  361SOL     OW 1081   2.420   0.307   0.626 -0.1131 -0.1260  0.5429
  361SOL    HW1 1082   2.344   0.334   0.683  0.7366 -0.6692 -0.3316
  361SOL    HW2 1083   2.407   0.271   0.532  0.5840 -0.1817  2.4866
  362SOL     OW 1084   0.491   0.098   0.619  0.6715 -0.0062  0.3729
  362SOL    HW1 1085   0.551   0.014   0.636  3.2146 -1.2041 -0.2335
  362SOL    HW2 1086   0.548   0.184   0.615 -1.2415  1.2229  0.9315
  363SOL     OW 1087   0.604   1.473   0.451 -0.2852 -0.4569 -0.4964
  363SOL    HW1 1088   0.541   1.392   0.463  0.5470 -2.2633 -1.7977
  363SOL    HW2 1089   0.704   1.440   0.466  1.3904 -0.4835  1.0167
  364SOL     OW 1090   0.535   0.942   1.664  0.4276 -0.4197  0.3031
  364SOL    HW1 1091   0.588   0.866   1.699 -0.4041  0.7778 -1.0217
  364SOL    HW2 1092   0.510   0.917   1.569 -1.7890 -0.1331 -1.0444
  365SOL     OW 1093   2.779   1.059   0.742  0.5834 -0.0069  0.3258
  365SOL    HW1 1094   2.751   1.067   0.840 -0.7723 -0.4489  0.4741
  365SOL    HW2 1095   2.878   1.024   0.736  1.2860 -0.5490 -0.7186
  366SOL     OW 1096   2.601   1.395   0.518 -0.2745 -0.2407 -0.1387
  366SOL    HW1 1097   2.549   1.310   0.538  1.3651 -0.1798  1.8844
  366SOL    HW2 1098   2.690   1.397   0.570  0.6549  0.1336  1.8274
  367SOL     OW 1099   2.266   2.018   2.406  0.8728  0.1284 -0.2571
  367SOL    HW1 1100   2.232   1.976   2.321 -0.1228  0.4885  2.2612
  367SOL    HW2 1101   2.199   2.084   2.443  1.5071  1.6656 -2.2762
  368SOL     OW 1102   2.829   1.775   0.737 -0.0545 -0.2318 -0.4880
  368SOL    HW1 1103   2.847   1.689   0.787 -2.0329  1.2310 -0.0943
  368SOL    HW2 1104   2.768   1.759   0.657 -0.2638  0.3452 -0.8602
  369SOL     OW 1105   1.972   2.490   2.625  0.0721  0.3292 -0.4281
  369SOL    HW1 1106   1.986   2.409   2.686  2.6121 -1.3072 -0.9682
  369SOL    HW2 1107   1.882   2.533   2.626  2.9311  0.4210 -2.3161
  370SOL     OW 1108   0.006   0.000   1.152  0.5260  0.1931 -0.8163
  370SOL    HW1 1109   0.084   0.060   1.175 -3.2278  0.6178 -1.1506
  370SOL    HW2 1110   0.034   3.028   1.101  1.7415  2.9727 -1.5808
  371SOL     OW 1111   0.715   1.917   0.195  0.4274 -0.3701  0.0045
  371SOL    HW1 1112   0.771   1.841   0.237  0.4946 -0.3935  0.7674
  371SOL    HW2 1113   0.619   1.915   0.238 -0.2801  0.7057  2.9365
  372SOL     OW 1114   1.094   1.069   3.106 -0.1953 -0.0401  1.1144
  372SOL    HW1 1115   1.115   1.112   3.019  2.0440 -2.5300 -0.8125
  372SOL    HW2 1116   1.012   1.011   3.105  1.2199  0.4819 -1.5700
  373SOL     OW 1117   1.425   2.674   2.446  0.2754  0.0957 -0.1473
  373SOL    HW1 1118   1.496   2.600   2.431  1.0452  1.2559 -0.7268
  373SOL    HW2 1119   1.472   2.765   2.448  2.1480 -0.8895 -0.3577
  374SOL     OW 1120   0.169   2.366   0.087 -0.0407  0.5366 -1.2559
  374SOL    HW1 1121   0.107   2.303   0.038  5.0023 -0.4034  0.5200
  374SOL    HW2 1122   0.237   2.399   0.021 -1.8219 -1.5222 -0.5873
  375SOL     OW 1123   0.675   1.226   1.683  0.0479 -0.0682  0.1271
  375SOL    HW1 1124   0.742   1.200   1.756  3.8745 -0.6067 -0.0678
  375SOL    HW2 1125   0.635   1.316   1.710 -1.0805  0.0472 -0.4021
  376SOL     OW 1126   0.419   2.378   1.961  0.2438 -0.6388  0.2618
  376SOL    HW1 1127   0.494   2.343   1.901 -2.5155  1.5234  1.6697
  376SOL    HW2 1128   0.341   2.312   1.985 -0.5484 -1.1699  0.1972
  377SOL     OW 1129   2.972   1.532   2.579  0.2403  0.0157  0.2907
  377SOL    HW1 1130   3.048   1.575   2.530 -0.4633  0.1583  0.9773
  377SOL    HW2 1131   2.953   1.440   2.534  0.8572 -0.9902 -0.2636
  378SOL     OW 1132   1.287   3.035   0.142  0.1301 -0.3656  0.1213
  378SOL    HW1 1133   1.295   3.077   0.048  1.5784 -0.1016  0.9271
  378SOL    HW2 1134   1.268   2.932   0.137 -0.0566 -1.3030 -0.2159
  379SOL     OW 1135   1.938   0.757   0.671 -0.2690 -0.2224  0.0617
  379SOL    HW1 1136   1.889   0.815   0.738  3.1497 -1.6238  0.2252
  379SOL    HW2 1137   1.955   0.810   0.585  0.5053  0.3393  3.5919
  380SOL     OW 1138   0.217   1.841   1.448  0.2565 -0.5170  0.4597
  380SOL    HW1 1139   0.217   1.924   1.505  0.8955  0.7744 -1.5929
  380SOL    HW2 1140   0.134   1.853   1.385  0.1227  1.7897 -3.4207
  381SOL     OW 1141   2.211   1.765   2.228 -0.6326  0.2877 -0.5362
  381SOL    HW1 1142   2.177   1.749   2.323  0.2359 -0.7168 -1.4318
  381SOL    HW2 1143   2.202   1.682   2.173 -0.9020  1.4182  3.9003
  382SOL     OW 1144   3.046   0.321   2.599  0.2775  0.2526 -0.0840
  382SOL    HW1 1145   2.993   0.232   2.595 -2.2983  4.3063 -1.4788
  382SOL    HW2 1146   3.110   0.324   2.521 -1.9803 -0.1771 -1.6302
  383SOL     OW 1147   1.906   1.495   2.792 -0.0346  0.3944 -0.8108
  383SOL    HW1 1148   1.989   1.442   2.811 -0.3712  0.8962 -3.3497
  383SOL    HW2 1149   1.891   1.567   2.865 -0.2141  0.5851 -2.4780
  384SOL     OW 1150   1.054   2.236   1.501  0.0788  0.0749 -0.5867
  384SOL    HW1 1151   1.129   2.237   1.572  0.7261 -0.4438  0.2516
  384SOL    HW2 1152   0.985   2.306   1.537  1.6290  2.1608 -1.4891
  385SOL     OW 1153   1.717   2.593   0.760  0.9286 -0.1414  0.2091
  385SOL    HW1 1154   1.790   2.623   0.825 -1.7481 -1.7365 -0.6816
  385SOL    HW2 1155   1.742   2.623   0.665 -2.2006 -1.8978 -1.2505
  386SOL     OW 1156   1.773   2.161   1.264  0.5538  0.0011  0.0313
  386SOL    HW1 1157   1.768   2.062   1.256  1.6729  0.6476  3.8137
  386SOL    HW2 1158   1.734   2.197   1.173 -2.7713 -1.2116 -2.0252
  387SOL     OW 1159   0.119   2.351   1.518  0.3076  0.1341 -0.2602
  387SOL    HW1 1160   0.075   2.282   1.462 -1.4625 -0.5081  1.5399
  387SOL    HW2 1161   0.057   2.372   1.597 -2.4994 -0.8176 -0.5374
  388SOL     OW 1162   2.934   0.574   1.670 -0.1979  0.3647  0.8525
  388SOL    HW1 1163   2.944   0.671   1.651  0.9899  0.5102 -0.0262
  388SOL    HW2 1164   2.874   0.566   1.751 -1.1625  1.3734  1.6734
  389SOL     OW 1165   1.874   0.897   0.447  0.0117  0.5664 -0.0466
  389SOL    HW1 1166   1.916   0.879   0.355 -0.9798  0.5175  0.3265
  389SOL    HW2 1167   1.783   0.850   0.455 -0.8233  0.0344  3.0696
  390SOL     OW 1168   1.160   2.066   2.612  0.0258  0.0503  0.2252
  390SOL    HW1 1169   1.100   2.046   2.531 -2.8469 -0.7949 -2.1128
  390SOL    HW2 1170   1.181   1.977   2.656  0.2676 -0.0453  2.9050
  391SOL     OW 1171   0.943   2.149   2.987  0.5572  0.0304 -0.0702
  391SOL    HW1 1172   0.892   2.222   3.036 -1.0481  1.2038  0.6514
  391SOL    HW2 1173   1.036   2.181   2.958  2.8178  0.8965 -2.1670
  392SOL     OW 1174   0.142   2.867   1.741 -0.7950 -0.2801 -0.0888
  392SOL    HW1 1175   0.209   2.948   1.738 -0.2594  0.3781  0.9652
  392SOL    HW2 1176   0.056   2.889   1.794 -1.7848  0.5037  0.1821
  393SOL     OW 1177   1.635   2.548   0.341  0.1128  0.0316 -0.5328
  393SOL    HW1 1178   1.718   2.522   0.288  0.9301 -1.0499  0.3106
  393SOL    HW2 1179   1.580   2.469   0.370  2.4611  0.5775 -0.3485
  394SOL     OW 1180   0.721   0.552   2.162  0.1038  0.1325  0.6532
  394SOL    HW1 1181   0.750   0.541   2.061  0.7596 -0.0769 -2.7663
  394SOL    HW2 1182   0.680   0.464   2.194  1.2208 -0.4368  1.1740
  395SOL     OW 1183   0.327   1.198   1.370  0.1723  0.5097  0.7160
  395SOL    HW1 1184   0.324   1.212   1.263  0.0785  1.8812 -2.3782
  395SOL    HW2 1185   0.245   1.245   1.409  2.1208  0.1686 -0.4539
  396SOL     OW 1186   1.855   1.094   2.322  0.4109 -0.6748  0.4196
  396SOL    HW1 1187   1.761   1.125   2.350 -0.8640  2.5526  1.1012
  396SOL    HW2 1188   1.876   1.000   2.352  1.1365  1.8703 -3.7216
  397SOL     OW 1189   0.771   0.129   2.999 -0.1873 -0.4574 -0.8271
  397SOL    HW1 1190   0.853   0.076   3.026  0.2704  0.3385 -2.8739
  397SOL    HW2 1191   0.694   0.110   3.068 -1.7593 -1.1550 -0.4840
  398SOL     OW 1192   0.792   1.919   3.035  0.3147  0.1824  0.0908
  398SOL    HW1 1193   0.741   1.934   0.015 -0.2777 -1.3206 -1.2299
  398SOL    HW2 1194   0.835   2.000   2.998  0.8227 -0.8134  0.3208
  399SOL     OW 1195   2.544   1.601   2.742 -0.1387 -0.1639  0.0242
  399SOL    HW1 1196   2.502   1.576   2.651 -0.7122 -1.0326 -1.8119
  399SOL    HW2 1197   2.520   1.531   2.815 -0.8598 -0.4967 -0.0544
  400SOL     OW 1198   2.587   1.360   1.461  0.5942  0.4243 -0.0868
  400SOL    HW1 1199   2.610   1.442   1.409  1.0646 -1.8554 -1.2094
  400SOL    HW2 1200   2.531   1.286   1.411 -2.2064 -2.8639 -1.0191
  401SOL     OW 1201   1.077   1.725   0.887  0.0613 -0.1885 -0.6700
  401SOL    HW1 1202   1.038   1.721   0.982  2.2750 -1.0386 -1.0886
  401SOL    HW2 1203   1.180   1.748   0.901  4.0437 -1.6836 -0.6283
  402SOL     OW 1204   0.083   2.581   2.103  0.2790 -0.0971 -0.5858
  402SOL    HW1 1205   0.127   2.541   2.186 -0.9220 -0.3200  3.6475
  402SOL    HW2 1206   0.135   2.563   2.017  0.1791 -0.1830  1.2484
  403SOL     OW 1207   0.166   1.216   2.495 -0.4850 -0.2419 -0.5290
  403SOL    HW1 1208   0.252   1.271   2.481  0.4467  0.2063 -1.5650
  403SOL    HW2 1209   0.193   1.124   2.532 -0.2594 -0.3261  1.8253
  404SOL     OW 1210   2.035   2.013   1.609  0.0194 -0.0742 -0.6386
  404SOL    HW1 1211   2.051   1.926   1.663 -0.4941  1.1759 -1.0407
  404SOL    HW2 1212   2.053   1.998   1.509 -0.3533  0.3979  1.9838
  405SOL     OW 1213   2.652   0.288   2.720  0.4913  0.2628 -0.1367
  405SOL    HW1 1214   2.666   0.265   2.622 -1.9375 -1.3929  2.2145
  405SOL    HW2 1215   2.678   0.206   2.777  1.2551 -0.5688 -1.0723
  406SOL     OW 1216   0.672   0.956   3.086  0.0241  0.3259  0.3870
  406SOL    HW1 1217   0.759   0.902   3.089  0.7315 -0.3261  1.6663
  406SOL    HW2 1218   0.650   0.995   2.993  0.4272 -0.1230  1.4575
  407SOL     OW 1219   1.707   2.538   2.638  0.3679 -0.1215 -0.0633
  407SOL    HW1 1220   1.664   2.484   2.715 -2.3732  1.9744 -0.0654
  407SOL    HW2 1221   1.729   2.636   2.668 -1.0423  0.3423 -0.3280
  408SOL     OW 1222   2.960   3.105   0.027  0.7208  0.0573 -0.1699
  408SOL    HW1 1223   3.031   3.097   0.094  0.0135  1.2824 -1.7202
  408SOL    HW2 1224   3.001   3.103   3.044 -0.2410 -0.7199 -1.8700
  409SOL     OW 1225   2.216   1.594   1.092  0.7366  0.0423 -0.4398
  409SOL    HW1 1226   2.116   1.625   1.090 -0.2870  1.8275  2.6015
  409SOL    HW2 1227   2.273   1.616   1.007 -2.0701 -0.3494  2.4622
  410SOL     OW 1228   2.480   1.888   3.086  0.5509  0.4867  0.5682
  410SOL    HW1 1229   2.468   1.847   0.066  0.0930  0.9423  0.2922
  410SOL    HW2 1230   2.573   1.920   3.076 -0.2240  0.6557 -1.6417
  411SOL     OW 1231   3.058   1.056   0.705  0.5416 -0.3017  0.2584
  411SOL    HW1 1232   0.003   1.140   0.699  0.6776  0.6279  0.1865
  411SOL    HW2 1233   0.011   0.976   0.716  2.2842 -0.9640 -0.1002
  412SOL     OW 1234   1.858   2.654   0.533  0.7591  0.6412 -0.1173
  412SOL    HW1 1235   1.842   2.672   0.432  1.1017 -0.1510 -0.6764
  412SOL    HW2 1236   1.863   2.552   0.553 -0.9443  1.3679  2.5216
  413SOL     OW 1237   1.809   0.787   2.116  0.2617 -0.0004 -0.5264
  413SOL    HW1 1238   1.746   0.734   2.182 -0.6380  2.1970 -0.6028
  413SOL    HW2 1239   1.826   0.728   2.034 -1.0047  1.1489 -1.0620
  414SOL     OW 1240   3.074   0.369   0.401 -0.5681 -0.0339  0.2254
  414SOL    HW1 1241   3.041   0.288   0.356 -1.0378  3.2895 -0.5866
  414SOL    HW2 1242   0.002   0.356   0.495 -2.4010  2.3657  0.7128
  415SOL     OW 1243   0.971   1.769   1.523 -0.4895 -0.1543 -0.1092
  415SOL    HW1 1244   1.033   1.762   1.601 -0.4209 -2.1277  1.0801
  415SOL    HW2 1245   0.932   1.864   1.509  0.3392  0.7665 -1.1550
  416SOL     OW 1246   0.231   0.023   2.924 -0.2363  0.0357  0.0330
  416SOL    HW1 1247   0.223   0.123   2.910 -3.1036 -4.9252 -1.4608
  416SOL    HW2 1248   0.144   3.089   2.902  0.7410  4.2845 -0.1915
  417SOL     OW 1249   2.699   0.171   0.855  0.3600  0.1254  0.5082
  417SOL    HW1 1250   2.616   0.229   0.879 -0.6617 -0.5826  1.4642
  417SOL    HW2 1251   2.686   0.077   0.893  0.8845 -0.6239  1.5869
  418SOL     OW 1252   0.220   0.488   2.468  0.2314  0.3006 -0.2871
  418SOL    HW1 1253   0.144   0.440   2.421 -0.4736 -1.5896 -2.6175
  418SOL    HW2 1254   0.251   0.560   2.403 -0.9869 -0.1425  2.2793
  419SOL     OW 1255   0.112   1.339   1.419  0.5797 -0.5424  0.6597
  419SOL    HW1 1256   0.113   1.348   1.523 -0.3078 -2.5077  2.0982
  419SOL    HW2 1257   0.021   1.298   1.392 -0.5035 -1.2790 -1.2984
  420SOL     OW 1258   0.663   1.849   0.701 -0.0089 -0.4044 -0.0119
  420SOL    HW1 1259   0.643   1.824   0.607  1.9874 -0.0042  1.7512
  420SOL    HW2 1260   0.710   1.770   0.737  0.2472  1.9517 -2.0758
  421SOL     OW 1261   1.987   2.360   2.366  0.5890 -0.1447  0.3340
  421SOL    HW1 1262   1.965   2.427   2.440  2.0273  0.4447  0.9521
  421SOL    HW2 1263   2.089   2.347   2.347  4.1570  3.2205  0.2100
  422SOL     OW 1264   3.005   0.548   2.729  0.2627  0.1256  0.2590
  422SOL    HW1 1265   2.950   0.559   2.814 -2.0837 -2.0471  1.3533
  422SOL    HW2 1266   3.001   0.455   2.685 -0.7051 -0.1925 -0.1511
  423SOL     OW 1267   1.481   2.107   1.068 -0.0104 -0.4933  0.9455
  423SOL    HW1 1268   1.388   2.145   1.055 -2.1174  1.0369 -0.1967
  423SOL    HW2 1269   1.484   2.055   1.156  0.2008 -1.8621  0.5186
  424SOL     OW 1270   0.810   2.027   1.844 -0.0842  0.4663  0.5569
  424SOL    HW1 1271   0.770   1.995   1.756  1.2627 -1.0568 -2.0662
  424SOL    HW2 1272   0.739   2.018   1.919  1.9514  0.4587  0.5145
  425SOL     OW 1273   0.035   2.838   2.118 -0.3593 -0.0843 -0.3445
  425SOL    HW1 1274   0.069   2.744   2.112 -1.0009  2.1734 -0.6204
  425SOL    HW2 1275   3.045   2.837   2.121 -3.2612  0.0389 -1.4084
  426SOL     OW 1276   1.634   0.489   0.479 -0.2424  0.4022  0.4213
  426SOL    HW1 1277   1.694   0.420   0.428  0.0129  1.0012  1.6914
  426SOL    HW2 1278   1.624   0.475   0.578 -0.7712  0.1829 -1.3657
  427SOL     OW 1279   0.987   0.655   0.149  0.1153  0.3878  0.2550
  427SOL    HW1 1280   0.986   0.728   0.220  0.2240 -0.2771 -1.8818
  427SOL    HW2 1281   0.912   0.588   0.158  2.2288  1.3041 -0.3549
  428SOL     OW 1282   1.464   1.135   0.177 -0.0086 -0.4899  0.1975
  428SOL    HW1 1283   1.481   1.169   0.272 -1.8149  1.0745 -1.8291
  428SOL    HW2 1284   1.457   1.219   0.116  0.0139  0.4322  0.9357
  429SOL     OW 1285   2.868   2.624   0.507 -0.0022 -0.1663  0.3560
  429SOL    HW1 1286   2.962   2.638   0.535 -1.3416 -1.6037  1.9218
  429SOL    HW2 1287   2.855   2.663   0.413 -1.8522  0.4453  0.1204
  430SOL     OW 1288   0.517   3.090   2.345  0.3664 -0.2917  0.5544
  430SOL    HW1 1289   0.486   0.013   2.434  1.3210 -1.9889  0.2270
  430SOL    HW2 1290   0.603   3.033   2.348  0.8751 -1.4713  2.4459
  431SOL     OW 1291   2.726   1.013   0.996  0.3067 -0.7005 -0.4700
  431SOL    HW1 1292   2.643   0.952   1.010  0.0802  0.8895  1.5731
  431SOL    HW2 1293   2.722   1.101   1.050 -1.1543  2.9468  1.1940
  432SOL     OW 1294   2.089   2.535   1.913  0.5128  0.4431 -0.3897
  432SOL    HW1 1295   2.149   2.566   1.988 -1.5353  1.8099 -0.2653
  432SOL    HW2 1296   2.071   2.435   1.934 -2.4522 -1.8494  1.8770
  433SOL     OW 1297   1.614   2.325   0.729  0.1437 -0.2221 -0.1321
  433SOL    HW1 1298   1.649   2.258   0.798  0.8979  1.6593 -0.2998
  433SOL    HW2 1299   1.669   2.411   0.719  0.6889  1.4575 -1.1836
  434SOL     OW 1300   0.589   2.099   2.001  0.5717 -0.1105 -0.0413
  434SOL    HW1 1301   0.605   2.189   2.045  1.3434  0.8357 -1.5526
  434SOL    HW2 1302   0.496   2.082   1.965 -1.4545 -0.8345 -2.2331
  435SOL     OW 1303   2.978   1.026   3.101  0.0611 -0.2913  0.3029
  435SOL    HW1 1304   3.028   1.017   0.074 -2.5869  2.1611 -1.9625
  435SOL    HW2 1305   3.033   0.978   3.034  2.1990 -0.9777  1.7561
  436SOL     OW 1306   0.253   2.569   1.879 -0.2548  0.2922 -0.2179
  436SOL    HW1 1307   0.281   2.660   1.901  3.0206 -1.1115 -0.0563
  436SOL    HW2 1308   0.323   2.503   1.916  0.4148  1.0496  1.2588
  437SOL     OW 1309   1.621   2.513   1.719  0.1520  0.2600 -0.8092
  437SOL    HW1 1310   1.635   2.451   1.638  0.5556 -1.7371  1.1849
  437SOL    HW2 1311   1.708   2.524   1.772  1.7772  0.5127  0.6127
  438SOL     OW 1312   0.127   1.851   0.452 -0.3534 -0.4092  0.4438
  438SOL    HW1 1313   0.208   1.877   0.510 -0.7251  1.6676  2.4044
  438SOL    HW2 1314   0.043   1.887   0.497 -2.3915  0.1007 -0.0848
  439SOL     OW 1315   0.213   0.507   0.750  0.0666 -0.1722 -0.0899
  439SOL    HW1 1316   0.255   0.567   0.824  1.8260 -2.3267  0.1757
  439SOL    HW2 1317   0.244   0.410   0.756 -0.2660 -1.7474  1.4298
  440SOL     OW 1318   0.128   2.977   2.389  0.0364 -0.5966 -0.1500
  440SOL    HW1 1319   0.179   2.900   2.428 -0.1434 -2.1554  0.9993
  440SOL    HW2 1320   0.112   2.951   2.286 -1.3689 -0.4227 -0.3428
  441SOL     OW 1321   3.072   0.597   0.683  0.9756 -0.2950  0.2303
  441SOL    HW1 1322   0.044   0.548   0.724 -1.4578  1.9379 -0.0157
  441SOL    HW2 1323   2.991   0.537   0.690 -1.2517  1.2273 -0.3006
  442SOL     OW 1324   1.286   2.303   2.446  0.0039 -0.2851  0.0495
  442SOL    HW1 1325   1.307   2.206   2.481 -1.7794 -1.1374 -1.9029
  442SOL    HW2 1326   1.318   2.321   2.346 -0.2320 -0.3278 -0.6771
  443SOL     OW 1327   0.520   0.770   0.087 -0.6247 -0.4234  0.2777
  443SOL    HW1 1328   0.559   0.691   0.034  0.4390 -1.9733  1.5706
  443SOL    HW2 1329   0.549   0.858   0.035 -0.1250  3.4365 -0.0118
  444SOL     OW 1330   1.723   1.413   2.630  0.2538 -0.1179  0.0624
  444SOL    HW1 1331   1.638   1.467   2.630  3.0196 -4.5707 -0.7193
  444SOL    HW2 1332   1.793   1.449   2.692 -1.2948 -3.8930 -1.2122
  445SOL     OW 1333   0.048   0.241   0.654  0.3591  0.5045 -0.0682
  445SOL    HW1 1334   0.075   0.258   0.750  0.1059  3.0407  0.3378
  445SOL    HW2 1335   3.092   0.163   0.643  0.2900 -0.3127 -1.7230
  446SOL     OW 1336   2.129   0.805   1.094 -0.5536 -0.3283  0.2047
  446SOL    HW1 1337   2.130   0.746   1.179 -2.1589  1.8897 -1.3496
  446SOL    HW2 1338   2.105   0.750   1.016 -2.0138  2.7835 -1.9079
  447SOL     OW 1339   0.058   0.791   3.026 -0.0563 -0.4591 -0.5511
  447SOL    HW1 1340   0.146   0.751   2.990  2.1231 -0.5432  1.5580
  447SOL    HW2 1341   0.008   0.719   3.085 -1.9254  1.1507 -0.4941
  448SOL     OW 1342   1.706   2.106   1.776  0.0141  0.7431  0.6641
  448SOL    HW1 1343   1.647   2.178   1.814  2.5890 -1.8456 -1.5540
  448SOL    HW2 1344   1.727   2.126   1.675  0.8849  0.1729 -3.6729
  449SOL     OW 1345   0.827   1.647   0.790 -0.2522  0.2320 -0.6268
  449SOL    HW1 1346   0.920   1.676   0.819  0.4778  1.4944  0.2381
  449SOL    HW2 1347   0.813   1.546   0.781 -1.0919  0.0292 -0.2064
  450SOL     OW 1348   2.752   2.316   2.342  0.1468 -0.6169  0.5709
  450SOL    HW1 1349   2.845   2.304   2.308  0.0219 -0.5095 -1.9385
  450SOL    HW2 1350   2.694   2.268   2.272 -1.5660 -0.6233 -3.1848
  451SOL     OW 1351   2.577   1.233   2.910 -0.3308 -0.2813  0.2461
  451SOL    HW1 1352   2.580   1.172   2.992  1.1574 -1.9958  0.9400
  451SOL    HW2 1353   2.522   1.319   2.928 -0.5036 -0.9262  0.2609
  452SOL     OW 1354   1.870   0.981   1.106 -0.2463 -0.2409  0.1120
  452SOL    HW1 1355   1.947   1.035   1.150  0.2027  0.5119 -1.7286
  452SOL    HW2 1356   1.852   0.902   1.163  0.4163 -0.9503  0.6680
  453SOL     OW 1357   2.291   0.775   1.493 -0.2807 -0.5737  0.1525
  453SOL    HW1 1358   2.248   0.807   1.580  0.5410  1.1546 -3.4199
  453SOL    HW2 1359   2.270   0.682   1.468  2.1913 -1.0398 -1.8767
  454SOL     OW 1360   2.849   1.256   0.049 -0.1536 -0.5519 -0.0682
  454SOL    HW1 1361   2.919   1.188   0.017 -1.3331 -2.0812 -1.0941
  454SOL    HW2 1362   2.756   1.233   0.015 -2.8012  1.2264 -0.4103
  455SOL     OW 1363   2.657   1.582   1.331 -0.2055 -0.1599  0.0272
  455SOL    HW1 1364   2.638   1.591   1.230 -0.0554 -1.9770 -0.4004
  455SOL    HW2 1365   2.591   1.632   1.392  0.0235  2.7779  1.7478
  456SOL     OW 1366   1.141   0.362   1.454  0.6805 -0.9057 -0.0968
  456SOL    HW1 1367   1.101   0.445   1.497  0.5750  0.1989  2.6792
  456SOL    HW2 1368   1.242   0.369   1.439  2.0337  1.7553 -0.5895
  457SOL     OW 1369   1.912   2.692   0.973  0.3058 -0.2401 -0.2636
  457SOL    HW1 1370   1.988   2.757   0.969 -2.1677  0.0417 -1.0723
  457SOL    HW2 1371   1.886   2.671   1.072 -0.0249  1.5418  0.6908
  458SOL     OW 1372   2.896   0.160   0.359 -0.3541 -0.4757 -0.1544
  458SOL    HW1 1373   2.817   0.214   0.318 -0.8986  0.2746  2.0004
  458SOL    HW2 1374   2.895   0.151   0.460  2.6591 -1.5419  1.0795
  459SOL     OW 1375   1.625   0.743   0.103 -0.3361 -0.2195  0.3962
  459SOL    HW1 1376   1.642   0.844   0.082 -1.6675  5.3484  0.3131
  459SOL    HW2 1377   1.620   0.726   0.204 -0.5770 -1.6810 -1.1417
  460SOL     OW 1378   0.152   2.644   2.549 -0.5156  0.1640  0.1985
  460SOL    HW1 1379   0.176   2.631   2.652  1.3071  0.6801  3.7290
  460SOL    HW2 1380   0.210   2.719   2.513 -0.1074 -1.3151  2.4707
  461SOL     OW 1381   0.407   1.656   0.275  0.1283  0.0279  0.2613
  461SOL    HW1 1382   0.478   1.685   0.341 -0.0543 -0.8553  0.1020
  461SOL    HW2 1383   0.423   1.686   0.177 -1.3032  0.3333 -0.2570
  462SOL     OW 1384   1.930   2.160   0.772  0.0948 -0.3529  0.1741
  462SOL    HW1 1385   2.027   2.148   0.775 -2.2838 -0.5035  4.5039
  462SOL    HW2 1386   1.911   2.253   0.813  1.6767 -0.7570  1.3752
  463SOL     OW 1387   3.005   0.628   0.383  0.2171 -0.0834 -0.4424
  463SOL    HW1 1388   2.943   0.647   0.463  2.0321 -0.6375  3.2536
  463SOL    HW2 1389   3.031   0.530   0.385 -1.2637  2.8415  2.3802
  464SOL     OW 1390   0.753   2.531   0.431  0.2116  0.2817  0.4402
  464SOL    HW1 1391   0.807   2.539   0.344 -1.9660 -1.2824 -1.1322
  464SOL    HW2 1392   0.772   2.441   0.479  1.1200 -0.1088 -1.9939
  465SOL     OW 1393   2.247   0.389   0.821  0.7496  0.1224  0.2354
  465SOL    HW1 1394   2.176   0.355   0.888  0.3580  0.8883  1.1103
  465SOL    HW2 1395   2.199   0.427   0.739  0.1859  1.0082  0.9479
  466SOL     OW 1396   2.106   0.168   0.335  0.0117 -0.4955  0.3350
  466SOL    HW1 1397   2.055   0.245   0.379 -2.3265 -2.8751 -0.7812
  466SOL    HW2 1398   2.045   0.119   0.274  3.7612  1.7808  0.2888
  467SOL     OW 1399   1.049   0.492   2.025  0.3202 -0.1619  0.3708
  467SOL    HW1 1400   1.105   0.491   2.114  1.8237 -1.2539  1.4192
  467SOL    HW2 1401   1.066   0.414   1.959  3.6652  3.0867 -0.2779
  468SOL     OW 1402   2.858   0.501   1.939  0.4906 -0.3719 -0.2776
  468SOL    HW1 1403   2.919   0.538   2.016  0.3993  1.4130 -0.0697
  468SOL    HW2 1404   2.766   0.471   1.981 -1.8468 -2.1481  0.0524
  469SOL     OW 1405   1.008   2.295   2.373  0.0344 -0.2279 -0.0086
  469SOL    HW1 1406   1.100   2.280   2.412 -1.2707  0.8328 -0.9844
  469SOL    HW2 1407   0.995   2.237   2.289 -4.0079  0.1066 -0.0905
  470SOL     OW 1408   2.100   1.142   1.875  0.1441 -0.3772  0.4473
  470SOL    HW1 1409   2.193   1.108   1.875 -1.2734  0.5419 -0.8040
  470SOL    HW2 1410   2.057   1.111   1.965 -2.6886  1.8590  0.9745
  471SOL     OW 1411   2.821   1.522   0.121  0.0213 -0.0503  0.8537
  471SOL    HW1 1412   2.901   1.548   0.177  1.6188 -0.7180 -2.1088
  471SOL    HW2 1413   2.833   1.425   0.093  1.1165  1.4252  0.1567
  472SOL     OW 1414   0.431   2.598   0.370  0.0843  0.2969  0.4225
  472SOL    HW1 1415   0.359   2.523   0.378  0.6763 -1.1709  0.7616
  472SOL    HW2 1416   0.514   2.569   0.413  1.0550  3.0149  1.9508
  473SOL     OW 1417   1.053   2.521   2.239  0.4901  0.1257 -0.4849
  473SOL    HW1 1418   1.041   2.434   2.291 -1.2941 -0.5280  1.9942
  473SOL    HW2 1419   1.087   2.595   2.297 -2.5056 -0.8629 -3.1944
  474SOL     OW 1420   1.398   3.073   2.641 -0.2428  0.1572  0.3460
  474SOL    HW1 1421   1.421   3.068   2.739  4.4075 -2.3849 -1.8633
  474SOL    HW2 1422   1.302   3.029   2.625 -3.1918 -0.1925  0.4663
  475SOL     OW 1423   0.947   2.544   0.244  0.2529 -0.0140 -0.1547
  475SOL    HW1 1424   0.949   2.641   0.226 -2.0209 -0.8203  0.2220
  475SOL    HW2 1425   1.040   2.516   0.279  0.5332  0.2650  0.9384
  476SOL     OW 1426   0.467   0.435   1.061 -0.0531  0.5518 -0.0208
  476SOL    HW1 1427   0.517   0.478   1.138  1.8623  0.5949  0.5002
  476SOL    HW2 1428   0.484   0.482   0.974  1.6699 -0.2583  2.0446
  477SOL     OW 1429   1.788   2.112   1.516  0.0014 -0.3251  0.7954
  477SOL    HW1 1430   1.781   2.151   1.421  0.8416 -0.7924 -2.1561
  477SOL    HW2 1431   1.873   2.061   1.529 -0.4789  1.5051 -0.8145
  478SOL     OW 1432   3.084   0.948   2.833 -0.2733  0.5823  0.0475
  478SOL    HW1 1433   0.025   0.966   2.748 -2.2004 -0.7881  0.3479
  478SOL    HW2 1434   0.021   0.888   2.904 -1.1743 -0.9581  2.4467
  479SOL     OW 1435   0.761   2.922   0.950  0.8686  0.0713 -0.4847
  479SOL    HW1 1436   0.786   2.822   0.955 -0.4721  1.1936 -0.2282
  479SOL    HW2 1437   0.831   2.975   0.898 -2.1265  3.2284  1.6780
  480SOL     OW 1438   2.494   2.659   0.313  0.1069  0.2625 -0.2637
  480SOL    HW1 1439   2.539   2.729   0.254 -1.6391  1.4059 -1.1897
  480SOL    HW2 1440   2.538   2.563   0.312  2.3652 -3.2439  0.6631
  481SOL     OW 1441   2.698   0.456   1.283 -0.2368  0.1340  0.2943
  481SOL    HW1 1442   2.648   0.366   1.277 -0.5558 -2.6310  1.5859
  481SOL    HW2 1443   2.785   0.455   1.336 -3.5372  0.3443 -2.2886
  482SOL     OW 1444   1.073   2.564   1.121 -0.0550 -0.5732  0.0439
  482SOL    HW1 1445   1.055   2.470   1.090  0.6835  0.7622  2.3828
  482SOL    HW2 1446   1.161   2.590   1.075 -1.2895  1.4128  1.1728
  483SOL     OW 1447   0.338   1.422   2.852  0.5673 -0.5471 -0.1753
  483SOL    HW1 1448   0.374   1.408   2.942  0.3582  2.4862 -0.2887
  483SOL    HW2 1449   0.254   1.369   2.829  0.4196  0.5934 -0.6502
  484SOL     OW 1450   1.641   1.538   2.126 -0.6967  0.3205  0.2951
  484SOL    HW1 1451   1.709   1.466   2.137 -2.2143  1.4406 -0.1592
  484SOL    HW2 1452   1.651   1.606   2.200  1.1058 -2.7124 -1.6556
  485SOL     OW 1453   0.154   0.113   2.472 -0.3142 -0.0671  0.1711
  485SOL    HW1 1454   0.176   0.129   2.573  1.0763  0.1445  4.4556
  485SOL    HW2 1455   0.148   0.011   2.462  3.0003 -0.6773  0.9486
  486SOL     OW 1456   1.461   2.919   0.616 -0.2959 -0.1562 -0.5788
  486SOL    HW1 1457   1.501   2.981   0.684 -2.7297 -0.2795 -0.7208
  486SOL    HW2 1458   1.493   2.942   0.519  2.7188 -0.1253 -0.8016
  487SOL     OW 1459   1.706   3.009   1.176 -0.1007 -0.3737 -0.0535
  487SOL    HW1 1460   1.662   3.077   1.237  0.6012  1.7791 -2.8223
  487SOL    HW2 1461   1.763   3.055   1.102 -1.1367 -0.1968  0.4878
  488SOL     OW 1462   2.271   0.926   0.859 -0.1082 -0.4982  0.5331
  488SOL    HW1 1463   2.229   0.998   0.916  3.6212  0.8219 -0.1599
  488SOL    HW2 1464   2.239   0.833   0.884  1.1234 -0.9784 -2.4016
  489SOL     OW 1465   1.227   2.958   1.312 -0.5575 -0.2151  0.1408
  489SOL    HW1 1466   1.147   2.941   1.369  0.8257  0.9746 -2.2329
  489SOL    HW2 1467   1.205   2.987   1.217 -1.6845  1.2576  1.6240
  490SOL     OW 1468   0.758   0.866   0.518 -0.0370 -0.5801 -0.2305
  490SOL    HW1 1469   0.758   0.938   0.593 -0.1210  0.0987  0.5266
  490SOL    HW2 1470   0.806   0.786   0.553 -1.6478  3.7235 -2.6059
  491SOL     OW 1471   1.133   2.796   0.358 -0.1434  0.2513  0.1178
  491SOL    HW1 1472   1.190   2.773   0.437 -0.7090  1.6752  0.0220
  491SOL    HW2 1473   1.180   2.762   0.275  0.5459  0.3722  1.4732
  492SOL     OW 1474   0.868   1.488   2.103  0.3780 -0.6583  0.3177
  492SOL    HW1 1475   0.949   1.437   2.140  0.2426 -2.1478  1.8231
  492SOL    HW2 1476   0.865   1.477   1.999  1.0380  1.9395 -2.1585
  493SOL     OW 1477   0.084   1.921   0.191 -0.2103  0.3531 -0.6751
  493SOL    HW1 1478   0.172   1.904   0.139 -2.6737 -0.5992 -0.6516
  493SOL    HW2 1479   0.098   1.900   0.292  1.1139 -0.1716  0.9456
  494SOL     OW 1480   1.796   1.526   0.251  0.3758 -0.4671  0.0011
  494SOL    HW1 1481   1.779   1.568   0.342  0.6004  1.4029  0.0629
  494SOL    HW2 1482   1.770   1.429   0.243 -0.5695  0.9477 -2.3509
  495SOL     OW 1483   0.480   1.070   2.475 -0.3365 -0.2027 -0.3299
  495SOL    HW1 1484   0.468   1.132   2.395 -1.4200 -0.9640  0.3684
  495SOL    HW2 1485   0.570   1.070   2.519 -1.8534 -0.2147  0.3684
  496SOL     OW 1486   0.017   0.118   2.226 -0.1579  0.6405  0.3076
  496SOL    HW1 1487   0.033   0.096   2.329 -0.4061 -1.3853  3.3961
  496SOL    HW2 1488   0.083   0.061   2.170  2.5817  1.2851 -1.1442
  497SOL     OW 1489   1.970   1.113   0.578 -0.6787  0.5387 -0.4283
  497SOL    HW1 1490   2.000   1.182   0.508 -1.0339 -0.1884 -1.4406
  497SOL    HW2 1491   1.943   1.026   0.533 -1.6321  2.8691  2.3661
  498SOL     OW 1492   2.650   2.837   2.907 -0.5872  0.7328 -0.7174
  498SOL    HW1 1493   2.584   2.772   2.943  0.3629  1.1321 -2.9850
  498SOL    HW2 1494   2.641   2.853   2.812  0.9257 -1.3615  2.1018
  499SOL     OW 1495   1.927   2.856   0.710 -0.0754  0.2174  0.1070
  499SOL    HW1 1496   1.952   2.938   0.663  1.2744 -2.6247  0.5144
  499SOL    HW2 1497   1.878   2.786   0.651 -0.4417  1.8297 -0.6667
  500SOL     OW 1498   1.098   0.535   2.560 -0.6482 -0.0418  0.1508
  500SOL    HW1 1499   1.181   0.517   2.499 -1.1038 -1.2553  0.4676
  500SOL    HW2 1500   1.117   0.595   2.640 -0.1066  0.0040  0.6480
  501SOL     OW 1501   1.376   0.025   1.422  0.4844  0.3372 -0.0179
  501SOL    HW1 1502   1.363   3.110   1.521 -2.8950  2.4173  0.4006
  501SOL    HW2 1503   1.311   3.083   1.363 -1.0176 -2.9050  1.9893
  502SOL     OW 1504   0.055   0.180   1.898  0.0008 -0.3465 -0.2092
  502SOL    HW1 1505   0.090   0.092   1.942  0.8242 -1.3577 -0.9784
  502SOL    HW2 1506   0.112   0.199   1.816 -0.2527  3.1125 -0.3014
  503SOL     OW 1507   1.569   2.244   2.100  0.2539 -0.4516  0.7947
  503SOL    HW1 1508   1.643   2.305   2.140 -1.1371  3.9918  0.4257
  503SOL    HW2 1509   1.599   2.145   2.111  0.6735  2.9503  0.1951
  504SOL     OW 1510   2.140   0.045   1.693  0.4859  0.4849  0.7552
  504SOL    HW1 1511   2.134   0.128   1.636  2.1176 -2.0684  1.6711
  504SOL    HW2 1512   2.059   0.041   1.758 -0.2697  2.5039 -0.7834
  505SOL     OW 1513   2.816   1.777   1.639 -0.3651  0.6458 -0.3150
  505SOL    HW1 1514   2.885   1.704   1.633  0.2051  1.8462 -3.5118
  505SOL    HW2 1515   2.758   1.757   1.718  3.1528 -0.2205 -3.2406
  506SOL     OW 1516   0.114   1.341   2.252  0.0695  0.3148 -0.0879
  506SOL    HW1 1517   0.123   1.294   2.344 -2.2916 -1.6578 -2.3382
  506SOL    HW2 1518   0.066   1.281   2.190  0.5883  1.0222  0.4137
  507SOL     OW 1519   0.191   2.813   1.293 -0.1566  0.2608  0.0542
  507SOL    HW1 1520   0.115   2.845   1.243  2.2978 -1.1421  1.2301
  507SOL    HW2 1521   0.162   2.749   1.368  3.1006 -0.2198 -2.8172
  508SOL     OW 1522   1.477   0.676   1.452 -0.1561  0.0307  0.5417
  508SOL    HW1 1523   1.458   0.633   1.360 -1.7372 -2.7754 -0.4144
  508SOL    HW2 1524   1.449   0.612   1.527  1.3231 -1.2078 -2.0570
  509SOL     OW 1525   1.514   2.290   1.829 -0.1036  0.9057 -0.4552
  509SOL    HW1 1526   1.528   2.378   1.780 -0.4706 -0.7496 -1.2872
  509SOL    HW2 1527   1.541   2.300   1.928  2.7421 -0.1897  1.1149
  510SOL     OW 1528   2.429   1.457   2.971 -0.1977  0.3916  0.4194
  510SOL    HW1 1529   2.425   1.404   3.059  0.3645  0.1754 -0.3364
  510SOL    HW2 1530   2.358   1.531   2.972  0.4300  0.4752  0.0424
  511SOL     OW 1531   0.456   1.553   1.583 -0.2782 -0.3372 -0.2474
  511SOL    HW1 1532   0.482   1.491   1.663  2.0714  0.1617 -0.5427
  511SOL    HW2 1533   0.498   1.509   1.500  0.9310 -1.6668  1.2179
  512SOL     OW 1534   2.423   2.289   0.138  0.1772  0.0846  0.1448
  512SOL    HW1 1535   2.498   2.327   0.196 -1.8024  0.4516 -0.2296
  512SOL    HW2 1536   2.375   2.217   0.184  0.8248  1.4076 -2.2475
  513SOL     OW 1537   0.807   1.684   2.508  0.2438 -0.3810  0.0726
  513SOL    HW1 1538   0.880   1.617   2.521 -1.1073  2.5559 -2.2369
  513SOL    HW2 1539   0.852   1.775   2.506  0.8491 -1.8504 -0.6935
  514SOL     OW 1540   0.357   2.257   2.309 -0.1787  0.2129 -0.6443
  514SOL    HW1 1541   0.331   2.200   2.230  4.4193  1.1321 -0.6903
  514SOL    HW2 1542   0.291   2.339   2.325 -0.4120  1.7467  1.2074
  515SOL     OW 1543   1.878   1.290   1.777 -0.1071 -0.1405 -0.0024
  515SOL    HW1 1544   1.965   1.251   1.812 -0.6566  0.5766 -1.2177
  515SOL    HW2 1545   1.900   1.346   1.694  1.3719  1.2975 -1.4170
  516SOL     OW 1546   1.827   2.505   0.148  0.4677  0.3387 -0.2828
  516SOL    HW1 1547   1.885   2.590   0.140  0.3953  2.4209 -0.1054
  516SOL    HW2 1548   1.872   2.419   0.120 -0.6917  0.8934  0.7755
  517SOL     OW 1549   0.602   1.734   0.458 -0.7864 -0.0777 -0.5661
  517SOL    HW1 1550   0.695   1.741   0.414  2.4065  2.2110 -1.2871
  517SOL    HW2 1551   0.570   1.635   0.480 -0.5782 -2.7928 -0.0479
  518SOL     OW 1552   1.958   2.416   1.515 -0.1586 -0.5154 -0.5443
  518SOL    HW1 1553   2.013   2.505   1.536  0.3614  3.1804 -0.2157
  518SOL    HW2 1554   1.977   2.384   1.421  1.6812 -1.6250 -0.4038
  519SOL     OW 1555   2.174   2.412   1.077  0.1598 -0.3744 -0.0431
  519SOL    HW1 1556   2.193   2.512   1.080 -0.5005 -1.6951 -0.5166
  519SOL    HW2 1557   2.113   2.393   0.998 -1.0992 -0.1857 -0.8307
  520SOL     OW 1558   3.060   2.208   2.589 -0.3199  0.7466  0.5203
  520SOL    HW1 1559   2.958   2.198   2.582 -0.7964  0.6958  0.4216
  520SOL    HW2 1560   3.100   2.189   2.494  0.6473  0.7896  1.3057
  521SOL     OW 1561   2.616   1.212   2.498 -0.0257 -0.0566 -0.5833
  521SOL    HW1 1562   2.525   1.215   2.545 -0.9177  0.0518 -0.9345
  521SOL    HW2 1563   2.603   1.268   2.410 -1.2218  1.7638 -0.6827
  522SOL     OW 1564   0.946   0.644   2.306 -0.1655  0.1498 -0.8201
  522SOL    HW1 1565   1.038   0.602   2.294 -1.6322  0.2596  0.2663
  522SOL    HW2 1566   0.880   0.611   2.245  0.8362 -0.0220 -0.3195
  523SOL     OW 1567   0.067   2.160   1.016 -0.5812 -0.5042  0.9707
  523SOL    HW1 1568   0.168   2.170   1.034 -2.7165  1.0607 -1.7547
  523SOL    HW2 1569   0.021   2.213   1.090  1.9271  1.1105 -0.7512
  524SOL     OW 1570   1.959   2.728   0.119  0.1961  0.0128  0.4275
  524SOL    HW1 1571   1.978   2.785   0.203  0.2821 -0.4335  0.9829
  524SOL    HW2 1572   2.028   2.756   0.047  0.5700 -3.4161 -3.1405
  525SOL     OW 1573   2.238   0.544   1.304  0.1749 -0.0545  0.1210
  525SOL    HW1 1574   2.317   0.593   1.262 -0.7977  0.2690 -3.8486
  525SOL    HW2 1575   2.247   0.444   1.286  0.2146  1.5602 -1.9085
  526SOL     OW 1576   0.959   2.728   0.669 -0.1169 -0.0190  0.2899
  526SOL    HW1 1577   0.920   2.770   0.587 -0.2891 -0.0517 -1.6024
  526SOL    HW2 1578   0.889   2.667   0.706  1.3644 -0.9398  0.4963
  527SOL     OW 1579   2.334   2.899   0.501  0.3597 -0.1970  0.0299
  527SOL    HW1 1580   2.345   2.856   0.592 -0.1682  1.6789 -1.6272
  527SOL    HW2 1581   2.284   2.835   0.439 -0.0202  1.2443  2.6252
  528SOL     OW 1582   1.632   0.734   0.369 -0.1074 -0.0755 -0.4024
  528SOL    HW1 1583   1.564   0.788   0.426 -0.0226 -0.5262  1.2079
  528SOL    HW2 1584   1.621   0.632   0.386 -1.5516 -0.9854 -0.5338
  529SOL     OW 1585   1.487   1.527   2.557  0.4620  0.0415  0.5090
  529SOL    HW1 1586   1.443   1.509   2.647  1.6994  0.9183  0.8789
  529SOL    HW2 1587   1.426   1.575   2.491 -1.3068 -1.7630 -2.6797
  530SOL     OW 1588   2.513   0.317   0.058 -0.2859  0.2251  0.1388
  530SOL    HW1 1589   2.429   0.271   0.093 -1.5874  0.6062 -2.7664
  530SOL    HW2 1590   2.571   0.244   0.026 -2.3044 -0.1092 -0.0287
  531SOL     OW 1591   1.412   0.916   2.694 -0.1547 -0.0278  0.7879
  531SOL    HW1 1592   1.484   0.919   2.621  0.8025  1.8171 -0.4150
  531SOL    HW2 1593   1.406   0.826   2.742 -0.7091  1.0080  2.6732
  532SOL     OW 1594   1.584   0.421   0.738  0.0471  0.2221  0.4626
  532SOL    HW1 1595   1.496   0.468   0.761  1.7640  0.7109  1.4954
  532SOL    HW2 1596   1.662   0.476   0.776 -1.1529  0.9483 -0.8389
  533SOL     OW 1597   0.389   0.819   2.529 -0.1847 -0.4246 -0.1092
  533SOL    HW1 1598   0.423   0.913   2.497  2.2833  0.6239 -1.9469
  533SOL    HW2 1599   0.428   0.739   2.472 -0.9306 -3.4271  0.9913
  534SOL     OW 1600   1.666   0.197   2.759  0.1116  0.2880  0.0441
  534SOL    HW1 1601   1.652   0.129   2.837 -1.2694 -2.1950 -0.0127
  534SOL    HW2 1602   1.592   0.265   2.752  0.0258 -1.3353  3.8836
  535SOL     OW 1603   0.279   2.901   2.733  0.9646  0.0856 -0.4445
  535SOL    HW1 1604   0.246   2.812   2.774 -2.2532 -0.4096 -0.4978
  535SOL    HW2 1605   0.270   2.978   2.805 -1.7400 -0.4895 -1.1745
  536SOL     OW 1606   0.678   0.032   0.334 -0.3789 -0.3795  0.6939
  536SOL    HW1 1607   0.685   0.132   0.341 -1.1904 -1.6257 -1.1010
  536SOL    HW2 1608   0.720   3.090   0.411 -0.8608  1.6353 -3.1943
  537SOL     OW 1609   1.555   0.283   0.165 -0.5638 -0.4870 -0.2542
  537SOL    HW1 1610   1.502   0.255   0.082 -1.8614  0.0748  0.4699
  537SOL    HW2 1611   1.487   0.297   0.240  0.3089 -0.2096  1.1960
  538SOL     OW 1612   2.857   2.039   2.824  0.2110  0.1664  0.1680
  538SOL    HW1 1613   2.933   2.003   2.886 -1.3024  0.1234 -2.3830
  538SOL    HW2 1614   2.772   2.058   2.878  0.5809 -1.7889  1.8254
  539SOL     OW 1615   2.234   2.008   0.023  0.2534 -0.0618  0.0044
  539SOL    HW1 1616   2.171   1.952   3.077 -2.8698  1.7388  0.4324
  539SOL    HW2 1617   2.333   1.990   0.004 -0.3798  1.9111 -0.0599
  540SOL     OW 1618   0.910   2.819   1.931 -0.2450  0.0395 -0.7319
  540SOL    HW1 1619   0.901   2.725   1.974 -0.9108  0.2437  1.0218
  540SOL    HW2 1620   0.997   2.833   1.884 -1.2196 -0.7449 -0.6368
  541SOL     OW 1621   2.475   0.081   2.300 -0.0175  0.2670 -0.1295
  541SOL    HW1 1622   2.500   0.096   2.200 -1.6344 -1.9252 -2.5443
  541SOL    HW2 1623   2.413   0.154   2.330 -1.2995  3.0720  1.3753
  542SOL     OW 1624   0.178   0.529   2.741 -0.1770 -0.1935 -0.1967
  542SOL    HW1 1625   0.208   0.525   2.644  0.7551  0.9414 -1.0051
  542SOL    HW2 1626   0.088   0.574   2.752  0.7017  0.3354 -0.5760
  543SOL     OW 1627   0.294   0.853   1.056 -0.8150 -0.2897 -0.5632
  543SOL    HW1 1628   0.347   0.797   0.992 -1.1604  2.1520 -2.3017
  543SOL    HW2 1629   0.197   0.865   1.030 -1.5502 -0.6475  1.2809
  544SOL     OW 1630   2.474   0.668   1.216 -0.4347  0.1374 -0.4474
  544SOL    HW1 1631   2.528   0.580   1.224  1.8465 -1.4839  0.8777
  544SOL    HW2 1632   2.504   0.736   1.287 -1.8496 -0.5787  1.8248
  545SOL     OW 1633   1.408   2.020   0.546 -0.0980 -0.2061  0.1467
  545SOL    HW1 1634   1.303   2.032   0.547 -2.1532  3.3080 -1.5261
  545SOL    HW2 1635   1.444   2.020   0.640 -0.0653  1.0094  0.0963
  546SOL     OW 1636   2.283   2.708   1.351  0.1304 -0.1560  0.8888
  546SOL    HW1 1637   2.337   2.795   1.324 -3.0481  2.7948  0.9896
  546SOL    HW2 1638   2.235   2.666   1.267 -0.1206 -1.4193 -0.6664
  547SOL     OW 1639   0.342   2.823   2.450  0.1698  0.5210  0.3951
  547SOL    HW1 1640   0.398   2.792   2.370 -2.1621 -1.0965 -2.4455
  547SOL    HW2 1641   0.392   2.895   2.497 -0.5036 -3.5707 -2.0171
  548SOL     OW 1642   1.415   0.701   2.866  0.0115 -0.0332 -0.3384
  548SOL    HW1 1643   1.388   0.704   2.963  2.0652 -0.5214 -1.4519
  548SOL    HW2 1644   1.499   0.643   2.853  0.5347  0.5774 -1.8608
  549SOL     OW 1645   2.669   1.104   0.344 -0.2699  0.5806 -0.3755
  549SOL    HW1 1646   2.766   1.098   0.378  1.2300  2.9191  0.5743
  549SOL    HW2 1647   2.600   1.045   0.389 -1.6265  0.0530  0.6991
  550SOL     OW 1648   1.918   1.736   0.703  0.4663  0.4227 -0.0088
  550SOL    HW1 1649   1.891   1.773   0.796 -1.0615  1.6419 -0.8244
  550SOL    HW2 1650   2.015   1.707   0.697 -2.0150  2.2867  1.0984
  551SOL     OW 1651   1.406   0.062   1.079 -0.0032  0.2406 -0.3523
  551SOL    HW1 1652   1.492   0.019   1.118 -4.4266 -0.1853  1.3958
  551SOL    HW2 1653   1.328   3.109   1.074 -1.4976  0.1037  0.6178
  552SOL     OW 1654   2.635   2.751   2.240 -0.1836 -0.1304  0.3374
  552SOL    HW1 1655   2.549   2.735   2.192 -0.2703  2.4342  1.4595
  552SOL    HW2 1656   2.654   2.675   2.306  1.0609 -1.8403 -0.1405
  553SOL     OW 1657   0.451   3.026   2.066  0.3011 -0.3588  0.5452
  553SOL    HW1 1658   0.490   2.953   2.008  0.2324 -1.0259  0.7300
  553SOL    HW2 1659   0.468   3.018   2.165 -0.8460 -1.4347  1.9935
  554SOL     OW 1660   0.576   3.013   1.109  0.2152 -0.0441 -0.3734
  554SOL    HW1 1661   0.542   3.104   1.085 -2.7243 -0.3246 -0.8747
  554SOL    HW2 1662   0.627   2.973   1.033 -1.3566  1.0081  0.1133
  555SOL     OW 1663   2.627   2.117   2.188 -0.4998 -0.2899  0.0481
  555SOL    HW1 1664   2.621   2.069   2.278  0.5585 -3.5019  0.1615
  555SOL    HW2 1665   2.533   2.132   2.153  2.2653 -1.3965 -0.7670
  556SOL     OW 1666   1.168   0.168   2.792  0.1908 -0.3008 -0.0814
  556SOL    HW1 1667   1.100   0.236   2.828 -1.4640  0.4457  0.7241
  556SOL    HW2 1668   1.141   0.154   2.694 -1.8011  0.1135  1.9260
  557SOL     OW 1669   0.429   1.615   2.288 -0.6548  0.0324  0.3905
  557SOL    HW1 1670   0.389   1.672   2.363  1.3473  2.4007 -1.2677
  557SOL    HW2 1671   0.531   1.633   2.278  1.2371 -0.4957 -0.7327
  558SOL     OW 1672   2.350   0.943   3.089  0.1666  0.0676 -0.3262
  558SOL    HW1 1673   2.407   0.898   3.019 -0.2751  0.8164 -0.8597
  558SOL    HW2 1674   2.379   0.913   0.071 -2.8660  1.7383  1.7506
  559SOL     OW 1675   2.444   1.854   1.833 -0.0010 -0.1083 -0.1955
  559SOL    HW1 1676   2.445   1.938   1.782 -1.8880 -1.4822  1.1464
  559SOL    HW2 1677   2.351   1.829   1.863  0.6723 -3.1631  0.7048
  560SOL     OW 1678   2.490   0.911   1.981 -0.2090  0.3740  0.2471
  560SOL    HW1 1679   2.514   0.814   1.984 -0.8648  1.2007 -1.1170
  560SOL    HW2 1680   2.566   0.973   2.014  0.6679  1.3775  0.0242
  561SOL     OW 1681   3.070   3.052   2.880  0.0023 -0.7388 -0.2765
  561SOL    HW1 1682   3.055   3.093   2.787  0.9172  0.8081 -0.7767
  561SOL    HW2 1683   3.049   2.954   2.879  1.3152  4.2447 -0.1336
  562SOL     OW 1684   1.104   1.349   1.370  0.1669  0.4410  0.9726
  562SOL    HW1 1685   1.178   1.397   1.424  0.6834  0.1522  1.9655
  562SOL    HW2 1686   1.029   1.318   1.430  1.4891 -0.5520  0.4901
  563SOL     OW 1687   1.280   0.021   2.996 -0.3389  0.6403 -0.4280
  563SOL    HW1 1688   1.371   3.100   2.956 -0.5292  0.1091 -1.1022
  563SOL    HW2 1689   1.223   0.056   2.921  1.2616 -2.5457  0.5785
  564SOL     OW 1690   3.040   2.298   0.775  0.2016  0.0751  0.5252
  564SOL    HW1 1691   3.079   2.248   0.854  1.9727 -2.2119  1.9835
  564SOL    HW2 1692   2.939   2.306   0.790  0.8564  0.1914 -1.4892
  565SOL     OW 1693   0.527   2.159   1.385 -0.7194  0.1950 -0.4790
  565SOL    HW1 1694   0.473   2.230   1.342 -0.2684 -0.7294  2.0949
  565SOL    HW2 1695   0.528   2.073   1.331  2.3457  2.2506 -1.7701
  566SOL     OW 1696   1.461   2.630   2.186 -0.0019 -0.5691  0.0582
  566SOL    HW1 1697   1.403   2.584   2.114  1.5540  2.8280  1.1216
  566SOL    HW2 1698   1.420   2.627   2.280 -0.2137  1.3554  0.9640
  567SOL     OW 1699   2.374   2.860   0.781 -0.2222 -0.6463 -0.4460
  567SOL    HW1 1700   2.392   2.961   0.781 -0.0053  0.8054 -2.5111
  567SOL    HW2 1701   2.450   2.804   0.743  1.1047 -1.7958  0.8042
  568SOL     OW 1702   1.717   1.203   0.614 -0.0816 -0.3513  0.4438
  568SOL    HW1 1703   1.681   1.143   0.689  1.2295 -0.6704  1.0700
  568SOL    HW2 1704   1.814   1.181   0.595 -0.3124 -3.0253 -0.5736
  569SOL     OW 1705   0.155   1.782   2.697 -0.1050 -0.2711  0.3507
  569SOL    HW1 1706   0.144   1.781   2.797 -0.1416  1.4925 -0.7642
  569SOL    HW2 1707   0.062   1.767   2.659 -0.6272 -1.1668  0.0427
  570SOL     OW 1708   0.016   0.238   1.479  0.3225 -0.4588  0.4230
  570SOL    HW1 1709   0.070   0.221   1.393 -2.0383 -2.4834 -1.9936
  570SOL    HW2 1710   3.085   0.150   1.511 -1.1801  0.9344 -2.7306
  571SOL     OW 1711   0.437   0.434   1.690  0.9051 -0.2040 -0.2866
  571SOL    HW1 1712   0.461   0.379   1.772  1.3245 -0.3911  1.1342
  571SOL    HW2 1713   0.406   0.528   1.716 -2.4193 -1.5346 -1.3685
  572SOL     OW 1714   0.185   2.454   1.247 -0.1005 -0.2211 -0.2713
  572SOL    HW1 1715   0.099   2.411   1.214  1.3802 -0.1165  0.8942
  572SOL    HW2 1716   0.182   2.463   1.350  0.0091 -2.7797  2.1838
  573SOL     OW 1717   1.019   0.353   0.023 -0.1459  0.5999  0.1359
  573SOL    HW1 1718   0.936   0.393   0.069  0.9480  1.3202 -0.6038
  573SOL    HW2 1719   1.094   0.344   0.086  0.1995  0.4332 -2.8006
  574SOL     OW 1720   2.569   2.833   0.108 -0.0639 -0.1611 -0.3264
  574SOL    HW1 1721   2.655   2.861   0.075 -1.2372 -0.7455 -1.1638
  574SOL    HW2 1722   2.524   2.914   0.153  1.9722  0.0413 -0.1565
  575SOL     OW 1723   1.598   2.518   1.228  0.2065  0.3626 -0.0080
  575SOL    HW1 1724   1.505   2.477   1.251 -3.2741  0.9891  1.6015
  575SOL    HW2 1725   1.586   2.612   1.192  0.9029  0.2734 -1.2999
  576SOL     OW 1726   1.177   3.018   1.043  0.5802 -0.2341  0.1387
  576SOL    HW1 1727   1.164   2.946   0.967 -0.0187 -0.9626 -2.3489
  576SOL    HW2 1728   1.106   3.092   1.039 -2.7817  0.3012  1.9643
  577SOL     OW 1729   2.611   1.347   0.844  0.6529 -0.1388  0.0432
  577SOL    HW1 1730   2.705   1.362   0.816 -0.3438 -1.5351 -1.6686
  577SOL    HW2 1731   2.560   1.295   0.772 -0.7154  1.0584 -0.0610
  578SOL     OW 1732   1.455   0.184   0.598  0.1393  0.0256  0.1318
  578SOL    HW1 1733   1.506   0.252   0.657  2.0879 -0.6276  1.8576
  578SOL    HW2 1734   1.520   0.105   0.581 -1.0849 -0.4539  2.1248
  579SOL     OW 1735   2.224   0.604   2.872 -0.1985  0.1011 -0.3768
  579SOL    HW1 1736   2.324   0.587   2.890 -1.0949  0.8502 -1.0038
  579SOL    HW2 1737   2.181   0.530   2.821  2.1965  0.7056 -0.7038
  580SOL     OW 1738   1.522   0.653   2.417 -0.3212 -0.3747 -0.4698
  580SOL    HW1 1739   1.597   0.615   2.477 -0.4720 -3.7870  1.1637
  580SOL    HW2 1740   1.487   0.743   2.451 -0.2312 -0.4665  1.3133
  581SOL     OW 1741   0.421   0.698   0.869 -0.9247  0.1528 -0.0255
  581SOL    HW1 1742   0.496   0.638   0.844 -1.9184 -0.7844  3.1475
  581SOL    HW2 1743   0.389   0.751   0.787  0.9831  2.9696  0.0221
  582SOL     OW 1744   2.907   0.232   1.822  0.4180  0.2389 -0.1913
  582SOL    HW1 1745   2.883   0.330   1.820  0.1823 -1.6099 -0.4724
  582SOL    HW2 1746   3.007   0.216   1.844  0.9155 -1.2249 -1.1327
  583SOL     OW 1747   0.366   0.608   2.227  0.0348 -0.1610 -0.7587
  583SOL    HW1 1748   0.457   0.590   2.276  2.2629  1.6301  1.8185
  583SOL    HW2 1749   0.337   0.528   2.163  0.3920 -1.4257 -2.7771
  584SOL     OW 1750   1.390   2.099   2.953 -0.1693  0.1600  0.6534
  584SOL    HW1 1751   1.462   2.118   2.878  2.0877 -1.0005 -2.2888
  584SOL    HW2 1752   1.426   2.123   3.047 -0.2434 -1.5156  0.5927
  585SOL     OW 1753   0.205   2.684   2.827  0.3343 -0.2929 -0.3650
  585SOL    HW1 1754   0.116   2.662   2.875  0.4305  1.0810 -0.0027
  585SOL    HW2 1755   0.283   2.634   2.873 -2.7981  0.3397 -0.2784
  586SOL     OW 1756   1.789   1.727   2.649 -0.0486  0.0365  0.5219
  586SOL    HW1 1757   1.815   1.824   2.636 -2.9659  2.3868 -1.8782
  586SOL    HW2 1758   1.840   1.664   2.583 -0.5896 -0.1534  3.4589
  587SOL     OW 1759   2.156   2.244   3.101 -0.3705  0.0257 -0.8153
  587SOL    HW1 1760   2.230   2.311   3.070 -0.3127  0.0938 -0.3648
  587SOL    HW2 1761   2.184   2.145   3.107  0.8018 -1.8189  1.1054
  588SOL     OW 1762   2.951   0.337   0.964 -0.3336  0.4621  0.1185
  588SOL    HW1 1763   2.889   0.316   0.888  1.0173  1.2584  2.0883
  588SOL    HW2 1764   3.050   0.313   0.936  2.7440  1.8644  0.4208
  589SOL     OW 1765   0.821   0.572   0.451 -0.2849  0.7813  0.2558
  589SOL    HW1 1766   0.877   0.584   0.535  1.1640  0.5392 -2.5851
  589SOL    HW2 1767   0.834   0.648   0.390  0.0577 -1.8887  0.6327
  590SOL     OW 1768   2.025   2.204   0.408  0.1761  0.6722  0.4151
  590SOL    HW1 1769   2.059   2.111   0.426 -1.4232  2.7486 -1.8572
  590SOL    HW2 1770   1.938   2.195   0.360  4.0136 -0.4842 -2.3102
  591SOL     OW 1771   0.439   2.357   1.213 -0.0237 -0.6038 -0.7004
  591SOL    HW1 1772   0.340   2.386   1.222 -1.9092 -0.5937 -2.1240
  591SOL    HW2 1773   0.493   2.426   1.163 -0.8065  0.0159 -1.2100
  592SOL     OW 1774   1.413   0.538   1.211 -0.2685  0.1732  0.0108
  592SOL    HW1 1775   1.332   0.501   1.165  0.2298  1.4069  2.5133
  592SOL    HW2 1776   1.477   0.458   1.240  3.5021 -0.6548  0.3908
  593SOL     OW 1777   1.011   1.620   1.318 -0.0508 -0.4297  0.6475
  593SOL    HW1 1778   1.003   1.522   1.338  0.6515 -0.0674  2.4534
  593SOL    HW2 1779   1.017   1.673   1.397  0.1795 -1.2002 -3.8246
  594SOL     OW 1780   0.980   2.260   0.445 -1.0463  0.1293  0.0897
  594SOL    HW1 1781   0.962   2.198   0.370  1.2790  1.9925  1.6156
  594SOL    HW2 1782   0.904   2.262   0.513  0.9108 -0.7975 -3.3490
  595SOL     OW 1783   1.609   0.897   1.472  0.0430  0.3973  0.1399
  595SOL    HW1 1784   1.631   0.928   1.568  1.0304  1.2751  0.6532
  595SOL    HW2 1785   1.551   0.810   1.471 -1.0729 -1.6728  1.2940
  596SOL     OW 1786   2.918   0.844   1.608 -0.2554 -0.3561 -0.4278
  596SOL    HW1 1787   2.984   0.882   1.679  0.3407 -3.1470  0.1721
  596SOL    HW2 1788   2.956   0.866   1.517  0.7591 -3.2171  1.0718
  597SOL     OW 1789   0.787   2.402   2.438 -0.1813  0.8932  0.5578
  597SOL    HW1 1790   0.768   2.388   2.536  3.0353  0.9905 -1.2951
  597SOL    HW2 1791   0.877   2.357   2.413  1.1538  0.5338 -0.9848
  598SOL     OW 1792   2.639   1.657   1.838 -0.0954 -0.6849 -0.1883
  598SOL    HW1 1793   2.581   1.741   1.833  1.3939  2.7017  0.1785
  598SOL    HW2 1794   2.592   1.575   1.800 -0.4208 -1.1682 -2.4372
  599SOL     OW 1795   0.871   2.797   0.066 -0.0277  0.7760  0.3202
  599SOL    HW1 1796   0.773   2.813   0.044  3.0068  0.8122 -0.6627
  599SOL    HW2 1797   0.904   2.860   0.139 -0.1926 -1.4894 -1.9642
  600SOL     OW 1798   0.030   2.181   3.043 -0.2811 -0.2351  0.5814
  600SOL    HW1 1799   3.097   2.086   3.039  1.1198 -2.4474  2.0775
  600SOL    HW2 1800   3.103   2.247   2.977  0.0473 -0.0332  1.4661
  601SOL     OW 1801   0.521   0.836   1.206 -0.2585  0.5890 -0.2981
  601SOL    HW1 1802   0.428   0.844   1.158 -0.5722  0.4789  0.4240
  601SOL    HW2 1803   0.496   0.848   1.306 -0.4225 -2.0832  1.9325
  602SOL     OW 1804   0.650   0.288   0.586 -0.1635  0.0471 -0.0132
  602SOL    HW1 1805   0.712   0.317   0.658 -2.7974 -0.8789 -1.0115
  602SOL    HW2 1806   0.583   0.357   0.548 -0.5908 -0.6404  0.9786
  603SOL     OW 1807   0.385   0.250   2.614 -0.2857  0.2703  0.2131
  603SOL    HW1 1808   0.322   0.315   2.568 -1.0083 -1.8429  0.3299
  603SOL    HW2 1809   0.458   0.306   2.659  0.6177 -2.7518 -1.2728
  604SOL     OW 1810   0.854   2.811   1.423 -0.3534 -0.0713 -0.2135
  604SOL    HW1 1811   0.763   2.762   1.425 -0.2429 -0.2839  1.5186
  604SOL    HW2 1812   0.922   2.737   1.398  1.7116  1.4981 -1.0995
  605SOL     OW 1813   1.378   1.228   2.320 -0.0752 -0.4306  0.0400
  605SOL    HW1 1814   1.320   1.305   2.354 -1.2165  0.3226 -1.2681
  605SOL    HW2 1815   1.423   1.253   2.233  0.9492 -0.7820 -2.2384
  606SOL     OW 1816   2.118   2.853   3.049  0.1685 -0.2820  0.4397
  606SOL    HW1 1817   2.133   2.953   3.045  1.2621 -1.0949 -1.4881
  606SOL    HW2 1818   2.178   2.796   2.985  0.3372 -0.6781  0.2234
  607SOL     OW 1819   1.032   0.354   1.188 -0.3400  0.1112  0.1267
  607SOL    HW1 1820   1.049   0.363   1.287 -0.9540  1.0616  2.3014
  607SOL    HW2 1821   1.015   0.251   1.161  0.8426 -1.8028  0.1659
  608SOL     OW 1822   0.353   1.726   2.520  0.4839 -0.0413  0.0297
  608SOL    HW1 1823   0.436   1.703   2.572 -0.0089  0.6183  0.8195
  608SOL    HW2 1824   0.283   1.748   2.587  1.2238 -1.0540  0.0255
  609SOL     OW 1825   1.132   1.284   0.307 -0.7041 -0.6845 -0.3203
  609SOL    HW1 1826   1.175   1.365   0.263 -0.1610  0.2944 -0.2167
  609SOL    HW2 1827   1.081   1.216   0.248  0.7406  0.9752 -0.9333
  610SOL     OW 1828   0.098   0.257   0.924 -0.2697  0.2035 -0.0550
  610SOL    HW1 1829   0.189   0.211   0.902  3.0934  2.2703 -0.3419
  610SOL    HW2 1830   0.111   0.334   0.988 -0.6638 -0.8084  1.5606
  611SOL     OW 1831   1.160   1.170   0.562 -0.2306 -0.3635 -0.3697
  611SOL    HW1 1832   1.151   1.245   0.492  1.9654  1.8825 -0.7455
  611SOL    HW2 1833   1.172   1.079   0.521  2.3592  0.4787  0.9478
  612SOL     OW 1834   2.062   1.551   0.193  0.0254  0.4027 -0.1169
  612SOL    HW1 1835   1.961   1.558   0.211  1.4948 -1.2410 -2.8320
  612SOL    HW2 1836   2.080   1.455   0.160 -2.0604  1.8796  2.0163
  613SOL     OW 1837   1.649   1.006   0.032 -0.0398 -0.1145  0.3905
  613SOL    HW1 1838   1.722   1.072   0.004 -0.6605  3.4052 -1.3300
  613SOL    HW2 1839   1.585   1.041   0.106 -0.5239  2.8124 -2.1270
  614SOL     OW 1840   2.684   0.144   2.462  0.7867  0.2639 -0.3751
  614SOL    HW1 1841   2.756   0.070   2.454  0.3116 -1.3336  0.9966
  614SOL    HW2 1842   2.598   0.110   2.427  3.9510  1.6903  1.2718
  615SOL     OW 1843   0.670   2.105   0.774 -0.0822 -0.3696  0.5052
  615SOL    HW1 1844   0.637   2.011   0.750 -2.3578  2.4984 -0.3797
  615SOL    HW2 1845   0.682   2.106   0.874 -1.3566 -0.2956  0.4638
  616SOL     OW 1846   1.587   0.928   2.463 -0.1228 -0.2946  0.6910
  616SOL    HW1 1847   1.592   1.028   2.462  1.3495  1.3491 -0.2189
  616SOL    HW2 1848   1.676   0.889   2.463 -1.3210 -0.4825 -2.8476
  617SOL     OW 1849   1.205   0.216   0.208  0.1407  0.1480  0.3402
  617SOL    HW1 1850   1.258   0.270   0.280  0.1761  1.0103 -1.2542
  617SOL    HW2 1851   1.260   0.133   0.186 -0.1967 -3.0392  0.0986
  618SOL     OW 1852   2.547   2.016   2.432  0.0206 -0.1849  0.7430
  618SOL    HW1 1853   2.450   2.047   2.413 -0.7146  2.8463 -0.7761
  618SOL    HW2 1854   2.575   2.045   2.531  0.3743 -2.0044  1.8632
  619SOL     OW 1855   2.384   1.960   0.952  0.8939  0.2059  0.0695
  619SOL    HW1 1856   2.467   1.963   1.010 -2.2822 -2.0364  0.5174
  619SOL    HW2 1857   2.393   2.036   0.883  0.4786  2.2555  0.1959
  620SOL     OW 1858   2.247   2.720   1.778 -0.1850 -0.3269 -0.0168
  620SOL    HW1 1859   2.334   2.669   1.765  0.9210  0.1708  0.8403
  620SOL    HW2 1860   2.174   2.660   1.826  1.0234  0.4543 -0.0684
  621SOL     OW 1861   3.083   1.907   1.009 -0.0158 -0.1176 -0.0211
  621SOL    HW1 1862   0.004   1.854   0.931 -2.2141  0.9626  2.0273
  621SOL    HW2 1863   0.018   2.000   1.006 -0.4657 -0.3121 -2.2491
  622SOL     OW 1864   1.192   1.685   2.944  0.5730 -0.7158 -0.1042
  622SOL    HW1 1865   1.091   1.667   2.962  3.2515  0.6930 -1.7316
  622SOL    HW2 1866   1.231   1.757   3.004 -2.0338  0.7235 -0.1361
  623SOL     OW 1867   2.683   2.556   2.435  0.5554 -0.9663  0.2670
  623SOL    HW1 1868   2.697   2.462   2.398  1.6456 -0.3289  1.1321
  623SOL    HW2 1869   2.760   2.582   2.499 -0.0938 -1.5016  0.5213
  624SOL     OW 1870   0.748   2.296   0.587  0.4366 -0.1913  0.4305
  624SOL    HW1 1871   0.740   2.232   0.669 -0.2563  0.4461  2.0388
  624SOL    HW2 1872   0.722   2.253   0.504 -0.6552  0.9589  2.4013
  625SOL     OW 1873   0.656   1.842   2.066 -0.1153  0.0812  0.5024
  625SOL    HW1 1874   0.672   1.792   2.156  1.2322  0.0884  3.2245
  625SOL    HW2 1875   0.634   1.942   2.072 -1.2600 -2.1657 -0.0837
  626SOL     OW 1876   0.417   2.524   0.082 -0.1526 -0.3900  0.2807
  626SOL    HW1 1877   0.472   2.438   0.085 -5.4972 -1.2903 -0.4791
  626SOL    HW2 1878   0.414   2.562   0.176 -1.6635 -1.3488  2.2700
  627SOL     OW 1879   1.254   1.506   0.186 -0.6597 -0.0476 -0.1654
  627SOL    HW1 1880   1.276   1.569   0.269  1.7290  0.0757 -0.4614
  627SOL    HW2 1881   1.341   1.478   0.146 -2.0964  0.6373  1.5806
  628SOL     OW 1882   1.506   2.017   0.813  0.0816 -0.6349  0.6888
  628SOL    HW1 1883   1.496   2.081   0.890  0.3138 -0.7708 -0.3594
  628SOL    HW2 1884   1.604   2.009   0.783 -0.0374  0.2992 -0.6160
  629SOL     OW 1885   0.568   0.306   1.461 -0.0234 -0.6823  0.1185
  629SOL    HW1 1886   0.521   0.355   1.540 -1.7427  1.4981  1.5436
  629SOL    HW2 1887   0.619   0.233   1.507 -0.1481 -0.6887  0.9728
  630SOL     OW 1888   2.469   0.397   1.696  0.2528 -0.0963  0.3310
  630SOL    HW1 1889   2.427   0.489   1.712  0.0979 -0.3360  1.2900
  630SOL    HW2 1890   2.550   0.408   1.634  0.4574  1.6020  0.5858
  631SOL     OW 1891   1.581   0.244   0.944 -0.3206 -0.3565  0.2941
  631SOL    HW1 1892   1.573   0.305   0.867  1.8210 -2.8198  1.9364
  631SOL    HW2 1893   1.497   0.194   0.966 -0.4195  1.2686  1.2241
  632SOL     OW 1894   2.921   0.891   1.988 -0.1568 -0.1948 -0.2874
  632SOL    HW1 1895   2.980   0.937   1.921 -1.9862 -1.3757 -0.4176
  632SOL    HW2 1896   2.962   0.799   2.017  0.0938 -0.2718  0.4046
  633SOL     OW 1897   1.367   0.736   0.043 -0.1076  0.3533 -0.6636
  633SOL    HW1 1898   1.329   0.825   0.076  0.3650  1.3458  0.1316
  633SOL    HW2 1899   1.464   0.736   0.071 -1.3307 -0.0939 -0.9531
  634SOL     OW 1900   0.541   2.285   0.039 -0.0903 -0.0119 -0.3778
  634SOL    HW1 1901   0.641   2.269   0.038 -4.0287 -0.7615 -0.9240
  634SOL    HW2 1902   0.502   2.303   3.059  0.8461  0.2413 -0.1003
  635SOL     OW 1903   3.087   1.754   1.919 -0.4936 -0.2924 -0.1845
  635SOL    HW1 1904   2.988   1.735   1.937  2.0592 -1.0285 -0.9526
  635SOL    HW2 1905   0.023   1.782   2.005 -0.7667  0.5355  0.5009
  636SOL     OW 1906   3.074   1.679   0.180  0.7724  0.5460  0.5331
  636SOL    HW1 1907   0.029   1.619   0.122  2.4888 -1.9650 -3.7513
  636SOL    HW2 1908   3.110   1.774   0.181 -0.2134 -3.1613 -0.4951
  637SOL     OW 1909   2.675   2.425   0.576 -0.1305  0.6372  0.1869
  637SOL    HW1 1910   2.738   2.502   0.549  3.8884 -0.3224  3.1513
  637SOL    HW2 1911   2.703   2.374   0.663  0.2492  1.4742  1.0729
  638SOL     OW 1912   2.830   2.847   0.055  0.2759 -0.3119  0.4939
  638SOL    HW1 1913   2.876   2.938   0.060  1.5597 -0.7743 -0.6077
  638SOL    HW2 1914   2.889   2.771   0.027  0.3066  0.5630 -0.2891
  639SOL     OW 1915   1.400   0.283   3.055  0.0675  0.3361  0.1232
  639SOL    HW1 1916   1.349   0.374   3.060  1.3935 -0.0704  0.6125
  639SOL    HW2 1917   1.335   0.204   3.055 -0.8529 -2.1309 -2.5952
  640SOL     OW 1918   2.521   2.078   1.649 -1.2647  0.0100  0.2130
  640SOL    HW1 1919   2.608   2.073   1.604 -1.0252  1.0134  0.3967
  640SOL    HW2 1920   2.472   2.166   1.623  2.9896  0.6864  1.2119
  641SOL     OW 1921   3.017   2.916   1.333 -0.2055  0.2216 -0.4760
  641SOL    HW1 1922   2.960   2.856   1.267 -1.0356 -0.7337 -0.8778
  641SOL    HW2 1923   3.055   2.996   1.290 -0.3469 -4.8536  1.5330
  642SOL     OW 1924   1.621   1.055   1.212 -0.3041 -0.1647 -0.0411
  642SOL    HW1 1925   1.709   1.062   1.163 -0.6524  2.1304 -0.5116
  642SOL    HW2 1926   1.637   1.005   1.298 -0.4103  0.1527  2.8277
  643SOL     OW 1927   1.221   1.682   2.524 -0.5581  0.0653 -0.0824
  643SOL    HW1 1928   1.281   1.717   2.599 -0.8630  2.7576  4.0917
  643SOL    HW2 1929   1.202   1.753   2.450 -0.4631  1.2628  1.1604
  644SOL     OW 1930   1.902   0.153   2.126  0.5328  0.1289 -0.0601
  644SOL    HW1 1931   1.831   0.080   2.145 -0.1367 -0.1287  1.3658
  644SOL    HW2 1932   1.853   0.229   2.080 -1.6465 -1.0854 -0.5133
  645SOL     OW 1933   1.507   1.189   1.649  0.1869 -0.4088 -0.1459
  645SOL    HW1 1934   1.446   1.138   1.588  1.3388  3.4115 -0.0607
  645SOL    HW2 1935   1.591   1.135   1.666 -0.5290  0.1606  0.6826
  646SOL     OW 1936   1.327   2.493   0.074  0.3467 -0.0138 -0.5030
  646SOL    HW1 1937   1.312   2.472   3.088  0.9010  1.5965 -1.6241
  646SOL    HW2 1938   1.419   2.452   0.097  1.0111  0.0075  1.4788
  647SOL     OW 1939   1.302   2.424   1.245  0.0438  0.3242  0.3258
  647SOL    HW1 1940   1.272   2.458   1.154 -0.7627 -1.3987  2.5819
  647SOL    HW2 1941   1.249   2.335   1.262 -2.4782 -1.7679 -1.2278
  648SOL     OW 1942   2.993   2.620   1.459 -0.3475  0.9217  0.5819
  648SOL    HW1 1943   3.092   2.623   1.485  0.3105 -0.6306 -0.5573
  648SOL    HW2 1944   2.968   2.671   1.377 -1.6969  0.6223  2.0967
  649SOL     OW 1945   1.011   2.438   2.771 -0.1283  0.1414 -0.0866
  649SOL    HW1 1946   1.082   2.366   2.800  1.2255 -0.8736 -0.9104
  649SOL    HW2 1947   0.927   2.396   2.734 -0.7189  0.4619  0.4266
  650SOL     OW 1948   3.001   1.928   3.025 -0.2771  0.0887 -0.4415
  650SOL    HW1 1949   2.943   1.851   3.059 -1.7294  1.0821  0.1377
  650SOL    HW2 1950   3.079   1.888   2.974  1.2039 -0.8392  0.5837
  651SOL     OW 1951   2.374   2.182   2.123 -0.6383  0.3492  0.5891
  651SOL    HW1 1952   2.297   2.121   2.088 -2.4322  0.4336  0.5391
  651SOL    HW2 1953   2.423   2.229   2.052 -2.2730 -2.4577  2.2940
  652SOL     OW 1954   2.124   2.854   0.884  0.4103 -0.0621 -0.5249
  652SOL    HW1 1955   2.217   2.866   0.841 -1.3476 -1.1763 -0.7804
  652SOL    HW2 1956   2.055   2.845   0.807 -1.2419  0.5315 -2.8992
  653SOL     OW 1957   2.986   1.194   1.340  0.0647 -0.1824  0.0582
  653SOL    HW1 1958   2.909   1.223   1.403 -1.0626 -0.5127 -1.9325
  653SOL    HW2 1959   2.993   1.249   1.254 -0.4975 -0.5524  0.1218
  654SOL     OW 1960   0.948   0.299   2.897 -0.0370  0.5882  0.1586
  654SOL    HW1 1961   0.998   0.327   2.984  2.0468  0.5469 -0.3390
  654SOL    HW2 1962   0.869   0.235   2.916 -0.7021  2.2321  3.5010
  655SOL     OW 1963   1.121   0.842   0.887  0.2797  0.0134 -0.3498
  655SOL    HW1 1964   1.034   0.799   0.894  2.6978  1.9571 -1.6127
  655SOL    HW2 1965   1.152   0.872   0.979 -0.8657  0.5434 -0.3803
  656SOL     OW 1966   0.809   2.590   2.100  0.5931 -0.4305 -0.9123
  656SOL    HW1 1967   0.719   2.552   2.117  3.0081  1.8105 -0.1586
  656SOL    HW2 1968   0.878   2.564   2.174  0.3448  0.9300  2.0621
  657SOL     OW 1969   2.166   1.272   0.162 -0.0174  0.5073 -0.3963
  657SOL    HW1 1970   2.139   1.199   0.097 -1.2671  1.1914  0.5009
  657SOL    HW2 1971   2.262   1.304   0.156  1.7530  0.8122  0.7772
  658SOL     OW 1972   1.489   2.167   1.546  0.5860  0.3726  0.7469
  658SOL    HW1 1973   1.542   2.247   1.530 -0.1217 -3.4685  0.4544
  658SOL    HW2 1974   1.528   2.117   1.625 -0.4357 -0.4558 -2.2385
  659SOL     OW 1975   2.749   1.934   0.081  0.6332 -0.4837  0.2303
  659SOL    HW1 1976   2.759   1.850   0.018  1.4762 -0.7998 -1.9920
  659SOL    HW2 1977   2.768   1.900   0.176  0.1791 -3.7650 -0.9044
  660SOL     OW 1978   1.098   0.314   0.665 -0.4167  0.3223  0.1348
  660SOL    HW1 1979   1.070   0.219   0.651  0.9308  0.3691  0.8241
  660SOL    HW2 1980   1.105   0.369   0.584 -2.4255 -1.6967  2.0743
  661SOL     OW 1981   1.780   0.317   0.325  0.6438  0.6502 -0.3354
  661SOL    HW1 1982   1.713   0.294   0.256  1.8537 -1.3198  3.0296
  661SOL    HW2 1983   1.868   0.346   0.285 -0.3162  1.2209  1.4374
  662SOL     OW 1984   0.441   0.407   0.432  0.0365 -0.3223  0.3103
  662SOL    HW1 1985   0.361   0.345   0.441  1.6467  0.8667 -0.3375
  662SOL    HW2 1986   0.410   0.507   0.431 -1.7618 -0.1984  1.4357
  663SOL     OW 1987   1.428   2.890   2.121  0.3627  0.5405  0.1452
  663SOL    HW1 1988   1.368   2.915   2.201 -0.1160  1.5464 -0.0334
  663SOL    HW2 1989   1.450   2.790   2.128  0.9250 -0.2828  1.4844
  664SOL     OW 1990   0.889   2.433   1.555  0.1386 -0.3145  0.4875
  664SOL    HW1 1991   0.788   2.429   1.544  1.4275 -1.4187  1.7504
  664SOL    HW2 1992   0.926   2.525   1.529  3.5042 -1.3303 -1.0300
  665SOL     OW 1993   1.234   2.217   1.740  0.0941  0.1296 -1.1428
  665SOL    HW1 1994   1.192   2.295   1.789 -1.1684  1.2570  1.3783
  665SOL    HW2 1995   1.335   2.231   1.741  0.0972 -2.6485 -1.3913
  666SOL     OW 1996   0.796   0.023   2.463 -0.0538  0.2572 -0.3188
  666SOL    HW1 1997   0.787   0.022   2.562  1.1011  0.7872 -1.6381
  666SOL    HW2 1998   0.815   0.116   2.428 -3.4943 -1.8139  1.1052
  667SOL     OW 1999   2.739   1.075   1.613  0.2904 -0.8161 -0.0104
  667SOL    HW1 2000   2.790   1.162   1.597  1.5126 -0.7727 -0.6385
  667SOL    HW2 2001   2.797   0.998   1.593 -1.0105 -0.3977 -4.2762
  668SOL     OW 2002   1.768   0.041   1.494 -0.1516 -0.0751 -0.1861
  668SOL    HW1 2003   1.740   3.054   1.515 -1.5453 -1.7895  3.0856
  668SOL    HW2 2004   1.757   0.095   1.578 -0.0152 -1.5916 -2.2451
  669SOL     OW 2005   2.693   2.593   1.204  0.7470 -0.0948  0.0986
  669SOL    HW1 2006   2.692   2.516   1.272 -0.5424  0.1854  2.8954
  669SOL    HW2 2007   2.643   2.571   1.121 -0.7243  0.7172  4.2730
  670SOL     OW 2008   1.376   2.485   2.686  0.8198 -0.1972 -0.3608
  670SOL    HW1 2009   1.403   2.565   2.628  0.0663 -1.9007  1.0253
  670SOL    HW2 2010   1.352   2.409   2.626  0.8444 -0.0111  3.1969
  671SOL     OW 2011   0.434   1.261   0.476 -0.3503  0.0041  0.7047
  671SOL    HW1 2012   0.489   1.183   0.446 -0.2334  1.0388  0.6128
  671SOL    HW2 2013   0.338   1.243   0.483  1.6606  0.6734  4.0230
  672SOL     OW 2014   2.564   1.124   0.075  0.0197  0.5238 -0.3770
  672SOL    HW1 2015   2.592   1.114   0.175 -0.3530  1.0655 -0.0210
  672SOL    HW2 2016   2.504   1.049   0.042 -3.0976 -2.9970 -0.4775
  673SOL     OW 2017   0.411   2.063   1.758  0.7632  0.0371 -0.3836
  673SOL    HW1 2018   0.318   2.100   1.754  1.4536  1.1208 -0.3687
  673SOL    HW2 2019   0.416   1.963   1.739 -0.8979  0.3934  1.4292
  674SOL     OW 2020   1.142   2.115   2.152  0.0637  0.1015 -0.1430
  674SOL    HW1 2021   1.221   2.176   2.173 -1.6122 -1.3970 -0.1530
  674SOL    HW2 2022   1.070   2.164   2.092 -3.2223  0.4752 -1.3559
  675SOL     OW 2023   1.203   0.939   1.127  0.6388 -0.0759 -0.1735
  675SOL    HW1 2024   1.200   0.883   1.212 -3.0711 -0.3903  0.0574
  675SOL    HW2 2025   1.178   1.040   1.135 -2.6395  1.6218 -2.2605
  676SOL     OW 2026   1.953   0.290   1.232 -0.0027  0.6780 -0.2066
  676SOL    HW1 2027   1.896   0.360   1.284 -0.5265  0.8696 -0.1721
  676SOL    HW2 2028   1.914   0.197   1.246 -0.4780 -3.3116 -1.6739
  677SOL     OW 2029   2.716   0.768   0.304 -0.3863 -0.1370 -0.0150
  677SOL    HW1 2030   2.755   0.756   0.396  1.7858 -0.3451  1.9051
  677SOL    HW2 2031   2.736   0.684   0.250 -3.5792 -1.2000 -0.2307
  678SOL     OW 2032   2.632   1.606   1.034 -1.1180 -0.2182 -0.1762
  678SOL    HW1 2033   2.705   1.568   0.983 -1.3263  0.4981  2.8411
  678SOL    HW2 2034   2.545   1.620   0.975 -5.1637 -1.4495 -1.3209
  679SOL     OW 2035   2.538   0.791   2.939  0.0146 -0.4989  0.1017
  679SOL    HW1 2036   2.579   0.772   2.841 -0.4971 -1.7566 -2.4573
  679SOL    HW2 2037   2.606   0.844   2.997  1.0769  1.0351  3.2953
  680SOL     OW 2038   0.462   1.225   2.003 -0.2643  0.6523  0.5012
  680SOL    HW1 2039   0.466   1.135   2.054  1.9142  1.6726  1.2346
  680SOL    HW2 2040   0.407   1.295   2.053  1.5153  1.0506 -1.3357
  681SOL     OW 2041   2.757   2.024   1.563  0.1695 -0.1235  0.6891
  681SOL    HW1 2042   2.779   1.944   1.621  1.2311  0.3189 -1.0566
  681SOL    HW2 2043   2.711   1.993   1.474 -3.6130 -0.6299 -0.0720
  682SOL     OW 2044   0.276   1.890   0.022 -0.1823 -0.4289  0.2883
  682SOL    HW1 2045   0.293   1.973   3.075  0.0215 -2.3027 -0.4562
  682SOL    HW2 2046   0.346   1.819   3.108 -2.0010  0.3848 -0.5438
  683SOL     OW 2047   2.656   2.157   0.953 -0.2510  0.0020  0.2358
  683SOL    HW1 2048   2.727   2.087   0.945 -0.9452 -0.8776  0.5086
  683SOL    HW2 2049   2.632   2.170   1.049  0.2324 -2.4197 -0.8900
  684SOL     OW 2050   2.697   1.020   2.110 -0.2901 -0.4074  0.3252
  684SOL    HW1 2051   2.786   1.002   2.059  0.4442  1.3148 -1.3136
  684SOL    HW2 2052   2.706   1.017   2.210  0.2330  0.6781 -1.1001
  685SOL     OW 2053   1.234   0.709   0.666  0.0416 -0.0131  0.0606
  685SOL    HW1 2054   1.267   0.637   0.732  1.0502  0.8825 -1.6448
  685SOL    HW2 2055   1.184   0.782   0.719 -3.3699 -2.0513 -1.4765
  686SOL     OW 2056   0.570   0.132   0.072  0.2034  0.4053 -0.1444
  686SOL    HW1 2057   0.561   0.057   0.137 -0.8672 -0.2450 -0.7711
  686SOL    HW2 2058   0.566   0.221   0.119  0.1671 -1.2350  0.3082
  687SOL     OW 2059   0.391   2.175   2.562  0.1524  0.5213 -0.1125
  687SOL    HW1 2060   0.366   2.214   2.467  1.3252 -0.6975 -3.2506
  687SOL    HW2 2061   0.310   2.126   2.610 -3.3226  0.9169  1.2506
  688SOL     OW 2062   2.163   0.391   1.603 -0.3797 -0.0780 -0.1468
  688SOL    HW1 2063   2.071   0.347   1.592 -1.3231 -1.3285 -0.0347
  688SOL    HW2 2064   2.216   0.371   1.518  2.4350  0.3579 -0.7409
  689SOL     OW 2065   1.811   0.900   0.860  0.1549 -0.0758 -0.4979
  689SOL    HW1 2066   1.832   0.937   0.953 -1.8365 -2.2570  0.1220
  689SOL    HW2 2067   1.716   0.925   0.837  1.0764  0.4730  1.3042
  690SOL     OW 2068   3.020   0.935   1.381  0.0777  0.2881 -0.6618
  690SOL    HW1 2069   3.018   1.036   1.371  0.2043  0.0278 -1.5164
  690SOL    HW2 2070   2.973   0.887   1.301 -2.7659  0.9765 -2.4841
  691SOL     OW 2071   0.000   1.266   1.881  0.2461 -0.1757  0.2431
  691SOL    HW1 2072   0.066   1.299   1.811 -1.2390 -1.1680  1.0015
  691SOL    HW2 2073   3.026   1.323   1.898 -1.0005  1.4830 -2.5726
  692SOL     OW 2074   1.181   0.642   1.834 -0.0814 -0.3284  0.0417
  692SOL    HW1 2075   1.113   0.602   1.901  2.1579  0.8857  0.4902
  692SOL    HW2 2076   1.193   0.746   1.842  0.3504  0.4190 -0.6253
  693SOL     OW 2077   0.749   1.288   2.413 -0.7730  0.1517  0.1246
  693SOL    HW1 2078   0.720   1.278   2.316 -0.8558 -3.7032 -1.0424
  693SOL    HW2 2079   0.690   1.354   2.460 -0.9425  2.5564  1.5524
  694SOL     OW 2080   1.442   1.540   0.590  0.1619 -0.3421 -0.6818
  694SOL    HW1 2081   1.519   1.529   0.654 -1.6716  2.4763 -1.6914
  694SOL    HW2 2082   1.344   1.527   0.634 -4.1160 -0.8240  0.8965
  695SOL     OW 2083   0.604   1.103   1.402 -0.1764 -0.4879  0.5384
  695SOL    HW1 2084   0.526   1.151   1.364  0.3342 -0.3334 -1.4874
  695SOL    HW2 2085   0.615   1.133   1.498  1.3420 -1.4558 -0.9159
  696SOL     OW 2086   0.238   2.787   0.376  0.1519 -0.8238 -0.0497
  696SOL    HW1 2087   0.205   2.845   0.295  1.5229 -2.2896 -3.2092
  696SOL    HW2 2088   0.304   2.712   0.350 -0.1818  1.7273 -3.4287
  697SOL     OW 2089   1.785   0.535   1.298  0.0927  0.2812 -0.4319
  697SOL    HW1 2090   1.789   0.635   1.295  1.7162 -2.1523 -0.7941
  697SOL    HW2 2091   1.706   0.497   1.244 -1.8949  1.0774  0.3236
  698SOL     OW 2092   1.587   1.463   1.617 -0.1100 -0.0325 -0.4832
  698SOL    HW1 2093   1.624   1.504   1.699 -0.3012 -0.2860  1.1368
  698SOL    HW2 2094   1.547   1.371   1.636 -2.1152 -2.1326 -1.0218
  699SOL     OW 2095   0.019   0.368   2.340  0.3136  0.1768  0.5972
  699SOL    HW1 2096   3.049   0.428   2.322 -1.1060  0.5733  0.0478
  699SOL    HW2 2097   0.012   0.283   2.289 -0.3263 -1.4435 -2.0618
  700SOL     OW 2098   1.509   2.743   0.869 -0.3259 -0.5593  0.2933
  700SOL    HW1 2099   1.570   2.670   0.830 -0.3805 -0.2069  0.6408
  700SOL    HW2 2100   1.504   2.828   0.813  1.3538  0.7133 -0.3797
  701SOL     OW 2101   0.375   1.368   2.448 -0.6767  0.3845 -0.4433
  701SOL    HW1 2102   0.387   1.440   2.381 -0.1878 -0.6324 -0.6745
  701SOL    HW2 2103   0.434   1.387   2.528 -1.6882 -0.9267 -1.6688
  702SOL     OW 2104   0.577   0.328   2.938 -0.0632 -0.6314 -0.0285
  702SOL    HW1 2105   0.496   0.306   2.993  0.2441 -0.0450 -3.8798
  702SOL    HW2 2106   0.653   0.267   2.968 -0.8444 -0.6757 -3.2562
  703SOL     OW 2107   1.943   3.080   2.490 -0.3658  0.1512  0.4380
  703SOL    HW1 2108   2.012   0.024   2.539  0.4423  1.6114  1.4277
  703SOL    HW2 2109   1.849   0.008   2.509  1.4098 -0.3570  1.7999
  704SOL     OW 2110   2.613   1.811   0.525 -0.1350  0.1747  0.3793
  704SOL    HW1 2111   2.593   1.907   0.537 -3.1320 -1.8316 -0.6033
  704SOL    HW2 2112   2.651   1.796   0.434 -0.3719 -0.0436 -0.2313
  705SOL     OW 2113   2.909   1.994   1.907  0.2768 -0.2296  0.1644
  705SOL    HW1 2114   2.881   1.905   1.946  0.2597 -2.3821  2.1186
  705SOL    HW2 2115   2.838   2.063   1.906 -0.2937 -0.4429  2.1937
  706SOL     OW 2116   2.773   2.603   0.850  0.4884 -0.1574 -0.2618
  706SOL    HW1 2117   2.855   2.654   0.876  0.6625 -0.3267  1.6809
  706SOL    HW2 2118   2.715   2.652   0.779  0.9884  1.8309  0.3949
  707SOL     OW 2119   0.936   2.939   0.279 -0.5197  0.4023 -0.2582
  707SOL    HW1 2120   1.008   2.882   0.319  1.3604 -0.5798 -1.4747
  707SOL    HW2 2121   0.964   3.036   0.268  1.8614  2.8782  0.9909
  708SOL     OW 2122   0.642   2.051   1.614 -0.0060 -0.0772  0.1341
  708SOL    HW1 2123   0.560   2.062   1.672 -0.2935 -1.3328  0.1089
  708SOL    HW2 2124   0.620   2.085   1.521 -0.2823 -1.0729  0.8739
  709SOL     OW 2125   1.692   3.103   2.213  0.1999 -0.0587 -0.0702
  709SOL    HW1 2126   1.674   3.042   2.292 -0.6217  0.9741  0.2425
  709SOL    HW2 2127   1.644   0.084   2.235 -2.0525  2.6775 -0.1231
  710SOL     OW 2128   1.649   2.902   2.491  0.4877  0.6224 -0.8045
  710SOL    HW1 2129   1.700   2.857   2.569  1.1806 -0.9616  0.8528
  710SOL    HW2 2130   1.632   2.997   2.511 -0.6563 -1.7080 -1.1975
  711SOL     OW 2131   1.208   2.554   2.919 -0.1980 -0.4041 -0.0909
  711SOL    HW1 2132   1.119   2.507   2.899 -0.6455  2.0220  0.0945
  711SOL    HW2 2133   1.254   2.561   2.830  1.7923 -0.9098 -0.3584
  712SOL     OW 2134   1.163   2.200   2.841 -0.0785  0.6985 -0.5177
  712SOL    HW1 2135   1.240   2.158   2.892  0.3814  1.1047 -1.0062
  712SOL    HW2 2136   1.153   2.152   2.751 -3.3171 -0.1754  0.8901
  713SOL     OW 2137   1.296   1.069   1.493  0.1810  0.5442  0.3011
  713SOL    HW1 2138   1.293   1.132   1.416 -1.1821 -1.7786 -0.6346
  713SOL    HW2 2139   1.279   0.969   1.467  1.3036 -1.6413 -1.0912
  714SOL     OW 2140   1.429   1.557   1.122 -0.7869 -0.2151  0.6626
  714SOL    HW1 2141   1.469   1.551   1.214 -1.9357 -0.6365 -4.7981
  714SOL    HW2 2142   1.488   1.616   1.059 -1.3354 -0.8562  2.9847
  715SOL     OW 2143   2.773   2.975   0.570  0.5000  0.9376 -0.4099
  715SOL    HW1 2144   2.792   2.938   0.476 -1.5551  1.2875 -0.4577
  715SOL    HW2 2145   2.799   2.908   0.640  0.2677  0.9261  1.5202
  716SOL     OW 2146   0.562   2.948   0.642  0.0783  0.1603 -0.3090
  716SOL    HW1 2147   0.611   2.897   0.570  1.9548  2.2563 -0.6903
  716SOL    HW2 2148   0.593   2.935   0.742  0.4892  1.4170  3.2615
  717SOL     OW 2149   0.026   0.351   3.109 -0.6938 -0.5151 -0.0730
  717SOL    HW1 2150   3.050   0.304   3.094 -1.0140 -0.6385 -1.5580
  717SOL    HW2 2151   0.089   0.289   0.047  0.1368 -0.1745 -0.8318
  718SOL     OW 2152   1.806   1.678   1.338  0.7784  0.6519  0.2336
  718SOL    HW1 2153   1.828   1.704   1.434 -1.8604  0.5853  0.2712
  718SOL    HW2 2154   1.719   1.629   1.343  2.4076 -1.2753 -1.2751
  719SOL     OW 2155   2.605   2.387   0.314  0.0430  0.0677  0.1821
  719SOL    HW1 2156   2.691   2.388   0.255  0.5669 -1.2028 -0.5683
  719SOL    HW2 2157   2.620   2.398   0.417  1.3274  0.7190  0.8707
  720SOL     OW 2158   1.022   1.078   0.825  0.2195 -0.3470  0.3739
  720SOL    HW1 2159   1.062   0.994   0.860  0.9457 -0.7602 -0.3647
  720SOL    HW2 2160   1.068   1.116   0.747 -1.1503 -2.3182  3.2063
  721SOL     OW 2161   1.618   0.355   1.202 -0.8664 -0.4172  0.4743
  721SOL    HW1 2162   1.616   0.331   1.097  1.5913 -1.4118 -3.4342
  721SOL    HW2 2163   1.623   0.268   1.260  0.2797 -1.0249  3.9609
  722SOL     OW 2164   1.087   1.360   2.174 -0.3934  0.3274  0.2268
  722SOL    HW1 2165   1.183   1.386   2.163 -0.1270  1.3395  1.8120
  722SOL    HW2 2166   1.068   1.307   2.262  1.0576  2.6919  0.9996
  723SOL     OW 2167   1.012   0.134   1.585 -0.4233 -0.2862  0.4730
  723SOL    HW1 2168   1.078   0.183   1.523 -2.3651 -2.5494 -1.0752
  723SOL    HW2 2169   1.027   0.034   1.581 -1.4161 -1.9842  0.9269
  724SOL     OW 2170   1.947   2.001   1.913 -0.1920 -0.0083 -0.6399
  724SOL    HW1 2171   1.867   2.044   1.858 -4.3320  1.2372 -0.6708
  724SOL    HW2 2172   1.971   1.909   1.868  1.9030 -0.7494  0.2242
  725SOL     OW 2173   1.456   2.827   1.405 -0.7614 -0.1995  0.0031
  725SOL    HW1 2174   1.508   2.798   1.321 -0.9203 -0.4873  1.8869
  725SOL    HW2 2175   1.362   2.862   1.379  0.0707 -1.9902 -1.8271
  726SOL     OW 2176   1.732   2.829   3.082  0.1736 -0.1139  0.1313
  726SOL    HW1 2177   1.779   2.900   3.032 -1.4854 -1.7677  1.8804
  726SOL    HW2 2178   1.800   2.768   0.013 -0.6118 -0.2487 -1.4823
  727SOL     OW 2179   1.321   1.815   0.944 -0.4563  0.1154  0.2891
  727SOL    HW1 2180   1.362   1.879   0.876 -0.0164  2.1553  1.6239
  727SOL    HW2 2181   1.364   1.724   0.942  1.7554 -1.8646 -2.8170
  728SOL     OW 2182   1.910   2.839   2.332 -0.1555  0.3434 -0.0719
  728SOL    HW1 2183   1.908   2.921   2.388  0.3118 -2.0500  0.0621
  728SOL    HW2 2184   1.988   2.781   2.354 -0.9218 -2.1650 -0.8113
  729SOL     OW 2185   2.467   1.730   1.449 -0.1325 -0.2351  0.0278
  729SOL    HW1 2186   2.493   1.826   1.417  1.4216  1.5999 -1.6212
  729SOL    HW2 2187   2.368   1.717   1.430 -0.4590 -0.8124 -0.2512
  730SOL     OW 2188   1.719   0.533   2.535 -0.0137  0.2934  0.3043
  730SOL    HW1 2189   1.781   0.480   2.470 -0.1260 -2.0547 -2.3797
  730SOL    HW2 2190   1.764   0.564   2.621  0.6908  0.0937  0.3427
  731SOL     OW 2191   0.462   0.172   1.077  0.3524 -0.0312 -0.8063
  731SOL    HW1 2192   0.440   0.145   1.176  0.3301  1.2445 -2.1069
  731SOL    HW2 2193   0.461   0.272   1.061  0.4249 -0.2900  0.1950
  732SOL     OW 2194   1.827   0.051   1.012  0.4558  0.4788 -0.2062
  732SOL    HW1 2195   1.752   0.118   1.001 -0.6606 -1.2823  4.6469
  732SOL    HW2 2196   1.915   0.092   0.977 -0.8551  0.5161  0.1875
  733SOL     OW 2197   0.811   1.096   1.188 -0.0254 -0.0176  0.0473
  733SOL    HW1 2198   0.735   1.136   1.240 -0.2695  0.4960  0.4813
  733SOL    HW2 2199   0.870   1.164   1.146 -1.9862 -2.5928  2.3723
  734SOL     OW 2200   2.378   2.044   0.257  0.3073 -0.1173 -0.3060
  734SOL    HW1 2201   2.425   1.956   0.250 -0.2162 -1.2368  3.6797
  734SOL    HW2 2202   2.289   2.048   0.200 -2.0309 -1.0748  0.4218
  735SOL     OW 2203   0.356   0.500   0.032 -0.3877  0.2964 -0.6872
  735SOL    HW1 2204   0.336   0.574   3.073 -0.6791  0.6241  1.3249
  735SOL    HW2 2205   0.284   0.492   0.103 -0.0526  0.2955  0.8963
  736SOL     OW 2206   1.583   2.455   2.415  0.3414 -0.0635 -0.2529
  736SOL    HW1 2207   1.644   2.432   2.340 -0.3029  0.6990  0.7710
  736SOL    HW2 2208   1.625   2.484   2.505 -0.3610  3.0190  0.6571
  737SOL     OW 2209   1.166   2.198   1.256  0.0185  0.3321  0.1743
  737SOL    HW1 2210   1.200   2.105   1.233 -2.5241  0.5362  0.1543
  737SOL    HW2 2211   1.127   2.203   1.353  1.6114  1.9410  0.9532
  738SOL     OW 2212   1.742   2.676   2.154  0.1048 -0.0296  0.3722
  738SOL    HW1 2213   1.640   2.661   2.141 -2.4535  1.1029  1.4150
  738SOL    HW2 2214   1.773   2.739   2.231  1.1517  2.8678 -1.0361
  739SOL     OW 2215   1.349   1.937   2.035 -0.0031 -0.4402 -0.2531
  739SOL    HW1 2216   1.260   1.980   2.072 -0.6135  1.8028  0.0352
  739SOL    HW2 2217   1.430   1.954   2.089 -0.0588  0.8656  0.5462
  740SOL     OW 2218   2.096   2.269   1.715  0.4025  0.2745  0.0003
  740SOL    HW1 2219   2.086   2.170   1.689  1.6528  0.3131 -2.0246
  740SOL    HW2 2220   2.019   2.319   1.677  1.6626  1.5996  1.1027
  741SOL     OW 2221   2.089   1.871   2.958  0.2918 -0.4387  0.4164
  741SOL    HW1 2222   1.996   1.827   2.960  0.8719 -2.8321  0.7990
  741SOL    HW2 2223   2.117   1.891   2.860 -0.4689 -0.6019 -0.8308
  742SOL     OW 2224   0.559   1.071   2.859  0.1136  0.3417  0.4403
  742SOL    HW1 2225   0.462   1.088   2.820 -1.4101  0.7826 -2.7638
  742SOL    HW2 2226   0.624   1.144   2.818  3.5671  1.5442 -1.5898
  743SOL     OW 2227   1.986   0.822   2.669 -0.0150  0.8680  0.6498
  743SOL    HW1 2228   2.081   0.860   2.650  2.9765  1.2267 -0.9522
  743SOL    HW2 2229   1.951   0.861   2.750 -2.0520 -4.3988  1.0356
  744SOL     OW 2230   2.112   2.641   1.550  0.2972 -0.1728  0.3984
  744SOL    HW1 2231   2.169   2.667   1.470 -0.8966  1.3439  1.2653
  744SOL    HW2 2232   2.144   2.682   1.638 -1.5305 -0.5221  0.3819
  745SOL     OW 2233   2.614   1.891   1.081 -0.0289 -0.3513  0.1214
  745SOL    HW1 2234   2.692   1.913   1.023  0.4769 -0.5787  1.0756
  745SOL    HW2 2235   2.609   1.791   1.098 -1.1371  0.7861  1.5708
  746SOL     OW 2236   2.827   1.958   0.940 -0.2721  0.0758 -0.1637
  746SOL    HW1 2237   2.831   1.902   0.854  2.1634  0.2637 -2.0787
  746SOL    HW2 2238   2.914   1.939   0.993  1.4731 -2.0827 -1.8815
  747SOL     OW 2239   2.017   2.897   0.349  0.3809  0.5650 -0.2858
  747SOL    HW1 2240   2.106   2.843   0.350  1.2946  1.0622 -2.8930
  747SOL    HW2 2241   2.001   2.950   0.438 -1.0093  0.2338  1.4188
  748SOL     OW 2242   0.932   2.087   0.241 -0.7005  0.2402  0.1986
  748SOL    HW1 2243   0.998   2.019   0.212 -2.7703  0.3190  1.3610
  748SOL    HW2 2244   0.836   2.047   0.247 -0.9800  0.7803 -5.0371
  749SOL     OW 2245   2.729   0.391   2.343 -0.4742  0.3342  0.4752
  749SOL    HW1 2246   2.717   0.296   2.381  2.3213 -2.6042  0.8519
  749SOL    HW2 2247   2.824   0.422   2.327  0.6311 -1.0692 -1.0974
  750SOL     OW 2248   1.395   0.505   1.674 -0.2728 -0.5214  0.3992
  750SOL    HW1 2249   1.338   0.527   1.757 -0.0886 -1.6368  1.2658
  750SOL    HW2 2250   1.399   0.403   1.659 -0.5060 -1.5203 -3.1257
  751SOL     OW 2251   2.474   2.297   1.892  0.3786  0.5463  0.6108
  751SOL    HW1 2252   2.428   2.306   1.804  0.2896  1.2697  1.6878
  751SOL    HW2 2253   2.503   2.393   1.922  0.7554  0.1553  1.7103
  752SOL     OW 2254   1.939   1.634   1.094  0.6885  0.5979  0.4104
  752SOL    HW1 2255   1.887   1.640   1.181  0.6211  1.0612 -1.9038
  752SOL    HW2 2256   1.922   1.543   1.054 -1.7627 -2.9031  1.1330
  753SOL     OW 2257   1.365   0.963   2.321  0.4630 -0.2738  0.7873
  753SOL    HW1 2258   1.358   1.065   2.313  1.2646  1.7987  0.7299
  753SOL    HW2 2259   1.442   0.932   2.375 -1.4960  0.1794  0.2474
  754SOL     OW 2260   0.138   2.610   1.023  0.5139  0.2927 -0.2095
  754SOL    HW1 2261   0.217   2.651   0.976 -0.9213 -2.1091  2.0537
  754SOL    HW2 2262   0.174   2.568   1.115  1.0868 -0.3789  3.8386
  755SOL     OW 2263   2.404   2.942   1.310  0.3990  0.7332  0.2770
  755SOL    HW1 2264   2.410   2.956   1.412 -1.5065 -0.5548 -2.5245
  755SOL    HW2 2265   2.489   2.974   1.262 -1.0903  0.3653 -1.4820
  756SOL     OW 2266   1.630   1.207   2.444  0.1610  0.5558 -0.7244
  756SOL    HW1 2267   1.660   1.274   2.520 -2.1362  2.6434  0.4821
  756SOL    HW2 2268   1.547   1.245   2.400 -2.1355  0.6216 -1.2820
  757SOL     OW 2269   3.007   3.018   1.806  0.5366  0.0314 -0.0013
  757SOL    HW1 2270   3.011   3.049   1.899 -2.6172 -0.7000  0.7135
  757SOL    HW2 2271   2.913   3.039   1.769  0.3328 -2.3095  1.0195
  758SOL     OW 2272   0.628   2.672   1.432 -0.2597  0.2996 -0.0054
  758SOL    HW1 2273   0.562   2.699   1.355 -0.4809  0.3545 -0.9901
  758SOL    HW2 2274   0.612   2.577   1.469  0.1474  0.0006 -0.2612
  759SOL     OW 2275   2.386   1.377   1.080 -0.1359 -0.1704  0.9333
  759SOL    HW1 2276   2.456   1.410   1.012  0.9020  5.5109 -1.4904
  759SOL    HW2 2277   2.311   1.450   1.096 -0.1816  1.8046  1.2939
  760SOL     OW 2278   1.690   0.144   1.757 -0.1629  0.4514  0.0089
  760SOL    HW1 2279   1.628   0.081   1.801  2.3778  2.7705  0.3533
  760SOL    HW2 2280   1.783   0.128   1.790  1.2004  1.1136  0.1394
  761SOL     OW 2281   2.125   0.474   0.606  0.3843  0.2717  0.3157
  761SOL    HW1 2282   2.034   0.431   0.599  2.7778 -2.1392  1.3015
  761SOL    HW2 2283   2.150   0.533   0.526 -0.5069 -0.4554 -0.6099
  762SOL     OW 2284   2.227   2.731   0.343  0.0233 -0.0913  0.1860
  762SOL    HW1 2285   2.323   2.728   0.312  0.2938  3.9296 -0.3097
  762SOL    HW2 2286   2.196   2.635   0.352  0.8245  0.0838  1.3914
  763SOL     OW 2287   1.114   0.622   1.563 -0.0900  0.1439  0.0506
  763SOL    HW1 2288   1.166   0.606   1.655  1.3440 -0.8280  3.2310
  763SOL    HW2 2289   1.024   0.665   1.589  0.5938  0.6048  1.1269
  764SOL     OW 2290   2.239   2.534   2.671  0.1059  0.5166  0.5012
  764SOL    HW1 2291   2.300   2.477   2.616 -2.8509 -1.2623 -0.9012
  764SOL    HW2 2292   2.141   2.514   2.639 -1.4198 -0.8794 -3.5254
  765SOL     OW 2293   0.034   0.848   2.441  0.0518 -0.1449  0.4619
  765SOL    HW1 2294   3.062   0.799   2.478 -0.6751  0.5433 -3.2063
  765SOL    HW2 2295   0.091   0.895   2.512 -0.5088  1.7798  1.5629
  766SOL     OW 2296   2.824   1.611   2.790 -0.0218 -0.0184  0.2762
  766SOL    HW1 2297   2.726   1.628   2.773 -0.1605  1.5157  2.2727
  766SOL    HW2 2298   2.875   1.576   2.706 -0.4019 -0.6872  0.0141
  767SOL     OW 2299   0.304   2.132   2.050  0.3763 -0.7903  0.1001
  767SOL    HW1 2300   0.270   2.136   1.953  1.3462  0.4960  0.3669
  767SOL    HW2 2301   0.280   2.046   2.098  0.2946  0.6185 -0.3389
  768SOL     OW 2302   0.900   0.851   3.059 -0.1419 -0.4695 -0.8216
  768SOL    HW1 2303   0.949   0.790   0.015  2.0581  0.0024  1.2639
  768SOL    HW2 2304   0.868   0.806   2.974 -1.4606 -0.6430 -0.9965
  769SOL     OW 2305   1.772   2.797   2.733  0.1048  0.1933  0.2896
  769SOL    HW1 2306   1.846   2.865   2.752 -0.5199 -1.0304  0.1252
  769SOL    HW2 2307   1.690   2.805   2.797 -1.8908 -0.1230  2.8920
  770SOL     OW 2308   0.882   0.296   2.369 -0.3097 -0.3721 -0.1021
  770SOL    HW1 2309   0.809   0.310   2.298 -0.4576  0.5102  1.4461
  770SOL    HW2 2310   0.871   0.360   2.447 -0.1581 -0.0723 -1.2445
  771SOL     OW 2311   0.537   2.620   0.838  0.2974 -0.3390  0.4048
  771SOL    HW1 2312   0.613   2.652   0.782 -0.7896  2.2558  2.9509
  771SOL    HW2 2313   0.507   2.522   0.819  0.4192  1.5015 -2.8159
  772SOL     OW 2314   3.098   0.915   0.321 -0.2308  0.7064  0.7525
  772SOL    HW1 2315   0.063   0.920   0.249  1.5025 -0.9821  0.6663
  772SOL    HW2 2316   3.080   0.817   0.346 -0.8619 -0.4253 -0.2018
  773SOL     OW 2317   1.664   0.992   2.003 -0.2394  0.8308  0.5000
  773SOL    HW1 2318   1.683   0.905   2.052 -0.9340 -1.0626 -0.1410
  773SOL    HW2 2319   1.709   1.000   1.910  2.1238 -0.4855 -0.1258
  774SOL     OW 2320   0.539   1.010   0.424 -0.4463  0.1613 -0.4025
  774SOL    HW1 2321   0.615   0.969   0.474 -1.0086 -0.3007  0.7436
  774SOL    HW2 2322   0.478   0.934   0.377 -1.5645 -0.4755 -5.0075
  775SOL     OW 2323   1.698   0.049   0.142 -0.4021  0.6708 -0.3055
  775SOL    HW1 2324   1.660   3.089   0.200  0.6308  0.2878 -2.9455
  775SOL    HW2 2325   1.657   0.138   0.151  0.8511 -0.5705 -1.7675
  776SOL     OW 2326   2.277   0.293   2.414  0.3878 -0.1374 -0.4786
  776SOL    HW1 2327   2.261   0.357   2.492  0.4445 -2.3532  0.6661
  776SOL    HW2 2328   2.204   0.299   2.343  0.8885 -0.0031 -2.1285
  777SOL     OW 2329   0.869   1.518   0.099 -0.0202  0.5630 -0.1957
  777SOL    HW1 2330   0.952   1.458   0.078  1.0527  0.8595  0.3684
  777SOL    HW2 2331   0.794   1.462   0.141  0.7646  0.2857  2.3756
  778SOL     OW 2332   3.054   2.679   0.116  0.2875  0.2956 -0.2845
  778SOL    HW1 2333   3.077   2.615   0.197  2.5328 -0.6247 -0.0819
  778SOL    HW2 2334   0.001   2.759   0.122 -0.1264 -0.7659  2.0713
  779SOL     OW 2335   0.240   1.191   0.050 -0.0236  0.5415 -0.3637
  779SOL    HW1 2336   0.198   1.266   0.106 -0.6184  0.1658  0.9224
  779SOL    HW2 2337   0.220   1.100   0.085 -2.2148  2.0572 -1.4848
  780SOL     OW 2338   2.094   0.339   2.205  0.0989 -0.1174 -0.2985
  780SOL    HW1 2339   2.162   0.365   2.132 -2.6889  1.0079 -0.3206
  780SOL    HW2 2340   2.030   0.265   2.172  0.9751  0.6391  1.9806
  781SOL     OW 2341   1.746   1.028   1.731  0.3980  0.2381 -0.1140
  781SOL    HW1 2342   1.782   1.120   1.759  0.7351 -1.3051  2.2013
  781SOL    HW2 2343   1.813   0.957   1.699  0.7847 -0.0380  0.7490
  782SOL     OW 2344   1.884   1.818   2.291 -0.1484  0.2463  0.0846
  782SOL    HW1 2345   1.890   1.891   2.360 -2.8096  1.0491 -0.2664
  782SOL    HW2 2346   1.958   1.747   2.301  1.6096 -2.8068 -0.8040
  783SOL     OW 2347   1.349   3.102   1.708  0.1503  0.1993 -0.4183
  783SOL    HW1 2348   1.258   0.006   1.751  1.5352  0.9954 -1.2820
  783SOL    HW2 2349   1.408   3.054   1.773 -2.9580  1.8386 -2.6797
  784SOL     OW 2350   1.867   0.857   2.431 -0.4981  0.2060 -0.7893
  784SOL    HW1 2351   1.891   0.841   2.530 -1.1867 -0.6594 -0.1161
  784SOL    HW2 2352   1.917   0.789   2.374  1.0898 -0.8226  0.0747
  785SOL     OW 2353   2.017   0.449   0.262 -0.5661 -0.1990  0.0446
  785SOL    HW1 2354   1.982   0.493   0.178  0.9103 -1.2239  1.1234
  785SOL    HW2 2355   2.060   0.516   0.326  0.2811  1.7883  1.1583
  786SOL     OW 2356   2.996   1.915   0.534  0.3959 -0.3895 -0.0043
  786SOL    HW1 2357   2.972   2.008   0.492 -0.7225  2.6373  0.5206
  786SOL    HW2 2358   2.932   1.881   0.610  0.9572 -2.1629  1.8608
  787SOL     OW 2359   1.556   2.264   0.474  0.2185 -0.1989 -0.1780
  787SOL    HW1 2360   1.491   2.190   0.485 -0.6897  0.5981  0.6149
  787SOL    HW2 2361   1.587   2.287   0.569  1.4025 -2.4248 -0.1273
  788SOL     OW 2362   2.041   1.480   1.539  0.1835  0.5139 -0.0960
  788SOL    HW1 2363   2.095   1.538   1.476 -1.2850 -3.7932 -0.1158
  788SOL    HW2 2364   1.992   1.526   1.613  1.5046 -1.9279  1.8671
  789SOL     OW 2365   3.010   1.262   2.448 -0.4672 -0.1391 -0.3889
  789SOL    HW1 2366   3.101   1.250   2.492 -1.9365  0.8021 -1.4425
  789SOL    HW2 2367   2.985   1.177   2.401  1.2835  0.7284 -1.3841
  790SOL     OW 2368   0.451   3.109   2.613 -0.2568 -0.4598  0.5990
  790SOL    HW1 2369   0.420   0.097   2.625  0.1557 -1.8525  1.7753
  790SOL    HW2 2370   0.385   3.048   2.660 -0.3789 -1.8736  0.4981
  791SOL     OW 2371   1.006   3.007   2.790 -0.1806  0.3852 -0.0556
  791SOL    HW1 2372   0.989   3.091   2.842  1.3150 -0.7047  0.7950
  791SOL    HW2 2373   1.062   2.936   2.841  1.3848  1.7200 -1.2656
  792SOL     OW 2374   1.775   0.358   2.000 -0.1902 -0.2172 -0.1267
  792SOL    HW1 2375   1.751   0.426   2.070  0.6594 -1.5293  0.6964
  792SOL    HW2 2376   1.726   0.381   1.913 -3.3212  2.0580 -0.3867
  793SOL     OW 2377   2.490   0.185   2.052  0.7921 -0.4022 -0.0421
  793SOL    HW1 2378   2.420   0.211   1.985 -0.9271  1.3465  0.5382
  793SOL    HW2 2379   2.574   0.247   2.051  1.4777 -3.3824 -2.0113
  794SOL     OW 2380   0.636   0.703   1.792 -0.3635  0.1133  0.5792
  794SOL    HW1 2381   0.708   0.644   1.837  0.5014 -1.7154  1.3239
  794SOL    HW2 2382   0.546   0.695   1.834  1.5605 -0.5913 -3.4224
  795SOL     OW 2383   3.031   1.456   0.534  0.1879 -0.0126 -0.5575
  795SOL    HW1 2384   3.017   1.415   0.443  0.8300 -0.2205 -1.3133
  795SOL    HW2 2385   0.003   1.516   0.533  0.5197 -1.4592 -0.2443
  796SOL     OW 2386   2.761   2.546   3.039 -0.1669  0.1445 -0.1143
  796SOL    HW1 2387   2.799   2.494   0.009 -0.2107 -2.4311  1.9718
  796SOL    HW2 2388   2.668   2.583   3.059  1.4314 -0.4244 -2.2963
  797SOL     OW 2389   2.088   2.458   0.358 -0.9679 -0.1022 -0.7284
  797SOL    HW1 2390   1.999   2.503   0.368  0.2980  1.1351  0.1650
  797SOL    HW2 2391   2.075   2.356   0.359  0.5520  0.9148  1.7490
  798SOL     OW 2392   0.400   0.902   1.425  0.7113 -0.2786 -0.3542
  798SOL    HW1 2393   0.314   0.856   1.417  0.9957 -0.9846  1.1622
  798SOL    HW2 2394   0.388   1.004   1.411  0.6034 -0.5645  0.8603
  799SOL     OW 2395   2.949   0.561   2.292  0.2638  0.5489  0.1233
  799SOL    HW1 2396   2.914   0.616   2.372  0.6161  2.4921  2.3111
  799SOL    HW2 2397   2.988   0.617   2.216  1.4929 -1.5754  1.5480
  800SOL     OW 2398   2.837   2.163   0.400 -0.6225  0.4425  0.0166
  800SOL    HW1 2399   2.889   2.132   0.318 -2.8835 -0.8768 -1.6106
  800SOL    HW2 2400   2.877   2.246   0.444 -0.2201 -1.9553 -0.9190
  801SOL     OW 2401   1.439   1.254   0.764 -0.3175 -0.3742 -0.2016
  801SOL    HW1 2402   1.369   1.274   0.689 -0.0071  0.8533 -0.8382
  801SOL    HW2 2403   1.423   1.309   0.850 -0.3068 -1.9701 -1.6884
  802SOL     OW 2404   1.309   1.753   1.356 -0.0575 -0.0127  0.1887
  802SOL    HW1 2405   1.287   1.665   1.407  0.2699 -3.4935  0.4289
  802SOL    HW2 2406   1.229   1.793   1.300 -0.4700 -0.9405 -1.2787
  803SOL     OW 2407   2.857   1.823   0.317 -0.6477  0.2197 -0.2544
  803SOL    HW1 2408   2.914   1.770   0.252  0.4846 -0.6016 -1.0838
  803SOL    HW2 2409   2.916   1.847   0.399 -0.9827 -0.1775 -0.7860
  804SOL     OW 2410   1.291   2.594   0.987  0.0345 -0.0964  0.1462
  804SOL    HW1 2411   1.304   2.594   0.887  0.3194  0.8734  0.0955
  804SOL    HW2 2412   1.348   2.663   1.032  1.2947  0.5668 -2.3624
  805SOL     OW 2413   1.490   1.381   0.053 -0.3855  0.4779 -0.2671
  805SOL    HW1 2414   1.536   1.470   0.040 -2.3273 -1.9868  1.3227
  805SOL    HW2 2415   1.493   1.325   3.076  2.0615  1.1938 -0.0432
  806SOL     OW 2416   1.676   2.906   1.541  0.3100 -0.4708 -0.1960
  806SOL    HW1 2417   1.583   2.886   1.501  0.6494  1.5480  1.4792
  806SOL    HW2 2418   1.744   2.833   1.521  1.2394  0.5422  0.0546
  807SOL     OW 2419   1.968   2.995   2.780  0.4235 -0.0135  0.7997
  807SOL    HW1 2420   1.978   3.034   2.684  2.4154  2.4991  1.2418
  807SOL    HW2 2421   2.039   3.023   2.849 -0.6546  2.2375  3.2362
  808SOL     OW 2422   0.082   1.355   0.204 -0.0710  0.0394 -0.0809
  808SOL    HW1 2423   0.005   1.312   0.254 -0.2557  0.3909 -0.0364
  808SOL    HW2 2424   0.110   1.435   0.257 -1.1216  0.0359 -0.4826
  809SOL     OW 2425   2.522   0.762   2.276 -0.0187 -0.5136  0.3201
  809SOL    HW1 2426   2.426   0.786   2.301  2.2566  1.2401  0.3715
  809SOL    HW2 2427   2.581   0.844   2.272 -0.2408 -3.0584  0.2238
  810SOL     OW 2428   2.928   0.001   2.046  0.1857 -0.4232  0.4521
  810SOL    HW1 2429   2.994   0.046   2.110  2.7305 -0.6837 -0.1634
  810SOL    HW2 2430   2.876   0.083   2.009  1.2594  1.6215 -0.1824
  811SOL     OW 2431   2.371   2.318   1.628  1.1794 -0.0855  0.1228
  811SOL    HW1 2432   2.267   2.297   1.623 -1.7774 -1.1553  2.7555
  811SOL    HW2 2433   2.402   2.378   1.553  0.4985  2.0343  2.2036
  812SOL     OW 2434   1.742   0.382   3.079 -0.0013  0.0223 -0.4594
  812SOL    HW1 2435   1.670   0.366   0.039  0.0106  1.6496  2.6577
  812SOL    HW2 2436   1.806   0.452   0.000 -2.7170 -1.2750  1.2542
  813SOL     OW 2437   1.872   0.616   1.931  0.0423 -0.3195  0.5245
  813SOL    HW1 2438   1.781   0.597   1.883  0.8847  0.7608 -1.4582
  813SOL    HW2 2439   1.948   0.571   1.885 -2.8610  4.0099 -0.6978
  814SOL     OW 2440   1.936   1.273   1.381 -0.7738 -0.2256  0.2830
  814SOL    HW1 2441   1.979   1.347   1.434 -0.1131  0.0568  0.2607
  814SOL    HW2 2442   1.848   1.300   1.335 -1.7839 -0.5941  0.2224
  815SOL     OW 2443   0.403   0.814   0.316 -0.1148 -0.0484 -0.0290
  815SOL    HW1 2444   0.335   0.747   0.332  3.4417  0.8377 -3.4823
  815SOL    HW2 2445   0.456   0.788   0.231  0.8132 -3.0553  0.6702
  816SOL     OW 2446   1.554   1.793   2.764  0.6534 -0.7392 -0.6972
  816SOL    HW1 2447   1.637   1.782   2.705  3.0621  0.0389  0.9802
  816SOL    HW2 2448   1.525   1.701   2.786 -0.7263  1.4653  0.2723
  817SOL     OW 2449   2.999   2.887   0.737 -0.5984  0.0689 -0.4148
  817SOL    HW1 2450   2.987   2.831   0.822 -0.0587  0.0943  2.8572
  817SOL    HW2 2451   3.023   2.819   0.667 -0.0668  1.4338 -0.2836
  818SOL     OW 2452   1.433   0.357   2.713 -0.1893 -0.2462 -0.2577
  818SOL    HW1 2453   1.479   0.417   2.784  1.0264  0.4930  0.2955
  818SOL    HW2 2454   1.359   0.301   2.755  2.2904 -0.0438  1.4062
  819SOL     OW 2455   0.780   1.109   0.706 -0.9266  0.1367  0.0779
  819SOL    HW1 2456   0.863   1.109   0.768 -2.5067 -0.3924  2.6513
  819SOL    HW2 2457   0.707   1.055   0.756 -3.3221 -1.9440 -1.9207
  820SOL     OW 2458   2.329   0.942   1.303 -0.0802 -0.0532 -0.3389
  820SOL    HW1 2459   2.276   0.919   1.218 -2.1776 -1.1011  2.4626
  820SOL    HW2 2460   2.300   0.879   1.375  0.2524  0.1769 -2.7136
  821SOL     OW 2461   2.308   0.049   0.487 -0.0130 -0.0586  0.0567
  821SOL    HW1 2462   2.317   3.058   0.478 -4.0861  1.5386  0.6781
  821SOL    HW2 2463   2.233   0.086   0.431 -2.0261  2.8291 -0.0509
  822SOL     OW 2464   0.825   2.677   2.452 -0.5488 -0.7484  0.7778
  822SOL    HW1 2465   0.808   2.578   2.437 -1.6300  1.0266  0.4654
  822SOL    HW2 2466   0.902   2.694   2.512 -2.2842 -1.7689  1.0857
  823SOL     OW 2467   0.165   2.178   1.826  0.4373 -0.3010  0.1065
  823SOL    HW1 2468   0.123   2.262   1.787  1.1515 -0.3145 -0.3847
  823SOL    HW2 2469   0.117   2.100   1.794 -3.0906 -0.4855 -1.2247
  824SOL     OW 2470   0.718   2.901   2.357  0.7386 -0.3327 -0.6598
  824SOL    HW1 2471   0.767   2.981   2.398  1.8787  0.0975  1.0030
  824SOL    HW2 2472   0.773   2.816   2.374  0.3400  2.2751 -0.3619
  825SOL     OW 2473   1.104   1.816   0.385 -0.0893 -0.3357 -0.6358
  825SOL    HW1 2474   1.100   1.832   0.287  0.9557  1.6415  1.3118
  825SOL    HW2 2475   1.106   1.902   0.435 -0.6383 -2.5286 -3.0177
  826SOL     OW 2476   1.085   2.834   2.986 -0.2560 -0.0061 -0.0840
  826SOL    HW1 2477   1.013   2.815   3.053 -0.3259  0.1944 -1.4508
  826SOL    HW2 2478   1.153   2.757   2.977 -0.9160 -0.7682 -0.7132
  827SOL     OW 2479   0.374   1.784   1.705 -0.1733  0.1020 -0.6705
  827SOL    HW1 2480   0.314   1.727   1.770  0.6546 -3.1583  2.5630
  827SOL    HW2 2481   0.387   1.738   1.618 -0.6939  0.7252 -2.0481
  828SOL     OW 2482   2.889   1.733   1.344 -0.2010  0.1813  0.0732
  828SOL    HW1 2483   2.839   1.648   1.328 -0.2664  0.8363  2.3336
  828SOL    HW2 2484   2.854   1.767   1.430 -0.3943 -0.2520 -2.7724
  829SOL     OW 2485   2.848   2.401   0.154 -0.5627 -0.0216 -0.1319
  829SOL    HW1 2486   2.924   2.448   0.208  2.1380  0.3408 -1.2796
  829SOL    HW2 2487   2.854   2.299   0.144  3.5187  2.3291 -2.1690
  830SOL     OW 2488   0.952   0.628   0.675  0.3801 -0.1995  0.0407
  830SOL    HW1 2489   1.051   0.631   0.638  0.8372 -1.0666  0.9973
  830SOL    HW2 2490   0.952   0.656   0.775 -0.7483 -1.2628  1.0417
  831SOL     OW 2491   2.919   2.126   0.156 -0.4400 -0.2723 -0.4432
  831SOL    HW1 2492   2.847   2.068   0.120  2.2679  0.5551  1.4600
  831SOL    HW2 2493   3.007   2.084   0.138 -0.9787  1.7693  2.7357
  832SOL     OW 2494   1.177   2.435   0.361 -0.3068 -0.2446 -0.7158
  832SOL    HW1 2495   1.116   2.383   0.423 -0.3802  1.3388  0.7023
  832SOL    HW2 2496   1.239   2.499   0.416 -0.8699  1.3678  1.2570
  833SOL     OW 2497   0.804   0.724   2.553 -0.3618  0.0449 -0.2825
  833SOL    HW1 2498   0.859   0.698   2.471 -0.1131 -0.7333 -0.4128
  833SOL    HW2 2499   0.830   0.691   2.645  0.1706  0.1688  0.3755
  834SOL     OW 2500   2.780   0.763   0.856  0.0051 -0.6644 -0.1918
  834SOL    HW1 2501   2.832   0.701   0.917  1.1082  2.2165 -3.5599
  834SOL    HW2 2502   2.774   0.854   0.899  1.7942 -0.0624 -0.8990
  835SOL     OW 2503   2.466   0.604   2.051 -0.1611 -0.1706 -0.5693
  835SOL    HW1 2504   2.416   0.650   1.978 -1.1819  0.5515  0.3452
  835SOL    HW2 2505   2.482   0.665   2.134 -0.0208 -1.3595 -0.4026
  836SOL     OW 2506   0.512   2.324   0.814 -0.4322  0.0447  0.4226
  836SOL    HW1 2507   0.427   2.339   0.762  2.3199 -2.2297 -0.2987
  836SOL    HW2 2508   0.569   2.251   0.773  0.9257  0.9476  0.5895
  837SOL     OW 2509   2.502   1.738   2.324 -0.1775  0.1277 -0.4465
  837SOL    HW1 2510   2.403   1.727   2.296  0.0597  0.7890 -1.9948
  837SOL    HW2 2511   2.521   1.828   2.371  1.6206  1.7673 -1.7523
  838SOL     OW 2512   0.008   1.129   2.114 -0.0344  0.4035 -0.1481
  838SOL    HW1 2513   0.072   1.049   2.098  1.2323 -2.5184 -2.6309
  838SOL    HW2 2514   3.106   1.189   2.031 -0.9693  2.0339 -0.5274
  839SOL     OW 2515   0.312   3.044   0.092  0.1032  0.0780  0.1483
  839SOL    HW1 2516   0.299   3.061   3.103  1.5416 -0.9202  2.8644
  839SOL    HW2 2517   0.414   3.031   0.112  3.2439  2.8857 -0.1066
  840SOL     OW 2518   2.931   0.720   2.529 -0.3358  0.3489  0.0066
  840SOL    HW1 2519   2.890   0.803   2.571  0.1210 -1.3977  0.1451
  840SOL    HW2 2520   2.957   0.649   2.597  1.3656  2.2708 -0.2651
  841SOL     OW 2521   0.623   2.041   2.652 -0.4194 -0.3242  0.2277
  841SOL    HW1 2522   0.602   1.943   2.640  0.6408  0.6942  0.2783
  841SOL    HW2 2523   0.540   2.096   2.625 -2.6526  0.5414 -0.5354
  842SOL     OW 2524   0.986   0.104   1.106 -0.3485  0.0650 -0.0650
  842SOL    HW1 2525   0.942   0.034   1.171 -0.6238 -1.1251  0.4386
  842SOL    HW2 2526   0.933   0.112   1.021 -0.8312 -2.2458 -1.6627
  843SOL     OW 2527   0.594   1.706   2.672 -0.8506  0.2516 -0.0892
  843SOL    HW1 2528   0.692   1.704   2.630  1.3229 -1.9120  0.5558
  843SOL    HW2 2529   0.558   1.614   2.699 -2.5327 -0.7384  0.1974
  844SOL     OW 2530   1.432   1.868   2.335 -0.2973 -0.1966  0.2936
  844SOL    HW1 2531   1.331   1.842   2.320 -0.5713 -0.1886  0.3170
  844SOL    HW2 2532   1.500   1.790   2.328 -1.5508 -1.0004  0.0169
  845SOL     OW 2533   2.289   2.695   2.876 -0.3000 -0.2513  0.2676
  845SOL    HW1 2534   2.280   2.783   2.818  2.3789  1.2153  0.2290
  845SOL    HW2 2535   2.261   2.615   2.812 -1.5616 -2.2529  0.1881
  846SOL     OW 2536   2.163   1.608   3.054  0.1364 -0.2762 -0.3668
  846SOL    HW1 2537   2.144   1.705   3.026 -0.4598  2.5748  2.3029
  846SOL    HW2 2538   2.139   1.595   0.043 -1.7496  1.1889  1.1277
  847SOL     OW 2539   2.408   0.333   2.831 -0.4538 -0.3180  0.3728
  847SOL    HW1 2540   2.495   0.310   2.781  1.2156 -0.5157 -0.1353
  847SOL    HW2 2541   2.419   0.386   2.918 -0.8643 -2.6390 -3.1516
  848SOL     OW 2542   3.056   0.605   0.082 -0.1554  1.1009  0.3027
  848SOL    HW1 2543   3.007   0.602   0.169 -0.9002  0.2714 -0.9003
  848SOL    HW2 2544   3.038   0.522   0.023  0.4050  1.7079  0.0139
  849SOL     OW 2545   1.438   0.142   2.429 -0.0742 -0.4335  0.1657
  849SOL    HW1 2546   1.438   0.087   2.514  0.4505  0.0570  1.2270
  849SOL    HW2 2547   1.360   0.211   2.443  0.8629  2.9207  1.1692
  850SOL     OW 2548   2.823   0.772   0.567  0.4274 -0.0129  0.1258
  850SOL    HW1 2549   2.815   0.737   0.660 -0.7304 -1.4336 -0.4360
  850SOL    HW2 2550   2.830   0.872   0.573 -2.2739 -1.8907  0.5780
  851SOL     OW 2551   0.311   1.060   0.840 -0.2751  0.2948 -0.0914
  851SOL    HW1 2552   0.311   0.986   0.910 -3.5403  0.3937 -3.3179
  851SOL    HW2 2553   0.222   1.100   0.806  1.1331  0.1993  3.9883
  852SOL     OW 2554   1.196   1.029   1.771  0.0229 -0.8163  0.0327
  852SOL    HW1 2555   1.125   1.097   1.780  3.5069 -1.4612  1.8230
  852SOL    HW2 2556   1.233   1.034   1.674 -1.9298 -0.0268 -1.3385
  853SOL     OW 2557   1.828   1.205   3.071 -0.1908  0.8143 -0.3399
  853SOL    HW1 2558   1.930   1.192   3.068  2.6393  1.3920 -1.4879
  853SOL    HW2 2559   1.791   1.225   2.978 -1.9516  1.2736 -1.0312
  854SOL     OW 2560   1.528   1.217   2.074 -0.0364 -0.6218  0.0831
  854SOL    HW1 2561   1.571   1.125   2.082  0.1074  0.7001  0.2292
  854SOL    HW2 2562   1.465   1.230   1.994  0.6898  0.9617 -1.8664
  855SOL     OW 2563   0.626   2.242   2.283 -0.1624  0.0290  0.7088
  855SOL    HW1 2564   0.531   2.232   2.308  0.4144 -0.9798 -1.2318
  855SOL    HW2 2565   0.688   2.298   2.345 -1.3140  1.3362  0.9042
  856SOL     OW 2566   1.084   0.912   2.018 -0.6485  0.4769  0.0590
  856SOL    HW1 2567   0.994   0.964   2.018  0.3895  1.7722 -0.4800
  856SOL    HW2 2568   1.138   0.940   1.937 -0.8461 -0.3962 -1.1449
  857SOL     OW 2569   1.117   0.984   2.461  0.0933 -0.3704 -0.8636
  857SOL    HW1 2570   1.031   0.943   2.413 -1.5332  0.0138 -1.7652
  857SOL    HW2 2571   1.199   0.986   2.400  2.8649 -1.7305  1.8123
  858SOL     OW 2572   0.081   0.516   1.754  0.2639  0.6254  0.1967
  858SOL    HW1 2573   3.098   0.522   1.711 -2.5454  1.9914 -4.1645
  858SOL    HW2 2574   0.075   0.484   1.849  0.8179 -3.7178  0.2197
  859SOL     OW 2575   2.443   3.109   0.768 -0.0031 -0.3146 -0.4881
  859SOL    HW1 2576   2.404   0.031   0.858 -2.1855  1.6849  0.1702
  859SOL    HW2 2577   2.449   0.076   0.705 -0.9411 -1.8007  1.2602
  860SOL     OW 2578   1.688   0.421   1.523  0.5626 -0.1099 -0.0429
  860SOL    HW1 2579   1.585   0.414   1.523  1.5372 -0.6322  0.8973
  860SOL    HW2 2580   1.726   0.456   1.433 -0.8273  0.7771  0.6871
  861SOL     OW 2581   1.816   0.796   1.321  0.0690  0.7164  0.2683
  861SOL    HW1 2582   1.747   0.843   1.383 -1.1833  0.0009 -0.6719
  861SOL    HW2 2583   1.903   0.767   1.370  0.9483  0.7325 -0.6570
  862SOL     OW 2584   1.163   2.964   2.575  0.0022  0.0708  0.2396
  862SOL    HW1 2585   1.144   2.883   2.516 -1.2631  1.2502  3.1065
  862SOL    HW2 2586   1.104   2.967   2.657  3.6016  0.4651 -2.6104
  863SOL     OW 2587   2.708   2.978   1.486 -0.3205  0.3005  0.5197
  863SOL    HW1 2588   2.625   2.947   1.537  0.9375 -3.1845 -0.1741
  863SOL    HW2 2589   2.756   3.055   1.532  1.8510  0.9557 -1.6808
  864SOL     OW 2590   2.875   2.852   2.082  0.2553 -0.4874 -0.2108
  864SOL    HW1 2591   2.778   2.846   2.102  1.1771  1.1105 -1.0767
  864SOL    HW2 2592   2.890   2.943   2.040 -0.1830 -0.7276 -2.0654
  865SOL     OW 2593   1.107   1.265   2.870 -0.7225  0.4458  0.2611
  865SOL    HW1 2594   1.135   1.197   2.803  0.4170 -0.4490 -0.8485
  865SOL    HW2 2595   1.013   1.296   2.855 -0.4415 -0.9990 -0.2285
  866SOL     OW 2596   2.822   2.817   1.172 -0.2936 -0.3779 -0.0760
  866SOL    HW1 2597   2.767   2.899   1.181  1.7395 -2.1021  0.9518
  866SOL    HW2 2598   2.774   2.734   1.203 -1.0868  1.6922  0.2695
  867SOL     OW 2599   2.972   2.724   0.961 -0.3157 -0.2294  0.5791
  867SOL    HW1 2600   3.071   2.723   0.990  1.4073  1.1540 -0.3108
  867SOL    HW2 2601   2.910   2.757   1.038 -2.5747  0.7922 -0.6320
  868SOL     OW 2602   0.047   1.701   1.663  0.1019 -0.7263  0.0598
  868SOL    HW1 2603   0.119   1.746   1.608  0.9854  2.6685 -2.4539
  868SOL    HW2 2604   0.026   1.736   1.759 -3.2972  0.7189  1.7173
  869SOL     OW 2605   1.856   1.958   2.521 -0.4000  0.5452 -0.0323
  869SOL    HW1 2606   1.785   2.022   2.499  1.1810 -0.2012  1.6649
  869SOL    HW2 2607   1.938   2.010   2.544  0.6275 -2.8418 -0.8212
  870SOL     OW 2608   1.458   0.833   0.565  0.2514  0.2062  0.4967
  870SOL    HW1 2609   1.500   0.905   0.626  2.2933 -1.7539 -2.4480
  870SOL    HW2 2610   1.385   0.775   0.605  0.1745 -1.5574 -1.1851
  871SOL     OW 2611   2.834   1.737   2.002 -0.8812  0.3380 -0.9048
  871SOL    HW1 2612   2.751   1.711   1.953  3.9897 -2.0576 -2.6365
  871SOL    HW2 2613   2.822   1.714   2.100  3.2875 -1.2236 -0.5726
  872SOL     OW 2614   0.910   1.677   2.977 -0.6434  0.5019  0.9825
  872SOL    HW1 2615   0.857   1.759   2.998  2.4495  0.6794  2.1770
  872SOL    HW2 2616   0.906   1.615   3.059  0.7270 -1.7826  1.9293
  873SOL     OW 2617   0.832   1.423   1.854  0.0084  0.9683  0.1081
  873SOL    HW1 2618   0.802   1.477   1.774 -1.4853 -2.0069  1.5441
  873SOL    HW2 2619   0.922   1.381   1.836 -0.3992 -2.4274 -1.6671
  874SOL     OW 2620   1.459   0.915   1.022 -0.2466 -0.4445 -0.0489
  874SOL    HW1 2621   1.521   0.952   1.096  0.6072  0.3199 -0.8039
  874SOL    HW2 2622   1.357   0.910   1.049 -1.7684 -1.6005 -0.9527
  875SOL     OW 2623   2.584   2.920   2.655  0.0953  0.5507 -0.6470
  875SOL    HW1 2624   2.482   2.922   2.672 -2.1694  1.0967 -2.3365
  875SOL    HW2 2625   2.602   2.904   2.556 -0.0798  1.4694  1.6161
  876SOL     OW 2626   0.874   1.375   0.497 -0.1415 -0.4250  0.0641
  876SOL    HW1 2627   0.928   1.290   0.511  0.2250 -0.9269  0.2247
  876SOL    HW2 2628   0.928   1.464   0.505  2.5287 -1.5108 -1.6768
  877SOL     OW 2629   2.015   3.073   0.562  0.8356 -0.3064 -0.1515
  877SOL    HW1 2630   1.969   0.053   0.546  1.0804 -1.4100  0.1582
  877SOL    HW2 2631   2.108   3.081   0.596 -1.5611  2.8342  1.4342
  878SOL     OW 2632   1.888   2.262   0.075  0.3285 -0.0383  0.2437
  878SOL    HW1 2633   1.989   2.272   0.063 -2.1104 -1.9086 -1.3131
  878SOL    HW2 2634   1.859   2.186   0.137  1.3266  0.4442  0.2641
  879SOL     OW 2635   0.657   2.295   1.829 -0.5585  0.1523  0.3224
  879SOL    HW1 2636   0.685   2.288   1.736 -0.6928 -0.7353  0.9793
  879SOL    HW2 2637   0.653   2.197   1.870  0.7660 -0.2124  1.2793
  880SOL     OW 2638   0.062   1.778   0.782  0.6131  0.7386 -0.3032
  880SOL    HW1 2639   0.140   1.840   0.782 -1.3508 -0.1395  0.6366
  880SOL    HW2 2640   0.083   1.688   0.736  0.8962 -0.0765  3.0636
  881SOL     OW 2641   1.315   3.002   2.347 -0.3016  0.0866  0.0062
  881SOL    HW1 2642   1.253   2.998   2.430 -0.2515 -0.1407  3.2264
  881SOL    HW2 2643   1.374   3.086   2.348  1.2104  4.1669 -0.1955
  882SOL     OW 2644   2.530   1.154   0.665 -0.9993  0.2095 -0.2554
  882SOL    HW1 2645   2.459   1.082   0.650 -1.9795 -0.6778 -3.2786
  882SOL    HW2 2646   2.621   1.112   0.691  1.7709 -4.0814 -2.3383
  883SOL     OW 2647   1.475   0.687   2.006  0.1532 -0.1422  0.3463
  883SOL    HW1 2648   1.389   0.662   2.050 -0.6177 -2.3715 -1.0264
  883SOL    HW2 2649   1.469   0.772   1.948  0.9656  0.6970 -0.6449
  884SOL     OW 2650   0.231   0.220   1.674  0.5766 -0.2193  0.0176
  884SOL    HW1 2651   0.150   0.223   1.609 -2.2954  0.8928 -0.8932
  884SOL    HW2 2652   0.290   0.308   1.665  2.6280  4.4700  1.7962
  885SOL     OW 2653   2.235   1.339   2.649  0.3150  0.0034  0.0470
  885SOL    HW1 2654   2.285   1.420   2.608 -0.2146 -1.8275 -1.8118
  885SOL    HW2 2655   2.176   1.299   2.578 -0.7159 -1.8335  0.4952
  886SOL     OW 2656   1.915   0.220   2.944 -0.0567 -0.5587  0.1607
  886SOL    HW1 2657   1.922   0.283   2.861 -0.8105  0.1907 -3.1491
  886SOL    HW2 2658   1.833   0.257   2.996 -0.5616 -3.4795 -1.5425
  887SOL     OW 2659   1.039   2.970   1.548 -0.6544 -0.3622 -0.1749
  887SOL    HW1 2660   1.046   2.918   1.636 -0.1552 -1.0832  2.4710
  887SOL    HW2 2661   0.958   2.939   1.496  0.7651 -0.6489 -0.7691
  888SOL     OW 2662   2.238   1.500   1.826  0.3509 -0.0366 -0.2032
  888SOL    HW1 2663   2.175   1.426   1.801 -2.4111 -0.2034 -0.2064
  888SOL    HW2 2664   2.324   1.497   1.773  1.7437  0.0950  1.9193
  889SOL     OW 2665   1.975   2.340   1.262 -0.1490  0.3580 -0.1449
  889SOL    HW1 2666   2.042   2.328   1.186 -0.7893  2.2479  2.5430
  889SOL    HW2 2667   1.904   2.267   1.254  1.5219  0.4822 -2.6584
  890SOL     OW 2668   0.983   2.248   0.812 -0.2482  0.0604 -0.7540
  890SOL    HW1 2669   1.000   2.145   0.817  0.2636 -3.2425 -0.8500
  890SOL    HW2 2670   0.976   2.282   0.909  0.4300 -0.5852  1.2808
  891SOL     OW 2671   2.945   1.283   0.311 -0.2120  0.4177  0.5410
  891SOL    HW1 2672   2.907   1.261   0.219 -0.2020 -0.5622 -0.6929
  891SOL    HW2 2673   2.909   1.222   0.384  1.8458  2.7245  0.3944
  892SOL     OW 2674   2.431   1.830   2.822 -0.1258  0.4222  0.1793
  892SOL    HW1 2675   2.486   1.750   2.793 -0.6935 -0.3285  0.0583
  892SOL    HW2 2676   2.445   1.851   2.923 -2.0968  1.5280  2.2347
  893SOL     OW 2677   2.257   2.678   1.073  0.2436  0.0935 -0.5996
  893SOL    HW1 2678   2.224   2.745   1.005  2.2187 -3.1594  1.1309
  893SOL    HW2 2679   2.344   2.638   1.041 -0.0446 -1.0996 -1.3082
  894SOL     OW 2680   2.841   0.413   0.706  0.0004 -0.5046  0.1110
  894SOL    HW1 2681   2.827   0.321   0.665 -0.3552 -0.7617 -0.9800
  894SOL    HW2 2682   2.753   0.469   0.709 -1.6709  2.7016  0.6831
  895SOL     OW 2683   2.453   2.417   2.508 -0.3633 -0.0585  0.3744
  895SOL    HW1 2684   2.507   2.492   2.461  0.2655  1.0322 -1.5019
  895SOL    HW2 2685   2.514   2.377   2.579 -2.1044  3.0095 -2.3504
  896SOL     OW 2686   2.164   2.711   2.359  0.0883 -0.1535 -0.2077
  896SOL    HW1 2687   2.157   2.655   2.441  0.3406  0.2879 -1.4297
  896SOL    HW2 2688   2.204   2.808   2.370  3.3686  0.3354 -1.8381
  897SOL     OW 2689   0.327   1.420   2.124 -0.0822 -0.0409  0.1578
  897SOL    HW1 2690   0.256   1.384   2.191  0.7753  1.0128  0.6130
  897SOL    HW2 2691   0.371   1.503   2.163  0.2153 -0.5704 -1.1035
  898SOL     OW 2692   0.252   1.864   2.094  0.3136 -0.6129  0.2261
  898SOL    HW1 2693   0.167   1.831   2.144  0.1905  0.0134 -1.0216
  898SOL    HW2 2694   0.313   1.793   2.053  0.6560 -0.7958  1.3534
  899SOL     OW 2695   2.045   3.070   1.444 -0.2533 -0.4741  0.5472
  899SOL    HW1 2696   2.080   3.060   1.538 -3.4056 -1.3400 -0.9920
  899SOL    HW2 2697   1.971   2.999   1.434  0.3470 -1.3899  0.6578
  900SOL     OW 2698   1.243   0.954   0.426 -0.1332 -0.0823 -0.5703
  900SOL    HW1 2699   1.324   0.925   0.487 -1.8226 -1.5620 -0.4434
  900SOL    HW2 2700   1.272   0.979   0.332 -1.0655 -1.5729  0.7018
  901SOL     OW 2701   1.185   1.037   2.732  0.3850  0.3444 -0.0656
  901SOL    HW1 2702   1.279   0.993   2.730 -0.3517 -1.6533  0.4258
  901SOL    HW2 2703   1.136   1.007   2.653  1.9607 -0.1447  1.0436
  902SOL     OW 2704   2.789   2.346   0.824  0.3240  0.4344 -0.1143
  902SOL    HW1 2705   2.774   2.440   0.851  0.2987  0.0689  2.2037
  902SOL    HW2 2706   2.742   2.280   0.883 -0.3975 -0.4546  2.3650
  903SOL     OW 2707   2.905   1.444   1.979  0.1259  0.4502  0.1525
  903SOL    HW1 2708   2.859   1.532   1.950 -0.8913  2.2610  0.7038
  903SOL    HW2 2709   2.893   1.419   2.079 -1.0369  1.0533  0.1696
  904SOL     OW 2710   1.546   1.247   0.406 -1.2845 -0.3129 -0.2562
  904SOL    HW1 2711   1.494   1.338   0.408  0.5318 -2.6158 -0.7451
  904SOL    HW2 2712   1.609   1.237   0.488  0.6918 -0.0100  1.4387
  905SOL     OW 2713   2.427   2.524   1.452 -0.1564 -0.0280  0.3066
  905SOL    HW1 2714   2.373   2.601   1.412 -1.0456  1.0116 -0.7015
  905SOL    HW2 2715   2.508   2.567   1.499  4.3414  0.9258 -1.1672
  906SOL     OW 2716   1.580   2.434   0.045  0.0561  0.1079 -0.6405
  906SOL    HW1 2717   1.661   2.448   0.108  0.9845 -2.7975  0.9920
  906SOL    HW2 2718   1.599   2.450   3.058 -0.3024 -0.5885 -0.7955
  907SOL     OW 2719   0.293   2.935   0.595 -0.2832  0.3992  0.3833
  907SOL    HW1 2720   0.290   2.867   0.515 -1.9555 -3.5652 -0.3908
  907SOL    HW2 2721   0.386   2.982   0.611  2.3406  0.7497  1.1117
  908SOL     OW 2722   0.578   0.357   1.921 -0.4636  0.2002 -0.1790
  908SOL    HW1 2723   0.611   0.274   1.973  0.0134 -0.7635 -0.3755
  908SOL    HW2 2724   0.658   0.419   1.921  0.4944  0.5820 -3.0349
  909SOL     OW 2725   2.007   0.632   1.441  0.4422  0.5522  0.1545
  909SOL    HW1 2726   1.923   0.586   1.403 -1.5660 -1.5427 -3.1535
  909SOL    HW2 2727   2.085   0.599   1.379  0.2132  2.6205 -2.0768
  910SOL     OW 2728   0.979   0.833   0.344 -0.0500  0.5297 -0.5615
  910SOL    HW1 2729   0.904   0.890   0.374  3.4606  1.5230  1.1055
  910SOL    HW2 2730   1.067   0.857   0.383 -1.8833 -0.7045  1.0847
  911SOL     OW 2731   0.167   0.281   2.883  0.5103  0.1591  0.1143
  911SOL    HW1 2732   0.121   0.316   2.969 -1.8234  2.0587 -0.4091
  911SOL    HW2 2733   0.152   0.351   2.810 -1.7652 -0.6674  1.1804
  912SOL     OW 2734   2.798   2.472   2.798 -0.0016  0.5698  0.8974
  912SOL    HW1 2735   2.796   2.537   2.718 -0.0823 -0.6372  0.2915
  912SOL    HW2 2736   2.788   2.521   2.886 -2.1280 -1.5932 -1.9269
  913SOL     OW 2737   2.398   2.377   2.996  0.7522 -0.1180  0.1187
  913SOL    HW1 2738   2.418   2.342   3.091  2.2709 -0.3614  0.6856
  913SOL    HW2 2739   2.429   2.471   2.998 -2.9788 -0.6435 -1.3192
  914SOL     OW 2740   1.603   1.603   1.858 -0.5869  0.1312 -0.1584
  914SOL    HW1 2741   1.625   1.579   1.955  2.1087 -0.0139 -2.1955
  914SOL    HW2 2742   1.625   1.698   1.848 -1.3188 -0.7649 -0.8380
  915SOL     OW 2743   0.138   2.443   2.324  0.2677 -0.0817  0.1573
  915SOL    HW1 2744   0.153   2.483   2.415 -1.6091  1.2922  1.4026
  915SOL    HW2 2745   0.046   2.390   2.333 -1.3357 -1.1899 -0.1370
  916SOL     OW 2746   3.060   1.011   1.783 -0.2683 -0.1425 -0.0234
  916SOL    HW1 2747   3.058   1.107   1.824  0.4439  0.0354 -0.1205
  916SOL    HW2 2748   0.049   0.987   1.760  1.2724 -0.3303  1.0513
  917SOL     OW 2749   2.117   0.038   3.042  0.2656 -0.1993  0.5654
  917SOL    HW1 2750   2.059   0.013   0.014 -1.3545 -1.1404 -0.5986
  917SOL    HW2 2751   2.064   0.108   2.989 -2.1354  0.4163 -2.8279
  918SOL     OW 2752   1.768   2.402   2.196  0.1777 -0.8028  0.3044
  918SOL    HW1 2753   1.852   2.366   2.248 -0.1870 -1.9033 -0.0281
  918SOL    HW2 2754   1.776   2.506   2.175 -2.5229 -0.4039 -0.5711
  919SOL     OW 2755   2.073   2.267   1.987 -0.3960 -0.2434  0.4518
  919SOL    HW1 2756   2.077   2.225   1.893 -1.9129 -0.3711  0.9420
  919SOL    HW2 2757   2.107   2.201   2.058  1.5026  0.6954  1.1761
  920SOL     OW 2758   0.172   0.931   0.131  0.3076 -0.1064  0.1693
  920SOL    HW1 2759   0.250   0.899   0.184 -0.3007 -0.2416 -0.2324
  920SOL    HW2 2760   0.142   0.868   0.059 -0.2093  0.3341 -0.9269
  921SOL     OW 2761   2.764   1.183   2.727  0.1111  0.3224  0.5079
  921SOL    HW1 2762   2.705   1.189   2.809 -1.5850 -1.1490  1.6521
  921SOL    HW2 2763   2.700   1.206   2.652  1.5852  0.6446  2.2778
  922SOL     OW 2764   0.454   1.928   0.290 -0.0216 -0.4783  0.4178
  922SOL    HW1 2765   0.405   2.002   0.239 -1.4296  1.9417 -2.5854
  922SOL    HW2 2766   0.405   1.841   0.289 -0.0454  2.6875 -0.1207
  923SOL     OW 2767   0.455   0.999   2.147 -0.1222 -0.5596 -0.0924
  923SOL    HW1 2768   0.368   0.981   2.199 -0.6415 -0.1379  1.8015
  923SOL    HW2 2769   0.515   0.919   2.172 -1.5514  1.5608  1.6827
  924SOL     OW 2770   0.766   2.864   2.747  0.0019 -0.2669 -0.0614
  924SOL    HW1 2771   0.694   2.920   2.699 -1.3359 -0.7859  0.3789
  924SOL    HW2 2772   0.836   2.923   2.788 -0.1226  1.4045  0.9214
  925SOL     OW 2773   1.695   1.452   0.760  0.0401  0.6224 -0.6069
  925SOL    HW1 2774   1.670   1.373   0.702  1.0613 -0.2362 -1.2227
  925SOL    HW2 2775   1.760   1.514   0.710  1.1852  0.4636  0.3319
  926SOL     OW 2776   1.624   0.562   2.182 -0.5060  0.1056 -0.2333
  926SOL    HW1 2777   1.572   0.611   2.111  1.4663 -0.2521  2.0182
  926SOL    HW2 2778   1.587   0.587   2.273  0.5178 -0.6792 -3.6726
  927SOL     OW 2779   2.906   2.378   1.869 -0.1745 -0.1435  0.5018
  927SOL    HW1 2780   2.859   2.321   1.930 -0.3932  5.1891  1.3968
  927SOL    HW2 2781   2.874   2.476   1.871 -4.0076  0.8173 -1.0290
  928SOL     OW 2782   0.178   0.972   2.616 -0.2463  0.6147  0.3626
  928SOL    HW1 2783   0.218   1.016   2.699  0.6892  2.1372 -0.9488
  928SOL    HW2 2784   0.248   0.905   2.586 -2.5457  1.2069  2.5470
  929SOL     OW 2785   2.899   0.120   0.660  0.1357 -0.0050  0.1312
  929SOL    HW1 2786   2.824   0.140   0.729  1.4623  0.6598 -3.0657
  929SOL    HW2 2787   2.889   0.020   0.634 -0.1163 -0.8364  3.3364
  930SOL     OW 2788   2.320   0.210   1.832  0.4628 -0.1884 -0.6978
  930SOL    HW1 2789   2.258   0.151   1.775  2.7430 -0.3837 -1.2262
  930SOL    HW2 2790   2.367   0.282   1.777  1.4589  0.1523  0.9326
  931SOL     OW 2791   2.131   1.145   3.034  0.2030  0.4738 -0.5217
  931SOL    HW1 2792   2.224   1.097   3.035  4.2011  0.8808  1.1412
  931SOL    HW2 2793   2.140   1.233   2.985  1.2193 -1.9490 -0.1206
  932SOL     OW 2794   2.469   1.501   1.663 -0.0852  0.3233 -0.7168
  932SOL    HW1 2795   2.474   1.591   1.616  0.5124 -1.5553  0.4552
  932SOL    HW2 2796   2.519   1.428   1.608 -1.6982 -0.1908  1.1734
  933SOL     OW 2797   0.136   2.668   1.515 -0.0332  0.4336 -0.5709
  933SOL    HW1 2798   0.175   2.583   1.553  1.0855  3.1772  1.1065
  933SOL    HW2 2799   0.132   2.740   1.590 -0.6010 -0.9815 -0.3921
  934SOL     OW 2800   0.861   2.672   0.958  0.1695  0.2244 -0.4927
  934SOL    HW1 2801   0.925   2.644   1.030 -1.8911 -0.7435 -1.4540
  934SOL    HW2 2802   0.859   2.594   0.890  1.1639 -2.6104 -0.3095
  935SOL     OW 2803   2.411   1.295   2.117 -0.8385 -0.0876  0.2720
  935SOL    HW1 2804   2.476   1.286   2.037 -1.0629 -0.1438 -2.5267
  935SOL    HW2 2805   2.347   1.215   2.121  1.0032  1.7927  0.0370
  936SOL     OW 2806   2.340   1.060   1.811 -0.5351  0.0826 -0.1444
  936SOL    HW1 2807   2.375   1.094   1.724 -2.3003  1.9934  0.7128
  936SOL    HW2 2808   2.409   1.039   1.886 -0.9210  1.3385  3.1522
  937SOL     OW 2809   1.978   1.017   2.112  0.0512  0.0801 -0.3528
  937SOL    HW1 2810   1.941   1.049   2.201  0.1875 -0.1817  0.8962
  937SOL    HW2 2811   1.940   0.924   2.097  0.8633 -1.2209  1.7950
  938SOL     OW 2812   0.835   2.540   3.032  0.2049 -0.9383  0.0262
  938SOL    HW1 2813   0.863   2.456   3.084  0.5126 -3.3396  0.0856
  938SOL    HW2 2814   0.869   2.624   3.080  1.6060  0.9277 -0.6593
  939SOL     OW 2815   2.737   0.891   0.008  0.0402  0.5636  0.3447
  939SOL    HW1 2816   2.823   0.948   3.096  1.7252  0.3367  0.0627
  939SOL    HW2 2817   2.746   0.840   0.097 -0.7796 -0.9022  1.4688
  940SOL     OW 2818   1.173   1.931   1.154 -0.1620 -0.3515 -0.0234
  940SOL    HW1 2819   1.078   1.927   1.120  0.8415 -1.4644  0.1837
  940SOL    HW2 2820   1.234   1.879   1.092  1.5393 -0.1766 -2.4790
  941SOL     OW 2821   0.933   2.228   2.008  0.7051  0.0099 -0.2146
  941SOL    HW1 2822   0.928   2.317   1.961  1.3457 -0.2079  0.6136
  941SOL    HW2 2823   0.924   2.155   1.938  2.3282 -0.8100 -0.1047
  942SOL     OW 2824   0.341   2.043   2.881 -0.0277  0.6958 -0.2450
  942SOL    HW1 2825   0.272   2.036   2.810 -0.7007  1.8820  0.5927
  942SOL    HW2 2826   0.423   1.979   2.880  1.2186 -0.7436  2.1436
  943SOL     OW 2827   1.791   2.927   1.779 -0.2435 -0.1478 -0.0219
  943SOL    HW1 2828   1.783   2.831   1.806  0.1544  1.1776 -1.5349
  943SOL    HW2 2829   1.762   2.944   1.683  1.5156  1.6016 -0.6588
  944SOL     OW 2830   1.081   1.888   0.122  0.8505 -0.0772  0.2404
  944SOL    HW1 2831   1.174   1.880   0.081 -0.5107  1.9314 -2.6123
  944SOL    HW2 2832   1.012   1.871   0.046  0.4955  1.0152 -3.9242
  945SOL     OW 2833   2.544   2.557   0.974 -0.0702 -0.9345  0.4850
  945SOL    HW1 2834   2.635   2.589   0.939  0.3013 -0.1564 -1.0879
  945SOL    HW2 2835   2.484   2.515   0.901 -0.8404 -0.8540  1.4433
  946SOL     OW 2836   0.916   1.463   2.805  0.5510 -0.3121 -0.0650
  946SOL    HW1 2837   0.959   1.493   2.719  0.8016  0.5258  0.6453
  946SOL    HW2 2838   0.907   1.535   2.882 -0.0348  2.0652 -0.5449
  947SOL     OW 2839   3.080   0.680   2.047  0.0711  0.2250  1.0988
  947SOL    HW1 2840   0.022   0.766   2.047 -1.4066  1.4878  2.1234
  947SOL    HW2 2841   0.019   0.601   2.007 -0.2328  0.4989 -1.7012
  948SOL     OW 2842   0.117   1.264   0.707 -0.0457 -0.3933 -0.4852
  948SOL    HW1 2843   0.108   1.364   0.685 -1.0390  0.1538  0.5934
  948SOL    HW2 2844   0.113   1.261   0.811  0.2631 -1.9337  1.8377
  949SOL     OW 2845   0.653   0.801   2.233  0.1411  0.0515  0.5631
  949SOL    HW1 2846   0.680   0.706   2.211  2.1831  1.2527  2.0455
  949SOL    HW2 2847   0.731   0.848   2.277 -1.6388  0.7769  2.0110
  950SOL     OW 2848   0.209   0.496   1.511  0.9563 -0.1795 -0.0423
  950SOL    HW1 2849   0.311   0.490   1.516 -1.8010  1.2904  0.3329
  950SOL    HW2 2850   0.164   0.490   1.602  0.6295 -0.1332  0.5328
  951SOL     OW 2851   0.713   1.260   2.745 -0.0090  0.2766  0.1428
  951SOL    HW1 2852   0.793   1.320   2.760 -0.8485  1.2856 -0.1509
  951SOL    HW2 2853   0.744   1.174   2.699  3.4387 -0.6170  0.9130
  952SOL     OW 2854   1.744   1.964   0.708 -0.1653  0.0606  0.2104
  952SOL    HW1 2855   1.788   1.884   0.657 -0.3695 -1.4145 -1.4293
  952SOL    HW2 2856   1.811   2.034   0.728 -2.6026 -0.3321 -0.2437
  953SOL     OW 2857   0.555   0.375   0.173  0.0517  0.6585  0.4101
  953SOL    HW1 2858   0.516   0.342   0.258  0.4951 -1.8150 -2.3849
  953SOL    HW2 2859   0.481   0.420   0.122  1.1557  0.5535  0.7346
  954SOL     OW 2860   2.510   0.623   0.905 -0.0209 -0.3074 -0.1439
  954SOL    HW1 2861   2.593   0.675   0.887 -0.3590 -0.8575 -2.7599
  954SOL    HW2 2862   2.458   0.677   0.972  2.2881 -1.6343 -0.5011
  955SOL     OW 2863   1.798   1.240   0.232 -0.7627  0.2244  0.5109
  955SOL    HW1 2864   1.783   1.217   0.132  0.5383 -1.4935 -4.5004
  955SOL    HW2 2865   1.722   1.200   0.287 -0.5482 -1.2318  0.7624
  956SOL     OW 2866   1.197   0.491   2.232  0.3577  0.0523 -0.4684
  956SOL    HW1 2867   1.220   0.584   2.217  0.5816 -5.6735  1.1603
  956SOL    HW2 2868   1.247   0.462   2.315  0.2266 -2.9064  1.0930
  957SOL     OW 2869   1.447   0.241   1.676 -0.0248 -0.5698  0.1794
  957SOL    HW1 2870   1.411   0.144   1.686 -1.8521  2.1007  0.8673
  957SOL    HW2 2871   1.536   0.250   1.732 -0.3617  0.3346  0.5593
  958SOL     OW 2872   0.253   2.148   0.434  0.0407  0.2700  0.2868
  958SOL    HW1 2873   0.311   2.141   0.349  1.3354 -1.3230 -2.5065
  958SOL    HW2 2874   0.286   2.070   0.493 -0.3420  0.5405  1.6890
  959SOL     OW 2875   2.163   0.823   1.723 -0.0198  0.4250  0.3682
  959SOL    HW1 2876   2.156   0.917   1.754 -1.7888 -0.2999  0.1258
  959SOL    HW2 2877   2.089   0.768   1.769 -0.5347  2.3530  0.1632
  960SOL     OW 2878   0.104   1.776   2.963 -0.4324 -0.1081 -0.2390
  960SOL    HW1 2879   0.167   1.816   3.035  2.5017  0.5181  0.2654
  960SOL    HW2 2880   0.079   1.687   2.999  0.1529 -0.3074 -0.8585
  961SOL     OW 2881   0.730   2.126   1.036  0.3774  0.7506  0.0486
  961SOL    HW1 2882   0.771   2.087   1.121 -0.2277  1.6622 -1.4115
  961SOL    HW2 2883   0.652   2.182   1.070 -0.9595 -2.2017 -1.7855
  962SOL     OW 2884   0.306   1.313   1.108  0.1273  0.1994  0.7018
  962SOL    HW1 2885   0.224   1.255   1.073 -2.1719 -1.3685  0.5008
  962SOL    HW2 2886   0.273   1.396   1.159 -2.5146 -1.4115  0.0068
  963SOL     OW 2887   1.640   1.710   2.349 -0.1031 -0.3872  0.4755
  963SOL    HW1 2888   1.636   1.661   2.441  0.4537 -0.2583  4.3132
  963SOL    HW2 2889   1.727   1.763   2.348  0.5326  1.1865  3.9808
  964SOL     OW 2890   0.177   3.068   2.041 -0.2493 -0.5727  0.2257
  964SOL    HW1 2891   0.120   2.988   2.065 -0.6695 -1.6946  0.0611
  964SOL    HW2 2892   0.276   3.039   2.042  0.5295  0.4884  1.0879
  965SOL     OW 2893   3.047   2.342   2.841  0.3510 -0.0571 -0.9818
  965SOL    HW1 2894   2.957   2.388   2.824  1.6270  0.5376 -0.6693
  965SOL    HW2 2895   3.066   2.291   2.758 -0.2882  0.2240  1.1363
  966SOL     OW 2896   2.835   1.721   3.059 -0.2320 -0.2040 -0.3972
  966SOL    HW1 2897   2.823   1.701   2.959 -2.3360 -0.2511  0.0436
  966SOL    HW2 2898   2.847   1.635   0.004  0.8654  1.2861 -0.1339
  967SOL     OW 2899   1.970   0.001   0.181 -0.2429 -0.4377  0.1122
  967SOL    HW1 2900   1.985   3.036   0.244  0.6221 -3.0045 -1.7022
  967SOL    HW2 2901   1.868   0.015   0.171 -1.5758 -0.1674 -3.2628
  968SOL     OW 2902   2.587   0.042   0.429 -0.7025 -0.4013  0.9015
  968SOL    HW1 2903   2.658   3.095   0.480  0.4482  0.3830  0.8385
  968SOL    HW2 2904   2.496   0.028   0.467 -1.1489  1.8041 -0.9647
  969SOL     OW 2905   0.217   0.919   1.674  0.0126  0.4987  0.4929
  969SOL    HW1 2906   0.278   1.003   1.674  0.8244  1.3491 -0.6539
  969SOL    HW2 2907   0.200   0.884   1.579  0.6715 -0.0739  1.4323
  970SOL     OW 2908   1.624   1.607   0.032  0.0514  0.2788  0.1601
  970SOL    HW1 2909   1.705   1.575   0.086 -0.4176  0.9680  0.8124
  970SOL    HW2 2910   1.582   1.684   0.077  0.7088 -0.5751  0.0958
  971SOL     OW 2911   2.481   2.914   1.594  0.4171 -0.3019  0.1036
  971SOL    HW1 2912   2.457   2.820   1.627  0.0488  0.6387 -1.2167
  971SOL    HW2 2913   2.442   2.989   1.656 -2.0499  2.2896  2.0457
  972SOL     OW 2914   2.863   0.099   1.128 -0.1194 -0.2059  0.0445
  972SOL    HW1 2915   2.958   0.068   1.135  0.1276  1.1569  2.6337
  972SOL    HW2 2916   2.859   0.178   1.072  1.6419 -1.7369 -0.8113
  973SOL     OW 2917   0.553   0.614   2.476 -0.2650 -0.2193 -0.0332
  973SOL    HW1 2918   0.636   0.672   2.481 -0.9020 -2.3512  3.9317
  973SOL    HW2 2919   0.548   0.556   2.558 -2.7381  2.7949 -2.6707
  974SOL     OW 2920   2.629   1.250   1.978  0.1032  0.5152 -0.0100
  974SOL    HW1 2921   2.686   1.244   1.894 -0.7103  1.0399 -0.1106
  974SOL    HW2 2922   2.654   1.169   2.033 -0.2940  1.5778  1.4706
  975SOL     OW 2923   1.078   0.280   1.846 -0.5509 -0.4329 -0.2785
  975SOL    HW1 2924   1.045   0.232   1.765  1.9552  0.2530  1.6791
  975SOL    HW2 2925   1.063   0.226   1.929  0.8707  0.9377 -2.8397
  976SOL     OW 2926   1.567   1.513   1.359  0.5688 -0.3113 -0.4520
  976SOL    HW1 2927   1.578   1.478   1.455  0.7390 -1.2063 -1.3315
  976SOL    HW2 2928   1.635   1.464   1.302 -0.9885 -2.4353 -2.5315
  977SOL     OW 2929   0.555   2.964   0.129 -0.0596  0.2675  0.0134
  977SOL    HW1 2930   0.638   2.980   0.185 -0.4017  0.4068  0.9579
  977SOL    HW2 2931   0.577   2.931   0.036 -0.0338  2.4601 -1.2723
  978SOL     OW 2932   2.270   1.067   2.123 -0.1430 -0.0339 -0.0590
  978SOL    HW1 2933   2.323   0.984   2.094  0.4605 -0.9479 -0.2991
  978SOL    HW2 2934   2.172   1.049   2.128  0.2407 -0.6215 -2.1945
  979SOL     OW 2935   1.447   0.909   1.868 -0.3306  0.3656  0.4729
  979SOL    HW1 2936   1.359   0.962   1.849 -1.1506  4.7053  0.8107
  979SOL    HW2 2937   1.515   0.960   1.930 -0.2624  1.2975  2.3678
  980SOL     OW 2938   1.892   1.547   2.470  0.5421 -0.1400  0.1121
  980SOL    HW1 2939   1.943   1.503   2.394 -2.7931  0.8810 -1.5237
  980SOL    HW2 2940   1.842   1.476   2.520 -1.7749  0.0829 -2.3400
  981SOL     OW 2941   1.637   0.540   1.815 -0.3652 -0.1161  0.1245
  981SOL    HW1 2942   1.580   0.604   1.866  1.2204 -4.0286  0.0368
  981SOL    HW2 2943   1.591   0.516   1.724 -1.7550  0.0437  1.6539
  982SOL     OW 2944   0.788   0.468   0.100 -0.0589  0.4878  0.1959
  982SOL    HW1 2945   0.728   0.406   0.158  1.8750  0.2040  0.4954
  982SOL    HW2 2946   0.734   0.507   0.023  0.8497  0.1354 -0.6907
  983SOL     OW 2947   2.472   0.850   0.207  0.2384 -0.1930  0.1968
  983SOL    HW1 2948   2.418   0.923   0.258 -1.0501 -2.6677  0.0872
  983SOL    HW2 2949   2.572   0.840   0.228  1.5333  2.0163  2.3028
  984SOL     OW 2950   0.905   0.379   2.644  0.4976 -0.7313  0.0614
  984SOL    HW1 2951   0.915   0.342   2.739 -1.0280  0.3295 -2.9189
  984SOL    HW2 2952   0.996   0.421   2.610  0.2519 -1.2686 -2.4988
  985SOL     OW 2953   1.676   1.862   1.897 -0.4810  0.2763  0.0078
  985SOL    HW1 2954   1.675   1.934   1.827  1.9304  2.5645  1.0833
  985SOL    HW2 2955   1.654   1.908   1.986 -0.0188  2.7642  0.2770
  986SOL     OW 2956   2.564   2.555   1.939 -0.0503 -0.0497  0.2558
  986SOL    HW1 2957   2.661   2.574   1.956 -0.4359 -1.2066  0.8350
  986SOL    HW2 2958   2.504   2.621   1.984 -0.7516  0.2663  0.1822
  987SOL     OW 2959   1.834   1.374   0.987 -0.4468 -0.5300  0.2825
  987SOL    HW1 2960   1.922   1.335   0.951 -1.6980  0.8630  1.0544
  987SOL    HW2 2961   1.773   1.394   0.908 -0.9225  1.2755  0.2791
  988SOL     OW 2962   2.789   1.696   2.287 -0.5583  0.3494  0.1872
  988SOL    HW1 2963   2.817   1.792   2.313  0.8707 -0.6839  1.2645
  988SOL    HW2 2964   2.690   1.694   2.294  1.5763 -1.4181 -0.0384
  989SOL     OW 2965   1.261   2.179   0.209  0.7368  0.4929  0.4747
  989SOL    HW1 2966   1.248   2.266   0.258 -1.4080 -1.3217 -1.6086
  989SOL    HW2 2967   1.173   2.145   0.173  1.8483  0.2477 -2.4110
  990SOL     OW 2968   1.866   0.585   2.751  0.1178 -0.0451 -0.3400
  990SOL    HW1 2969   1.929   0.665   2.755 -2.8097  1.9150 -0.0801
  990SOL    HW2 2970   1.919   0.496   2.732  1.0050 -1.6315  0.5114
  991SOL     OW 2971   1.299   0.453   0.814  0.2309 -0.1295  0.0875
  991SOL    HW1 2972   1.231   0.395   0.762  0.7721 -0.6528 -0.3297
  991SOL    HW2 2973   1.293   0.423   0.911  0.5839 -0.2543 -2.0781
  992SOL     OW 2974   2.911   0.816   1.149  0.0368 -0.0024  0.5383
  992SOL    HW1 2975   2.838   0.885   1.127 -0.4545 -1.0741 -1.5476
  992SOL    HW2 2976   2.904   0.726   1.110  1.6612  2.5055  0.1711
  993SOL     OW 2977   2.372   0.653   1.778  0.2308 -0.0354  0.5062
  993SOL    HW1 2978   2.283   0.690   1.750  0.2814  1.2529 -1.3677
  993SOL    HW2 2979   2.446   0.720   1.760 -0.6841 -2.0430 -0.9277
  994SOL     OW 2980   1.001   1.512   2.545  0.3066 -0.4322  0.0395
  994SOL    HW1 2981   1.028   1.420   2.513  0.6722  0.5644  3.2458
  994SOL    HW2 2982   1.082   1.570   2.553 -0.5887 -1.7884  1.0150
  995SOL     OW 2983   2.134   1.390   2.913  0.5319  0.1645 -0.0025
  995SOL    HW1 2984   2.178   1.377   2.822 -1.0627 -0.4179 -0.5799
  995SOL    HW2 2985   2.159   1.476   2.956  0.5418 -1.6197 -1.2054
  996SOL     OW 2986   2.136   1.983   0.496  0.3980  0.1821 -0.7668
  996SOL    HW1 2987   2.087   1.947   0.575  1.1979  0.6035  0.8599
  996SOL    HW2 2988   2.178   1.916   0.432 -2.2015 -0.2061 -0.6031
  997SOL     OW 2989   2.103   0.550   1.820 -0.2863 -0.1960 -0.2094
  997SOL    HW1 2990   2.136   0.511   1.909  2.3711  1.7676  2.6602
  997SOL    HW2 2991   2.139   0.496   1.743 -3.7661  1.6670 -0.9824
  998SOL     OW 2992   2.399   0.936   0.603 -0.1420  0.0032  0.2288
  998SOL    HW1 2993   2.347   0.918   0.686  2.8131 -0.1996 -0.5444
  998SOL    HW2 2994   2.423   0.852   0.555  1.4688 -1.5206  2.8690
  999SOL     OW 2995   2.590   1.518   0.255 -0.0490 -0.0134 -0.1010
  999SOL    HW1 2996   2.598   1.455   0.335 -0.3121 -0.7031 -1.3459
  999SOL    HW2 2997   2.679   1.518   0.200  2.0953  0.6060 -0.2882
 1000SOL     OW 2998   0.823   0.983   1.784  0.0613  0.2753 -0.0225
 1000SOL    HW1 2999   0.879   0.916   1.725  3.3981  1.4136 -1.7422
 1000SOL    HW2 3000   0.723   0.973   1.758 -2.5514  0.6539 -0.1150
   3.11055   3.11055   3.11055
