1000 SPC/Fw water molecules
3000
    1SOL  OW       1   1.218   2.454   0.458  0.6416  0.5288  0.7177
    1SOL  HW1      2   1.262   2.366   0.426  1.8153 -0.0915 -0.3220
    1SOL  HW2      3   1.282   2.511   0.511 -2.1253 -1.0347  1.1970
    2SOL  OW       4   1.548   0.795   2.067  0.5742  0.7665 -0.0113
    2SOL  HW1      5   1.509   0.888   2.086  1.3826 -0.3389 -4.1221
    2SOL  HW2      6   1.623   0.797   1.998 -0.3701  0.0716 -1.8457
    3SOL  OW       7   1.085   0.175   2.267 -0.5327  0.1299  0.4702
    3SOL  HW1      8   0.997   0.127   2.292  1.3355 -2.4359  0.3817
    3SOL  HW2      9   1.163   0.120   2.311 -1.9006 -1.0450  0.0059
    4SOL  OW      10   1.898   1.275   0.041  0.4234  0.1461  0.0974
    4SOL  HW1     11   1.914   1.291   3.036 -0.4247 -0.5698 -1.3016
    4SOL  HW2     12   1.965   1.337   0.089 -1.4790  2.0014 -0.8850
    5SOL  OW      13   2.949   1.067   2.926 -0.3369  0.1278 -0.1498
    5SOL  HW1     14   2.959   1.154   2.975 -1.3433 -0.1173 -0.2848
    5SOL  HW2     15   2.973   1.079   2.829 -2.4584 -0.2397 -0.9926
    6SOL  OW      16   2.338   0.629   2.215 -0.2255  0.2497 -0.1635
    6SOL  HW1     17   2.340   0.638   2.116 -0.3914 -1.0679 -1.9585
    6SOL  HW2     18   2.262   0.574   2.244 -0.9922  2.5040  0.0561
    7SOL  OW      19   2.429   0.727   1.251  0.2692 -0.2203  0.3040
    7SOL  HW1     20   2.464   0.820   1.280  1.4879  0.1399 -0.1249
    7SOL  HW2     21   2.394   0.665   1.329  0.7990 -0.3092 -0.6291
    8SOL  OW      22   2.646   2.332   2.213 -0.2196 -0.5902  0.1951
    8SOL  HW1     23   2.552   2.366   2.224  3.0751  0.4533  0.8728
    8SOL  HW2     24   2.715   2.391   2.258 -1.7698 -1.2316 -0.2124
    9SOL  OW      25   3.005   0.202   3.066 -0.0313 -0.1739  0.3829
    9SOL  HW1     26   3.025   0.124   3.005  1.4892 -0.5068  2.0472
    9SOL  HW2     27   2.907   0.239   3.054  1.7653  1.9202  2.6527
   10SOL  OW      28   0.315   2.683   2.406 -0.0408  0.2042 -0.5787
   10SOL  HW1     29   0.350   2.639   2.493  1.8598  2.0670  0.3660
   10SOL  HW2     30   0.393   2.711   2.345 -1.4755 -1.1638  2.7787
   11SOL  OW      31   0.518   1.668   0.096 -0.7797 -0.1921 -0.0975
   11SOL  HW1     32   0.549   1.582   0.053  1.4286  1.7767  0.4517
   11SOL  HW2     33   0.495   1.648   0.192  1.1998  0.1624  0.0822
   12SOL  OW      34   3.049   2.670   0.473 -0.1738 -0.1587 -0.4515
   12SOL  HW1     35   3.017   2.770   0.475  1.8037 -2.1685 -0.3380
   12SOL  HW2     36   3.058   2.637   0.379  0.1666  1.4591  3.1408
   13SOL  OW      37   0.024   0.405   0.336  0.7027 -0.1974 -0.0827
   13SOL  HW1     38   0.120   0.399   0.307 -1.3145  0.9723  0.9541
   13SOL  HW2     39   0.005   0.429   0.435  0.6151  0.4215  0.4001
   14SOL  OW      40   1.157   0.773   1.251  0.0162  0.0819  0.3332
   14SOL  HW1     41   1.089   0.701   1.226  1.6058  2.9672 -1.2968
   14SOL  HW2     42   1.170   0.825   1.166  1.0921 -0.9320 -1.2008
   15SOL  OW      43   1.155   1.221   2.114 -0.1346  0.1494 -0.1795
   15SOL  HW1     44   1.084   1.287   2.144  2.6020  0.0519 -0.3302
   15SOL  HW2     45   1.244   1.270   2.102  3.4145  0.5200  0.1639
   16SOL  OW      46   2.348   0.526   0.153 -0.1920  0.0404  0.2834
   16SOL  HW1     47   2.360   0.556   0.250  1.9176  0.9152 -1.1809
   16SOL  HW2     48   2.343   0.611   0.094  0.9349 -1.1904  1.0341
   17SOL  OW      49   0.710   1.973   2.564  0.2070 -0.1413 -0.9146
   17SOL  HW1     50   0.625   1.993   2.507 -2.7218  2.0477 -0.6676
   17SOL  HW2     51   0.724   1.879   2.598  1.2955 -0.7251 -0.0119
   18SOL  OW      52   2.011   0.773   2.869  0.6180  0.3379 -0.2095
   18SOL  HW1     53   2.108   0.789   2.890  2.8005 -0.6609 -0.0009
   18SOL  HW2     54   1.988   0.685   2.820 -2.5369  1.2569 -1.1441
   19SOL  OW      55   2.773   1.728   2.045 -0.0534  0.2190 -0.2638
   19SOL  HW1     56   2.770   1.832   2.054 -1.4763  4.5565 -2.3297
   19SOL  HW2     57   2.823   1.683   2.123  0.4216 -0.1075  2.2150
   20SOL  OW      58   2.745   2.837   0.131 -0.2226 -0.7353  0.4894
   20SOL  HW1     59   2.808   2.873   0.207  1.0852  1.2428 -1.2275
   20SOL  HW2     60   2.686   2.910   0.094 -1.5556 -1.2272  2.2343
   21SOL  OW      61   1.399   1.314   1.128  0.4080  0.5222 -0.0771
   21SOL  HW1     62   1.329   1.233   1.145  1.3063 -3.2935 -1.8706
   21SOL  HW2     63   1.493   1.297   1.164  1.4534  3.0166 -0.0400
   22SOL  OW      64   1.881   2.692   1.111 -0.2699  0.0894  0.2461
   22SOL  HW1     65   1.962   2.717   1.170  2.2251 -0.2366  0.2043
   22SOL  HW2     66   1.912   2.669   1.014 -0.3814 -3.3896  0.1460
   23SOL  OW      67   3.064   0.964   1.418  0.3693 -0.2119  0.1229
   23SOL  HW1     68   0.048   0.944   1.482  0.7519 -1.3973  0.7038
   23SOL  HW2     69   3.061   0.892   1.348 -1.7838  0.3205  0.2965
   24SOL  OW      70   2.281   1.137   1.431 -0.1896 -0.1339 -0.4842
   24SOL  HW1     71   2.246   1.231   1.441  0.5791 -0.1198  0.6404
   24SOL  HW2     72   2.333   1.100   1.513 -2.8510  1.6723 -1.7129
   25SOL  OW      73   1.391   0.569   2.487 -0.1884 -0.4904 -0.2026
   25SOL  HW1     74   1.398   0.650   2.545 -1.2725 -0.7301 -1.7675
   25SOL  HW2     75   1.356   0.603   2.395  0.4889 -0.2581 -0.4167
   26SOL  OW      76   2.564   1.407   3.042 -0.4640  0.0006  0.1086
   26SOL  HW1     77   2.584   1.509   3.059  0.9927 -0.6647  1.0277
   26SOL  HW2     78   2.576   1.378   2.943 -2.4996 -2.0437  0.1786
   27SOL  OW      79   0.944   0.935   0.891 -0.5109 -0.1015 -0.0948
   27SOL  HW1     80   1.034   0.955   0.934 -0.2703 -1.4561  3.1031
   27SOL  HW2     81   0.949   0.942   0.789  1.0036  0.0907 -1.4494
   28SOL  OW      82   2.247   2.997   0.365  0.3385 -0.3947  0.0113
   28SOL  HW1     83   2.230   3.090   0.401  1.4344  0.2755  1.0346
   28SOL  HW2     84   2.260   2.933   0.444  0.3093  1.5265  1.0416
   29SOL  OW      85   1.883   0.301   2.591 -0.2503  0.5460 -0.1173
   29SOL  HW1     86   1.911   0.322   2.494 -1.4866 -1.8765 -0.6762
   29SOL  HW2     87   1.951   0.234   2.628 -0.8299 -0.1398  0.8515
   30SOL  OW      88   0.416   2.929   2.091 -0.0340 -0.2918 -0.1797
   30SOL  HW1     89   0.343   2.857   2.080  1.7169  0.7269  0.2386
   30SOL  HW2     90   0.473   2.937   2.008  3.6904 -1.1612 -0.4550
   31SOL  OW      91   2.982   2.792   2.257  0.4323  0.4748 -0.5333
   31SOL  HW1     92   3.036   2.856   2.207  1.2149 -1.8788 -0.7090
   31SOL  HW2     93   3.043   2.720   2.298  3.3666 -0.3465 -0.6686
   32SOL  OW      94   0.887   3.051   2.060  0.1404 -0.0490 -0.4322
   32SOL  HW1     95   0.956   0.002   2.002 -3.5652 -2.7887  0.8003
   32SOL  HW2     96   0.899   3.068   2.161  0.2925 -0.9607  1.8212
   33SOL  OW      97   0.652   0.691   2.961 -0.6520 -0.1044 -0.1237
   33SOL  HW1     98   0.715   0.771   2.972 -0.0883 -1.2919  0.3842
   33SOL  HW2     99   0.562   0.710   3.005  4.7601  1.2792  0.9246
   34SOL  OW     100   3.053   0.463   0.590 -0.0173  0.3717 -0.3781
   34SOL  HW1    101   2.957   0.467   0.624  1.2458 -0.7804 -0.0942
   34SOL  HW2    102   0.024   0.400   0.637  3.2951 -0.8734 -0.9045
   35SOL  OW     103   0.483   2.566   1.562 -0.0049  0.3029 -0.0365
   35SOL  HW1    104   0.463   2.639   1.630  1.1014  0.1406  0.1322
   35SOL  HW2    105   0.474   2.593   1.465 -1.2423  0.7919  0.4254
   36SOL  OW     106   2.361   0.305   2.336 -0.3158 -0.1794  0.2990
   36SOL  HW1    107   2.423   0.276   2.414 -0.4289 -1.0359  0.6608
   36SOL  HW2    108   2.420   0.322   2.253 -3.4029 -0.2550  2.7444
   37SOL  OW     109   1.401   1.908   0.750 -0.3452 -0.4903 -0.3042
   37SOL  HW1    110   1.417   1.836   0.817  1.3365  1.6074  1.4785
   37SOL  HW2    111   1.301   1.921   0.747  1.9598 -0.6719  0.5784
   38SOL  OW     112   0.199   0.346   0.666 -0.0936 -0.5541 -0.1771
   38SOL  HW1    113   0.260   0.429   0.666  0.4024  0.7754 -0.6902
   38SOL  HW2    114   0.228   0.276   0.599 -1.5016 -0.0463 -1.5116
   39SOL  OW     115   0.892   1.852   1.800 -0.0971  0.4658 -0.0004
   39SOL  HW1    116   0.787   1.856   1.799 -1.5657 -0.4475 -0.1242
   39SOL  HW2    117   0.932   1.918   1.736  0.0072  2.3346  1.2880
   40SOL  OW     118   2.647   1.345   2.775  0.0537  0.5623  0.2340
   40SOL  HW1    119   2.722   1.406   2.799 -2.2482 -0.5953  0.4713
   40SOL  HW2    120   2.653   1.244   2.804 -1.3165 -0.9183  1.1256
   41SOL  OW     121   1.555   0.165   2.009 -0.1965 -0.1054 -0.0782
   41SOL  HW1    122   1.627   0.135   2.074  2.4574 -0.1057 -0.4245
   41SOL  HW2    123   1.596   0.224   1.932 -1.2481  1.9282 -1.2279
   42SOL  OW     124   2.668   2.890   0.477 -0.3692  0.0937 -0.4245
   42SOL  HW1    125   2.762   2.904   0.444  3.6411  0.3523  0.1484
   42SOL  HW2    126   2.645   2.790   0.450  1.0961 -1.6090 -1.3508
   43SOL  OW     127   1.672   2.889   1.115  0.6165 -0.2115 -0.1091
   43SOL  HW1    128   1.667   2.945   1.203  0.3794 -0.0059  3.2265
   43SOL  HW2    129   1.749   2.824   1.121 -2.0810 -0.0733 -0.9083
   44SOL  OW     130   0.216   0.265   2.889  0.2112 -0.1153  0.4871
   44SOL  HW1    131   0.168   0.341   2.931 -1.7293  1.2424  0.8042
   44SOL  HW2    132   0.268   0.219   2.961  0.1474 -0.7529  1.4732
   45SOL  OW     133   0.811   1.610   2.206  0.0606 -0.2913 -0.3958
   45SOL  HW1    134   0.726   1.559   2.184 -0.8533  0.2956 -1.7249
   45SOL  HW2    135   0.829   1.688   2.141  1.4835  0.4340  0.1161
   46SOL  OW     136   1.730   1.645   2.174  0.4893 -0.2553  0.0097
   46SOL  HW1    137   1.637   1.688   2.188  0.3155 -0.4392  1.1191
   46SOL  HW2    138   1.719   1.552   2.130 -0.5891  0.3785 -0.9553
   47SOL  OW     139   0.309   2.257   0.932 -0.0584  0.0769 -0.4748
   47SOL  HW1    140   0.323   2.301   1.024  1.6604  0.0561  3.1366
   47SOL  HW2    141   0.219   2.279   0.894 -0.0075 -0.4135  0.5215
   48SOL  OW     142   0.672   2.259   2.766  0.4518 -0.0502  0.2112
   48SOL  HW1    143   0.675   2.353   2.810 -0.8488  0.9426  0.1807
   48SOL  HW2    144   0.618   2.191   2.821  2.7864 -0.5761  0.4792
   49SOL  OW     145   3.074   2.584   2.018  0.0058 -0.8236  0.0638
   49SOL  HW1    146   3.006   2.515   2.044  0.4554 -1.2318  0.2828
   49SOL  HW2    147   3.036   2.665   1.966 -1.3405  0.1151  1.1486
   50SOL  OW     148   0.453   2.572   0.652 -0.2970 -0.3052  1.0699
   50SOL  HW1    149   0.384   2.649   0.668 -0.3864  1.1542 -0.2972
   50SOL  HW2    150   0.512   2.602   0.572  2.2731 -1.0554  0.2402
   51SOL  OW     151   1.369   2.954   0.743 -0.1882  0.0673 -0.3907
   51SOL  HW1    152   1.457   2.919   0.789 -1.4638 -2.7892  3.1778
   51SOL  HW2    153   1.354   2.910   0.652 -0.1798 -1.0533  0.9310
   52SOL  OW     154   0.709   0.952   0.180  0.5901 -0.0775  0.3736
   52SOL  HW1    155   0.678   0.939   0.086  1.6800 -0.3059  1.9794
   52SOL  HW2    156   0.777   1.027   0.183  1.0613 -0.3926  0.9838
   53SOL  OW     157   0.890   2.568   2.503  0.4533  0.0005 -0.1616
   53SOL  HW1    158   0.930   2.473   2.500  0.6492  0.5179  0.3860
   53SOL  HW2    159   0.915   2.609   2.597  0.5972  1.4472  3.6895
   54SOL  OW     160   1.424   1.294   2.839  0.0528 -0.7229  0.1360
   54SOL  HW1    161   1.384   1.233   2.914 -0.8420  0.9690  0.3952
   54SOL  HW2    162   1.493   1.243   2.779  1.0267 -1.0226 -1.3498
   55SOL  OW     163   1.942   0.593   0.288  0.5131 -0.2748 -0.4219
   55SOL  HW1    164   2.007   0.520   0.253  0.7064  1.1526 -0.0209
   55SOL  HW2    165   1.939   0.571   0.387 -0.5181 -1.6046  1.2974
   56SOL  OW     166   1.766   0.612   0.075 -0.1951  1.0926 -0.0620
   56SOL  HW1    167   1.791   0.701   0.040  0.1692  1.3642 -0.1662
   56SOL  HW2    168   1.799   0.601   0.171  2.1026 -2.4780  1.2372
   57SOL  OW     169   2.074   1.071   2.265  0.1531 -0.1087  0.1094
   57SOL  HW1    170   2.158   1.029   2.298 -1.1456  1.7346 -2.8047
   57SOL  HW2    171   2.077   1.092   2.166  1.9242  0.6144 -1.6498
   58SOL  OW     172   0.111   1.007   2.311 -0.4983 -0.5304 -0.0598
   58SOL  HW1    173   0.210   1.019   2.302  2.1424  0.9315  1.6549
   58SOL  HW2    174   0.078   0.919   2.268 -2.5299  0.0160  2.0240
   59SOL  OW     175   0.403   0.442   2.022  0.0475  0.5814 -0.3441
   59SOL  HW1    176   0.466   0.369   1.984  1.4831 -1.9481 -0.9004
   59SOL  HW2    177   0.422   0.529   1.972  2.6232 -0.6850 -1.2412
   60SOL  OW     178   2.566   2.630   2.742 -0.1707  0.0129  0.1410
   60SOL  HW1    179   2.650   2.669   2.708  2.1800 -3.6162 -1.6555
   60SOL  HW2    180   2.584   2.583   2.831  0.9713 -0.2263 -0.9218
   61SOL  OW     181   1.334   3.010   2.881  0.1450  0.1971  0.0291
   61SOL  HW1    182   1.325   2.947   2.797  0.4289  1.2252 -0.2723
   61SOL  HW2    183   1.279   0.001   2.871 -1.2663 -0.8029  0.5492
   62SOL  OW     184   1.348   2.662   2.953  0.0028  0.2559  0.2334
   62SOL  HW1    185   1.441   2.670   2.913 -0.3831 -0.7151 -0.2059
   62SOL  HW2    186   1.342   2.673   3.056  0.6213  2.6089 -0.0564
   63SOL  OW     187   2.447   1.081   0.487 -0.3037  0.0064  0.1381
   63SOL  HW1    188   2.360   1.093   0.440  0.9720  3.3060  1.3959
   63SOL  HW2    189   2.436   1.012   0.565  0.6604 -2.4045  0.7046
   64SOL  OW     190   2.436   1.767   0.595 -0.0737  0.0488 -0.5882
   64SOL  HW1    191   2.467   1.745   0.691  0.4840  2.1363  0.5026
   64SOL  HW2    192   2.351   1.824   0.599  0.9954  1.0020  0.1177
   65SOL  OW     193   0.378   2.502   2.096  0.1320 -0.2065  0.6108
   65SOL  HW1    194   0.463   2.532   2.056 -2.1879 -4.6074  1.7127
   65SOL  HW2    195   0.315   2.575   2.123 -1.5607  0.7178  0.5080
   66SOL  OW     196   0.934   1.261   1.143 -0.1864  0.2661 -0.2377
   66SOL  HW1    197   0.923   1.320   1.223  2.1737  1.0030 -2.1754
   66SOL  HW2    198   0.841   1.228   1.107 -3.0337 -0.9943  0.5175
   67SOL  OW     199   0.353   2.070   1.397 -0.3610  0.4183 -0.0233
   67SOL  HW1    200   0.416   2.148   1.420 -0.0259  0.9882  1.2607
   67SOL  HW2    201   0.267   2.107   1.354  0.1585  2.1509 -0.5656
   68SOL  OW     202   0.551   0.439   1.155  0.0229 -0.0917  0.2500
   68SOL  HW1    203   0.465   0.496   1.159 -0.0191 -1.2704  1.4725
   68SOL  HW2    204   0.625   0.498   1.116  2.2424  2.1577  1.2349
   69SOL  OW     205   2.782   0.807   0.296 -0.4744  0.4662  0.0855
   69SOL  HW1    206   2.878   0.829   0.322  0.7748 -0.8389  0.1486
   69SOL  HW2    207   2.738   0.734   0.355 -0.8914  0.2082  1.6081
   70SOL  OW     208   2.318   0.161   2.681 -0.3175  0.3702  0.4111
   70SOL  HW1    209   2.394   0.184   2.624  0.1425  0.0269  2.0562
   70SOL  HW2    210   2.347   0.104   2.760 -1.4839  2.8778 -0.4343
   71SOL  OW     211   1.501   1.849   1.296 -0.2751 -0.4329  0.0427
   71SOL  HW1    212   1.518   1.760   1.346 -0.4361 -1.2432 -0.1462
   71SOL  HW2    213   1.399   1.863   1.291 -1.7265 -0.4884 -0.4356
   72SOL  OW     214   2.602   2.182   0.472  0.0928  0.5449 -0.2989
   72SOL  HW1    215   2.664   2.103   0.473  1.7725  0.9032 -1.0085
   72SOL  HW2    216   2.560   2.199   0.563  0.0299  0.9719 -1.2562
   73SOL  OW     217   1.782   2.951   0.683  0.1963  0.0938 -0.0157
   73SOL  HW1    218   1.734   3.034   0.643  0.5497  0.8584 -2.0541
   73SOL  HW2    219   1.713   2.902   0.740 -0.9737  0.1778 -0.0904
   74SOL  OW     220   1.826   2.060   2.431  0.4141 -0.4386  0.1372
   74SOL  HW1    221   1.877   2.144   2.466  0.7398 -1.1117  2.4361
   74SOL  HW2    222   1.811   2.065   2.330  0.9596 -0.7316  1.5157
   75SOL  OW     223   1.600   1.271   2.316 -0.6057  0.1505  0.1402
   75SOL  HW1    224   1.554   1.360   2.339  0.1019 -0.1396 -0.0628
   75SOL  HW2    225   1.699   1.286   2.285 -0.2766  0.0797 -1.1963
   76SOL  OW     226   0.323   2.412   1.159  0.1599  0.1807 -0.6773
   76SOL  HW1    227   0.351   2.375   1.254  1.5083 -1.7236  4.6365
   76SOL  HW2    228   0.239   2.462   1.162 -1.7096 -0.9606  2.1792
   77SOL  OW     229   2.989   0.289   1.808 -0.1837 -0.0400 -0.0278
   77SOL  HW1    230   2.989   0.373   1.870  0.4198  1.4698  2.0163
   77SOL  HW2    231   3.070   0.285   1.742  2.4656 -1.3806 -2.0481
   78SOL  OW     232   1.793   0.373   3.023 -0.0500 -0.2134 -0.5394
   78SOL  HW1    233   1.789   0.464   3.070  0.3941  0.6879  1.4058
   78SOL  HW2    234   1.742   0.384   2.939  1.8764 -1.0210  1.2297
   79SOL  OW     235   1.172   0.954   1.029 -0.2785 -0.4588 -0.6452
   79SOL  HW1    236   1.250   0.936   0.970 -0.9158 -0.7472 -0.2492
   79SOL  HW2    237   1.196   1.029   1.097  0.9809  1.6659  1.2444
   80SOL  OW     238   0.987   0.570   1.188 -0.3282  0.2400 -0.5043
   80SOL  HW1    239   0.902   0.590   1.135  0.7125 -2.3245 -2.2841
   80SOL  HW2    240   0.965   0.512   1.273 -2.1011 -0.0376  1.5412
   81SOL  OW     241   3.017   2.306   2.953  0.2930  0.4677  0.5208
   81SOL  HW1    242   0.014   2.286   2.996 -3.6180 -1.5272 -1.1499
   81SOL  HW2    243   3.028   2.344   2.863 -0.4454 -0.2150  1.7040
   82SOL  OW     244   1.797   0.770   0.902  0.3581 -0.2374 -0.0795
   82SOL  HW1    245   1.758   0.722   0.820 -1.3597 -0.3735 -1.7918
   82SOL  HW2    246   1.735   0.843   0.932 -0.1728 -1.5774  1.9402
   83SOL  OW     247   0.174   1.893   0.719  0.0185  0.0650  0.0739
   83SOL  HW1    248   0.079   1.855   0.726  0.0380 -1.1766  0.9227
   83SOL  HW2    249   0.204   1.935   0.807 -3.2025  0.4021 -0.1589
   84SOL  OW     250   3.009   1.842   0.794  0.1599 -0.3821 -0.0830
   84SOL  HW1    251   2.928   1.902   0.780 -0.4608 -0.9958  0.3109
   84SOL  HW2    252   3.068   1.884   0.865 -2.3108 -1.6883  0.6946
   85SOL  OW     253   2.052   1.607   0.514 -0.0144 -0.1158  0.2919
   85SOL  HW1    254   2.107   1.617   0.430  1.2298 -1.2722 -1.8934
   85SOL  HW2    255   2.108   1.564   0.588  1.3508  0.1940 -1.8871
   86SOL  OW     256   1.193   2.017   2.551  0.2307 -0.3987 -0.1086
   86SOL  HW1    257   1.103   2.008   2.604  1.7842 -2.0890  0.1776
   86SOL  HW2    258   1.183   2.059   2.457 -1.5380 -1.6519  0.0029
   87SOL  OW     259   1.833   1.098   1.218  0.1269  0.1034 -0.1177
   87SOL  HW1    260   1.807   1.086   1.317  1.1860 -0.1528  0.6256
   87SOL  HW2    261   1.936   1.091   1.216 -1.4177  1.4056 -1.0600
   88SOL  OW     262   0.263   2.722   0.958 -0.0930 -0.5070  0.8805
   88SOL  HW1    263   0.285   2.711   0.858  0.0125  0.6328 -3.0353
   88SOL  HW2    264   0.202   2.651   0.995  0.6533  2.3249  0.2685
   89SOL  OW     265   0.204   1.195   1.625  0.0439  0.2970  0.2154
   89SOL  HW1    266   0.107   1.195   1.662 -0.5920 -1.2338  0.2172
   89SOL  HW2    267   0.229   1.289   1.586  1.7159  2.1800  0.9090
   90SOL  OW     268   3.035   1.476   0.497  0.0620  0.4537  0.3802
   90SOL  HW1    269   2.997   1.534   0.571 -1.1902 -0.2564 -0.1511
   90SOL  HW2    270   2.966   1.409   0.460  1.9645 -0.8121 -0.1385
   91SOL  OW     271   0.079   1.736   1.288 -0.1194 -0.2764 -0.7930
   91SOL  HW1    272   3.078   1.699   1.273  1.0511 -2.5417  0.8338
   91SOL  HW2    273   0.067   1.811   1.360 -1.0160  0.6596  0.8761
   92SOL  OW     274   2.012   0.738   2.368  0.1451 -0.5439  0.3036
   92SOL  HW1    275   2.052   0.653   2.335  1.5704 -2.9801  1.6708
   92SOL  HW2    276   2.077   0.774   2.437  0.3559  0.3613 -1.0654
   93SOL  OW     277   0.960   2.030   2.701  0.0716  0.1386 -0.1885
   93SOL  HW1    278   0.863   2.016   2.670  0.0060  1.1111 -0.6963
   93SOL  HW2    279   0.970   2.019   2.803 -0.3635 -0.4922  0.2688
   94SOL  OW     280   0.299   0.471   1.577  0.1734  0.6008 -0.1127
   94SOL  HW1    281   0.256   0.564   1.557  0.0102  0.2071 -0.8050
   94SOL  HW2    282   0.400   0.471   1.595  0.8384 -2.0488 -0.1174
   95SOL  OW     283   2.060   2.783   2.059  0.2096  0.1898  0.7001
   95SOL  HW1    284   2.135   2.722   2.037 -0.8218  0.4088 -1.5797
   95SOL  HW2    285   2.021   2.813   1.969  0.2548 -1.5325 -2.6705
   96SOL  OW     286   0.529   0.936   1.870 -0.0512 -0.8964  0.4284
   96SOL  HW1    287   0.562   1.025   1.907 -0.6717 -2.2850 -0.4170
   96SOL  HW2    288   0.530   0.943   1.765 -0.5860  1.9821 -2.0735
   97SOL  OW     289   2.748   0.267   1.668  0.0775 -0.2949  0.0920
   97SOL  HW1    290   2.833   0.272   1.718 -0.6033 -2.2092  0.1650
   97SOL  HW2    291   2.703   0.180   1.682 -0.9745 -1.0539  2.3984
   98SOL  OW     292   0.860   1.843   2.077  0.1332 -0.5787  0.7283
   98SOL  HW1    293   0.899   1.855   1.981  2.2011  0.1462 -0.6414
   98SOL  HW2    294   0.808   1.925   2.110 -1.6528 -1.4330  0.2100
   99SOL  OW     295   3.075   0.768   1.240  0.1871 -0.0584  0.2185
   99SOL  HW1    296   0.024   0.763   1.150  0.0413  0.0928  3.6376
   99SOL  HW2    297   2.982   0.732   1.236 -0.4591  1.3595 -1.0371
  100SOL  OW     298   2.861   2.074   2.958 -0.5308 -0.2390  0.0541
  100SOL  HW1    299   2.922   2.155   2.975 -0.7553 -0.1838  0.1674
  100SOL  HW2    300   2.802   2.094   2.871 -2.7189  0.5005 -2.0655
  101SOL  OW     301   0.793   2.968   3.039 -0.1537 -0.6087 -0.3878
  101SOL  HW1    302   0.698   3.000   3.060 -0.6325 -0.4482  2.3386
  101SOL  HW2    303   0.803   2.934   2.947 -3.1831 -0.5769  1.5311
  102SOL  OW     304   2.276   0.396   0.993  0.4293 -0.0483 -0.0416
  102SOL  HW1    305   2.217   0.425   1.076 -1.7313  3.1354  0.2542
  102SOL  HW2    306   2.365   0.350   1.016 -0.8174 -1.4523 -0.8873
  103SOL  OW     307   2.502   2.595   1.871 -0.2074  0.0027  0.4448
  103SOL  HW1    308   2.504   2.680   1.930  0.5805  2.2869  1.0944
  103SOL  HW2    309   2.461   2.517   1.920 -1.6455  2.1716 -1.7332
  104SOL  OW     310   0.251   2.966   1.050 -0.0831  0.1502  0.0097
  104SOL  HW1    311   0.241   2.871   1.015 -0.1477  1.9072  2.0826
  104SOL  HW2    312   0.222   2.966   1.149  2.8283 -0.5094 -3.5701
  105SOL  OW     313   3.044   1.616   2.690 -0.2328  0.3026  0.0341
  105SOL  HW1    314   0.016   1.574   2.626  0.2940 -0.0373 -0.7489
  105SOL  HW2    315   3.036   1.719   2.676 -2.6536  0.1776  0.9947
  106SOL  OW     316   2.761   3.005   2.835  0.1742  0.3908 -0.0635
  106SOL  HW1    317   2.705   3.021   2.916  0.6642 -2.0100 -1.5490
  106SOL  HW2    318   2.864   3.033   2.845 -0.1849 -2.0178 -0.0068
  107SOL  OW     319   2.420   1.387   0.617  0.1642  0.2555 -0.1812
  107SOL  HW1    320   2.510   1.400   0.659  0.4819 -0.8420 -2.5232
  107SOL  HW2    321   2.427   1.315   0.543  1.0696  0.7959  0.6041
  108SOL  OW     322   2.810   1.984   2.487 -0.8135 -0.1544 -0.7168
  108SOL  HW1    323   2.852   2.031   2.406  0.8234  1.9898 -1.9433
  108SOL  HW2    324   2.728   1.932   2.456  3.0248  0.5721  3.4215
  109SOL  OW     325   2.255   0.444   2.651 -0.0288 -0.0610 -0.4219
  109SOL  HW1    326   2.305   0.518   2.600  1.4286  2.4083 -2.2087
  109SOL  HW2    327   2.283   0.348   2.627  1.2360 -0.7383  1.4600
  110SOL  OW     328   0.806   1.851   0.052  0.1502  0.2101  0.4287
  110SOL  HW1    329   0.830   1.801   0.136 -0.2917 -1.7731  0.1830
  110SOL  HW2    330   0.709   1.882   0.050  0.8165  0.1451 -2.6892
  111SOL  OW     331   2.892   1.617   2.281  0.5946 -0.1397  0.5543
  111SOL  HW1    332   2.802   1.586   2.323  1.6296 -0.1904 -3.2054
  111SOL  HW2    333   2.956   1.543   2.309 -0.9501 -4.6199  1.2794
  112SOL  OW     334   2.174   2.450   0.943 -0.0898  0.0906  0.6207
  112SOL  HW1    335   2.071   2.436   0.947 -2.4272  1.1437 -0.3320
  112SOL  HW2    336   2.207   2.539   0.980  0.7624 -0.2276 -0.1156
  113SOL  OW     337   2.578   2.493   2.985 -0.0616  0.3264 -0.2971
  113SOL  HW1    338   2.511   2.547   3.039 -1.5296  0.7250 -1.5382
  113SOL  HW2    339   2.671   2.479   3.029  1.7037 -0.4102  0.9532
  114SOL  OW     340   0.607   2.123   1.024 -0.4210 -0.2156 -0.1243
  114SOL  HW1    341   0.514   2.150   1.003 -0.4583 -0.2434 -0.3561
  114SOL  HW2    342   0.675   2.163   0.953  2.5489  1.8569 -0.8903
  115SOL  OW     343   3.049   1.216   2.690 -0.1740 -0.7358 -0.3690
  115SOL  HW1    344   2.982   1.211   2.615  1.6896  1.5978  1.0605
  115SOL  HW2    345   3.070   1.313   2.708 -0.4181 -1.9675  0.2171
  116SOL  OW     346   2.762   0.937   2.583 -0.3899  0.3625 -0.0653
  116SOL  HW1    347   2.812   1.017   2.549  1.7396  0.0365  0.2827
  116SOL  HW2    348   2.772   0.912   2.687  0.8464 -1.0457  3.5692
  117SOL  OW     349   2.369   2.905   0.880  0.1360 -0.1557  0.0438
  117SOL  HW1    350   2.302   2.963   0.825 -0.5649  0.8472  0.6477
  117SOL  HW2    351   2.456   2.891   0.829  1.0587  0.4326  0.1092
  118SOL  OW     352   2.079   2.639   2.504 -0.4546  0.1676  0.2094
  118SOL  HW1    353   2.174   2.638   2.549 -0.5099  1.0402  1.9542
  118SOL  HW2    354   2.077   2.718   2.443  0.4096 -1.0512  2.2031
  119SOL  OW     355   2.798   1.203   1.688  0.3642 -0.2472 -0.1231
  119SOL  HW1    356   2.828   1.104   1.678 -2.5817 -1.1601 -0.6756
  119SOL  HW2    357   2.741   1.236   1.609  0.0328 -0.1289 -3.5102
  120SOL  OW     358   0.318   0.564   1.238  1.1090  0.5194 -0.4884
  120SOL  HW1    359   0.243   0.524   1.176 -0.5399 -1.2885 -2.7461
  120SOL  HW2    360   0.277   0.588   1.330  0.5757 -0.9968  1.6556
  121SOL  OW     361   1.903   1.510   0.909 -0.3753  0.2455  0.0756
  121SOL  HW1    362   1.818   1.505   0.851 -0.3292  0.6200 -0.3699
  121SOL  HW2    363   1.873   1.515   1.006  1.2901  1.3676  0.7825
  122SOL  OW     364   2.906   2.597   2.857  0.2048 -0.4243 -0.0294
  122SOL  HW1    365   2.967   2.526   2.818  2.7472 -0.1094  1.1196
  122SOL  HW2    366   2.856   2.653   2.785 -1.1794  0.6654  1.2147
  123SOL  OW     367   2.705   1.170   0.564 -0.5894 -0.1787  0.2222
  123SOL  HW1    368   2.778   1.104   0.590  0.7837  0.8159  0.0322
  123SOL  HW2    369   2.620   1.119   0.529  0.6918 -0.7104 -2.8670
  124SOL  OW     370   2.299   2.122   0.424  0.3316 -0.0803 -0.0499
  124SOL  HW1    371   2.396   2.135   0.450  0.6433 -1.8517  0.0213
  124SOL  HW2    372   2.291   2.105   0.323  0.5717  0.1415 -2.0259
  125SOL  OW     373   2.981   0.029   1.854 -0.3206 -0.0798 -0.0659
  125SOL  HW1    374   2.982   0.130   1.859  0.3056 -2.3083  2.7418
  125SOL  HW2    375   3.070   3.087   1.823 -1.4755 -0.9594  1.0024
  126SOL  OW     376   2.573   3.038   3.090 -0.2593  0.6870  0.2345
  126SOL  HW1    377   2.546   0.047   3.084  0.2018  0.6668 -0.6254
  126SOL  HW2    378   2.512   2.988   0.059 -1.3954 -4.1225  0.8678
  127SOL  OW     379   2.485   1.063   0.035  0.6984  0.3884 -0.1204
  127SOL  HW1    380   2.383   1.071   0.042  0.5356  1.6838  0.9327
  127SOL  HW2    381   2.525   1.033   0.125  0.7939 -0.9901 -0.5865
  128SOL  OW     382   2.859   0.304   1.038 -0.3534  0.3235  0.3656
  128SOL  HW1    383   2.771   0.284   1.077  0.2840 -2.4121 -1.5378
  128SOL  HW2    384   2.898   0.212   1.010 -0.4508 -0.0405 -1.9848
  129SOL  OW     385   2.197   1.396   1.426 -0.1826  0.0917  0.1675
  129SOL  HW1    386   2.215   1.384   1.525 -0.1710 -0.1004 -0.0161
  129SOL  HW2    387   2.119   1.460   1.405  0.7488  2.8164 -0.8663
  130SOL  OW     388   2.070   1.446   0.157 -0.1073  0.4053  0.2053
  130SOL  HW1    389   2.043   1.541   0.173  1.9329 -2.0835  1.8127
  130SOL  HW2    390   2.166   1.432   0.175 -5.4900 -0.2314 -1.1796
  131SOL  OW     391   2.121   1.535   2.419  0.3722  0.3108 -0.1241
  131SOL  HW1    392   2.177   1.484   2.489  1.0272  0.1713  3.8571
  131SOL  HW2    393   2.020   1.545   2.446 -2.8643  0.9339  0.3832
  132SOL  OW     394   1.391   1.347   2.081 -0.4346  0.1196 -0.2551
  132SOL  HW1    395   1.389   1.373   2.180  0.8085  0.3677  2.8694
  132SOL  HW2    396   1.472   1.393   2.031  1.5927 -0.3297 -0.5188
  133SOL  OW     397   0.752   0.302   0.476  0.2939 -0.2540 -0.0338
  133SOL  HW1    398   0.670   0.341   0.522  2.8339  2.6162 -0.3301
  133SOL  HW2    399   0.791   0.371   0.409 -1.2674  0.0897  1.5437
  134SOL  OW     400   0.373   1.054   2.327 -0.0920 -0.1084  0.3713
  134SOL  HW1    401   0.416   1.113   2.252 -0.0374  1.2431 -0.9892
  134SOL  HW2    402   0.404   0.953   2.319  1.1334 -0.5461 -0.5161
  135SOL  OW     403   1.234   0.996   0.664 -0.4033 -0.4610  0.6544
  135SOL  HW1    404   1.289   1.088   0.648  0.6478  3.0786 -2.5752
  135SOL  HW2    405   1.282   0.930   0.730  0.0021  1.0220  0.9382
  136SOL  OW     406   1.728   2.622   1.515 -0.6145  0.7693 -0.0803
  136SOL  HW1    407   1.707   2.583   1.424 -0.9984  1.8217 -0.1306
  136SOL  HW2    408   1.657   2.623   1.583  1.0896 -0.0621 -2.4535
  137SOL  OW     409   2.204   3.028   0.719 -0.1598 -0.1642 -0.4631
  137SOL  HW1    410   2.188   0.011   0.650 -1.0298  3.0433  0.4021
  137SOL  HW2    411   2.125   3.016   0.783 -2.2920 -1.4720  0.7201
  138SOL  OW     412   1.764   0.996   2.077  0.3421  0.9004  0.0346
  138SOL  HW1    413   1.826   0.921   2.103 -2.0491 -1.3101  4.1074
  138SOL  HW2    414   1.675   1.000   2.126 -0.3760 -2.1672 -1.9470
  139SOL  OW     415   0.374   3.078   2.649  0.0413 -0.1710  0.6967
  139SOL  HW1    416   0.396   0.082   2.627 -1.2585  0.3280  0.3738
  139SOL  HW2    417   0.324   3.038   2.568 -0.2457 -0.5055 -0.6386
  140SOL  OW     418   1.520   1.661   2.638 -0.0473  0.0095  0.2429
  140SOL  HW1    419   1.500   1.726   2.563 -0.5635 -0.1785  2.3730
  140SOL  HW2    420   1.480   1.570   2.617  0.1666 -1.4366  2.1172
  141SOL  OW     421   1.519   1.526   2.976 -0.0816  0.1986  0.3537
  141SOL  HW1    422   1.459   1.461   2.924  1.1367  0.1184  0.7236
  141SOL  HW2    423   1.478   1.617   2.973  1.2573 -0.4820 -2.3893
  142SOL  OW     424   1.278   2.363   2.281 -0.3490  0.8337 -0.1524
  142SOL  HW1    425   1.366   2.371   2.339  0.3575 -1.7151 -1.4317
  142SOL  HW2    426   1.285   2.391   2.185 -1.1066  0.6693  3.6632
  143SOL  OW     427   1.357   2.203   0.430 -0.3472  0.1073  0.5133
  143SOL  HW1    428   1.408   2.153   0.505 -0.7558 -1.3347 -0.1073
  143SOL  HW2    429   1.421   2.233   0.355  0.3368 -0.1507  1.2189
  144SOL  OW     430   0.544   2.920   0.422  0.2804  0.5539  0.3374
  144SOL  HW1    431   0.542   2.989   0.500  0.0653  0.3074  1.2133
  144SOL  HW2    432   0.459   2.867   0.411  0.2706 -0.3769 -0.3887
  145SOL  OW     433   1.684   1.862   0.502  0.0317  0.0296 -0.0823
  145SOL  HW1    434   1.780   1.849   0.530 -1.2346 -0.1507 -1.7333
  145SOL  HW2    435   1.652   1.948   0.545 -1.9126 -0.3412 -0.1091
  146SOL  OW     436   2.202   1.839   0.810  0.2372  0.0866  0.0917
  146SOL  HW1    437   2.212   1.871   0.711  0.2101  0.1057 -1.4296
  146SOL  HW2    438   2.105   1.820   0.842 -2.3602 -1.1274  2.3664
  147SOL  OW     439   0.101   1.091   1.934 -0.2170 -0.2881  0.0281
  147SOL  HW1    440   0.175   1.139   1.989 -1.0849  1.8873  0.4250
  147SOL  HW2    441   0.053   1.159   1.878 -1.5802 -0.9504 -0.4409
  148SOL  OW     442   1.304   3.023   0.060  0.2103  0.1460  0.4413
  148SOL  HW1    443   1.315   3.016   3.055  2.3966 -1.7208  1.4444
  148SOL  HW2    444   1.208   3.046   0.080  2.0486 -0.1906  1.4182
  149SOL  OW     445   0.936   2.244   1.988  0.0932  0.0152  0.2405
  149SOL  HW1    446   0.893   2.169   2.038 -2.7275  3.0954 -3.6978
  149SOL  HW2    447   1.020   2.208   1.940 -0.4125  3.2005 -1.0908
  150SOL  OW     448   0.574   2.947   1.837 -0.2113  0.0005 -0.7225
  150SOL  HW1    449   0.661   2.903   1.868 -0.1803 -0.7287  0.4278
  150SOL  HW2    450   0.600   3.031   1.781  3.3807  1.4731 -1.7656
  151SOL  OW     451   0.084   0.695   0.509  0.5351 -0.4628  0.0569
  151SOL  HW1    452   0.039   0.619   0.558  0.8954  0.0761 -0.9372
  151SOL  HW2    453   0.178   0.668   0.474 -1.1784  0.1918 -1.8081
  152SOL  OW     454   2.994   1.519   0.994 -0.0126 -0.0328 -0.0112
  152SOL  HW1    455   3.087   1.483   0.992 -3.5356  2.5662 -1.2626
  152SOL  HW2    456   2.977   1.578   1.080 -1.7031 -1.6010  3.1539
  153SOL  OW     457   0.686   2.516   2.853 -0.4515 -0.2312  0.7495
  153SOL  HW1    458   0.625   2.598   2.863  2.4317 -0.7686  1.0727
  153SOL  HW2    459   0.775   2.543   2.803  2.6457  0.0986 -2.2127
  154SOL  OW     460   0.275   3.092   1.532 -0.3674  0.6530 -0.2962
  154SOL  HW1    461   0.248   0.084   1.489  0.0745  0.7155  0.6777
  154SOL  HW2    462   0.379   3.079   1.525 -1.7252 -1.7862 -0.1730
  155SOL  OW     463   2.448   1.693   0.868 -0.2841 -0.6921  0.3306
  155SOL  HW1    464   2.462   1.600   0.904  0.6713 -2.0912 -0.8611
  155SOL  HW2    465   2.353   1.723   0.877  0.4223  1.3039  1.8674
  156SOL  OW     466   2.387   1.986   0.192 -0.2551  0.4432  0.1956
  156SOL  HW1    467   2.478   1.959   0.240  0.5966 -3.0622 -0.3908
  156SOL  HW2    468   2.412   1.990   0.095 -0.3273  1.1433  1.3463
  157SOL  OW     469   0.163   0.353   2.088  0.0509  0.3574  0.2291
  157SOL  HW1    470   0.156   0.275   2.156  1.1019 -1.8359 -1.6036
  157SOL  HW2    471   0.257   0.394   2.090  2.6511 -0.3365  0.7700
  158SOL  OW     472   0.734   0.501   1.800 -0.0331  0.6556  0.1578
  158SOL  HW1    473   0.672   0.475   1.723  0.0578 -1.0833 -1.9441
  158SOL  HW2    474   0.694   0.581   1.851  0.5575 -1.6404  0.6157
  159SOL  OW     475   1.844   1.212   0.510  0.0360 -0.4620  0.5235
  159SOL  HW1    476   1.910   1.200   0.580 -3.0585  2.3420 -2.0341
  159SOL  HW2    477   1.832   1.309   0.486 -0.7136 -0.0506  0.4435
  160SOL  OW     478   1.430   1.407   0.462  0.2087  0.1860  0.6582
  160SOL  HW1    479   1.480   1.346   0.395 -1.5049  1.0143 -0.3240
  160SOL  HW2    480   1.453   1.504   0.448 -0.2412  0.0434 -2.4418
  161SOL  OW     481   2.801   2.405   3.094  0.2660  0.1074 -0.7516
  161SOL  HW1    482   2.891   2.394   3.040 -0.7796 -2.0047 -0.8621
  161SOL  HW2    483   2.763   2.319   0.025  0.5911 -0.7012 -1.8314
  162SOL  OW     484   0.387   1.558   0.896  0.3353  0.3067 -0.0552
  162SOL  HW1    485   0.395   1.653   0.931 -1.3610  0.8657  0.1926
  162SOL  HW2    486   0.414   1.553   0.798  0.1683  0.3874 -2.2296
  163SOL  OW     487   0.817   1.262   0.717 -0.1984 -0.4068 -0.3398
  163SOL  HW1    488   0.741   1.189   0.734 -1.8026 -1.8499 -2.0249
  163SOL  HW2    489   0.779   1.343   0.671 -0.3067  1.8089  0.6119
  164SOL  OW     490   1.162   2.345   0.159  0.3970  0.3091  0.0444
  164SOL  HW1    491   1.151   2.432   0.106 -2.0144 -1.9529 -0.4435
  164SOL  HW2    492   1.118   2.349   0.247 -1.2459 -2.2761 -1.6411
  165SOL  OW     493   2.575   1.634   1.876  0.5944 -0.3442  0.2369
  165SOL  HW1    494   2.541   1.714   1.817 -0.0076  1.3640  1.3512
  165SOL  HW2    495   2.654   1.659   1.938 -0.3503 -1.0319  0.0527
  166SOL  OW     496   1.549   2.626   1.723 -0.5354  0.3361 -0.3895
  166SOL  HW1    497   1.571   2.694   1.798  0.0611 -2.0862 -0.9604
  166SOL  HW2    498   1.468   2.659   1.676  1.4409  0.6793  1.0305
  167SOL  OW     499   0.379   1.118   2.755 -0.0971 -0.4558 -0.3329
  167SOL  HW1    500   0.358   1.167   2.668  0.4932  0.5517  0.1821
  167SOL  HW2    501   0.393   1.188   2.826 -0.5364 -0.9619 -1.8779
  168SOL  OW     502   2.315   0.301   2.928 -0.3592 -0.8358  0.5330
  168SOL  HW1    503   2.307   0.288   2.824  0.1784 -1.3751 -2.9913
  168SOL  HW2    504   2.224   0.285   2.966  4.1550  0.2873 -0.3741
  169SOL  OW     505   0.613   1.085   0.753 -0.7103 -0.3560  0.2026
  169SOL  HW1    506   0.555   1.017   0.701 -1.3673  0.3196 -1.7004
  169SOL  HW2    507   0.557   1.140   0.817 -0.5142 -2.6725 -0.9493
  170SOL  OW     508   1.690   0.805   1.358  0.1219  0.1019 -0.2160
  170SOL  HW1    509   1.789   0.801   1.335 -0.9736  1.0218 -1.7606
  170SOL  HW2    510   1.637   0.781   1.272 -0.4897 -0.3619  0.4980
  171SOL  OW     511   1.509   0.384   0.518  0.1774  0.7148  0.2335
  171SOL  HW1    512   1.591   0.351   0.462  2.3138 -1.4347 -0.2396
  171SOL  HW2    513   1.431   0.320   0.504 -0.1514  1.3257 -1.8247
  172SOL  OW     514   1.393   0.729   1.343  0.5597  0.0379 -0.0347
  172SOL  HW1    515   1.306   0.757   1.301 -0.4165 -1.2258  2.6639
  172SOL  HW2    516   1.470   0.749   1.282 -1.7562 -1.0200  0.0787
  173SOL  OW     517   0.824   2.260   0.569 -0.1020 -0.3626 -0.2573
  173SOL  HW1    518   0.799   2.328   0.494 -0.2708  0.3683 -3.7119
  173SOL  HW2    519   0.829   2.168   0.533  0.0168  2.2332  0.6314
  174SOL  OW     520   2.904   0.046   0.457 -0.3170  0.3123  0.2844
  174SOL  HW1    521   2.916   0.129   0.398  0.3645 -0.2247  0.2348
  174SOL  HW2    522   2.852   0.064   0.542  1.2782 -0.0454 -0.0736
  175SOL  OW     523   0.409   1.545   0.619 -0.1286 -0.3798  0.5391
  175SOL  HW1    524   0.408   1.597   0.535 -2.1616 -0.2839  2.5188
  175SOL  HW2    525   0.422   1.448   0.595 -0.0011  0.2845 -0.7170
  176SOL  OW     526   0.950   2.229   1.356 -0.4437  0.2820 -0.0032
  176SOL  HW1    527   0.981   2.156   1.296 -2.1071  0.6376 -0.1532
  176SOL  HW2    528   0.850   2.244   1.340  2.6087 -0.5882  1.6664
  177SOL  OW     529   1.819   0.161   0.918  0.1669  0.2448  0.6297
  177SOL  HW1    530   1.881   0.190   0.992  1.1641 -0.5873  1.4638
  177SOL  HW2    531   1.720   0.169   0.943 -3.8321  0.0249 -1.6273
  178SOL  OW     532   2.684   0.864   2.060  0.1178 -0.0390 -0.4991
  178SOL  HW1    533   2.671   0.885   2.156  0.3588 -0.5045 -0.6384
  178SOL  HW2    534   2.786   0.868   2.040  1.8940 -0.3190  0.7547
  179SOL  OW     535   1.018   2.333   2.463 -0.4227 -0.2257  0.5204
  179SOL  HW1    536   1.030   2.319   2.565 -0.3255 -0.5279  0.8618
  179SOL  HW2    537   1.104   2.359   2.414 -0.2224  0.4609  0.0966
  180SOL  OW     538   1.721   0.417   1.138 -0.6572  0.2806 -0.2411
  180SOL  HW1    539   1.798   0.478   1.111  0.2237 -0.7120  1.0967
  180SOL  HW2    540   1.709   0.414   1.239 -1.8946  0.7856 -0.4145
  181SOL  OW     541   1.062   0.227   0.988  0.0852 -0.2942 -0.4823
  181SOL  HW1    542   1.024   0.166   1.062  0.6345 -1.7148  0.5546
  181SOL  HW2    543   1.131   0.287   1.025 -0.0058  1.1321 -0.5513
  182SOL  OW     544   2.756   0.325   3.019 -0.0199 -0.3737 -0.0282
  182SOL  HW1    545   2.740   0.390   0.000  1.1153  0.0459 -0.3514
  182SOL  HW2    546   2.749   0.373   2.929 -1.8932  1.2382 -0.2717
  183SOL  OW     547   2.214   0.121   2.213 -0.6377  0.1062  0.2303
  183SOL  HW1    548   2.254   0.187   2.277 -1.9654  0.2259  2.0621
  183SOL  HW2    549   2.140   0.164   2.162  3.2072 -0.1020 -0.4226
  184SOL  OW     550   1.898   0.499   0.538  0.1963 -0.0112 -0.5360
  184SOL  HW1    551   1.936   0.448   0.613  0.1058  2.7029 -2.0612
  184SOL  HW2    552   1.834   0.571   0.572  0.9792  0.2114 -2.3547
  185SOL  OW     553   2.122   0.448   0.773  0.6895 -0.3057  0.3970
  185SOL  HW1    554   2.046   0.379   0.750 -1.9758 -1.3499 -4.0718
  185SOL  HW2    555   2.183   0.413   0.845 -1.5213 -0.3971 -1.2792
  186SOL  OW     556   1.605   2.214   0.306 -0.2032  0.3458  0.1241
  186SOL  HW1    557   1.634   2.119   0.281  0.0998 -1.2123 -0.7626
  186SOL  HW2    558   1.680   2.254   0.363 -2.0010 -0.1436  1.4621
  187SOL  OW     559   2.350   2.273   2.608 -0.0955 -0.2425  0.1495
  187SOL  HW1    560   2.418   2.261   2.684 -0.4983  0.0243 -0.5649
  187SOL  HW2    561   2.271   2.208   2.618  0.8997 -1.5651 -0.9327
  188SOL  OW     562   0.782   2.967   1.135 -0.4227 -0.0162 -0.1584
  188SOL  HW1    563   0.832   2.906   1.072 -0.5750 -0.4434 -1.0332
  188SOL  HW2    564   0.686   2.988   1.111  0.0013  0.5526  1.5675
  189SOL  OW     565   0.013   1.453   2.334  0.1654 -0.0732  0.4089
  189SOL  HW1    566   3.083   1.355   2.320 -0.8272  1.4291  0.2405
  189SOL  HW2    567   0.070   1.468   2.418  1.9874  0.2111  1.7669
  190SOL  OW     568   0.758   2.585   2.263 -0.3443  0.1154 -0.4252
  190SOL  HW1    569   0.817   2.577   2.349  0.6912 -0.0902 -2.0832
  190SOL  HW2    570   0.814   2.576   2.178  0.8960 -1.7062  0.4443
  191SOL  OW     571   2.490   1.440   1.707  1.0066  0.1940 -0.1746
  191SOL  HW1    572   2.531   1.461   1.617  0.6978  0.4940  2.7601
  191SOL  HW2    573   2.518   1.514   1.775 -2.1957 -0.1664  0.7635
  192SOL  OW     574   2.331   0.682   0.982  0.3381 -0.9503  0.4312
  192SOL  HW1    575   2.358   0.715   1.074 -1.2216 -1.9229 -0.3729
  192SOL  HW2    576   2.307   0.586   0.989 -0.1242  1.2451 -0.5328
  193SOL  OW     577   1.404   1.196   0.639 -0.2465 -0.1392 -0.1232
  193SOL  HW1    578   1.430   1.268   0.572 -0.8005  0.3555 -0.9070
  193SOL  HW2    579   1.375   1.241   0.722  1.8123 -0.7031 -2.0200
  194SOL  OW     580   2.304   2.391   0.720  0.5113 -0.4668  0.3319
  194SOL  HW1    581   2.250   2.335   0.655  1.8818 -1.5160  0.6716
  194SOL  HW2    582   2.252   2.410   0.806  0.6274 -1.5516 -0.7818
  195SOL  OW     583   2.111   1.005   1.223  0.5578 -0.2999  0.2108
  195SOL  HW1    584   2.166   1.067   1.280 -1.3848  0.8949  0.2294
  195SOL  HW2    585   2.157   0.992   1.136 -1.7426 -0.9684 -0.8974
  196SOL  OW     586   0.966   1.976   0.892 -0.0904 -0.1861  0.2676
  196SOL  HW1    587   0.877   1.919   0.878 -1.8265 -0.9661 -2.2490
  196SOL  HW2    588   1.034   1.962   0.817 -0.0990  0.6198  0.8920
  197SOL  OW     589   2.604   2.947   1.514  0.0368  0.5951 -0.3909
  197SOL  HW1    590   2.578   2.849   1.538  1.5680  1.3263  5.0512
  197SOL  HW2    591   2.701   2.947   1.485 -2.1584  2.0180  0.0791
  198SOL  OW     592   2.116   0.395   0.170 -0.3465 -0.0221  0.1595
  198SOL  HW1    593   2.097   0.337   0.089 -1.9773  0.6132  3.4064
  198SOL  HW2    594   2.206   0.443   0.153  0.6419 -0.8841  1.7677
  199SOL  OW     595   2.025   0.430   1.881  0.0958  0.0515  0.2503
  199SOL  HW1    596   2.120   0.402   1.889 -1.0464 -0.1171  1.2556
  199SOL  HW2    597   1.997   0.449   1.784  0.2982  1.0960  1.4832
  200SOL  OW     598   1.770   2.681   0.227 -0.2605 -0.2407 -0.3930
  200SOL  HW1    599   1.733   2.714   0.143  0.3040 -1.1844  2.6354
  200SOL  HW2    600   1.867   2.705   0.245  0.2428 -1.3510  0.6992
  201SOL  OW     601   3.073   3.071   2.126 -0.2596  0.1211 -0.6601
  201SOL  HW1    602   3.003   3.082   2.197  0.7467  2.2844 -2.5590
  201SOL  HW2    603   3.050   0.013   2.035 -0.3780 -1.7206  2.4958
  202SOL  OW     604   2.468   0.561   2.905  0.2476 -0.6341 -0.1630
  202SOL  HW1    605   2.403   0.481   2.891 -0.6270 -2.0957  0.1456
  202SOL  HW2    606   2.427   0.629   2.973  0.1757  0.3806 -0.5785
  203SOL  OW     607   1.604   1.780   0.106 -0.8558  0.1015 -0.4122
  203SOL  HW1    608   1.523   1.760   0.156  4.3217  0.8667  0.1789
  203SOL  HW2    609   1.681   1.712   0.124  1.8976  0.3290  1.6266
  204SOL  OW     610   0.083   1.566   2.100  0.2062 -0.0136  0.1821
  204SOL  HW1    611   3.095   1.578   2.038 -1.9564  1.0389  0.3142
  204SOL  HW2    612   0.055   1.531   2.198 -2.7775 -0.0315  0.8278
  205SOL  OW     613   0.220   0.132   0.413  0.2664 -0.0042 -0.2647
  205SOL  HW1    614   0.181   0.150   0.324  2.1754 -1.9756  2.1140
  205SOL  HW2    615   0.161   0.062   0.463 -1.7699  0.4041  1.3520
  206SOL  OW     616   2.760   0.510   0.121 -0.2845  0.2007 -0.5248
  206SOL  HW1    617   2.751   0.474   0.217  0.1570  0.8617 -0.7935
  206SOL  HW2    618   2.856   0.543   0.104  1.7018  0.3845 -2.6821
  207SOL  OW     619   1.917   1.950   1.815  0.0664  0.4190 -0.2336
  207SOL  HW1    620   1.968   2.031   1.851 -1.2509 -2.7247 -1.1813
  207SOL  HW2    621   1.832   1.937   1.870 -0.6180  2.6203  0.8781
  208SOL  OW     622   2.255   2.971   1.836 -0.3184  0.9584 -0.3298
  208SOL  HW1    623   2.238   3.031   1.757  2.1497 -3.2388  1.0101
  208SOL  HW2    624   2.280   2.877   1.802 -0.1764 -1.6479 -0.7458
  209SOL  OW     625   2.540   0.459   0.793  0.1959 -0.2003  0.1539
  209SOL  HW1    626   2.537   0.388   0.870  2.2430 -1.4317  3.3465
  209SOL  HW2    627   2.461   0.444   0.727  2.4216  0.7958  2.7760
  210SOL  OW     628   3.076   1.816   0.259 -0.3802 -0.2968 -0.1968
  210SOL  HW1    629   0.030   1.843   0.174 -1.6573 -0.0141  0.1737
  210SOL  HW2    630   0.031   1.751   0.309 -0.7798  1.9600  1.8119
  211SOL  OW     631   1.064   2.712   2.243 -0.1569 -0.3569 -0.4472
  211SOL  HW1    632   1.029   2.638   2.180  0.6795 -0.7501 -1.1319
  211SOL  HW2    633   1.108   2.667   2.325 -0.0821 -0.2420  1.0664
  212SOL  OW     634   1.749   1.969   0.935 -0.2969 -0.5946 -0.6205
  212SOL  HW1    635   1.815   2.045   0.905 -0.1626  2.3121  1.1630
  212SOL  HW2    636   1.656   2.014   0.951 -2.2402 -2.1249  1.8060
  213SOL  OW     637   2.712   0.475   2.814 -0.0367 -0.1217 -0.4960
  213SOL  HW1    638   2.618   0.494   2.846 -0.8055 -0.9422  1.1126
  213SOL  HW2    639   2.756   0.559   2.772 -2.0085  0.4006  0.1306
  214SOL  OW     640   0.817   1.141   1.524  0.1656 -0.0215  0.3388
  214SOL  HW1    641   0.794   1.230   1.563  1.0187  0.4074  1.6561
  214SOL  HW2    642   0.900   1.106   1.570 -0.3169  0.7517  1.2313
  215SOL  OW     643   0.806   1.630   0.802 -0.2428 -0.0981 -0.4537
  215SOL  HW1    644   0.755   1.711   0.838 -2.9907 -3.4500 -1.4972
  215SOL  HW2    645   0.775   1.543   0.843 -0.8083 -0.4969 -0.0227
  216SOL  OW     646   0.153   0.136   2.261  0.2951 -0.1335  0.3740
  216SOL  HW1    647   0.248   0.110   2.282  0.1812 -0.1892 -0.9319
  216SOL  HW2    648   0.100   0.055   2.222  2.5797 -1.0053 -0.4880
  217SOL  OW     649   2.915   0.583   1.455 -0.1777  0.1545 -0.0017
  217SOL  HW1    650   2.824   0.626   1.448 -1.1877 -0.8863  0.0912
  217SOL  HW2    651   2.947   0.577   1.552 -1.1668 -0.0998 -1.7597
  218SOL  OW     652   0.166   2.778   1.807  0.7451  0.2459 -0.5531
  218SOL  HW1    653   0.168   2.878   1.784 -0.7375 -0.9074  3.7345
  218SOL  HW2    654   0.100   2.722   1.755 -0.1307  1.0038  0.9397
  219SOL  OW     655   1.896   2.125   0.613 -0.0740 -0.2037 -0.1717
  219SOL  HW1    656   1.938   2.035   0.619 -0.5883  2.7140  2.1970
  219SOL  HW2    657   1.889   2.153   0.709 -0.4606 -3.9716  3.0868
  220SOL  OW     658   2.573   3.003   2.388  0.1570 -0.7653 -0.1561
  220SOL  HW1    659   2.620   3.049   2.462 -1.5123 -2.1115 -1.0058
  220SOL  HW2    660   2.488   2.962   2.429 -0.7803  3.1560 -0.5694
  221SOL  OW     661   0.217   1.540   2.928 -0.3027 -0.3154  0.6151
  221SOL  HW1    662   0.117   1.557   2.934  2.6571 -0.9826  0.0483
  221SOL  HW2    663   0.269   1.607   2.871  1.0341  0.1494 -1.0703
  222SOL  OW     664   2.077   2.060   1.120  0.6137 -0.0397  0.3531
  222SOL  HW1    665   2.013   2.024   1.190  0.7907  0.3373 -0.1782
  222SOL  HW2    666   2.117   2.147   1.147  0.2492 -1.5690  0.5526
  223SOL  OW     667   1.109   0.699   0.061  0.6458  0.0420 -0.0323
  223SOL  HW1    668   1.059   0.673   3.075  0.4047  2.8290  2.7182
  223SOL  HW2    669   1.117   0.614   0.116 -2.1456 -0.3886  0.5411
  224SOL  OW     670   1.226   3.006   1.158  0.1390  0.8493 -0.0820
  224SOL  HW1    671   1.276   2.920   1.178  0.7372  0.0014  0.4307
  224SOL  HW2    672   1.204   3.008   1.057 -1.1236 -0.7963 -1.1654
  225SOL  OW     673   3.066   1.261   1.759  0.1666 -0.1300  0.3039
  225SOL  HW1    674   0.013   1.353   1.729  2.9062  3.1706 -0.9916
  225SOL  HW2    675   2.970   1.252   1.723 -1.8800  1.0429 -2.5540
  226SOL  OW     676   1.697   1.831   1.607  0.1500 -0.3474 -0.0110
  226SOL  HW1    677   1.597   1.848   1.615  1.7587 -2.1228  1.3032
  226SOL  HW2    678   1.752   1.896   1.662  1.5381  2.3381 -0.9407
  227SOL  OW     679   0.056   2.309   0.804 -0.0810  0.0396 -0.4793
  227SOL  HW1    680   0.072   2.247   0.723  0.7559  0.7204 -2.3721
  227SOL  HW2    681   0.032   2.404   0.774 -0.8143  1.2059 -0.6817
  228SOL  OW     682   3.074   1.626   3.021 -0.5727  0.4349 -0.3639
  228SOL  HW1    683   2.981   1.621   3.066 -0.4285 -0.3577 -1.4278
  228SOL  HW2    684   3.073   1.711   2.968 -1.6725  0.3937  0.2672
  229SOL  OW     685   2.684   0.352   0.367  0.3428 -0.6016  0.0933
  229SOL  HW1    686   2.761   0.290   0.330  0.4410 -3.8709  1.4218
  229SOL  HW2    687   2.593   0.320   0.330  0.2775 -0.3588 -1.6868
  230SOL  OW     688   2.457   1.197   1.854  0.4297 -0.0831  0.2655
  230SOL  HW1    689   2.359   1.204   1.889  1.4296  1.7598 -0.3911
  230SOL  HW2    690   2.480   1.276   1.797 -0.0392 -1.8253  2.6922
  231SOL  OW     691   2.298   1.956   1.032  0.3534 -0.1336  0.6634
  231SOL  HW1    692   2.212   2.000   1.066 -0.0238  0.0174  1.7529
  231SOL  HW2    693   2.284   1.928   0.932  1.6353  2.0399  0.5822
  232SOL  OW     694   1.975   1.522   1.376 -0.4942  0.2512 -0.3149
  232SOL  HW1    695   1.901   1.532   1.306 -0.1960  0.1276 -2.1488
  232SOL  HW2    696   2.034   1.605   1.377  0.8550  0.9753 -1.6792
  233SOL  OW     697   0.689   2.858   1.368  0.4954  0.1974 -0.1099
  233SOL  HW1    698   0.747   2.892   1.291  0.1140  0.4573 -0.2766
  233SOL  HW2    699   0.749   2.825   1.445  1.2295 -0.8758  3.7713
  234SOL  OW     700   1.278   1.167   0.157 -0.0024 -0.1936  0.0304
  234SOL  HW1    701   1.235   1.077   0.183 -0.5970  1.6243 -1.3229
  234SOL  HW2    702   1.358   1.189   0.214  0.5697 -1.8411 -1.0768
  235SOL  OW     703   3.025   1.878   2.644  0.2741 -0.4544  0.4723
  235SOL  HW1    704   0.001   1.946   2.631 -2.4638 -1.3685 -0.1796
  235SOL  HW2    705   2.952   1.906   2.578  0.4639  1.4536  1.9099
  236SOL  OW     706   1.716   2.458   2.339  0.2649  0.4774  0.5505
  236SOL  HW1    707   1.717   2.553   2.378 -1.1218  2.7415  1.5210
  236SOL  HW2    708   1.802   2.450   2.283 -0.1977  1.2506  0.4393
  237SOL  OW     709   0.027   2.324   2.381  0.4103 -0.0368  0.2464
  237SOL  HW1    710   0.106   2.283   2.432 -0.2432 -0.3745 -0.4673
  237SOL  HW2    711   3.034   2.345   2.437 -2.6475  1.0132  3.1032
  238SOL  OW     712   1.501   1.058   2.159  0.6792  0.3828 -0.0677
  238SOL  HW1    713   1.502   1.159   2.161  1.0559 -1.4849  0.3679
  238SOL  HW2    714   1.415   1.026   2.194  0.2235  3.8400 -0.1033
  239SOL  OW     715   1.484   2.065   2.096 -0.1246  0.2773 -0.1140
  239SOL  HW1    716   1.460   2.055   2.197  2.4546 -0.3145  1.7484
  239SOL  HW2    717   1.509   2.164   2.080 -1.9478 -0.6328  0.5953
  240SOL  OW     718   2.600   2.863   0.737  0.0236  0.5173 -0.1590
  240SOL  HW1    719   2.617   2.765   0.760 -3.1980  2.1943  0.3850
  240SOL  HW2    720   2.612   2.886   0.636 -0.5115 -1.5910  1.0982
  241SOL  OW     721   2.584   1.078   2.862  0.1196 -0.1825 -0.8179
  241SOL  HW1    722   2.552   1.093   2.957 -0.6342  0.8793 -2.2557
  241SOL  HW2    723   2.638   0.992   2.863  1.2816  0.6835  0.1371
  242SOL  OW     724   0.917   2.764   1.520  0.2630 -0.0886  0.1314
  242SOL  HW1    725   0.960   2.835   1.575 -0.2064 -0.6997 -0.5364
  242SOL  HW2    726   0.962   2.754   1.428  3.1540 -1.2270 -4.8539
  243SOL  OW     727   0.005   1.947   1.062  0.7046  0.5107  0.2364
  243SOL  HW1    728   3.088   1.861   1.115  1.1726  2.3973 -0.9919
  243SOL  HW2    729   3.072   2.025   1.112  1.0555 -1.5296 -1.8056
  244SOL  OW     730   1.320   0.289   2.035  0.0133 -0.0245  0.2044
  244SOL  HW1    731   1.320   0.379   2.083 -1.6908  1.2819 -1.3633
  244SOL  HW2    732   1.410   0.249   2.017 -0.3939  1.2966  1.2098
  245SOL  OW     733   1.226   2.261   0.873 -0.4786  0.2886 -0.1554
  245SOL  HW1    734   1.157   2.272   0.801  1.0312  1.1475 -0.5748
  245SOL  HW2    735   1.241   2.346   0.926 -1.1852  0.0154 -1.1044
  246SOL  OW     736   2.058   0.252   3.048  0.4448  0.2522 -0.6590
  246SOL  HW1    737   2.064   0.163   3.003  2.7587  1.3745 -2.7507
  246SOL  HW2    738   1.971   0.294   3.025  1.6222 -1.3334 -0.7500
  247SOL  OW     739   1.471   0.353   1.598  0.4709  0.4031  0.0007
  247SOL  HW1    740   1.394   0.325   1.661 -0.0102 -1.1545  0.3869
  247SOL  HW2    741   1.556   0.358   1.651 -1.8583  0.1387 -0.9933
  248SOL  OW     742   2.824   2.948   1.349  0.2200  0.7677 -0.0795
  248SOL  HW1    743   2.887   2.878   1.392  1.4422 -0.2192  1.9516
  248SOL  HW2    744   2.878   3.029   1.323 -2.0837  1.6058 -0.7259
  249SOL  OW     745   0.888   0.097   0.576  0.3663  0.0705 -0.1261
  249SOL  HW1    746   0.837   0.182   0.542 -1.0410  2.7918 -1.2667
  249SOL  HW2    747   0.886   0.027   0.504  0.4588 -2.3115  0.7006
  250SOL  OW     748   2.139   3.033   2.407 -0.1862  0.3031 -0.5734
  250SOL  HW1    749   2.162   0.004   2.331  1.2841  0.2832 -0.3814
  250SOL  HW2    750   2.111   3.090   2.486  3.1753  1.0896  0.0453
  251SOL  OW     751   1.332   0.532   0.177 -0.3059 -0.2469  0.3084
  251SOL  HW1    752   1.340   0.610   0.241  2.2275 -1.9814 -0.6603
  251SOL  HW2    753   1.400   0.546   0.103 -0.5758 -1.4341 -1.8729
  252SOL  OW     754   1.220   1.611   2.141 -0.3649  0.0608  0.2201
  252SOL  HW1    755   1.147   1.538   2.152 -0.9224 -2.4817 -1.9054
  252SOL  HW2    756   1.180   1.705   2.157 -0.4885  0.6442  1.6927
  253SOL  OW     757   3.063   2.149   0.346  0.0089  0.1080  0.1537
  253SOL  HW1    758   3.006   2.230   0.332  0.2533 -0.6917  0.8131
  253SOL  HW2    759   0.043   2.147   0.279  1.4798  0.1169  1.0283
  254SOL  OW     760   2.086   0.704   1.567  0.0138 -0.2170  0.2039
  254SOL  HW1    761   2.127   0.755   1.643  0.0074  1.4658 -0.5412
  254SOL  HW2    762   2.057   0.613   1.601 -0.4640 -1.6594 -2.4100
  255SOL  OW     763   0.537   0.216   1.946  0.3828  0.4851  0.0011
  255SOL  HW1    764   0.550   0.165   1.857 -2.6661  1.9381  1.8826
  255SOL  HW2    765   0.628   0.221   1.995  0.7099 -2.1373  1.6937
  256SOL  OW     766   2.240   2.223   2.140  0.2494 -0.2688 -0.0765
  256SOL  HW1    767   2.217   2.126   2.163  0.4121  0.5042 -0.1724
  256SOL  HW2    768   2.210   2.284   2.217 -0.3276 -0.5066  1.1055
  257SOL  OW     769   0.192   2.414   1.926 -0.0002 -0.7519 -0.5095
  257SOL  HW1    770   0.286   2.456   1.947  0.7288 -2.1733 -0.1620
  257SOL  HW2    771   0.127   2.455   1.991  1.4144  0.7481 -3.4914
  258SOL  OW     772   1.401   2.164   1.338 -0.4042  0.0242 -0.6298
  258SOL  HW1    773   1.358   2.137   1.251  0.4776 -0.2220 -1.3131
  258SOL  HW2    774   1.407   2.265   1.338  0.8233  0.1554 -1.0685
  259SOL  OW     775   1.029   3.039   0.097 -0.2876  0.3083  0.1016
  259SOL  HW1    776   0.952   3.005   0.043  0.0597  1.4288  2.3674
  259SOL  HW2    777   1.035   0.044   0.087  1.1055  0.4825  0.0927
  260SOL  OW     778   0.672   0.139   0.834  0.4984  0.0244 -0.0953
  260SOL  HW1    779   0.591   0.171   0.889  0.0554 -0.0093  2.7028
  260SOL  HW2    780   0.733   0.220   0.832 -0.3160  0.9180  2.1790
  261SOL  OW     781   0.923   0.746   2.592  0.7453  0.7591  0.1948
  261SOL  HW1    782   0.928   0.841   2.554 -2.3342 -0.2108  1.1833
  261SOL  HW2    783   0.828   0.729   2.631  1.5056 -0.5821 -0.5010
  262SOL  OW     784   1.465   2.727   2.194 -0.1869  0.3636  0.2430
  262SOL  HW1    785   1.524   2.762   2.264  0.8191 -2.9574 -2.0141
  262SOL  HW2    786   1.379   2.776   2.193 -0.4945  1.0959 -1.0617
  263SOL  OW     787   0.683   2.347   0.169 -0.0622  0.6003 -0.2971
  263SOL  HW1    788   0.711   2.400   0.088  0.6087 -1.0539  0.8589
  263SOL  HW2    789   0.723   2.385   0.253  2.3981 -1.1815 -3.8835
  264SOL  OW     790   1.532   1.216   0.281  0.3575 -0.1681 -0.0626
  264SOL  HW1    791   1.579   1.271   0.213  0.0601 -0.6926  1.3239
  264SOL  HW2    792   1.591   1.138   0.304 -2.1123  2.9852 -0.0265
  265SOL  OW     793   0.991   3.031   2.811 -0.1620  0.1706 -0.0784
  265SOL  HW1    794   0.902   3.061   2.782 -1.2366 -1.4194  1.0533
  265SOL  HW2    795   1.053   0.007   2.850 -1.8592 -2.2330 -2.8338
  266SOL  OW     796   2.392   1.033   1.649 -0.7437 -0.2529  0.6835
  266SOL  HW1    797   2.414   1.096   1.730  0.9408  1.2182  1.6764
  266SOL  HW2    798   2.464   0.962   1.619  2.3800 -0.8614 -0.8338
  267SOL  OW     799   0.055   1.051   0.229 -0.5140  0.2762 -0.2539
  267SOL  HW1    800   0.150   1.046   0.195 -0.5707 -0.9717  0.7435
  267SOL  HW2    801   0.029   0.979   0.301 -0.1889 -1.0128 -1.5207
  268SOL  OW     802   0.866   0.935   0.619 -0.2519  0.1018 -0.3324
  268SOL  HW1    803   0.853   0.857   0.554  0.6480 -2.3430 -1.7213
  268SOL  HW2    804   0.777   0.963   0.657 -2.3261 -0.5954 -2.1905
  269SOL  OW     805   2.783   0.487   2.376  0.0474  0.2633 -0.2627
  269SOL  HW1    806   2.801   0.390   2.347  1.2654 -3.3058  0.2341
  269SOL  HW2    807   2.829   0.548   2.305 -1.0813  0.0510  0.0758
  270SOL  OW     808   2.378   0.762   3.091  0.5488  0.1752 -0.1168
  270SOL  HW1    809   2.329   0.827   3.026  1.7491 -0.7653  1.4230
  270SOL  HW2    810   2.464   0.804   0.019 -4.9940 -0.2196 -0.0744
  271SOL  OW     811   2.805   1.991   2.089 -0.0132  0.0437  0.6011
  271SOL  HW1    812   2.869   2.036   2.153 -3.7975 -0.9610  0.4441
  271SOL  HW2    813   2.711   2.013   2.114 -0.4383  0.2760  0.7214
  272SOL  OW     814   1.921   2.250   1.795  0.7905  0.2130  0.2228
  272SOL  HW1    815   1.940   2.329   1.734 -1.0748 -0.0399 -2.2136
  272SOL  HW2    816   1.821   2.221   1.766 -2.3083 -0.9333 -0.8864
  273SOL  OW     817   0.400   2.519   0.129  0.0271 -0.4409 -0.1216
  273SOL  HW1    818   0.487   2.502   0.179  1.0097  1.3112  1.5794
  273SOL  HW2    819   0.324   2.536   0.195 -2.1356 -0.8551  1.9211
  274SOL  OW     820   0.547   0.004   1.457  0.1802  0.5480  0.6680
  274SOL  HW1    821   0.590   3.011   1.428 -1.9413 -2.4127 -1.5232
  274SOL  HW2    822   0.592   0.079   1.408  1.6037  0.5286 -0.8276
  275SOL  OW     823   1.434   2.355   2.678 -0.5301  0.6333  0.0395
  275SOL  HW1    824   1.384   2.437   2.674  1.7667 -1.6420 -0.0311
  275SOL  HW2    825   1.371   2.279   2.709  1.4875 -2.1846  1.6046
  276SOL  OW     826   2.652   1.260   1.468 -0.5055  0.0764 -0.0821
  276SOL  HW1    827   2.586   1.339   1.465 -1.0176  3.2178 -0.7613
  276SOL  HW2    828   2.638   1.193   1.393  0.7779 -0.1025  2.8092
  277SOL  OW     829   2.464   0.294   0.215 -0.1441 -0.1418  0.1184
  277SOL  HW1    830   2.511   0.251   0.133  0.1167 -1.8423  0.2505
  277SOL  HW2    831   2.409   0.377   0.191 -1.4937 -0.8252 -1.0866
  278SOL  OW     832   0.832   0.392   2.644 -0.1813  0.2224 -0.1825
  278SOL  HW1    833   0.826   0.402   2.748  1.6403 -0.8849  0.4109
  278SOL  HW2    834   0.919   0.428   2.606  0.0980 -0.4108  0.9240
  279SOL  OW     835   1.845   2.293   1.247 -0.1631 -0.6542  0.1985
  279SOL  HW1    836   1.911   2.289   1.326 -2.7111 -0.8966 -0.2776
  279SOL  HW2    837   1.772   2.220   1.269 -2.3043 -1.6213 -0.1575
  280SOL  OW     838   2.015   1.160   0.943 -0.1646  0.1683 -0.2511
  280SOL  HW1    839   2.055   1.215   1.020  0.5240 -0.2173 -1.2259
  280SOL  HW2    840   2.052   1.066   0.949 -0.6110  2.6190  1.8058
  281SOL  OW     841   1.174   2.116   0.045  0.3489  0.2994 -0.6378
  281SOL  HW1    842   1.164   2.210   0.089  0.9209  1.5839  2.2288
  281SOL  HW2    843   1.194   2.050   0.121 -1.5971  0.3909 -0.5289
  282SOL  OW     844   2.537   0.710   0.822 -0.7125 -0.0649  0.0139
  282SOL  HW1    845   2.565   0.611   0.801  1.6978 -3.8122  0.5489
  282SOL  HW2    846   2.460   0.708   0.885  2.4405 -0.7827 -2.4027
  283SOL  OW     847   2.130   2.400   2.334  0.1176  0.4230  0.2627
  283SOL  HW1    848   2.131   2.493   2.369 -0.4161 -0.7511 -1.3522
  283SOL  HW2    849   2.071   2.334   2.384 -0.8295 -1.5406  0.0397
  284SOL  OW     850   0.725   0.674   2.236  0.1182 -0.1856 -0.3478
  284SOL  HW1    851   0.737   0.578   2.271 -0.4312 -0.6810 -0.7736
  284SOL  HW2    852   0.817   0.719   2.229  0.4099 -0.2161  0.1331
  285SOL  OW     853   1.980   1.752   2.970  0.0774 -0.0317  0.1677
  285SOL  HW1    854   2.062   1.729   2.915  2.2927  0.4699  0.2620
  285SOL  HW2    855   1.900   1.690   2.967 -1.0326 -0.1996  0.3168
  286SOL  OW     856   1.187   2.635   1.876 -0.2500 -0.5049  0.2083
  286SOL  HW1    857   1.236   2.618   1.965 -0.8203 -1.6352  0.9185
  286SOL  HW2    858   1.186   2.548   1.820 -2.4211 -2.7435  1.2102
  287SOL  OW     859   1.830   0.172   1.354 -0.8973  0.1511  0.1412
  287SOL  HW1    860   1.776   0.088   1.346  0.8660 -2.3394  0.9256
  287SOL  HW2    861   1.770   0.253   1.370  2.9434 -1.8528 -1.0526
  288SOL  OW     862   0.644   0.220   2.581 -0.1255 -0.1078  0.1209
  288SOL  HW1    863   0.559   0.243   2.621 -2.1723 -2.3708 -3.5641
  288SOL  HW2    864   0.716   0.288   2.605  3.1179  0.1184 -2.4239
  289SOL  OW     865   2.194   1.099   0.013 -0.1445  0.5162 -0.1209
  289SOL  HW1    866   2.185   1.196   3.085  1.1399 -0.1344 -0.9218
  289SOL  HW2    867   2.107   1.060   0.047 -1.2345  1.1407 -2.5267
  290SOL  OW     868   0.365   1.527   1.750 -0.3938  0.4489  0.0612
  290SOL  HW1    869   0.465   1.492   1.739  4.8581  1.1849  3.0409
  290SOL  HW2    870   0.372   1.630   1.743 -1.9031  0.9260  0.4098
  291SOL  OW     871   1.422   0.337   2.640  0.0111 -0.0269 -0.0085
  291SOL  HW1    872   1.490   0.263   2.621  0.3556 -1.3669 -2.1022
  291SOL  HW2    873   1.411   0.411   2.566 -0.6370  2.1208  0.4154
  292SOL  OW     874   0.557   0.278   1.364  0.3182  0.2953 -0.0438
  292SOL  HW1    875   0.582   0.346   1.291 -1.0484 -0.8248 -1.0872
  292SOL  HW2    876   0.458   0.256   1.357 -0.3345  0.5131  0.1240
  293SOL  OW     877   2.033   0.715   0.753 -0.6799 -0.1152 -0.2491
  293SOL  HW1    878   2.059   0.617   0.766 -1.3304  0.9785  2.4743
  293SOL  HW2    879   1.957   0.744   0.816 -0.7607  0.8145 -0.8666
  294SOL  OW     880   3.067   0.327   2.332  0.2877  0.0387  0.4675
  294SOL  HW1    881   0.032   0.257   2.294 -0.5107  0.0716  1.7007
  294SOL  HW2    882   2.972   0.292   2.342  1.2148  0.2670 -0.0012
  295SOL  OW     883   0.424   1.190   0.929 -0.2965 -0.2404  0.3671
  295SOL  HW1    884   0.360   1.129   0.979 -1.1295 -2.7115  1.6859
  295SOL  HW2    885   0.394   1.288   0.925 -0.1229  2.6668 -0.8238
  296SOL  OW     886   2.995   2.163   1.170  0.0023  0.0955 -0.1324
  296SOL  HW1    887   2.923   2.116   1.226  2.0365  2.1971 -2.1269
  296SOL  HW2    888   2.953   2.226   1.100 -0.5334 -2.6041  1.1709
  297SOL  OW     889   1.645   1.176   2.685 -0.2330  0.2617  0.3015
  297SOL  HW1    890   1.724   1.237   2.669 -1.7898 -1.2094 -2.0918
  297SOL  HW2    891   1.616   1.135   2.598  0.1241  0.9652  1.5740
  298SOL  OW     892   0.344   0.455   0.035 -0.2264  0.6361 -0.1325
  298SOL  HW1    893   0.388   0.539   0.002 -0.6204  0.7666 -0.3275
  298SOL  HW2    894   0.246   0.442   0.008 -2.5568 -1.0234  0.1001
  299SOL  OW     895   1.228   0.601   2.265 -0.2783  0.5687  0.0360
  299SOL  HW1    896   1.294   0.609   2.187  1.5167  0.9362 -0.0798
  299SOL  HW2    897   1.151   0.535   2.249  1.4712  2.2456  0.2803
  300SOL  OW     898   2.388   3.073   2.057  0.0130 -0.0445 -0.6002
  300SOL  HW1    899   2.327   0.029   2.123  0.7703  0.9973 -1.1579
  300SOL  HW2    900   2.333   3.051   1.971 -0.4015  1.5503 -1.0913
  301SOL  OW     901   2.194   0.840   2.007 -0.6799 -0.2449 -0.4876
  301SOL  HW1    902   2.208   0.756   1.956 -0.6187  0.7401 -0.1903
  301SOL  HW2    903   2.282   0.890   2.017 -2.6005 -1.2464  1.9766
  302SOL  OW     904   1.157   2.614   1.449 -0.1855 -0.9241  0.1948
  302SOL  HW1    905   1.077   2.569   1.492  0.0429  2.3023  0.4613
  302SOL  HW2    906   1.126   2.670   1.367  1.3624 -0.3113  0.4223
  303SOL  OW     907   0.941   2.688   1.781 -0.3100 -0.6227  0.4732
  303SOL  HW1    908   1.037   2.706   1.814 -0.9949  0.8132  1.8574
  303SOL  HW2    909   0.936   2.676   1.676  0.3274 -0.8149 -1.0223
  304SOL  OW     910   0.112   2.135   0.600  0.2979  0.0972  0.2966
  304SOL  HW1    911   0.054   2.121   0.518  0.6256 -1.1148  0.8148
  304SOL  HW2    912   0.147   2.048   0.638  0.5487 -1.8009 -1.1022
  305SOL  OW     913   1.434   1.572   0.732  0.1000 -0.7267  0.2034
  305SOL  HW1    914   1.403   1.475   0.742  1.4145 -1.5183  1.5400
  305SOL  HW2    915   1.419   1.623   0.815 -0.3326  0.0686 -0.2656
  306SOL  OW     916   0.417   0.709   3.091 -0.3580 -0.2294 -0.3314
  306SOL  HW1    917   0.438   0.731   0.098  2.2176 -0.7573  2.2699
  306SOL  HW2    918   0.341   0.763   3.051  2.9393 -2.5637  1.5633
  307SOL  OW     919   0.620   1.407   1.699  0.1412  0.3888 -0.2285
  307SOL  HW1    920   0.605   1.423   1.600  2.1485 -3.0161  0.7299
  307SOL  HW2    921   0.715   1.417   1.722 -0.8619 -0.1597 -1.9255
  308SOL  OW     922   0.824   0.351   0.895  0.0835  0.6385 -0.3016
  308SOL  HW1    923   0.908   0.305   0.925  0.1345  0.6302  0.1711
  308SOL  HW2    924   0.810   0.437   0.947  0.2151 -1.0850 -2.2886
  309SOL  OW     925   1.321   1.018   2.527  0.7489  0.3886  0.3146
  309SOL  HW1    926   1.288   1.023   2.432  0.9565  1.0341 -0.2102
  309SOL  HW2    927   1.419   1.048   2.541 -1.5758  1.1112  0.9439
  310SOL  OW     928   1.055   0.515   0.750 -0.1627  0.0119 -0.3735
  310SOL  HW1    929   1.053   0.548   0.658  2.1845 -0.6724  1.5751
  310SOL  HW2    930   1.072   0.416   0.750 -0.2515  0.5530 -0.2679
  311SOL  OW     931   1.288   1.644   1.883 -0.3640  0.7998 -0.0461
  311SOL  HW1    932   1.285   1.613   1.983 -1.0637  0.2454  0.9863
  311SOL  HW2    933   1.387   1.648   1.864  0.0954 -1.0053 -3.1519
  312SOL  OW     934   2.348   2.863   2.489 -0.1851 -0.2089  0.0443
  312SOL  HW1    935   2.276   2.922   2.450 -0.5088 -0.0293  1.7483
  312SOL  HW2    936   2.336   2.870   2.587  0.3569  1.7342 -3.0561
  313SOL  OW     937   0.597   0.014   0.606  0.3290 -0.3242 -0.3002
  313SOL  HW1    938   0.637   0.047   0.695 -1.7578 -0.6093  1.8053
  313SOL  HW2    939   0.549   0.096   0.563 -0.5234  1.2236  0.7140
  314SOL  OW     940   2.304   1.932   2.811 -0.5157 -0.1401  0.3675
  314SOL  HW1    941   2.239   2.005   2.792  0.6243 -1.2633 -0.5880
  314SOL  HW2    942   2.366   1.952   2.890  1.1755 -1.0493 -1.5982
  315SOL  OW     943   1.715   0.882   1.846  0.5316  0.0605  0.4817
  315SOL  HW1    944   1.699   0.946   1.764 -0.9392 -0.2827 -2.9757
  315SOL  HW2    945   1.756   0.939   1.919  1.4762 -1.6685 -0.1283
  316SOL  OW     946   0.193   0.888   0.684  0.1680 -0.6662 -0.3303
  316SOL  HW1    947   0.260   0.839   0.738 -3.4368  1.3781  0.7188
  316SOL  HW2    948   0.146   0.831   0.618  1.6237  2.0823 -0.1210
  317SOL  OW     949   0.924   1.117   0.192  0.0386  0.2150 -0.0427
  317SOL  HW1    950   0.929   1.196   0.258 -1.1712 -2.7903 -0.1968
  317SOL  HW2    951   0.999   1.049   0.199 -1.7642 -1.9861 -1.0412
  318SOL  OW     952   2.728   2.575   1.730 -0.0393  0.5124  0.4797
  318SOL  HW1    953   2.731   2.488   1.682  0.6117 -0.9243 -0.4007
  318SOL  HW2    954   2.647   2.580   1.792 -2.2725  2.2623  0.1729
  319SOL  OW     955   2.231   1.781   0.253 -0.2453 -0.2922  0.2218
  319SOL  HW1    956   2.279   1.869   0.235 -0.4719  1.4122  1.2238
  319SOL  HW2    957   2.288   1.712   0.309 -0.0022  0.7735 -0.1351
  320SOL  OW     958   0.596   0.467   1.561  0.0936 -0.4106  0.1797
  320SOL  HW1    959   0.588   0.387   1.497 -0.1231 -2.0644  0.8516
  320SOL  HW2    960   0.636   0.550   1.517  0.4670  1.8533 -1.0248
  321SOL  OW     961   2.264   2.616   2.016  0.2385 -0.0510  0.3458
  321SOL  HW1    962   2.340   2.678   2.045  0.7555  2.3127 -1.2244
  321SOL  HW2    963   2.292   2.521   1.991  1.0326  2.4593 -0.5139
  322SOL  OW     964   0.383   2.589   2.660  0.1160 -0.1162  0.1370
  322SOL  HW1    965   0.433   2.639   2.733 -0.1421 -1.0121 -0.4367
  322SOL  HW2    966   0.420   2.499   2.637 -2.2553  2.7716  2.0952
  323SOL  OW     967   2.263   0.575   1.405  0.0372 -0.0918  0.0391
  323SOL  HW1    968   2.293   0.497   1.461 -1.8574  2.6036  0.2203
  323SOL  HW2    969   2.206   0.638   1.465  2.0838 -0.9166 -0.1197
  324SOL  OW     970   1.958   1.152   1.933 -0.3608  0.1901 -0.3057
  324SOL  HW1    971   1.925   1.157   1.838 -2.4272 -1.4084 -0.4226
  324SOL  HW2    972   1.895   1.107   1.999 -0.9073  3.0863 -0.2775
  325SOL  OW     973   2.009   0.961   2.684 -0.0239 -0.7514  0.3605
  325SOL  HW1    974   1.934   0.956   2.612  0.0810 -0.2438 -0.6549
  325SOL  HW2    975   1.993   0.898   2.763 -0.5268  1.9659 -1.4829
  326SOL  OW     976   2.674   1.410   0.716 -0.2877 -0.5200  0.2416
  326SOL  HW1    977   2.749   1.483   0.708  1.3500  2.1264  0.8704
  326SOL  HW2    978   2.703   1.320   0.674  0.8275 -1.9551 -1.7650
  327SOL  OW     979   3.016   3.076   2.829 -0.3149  0.1639 -0.2054
  327SOL  HW1    980   3.047   2.979   2.810 -0.0800 -0.7104 -3.2882
  327SOL  HW2    981   3.057   0.049   2.758  1.4636  2.9703  1.2799
  328SOL  OW     982   1.892   0.614   1.133  0.5339 -0.0068 -0.6895
  328SOL  HW1    983   1.834   0.666   1.067  2.7790 -1.0081  0.6048
  328SOL  HW2    984   1.917   0.681   1.208 -0.6994  0.9406 -1.1974
  329SOL  OW     985   2.651   0.547   1.249  0.4456 -0.2719 -0.0949
  329SOL  HW1    986   2.577   0.619   1.235  0.5533 -1.3991 -0.0169
  329SOL  HW2    987   2.623   0.476   1.316 -1.1740  0.6335 -3.0096
  330SOL  OW     988   2.529   0.979   1.341  0.5841  0.0131  0.2950
  330SOL  HW1    989   2.581   1.031   1.270  2.4717  3.9415  0.7119
  330SOL  HW2    990   2.433   1.017   1.349 -3.4433  1.2646  0.8740
  331SOL  OW     991   0.708   2.414   1.598  0.2141  0.2696  0.3577
  331SOL  HW1    992   0.633   2.479   1.581  2.1197  1.1241  1.2195
  331SOL  HW2    993   0.708   2.386   1.697 -0.0190  0.8886 -1.6040
  332SOL  OW     994   1.662   2.180   1.749 -0.3929  0.1780  0.4438
  332SOL  HW1    995   1.623   2.120   1.680 -1.7263  0.0410 -1.8074
  332SOL  HW2    996   1.609   2.267   1.746 -1.9374 -4.6005  0.1965
  333SOL  OW     997   2.776   0.125   0.669 -0.2740  0.4886  0.2273
  333SOL  HW1    998   2.812   0.219   0.690 -1.9926 -0.7324 -2.4240
  333SOL  HW2    999   2.731   0.078   0.747 -0.2468  1.6254 -1.3145
  334SOL  OW    1000   2.847   1.443   1.388  0.1565 -0.1020 -0.0177
  334SOL  HW1   1001   2.931   1.390   1.380  0.2277 -0.6290 -0.5139
  334SOL  HW2   1002   2.766   1.383   1.404 -0.2415  0.8508 -0.4950
  335SOL  OW    1003   0.907   0.397   1.962 -0.0385  0.3967 -0.2198
  335SOL  HW1   1004   0.845   0.451   1.901  0.5103 -0.7646 -0.2958
  335SOL  HW2   1005   0.854   0.327   2.018  1.7767 -0.5508 -2.0712
  336SOL  OW    1006   0.143   3.047   1.758 -0.0508  0.0117  0.1335
  336SOL  HW1   1007   0.187   0.017   1.820  1.3565  0.0108 -1.0980
  336SOL  HW2   1008   0.175   3.064   1.664  2.2834  1.2358 -2.0593
  337SOL  OW    1009   0.635   1.873   1.875  0.6298 -0.0451 -0.5544
  337SOL  HW1   1010   0.586   1.963   1.868  0.3926  1.5235 -2.0322
  337SOL  HW2   1011   0.615   1.832   1.966 -1.6487  3.4536 -0.2555
  338SOL  OW    1012   1.143   2.111   2.300  0.6857 -0.1258 -0.3106
  338SOL  HW1   1013   1.188   2.198   2.274  0.5585 -2.1700  0.3140
  338SOL  HW2   1014   1.048   2.115   2.325 -0.3810 -1.9432 -3.5794
  339SOL  OW    1015   2.283   1.641   0.015  0.5753  0.0456  0.1730
  339SOL  HW1   1016   2.243   1.704   0.087 -0.1386  1.7157  0.5495
  339SOL  HW2   1017   2.242   1.654   3.017 -1.0573  0.3518 -1.7011
  340SOL  OW    1018   1.486   3.043   1.847  0.5877  0.0551 -0.3428
  340SOL  HW1   1019   1.479   0.025   1.910 -0.5946 -1.0766 -0.9313
  340SOL  HW2   1020   1.547   3.060   1.768 -1.3544  2.8840  2.7484
  341SOL  OW    1021   2.225   1.241   2.000 -0.2564  0.0314  0.1726
  341SOL  HW1   1022   2.212   1.318   2.066  0.7570 -0.8485 -1.6952
  341SOL  HW2   1023   2.140   1.202   1.969  1.7953 -0.6515  2.4392
  342SOL  OW    1024   2.392   1.874   2.566 -0.0600 -0.4319  0.3567
  342SOL  HW1   1025   2.292   1.862   2.534 -2.3592  0.0056 -0.7350
  342SOL  HW2   1026   2.391   1.886   2.666  0.1927 -1.9540 -1.2346
  343SOL  OW    1027   0.227   2.684   1.320  0.3353  0.5292 -0.0738
  343SOL  HW1   1028   0.328   2.682   1.314  3.9826 -1.4127 -1.6255
  343SOL  HW2   1029   0.191   2.777   1.289 -0.0586  0.7075 -1.6587
  344SOL  OW    1030   2.599   2.542   1.327 -0.1102 -0.0356  0.2250
  344SOL  HW1   1031   2.583   2.588   1.415  2.3168 -1.3044  0.0362
  344SOL  HW2   1032   2.702   2.529   1.303  0.4827  0.2229 -0.6072
  345SOL  OW    1033   2.006   2.769   3.062 -0.1814  0.1713 -0.2158
  345SOL  HW1   1034   1.906   2.770   3.059  3.9153  1.0771  1.2029
  345SOL  HW2   1035   2.038   2.791   0.061 -1.8757 -1.4574  2.9070
  346SOL  OW    1036   1.785   1.540   1.152 -0.5886 -0.5271 -0.0904
  346SOL  HW1   1037   1.720   1.467   1.186 -1.2609  0.2211 -1.3055
  346SOL  HW2   1038   1.731   1.621   1.120 -2.0900 -2.8945 -1.4259
  347SOL  OW    1039   1.353   2.859   2.639 -0.1194  0.1671 -0.3650
  347SOL  HW1   1040   1.268   2.891   2.596  0.8295 -1.2835  0.9052
  347SOL  HW2   1041   1.434   2.892   2.585 -0.5886  0.8187 -0.4107
  348SOL  OW    1042   0.540   2.550   1.080  0.2503 -0.0446 -0.2431
  348SOL  HW1   1043   0.462   2.484   1.097 -0.7102  1.0603 -0.7677
  348SOL  HW2   1044   0.503   2.626   1.024 -2.4301 -0.5659  0.9434
  349SOL  OW    1045   1.038   0.629   1.950 -0.3033 -0.3648  0.0053
  349SOL  HW1   1046   1.017   0.531   1.947 -0.5667 -0.2888 -0.3127
  349SOL  HW2   1047   1.016   0.669   2.043  0.0394 -0.9913  0.8979
  350SOL  OW    1048   2.729   1.800   1.178  0.2701  0.1982  0.1293
  350SOL  HW1   1049   2.648   1.753   1.213  2.9351  1.8053 -1.3147
  350SOL  HW2   1050   2.713   1.839   1.086  0.1349  0.2086  1.8063
  351SOL  OW    1051   1.005   0.298   1.713  0.4503  0.0126  0.0420
  351SOL  HW1   1052   1.008   0.366   1.637  0.1865  0.2093 -0.3518
  351SOL  HW2   1053   0.976   0.337   1.799  0.7712 -3.1189 -1.3455
  352SOL  OW    1054   0.500   1.011   0.384  0.2524  0.0199  0.0352
  352SOL  HW1   1055   0.476   1.108   0.360 -0.8978 -1.8487  0.4023
  352SOL  HW2   1056   0.589   0.996   0.338 -0.6434  0.0139  0.3137
  353SOL  OW    1057   0.607   1.525   2.749  0.2487  0.2151 -0.3341
  353SOL  HW1   1058   0.659   1.560   2.827 -1.6814 -0.9183 -1.0366
  353SOL  HW2   1059   0.536   1.466   2.785  1.1664  3.4570 -1.2284
  354SOL  OW    1060   1.291   2.733   1.640  0.1908  0.2643  0.3362
  354SOL  HW1   1061   1.260   2.731   1.733  0.9142  0.0425 -2.3091
  354SOL  HW2   1062   1.227   2.683   1.578  0.3202 -0.8567  1.2663
  355SOL  OW    1063   1.627   0.976   2.886  0.0684 -0.3797  0.0848
  355SOL  HW1   1064   1.533   0.979   2.925 -0.4114  0.2867 -0.8648
  355SOL  HW2   1065   1.647   1.052   2.817  1.5783  1.1673 -2.6107
  356SOL  OW    1066   1.228   1.974   1.472  0.5394 -0.2409 -0.5842
  356SOL  HW1   1067   1.301   2.036   1.443 -3.4477 -2.1713  0.0410
  356SOL  HW2   1068   1.219   1.886   1.422 -0.2507 -0.9172  3.2833
  357SOL  OW    1069   3.051   2.847   0.715 -0.4094  0.3417  0.3108
  357SOL  HW1   1070   3.072   2.747   0.705 -2.0029 -0.1401 -1.2155
  357SOL  HW2   1071   2.994   2.869   0.799 -0.7601 -0.6180  0.6998
  358SOL  OW    1072   2.258   1.883   1.546  0.0242  0.0929  0.3929
  358SOL  HW1   1073   2.298   1.970   1.508  0.8227  0.2761  0.7440
  358SOL  HW2   1074   2.326   1.833   1.598  1.6897  1.2135 -3.6460
  359SOL  OW    1075   2.137   1.971   2.205 -0.7251  0.3438 -0.3261
  359SOL  HW1   1076   2.167   1.929   2.295  0.1130 -1.3618  1.8090
  359SOL  HW2   1077   2.074   1.914   2.146  1.9687  1.7108 -0.3223
  360SOL  OW    1078   1.660   1.769   1.074 -0.4141  0.0001  0.3078
  360SOL  HW1   1079   1.712   1.849   1.042 -2.0727 -0.8710  1.2619
  360SOL  HW2   1080   1.604   1.798   1.155  1.4613  1.9750 -1.1264
  361SOL  OW    1081   1.530   2.255   3.089 -0.1567  0.7389 -0.3680
  361SOL  HW1   1082   1.513   2.268   0.096  3.2245  2.3336 -3.3386
  361SOL  HW2   1083   1.556   2.157   3.071  2.2108 -0.3855 -0.9801
  362SOL  OW    1084   0.865   0.957   1.345  0.0717 -0.2539  0.3182
  362SOL  HW1   1085   0.963   0.957   1.319  1.3285  0.7087 -1.6626
  362SOL  HW2   1086   0.849   1.036   1.411  1.6840  0.3827  2.0453
  363SOL  OW    1087   1.232   1.005   2.260 -0.3949  0.3387 -0.0276
  363SOL  HW1   1088   1.187   0.917   2.225 -2.4180 -2.1376  0.0345
  363SOL  HW2   1089   1.204   1.085   2.199 -0.8021  2.2944 -0.1022
  364SOL  OW    1090   3.009   0.394   1.291  0.0616 -0.4233  0.0979
  364SOL  HW1   1091   2.969   0.476   1.350 -1.8807  0.0371 -1.4738
  364SOL  HW2   1092   2.953   0.377   1.212  0.2391 -2.2271  1.5627
  365SOL  OW    1093   1.357   1.085   3.008 -0.7952 -0.0707 -0.0071
  365SOL  HW1   1094   1.336   1.126   0.002  1.1486 -0.1817 -1.5193
  365SOL  HW2   1095   1.356   0.982   3.014  0.9898 -0.2820 -0.8709
  366SOL  OW    1096   2.626   0.864   2.326 -0.0258 -0.2449  0.4045
  366SOL  HW1   1097   2.574   0.778   2.350  0.1513  2.1323 -3.1657
  366SOL  HW2   1098   2.665   0.912   2.405  0.0848  1.5026 -3.3574
  367SOL  OW    1099   0.061   2.606   2.318  0.4163  0.3131  0.0872
  367SOL  HW1   1100   0.068   2.502   2.326  0.9984 -2.7787  1.6051
  367SOL  HW2   1101   0.148   2.647   2.347 -1.1251 -0.1129 -1.8078
  368SOL  OW    1102   0.437   1.238   2.136 -0.2538  0.2882  0.3441
  368SOL  HW1   1103   0.482   1.235   2.045 -0.7605 -1.3608  0.7667
  368SOL  HW2   1104   0.350   1.284   2.124 -0.5975 -0.6469 -0.9923
  369SOL  OW    1105   0.632   1.018   2.751 -0.0641 -0.0241 -0.3938
  369SOL  HW1   1106   0.630   0.920   2.724 -2.9735  1.5728  1.3268
  369SOL  HW2   1107   0.542   1.063   2.748  0.8251  0.4244  0.3227
  370SOL  OW    1108   0.536   0.877   0.604  0.3445 -0.5261  0.1949
  370SOL  HW1   1109   0.517   0.926   0.518 -1.5185 -0.5670  1.3461
  370SOL  HW2   1110   0.545   0.782   0.583  0.3283 -0.2484  0.1729
  371SOL  OW    1111   0.796   2.479   0.974 -0.0942 -0.3233  0.0976
  371SOL  HW1   1112   0.705   2.502   1.012  0.3199  1.2067 -2.3304
  371SOL  HW2   1113   0.793   2.395   0.919 -1.6645  1.5159  1.8498
  372SOL  OW    1114   2.774   2.826   2.405 -0.1663  0.0438  0.3992
  372SOL  HW1   1115   2.690   2.874   2.364  1.0697  3.3906 -0.6243
  372SOL  HW2   1116   2.842   2.809   2.333 -0.2553 -0.2014  0.3352
  373SOL  OW    1117   2.376   3.063   2.901  0.4266 -0.2109 -0.2524
  373SOL  HW1   1118   2.372   2.988   2.838 -2.0544  2.1606  0.5262
  373SOL  HW2   1119   2.443   3.044   2.977  1.1087 -0.5373 -0.6223
  374SOL  OW    1120   0.115   0.270   1.650 -0.8105 -0.3595 -0.2694
  374SOL  HW1   1121   0.165   0.192   1.699 -0.3824  3.3066  0.9801
  374SOL  HW2   1122   0.178   0.350   1.667  1.2340  0.7422 -0.0887
  375SOL  OW    1123   0.774   0.942   2.976 -0.3463 -0.2022 -0.3340
  375SOL  HW1   1124   0.721   0.977   2.897  1.0047 -0.4885  1.1843
  375SOL  HW2   1125   0.836   1.010   3.011  2.1965  0.6495 -2.1512
  376SOL  OW    1126   0.160   2.433   1.429  0.2262  0.2885 -0.4252
  376SOL  HW1   1127   0.182   2.521   1.385 -0.5282  1.0118 -0.1159
  376SOL  HW2   1128   0.159   2.442   1.530  0.4086 -0.2597  1.3752
  377SOL  OW    1129   0.493   1.997   2.411  0.2154  0.0046  0.5991
  377SOL  HW1   1130   0.399   1.956   2.405  0.9820  1.1659 -2.9942
  377SOL  HW2   1131   0.505   2.069   2.341  0.6631 -0.2527 -0.3003
  378SOL  OW    1132   2.234   0.831   2.539 -0.0541 -0.1540  0.5312
  378SOL  HW1   1133   2.298   0.778   2.600  0.8994 -2.2335  1.7652
  378SOL  HW2   1134   2.168   0.880   2.600  0.8827 -0.4451 -1.1901
  379SOL  OW    1135   1.541   0.795   2.352 -0.3069  0.1511 -0.1972
  379SOL  HW1   1136   1.606   0.746   2.419  0.1926  0.4995  3.9467
  379SOL  HW2   1137   1.560   0.771   2.255 -2.1525 -0.9003 -1.8819
  380SOL  OW    1138   0.107   1.484   1.652  0.2020  0.3861 -0.0420
  380SOL  HW1   1139   0.120   1.487   1.553  1.9111  0.0242  1.0453
  380SOL  HW2   1140   0.192   1.515   1.700 -0.3511  1.4457  0.4008
  381SOL  OW    1141   2.353   1.491   2.691 -0.0548 -0.3775 -0.0687
  381SOL  HW1   1142   2.342   1.433   2.611  0.1568 -0.1070  0.1614
  381SOL  HW2   1143   2.452   1.511   2.709  0.1320  0.7500  0.8993
  382SOL  OW    1144   2.424   1.217   1.054 -0.2452 -0.1882 -0.2253
  382SOL  HW1   1145   2.330   1.227   1.097  1.0906  1.9728 -0.5746
  382SOL  HW2   1146   2.409   1.190   0.957  0.8752 -0.4395 -2.9428
  383SOL  OW    1147   1.866   2.155   2.884  0.1665 -0.3967  0.0597
  383SOL  HW1   1148   1.791   2.144   2.817 -2.3747 -1.4445 -2.8943
  383SOL  HW2   1149   1.835   2.216   2.958 -1.4779 -2.3707 -0.8095
  384SOL  OW    1150   0.374   1.655   2.589  0.0254 -0.3726  0.1286
  384SOL  HW1   1151   0.455   1.661   2.525  2.0434 -0.2870  2.5230
  384SOL  HW2   1152   0.387   1.680   2.686 -0.6996  0.3730  1.5654
  385SOL  OW    1153   2.348   1.333   0.324  0.2831 -0.1390  0.0502
  385SOL  HW1   1154   2.348   1.348   0.226  0.1342 -0.2992  0.6846
  385SOL  HW2   1155   2.271   1.273   0.353 -2.0523  3.0069 -0.6035
  386SOL  OW    1156   2.378   0.407   1.602 -0.1893  0.0402 -0.0998
  386SOL  HW1   1157   2.399   0.497   1.650 -2.6602  1.3843  3.6131
  386SOL  HW2   1158   2.360   0.332   1.672 -0.0957 -3.1310  1.0737
  387SOL  OW    1159   0.456   1.763   1.654 -0.1037  0.3938 -0.1769
  387SOL  HW1   1160   0.510   1.731   1.569  3.8678 -0.3959  1.1244
  387SOL  HW2   1161   0.528   1.793   1.715 -1.3947 -0.2643  0.8677
  388SOL  OW    1162   0.593   1.377   0.008  0.6624 -0.1401 -0.0965
  388SOL  HW1   1163   0.558   1.326   0.089 -0.7441 -1.0778 -0.4366
  388SOL  HW2   1164   0.689   1.411   0.018  1.4355 -1.6974  0.5528
  389SOL  OW    1165   0.665   0.888   1.618  0.0848 -0.5260 -0.3765
  389SOL  HW1   1166   0.746   0.830   1.631 -2.9996 -0.6082 -0.6078
  389SOL  HW2   1167   0.695   0.983   1.607  0.1272  0.6511  1.2597
  390SOL  OW    1168   0.332   0.764   0.879 -0.7084 -0.4853 -0.2550
  390SOL  HW1   1169   0.385   0.802   0.963  0.8652  2.1474  0.4405
  390SOL  HW2   1170   0.245   0.724   0.910  1.4225  3.3726 -1.8566
  391SOL  OW    1171   1.985   0.509   2.743  0.1427 -0.0438 -0.1064
  391SOL  HW1   1172   1.946   0.428   2.693  0.2654  1.2954  1.8267
  391SOL  HW2   1173   2.083   0.503   2.734 -0.8784  0.9697 -1.5200
  392SOL  OW    1174   2.534   0.204   3.063 -0.0592 -0.0216  0.1686
  392SOL  HW1   1175   2.612   0.256   3.024  0.2521 -0.9969 -0.5210
  392SOL  HW2   1176   2.449   0.224   3.016  3.5274 -0.9419  1.1200
  393SOL  OW    1177   1.078   1.370   0.152 -0.0338 -0.2699 -0.3084
  393SOL  HW1   1178   1.138   1.286   0.137  3.3269 -1.6769  0.8297
  393SOL  HW2   1179   1.024   1.355   0.237 -0.1577 -0.4570 -2.5725
  394SOL  OW    1180   2.730   2.056   0.093 -0.0061  0.4709  0.1692
  394SOL  HW1   1181   2.775   2.008   0.165 -0.5678  0.3153 -3.5625
  394SOL  HW2   1182   2.787   2.059   0.007  1.1865 -0.0803  0.5411
  395SOL  OW    1183   2.921   0.236   0.271  0.2572 -0.1015  0.0103
  395SOL  HW1   1184   2.998   0.301   0.303  2.5046 -0.7381  0.9179
  395SOL  HW2   1185   2.944   0.194   0.180  0.9369 -0.0023  0.9336
  396SOL  OW    1186   2.368   3.017   1.132  0.3273 -0.0916  0.2712
  396SOL  HW1   1187   2.387   2.963   1.050 -2.0200 -1.1553  0.0977
  396SOL  HW2   1188   2.271   3.054   1.126 -1.9916  0.5797 -1.2083
  397SOL  OW    1189   2.863   0.613   2.154  0.2965 -0.1144 -0.2649
  397SOL  HW1   1190   2.886   0.712   2.151  0.8468 -0.7397 -1.5156
  397SOL  HW2   1191   2.766   0.593   2.124 -1.0623  1.5662  0.7010
  398SOL  OW    1192   0.545   3.069   0.054  0.2346 -0.3106  0.5217
  398SOL  HW1   1193   0.608   3.077   0.130 -1.5682  0.0532 -1.0271
  398SOL  HW2   1194   0.508   2.977   0.044 -1.8944  1.4181  1.5605
  399SOL  OW    1195   2.011   0.230   2.063  0.0048  0.3576 -0.4715
  399SOL  HW1   1196   1.975   0.144   2.023  0.2105  0.3037  0.0916
  399SOL  HW2   1197   2.004   0.307   2.000 -0.7381 -1.2399  1.2186
  400SOL  OW    1198   1.272   2.248   2.912 -0.5267 -0.5924  0.0638
  400SOL  HW1   1199   1.355   2.294   2.952  2.9509  1.2726  0.9527
  400SOL  HW2   1200   1.233   2.202   2.994 -0.7707  1.5916  0.2977
  401SOL  OW    1201   0.170   1.499   2.558 -0.5854 -0.2844  0.1005
  401SOL  HW1   1202   0.220   1.412   2.541  0.3803  0.9963 -1.1635
  401SOL  HW2   1203   0.238   1.569   2.579 -1.6742 -1.3737 -1.0348
  402SOL  OW    1204   0.654   2.684   0.507  0.5193  0.2117  0.0580
  402SOL  HW1   1205   0.713   2.695   0.590 -0.9831 -1.4873  1.5786
  402SOL  HW2   1206   0.606   2.767   0.475  1.2471  0.3310  0.2977
  403SOL  OW    1207   0.242   1.359   1.958  0.4287  0.5560 -0.3105
  403SOL  HW1   1208   0.289   1.391   1.870 -1.4957 -0.3757  2.1702
  403SOL  HW2   1209   0.201   1.440   2.002 -1.0075  1.0524 -2.2745
  404SOL  OW    1210   1.999   2.496   0.004 -0.1946 -0.0692  0.6275
  404SOL  HW1   1211   1.901   2.466   3.076 -0.5773  0.0513 -1.6776
  404SOL  HW2   1212   2.024   2.592   3.078  0.5533 -1.4250 -0.7771
  405SOL  OW    1213   0.409   1.264   0.214  0.2420 -0.0268  0.5085
  405SOL  HW1   1214   0.364   1.181   0.168 -2.1313 -1.9748 -3.8088
  405SOL  HW2   1215   0.345   1.347   0.212 -0.3350  2.1985 -1.2734
  406SOL  OW    1216   1.987   1.710   0.147 -0.8902  0.0537 -0.5507
  406SOL  HW1   1217   1.974   1.725   0.047  0.5266  0.7944  0.2015
  406SOL  HW2   1218   2.051   1.781   0.183  0.0872  0.4169 -0.2763
  407SOL  OW    1219   2.620   0.031   1.749  0.4487 -0.0523  0.3326
  407SOL  HW1   1220   2.616   3.073   1.662  2.1834 -1.9886  0.2417
  407SOL  HW2   1221   2.671   3.068   1.816 -0.3392  2.0302 -2.9562
  408SOL  OW    1222   0.267   0.255   1.395 -0.1411 -0.4976 -0.1363
  408SOL  HW1   1223   0.263   0.332   1.463 -2.0719  1.4507  2.4707
  408SOL  HW2   1224   0.177   0.238   1.356  2.1673 -0.3490 -0.7199
  409SOL  OW    1225   3.056   2.628   1.663 -0.0632  0.0232 -0.3591
  409SOL  HW1   1226   2.996   2.667   1.738 -1.5074 -0.2480  1.0511
  409SOL  HW2   1227   3.085   2.531   1.690  1.0168  0.4153 -0.4571
  410SOL  OW    1228   2.552   2.099   0.995 -0.7608  0.3735  0.0680
  410SOL  HW1   1229   2.590   2.011   0.965 -0.8775  0.2332  0.1413
  410SOL  HW2   1230   2.461   2.089   1.036 -1.5365 -0.4788  0.6365
  411SOL  OW    1231   2.302   2.252   1.652  0.2203 -0.1100  0.1008
  411SOL  HW1   1232   2.311   2.201   1.563 -1.6938  0.7038  0.7989
  411SOL  HW2   1233   2.367   2.223   1.723  1.7361  0.1461  0.7626
  412SOL  OW    1234   1.992   0.461   1.619  0.0169  0.2826 -0.2077
  412SOL  HW1   1235   2.005   0.363   1.589 -1.2927 -3.6844  0.4090
  412SOL  HW2   1236   1.911   0.501   1.571 -0.6165  0.9001 -1.2540
  413SOL  OW    1237   0.226   2.723   2.073  0.4266  0.1405  0.0580
  413SOL  HW1   1238   0.206   2.752   1.980  0.7119 -1.5605 -0.2610
  413SOL  HW2   1239   0.146   2.667   2.105 -2.6333 -1.9748  1.7168
  414SOL  OW    1240   2.667   1.551   0.254 -0.2908  0.0196  0.4460
  414SOL  HW1   1241   2.674   1.450   0.274  2.5337  1.2848 -0.0226
  414SOL  HW2   1242   2.582   1.585   0.292  2.8005  0.7342 -1.2650
  415SOL  OW    1243   1.109   1.912   0.680  0.4397 -0.1910  0.1575
  415SOL  HW1   1244   1.099   1.807   0.680  1.7671 -1.5091 -1.2502
  415SOL  HW2   1245   1.082   1.950   0.585 -0.6948  2.7399  0.4599
  416SOL  OW    1246   2.048   2.018   3.049  0.3035 -0.0999 -0.3834
  416SOL  HW1   1247   1.991   2.079   2.994  1.1115 -1.4224  0.4572
  416SOL  HW2   1248   2.021   1.924   3.017 -1.0290  0.3894  0.8868
  417SOL  OW    1249   0.156   1.472   1.389  0.0110  0.0958 -0.1472
  417SOL  HW1   1250   0.154   1.562   1.345 -2.0862  2.4033  0.0654
  417SOL  HW2   1251   0.174   1.397   1.324  0.9532 -0.2266 -0.1333
  418SOL  OW    1252   2.553   0.063   0.516 -0.6962  0.0129  0.2455
  418SOL  HW1   1253   2.561   3.059   0.489 -0.1977 -0.2584 -0.3959
  418SOL  HW2   1254   2.642   0.096   0.557  0.4421  0.0157 -1.0537
  419SOL  OW    1255   1.408   2.896   0.259 -0.1541 -0.3201 -0.8146
  419SOL  HW1   1256   1.474   2.949   0.317  1.1657 -2.4783 -0.8246
  419SOL  HW2   1257   1.364   2.960   0.192 -0.2324 -1.4672 -0.0030
  420SOL  OW    1258   0.425   0.793   1.142 -0.4213  0.3892  0.2464
  420SOL  HW1   1259   0.383   0.707   1.177 -1.0300 -0.7335  1.5486
  420SOL  HW2   1260   0.528   0.783   1.153  2.6689 -0.6752 -1.3073
  421SOL  OW    1261   1.396   2.636   0.589 -0.0461  0.1691 -0.2845
  421SOL  HW1   1262   1.487   2.651   0.551  0.6976  1.7442 -2.3777
  421SOL  HW2   1263   1.328   2.706   0.566  1.0061  0.0832 -3.7718
  422SOL  OW    1264   3.030   0.009   1.255  0.2402 -0.5530 -0.3026
  422SOL  HW1   1265   3.032   0.028   1.159 -1.2090 -1.3107  3.1292
  422SOL  HW2   1266   3.025   0.095   1.315 -0.8761  1.5974  2.8945
  423SOL  OW    1267   0.983   2.426   1.536 -0.2379  0.0964  0.1098
  423SOL  HW1   1268   0.886   2.431   1.573  0.2494  2.1322  0.1415
  423SOL  HW2   1269   0.993   2.352   1.467  0.9158 -1.2300  0.4387
  424SOL  OW    1270   2.023   2.271   1.461 -0.1366 -0.0930  0.0902
  424SOL  HW1   1271   2.014   2.357   1.515  1.6126 -1.3633 -0.3497
  424SOL  HW2   1272   2.036   2.181   1.509 -0.5838 -0.9379 -0.9604
  425SOL  OW    1273   0.187   2.004   2.632  0.0266  0.0209  0.1816
  425SOL  HW1   1274   0.229   1.963   2.549 -0.8256  2.4663  1.6897
  425SOL  HW2   1275   0.234   1.983   2.721  1.9398 -0.8450 -1.1247
  426SOL  OW    1276   0.246   2.951   2.448  0.3043 -0.3808  0.0743
  426SOL  HW1   1277   0.271   2.852   2.440 -0.7248 -1.7222  0.9091
  426SOL  HW2   1278   0.146   2.963   2.464 -0.9378  0.1193  0.1398
  427SOL  OW    1279   1.083   2.624   0.067  0.1686  0.2098  0.0597
  427SOL  HW1   1280   1.178   2.646   0.095  1.3002 -0.5641  0.9990
  427SOL  HW2   1281   1.053   2.688   3.083 -1.4087  3.7605 -1.5830
  428SOL  OW    1282   0.258   0.970   1.466 -0.1463  0.2582 -0.1643
  428SOL  HW1   1283   0.350   0.970   1.412 -0.3961 -0.2166  0.1997
  428SOL  HW2   1284   0.255   1.051   1.524  0.1798 -0.6226 -2.1281
  429SOL  OW    1285   2.047   2.729   0.249 -0.0425 -0.0120 -0.4780
  429SOL  HW1   1286   2.034   2.759   0.349  0.0696 -1.2038 -0.1134
  429SOL  HW2   1287   2.109   2.648   0.254  0.3540  1.5518  0.2277
  430SOL  OW    1288   1.410   1.773   2.880 -0.1070 -0.6422 -0.0680
  430SOL  HW1   1289   1.453   1.739   2.794  0.7642  1.3501 -0.1669
  430SOL  HW2   1290   1.403   1.877   2.877 -1.3585 -0.5880 -0.0657
  431SOL  OW    1291   2.846   2.510   0.553 -0.2967  0.4105  0.1810
  431SOL  HW1   1292   2.771   2.544   0.493  2.7228  1.2807 -2.5358
  431SOL  HW2   1293   2.924   2.577   0.556  0.9453 -0.5465  0.0656
  432SOL  OW    1294   1.200   2.577   2.423  0.0059  0.0684  0.8563
  432SOL  HW1   1295   1.234   2.510   2.350  1.5224 -3.4218 -3.4652
  432SOL  HW2   1296   1.236   2.555   2.516  0.3411 -0.8752  0.5062
  433SOL  OW    1297   1.636   0.776   2.701 -0.0754 -0.3002 -0.6018
  433SOL  HW1   1298   1.543   0.784   2.659  0.6090  0.8067  0.5474
  433SOL  HW2   1299   1.646   0.843   2.777  1.3635  1.4802  5.2946
  434SOL  OW    1300   1.005   2.450   1.143  0.2541 -0.4758  0.0899
  434SOL  HW1   1301   0.935   2.457   1.069 -2.1355  0.6309  0.1859
  434SOL  HW2   1302   0.982   2.388   1.214  1.1357  2.8989  1.2918
  435SOL  OW    1303   1.026   0.627   0.514 -0.5703 -0.5891 -0.0870
  435SOL  HW1   1304   1.101   0.688   0.479  0.7084 -0.9101  0.6619
  435SOL  HW2   1305   0.938   0.636   0.466  1.4370 -0.3237  0.0583
  436SOL  OW    1306   3.016   0.618   0.091  0.4255  0.2346 -0.2382
  436SOL  HW1   1307   2.997   0.713   0.058  0.2101 -1.2391  0.2789
  436SOL  HW2   1308   3.044   0.622   0.187 -0.6328  2.8019  0.8305
  437SOL  OW    1309   1.680   1.948   1.938 -0.4529  0.4080 -0.2815
  437SOL  HW1   1310   1.620   1.973   2.013 -4.5729 -2.7646 -3.5637
  437SOL  HW2   1311   1.675   2.027   1.875 -2.1009  2.3817 -0.9572
  438SOL  OW    1312   0.940   3.029   0.355 -0.0690  0.0177  0.1881
  438SOL  HW1   1313   0.970   3.046   0.260 -1.7984  0.7706 -0.7415
  438SOL  HW2   1314   0.945   2.930   0.377 -1.0354  1.3139  0.6117
  439SOL  OW    1315   2.377   2.380   1.965 -0.0607  0.3483  0.3707
  439SOL  HW1   1316   2.450   2.331   1.908  2.4536 -0.9213 -0.0808
  439SOL  HW2   1317   2.336   2.316   2.034  0.3748 -0.6895  0.4497
  440SOL  OW    1318   0.363   0.159   0.003 -0.5881  0.3417 -0.4856
  440SOL  HW1   1319   0.433   0.099   0.048  0.2198 -1.0745 -0.0243
  440SOL  HW2   1320   0.393   0.252   0.022 -0.1063 -0.7136 -2.1368
  441SOL  OW    1321   0.635   1.464   0.988  0.0085  0.0697 -0.1720
  441SOL  HW1   1322   0.647   1.370   1.020 -0.2369  1.6679 -0.0756
  441SOL  HW2   1323   0.536   1.482   0.976  0.7962  0.8773 -1.2091
  442SOL  OW    1324   1.936   1.833   0.589 -0.8138  0.0721  0.0592
  442SOL  HW1   1325   1.934   1.844   0.690 -2.2616  1.0170 -0.7703
  442SOL  HW2   1326   1.987   1.752   0.563  2.1831  2.1913  2.0010
  443SOL  OW    1327   2.353   2.862   2.741 -0.5820  0.2260  0.1304
  443SOL  HW1   1328   2.439   2.809   2.730  0.0940  0.6885  0.2189
  443SOL  HW2   1329   2.279   2.801   2.775  0.5335 -1.4123  0.0405
  444SOL  OW    1330   2.125   2.406   2.884  0.4751  0.2696  0.0091
  444SOL  HW1   1331   2.075   2.447   2.962 -1.4050 -0.4805  0.7999
  444SOL  HW2   1332   2.173   2.319   2.911 -1.4441 -1.0709 -2.4007
  445SOL  OW    1333   0.569   1.452   2.259  0.0055  0.1650 -0.5957
  445SOL  HW1   1334   0.586   1.435   2.356 -1.6743  2.1434  0.1519
  445SOL  HW2   1335   0.535   1.368   2.214  1.2570  1.1753  0.9668
  446SOL  OW    1336   0.866   1.250   1.973 -0.2869  0.2584  0.4244
  446SOL  HW1   1337   0.901   1.292   2.061 -0.6788 -0.1460  0.7386
  446SOL  HW2   1338   0.919   1.162   1.948  0.6402 -3.1509 -0.7502
  447SOL  OW    1339   0.784   0.704   0.404 -0.4008 -0.0197  0.1267
  447SOL  HW1   1340   0.774   0.627   0.334 -1.2914  2.5188 -0.4430
  447SOL  HW2   1341   0.801   0.791   0.351  0.5470  0.1370 -1.3534
  448SOL  OW    1342   1.607   1.055   2.450  0.2718  0.2244  0.9570
  448SOL  HW1   1343   1.573   0.976   2.397 -1.0430 -0.0969 -0.0309
  448SOL  HW2   1344   1.603   1.139   2.390 -0.3129  2.1723 -1.5086
  449SOL  OW    1345   2.502   2.260   2.843  0.4279 -0.9695 -0.1496
  449SOL  HW1   1346   2.429   2.213   2.894  0.3336 -0.7257  1.4132
  449SOL  HW2   1347   2.519   2.345   2.891 -1.7879 -1.3956  0.6339
  450SOL  OW    1348   1.555   1.699   1.829 -0.4061  0.0839 -0.2987
  450SOL  HW1   1349   1.567   1.785   1.878  2.7584  1.2260  0.3841
  450SOL  HW2   1350   1.599   1.707   1.737  0.7298  1.1068 -0.3486
  451SOL  OW    1351   2.626   0.861   1.572 -0.1430  0.6677  0.2339
  451SOL  HW1   1352   2.585   0.903   1.488  0.7122  2.3429 -0.4821
  451SOL  HW2   1353   2.720   0.893   1.593 -0.3864  0.4711 -1.2622
  452SOL  OW    1354   0.940   1.449   1.329 -0.0187  0.4977 -0.0413
  452SOL  HW1   1355   0.923   1.527   1.268  0.1288 -3.0691 -0.2004
  452SOL  HW2   1356   1.017   1.466   1.395  2.5892 -1.4200  0.0789
  453SOL  OW    1357   0.377   1.897   0.536 -0.4823 -0.2440  0.0583
  453SOL  HW1   1358   0.354   1.969   0.469 -0.8368 -0.2837 -0.9272
  453SOL  HW2   1359   0.301   1.890   0.606 -0.2125  0.9975 -0.6211
  454SOL  OW    1360   1.463   1.706   0.490 -0.5427 -0.4964 -0.2713
  454SOL  HW1   1361   1.442   1.673   0.586  1.1320  2.7624  1.5277
  454SOL  HW2   1362   1.549   1.762   0.485 -1.1449 -1.1449  0.6019
  455SOL  OW    1363   1.610   3.000   0.394 -0.0782 -0.2556 -0.2381
  455SOL  HW1   1364   1.639   3.071   0.464 -0.2950  2.8786  2.2693
  455SOL  HW2   1365   1.676   3.000   0.317 -0.5980  1.0778 -1.6086
  456SOL  OW    1366   1.357   2.656   0.128 -0.3267 -0.0004 -0.3229
  456SOL  HW1   1367   1.414   2.571   0.146  1.6267  1.9021  1.8083
  456SOL  HW2   1368   1.385   2.738   0.176 -0.3239 -1.0982  0.8440
  457SOL  OW    1369   2.592   1.247   2.081 -0.0396 -0.2997 -0.1732
  457SOL  HW1   1370   2.677   1.278   2.036  1.1890  0.3246 -2.2021
  457SOL  HW2   1371   2.542   1.183   2.023  2.0087  1.1620  0.1891
  458SOL  OW    1372   2.539   0.628   2.410 -0.2762  0.6095  0.1061
  458SOL  HW1   1373   2.619   0.568   2.387 -1.4162 -0.6832  0.5548
  458SOL  HW2   1374   2.467   0.615   2.342 -0.5404  0.4324  0.3161
  459SOL  OW    1375   2.616   1.588   2.366 -0.1077  0.3645  0.0466
  459SOL  HW1   1376   2.546   1.595   2.288 -2.8157  0.2638 -1.4676
  459SOL  HW2   1377   2.609   1.499   2.417 -0.8093  1.1487  0.1532
  460SOL  OW    1378   0.922   1.161   3.020 -0.2286  0.3493 -0.5028
  460SOL  HW1   1379   0.907   1.249   2.970 -1.2670  0.1889  0.3025
  460SOL  HW2   1380   0.918   1.167   0.027  0.8501  0.9553  0.1259
  461SOL  OW    1381   2.611   2.243   0.225  0.0392  0.4528  0.1243
  461SOL  HW1   1382   2.606   2.222   0.323 -0.1792  0.1393 -0.1749
  461SOL  HW2   1383   2.659   2.168   0.175 -0.4117  2.0016  3.9824
  462SOL  OW    1384   1.465   1.730   2.210  0.0107 -0.4823 -0.0519
  462SOL  HW1   1385   1.372   1.699   2.185  1.7196  0.1665 -0.7093
  462SOL  HW2   1386   1.458   1.779   2.299  0.3444  2.7229 -0.2718
  463SOL  OW    1387   1.389   1.448   2.364  0.1263  0.1283 -0.2060
  463SOL  HW1   1388   1.340   1.525   2.321 -1.0943 -1.4380 -1.1366
  463SOL  HW2   1389   1.356   1.430   2.457 -0.9959 -0.2056 -1.2050
  464SOL  OW    1390   2.838   2.482   1.205  0.0929  0.2481 -0.3741
  464SOL  HW1   1391   2.894   2.457   1.290  1.3715  0.2441  0.6746
  464SOL  HW2   1392   2.864   2.414   1.136  0.8097 -0.2373 -1.2232
  465SOL  OW    1393   2.672   0.226   1.223 -0.4002 -0.2397 -0.3400
  465SOL  HW1   1394   2.664   0.125   1.216  1.0551 -0.7828 -2.8005
  465SOL  HW2   1395   2.644   0.258   1.314 -0.7966  0.1487 -1.3826
  466SOL  OW    1396   1.526   2.291   0.771 -0.4895  0.0538 -0.6071
  466SOL  HW1   1397   1.564   2.372   0.820  1.4796 -1.8314 -2.5981
  466SOL  HW2   1398   1.427   2.298   0.767 -1.0041 -0.1510 -1.0020
  467SOL  OW    1399   2.377   2.903   0.138 -0.7171  0.1189  0.0565
  467SOL  HW1   1400   2.358   2.807   0.104 -0.4971 -0.5272 -2.4829
  467SOL  HW2   1401   2.332   2.922   0.225  0.4006  0.9678 -0.8281
  468SOL  OW    1402   1.738   2.406   3.007  0.3794  0.1127  0.6237
  468SOL  HW1   1403   1.720   2.420   2.907 -3.2401  1.5454  1.8465
  468SOL  HW2   1404   1.655   2.367   3.051  0.8617 -0.5316 -0.8842
  469SOL  OW    1405   0.159   1.871   0.039 -0.3832  0.0721  0.3366
  469SOL  HW1   1406   0.092   1.880   3.060  1.8639 -0.5569  0.9191
  469SOL  HW2   1407   0.231   1.797   0.021  3.8281 -2.3171 -0.8467
  470SOL  OW    1408   1.297   0.197   0.567 -0.3618 -0.1621  0.7005
  470SOL  HW1   1409   1.213   0.221   0.608  0.9242  1.9335 -0.0278
  470SOL  HW2   1410   1.368   0.162   0.634 -0.0263 -0.3524  0.9095
  471SOL  OW    1411   0.430   1.795   1.014  0.5742 -0.2030 -0.4782
  471SOL  HW1   1412   0.368   1.869   0.987 -1.0053  0.9497  1.0519
  471SOL  HW2   1413   0.422   1.793   1.118 -0.1079 -1.2477  2.7038
  472SOL  OW    1414   0.392   1.748   2.856  0.3923 -0.0814  0.0797
  472SOL  HW1   1415   0.352   1.844   2.860 -1.0805 -0.0025 -1.1712
  472SOL  HW2   1416   0.441   1.726   2.942 -0.4563 -1.0225 -0.6707
  473SOL  OW    1417   1.668   2.066   1.257  0.1160 -0.2631  0.3506
  473SOL  HW1   1418   1.623   2.095   1.169 -1.7756  0.8554 -1.0405
  473SOL  HW2   1419   1.606   2.013   1.316  0.5924 -1.0626  3.4300
  474SOL  OW    1420   0.845   0.669   0.814  0.0826 -0.2388 -0.0795
  474SOL  HW1   1421   0.915   0.605   0.776  2.9213 -1.3845  0.3392
  474SOL  HW2   1422   0.876   0.764   0.800  0.6691 -1.0576 -1.0454
  475SOL  OW    1423   2.653   3.038   1.147  0.4588  0.1349 -0.1636
  475SOL  HW1   1424   2.557   3.005   1.162  1.6862 -0.8396  2.3990
  475SOL  HW2   1425   2.712   2.985   1.209  0.5619 -1.6055 -0.4255
  476SOL  OW    1426   0.483   2.936   0.778 -0.2593  0.5913 -0.4778
  476SOL  HW1   1427   0.501   2.958   0.874  3.0284  0.9683 -4.2233
  476SOL  HW2   1428   0.530   3.002   0.715  0.3582 -0.0794  3.1045
  477SOL  OW    1429   1.890   2.419   0.995  0.4029 -0.0134  0.4740
  477SOL  HW1   1430   1.808   2.451   0.947 -1.8280  0.3689  2.4151
  477SOL  HW2   1431   1.868   2.384   1.088 -2.5812 -0.2308  0.3161
  478SOL  OW    1432   0.744   0.040   2.756 -0.1026 -0.1141 -0.1655
  478SOL  HW1   1433   0.695   3.044   2.748 -1.5691 -1.5888  1.2992
  478SOL  HW2   1434   0.706   0.104   2.684 -3.1701 -0.2798  0.0605
  479SOL  OW    1435   3.065   0.874   1.826  0.0162  0.4563 -0.0731
  479SOL  HW1   1436   3.048   0.844   1.921  2.1626  0.6818 -1.0525
  479SOL  HW2   1437   0.032   0.955   1.827 -0.6692 -0.8507 -0.0022
  480SOL  OW    1438   1.982   2.252   2.515  0.4792  0.1006  0.2558
  480SOL  HW1   1439   1.943   2.329   2.572  0.2370  0.3303 -0.3283
  480SOL  HW2   1440   2.027   2.188   2.580  0.7229  0.3597 -0.2243
  481SOL  OW    1441   1.934   2.484   1.626 -0.1971 -0.3534  0.7611
  481SOL  HW1   1442   1.864   2.530   1.562  0.0506  1.7814 -2.3998
  481SOL  HW2   1443   1.951   2.548   1.708  0.5077  0.3684  0.5797
  482SOL  OW    1444   1.951   2.457   2.665 -0.2041 -0.0645  0.4450
  482SOL  HW1   1445   2.007   2.427   2.747  1.5494 -0.4315 -0.2898
  482SOL  HW2   1446   1.997   2.537   2.626 -0.6773 -0.1862 -1.6364
  483SOL  OW    1447   0.878   0.022   2.312 -0.6693 -0.4283  0.4324
  483SOL  HW1   1448   0.868   3.030   2.349 -0.2880  4.0578 -2.0443
  483SOL  HW2   1449   0.792   0.077   2.318  0.6193  0.6913  0.8018
  484SOL  OW    1450   1.865   2.847   1.581  0.5127 -0.4331 -0.1398
  484SOL  HW1   1451   1.966   2.836   1.574 -0.7415  1.6381  1.3671
  484SOL  HW2   1452   1.813   2.769   1.539  1.8427  0.7458 -0.2150
  485SOL  OW    1453   1.946   0.269   0.714  0.1117 -0.1074 -0.1810
  485SOL  HW1   1454   1.983   0.193   0.654  1.3638 -1.7672  0.7142
  485SOL  HW2   1455   1.885   0.230   0.787  1.8169 -4.7041 -0.5803
  486SOL  OW    1456   1.710   0.489   2.274 -0.2305 -0.3189  0.2523
  486SOL  HW1   1457   1.701   0.562   2.345  1.1280  0.3025  1.5168
  486SOL  HW2   1458   1.763   0.522   2.190  1.3531 -0.7004 -0.7937
  487SOL  OW    1459   1.624   0.830   0.496  0.0030  0.3183  0.1146
  487SOL  HW1   1460   1.596   0.889   0.570  0.9802 -0.1292 -0.9611
  487SOL  HW2   1461   1.677   0.893   0.436  0.6595  2.7023 -0.9207
  488SOL  OW    1462   1.816   2.703   2.450  0.3401  0.3127 -0.1654
  488SOL  HW1   1463   1.890   2.757   2.400  1.9172  1.8461 -1.5150
  488SOL  HW2   1464   1.854   2.620   2.494  1.4312  0.4496  0.6868
  489SOL  OW    1465   1.967   2.793   0.512  0.1200  0.0259  0.4091
  489SOL  HW1   1466   1.959   2.716   0.579 -0.8921 -0.5198  2.1655
  489SOL  HW2   1467   1.887   2.856   0.537  1.4265 -1.6512 -0.9252
  490SOL  OW    1468   1.352   0.805   3.072  0.3567  0.0385 -0.2426
  490SOL  HW1   1469   1.431   0.738   3.079 -1.6236 -1.3462 -3.1282
  490SOL  HW2   1470   1.265   0.753   3.092 -3.2854 -0.8677  0.9664
  491SOL  OW    1471   1.277   2.486   1.028  0.5301 -0.4226 -0.5512
  491SOL  HW1   1472   1.349   2.489   1.098 -0.1074  2.8315  0.1189
  491SOL  HW2   1473   1.185   2.480   1.065  1.4963 -0.9029  0.5796
  492SOL  OW    1474   1.609   2.881   2.507 -0.0068 -0.6773  0.1447
  492SOL  HW1   1475   1.690   2.823   2.489 -0.3514 -0.3643  1.0347
  492SOL  HW2   1476   1.598   2.965   2.452 -0.1276  1.4307 -2.3519
  493SOL  OW    1477   1.218   2.013   0.282 -0.3270 -0.3947 -0.3381
  493SOL  HW1   1478   1.271   1.926   0.293 -0.9895 -0.2981  1.8232
  493SOL  HW2   1479   1.271   2.096   0.316 -0.4130  1.3368  0.8266
  494SOL  OW    1480   1.959   0.790   1.336  0.5535  0.2526  0.7234
  494SOL  HW1   1481   2.018   0.863   1.292 -0.7154 -0.9916  0.4610
  494SOL  HW2   1482   2.000   0.762   1.420 -3.0158  0.0804 -1.2754
  495SOL  OW    1483   0.178   0.694   1.422  0.3560  0.0798  0.2593
  495SOL  HW1   1484   0.091   0.711   1.367 -1.2952 -0.0161 -0.1417
  495SOL  HW2   1485   0.212   0.779   1.466 -0.6066  0.6610  0.4580
  496SOL  OW    1486   2.159   1.813   2.455  0.3437 -0.0365 -0.0042
  496SOL  HW1   1487   2.157   1.713   2.434 -0.5014 -1.0957  1.9016
  496SOL  HW2   1488   2.078   1.832   2.516  0.2245 -0.0618  1.4420
  497SOL  OW    1489   1.417   1.846   2.456 -0.2543  0.2381 -0.2936
  497SOL  HW1   1490   1.331   1.882   2.492  0.4230 -0.2281 -0.1683
  497SOL  HW2   1491   1.469   1.920   2.413 -1.2678  0.5131 -0.7481
  498SOL  OW    1492   0.489   2.297   0.725 -0.2788  0.4018 -0.0928
  498SOL  HW1   1493   0.484   2.394   0.700 -0.6837 -0.9944 -0.6151
  498SOL  HW2   1494   0.440   2.285   0.816 -0.5191  1.4398  2.0069
  499SOL  OW    1495   0.241   2.347   0.509 -0.0292  0.0958 -0.1777
  499SOL  HW1   1496   0.320   2.373   0.567  1.3037 -0.8137  0.9145
  499SOL  HW2   1497   0.195   2.264   0.552 -0.9357 -0.2396 -0.2094
  500SOL  OW    1498   0.392   0.020   2.287 -0.0329 -0.1442 -0.3902
  500SOL  HW1   1499   0.334   3.065   2.352  0.3556  0.3321 -1.9699
  500SOL  HW2   1500   0.404   3.063   2.198 -3.0981  2.1141  1.5440
  501SOL  OW    1501   2.126   0.475   2.293 -0.5173 -0.2329  0.3993
  501SOL  HW1   1502   2.177   0.404   2.339 -1.3467  1.8029  0.9269
  501SOL  HW2   1503   2.030   0.450   2.276  0.6361  1.1825 -0.3122
  502SOL  OW    1504   2.645   0.027   0.886 -0.4509  0.2493 -0.4018
  502SOL  HW1   1505   2.640   0.002   0.985 -0.2662 -1.9472 -0.3372
  502SOL  HW2   1506   2.645   3.040   0.829 -0.1928 -0.4878 -0.1906
  503SOL  OW    1507   1.114   0.109   2.006 -0.2183 -0.0654  0.2125
  503SOL  HW1   1508   1.104   0.116   2.105  1.2695  1.7624 -4.5711
  503SOL  HW2   1509   1.188   0.178   1.991  2.7969  0.4612 -0.3852
  504SOL  OW    1510   1.924   1.087   1.653 -0.2774 -0.3691  0.2662
  504SOL  HW1   1511   1.858   1.046   1.580 -3.5113 -0.0752 -2.3644
  504SOL  HW2   1512   1.998   1.023   1.672  0.4729 -0.1121 -1.5685
  505SOL  OW    1513   1.224   2.906   2.150  0.3732 -0.6532  0.1309
  505SOL  HW1   1514   1.206   2.936   2.056 -0.1546 -1.2680  0.0833
  505SOL  HW2   1515   1.156   2.833   2.176  2.0088 -1.3890  0.0803
  506SOL  OW    1516   0.215   0.868   3.008 -0.8400  0.2527  0.3844
  506SOL  HW1   1517   0.115   0.886   3.016 -1.0604  1.5052 -0.6922
  506SOL  HW2   1518   0.235   0.846   2.907  1.0881  0.9562 -1.2559
  507SOL  OW    1519   2.011   0.875   0.345 -0.2492 -0.3698 -0.3974
  507SOL  HW1   1520   1.990   0.935   0.264 -0.4258  0.0632  1.6058
  507SOL  HW2   1521   1.978   0.779   0.327 -0.0821  2.0263 -1.2429
  508SOL  OW    1522   0.084   0.772   2.182  0.2019  0.2520 -0.2518
  508SOL  HW1   1523   0.088   0.689   2.242 -0.3196  0.2510 -1.9216
  508SOL  HW2   1524   0.164   0.783   2.122 -1.3039  0.8568  0.0465
  509SOL  OW    1525   0.298   2.007   2.882  0.7268  0.1963  0.5931
  509SOL  HW1   1526   0.392   2.031   2.904 -2.8499 -2.6677 -3.1491
  509SOL  HW2   1527   0.230   2.074   2.917 -1.8191  1.8973 -1.4932
  510SOL  OW    1528   2.871   1.281   1.088  0.0760 -0.0483 -0.1329
  510SOL  HW1   1529   2.888   1.372   1.046  0.6710  2.8400 -0.0640
  510SOL  HW2   1530   2.909   1.267   1.180 -1.4060 -0.9602 -2.0821
  511SOL  OW    1531   1.760   1.211   0.854  0.0385  0.1660  0.0579
  511SOL  HW1   1532   1.862   1.201   0.883  1.5937 -0.2501  0.9439
  511SOL  HW2   1533   1.735   1.308   0.823  1.4158  3.2184 -1.6976
  512SOL  OW    1534   0.523   2.127   2.971 -0.2373 -0.1241  0.1460
  512SOL  HW1   1535   0.479   2.211   3.001 -0.3129 -1.9851 -1.0668
  512SOL  HW2   1536   0.528   2.054   3.045 -0.3473 -1.2976 -3.7489
  513SOL  OW    1537   3.043   2.538   0.240  0.1525  0.2548 -0.5335
  513SOL  HW1   1538   2.975   2.467   0.258 -0.6051 -0.0078 -1.4992
  513SOL  HW2   1539   3.027   2.578   0.150 -0.8596 -1.1281  1.6665
  514SOL  OW    1540   0.355   2.128   0.362  0.6967  0.1231 -0.6072
  514SOL  HW1   1541   0.319   2.207   0.417 -1.0339  1.6121  1.3223
  514SOL  HW2   1542   0.453   2.138   0.339 -1.9593  0.2657  1.9825
  515SOL  OW    1543   0.469   0.385   0.257  0.1155  0.1798 -0.0004
  515SOL  HW1   1544   0.415   0.409   0.173 -0.8737  0.1307 -0.2838
  515SOL  HW2   1545   0.557   0.338   0.233  0.7893 -1.3565  1.1037
  516SOL  OW    1546   2.059   3.055   0.141 -0.3188  0.0744 -0.3095
  516SOL  HW1   1547   2.090   3.055   0.040  2.1367 -0.0815 -3.5777
  516SOL  HW2   1548   2.129   3.008   0.200  1.5374  0.3989  0.4102
  517SOL  OW    1549   1.596   1.001   0.706 -0.0883 -0.1989 -0.6223
  517SOL  HW1   1550   1.671   1.051   0.749  1.7850 -0.8685 -1.9549
  517SOL  HW2   1551   1.532   1.066   0.662 -1.4486 -0.3087 -2.0240
  518SOL  OW    1552   1.006   2.524   0.319  0.3385  0.1784 -0.2046
  518SOL  HW1   1553   1.027   2.562   0.226 -0.0105  0.6244 -0.2143
  518SOL  HW2   1554   1.092   2.519   0.374  1.8280 -0.3722  1.8691
  519SOL  OW    1555   3.092   2.422   2.694 -0.3220  0.1573  0.3427
  519SOL  HW1   1556   0.073   2.372   2.650  1.1148  0.7901 -1.9793
  519SOL  HW2   1557   3.011   2.407   2.634 -0.0939 -0.8125  1.1465
  520SOL  OW    1558   1.784   1.678   2.696  0.0498  0.1624  0.3411
  520SOL  HW1   1559   1.797   1.658   2.794  0.6860  1.1053  2.2298
  520SOL  HW2   1560   1.688   1.665   2.671  2.7692 -1.0502  1.3469
  521SOL  OW    1561   1.459   2.880   1.488  0.4408  0.2019  0.1884
  521SOL  HW1   1562   1.437   2.872   1.390  0.5180  3.7432 -0.2707
  521SOL  HW2   1563   1.383   2.834   1.541 -3.1094 -3.2665  1.4477
  522SOL  OW    1564   1.112   2.971   2.574 -0.4234 -0.1362 -0.2108
  522SOL  HW1   1565   1.036   2.937   2.516  1.4395  2.5992  1.1961
  522SOL  HW2   1566   1.081   2.981   2.669  1.4731 -1.7817 -0.8177
  523SOL  OW    1567   3.037   2.774   1.426 -0.1554  0.2180 -0.1737
  523SOL  HW1   1568   0.025   2.823   1.400 -2.4540 -0.4698 -1.7068
  523SOL  HW2   1569   3.050   2.731   1.518  0.1599  0.5707  4.2082
  524SOL  OW    1570   2.378   2.347   0.117  0.2294 -0.7166 -0.2591
  524SOL  HW1   1571   2.321   2.403   0.185 -0.3700  2.2704  1.3237
  524SOL  HW2   1572   2.467   2.317   0.151 -1.1541  0.9707  1.6021
  525SOL  OW    1573   2.613   0.591   2.054 -0.3851 -0.1502  0.3259
  525SOL  HW1   1574   2.640   0.561   1.960 -0.9763 -0.2776  1.6701
  525SOL  HW2   1575   2.619   0.692   2.065  0.5381 -0.2077  0.3056
  526SOL  OW    1576   0.161   2.844   3.050  0.1582  0.2090  0.5946
  526SOL  HW1   1577   0.099   2.774   3.008  0.6286  1.3113  1.4745
  526SOL  HW2   1578   0.193   2.916   2.981 -0.3859 -0.3587 -2.5333
  527SOL  OW    1579   2.182   0.779   0.526 -0.3067 -0.4443 -0.0912
  527SOL  HW1   1580   2.110   0.814   0.461 -2.9430 -0.1088  1.3475
  527SOL  HW2   1581   2.141   0.770   0.619  0.9047 -0.2802 -1.8866
  528SOL  OW    1582   1.094   1.131   2.616 -0.0768 -0.0546 -0.6248
  528SOL  HW1   1583   1.191   1.106   2.589  0.5892  0.2660 -1.2222
  528SOL  HW2   1584   1.085   1.112   2.718 -0.3757  1.4810  0.1642
  529SOL  OW    1585   1.115   0.940   0.223 -0.0958  0.3737  0.0178
  529SOL  HW1   1586   1.121   0.855   0.170 -0.2233  0.9672 -0.1902
  529SOL  HW2   1587   1.135   0.914   0.319 -1.3862  1.4969 -1.6225
  530SOL  OW    1588   1.075   1.058   1.924 -0.1975  0.0142 -0.5669
  530SOL  HW1   1589   1.116   0.966   1.913  2.4041  0.9996 -1.8002
  530SOL  HW2   1590   1.126   1.113   1.993  1.2029 -2.1155 -2.8120
  531SOL  OW    1591   1.366   2.041   2.771  0.5118 -0.0096  0.0694
  531SOL  HW1   1592   1.326   2.109   2.831 -0.1426 -1.7426 -1.0363
  531SOL  HW2   1593   1.297   2.027   2.693 -1.4735 -1.2162  0.5314
  532SOL  OW    1594   2.763   2.993   1.921  0.6301 -0.3277  0.4638
  532SOL  HW1   1595   2.852   3.040   1.910 -0.7100 -1.1948 -1.2604
  532SOL  HW2   1596   2.717   2.991   2.010 -0.2568 -1.4628  1.5150
  533SOL  OW    1597   0.314   0.468   2.491 -0.3741  0.3248  0.0274
  533SOL  HW1   1598   0.387   0.444   2.421  1.7805 -0.3036  1.1058
  533SOL  HW2   1599   0.224   0.491   2.444  0.1401 -0.3192 -1.2052
  534SOL  OW    1600   2.500   2.661   2.353  0.1750 -0.2436  0.3038
  534SOL  HW1   1601   2.480   2.566   2.377 -0.5155 -0.2839  0.4138
  534SOL  HW2   1602   2.435   2.726   2.397 -1.2100  0.1388  1.2161
  535SOL  OW    1603   0.528   3.030   1.034 -0.2432  0.3295 -0.5456
  535SOL  HW1   1604   0.539   0.037   1.029 -3.0972  0.1156 -3.0092
  535SOL  HW2   1605   0.432   3.007   1.055 -1.0874  0.1604  0.1808
  536SOL  OW    1606   1.525   2.323   2.021  0.3508 -0.3538  0.1776
  536SOL  HW1   1607   1.502   2.313   1.922 -1.2532 -0.1468 -2.0909
  536SOL  HW2   1608   1.631   2.322   2.036  2.1094 -0.3835 -0.9968
  537SOL  OW    1609   2.665   2.589   0.155  0.2296 -0.1067 -0.1685
  537SOL  HW1   1610   2.701   2.683   0.145 -0.8587 -2.9779 -4.2872
  537SOL  HW2   1611   2.724   2.520   0.115 -3.3823  0.7144  0.3946
  538SOL  OW    1612   0.287   2.791   0.428  0.0228 -0.5694 -0.1184
  538SOL  HW1   1613   0.273   2.697   0.397 -1.2426  2.7363  3.2534
  538SOL  HW2   1614   0.238   2.857   0.365 -1.5581  0.5300 -1.0682
  539SOL  OW    1615   2.314   1.380   0.061 -0.3705  0.2191  0.0485
  539SOL  HW1   1616   2.309   1.478   0.032  1.3868 -2.1685 -0.0487
  539SOL  HW2   1617   2.397   1.336   0.021 -1.2482 -1.4014  3.4241
  540SOL  OW    1618   2.096   0.096   0.531 -0.8024 -0.1039  0.2601
  540SOL  HW1   1619   2.029   0.088   0.457  2.9235 -0.8028  1.8212
  540SOL  HW2   1620   2.177   0.150   0.510 -1.8903 -0.3772  0.2813
  541SOL  OW    1621   0.903   1.392   2.850  0.3524 -0.0321 -0.2747
  541SOL  HW1   1622   0.982   1.430   2.801 -1.9210  0.7959  2.1753
  541SOL  HW2   1623   0.838   1.469   2.861  1.0808 -0.1916 -1.6067
  542SOL  OW    1624   1.127   2.160   1.829 -0.2762 -0.0093 -0.0815
  542SOL  HW1   1625   1.082   2.119   1.747 -0.8165  0.9785 -0.7033
  542SOL  HW2   1626   1.212   2.102   1.851  2.6007 -1.7893  0.6757
  543SOL  OW    1627   0.411   2.768   0.010 -0.3257 -0.1950  0.1251
  543SOL  HW1   1628   0.403   2.676   0.054 -0.2717  1.2790 -0.6065
  543SOL  HW2   1629   0.321   2.813   3.095 -1.0315  0.7014 -1.0513
  544SOL  OW    1630   0.096   2.171   1.354  0.1592 -0.5741  0.0808
  544SOL  HW1   1631   0.021   2.159   1.284 -0.3320  1.1274  0.6817
  544SOL  HW2   1632   0.130   2.269   1.359 -0.5239  2.6682  2.6489
  545SOL  OW    1633   0.257   1.959   1.639  0.3312  0.2500  0.1550
  545SOL  HW1   1634   0.285   2.019   1.561 -2.2339 -0.1054 -2.8442
  545SOL  HW2   1635   0.325   1.884   1.651 -2.5981 -1.2174  0.9521
  546SOL  OW    1636   0.783   0.446   2.348 -0.3959  0.4890  0.0922
  546SOL  HW1   1637   0.776   0.396   2.438 -2.3389 -2.7431  0.6412
  546SOL  HW2   1638   0.879   0.448   2.313 -1.7073  2.6989  1.0289
  547SOL  OW    1639   1.402   0.212   0.107 -0.3279  0.4668  0.3955
  547SOL  HW1   1640   1.333   0.136   0.111  0.9852 -1.0514 -0.6412
  547SOL  HW2   1641   1.386   0.291   0.171  0.6522  0.5179  1.3879
  548SOL  OW    1642   0.870   2.091   2.393  0.1061 -0.2106  0.4580
  548SOL  HW1   1643   0.806   2.041   2.459 -1.2235 -2.3464  0.6271
  548SOL  HW2   1644   0.899   2.179   2.438 -0.7828 -0.8861 -0.9159
  549SOL  OW    1645   1.756   0.304   0.414  0.1584 -0.2364 -0.1136
  549SOL  HW1   1646   1.814   0.376   0.463 -0.2731  1.4228  2.2890
  549SOL  HW2   1647   1.815   0.264   0.341  1.6899  1.5007  0.7054
  550SOL  OW    1648   2.653   1.869   0.923 -0.2118 -0.4117 -0.0721
  550SOL  HW1   1649   2.583   1.797   0.909  1.8563 -1.4687  0.8259
  550SOL  HW2   1650   2.692   1.908   0.837 -1.1384  1.0731  1.2798
  551SOL  OW    1651   1.719   2.544   1.264  0.4777  0.3762 -0.3832
  551SOL  HW1   1652   1.770   2.619   1.220 -0.2340 -1.4086  1.2527
  551SOL  HW2   1653   1.751   2.456   1.233 -0.5527  0.6900  2.1918
  552SOL  OW    1654   0.407   0.806   0.244 -0.0324  0.7591  0.1351
  552SOL  HW1   1655   0.362   0.727   0.292 -0.6870 -0.3066  1.4916
  552SOL  HW2   1656   0.431   0.883   0.310 -2.0724  1.3469 -1.3289
  553SOL  OW    1657   2.625   2.589   0.425  0.5297  0.3594  0.3473
  553SOL  HW1   1658   2.533   2.571   0.465 -0.3145 -2.2383 -1.5540
  553SOL  HW2   1659   2.625   2.572   0.323 -2.4547 -0.2015 -2.0096
  554SOL  OW    1660   2.499   1.185   2.338 -0.2194  0.3275 -0.4412
  554SOL  HW1   1661   2.465   1.085   2.325 -2.0288 -3.4840 -0.7667
  554SOL  HW2   1662   2.524   1.225   2.248  2.2925 -1.1314 -4.9447
  555SOL  OW    1663   0.732   1.699   2.574 -0.1861  0.5774 -0.0728
  555SOL  HW1   1664   0.687   1.626   2.634  0.6814  0.7668  0.4729
  555SOL  HW2   1665   0.811   1.658   2.524 -0.9836 -0.3452  1.1688
  556SOL  OW    1666   1.386   0.782   1.646 -0.2008 -0.6462  0.5217
  556SOL  HW1   1667   1.409   0.767   1.550  2.5238 -4.4028 -0.4970
  556SOL  HW2   1668   1.420   0.705   1.699 -0.5576  2.6698 -0.1109
  557SOL  OW    1669   1.066   0.472   1.517  0.1475  0.3035 -0.7230
  557SOL  HW1   1670   1.158   0.481   1.477 -0.5595 -0.3954  1.1881
  557SOL  HW2   1671   0.999   0.426   1.453 -0.4562  1.0127 -1.4752
  558SOL  OW    1672   1.112   0.799   2.796 -0.2018 -0.2047 -0.0268
  558SOL  HW1   1673   1.120   0.890   2.845 -0.5158  1.8921 -0.5324
  558SOL  HW2   1674   1.053   0.798   2.716  1.8656  0.3919  0.5701
  559SOL  OW    1675   0.402   2.362   3.007 -0.0766  0.2278 -0.6274
  559SOL  HW1   1676   0.404   2.421   2.926 -0.8019 -2.8592  1.8478
  559SOL  HW2   1677   0.414   2.417   0.004 -0.1390  0.3568  1.8637
  560SOL  OW    1678   2.177   1.502   0.968  0.0049 -0.1535 -0.4886
  560SOL  HW1   1679   2.074   1.507   0.968 -0.0185 -1.2063  0.3364
  560SOL  HW2   1680   2.219   1.587   1.014  0.9814  0.2723 -2.0982
  561SOL  OW    1681   0.962   0.079   1.198  0.1235  0.4541  0.4004
  561SOL  HW1   1682   1.048   0.019   1.197  2.4996 -2.1030 -0.0040
  561SOL  HW2   1683   0.880   0.024   1.172  1.6264  0.1695 -1.0250
  562SOL  OW    1684   2.800   0.646   2.605  0.6644  0.6574 -0.0935
  562SOL  HW1   1685   2.772   0.743   2.581  0.8277  1.7218 -0.0993
  562SOL  HW2   1686   2.772   0.580   2.535 -0.5526  1.0420 -1.6488
  563SOL  OW    1687   0.942   2.532   2.039 -0.4473  0.1476  0.2379
  563SOL  HW1   1688   0.954   2.593   1.962 -1.8985  0.6653  0.7311
  563SOL  HW2   1689   0.959   2.432   2.015 -0.5021  0.5300  0.1545
  564SOL  OW    1690   2.342   2.995   1.399  0.3021  0.0776  0.3001
  564SOL  HW1   1691   2.432   2.977   1.445  0.7858 -0.9822 -0.8775
  564SOL  HW2   1692   2.350   2.999   1.299  0.3891  0.8864  2.1706
  565SOL  OW    1693   1.941   1.024   0.118 -0.3298  0.0924  0.2670
  565SOL  HW1   1694   1.901   0.962   0.047 -0.1629  1.3075  2.3586
  565SOL  HW2   1695   1.934   1.126   0.104  1.5555  3.5866 -0.5140
  566SOL  OW    1696   2.546   0.257   2.527 -0.0317  0.0562  0.0127
  566SOL  HW1   1697   2.608   0.173   2.532  0.6150 -1.1723 -2.1064
  566SOL  HW2   1698   2.601   0.341   2.551  2.1827  3.0330  0.4302
  567SOL  OW    1699   2.638   1.023   0.255 -0.0056 -0.0005  0.4239
  567SOL  HW1   1700   2.570   1.045   0.329  1.6845  2.7619 -0.7438
  567SOL  HW2   1701   2.696   0.940   0.267  2.1989  0.3773 -2.0991
  568SOL  OW    1702   1.064   1.655   0.365 -0.1010 -0.2216  0.6804
  568SOL  HW1   1703   1.089   1.586   0.434  1.0035  1.3764 -0.5151
  568SOL  HW2   1704   1.126   1.660   0.282  0.2879  1.8516 -1.4495
  569SOL  OW    1705   2.505   1.640   1.206  0.1117  0.2422  0.2628
  569SOL  HW1   1706   2.543   1.573   1.140 -1.0585  1.3900 -0.8249
  569SOL  HW2   1707   2.409   1.672   1.188 -0.1148  0.3597  1.8706
  570SOL  OW    1708   2.591   1.863   2.407  0.4848 -0.3129 -0.0119
  570SOL  HW1   1709   2.511   1.869   2.470  1.2700 -1.6650 -1.4902
  570SOL  HW2   1710   2.614   1.765   2.401  0.1739 -1.5844 -1.8838
  571SOL  OW    1711   0.251   1.169   0.605 -0.7753  0.2136  0.1776
  571SOL  HW1   1712   0.243   1.067   0.625  1.0675 -1.7813  0.6191
  571SOL  HW2   1713   0.175   1.230   0.632  0.1358 -1.0948 -0.5228
  572SOL  OW    1714   1.605   1.999   3.034  0.1409  0.3062 -0.4990
  572SOL  HW1   1715   1.681   2.001   2.967 -1.0679  2.0784  0.3966
  572SOL  HW2   1716   1.612   1.914   3.087  1.4120  1.4829  1.7869
  573SOL  OW    1717   1.546   2.079   0.605 -0.6466 -0.0350 -0.5841
  573SOL  HW1   1718   1.490   2.007   0.658 -0.2815  1.1029  1.9540
  573SOL  HW2   1719   1.584   2.157   0.657  0.6908  0.3648 -0.7343
  574SOL  OW    1720   0.889   0.070   1.637 -0.0804 -0.0371  0.4306
  574SOL  HW1   1721   0.929   0.156   1.673 -2.0934 -0.4618 -1.3668
  574SOL  HW2   1722   0.954   3.092   1.642 -1.3057 -0.4141  3.0193
  575SOL  OW    1723   0.656   1.205   1.101 -0.2343  0.0636 -0.0127
  575SOL  HW1   1724   0.591   1.201   1.180 -0.3073 -0.7696 -4.5378
  575SOL  HW2   1725   0.642   1.132   1.032  0.6455  0.1057 -2.0620
  576SOL  OW    1726   1.678   0.306   1.799  0.8598 -0.4267 -0.1513
  576SOL  HW1   1727   1.751   0.239   1.772 -1.7859 -0.9205  1.6525
  576SOL  HW2   1728   1.714   0.402   1.793 -0.9435 -0.3019 -2.5056
  577SOL  OW    1729   0.066   0.152   2.689 -0.3653  0.3678 -0.1106
  577SOL  HW1   1730   0.012   0.236   2.667  0.4382 -1.1778 -1.5727
  577SOL  HW2   1731   0.124   0.167   2.771  1.5486 -2.1984 -3.0296
  578SOL  OW    1732   1.662   3.022   1.617 -0.0468 -0.2722  0.3948
  578SOL  HW1   1733   1.583   2.977   1.573  1.6465 -3.0230 -0.8294
  578SOL  HW2   1734   1.746   2.967   1.600  0.1181 -1.3082 -1.2667
  579SOL  OW    1735   1.140   1.537   1.491  0.1658 -0.0971 -0.2565
  579SOL  HW1   1736   1.100   1.581   1.576 -1.2307  1.3718 -0.4659
  579SOL  HW2   1737   1.194   1.603   1.439 -0.7586 -1.1583 -1.9150
  580SOL  OW    1738   0.805   2.229   0.840 -0.4743  0.9658 -0.3852
  580SOL  HW1   1739   0.790   2.234   0.739  0.0640 -0.7041 -0.7430
  580SOL  HW2   1740   0.876   2.163   0.875 -1.5285 -0.7485 -0.5780
  581SOL  OW    1741   1.224   0.817   1.866  0.5401  0.2174  0.8129
  581SOL  HW1   1742   1.292   0.810   1.793 -1.9676 -0.4920  1.0621
  581SOL  HW2   1743   1.162   0.733   1.873 -0.7748 -1.8843  2.3260
  582SOL  OW    1744   0.494   2.694   1.313 -0.0448 -0.1154 -0.2200
  582SOL  HW1   1745   0.565   2.765   1.338 -2.1568 -2.4339 -0.4662
  582SOL  HW2   1746   0.525   2.644   1.228  1.6609  0.6133 -1.9387
  583SOL  OW    1747   1.003   2.030   1.166 -0.0647  0.2624  0.1045
  583SOL  HW1   1748   0.991   2.018   1.064 -0.7428  2.0375 -1.2461
  583SOL  HW2   1749   0.966   1.949   1.215 -0.7266  2.5120 -0.4188
  584SOL  OW    1750   2.412   2.631   0.071  0.1634 -0.0731 -0.4992
  584SOL  HW1   1751   2.508   2.632   0.113  0.4561  0.9325  0.0228
  584SOL  HW2   1752   2.352   2.565   0.116  1.9128  0.7038  1.2961
  585SOL  OW    1753   2.632   3.089   2.141 -0.4026  0.2645  0.3999
  585SOL  HW1   1754   2.541   3.091   2.101  1.1234 -1.7152  0.9339
  585SOL  HW2   1755   2.623   3.049   2.232  1.3050  2.9158 -2.3991
  586SOL  OW    1756   2.761   0.869   2.880  0.1230 -0.0039  0.3040
  586SOL  HW1   1757   2.838   0.927   2.898  0.6855 -0.6625 -0.2458
  586SOL  HW2   1758   2.728   0.826   2.968 -0.9868 -1.6692  4.0104
  587SOL  OW    1759   2.542   2.601   1.060  0.3691 -0.1941  0.2929
  587SOL  HW1   1760   2.567   2.596   1.157  1.1319  0.8009 -3.2183
  587SOL  HW2   1761   2.443   2.622   1.048 -0.8075 -0.8376  0.6705
  588SOL  OW    1762   2.402   0.888   0.679 -0.4167  0.0131  0.0700
  588SOL  HW1   1763   2.325   0.852   0.626  0.3364  0.1877 -0.1379
  588SOL  HW2   1764   2.460   0.810   0.715  1.6878  3.8732 -0.8028
  589SOL  OW    1765   2.233   2.801   0.552  0.3169  0.4985  0.1880
  589SOL  HW1   1766   2.131   2.788   0.549  3.6195 -0.4198 -3.1957
  589SOL  HW2   1767   2.263   2.874   0.613 -0.7280 -0.5312 -0.4684
  590SOL  OW    1768   2.184   1.304   1.166  0.3382  0.0604  0.5354
  590SOL  HW1   1769   2.201   1.380   1.100  1.4354  2.0164  2.6476
  590SOL  HW2   1770   2.183   1.340   1.261  0.0784  0.4242 -1.3788
  591SOL  OW    1771   0.291   2.175   2.040  0.1385 -0.6459  0.1353
  591SOL  HW1   1772   0.242   2.087   2.039 -1.7799  0.0805 -0.2009
  591SOL  HW2   1773   0.245   2.258   1.997  0.4701  1.0709  0.7330
  592SOL  OW    1774   1.283   1.573   1.162 -0.4800 -0.0528 -0.4409
  592SOL  HW1   1775   1.343   1.489   1.177  1.1966 -2.7042 -0.0156
  592SOL  HW2   1776   1.203   1.561   1.099 -0.9749 -1.1044  0.8712
  593SOL  OW    1777   0.209   2.542   0.325  0.7625 -0.2384 -0.3079
  593SOL  HW1   1778   0.114   2.541   0.283  2.0005  1.1942 -1.0597
  593SOL  HW2   1779   0.224   2.464   0.385  1.0291  2.5599 -1.3042
  594SOL  OW    1780   2.881   1.179   2.488 -0.7856  0.1915 -0.0849
  594SOL  HW1   1781   2.801   1.237   2.476 -0.5329 -0.7373 -2.2577
  594SOL  HW2   1782   2.936   1.165   2.403 -0.7086 -2.1573 -0.0458
  595SOL  OW    1783   0.696   3.094   0.287 -0.3592  0.3743  0.6819
  595SOL  HW1   1784   0.625   3.026   0.317 -1.1824 -0.8536  0.0588
  595SOL  HW2   1785   0.791   3.072   0.320 -0.9300  0.9142  1.0994
  596SOL  OW    1786   2.844   0.587   1.084  0.7380  0.0346  0.2126
  596SOL  HW1   1787   2.839   0.497   1.026  0.2364 -2.1274 -1.5770
  596SOL  HW2   1788   2.760   0.586   1.142 -2.4689 -1.2115 -0.9243
  597SOL  OW    1789   2.390   1.586   0.369 -0.2765  0.0964 -0.3537
  597SOL  HW1   1790   2.386   1.487   0.362 -1.0336  0.4273  0.8178
  597SOL  HW2   1791   2.425   1.619   0.460 -0.6958 -0.3110  1.4767
  598SOL  OW    1792   1.011   1.343   2.461  0.5261 -0.1908  0.6458
  598SOL  HW1   1793   1.028   1.434   2.493  1.5705  0.0423  0.6145
  598SOL  HW2   1794   1.036   1.273   2.525 -1.7936  0.9969 -2.3108
  599SOL  OW    1795   2.537   2.211   0.751 -0.6339 -0.0391 -0.0079
  599SOL  HW1   1796   2.539   2.173   0.849  1.7772  0.6983 -0.9541
  599SOL  HW2   1797   2.447   2.264   0.738 -3.2464  4.1701 -1.1869
  600SOL  OW    1798   1.042   1.185   0.581  0.3646  0.1418  0.2931
  600SOL  HW1   1799   1.080   1.093   0.603 -2.0188 -1.7987 -2.4080
  600SOL  HW2   1800   0.966   1.202   0.643 -0.5306 -0.7197  1.7804
  601SOL  OW    1801   1.805   1.494   0.513 -0.3632  0.1222  0.0811
  601SOL  HW1   1802   1.773   1.534   0.422  0.9647 -1.0535 -3.6416
  601SOL  HW2   1803   1.895   1.535   0.544 -1.1452  2.3641 -1.3797
  602SOL  OW    1804   1.548   0.448   0.779  0.1508 -1.0894 -0.4385
  602SOL  HW1   1805   1.506   0.423   0.687  1.2093 -1.8899 -3.3004
  602SOL  HW2   1806   1.568   0.369   0.842  1.0951 -1.2740 -0.4643
  603SOL  OW    1807   0.399   0.264   2.669  0.3629  0.6955 -0.2706
  603SOL  HW1   1808   0.333   0.262   2.751 -1.2468 -1.6056  2.9455
  603SOL  HW2   1809   0.365   0.337   2.606  1.2644  0.0302 -1.5700
  604SOL  OW    1810   0.664   0.718   2.685 -0.8607 -0.4326  0.1867
  604SOL  HW1   1811   0.585   0.690   2.629  1.9490 -0.3036  0.7914
  604SOL  HW2   1812   0.647   0.697   2.782 -2.1171 -1.1622 -1.3372
  605SOL  OW    1813   2.149   2.822   1.504  0.1534 -0.3451 -0.4301
  605SOL  HW1   1814   2.219   2.876   1.463 -0.1624 -1.0709 -1.1402
  605SOL  HW2   1815   2.187   2.777   1.589  0.5368 -1.6528 -1.0430
  606SOL  OW    1816   0.505   1.811   2.113  0.5844  0.6598  0.7245
  606SOL  HW1   1817   0.541   1.807   2.209  0.2195 -0.0455  1.0325
  606SOL  HW2   1818   0.403   1.825   2.104 -0.7294 -1.9050 -0.9718
  607SOL  OW    1819   0.980   2.611   0.823  0.5482  0.4660 -0.1274
  607SOL  HW1   1820   1.020   2.546   0.755  0.1504 -0.5717 -2.6137
  607SOL  HW2   1821   0.909   2.568   0.886 -0.5461 -2.0095  3.7314
  608SOL  OW    1822   1.312   1.437   2.620 -0.3600  0.0950  0.0075
  608SOL  HW1   1823   1.352   1.365   2.684  2.3702 -1.9151  0.6906
  608SOL  HW2   1824   1.235   1.487   2.669 -1.4548 -4.0336  1.8304
  609SOL  OW    1825   2.300   0.639   1.867 -0.0972  0.2961  0.2264
  609SOL  HW1   1826   2.311   0.545   1.906 -0.1191  0.8747  2.3468
  609SOL  HW2   1827   2.370   0.653   1.793 -1.8102 -1.7685 -0.4092
  610SOL  OW    1828   0.963   2.551   2.770  0.3427  0.3266  0.0020
  610SOL  HW1   1829   1.021   2.467   2.764  0.4431  4.5456 -0.4227
  610SOL  HW2   1830   1.013   2.627   2.813 -3.4586 -1.4796 -1.1178
  611SOL  OW    1831   3.081   1.310   0.209  0.0376 -0.4591 -0.6256
  611SOL  HW1   1832   0.004   1.211   0.212  0.7481  1.6599  1.4204
  611SOL  HW2   1833   3.007   1.339   0.277  0.8767  1.3207 -0.3823
  612SOL  OW    1834   1.110   1.859   2.163 -0.5773 -0.2882 -0.4423
  612SOL  HW1   1835   1.018   1.834   2.133  0.1993  2.5419  0.5759
  612SOL  HW2   1836   1.111   1.954   2.201 -2.8199  0.2380  0.9381
  613SOL  OW    1837   1.020   1.927   0.440 -0.4611 -0.1797  0.3687
  613SOL  HW1   1838   1.023   1.828   0.418 -1.6546  0.2071  0.0507
  613SOL  HW2   1839   1.085   1.974   0.373  0.8221 -1.8966  0.2396
  614SOL  OW    1840   2.942   2.258   1.817  0.3606  0.2967 -0.2809
  614SOL  HW1   1841   2.963   2.161   1.838  1.9039  2.9397  2.0845
  614SOL  HW2   1842   2.934   2.308   1.906 -1.8492  2.5765  1.7509
  615SOL  OW    1843   1.646   1.375   0.104  0.3611  0.1541  0.0961
  615SOL  HW1   1844   1.738   1.336   0.078 -0.9636 -0.5916  0.7378
  615SOL  HW2   1845   1.598   1.421   0.028  1.6266  0.1432 -0.1546
  616SOL  OW    1846   1.164   0.128   2.894 -0.1160 -0.4139 -0.2166
  616SOL  HW1   1847   1.180   0.212   2.840  1.0524  0.7508  0.9243
  616SOL  HW2   1848   1.120   0.152   2.985 -0.3142  0.7976  2.1668
  617SOL  OW    1849   1.080   1.569   2.708  0.2804  0.0764 -0.1634
  617SOL  HW1   1850   1.032   1.621   2.640  0.5201 -2.2372 -0.4325
  617SOL  HW2   1851   1.100   1.616   2.793  2.7446  0.9661 -1.2674
  618SOL  OW    1852   0.514   0.952   1.411  0.4049  0.1543  0.0080
  618SOL  HW1   1853   0.557   0.925   1.323  2.0660 -0.4736  0.0744
  618SOL  HW2   1854   0.563   0.913   1.495 -3.4379 -0.2696 -0.4955
  619SOL  OW    1855   2.513   1.671   2.997  0.1235  0.1223 -0.1785
  619SOL  HW1   1856   2.513   1.665   2.894  1.8732  1.1904  1.0505
  619SOL  HW2   1857   2.422   1.675   3.041 -3.6192 -0.4069  0.7840
  620SOL  OW    1858   2.348   1.093   2.715  0.0125 -0.1218  0.3119
  620SOL  HW1   1859   2.444   1.080   2.755  2.6654 -0.3445  0.8229
  620SOL  HW2   1860   2.346   1.114   2.619 -0.3264  1.0783  1.7486
  621SOL  OW    1861   2.023   2.730   0.867 -0.7223  0.3874 -0.5375
  621SOL  HW1   1862   2.017   2.831   0.853  1.7003  1.9887 -1.6158
  621SOL  HW2   1863   2.022   2.689   0.771 -0.1947 -3.8317 -2.2162
  622SOL  OW    1864   1.460   0.547   2.128  0.4243  0.4012  0.3325
  622SOL  HW1   1865   1.533   0.487   2.161  0.7467 -0.8990  1.0638
  622SOL  HW2   1866   1.495   0.642   2.121 -1.6815 -0.3765  2.1336
  623SOL  OW    1867   1.010   0.774   2.222 -0.7407  0.0335  0.3723
  623SOL  HW1   1868   0.994   0.848   2.290 -0.0749 -2.0297  1.0338
  623SOL  HW2   1869   1.102   0.730   2.236  1.8657  0.3822 -1.6794
  624SOL  OW    1870   1.883   0.290   2.285  0.4384  0.6789 -0.7805
  624SOL  HW1   1871   1.928   0.281   2.194  0.1885  0.3920  2.7986
  624SOL  HW2   1872   1.806   0.357   2.286 -0.6353 -0.9818 -0.5212
  625SOL  OW    1873   0.145   1.623   0.363  0.2178 -0.4707  0.0535
  625SOL  HW1   1874   0.069   1.584   0.412  1.4113  0.5706  0.2989
  625SOL  HW2   1875   0.177   1.559   0.285 -0.4689 -1.9706 -1.0074
  626SOL  OW    1876   1.865   1.573   2.459  0.4869 -0.2930  0.1074
  626SOL  HW1   1877   1.810   1.610   2.384  2.6091 -1.3559  1.8941
  626SOL  HW2   1878   1.837   1.618   2.546 -0.6874 -3.1461 -0.2680
  627SOL  OW    1879   0.587   0.673   1.944  0.6532 -0.1831  0.1846
  627SOL  HW1   1880   0.640   0.681   2.031  0.8278 -0.0207 -1.2904
  627SOL  HW2   1881   0.572   0.764   1.895 -0.2877 -1.4120 -2.1417
  628SOL  OW    1882   2.514   0.361   2.136 -0.1110 -0.5220  0.0658
  628SOL  HW1   1883   2.595   0.301   2.109  4.2610 -0.8448  1.0742
  628SOL  HW2   1884   2.542   0.457   2.126  1.5605  2.4220 -0.2087
  629SOL  OW    1885   0.773   1.624   2.930 -0.5759  0.4869 -0.7229
  629SOL  HW1   1886   0.816   1.716   2.942  1.6285 -2.2783  0.7077
  629SOL  HW2   1887   0.786   1.570   3.014 -1.1176  2.5054 -3.1533
  630SOL  OW    1888   1.214   2.974   1.863  0.0584  0.6246 -0.0247
  630SOL  HW1   1889   1.316   2.966   1.846  2.0418  0.6855 -0.0252
  630SOL  HW2   1890   1.193   3.066   1.902  0.1076  0.6033  0.2035
  631SOL  OW    1891   2.376   0.592   0.430  0.0471  0.4228  0.2981
  631SOL  HW1   1892   2.382   0.528   0.508 -2.1616 -2.5336  0.7355
  631SOL  HW2   1893   2.291   0.646   0.448 -3.4596  0.3399 -0.0090
  632SOL  OW    1894   2.932   1.594   0.710  0.0309 -0.5720  0.2390
  632SOL  HW1   1895   2.937   1.700   0.715  0.6906 -2.1091  0.6596
  632SOL  HW2   1896   2.937   1.561   0.806  0.2307 -0.5790  3.5531
  633SOL  OW    1897   1.679   1.467   0.752 -0.3313 -0.3695 -0.2854
  633SOL  HW1   1898   1.722   1.463   0.657  1.7264  1.3019 -0.3892
  633SOL  HW2   1899   1.593   1.517   0.754  0.5454 -2.2794 -0.8916
  634SOL  OW    1900   1.607   3.088   2.895  0.1476 -0.0383 -0.3506
  634SOL  HW1   1901   1.507   3.069   2.884 -1.8797  0.5917 -0.2367
  634SOL  HW2   1902   1.624   0.033   2.985  1.7284  0.3529  2.0886
  635SOL  OW    1903   1.894   3.090   2.005 -0.1994  0.4070 -0.3346
  635SOL  HW1   1904   1.939   3.004   1.981 -1.6417  1.2962  1.8256
  635SOL  HW2   1905   1.829   3.080   2.086  1.9694  2.2916  2.9340
  636SOL  OW    1906   1.303   0.475   1.404  0.3433 -0.6541 -0.3400
  636SOL  HW1   1907   1.333   0.573   1.393  0.6136 -0.5031 -1.6798
  636SOL  HW2   1908   1.357   0.431   1.476 -2.1736  1.6867  0.6576
  637SOL  OW    1909   1.859   1.345   2.613 -0.1502  0.7885 -0.7328
  637SOL  HW1   1910   1.842   1.423   2.555  3.2038 -1.2160  1.0697
  637SOL  HW2   1911   1.944   1.296   2.585 -0.2695  1.5500  2.4374
  638SOL  OW    1912   0.550   2.754   2.278  0.5636 -0.1620  0.0341
  638SOL  HW1   1913   0.519   2.813   2.198 -0.7923  1.9562 -1.7615
  638SOL  HW2   1914   0.632   2.701   2.253 -4.4954  2.7228  0.5281
  639SOL  OW    1915   0.850   1.602   1.132 -0.1725  0.2033  0.8090
  639SOL  HW1   1916   0.924   1.607   1.064  0.7622  2.0509 -1.9777
  639SOL  HW2   1917   0.770   1.556   1.092 -2.3766 -1.5004 -0.6248
  640SOL  OW    1918   0.112   0.562   2.352 -0.1270  0.3925  0.6980
  640SOL  HW1   1919   0.062   0.614   2.425 -0.3801  0.4173  1.3588
  640SOL  HW2   1920   0.068   0.478   2.311  1.9338  1.6424  0.7274
  641SOL  OW    1921   0.866   3.040   0.778 -1.0743  0.0551  0.1631
  641SOL  HW1   1922   0.803   3.092   0.838  1.2025 -0.1696 -1.9638
  641SOL  HW2   1923   0.878   3.086   0.688  0.0894 -0.6123 -0.6140
  642SOL  OW    1924   0.349   1.790   1.266 -0.1112 -0.2682  0.1909
  642SOL  HW1   1925   0.253   1.762   1.254  0.6044  0.8903  1.2038
  642SOL  HW2   1926   0.350   1.876   1.319 -1.2865  0.4417 -0.4714
  643SOL  OW    1927   1.141   1.718   2.927  0.3192  0.5911 -0.1327
  643SOL  HW1   1928   1.241   1.738   2.907  0.6071  0.2838 -0.6875
  643SOL  HW2   1929   1.088   1.807   2.934 -0.1084  2.5023 -1.2624
  644SOL  OW    1930   1.678   2.514   0.887 -0.3225  0.1154  0.4276
  644SOL  HW1   1931   1.711   2.514   0.788  0.8757  0.7938  0.5069
  644SOL  HW2   1932   1.606   2.585   0.897  0.6001  2.4544 -1.0262
  645SOL  OW    1933   0.705   1.949   1.447 -0.1883 -0.4985 -0.4772
  645SOL  HW1   1934   0.663   1.856   1.450  0.9569 -0.4739 -0.1617
  645SOL  HW2   1935   0.654   2.007   1.511  2.7656 -0.8329 -1.2564
  646SOL  OW    1936   0.189   2.258   2.572 -0.5060  0.0221  0.2908
  646SOL  HW1   1937   0.181   2.161   2.604  0.8173  0.7301  0.3662
  646SOL  HW2   1938   0.287   2.287   2.579  1.3687  2.2896  0.2250
  647SOL  OW    1939   0.058   0.964   2.584  0.6306  0.1784 -0.2457
  647SOL  HW1   1940   0.082   0.992   2.488 -0.8649  0.7776 -0.0026
  647SOL  HW2   1941   0.046   1.048   2.644  0.1119  1.0155  2.5660
  648SOL  OW    1942   2.900   0.959   1.638 -0.1009  0.5428  0.1059
  648SOL  HW1   1943   2.965   0.927   1.710 -0.7732  1.0006  3.2647
  648SOL  HW2   1944   2.947   0.980   1.549 -1.3477  0.5789 -1.6391
  649SOL  OW    1945   1.354   2.531   2.082 -0.0353 -0.0042  0.1628
  649SOL  HW1   1946   1.426   2.466   2.045  1.2491 -1.3951 -0.9364
  649SOL  HW2   1947   1.395   2.608   2.130 -0.9496 -2.8518  0.3068
  650SOL  OW    1948   0.148   2.614   2.798 -0.1075 -0.2556 -0.1124
  650SOL  HW1   1949   0.234   2.619   2.749 -0.6460 -1.2194 -2.7302
  650SOL  HW2   1950   0.093   2.534   2.769  0.4316  0.1249  0.5523
  651SOL  OW    1951   0.828   1.498   0.068 -0.4894  0.1757  0.3727
  651SOL  HW1   1952   0.919   1.463   0.070 -0.9912 -0.0870  0.7916
  651SOL  HW2   1953   0.815   1.570   0.138  0.6687 -0.0249 -0.1442
  652SOL  OW    1954   1.437   0.582   1.822  0.1355  0.6583  0.4494
  652SOL  HW1   1955   1.440   0.591   1.922  0.3058  0.2228 -3.6995
  652SOL  HW2   1956   1.352   0.533   1.793 -1.9017 -0.0146  0.3185
  653SOL  OW    1957   1.472   2.372   1.750 -0.0224  0.1731  0.0074
  653SOL  HW1   1958   1.503   2.468   1.720 -2.4362 -0.1706 -1.1699
  653SOL  HW2   1959   1.371   2.374   1.729 -0.0096 -0.0724 -1.5217
  654SOL  OW    1960   1.963   2.510   2.157 -0.3973  0.0888  0.2505
  654SOL  HW1   1961   2.006   2.594   2.116  2.1181  2.3141  2.5722
  654SOL  HW2   1962   2.023   2.464   2.230  0.7165 -1.5193  4.2376
  655SOL  OW    1963   2.748   2.629   0.887 -0.0672  0.2125  0.3643
  655SOL  HW1   1964   2.667   2.628   0.950 -2.0592  0.2766  0.2891
  655SOL  HW2   1965   2.754   2.556   0.814  0.9396 -0.7132 -0.1423
  656SOL  OW    1966   1.722   1.972   0.261 -0.0708 -0.3524  0.0891
  656SOL  HW1   1967   1.705   1.921   0.348 -0.1586  0.7026 -0.5970
  656SOL  HW2   1968   1.682   1.904   0.194 -0.7644 -1.4899  1.3929
  657SOL  OW    1969   2.946   1.643   1.223 -0.0875 -0.0947  0.7908
  657SOL  HW1   1970   2.867   1.708   1.204  0.0734  0.9694  0.6017
  657SOL  HW2   1971   2.899   1.572   1.286 -2.3034 -1.0457  2.3527
  658SOL  OW    1972   1.343   1.956   1.869 -0.1157  0.5996 -0.1150
  658SOL  HW1   1973   1.314   1.859   1.857 -0.2557 -1.1361 -1.2029
  658SOL  HW2   1974   1.389   1.966   1.961 -0.8180 -0.8064 -0.2286
  659SOL  OW    1975   1.066   2.963   1.626  0.3624  0.6220  0.5059
  659SOL  HW1   1976   1.116   2.958   1.715  0.6076  0.9057  1.5766
  659SOL  HW2   1977   1.129   2.970   1.548 -4.0677 -0.6947 -0.2985
  660SOL  OW    1978   2.767   0.741   0.677  0.1437 -0.9172  0.0980
  660SOL  HW1   1979   2.721   0.702   0.592  1.2366 -1.1800  0.5481
  660SOL  HW2   1980   2.698   0.750   0.752 -3.7086 -0.2126 -1.9518
  661SOL  OW    1981   0.691   1.854   0.893  0.2470 -0.1191 -0.1081
  661SOL  HW1   1982   0.636   1.908   0.826  2.6390  1.4309  0.3905
  661SOL  HW2   1983   0.638   1.842   0.982 -2.5973  1.5676  0.9991
  662SOL  OW    1984   2.132   0.927   1.735  0.0535 -0.0791 -0.0245
  662SOL  HW1   1985   2.203   0.990   1.697  0.2772  0.1175 -2.2945
  662SOL  HW2   1986   2.126   0.922   1.836 -1.7160  0.5392 -1.4669
  663SOL  OW    1987   1.653   1.017   1.031 -0.2556 -0.3499 -0.6060
  663SOL  HW1   1988   1.651   1.092   0.965 -0.4997  0.9242 -1.3818
  663SOL  HW2   1989   1.722   1.037   1.103  0.0019  0.0901  2.8436
  664SOL  OW    1990   0.720   0.635   1.409 -0.6875 -0.2126 -0.4571
  664SOL  HW1   1991   0.802   0.661   1.468 -1.3294  1.7954  0.5812
  664SOL  HW2   1992   0.694   0.711   1.353  4.4692 -0.4085  0.4426
  665SOL  OW    1993   1.124   1.048   2.884 -0.2069  0.0684 -0.3476
  665SOL  HW1   1994   1.208   1.069   2.938 -0.0894  0.8741  1.3039
  665SOL  HW2   1995   1.045   1.096   2.931 -2.3223  1.8398  3.1450
  666SOL  OW    1996   0.472   0.801   2.298  0.5386 -0.6532  0.1725
  666SOL  HW1   1997   0.443   0.767   2.391 -0.3525 -3.6994  2.1093
  666SOL  HW2   1998   0.558   0.762   2.277  0.0608 -0.0896  2.6267
  667SOL  OW    1999   1.175   1.165   1.210 -0.6636 -0.2815 -0.2286
  667SOL  HW1   2000   1.082   1.186   1.176  2.3207 -0.8493  0.8295
  667SOL  HW2   2001   1.186   1.196   1.307  0.8457 -0.5178  3.9081
  668SOL  OW    2002   0.169   1.950   1.915 -0.1467  0.1221 -0.0324
  668SOL  HW1   2003   0.066   1.940   1.910 -0.9907 -2.9713 -0.3969
  668SOL  HW2   2004   0.209   1.950   1.819  0.8960  1.5507 -1.0713
  669SOL  OW    2005   2.146   2.711   2.832 -0.0234  0.1399 -0.1905
  669SOL  HW1   2006   2.106   2.728   2.926 -2.4640  0.2642  1.2059
  669SOL  HW2   2007   2.141   2.609   2.818  0.5836 -0.1960  1.1491
  670SOL  OW    2008   3.033   0.489   1.967  0.4359  0.1143  0.0066
  670SOL  HW1   2009   2.974   0.529   2.039 -0.0280 -0.0260 -1.3064
  670SOL  HW2   2010   0.026   0.460   2.009 -1.4599  0.2355 -1.4265
  671SOL  OW    2011   2.866   2.360   0.323  0.2787  0.0302  0.0913
  671SOL  HW1   2012   2.884   2.405   0.412 -1.3206 -0.3267 -2.5426
  671SOL  HW2   2013   2.765   2.346   0.308 -2.1056  0.4233 -1.0260
  672SOL  OW    2014   2.474   1.485   1.432 -0.2189 -0.0681  0.5284
  672SOL  HW1   2015   2.379   1.450   1.411  1.4978 -1.0422  1.4338
  672SOL  HW2   2016   2.499   1.560   1.361 -1.6987  3.0234 -1.2049
  673SOL  OW    2017   2.808   2.327   1.589 -0.6420  0.3494  0.4657
  673SOL  HW1   2018   2.874   2.381   1.526  1.3907 -1.9868 -2.5168
  673SOL  HW2   2019   2.838   2.309   1.687  0.7451 -0.1629  2.8539
  674SOL  OW    2020   0.650   1.432   1.381  0.3037 -0.9678 -0.0407
  674SOL  HW1   2021   0.753   1.434   1.387 -3.9466 -0.5738 -0.6098
  674SOL  HW2   2022   0.620   1.346   1.335 -1.6507  0.7663  0.5129
  675SOL  OW    2023   1.146   0.848   1.520  0.5156  0.3098  0.2215
  675SOL  HW1   2024   1.235   0.833   1.566  3.2476  2.6416 -0.4069
  675SOL  HW2   2025   1.132   0.799   1.433 -2.6002  0.7382  0.3267
  676SOL  OW    2026   2.450   1.840   1.754  0.1734 -0.0277  0.4216
  676SOL  HW1   2027   2.511   1.905   1.702  1.9416  0.6691  0.4102
  676SOL  HW2   2028   2.418   1.881   1.840  1.0708 -2.8671 -1.7592
  677SOL  OW    2029   1.864   0.972   2.449  0.1359  0.1722  0.0206
  677SOL  HW1   2030   1.911   0.965   2.355 -0.7116  1.0047 -0.9502
  677SOL  HW2   2031   1.769   1.004   2.444 -0.4371 -0.6385  1.5876
  678SOL  OW    2032   2.648   1.132   1.160 -0.5378  0.1485 -0.5482
  678SOL  HW1   2033   2.735   1.185   1.139 -0.6862  0.2955 -1.8007
  678SOL  HW2   2034   2.569   1.177   1.119  3.6121  1.6886  1.8759
  679SOL  OW    2035   0.003   2.837   2.701  0.0193 -0.1354 -0.2951
  679SOL  HW1   2036   0.063   2.757   2.723  0.0661 -1.2274  0.9026
  679SOL  HW2   2037   3.001   2.810   2.715 -0.2828 -0.9874 -1.3105
  680SOL  OW    2038   2.778   2.334   0.767 -0.0778 -0.0124  1.0783
  680SOL  HW1   2039   2.818   2.385   0.689  0.8754 -2.2046  2.9735
  680SOL  HW2   2040   2.683   2.300   0.747 -0.7819  0.4253 -0.7418
  681SOL  OW    2041   1.463   0.118   0.774  0.0868 -0.1589  0.4149
  681SOL  HW1   2042   1.496   0.155   0.861 -0.2872 -1.1089 -2.5304
  681SOL  HW2   2043   1.411   0.029   0.777 -2.0019 -1.3865  0.5729
  682SOL  OW    2044   1.591   2.815   1.938 -0.1867  0.2705  0.1704
  682SOL  HW1   2045   1.549   2.782   2.026  1.3845 -1.8031  0.7551
  682SOL  HW2   2046   1.554   2.908   1.921  0.8584 -2.5615  0.8416
  683SOL  OW    2047   2.994   1.979   1.888  0.1872  0.3159  0.0086
  683SOL  HW1   2048   2.918   1.976   1.960 -1.6653  1.5434  0.4052
  683SOL  HW2   2049   2.965   1.931   1.800 -2.4408 -1.7297 -1.0132
  684SOL  OW    2050   0.266   0.871   2.733 -0.2813  0.0332 -0.2968
  684SOL  HW1   2051   0.180   0.878   2.678  1.1282 -0.7677  2.7980
  684SOL  HW2   2052   0.308   0.963   2.734  0.5062  2.1959 -0.0748
  685SOL  OW    2053   1.089   1.580   0.984  0.3072  0.6404  0.2345
  685SOL  HW1   2054   1.071   1.634   0.900 -0.4690  0.9244  1.3749
  685SOL  HW2   2055   1.070   1.482   0.957  0.0609 -0.9204  0.9587
  686SOL  OW    2056   0.759   0.211   2.093  0.2521  0.3546  0.2558
  686SOL  HW1   2057   0.818   0.126   2.084  1.6719  1.7139  0.2472
  686SOL  HW2   2058   0.704   0.210   2.181  0.3186  0.2959  0.7740
  687SOL  OW    2059   1.526   2.453   0.220 -0.2914  0.7198  0.1747
  687SOL  HW1   2060   1.597   2.523   0.242 -0.1150 -1.9981  0.5297
  687SOL  HW2   2061   1.558   2.362   0.259 -1.3718 -0.0108  1.5479
  688SOL  OW    2062   0.959   1.641   2.425  0.1687  0.1437 -0.9658
  688SOL  HW1   2063   1.022   1.719   2.405 -1.3607  0.8404 -2.3833
  688SOL  HW2   2064   0.902   1.620   2.342 -0.7238  1.4856  0.7211
  689SOL  OW    2065   2.109   1.763   1.350  0.2087  0.0184 -0.4384
  689SOL  HW1   2066   2.165   1.816   1.416  1.1791  1.8601  0.7099
  689SOL  HW2   2067   2.018   1.810   1.329 -3.0791 -1.0097 -0.8724
  690SOL  OW    2068   2.924   1.578   1.885  0.6049  0.1883 -0.1000
  690SOL  HW1   2069   2.948   1.615   1.797 -1.3488  2.2034  3.1251
  690SOL  HW2   2070   2.873   1.643   1.940  1.0884 -1.8984 -3.7537
  691SOL  OW    2071   0.160   1.430   0.975 -0.2832  0.3627  0.7538
  691SOL  HW1   2072   0.241   1.490   0.970  1.0764  0.7634  1.0362
  691SOL  HW2   2073   0.134   1.393   0.883  1.3522  0.7571 -1.1282
  692SOL  OW    2074   0.838   0.469   0.255 -0.0244 -0.0990 -0.1622
  692SOL  HW1   2075   0.939   0.449   0.259  2.9567 -1.1899  0.8879
  692SOL  HW2   2076   0.789   0.400   0.198 -1.4191 -0.2412 -2.4846
  693SOL  OW    2077   0.406   0.716   2.562 -0.1132  0.0335 -0.1485
  693SOL  HW1   2078   0.369   0.617   2.554 -0.3932  1.0894 -0.0816
  693SOL  HW2   2079   0.357   0.773   2.636 -1.7824  1.0148 -1.3389
  694SOL  OW    2080   2.788   0.226   2.296 -0.4481  0.1819 -0.3682
  694SOL  HW1   2081   2.824   0.131   2.309 -0.0505 -1.9600 -1.3189
  694SOL  HW2   2082   2.735   0.239   2.208 -1.2462 -1.7989  0.9286
  695SOL  OW    2083   2.313   1.314   2.499  0.0796 -0.1142 -0.4474
  695SOL  HW1   2084   2.223   1.262   2.499  0.6629 -1.3471 -1.4594
  695SOL  HW2   2085   2.386   1.281   2.435  0.4739 -1.6640 -0.8601
  696SOL  OW    2086   1.677   2.466   2.752 -0.0588 -0.1715  0.3045
  696SOL  HW1   2087   1.603   2.416   2.701 -0.4982 -0.5154  0.9607
  696SOL  HW2   2088   1.771   2.465   2.700  4.8444 -3.3464 -0.3709
  697SOL  OW    2089   1.609   1.381   1.534 -0.1408 -0.2778 -0.2208
  697SOL  HW1   2090   1.709   1.377   1.556  2.3899 -2.0013 -2.2218
  697SOL  HW2   2091   1.554   1.328   1.600 -1.5665 -0.2886 -1.5737
  698SOL  OW    2092   2.551   1.856   0.342  0.1235 -0.1868  0.3893
  698SOL  HW1   2093   2.651   1.836   0.335  2.6965 -0.9501 -1.3576
  698SOL  HW2   2094   2.509   1.840   0.434  0.6148  0.7487  0.6294
  699SOL  OW    2095   1.822   0.885   3.026 -0.1945  0.3776 -0.3794
  699SOL  HW1   2096   1.892   0.833   2.973  0.9086  1.9209 -0.4652
  699SOL  HW2   2097   1.750   0.924   2.965 -1.1578  0.9726  0.5214
  700SOL  OW    2098   0.701   2.341   1.858  0.2596 -0.1116 -0.2183
  700SOL  HW1   2099   0.778   2.317   1.923  2.2002  0.8869  1.9346
  700SOL  HW2   2100   0.658   2.430   1.886  0.2527 -2.6941  2.0738
  701SOL  OW    2101   0.111   0.653   0.959  0.3662 -1.1400  0.3523
  701SOL  HW1   2102   0.099   0.567   1.010 -0.4470  0.2792 -1.7023
  701SOL  HW2   2103   0.023   0.675   0.913  0.3284 -0.4032  0.9426
  702SOL  OW    2104   1.609   3.095   1.319 -0.2386 -0.0231 -0.0787
  702SOL  HW1   2105   1.539   0.045   1.261  1.2501 -0.2630  2.9751
  702SOL  HW2   2106   1.565   3.034   1.390  1.3534 -2.1172  1.0104
  703SOL  OW    2107   2.555   1.448   0.959 -0.5465 -0.1586 -0.1089
  703SOL  HW1   2108   2.610   1.428   0.877  0.4251  1.0164  0.6104
  703SOL  HW2   2109   2.515   1.367   1.006 -0.5174 -1.0555 -0.3522
  704SOL  OW    2110   1.170   0.504   0.997  0.3336  0.5236  0.3010
  704SOL  HW1   2111   1.099   0.536   1.069 -2.7805  1.7043  2.6472
  704SOL  HW2   2112   1.132   0.521   0.903 -1.0381  0.1702  1.8440
  705SOL  OW    2113   2.830   1.562   0.019  0.7393 -0.1875  0.0771
  705SOL  HW1   2114   2.742   1.564   0.067 -0.0039  1.7772 -2.1646
  705SOL  HW2   2115   2.864   1.466   0.007 -1.2171  1.1262  1.8186
  706SOL  OW    2116   2.940   2.907   0.336  0.3316  0.0803  0.1778
  706SOL  HW1   2117   2.924   2.998   0.379  2.1728 -1.5381 -0.1316
  706SOL  HW2   2118   3.033   2.893   0.298 -2.4783  0.5092 -0.2294
  707SOL  OW    2119   1.046   0.425   2.208  0.4248 -0.1477 -0.6233
  707SOL  HW1   2120   1.000   0.422   2.117  0.0974 -2.2402  0.4248
  707SOL  HW2   2121   1.078   0.332   2.240 -0.3107 -0.5798  2.6481
  708SOL  OW    2122   0.905   0.714   1.603  0.1840  0.1037 -0.0428
  708SOL  HW1   2123   0.898   0.657   1.690  0.9552 -1.4637 -2.9181
  708SOL  HW2   2124   0.997   0.748   1.584 -1.3234  2.9669  1.0853
  709SOL  OW    2125   3.044   1.201   2.271  0.0257 -0.4061 -0.3414
  709SOL  HW1   2126   3.096   1.125   2.311  0.0576 -1.3455  1.0881
  709SOL  HW2   2127   2.994   1.174   2.186  0.3431 -0.7283  0.9089
  710SOL  OW    2128   2.839   0.387   0.752  0.0837 -0.1484 -0.3449
  710SOL  HW1   2129   2.859   0.382   0.851  0.7873 -0.0122 -0.5112
  710SOL  HW2   2130   2.753   0.437   0.728 -1.5323  0.9510  0.6072
  711SOL  OW    2131   2.918   2.319   0.988  0.3394  0.1077  0.2650
  711SOL  HW1   2132   2.853   2.342   0.910  0.0250  2.6898  0.6904
  711SOL  HW2   2133   3.006   2.289   0.940 -0.1107 -0.9344 -0.7808
  712SOL  OW    2134   0.498   0.418   2.301  0.3807  0.4618 -0.2482
  712SOL  HW1   2135   0.599   0.426   2.307  0.8063 -0.9791  0.1165
  712SOL  HW2   2136   0.460   0.439   2.209 -0.4023  0.2794  1.7218
  713SOL  OW    2137   2.106   3.085   2.970  0.1190 -0.1845  0.5779
  713SOL  HW1   2138   2.065   3.047   2.886  2.3473  0.2041  0.1649
  713SOL  HW2   2139   2.209   3.081   2.966  3.0991 -1.3780 -0.1692
  714SOL  OW    2140   2.060   1.194   2.519  0.1873 -0.6487  0.1603
  714SOL  HW1   2141   2.037   1.145   2.604 -0.3277  1.6437  0.1956
  714SOL  HW2   2142   2.049   1.130   2.442  1.2167 -0.3297 -0.4126
  715SOL  OW    2143   0.076   1.341   0.718 -0.2426  0.4404  0.5752
  715SOL  HW1   2144   0.050   1.396   0.638 -0.4773 -0.5375  2.2590
  715SOL  HW2   2145   3.088   1.303   0.759  1.2657 -1.1992 -0.9019
  716SOL  OW    2146   0.467   0.220   0.995 -0.2938  0.3895 -0.1909
  716SOL  HW1   2147   0.369   0.217   0.966 -1.1900  0.9054 -0.0824
  716SOL  HW2   2148   0.503   0.297   1.056 -0.4839  0.0071  1.7906
  717SOL  OW    2149   1.184   0.372   2.762 -0.3225 -0.2305 -0.3327
  717SOL  HW1   2150   1.273   0.347   2.713  2.2232 -0.3525  2.0526
  717SOL  HW2   2151   1.122   0.435   2.711 -0.9615 -0.4650 -0.5261
  718SOL  OW    2152   0.766   2.450   0.394 -0.3256 -0.0126 -0.2428
  718SOL  HW1   2153   0.717   2.535   0.422  0.9508 -1.8968  0.1927
  718SOL  HW2   2154   0.866   2.468   0.379  1.6623 -2.0957  1.2658
  719SOL  OW    2155   2.891   2.338   2.524  0.1835  0.1230  0.5310
  719SOL  HW1   2156   2.842   2.410   2.466  0.1664  2.9466 -0.9788
  719SOL  HW2   2157   2.828   2.283   2.579  3.0137  2.4749  0.7188
  720SOL  OW    2158   2.450   0.938   1.984 -0.4810 -0.6208 -0.0390
  720SOL  HW1   2159   2.447   1.008   1.906 -2.6590 -0.0248 -2.0755
  720SOL  HW2   2160   2.547   0.905   1.999 -0.2714 -1.3393 -0.8613
  721SOL  OW    2161   0.111   3.088   0.861  0.1079  0.2452  0.0088
  721SOL  HW1   2162   0.108   3.042   0.767 -1.4130 -0.7823  0.2316
  721SOL  HW2   2163   0.164   3.026   0.930 -0.3061  0.2180  0.2211
  722SOL  OW    2164   0.304   1.013   0.111  0.1062 -0.1940 -0.6297
  722SOL  HW1   2165   0.357   0.935   0.150  3.5416  0.4187  2.1959
  722SOL  HW2   2166   0.264   0.979   0.027  3.9006 -0.4035  0.8731
  723SOL  OW    2167   1.838   1.324   2.212  0.4612 -0.1663  0.1633
  723SOL  HW1   2168   1.853   1.350   2.112  0.4078  2.1812 -2.1912
  723SOL  HW2   2169   1.917   1.289   2.263  1.0258 -1.0899  0.2613
  724SOL  OW    2170   0.613   2.094   0.281 -0.2255 -0.8983 -0.0667
  724SOL  HW1   2171   0.682   2.076   0.354  1.7804  1.0713  0.0965
  724SOL  HW2   2172   0.638   2.185   0.236  1.1717  1.7405 -1.1025
  725SOL  OW    2173   2.968   0.023   0.981  0.4109 -0.4985 -0.1369
  725SOL  HW1   2174   3.048   3.092   0.920 -0.1637 -0.7665 -0.8363
  725SOL  HW2   2175   2.907   3.039   0.999 -2.1298  0.5915  0.7144
  726SOL  OW    2176   1.982   0.179   0.285  0.1185 -0.0040  0.4944
  726SOL  HW1   2177   2.039   0.261   0.265 -1.1925 -0.5098 -1.0109
  726SOL  HW2   2178   1.991   0.105   0.219 -0.0901  2.6078  2.6911
  727SOL  OW    2179   1.732   1.041   0.338  0.3176  0.1725 -0.2107
  727SOL  HW1   2180   1.765   1.104   0.411 -2.0831 -0.0304 -0.4894
  727SOL  HW2   2181   1.802   1.026   0.267  2.9524 -0.0161  1.5665
  728SOL  OW    2182   1.659   1.314   1.255 -0.0586  0.4113 -0.0182
  728SOL  HW1   2183   1.736   1.255   1.230 -1.7546  0.4282 -2.6475
  728SOL  HW2   2184   1.631   1.294   1.350  2.4599 -1.4027 -1.6555
  729SOL  OW    2185   1.949   0.808   2.125  0.1197  0.2568 -0.2480
  729SOL  HW1   2186   2.042   0.818   2.081 -1.7107 -2.7020  1.9795
  729SOL  HW2   2187   1.971   0.785   2.222  0.3433  0.4001  3.3484
  730SOL  OW    2188   1.736   0.566   1.523  0.0882  0.4190  0.2950
  730SOL  HW1   2189   1.748   0.652   1.470  1.5602 -0.0738 -0.3382
  730SOL  HW2   2190   1.712   0.593   1.619 -0.2058  0.1051 -1.5819
  731SOL  OW    2191   0.592   2.922   2.711  0.4360 -0.1434  0.1067
  731SOL  HW1   2192   0.589   2.863   2.625 -0.4963 -1.5594 -2.0673
  731SOL  HW2   2193   0.503   2.982   2.709 -0.8699  0.4613 -1.0638
  732SOL  OW    2194   0.347   0.570   0.409 -0.0545 -0.0758 -0.0566
  732SOL  HW1   2195   0.359   0.559   0.508 -0.1969  0.9997 -1.6621
  732SOL  HW2   2196   0.399   0.502   0.353 -0.0733  1.0703 -3.4636
  733SOL  OW    2197   0.476   1.224   1.313  0.1191 -0.4075  0.1972
  733SOL  HW1   2198   0.382   1.260   1.301 -1.0816 -1.7076  0.9901
  733SOL  HW2   2199   0.474   1.139   1.376  0.2583 -1.2752 -0.7063
  734SOL  OW    2200   1.005   1.949   3.000 -0.5697 -0.3646 -0.2041
  734SOL  HW1   2201   0.919   1.920   3.052  0.9042 -1.8251  1.3949
  734SOL  HW2   2202   1.049   2.030   3.043  1.8604  0.2506  0.8244
  735SOL  OW    2203   0.520   2.716   2.866 -0.2653 -0.4507  0.1825
  735SOL  HW1   2204   0.483   2.732   2.961 -0.1094  0.4568  0.9022
  735SOL  HW2   2205   0.558   2.805   2.827  2.8527 -0.7893  1.4484
  736SOL  OW    2206   2.263   2.214   3.003 -0.4744  0.2338 -0.0114
  736SOL  HW1   2207   2.303   2.267   3.081 -1.1113  0.3143  0.6383
  736SOL  HW2   2208   2.202   2.138   3.031  0.5908 -0.1478 -1.5516
  737SOL  OW    2209   0.690   0.245   0.159  0.4478  0.1082 -0.7116
  737SOL  HW1   2210   0.708   0.167   0.226  1.4879 -2.6521  0.1448
  737SOL  HW2   2211   0.723   0.213   0.074  3.6091  0.4582  2.5547
  738SOL  OW    2212   0.641   0.088   1.693 -0.2512 -0.8333 -0.6366
  738SOL  HW1   2213   0.740   0.089   1.673  2.3096  0.2915  0.1495
  738SOL  HW2   2214   0.595   0.063   1.608 -0.0387  1.2909 -2.8911
  739SOL  OW    2215   0.637   0.149   2.325 -0.4762 -0.1204  0.3742
  739SOL  HW1   2216   0.637   0.171   2.422 -0.6674  1.2588  0.5100
  739SOL  HW2   2217   0.555   0.092   2.301  0.9244 -0.1208  1.0708
  740SOL  OW    2218   1.885   2.835   1.870 -0.4081  0.2283 -0.4114
  740SOL  HW1   2219   1.884   2.853   1.770 -1.6679  2.3591  1.5738
  740SOL  HW2   2220   1.788   2.827   1.895 -1.6016  0.3251 -0.4501
  741SOL  OW    2221   2.250   0.909   2.912  0.0092  0.0534 -0.4499
  741SOL  HW1   2222   2.267   0.958   2.827 -1.6658  0.9477 -1.3597
  741SOL  HW2   2223   2.218   0.974   2.984 -0.1192 -0.9678 -1.5321
  742SOL  OW    2224   1.716   2.778   0.002  0.5133  0.0288  0.3211
  742SOL  HW1   2225   1.653   2.749   3.024 -0.5219  1.4441 -0.6573
  742SOL  HW2   2226   1.717   2.877   0.014  2.0725 -0.9367 -1.5539
  743SOL  OW    2227   2.132   1.773   1.861  0.4247  0.1998  0.3647
  743SOL  HW1   2228   2.037   1.814   1.850 -2.9129  0.6354  0.6486
  743SOL  HW2   2229   2.216   1.824   1.832  0.8196 -0.0871  2.8485
  744SOL  OW    2230   0.127   0.111   0.161  0.4301  0.1577 -0.1362
  744SOL  HW1   2231   0.051   0.152   0.101 -0.6399  0.2591 -2.9671
  744SOL  HW2   2232   0.218   0.141   0.127 -1.2242 -0.5683  1.7477
  745SOL  OW    2233   2.621   2.199   1.439  0.0173  0.1812 -0.4643
  745SOL  HW1   2234   2.597   2.239   1.349 -2.5836  1.5402  0.1111
  745SOL  HW2   2235   2.685   2.260   1.486 -3.0308 -1.8599  1.5428
  746SOL  OW    2236   1.057   1.651   0.724 -0.6514  0.3154 -0.2841
  746SOL  HW1   2237   0.957   1.648   0.730  2.3324 -3.2422 -0.2514
  746SOL  HW2   2238   1.092   1.570   0.673  0.1018 -0.2473 -0.2583
  747SOL  OW    2239   0.998   2.043   1.624  0.6951 -0.4634 -0.1815
  747SOL  HW1   2240   1.074   2.010   1.564 -2.5108  1.2403  0.0202
  747SOL  HW2   2241   0.928   2.089   1.569  0.3965  0.2465 -3.0686
  748SOL  OW    2242   0.478   2.353   2.581 -0.0604  0.0115 -0.4517
  748SOL  HW1   2243   0.557   2.317   2.631  0.1868 -1.1042 -3.6179
  748SOL  HW2   2244   0.502   2.372   2.488 -1.7178  1.6392  2.9738
  749SOL  OW    2245   0.816   1.683   0.260  0.2371  0.6011  0.3387
  749SOL  HW1   2246   0.918   1.686   0.277 -0.0589  1.3435 -2.3536
  749SOL  HW2   2247   0.767   1.674   0.350  1.3970 -1.4101  0.4885
  750SOL  OW    2248   1.909   1.969   1.313  0.0363  0.1816 -0.0868
  750SOL  HW1   2249   1.817   1.998   1.292 -0.0598 -0.2790  1.6101
  750SOL  HW2   2250   1.936   2.007   1.406 -1.1357  1.6163 -1.1862
  751SOL  OW    2251   2.896   0.996   0.650  0.5057 -0.8089 -0.3214
  751SOL  HW1   2252   2.857   0.904   0.658  0.5520  0.5483 -1.9875
  751SOL  HW2   2253   2.927   1.046   0.733 -0.5219  0.0968  0.2431
  752SOL  OW    2254   2.980   2.713   1.171  0.5136  0.2344  1.3058
  752SOL  HW1   2255   3.018   2.731   1.263  2.7413 -1.6692 -1.1293
  752SOL  HW2   2256   2.895   2.650   1.182  0.1094 -0.0677  3.0354
  753SOL  OW    2257   1.012   2.725   1.229 -0.1208  0.2021 -0.6903
  753SOL  HW1   2258   0.979   2.778   1.151 -0.8926 -1.9749  2.2636
  753SOL  HW2   2259   1.014   2.625   1.211  0.5355 -2.9269  0.7704
  754SOL  OW    2260   0.055   0.956   0.909  0.4142 -0.5763  0.3375
  754SOL  HW1   2261   3.066   0.894   0.901  0.6866 -0.5658  1.0235
  754SOL  HW2   2262   0.114   0.942   0.828  0.6050 -0.3619  0.4007
  755SOL  OW    2263   1.922   1.341   2.877 -0.2590  0.3743  0.1504
  755SOL  HW1   2264   2.016   1.303   2.856 -0.7093 -1.7000  0.3639
  755SOL  HW2   2265   1.884   1.360   2.784  0.1850  0.7778  1.2531
  756SOL  OW    2266   2.130   2.268   0.570 -0.0160  0.4383 -0.1663
  756SOL  HW1   2267   2.193   2.205   0.517  0.2315 -1.4318 -0.6214
  756SOL  HW2   2268   2.044   2.217   0.593  1.9013  0.7000 -2.6641
  757SOL  OW    2269   0.471   0.221   0.482  0.5888  0.0427  0.1394
  757SOL  HW1   2270   0.375   0.180   0.458 -1.9541 -2.9767 -1.0573
  757SOL  HW2   2271   0.496   0.286   0.407 -0.2131 -0.3542  2.6417
  758SOL  OW    2272   2.308   0.362   1.920 -0.0912  0.3854 -0.0539
  758SOL  HW1   2273   2.353   0.352   2.010 -1.2760  2.6969 -1.5886
  758SOL  HW2   2274   2.336   0.289   1.854 -0.8525 -0.6643 -2.3877
  759SOL  OW    2275   2.944   0.763   0.889 -0.0742  0.0801  0.3073
  759SOL  HW1   2276   2.900   0.707   0.967 -2.8522  1.6452  0.7505
  759SOL  HW2   2277   2.879   0.771   0.813  0.6495 -0.8682  1.5684
  760SOL  OW    2278   0.270   1.015   1.065  0.1615 -0.2418  0.1741
  760SOL  HW1   2279   0.198   0.991   0.996  2.8137 -0.5254 -0.2967
  760SOL  HW2   2280   0.324   0.933   1.094  1.2623 -0.7467 -0.3175
  761SOL  OW    2281   1.084   2.765   2.915 -0.5577 -0.2581  0.2369
  761SOL  HW1   2282   1.070   2.863   2.883 -0.1294 -0.9314 -0.9211
  761SOL  HW2   2283   1.185   2.742   2.918  1.6167 -0.5020 -0.7891
  762SOL  OW    2284   1.409   1.708   0.961  0.4067 -0.1052  0.3136
  762SOL  HW1   2285   1.507   1.707   0.992  1.8871  1.1226  0.2919
  762SOL  HW2   2286   1.349   1.679   1.034  1.0543  0.8770  2.2208
  763SOL  OW    2287   1.875   1.350   1.589 -0.4080 -0.1077  0.2484
  763SOL  HW1   2288   1.924   1.407   1.519 -1.6085  0.0247  0.7908
  763SOL  HW2   2289   1.920   1.259   1.581  1.0298 -0.7841 -2.0571
  764SOL  OW    2290   2.905   3.091   2.346 -0.1615  0.1956  0.6057
  764SOL  HW1   2291   2.971   3.066   2.422  0.7679 -2.3335  0.0280
  764SOL  HW2   2292   2.836   3.017   2.340 -0.0833  1.6546  3.4263
  765SOL  OW    2293   0.137   0.431   1.116  0.3899 -0.0339 -0.4900
  765SOL  HW1   2294   0.149   0.366   1.041  2.6752  2.5839 -1.4117
  765SOL  HW2   2295   0.054   0.409   1.174 -1.5316 -0.2388  5.1536
  766SOL  OW    2296   2.651   1.334   2.490 -0.3299  0.1593  0.7504
  766SOL  HW1   2297   2.631   1.329   2.588  0.5407 -0.6730 -1.4907
  766SOL  HW2   2298   2.597   1.266   2.435  0.0157  2.3361  1.1719
  767SOL  OW    2299   1.368   0.788   2.648 -0.2350 -0.1436 -0.6341
  767SOL  HW1   2300   1.316   0.773   2.734 -2.8588 -1.4524  2.4279
  767SOL  HW2   2301   1.334   0.870   2.599  2.1888 -1.4843  0.7020
  768SOL  OW    2302   1.532   2.122   1.008  0.0694  0.6210 -0.2438
  768SOL  HW1   2303   1.430   2.101   1.024 -0.4700 -0.2138  0.2172
  768SOL  HW2   2304   1.551   2.170   0.917 -0.8832  1.4255 -1.3905
  769SOL  OW    2305   0.890   1.827   1.281  0.6672 -0.1328  0.6191
  769SOL  HW1   2306   0.852   1.767   1.203 -1.0887  0.3232 -0.6164
  769SOL  HW2   2307   0.814   1.873   1.329 -1.2752 -0.5430  0.5559
  770SOL  OW    2308   1.198   1.602   0.125 -0.0025 -0.5445  0.6054
  770SOL  HW1   2309   1.186   1.646   0.037  0.5736  0.1683  2.0557
  770SOL  HW2   2310   1.150   1.515   0.131  0.6234  1.6977  0.8735
  771SOL  OW    2311   1.812   2.316   2.024  0.4577  0.3516  0.6328
  771SOL  HW1   2312   1.859   2.292   1.941 -1.4067  1.8862  3.0274
  771SOL  HW2   2313   1.873   2.381   2.073  0.2171  0.9913 -1.5196
  772SOL  OW    2314   3.056   1.854   2.303 -0.0922 -0.2854 -0.4282
  772SOL  HW1   2315   2.998   1.769   2.301  0.4690 -0.7430  2.5787
  772SOL  HW2   2316   0.036   1.839   2.369  2.2279 -1.9528  3.1047
  773SOL  OW    2317   0.263   1.871   2.398 -0.1980  0.2788  0.3663
  773SOL  HW1   2318   0.305   1.785   2.439  0.0952 -1.8097 -0.7256
  773SOL  HW2   2319   0.246   1.853   2.301 -1.1596  0.3033  2.1082
  774SOL  OW    2320   2.057   0.093   2.646 -0.7648  0.6435  0.0609
  774SOL  HW1   2321   2.160   0.107   2.643  0.5637 -0.2834 -0.5399
  774SOL  HW2   2322   2.041   0.000   2.691 -0.8193 -0.6715 -0.9125
  775SOL  OW    2323   0.797   2.525   0.011 -0.0183 -0.3568  0.4419
  775SOL  HW1   2324   0.886   2.577   0.010 -0.8733  1.7834 -0.5328
  775SOL  HW2   2325   0.764   2.502   3.014  1.4056 -0.2740  3.2518
  776SOL  OW    2326   0.308   1.271   2.497  0.2120  0.4738  0.4511
  776SOL  HW1   2327   0.305   1.195   2.424  0.2059  0.1365 -0.4931
  776SOL  HW2   2328   0.397   1.318   2.490 -1.5249  1.1452 -1.4526
  777SOL  OW    2329   2.400   2.386   2.366 -0.1301 -0.3520 -0.0511
  777SOL  HW1   2330   2.304   2.404   2.334 -1.4076 -0.4561 -2.2543
  777SOL  HW2   2331   2.400   2.342   2.459 -0.2099 -0.2566 -2.3645
  778SOL  OW    2332   1.865   1.428   1.861  0.1196 -0.2849  0.1436
  778SOL  HW1   2333   1.846   1.423   1.758 -1.8216  1.4015 -3.1948
  778SOL  HW2   2334   1.963   1.442   1.881 -0.6314  0.6750 -1.1550
  779SOL  OW    2335   2.196   1.503   0.705  0.0819  0.0783  0.1641
  779SOL  HW1   2336   2.287   1.460   0.671  0.8102 -0.7774 -1.3003
  779SOL  HW2   2337   2.189   1.492   0.805 -1.1916 -1.5116 -1.5073
  780SOL  OW    2338   2.034   2.814   2.325  0.2451 -0.0098  0.0483
  780SOL  HW1   2339   2.067   2.906   2.355 -2.8764 -2.5914 -0.8764
  780SOL  HW2   2340   2.032   2.811   2.219  1.0410 -0.4672 -3.1409
  781SOL  OW    2341   2.866   1.880   1.614 -0.2752  0.1834  0.3532
  781SOL  HW1   2342   2.868   1.780   1.608 -1.4223  2.4482 -0.5325
  781SOL  HW2   2343   2.944   1.922   1.561  1.5058 -1.1111 -1.3901
  782SOL  OW    2344   1.643   0.167   2.639  0.0266  0.0011  0.0941
  782SOL  HW1   2345   1.636   0.144   2.737  0.0109  1.5647 -1.2539
  782SOL  HW2   2346   1.732   0.219   2.614  1.1067  0.8478  1.3603
  783SOL  OW    2347   1.174   1.753   1.315  0.3373 -0.2042 -0.4773
  783SOL  HW1   2348   1.215   1.685   1.251 -1.4909 -1.9865 -1.2225
  783SOL  HW2   2349   1.069   1.760   1.315  0.9295  1.7982  0.2352
  784SOL  OW    2350   2.155   1.100   0.452 -0.5996  0.3441  0.6209
  784SOL  HW1   2351   2.095   1.034   0.411  1.4628 -0.1592 -3.3820
  784SOL  HW2   2352   2.106   1.146   0.529 -1.2104 -0.4215  2.2631
  785SOL  OW    2353   1.979   3.008   0.864 -0.5316  0.0653  0.0746
  785SOL  HW1   2354   1.907   2.993   0.791  0.5412  2.4709 -0.9448
  785SOL  HW2   2355   1.963   0.009   0.898 -1.7394  0.0617 -1.5746
  786SOL  OW    2356   1.067   2.292   2.712 -0.6122 -0.6733 -0.0827
  786SOL  HW1   2357   1.132   2.288   2.791  0.3187  1.2153  0.3917
  786SOL  HW2   2358   1.031   2.201   2.709 -0.8183  0.3669 -0.5462
  787SOL  OW    2359   1.054   1.079   1.637 -0.4074 -0.6874 -0.6052
  787SOL  HW1   2360   1.090   0.988   1.608  0.5685 -1.2418 -1.4612
  787SOL  HW2   2361   1.053   1.088   1.742 -0.2067 -0.1642  2.0177
  788SOL  OW    2362   0.378   0.567   0.678 -0.7961  0.6153  0.1520
  788SOL  HW1   2363   0.475   0.558   0.661  0.8875 -1.1527  2.6777
  788SOL  HW2   2364   0.357   0.635   0.751 -0.3009  1.4865 -1.7638
  789SOL  OW    2365   2.838   1.317   0.373  0.3752  0.1315  0.6781
  789SOL  HW1   2366   2.789   1.265   0.442  0.8732 -0.7440  0.4388
  789SOL  HW2   2367   2.815   1.287   0.280 -0.3960  0.0490 -0.5270
  790SOL  OW    2368   0.778   0.204   2.975  0.2284 -0.5475 -0.0426
  790SOL  HW1   2369   0.759   0.138   2.899  0.1402  0.3778  1.0678
  790SOL  HW2   2370   0.791   0.302   2.941  3.0358  2.5155  0.0509
  791SOL  OW    2371   1.239   2.834   0.482 -0.0804  0.1753  0.1665
  791SOL  HW1   2372   1.137   2.830   0.468  1.4582  1.5584  0.7764
  791SOL  HW2   2373   1.284   2.856   0.391 -2.6405  0.7516 -1.0639
  792SOL  OW    2374   1.703   0.603   1.776 -0.1164 -0.0713  0.1179
  792SOL  HW1   2375   1.608   0.601   1.802  1.1144 -0.4688 -2.0245
  792SOL  HW2   2376   1.743   0.685   1.821 -0.0586 -0.6454 -1.0506
  793SOL  OW    2377   1.045   2.393   0.684 -0.1699 -0.7154  0.1055
  793SOL  HW1   2378   0.960   2.349   0.643 -1.3079 -0.1129  1.7717
  793SOL  HW2   2379   1.111   2.409   0.612 -0.2750 -0.0077 -1.0923
  794SOL  OW    2380   0.603   1.210   1.895  0.1190  0.0023  0.3201
  794SOL  HW1   2381   0.558   1.277   1.833 -0.7031  0.6992  0.5656
  794SOL  HW2   2382   0.694   1.235   1.930 -0.4537  0.2270  3.3353
  795SOL  OW    2383   2.627   2.033   1.644  0.0061  0.5053 -0.1546
  795SOL  HW1   2384   2.625   2.097   1.566  0.3292 -1.8889  2.3974
  795SOL  HW2   2385   2.722   1.993   1.649  1.0400  0.4058 -1.6671
  796SOL  OW    2386   2.210   1.439   2.193 -0.1008 -0.1708  0.1900
  796SOL  HW1   2387   2.312   1.447   2.193  1.5465 -1.5892 -0.9828
  796SOL  HW2   2388   2.174   1.473   2.283 -1.7585 -0.9305 -0.9026
  797SOL  OW    2389   0.539   2.416   2.316  0.5561  0.2369  0.0411
  797SOL  HW1   2390   0.462   2.445   2.256 -1.9109  2.0312  0.2997
  797SOL  HW2   2391   0.627   2.464   2.303  1.9108  0.7459 -0.9957
  798SOL  OW    2392   0.049   2.391   1.699 -0.1317 -0.1062 -0.3324
  798SOL  HW1   2393   3.068   2.325   1.721 -0.2213 -1.4238  0.0638
  798SOL  HW2   2394   0.125   2.376   1.764  0.1327 -0.9848 -0.4113
  799SOL  OW    2395   2.696   1.276   0.138 -0.1029 -0.0969  0.1469
  799SOL  HW1   2396   2.683   1.180   0.165 -0.2893  2.8179  0.6075
  799SOL  HW2   2397   2.626   1.309   0.070 -2.6820 -1.2036  0.2355
  800SOL  OW    2398   1.464   1.995   1.624  0.2105  0.3485 -0.6531
  800SOL  HW1   2399   1.435   1.996   1.725 -0.4517  0.8725 -0.2783
  800SOL  HW2   2400   1.388   1.960   1.564  1.3413  0.2008  0.7230
  801SOL  OW    2401   2.990   1.165   0.848  0.3741  0.2746 -0.2113
  801SOL  HW1   2402   2.926   1.201   0.917  0.6753 -0.0546 -2.7661
  801SOL  HW2   2403   3.051   1.095   0.890 -1.8572  1.0648 -0.9783
  802SOL  OW    2404   2.394   1.132   0.800 -0.2433  0.2371 -0.1696
  802SOL  HW1   2405   2.410   1.032   0.772  0.8625 -0.9742  0.4063
  802SOL  HW2   2406   2.337   1.187   0.738  3.5321 -3.0152 -0.4563
  803SOL  OW    2407   1.965   2.102   0.207  0.2957  0.3551  0.2048
  803SOL  HW1   2408   1.998   2.068   0.116  0.4737 -2.0715  0.1038
  803SOL  HW2   2409   1.879   2.053   0.231  3.1317 -1.8566 -1.8238
  804SOL  OW    2410   1.784   1.579   2.945  0.7911  0.5271 -0.0684
  804SOL  HW1   2411   1.684   1.574   2.961 -2.5403  0.2851 -1.8912
  804SOL  HW2   2412   1.826   1.491   2.918 -4.6658 -0.3119  0.8694
  805SOL  OW    2413   0.156   2.113   0.163  0.3821  0.6092 -0.3585
  805SOL  HW1   2414   0.226   2.122   0.236  0.5265 -0.0150  0.7547
  805SOL  HW2   2415   0.164   2.019   0.117 -1.9861 -0.4718 -1.6886
  806SOL  OW    2416   0.048   3.065   0.566 -0.1771  0.2950 -0.0777
  806SOL  HW1   2417   3.061   0.025   0.542  1.0047  0.4982  0.5244
  806SOL  HW2   2418   0.020   2.971   0.589  0.4690 -0.9901 -0.0779
  807SOL  OW    2419   2.462   1.474   2.116 -0.0808 -0.4639  0.4880
  807SOL  HW1   2420   2.499   1.551   2.058  1.1654  1.8487  1.2770
  807SOL  HW2   2421   2.510   1.387   2.093 -1.9365  2.9726 -0.5969
  808SOL  OW    2422   2.499   1.946   3.016  0.5384  0.4355 -0.2741
  808SOL  HW1   2423   2.505   1.843   3.020  1.6432 -1.2952 -1.1558
  808SOL  HW2   2424   2.578   1.992   3.058 -2.4363  0.1598 -2.1408
  809SOL  OW    2425   3.081   0.696   2.549 -0.0930 -0.0493 -0.5051
  809SOL  HW1   2426   2.982   0.676   2.576 -2.3556 -2.1533 -0.2408
  809SOL  HW2   2427   0.018   0.797   2.555  1.0373  4.4372 -0.7165
  810SOL  OW    2428   0.639   0.602   0.624 -0.2981 -0.0759 -0.0927
  810SOL  HW1   2429   0.693   0.584   0.711  1.8670 -1.0784  2.3015
  810SOL  HW2   2430   0.697   0.634   0.544  0.9745  0.5753 -0.9975
  811SOL  OW    2431   1.802   2.319   0.443 -0.1526 -0.0170  0.2485
  811SOL  HW1   2432   1.880   2.362   0.394 -2.5060 -0.6863  1.7070
  811SOL  HW2   2433   1.831   2.239   0.496  1.6629  1.2617 -0.6706
  812SOL  OW    2434   0.588   2.593   1.921 -0.0000  0.0096  0.3361
  812SOL  HW1   2435   0.656   2.660   1.943 -3.7310 -1.9088 -1.8945
  812SOL  HW2   2436   0.526   2.644   1.861  3.5952  1.4503 -0.5135
  813SOL  OW    2437   1.553   0.778   1.137 -0.5513  0.0324  0.2163
  813SOL  HW1   2438   1.525   0.712   1.063 -1.3394 -1.3454  0.1072
  813SOL  HW2   2439   1.580   0.869   1.103  0.3501 -1.9430  1.9809
  814SOL  OW    2440   0.801   0.459   2.912  0.3864  0.3271  0.2605
  814SOL  HW1   2441   0.894   0.499   2.926 -1.5863 -1.1571 -1.6228
  814SOL  HW2   2442   0.729   0.519   2.949  3.4497  0.7431 -0.7543
  815SOL  OW    2443   0.328   0.832   2.075  0.3350 -0.1571  0.0140
  815SOL  HW1   2444   0.394   0.881   2.015 -1.5707 -0.9245  0.2581
  815SOL  HW2   2445   0.368   0.810   2.166  2.6264 -1.2561  0.5240
  816SOL  OW    2446   2.681   0.770   0.035 -0.1206 -0.2800 -0.0246
  816SOL  HW1   2447   2.733   0.798   0.121  1.4408  1.8643  1.8120
  816SOL  HW2   2448   2.673   0.669   0.024  1.6174 -3.6772  1.8038
  817SOL  OW    2449   1.032   0.194   0.041  0.5098  0.0995 -0.0908
  817SOL  HW1   2450   1.050   0.275   0.102  0.2725 -1.6398 -0.9082
  817SOL  HW2   2451   0.951   0.212   3.074 -1.1729 -0.8922 -0.5470
  818SOL  OW    2452   2.840   0.282   2.667 -0.6427 -0.2209 -0.2671
  818SOL  HW1   2453   2.792   0.344   2.726 -0.6508 -1.5692  0.4339
  818SOL  HW2   2454   2.914   0.324   2.610  0.4810  1.5603 -0.5380
  819SOL  OW    2455   2.218   1.682   2.851 -0.0211 -0.6485 -0.3413
  819SOL  HW1   2456   2.263   1.612   2.794 -0.5922  2.4764  0.8367
  819SOL  HW2   2457   2.258   1.771   2.834 -0.6451 -0.8390 -1.1856
  820SOL  OW    2458   0.534   1.939   0.061 -0.3080 -0.1962  0.1500
  820SOL  HW1   2459   0.556   1.977   0.156 -0.2992 -0.0108  0.1144
  820SOL  HW2   2460   0.526   1.841   0.065  2.1653  4.5186 -1.7362
  821SOL  OW    2461   2.957   2.673   0.014 -0.0543  0.3216 -0.4301
  821SOL  HW1   2462   2.886   2.736   0.048  0.8398 -1.8084 -0.5621
  821SOL  HW2   2463   2.935   2.636   3.018 -1.2957  1.0416  0.2737
  822SOL  OW    2464   2.519   2.184   1.830 -0.8939 -0.1300 -0.6477
  822SOL  HW1   2465   2.481   2.109   1.885  2.8977  0.7160  1.5332
  822SOL  HW2   2466   2.570   2.147   1.749 -1.0187  1.5276 -0.4157
  823SOL  OW    2467   0.767   2.805   1.958  0.8229  0.6935  0.4771
  823SOL  HW1   2468   0.827   2.769   1.883  3.1144 -2.4300 -1.7412
  823SOL  HW2   2469   0.820   2.880   2.007  1.6437 -0.0912 -0.4583
  824SOL  OW    2470   2.206   2.260   1.267  0.5329 -0.6935 -0.1898
  824SOL  HW1   2471   2.255   2.347   1.247  1.3560 -1.3264 -1.2663
  824SOL  HW2   2472   2.133   2.268   1.339 -1.3130 -0.7783 -0.8086
  825SOL  OW    2473   2.904   2.351   2.067  0.4236 -0.0298 -0.3902
  825SOL  HW1   2474   2.950   2.282   2.122 -0.9120 -0.2347 -0.2106
  825SOL  HW2   2475   2.802   2.353   2.083 -2.3672  0.2856 -4.5119
  826SOL  OW    2476   0.229   1.811   2.139  0.5186  0.1610 -0.7765
  826SOL  HW1   2477   0.191   1.857   2.060  1.4692 -0.8453  1.2948
  826SOL  HW2   2478   0.204   1.715   2.144  1.5617 -1.6990 -0.3271
  827SOL  OW    2479   2.247   2.690   1.727  0.3556  0.0461 -0.9254
  827SOL  HW1   2480   2.242   2.676   1.826  2.2058 -1.9571  0.4834
  827SOL  HW2   2481   2.261   2.598   1.680  0.9902  0.1424  0.3503
  828SOL  OW    2482   2.213   0.038   1.593  0.4770 -0.4470  0.1434
  828SOL  HW1   2483   2.244   0.004   1.504  2.3105 -0.9384 -0.5584
  828SOL  HW2   2484   2.135   0.105   1.581 -1.8399  1.6594  0.4774
  829SOL  OW    2485   2.118   1.516   1.937 -0.0028  0.0713 -0.4329
  829SOL  HW1   2486   2.152   1.502   2.033  2.7338 -0.8047 -2.7499
  829SOL  HW2   2487   2.136   1.611   1.904 -1.2607  0.2481  1.9041
  830SOL  OW    2488   1.835   0.100   1.758 -0.0175 -0.5815  0.0679
  830SOL  HW1   2489   1.848   0.066   1.852 -1.0211  1.0809 -1.1508
  830SOL  HW2   2490   1.779   0.040   1.702 -1.9264 -0.9491  1.5165
  831SOL  OW    2491   2.168   0.934   0.970 -0.1226  0.0428  0.3131
  831SOL  HW1   2492   2.266   0.949   0.941  1.2035  1.9427  0.4464
  831SOL  HW2   2493   2.143   0.834   0.964  0.0052 -2.0536  1.1557
  832SOL  OW    2494   1.411   1.251   1.717 -0.4602  0.2965  0.1510
  832SOL  HW1   2495   1.376   1.303   1.793 -0.4966  0.6625 -0.7786
  832SOL  HW2   2496   1.364   1.263   1.628  0.2195 -0.1014 -1.1237
  833SOL  OW    2497   2.889   2.731   1.873  0.4645 -0.6799 -0.1436
  833SOL  HW1   2498   2.858   2.827   1.899 -0.3779  0.8458  0.0868
  833SOL  HW2   2499   2.821   2.683   1.817  2.2928  1.8013  2.8399
  834SOL  OW    2500   1.206   1.264   1.473 -0.3496  0.0389 -0.1480
  834SOL  HW1   2501   1.137   1.207   1.527 -2.3437 -0.2497  0.4746
  834SOL  HW2   2502   1.184   1.364   1.473  0.7852 -1.3704 -0.5122
  835SOL  OW    2503   2.942   0.634   1.726  0.7376  0.1203 -0.0188
  835SOL  HW1   2504   2.980   0.726   1.755 -1.2989  0.1479  1.0602
  835SOL  HW2   2505   2.970   0.560   1.795  0.0887 -3.7223  0.3853
  836SOL  OW    2506   1.281   2.399   1.386 -0.4282  0.0254 -0.2105
  836SOL  HW1   2507   1.234   2.318   1.419  0.1715  2.7142 -0.1780
  836SOL  HW2   2508   1.224   2.484   1.400  1.1833  3.3276 -1.3174
  837SOL  OW    2509   2.800   1.350   1.924  0.4528 -0.1152 -0.5334
  837SOL  HW1   2510   2.852   1.438   1.922  0.4483 -0.9344 -1.6107
  837SOL  HW2   2511   2.796   1.304   1.832  1.3992 -0.7320 -0.8958
  838SOL  OW    2512   0.540   1.697   2.363  0.0884  0.4905 -0.3004
  838SOL  HW1   2513   0.626   1.732   2.406 -0.9207  0.9406  1.8242
  838SOL  HW2   2514   0.546   1.601   2.324 -1.6959 -0.2169  0.4914
  839SOL  OW    2515   0.079   0.419   3.082  0.2718  0.3811  0.3962
  839SOL  HW1   2516   0.011   0.346   3.061 -0.9303  0.3609  1.6863
  839SOL  HW2   2517   0.035   0.503   0.024 -1.4592 -0.1916 -1.4210
  840SOL  OW    2518   2.870   2.003   0.467 -0.5936  0.2478 -0.1328
  840SOL  HW1   2519   2.950   2.058   0.431  1.0498  0.7566 -0.7035
  840SOL  HW2   2520   2.862   1.921   0.412  1.7795  1.1479 -0.6194
  841SOL  OW    2521   2.226   2.523   0.267 -0.0128  0.0224 -0.1397
  841SOL  HW1   2522   2.140   2.467   0.266 -0.0801  0.5308  2.7713
  841SOL  HW2   2523   2.272   2.525   0.355  1.9340 -1.4788 -1.6036
  842SOL  OW    2524   1.141   1.435   0.518 -0.2602  0.4449 -0.0410
  842SOL  HW1   2525   1.236   1.420   0.485 -1.3053 -0.8092 -1.2778
  842SOL  HW2   2526   1.105   1.343   0.549  1.5797 -1.0533  1.1393
  843SOL  OW    2527   2.011   2.557   0.652 -0.5153 -0.3310  0.0818
  843SOL  HW1   2528   2.076   2.477   0.654  1.8975  0.7405  0.1127
  843SOL  HW2   2529   1.916   2.531   0.636 -0.8275 -2.0913  0.2293
  844SOL  OW    2530   2.474   2.775   2.081 -0.0737 -0.2956 -0.4865
  844SOL  HW1   2531   2.513   2.756   2.174  3.4726 -0.1711 -1.6559
  844SOL  HW2   2532   2.439   2.867   2.071 -0.2704 -2.4824 -0.5554
  845SOL  OW    2533   2.590   0.346   1.452  0.1948 -0.2687 -0.1426
  845SOL  HW1   2534   2.501   0.371   1.497 -0.5672  0.8542 -0.1162
  845SOL  HW2   2535   2.663   0.337   1.519  2.0290 -0.2897  0.7877
  846SOL  OW    2536   0.896   1.393   1.715  0.3287 -0.0082  0.2279
  846SOL  HW1   2537   0.916   1.372   1.814 -1.3052 -0.4325  0.2905
  846SOL  HW2   2538   0.968   1.457   1.684 -2.7216 -3.1800  0.7195
  847SOL  OW    2539   1.544   1.018   1.678  0.1944 -0.3193 -0.5993
  847SOL  HW1   2540   1.487   0.934   1.693 -1.8497 -0.7091 -1.8804
  847SOL  HW2   2541   1.490   1.104   1.709 -0.2995  4.3909  0.7449
  848SOL  OW    2542   1.567   0.516   2.801 -0.0760  0.7285  0.2050
  848SOL  HW1   2543   1.513   0.468   2.726 -0.5809 -0.3290  1.3446
  848SOL  HW2   2544   1.608   0.603   2.769 -0.3827 -0.5915 -0.6833
  849SOL  OW    2545   1.424   0.662   0.442  0.2232  0.5278 -0.1321
  849SOL  HW1   2546   1.450   0.570   0.472 -0.3719  2.2626 -0.5680
  849SOL  HW2   2547   1.494   0.728   0.465 -0.3157 -0.1269  1.3949
  850SOL  OW    2548   2.907   2.835   0.953  0.4033  0.0778  0.4083
  850SOL  HW1   2549   2.943   2.803   1.040  3.2038  0.2859 -3.2851
  850SOL  HW2   2550   2.839   2.769   0.920 -0.5444  0.0674  0.1426
  851SOL  OW    2551   1.879   0.560   2.082 -0.2374 -0.1650 -0.2453
  851SOL  HW1   2552   1.937   0.518   2.013  0.0198  0.7488 -0.5367
  851SOL  HW2   2553   1.901   0.660   2.089 -0.0528 -0.7349 -0.7086
  852SOL  OW    2554   0.964   1.384   2.195  0.4850 -0.1453  0.4098
  852SOL  HW1   2555   0.969   1.363   2.296 -0.1810  0.3499 -0.2596
  852SOL  HW2   2556   0.920   1.473   2.186 -0.0091  0.7389 -0.8114
  853SOL  OW    2557   1.650   2.739   0.457 -0.0611 -0.1589 -0.0951
  853SOL  HW1   2558   1.630   2.840   0.449  0.1135  1.2722 -1.8331
  853SOL  HW2   2559   1.702   2.718   0.374  1.0694  0.7105  0.4412
  854SOL  OW    2560   1.765   3.026   0.181  0.1262  0.3200 -0.2033
  854SOL  HW1   2561   1.718   3.086   0.117  0.1053 -0.1350  2.2785
  854SOL  HW2   2562   1.863   3.030   0.170 -1.4250 -1.1304 -2.5556
  855SOL  OW    2563   0.287   2.758   0.687 -0.4456 -0.4238  0.2134
  855SOL  HW1   2564   0.281   2.769   0.585 -0.3971 -2.6730  1.8676
  855SOL  HW2   2565   0.344   2.834   0.722 -0.4612  0.3105 -0.6351
  856SOL  OW    2566   1.998   0.214   1.131  0.2984 -0.1813 -0.8363
  856SOL  HW1   2567   1.935   0.206   1.210 -1.2412 -0.0854  2.4633
  856SOL  HW2   2568   2.042   0.303   1.119  0.7020 -1.1672  1.4697
  857SOL  OW    2569   1.736   0.066   2.210 -0.6584 -0.1794  0.3922
  857SOL  HW1   2570   1.801   0.139   2.239  2.9102 -1.2482  2.3242
  857SOL  HW2   2571   1.665   0.048   2.280 -0.1845  0.5587  0.2994
  858SOL  OW    2572   2.354   2.109   1.421  0.2206 -0.4617  0.0850
  858SOL  HW1   2573   2.452   2.117   1.388 -0.5551  1.0176 -0.2886
  858SOL  HW2   2574   2.294   2.171   1.364 -1.4968  2.0475 -0.3271
  859SOL  OW    2575   1.318   2.589   2.676 -0.0100 -0.3817  0.7206
  859SOL  HW1   2576   1.295   2.583   2.779 -2.2871 -1.8070  1.8078
  859SOL  HW2   2577   1.351   2.682   2.656 -0.9123 -0.3041  0.0360
  860SOL  OW    2578   2.388   2.581   0.543 -0.6630 -0.4434 -0.5405
  860SOL  HW1   2579   2.336   2.668   0.553  0.4290 -5.3802 -0.4386
  860SOL  HW2   2580   2.373   2.521   0.623 -1.0995 -0.9354  1.4653
  861SOL  OW    2581   1.596   2.865   0.843 -0.4214  0.0533 -0.4656
  861SOL  HW1   2582   1.636   2.901   0.929 -1.0429 -1.0929 -0.7802
  861SOL  HW2   2583   1.534   2.787   0.864  1.4532  0.6787 -1.0261
  862SOL  OW    2584   1.776   2.909   2.740  0.0168  0.4136  0.0665
  862SOL  HW1   2585   1.726   2.973   2.797  0.0179 -2.8662 -1.5285
  862SOL  HW2   2586   1.717   2.896   2.653 -1.5203  0.4502 -1.6970
  863SOL  OW    2587   0.880   2.871   2.417  0.4478 -0.3911 -0.1248
  863SOL  HW1   2588   0.941   2.806   2.363  2.7189 -0.9576 -0.0217
  863SOL  HW2   2589   0.811   2.820   2.475  0.2689 -0.3672 -1.3177
  864SOL  OW    2590   2.603   2.278   1.195 -0.1400 -0.0974 -0.6789
  864SOL  HW1   2591   2.596   2.235   1.099 -0.5778 -0.3431  2.2074
  864SOL  HW2   2592   2.592   2.378   1.187  1.5461 -1.3656  0.5968
  865SOL  OW    2593   3.056   1.878   2.936  0.3444 -0.1277  0.3781
  865SOL  HW1   2594   3.056   1.860   2.838  1.2703 -0.3234  3.7706
  865SOL  HW2   2595   2.982   1.947   2.950  1.8914  0.1210  0.0392
  866SOL  OW    2596   2.701   0.034   2.607  0.0905 -0.3597  0.5749
  866SOL  HW1   2597   2.716   3.068   2.686 -2.8080  0.9754  1.3351
  866SOL  HW2   2598   2.770   0.108   2.604  0.9774 -0.2586  0.3654
  867SOL  OW    2599   2.293   2.499   1.545  0.2685 -0.3155 -0.3188
  867SOL  HW1   2600   2.300   2.411   1.599  2.2970 -0.2094  3.9888
  867SOL  HW2   2601   2.290   2.493   1.445 -1.6330  2.4752  1.5653
  868SOL  OW    2602   1.442   2.644   0.860  0.0555  0.6190  0.5130
  868SOL  HW1   2603   1.381   2.601   0.932 -0.5588  1.7805  1.2108
  868SOL  HW2   2604   1.411   2.624   0.764  0.7436 -1.0631  1.2571
  869SOL  OW    2605   1.563   1.644   1.455  0.0160 -0.5876  0.5498
  869SOL  HW1   2606   1.643   1.694   1.488  2.6188  0.3343  0.8849
  869SOL  HW2   2607   1.569   1.544   1.457  2.5079  3.6465 -2.0651
  870SOL  OW    2608   2.010   2.022   1.560  0.3671 -0.3899 -0.4940
  870SOL  HW1   2609   1.969   2.015   1.654 -0.7043  4.4625  0.3158
  870SOL  HW2   2610   2.096   1.963   1.552  1.3967 -2.8793 -1.7205
  871SOL  OW    2611   0.206   1.272   1.223  0.2839  0.4467  0.0602
  871SOL  HW1   2612   0.220   1.332   1.145 -1.5482  0.4200  0.4044
  871SOL  HW2   2613   0.220   1.177   1.193  1.8047  0.6489  1.2299
  872SOL  OW    2614   1.267   0.333   1.175 -0.5400 -0.0016  0.4601
  872SOL  HW1   2615   1.279   0.378   1.267 -2.0952 -0.4125 -1.2392
  872SOL  HW2   2616   1.239   0.407   1.113 -1.1064 -1.8392  0.2962
  873SOL  OW    2617   2.319   2.539   2.616 -0.4413 -0.2165  0.1299
  873SOL  HW1   2618   2.325   2.439   2.599  0.1865  1.9965  0.1866
  873SOL  HW2   2619   2.401   2.570   2.668  0.7732  0.2901  0.9160
  874SOL  OW    2620   0.688   0.829   1.195 -0.1719 -0.4553  0.0977
  874SOL  HW1   2621   0.682   0.874   1.103 -0.2830 -1.0482  1.3502
  874SOL  HW2   2622   0.763   0.867   1.259  3.8530 -0.7439  0.9336
  875SOL  OW    2623   1.651   2.005   2.746  0.7966  0.1917 -0.3488
  875SOL  HW1   2624   1.546   2.007   2.738 -1.2697  0.3392 -1.3821
  875SOL  HW2   2625   1.698   1.961   2.668 -1.1346 -0.3231  0.5819
  876SOL  OW    2626   1.107   0.397   0.230 -0.3483 -0.4744 -0.0436
  876SOL  HW1   2627   1.200   0.436   0.206  1.9736  0.7563 -0.9955
  876SOL  HW2   2628   1.118   0.320   0.295 -3.0190 -0.3840 -0.8879
  877SOL  OW    2629   2.980   2.462   1.428  0.0190 -0.8757 -0.4096
  877SOL  HW1   2630   3.080   2.442   1.411 -1.0004  1.7447 -1.6931
  877SOL  HW2   2631   2.977   2.555   1.476  1.7591 -1.0230  1.3654
  878SOL  OW    2632   1.803   2.070   2.167 -0.1413 -0.1124  0.1193
  878SOL  HW1   2633   1.871   2.002   2.136 -1.4083  0.2856 -0.7238
  878SOL  HW2   2634   1.808   2.157   2.108  0.4019  1.5781 -1.2715
  879SOL  OW    2635   2.349   1.965   1.962  0.3352 -0.1145 -0.0888
  879SOL  HW1   2636   2.393   1.965   2.056  0.0761 -0.4923  2.4244
  879SOL  HW2   2637   2.253   2.003   1.969  2.1134  2.4642 -1.4785
  880SOL  OW    2638   0.742   0.605   1.053  0.1433 -0.7910 -0.0764
  880SOL  HW1   2639   0.787   0.643   0.970 -0.9175 -2.0562 -1.0034
  880SOL  HW2   2640   0.721   0.683   1.117 -1.4980  1.6507  3.4165
  881SOL  OW    2641   0.896   1.306   0.391  0.0970  0.0193  0.1621
  881SOL  HW1   2642   0.948   1.256   0.464  0.0590  2.9105 -2.6160
  881SOL  HW2   2643   0.814   1.343   0.435  2.6160 -1.3133 -0.3343
  882SOL  OW    2644   1.417   0.105   1.182  0.0064 -0.4163  0.4328
  882SOL  HW1   2645   1.373   0.199   1.184  0.0921  2.3101  0.2307
  882SOL  HW2   2646   1.347   0.035   1.161  0.1962  1.3073 -2.9369
  883SOL  OW    2647   2.000   0.187   1.557 -0.2663  0.1247 -0.1966
  883SOL  HW1   2648   1.953   0.173   1.471 -2.5977 -0.9619  0.8543
  883SOL  HW2   2649   1.944   0.144   1.634  0.8925  0.3406  1.5311
  884SOL  OW    2650   3.013   0.885   0.419 -0.2470  0.0946 -0.5699
  884SOL  HW1   2651   3.080   0.811   0.451 -0.0481  0.7560  0.4693
  884SOL  HW2   2652   2.981   0.939   0.500  1.4450  0.9568  0.9230
  885SOL  OW    2653   0.569   2.009   0.695  0.2256  0.7113  0.3990
  885SOL  HW1   2654   0.528   2.103   0.706 -2.2915 -1.3301  1.3529
  885SOL  HW2   2655   0.522   1.951   0.624  0.9133 -1.9484 -2.0691
  886SOL  OW    2656   1.204   0.839   0.453 -0.0005 -0.1461  0.1059
  886SOL  HW1   2657   1.223   0.912   0.520  1.0163 -1.3227 -1.8685
  886SOL  HW2   2658   1.281   0.776   0.445 -0.1336  1.0126 -0.1227
  887SOL  OW    2659   0.872   0.353   1.345 -0.3397  0.5291 -0.1926
  887SOL  HW1   2660   0.789   0.347   1.400 -0.0932 -2.5136 -0.0962
  887SOL  HW2   2661   0.901   0.263   1.307  1.5689 -1.7536  1.1541
  888SOL  OW    2662   2.963   1.615   1.606 -0.1833  0.3017  0.3934
  888SOL  HW1   2663   3.052   1.572   1.635  0.3214  1.9042  2.3876
  888SOL  HW2   2664   2.919   1.574   1.527  0.7608  1.4257  1.1180
  889SOL  OW    2665   2.810   2.785   2.688  0.0111 -0.2374 -0.0766
  889SOL  HW1   2666   2.796   2.811   2.589  0.3043  0.6551 -0.1649
  889SOL  HW2   2667   2.786   2.862   2.750 -0.0794 -1.2363  1.5559
  890SOL  OW    2668   0.597   1.369   2.515  0.1037 -0.6657 -0.1334
  890SOL  HW1   2669   0.586   1.434   2.593  0.7128 -0.4016 -0.4991
  890SOL  HW2   2670   0.663   1.293   2.533 -0.5070  0.2769 -3.1581
  891SOL  OW    2671   3.005   0.892   0.042 -0.1642  0.0106  0.1520
  891SOL  HW1   2672   2.988   0.952   3.061 -0.5744 -2.1347 -0.8523
  891SOL  HW2   2673   3.055   0.945   0.112  1.0887  2.8023 -0.2365
  892SOL  OW    2674   0.015   1.955   1.519 -0.2049  0.4082 -0.1895
  892SOL  HW1   2675   0.020   2.034   1.457  2.1890 -1.0471  0.3716
  892SOL  HW2   2676   0.101   1.939   1.566 -1.1186 -0.8882  1.0122
  893SOL  OW    2677   0.174   0.242   0.911 -0.4427 -0.3791 -0.4861
  893SOL  HW1   2678   0.162   0.278   0.815  1.1076 -1.4263  0.3090
  893SOL  HW2   2679   0.135   0.147   0.909 -1.4883  2.5516  1.1373
  894SOL  OW    2680   2.780   2.008   0.728 -0.2370 -0.1353 -0.1845
  894SOL  HW1   2681   2.732   2.094   0.726 -1.5183  0.7509 -1.6692
  894SOL  HW2   2682   2.815   1.978   0.639  1.8906  0.0762  1.5182
  895SOL  OW    2683   1.464   2.524   1.241 -0.1726  0.0288 -0.4697
  895SOL  HW1   2684   1.416   2.483   1.317 -0.4785  0.5807 -2.3220
  895SOL  HW2   2685   1.565   2.533   1.259  1.9679 -1.2791  1.7294
  896SOL  OW    2686   1.521   0.566   3.080 -0.4873 -0.1138  0.0255
  896SOL  HW1   2687   1.517   0.534   2.983  1.4310 -1.2280  0.4982
  896SOL  HW2   2688   1.617   0.582   0.018  1.3162 -0.5419  1.1440
  897SOL  OW    2689   1.315   1.354   0.849  0.1310  0.3899  0.0843
  897SOL  HW1   2690   1.212   1.350   0.859  0.3528  0.9049  0.2052
  897SOL  HW2   2691   1.364   1.358   0.938  1.1025  1.1105  0.8958
  898SOL  OW    2692   1.030   1.336   0.892 -0.3631  0.1506  0.6778
  898SOL  HW1   2693   0.954   1.303   0.833  2.1692 -1.2550 -1.6345
  898SOL  HW2   2694   1.005   1.320   0.987  1.5520  0.0162 -1.5841
  899SOL  OW    2695   1.652   0.141   0.031 -0.0471 -0.1571 -0.0568
  899SOL  HW1   2696   1.568   0.181   0.061  3.3575 -2.1159  0.8088
  899SOL  HW2   2697   1.716   0.218   0.004  2.1129  1.8664 -0.7546
  900SOL  OW    2698   1.054   0.518   2.562  0.8376 -0.0137 -0.1565
  900SOL  HW1   2699   0.997   0.606   2.577 -0.7949 -1.1261 -0.6736
  900SOL  HW2   2700   1.137   0.532   2.509 -0.1320  0.2014  0.4354
  901SOL  OW    2701   0.458   1.296   0.474  0.1380  0.0098 -0.0101
  901SOL  HW1   2702   0.441   1.293   0.372 -0.6624  1.5747  0.1394
  901SOL  HW2   2703   0.391   1.239   0.533 -0.0434 -1.6611  2.2358
  902SOL  OW    2704   1.102   0.181   0.375 -0.3837  0.7217 -0.4461
  902SOL  HW1   2705   1.056   0.093   0.360  1.0535  1.7543 -0.8629
  902SOL  HW2   2706   1.175   0.176   0.446 -1.2363  0.6585  3.0677
  903SOL  OW    2707   2.739   2.146   2.715 -0.0609 -0.1148  0.1932
  903SOL  HW1   2708   2.740   2.091   2.631  1.5249  3.2491  1.8631
  903SOL  HW2   2709   2.646   2.179   2.749 -0.3376 -1.1410  0.6840
  904SOL  OW    2710   1.713   0.646   0.673  0.0326  0.3924  0.6160
  904SOL  HW1   2711   1.677   0.717   0.606  0.7648  2.1497 -0.5175
  904SOL  HW2   2712   1.651   0.570   0.695 -0.7858 -0.4433 -0.2030
  905SOL  OW    2713   2.115   2.783   1.225 -0.2162 -0.6036 -0.3116
  905SOL  HW1   2714   2.134   2.879   1.190  0.5083  1.4147 -2.1068
  905SOL  HW2   2715   2.105   2.777   1.326 -0.5446 -1.8653  1.1994
  906SOL  OW    2716   1.738   2.536   0.615 -0.0394 -0.2121 -0.2349
  906SOL  HW1   2717   1.737   2.444   0.573  2.2421 -0.0066  0.8967
  906SOL  HW2   2718   1.703   2.599   0.546  0.2111 -3.3826  0.4006
  907SOL  OW    2719   2.425   0.672   2.656 -0.1652  0.1864  0.1260
  907SOL  HW1   2720   2.446   0.615   2.738 -0.2324 -1.7156 -0.9014
  907SOL  HW2   2721   2.493   0.661   2.581  0.8805  1.0133  0.2170
  908SOL  OW    2722   1.259   0.328   1.772 -0.0787 -0.1167 -0.4133
  908SOL  HW1   2723   1.162   0.322   1.733 -2.2541  0.3426 -3.5091
  908SOL  HW2   2724   1.270   0.297   1.868  0.6576  1.7392 -0.1807
  909SOL  OW    2725   1.667   0.098   0.587 -0.2541 -0.0481  0.1228
  909SOL  HW1   2726   1.699   0.183   0.547 -3.1932 -1.0367  1.1624
  909SOL  HW2   2727   1.593   0.113   0.655  1.9493 -0.7433 -1.1203
  910SOL  OW    2728   2.722   0.230   2.031  0.5755  0.0745  0.2034
  910SOL  HW1   2729   2.684   0.137   2.065 -1.2016 -1.2826 -0.7574
  910SOL  HW2   2730   2.708   0.240   1.929 -0.5791  0.4061 -0.6045
  911SOL  OW    2731   1.233   3.072   2.354  0.1033  0.0459  0.4599
  911SOL  HW1   2732   1.228   3.000   2.278 -0.2968 -2.7271 -0.7635
  911SOL  HW2   2733   1.173   3.037   2.432  0.1631 -0.8443  2.5602
  912SOL  OW    2734   1.375   0.890   0.871 -0.4293  0.4468  0.3039
  912SOL  HW1   2735   1.459   0.945   0.847 -0.1222  1.5230 -1.1429
  912SOL  HW2   2736   1.386   0.789   0.887 -2.5766 -0.3484 -0.5246
  913SOL  OW    2737   2.110   3.050   1.115  0.4450  0.4351  0.2174
  913SOL  HW1   2738   2.089   3.000   1.029  0.1700 -1.0332  0.8819
  913SOL  HW2   2739   2.080   0.053   1.108 -0.7366 -2.2067  1.4687
  914SOL  OW    2740   1.637   0.361   1.388 -0.2578  0.1555  0.0781
  914SOL  HW1   2741   1.560   0.338   1.446  2.7013 -0.0018 -1.9964
  914SOL  HW2   2742   1.681   0.445   1.423 -2.2198  0.5015  1.1005
  915SOL  OW    2743   2.936   1.119   2.032 -0.2593  0.6846 -0.2682
  915SOL  HW1   2744   3.031   1.099   2.002  0.3657  0.0543 -0.5978
  915SOL  HW2   2745   2.904   1.206   1.983  2.2713 -0.0265 -0.2372
  916SOL  OW    2746   1.410   2.815   1.234  0.5344  0.3445  0.0077
  916SOL  HW1   2747   1.408   2.712   1.237 -1.4686  0.2151  0.8634
  916SOL  HW2   2748   1.482   2.847   1.159  1.6591  0.1250 -2.1167
  917SOL  OW    2749   1.612   2.698   2.857 -0.2481  0.0836 -0.1670
  917SOL  HW1   2750   1.646   2.607   2.816  3.7917  0.5546 -0.5150
  917SOL  HW2   2751   1.655   2.779   2.810  2.4718  0.5025  0.2178
  918SOL  OW    2752   2.081   2.098   2.724 -0.1285  0.1152  0.3869
  918SOL  HW1   2753   2.041   2.009   2.684 -0.8053  1.2812 -2.0469
  918SOL  HW2   2754   2.012   2.147   2.780 -1.3334  0.9975 -0.9050
  919SOL  OW    2755   1.576   0.258   1.006  0.2473 -0.3673  0.1397
  919SOL  HW1   2756   1.520   0.204   1.072  1.8158 -0.7714 -0.3002
  919SOL  HW2   2757   1.643   0.319   1.057  0.6592 -0.2158 -1.0053
  920SOL  OW    2758   0.254   0.182   1.895 -0.1043 -0.1323  0.4194
  920SOL  HW1   2759   0.207   0.257   1.947 -0.3680  1.0743 -1.4127
  920SOL  HW2   2760   0.353   0.176   1.918 -2.0461  0.0233 -0.1807
  921SOL  OW    2761   2.233   1.394   1.688  0.2992 -0.5616 -0.1297
  921SOL  HW1   2762   2.185   1.419   1.775 -0.3123  1.4704 -1.5604
  921SOL  HW2   2763   2.329   1.427   1.683 -0.6362  0.6857 -0.6177
  922SOL  OW    2764   2.282   2.674   1.037 -0.2794 -0.1394  0.3427
  922SOL  HW1   2765   2.283   2.739   0.954 -0.0964  4.1318 -1.7209
  922SOL  HW2   2766   2.217   2.712   1.109  2.3599 -0.6184 -0.1971
  923SOL  OW    2767   0.674   2.200   1.280 -0.3575  0.1106 -0.1438
  923SOL  HW1   2768   0.660   2.200   1.180 -0.2045 -0.6962 -3.4045
  923SOL  HW2   2769   0.662   2.105   1.316 -3.6861 -0.7335 -1.8002
  924SOL  OW    2770   0.665   0.928   0.965 -0.1140 -0.5313  0.1117
  924SOL  HW1   2771   0.768   0.924   0.947  2.1873 -0.9066 -0.8826
  924SOL  HW2   2772   0.617   0.976   0.887 -0.9490 -0.4114  0.6242
  925SOL  OW    2773   2.064   1.230   0.689  0.6442 -0.6430 -0.5582
  925SOL  HW1   2774   2.045   1.202   0.787 -0.6417 -0.6526 -0.1675
  925SOL  HW2   2775   2.106   1.323   0.692 -0.6644  0.5003  0.4876
  926SOL  OW    2776   1.131   2.990   0.892  0.3901 -0.2588  0.4170
  926SOL  HW1   2777   1.212   2.984   0.830 -1.6031 -1.1731 -0.2232
  926SOL  HW2   2778   1.058   3.035   0.838 -0.4558  0.0979 -0.5747
  927SOL  OW    2779   0.778   1.997   0.481  0.0301 -0.0951 -0.1421
  927SOL  HW1   2780   0.867   1.955   0.454  0.3295 -2.7628  1.4501
  927SOL  HW2   2781   0.743   1.967   0.569 -0.9582 -1.8578 -2.0669
  928SOL  OW    2782   0.266   3.058   2.921 -0.2255 -0.0827  0.0040
  928SOL  HW1   2783   0.298   0.036   2.986 -0.0506 -0.7590  0.1436
  928SOL  HW2   2784   0.287   3.082   2.826  1.3446 -0.4680  1.5924
  929SOL  OW    2785   2.234   1.706   1.130 -0.1512  0.4111  0.4569
  929SOL  HW1   2786   2.190   1.713   1.222 -0.6687 -0.6582 -4.0327
  929SOL  HW2   2787   2.254   1.802   1.094  0.2242 -1.1556 -0.4055
  930SOL  OW    2788   0.659   2.728   2.526  0.2031 -0.1032  0.1514
  930SOL  HW1   2789   0.616   2.744   2.432 -1.4859  0.0451 -3.3007
  930SOL  HW2   2790   0.719   2.647   2.526 -0.4704 -0.5279  0.4682
  931SOL  OW    2791   2.193   1.275   2.819 -0.4763  0.2351 -0.0678
  931SOL  HW1   2792   2.245   1.365   2.801  2.0951 -2.4329 -0.7081
  931SOL  HW2   2793   2.250   1.191   2.812  1.4015 -3.1335 -0.9749
  932SOL  OW    2794   2.338   0.413   0.641 -0.6669  0.4618  0.0150
  932SOL  HW1   2795   2.248   0.432   0.688  1.1181 -1.0155 -0.4232
  932SOL  HW2   2796   2.329   0.332   0.580 -0.0405 -1.0068 -3.1221
  933SOL  OW    2797   2.540   0.273   0.982 -0.1313  0.2901  0.0766
  933SOL  HW1   2798   2.566   0.266   1.078  1.2323 -0.6697 -2.0780
  933SOL  HW2   2799   2.571   0.195   0.917  1.7700 -0.9897 -2.0062
  934SOL  OW    2800   2.325   0.941   2.294 -0.1541 -0.1096 -0.2044
  934SOL  HW1   2801   2.305   0.877   2.373  0.2981 -2.7212  0.1095
  934SOL  HW2   2802   2.391   0.900   2.234 -2.4223  3.1026  0.7968
  935SOL  OW    2803   3.019   1.232   1.315  0.1413 -0.8333  0.1146
  935SOL  HW1   2804   0.023   1.251   1.293  1.7153 -1.2234 -0.9088
  935SOL  HW2   2805   3.011   1.131   1.329 -2.2182 -0.2035  0.9991
  936SOL  OW    2806   0.102   2.930   0.221 -0.0324 -0.0684 -0.7601
  936SOL  HW1   2807   0.104   3.033   0.208 -0.2086 -0.7745  0.9105
  936SOL  HW2   2808   0.114   2.881   0.135  0.0809  0.0660 -0.0202
  937SOL  OW    2809   2.536   2.686   1.555 -0.0306  0.2371  0.2037
  937SOL  HW1   2810   2.450   2.632   1.569 -1.1564 -1.5374  0.1846
  937SOL  HW2   2811   2.595   2.669   1.639  0.0075  0.4061  2.2041
  938SOL  OW    2812   1.996   2.383   0.262  0.1095 -0.3119 -0.1863
  938SOL  HW1   2813   1.975   2.433   0.173  1.3743 -0.0686 -1.8579
  938SOL  HW2   2814   1.997   2.284   0.250  0.3815 -0.4819  1.1972
  939SOL  OW    2815   1.420   0.635   0.941 -0.2977  0.2992  0.1728
  939SOL  HW1   2816   1.472   0.567   0.886  1.3277 -1.4353 -0.7932
  939SOL  HW2   2817   1.340   0.586   0.980  0.2367 -1.7892  3.6121
  940SOL  OW    2818   2.036   2.945   2.751  0.0911 -0.1826 -0.1263
  940SOL  HW1   2819   2.074   2.862   2.786 -0.6655  0.0533 -0.1457
  940SOL  HW2   2820   1.937   2.937   2.746  0.1740  1.0675  0.2477
  941SOL  OW    2821   0.160   2.956   1.323 -0.2901 -0.3880 -0.0210
  941SOL  HW1   2822   0.088   3.015   1.279 -2.6872  1.2033 -1.0060
  941SOL  HW2   2823   0.193   2.993   1.412 -0.3121  0.2455 -1.0932
  942SOL  OW    2824   2.334   2.506   1.259  0.3677 -0.0306  0.0157
  942SOL  HW1   2825   2.306   2.525   1.167  0.1306  0.8347  1.6904
  942SOL  HW2   2826   2.434   2.524   1.271  0.2461 -1.1499 -0.9482
  943SOL  OW    2827   1.610   1.462   1.946 -0.0219 -0.0684  0.4358
  943SOL  HW1   2828   1.707   1.437   1.921 -3.9387  2.7081  0.9449
  943SOL  HW2   2829   1.593   1.547   1.897  4.6321 -2.2586  1.1302
  944SOL  OW    2830   2.500   0.636   1.676  0.1693 -0.5898  0.3745
  944SOL  HW1   2831   2.588   0.610   1.719 -1.1013  2.0329  1.3509
  944SOL  HW2   2832   2.515   0.732   1.632  1.7351 -0.7221 -5.6436
  945SOL  OW    2833   0.186   2.226   3.012  0.0107  0.1704  0.0507
  945SOL  HW1   2834   0.168   2.205   0.014 -0.0576 -0.7826  1.5199
  945SOL  HW2   2835   0.271   2.281   3.006 -1.5954  0.1387 -1.7249
  946SOL  OW    2836   2.822   2.030   1.329  0.1744  0.0965 -0.1893
  946SOL  HW1   2837   2.748   2.096   1.366  0.1640  1.1511  1.1925
  946SOL  HW2   2838   2.791   1.935   1.313 -0.8333  1.7794  0.1700
  947SOL  OW    2839   0.964   0.983   2.438 -0.1580 -0.0410  0.0799
  947SOL  HW1   2840   0.898   1.052   2.410 -0.7050  0.4135 -0.1175
  947SOL  HW2   2841   1.037   1.026   2.496 -0.3742  1.2197 -1.8203
  948SOL  OW    2842   1.929   1.789   0.856 -0.9022 -0.2413 -0.2098
  948SOL  HW1   2843   1.916   1.687   0.874  0.9934 -0.7035  1.0705
  948SOL  HW2   2844   1.845   1.840   0.871  0.3955  0.2698 -1.0051
  949SOL  OW    2845   0.213   1.447   0.158  0.6587  0.3612 -0.1013
  949SOL  HW1   2846   0.200   1.498   0.073  0.8250 -0.6380 -2.2067
  949SOL  HW2   2847   0.125   1.404   0.190 -3.3414 -1.4035 -1.7784
  950SOL  OW    2848   0.426   2.745   1.749 -0.1925 -0.2619 -1.0449
  950SOL  HW1   2849   0.324   2.756   1.771 -2.8018 -1.6017 -0.7482
  950SOL  HW2   2850   0.480   2.830   1.756  2.1022 -0.4640 -0.2927
  951SOL  OW    2851   0.522   2.168   2.187  0.4682 -0.0529 -0.6463
  951SOL  HW1   2852   0.512   2.263   2.221  0.5221 -1.6246  0.0406
  951SOL  HW2   2853   0.429   2.142   2.149 -1.7034 -1.4647  0.3857
  952SOL  OW    2854   0.978   2.781   0.466 -0.1468 -0.1613  0.2595
  952SOL  HW1   2855   0.954   2.700   0.412  1.0261  2.8678 -1.4916
  952SOL  HW2   2856   0.919   2.787   0.546  2.8399 -0.2794 -0.4972
  953SOL  OW    2857   2.564   1.660   2.716  0.1588 -0.2133  0.2327
  953SOL  HW1   2858   2.590   1.725   2.640  0.1227  1.2123  2.2725
  953SOL  HW2   2859   2.646   1.618   2.757  0.0752  0.7101 -0.3781
  954SOL  OW    2860   0.841   2.789   0.680  0.5064 -0.5259  0.0695
  954SOL  HW1   2861   0.830   2.880   0.732  0.3178  1.1618  2.6680
  954SOL  HW2   2862   0.896   2.720   0.734  0.2118 -0.4953  0.0141
  955SOL  OW    2863   0.724   1.687   0.525 -0.0848 -0.2177 -0.1128
  955SOL  HW1   2864   0.746   1.678   0.623 -0.5785  0.2506 -0.0401
  955SOL  HW2   2865   0.649   1.754   0.513  0.0165 -0.6500  1.1853
  956SOL  OW    2866   2.703   0.534   1.786 -0.1743  0.5518 -0.6016
  956SOL  HW1   2867   2.717   0.432   1.767 -1.2644  0.7799 -0.7725
  956SOL  HW2   2868   2.786   0.591   1.767  1.8202  1.5968  3.6626
  957SOL  OW    2869   1.950   1.888   2.617  0.2546  0.0229  0.3659
  957SOL  HW1   2870   1.890   1.814   2.657 -0.0806  0.7500 -0.7541
  957SOL  HW2   2871   1.903   1.943   2.544 -2.3261 -0.8255 -2.1410
  958SOL  OW    2872   2.381   0.163   1.760 -0.6256  0.3304  0.6913
  958SOL  HW1   2873   2.471   0.114   1.775 -2.3089 -1.7366 -0.8460
  958SOL  HW2   2874   2.319   0.102   1.703  0.9211 -0.6678  0.2956
  959SOL  OW    2875   1.498   2.336   2.427 -0.2815  0.5295 -0.4314
  959SOL  HW1   2876   1.476   2.340   2.526  1.0363  2.1774  0.9351
  959SOL  HW2   2877   1.592   2.373   2.417  0.9860 -1.8695  1.4960
  960SOL  OW    2878   0.776   1.204   2.637  0.2725 -0.7109  0.1901
  960SOL  HW1   2879   0.835   1.243   2.709 -1.5733 -1.5164 -3.0066
  960SOL  HW2   2880   0.717   1.127   2.673  0.1695  1.1723 -1.4823
  961SOL  OW    2881   2.809   1.795   0.284  0.0502  0.1378  0.2615
  961SOL  HW1   2882   2.777   1.700   0.257 -2.0381 -0.7750 -1.0596
  961SOL  HW2   2883   2.913   1.791   0.280  3.4554 -1.1656  2.4962
  962SOL  OW    2884   1.276   2.095   1.074 -0.3359  0.2814  0.2203
  962SOL  HW1   2885   1.194   2.056   1.118  2.0468  1.2250  1.9305
  962SOL  HW2   2886   1.253   2.149   0.990  0.0123  0.0092 -1.2089
  963SOL  OW    2887   0.249   1.999   0.960 -0.2914 -0.2370 -0.3695
  963SOL  HW1   2888   0.159   1.978   1.002  0.9671  0.2448  0.4924
  963SOL  HW2   2889   0.270   2.101   0.962  0.5794  0.4942  0.0639
  964SOL  OW    2890   1.191   2.398   1.725 -0.1432  0.3008  0.3471
  964SOL  HW1   2891   1.190   2.304   1.763 -1.2955 -0.3776 -1.6092
  964SOL  HW2   2892   1.112   2.398   1.660  1.5565 -0.9206  0.4224
  965SOL  OW    2893   0.766   2.070   2.157 -0.3662 -0.6065  0.5407
  965SOL  HW1   2894   0.669   2.112   2.151 -2.5489 -0.5582 -1.5612
  965SOL  HW2   2895   0.808   2.100   2.249 -0.3988 -1.8298 -0.0467
  966SOL  OW    2896   0.690   1.412   0.533  0.2290  0.5912 -0.0745
  966SOL  HW1   2897   0.595   1.387   0.507  0.4563 -0.3216  0.0460
  966SOL  HW2   2898   0.711   1.513   0.519 -0.5080  2.9502  0.0468
  967SOL  OW    2899   1.938   1.795   2.077  0.0705 -0.2030  0.1237
  967SOL  HW1   2900   1.997   1.736   2.022 -0.9615 -1.2472  0.7428
  967SOL  HW2   2901   1.856   1.747   2.119 -0.6855  0.3614  0.2411
  968SOL  OW    2902   1.359   1.770   0.245 -0.1792  0.1931 -0.0036
  968SOL  HW1   2903   1.397   1.723   0.332  0.2442 -2.2973  1.4600
  968SOL  HW2   2904   1.295   1.706   0.197  3.4021 -1.3183  0.4106
  969SOL  OW    2905   2.949   0.855   2.098  0.0585 -0.1902 -0.1932
  969SOL  HW1   2906   3.040   0.824   2.142  1.3349 -0.4219  2.3863
  969SOL  HW2   2907   2.949   0.958   2.088  1.0212 -1.1496  0.9200
  970SOL  OW    2908   2.650   0.625   0.443  0.0363 -0.3022 -0.5466
  970SOL  HW1   2909   2.679   0.526   0.428 -0.7158  0.5691 -0.6224
  970SOL  HW2   2910   2.553   0.622   0.429  5.5255 -0.0336  1.1473
  971SOL  OW    2911   2.109   2.130   1.925  0.1171  0.0795  0.0766
  971SOL  HW1   2912   2.068   2.189   1.857  2.5457 -0.7905  0.4546
  971SOL  HW2   2913   2.139   2.186   2.005 -1.5363  0.5638  1.1583
  972SOL  OW    2914   0.415   1.350   2.905  0.4186 -0.0568  0.0649
  972SOL  HW1   2915   0.479   1.361   2.982 -0.0420 -0.3747  0.2455
  972SOL  HW2   2916   0.339   1.410   2.917  0.6854 -1.2297 -0.8491
  973SOL  OW    2917   1.082   0.249   0.728  0.0349 -0.2959  0.5754
  973SOL  HW1   2918   1.018   0.198   0.669  0.5037  0.4265  0.2396
  973SOL  HW2   2919   1.084   0.215   0.821  0.1365 -1.1272 -3.3521
  974SOL  OW    2920   2.554   2.033   2.180 -0.2828  0.0277  0.3422
  974SOL  HW1   2921   2.581   1.982   2.262 -0.4982  1.8885  0.6908
  974SOL  HW2   2922   2.552   2.134   2.194 -0.0275 -1.4882  0.2055
  975SOL  OW    2923   0.079   2.584   0.714  0.1343  0.0112 -0.4607
  975SOL  HW1   2924   0.060   2.587   0.613 -0.5035 -1.0629 -0.8056
  975SOL  HW2   2925   0.167   2.632   0.732 -1.4868  0.9891 -3.2070
  976SOL  OW    2926   0.558   1.685   1.424 -0.2938  0.3909  0.2899
  976SOL  HW1   2927   0.483   1.717   1.360  3.9063 -1.0988 -0.3718
  976SOL  HW2   2928   0.597   1.593   1.396  0.1198 -2.1035 -0.0980
  977SOL  OW    2929   1.766   1.581   0.250  0.3395  0.8014  0.1499
  977SOL  HW1   2930   1.735   1.501   0.193  1.8826 -2.4302 -1.8931
  977SOL  HW2   2931   1.850   1.618   0.204  0.5287 -0.2354  0.9959
  978SOL  OW    2932   3.074   0.395   2.590  0.2504  0.5058 -0.1142
  978SOL  HW1   2933   3.086   0.370   2.492 -0.1710 -1.5305 -1.1342
  978SOL  HW2   2934   3.075   0.495   2.610  1.1359 -0.1749 -0.7141
  979SOL  OW    2935   2.201   1.922   0.567  0.7560  0.0824 -0.1280
  979SOL  HW1   2936   2.108   1.904   0.536 -0.5924 -0.6606 -0.1259
  979SOL  HW2   2937   2.245   1.989   0.504 -1.5155  1.2586  0.2626
  980SOL  OW    2938   0.586   2.132   1.611  0.1410  0.0188  0.1412
  980SOL  HW1   2939   0.616   2.227   1.594  0.0768 -0.0344  1.1529
  980SOL  HW2   2940   0.542   2.123   1.700  0.3408  0.2478 -1.5217
  981SOL  OW    2941   2.808   1.550   2.814  0.3138 -0.0959 -0.2638
  981SOL  HW1   2942   2.827   1.572   2.912 -0.7122  1.0943  0.5441
  981SOL  HW2   2943   2.887   1.578   2.757 -2.6071  0.3870  4.2312
  982SOL  OW    2944   0.519   2.116   1.887  0.5238  0.4064  0.0973
  982SOL  HW1   2945   0.600   2.178   1.903 -0.4348  0.1664  1.0612
  982SOL  HW2   2946   0.439   2.144   1.938  0.1040 -0.3718  0.4272
  983SOL  OW    2947   1.535   0.033   2.405 -0.4491 -0.0170  0.0041
  983SOL  HW1   2948   1.433   0.038   2.395 -1.2913  0.2649 -0.0497
  983SOL  HW2   2949   1.566   0.089   2.482  1.4533 -2.6627  0.1106
  984SOL  OW    2950   2.788   2.530   2.328  0.1365  0.3526  0.3398
  984SOL  HW1   2951   2.865   2.557   2.267 -1.8643  0.1827  3.5120
  984SOL  HW2   2952   2.725   2.608   2.352 -0.4764  2.1034  0.2770
  985SOL  OW    2953   1.724   1.039   1.468 -0.3757 -0.1751  0.3657
  985SOL  HW1   2954   1.657   1.055   1.542  0.4835  0.9197  0.4889
  985SOL  HW2   2955   1.700   0.952   1.414 -0.7133 -1.6666 -4.1396
  986SOL  OW    2956   2.113   0.469   1.190  0.1504 -0.0696  0.2985
  986SOL  HW1   2957   2.163   0.507   1.269  0.3768 -0.2823  0.9062
  986SOL  HW2   2958   2.030   0.526   1.159 -2.6279 -0.8253 -1.4381
  987SOL  OW    2959   2.992   2.106   2.271  0.3358  0.1248  0.0456
  987SOL  HW1   2960   3.060   2.172   2.308 -1.2200 -2.8321  0.5099
  987SOL  HW2   2961   3.020   2.005   2.273  0.8227 -0.8706  1.4087
  988SOL  OW    2962   3.062   0.194   1.451 -0.3402  0.1773  0.7288
  988SOL  HW1   2963   3.039   0.281   1.400 -0.8765 -0.5044  2.2311
  988SOL  HW2   2964   0.017   0.218   1.538  1.0660 -0.4027  1.7667
  989SOL  OW    2965   2.340   0.213   0.453  0.5942 -0.4413 -0.3454
  989SOL  HW1   2966   2.365   0.261   0.363  0.0558  2.6197 -0.2243
  989SOL  HW2   2967   2.413   0.146   0.482 -2.4452  0.9414  0.5258
  990SOL  OW    2968   2.918   1.303   3.088 -0.5040 -0.8809 -0.0958
  990SOL  HW1   2969   2.842   1.283   0.058 -0.4654 -1.7899 -1.6695
  990SOL  HW2   2970   3.009   1.313   0.040  0.4553 -0.0896 -2.5708
  991SOL  OW    2971   0.425   1.686   0.374  0.5199  0.3683  0.2777
  991SOL  HW1   2972   0.328   1.651   0.376 -1.5480 -2.3178 -1.5407
  991SOL  HW2   2973   0.425   1.780   0.418 -0.2971 -1.0566  0.8534
  992SOL  OW    2974   1.061   1.627   1.738 -0.6130  0.2840  0.3327
  992SOL  HW1   2975   0.997   1.702   1.753  1.8134 -0.4833 -2.6905
  992SOL  HW2   2976   1.142   1.625   1.803  1.0644  0.9960  1.6615
  993SOL  OW    2977   0.079   2.541   1.066  0.3149  0.4154  0.0815
  993SOL  HW1   2978   0.008   2.602   1.114  0.9552 -0.4656  0.8410
  993SOL  HW2   2979   0.024   2.485   1.000 -2.8263  0.4628 -4.1001
  994SOL  OW    2980   0.466   2.323   1.403 -0.2733 -0.5441  0.0957
  994SOL  HW1   2981   0.560   2.289   1.380 -0.9072  1.7073 -0.1222
  994SOL  HW2   2982   0.464   2.410   1.462 -0.7966  1.3803 -0.0257
  995SOL  OW    2983   1.747   0.683   2.460  0.4417  0.4684 -0.2855
  995SOL  HW1   2984   1.737   0.695   2.559  0.9472 -1.8801 -1.2422
  995SOL  HW2   2985   1.839   0.719   2.437 -0.1109 -1.2854 -0.7348
  996SOL  OW    2986   1.935   2.168   0.886  0.3158  0.6287 -0.0672
  996SOL  HW1   2987   1.996   2.138   0.966  0.5521  0.2989  0.6792
  996SOL  HW2   2988   1.917   2.268   0.890  0.2696 -1.0061 -3.4578
  997SOL  OW    2989   1.539   2.077   2.365  0.1733  0.3625 -0.0688
  997SOL  HW1   2990   1.509   2.171   2.362 -0.4488 -2.3289 -1.3988
  997SOL  HW2   2991   1.640   2.071   2.394  0.7502  0.0418 -1.4010
  998SOL  OW    2992   3.091   3.042   2.536  0.2040 -0.7600  0.3688
  998SOL  HW1   2993   0.046   0.022   2.582 -0.1866  1.4294  1.8685
  998SOL  HW2   2994   0.004   2.962   2.592  0.3799  1.6225  1.0029
  999SOL  OW    2995   1.059   0.577   2.921  0.4281  0.1639  0.1212
  999SOL  HW1   2996   1.137   0.513   2.905 -0.4372  1.5802  0.3768
  999SOL  HW2   2997   1.071   0.666   2.870 -3.5973 -0.8142  0.2043
 1000SOL  OW    2998   0.942   2.820   0.985 -0.0513  0.6372 -0.0927
 1000SOL  HW1   2999   0.966   2.739   0.925  2.6563 -2.3745  1.6046
 1000SOL  HW2   3000   1.000   2.903   0.956 -0.8568 -1.0354 -2.0454
    3.095540047     3.095540047     3.095540047     0.000000000     0.000000000     0.000000000     0.000000000     0.000000000     0.000000000
