1000 SPC/Fw water molecules t=  77.00000 step= 77000
 3000
    1SOL     OW    1   1.828   2.759   0.714  0.2301  0.2446 -0.1215
    1SOL    HW1    2   1.747   2.716   0.669 -1.0871  0.3556 -1.5937
    1SOL    HW2    3   1.863   2.845   0.665  0.0731 -2.6842 -0.8516
    2SOL     OW    4   0.691   1.226   2.178 -0.0639  0.3159 -0.0451
    2SOL    HW1    5   0.680   1.184   2.270  1.6432 -0.4932  0.6897
    2SOL    HW2    6   0.699   1.329   2.185 -3.3638  0.6751 -0.4382
    3SOL     OW    7   1.549   2.886   2.520 -0.3828 -0.3848 -0.0525
    3SOL    HW1    8   1.597   2.933   2.595  0.3986 -0.7476 -1.2577
    3SOL    HW2    9   1.513   2.795   2.561  0.3691 -2.8742 -1.6566
    4SOL     OW   10   1.103   1.810   2.692  0.0741 -0.2354 -0.2932
    4SOL    HW1   11   1.162   1.881   2.650  1.4388  1.6021  1.4847
    4SOL    HW2   12   1.162   1.744   2.740  1.0087 -0.0013 -1.0492
    5SOL     OW   13   0.572   0.694   1.789 -0.1693  0.5414 -0.2244
    5SOL    HW1   14   0.592   0.765   1.718  1.1757  0.2184  0.6218
    5SOL    HW2   15   0.557   0.738   1.880 -0.2862  1.0507  0.2139
    6SOL     OW   16   1.963   0.465   2.667 -0.3400  0.4368 -0.1362
    6SOL    HW1   17   1.984   0.519   2.583 -1.8288 -2.2718  1.6448
    6SOL    HW2   18   1.868   0.447   2.673  4.7589  1.4293  0.8720
    7SOL     OW   19   0.366   0.075   1.520 -0.2635 -0.0027  0.2911
    7SOL    HW1   20   0.325   0.166   1.500 -1.6335  1.3976 -0.3403
    7SOL    HW2   21   0.356   0.045   1.615  0.5780  0.2211  2.1282
    8SOL     OW   22   1.763   3.100   1.714  0.1825  0.5237 -0.5764
    8SOL    HW1   23   1.820   3.035   1.767 -0.0602 -1.2607  1.1019
    8SOL    HW2   24   1.815   0.040   1.636 -0.6604  1.3396 -1.6748
    9SOL     OW   25   0.382   0.010   0.631  0.0751  0.4472 -0.1968
    9SOL    HW1   26   0.426   3.076   0.718  2.6616  1.0169  0.1827
    9SOL    HW2   27   0.294   0.051   0.648  1.8244 -1.3951  0.9988
   10SOL     OW   28   0.433   2.311   2.420 -0.1794  0.2085 -0.4361
   10SOL    HW1   29   0.531   2.342   2.422 -1.6599 -0.4886 -1.3765
   10SOL    HW2   30   0.382   2.359   2.343  0.2319 -0.1836 -0.4655
   11SOL     OW   31   0.533   1.503   0.166  0.1142 -0.1236 -0.4954
   11SOL    HW1   32   0.551   1.467   0.071 -0.7261 -2.3761  1.9010
   11SOL    HW2   33   0.601   1.461   0.226 -1.5348  1.8106 -0.7570
   12SOL     OW   34   2.962   2.885   1.267 -0.4785 -0.4559 -0.0498
   12SOL    HW1   35   2.964   2.971   1.207  0.5848 -1.0156 -2.2398
   12SOL    HW2   36   3.025   2.816   1.234  0.1932 -0.0095 -0.0612
   13SOL     OW   37   0.863   2.870   0.485 -0.3921  0.0859  0.4558
   13SOL    HW1   38   0.843   2.827   0.396 -0.4759 -0.2640  0.7833
   13SOL    HW2   39   0.869   2.968   0.462  1.9146  0.2687  0.8952
   14SOL     OW   40   1.526   1.723   1.320  0.3820 -0.3604  0.5278
   14SOL    HW1   41   1.484   1.771   1.240  2.3073 -0.0760  1.4151
   14SOL    HW2   42   1.510   1.625   1.320 -1.4288 -0.0060 -1.1049
   15SOL     OW   43   3.065   1.947   2.547 -0.4567  0.0907  0.3211
   15SOL    HW1   44   0.046   1.890   2.557  1.7669  1.7904  2.3907
   15SOL    HW2   45   3.090   2.040   2.520  1.5438 -0.8426  0.2771
   16SOL     OW   46   1.570   0.615   2.655 -0.1139 -0.2849  0.2590
   16SOL    HW1   47   1.550   0.690   2.591 -0.4023 -1.4357  2.7586
   16SOL    HW2   48   1.618   0.652   2.736 -0.9912  0.1684 -0.7579
   17SOL     OW   49   3.066   2.218   2.497 -0.0916 -0.9261  0.1355
   17SOL    HW1   50   0.015   2.293   2.545  1.2706  0.1580  2.1710
   17SOL    HW2   51   0.012   2.185   2.415 -2.9272  1.7564  2.4697
   18SOL     OW   52   1.034   1.362   0.790  0.8224  0.0026 -0.2516
   18SOL    HW1   53   0.987   1.443   0.829  0.3860  0.8691 -0.3835
   18SOL    HW2   54   1.102   1.331   0.862 -0.0835  1.4172  0.3844
   19SOL     OW   55   2.815   1.875   2.427 -0.0380 -0.1720 -0.3303
   19SOL    HW1   56   2.911   1.884   2.468  1.5250 -0.9579 -1.5419
   19SOL    HW2   57   2.743   1.872   2.501 -0.9386  2.2574  0.1910
   20SOL     OW   58   2.336   2.182   2.470 -0.3738 -0.0992 -0.8285
   20SOL    HW1   59   2.406   2.252   2.486  1.1663  0.6530  0.5419
   20SOL    HW2   60   2.244   2.222   2.481 -0.5832 -0.1842 -1.0461
   21SOL     OW   61   1.336   1.748   0.222  0.5473  0.3581  0.1620
   21SOL    HW1   62   1.289   1.665   0.249  0.2542 -0.0576 -1.6547
   21SOL    HW2   63   1.323   1.816   0.296 -1.3135 -1.1420  1.2917
   22SOL     OW   64   2.179   2.206   1.533  0.1389  0.6444 -0.3476
   22SOL    HW1   65   2.273   2.252   1.538  0.1344 -1.3820 -2.6645
   22SOL    HW2   66   2.118   2.244   1.608 -2.1166  2.6374  1.9369
   23SOL     OW   67   3.078   1.198   1.032 -0.6020 -0.1854 -0.1370
   23SOL    HW1   68   3.093   1.100   1.008 -2.6171 -2.7673  3.1347
   23SOL    HW2   69   0.060   1.253   1.008  0.9138  1.0520  3.1532
   24SOL     OW   70   2.420   1.635   2.220 -0.7912  0.4135 -0.0887
   24SOL    HW1   71   2.385   1.621   2.317  0.0239 -1.5625  2.2055
   24SOL    HW2   72   2.517   1.665   2.228 -0.7509  0.2417 -0.9380
   25SOL     OW   73   1.975   0.220   2.252 -0.5543 -0.2508  0.2342
   25SOL    HW1   74   2.062   0.234   2.308 -0.9600  0.5438  1.5024
   25SOL    HW2   75   1.940   0.310   2.217 -0.3268  2.2858 -0.9752
   26SOL     OW   76   1.289   0.097   0.624 -0.0140 -0.3454  0.3688
   26SOL    HW1   77   1.238   0.131   0.540  0.6334  0.8923  0.9403
   26SOL    HW2   78   1.235   0.133   0.704  1.2315 -0.4293  0.2111
   27SOL     OW   79   0.753   1.528   0.507  0.5463  0.1089 -0.2678
   27SOL    HW1   80   0.681   1.605   0.507 -0.4570 -0.1336 -0.3085
   27SOL    HW2   81   0.760   1.477   0.596  0.9248 -2.0176  0.1978
   28SOL     OW   82   2.402   2.090   1.135 -0.0114 -0.2969  0.0006
   28SOL    HW1   83   2.428   2.048   1.226  0.4853 -0.4775  3.7073
   28SOL    HW2   84   2.344   2.171   1.151  0.1072 -1.0220 -2.1106
   29SOL     OW   85   2.227   2.941   1.703  0.2215  0.2614 -0.1692
   29SOL    HW1   86   2.152   2.870   1.689 -1.0295 -2.5025  0.0990
   29SOL    HW2   87   2.275   2.935   1.790 -1.0135 -1.3373 -0.8619
   30SOL     OW   88   0.831   2.834   1.108 -0.7255 -0.3952 -0.0557
   30SOL    HW1   89   0.874   2.741   1.120  0.6201  1.8938 -0.5663
   30SOL    HW2   90   0.885   2.898   1.164 -0.6642  1.2018  1.9171
   31SOL     OW   91   3.013   2.010   1.874 -0.7577 -0.3604  0.4034
   31SOL    HW1   92   3.063   1.953   1.939  1.3518 -0.7215 -1.6333
   31SOL    HW2   93   2.943   2.063   1.924  0.4152 -1.8993 -0.5469
   32SOL     OW   94   1.384   1.554   1.764 -0.2027  0.3589 -0.0269
   32SOL    HW1   95   1.307   1.575   1.704  3.3681  0.0385  2.5212
   32SOL    HW2   96   1.419   1.643   1.799 -0.7723 -0.1800  1.7128
   33SOL     OW   97   0.212   0.200   2.996  0.0501  0.1844 -0.3730
   33SOL    HW1   98   0.235   0.296   2.966  0.5547  0.0619  0.0126
   33SOL    HW2   99   0.226   0.129   2.922  1.0864  1.3666  1.3974
   34SOL     OW  100   2.464   3.065   0.535 -0.1742  0.6611  0.1631
   34SOL    HW1  101   2.420   3.077   0.629 -0.4478 -0.0302  0.3390
   34SOL    HW2  102   2.456   2.964   0.515 -2.4179 -0.4748 -0.0674
   35SOL     OW  103   2.670   0.089   1.457 -0.5049 -0.2734  0.0070
   35SOL    HW1  104   2.682   0.178   1.500 -0.8788  3.9897  3.7282
   35SOL    HW2  105   2.577   0.075   1.421  1.6953  0.4330  1.2935
   36SOL     OW  106   2.755   2.727   2.713 -0.6031 -0.6030 -0.1955
   36SOL    HW1  107   2.782   2.804   2.777  1.7181 -1.1721  1.3771
   36SOL    HW2  108   2.837   2.711   2.652 -0.6229  0.7459 -0.8825
   37SOL     OW  109   1.472   2.675   2.928  0.0065  0.3866  0.4654
   37SOL    HW1  110   1.509   2.736   3.000 -1.4276 -0.9453 -2.4302
   37SOL    HW2  111   1.407   2.618   2.977  1.4821 -0.8540  3.0463
   38SOL     OW  112   2.894   0.887   3.018 -0.2498 -0.4521 -0.0125
   38SOL    HW1  113   2.810   0.901   3.074  0.4801  1.0569 -1.0912
   38SOL    HW2  114   2.965   0.956   3.043  0.0247 -2.1694  1.7853
   39SOL     OW  115   1.665   1.790   1.989 -0.2792 -0.3167  0.3230
   39SOL    HW1  116   1.696   1.867   2.050  0.7005 -0.0067  0.2444
   39SOL    HW2  117   1.719   1.709   2.009 -0.2920  2.6964 -0.1259
   40SOL     OW  118   0.369   0.208   2.627  0.6472 -0.1020  0.2654
   40SOL    HW1  119   0.312   0.129   2.661  1.3962  0.5082 -2.7745
   40SOL    HW2  120   0.437   0.239   2.699 -0.3108 -0.1471 -1.8856
   41SOL     OW  121   1.732   1.280   1.949 -0.0517  0.4178  0.4719
   41SOL    HW1  122   1.668   1.299   2.026 -2.1097  0.1293 -0.3416
   41SOL    HW2  123   1.696   1.325   1.862 -0.1149 -1.9250  0.3456
   42SOL     OW  124   0.144   0.295   1.731  0.0308 -0.2868 -0.3512
   42SOL    HW1  125   0.188   0.334   1.646  0.0611  0.1420  0.2508
   42SOL    HW2  126   0.226   0.278   1.791  1.7315  0.7939  0.4951
   43SOL     OW  127   1.313   1.364   1.961  0.0225  0.5385 -0.2701
   43SOL    HW1  128   1.324   1.264   1.934  0.3165 -0.4439  0.8227
   43SOL    HW2  129   1.326   1.424   1.881  0.3236  0.7672 -1.0469
   44SOL     OW  130   3.101   0.297   0.046 -0.2348 -0.3887 -0.0876
   44SOL    HW1  131   0.066   0.243   3.090 -0.0619 -3.4761 -3.1041
   44SOL    HW2  132   3.011   0.247   0.050 -0.9452  0.4660  0.9853
   45SOL     OW  133   0.189   2.031   0.899 -0.5317  0.0037  0.4192
   45SOL    HW1  134   0.265   2.102   0.898 -0.0849  0.3358 -1.1388
   45SOL    HW2  135   0.222   1.932   0.879  0.1763 -3.0755 -2.0957
   46SOL     OW  136   2.387   2.615   1.782 -0.1386 -0.3100  0.0439
   46SOL    HW1  137   2.317   2.691   1.782 -1.6291  1.3635 -1.2311
   46SOL    HW2  138   2.475   2.648   1.811  0.9958 -0.2675 -0.6236
   47SOL     OW  139   0.688   1.811   1.153  0.1133  0.0366  0.1039
   47SOL    HW1  140   0.714   1.710   1.140 -0.5364  1.6913 -2.1982
   47SOL    HW2  141   0.628   1.843   1.076 -1.5402  0.0627  1.6894
   48SOL     OW  142   0.453   2.627   0.371 -0.2819 -0.4905 -0.4807
   48SOL    HW1  143   0.521   2.654   0.440  2.3043  0.7072 -1.7044
   48SOL    HW2  144   0.489   2.654   0.282  0.9913 -0.8244 -0.3042
   49SOL     OW  145   3.001   1.636   1.700 -0.0432  0.3176  0.0106
   49SOL    HW1  146   2.927   1.685   1.755  1.0393  1.2444 -0.6539
   49SOL    HW2  147   2.957   1.608   1.611 -2.0809  1.2683 -0.1759
   50SOL     OW  148   1.810   0.791   0.644  0.3217  0.3586 -0.6801
   50SOL    HW1  149   1.853   0.724   0.587 -0.8999 -1.8147  1.1815
   50SOL    HW2  150   1.829   0.776   0.746 -4.3581 -0.8289  1.0615
   51SOL     OW  151   1.232   0.631   1.066 -0.4763 -0.4449 -0.3687
   51SOL    HW1  152   1.262   0.722   1.111 -0.5412  1.7627  0.2254
   51SOL    HW2  153   1.157   0.582   1.118 -1.4871 -0.3786  2.7425
   52SOL     OW  154   1.000   1.487   0.382  0.3490 -0.3204  0.2191
   52SOL    HW1  155   1.031   1.395   0.418 -1.9679  1.3669  0.5742
   52SOL    HW2  156   0.908   1.520   0.417 -1.4896  2.1917  0.4036
   53SOL     OW  157   1.326   0.035   2.595  0.6484  0.2483 -0.0682
   53SOL    HW1  158   1.355   3.088   2.681  0.6767 -0.8993  0.6949
   53SOL    HW2  159   1.269   3.084   2.531  1.7858  0.7456 -1.3840
   54SOL     OW  160   1.791   0.876   1.657  0.0558 -0.2507 -0.1098
   54SOL    HW1  161   1.713   0.913   1.607  3.8914 -0.7936  0.5607
   54SOL    HW2  162   1.871   0.871   1.590 -1.6097 -0.1354 -0.5228
   55SOL     OW  163   2.730   2.758   0.426  0.1132  0.0339  0.1971
   55SOL    HW1  164   2.775   2.689   0.485  3.1737  0.2514  2.3284
   55SOL    HW2  165   2.643   2.792   0.463  1.0094 -0.6214 -2.3217
   56SOL     OW  166   0.841   2.489   1.895 -0.1272  0.1588 -0.1568
   56SOL    HW1  167   0.892   2.565   1.940  2.2545 -0.6896  1.9867
   56SOL    HW2  168   0.895   2.426   1.839  0.3745  0.1050  0.4961
   57SOL     OW  169   1.790   0.878   2.560 -0.1470 -0.1252  0.2560
   57SOL    HW1  170   1.764   0.921   2.647  1.2932  1.3787 -0.1458
   57SOL    HW2  171   1.712   0.841   2.511  0.6173 -0.5563  2.2307
   58SOL     OW  172   0.117   1.129   2.113 -0.4669 -0.4942 -0.3065
   58SOL    HW1  173   0.023   1.115   2.075 -1.5791  0.7792 -0.5316
   58SOL    HW2  174   0.169   1.040   2.111  1.5325  0.6623 -0.8802
   59SOL     OW  175   0.484   2.625   2.310  0.1448 -0.2153  0.2941
   59SOL    HW1  176   0.563   2.667   2.264  0.7233 -1.8054  1.8629
   59SOL    HW2  177   0.444   2.558   2.243 -0.2791 -0.6870  1.3135
   60SOL     OW  178   2.497   2.467   0.292 -0.2707  0.1220 -0.2457
   60SOL    HW1  179   2.571   2.421   0.352 -0.1923  0.7548 -0.2368
   60SOL    HW2  180   2.536   2.485   0.200  0.7615 -1.8089  4.0656
   61SOL     OW  181   0.918   2.602   0.561  0.1362  0.0570  0.2289
   61SOL    HW1  182   0.993   2.559   0.498  2.9516 -2.7700 -3.3243
   61SOL    HW2  183   0.908   2.702   0.539 -1.3742 -2.3750  0.7309
   62SOL     OW  184   1.547   2.387   2.603 -0.3674  0.7608 -0.4014
   62SOL    HW1  185   1.608   2.319   2.557  2.3297  1.4459  0.9847
   62SOL    HW2  186   1.448   2.358   2.619  2.5418 -1.8147 -0.5742
   63SOL     OW  187   2.085   0.628   3.077  0.6147 -0.2318 -0.0831
   63SOL    HW1  188   2.114   0.604   2.980  1.3562  0.8169 -0.2375
   63SOL    HW2  189   2.161   0.610   0.041  1.4100  0.0845  1.8553
   64SOL     OW  190   0.949   1.478   2.774  0.1340 -0.7473  0.3926
   64SOL    HW1  191   0.853   1.502   2.804 -1.7231  0.5090  0.0715
   64SOL    HW2  192   1.008   1.469   2.856  0.4498 -0.1670 -1.9791
   65SOL     OW  193   1.005   2.994   1.292  0.1611 -0.4522 -0.4013
   65SOL    HW1  194   1.073   2.919   1.276 -1.8386  1.5758 -1.1398
   65SOL    HW2  195   1.037   3.080   1.247  2.5497  2.2078  0.7927
   66SOL     OW  196   0.615   1.626   1.569 -0.2352  0.2917  0.2762
   66SOL    HW1  197   0.673   1.550   1.541 -0.0886 -1.8224  1.8235
   66SOL    HW2  198   0.644   1.655   1.660 -0.9069 -0.0342  0.7939
   67SOL     OW  199   2.314   2.599   2.090 -0.3599 -0.1285  0.6047
   67SOL    HW1  200   2.391   2.618   2.155 -1.0113 -1.4130 -0.3667
   67SOL    HW2  201   2.322   2.667   2.016  1.2292  1.5665  1.1139
   68SOL     OW  202   0.866   0.941   1.773  0.9903  0.3721 -0.2325
   68SOL    HW1  203   0.866   0.955   1.876  1.0101  0.3501  0.2989
   68SOL    HW2  204   0.771   0.938   1.729  0.6961 -1.6973 -0.9812
   69SOL     OW  205   2.560   2.543   0.041  0.2997 -0.2231 -0.4188
   69SOL    HW1  206   2.636   2.609   0.046 -0.5540  0.1919 -2.4733
   69SOL    HW2  207   2.488   2.567   3.075  0.3439 -1.7120  0.9306
   70SOL     OW  208   2.376   0.633   2.723 -0.2706 -0.0302  0.0225
   70SOL    HW1  209   2.471   0.642   2.759  2.7016  0.8620 -0.6854
   70SOL    HW2  210   2.322   0.719   2.724  3.7433 -0.8194 -0.5477
   71SOL     OW  211   3.091   2.307   0.409 -0.5841 -0.1968  0.5617
   71SOL    HW1  212   3.010   2.270   0.360 -0.7354 -0.7698  0.8229
   71SOL    HW2  213   0.068   2.246   0.393 -0.9235 -0.7911 -1.0632
   72SOL     OW  214   2.809   1.742   0.296  0.3259 -0.1018  0.8194
   72SOL    HW1  215   2.873   1.686   0.350  0.4147 -0.1501  0.5407
   72SOL    HW2  216   2.832   1.734   0.197 -2.0587 -1.5909 -0.8478
   73SOL     OW  217   1.061   0.630   0.637 -0.0764  0.8882  0.2783
   73SOL    HW1  218   1.162   0.606   0.626  1.9528  1.0761 -0.1738
   73SOL    HW2  219   1.050   0.660   0.735  1.2298 -0.5584  1.1637
   74SOL     OW  220   2.925   2.370   1.968  0.8923  0.1264 -0.0776
   74SOL    HW1  221   2.982   2.370   2.051  1.1547 -1.4888 -0.8345
   74SOL    HW2  222   2.956   2.429   1.895 -0.6446 -1.1392  0.6497
   75SOL     OW  223   1.807   1.844   1.763  0.3538  0.3352  0.0524
   75SOL    HW1  224   1.762   1.815   1.851 -0.7218  0.6312  0.5980
   75SOL    HW2  225   1.736   1.842   1.687 -1.4736 -0.2510  0.5354
   76SOL     OW  226   1.326   2.092   1.260  0.2177 -0.7243  0.3355
   76SOL    HW1  227   1.294   2.177   1.214 -0.4515  3.5687  1.6607
   76SOL    HW2  228   1.241   2.038   1.274  1.6509  3.4552 -0.5601
   77SOL     OW  229   2.792   1.714   1.865  0.1080  0.3820  0.0987
   77SOL    HW1  230   2.772   1.616   1.897 -3.2717 -2.4059  0.8648
   77SOL    HW2  231   2.797   1.775   1.941  1.3304 -0.8184 -2.7846
   78SOL     OW  232   1.667   0.482   0.824  0.0604  0.1913  0.8368
   78SOL    HW1  233   1.661   0.384   0.850  1.3051  0.7645 -1.6386
   78SOL    HW2  234   1.620   0.546   0.888 -2.1553  1.2892  2.2016
   79SOL     OW  235   1.983   1.482   1.790 -0.2349 -0.4607 -0.3504
   79SOL    HW1  236   2.066   1.431   1.811 -0.1396 -0.8391  0.7300
   79SOL    HW2  237   1.905   1.419   1.789 -0.8405  0.5277 -1.1462
   80SOL     OW  238   1.361   0.292   1.160 -0.0930 -0.2158  0.0128
   80SOL    HW1  239   1.433   0.219   1.151 -1.1838 -0.2245 -1.3477
   80SOL    HW2  240   1.315   0.283   1.248 -0.2711 -0.1926  3.4202
   81SOL     OW  241   0.693   2.418   0.561  0.4875 -0.2530  0.0690
   81SOL    HW1  242   0.775   2.482   0.559  2.8051  2.0121 -0.5970
   81SOL    HW2  243   0.719   2.330   0.603  1.5315  0.5131  1.6322
   82SOL     OW  244   1.468   0.550   1.817 -0.2461  0.2904 -0.3666
   82SOL    HW1  245   1.548   0.565   1.758 -0.2756 -0.5506 -0.7612
   82SOL    HW2  246   1.386   0.512   1.771  0.4445 -1.4073 -2.4985
   83SOL     OW  247   0.328   2.151   0.636  0.6000  0.3567 -0.4347
   83SOL    HW1  248   0.284   2.178   0.542 -0.5011 -1.3777 -4.2372
   83SOL    HW2  249   0.327   2.220   0.705  1.4739 -1.2621 -1.4904
   84SOL     OW  250   2.642   1.270   3.014 -0.1408 -0.4381 -0.2628
   84SOL    HW1  251   2.709   1.294   2.943  0.5218 -1.8096  0.1963
   84SOL    HW2  252   2.545   1.289   2.988 -0.1404 -0.9060 -0.7673
   85SOL     OW  253   3.014   2.562   1.452 -0.7523  0.4590  0.1180
   85SOL    HW1  254   2.993   2.661   1.447 -0.7130  1.9198  0.6897
   85SOL    HW2  255   2.956   2.509   1.388  0.5252  2.0812  0.3057
   86SOL     OW  256   1.762   2.848   0.976  0.5578  0.8701  0.2403
   86SOL    HW1  257   1.832   2.809   1.039  1.5637  0.8504  1.4019
   86SOL    HW2  258   1.779   2.813   0.882  1.3983  1.1885  3.9501
   87SOL     OW  259   2.718   1.466   0.493  0.1715  0.1751 -0.4687
   87SOL    HW1  260   2.643   1.439   0.431 -0.2757 -0.4675  3.2610
   87SOL    HW2  261   2.722   1.412   0.582  0.8663 -2.8499  1.4814
   88SOL     OW  262   1.021   0.499   1.180  0.4300  0.1901 -0.1781
   88SOL    HW1  263   1.055   0.483   1.275  0.7083  0.1163 -1.2929
   88SOL    HW2  264   0.983   0.416   1.142 -0.6713  3.5702  0.2429
   89SOL     OW  265   0.947   2.717   1.971  0.2090 -0.1321 -0.5299
   89SOL    HW1  266   0.885   2.751   1.894 -1.3797  1.4221  1.1619
   89SOL    HW2  267   1.035   2.769   1.968 -0.2406  1.9538 -0.7797
   90SOL     OW  268   0.042   1.644   1.118 -0.1587  0.8823 -0.2404
   90SOL    HW1  269   3.049   1.624   1.090  1.0568 -0.2473  0.0536
   90SOL    HW2  270   0.054   1.742   1.122  1.9325 -2.4938  0.6751
   91SOL     OW  271   1.180   1.710   1.131  0.2187  0.0750  0.3714
   91SOL    HW1  272   1.167   1.686   1.229  0.2594 -0.5504 -0.7517
   91SOL    HW2  273   1.208   1.629   1.079 -0.2123  2.8478 -0.6537
   92SOL     OW  274   2.673   2.771   1.885 -0.2735 -0.5038 -0.2795
   92SOL    HW1  275   2.654   2.762   1.784 -0.5419  0.1733 -2.3202
   92SOL    HW2  276   2.636   2.861   1.927 -0.9185  0.5994  1.4161
   93SOL     OW  277   3.043   1.338   2.727  0.3955 -0.2969 -0.3949
   93SOL    HW1  278   2.971   1.295   2.670 -0.2171  1.7745 -1.0817
   93SOL    HW2  279   3.090   1.406   2.669 -0.7783 -0.7170 -0.3284
   94SOL     OW  280   2.361   2.873   1.935  0.1220 -0.4264 -0.1259
   94SOL    HW1  281   2.289   2.872   2.010 -3.2656  2.0262  1.6426
   94SOL    HW2  282   2.440   2.940   1.946 -0.0664 -1.2761  0.3206
   95SOL     OW  283   1.733   0.919   2.166 -0.0286  0.1568  0.5631
   95SOL    HW1  284   1.657   0.855   2.191 -0.7427  1.4800  2.3511
   95SOL    HW2  285   1.740   0.946   2.065 -1.2471  0.6031 -2.8903
   96SOL     OW  286   2.710   0.786   1.552 -0.0872  0.2017 -0.2726
   96SOL    HW1  287   2.781   0.782   1.627  2.0216 -1.8061  0.1849
   96SOL    HW2  288   2.752   0.760   1.464  1.9572 -0.3629 -3.3319
   97SOL     OW  289   2.290   3.001   1.415 -0.1156  0.4428 -0.1557
   97SOL    HW1  290   2.373   2.958   1.371 -2.0869 -2.7431  1.8753
   97SOL    HW2  291   2.284   2.984   1.518 -0.8533 -0.6870  0.5083
   98SOL     OW  292   2.119   2.609   1.399 -0.3564  0.2127 -0.1216
   98SOL    HW1  293   2.223   2.586   1.411  0.0981 -2.9367 -2.4821
   98SOL    HW2  294   2.059   2.560   1.464  2.2545 -1.1454  0.9278
   99SOL     OW  295   2.776   0.336   1.552  0.4056 -0.2002  0.1822
   99SOL    HW1  296   2.716   0.374   1.624 -3.7280  0.5015  0.0130
   99SOL    HW2  297   2.865   0.307   1.595  4.2686 -1.6394  0.3565
  100SOL     OW  298   2.240   1.724   2.041  0.3675  0.4055 -0.1438
  100SOL    HW1  299   2.291   1.681   2.119 -0.7195  1.9797  0.8913
  100SOL    HW2  300   2.150   1.763   2.072  0.7378  0.2715  1.3771
  101SOL     OW  301   2.088   0.035   0.212  0.1617 -0.6355  0.0099
  101SOL    HW1  302   2.188   0.035   0.232  0.8293  1.5524  1.8237
  101SOL    HW2  303   2.056   0.127   0.177  1.1138  2.8498  2.0007
  102SOL     OW  304   0.574   0.645   1.237  0.0861  0.1282  0.3246
  102SOL    HW1  305   0.532   0.655   1.327  1.7703 -0.0933  2.0657
  102SOL    HW2  306   0.530   0.583   1.176 -0.5630  2.7815  1.0339
  103SOL     OW  307   2.606   0.021   2.519 -0.1823 -0.5428 -0.3340
  103SOL    HW1  308   2.604   0.080   2.599  1.4755  0.3237  0.4476
  103SOL    HW2  309   2.596   3.029   2.555  1.2801  2.2659  2.2381
  104SOL     OW  310   2.970   2.783   1.787  0.3579  0.1592  0.5383
  104SOL    HW1  311   3.032   2.721   1.840  0.5085 -0.3623  1.8889
  104SOL    HW2  312   2.876   2.763   1.814  0.2072  1.6309 -1.0465
  105SOL     OW  313   1.237   0.917   2.046 -0.1147  0.4518  0.2909
  105SOL    HW1  314   1.149   0.972   2.057 -2.4911  2.6375 -1.3192
  105SOL    HW2  315   1.215   0.815   2.039 -1.1486 -1.6745 -3.8871
  106SOL     OW  316   1.936   0.550   0.872  0.1323 -0.3469  0.1384
  106SOL    HW1  317   1.938   0.545   0.971 -0.6672  0.4171 -3.6449
  106SOL    HW2  318   1.855   0.503   0.833  2.5156  2.6184 -1.1368
  107SOL     OW  319   0.659   1.071   1.292 -0.1308 -0.5244 -0.8256
  107SOL    HW1  320   0.588   1.017   1.245  0.2161  0.9306  1.5885
  107SOL    HW2  321   0.755   1.039   1.278 -0.9995  1.0739 -0.0126
  108SOL     OW  322   2.973   0.343   2.304 -0.1045  0.5797 -0.2190
  108SOL    HW1  323   3.044   0.350   2.233  0.6324 -0.5057 -0.3013
  108SOL    HW2  324   2.983   0.252   2.358 -0.0127 -0.9671  2.4065
  109SOL     OW  325   1.922   2.952   0.004  0.5672 -0.5855  0.2248
  109SOL    HW1  326   1.989   2.991   0.069 -0.2705 -0.1209 -0.1436
  109SOL    HW2  327   1.866   3.030   3.067 -2.1966 -0.4068 -1.2369
  110SOL     OW  328   3.092   1.629   2.755 -0.1775 -0.5274  0.3012
  110SOL    HW1  329   3.015   1.668   2.711  5.1216  0.6320  1.3768
  110SOL    HW2  330   3.080   1.641   2.857  0.7284 -0.5630  1.1482
  111SOL     OW  331   2.557   0.243   2.369 -0.8440  0.2272 -0.3295
  111SOL    HW1  332   2.548   0.319   2.435  1.6649  0.4444 -1.1266
  111SOL    HW2  333   2.573   0.154   2.415  0.0466  1.2956 -1.0551
  112SOL     OW  334   2.590   2.865   1.057  0.3355  0.2072 -0.1801
  112SOL    HW1  335   2.659   2.794   1.039  0.6719  0.5243 -0.9725
  112SOL    HW2  336   2.615   2.948   1.002 -0.9972 -2.2347 -0.6730
  113SOL     OW  337   2.398   2.176   2.200  0.0022 -0.0009  0.5535
  113SOL    HW1  338   2.415   2.091   2.148 -0.7005  0.4182 -1.4547
  113SOL    HW2  339   2.394   2.159   2.301  0.2402  1.1139  0.5628
  114SOL     OW  340   2.715   0.034   0.474  0.1687  0.3574  0.3745
  114SOL    HW1  341   2.622   3.092   0.496 -1.9878 -0.6361  1.4302
  114SOL    HW2  342   2.785   0.021   0.545  0.2846  2.1195  0.4849
  115SOL     OW  343   2.759   1.780   3.085  0.0491  0.4215  0.2428
  115SOL    HW1  344   2.711   1.697   0.027  2.1107 -1.9724 -0.5250
  115SOL    HW2  345   2.730   1.790   2.989  1.5947  0.5983  3.7158
  116SOL     OW  346   2.981   1.445   2.045  0.4345 -0.7556  0.9504
  116SOL    HW1  347   3.016   1.428   1.954 -1.5161  0.4833  3.6235
  116SOL    HW2  348   3.019   1.532   2.081  0.7927 -0.2612  0.9351
  117SOL     OW  349   2.202   0.148   0.914 -0.2988 -0.1271  0.0090
  117SOL    HW1  350   2.183   0.058   0.950  2.9328  1.9090 -1.0926
  117SOL    HW2  351   2.196   0.207   1.001  0.2084 -2.6700  4.1609
  118SOL     OW  352   0.115   2.170   1.745 -0.3199 -0.1194  0.1159
  118SOL    HW1  353   0.039   2.114   1.782  2.2776 -1.6788 -1.0781
  118SOL    HW2  354   0.202   2.123   1.754 -2.2905 -0.7660 -1.1826
  119SOL     OW  355   1.053   1.958   1.314  0.4393 -0.1876 -0.2483
  119SOL    HW1  356   1.028   2.013   1.234 -3.2518  0.3046  2.1777
  119SOL    HW2  357   0.971   1.917   1.367  0.7062  0.3151 -0.5078
  120SOL     OW  358   0.266   1.859   1.429  0.5376 -0.1301  0.0129
  120SOL    HW1  359   0.296   1.848   1.525 -1.2973  0.1459 -1.1762
  120SOL    HW2  360   0.335   1.827   1.369 -1.1893 -0.2829  3.4429
  121SOL     OW  361   1.935   1.347   1.040  0.3124  0.0388  0.2840
  121SOL    HW1  362   1.866   1.421   1.021  0.0064  0.8092 -0.7760
  121SOL    HW2  363   2.000   1.370   1.116 -2.0031  3.4093 -1.4213
  122SOL     OW  364   2.032   2.009   2.896  0.6166 -0.3265 -0.4999
  122SOL    HW1  365   1.969   1.932   2.922  1.0405  0.9042  1.4128
  122SOL    HW2  366   2.131   1.984   2.898 -1.9967 -0.2152  0.5702
  123SOL     OW  367   2.953   2.938   0.380 -0.3506  0.3304  0.2092
  123SOL    HW1  368   2.982   2.922   0.284  0.3023  0.8013  0.5761
  123SOL    HW2  369   2.861   2.900   0.406 -0.5189  0.4938 -0.1727
  124SOL     OW  370   1.103   1.144   0.170 -0.0836 -0.5358 -0.2155
  124SOL    HW1  371   1.009   1.165   0.206 -1.0799 -0.3465  0.7101
  124SOL    HW2  372   1.089   1.102   0.078 -0.9728  4.5446 -1.1266
  125SOL     OW  373   0.011   1.405   2.400  0.0032 -0.1007  0.3634
  125SOL    HW1  374   0.062   1.483   2.361 -1.0768  2.0976  1.8186
  125SOL    HW2  375   0.073   1.321   2.412  0.5252  0.7481  0.9262
  126SOL     OW  376   0.005   2.586   0.452  0.8561  0.0423  0.0170
  126SOL    HW1  377   0.082   2.647   0.470 -0.9692 -2.6468  0.5501
  126SOL    HW2  378   0.019   2.490   0.473  0.2722  1.0500  1.3716
  127SOL     OW  379   2.965   1.581   0.437 -0.0009  0.4222 -0.2426
  127SOL    HW1  380   2.876   1.532   0.446 -1.9653  1.9353 -0.1325
  127SOL    HW2  381   3.027   1.527   0.378 -0.8829  0.4549  0.0833
  128SOL     OW  382   1.012   1.247   0.546  0.3399 -0.2454  0.5587
  128SOL    HW1  383   1.030   1.313   0.619  0.2196 -1.1818 -1.5540
  128SOL    HW2  384   1.093   1.196   0.515  1.8147 -1.4676 -1.0871
  129SOL     OW  385   1.982   2.068   1.407  0.1392 -0.0187 -0.5073
  129SOL    HW1  386   2.046   2.137   1.449  3.7326  1.8100  1.6987
  129SOL    HW2  387   1.887   2.108   1.389 -6.7146 -1.6811 -0.5478
  130SOL     OW  388   2.057   0.980   0.726 -0.2486  0.7425 -0.1759
  130SOL    HW1  389   1.965   1.001   0.683 -1.5329 -0.4320  0.5096
  130SOL    HW2  390   2.076   1.054   0.792  0.7250  0.1010  0.1743
  131SOL     OW  391   2.956   0.932   2.757  0.1984  0.1141  0.1463
  131SOL    HW1  392   2.926   0.915   2.852  3.1918 -0.5357 -0.3155
  131SOL    HW2  393   2.934   1.023   2.725  2.2619  0.3008 -0.7615
  132SOL     OW  394   1.484   1.130   2.283  0.4221  0.4137  0.0737
  132SOL    HW1  395   1.492   1.028   2.275  0.1762 -1.0653  1.4551
  132SOL    HW2  396   1.514   1.180   2.198  0.8806 -0.7109 -0.9707
  133SOL     OW  397   3.088   1.068   3.099 -0.2704 -0.2722 -0.2208
  133SOL    HW1  398   0.027   1.145   3.042  0.9305 -0.1913  1.5068
  133SOL    HW2  399   3.045   1.105   0.079 -0.5923 -2.7768 -1.6538
  134SOL     OW  400   2.821   0.717   0.711  0.4247 -0.1200  0.6075
  134SOL    HW1  401   2.874   0.789   0.758  0.3502 -0.8328  2.1813
  134SOL    HW2  402   2.878   0.649   0.662 -0.5790 -1.7963 -1.4819
  135SOL     OW  403   1.972   0.891   3.005 -0.0443  0.1868  0.5140
  135SOL    HW1  404   2.025   0.805   3.022 -0.5631 -2.3207  0.2815
  135SOL    HW2  405   1.933   0.936   3.091  0.0327  1.6413  2.6521
  136SOL     OW  406   1.760   2.139   1.705 -0.4989 -0.0211 -0.5480
  136SOL    HW1  407   1.806   2.055   1.738 -1.7696  0.9258  0.7955
  136SOL    HW2  408   1.678   2.154   1.766  1.8882 -1.1645 -0.7004
  137SOL     OW  409   2.167   2.610   0.644 -0.1030 -0.0540  0.4627
  137SOL    HW1  410   2.195   2.531   0.697  0.7575  0.6852  0.6978
  137SOL    HW2  411   2.227   2.613   0.560  1.7151  0.3591 -0.5213
  138SOL     OW  412   2.388   0.265   1.582 -0.2677 -0.0614  0.0547
  138SOL    HW1  413   2.310   0.211   1.611  2.7968 -0.5046 -3.0683
  138SOL    HW2  414   2.409   0.338   1.647  0.0794 -3.8544  2.4177
  139SOL     OW  415   2.624   0.098   2.792  0.1747  0.2811  0.5899
  139SOL    HW1  416   2.557   0.067   2.861  0.2402  2.5294  0.8929
  139SOL    HW2  417   2.669   0.183   2.823 -0.7269  1.7151 -0.4800
  140SOL     OW  418   1.134   1.608   2.278  0.0420 -0.2890 -0.4070
  140SOL    HW1  419   1.067   1.642   2.348 -1.1502  1.0463  2.2559
  140SOL    HW2  420   1.188   1.535   2.329 -0.5330 -0.5924  0.3304
  141SOL     OW  421   0.789   0.557   2.340 -0.0631 -0.0615  0.2223
  141SOL    HW1  422   0.713   0.565   2.274  3.2577  1.0083 -0.4139
  141SOL    HW2  423   0.869   0.603   2.294  3.7363  1.8302 -1.4110
  142SOL     OW  424   2.696   2.495   2.841  0.2004  0.6112  0.5917
  142SOL    HW1  425   2.769   2.482   2.909 -0.3061  0.5304 -1.1983
  142SOL    HW2  426   2.713   2.581   2.787 -0.9436  0.9285 -2.1900
  143SOL     OW  427   0.767   2.055   0.374 -0.4328 -0.4933 -0.0344
  143SOL    HW1  428   0.716   2.138   0.340 -0.8652  2.8417 -0.5748
  143SOL    HW2  429   0.830   2.087   0.447 -2.6427  2.2395  0.3785
  144SOL     OW  430   1.311   2.547   3.094 -0.6656  0.3625  0.6064
  144SOL    HW1  431   1.228   2.507   3.058  4.8559  0.9241  0.8581
  144SOL    HW2  432   1.348   2.487   0.066 -1.2213 -1.3848  0.9924
  145SOL     OW  433   1.570   1.893   2.551 -0.0226 -0.1236 -0.1806
  145SOL    HW1  434   1.652   1.923   2.602  0.0370  0.8375 -1.7616
  145SOL    HW2  435   1.592   1.836   2.467 -1.1454 -1.1821  1.7121
  146SOL     OW  436   2.802   2.991   2.815  0.3190 -0.2243 -0.0968
  146SOL    HW1  437   2.788   2.977   2.915 -3.6849 -1.3541 -1.1688
  146SOL    HW2  438   2.731   3.054   2.779  1.7462 -0.1776  1.7647
  147SOL     OW  439   2.923   1.391   0.866  0.3328  0.2279 -0.5807
  147SOL    HW1  440   2.942   1.309   0.923  2.2972 -0.0992  1.3056
  147SOL    HW2  441   2.894   1.464   0.929 -0.9349 -4.2883  1.9003
  148SOL     OW  442   2.113   2.594   0.200 -0.5549  0.0450  0.0033
  148SOL    HW1  443   2.053   2.600   0.284 -0.9730 -2.4335 -0.8052
  148SOL    HW2  444   2.062   2.625   0.119  1.4848 -1.8230  3.2578
  149SOL     OW  445   0.456   1.803   2.713 -0.6157  0.2002 -0.1418
  149SOL    HW1  446   0.541   1.814   2.766  0.4741  0.2851 -0.6901
  149SOL    HW2  447   0.368   1.819   2.761 -0.9353  1.2684  2.0860
  150SOL     OW  448   0.275   2.597   0.583  1.0146 -0.0418  0.4170
  150SOL    HW1  449   0.293   2.615   0.484 -0.3119 -1.2235 -0.7981
  150SOL    HW2  450   0.337   2.528   0.630  2.1745 -2.6382  1.4652
  151SOL     OW  451   0.513   1.181   0.370  0.9647 -0.8479 -0.0816
  151SOL    HW1  452   0.480   1.090   0.340 -0.8805 -0.0607 -0.7265
  151SOL    HW2  453   0.477   1.208   0.460  0.9200  0.5597 -2.8273
  152SOL     OW  454   2.676   2.001   0.272  0.4927  0.5697  0.4864
  152SOL    HW1  455   2.673   1.900   0.280  1.7835 -1.9962 -0.6704
  152SOL    HW2  456   2.597   2.033   0.214 -2.0939 -0.7368 -2.7716
  153SOL     OW  457   1.775   2.341   0.682  0.6213  0.4867  0.1454
  153SOL    HW1  458   1.862   2.300   0.718  1.4311 -3.0097 -2.6439
  153SOL    HW2  459   1.775   2.306   0.587  2.5939 -1.7649 -1.1654
  154SOL     OW  460   0.973   2.475   0.814  0.4144 -0.3385  0.0727
  154SOL    HW1  461   0.961   2.518   0.722 -1.5867 -2.1280  1.5596
  154SOL    HW2  462   0.894   2.504   0.876 -0.6197 -0.0317  0.6483
  155SOL     OW  463   2.792   1.781   0.844 -0.0292 -0.7357 -0.1570
  155SOL    HW1  464   2.726   1.740   0.782 -0.2101 -4.6592  0.9516
  155SOL    HW2  465   2.886   1.781   0.806  0.6530  1.1599  0.4685
  156SOL     OW  466   2.652   2.254   3.078 -0.0343 -0.6382  0.0368
  156SOL    HW1  467   2.612   2.167   0.013  3.5465  2.2320  0.6869
  156SOL    HW2  468   2.591   2.331   3.097  1.9157  1.1364 -2.4815
  157SOL     OW  469   0.580   2.096   1.447 -0.3400 -0.0647  0.2957
  157SOL    HW1  470   0.665   2.135   1.399  0.9059  0.4008  1.4911
  157SOL    HW2  471   0.500   2.131   1.392  0.4084 -0.6781  1.0176
  158SOL     OW  472   1.475   0.629   0.372 -0.0310  0.0754 -0.2760
  158SOL    HW1  473   1.511   0.622   0.468  4.3054 -0.9896 -0.0720
  158SOL    HW2  474   1.534   0.573   0.313  1.1253  3.1642 -0.9258
  159SOL     OW  475   1.286   0.827   0.414 -0.0816  0.5460 -0.0362
  159SOL    HW1  476   1.359   0.759   0.396 -0.7340 -0.2555  0.1449
  159SOL    HW2  477   1.205   0.814   0.353 -1.0174  0.9205 -1.9060
  160SOL     OW  478   0.741   1.352   0.729 -0.4756 -0.0725 -0.6002
  160SOL    HW1  479   0.677   1.298   0.786  1.1942  0.5932 -0.4380
  160SOL    HW2  480   0.838   1.337   0.751 -3.5153  1.3899  1.2483
  161SOL     OW  481   0.072   2.400   2.666 -0.0398  0.1125  0.3059
  161SOL    HW1  482   0.013   2.361   2.740  0.3831  0.5599 -0.2674
  161SOL    HW2  483   0.175   2.390   2.685 -0.3806 -0.8440 -1.5329
  162SOL     OW  484   0.157   2.437   0.994  0.9389  0.0650  0.4402
  162SOL    HW1  485   0.109   2.411   1.081 -0.4591 -1.4798 -0.8783
  162SOL    HW2  486   0.093   2.462   0.915  0.3756  2.0616 -0.4770
  163SOL     OW  487   2.983   0.404   2.745 -0.6152 -0.0074 -0.2330
  163SOL    HW1  488   2.983   0.489   2.685  2.2055  0.6081  1.7605
  163SOL    HW2  489   3.043   0.418   2.830 -0.8593  2.7008 -0.3028
  164SOL     OW  490   0.553   2.960   2.766 -0.2114 -0.4777  0.0955
  164SOL    HW1  491   0.459   2.929   2.758  0.5754  0.2563  0.9824
  164SOL    HW2  492   0.601   2.890   2.708  1.8711 -0.1364 -1.3895
  165SOL     OW  493   2.482   0.604   1.610  0.5333 -0.3990  0.7061
  165SOL    HW1  494   2.399   0.649   1.654 -1.7225 -3.1523  0.6235
  165SOL    HW2  495   2.555   0.668   1.595 -1.7876  2.1932  0.7715
  166SOL     OW  496   1.987   2.284   1.744  0.5594 -0.5639  0.2316
  166SOL    HW1  497   1.969   2.312   1.842  0.7962 -1.7600  1.0518
  166SOL    HW2  498   1.909   2.225   1.713 -1.0193 -2.5414  0.2224
  167SOL     OW  499   0.627   1.104   2.419  0.2529  0.1785  0.1729
  167SOL    HW1  500   0.637   1.192   2.468  2.7643  1.3176 -0.5884
  167SOL    HW2  501   0.686   1.034   2.457 -3.4173  0.5963 -1.0342
  168SOL     OW  502   2.261   0.045   2.272 -0.2016 -0.0895 -0.0810
  168SOL    HW1  503   2.356   0.068   2.241  1.5870  1.6286  0.5597
  168SOL    HW2  504   2.203   0.019   2.193  0.1454 -1.1420 -1.3228
  169SOL     OW  505   0.312   0.902   0.230 -0.2989  0.2530  0.2006
  169SOL    HW1  506   0.393   0.843   0.213  0.4002  0.0449 -1.1980
  169SOL    HW2  507   0.231   0.876   0.167 -0.7763 -1.5525 -1.7608
  170SOL     OW  508   0.101   1.355   1.854 -0.3158  0.4393  0.0996
  170SOL    HW1  509   0.124   1.403   1.767 -2.1041  0.4373 -1.3920
  170SOL    HW2  510   0.169   1.376   1.926  2.7086  1.1198  1.1836
  171SOL     OW  511   1.198   2.299   2.075 -0.2798  0.0663  0.0202
  171SOL    HW1  512   1.198   2.331   1.978  0.3290 -1.5280  4.1164
  171SOL    HW2  513   1.279   2.333   2.121 -1.1778 -2.2762 -2.4470
  172SOL     OW  514   1.137   2.546   2.270  0.4302  0.0107  0.0437
  172SOL    HW1  515   1.119   2.487   2.192 -0.7626  3.2164 -1.3697
  172SOL    HW2  516   1.225   2.599   2.264 -1.4671  0.5009 -0.3834
  173SOL     OW  517   1.383   2.379   0.650  0.2969 -0.3944 -0.5257
  173SOL    HW1  518   1.365   2.286   0.695 -0.7485 -1.5392  1.2896
  173SOL    HW2  519   1.393   2.453   0.714  0.8960  0.2625 -1.7497
  174SOL     OW  520   2.369   0.054   0.289  0.3733  0.7021 -0.1605
  174SOL    HW1  521   2.387   0.013   0.383 -0.4978  0.1279 -0.2951
  174SOL    HW2  522   2.371   0.154   0.295  1.4014  0.5063  0.4946
  175SOL     OW  523   1.057   1.723   0.495  0.2708 -0.3412 -0.5654
  175SOL    HW1  524   1.084   1.796   0.425 -0.9697 -1.5033 -1.0349
  175SOL    HW2  525   1.042   1.638   0.444  0.7695  2.5053  2.2207
  176SOL     OW  526   0.549   1.702   0.603 -0.4121  0.1722 -0.1302
  176SOL    HW1  527   0.558   1.806   0.619  0.9250  2.2656  0.6904
  176SOL    HW2  528   0.453   1.686   0.576  1.3049  0.6889  2.4090
  177SOL     OW  529   1.169   1.213   1.543  0.5758 -0.6602 -0.0950
  177SOL    HW1  530   1.107   1.200   1.624  0.7689 -1.2301 -1.8849
  177SOL    HW2  531   1.268   1.202   1.570  0.2345 -0.0823  1.1961
  178SOL     OW  532   2.400   1.737   0.436  0.7754 -0.2722  0.3139
  178SOL    HW1  533   2.324   1.811   0.430  1.7788  0.9942  0.5917
  178SOL    HW2  534   2.432   1.701   0.345  2.3492  1.7437  2.0653
  179SOL     OW  535   1.076   2.447   2.987  0.0284 -0.1097 -0.8155
  179SOL    HW1  536   1.142   2.369   2.974 -0.1106 -2.4656 -0.8440
  179SOL    HW2  537   0.988   2.416   3.025 -1.0004  0.1270 -1.7401
  180SOL     OW  538   1.875   1.631   2.014 -0.0776 -0.0770  0.1916
  180SOL    HW1  539   1.936   1.693   2.071  0.8926 -2.1096 -3.3953
  180SOL    HW2  540   1.932   1.567   1.957 -1.2529  0.9218 -3.8631
  181SOL     OW  541   0.780   0.904   2.524 -0.0060  0.3022 -0.3038
  181SOL    HW1  542   0.848   0.878   2.449  0.6580 -0.1543 -2.6574
  181SOL    HW2  543   0.822   0.923   2.615 -0.3933  0.0321 -2.4696
  182SOL     OW  544   2.873   0.984   2.320  0.0571 -0.3853 -0.6231
  182SOL    HW1  545   2.778   0.964   2.354 -0.5754  0.0752  1.3922
  182SOL    HW2  546   2.938   1.011   2.389  0.1576  0.0980 -0.4264
  183SOL     OW  547   1.475   0.814   2.183 -0.0290 -0.1367 -0.2244
  183SOL    HW1  548   1.468   0.724   2.149  0.8640  1.5852  0.8764
  183SOL    HW2  549   1.414   0.877   2.129  0.5635 -0.5421 -0.3564
  184SOL     OW  550   0.361   0.537   1.736  0.2997 -0.4352  0.3006
  184SOL    HW1  551   0.441   0.602   1.737 -0.7354  1.2857 -0.3671
  184SOL    HW2  552   0.285   0.577   1.792  1.9450 -0.9648 -0.6958
  185SOL     OW  553   1.994   1.834   0.808 -0.0538  0.0153  0.0359
  185SOL    HW1  554   2.066   1.867   0.742  2.2363 -0.5372 -0.8354
  185SOL    HW2  555   2.026   1.833   0.902  0.1324 -1.9868  0.1742
  186SOL     OW  556   0.231   1.906   0.272  0.4710 -0.3180 -0.5502
  186SOL    HW1  557   0.306   1.840   0.249  1.6596 -1.1172 -0.8188
  186SOL    HW2  558   0.173   1.871   0.350  0.6188 -0.0472 -1.3689
  187SOL     OW  559   2.000   1.929   0.154 -0.4489  0.1988  0.3663
  187SOL    HW1  560   2.091   1.936   0.196  2.2048 -2.8377  0.4423
  187SOL    HW2  561   1.975   2.005   0.091 -2.2803 -3.0828  1.7613
  188SOL     OW  562   0.739   2.243   0.953  0.0489  0.2420 -0.5255
  188SOL    HW1  563   0.799   2.174   0.986 -1.5530  0.5788 -0.4381
  188SOL    HW2  564   0.769   2.330   0.981  0.1771 -3.1592 -0.1226
  189SOL     OW  565   1.946   1.241   2.553 -0.0432  0.0834 -0.1354
  189SOL    HW1  566   1.974   1.213   2.652 -0.3018 -0.2546  0.8056
  189SOL    HW2  567   1.893   1.329   2.556  0.2396  0.6553  0.2524
  190SOL     OW  568   0.975   2.184   2.203  0.4660 -0.4595  0.6750
  190SOL    HW1  569   0.894   2.227   2.253  1.6162 -0.9504 -0.0104
  190SOL    HW2  570   1.032   2.249   2.149 -2.4129  1.1170  0.4906
  191SOL     OW  571   2.366   0.747   1.341 -0.1650 -0.6213  0.2449
  191SOL    HW1  572   2.280   0.730   1.395 -0.1041  1.9280  1.1299
  191SOL    HW2  573   2.429   0.813   1.389  0.4677 -0.2718  0.7308
  192SOL     OW  574   2.615   0.420   1.758 -0.2839  0.6618 -0.0692
  192SOL    HW1  575   2.568   0.498   1.715 -1.2645  0.3539  3.6729
  192SOL    HW2  576   2.647   0.447   1.853  1.7418 -0.5201  1.8968
  193SOL     OW  577   0.801   0.063   0.665  0.2169  0.3273 -0.3272
  193SOL    HW1  578   0.841   0.058   0.569 -0.8884  0.8807  1.9910
  193SOL    HW2  579   0.812   3.076   0.714 -0.0605 -0.5658  1.9877
  194SOL     OW  580   1.250   2.405   1.819  0.2127  0.0899  0.9250
  194SOL    HW1  581   1.271   2.338   1.744  0.5474 -2.9510 -0.9163
  194SOL    HW2  582   1.219   2.494   1.778 -1.2847  1.5604  0.7253
  195SOL     OW  583   2.605   1.082   0.834  0.3929  0.0262  0.2069
  195SOL    HW1  584   2.589   1.143   0.915  0.1387  1.9547 -0.6810
  195SOL    HW2  585   2.517   1.039   0.805 -1.5327 -0.3752 -0.4642
  196SOL     OW  586   1.070   2.141   1.780  0.5706 -0.3029  0.1126
  196SOL    HW1  587   1.021   2.214   1.727 -2.1065 -0.4871  1.2123
  196SOL    HW2  588   1.006   2.108   1.854 -1.0072 -0.9608  2.1155
  197SOL     OW  589   0.372   0.622   2.456 -0.1356 -0.0361  0.4687
  197SOL    HW1  590   0.345   0.691   2.388  0.6541 -1.8575 -1.3154
  197SOL    HW2  591   0.349   0.527   2.433  0.9602  1.6705  0.2922
  198SOL     OW  592   1.502   0.874   0.163 -0.2250  0.0540 -0.2098
  198SOL    HW1  593   1.435   0.824   0.222 -0.1408 -2.4618  2.0069
  198SOL    HW2  594   1.455   0.951   0.118  1.6680 -4.8750 -1.2798
  199SOL     OW  595   2.678   0.527   1.995 -0.5590  0.3292 -0.3877
  199SOL    HW1  596   2.676   0.489   2.094 -0.0990 -2.1688 -2.2457
  199SOL    HW2  597   2.652   0.625   1.995 -1.2802 -1.5597  2.0664
  200SOL     OW  598   2.281   2.523   2.520  0.0882 -0.4102  0.2033
  200SOL    HW1  599   2.324   2.614   2.506 -1.0707 -0.6063 -0.2795
  200SOL    HW2  600   2.178   2.536   2.524 -1.6345 -0.1010  2.4064
  201SOL     OW  601   2.397   0.139   1.337  0.2013 -0.7099  0.0840
  201SOL    HW1  602   2.397   0.207   1.414 -0.3582 -1.0060 -0.7201
  201SOL    HW2  603   2.363   0.049   1.375 -0.0856 -1.5036  0.6189
  202SOL     OW  604   0.209   2.807   0.334  0.0787 -0.2435  0.4602
  202SOL    HW1  605   0.141   2.883   0.341  1.1896  0.1639 -0.1128
  202SOL    HW2  606   0.299   2.836   0.367 -0.7731  0.6537  0.0371
  203SOL     OW  607   1.091   2.120   2.742 -0.7566 -0.1403 -0.1331
  203SOL    HW1  608   0.996   2.112   2.755  0.2842  2.2817 -1.4167
  203SOL    HW2  609   1.113   2.078   2.650 -3.6260 -0.4567 -0.0356
  204SOL     OW  610   0.503   1.880   2.466  0.4298  0.6968 -0.5897
  204SOL    HW1  611   0.579   1.947   2.458  2.2066  0.8335  0.2729
  204SOL    HW2  612   0.500   1.832   2.555 -2.3220  0.5656 -0.1449
  205SOL     OW  613   0.914   0.983   1.172  0.3552  0.0969  0.1756
  205SOL    HW1  614   0.884   0.885   1.164 -0.0195  0.3778 -1.0515
  205SOL    HW2  615   0.983   0.996   1.246 -0.1464  2.0515 -1.6134
  206SOL     OW  616   0.213   0.631   2.722  0.2904  0.5782  0.0116
  206SOL    HW1  617   0.120   0.658   2.690 -1.4825  0.1790  1.0490
  206SOL    HW2  618   0.275   0.632   2.644  2.0348  1.0539 -2.0348
  207SOL     OW  619   1.786   2.206   2.041 -0.3246  0.0276 -0.5338
  207SOL    HW1  620   1.845   2.287   2.034 -1.3257 -2.2016 -1.0468
  207SOL    HW2  621   1.703   2.201   1.980 -0.6550 -1.3807  0.7530
  208SOL     OW  622   0.832   2.623   1.326 -0.1799  0.0289  0.3066
  208SOL    HW1  623   0.761   2.554   1.294  1.7089 -1.9188 -1.8090
  208SOL    HW2  624   0.791   2.714   1.346  0.0056 -1.4521 -0.0307
  209SOL     OW  625   1.313   1.458   0.027  0.0873  0.4351  0.0268
  209SOL    HW1  626   1.293   1.497   0.118  1.5394 -0.8302 -0.5090
  209SOL    HW2  627   1.413   1.452   0.015 -1.1407 -0.9099 -1.6098
  210SOL     OW  628   2.328   0.536   0.935  0.4787  0.4018  0.0946
  210SOL    HW1  629   2.383   0.484   0.873 -3.3625  0.5148  3.6189
  210SOL    HW2  630   2.284   0.615   0.885 -1.5033  1.9605  1.2823
  211SOL     OW  631   1.433   2.825   0.253  0.5290  0.3827  0.0891
  211SOL    HW1  632   1.377   2.838   0.338  0.1499  1.1502  0.0076
  211SOL    HW2  633   1.465   2.915   0.214  0.4814 -0.7697 -0.1160
  212SOL     OW  634   2.016   2.199   0.761 -0.5580 -0.1955 -0.2175
  212SOL    HW1  635   2.091   2.269   0.771 -1.8600 -0.3168 -0.3247
  212SOL    HW2  636   1.988   2.168   0.856  0.1710  0.4808 -1.2926
  213SOL     OW  637   1.683   0.694   2.910  0.0398 -0.6081  0.3636
  213SOL    HW1  638   1.754   0.646   2.967 -0.3490 -1.2883 -2.1026
  213SOL    HW2  639   1.691   0.796   2.905  0.0440  2.1062 -0.3973
  214SOL     OW  640   0.709   1.720   1.843  0.0039  0.1235 -0.1901
  214SOL    HW1  641   0.798   1.733   1.893  2.7163  0.0130 -0.0065
  214SOL    HW2  642   0.683   1.809   1.804 -2.5911  1.1344 -0.9631
  215SOL     OW  643   0.069   1.393   0.343  0.0597  0.0746  0.1716
  215SOL    HW1  644   0.161   1.400   0.294  1.4980 -2.3145 -0.7006
  215SOL    HW2  645   0.089   1.377   0.443 -0.1632 -1.9848  0.1738
  216SOL     OW  646   0.109   2.909   2.438 -0.3657  0.4183 -0.1540
  216SOL    HW1  647   0.213   2.909   2.429  1.8006  1.4005 -2.3622
  216SOL    HW2  648   0.085   2.840   2.512 -0.8159  1.0443 -0.1949
  217SOL     OW  649   2.726   1.127   1.206  0.2552 -0.2980 -0.5811
  217SOL    HW1  650   2.756   1.044   1.153  0.1543 -2.5840  0.0058
  217SOL    HW2  651   2.750   1.132   1.304  2.6216  3.1126 -2.4382
  218SOL     OW  652   1.219   1.802   2.118 -0.3071  0.0588  0.4963
  218SOL    HW1  653   1.276   1.786   2.038 -0.6602 -0.2917  0.6294
  218SOL    HW2  654   1.200   1.716   2.166 -1.8284  2.8107  1.6191
  219SOL     OW  655   2.111   1.491   0.266 -0.0424 -0.2370  0.1810
  219SOL    HW1  656   2.202   1.480   0.221  2.6576  0.5075 -1.4373
  219SOL    HW2  657   2.076   1.407   0.310 -0.7521  2.0758 -0.2357
  220SOL     OW  658   2.162   1.057   0.312 -0.0025 -0.1069  0.8296
  220SOL    HW1  659   2.229   1.033   0.237  1.3913 -1.0845 -1.6382
  220SOL    HW2  660   2.156   0.979   0.377  2.0393  1.6849  1.2984
  221SOL     OW  661   0.164   0.452   0.215 -0.6184  0.7386  0.4643
  221SOL    HW1  662   0.249   0.495   0.179 -2.9626 -1.1226  0.8032
  221SOL    HW2  663   0.113   0.403   0.136  0.0501 -1.8662 -0.9340
  222SOL     OW  664   1.425   1.476   0.627 -0.5347 -0.4170 -0.5886
  222SOL    HW1  665   1.518   1.518   0.644  1.4651 -0.3049  2.0176
  222SOL    HW2  666   1.346   1.528   0.664  0.9757  0.6579 -0.3119
  223SOL     OW  667   0.873   0.337   2.982 -0.1907  0.4382  0.3896
  223SOL    HW1  668   0.913   0.257   3.024 -1.0395 -0.3771  0.7130
  223SOL    HW2  669   0.907   0.354   2.885  2.2118  0.6288 -1.7791
  224SOL     OW  670   1.773   0.134   1.305  0.6696 -0.3017  0.1074
  224SOL    HW1  671   1.708   0.068   1.343  1.3412  1.3265  0.0782
  224SOL    HW2  672   1.794   0.108   1.209 -0.8442  0.3158 -1.9885
  225SOL     OW  673   0.357   2.483   1.430 -0.3468  0.8854 -0.0790
  225SOL    HW1  674   0.382   2.416   1.359  1.9650  0.0410  1.2104
  225SOL    HW2  675   0.270   2.459   1.475  2.2629 -1.6884 -1.4271
  226SOL     OW  676   0.920   1.683   0.177  0.0547  0.1752  0.7345
  226SOL    HW1  677   0.955   1.611   0.236 -0.3658  0.5455 -0.9274
  226SOL    HW2  678   0.980   1.765   0.176 -2.1556  0.1761 -0.1903
  227SOL     OW  679   0.946   1.608   0.893 -0.6494  0.2328  0.3361
  227SOL    HW1  680   0.868   1.654   0.843 -4.1085 -1.7285  1.0182
  227SOL    HW2  681   0.913   1.571   0.982  3.5455 -2.2260 -0.8842
  228SOL     OW  682   0.293   1.562   0.470 -0.2239  0.0218  0.0262
  228SOL    HW1  683   0.247   1.640   0.419 -1.3913  2.8297  1.3814
  228SOL    HW2  684   0.299   1.476   0.418  0.4488  1.9841 -1.1739
  229SOL     OW  685   2.322   0.258   2.683 -0.1765  0.2435 -0.3194
  229SOL    HW1  686   2.224   0.243   2.686  0.8852 -1.9314  0.9879
  229SOL    HW2  687   2.368   0.217   2.762  0.7619  1.8750  1.2123
  230SOL     OW  688   1.818   1.183   0.548 -0.4472  0.2900 -0.5099
  230SOL    HW1  689   1.778   1.271   0.581 -0.0548 -0.8418 -2.0992
  230SOL    HW2  690   1.748   1.108   0.532 -1.3354 -0.0985 -1.8143
  231SOL     OW  691   1.255   1.407   2.419  0.3821 -0.3111  0.3934
  231SOL    HW1  692   1.348   1.434   2.382  0.1246  0.4561  2.0222
  231SOL    HW2  693   1.219   1.321   2.376 -1.2678 -0.9283 -0.3715
  232SOL     OW  694   2.474   2.184   0.695  0.2353 -0.0408  0.0833
  232SOL    HW1  695   2.557   2.194   0.751  0.0846  0.8226 -0.2604
  232SOL    HW2  696   2.417   2.113   0.740  0.1513  2.1289  0.3654
  233SOL     OW  697   0.468   2.469   0.702 -0.2755  0.3424  0.3625
  233SOL    HW1  698   0.534   2.437   0.627 -0.7350  0.9021 -0.2524
  233SOL    HW2  699   0.510   2.529   0.779  3.4996  3.8217 -0.4000
  234SOL     OW  700   0.639   0.578   2.793  0.7583  0.2745  0.1238
  234SOL    HW1  701   0.591   0.648   2.736  0.8868 -1.0432 -0.2780
  234SOL    HW2  702   0.646   0.614   2.888 -0.7933  1.6321  0.5556
  235SOL     OW  703   2.707   0.414   2.243 -0.1824 -0.0850 -0.4273
  235SOL    HW1  704   2.663   0.333   2.287 -0.2777  1.0343  3.7796
  235SOL    HW2  705   2.807   0.406   2.257 -2.5853 -1.7351 -3.3834
  236SOL     OW  706   1.749   2.800   1.342 -0.1923 -0.5216  0.3342
  236SOL    HW1  707   1.806   2.760   1.267  0.0688  0.6057 -1.1353
  236SOL    HW2  708   1.715   2.722   1.401  1.6610 -0.6477  4.1011
  237SOL     OW  709   0.837   1.831   2.263 -0.3257 -0.3195  0.5208
  237SOL    HW1  710   0.834   1.924   2.305 -1.2387  2.2193  0.9262
  237SOL    HW2  711   0.856   1.759   2.333 -1.4499 -1.3112 -1.7644
  238SOL     OW  712   1.070   0.200   2.380  0.0869 -0.0231 -0.6862
  238SOL    HW1  713   1.128   0.246   2.453  2.0718 -0.4391 -1.2924
  238SOL    HW2  714   1.073   0.098   2.390  0.3871 -1.9655 -0.6891
  239SOL     OW  715   0.425   2.430   2.148  0.5583  0.4549 -0.1065
  239SOL    HW1  716   0.511   2.390   2.104  2.8034  1.0779 -1.7193
  239SOL    HW2  717   0.338   2.401   2.096 -0.6265 -1.4887 -1.6741
  240SOL     OW  718   2.462   2.803   0.507 -0.1672  0.0960 -0.4040
  240SOL    HW1  719   2.466   2.776   0.605 -2.4982 -0.6114  1.1940
  240SOL    HW2  720   2.384   2.751   0.461 -0.3717 -0.6328  0.9735
  241SOL     OW  721   2.431   1.308   0.946 -0.2668  0.0500 -0.2262
  241SOL    HW1  722   2.453   1.398   0.987 -1.1690  0.0161 -0.2694
  241SOL    HW2  723   2.420   1.316   0.845  0.1149 -1.2068  1.7730
  242SOL     OW  724   1.973   2.386   2.003  0.9824  0.3400  0.1209
  242SOL    HW1  725   2.072   2.368   2.024 -0.7375 -3.2510  1.3012
  242SOL    HW2  726   1.944   2.480   2.025  0.0543 -1.5201 -2.7710
  243SOL     OW  727   0.970   2.620   1.574 -0.0360 -0.1743  0.9491
  243SOL    HW1  728   0.937   2.621   1.479 -0.4737  0.2868  0.6337
  243SOL    HW2  729   0.929   2.693   1.634  1.2931  1.3524 -0.9159
  244SOL     OW  730   2.162   0.536   2.840  0.4243 -0.3871 -0.1785
  244SOL    HW1  731   2.089   0.511   2.774 -1.2399  0.4606  0.9686
  244SOL    HW2  732   2.243   0.555   2.782 -2.6756  1.1960 -1.4598
  245SOL     OW  733   1.530   0.508   1.223  0.4030 -0.3332 -0.3943
  245SOL    HW1  734   1.532   0.576   1.153 -3.7587 -0.9513  1.2742
  245SOL    HW2  735   1.468   0.430   1.191 -2.0727 -0.3451 -2.7437
  246SOL     OW  736   1.731   2.471   0.005 -0.2284 -0.0086  0.3156
  246SOL    HW1  737   1.700   2.441   3.012 -4.0580  0.5980 -1.3669
  246SOL    HW2  738   1.796   2.549   0.009  1.8139 -0.7215  2.1414
  247SOL     OW  739   1.056   0.863   2.391 -0.1507  0.1408  0.0252
  247SOL    HW1  740   1.087   0.791   2.458 -0.2521 -1.4151 -0.5491
  247SOL    HW2  741   1.059   0.953   2.439 -0.1612  2.2089 -0.7223
  248SOL     OW  742   0.369   2.095   1.801  0.1555  0.5427 -0.0440
  248SOL    HW1  743   0.403   2.092   1.899 -0.9320  1.2883  2.5405
  248SOL    HW2  744   0.423   2.165   1.746 -0.2966  0.7978 -0.9907
  249SOL     OW  745   2.611   0.307   0.487 -0.6046  0.1977  0.1459
  249SOL    HW1  746   2.520   0.320   0.439 -0.8311  3.9815 -2.0884
  249SOL    HW2  747   2.632   0.210   0.505 -2.1573  2.1151  2.5746
  250SOL     OW  748   2.727   0.338   2.825 -0.6600  0.0059 -0.3914
  250SOL    HW1  749   2.709   0.405   2.898  1.2725  3.4522 -1.7384
  250SOL    HW2  750   2.824   0.350   2.794 -0.5881 -0.2693  1.3494
  251SOL     OW  751   1.401   0.842   2.963 -0.1980 -0.7521 -0.4870
  251SOL    HW1  752   1.376   0.921   3.014 -1.2023 -4.1602  0.3946
  251SOL    HW2  753   1.423   0.763   3.024  0.4671 -0.6106  4.1328
  252SOL     OW  754   1.303   2.059   1.914  0.3207  0.1795  0.9335
  252SOL    HW1  755   1.222   2.099   1.866 -2.6634  0.8715 -0.2415
  252SOL    HW2  756   1.286   2.079   2.011  0.4750  0.9483  0.8609
  253SOL     OW  757   2.292   2.503   0.996 -0.2851 -0.5195  0.7421
  253SOL    HW1  758   2.319   2.595   0.996 -1.6152 -2.4965 -0.6021
  253SOL    HW2  759   2.287   2.472   1.091 -1.0047  1.0302  2.9001
  254SOL     OW  760   2.224   1.268   0.644  0.1897 -0.2283 -0.8529
  254SOL    HW1  761   2.146   1.286   0.578 -0.9687 -0.2767 -0.4723
  254SOL    HW2  762   2.191   1.249   0.740  1.4051  3.1155 -1.2131
  255SOL     OW  763   1.498   0.060   1.140  0.2380 -0.3580  0.8088
  255SOL    HW1  764   1.459   3.102   1.069 -0.3457  0.5414 -0.4080
  255SOL    HW2  765   1.522   0.005   1.222  2.4571 -0.6248 -0.5142
  256SOL     OW  766   1.662   2.588   1.531 -0.6878  0.0056 -0.0441
  256SOL    HW1  767   1.630   2.516   1.468  0.3985 -0.8312  1.5339
  256SOL    HW2  768   1.592   2.635   1.584 -0.6771  1.7080 -2.9466
  257SOL     OW  769   0.654   2.757   2.621  0.4076  0.0129 -0.2772
  257SOL    HW1  770   0.701   2.815   2.553 -1.5531 -1.4948 -0.1054
  257SOL    HW2  771   0.713   2.679   2.645  0.1952 -0.8915  1.4489
  258SOL     OW  772   1.109   2.537   0.368  0.0023  0.0085  0.0522
  258SOL    HW1  773   1.041   2.531   0.297  0.0922  0.9723 -0.0663
  258SOL    HW2  774   1.118   2.452   0.428 -0.0652  0.4899  3.5459
  259SOL     OW  775   1.483   0.175   2.844  0.2171 -0.1153 -0.1869
  259SOL    HW1  776   1.513   0.172   2.942 -1.2800 -0.8814 -1.3878
  259SOL    HW2  777   1.530   0.239   2.783  0.0307 -0.8976  1.4506
  260SOL     OW  778   2.560   0.445   1.370 -0.6476 -0.0708  0.2897
  260SOL    HW1  779   2.500   0.476   1.443  2.6959 -3.8102 -1.2489
  260SOL    HW2  780   2.640   0.389   1.407  0.3846 -1.2026  2.5465
  261SOL     OW  781   0.844   0.592   2.602  0.1501  0.4331  0.6733
  261SOL    HW1  782   0.770   0.596   2.671  1.5057  0.1970  1.0217
  261SOL    HW2  783   0.818   0.611   2.506  1.9273  0.3926  1.8898
  262SOL     OW  784   1.058   2.429   2.500 -0.0412  0.2141 -0.1285
  262SOL    HW1  785   0.985   2.360   2.476  1.1244 -3.5828  1.7031
  262SOL    HW2  786   1.080   2.480   2.418 -1.4336 -1.4242  1.7963
  263SOL     OW  787   0.258   1.913   2.862 -0.0142  0.4212  0.3441
  263SOL    HW1  788   0.300   2.003   2.875 -0.9420  0.1986 -1.3855
  263SOL    HW2  789   0.159   1.912   2.880  1.3793 -1.1557 -1.3630
  264SOL     OW  790   1.175   1.597   0.715 -0.5264 -0.4569  0.4304
  264SOL    HW1  791   1.119   1.596   0.801  2.6909 -0.5489  0.7315
  264SOL    HW2  792   1.125   1.622   0.630 -2.4732  1.7563 -0.4745
  265SOL     OW  793   1.166   2.298   0.491  0.5895  0.3676  0.0624
  265SOL    HW1  794   1.187   2.236   0.413 -0.6150  1.1323  1.1849
  265SOL    HW2  795   1.253   2.317   0.540 -0.6180  0.5918  1.1826
  266SOL     OW  796   1.982   0.813   1.058 -1.2457  0.2927  0.2127
  266SOL    HW1  797   1.965   0.716   1.091 -1.1533 -0.4168 -0.0340
  266SOL    HW2  798   2.082   0.836   1.072  1.9195  1.2837  1.1076
  267SOL     OW  799   2.842   1.171   2.608 -1.0929 -0.2576  0.3980
  267SOL    HW1  800   2.841   1.240   2.532  2.0067  1.7107  0.3747
  267SOL    HW2  801   2.753   1.158   2.659  1.9652  0.3431  0.3266
  268SOL     OW  802   1.414   0.048   0.252  0.3429 -0.8821  0.4019
  268SOL    HW1  803   1.450   0.059   0.345 -1.0507 -0.3485  0.7849
  268SOL    HW2  804   1.360   0.132   0.232 -0.5396 -2.3926  0.4427
  269SOL     OW  805   2.659   0.665   2.491 -0.3109  0.1379 -0.3929
  269SOL    HW1  806   2.613   0.583   2.522  1.8902  0.6000  0.1003
  269SOL    HW2  807   2.755   0.652   2.464 -3.6566  0.8354  1.4409
  270SOL     OW  808   2.907   1.457   0.016  0.4645 -0.3779  0.3778
  270SOL    HW1  809   2.948   1.381   0.057 -0.1424  1.5538 -0.7841
  270SOL    HW2  810   2.978   1.527   0.002  0.9013 -0.5784  0.2557
  271SOL     OW  811   2.597   1.102   2.690  0.4120  0.7582  0.4719
  271SOL    HW1  812   2.512   1.156   2.679 -1.3072  2.7252 -0.7357
  271SOL    HW2  813   2.598   1.027   2.762  1.0700 -2.0066  0.4025
  272SOL     OW  814   2.879   2.416   2.351  0.1738  0.8973 -0.2798
  272SOL    HW1  815   2.916   2.337   2.404  0.7441 -3.0803 -0.9472
  272SOL    HW2  816   2.801   2.391   2.289  2.9081 -0.9015 -0.3936
  273SOL     OW  817   0.337   2.815   0.731  0.1959 -0.3351 -0.0841
  273SOL    HW1  818   0.399   2.778   0.806  2.0778 -1.3213  1.5785
  273SOL    HW2  819   0.302   2.743   0.666  0.6135 -2.3983 -1.6228
  274SOL     OW  820   0.720   2.160   0.702 -0.1522 -0.1808 -0.2447
  274SOL    HW1  821   0.815   2.144   0.657 -0.4340 -1.8520  0.8863
  274SOL    HW2  822   0.735   2.200   0.794 -0.3576  0.7005 -1.3463
  275SOL     OW  823   2.518   1.368   0.333  0.1863 -0.0684 -0.2326
  275SOL    HW1  824   2.493   1.312   0.417  0.3073  0.4921  0.8496
  275SOL    HW2  825   2.448   1.359   0.262 -0.3463  1.9972  0.5232
  276SOL     OW  826   2.661   1.777   1.152 -0.4643 -0.1953  0.1151
  276SOL    HW1  827   2.684   1.774   1.249 -0.1209  0.3582 -1.9317
  276SOL    HW2  828   2.602   1.858   1.136  1.6188  1.7788 -1.1410
  277SOL     OW  829   2.815   0.070   0.742  0.2762 -0.1014 -0.6008
  277SOL    HW1  830   2.724   0.061   0.787 -0.9529  2.9280 -0.7335
  277SOL    HW2  831   2.876   3.094   0.770 -1.1815 -1.6226 -1.6139
  278SOL     OW  832   1.578   0.166   2.538 -0.3282 -0.2005 -0.4735
  278SOL    HW1  833   1.492   0.118   2.565  1.2009 -0.0256  0.4949
  278SOL    HW2  834   1.616   0.133   2.450  0.4456 -1.9217 -2.5704
  279SOL     OW  835   1.492   2.767   1.039 -0.2794  0.4484  0.5428
  279SOL    HW1  836   1.586   2.804   1.030  0.9264 -1.5709 -1.3940
  279SOL    HW2  837   1.487   2.684   0.982 -1.2291  1.7900 -3.8087
  280SOL     OW  838   0.882   0.999   0.674 -0.2097 -0.2698  0.6847
  280SOL    HW1  839   0.931   0.997   0.764  2.2531  2.9260 -1.7264
  280SOL    HW2  840   0.930   1.062   0.613 -3.4838 -2.6470  2.1023
  281SOL     OW  841   2.411   1.317   2.606  0.0169  0.1932  0.0111
  281SOL    HW1  842   2.451   1.408   2.647  2.2897  1.0237  1.3377
  281SOL    HW2  843   2.453   1.299   2.512 -0.7957  0.4044 -0.1211
  282SOL     OW  844   2.993   1.259   0.187 -0.1127 -0.9306  0.2741
  282SOL    HW1  845   2.909   1.251   0.250 -1.9803 -2.0047  2.2253
  282SOL    HW2  846   3.069   1.306   0.236  0.1952  3.4129 -2.1974
  283SOL     OW  847   1.778   2.660   2.675 -0.3584  0.1700  0.1911
  283SOL    HW1  848   1.763   2.669   2.573  0.0817 -1.0180  1.6245
  283SOL    HW2  849   1.705   2.601   2.717 -2.4318 -0.3378  0.8796
  284SOL     OW  850   0.896   0.051   0.028 -0.0632 -0.2698  0.7159
  284SOL    HW1  851   0.932   3.062   0.057  0.3803 -2.7975 -0.7550
  284SOL    HW2  852   0.813   0.079   0.080 -3.0468  1.3040  0.9637
  285SOL     OW  853   2.315   1.576   2.462  0.3337 -0.1766  0.6510
  285SOL    HW1  854   2.256   1.505   2.424  1.5535 -0.1051 -3.1714
  285SOL    HW2  855   2.296   1.599   2.558  0.3820  0.9869  0.1126
  286SOL     OW  856   1.380   2.135   0.756 -0.2746  0.5506 -0.1756
  286SOL    HW1  857   1.342   2.043   0.733  1.0306  2.3669  2.0729
  286SOL    HW2  858   1.461   2.126   0.821  0.8181  1.3546 -0.4193
  287SOL     OW  859   1.930   0.235   1.034 -0.1276  0.1756 -0.2150
  287SOL    HW1  860   2.005   0.267   1.095  2.4805  2.6628  2.2646
  287SOL    HW2  861   1.925   0.133   1.021  0.1468 -1.5329 -0.0457
  288SOL     OW  862   0.783   2.843   2.400 -0.3068  0.2579  0.0148
  288SOL    HW1  863   0.868   2.804   2.445 -0.5921 -0.2269 -0.1687
  288SOL    HW2  864   0.766   2.787   2.313  1.4897  0.6884 -1.0171
  289SOL     OW  865   0.092   1.319   0.608  0.1578  0.3803  0.0169
  289SOL    HW1  866   0.097   1.377   0.695  0.7538  0.5684  1.2037
  289SOL    HW2  867   0.024   1.246   0.621  1.2134  0.1769 -1.1476
  290SOL     OW  868   1.197   2.262   1.035 -0.1747 -0.2684 -0.3149
  290SOL    HW1  869   1.281   2.286   0.986  0.3982  1.1807 -2.0801
  290SOL    HW2  870   1.151   2.192   0.985 -1.6267 -1.6479 -1.2900
  291SOL     OW  871   1.735   2.853   0.445  0.4729  0.0516 -0.3715
  291SOL    HW1  872   1.677   2.779   0.490 -2.3667 -0.2092 -0.5387
  291SOL    HW2  873   1.824   2.812   0.412  1.6011  1.4535  0.8670
  292SOL     OW  874   0.673   0.096   2.286  0.2691 -0.0130  0.7781
  292SOL    HW1  875   0.707   0.184   2.316 -0.1516 -3.1596 -3.4702
  292SOL    HW2  876   0.606   0.058   2.352 -0.4137  1.0809  0.8518
  293SOL     OW  877   2.344   1.989   0.873  0.0333 -0.0806 -0.1244
  293SOL    HW1  878   2.385   1.896   0.882 -0.7707  0.0707  0.6033
  293SOL    HW2  879   2.339   2.034   0.968 -0.2102  2.6002  4.6572
  294SOL     OW  880   0.831   0.119   2.062 -0.4230 -0.2316  0.1807
  294SOL    HW1  881   0.888   0.035   2.079 -0.2657  0.2028  1.4007
  294SOL    HW2  882   0.758   0.116   2.129  2.0779 -0.1034 -2.2970
  295SOL     OW  883   1.350   1.523   1.024 -0.2880 -0.2465  0.1700
  295SOL    HW1  884   1.426   1.485   1.077  1.6164  0.2779 -0.7223
  295SOL    HW2  885   1.280   1.447   1.036 -0.2504 -1.3796  2.0892
  296SOL     OW  886   2.177   1.976   0.662 -0.5418  0.1963 -0.8224
  296SOL    HW1  887   2.244   1.970   0.741  1.5138 -1.7558  3.2047
  296SOL    HW2  888   2.122   2.060   0.667  0.4776 -0.3757  0.2374
  297SOL     OW  889   2.433   3.091   2.969  0.0161  0.1284  0.1940
  297SOL    HW1  890   2.390   3.034   2.895 -0.7885 -0.4255 -0.6725
  297SOL    HW2  891   2.467   3.039   3.053  1.4765 -3.1033  2.8101
  298SOL     OW  892   1.196   0.317   2.597  0.3575 -0.7431  0.1688
  298SOL    HW1  893   1.126   0.332   2.664  0.8871  1.2005 -0.5552
  298SOL    HW2  894   1.229   0.222   2.612  0.6066  1.4685  1.3499
  299SOL     OW  895   1.171   2.845   1.882 -0.6771 -0.2799 -0.0442
  299SOL    HW1  896   1.158   2.890   1.794 -0.6374 -0.8928  1.6464
  299SOL    HW2  897   1.196   2.917   1.953  0.9894  0.4220  1.4406
  300SOL     OW  898   2.589   3.024   1.981 -0.4753 -0.4476  0.1641
  300SOL    HW1  899   2.627   3.024   2.076  0.1968  1.4505 -1.2488
  300SOL    HW2  900   2.587   0.013   1.939 -0.4437 -2.4985  1.2619
  301SOL     OW  901   2.241   0.456   1.850 -0.2808  0.0708  0.0029
  301SOL    HW1  902   2.250   0.442   1.950  0.7500 -2.4649  2.5322
  301SOL    HW2  903   2.165   0.403   1.809  1.4427 -0.7242  0.4527
  302SOL     OW  904   0.268   2.445   0.032 -0.1756 -0.0749  0.7862
  302SOL    HW1  905   0.209   2.370   0.004 -1.1195  1.1897 -2.9991
  302SOL    HW2  906   0.212   2.528   0.057 -0.0836 -0.3534  1.7613
  303SOL     OW  907   1.638   2.242   1.497  0.4197  0.0103  0.2996
  303SOL    HW1  908   1.598   2.153   1.470 -0.8513  1.2726  0.9253
  303SOL    HW2  909   1.689   2.222   1.581 -0.2927  1.0973 -1.2958
  304SOL     OW  910   2.959   0.922   1.375  0.2732 -0.6946  0.1507
  304SOL    HW1  911   2.891   0.854   1.355  0.1118  1.4592  1.0882
  304SOL    HW2  912   2.929   1.021   1.369  0.7383  2.0307 -2.2037
  305SOL     OW  913   0.657   0.873   0.737  0.5022 -0.0893  0.0501
  305SOL    HW1  914   0.702   0.787   0.775  2.5563 -3.4025  1.4360
  305SOL    HW2  915   0.724   0.939   0.698  0.9022  0.9428 -2.6436
  306SOL     OW  916   0.296   1.071   2.836  0.6625 -0.6549 -0.8115
  306SOL    HW1  917   0.392   1.040   2.814  1.0142 -0.0136  1.9258
  306SOL    HW2  918   0.263   1.017   2.916  1.0424  1.4740 -1.4331
  307SOL     OW  919   1.315   0.265   1.438 -0.4351  0.2694 -0.1075
  307SOL    HW1  920   1.378   0.329   1.483 -0.8793 -0.2196 -2.1519
  307SOL    HW2  921   1.296   0.188   1.501  0.7389  0.3114  0.4582
  308SOL     OW  922   0.437   0.982   1.119  0.0689  0.1564 -0.1304
  308SOL    HW1  923   0.436   0.924   1.033  0.4672  0.3651  0.2267
  308SOL    HW2  924   0.417   0.921   1.200  3.0607 -1.8088  0.4904
  309SOL     OW  925   2.522   0.818   0.971  0.5033 -0.0054 -0.0923
  309SOL    HW1  926   2.567   0.727   0.983  0.7482 -1.0524 -2.8062
  309SOL    HW2  927   2.544   0.863   0.884  0.4931 -2.1385 -0.4478
  310SOL     OW  928   0.730   1.540   2.914  0.1418 -0.0275  0.5514
  310SOL    HW1  929   0.790   1.517   2.997 -1.2145  2.4006 -0.3274
  310SOL    HW2  930   0.631   1.518   2.925  1.3032 -0.1099 -0.8167
  311SOL     OW  931   2.397   2.752   2.467  0.0252  0.1375  0.0532
  311SOL    HW1  932   2.447   2.698   2.392  1.7136  1.7539 -0.6133
  311SOL    HW2  933   2.452   2.789   2.544 -0.0197  0.3826  1.4931
  312SOL     OW  934   1.924   2.178   0.024 -0.2307 -0.4056  0.5153
  312SOL    HW1  935   1.928   2.166   3.025 -1.5890 -0.6482  0.7352
  312SOL    HW2  936   1.990   2.251   0.046 -0.3784  0.2662  0.0630
  313SOL     OW  937   0.669   0.087   0.171 -0.7523  0.3808 -0.2291
  313SOL    HW1  938   0.580   0.035   0.172 -0.7019 -0.7421 -2.7034
  313SOL    HW2  939   0.653   0.171   0.116  1.9892 -1.7862 -0.9808
  314SOL     OW  940   2.210   1.205   2.782 -0.1525 -0.4502 -0.1429
  314SOL    HW1  941   2.225   1.102   2.782 -1.0988  0.8537 -0.5334
  314SOL    HW2  942   2.272   1.251   2.706  0.3139  1.0544 -1.4141
  315SOL     OW  943   1.688   0.386   2.663  0.0423 -0.4644  0.7043
  315SOL    HW1  944   1.650   0.327   2.593  0.4067  1.4893  0.0555
  315SOL    HW2  945   1.631   0.472   2.670  0.3775 -0.5176 -1.4103
  316SOL     OW  946   3.047   1.062   0.631  0.1527  0.2565  0.7654
  316SOL    HW1  947   3.008   1.029   0.721  1.6392  0.2827  1.6713
  316SOL    HW2  948   2.997   1.025   0.550  1.9060 -0.3261 -1.8172
  317SOL     OW  949   0.549   2.758   0.136  0.0873  0.2196 -0.2776
  317SOL    HW1  950   0.541   2.706   0.053  0.0587  0.4148 -0.7326
  317SOL    HW2  951   0.517   2.856   0.126 -3.1335  1.7150  1.0865
  318SOL     OW  952   2.344   2.771   1.022 -0.2264 -0.0149 -0.0048
  318SOL    HW1  953   2.278   2.790   1.093 -0.5614  0.8379 -4.9382
  318SOL    HW2  954   2.438   2.805   1.045 -0.3318  0.0156 -1.2822
  319SOL     OW  955   1.221   1.417   2.698 -0.0524 -0.0252 -0.5251
  319SOL    HW1  956   1.124   1.435   2.726  0.8864  1.2893 -0.7683
  319SOL    HW2  957   1.226   1.424   2.594  0.4800 -0.6290  1.3374
  320SOL     OW  958   0.556   1.902   0.940 -0.1142  0.2382 -0.1240
  320SOL    HW1  959   0.503   1.852   0.861  0.2372 -2.1408  0.7043
  320SOL    HW2  960   0.510   1.991   0.961  0.6127 -1.3573 -2.1217
  321SOL     OW  961   1.364   2.683   2.276 -0.2942 -0.3121 -0.0646
  321SOL    HW1  962   1.447   2.629   2.294  3.0574 -0.3990 -1.5119
  321SOL    HW2  963   1.382   2.785   2.284 -2.8364  1.0844 -0.4466
  322SOL     OW  964   2.332   1.927   2.533 -0.4669  0.2477 -0.2501
  322SOL    HW1  965   2.261   1.883   2.472 -0.4535 -0.0724  0.1322
  322SOL    HW2  966   2.333   2.026   2.512  0.6048  0.1529 -0.5036
  323SOL     OW  967   2.929   0.314   0.749  0.7024 -0.2542  0.1188
  323SOL    HW1  968   2.891   0.223   0.764  0.1449 -0.9543 -0.6050
  323SOL    HW2  969   2.884   0.347   0.659  0.0789  2.7348 -3.0090
  324SOL     OW  970   2.934   2.643   2.523  0.1356  0.3142  0.9562
  324SOL    HW1  971   3.026   2.656   2.565 -1.4112 -0.2598  0.5171
  324SOL    HW2  972   2.923   2.549   2.480  0.1543 -0.2010  0.6968
  325SOL     OW  973   1.063   0.740   2.662  0.1471 -0.2867  0.2492
  325SOL    HW1  974   1.149   0.681   2.678 -0.1538  1.3755 -1.2029
  325SOL    HW2  975   0.980   0.683   2.639 -2.4964 -1.5613 -0.5237
  326SOL     OW  976   2.422   2.367   1.517  0.1368 -0.3434 -0.3444
  326SOL    HW1  977   2.418   2.464   1.489 -0.5878  1.2954  1.4807
  326SOL    HW2  978   2.509   2.344   1.564  0.1215  1.7311 -2.1721
  327SOL     OW  979   2.462   2.980   0.114 -0.2020  0.2033  0.2786
  327SOL    HW1  980   2.400   3.039   0.167  0.3076  0.8285 -1.8391
  327SOL    HW2  981   2.428   2.886   0.101  0.0350  3.4166  0.5031
  328SOL     OW  982   0.258   0.983   1.554  0.5868 -0.3023  0.1609
  328SOL    HW1  983   0.299   0.922   1.483  0.1612  0.1818  0.7048
  328SOL    HW2  984   0.300   1.078   1.548  0.1429  0.1337 -0.3383
  329SOL     OW  985   2.149   0.645   1.484  0.1673 -0.4544 -0.1370
  329SOL    HW1  986   2.184   0.646   1.581 -1.4869  0.4913  2.3312
  329SOL    HW2  987   2.092   0.566   1.472  0.8995  2.4181  0.7476
  330SOL     OW  988   0.355   0.886   0.871 -0.1431  0.0354  0.3774
  330SOL    HW1  989   0.327   0.940   0.790  1.4268 -0.8236  3.1752
  330SOL    HW2  990   0.338   0.788   0.855 -0.7159  0.2146 -1.6099
  331SOL     OW  991   0.392   1.403   1.921 -0.2590  0.2648  0.4725
  331SOL    HW1  992   0.486   1.369   1.924  1.2672 -0.9803 -0.5143
  331SOL    HW2  993   0.373   1.465   1.844 -0.2995  0.8265 -1.0314
  332SOL     OW  994   0.124   2.434   1.550  0.5932  0.0438  0.3211
  332SOL    HW1  995   0.056   2.494   1.501 -1.2759 -0.9852 -2.7102
  332SOL    HW2  996   0.093   2.419   1.648  0.9321 -1.4672 -0.5915
  333SOL     OW  997   2.969   2.992   0.879  0.3256  0.0696  0.6511
  333SOL    HW1  998   3.062   3.027   0.854 -0.4778  0.4277  0.5653
  333SOL    HW2  999   2.964   2.892   0.880 -0.2486  1.5996 -1.1879
  334SOL     OW 1000   0.381   1.269   0.616  0.2893  0.0324 -0.3109
  334SOL    HW1 1001   0.283   1.303   0.612 -1.1981  3.2772 -1.2828
  334SOL    HW2 1002   0.436   1.332   0.677  2.0426  2.5081  2.1353
  335SOL     OW 1003   0.513   2.538   3.054  0.5218  0.3483 -0.2972
  335SOL    HW1 1004   0.427   2.493   3.089 -2.0680  1.1278 -0.6371
  335SOL    HW2 1005   0.509   2.574   2.960  0.0417  0.5577  0.9477
  336SOL     OW 1006   3.066   2.551   2.226  0.0917 -0.4345 -0.1751
  336SOL    HW1 1007   0.021   2.469   2.213  0.6548 -0.3971 -0.0922
  336SOL    HW2 1008   2.982   2.518   2.272  2.3806  1.2367  1.8509
  337SOL     OW 1009   1.579   2.213   1.886  0.2764 -0.3502  0.6100
  337SOL    HW1 1010   1.549   2.308   1.904 -0.6658 -3.2675 -1.9649
  337SOL    HW2 1011   1.508   2.145   1.895  3.1874 -1.6392  0.6780
  338SOL     OW 1012   0.948   0.385   2.728 -0.6261  0.1473  0.1251
  338SOL    HW1 1013   0.908   0.460   2.666  1.4751 -0.4327  1.4372
  338SOL    HW2 1014   0.908   0.292   2.697 -1.0715  0.6070  0.2590
  339SOL     OW 1015   0.395   1.051   2.261 -0.4709  0.5847  0.3355
  339SOL    HW1 1016   0.411   1.072   2.164  0.9605  0.4494  2.7988
  339SOL    HW2 1017   0.477   1.059   2.316 -0.8768  0.9020  1.5927
  340SOL     OW 1018   2.043   0.310   0.757  0.1334 -0.0247  0.2680
  340SOL    HW1 1019   2.108   0.248   0.809  2.3214 -2.1387 -1.1279
  340SOL    HW2 1020   2.005   0.389   0.813 -0.2886  0.4574 -0.4629
  341SOL     OW 1021   2.129   1.195   0.885  0.2781 -0.2019 -0.5720
  341SOL    HW1 1022   2.043   1.240   0.914  1.8345 -2.4568 -3.9057
  341SOL    HW2 1023   2.185   1.188   0.972 -0.6782 -1.4227  1.3646
  342SOL     OW 1024   2.216   2.700   2.870  0.2227 -0.5176  0.7732
  342SOL    HW1 1025   2.300   2.642   2.851 -2.6459  0.4440  2.3183
  342SOL    HW2 1026   2.141   2.641   2.835  1.2986 -0.3567  2.4474
  343SOL     OW 1027   0.914   2.355   1.670 -0.3352 -0.2654 -0.1663
  343SOL    HW1 1028   0.935   2.453   1.661 -0.1215 -0.6420 -1.4080
  343SOL    HW2 1029   0.835   2.334   1.608  0.6439  2.5356  0.4112
  344SOL     OW 1030   2.372   2.626   1.487  0.0358 -0.8592  0.0772
  344SOL    HW1 1031   2.378   2.639   1.591 -1.3805 -0.0619 -0.2505
  344SOL    HW2 1032   2.416   2.707   1.442  0.6713 -0.1326 -3.0729
  345SOL     OW 1033   2.489   2.056   0.062 -0.0244  0.4352  0.3817
  345SOL    HW1 1034   2.465   1.958   0.040 -2.2125 -0.2520  1.1435
  345SOL    HW2 1035   2.426   2.081   0.139  2.6712 -0.4808 -2.2154
  346SOL     OW 1036   1.622   2.427   1.282 -0.5825  0.0526 -0.2471
  346SOL    HW1 1037   1.696   2.423   1.207 -0.3624  1.0012 -1.2386
  346SOL    HW2 1038   1.622   2.343   1.342  0.1591  0.2676 -1.4112
  347SOL     OW 1039   1.293   1.781   1.620  0.1588 -0.8504 -0.0348
  347SOL    HW1 1040   1.259   1.873   1.591 -0.8678  0.5684  0.7406
  347SOL    HW2 1041   1.237   1.753   1.699 -0.6544 -0.5596  0.1771
  348SOL     OW 1042   0.468   2.036   2.047 -0.2439  0.3287 -0.5770
  348SOL    HW1 1043   0.445   2.052   2.145  0.4193  1.0894  4.2570
  348SOL    HW2 1044   0.465   1.939   2.022 -0.5853 -1.3462 -0.1467
  349SOL     OW 1045   1.833   1.591   1.368 -0.2714 -0.5810  0.5285
  349SOL    HW1 1046   1.807   1.519   1.436 -0.1647 -2.2159 -3.1572
  349SOL    HW2 1047   1.871   1.679   1.410  0.6218  1.0955 -1.1178
  350SOL     OW 1048   2.330   2.298   0.452  0.6532 -0.2184  0.3546
  350SOL    HW1 1049   2.394   2.359   0.398 -0.4717  1.0861 -0.5598
  350SOL    HW2 1050   2.379   2.227   0.495  1.3412  2.7472 -0.9725
  351SOL     OW 1051   0.902   3.067   1.541  0.0697  0.2460  0.3210
  351SOL    HW1 1052   0.868   0.059   1.551 -1.7911 -0.6837  0.1343
  351SOL    HW2 1053   0.921   3.040   1.448 -0.6485 -1.5069  1.2584
  352SOL     OW 1054   0.201   1.357   0.947 -1.0290 -0.0617  0.0656
  352SOL    HW1 1055   0.284   1.295   0.929  0.9399 -2.0686 -2.3378
  352SOL    HW2 1056   0.230   1.448   0.970  0.3484 -1.3771 -2.5143
  353SOL     OW 1057   1.095   1.533   2.031 -0.4463 -0.1583 -0.5703
  353SOL    HW1 1058   1.175   1.474   2.009  0.5647  2.2886  1.7356
  353SOL    HW2 1059   1.100   1.579   2.123 -0.7611  1.0690  0.5878
  354SOL     OW 1060   1.722   2.828   2.086 -0.1978  0.0655  0.4759
  354SOL    HW1 1061   1.705   2.919   2.129 -1.5141 -1.5568  1.4317
  354SOL    HW2 1062   1.637   2.802   2.033 -1.1025 -0.1003 -0.6966
  355SOL     OW 1063   2.309   1.330   0.154 -0.4070 -0.6803  0.0410
  355SOL    HW1 1064   2.300   1.232   0.182 -0.3160 -0.6912 -0.1469
  355SOL    HW2 1065   2.322   1.329   0.053 -0.0624  0.2723 -3.2353
  356SOL     OW 1066   0.007   1.845   1.516  0.1391  0.6490 -0.1480
  356SOL    HW1 1067   0.025   1.804   1.608  3.1489 -1.9854 -1.3757
  356SOL    HW2 1068   0.090   1.844   1.462 -1.1910 -1.5404 -0.5936
  357SOL     OW 1069   0.460   2.736   1.450  0.0076 -0.0218 -0.1166
  357SOL    HW1 1070   0.430   2.644   1.423 -2.8835 -1.2155 -2.8737
  357SOL    HW2 1071   0.381   2.803   1.448  0.2895 -0.3217 -2.0277
  358SOL     OW 1072   2.689   1.721   1.415  0.8354 -0.2069 -0.1177
  358SOL    HW1 1073   2.650   1.719   1.509 -0.6537  1.7250 -3.6044
  358SOL    HW2 1074   2.777   1.674   1.411 -0.2514  1.6225 -1.4637
  359SOL     OW 1075   2.312   2.960   2.773 -0.2059  0.3424 -0.0205
  359SOL    HW1 1076   2.268   2.964   2.683  0.2158 -1.9097 -0.0095
  359SOL    HW2 1077   2.272   2.877   2.819 -0.2225  2.6770  0.3833
  360SOL     OW 1078   1.239   3.073   0.976 -0.2797  0.4399  0.1389
  360SOL    HW1 1079   1.188   0.045   0.932  3.6251 -2.4798  2.4332
  360SOL    HW2 1080   1.201   2.981   0.934  2.6146  0.5440  1.3859
  361SOL     OW 1081   2.144   0.464   0.345 -0.1053  0.0798  0.5513
  361SOL    HW1 1082   2.074   0.416   0.403 -0.3531 -0.0333  3.0715
  361SOL    HW2 1083   2.198   0.522   0.407 -3.6051  1.2213 -0.8942
  362SOL     OW 1084   1.771   1.132   0.965 -0.5089 -0.2745 -0.1146
  362SOL    HW1 1085   1.842   1.195   0.997 -0.0147 -1.9653 -2.4761
  362SOL    HW2 1086   1.697   1.179   0.909  1.7427  0.6681  2.4152
  363SOL     OW 1087   2.336   1.071   2.127 -0.5778 -0.3103  0.4583
  363SOL    HW1 1088   2.257   1.020   2.164  1.4153 -1.8310  2.6481
  363SOL    HW2 1089   2.337   1.076   2.031 -0.3780 -1.6942 -0.6445
  364SOL     OW 1090   0.474   0.360   1.294 -0.3048  0.5972 -0.4982
  364SOL    HW1 1091   0.456   0.394   1.203  1.2851 -2.5942  3.5982
  364SOL    HW2 1092   0.391   0.306   1.322 -1.1021 -1.1383  0.5164
  365SOL     OW 1093   0.629   0.091   2.873 -0.1499  0.0158 -0.1038
  365SOL    HW1 1094   0.591   0.012   2.820  0.5907 -1.1345 -0.9861
  365SOL    HW2 1095   0.727   0.098   2.841  0.2215  2.1329 -0.3800
  366SOL     OW 1096   1.964   2.519   2.831 -0.6110  0.8344 -0.4700
  366SOL    HW1 1097   1.866   2.519   2.812  1.6661  1.2211  1.1903
  366SOL    HW2 1098   1.994   2.423   2.834 -1.9841  0.6028 -0.5331
  367SOL     OW 1099   2.989   2.588   0.196 -0.0694  0.2779 -0.4285
  367SOL    HW1 1100   2.905   2.635   0.170 -0.4788  2.8010 -0.9896
  367SOL    HW2 1101   2.999   2.587   0.297 -0.7804 -1.3400  0.8050
  368SOL     OW 1102   2.948   1.303   1.239 -0.9387  0.1247 -0.2212
  368SOL    HW1 1103   2.856   1.282   1.201 -0.0597 -3.8318  0.0470
  368SOL    HW2 1104   3.015   1.248   1.182 -1.7398  0.0591  0.4910
  369SOL     OW 1105   0.882   0.131   2.726  0.3408  0.4879 -0.3195
  369SOL    HW1 1106   0.845   0.066   2.653 -0.2014  0.4197  0.7720
  369SOL    HW2 1107   0.952   0.092   2.789 -0.8167  1.0682 -0.9123
  370SOL     OW 1108   2.856   0.420   0.499  0.2311  0.7255 -0.5760
  370SOL    HW1 1109   2.757   0.395   0.489 -0.9267 -0.4307 -2.5417
  370SOL    HW2 1110   2.922   0.390   0.429  0.1599 -0.1964 -0.5349
  371SOL     OW 1111   1.537   2.164   1.032 -0.2793  0.1038  0.4698
  371SOL    HW1 1112   1.599   2.154   1.115  0.1782 -1.9297  2.3354
  371SOL    HW2 1113   1.555   2.255   0.997  2.6434  0.1663  1.7206
  372SOL     OW 1114   3.023   0.680   2.680 -0.3271  0.1712 -0.0445
  372SOL    HW1 1115   3.004   0.683   2.581  0.6367 -1.5267  1.3507
  372SOL    HW2 1116   2.986   0.767   2.714 -1.3710 -3.5268 -0.3297
  373SOL     OW 1117   2.872   1.587   1.057  0.5970  0.0050 -0.0791
  373SOL    HW1 1118   2.810   1.658   1.019 -0.6601 -0.1522  0.4629
  373SOL    HW2 1119   2.845   1.560   1.148  0.2345 -0.3727 -4.5295
  374SOL     OW 1120   0.860   2.702   2.946 -0.0574  0.1505  0.8427
  374SOL    HW1 1121   0.815   2.791   2.962 -1.8997  2.1953  1.8173
  374SOL    HW2 1122   0.926   2.704   2.871  2.1667  1.3358  2.1295
  375SOL     OW 1123   3.048   2.947   0.084 -0.1330  0.3755 -0.3444
  375SOL    HW1 1124   0.003   3.017   0.133  2.0497 -2.5562  2.3399
  375SOL    HW2 1125   3.088   2.852   0.080  0.5771 -1.8686 -0.1069
  376SOL     OW 1126   2.984   2.204   1.576 -0.1936  0.0599  0.4129
  376SOL    HW1 1127   3.080   2.209   1.613  1.1496 -0.8821  1.2733
  376SOL    HW2 1128   2.939   2.115   1.596 -0.4298  1.0485  2.1450
  377SOL     OW 1129   1.685   2.195   2.444  0.2308 -0.4561  1.1035
  377SOL    HW1 1130   1.646   2.107   2.413  1.0587  0.2592  0.3639
  377SOL    HW2 1131   1.692   2.252   2.360 -0.7504 -1.8577 -2.3745
  378SOL     OW 1132   0.525   0.314   2.826  0.3283 -0.2365  0.1552
  378SOL    HW1 1133   0.583   0.396   2.814 -0.0053 -2.4034  2.5070
  378SOL    HW2 1134   0.568   0.222   2.837 -3.3821 -1.9650  1.1286
  379SOL     OW 1135   0.613   0.658   0.426  0.2518  0.3486 -0.0746
  379SOL    HW1 1136   0.537   0.689   0.488 -0.4826 -1.0465  1.3184
  379SOL    HW2 1137   0.703   0.682   0.463 -2.1729  0.8964  1.6431
  380SOL     OW 1138   0.072   1.778   1.914  0.1208 -0.1042 -0.0395
  380SOL    HW1 1139   0.031   1.703   1.863  0.4351 -0.0882  0.1092
  380SOL    HW2 1140   0.137   1.747   1.986  0.4232  0.1725  2.5199
  381SOL     OW 1141   0.219   0.900   1.987  0.0464 -0.2211 -0.0024
  381SOL    HW1 1142   0.196   0.804   1.965  0.9283  1.7907 -0.4032
  381SOL    HW2 1143   0.178   0.960   1.917 -0.1971  0.1742 -0.0385
  382SOL     OW 1144   2.182   1.889   0.417  0.0322 -0.0500  0.4058
  382SOL    HW1 1145   2.100   1.828   0.407 -2.3528 -0.6282 -0.5897
  382SOL    HW2 1146   2.193   1.931   0.511 -0.4785 -0.3571  2.2402
  383SOL     OW 1147   3.086   1.926   2.898 -0.3285  0.0611  0.0962
  383SOL    HW1 1148   3.059   1.995   2.964 -1.6964 -2.9567 -1.9998
  383SOL    HW2 1149   3.050   1.947   2.804 -0.4287 -3.3393 -1.6435
  384SOL     OW 1150   0.685   2.260   2.662  0.1237 -0.2058 -0.3480
  384SOL    HW1 1151   0.662   2.223   2.758 -1.5381  1.1442  3.6598
  384SOL    HW2 1152   0.621   2.332   2.637  0.3545 -2.7188  0.4084
  385SOL     OW 1153   2.613   1.686   0.639  0.1325  0.2053  0.2450
  385SOL    HW1 1154   2.632   1.618   0.571 -0.5462  1.7603 -0.6199
  385SOL    HW2 1155   2.531   1.735   0.612 -0.0872 -0.5513  1.6869
  386SOL     OW 1156   2.213   1.499   1.559  0.0574 -0.0493  0.0614
  386SOL    HW1 1157   2.241   1.470   1.467  1.9636 -3.7987  3.7070
  386SOL    HW2 1158   2.185   1.596   1.566  1.3305  0.8433  0.3765
  387SOL     OW 1159   2.579   1.218   2.043 -0.3214  0.8361 -0.4854
  387SOL    HW1 1160   2.499   1.284   2.034 -0.2498  3.9182  1.2060
  387SOL    HW2 1161   2.641   1.244   2.119  1.5655 -1.0323  1.4836
  388SOL     OW 1162   2.739   1.469   1.941 -0.0448  0.1301  0.1908
  388SOL    HW1 1163   2.667   1.404   1.978  0.7239  2.5233  0.5695
  388SOL    HW2 1164   2.830   1.448   1.982  0.8585  0.7550 -1.7738
  389SOL     OW 1165   1.959   1.150   1.907 -0.0026  0.3421  0.0722
  389SOL    HW1 1166   2.033   1.214   1.888 -0.2493  0.4184  0.3109
  389SOL    HW2 1167   1.885   1.185   1.970 -0.8341  1.5177  0.7167
  390SOL     OW 1168   1.870   0.118   0.648 -0.2377  0.0449 -0.1330
  390SOL    HW1 1169   1.942   0.182   0.691  0.1982  0.3634 -2.7088
  390SOL    HW2 1170   1.828   0.162   0.568 -0.2618 -1.7685  2.8028
  391SOL     OW 1171   2.223   1.813   1.309 -0.2371 -0.7018 -0.1967
  391SOL    HW1 1172   2.299   1.831   1.374  1.1244 -1.6034  0.4170
  391SOL    HW2 1173   2.129   1.809   1.355  1.5404 -0.2853  1.3711
  392SOL     OW 1174   2.478   2.736   0.774 -0.1476 -0.1805  0.1174
  392SOL    HW1 1175   2.414   2.768   0.845 -0.1283  0.0510  0.8956
  392SOL    HW2 1176   2.547   2.669   0.810 -0.2256  2.4077  1.0119
  393SOL     OW 1177   1.529   1.763   2.792  0.0348  0.4817 -0.4212
  393SOL    HW1 1178   1.568   1.667   2.805  1.3967  1.4792  1.1210
  393SOL    HW2 1179   1.549   1.794   2.699  0.6265 -0.8964  2.0944
  394SOL     OW 1180   0.230   0.027   2.768  0.1039 -0.2565 -0.0789
  394SOL    HW1 1181   0.144   0.072   2.732 -1.4776  0.1207  0.0590
  394SOL    HW2 1182   0.213   3.029   2.765 -2.9235 -1.3059  1.3998
  395SOL     OW 1183   0.787   0.662   0.832  0.2154  0.0799  0.2260
  395SOL    HW1 1184   0.763   0.574   0.872 -1.3896  2.3015 -1.2914
  395SOL    HW2 1185   0.890   0.678   0.850  2.0566 -0.7837 -0.5712
  396SOL     OW 1186   1.425   0.948   0.635 -0.2908 -0.0905  0.0901
  396SOL    HW1 1187   1.505   0.947   0.568  2.0115 -1.3482  0.5385
  396SOL    HW2 1188   1.344   0.893   0.601 -2.2097  0.4654  3.6114
  397SOL     OW 1189   0.541   0.600   2.180 -0.2020 -0.4111  0.9860
  397SOL    HW1 1190   0.463   0.533   2.171  2.1214  1.2730  0.3141
  397SOL    HW2 1191   0.523   0.685   2.135 -0.4869 -2.1214  1.5536
  398SOL     OW 1192   1.125   0.187   0.415  0.6172 -0.2246 -0.5382
  398SOL    HW1 1193   1.072   0.275   0.434 -1.0307  3.5598 -1.1345
  398SOL    HW2 1194   1.177   0.191   0.329 -1.1642 -1.2962 -1.2382
  399SOL     OW 1195   2.023   2.754   1.673  0.6521 -0.2243 -0.5514
  399SOL    HW1 1196   1.956   2.809   1.725  1.6986  1.1611 -1.4008
  399SOL    HW2 1197   1.977   2.669   1.636  1.3159 -1.3849  1.4880
  400SOL     OW 1198   0.908   1.775   2.025  0.1641 -0.1793 -0.1929
  400SOL    HW1 1199   0.885   1.810   2.117  3.0046  5.3468  0.6493
  400SOL    HW2 1200   0.987   1.711   2.025 -0.9148 -0.6396 -1.1213
  401SOL     OW 1201   0.586   1.267   2.765  0.1606  0.3569  0.2719
  401SOL    HW1 1202   0.555   1.306   2.853  1.3656 -0.8260 -0.7210
  401SOL    HW2 1203   0.579   1.166   2.766  1.7986  0.3345 -0.5358
  402SOL     OW 1204   2.828   2.002   0.986 -0.0863  0.0544 -0.1216
  402SOL    HW1 1205   2.821   1.912   0.935 -0.5456 -2.1303 -1.5549
  402SOL    HW2 1206   2.851   1.978   1.081 -2.7896  0.3638 -1.9506
  403SOL     OW 1207   0.214   0.838   2.332 -0.0734  0.3262  0.1440
  403SOL    HW1 1208   0.125   0.814   2.292 -1.2073  1.2081 -0.9821
  403SOL    HW2 1209   0.265   0.910   2.287 -0.9080 -2.4386 -2.7949
  404SOL     OW 1210   0.216   2.375   1.961  0.1062 -0.2271 -0.0947
  404SOL    HW1 1211   0.185   2.309   1.883  0.7242  0.9022 -1.6227
  404SOL    HW2 1212   0.274   2.456   1.925 -0.1735  1.8859 -1.1891
  405SOL     OW 1213   0.271   0.240   2.045  0.6265  0.4120  0.3884
  405SOL    HW1 1214   0.332   0.268   1.966  0.2155 -2.0313 -2.6563
  405SOL    HW2 1215   0.250   0.142   2.049  2.5024  1.4200 -3.0243
  406SOL     OW 1216   1.535   1.512   2.396  0.1481 -0.4270  0.2220
  406SOL    HW1 1217   1.599   1.466   2.460 -0.4970 -1.6199  2.5082
  406SOL    HW2 1218   1.568   1.606   2.369  0.7644  0.5149  0.7519
  407SOL     OW 1219   1.195   1.160   2.281  0.3653 -0.4731  0.3330
  407SOL    HW1 1220   1.144   1.126   2.203  2.4649 -0.3128  2.9709
  407SOL    HW2 1221   1.296   1.129   2.271  4.0087 -1.3543 -2.2353
  408SOL     OW 1222   0.782   3.070   2.524  0.2817 -0.2842  0.8428
  408SOL    HW1 1223   0.743   0.038   2.461  1.8850  0.8415  2.3947
  408SOL    HW2 1224   0.782   2.980   2.479 -1.5547  1.5379  0.1913
  409SOL     OW 1225   0.213   1.598   0.717 -0.1501 -0.2917  0.2012
  409SOL    HW1 1226   0.111   1.592   0.726  0.2693 -0.5858  1.3885
  409SOL    HW2 1227   0.235   1.577   0.617  0.9259  0.2105 -2.8883
  410SOL     OW 1228   2.606   1.120   0.139  0.4229 -0.1696 -0.5695
  410SOL    HW1 1229   2.643   1.175   0.218 -0.3344 -0.4067  1.0426
  410SOL    HW2 1230   2.610   1.171   0.047  0.8764 -1.8564 -2.5827
  411SOL     OW 1231   0.287   0.172   1.201  0.3247  0.7607  0.0958
  411SOL    HW1 1232   0.204   0.147   1.260  0.2118 -0.0501  3.0998
  411SOL    HW2 1233   0.314   0.093   1.138 -1.3378 -2.2124 -1.6878
  412SOL     OW 1234   1.593   0.989   1.498 -0.1810  0.3566 -0.8143
  412SOL    HW1 1235   1.620   1.062   1.432  0.1016  0.2962 -1.2696
  412SOL    HW2 1236   1.553   0.906   1.447 -1.9364  2.0242  0.6037
  413SOL     OW 1237   0.830   2.822   1.739  0.1568 -0.1293  0.0489
  413SOL    HW1 1238   0.734   2.802   1.702 -1.0708  0.7693 -0.3289
  413SOL    HW2 1239   0.867   2.910   1.710  1.3766 -2.6477 -1.6143
  414SOL     OW 1240   2.813   1.611   2.661  0.2369 -0.0141  0.0990
  414SOL    HW1 1241   2.807   1.538   2.733 -0.0924 -2.6983  1.1137
  414SOL    HW2 1242   2.840   1.566   2.573  1.3315 -0.7272 -0.2783
  415SOL     OW 1243   0.768   2.444   2.941  0.6892 -0.0760 -0.3197
  415SOL    HW1 1244   0.675   2.460   2.981 -0.9575 -1.0169  1.0137
  415SOL    HW2 1245   0.809   2.533   2.922 -2.1898 -0.9043 -0.2499
  416SOL     OW 1246   2.025   2.911   0.354 -0.2686 -0.4002  0.1217
  416SOL    HW1 1247   2.099   2.851   0.319 -2.9728  0.1569 -3.2798
  416SOL    HW2 1248   2.041   3.006   0.317  1.5126 -3.5939  0.8930
  417SOL     OW 1249   0.312   0.637   0.772  0.6020  0.2967 -0.0092
  417SOL    HW1 1250   0.365   0.687   0.704 -2.8763  0.0686 -0.5416
  417SOL    HW2 1251   0.264   0.564   0.722  1.7887  1.5816  1.9709
  418SOL     OW 1252   2.565   0.255   1.083 -0.0750  0.2402 -0.0920
  418SOL    HW1 1253   2.485   0.292   1.133  0.9410  1.9079 -0.9896
  418SOL    HW2 1254   2.581   0.303   0.994  0.3724 -0.3220  1.1899
  419SOL     OW 1255   0.142   3.039   0.781  0.0462 -0.1788  0.0474
  419SOL    HW1 1256   0.112   3.050   0.683 -0.3900  0.0292 -0.7289
  419SOL    HW2 1257   0.199   2.955   0.792 -1.7264 -1.5221 -2.3192
  420SOL     OW 1258   0.164   1.436   1.597 -0.4985  0.3353 -0.2677
  420SOL    HW1 1259   0.240   1.504   1.623  1.5399  1.0702 -1.5757
  420SOL    HW2 1260   0.131   1.443   1.502  0.2604 -1.2201 -0.6036
  421SOL     OW 1261   1.280   2.902   0.594 -0.2624 -0.2241 -0.0688
  421SOL    HW1 1262   1.273   3.005   0.601  0.6353 -3.1861 -1.4319
  421SOL    HW2 1263   1.227   2.872   0.518  2.2234  2.7758  3.2579
  422SOL     OW 1264   0.407   0.585   1.463 -0.1891 -0.3052  0.2843
  422SOL    HW1 1265   0.382   0.567   1.559 -1.5901 -1.8792 -0.1497
  422SOL    HW2 1266   0.435   0.497   1.415  1.4851  0.8015 -1.7111
  423SOL     OW 1267   0.929   1.190   1.712 -0.2835 -0.4440  0.1608
  423SOL    HW1 1268   0.911   1.235   1.798 -0.0868 -2.1488 -3.2647
  423SOL    HW2 1269   0.906   1.094   1.724 -0.5545  0.6766  0.5439
  424SOL     OW 1270   1.981   1.673   0.047  0.3529 -0.3481 -0.4363
  424SOL    HW1 1271   1.972   1.763   0.095  1.0651 -1.1410 -0.3211
  424SOL    HW2 1272   2.006   1.609   0.118 -1.4109  1.1004 -1.6086
  425SOL     OW 1273   0.151   0.001   2.099 -0.0574  0.3350 -0.3964
  425SOL    HW1 1274   0.074   3.064   2.042 -1.0153 -0.6856 -0.4505
  425SOL    HW2 1275   0.123   0.030   2.193  0.3814  3.9846  1.1817
  426SOL     OW 1276   0.285   2.843   2.786 -0.1401 -0.0415 -0.1238
  426SOL    HW1 1277   0.251   2.882   2.878 -2.7497 -0.0216 -0.3248
  426SOL    HW2 1278   0.342   2.758   2.797  3.2986 -1.1365  2.5489
  427SOL     OW 1279   0.929   0.949   2.762 -0.2458  0.4103  0.0330
  427SOL    HW1 1280   0.977   1.035   2.788  1.3183 -0.9685 -1.0305
  427SOL    HW2 1281   0.993   0.870   2.746 -0.2975 -0.1978  3.5552
  428SOL     OW 1282   2.770   1.340   1.685 -0.4686 -0.6475  0.2801
  428SOL    HW1 1283   2.724   1.407   1.747 -0.1488  1.8394  1.1653
  428SOL    HW2 1284   2.843   1.279   1.727  2.9839 -1.3203  0.4722
  429SOL     OW 1285   2.354   3.056   0.765 -0.2866  0.0285  0.0380
  429SOL    HW1 1286   2.320   0.040   0.814  2.2879  1.7650 -0.1838
  429SOL    HW2 1287   2.292   2.976   0.773 -0.4425  1.8202  0.7969
  430SOL     OW 1288   0.740   1.494   2.189 -0.0515  0.1297  0.4608
  430SOL    HW1 1289   0.687   1.576   2.222  2.5615  3.2829  0.2177
  430SOL    HW2 1290   0.819   1.475   2.243 -2.1932  3.1467 -1.1601
  431SOL     OW 1291   2.901   1.548   1.477  0.7050 -0.2847  0.0492
  431SOL    HW1 1292   2.987   1.524   1.426  1.4772  1.6945  1.7736
  431SOL    HW2 1293   2.860   1.466   1.525  0.5787 -1.2649  0.2263
  432SOL     OW 1294   1.027   2.742   2.472  0.7498 -0.5716 -0.3336
  432SOL    HW1 1295   1.054   2.708   2.562  1.9220  0.8726 -1.0782
  432SOL    HW2 1296   1.067   2.685   2.396  0.2535  0.3859 -1.1011
  433SOL     OW 1297   1.702   0.124   1.961  0.3316 -0.2867  0.3144
  433SOL    HW1 1298   1.707   0.093   1.861 -0.4185  0.2342 -3.1650
  433SOL    HW2 1299   1.743   0.216   1.964  2.7658  1.5751  0.0630
  434SOL     OW 1300   0.632   2.477   2.480  0.2185 -0.0159 -0.2600
  434SOL    HW1 1301   0.575   2.545   2.432  1.1097 -2.3531  2.4363
  434SOL    HW2 1302   0.698   2.524   2.538 -2.1733 -0.0171  4.5562
  435SOL     OW 1303   0.440   3.022   0.180  0.0091  0.8944 -0.6011
  435SOL    HW1 1304   0.370   3.094   0.184  2.4652  0.7768 -0.2506
  435SOL    HW2 1305   0.446   2.975   0.274  0.4052  0.1989 -0.1890
  436SOL     OW 1306   0.744   0.506   1.898  0.3836 -0.1094 -0.6405
  436SOL    HW1 1307   0.681   0.564   1.846 -1.1957  1.5665  0.1382
  436SOL    HW2 1308   0.692   0.440   1.961 -0.3730 -1.7861 -1.7340
  437SOL     OW 1309   0.360   2.379   2.726  0.2237 -0.5297  0.1042
  437SOL    HW1 1310   0.384   2.347   2.636  0.2529 -0.1472  1.4963
  437SOL    HW2 1311   0.361   2.297   2.786 -0.9517 -2.4972 -4.8146
  438SOL     OW 1312   0.846   1.412   1.506  0.5212 -0.2173 -0.0883
  438SOL    HW1 1313   0.900   1.495   1.512  1.7926 -1.5715  0.4922
  438SOL    HW2 1314   0.867   1.352   1.585 -2.5791 -2.0969  2.0672
  439SOL     OW 1315   2.515   0.868   2.208 -0.0464  0.3443 -0.1506
  439SOL    HW1 1316   2.570   0.871   2.290 -2.5356  1.6460 -1.3130
  439SOL    HW2 1317   2.475   0.959   2.185  1.1949 -0.5480  1.4365
  440SOL     OW 1318   0.507   0.701   0.174  0.1334  0.0148 -0.2824
  440SOL    HW1 1319   0.466   0.616   0.137  0.0365  2.2696  1.5071
  440SOL    HW2 1320   0.552   0.675   0.262  0.4853 -1.1553  1.9031
  441SOL     OW 1321   1.363   2.250   1.627 -0.2385  0.5461 -0.2245
  441SOL    HW1 1322   1.463   2.259   1.600  0.7949  1.8735  0.0275
  441SOL    HW2 1323   1.320   2.170   1.588 -1.2798  0.9828  0.0230
  442SOL     OW 1324   1.996   1.574   0.716  0.0521 -0.3300  0.4029
  442SOL    HW1 1325   1.969   1.658   0.770 -1.5126 -0.0294 -1.2342
  442SOL    HW2 1326   2.088   1.556   0.680  0.2528 -1.2678 -2.0675
  443SOL     OW 1327   2.660   2.003   2.673  0.1665 -0.8590 -0.7281
  443SOL    HW1 1328   2.644   2.109   2.681  1.0297  0.7405  2.7200
  443SOL    HW2 1329   2.587   1.958   2.627  0.0908  0.6168  2.9740
  444SOL     OW 1330   1.630   1.507   2.853 -1.0724 -0.3097 -0.6552
  444SOL    HW1 1331   1.638   1.495   2.953  1.0072  2.2761 -1.7273
  444SOL    HW2 1332   1.553   1.442   2.821 -0.5294 -1.0027  0.6045
  445SOL     OW 1333   2.554   2.686   2.217  0.4738 -0.2405  0.0691
  445SOL    HW1 1334   2.610   2.626   2.158 -0.8395 -0.7453 -0.3013
  445SOL    HW2 1335   2.571   2.785   2.200 -2.0278  0.4525  0.1279
  446SOL     OW 1336   0.652   0.878   1.583 -0.5214  0.1326 -0.1174
  446SOL    HW1 1337   0.629   0.941   1.508 -0.6398 -0.4919  0.2459
  446SOL    HW2 1338   0.703   0.795   1.551  2.5999  1.2946 -0.9156
  447SOL     OW 1339   1.009   0.999   0.912  0.5152  0.2683 -0.0535
  447SOL    HW1 1340   0.981   0.976   1.010 -1.3075 -1.8728 -1.8011
  447SOL    HW2 1341   1.088   1.056   0.920 -2.3069 -0.7797  0.7939
  448SOL     OW 1342   0.819   0.911   2.041 -0.1974 -0.0867  0.2579
  448SOL    HW1 1343   0.723   0.928   2.059 -0.4384  1.6423 -1.0001
  448SOL    HW2 1344   0.846   0.821   2.072  0.3083 -2.6606  2.8990
  449SOL     OW 1345   0.085   2.075   2.292 -0.5020  0.3911  0.0028
  449SOL    HW1 1346   0.025   1.995   2.271  1.8226  0.9848 -1.4089
  449SOL    HW2 1347   0.183   2.049   2.318  3.3656 -1.2634  2.8367
  450SOL     OW 1348   2.448   1.906   2.070  0.0163  0.3737 -0.3945
  450SOL    HW1 1349   2.522   1.863   2.123  0.8723  1.7580 -0.8948
  450SOL    HW2 1350   2.368   1.846   2.057  0.0900 -0.8872 -0.3806
  451SOL     OW 1351   2.450   1.213   1.266 -0.0056  0.9749  0.0939
  451SOL    HW1 1352   2.382   1.215   1.191  2.5414  1.1836 -3.5766
  451SOL    HW2 1353   2.548   1.201   1.228  3.3277 -2.5654  1.3157
  452SOL     OW 1354   0.354   1.246   1.572 -0.2798  0.3312 -0.0373
  452SOL    HW1 1355   0.286   1.307   1.612  1.6583  0.0999  0.1672
  452SOL    HW2 1356   0.402   1.292   1.494 -3.3294  0.0613  2.4191
  453SOL     OW 1357   0.388   1.183   0.943  0.2773  0.3024 -0.0019
  453SOL    HW1 1358   0.480   1.192   0.899  4.5086  0.4955  1.0397
  453SOL    HW2 1359   0.392   1.094   0.996 -1.0110  2.0553  1.5111
  454SOL     OW 1360   0.325   1.377   0.272  0.3091  0.5401  0.5393
  454SOL    HW1 1361   0.387   1.426   0.199  0.0083  1.9168 -0.0756
  454SOL    HW2 1362   0.380   1.303   0.312  1.0955  0.5636  0.4921
  455SOL     OW 1363   1.760   0.860   0.914  0.0998 -0.6376  0.3604
  455SOL    HW1 1364   1.747   0.960   0.925  0.3253  2.3635  0.8726
  455SOL    HW2 1365   1.848   0.829   0.961 -0.0351  0.5786  3.0268
  456SOL     OW 1366   1.599   2.414   0.881  0.3633 -0.4053  0.1272
  456SOL    HW1 1367   1.539   2.492   0.846  0.1015  2.5709 -1.2964
  456SOL    HW2 1368   1.643   2.372   0.802  0.3185 -0.7169 -0.5655
  457SOL     OW 1369   1.773   0.081   2.709  0.5504 -0.0031  0.2208
  457SOL    HW1 1370   1.747   3.086   2.725  1.3790  0.1690 -0.0196
  457SOL    HW2 1371   1.698   0.132   2.652 -0.1345 -0.3189 -0.3517
  458SOL     OW 1372   2.492   0.391   0.136 -0.1986  0.0488 -0.0083
  458SOL    HW1 1373   2.445   0.333   0.070  0.9772 -1.1785  2.0060
  458SOL    HW2 1374   2.581   0.430   0.096  0.2307 -1.6110 -0.4799
  459SOL     OW 1375   2.941   1.158   2.096 -0.0742 -0.4671  0.2851
  459SOL    HW1 1376   2.966   1.257   2.118 -0.8757  1.3546 -0.5257
  459SOL    HW2 1377   2.901   1.109   2.177 -0.1385  0.5588  1.6175
  460SOL     OW 1378   0.297   0.785   2.958  0.0033 -0.6349  0.5962
  460SOL    HW1 1379   0.257   0.770   2.863  0.0363  1.4319 -0.2768
  460SOL    HW2 1380   0.397   0.758   2.962  1.4553 -2.1194  0.1347
  461SOL     OW 1381   3.086   2.328   0.691 -0.3630  0.6361  0.0753
  461SOL    HW1 1382   3.066   2.235   0.738  0.3974  0.3316  0.4736
  461SOL    HW2 1383   0.014   2.306   0.597  2.2783 -0.6060 -0.3901
  462SOL     OW 1384   0.024   2.993   1.623 -0.6497  0.4032 -0.1790
  462SOL    HW1 1385   3.090   2.926   1.690 -0.1358  0.5989  0.7317
  462SOL    HW2 1386   3.050   3.034   1.567  0.6043  3.0602  2.1820
  463SOL     OW 1387   1.967   2.010   2.054 -0.5742 -0.4179  0.1323
  463SOL    HW1 1388   2.034   2.014   1.977  1.0564  0.0625 -2.5038
  463SOL    HW2 1389   1.891   2.071   2.036  1.6282 -0.4025  0.2388
  464SOL     OW 1390   0.211   2.835   1.168  0.0402  0.1811  0.2654
  464SOL    HW1 1391   0.229   2.853   1.265  0.6910 -0.2400  0.2807
  464SOL    HW2 1392   0.242   2.921   1.114  1.1772  0.5677 -1.5338
  465SOL     OW 1393   0.634   0.029   1.436 -0.5160  0.0720  0.5606
  465SOL    HW1 1394   0.684   0.058   1.518 -1.1574  0.3723 -0.7381
  465SOL    HW2 1395   0.536   0.049   1.449 -2.5841  1.2504 -0.4297
  466SOL     OW 1396   1.196   2.016   2.263 -0.2511  0.1541 -0.5728
  466SOL    HW1 1397   1.192   1.934   2.203  1.4546  1.1453  3.8232
  466SOL    HW2 1398   1.119   2.081   2.254  2.0458  2.5149  1.9421
  467SOL     OW 1399   3.042   1.571   0.715 -0.3743  0.0760 -0.2194
  467SOL    HW1 1400   2.998   1.488   0.758 -1.0995 -3.2118  0.3439
  467SOL    HW2 1401   3.016   1.575   0.617 -1.1939  0.0300  0.4248
  468SOL     OW 1402   2.252   1.896   2.807  0.3433  0.3147  1.2624
  468SOL    HW1 1403   2.230   1.796   2.789 -0.0331  1.9458 -0.7241
  468SOL    HW2 1404   2.282   1.938   2.717  2.1121  1.4543  0.9302
  469SOL     OW 1405   0.958   2.121   0.567 -0.1667 -0.1033 -0.1096
  469SOL    HW1 1406   1.038   2.179   0.543  2.1625 -2.3220  0.0695
  469SOL    HW2 1407   0.993   2.045   0.625  2.0114  0.7572  0.9909
  470SOL     OW 1408   2.001   1.804   1.470  0.0641 -0.0410 -0.2787
  470SOL    HW1 1409   1.979   1.905   1.454  0.5755  0.9696 -1.5319
  470SOL    HW2 1410   2.019   1.785   1.571  1.7883 -2.8556  2.6678
  471SOL     OW 1411   0.420   2.390   0.238 -0.2216  0.0067 -0.4781
  471SOL    HW1 1412   0.433   2.474   0.299  0.2021 -0.4605 -1.8953
  471SOL    HW2 1413   0.368   2.408   0.151  1.3562  1.2639 -1.5732
  472SOL     OW 1414   2.556   1.789   2.512  0.0566  0.8959 -0.3194
  472SOL    HW1 1415   2.543   1.692   2.482 -0.6182  2.1545 -2.4527
  472SOL    HW2 1416   2.465   1.840   2.512 -1.6738  1.5438 -1.9140
  473SOL     OW 1417   1.417   2.594   0.819  0.0663 -0.0341 -0.5870
  473SOL    HW1 1418   1.328   2.616   0.867 -2.7384 -1.6177 -0.7847
  473SOL    HW2 1419   1.461   2.682   0.788 -1.5747  1.2840  0.4895
  474SOL     OW 1420   2.917   3.086   1.448  0.2859  0.1440  0.7151
  474SOL    HW1 1421   2.930   3.001   1.394  2.6183 -3.2954  0.1047
  474SOL    HW2 1422   2.817   0.006   1.459 -1.2386 -1.2348 -1.4971
  475SOL     OW 1423   1.898   2.882   1.873 -0.2719 -0.0636 -0.0639
  475SOL    HW1 1424   1.984   2.861   1.917 -2.4959  1.5099  1.1842
  475SOL    HW2 1425   1.825   2.867   1.944 -0.6172  1.6093  0.6635
  476SOL     OW 1426   0.416   0.533   1.053 -0.1883 -0.3949 -0.2224
  476SOL    HW1 1427   0.342   0.558   1.123 -2.0711  3.8678  2.1266
  476SOL    HW2 1428   0.401   0.579   0.960 -0.3114  0.3158 -3.8344
  477SOL     OW 1429   0.489   2.158   1.045 -0.4105  0.0806 -0.4218
  477SOL    HW1 1430   0.416   2.206   0.990  2.7515  1.8040 -0.3301
  477SOL    HW2 1431   0.578   2.171   1.004 -1.8633 -0.9116  0.2601
  478SOL     OW 1432   0.812   2.555   2.673  0.2939  0.1359  0.0781
  478SOL    HW1 1433   0.911   2.587   2.672  0.1947  1.9494  0.5574
  478SOL    HW2 1434   0.796   2.478   2.737 -3.7187 -1.1579 -1.5225
  479SOL     OW 1435   0.177   0.617   1.936  0.3032  0.8279  0.0219
  479SOL    HW1 1436   0.082   0.568   1.929 -1.9906 -1.0266  1.2867
  479SOL    HW2 1437   0.229   0.590   2.020  0.8554 -0.3685  0.1194
  480SOL     OW 1438   0.124   2.234   3.055  0.2836 -0.0427 -0.2496
  480SOL    HW1 1439   0.091   2.151   0.008  1.0168 -2.3619 -0.3430
  480SOL    HW2 1440   0.051   2.255   2.987  3.4752 -2.6897  0.1674
  481SOL     OW 1441   1.573   0.006   2.152 -0.2222 -0.2471  0.0080
  481SOL    HW1 1442   1.636   0.017   2.232  0.9411 -2.1736 -0.3608
  481SOL    HW2 1443   1.625   0.036   2.069  1.8698 -2.3887 -0.1000
  482SOL     OW 1444   1.626   1.854   3.019  0.1981  0.0880 -0.3810
  482SOL    HW1 1445   1.587   1.795   3.094 -0.1527 -0.0966 -0.9882
  482SOL    HW2 1446   1.577   1.841   2.930  0.2925  2.2418 -1.6260
  483SOL     OW 1447   1.061   2.644   2.743 -0.1396 -0.5975 -0.1834
  483SOL    HW1 1448   1.099   2.565   2.794  0.0816  1.8158 -0.8639
  483SOL    HW2 1449   1.114   2.730   2.760 -1.3523  0.7594  0.7012
  484SOL     OW 1450   0.545   2.697   0.860 -0.3144  0.5190 -0.3368
  484SOL    HW1 1451   0.586   2.786   0.880 -2.6593 -0.9488  1.0518
  484SOL    HW2 1452   0.494   2.663   0.939  2.8925  0.2570 -1.7164
  485SOL     OW 1453   2.137   0.721   0.786 -0.3022 -0.1221 -0.1070
  485SOL    HW1 1454   2.098   0.815   0.779  1.8041 -1.9441  0.9852
  485SOL    HW2 1455   2.066   0.656   0.832  0.8167  1.0109  2.0972
  486SOL     OW 1456   1.869   2.603   2.146  0.1030 -0.1237  0.3874
  486SOL    HW1 1457   1.927   2.647   2.216  0.5770 -0.8706 -1.4910
  486SOL    HW2 1458   1.802   2.676   2.112 -0.8236  0.2591  0.8325
  487SOL     OW 1459   1.262   1.913   0.708  0.7439  0.6669 -0.3733
  487SOL    HW1 1460   1.166   1.892   0.711  0.0765 -0.4312 -2.8100
  487SOL    HW2 1461   1.319   1.841   0.754  1.5909 -2.1352 -0.6815
  488SOL     OW 1462   2.016   0.281   0.147 -0.1424 -0.2034 -0.0770
  488SOL    HW1 1463   2.034   0.375   0.186  0.5071  2.2603  1.1316
  488SOL    HW2 1464   2.051   0.287   0.051 -1.2754  0.6228  0.8897
  489SOL     OW 1465   1.955   2.969   0.612  0.2927 -0.1153 -0.4583
  489SOL    HW1 1466   1.930   3.067   0.620  0.6682  0.6983 -0.3124
  489SOL    HW2 1467   1.987   2.940   0.518  0.1838  0.6051 -0.5843
  490SOL     OW 1468   1.621   2.877   3.040  0.0252  0.1954 -0.4925
  490SOL    HW1 1469   1.709   2.920   3.078 -0.9545 -1.4815 -0.5192
  490SOL    HW2 1470   1.536   2.922   3.074  0.7551 -1.9219 -2.5044
  491SOL     OW 1471   0.905   0.253   1.078  0.3206  0.0066  0.0278
  491SOL    HW1 1472   0.978   0.184   1.077  0.9345  1.8549 -0.6710
  491SOL    HW2 1473   0.849   0.230   1.161 -1.1347 -0.9292 -2.7545
  492SOL     OW 1474   1.766   0.023   0.329  0.0481 -0.2307  0.7847
  492SOL    HW1 1475   1.686   0.036   0.391 -0.7886  0.8744 -0.2651
  492SOL    HW2 1476   1.818   3.040   0.343  0.1553 -0.9722 -2.7466
  493SOL     OW 1477   1.640   2.472   2.847 -0.1310 -0.2303  0.2288
  493SOL    HW1 1478   1.594   2.559   2.872 -1.5676  0.7747 -2.9245
  493SOL    HW2 1479   1.598   2.439   2.765  2.1677  1.3775  1.1150
  494SOL     OW 1480   0.641   1.096   0.881  0.3386  0.2053  0.4917
  494SOL    HW1 1481   0.697   1.070   0.968  1.0212 -0.6635  1.5366
  494SOL    HW2 1482   0.635   1.017   0.817  1.7203 -3.0687  0.6536
  495SOL     OW 1483   2.984   0.210   1.709  0.2305 -0.1837 -0.3941
  495SOL    HW1 1484   3.079   0.237   1.705 -2.6486 -2.9446  1.6869
  495SOL    HW2 1485   2.962   0.142   1.785  1.9115  1.6642  0.6166
  496SOL     OW 1486   2.633   2.368   2.218  0.2607 -0.0067 -0.0050
  496SOL    HW1 1487   2.648   2.436   2.143  0.2110 -0.6785  0.3514
  496SOL    HW2 1488   2.566   2.296   2.197 -0.8870  0.8567  0.0125
  497SOL     OW 1489   1.535   1.174   2.551 -0.1310  0.0667 -0.3966
  497SOL    HW1 1490   1.538   1.184   2.450  0.7826  0.6574  1.0259
  497SOL    HW2 1491   1.480   1.097   2.591 -2.5965 -0.7911  2.2147
  498SOL     OW 1492   0.734   1.765   0.789  0.3304  0.5171 -0.1989
  498SOL    HW1 1493   0.688   1.830   0.854  0.7392 -1.6166 -0.3222
  498SOL    HW2 1494   0.672   1.735   0.707 -0.6086  0.8589 -1.9723
  499SOL     OW 1495   0.305   1.627   1.114 -0.0046  0.3487 -0.1952
  499SOL    HW1 1496   0.204   1.640   1.120 -0.8319 -1.3957 -0.2753
  499SOL    HW2 1497   0.355   1.682   1.182 -1.4102 -1.4467 -1.4213
  500SOL     OW 1498   1.439   2.571   0.318 -0.3671 -0.2278 -0.0510
  500SOL    HW1 1499   1.430   2.667   0.277  0.9737  0.8642 -0.7784
  500SOL    HW2 1500   1.354   2.539   0.361  0.5547  1.4646  1.0074
  501SOL     OW 1501   1.999   2.549   0.947 -0.7071  0.0443 -0.5251
  501SOL    HW1 1502   2.099   2.519   0.939 -0.5121  0.1803  0.0174
  501SOL    HW2 1503   1.958   2.574   0.856 -2.7143 -1.0918 -0.5485
  502SOL     OW 1504   0.347   0.828   1.353  0.0140 -0.5236 -0.1503
  502SOL    HW1 1505   0.264   0.822   1.294 -1.5807  1.5456  0.8903
  502SOL    HW2 1506   0.363   0.739   1.403  0.1820 -1.7928 -0.5054
  503SOL     OW 1507   2.134   0.083   1.682 -0.2130 -0.5351  0.5001
  503SOL    HW1 1508   2.057   0.086   1.612  2.6025 -0.8251  0.2567
  503SOL    HW2 1509   2.170   3.091   1.666 -2.9364  0.8181 -2.4190
  504SOL     OW 1510   2.079   0.895   1.866 -0.3144 -0.4849  0.1130
  504SOL    HW1 1511   2.056   0.851   1.956 -0.4890  0.9887 -3.0456
  504SOL    HW2 1512   2.025   0.982   1.854 -0.3710  0.1052 -0.3594
  505SOL     OW 1513   1.225   3.055   2.065 -0.5874 -0.1075 -0.0380
  505SOL    HW1 1514   1.253   0.050   2.038  0.1775  0.4411 -0.2403
  505SOL    HW2 1515   1.290   3.017   2.132  0.1803 -2.3386 -1.2668
  506SOL     OW 1516   0.422   0.295   1.840  0.0246 -0.0244 -0.3292
  506SOL    HW1 1517   0.421   0.387   1.801  1.2159 -4.3616 -0.2017
  506SOL    HW2 1518   0.513   0.252   1.832  1.2042 -1.4929 -1.8033
  507SOL     OW 1519   1.580   0.153   0.012  0.0647  0.2348 -0.1144
  507SOL    HW1 1520   1.653   0.189   0.071 -0.9956  1.6339  1.8633
  507SOL    HW2 1521   1.513   0.099   0.065 -1.3321 -0.3785  2.4916
  508SOL     OW 1522   2.288   0.612   2.469 -0.7587 -0.3462 -0.0363
  508SOL    HW1 1523   2.326   0.598   2.560 -3.9468  2.2034 -0.6873
  508SOL    HW2 1524   2.358   0.610   2.393  2.3913  0.4690 -0.4410
  509SOL     OW 1525   0.673   1.440   1.927  0.4102 -0.1071 -0.3624
  509SOL    HW1 1526   0.675   1.477   2.024 -2.2178 -3.4477  0.0072
  509SOL    HW2 1527   0.710   1.510   1.860 -0.7014  1.0914  0.6792
  510SOL     OW 1528   3.062   0.427   0.953 -0.2801 -0.2040 -0.5346
  510SOL    HW1 1529   3.061   0.531   0.944  3.5924 -1.7544  1.8563
  510SOL    HW2 1530   3.011   0.380   0.879 -2.0757 -0.8448  1.4688
  511SOL     OW 1531   1.751   1.570   1.080  0.2576 -0.4029  0.2856
  511SOL    HW1 1532   1.716   1.656   1.027 -0.3080  2.0051 -0.6405
  511SOL    HW2 1533   1.778   1.586   1.179 -2.3873 -2.4776  0.7562
  512SOL     OW 1534   0.699   1.365   0.314  0.7673 -0.4838 -0.0892
  512SOL    HW1 1535   0.613   1.313   0.344 -0.8430 -0.2815 -0.6806
  512SOL    HW2 1536   0.724   1.433   0.386  0.0704 -1.0511 -0.8842
  513SOL     OW 1537   0.343   2.300   0.882  0.7052  0.5160  0.0310
  513SOL    HW1 1538   0.268   2.354   0.924 -0.2140 -0.4737 -1.3962
  513SOL    HW2 1539   0.397   2.356   0.815  0.1990 -0.9036  0.9887
  514SOL     OW 1540   0.065   2.026   0.092  0.0563  0.6304  0.0091
  514SOL    HW1 1541   3.083   2.045   0.144 -2.5064  2.1446 -0.5610
  514SOL    HW2 1542   0.131   1.967   0.144 -1.8344  1.2082  1.0506
  515SOL     OW 1543   2.863   0.220   0.133 -0.2052  0.0725  0.1448
  515SOL    HW1 1544   2.791   0.143   0.155 -2.3885 -1.2636  0.8945
  515SOL    HW2 1545   2.924   0.229   0.213 -0.7721 -0.9857  0.4028
  516SOL     OW 1546   2.124   3.012   1.027 -0.0784 -0.2952  0.6712
  516SOL    HW1 1547   2.155   2.961   1.114  0.4409 -1.1516  0.9462
  516SOL    HW2 1548   2.124   2.946   0.947 -2.3064 -1.5653 -0.4402
  517SOL     OW 1549   1.255   1.494   0.282 -0.2020 -0.5604 -0.4150
  517SOL    HW1 1550   1.300   1.424   0.344 -1.0914 -2.1715 -0.9860
  517SOL    HW2 1551   1.160   1.470   0.259  1.6185  0.5262 -1.0439
  518SOL     OW 1552   1.574   0.797   1.326 -0.4346 -0.6846  0.1976
  518SOL    HW1 1553   1.544   0.705   1.291  0.8639  0.2706  0.9263
  518SOL    HW2 1554   1.566   0.868   1.253 -0.5058 -0.3319 -1.4347
  519SOL     OW 1555   2.702   2.345   0.448 -0.6568 -0.1917 -0.1378
  519SOL    HW1 1556   2.704   2.255   0.499 -0.4859 -1.4775  0.7438
  519SOL    HW2 1557   2.754   2.416   0.498  0.6071 -4.1798 -1.8780
  520SOL     OW 1558   2.187   2.024   1.868 -0.3065  0.3716 -0.2559
  520SOL    HW1 1559   2.229   1.933   1.852 -0.2999 -1.1395  0.8868
  520SOL    HW2 1560   2.239   2.098   1.827 -0.4226  0.7055 -0.5520
  521SOL     OW 1561   1.398   2.951   2.298  0.6096  0.3226 -0.1995
  521SOL    HW1 1562   1.451   2.939   2.386  0.6216 -0.0922  1.0744
  521SOL    HW2 1563   1.460   3.006   2.237  0.2278 -1.7077  1.3789
  522SOL     OW 1564   2.871   0.103   1.929 -0.5904 -0.5983 -0.2129
  522SOL    HW1 1565   2.872   0.164   2.009 -1.7351  2.1467  1.4627
  522SOL    HW2 1566   2.908   0.009   1.954 -2.5809 -2.2028  1.2986
  523SOL     OW 1567   1.191   2.016   1.554  0.2641  0.1124  0.4019
  523SOL    HW1 1568   1.137   2.059   1.627  0.0047  1.7410  3.3364
  523SOL    HW2 1569   1.141   2.020   1.464 -2.3804 -1.6575 -2.6701
  524SOL     OW 1570   2.098   2.275   2.885  0.2401 -0.3802 -0.3798
  524SOL    HW1 1571   2.195   2.289   2.901 -4.3481 -1.0882  1.2902
  524SOL    HW2 1572   2.086   2.176   2.903  1.2448 -1.3325  5.7160
  525SOL     OW 1573   2.895   0.951   0.446  0.1574 -0.0384 -0.2063
  525SOL    HW1 1574   2.944   0.887   0.384  0.0155 -1.1262 -0.5951
  525SOL    HW2 1575   2.798   0.912   0.457 -1.0997 -1.9035  1.3635
  526SOL     OW 1576   1.178   2.852   0.847 -0.8462 -0.0783  0.2253
  526SOL    HW1 1577   1.233   2.850   0.760 -1.6406 -1.0897  0.7708
  526SOL    HW2 1578   1.174   2.754   0.886 -1.6244 -1.0024  0.6609
  527SOL     OW 1579   2.298   1.587   0.636 -0.6290 -0.0685 -0.0709
  527SOL    HW1 1580   2.282   1.491   0.615  0.0125  2.9377  2.3195
  527SOL    HW2 1581   2.360   1.636   0.573 -3.4864 -0.1470  0.6110
  528SOL     OW 1582   0.540   0.785   2.611 -0.0659 -0.6941 -0.5764
  528SOL    HW1 1583   0.623   0.812   2.557  1.8482 -0.1076 -1.6196
  528SOL    HW2 1584   0.474   0.732   2.558 -1.3481 -0.6057 -0.7156
  529SOL     OW 1585   0.522   1.382   3.013  0.1587 -0.1996  0.5515
  529SOL    HW1 1586   0.428   1.402   2.989 -0.1712  1.6455 -1.6532
  529SOL    HW2 1587   0.527   1.295   3.063  1.1355  1.0567  0.7775
  530SOL     OW 1588   1.432   1.100   1.931 -0.7143  0.4308  0.6207
  530SOL    HW1 1589   1.534   1.075   1.938  3.0794 -1.1153  2.1284
  530SOL    HW2 1590   1.367   1.027   1.963  1.0425 -0.3625 -0.1599
  531SOL     OW 1591   1.254   2.280   2.894 -0.1346 -0.0245  0.0533
  531SOL    HW1 1592   1.200   2.217   2.835 -1.0538  3.2577  0.9789
  531SOL    HW2 1593   1.304   2.219   2.963 -0.3325 -1.8490  1.6479
  532SOL     OW 1594   2.314   0.655   0.131 -0.0330  0.1451 -0.1372
  532SOL    HW1 1595   2.353   0.740   0.173  1.2113  0.0747 -0.8067
  532SOL    HW2 1596   2.370   0.577   0.163  1.2869 -0.9088 -0.0550
  533SOL     OW 1597   3.042   0.490   1.838  0.1480  0.1615 -0.5860
  533SOL    HW1 1598   3.062   0.405   1.791 -0.9894 -1.2290  2.4256
  533SOL    HW2 1599   2.982   0.551   1.782  1.9601 -0.7527 -1.9078
  534SOL     OW 1600   1.768   0.250   0.194  1.2139  0.4742 -0.0948
  534SOL    HW1 1601   1.764   0.166   0.255 -0.1174  1.5712  1.4837
  534SOL    HW2 1602   1.862   0.261   0.158 -2.9311 -0.2507  1.1633
  535SOL     OW 1603   0.575   0.312   0.022  0.0974 -0.2752  0.2096
  535SOL    HW1 1604   0.670   0.346   0.007 -1.9094  1.0854 -2.0549
  535SOL    HW2 1605   0.541   0.242   3.057 -0.9216 -1.0768 -2.3902
  536SOL     OW 1606   0.376   1.595   1.705 -0.6136  0.1592  0.2720
  536SOL    HW1 1607   0.337   1.686   1.716  1.3122 -3.7493  2.4000
  536SOL    HW2 1608   0.473   1.603   1.662  3.0155 -1.8811 -1.7144
  537SOL     OW 1609   0.288   2.626   1.910 -0.0398  0.1501 -0.2589
  537SOL    HW1 1610   0.374   2.614   1.854 -1.9314  2.6268  0.6645
  537SOL    HW2 1611   0.292   2.711   1.959 -0.8043 -3.7080  1.1931
  538SOL     OW 1612   2.872   2.185   0.255  0.3805 -0.0922 -0.4426
  538SOL    HW1 1613   2.800   2.249   0.281 -1.0303  0.3596 -2.7618
  538SOL    HW2 1614   2.832   2.092   0.236  1.1029 -0.3805  0.1056
  539SOL     OW 1615   2.685   0.674   2.786 -0.4698 -0.7442  0.1736
  539SOL    HW1 1616   2.720   0.653   2.693 -1.5611  1.2592  2.5882
  539SOL    HW2 1617   2.754   0.662   2.862  1.7170  0.0949  2.0658
  540SOL     OW 1618   1.754   0.950   0.116 -0.7334  0.7934 -0.2860
  540SOL    HW1 1619   1.780   1.033   0.170  1.5254  0.8303 -1.4300
  540SOL    HW2 1620   1.658   0.919   0.127 -0.6177 -0.8476 -2.3898
  541SOL     OW 1621   0.883   0.457   1.582 -0.1552 -0.4741 -0.7943
  541SOL    HW1 1622   0.895   0.467   1.683  0.2806 -2.0874 -0.6150
  541SOL    HW2 1623   0.830   0.534   1.539 -0.1136 -0.3300  0.4004
  542SOL     OW 1624   1.914   2.406   2.320 -0.0147 -0.6488  0.1030
  542SOL    HW1 1625   1.900   2.477   2.250 -1.5068  1.9336  1.0900
  542SOL    HW2 1626   1.939   2.319   2.271  3.7532 -1.3589  0.1245
  543SOL     OW 1627   0.918   2.928   0.755 -0.3981 -0.4286  0.5801
  543SOL    HW1 1628   0.937   2.897   0.661 -0.9182  0.4735  0.9570
  543SOL    HW2 1629   1.003   2.920   0.810  2.3434 -2.2403  0.5619
  544SOL     OW 1630   2.686   1.685   2.249 -0.0611 -0.2343  0.2896
  544SOL    HW1 1631   2.734   1.747   2.184 -0.8810  1.1675  2.0831
  544SOL    HW2 1632   2.716   1.705   2.344  1.7059 -0.2830 -0.0190
  545SOL     OW 1633   1.548   2.011   1.395 -0.1809  0.2404 -0.1903
  545SOL    HW1 1634   1.458   2.047   1.356 -3.0849  0.4672  2.3581
  545SOL    HW2 1635   1.529   1.930   1.455  1.8063 -2.9308 -1.4042
  546SOL     OW 1636   0.515   0.005   2.502 -0.6131  0.0425  0.0015
  546SOL    HW1 1637   0.439   0.071   2.530 -0.2164  3.2158  1.5945
  546SOL    HW2 1638   0.564   3.080   2.586 -1.5629  0.6877 -1.7017
  547SOL     OW 1639   1.442   0.326   0.526  0.0603  0.8459  0.0820
  547SOL    HW1 1640   1.392   0.398   0.573  1.5003  1.0239  1.6589
  547SOL    HW2 1641   1.407   0.238   0.555 -2.1952 -1.0499 -1.0729
  548SOL     OW 1642   1.335   2.115   3.101  0.2803  0.2735  0.2591
  548SOL    HW1 1643   1.314   2.014   3.100 -0.8174  0.5506  0.3402
  548SOL    HW2 1644   1.421   2.139   0.046  1.2352 -0.1443 -2.0090
  549SOL     OW 1645   1.803   1.190   0.224 -0.6968  0.4236 -0.2026
  549SOL    HW1 1646   1.877   1.229   0.285  0.6580 -4.7443 -2.2254
  549SOL    HW2 1647   1.834   1.206   0.131 -0.5324 -0.2192  0.8071
  550SOL     OW 1648   2.263   2.064   0.224 -0.5834  0.0247 -0.7697
  550SOL    HW1 1649   2.230   2.027   0.311 -1.5305 -0.4046 -1.4214
  550SOL    HW2 1650   2.219   2.154   0.199 -2.7814  1.0086  4.5263
  551SOL     OW 1651   1.517   0.463   1.499  0.3145  0.2167  0.1086
  551SOL    HW1 1652   1.522   0.495   1.408  1.0751 -1.6605  3.4093
  551SOL    HW2 1653   1.598   0.467   1.555 -4.3563  1.1498 -5.2584
  552SOL     OW 1654   3.034   2.307   2.890  0.0277  0.2108  0.0881
  552SOL    HW1 1655   2.987   2.232   2.831 -2.8818 -1.4439 -1.0207
  552SOL    HW2 1656   2.970   2.355   2.950  0.1144  3.4499  0.2130
  553SOL     OW 1657   2.769   2.381   0.790  0.1115 -1.0246 -0.1183
  553SOL    HW1 1658   2.817   2.329   0.717  1.6315  0.8188 -3.0447
  553SOL    HW2 1659   2.705   2.322   0.848  0.3229  2.6017 -0.2192
  554SOL     OW 1660   2.051   1.721   1.730  0.3378  0.3838  0.1817
  554SOL    HW1 1661   2.035   1.623   1.757  0.2844 -1.9213  2.0649
  554SOL    HW2 1662   1.965   1.773   1.739  0.6934 -0.4806 -0.1576
  555SOL     OW 1663   1.473   2.133   2.239 -0.0473 -0.5614 -0.3386
  555SOL    HW1 1664   1.380   2.117   2.271 -0.5250 -0.0958 -0.7397
  555SOL    HW2 1665   1.485   2.223   2.191  1.1012 -0.8087  1.7602
  556SOL     OW 1666   1.196   1.626   1.414  0.2882  0.1145  0.1045
  556SOL    HW1 1667   1.238   1.707   1.454  0.5678  0.8109 -1.7182
  556SOL    HW2 1668   1.249   1.540   1.418 -1.7626 -0.8654 -0.6038
  557SOL     OW 1669   1.506   2.991   1.609 -0.8740  0.2622  0.5451
  557SOL    HW1 1670   1.574   3.022   1.667 -1.7842 -2.6051 -0.0179
  557SOL    HW2 1671   1.421   3.043   1.618  0.1646  0.4528 -1.6439
  558SOL     OW 1672   0.608   2.965   2.093  0.3704 -0.1099  0.4102
  558SOL    HW1 1673   0.583   2.988   1.994  0.5345  0.0063 -0.9197
  558SOL    HW2 1674   0.627   3.047   2.149 -0.8331  1.1176 -0.3582
  559SOL     OW 1675   2.140   2.311   0.170 -0.2257  0.0306 -0.4007
  559SOL    HW1 1676   2.137   2.415   0.174 -1.7064  2.7363  0.8113
  559SOL    HW2 1677   2.106   2.268   0.256  1.6786  0.7382 -4.5926
  560SOL     OW 1678   1.241   2.138   0.290  0.4556  0.2251 -0.0177
  560SOL    HW1 1679   1.271   2.055   0.345 -0.3757  0.8483  2.6996
  560SOL    HW2 1680   1.314   2.169   0.227  1.4735 -1.2098 -0.5717
  561SOL     OW 1681   1.242   0.249   2.981 -0.0484 -0.0483 -0.4003
  561SOL    HW1 1682   1.234   0.347   2.984 -0.4972 -0.8600  2.4492
  561SOL    HW2 1683   1.331   0.231   2.935  2.3035 -2.2362  0.3815
  562SOL     OW 1684   0.263   1.339   2.132  0.1924 -0.2501 -0.0302
  562SOL    HW1 1685   0.192   1.261   2.130 -1.9558 -1.5915 -1.2491
  562SOL    HW2 1686   0.330   1.332   2.061 -2.0434  0.0308  3.3531
  563SOL     OW 1687   1.253   1.965   2.531  0.1886 -0.1680  0.1786
  563SOL    HW1 1688   1.243   1.994   2.431 -3.0642  2.5506 -0.5433
  563SOL    HW2 1689   1.352   1.962   2.561  2.3750 -1.2186  1.2031
  564SOL     OW 1690   2.701   1.322   0.705 -0.3528 -0.8225  0.4928
  564SOL    HW1 1691   2.653   1.241   0.752 -0.1667 -1.5043  1.2472
  564SOL    HW2 1692   2.779   1.357   0.764 -0.8379  2.7043  0.2690
  565SOL     OW 1693   0.386   1.135   0.075 -0.1718  0.1297 -0.1024
  565SOL    HW1 1694   0.312   1.200   0.079  0.3107 -0.3720  2.4465
  565SOL    HW2 1695   0.352   1.042   0.103 -0.2245 -4.2165 -0.9398
  566SOL     OW 1696   2.566   2.901   2.656 -0.0846  0.3037 -0.3489
  566SOL    HW1 1697   2.636   2.841   2.699  0.3720 -2.3035  1.0316
  566SOL    HW2 1698   2.503   2.946   2.722 -2.6199  0.4747  1.2210
  567SOL     OW 1699   1.548   1.427   1.194 -0.0727  0.5366  0.5232
  567SOL    HW1 1700   1.623   1.478   1.149  0.8305 -2.7167 -0.9824
  567SOL    HW2 1701   1.596   1.341   1.218 -0.5643  1.0247 -2.6410
  568SOL     OW 1702   1.442   1.295   2.772  0.1587 -0.3966 -0.1971
  568SOL    HW1 1703   1.354   1.349   2.760 -0.6993  0.3048 -1.2208
  568SOL    HW2 1704   1.470   1.243   2.689 -1.0081 -1.9306  0.5681
  569SOL     OW 1705   2.287   1.583   3.030  0.4735 -0.4489  0.2836
  569SOL    HW1 1706   2.352   1.664   3.018 -0.7037 -1.7856  0.5742
  569SOL    HW2 1707   2.194   1.621   3.055  0.8642  1.5837  0.7281
  570SOL     OW 1708   2.980   2.508   1.719  0.1370  0.1576  0.2805
  570SOL    HW1 1709   2.982   2.523   1.616 -1.1498  0.7946 -2.5442
  570SOL    HW2 1710   3.034   2.582   1.765 -0.1533  0.8720  1.4299
  571SOL     OW 1711   2.874   1.941   1.613  0.5166  0.4580  0.1659
  571SOL    HW1 1712   2.956   1.898   1.560  0.2860 -0.8319 -1.7790
  571SOL    HW2 1713   2.898   1.936   1.713 -0.6599 -0.1842 -2.7218
  572SOL     OW 1714   1.778   2.238   0.425 -0.1925 -0.1173 -0.2220
  572SOL    HW1 1715   1.720   2.285   0.356 -1.0607 -3.1187 -5.1415
  572SOL    HW2 1716   1.875   2.232   0.397  0.4821 -2.1578  0.6472
  573SOL     OW 1717   1.316   1.912   0.433 -0.0116  0.2358  0.0547
  573SOL    HW1 1718   1.418   1.917   0.439 -0.6020 -0.0900  2.3350
  573SOL    HW2 1719   1.281   1.917   0.528  1.2025  0.3887 -2.0096
  574SOL     OW 1720   1.600   3.026   1.358 -0.2060  0.2696 -0.2093
  574SOL    HW1 1721   1.649   2.939   1.337 -0.6949 -2.8399 -0.8426
  574SOL    HW2 1722   1.568   3.026   1.454 -0.5038 -1.5522  0.4524
  575SOL     OW 1723   0.516   1.324   1.363  0.4702  0.1970  0.0901
  575SOL    HW1 1724   0.578   1.247   1.338 -0.7470  0.2287 -0.9343
  575SOL    HW2 1725   0.500   1.385   1.279 -1.8052 -0.4136 -1.7057
  576SOL     OW 1726   2.776   0.721   1.288  0.3520  0.4945 -0.4717
  576SOL    HW1 1727   2.845   0.660   1.329 -0.2753  0.8756  0.6972
  576SOL    HW2 1728   2.691   0.670   1.261 -0.3740  0.3885  0.5401
  577SOL     OW 1729   1.510   0.810   2.473  0.0832  0.1236 -0.2242
  577SOL    HW1 1730   1.470   0.864   2.550 -0.8636  2.1165 -0.0572
  577SOL    HW2 1731   1.459   0.821   2.382 -2.3664  2.0697 -1.9202
  578SOL     OW 1732   2.123   1.367   2.373  0.5858  0.1076  0.4313
  578SOL    HW1 1733   2.086   1.303   2.442 -0.6473 -0.2151 -3.5074
  578SOL    HW2 1734   2.048   1.403   2.316  2.9087  0.1139 -2.5680
  579SOL     OW 1735   0.819   1.878   1.434  0.0963 -0.4289 -0.2947
  579SOL    HW1 1736   0.773   1.894   1.527 -0.1668 -1.7947  0.4878
  579SOL    HW2 1737   0.753   1.856   1.357 -1.5167 -1.0002 -2.7797
  580SOL     OW 1738   1.505   2.197   0.215 -0.2051  0.0666  0.0628
  580SOL    HW1 1739   1.553   2.285   0.251 -0.4962  0.6904  3.8279
  580SOL    HW2 1740   1.571   2.128   0.178  0.6692  0.3825  0.7065
  581SOL     OW 1741   1.010   0.463   1.904 -0.3723  0.2870  0.4884
  581SOL    HW1 1742   0.914   0.472   1.879  0.5845 -1.1357 -0.8915
  581SOL    HW2 1743   1.022   0.418   1.996  0.3618 -1.1385  0.8104
  582SOL     OW 1744   0.919   1.344   1.220  0.4885  0.1435  0.0329
  582SOL    HW1 1745   0.853   1.270   1.195 -0.6149 -0.5563  0.2026
  582SOL    HW2 1746   0.935   1.344   1.321 -2.7376  0.2691  0.8007
  583SOL     OW 1747   0.538   1.085   2.017  0.0060 -0.0225  0.2036
  583SOL    HW1 1748   0.521   1.111   1.920  0.4827 -2.5833  0.2943
  583SOL    HW2 1749   0.602   1.153   2.064 -2.0763  0.7877 -1.5315
  584SOL     OW 1750   1.967   2.594   0.430 -0.3314  0.3140 -0.0756
  584SOL    HW1 1751   1.870   2.575   0.420  1.1046 -2.0241 -2.4013
  584SOL    HW2 1752   1.992   2.627   0.524 -0.4917 -0.2001 -0.9136
  585SOL     OW 1753   1.797   0.057   2.995  0.3974 -0.0386 -0.7056
  585SOL    HW1 1754   1.709   0.083   3.039 -1.2591  1.4968  1.2423
  585SOL    HW2 1755   1.799   0.091   2.898  0.9122 -0.1043 -1.9487
  586SOL     OW 1756   3.042   2.016   0.535 -0.0030 -0.1284  0.0810
  586SOL    HW1 1757   2.942   2.023   0.533 -2.0667 -1.8938  0.4920
  586SOL    HW2 1758   3.081   2.040   0.626  0.3823  0.0203 -3.4828
  587SOL     OW 1759   1.735   1.837   0.309  0.1770 -0.2849  0.5172
  587SOL    HW1 1760   1.813   1.788   0.349 -1.3956  0.9980  0.2575
  587SOL    HW2 1761   1.771   1.905   0.239  1.5635  1.0825 -5.0126
  588SOL     OW 1762   0.319   0.332   0.702 -0.1961 -0.0319 -0.4308
  588SOL    HW1 1763   0.281   0.322   0.797  0.0300  1.6861 -1.5377
  588SOL    HW2 1764   0.421   0.324   0.690  2.2040 -0.7964 -2.6391
  589SOL     OW 1765   1.234   1.090   1.017  0.0845 -0.2726 -0.1184
  589SOL    HW1 1766   1.314   1.081   0.955 -2.3674 -1.0617 -0.5463
  589SOL    HW2 1767   1.220   1.008   1.076 -0.6926 -1.1712  0.1913
  590SOL     OW 1768   1.386   1.085   0.045  0.1927  0.1278 -0.2208
  590SOL    HW1 1769   1.399   1.169   0.100  0.3205 -1.7234  1.0157
  590SOL    HW2 1770   1.287   1.064   0.020  0.0271 -0.1427 -1.8319
  591SOL     OW 1771   2.528   2.375   2.496  0.1137  0.3024  0.1636
  591SOL    HW1 1772   2.470   2.452   2.494  2.6413 -1.3428  0.9297
  591SOL    HW2 1773   2.567   2.363   2.406 -1.6455  0.5860  0.0062
  592SOL     OW 1774   1.743   2.087   1.239 -0.2177 -0.3490 -0.1814
  592SOL    HW1 1775   1.801   2.010   1.205 -1.8810  1.0556 -1.1702
  592SOL    HW2 1776   1.665   2.055   1.301 -1.0922 -0.5699  0.1880
  593SOL     OW 1777   1.124   0.102   1.175 -0.0301 -0.1574  0.0246
  593SOL    HW1 1778   1.198   0.059   1.117  2.5319  2.0899  0.5876
  593SOL    HW2 1779   1.169   0.182   1.225 -0.2229  0.4570 -2.0640
  594SOL     OW 1780   2.902   0.577   2.414 -0.0370  0.3726 -0.6470
  594SOL    HW1 1781   2.962   0.638   2.357  1.1607  1.0595 -0.2051
  594SOL    HW2 1782   2.930   0.482   2.404  0.0235 -0.0066  0.9878
  595SOL     OW 1783   0.624   2.486   1.183  0.2218  0.0170 -0.1710
  595SOL    HW1 1784   0.529   2.516   1.178  5.6152 -1.5233  0.8149
  595SOL    HW2 1785   0.625   2.385   1.211 -1.1049 -1.1430  0.6349
  596SOL     OW 1786   0.097   0.851   1.210  0.2497 -0.3616  0.0623
  596SOL    HW1 1787   0.082   0.883   1.115 -0.7187  0.3665  1.8005
  596SOL    HW2 1788   0.019   0.883   1.268  0.6445  0.3325 -3.0096
  597SOL     OW 1789   1.577   1.691   0.149 -0.1753 -0.4065  0.2747
  597SOL    HW1 1790   1.473   1.705   0.170 -3.3106 -1.3105 -1.3881
  597SOL    HW2 1791   1.638   1.738   0.217  2.1650  1.8139 -1.5390
  598SOL     OW 1792   0.571   2.757   1.692 -0.4536  0.0618  0.4936
  598SOL    HW1 1793   0.543   2.755   1.596  0.5470  0.3865  0.1494
  598SOL    HW2 1794   0.535   2.668   1.726 -0.3654  0.4216 -1.2774
  599SOL     OW 1795   2.424   1.818   2.985  0.1081 -0.0346 -0.2612
  599SOL    HW1 1796   2.359   1.858   2.923  2.2620  1.0123 -1.7719
  599SOL    HW2 1797   2.515   1.799   2.950 -0.5611 -0.8787  0.9173
  600SOL     OW 1798   0.867   0.905   0.256  0.4752  0.1233  0.1605
  600SOL    HW1 1799   0.876   1.002   0.281  1.5705  0.8998  2.8530
  600SOL    HW2 1800   0.865   0.848   0.342  0.3563 -1.1252 -0.9786
  601SOL     OW 1801   0.864   0.762   0.505  0.4159 -0.0719 -0.4721
  601SOL    HW1 1802   0.833   0.841   0.564 -1.7182 -0.7846 -1.4453
  601SOL    HW2 1803   0.947   0.712   0.546  2.8595  1.0354 -2.2168
  602SOL     OW 1804   1.519   2.834   0.703  0.0793  0.7775 -0.2110
  602SOL    HW1 1805   1.586   2.897   0.744 -0.1301 -1.3819  0.6387
  602SOL    HW2 1806   1.431   2.876   0.675  0.4949 -0.5627 -0.1855
  603SOL     OW 1807   0.712   2.730   2.175  0.1307 -0.2416  0.2357
  603SOL    HW1 1808   0.695   2.824   2.146  1.3963 -2.1876  2.4210
  603SOL    HW2 1809   0.778   2.684   2.109  0.1076 -0.4021 -2.4008
  604SOL     OW 1810   2.848   2.838   2.355  0.3407  0.2029 -0.2488
  604SOL    HW1 1811   2.936   2.830   2.302 -0.3441 -0.7350 -0.2613
  604SOL    HW2 1812   2.851   2.773   2.434 -0.8988 -1.4823  3.2463
  605SOL     OW 1813   2.683   2.128   1.371  0.0314  0.4695 -0.1282
  605SOL    HW1 1814   2.688   2.131   1.476 -2.4320  0.7795  1.9677
  605SOL    HW2 1815   2.631   2.048   1.340 -0.4563  2.4644 -1.1391
  606SOL     OW 1816   0.293   1.490   2.919 -0.0904  0.1546 -0.0578
  606SOL    HW1 1817   0.281   1.570   2.980  3.7783 -1.8282 -1.5626
  606SOL    HW2 1818   0.283   1.519   2.824 -0.8800 -2.1690 -0.0460
  607SOL     OW 1819   0.862   0.063   0.401  0.1221 -0.0255 -0.0886
  607SOL    HW1 1820   0.811   0.099   0.321  0.4132  2.7374 -1.3505
  607SOL    HW2 1821   0.962   0.091   0.397  1.8750  0.0443 -0.7743
  608SOL     OW 1822   1.874   1.120   2.281 -0.3742  0.3504  0.1235
  608SOL    HW1 1823   1.855   1.139   2.375  0.2396 -1.2363 -0.6486
  608SOL    HW2 1824   1.819   1.040   2.245  0.4323  0.0264 -3.4358
  609SOL     OW 1825   0.208   0.306   0.943  0.4888  0.5262  0.2018
  609SOL    HW1 1826   0.256   0.260   1.018 -1.5589 -1.7307 -3.6857
  609SOL    HW2 1827   0.125   0.354   0.971 -1.0187  0.0576  1.6651
  610SOL     OW 1828   0.616   2.776   0.565  0.2902  0.0599  0.4075
  610SOL    HW1 1829   0.697   2.833   0.544 -1.0191 -0.3503  0.5051
  610SOL    HW2 1830   0.606   2.754   0.664 -0.3235 -2.6281 -2.1443
  611SOL     OW 1831   1.738   0.946   2.822  0.1113 -0.0047  0.3804
  611SOL    HW1 1832   1.827   0.924   2.866 -2.6020 -1.3736  0.3654
  611SOL    HW2 1833   1.681   1.009   2.883 -1.9626  2.5281  3.7007
  612SOL     OW 1834   0.760   2.285   2.318  0.5522  0.2186 -0.9344
  612SOL    HW1 1835   0.746   2.200   2.374  0.8580 -0.5148 -0.7758
  612SOL    HW2 1836   0.724   2.372   2.366  2.4278  2.2191  2.7597
  613SOL     OW 1837   0.885   2.469   0.228  0.3835  0.3224 -0.1002
  613SOL    HW1 1838   0.816   2.416   0.285 -1.1270 -2.8015  0.7771
  613SOL    HW2 1839   0.922   2.410   0.155  0.1162  0.9535  2.0115
  614SOL     OW 1840   2.771   2.728   1.391  0.2502  0.5533  0.0049
  614SOL    HW1 1841   2.837   2.785   1.338  0.1794  1.0640 -4.1081
  614SOL    HW2 1842   2.709   2.673   1.330 -2.1951 -0.8678 -2.8625
  615SOL     OW 1843   2.368   1.312   2.976  0.0446 -0.4167  0.0537
  615SOL    HW1 1844   2.348   1.407   3.004  0.6232 -3.1846  0.5260
  615SOL    HW2 1845   2.305   1.287   2.901 -0.5736 -0.6473  0.2794
  616SOL     OW 1846   1.695   0.317   0.443  0.2539 -0.3640 -0.1185
  616SOL    HW1 1847   1.714   0.286   0.348  0.7725  0.2769  1.7619
  616SOL    HW2 1848   1.594   0.303   0.465 -3.0694 -0.8110  0.7539
  617SOL     OW 1849   1.118   1.024   3.006  0.2364  0.5121  0.2968
  617SOL    HW1 1850   1.114   1.086   2.929 -1.9498 -0.0093  0.3909
  617SOL    HW2 1851   1.083   0.929   2.984 -2.8597 -4.5372 -1.4327
  618SOL     OW 1852   0.654   0.141   1.855 -0.0334  0.1229 -0.4343
  618SOL    HW1 1853   0.716   0.130   1.932  0.2894  2.1830  1.9453
  618SOL    HW2 1854   0.605   0.055   1.832  2.6118  0.6581  0.1079
  619SOL     OW 1855   2.836   1.183   1.456 -0.3098  0.5151  1.1887
  619SOL    HW1 1856   2.879   1.245   1.389 -1.7419  1.0275  1.8382
  619SOL    HW2 1857   2.810   1.235   1.542  2.9353 -0.4273 -0.9350
  620SOL     OW 1858   2.172   0.905   2.778  0.4706  0.2128  0.0965
  620SOL    HW1 1859   2.128   0.861   2.697 -0.5610  0.2363  0.4822
  620SOL    HW2 1860   2.094   0.925   2.840 -1.1003  1.0292 -1.6836
  621SOL     OW 1861   2.505   2.857   1.339  0.3055 -0.4330  0.0297
  621SOL    HW1 1862   2.537   2.848   1.242 -1.3529  0.2175  0.4688
  621SOL    HW2 1863   2.580   2.826   1.398 -0.8332  2.0991 -2.3037
  622SOL     OW 1864   1.380   0.955   2.672 -0.2971 -0.2043 -0.2483
  622SOL    HW1 1865   1.302   1.006   2.697  0.9458  0.5229  2.3887
  622SOL    HW2 1866   1.417   0.908   2.755  2.2047 -0.3097  0.5398
  623SOL     OW 1867   1.256   0.519   2.986  0.2868 -0.0152 -0.0283
  623SOL    HW1 1868   1.344   0.539   3.025 -2.5917  2.6942 -0.5340
  623SOL    HW2 1869   1.255   0.531   2.885  0.2611  0.6748  0.0277
  624SOL     OW 1870   1.874   0.699   0.146 -0.0309  0.8399 -0.4816
  624SOL    HW1 1871   1.851   0.794   0.157 -0.7532 -0.8632  1.9559
  624SOL    HW2 1872   1.968   0.685   0.110  0.8548  0.4431 -2.3761
  625SOL     OW 1873   1.152   1.336   1.052 -0.3065  0.4914  0.1574
  625SOL    HW1 1874   1.177   1.233   1.048  0.6504  0.6690  0.3386
  625SOL    HW2 1875   1.065   1.339   1.109 -1.2765  1.7088  0.3252
  626SOL     OW 1876   1.581   1.126   2.950  0.8491 -0.3760 -0.1234
  626SOL    HW1 1877   1.515   1.098   3.023 -2.4698 -1.4578  3.7844
  626SOL    HW2 1878   1.529   1.183   2.884  3.0820  1.4192 -2.0796
  627SOL     OW 1879   0.952   2.965   2.126 -0.1860 -0.0481 -0.2950
  627SOL    HW1 1880   0.936   2.879   2.075 -1.9769 -0.5971  0.8386
  627SOL    HW2 1881   1.044   3.003   2.111 -2.1653 -0.2454 -1.0608
  628SOL     OW 1882   2.439   0.218   2.090  0.4173 -0.3356 -0.0226
  628SOL    HW1 1883   2.488   0.194   2.001  0.9369 -0.8972 -0.6576
  628SOL    HW2 1884   2.496   0.207   2.169  0.2514 -0.2550 -2.3623
  629SOL     OW 1885   0.751   0.942   2.990 -0.2841  0.8339 -0.1324
  629SOL    HW1 1886   0.812   0.980   2.909  2.0859 -0.5677 -4.9281
  629SOL    HW2 1887   0.809   0.885   3.051  0.1889 -0.0644 -1.0738
  630SOL     OW 1888   1.311   0.233   2.036  0.1558 -0.4240  0.4069
  630SOL    HW1 1889   1.223   0.261   2.087 -0.0878  1.9228  0.4640
  630SOL    HW2 1890   1.395   0.271   2.077 -0.7964  0.3226 -1.6654
  631SOL     OW 1891   3.088   0.621   0.598  0.7565 -0.2992 -0.4630
  631SOL    HW1 1892   3.081   0.523   0.579 -0.8393 -0.5211  0.0688
  631SOL    HW2 1893   0.022   0.673   0.519  1.2620  0.5569  2.1034
  632SOL     OW 1894   2.197   1.132   1.164 -0.3394 -0.1902  0.6942
  632SOL    HW1 1895   2.098   1.156   1.180 -0.5147 -0.1204 -1.0633
  632SOL    HW2 1896   2.216   1.033   1.160  2.9649 -0.5541 -0.2863
  633SOL     OW 1897   1.566   0.666   0.986  0.1256  0.2028  0.2250
  633SOL    HW1 1898   1.479   0.709   1.003 -4.2616 -0.3502 -0.3796
  633SOL    HW2 1899   1.640   0.736   0.972  3.7302  1.2153 -0.2261
  634SOL     OW 1900   1.873   3.086   1.056  0.7755 -0.2733  0.1506
  634SOL    HW1 1901   1.966   3.051   1.040 -2.3318 -0.1940 -0.4013
  634SOL    HW2 1902   1.804   3.014   1.028 -3.8881  0.5589  2.6215
  635SOL     OW 1903   1.543   1.004   1.143 -0.1876  0.1833 -0.3956
  635SOL    HW1 1904   1.543   1.030   1.043 -1.3293 -0.6672 -0.6018
  635SOL    HW2 1905   1.589   1.076   1.197  0.5568 -0.7782 -1.3521
  636SOL     OW 1906   1.037   0.738   0.881  0.0211  0.3505 -0.4321
  636SOL    HW1 1907   1.113   0.713   0.946 -0.4020  2.0335  4.8529
  636SOL    HW2 1908   1.015   0.838   0.877 -1.6208 -0.1740  0.9768
  637SOL     OW 1909   2.075   2.232   0.443  0.8732 -0.4680 -0.2076
  637SOL    HW1 1910   2.173   2.266   0.439 -1.9033 -1.6185 -1.1576
  637SOL    HW2 1911   2.036   2.255   0.533 -1.7690  1.2479 -0.3449
  638SOL     OW 1912   1.697   2.905   2.757  0.1021 -0.2501  0.2757
  638SOL    HW1 1913   1.614   2.910   2.809  1.6158 -0.5115  0.0340
  638SOL    HW2 1914   1.737   2.812   2.760  0.5690  1.8761 -0.2183
  639SOL     OW 1915   0.801   2.215   1.313 -0.1201 -0.6457  0.1905
  639SOL    HW1 1916   0.867   2.278   1.266  0.1586 -1.0761  0.2450
  639SOL    HW2 1917   0.840   2.124   1.296  0.9786  2.5128  2.7446
  640SOL     OW 1918   2.856   2.548   0.557 -0.0767 -0.0521  0.1107
  640SOL    HW1 1919   2.865   2.546   0.659 -0.8806  2.0916  1.3550
  640SOL    HW2 1920   2.941   2.576   0.515  0.6347  0.2313  0.3757
  641SOL     OW 1921   0.387   0.498   0.055  0.0847  0.2342  0.3519
  641SOL    HW1 1922   0.458   0.425   0.056 -1.5430  1.7886  0.6152
  641SOL    HW2 1923   0.339   0.491   3.071 -1.6268 -0.9231  1.7243
  642SOL     OW 1924   2.883   0.982   0.833 -0.2795 -0.3833 -0.9661
  642SOL    HW1 1925   2.874   0.947   0.928 -2.0763  1.3124  2.9512
  642SOL    HW2 1926   2.795   1.002   0.791  0.0146 -0.8380  1.5798
  643SOL     OW 1927   0.458   1.757   2.016 -0.1693 -0.2438  0.6103
  643SOL    HW1 1928   0.513   1.747   1.931  1.9875 -0.8871  1.1336
  643SOL    HW2 1929   0.508   1.720   2.097 -1.1004  0.1738 -1.6995
  644SOL     OW 1930   1.658   2.592   0.535 -0.4728  0.7183 -0.1757
  644SOL    HW1 1931   1.692   2.501   0.564 -0.7026  2.7708  2.1759
  644SOL    HW2 1932   1.574   2.583   0.482  1.1076 -0.6162 -1.3091
  645SOL     OW 1933   1.784   2.400   1.063 -0.2022 -0.8813  0.1468
  645SOL    HW1 1934   1.879   2.441   1.042  0.1916  0.3080  0.8769
  645SOL    HW2 1935   1.709   2.423   0.993  1.3120  0.7072 -1.5613
  646SOL     OW 1936   1.173   2.826   0.373  0.3586  0.2876 -0.0127
  646SOL    HW1 1937   1.173   2.722   0.354  0.4808 -2.7557 -1.1026
  646SOL    HW2 1938   1.118   2.871   0.299 -1.8656  0.9492 -1.5690
  647SOL     OW 1939   0.531   2.992   1.837  0.8648  0.2539  0.1077
  647SOL    HW1 1940   0.438   3.020   1.794 -2.6248  2.3984 -2.1226
  647SOL    HW2 1941   0.569   2.903   1.797 -0.2221  0.2182  0.4188
  648SOL     OW 1942   1.908   1.030   1.234 -0.2448 -0.0322 -0.1011
  648SOL    HW1 1943   1.929   0.988   1.327  1.4544 -1.4160  0.0795
  648SOL    HW2 1944   1.900   0.955   1.166  4.8917  2.8099 -1.5306
  649SOL     OW 1945   1.793   1.961   2.677  0.3696 -0.0080  0.2383
  649SOL    HW1 1946   1.881   2.009   2.675 -1.5813  0.6428  3.1107
  649SOL    HW2 1947   1.792   1.887   2.747  0.5043  0.5135  0.4756
  650SOL     OW 1948   2.566   1.715   1.652 -0.3540  0.4218  0.3382
  650SOL    HW1 1949   2.642   1.726   1.722 -2.2854 -0.0846  1.6740
  650SOL    HW2 1950   2.478   1.749   1.691  1.0042  0.0192 -0.4857
  651SOL     OW 1951   1.270   1.673   2.891  0.4713  0.0406 -0.3917
  651SOL    HW1 1952   1.267   1.572   2.892  2.1018 -2.8515  0.3286
  651SOL    HW2 1953   1.344   1.703   2.832 -2.1752 -0.2934 -0.6826
  652SOL     OW 1954   1.219   2.793   3.102  0.4281  0.1983  0.3822
  652SOL    HW1 1955   1.245   2.693   0.009 -2.1148 -2.0270  0.3954
  652SOL    HW2 1956   1.168   2.817   3.015  1.8119  3.8649  3.9433
  653SOL     OW 1957   2.148   2.179   1.183 -0.2937 -0.5172  0.5548
  653SOL    HW1 1958   2.106   2.125   1.259  1.5277 -3.1037 -0.5683
  653SOL    HW2 1959   2.088   2.170   1.098 -1.0022  2.3805 -1.6592
  654SOL     OW 1960   2.688   2.535   2.029  0.5046  0.1249  0.3293
  654SOL    HW1 1961   2.686   2.622   1.976 -0.9105  1.1335  0.1989
  654SOL    HW2 1962   2.753   2.466   1.982  4.6057 -1.8449 -3.0659
  655SOL     OW 1963   2.624   2.161   0.914  0.3822  0.1301  0.1453
  655SOL    HW1 1964   2.697   2.096   0.943 -0.2045  0.9204 -0.4482
  655SOL    HW2 1965   2.553   2.155   0.987 -0.8920  1.1137 -1.2967
  656SOL     OW 1966   0.462   2.625   2.797  0.3244 -0.6740 -0.5652
  656SOL    HW1 1967   0.518   2.682   2.731  1.1726  0.0149  0.2088
  656SOL    HW2 1968   0.436   2.534   2.759  0.3049 -0.3957  0.3013
  657SOL     OW 1969   3.070   0.797   0.259  0.8106 -0.1456  0.4845
  657SOL    HW1 1970   0.034   0.775   0.333  1.3920  0.6163 -2.0931
  657SOL    HW2 1971   0.015   0.815   0.167 -0.9234 -1.4884 -1.7423
  658SOL     OW 1972   1.427   1.881   1.084  0.2349  0.0039  0.1057
  658SOL    HW1 1973   1.343   1.822   1.097 -1.3202 -2.1816  0.8646
  658SOL    HW2 1974   1.408   1.978   1.104  1.0572 -0.4133  0.8717
  659SOL     OW 1975   1.775   0.398   1.287 -0.2267 -0.3587 -0.3915
  659SOL    HW1 1976   1.780   0.295   1.286 -1.3556  1.4545  1.7747
  659SOL    HW2 1977   1.679   0.429   1.261 -1.1707 -1.3710 -0.1079
  660SOL     OW 1978   1.412   1.315   0.427  0.1513  0.2688  0.4292
  660SOL    HW1 1979   1.341   1.242   0.442 -3.1741 -1.9546 -0.9175
  660SOL    HW2 1980   1.435   1.368   0.512 -2.6534  0.3535  0.1394
  661SOL     OW 1981   0.045   1.784   0.440 -0.6227  0.3631 -0.7244
  661SOL    HW1 1982   3.076   1.713   0.450  1.4425  1.5336 -0.7159
  661SOL    HW2 1983   0.012   1.883   0.452  2.6251 -0.9139  3.4515
  662SOL     OW 1984   3.057   0.786   2.253 -0.6128  0.5694 -0.0288
  662SOL    HW1 1985   3.004   0.735   2.186  2.7205  2.8694  2.9873
  662SOL    HW2 1986   3.005   0.872   2.267  5.0065  0.7551 -0.9409
  663SOL     OW 1987   2.042   1.405   1.299 -0.9614 -0.3346 -0.1861
  663SOL    HW1 1988   1.974   1.480   1.322 -2.2703  2.7805 -0.6817
  663SOL    HW2 1989   2.039   1.339   1.378 -0.0073  0.8106 -3.3602
  664SOL     OW 1990   0.739   0.404   0.926 -0.2609 -0.0696 -0.1838
  664SOL    HW1 1991   0.653   0.401   0.971  2.6451 -0.4626 -3.5412
  664SOL    HW2 1992   0.807   0.349   0.974  0.9511  1.4468 -3.1684
  665SOL     OW 1993   1.156   2.885   2.838 -0.1374  0.1826  0.0985
  665SOL    HW1 1994   1.257   2.909   2.829  0.3311 -1.3864  0.7338
  665SOL    HW2 1995   1.104   2.969   2.858 -2.5497 -0.1452  0.6627
  666SOL     OW 1996   0.299   0.484   2.153 -0.4572 -0.1232 -0.0954
  666SOL    HW1 1997   0.308   0.387   2.117  1.1490 -1.9505  1.3201
  666SOL    HW2 1998   0.252   0.479   2.244  1.4232  0.9158  2.2937
  667SOL     OW 1999   1.889   1.403   2.247  0.1487  0.1863 -0.4837
  667SOL    HW1 2000   1.855   1.442   2.159 -0.0339 -2.8074  1.9742
  667SOL    HW2 2001   1.897   1.301   2.247  1.8326  0.7804  0.5569
  668SOL     OW 2002   0.204   1.532   2.612 -0.2024 -0.2681 -0.2404
  668SOL    HW1 2003   0.220   1.433   2.631  0.3873 -1.7926 -0.9475
  668SOL    HW2 2004   0.118   1.561   2.664  0.2460 -1.6617  0.4059
  669SOL     OW 2005   2.222   2.957   2.508  0.5138  0.1233 -0.1841
  669SOL    HW1 2006   2.238   3.043   2.456 -0.8292  1.6991  1.0971
  669SOL    HW2 2007   2.279   2.879   2.478  1.5810 -2.3885  1.3077
  670SOL     OW 2008   2.637   0.932   2.446 -0.0741  0.4611  0.4162
  670SOL    HW1 2009   2.634   0.837   2.486  1.4536  0.1603 -1.0811
  670SOL    HW2 2010   2.620   1.002   2.516 -1.2215 -4.3422 -3.2196
  671SOL     OW 2011   2.442   1.628   0.161 -0.2428  0.3523  0.5558
  671SOL    HW1 2012   2.535   1.587   0.152  0.3322 -2.8502 -0.5093
  671SOL    HW2 2013   2.375   1.593   0.089 -2.3733 -2.7344  0.9202
  672SOL     OW 2014   2.648   1.411   2.258 -0.2034 -0.2607 -0.5479
  672SOL    HW1 2015   2.557   1.377   2.275  0.0830 -2.3962 -1.6854
  672SOL    HW2 2016   2.654   1.510   2.241 -1.1165 -0.0980 -0.4230
  673SOL     OW 2017   0.020   1.470   1.356 -0.1602 -0.4120  0.5311
  673SOL    HW1 2018   0.041   1.530   1.278 -0.0567 -0.8608  1.8658
  673SOL    HW2 2019   3.067   1.388   1.319 -1.8547  0.2929 -1.3239
  674SOL     OW 2020   1.414   1.801   1.887 -0.1997  0.3857 -0.2273
  674SOL    HW1 2021   1.387   1.897   1.887  0.8139 -1.7205 -2.2733
  674SOL    HW2 2022   1.511   1.798   1.915  0.5814 -0.6491 -2.6036
  675SOL     OW 2023   3.020   0.344   1.200  0.1449 -0.0646 -0.0223
  675SOL    HW1 2024   3.033   0.379   1.103  1.2442  0.1235  0.5332
  675SOL    HW2 2025   2.922   0.312   1.212  0.8711  0.5729 -0.7601
  676SOL     OW 2026   2.476   1.199   0.536 -0.2766 -0.2702 -0.5115
  676SOL    HW1 2027   2.467   1.101   0.518  3.0161  0.4101 -1.8852
  676SOL    HW2 2028   2.387   1.234   0.579 -1.3129  1.3295  2.0927
  677SOL     OW 2029   1.535   1.349   2.125 -0.3104  0.3206 -0.1257
  677SOL    HW1 2030   1.541   1.425   2.191  0.9900 -2.4553  0.9105
  677SOL    HW2 2031   1.454   1.354   2.068  3.8635 -0.2085  0.0512
  678SOL     OW 2032   2.470   1.559   1.088 -0.4840 -1.0226 -0.2458
  678SOL    HW1 2033   2.543   1.625   1.115  0.4232 -3.1408  1.2651
  678SOL    HW2 2034   2.407   1.541   1.169 -0.8752 -0.9465  2.1239
  679SOL     OW 2035   0.379   2.605   1.072 -0.1596 -0.4889 -0.5511
  679SOL    HW1 2036   0.304   2.540   1.067  4.1699  0.7004 -2.8549
  679SOL    HW2 2037   0.347   2.687   1.121  0.1777  0.5645 -1.6112
  680SOL     OW 2038   2.921   2.006   1.260 -0.0977 -0.3883  0.1681
  680SOL    HW1 2039   2.931   1.922   1.316  1.0687  3.9709  0.2450
  680SOL    HW2 2040   2.921   2.092   1.318  0.0641  1.6983 -1.6758
  681SOL     OW 2041   0.842   0.731   1.172 -0.3390  0.1906  0.3125
  681SOL    HW1 2042   0.885   0.641   1.188  0.9195 -1.9258 -2.5200
  681SOL    HW2 2043   0.742   0.724   1.146  0.8583  1.3959 -1.5252
  682SOL     OW 2044   1.622   0.010   0.779 -0.0524 -0.0385 -0.5111
  682SOL    HW1 2045   1.601   0.098   0.825 -2.3177  0.7082 -0.0368
  682SOL    HW2 2046   1.707   0.019   0.718 -0.3137  0.2246  1.1684
  683SOL     OW 2047   2.429   1.468   1.739 -0.2295 -0.0314  0.6502
  683SOL    HW1 2048   2.486   1.538   1.694  2.7398 -2.1842 -2.4184
  683SOL    HW2 2049   2.340   1.460   1.686  0.7696  0.6333 -0.6020
  684SOL     OW 2050   0.274   1.845   1.737 -0.8023 -0.2571 -0.2263
  684SOL    HW1 2051   0.318   1.940   1.754 -0.8946  0.1465 -0.9985
  684SOL    HW2 2052   0.189   1.846   1.794 -3.7517  1.7342  2.0648
  685SOL     OW 2053   1.971   1.700   0.396  0.4486  0.0581  0.4623
  685SOL    HW1 2054   1.918   1.661   0.476 -0.7213  1.1659 -1.8893
  685SOL    HW2 2055   2.015   1.629   0.344  1.4763  1.9284  1.4483
  686SOL     OW 2056   0.051   0.250   0.598 -0.3005 -0.2431 -0.1780
  686SOL    HW1 2057   0.138   0.273   0.645  1.8930  0.3541  2.9054
  686SOL    HW2 2058   3.073   0.250   0.664 -3.9151 -1.5316  4.1982
  687SOL     OW 2059   1.407   3.009   2.850  0.1734 -0.1764  0.4284
  687SOL    HW1 2060   1.426   0.006   2.842  2.4315 -0.7165  0.1207
  687SOL    HW2 2061   1.411   2.988   2.948 -0.3002 -0.3616 -2.2951
  688SOL     OW 2062   1.670   1.766   2.351  0.2923  0.4185 -0.7795
  688SOL    HW1 2063   1.757   1.717   2.370  2.1859  0.3932 -0.1858
  688SOL    HW2 2064   1.690   1.842   2.289 -2.1301 -1.1156  2.7767
  689SOL     OW 2065   2.672   1.036   1.857 -0.1781 -0.1365  0.0607
  689SOL    HW1 2066   2.629   1.086   1.935 -0.2345  0.7168  1.9611
  689SOL    HW2 2067   2.755   1.085   1.827 -0.1228  1.8509  1.4984
  690SOL     OW 2068   1.901   1.881   1.138  0.5256 -0.4280  0.1395
  690SOL    HW1 2069   1.992   1.837   1.116 -1.2093 -1.5320 -3.3193
  690SOL    HW2 2070   1.826   1.850   1.073 -0.2112  0.3607 -2.8078
  691SOL     OW 2071   0.731   1.538   1.130 -0.0742  0.7307  0.3718
  691SOL    HW1 2072   0.803   1.475   1.170 -0.9459  0.4822  0.9340
  691SOL    HW2 2073   0.640   1.504   1.142  4.3307 -0.9683 -1.6821
  692SOL     OW 2074   2.116   2.897   2.092  0.3224 -0.4010  0.1065
  692SOL    HW1 2075   2.051   2.971   2.070 -0.7579  0.0676 -1.2962
  692SOL    HW2 2076   2.118   2.870   2.187  0.7202 -0.4229 -1.3563
  693SOL     OW 2077   2.850   1.406   2.434 -0.0824 -0.0712  0.7375
  693SOL    HW1 2078   2.950   1.414   2.416 -1.5204  0.3564 -0.0028
  693SOL    HW2 2079   2.791   1.405   2.352 -1.1147  1.0986 -2.0175
  694SOL     OW 2080   2.208   0.263   1.157  0.5208  0.4006  0.0315
  694SOL    HW1 2081   2.277   0.222   1.215  0.2971  1.1888  0.2374
  694SOL    HW2 2082   2.215   0.362   1.148  0.2448 -0.8275  0.8709
  695SOL     OW 2083   1.142   1.146   2.757  0.1261  0.2109 -0.2312
  695SOL    HW1 2084   1.168   1.238   2.795 -0.6302  0.9932 -1.1853
  695SOL    HW2 2085   1.113   1.154   2.659 -0.9212 -2.9813  0.6250
  696SOL     OW 2086   2.039   0.320   1.727  0.4040 -0.1031 -0.5829
  696SOL    HW1 2087   2.013   0.373   1.649 -0.4808 -1.3643  1.9434
  696SOL    HW2 2088   2.075   0.226   1.701  0.8348 -1.3340 -1.5702
  697SOL     OW 2089   1.484   0.335   2.235  0.2364  0.5366 -0.1363
  697SOL    HW1 2090   1.548   0.392   2.287 -0.1561 -2.5310 -3.6853
  697SOL    HW2 2091   1.443   0.262   2.290 -0.7357 -0.1204 -1.2614
  698SOL     OW 2092   1.913   1.626   2.448 -0.5054 -0.2811  0.5654
  698SOL    HW1 2093   1.912   1.599   2.549 -1.3857  1.7751  1.9327
  698SOL    HW2 2094   1.911   1.550   2.387 -1.7496  1.0570  0.5756
  699SOL     OW 2095   1.670   0.970   0.497  0.8709  0.3970 -0.0946
  699SOL    HW1 2096   1.683   0.958   0.395  1.7508  0.6139  0.3104
  699SOL    HW2 2097   1.738   0.913   0.554  1.4454 -0.9402 -0.7798
  700SOL     OW 2098   1.405   2.995   0.034  0.4047 -0.0521 -0.4442
  700SOL    HW1 2099   1.398   3.052   0.118  1.5285  1.8770 -2.0995
  700SOL    HW2 2100   1.332   2.925   0.029  0.1861 -1.6102  0.7378
  701SOL     OW 2101   0.201   0.587   1.207  0.2463  0.3182  0.4372
  701SOL    HW1 2102   0.190   0.559   1.304 -0.8244  0.5445 -2.9974
  701SOL    HW2 2103   0.162   0.677   1.190  1.0150 -0.2167  0.1451
  702SOL     OW 2104   1.926   0.076   1.507 -0.2587  0.2568 -0.3771
  702SOL    HW1 2105   1.869   0.131   1.441  1.2298 -0.0857 -0.5109
  702SOL    HW2 2106   1.938   3.080   1.478 -0.2245 -2.1635 -0.1728
  703SOL     OW 2107   2.945   0.526   1.382  0.7724  0.2567 -0.6228
  703SOL    HW1 2108   2.881   0.475   1.448 -0.6997 -1.8576  1.7688
  703SOL    HW2 2109   2.990   0.474   1.306  1.1677  0.3758  1.1489
  704SOL     OW 2110   0.996   2.359   1.202  0.1851 -0.4251  0.4743
  704SOL    HW1 2111   1.013   2.435   1.266  0.6894 -0.0409  0.4274
  704SOL    HW2 2112   1.078   2.338   1.147  0.3028 -2.4119 -0.6611
  705SOL     OW 2113   0.075   1.665   2.277  0.0578  0.1578  0.4576
  705SOL    HW1 2114   0.131   1.632   2.200 -1.0724  0.0433 -0.5264
  705SOL    HW2 2115   0.133   1.691   2.356 -0.9191 -1.1864  1.1315
  706SOL     OW 2116   2.529   0.424   2.575  0.3132 -0.0698 -0.0057
  706SOL    HW1 2117   2.434   0.391   2.606 -0.2292 -2.4459 -2.4164
  706SOL    HW2 2118   2.595   0.397   2.643 -2.5912 -2.1972 -0.9769
  707SOL     OW 2119   1.760   2.744   2.425 -0.2598 -0.1709  0.1562
  707SOL    HW1 2120   1.845   2.802   2.417  0.5211 -0.4638 -2.8913
  707SOL    HW2 2121   1.677   2.805   2.411 -0.1111 -2.1289 -1.8628
  708SOL     OW 2122   0.496   2.308   1.639 -0.2534 -0.5431 -0.0891
  708SOL    HW1 2123   0.444   2.356   1.569  0.9981 -0.4603  1.7773
  708SOL    HW2 2124   0.549   2.233   1.595  1.5138 -1.5159  1.1673
  709SOL     OW 2125   2.921   0.771   1.724 -0.2658  0.3989  0.2605
  709SOL    HW1 2126   2.950   0.768   1.824  1.3959  0.5134  1.0705
  709SOL    HW2 2127   2.993   0.809   1.661  1.1083 -0.2764 -1.3252
  710SOL     OW 2128   0.228   0.327   1.470 -0.4717 -0.6439  0.5524
  710SOL    HW1 2129   0.147   0.269   1.450 -0.2749  0.8644 -1.2018
  710SOL    HW2 2130   0.198   0.423   1.470  1.6131  0.5141  0.0499
  711SOL     OW 2131   2.994   2.725   0.920 -0.0459  0.0437 -0.0508
  711SOL    HW1 2132   3.027   2.699   1.016  2.8135 -1.0848  0.6822
  711SOL    HW2 2133   3.067   2.695   0.854  3.6369  1.5037  0.9452
  712SOL     OW 2134   0.376   2.867   2.424 -0.7779 -0.2924 -0.3263
  712SOL    HW1 2135   0.439   2.949   2.435  0.6238  0.7272 -0.2056
  712SOL    HW2 2136   0.434   2.787   2.415  2.3561  1.5307 -0.7303
  713SOL     OW 2137   2.376   0.316   0.354 -0.1657 -0.1136  0.0081
  713SOL    HW1 2138   2.285   0.362   0.350 -1.2408 -1.2070  1.1684
  713SOL    HW2 2139   2.418   0.332   0.263  1.3752  2.1270 -0.4970
  714SOL     OW 2140   1.588   1.455   0.030  0.1933  0.2861 -0.4326
  714SOL    HW1 2141   1.610   1.539   0.076 -0.7201 -0.6132 -2.3154
  714SOL    HW2 2142   1.566   1.379   0.092 -2.3971 -0.2121 -2.0379
  715SOL     OW 2143   0.317   0.493   0.440  0.2661 -0.4308 -0.0415
  715SOL    HW1 2144   0.240   0.486   0.373 -2.2176 -1.2513  0.6166
  715SOL    HW2 2145   0.360   0.405   0.472  0.0230  1.3059 -0.3524
  716SOL     OW 2146   1.215   0.295   1.804 -0.1963 -0.3314 -0.0461
  716SOL    HW1 2147   1.257   0.265   1.892 -0.8545  1.2860  0.9154
  716SOL    HW2 2148   1.135   0.362   1.808 -0.6769  1.4635 -2.8161
  717SOL     OW 2149   0.296   0.457   2.907  0.0513  0.2899 -0.7476
  717SOL    HW1 2150   0.384   0.407   2.881 -2.2163 -1.0254  1.3700
  717SOL    HW2 2151   0.282   0.523   2.833 -1.3982 -0.8812 -1.7039
  718SOL     OW 2152   1.238   0.467   0.284 -0.3109  0.3577 -0.0008
  718SOL    HW1 2153   1.158   0.489   0.345 -3.2990  2.1198  1.3411
  718SOL    HW2 2154   1.312   0.524   0.317 -2.7667 -2.0550  0.1680
  719SOL     OW 2155   2.371   2.274   2.928 -0.5862  0.6723  0.3894
  719SOL    HW1 2156   2.444   2.239   2.865  0.4189  1.9108  1.6806
  719SOL    HW2 2157   2.365   2.223   3.014  1.6438  0.2698 -2.5976
  720SOL     OW 2158   1.102   1.011   1.370  0.1123  0.2605  0.3522
  720SOL    HW1 2159   1.122   1.097   1.428 -0.9522  0.3829 -1.0468
  720SOL    HW2 2160   1.101   0.925   1.421 -1.4692  0.7765 -2.2751
  721SOL     OW 2161   0.010   2.675   1.175  0.2179  0.1166  0.1284
  721SOL    HW1 2162   0.027   2.580   1.212 -0.6119  0.1751  2.9052
  721SOL    HW2 2163   0.089   2.736   1.185 -1.7775 -0.5897  1.3806
  722SOL     OW 2164   0.673   1.812   2.872 -0.1052  0.1926  0.3747
  722SOL    HW1 2165   0.711   1.719   2.893  2.2833 -3.3927  1.7827
  722SOL    HW2 2166   0.693   1.872   2.955  0.8315  0.1608  2.0882
  723SOL     OW 2167   1.932   0.407   0.519 -0.8918  0.9774  0.1761
  723SOL    HW1 2168   1.832   0.380   0.506 -2.6858  0.7168 -0.5907
  723SOL    HW2 2169   1.964   0.395   0.616  1.8741  1.3860  1.4793
  724SOL     OW 2170   0.645   2.176   2.921 -0.2472  0.3623  0.4339
  724SOL    HW1 2171   0.680   2.106   2.987  4.0924  0.1313 -0.0784
  724SOL    HW2 2172   0.677   2.270   2.944  0.2189  4.1336 -0.9275
  725SOL     OW 2173   0.102   0.949   0.960 -0.5470  0.1302 -0.1984
  725SOL    HW1 2174   0.048   0.899   0.891  1.6600 -1.2328 -0.2718
  725SOL    HW2 2175   0.198   0.923   0.954  0.4151 -1.6432 -1.0521
  726SOL     OW 2176   2.444   0.456   0.659  0.0015  0.5948 -0.7907
  726SOL    HW1 2177   2.486   0.373   0.617  1.8803 -0.6967 -1.2832
  726SOL    HW2 2178   2.379   0.514   0.606 -1.1580  0.7446  3.2327
  727SOL     OW 2179   2.106   0.963   2.278  0.8680 -0.1171  0.5717
  727SOL    HW1 2180   2.041   1.039   2.269  0.0916 -2.0409 -1.8361
  727SOL    HW2 2181   2.128   0.949   2.376  0.5003 -1.6613 -1.1665
  728SOL     OW 2182   1.978   2.923   1.435 -0.1908  0.0497  0.7789
  728SOL    HW1 2183   2.027   2.839   1.465 -0.4523  0.2531  0.1343
  728SOL    HW2 2184   1.885   2.899   1.393 -2.0346 -0.0876  0.2104
  729SOL     OW 2185   2.473   0.591   2.250  0.2375  0.2736  0.2685
  729SOL    HW1 2186   2.569   0.565   2.275 -0.7204 -1.2934 -0.8054
  729SOL    HW2 2187   2.462   0.691   2.233  0.0199  0.2722  1.8674
  730SOL     OW 2188   0.829   0.688   1.458  0.0643 -0.3780 -0.5478
  730SOL    HW1 2189   0.794   0.695   1.362 -0.8128 -0.3288 -0.6739
  730SOL    HW2 2190   0.925   0.722   1.462 -1.4594 -1.4301  1.8479
  731SOL     OW 2191   0.283   0.145   0.206 -0.0760 -0.2317  0.4561
  731SOL    HW1 2192   0.347   0.176   0.278  0.1648  0.1416 -0.5889
  731SOL    HW2 2193   0.300   0.187   0.116 -2.3815 -1.0225 -1.2734
  732SOL     OW 2194   0.715   0.377   0.452 -0.2297 -0.0156 -0.3934
  732SOL    HW1 2195   0.680   0.340   0.543  0.1671  1.6774  0.8733
  732SOL    HW2 2196   0.676   0.469   0.428 -1.3315  1.5062 -1.9218
  733SOL     OW 2197   1.704   1.402   2.577  0.1471  0.3261  0.2620
  733SOL    HW1 2198   1.678   1.303   2.585 -0.1303  2.1003 -1.2858
  733SOL    HW2 2199   1.699   1.452   2.665  1.2199  1.1454  0.6145
  734SOL     OW 2200   2.999   1.867   2.230  0.1620 -0.0650 -0.7127
  734SOL    HW1 2201   3.060   1.787   2.226  1.1757  2.1038  0.0242
  734SOL    HW2 2202   2.939   1.873   2.313 -1.9277  2.4320  2.9751
  735SOL     OW 2203   1.939   0.548   1.144 -0.0434  0.3105 -0.5397
  735SOL    HW1 2204   2.036   0.529   1.166 -2.1632  1.7339  0.3543
  735SOL    HW2 2205   1.878   0.491   1.200 -0.9360 -0.6089  1.0032
  736SOL     OW 2206   1.100   1.365   2.975  0.3710 -0.2279 -0.5922
  736SOL    HW1 2207   1.024   1.359   3.045 -2.7210 -0.2069 -0.3853
  736SOL    HW2 2208   1.181   1.401   3.030 -1.4184 -0.1621 -1.2470
  737SOL     OW 2209   3.048   0.292   0.345  0.8480  0.0755 -0.3033
  737SOL    HW1 2210   0.008   0.328   0.271  1.2477  2.1080 -1.6342
  737SOL    HW2 2211   3.091   0.287   0.438  1.4390 -0.6277 -1.4487
  738SOL     OW 2212   0.520   2.497   1.835  0.1615  0.2404 -0.0168
  738SOL    HW1 2213   0.512   2.416   1.772  2.6657  1.8327  0.6806
  738SOL    HW2 2214   0.596   2.471   1.896 -1.0268 -0.7155 -0.6002
  739SOL     OW 2215   1.164   2.969   2.437 -0.2409  0.0997 -0.3216
  739SOL    HW1 2216   1.113   2.883   2.455 -0.2990  2.2180 -1.0164
  739SOL    HW2 2217   1.246   2.949   2.379  0.0143 -0.0635  0.0586
  740SOL     OW 2218   1.925   2.516   1.592  0.0856  0.4686 -0.2547
  740SOL    HW1 2219   1.828   2.523   1.568  0.2019  0.7066  1.8482
  740SOL    HW2 2220   1.952   2.421   1.634 -0.9814 -1.3350 -0.8306
  741SOL     OW 2221   2.253   0.621   0.547  0.0282 -0.0375  0.2104
  741SOL    HW1 2222   2.217   0.704   0.496 -1.3467 -0.6750 -3.4641
  741SOL    HW2 2223   2.213   0.622   0.645  0.6685  0.5183  3.3792
  742SOL     OW 2224   1.453   2.662   2.657 -0.1492 -0.0362 -0.0384
  742SOL    HW1 2225   1.394   2.582   2.642  2.1574  3.2482  1.0582
  742SOL    HW2 2226   1.459   2.686   2.757 -0.1768  2.1435 -1.4597
  743SOL     OW 2227   2.472   0.960   1.500 -0.3669 -0.2574 -0.0936
  743SOL    HW1 2228   2.478   1.058   1.512  0.5924 -1.7429 -1.7526
  743SOL    HW2 2229   2.561   0.929   1.536 -0.6514  2.0005 -0.4331
  744SOL     OW 2230   2.636   0.460   0.873  0.0436 -0.1008  0.2507
  744SOL    HW1 2231   2.742   0.461   0.864  1.3625  1.3542  1.3313
  744SOL    HW2 2232   2.592   0.476   0.781 -0.2114 -0.4655 -0.1633
  745SOL     OW 2233   2.491   1.215   1.686  0.3526  0.1087 -0.4461
  745SOL    HW1 2234   2.463   1.306   1.716 -1.1973 -0.6266 -2.0040
  745SOL    HW2 2235   2.591   1.214   1.669  2.4346 -1.0447  1.3024
  746SOL     OW 2236   1.417   1.708   0.847  0.6134 -0.4653  0.0522
  746SOL    HW1 2237   1.442   1.765   0.929  0.7960  0.5603  2.2831
  746SOL    HW2 2238   1.371   1.624   0.885 -0.1070 -0.1657  2.1266
  747SOL     OW 2239   1.562   1.790   1.595 -0.1608  0.5699  0.4092
  747SOL    HW1 2240   1.462   1.787   1.611  1.0495  2.2138 -1.6243
  747SOL    HW2 2241   1.583   1.760   1.500 -1.8592 -0.2932 -0.1516
  748SOL     OW 2242   0.278   2.866   3.057  0.0163 -0.6994  0.0359
  748SOL    HW1 2243   0.317   2.919   0.030  0.4247 -3.3049 -0.4974
  748SOL    HW2 2244   0.222   2.793   3.097  2.5511  0.2749  3.4031
  749SOL     OW 2245   0.166   1.178   2.410 -0.4056 -0.2343  0.3721
  749SOL    HW1 2246   0.202   1.148   2.323  0.6848  0.8852 -3.1688
  749SOL    HW2 2247   0.115   1.104   2.460  1.2164 -0.1231  2.1651
  750SOL     OW 2248   1.854   0.356   1.923  0.4850 -0.1020  0.1430
  750SOL    HW1 2249   1.901   0.316   1.845 -0.0250  2.1304  0.4280
  750SOL    HW2 2250   1.913   0.412   1.980 -2.4316 -1.0555  0.5300
  751SOL     OW 2251   2.666   0.797   0.483  0.3767  0.3789  0.0461
  751SOL    HW1 2252   2.694   0.733   0.414 -0.2935  0.7534 -0.5136
  751SOL    HW2 2253   2.701   0.767   0.572  1.0308  3.9819 -0.0635
  752SOL     OW 2254   3.042   2.084   0.829 -0.2161 -0.4424 -0.3271
  752SOL    HW1 2255   2.963   2.060   0.890 -1.0036 -1.5745  0.8778
  752SOL    HW2 2256   0.029   2.057   0.867 -4.3073  1.9602  0.3589
  753SOL     OW 2257   1.193   2.600   0.952  0.2832  0.0134 -0.5636
  753SOL    HW1 2258   1.203   2.604   1.052  0.8217 -1.1273 -4.4602
  753SOL    HW2 2259   1.125   2.535   0.918  2.9216 -1.9319 -0.6933
  754SOL     OW 2260   0.260   3.049   1.795  0.5629  0.1847  0.1886
  754SOL    HW1 2261   0.258   2.994   1.877  0.6082  0.7309 -1.2046
  754SOL    HW2 2262   0.182   3.021   1.734  1.3554 -1.6771  1.5951
  755SOL     OW 2263   2.119   0.858   0.496  0.3108  0.2391  0.5147
  755SOL    HW1 2264   2.037   0.789   0.497 -1.9738 -0.6399  0.5801
  755SOL    HW2 2265   2.124   0.909   0.584  2.9668  0.7977  0.2809
  756SOL     OW 2266   2.086   2.299   2.592  1.0513 -0.3221  0.1714
  756SOL    HW1 2267   2.096   2.279   2.694  2.2079  2.7330 -1.5276
  756SOL    HW2 2268   2.082   2.404   2.579  1.2388  0.4891  1.3994
  757SOL     OW 2269   1.930   0.670   0.433 -0.5584 -0.1231  0.1570
  757SOL    HW1 2270   1.899   0.680   0.341  2.4504  0.2715  2.9745
  757SOL    HW2 2271   1.934   0.575   0.463 -0.2272  3.9598 -0.9396
  758SOL     OW 2272   2.248   0.539   1.180  0.7545  0.2506 -0.8350
  758SOL    HW1 2273   2.298   0.613   1.232 -2.4643  1.8601 -0.8667
  758SOL    HW2 2274   2.285   0.530   1.080 -0.6558 -2.4509 -1.7581
  759SOL     OW 2275   2.601   0.564   1.130  0.1895  0.1481  0.0301
  759SOL    HW1 2276   2.571   0.499   1.208 -2.9511 -0.3249  2.4647
  759SOL    HW2 2277   2.600   0.519   1.041 -1.0377  1.9386  0.9088
  760SOL     OW 2278   2.329   1.447   1.319 -0.1699 -0.5365  0.0398
  760SOL    HW1 2279   2.233   1.436   1.282 -2.4769 -0.5982  1.8457
  760SOL    HW2 2280   2.380   1.364   1.293  1.8072  0.3798 -0.4216
  761SOL     OW 2281   0.464   0.232   0.420  0.3586 -0.1123 -1.3402
  761SOL    HW1 2282   0.553   0.279   0.421 -0.9613  1.9964 -2.3535
  761SOL    HW2 2283   0.458   0.162   0.495 -1.3654  0.1448 -0.4197
  762SOL     OW 2284   0.860   2.019   1.116 -0.0448 -0.5090  0.2613
  762SOL    HW1 2285   0.935   1.987   1.057 -1.1925  3.6381 -0.0934
  762SOL    HW2 2286   0.805   1.940   1.142  0.5227  0.7262 -1.7659
  763SOL     OW 2287   1.406   1.148   1.650  0.1510 -0.0793 -0.2039
  763SOL    HW1 2288   1.397   1.136   1.750 -1.3192  2.2153 -4.5969
  763SOL    HW2 2289   1.461   1.072   1.603 -1.0153  1.4172  2.0638
  764SOL     OW 2290   0.201   1.776   2.491  0.7773 -0.0717 -0.2149
  764SOL    HW1 2291   0.216   1.690   2.543  2.7391  0.1182 -0.8816
  764SOL    HW2 2292   0.290   1.828   2.490 -1.7482  2.1362 -0.6009
  765SOL     OW 2293   1.182   2.583   1.238 -0.2693 -0.0052 -0.1619
  765SOL    HW1 2294   1.139   2.615   1.327 -1.8962  0.4779  1.4731
  765SOL    HW2 2295   1.281   2.583   1.243 -0.0505  0.2239  2.0485
  766SOL     OW 2296   2.605   2.277   2.734  0.0464  0.0940 -0.3799
  766SOL    HW1 2297   2.657   2.355   2.772 -0.9483 -0.1960 -0.2719
  766SOL    HW2 2298   2.587   2.308   2.637  2.5261 -0.8269 -1.0068
  767SOL     OW 2299   0.877   1.387   2.513  0.3508  0.1174  0.1910
  767SOL    HW1 2300   0.905   1.421   2.607 -0.1867  2.1787  0.4263
  767SOL    HW2 2301   0.775   1.381   2.493  0.2629  0.0601  0.0199
  768SOL     OW 2302   1.241   1.847   3.086  0.1713  0.3045 -0.3724
  768SOL    HW1 2303   1.253   1.769   3.020  1.2324 -1.7660  3.8636
  768SOL    HW2 2304   1.278   1.818   0.073  0.2231 -0.4408  0.5156
  769SOL     OW 2305   0.419   2.235   1.296  0.1124  0.1151  0.1410
  769SOL    HW1 2306   0.442   2.217   1.198  0.3435  0.2115 -0.0924
  769SOL    HW2 2307   0.323   2.205   1.315  0.3742  1.3238  0.1736
  770SOL     OW 2308   1.031   1.141   2.490  0.0614 -0.9679 -0.2936
  770SOL    HW1 2309   0.968   1.222   2.510 -0.2584 -1.3582  0.5815
  770SOL    HW2 2310   1.093   1.159   2.411 -0.8372 -0.9680  0.2949
  771SOL     OW 2311   3.068   2.820   2.210  0.0422 -0.3868  0.4488
  771SOL    HW1 2312   0.032   2.860   2.277  2.8895  1.4115 -2.8679
  771SOL    HW2 2313   3.076   2.720   2.213  0.1780  0.7126 -1.8266
  772SOL     OW 2314   2.335   2.268   1.820  0.5539 -0.3167 -0.1961
  772SOL    HW1 2315   2.280   2.275   1.908 -1.3250  0.5804 -0.1222
  772SOL    HW2 2316   2.338   2.351   1.764  0.6713  0.9712 -0.2885
  773SOL     OW 2317   0.646   1.954   1.670  0.1521 -0.0147  0.1647
  773SOL    HW1 2318   0.598   1.989   1.588  0.9492  0.5706 -1.5654
  773SOL    HW2 2319   0.681   2.033   1.725  1.3087  0.8192  0.4203
  774SOL     OW 2320   1.433   0.542   2.075 -0.0734 -0.0593  0.1004
  774SOL    HW1 2321   1.456   0.536   1.976  1.0929 -0.9067 -0.4660
  774SOL    HW2 2322   1.462   0.459   2.125  0.6688  0.2680  3.3251
  775SOL     OW 2323   1.954   2.667   3.077  0.2331  0.5558 -0.1948
  775SOL    HW1 2324   1.904   2.755   3.072 -0.9507  3.1263 -1.1638
  775SOL    HW2 2325   1.977   2.641   2.984 -0.3459  0.3665  1.4670
  776SOL     OW 2326   0.009   0.309   2.057 -0.7677  0.4968  0.1208
  776SOL    HW1 2327   3.084   0.362   1.974  1.4600 -2.3700  0.4076
  776SOL    HW2 2328   0.110   0.289   2.063  0.7387 -1.9604 -0.5516
  777SOL     OW 2329   2.546   2.091   1.866 -0.1063 -0.3300  0.0863
  777SOL    HW1 2330   2.497   2.024   1.928  0.8302  0.6806  0.3127
  777SOL    HW2 2331   2.480   2.163   1.842 -1.1313 -2.6592  0.1957
  778SOL     OW 2332   2.001   0.764   2.117 -0.3823 -0.2441 -0.0678
  778SOL    HW1 2333   2.057   0.792   2.199  1.2920 -2.3361  0.4090
  778SOL    HW2 2334   1.907   0.800   2.107  2.6668  2.4454 -1.4746
  779SOL     OW 2335   2.388   0.943   0.720 -0.5543 -0.1980  0.7013
  779SOL    HW1 2336   2.306   0.891   0.747  2.4412  3.1947 -0.3025
  779SOL    HW2 2337   2.400   0.948   0.619  0.7388  0.3165  0.0578
  780SOL     OW 2338   2.355   0.253   3.047 -0.1026 -0.0665 -0.1259
  780SOL    HW1 2339   2.258   0.236   3.025 -0.4004  0.4821 -1.2419
  780SOL    HW2 2340   2.408   0.166   3.043  1.2713 -0.5838 -0.8294
  781SOL     OW 2341   0.187   2.127   1.370  0.1247  0.6941  0.1943
  781SOL    HW1 2342   0.094   2.133   1.398  1.9597 -0.3163 -2.1457
  781SOL    HW2 2343   0.211   2.031   1.357 -0.9363 -0.7874  0.9934
  782SOL     OW 2344   2.425   2.531   2.867 -0.2921  0.2809  0.1706
  782SOL    HW1 2345   2.527   2.529   2.853  0.5961 -2.4302 -0.0465
  782SOL    HW2 2346   2.386   2.440   2.859  0.5730  0.5134 -1.3777
  783SOL     OW 2347   0.473   1.724   1.312  0.3231  0.0700 -0.1405
  783SOL    HW1 2348   0.497   1.688   1.403  0.8392 -2.9537  1.5057
  783SOL    HW2 2349   0.548   1.775   1.263  1.6772  1.0523  0.4217
  784SOL     OW 2350   1.499   0.568   3.075  0.2047 -0.7898  0.4534
  784SOL    HW1 2351   1.564   0.603   3.002 -2.7321  0.4401  0.1516
  784SOL    HW2 2352   1.563   0.529   0.047 -1.1185  1.6538 -1.0150
  785SOL     OW 2353   2.577   3.095   0.895  0.7355  0.6235 -0.3979
  785SOL    HW1 2354   2.490   3.066   0.844  0.1982  2.4940  0.1598
  785SOL    HW2 2355   2.560   0.048   0.979  2.1187 -0.5216  3.8565
  786SOL     OW 2356   0.912   2.040   1.982 -0.5143  0.0183 -0.1082
  786SOL    HW1 2357   0.908   1.937   1.989  0.3431 -1.3248  0.5711
  786SOL    HW2 2358   0.928   2.096   2.069  2.0074 -0.3268 -0.5259
  787SOL     OW 2359   1.287   0.895   1.182  0.4571  1.0187  0.2987
  787SOL    HW1 2360   1.236   0.925   1.264  1.6638 -1.6845 -0.2473
  787SOL    HW2 2361   1.380   0.932   1.187 -1.2222  1.0128 -1.7702
  788SOL     OW 2362   0.168   0.765   0.445  0.0347 -0.1587 -0.2553
  788SOL    HW1 2363   0.214   0.832   0.383  2.4594  1.5645  0.2417
  788SOL    HW2 2364   0.235   0.696   0.479  1.0459  1.3216  1.4198
  789SOL     OW 2365   0.061   1.935   1.126 -0.1580 -0.2300 -0.3060
  789SOL    HW1 2366   0.092   1.973   1.035 -1.1450  0.9634 -0.2509
  789SOL    HW2 2367   3.085   1.988   1.161  1.5582  1.4907 -1.1142
  790SOL     OW 2368   0.968   0.708   2.202 -0.1452 -0.7212 -0.1303
  790SOL    HW1 2369   1.037   0.688   2.132 -0.5492  1.4618 -0.0868
  790SOL    HW2 2370   1.006   0.776   2.269 -0.8545  1.2823  0.2443
  791SOL     OW 2371   1.539   0.677   0.670  0.2809  0.9611  0.0503
  791SOL    HW1 2372   1.601   0.752   0.688 -0.4122 -0.1691  0.2893
  791SOL    HW2 2373   1.565   0.589   0.721 -2.8677 -2.2720  0.3756
  792SOL     OW 2374   1.523   2.729   1.953 -0.2902 -0.1552 -0.4587
  792SOL    HW1 2375   1.465   2.667   2.003  0.0454  2.6211 -0.1325
  792SOL    HW2 2376   1.507   2.728   1.852 -0.7744 -1.1696  0.1275
  793SOL     OW 2377   1.295   0.528   0.696 -0.6463 -0.3326 -0.3229
  793SOL    HW1 2378   1.378   0.595   0.695 -1.5255  1.0421  1.4040
  793SOL    HW2 2379   1.288   0.471   0.779  2.3708  0.1169  0.9452
  794SOL     OW 2380   0.487   0.836   2.016  0.0529 -0.0363  0.2212
  794SOL    HW1 2381   0.388   0.841   1.998 -0.9162  0.0802 -0.5286
  794SOL    HW2 2382   0.510   0.936   2.032  2.7682  2.4264  0.1466
  795SOL     OW 2383   0.359   2.066   2.338  0.3145  0.2543  0.2001
  795SOL    HW1 2384   0.375   2.165   2.363 -0.2102  1.3399 -0.5939
  795SOL    HW2 2385   0.404   2.002   2.404 -1.2324 -0.4836  0.5498
  796SOL     OW 2386   2.663   0.795   1.992  0.0759  0.3757 -0.0560
  796SOL    HW1 2387   2.603   0.805   2.077  0.3198  1.0557  2.8272
  796SOL    HW2 2388   2.669   0.880   1.940 -1.8105 -1.7794 -0.9161
  797SOL     OW 2389   2.859   2.436   3.053  0.7282  0.8244  0.1335
  797SOL    HW1 2390   2.911   2.437   0.037 -1.2744 -0.2673 -2.0521
  797SOL    HW2 2391   2.777   2.370   3.054  0.5414 -2.3160  0.0021
  798SOL     OW 2392   0.049   2.321   2.158  0.3615 -0.0740  0.0857
  798SOL    HW1 2393   0.111   2.343   2.079  0.6923  1.5660  0.6708
  798SOL    HW2 2394   0.084   2.238   2.207 -1.3644  2.1405 -0.9227
  799SOL     OW 2395   0.374   2.166   2.894  0.2189  0.9308 -0.5919
  799SOL    HW1 2396   0.465   2.134   2.929  0.3666 -0.5006 -1.2571
  799SOL    HW2 2397   0.321   2.200   2.971 -0.5421  0.9492  0.3762
  800SOL     OW 2398   0.742   1.983   3.091  0.1826 -0.1661  0.1100
  800SOL    HW1 2399   0.715   1.932   0.071  0.0637  0.9976 -1.0146
  800SOL    HW2 2400   0.838   1.968   3.061 -0.3657  1.3448  0.7985
  801SOL     OW 2401   1.764   1.376   1.514 -0.6152 -0.3447 -0.3716
  801SOL    HW1 2402   1.858   1.351   1.549 -2.2328  1.4787  0.6465
  801SOL    HW2 2403   1.698   1.369   1.589  0.0905  1.8632 -2.1727
  802SOL     OW 2404   2.779   1.199   0.342 -0.1411 -0.0923  0.4690
  802SOL    HW1 2405   2.737   1.246   0.418 -0.5683 -3.0863 -2.7190
  802SOL    HW2 2406   2.827   1.112   0.370 -1.6819  0.6746  2.8132
  803SOL     OW 2407   0.833   1.837   2.669  0.4429 -0.2021  0.1636
  803SOL    HW1 2408   0.758   1.848   2.736  0.0957  0.1594  0.0979
  803SOL    HW2 2409   0.924   1.832   2.707 -1.8271  1.3381 -1.5331
  804SOL     OW 2410   1.551   1.257   0.209 -0.7718  0.3726 -0.0925
  804SOL    HW1 2411   1.503   1.288   0.292  0.8655  1.0721  0.1720
  804SOL    HW2 2412   1.629   1.197   0.229  1.8986 -0.3941 -2.2586
  805SOL     OW 2413   2.534   1.530   2.723 -0.1238 -0.0910 -0.0541
  805SOL    HW1 2414   2.551   1.633   2.719 -0.5629  2.2480  0.2715
  805SOL    HW2 2415   2.557   1.495   2.811 -0.3357 -1.0159 -1.7639
  806SOL     OW 2416   0.427   2.923   0.442 -0.2026 -0.4163 -0.2386
  806SOL    HW1 2417   0.410   3.000   0.512 -0.8170  0.7657 -3.0885
  806SOL    HW2 2418   0.491   2.856   0.472 -0.0208  0.4336  0.9966
  807SOL     OW 2419   1.951   1.561   2.709  0.4997 -0.2142 -0.0440
  807SOL    HW1 2420   1.919   1.649   2.754 -1.7330  3.3393  0.2555
  807SOL    HW2 2421   1.956   1.488   2.782  0.5125  2.2235  1.7384
  808SOL     OW 2422   0.459   1.457   0.805 -0.0164  0.2152  0.6042
  808SOL    HW1 2423   0.514   1.472   0.886 -2.7824  1.5698 -1.5260
  808SOL    HW2 2424   0.384   1.528   0.793 -1.5420 -1.0530 -0.7443
  809SOL     OW 2425   2.431   0.946   0.437 -0.4430 -0.6626 -0.0117
  809SOL    HW1 2426   2.455   0.992   0.348  0.5739  1.9356  2.6184
  809SOL    HW2 2427   2.496   0.868   0.451  1.0390 -1.3810  0.2989
  810SOL     OW 2428   0.879   1.181   0.312  0.0921 -0.0516 -0.4456
  810SOL    HW1 2429   0.801   1.246   0.295  0.5094 -3.6136 -1.3077
  810SOL    HW2 2430   0.906   1.179   0.412 -1.3371  0.1227 -2.4242
  811SOL     OW 2431   1.441   2.617   1.259  0.0379  0.5834  0.3279
  811SOL    HW1 2432   1.470   2.684   1.189 -0.4141 -1.3928  1.3936
  811SOL    HW2 2433   1.513   2.546   1.274 -2.1131 -0.5448 -1.5395
  812SOL     OW 2434   1.184   2.645   1.731 -0.7084  0.2819  0.3812
  812SOL    HW1 2435   1.180   2.717   1.805 -1.3349  2.5506 -1.8153
  812SOL    HW2 2436   1.097   2.642   1.672 -0.4121  2.7835 -0.1752
  813SOL     OW 2437   1.272   0.083   1.630 -0.0698 -0.1897  0.1255
  813SOL    HW1 2438   1.254   0.162   1.688 -2.0731 -1.3642 -0.3349
  813SOL    HW2 2439   1.188   0.020   1.635  0.3868  1.0545 -1.5655
  814SOL     OW 2440   1.286   2.436   2.671 -0.3303 -0.1787 -0.1828
  814SOL    HW1 2441   1.195   2.434   2.618 -3.2199  0.9194 -2.4382
  814SOL    HW2 2442   1.280   2.382   2.755 -2.2813  0.1452 -0.9985
  815SOL     OW 2443   0.817   0.290   2.380  0.4308 -0.2771 -0.2531
  815SOL    HW1 2444   0.915   0.264   2.393 -1.5976 -2.2637 -0.7075
  815SOL    HW2 2445   0.805   0.391   2.372 -0.3527 -1.3408  1.1389
  816SOL     OW 2446   2.096   0.298   2.981 -0.9394 -0.1371 -0.2619
  816SOL    HW1 2447   2.129   0.388   2.952  0.4893  1.0678 -1.3950
  816SOL    HW2 2448   2.065   0.256   2.894  1.8432  0.7787  0.6242
  817SOL     OW 2449   2.214   0.292   2.383  0.1825  0.3752 -0.1588
  817SOL    HW1 2450   2.258   0.202   2.358  2.7719 -1.7642 -0.5239
  817SOL    HW2 2451   2.244   0.328   2.474  0.5932  1.3104 -0.1544
  818SOL     OW 2452   1.662   0.494   0.172 -0.4687 -0.5283 -0.2921
  818SOL    HW1 2453   1.751   0.548   0.183  2.2039  1.5197  1.9239
  818SOL    HW2 2454   1.677   0.393   0.178 -0.3270 -5.1435 -0.7727
  819SOL     OW 2455   2.227   1.639   2.732 -0.2410 -0.2641  0.9717
  819SOL    HW1 2456   2.132   1.609   2.703 -4.3469 -1.5331 -1.1570
  819SOL    HW2 2457   2.261   1.578   2.805  1.4950 -1.5370  1.5593
  820SOL     OW 2458   3.074   1.696   3.076 -0.3849  0.4297  0.4205
  820SOL    HW1 2459   3.042   1.776   3.026 -1.7676 -3.3654  1.8961
  820SOL    HW2 2460   0.068   1.714   3.100 -2.2216  0.7521 -0.7150
  821SOL     OW 2461   0.307   3.030   1.024 -0.7484 -0.2355 -0.3729
  821SOL    HW1 2462   0.393   3.050   0.975  1.7625 -1.3639  0.1938
  821SOL    HW2 2463   0.237   3.075   0.965  1.7513 -0.6604 -1.5021
  822SOL     OW 2464   2.751   2.726   0.147 -0.2382  0.4304 -0.1524
  822SOL    HW1 2465   2.730   2.740   0.244 -1.8696 -0.9458 -3.3361
  822SOL    HW2 2466   2.782   2.809   0.098 -1.8479 -0.7459 -1.1522
  823SOL     OW 2467   1.284   0.559   2.688  0.1129 -0.1446  0.1244
  823SOL    HW1 2468   1.268   0.469   2.648  0.0848  0.7780  0.8996
  823SOL    HW2 2469   1.382   0.585   2.670 -1.0136  2.0254  0.1594
  824SOL     OW 2470   2.775   2.138   1.995 -0.1911  0.6968  0.1847
  824SOL    HW1 2471   2.680   2.136   1.962 -1.9860 -0.2730  2.2423
  824SOL    HW2 2472   2.817   2.227   1.980 -3.0023 -0.4099  1.2761
  825SOL     OW 2473   2.916   2.126   2.732 -0.8541  0.3603 -0.1494
  825SOL    HW1 2474   2.834   2.062   2.727  1.0656 -0.8483 -2.4547
  825SOL    HW2 2475   2.959   2.145   2.643 -1.9778 -1.4936  0.4521
  826SOL     OW 2476   2.408   1.266   2.330  0.3683  0.3043 -0.2882
  826SOL    HW1 2477   2.404   1.200   2.249  2.3487  0.6977  1.3871
  826SOL    HW2 2478   2.319   1.316   2.341 -1.4132  0.1914 -0.4261
  827SOL     OW 2479   2.312   2.400   1.244  0.2562  0.7620 -0.1802
  827SOL    HW1 2480   2.238   2.333   1.217  1.0230  1.5565  1.5744
  827SOL    HW2 2481   2.340   2.391   1.341  3.7071  0.7657  0.0445
  828SOL     OW 2482   0.256   2.921   1.441 -0.3167  0.1785 -0.2078
  828SOL    HW1 2483   0.170   2.927   1.497 -2.0598 -0.5062  1.7382
  828SOL    HW2 2484   0.304   3.010   1.440 -1.4810 -2.1487 -0.9881
  829SOL     OW 2485   1.569   2.523   2.366  0.0144  0.3612 -0.0868
  829SOL    HW1 2486   1.653   2.579   2.367 -2.3299 -0.0591 -0.8402
  829SOL    HW2 2487   1.558   2.478   2.456  0.8962  0.1162 -2.0341
  830SOL     OW 2488   1.005   0.428   0.450 -0.2278  0.0988  0.0597
  830SOL    HW1 2489   0.903   0.407   0.432 -0.2267 -3.1856 -2.4687
  830SOL    HW2 2490   1.007   0.495   0.527  0.5072 -0.4064  1.4205
  831SOL     OW 2491   2.799   1.436   2.863 -0.4434  0.1801 -0.4500
  831SOL    HW1 2492   2.819   1.466   2.959  0.4742  1.1792 -1.1432
  831SOL    HW2 2493   2.865   1.365   2.838  0.6069 -0.5535  0.3456
  832SOL     OW 2494   1.693   1.976   2.175 -0.3076 -0.0985  0.4235
  832SOL    HW1 2495   1.598   2.011   2.170 -1.8416  0.0881 -0.1744
  832SOL    HW2 2496   1.765   2.047   2.151 -1.0588  0.1296 -0.4447
  833SOL     OW 2497   1.064   0.291   2.124  0.1447 -0.2659  0.1787
  833SOL    HW1 2498   1.077   0.283   2.223  3.4115  0.7563 -0.1285
  833SOL    HW2 2499   0.992   0.225   2.101 -0.9681 -1.9958 -0.1742
  834SOL     OW 2500   0.520   1.075   1.746 -0.1417  0.0447  0.6343
  834SOL    HW1 2501   0.526   0.998   1.683 -1.3594 -0.1138 -0.0615
  834SOL    HW2 2502   0.494   1.156   1.693  1.1545 -0.0935 -1.1172
  835SOL     OW 2503   2.680   0.868   0.073 -0.5797  0.3890  0.0328
  835SOL    HW1 2504   2.698   0.816   0.158  0.2716 -2.8287  3.0931
  835SOL    HW2 2505   2.667   0.969   0.091 -0.5885 -0.2678  1.6803
  836SOL     OW 2506   0.995   1.932   0.261 -0.0131 -0.3559 -0.2820
  836SOL    HW1 2507   0.902   1.976   0.273 -0.8242 -1.1622  1.1992
  836SOL    HW2 2508   1.066   2.001   0.233 -1.5004 -0.0539  0.3357
  837SOL     OW 2509   1.682   1.834   0.971 -0.8273 -0.3136  0.2243
  837SOL    HW1 2510   1.690   1.882   0.878  0.4609  0.9115 -2.3039
  837SOL    HW2 2511   1.586   1.855   1.012 -3.5785  1.0281  1.1238
  838SOL     OW 2512   1.016   1.086   2.078 -0.4552  1.0606  0.0048
  838SOL    HW1 2513   0.941   1.015   2.081  1.4305  1.2948 -2.5186
  838SOL    HW2 2514   0.973   1.178   2.051  0.6049 -0.1365  3.1370
  839SOL     OW 2515   0.714   2.039   2.482 -0.1578  0.7973 -0.6652
  839SOL    HW1 2516   0.768   1.970   2.538 -0.0098 -1.2320 -1.9680
  839SOL    HW2 2517   0.691   2.125   2.531 -0.2401  3.1001  0.8596
  840SOL     OW 2518   0.677   2.294   0.326 -0.0380 -0.1775  0.4220
  840SOL    HW1 2519   0.598   2.317   0.265 -0.2350  0.8592  0.9247
  840SOL    HW2 2520   0.665   2.341   0.412 -1.1266 -1.1571 -1.7186
  841SOL     OW 2521   1.639   2.418   0.254 -0.2199  0.2074 -0.3537
  841SOL    HW1 2522   1.569   2.490   0.266 -2.0316  0.7468  0.9269
  841SOL    HW2 2523   1.681   2.422   0.161  1.3162  0.6177  0.3167
  842SOL     OW 2524   0.557   0.747   3.021  0.2120 -0.2993 -0.0205
  842SOL    HW1 2525   0.558   0.732   0.020  1.8603 -1.3978  1.0608
  842SOL    HW2 2526   0.598   0.836   3.001  1.2814  0.2327  1.0571
  843SOL     OW 2527   1.122   0.146   0.835  0.2024 -0.0801  0.3418
  843SOL    HW1 2528   1.023   0.151   0.811 -0.9714 -1.4505 -1.2163
  843SOL    HW2 2529   1.162   0.230   0.874 -0.1188  0.3650 -0.2048
  844SOL     OW 2530   2.879   3.096   2.560  0.1630 -0.4452  0.4360
  844SOL    HW1 2531   2.795   3.064   2.516  1.5842 -2.0510  1.8118
  844SOL    HW2 2532   2.884   3.063   2.652 -0.3696  1.4987 -0.4145
  845SOL     OW 2533   2.606   2.338   1.230 -0.8816 -0.0182  0.1403
  845SOL    HW1 2534   2.517   2.332   1.188  4.5860  1.0954  0.4957
  845SOL    HW2 2535   2.614   2.262   1.298 -0.1822 -1.4812  0.2885
  846SOL     OW 2536   2.792   1.885   2.072  0.2997 -0.2191 -0.3276
  846SOL    HW1 2537   2.774   1.984   2.040  3.2600 -0.0553  0.6585
  846SOL    HW2 2538   2.882   1.879   2.119 -1.6953 -0.4248  0.7939
  847SOL     OW 2539   1.101   0.740   1.470 -0.3542  0.1365 -0.7265
  847SOL    HW1 2540   1.135   0.792   1.557  0.7730  0.4771 -0.1629
  847SOL    HW2 2541   1.146   0.647   1.466  0.1421 -1.7751  1.9373
  848SOL     OW 2542   2.795   2.972   3.092  0.2866 -0.0364 -0.0114
  848SOL    HW1 2543   2.739   3.004   0.069 -4.1485  0.8995  2.2456
  848SOL    HW2 2544   2.895   2.975   0.026  0.4809  0.4103  2.6814
  849SOL     OW 2545   0.760   2.940   2.995  0.3702 -0.0421  0.2035
  849SOL    HW1 2546   0.679   2.952   2.931 -2.9258 -0.7692 -1.5594
  849SOL    HW2 2547   0.776   3.027   3.049 -1.4241  0.6009 -0.2928
  850SOL     OW 2548   1.267   2.892   1.156  0.1441  0.1114 -0.5317
  850SOL    HW1 2549   1.334   2.819   1.134 -0.5834 -0.4010  3.1911
  850SOL    HW2 2550   1.273   2.973   1.092 -1.5376  1.2769 -1.6480
  851SOL     OW 2551   2.609   0.172   1.872  0.0390 -0.4785  0.3559
  851SOL    HW1 2552   2.601   0.268   1.831 -1.1044  3.2061  0.6081
  851SOL    HW2 2553   2.702   0.137   1.853 -0.0124  1.7810 -2.6680
  852SOL     OW 2554   2.027   0.591   2.423  0.1901  0.2500  0.1769
  852SOL    HW1 2555   2.008   0.546   2.335 -1.4969 -0.4129  0.3068
  852SOL    HW2 2556   2.123   0.588   2.439 -1.8048 -0.3407  1.6711
  853SOL     OW 2557   0.042   3.058   0.530 -0.4355 -0.1826  0.4492
  853SOL    HW1 2558   0.016   0.048   0.538  1.5144 -4.1266  1.9496
  853SOL    HW2 2559   3.067   3.004   0.491 -1.0522 -0.8607 -0.8614
  854SOL     OW 2560   2.405   1.428   2.029  0.2311  0.0398  0.2307
  854SOL    HW1 2561   2.424   1.498   2.099 -0.4651  0.1287  1.3763
  854SOL    HW2 2562   2.421   1.468   1.938  1.3191 -0.5658  1.3360
  855SOL     OW 2563   0.815   2.752   0.223 -0.2105 -0.4767 -0.4669
  855SOL    HW1 2564   0.718   2.758   0.180 -3.4899  2.3969 -0.1627
  855SOL    HW2 2565   0.849   2.659   0.226 -0.7302 -0.7869 -0.0228
  856SOL     OW 2566   0.031   0.165   2.668 -0.2805 -0.0054 -0.0871
  856SOL    HW1 2567   0.006   0.123   2.580  0.1246  1.7712  1.5320
  856SOL    HW2 2568   3.067   0.242   2.687 -0.4735 -2.2737 -0.3065
  857SOL     OW 2569   1.114   2.951   1.646  0.4658  0.3840  0.0890
  857SOL    HW1 2570   1.168   2.895   1.587 -2.9670  3.5378  2.3216
  857SOL    HW2 2571   1.034   2.985   1.592 -0.6695  0.3948 -0.1264
  858SOL     OW 2572   2.667   2.391   1.673  0.1706  0.2241  0.1491
  858SOL    HW1 2573   2.652   2.291   1.655  2.2564  1.2090 -1.9540
  858SOL    HW2 2574   2.765   2.414   1.679 -1.4664  1.8354  1.5043
  859SOL     OW 2575   1.505   2.451   1.915 -0.5680 -0.1762  0.1423
  859SOL    HW1 2576   1.409   2.451   1.905  1.6027 -2.6603  1.5297
  859SOL    HW2 2577   1.547   2.494   1.832  0.4704 -3.4652 -1.0093
  860SOL     OW 2578   2.309   2.756   0.077 -0.5359  0.0591  0.0091
  860SOL    HW1 2579   2.261   2.754   3.091 -0.4470  1.9678  1.9559
  860SOL    HW2 2580   2.268   2.688   0.138  1.3701  1.4112  2.5496
  861SOL     OW 2581   2.154   2.874   0.747 -0.2930  0.3500  0.3997
  861SOL    HW1 2582   2.067   2.902   0.700  3.4475 -0.3067 -0.5891
  861SOL    HW2 2583   2.165   2.773   0.732  1.1300 -0.6618  1.9045
  862SOL     OW 2584   1.766   0.042   2.347 -0.9192 -0.0029 -0.0782
  862SOL    HW1 2585   1.797   3.087   2.425  0.2826 -1.8301 -1.3524
  862SOL    HW2 2586   1.848   0.083   2.303  0.8407 -1.8432  2.0857
  863SOL     OW 2587   3.095   0.685   0.895  0.3751  0.5209  0.3029
  863SOL    HW1 2588   0.086   0.673   0.923 -0.5382 -0.1026 -0.1542
  863SOL    HW2 2589   3.086   0.678   0.793  1.4294  1.6673  0.6825
  864SOL     OW 2590   0.295   2.873   2.021  0.1259 -0.1466 -0.2345
  864SOL    HW1 2591   0.391   2.868   2.058 -0.1996  1.6599  1.4579
  864SOL    HW2 2592   0.240   2.935   2.081 -1.2229  1.0633 -2.1865
  865SOL     OW 2593   0.667   1.158   0.036 -0.0870  0.0874  0.0126
  865SOL    HW1 2594   0.709   1.075   3.096  0.4000 -0.3116 -3.9956
  865SOL    HW2 2595   0.581   1.132   0.087 -1.6409 -2.3026 -0.8346
  866SOL     OW 2596   2.750   0.662   0.256  0.5178 -0.1114 -0.2981
  866SOL    HW1 2597   2.850   0.640   0.265  0.8878  1.2854  0.0357
  866SOL    HW2 2598   2.713   0.598   0.187  0.8293 -0.0294  0.1133
  867SOL     OW 2599   0.016   2.961   2.901 -0.1618 -0.5654 -0.4149
  867SOL    HW1 2600   0.042   2.983   2.995  0.6414 -0.0405 -0.8250
  867SOL    HW2 2601   3.020   2.953   2.884  0.8218 -0.9110  1.2980
  868SOL     OW 2602   1.561   3.079   0.499  0.0568 -0.2748  0.2862
  868SOL    HW1 2603   1.529   0.004   0.594  0.3113 -1.3683  0.6156
  868SOL    HW2 2604   1.596   2.981   0.492  1.9259 -3.3070 -1.0611
  869SOL     OW 2605   1.620   1.677   0.678 -0.2046  0.1487  0.5367
  869SOL    HW1 2606   1.567   1.697   0.762  0.7056  2.3985  2.3760
  869SOL    HW2 2607   1.598   1.740   0.602  1.5537 -0.0306  2.0331
  870SOL     OW 2608   1.756   2.003   0.767 -0.0293  0.9395  0.6473
  870SOL    HW1 2609   1.849   1.964   0.773 -0.2242  1.9552  2.4241
  870SOL    HW2 2610   1.761   2.087   0.817 -0.9248 -1.6669 -0.4254
  871SOL     OW 2611   1.383   1.422   1.402  0.3296 -0.0331 -0.6804
  871SOL    HW1 2612   1.320   1.344   1.412  1.6589  0.5839 -1.3256
  871SOL    HW2 2613   1.437   1.416   1.316  1.2911 -0.4925 -0.6966
  872SOL     OW 2614   1.105   1.689   1.801  0.5508 -0.3520  0.1984
  872SOL    HW1 2615   1.024   1.671   1.741 -1.3583 -0.4353 -0.5903
  872SOL    HW2 2616   1.100   1.626   1.882  0.0358 -1.3120 -2.4805
  873SOL     OW 2617   0.945   1.653   2.454  0.0485 -0.3106  0.3076
  873SOL    HW1 2618   0.941   1.553   2.474  1.5346  1.7100 -3.1825
  873SOL    HW2 2619   0.917   1.713   2.536  1.1598  0.0931  1.8074
  874SOL     OW 2620   0.489   1.434   1.104  0.0617 -0.1591  0.0025
  874SOL    HW1 2621   0.400   1.489   1.122 -1.0830  2.5361  0.1777
  874SOL    HW2 2622   0.473   1.349   1.051 -1.1343  1.2884 -0.8633
  875SOL     OW 2623   2.794   0.231   1.226 -0.0248  0.2559 -0.2144
  875SOL    HW1 2624   2.704   0.246   1.185 -0.4461  0.6639  3.4363
  875SOL    HW2 2625   2.785   0.170   1.308 -1.8940 -1.5459  3.2511
  876SOL     OW 2626   0.943   0.794   0.040  0.6790  0.1204 -0.4374
  876SOL    HW1 2627   0.946   0.695   0.061 -0.7121  0.3209  0.7471
  876SOL    HW2 2628   0.909   0.844   0.127 -0.6711 -1.3731  4.4927
  877SOL     OW 2629   0.028   0.168   1.365 -0.3224 -0.2173 -0.1579
  877SOL    HW1 2630   3.098   0.235   1.298  0.4918  0.9408 -1.1969
  877SOL    HW2 2631   3.057   0.113   1.403  3.2215  4.4069 -1.2041
  878SOL     OW 2632   1.704   2.059   0.099 -0.0495  0.5871  0.0723
  878SOL    HW1 2633   1.789   2.109   0.072  1.2919 -0.7966 -2.4970
  878SOL    HW2 2634   1.680   1.991   0.026 -1.0888 -1.0740 -2.8275
  879SOL     OW 2635   2.324   1.959   1.562 -0.0134  0.3156 -0.4289
  879SOL    HW1 2636   2.275   2.044   1.572  1.6801 -2.8744  0.7155
  879SOL    HW2 2637   2.317   1.906   1.651  0.6920 -1.8988  2.2526
  880SOL     OW 2638   0.775   0.206   1.596 -0.0979 -0.3434 -0.0609
  880SOL    HW1 2639   0.746   0.196   1.694 -1.7017  1.2453  3.3786
  880SOL    HW2 2640   0.814   0.299   1.578  1.1607 -0.5854  0.0813
  881SOL     OW 2641   1.022   1.973   2.994 -0.3681  0.4294 -0.5726
  881SOL    HW1 2642   1.063   2.005   2.910 -4.1218  0.5593 -1.1397
  881SOL    HW2 2643   1.083   1.904   3.026 -0.8911  4.3152 -0.8973
  882SOL     OW 2644   2.179   1.300   1.907 -0.5187 -0.6161 -0.0733
  882SOL    HW1 2645   2.231   1.216   1.884 -1.7624 -2.3006  1.1655
  882SOL    HW2 2646   2.230   1.360   1.976 -0.6158 -0.2521  1.3927
  883SOL     OW 2647   1.178   0.664   2.039 -0.0297 -0.1013  0.4073
  883SOL    HW1 2648   1.138   0.609   1.967  0.5115  2.4522  1.9393
  883SOL    HW2 2649   1.263   0.618   2.076  1.5850 -2.7343  0.3430
  884SOL     OW 2650   2.732   0.453   0.026  0.8023  0.0872 -0.2037
  884SOL    HW1 2651   2.776   0.369   0.060  0.6859 -0.3774  1.1810
  884SOL    HW2 2652   2.796   0.513   3.082 -1.5516 -3.8556  0.2360
  885SOL     OW 2653   0.238   2.187   0.370  0.2471  0.1994  0.2424
  885SOL    HW1 2654   0.235   2.108   0.308  0.5170  0.1340 -0.2356
  885SOL    HW2 2655   0.300   2.261   0.333  1.5723 -0.9229 -1.0119
  886SOL     OW 2656   1.982   1.353   2.877  0.1461 -0.0818  0.1043
  886SOL    HW1 2657   2.057   1.285   2.880 -0.3909  0.1004 -3.1506
  886SOL    HW2 2658   1.919   1.330   2.951  2.9044 -0.2294  0.9975
  887SOL     OW 2659   1.745   0.551   1.709 -0.3488  0.1316 -0.2177
  887SOL    HW1 2660   1.767   0.502   1.796 -3.2146 -1.1515 -1.8474
  887SOL    HW2 2661   1.783   0.646   1.713  0.5372 -0.0534  1.3536
  888SOL     OW 2662   2.930   1.157   1.815 -0.0068 -0.0961 -0.0788
  888SOL    HW1 2663   3.006   1.100   1.787  0.4496  2.1614  1.4371
  888SOL    HW2 2664   2.921   1.161   1.916  0.7291 -0.1527  0.4039
  889SOL     OW 2665   2.756   2.616   0.929  0.0414 -0.4127  0.2365
  889SOL    HW1 2666   2.840   2.674   0.923  0.5537 -0.1672  0.7910
  889SOL    HW2 2667   2.771   2.527   0.880  0.6176 -0.2648  1.8564
  890SOL     OW 2668   0.082   2.696   2.635  0.3023  0.1190 -0.1631
  890SOL    HW1 2669   0.101   2.592   2.637  1.2070 -2.6417  2.1202
  890SOL    HW2 2670   0.145   2.748   2.697  0.9472 -0.6827  0.4492
  891SOL     OW 2671   0.443   1.760   0.186  0.0090  0.0620  0.0549
  891SOL    HW1 2672   0.518   1.826   0.212 -0.7675  1.2256  0.7595
  891SOL    HW2 2673   0.485   1.669   0.189 -2.4003  2.5895  0.2312
  892SOL     OW 2674   0.052   2.376   1.223 -0.8825  0.2342 -0.1176
  892SOL    HW1 2675   0.128   2.335   1.277  0.9702 -3.6804 -1.0863
  892SOL    HW2 2676   3.064   2.344   1.258 -1.4234  0.4069  1.8206
  893SOL     OW 2677   0.695   2.848   1.423 -0.2219  0.2533 -0.3393
  893SOL    HW1 2678   0.703   2.950   1.421  0.5993 -0.9865  1.1083
  893SOL    HW2 2679   0.600   2.812   1.431 -0.8976  0.5716 -0.6348
  894SOL     OW 2680   2.344   1.715   0.888 -0.1737  0.2448  0.0863
  894SOL    HW1 2681   2.409   1.665   0.946  1.5076  0.0332 -1.5645
  894SOL    HW2 2682   2.342   1.671   0.792  2.1336 -1.6853 -0.7453
  895SOL     OW 2683   2.646   2.685   1.634  0.1484 -0.1638 -0.0511
  895SOL    HW1 2684   2.630   2.585   1.639  0.3697  0.1421 -4.0587
  895SOL    HW2 2685   2.699   2.707   1.553 -0.9198 -0.2698  0.6753
  896SOL     OW 2686   1.108   0.453   1.433  0.1664  0.3015  0.0021
  896SOL    HW1 2687   1.169   0.374   1.459  1.1589  1.6028 -1.1225
  896SOL    HW2 2688   1.016   0.448   1.476  0.4594 -0.8710  1.3448
  897SOL     OW 2689   0.936   1.659   1.536 -0.5396  0.2623 -0.2822
  897SOL    HW1 2690   0.891   1.747   1.504 -4.1924  3.1789 -1.7495
  897SOL    HW2 2691   1.033   1.659   1.504  0.2833  2.6338 -0.0980
  898SOL     OW 2692   1.463   2.725   1.686  0.1270  0.0267  0.2006
  898SOL    HW1 2693   1.481   2.814   1.638 -2.6873 -2.4418  0.5422
  898SOL    HW2 2694   1.361   2.725   1.701 -1.8266  1.9545  2.7536
  899SOL     OW 2695   1.017   0.512   0.006  0.0599 -0.2196  0.4168
  899SOL    HW1 2696   1.109   0.513   3.066  0.4889 -0.0796  0.8095
  899SOL    HW2 2697   0.952   0.433   3.083 -0.1190 -1.1417 -0.0127
  900SOL     OW 2698   1.435   2.398   2.163  0.2883 -0.2296 -0.8803
  900SOL    HW1 2699   1.474   2.431   2.248 -0.1982 -3.0143  0.2705
  900SOL    HW2 2700   1.479   2.441   2.084 -0.0873 -1.8408  1.5564
  901SOL     OW 2701   1.037   2.230   0.112  0.2601  0.0890  0.3860
  901SOL    HW1 2702   1.028   2.164   0.032  1.7775  1.6879 -2.0877
  901SOL    HW2 2703   1.112   2.210   0.179  2.6215  0.4677 -1.0515
  902SOL     OW 2704   1.563   1.314   0.803 -0.2949 -0.0894 -0.4431
  902SOL    HW1 2705   1.494   1.356   0.739 -1.3082  3.0108 -1.6559
  902SOL    HW2 2706   1.652   1.346   0.766  0.1031 -0.7236  2.5335
  903SOL     OW 2707   2.359   1.032   0.132 -0.0051 -0.4271  0.2703
  903SOL    HW1 2708   2.339   0.992   0.043 -0.2400 -0.7978  2.4334
  903SOL    HW2 2709   2.458   1.054   0.147 -0.6248  1.4187  0.9351
  904SOL     OW 2710   0.863   1.363   0.039  0.0488  0.0224 -0.1061
  904SOL    HW1 2711   0.798   1.288   0.017  0.0345 -0.7794  0.2121
  904SOL    HW2 2712   0.851   1.389   0.137  1.5823 -0.9474  0.3585
  905SOL     OW 2713   2.174   2.825   1.237  0.1492 -1.0667  0.0129
  905SOL    HW1 2714   2.158   2.733   1.286 -1.7819 -1.6713 -0.5760
  905SOL    HW2 2715   2.196   2.896   1.309  0.6456 -1.1703  1.8187
  906SOL     OW 2716   2.670   2.593   1.190  0.0187  0.0315 -0.6299
  906SOL    HW1 2717   2.701   2.591   1.094 -1.0654 -0.6217  2.3573
  906SOL    HW2 2718   2.634   2.504   1.223  0.8759  0.9378 -0.8905
  907SOL     OW 2719   1.219   1.114   0.424 -0.2512  0.0614  0.1008
  907SOL    HW1 2720   1.259   1.023   0.439  0.3705  3.7177 -0.4379
  907SOL    HW2 2721   1.200   1.129   0.328  3.4543 -1.2220  4.1781
  908SOL     OW 2722   1.645   0.233   0.977  0.3532 -0.0048 -0.2949
  908SOL    HW1 2723   1.589   0.176   1.040  0.0216  2.2090 -0.2489
  908SOL    HW2 2724   1.739   0.249   1.005 -2.2604  1.5266  0.2910
  909SOL     OW 2725   2.219   1.041   1.435 -0.3572  0.7765 -0.1871
  909SOL    HW1 2726   2.296   0.980   1.470 -0.6359  0.7194 -0.9344
  909SOL    HW2 2727   2.233   1.080   1.343 -0.9830 -0.0428  3.4145
  910SOL     OW 2728   1.992   0.502   2.158 -0.4897 -0.1253  0.0282
  910SOL    HW1 2729   1.963   0.596   2.140 -2.3100 -0.2529 -1.4855
  910SOL    HW2 2730   2.090   0.482   2.146  3.2818  0.1559  1.5460
  911SOL     OW 2731   2.616   0.932   2.873 -0.2284 -0.1298  0.3267
  911SOL    HW1 2732   2.626   0.840   2.828 -0.7805 -1.4233 -0.6313
  911SOL    HW2 2733   2.642   0.920   2.968 -2.4210  0.1395  0.1936
  912SOL     OW 2734   0.099   1.082   1.798 -0.1234 -0.0487  0.5768
  912SOL    HW1 2735   0.164   1.061   1.724  0.5779 -0.6150  0.9166
  912SOL    HW2 2736   0.081   1.182   1.811 -1.0527  1.6938  1.6064
  913SOL     OW 2737   2.899   2.323   1.341 -0.3520 -0.4126 -0.0889
  913SOL    HW1 2738   2.897   2.280   1.433 -1.6129  1.5889 -1.3916
  913SOL    HW2 2739   2.805   2.338   1.311 -0.8637 -0.4135  0.4373
  914SOL     OW 2740   1.733   0.972   1.892 -0.5277 -0.4770 -0.2505
  914SOL    HW1 2741   1.801   1.050   1.892  1.3321  2.0813 -0.8474
  914SOL    HW2 2742   1.744   0.913   1.805 -2.1838 -0.3680  0.5517
  915SOL     OW 2743   2.278   0.852   1.096  0.5085  0.3931 -0.0660
  915SOL    HW1 2744   2.293   0.812   1.189  1.2157  0.4688  0.1832
  915SOL    HW2 2745   2.354   0.832   1.033 -0.9046 -0.6298  2.0773
  916SOL     OW 2746   1.938   2.133   1.010  0.3033 -0.2005 -0.0295
  916SOL    HW1 2747   1.849   2.181   1.028  0.2712 -1.1757 -0.2023
  916SOL    HW2 2748   1.940   2.035   1.044 -0.9170 -2.6731  0.6608
  917SOL     OW 2749   1.943   2.110   2.475  0.7908 -0.3958  0.0032
  917SOL    HW1 2750   1.850   2.155   2.451  2.3643 -1.8606  0.4551
  917SOL    HW2 2751   2.014   2.179   2.505  0.7734 -1.6966  1.4244
  918SOL     OW 2752   2.011   2.549   2.544  0.3644  0.1764  0.5179
  918SOL    HW1 2753   1.950   2.591   2.613  0.2389 -0.9583 -0.1834
  918SOL    HW2 2754   1.961   2.489   2.476  0.5388 -0.3377  0.5771
  919SOL     OW 2755   1.254   2.792   1.439 -0.2639 -0.8889 -0.3674
  919SOL    HW1 2756   1.219   2.814   1.347  0.0817  4.9144 -0.3052
  919SOL    HW2 2757   1.326   2.718   1.440 -2.7262  0.5901 -1.9956
  920SOL     OW 2758   3.069   0.044   2.380  0.2534 -0.3962  0.1262
  920SOL    HW1 2759   0.017   3.060   2.368  1.4344  2.0452 -1.5130
  920SOL    HW2 2760   2.989   0.037   2.441  0.8668  3.1476  1.4756
  921SOL     OW 2761   0.017   0.824   1.561 -0.3238 -0.4676  0.3953
  921SOL    HW1 2762   3.066   0.873   1.495 -0.8370 -0.5313 -1.5908
  921SOL    HW2 2763   0.094   0.882   1.588  0.0480  1.1402 -2.1623
  922SOL     OW 2764   2.301   2.635   0.366  0.5752  0.3905 -0.3039
  922SOL    HW1 2765   2.232   2.598   0.303  1.4162 -0.1198  0.2500
  922SOL    HW2 2766   2.390   2.585   0.354 -1.1995  0.0177 -2.7968
  923SOL     OW 2767   0.531   1.965   0.628  0.3480  0.1164 -0.7223
  923SOL    HW1 2768   0.604   2.035   0.634 -1.3840 -0.2246 -1.3798
  923SOL    HW2 2769   0.441   2.015   0.622 -2.1366  4.6984 -2.3650
  924SOL     OW 2770   1.222   0.771   0.136  0.1482  0.4318 -0.3776
  924SOL    HW1 2771   1.128   0.791   0.112 -0.6141  1.1786  0.6234
  924SOL    HW2 2772   1.252   0.678   0.100 -0.8161 -1.3296  1.5172
  925SOL     OW 2773   2.783   0.892   1.087  0.8732  0.2372 -0.0286
  925SOL    HW1 2774   2.778   0.824   1.163  0.2140  0.4591 -1.0251
  925SOL    HW2 2775   2.690   0.901   1.044 -1.6427 -2.0441 -0.4365
  926SOL     OW 2776   0.749   0.235   1.288 -0.3884  0.3989  0.1235
  926SOL    HW1 2777   0.675   0.300   1.310  0.9458  2.9214  1.8303
  926SOL    HW2 2778   0.724   0.138   1.315 -3.0746 -0.6610 -1.9086
  927SOL     OW 2779   0.359   1.480   2.381 -0.3742 -0.2135 -0.0144
  927SOL    HW1 2780   0.301   1.501   2.461 -0.4286 -1.8199  1.0603
  927SOL    HW2 2781   0.321   1.406   2.322  0.4559  0.2665 -1.0078
  928SOL     OW 2782   0.237   0.351   2.418  0.0987  0.2314 -0.5498
  928SOL    HW1 2783   0.180   0.297   2.357  1.5755  0.8148  0.4417
  928SOL    HW2 2784   0.282   0.291   2.488 -0.3187 -0.9658 -2.3505
  929SOL     OW 2785   2.936   0.000   1.137  0.3962 -0.5822 -0.0365
  929SOL    HW1 2786   2.922   3.059   1.046  2.9191  0.6136 -1.6128
  929SOL    HW2 2787   2.888   0.093   1.147  0.3943 -0.0981 -1.4415
  930SOL     OW 2788   2.252   0.705   1.729  0.0687 -0.5135  0.0037
  930SOL    HW1 2789   2.263   0.631   1.801  0.3988 -1.6177 -2.8215
  930SOL    HW2 2790   2.196   0.780   1.766 -2.2055  1.9569 -2.9199
  931SOL     OW 2791   1.788   1.284   3.043 -0.3859  1.1339  0.1899
  931SOL    HW1 2792   1.722   1.209   3.012 -2.8754 -1.0966  1.2434
  931SOL    HW2 2793   1.734   1.367   3.069  0.6436  2.2556  1.1433
  932SOL     OW 2794   2.029   1.286   0.400 -0.4271  0.0798 -0.2422
  932SOL    HW1 2795   2.081   1.204   0.377 -0.9480  2.7788  2.7878
  932SOL    HW2 2796   1.944   1.261   0.453  0.4203 -0.3302  2.0934
  933SOL     OW 2797   2.132   1.779   1.058  0.3489 -0.1340 -0.2044
  933SOL    HW1 2798   2.198   1.747   0.983 -1.9131  0.8263 -1.4376
  933SOL    HW2 2799   2.176   1.778   1.149  0.6467 -0.3649 -3.3087
  934SOL     OW 2800   2.043   0.814   2.575 -0.4676 -0.4742 -0.3329
  934SOL    HW1 2801   2.043   0.728   2.515 -1.3565 -0.6467 -2.2228
  934SOL    HW2 2802   1.952   0.863   2.571 -2.8869  1.8909  1.0534
  935SOL     OW 2803   0.245   1.031   0.678 -0.5202 -0.3121 -0.1850
  935SOL    HW1 2804   0.293   1.114   0.640  0.0356  3.3752 -4.3947
  935SOL    HW2 2805   0.145   1.048   0.687 -1.5906 -2.0341  0.9329
  936SOL     OW 2806   0.517   0.014   0.894 -0.0183  0.2376  0.1165
  936SOL    HW1 2807   0.598   3.051   0.890 -1.4270  1.2452 -3.7568
  936SOL    HW2 2808   0.542   0.103   0.851  1.6884  2.0483 -1.4779
  937SOL     OW 2809   3.011   2.989   1.986 -0.3043 -0.4679 -0.0892
  937SOL    HW1 2810   3.010   2.954   2.083  1.4723 -1.1676  1.3361
  937SOL    HW2 2811   3.015   2.910   1.920  2.3295 -1.7710 -3.3726
  938SOL     OW 2812   0.137   2.684   0.105 -0.0413  0.1591 -0.0777
  938SOL    HW1 2813   0.050   2.645   0.141  2.0782 -1.3071 -1.9298
  938SOL    HW2 2814   0.197   2.705   0.184  1.6447 -0.8022 -1.2750
  939SOL     OW 2815   1.070   1.923   0.974  0.8233 -0.6372  0.3159
  939SOL    HW1 2816   1.039   1.900   0.877 -1.1232 -1.6319  0.1454
  939SOL    HW2 2817   1.106   1.840   1.022  1.4822  1.4255 -0.4806
  940SOL     OW 2818   0.017   0.490   2.974 -0.3635  0.2385  0.3654
  940SOL    HW1 2819   0.002   0.433   3.059  0.6729  2.0454 -0.5431
  940SOL    HW2 2820   0.113   0.490   2.947 -2.0513  2.3006 -2.3735
  941SOL     OW 2821   2.045   0.233   2.719 -0.2416 -0.1666  0.1184
  941SOL    HW1 2822   2.016   0.330   2.701 -0.0853 -1.2153 -1.5759
  941SOL    HW2 2823   1.970   0.167   2.698 -0.8379  1.1321 -0.8338
  942SOL     OW 2824   1.264   0.391   0.937 -0.3399  0.0449 -0.4891
  942SOL    HW1 2825   1.291   0.334   1.016  0.6062  1.4592 -1.0514
  942SOL    HW2 2826   1.234   0.481   0.973  1.5800  0.8609  0.0343
  943SOL     OW 2827   1.133   0.883   1.707  0.3192  0.1606 -0.1445
  943SOL    HW1 2828   1.193   0.932   1.772 -1.9014 -0.9846 -0.8878
  943SOL    HW2 2829   1.033   0.892   1.730  1.0365 -2.7200 -0.6762
  944SOL     OW 2830   1.984   0.902   1.460 -0.7013 -0.0841  0.1920
  944SOL    HW1 2831   2.022   0.809   1.443 -1.3403 -1.8298  0.5084
  944SOL    HW2 2832   2.066   0.965   1.475 -0.8645  0.4572 -0.1075
  945SOL     OW 2833   2.692   0.020   0.202 -0.0974  0.2459  0.3080
  945SOL    HW1 2834   2.700   0.028   0.303 -0.1654  0.8194  0.5165
  945SOL    HW2 2835   2.605   3.076   0.173 -1.3981  3.5980  1.3041
  946SOL     OW 2836   2.910   0.698   2.035 -0.4893  0.6056  0.1663
  946SOL    HW1 2837   2.808   0.728   2.025  1.5635  0.0390  2.9075
  946SOL    HW2 2838   2.919   0.599   2.042  1.8935 -0.2341 -2.7461
  947SOL     OW 2839   1.018   2.927   0.157 -0.0953 -0.1167  0.4762
  947SOL    HW1 2840   1.095   2.891   0.101 -0.7141  0.2919 -1.0374
  947SOL    HW2 2841   0.945   2.856   0.176  0.0815  1.9765 -0.1093
  948SOL     OW 2842   2.503   1.923   1.361  0.2779 -0.6050  0.1595
  948SOL    HW1 2843   2.428   1.938   1.428  1.4151 -0.4462 -4.2740
  948SOL    HW2 2844   2.563   1.844   1.387 -1.5745  1.1091 -1.0360
  949SOL     OW 2845   0.110   1.270   2.958  0.1069 -0.2873  0.2562
  949SOL    HW1 2846   0.043   1.293   2.884  1.8584 -1.0531  1.5312
  949SOL    HW2 2847   0.198   1.321   2.939  0.3412  0.2652 -2.8746
  950SOL     OW 2848   0.752   2.545   0.952 -0.9498  0.1389  0.0054
  950SOL    HW1 2849   0.728   2.530   1.049  0.2824  0.1351 -1.2801
  950SOL    HW2 2850   0.677   2.593   0.910  3.4884  0.3328  1.5656
  951SOL     OW 2851   0.612   1.367   2.503  0.3419  0.0920  0.2174
  951SOL    HW1 2852   0.529   1.416   2.465 -1.7178  1.5869  0.1271
  951SOL    HW2 2853   0.604   1.340   2.603  0.6082 -2.5304  0.1641
  952SOL     OW 2854   0.447   0.819   0.591 -0.0848  0.0877 -0.7285
  952SOL    HW1 2855   0.520   0.854   0.650 -2.0103 -1.4584 -2.0154
  952SOL    HW2 2856   0.377   0.889   0.565  1.0143  0.6903 -0.2319
  953SOL     OW 2857   2.656   2.960   2.235  0.1344  0.5925 -0.1708
  953SOL    HW1 2858   2.633   3.031   2.304 -1.9934  1.6297  0.6016
  953SOL    HW2 2859   2.740   2.913   2.267 -0.0062 -0.8421  0.6582
  954SOL     OW 2860   1.467   1.088   0.864 -0.1951  0.2481 -0.3037
  954SOL    HW1 2861   1.502   1.175   0.828  2.0854 -2.8391  1.3922
  954SOL    HW2 2862   1.453   1.021   0.781  0.6305 -1.0585 -1.4907
  955SOL     OW 2863   0.711   1.845   0.226  0.1438  0.3869  0.1912
  955SOL    HW1 2864   0.781   1.771   0.217  0.4079 -0.2431  2.2985
  955SOL    HW2 2865   0.734   1.909   0.301  1.2098  1.9958  1.4908
  956SOL     OW 2866   2.269   0.455   2.120 -0.0713 -0.7956  0.1008
  956SOL    HW1 2867   2.342   0.525   2.133 -0.7095  0.1353 -1.5494
  956SOL    HW2 2868   2.303   0.359   2.146  1.1682 -2.3003  0.1373
  957SOL     OW 2869   2.232   2.342   2.064  0.4707  0.3977  0.5593
  957SOL    HW1 2870   2.258   2.441   2.073  0.4146  0.8311 -2.1612
  957SOL    HW2 2871   2.293   2.282   2.123 -2.9479 -2.6068  0.0263
  958SOL     OW 2872   1.677   1.185   1.318  0.1416 -0.2896 -0.0156
  958SOL    HW1 2873   1.678   1.261   1.390  0.0986 -0.1729  0.0553
  958SOL    HW2 2874   1.773   1.149   1.300  0.7504 -1.7078 -0.5448
  959SOL     OW 2875   2.019   1.783   2.173  0.3186 -0.1384  0.0920
  959SOL    HW1 2876   2.010   1.875   2.126 -0.2436 -0.1519 -0.6706
  959SOL    HW2 2877   2.018   1.797   2.274 -0.0146  0.9302 -2.3015
  960SOL     OW 2878   0.545   0.997   2.803 -0.1227 -0.4442 -0.2590
  960SOL    HW1 2879   0.540   0.916   2.740  2.4288  2.2395  0.9648
  960SOL    HW2 2880   0.591   0.979   2.890 -1.6674  0.6757 -1.0911
  961SOL     OW 2881   0.226   1.270   2.658  0.0120  0.0913  0.8175
  961SOL    HW1 2882   0.249   1.192   2.720  0.3276 -1.0943 -1.3618
  961SOL    HW2 2883   0.227   1.238   2.561  1.7744 -2.7696 -0.5061
  962SOL     OW 2884   0.543   1.669   2.272 -0.0243 -0.0258 -0.2667
  962SOL    HW1 2885   0.478   1.598   2.303  1.3822  1.3563  2.0750
  962SOL    HW2 2886   0.526   1.756   2.316  1.2124  0.6628  3.2119
  963SOL     OW 2887   2.886   2.031   3.074  0.2012  0.0486  0.1979
  963SOL    HW1 2888   2.832   2.114   3.089  0.9963  1.4422 -0.7321
  963SOL    HW2 2889   2.825   1.950   3.086  0.8016 -0.7443 -2.1531
  964SOL     OW 2890   0.688   2.147   1.861  0.5088  0.6585 -0.0044
  964SOL    HW1 2891   0.639   2.220   1.915 -2.3135  0.0875  0.6278
  964SOL    HW2 2892   0.770   2.110   1.907  0.7278 -0.2440  0.2930
  965SOL     OW 2893   1.587   1.905   0.524  0.2284  0.0318 -0.4605
  965SOL    HW1 2894   1.661   1.957   0.577 -3.1812 -0.9369 -1.9506
  965SOL    HW2 2895   1.626   1.891   0.435 -0.2969 -0.4599  2.4065
  966SOL     OW 2896   2.678   1.503   0.138  0.2453 -0.2928 -0.0770
  966SOL    HW1 2897   2.759   1.478   0.086  0.6300  0.3579  0.2982
  966SOL    HW2 2898   2.651   1.434   0.207  0.6855 -2.1760  0.0554
  967SOL     OW 2899   2.097   0.078   2.051  0.2704  0.0568  0.4734
  967SOL    HW1 2900   2.041   0.135   2.117 -0.5165  1.6964 -0.2048
  967SOL    HW2 2901   2.113   0.123   1.961 -1.1801  0.3167 -2.1840
  968SOL     OW 2902   1.252   0.233   0.151 -0.4229  0.7968 -0.2682
  968SOL    HW1 2903   1.248   0.226   0.052  1.7190 -0.9690  0.6278
  968SOL    HW2 2904   1.249   0.327   0.191  1.3454  0.4836 -0.6203
  969SOL     OW 2905   0.231   1.606   2.074  0.6213  0.0889  0.2416
  969SOL    HW1 2906   0.312   1.662   2.053 -0.0304  0.9691  0.7507
  969SOL    HW2 2907   0.259   1.511   2.069 -1.6650  1.5853 -2.2880
  970SOL     OW 2908   1.928   2.731   1.153 -0.3341  0.6185  0.0937
  970SOL    HW1 2909   2.003   2.780   1.205  1.2874  1.4108  2.2666
  970SOL    HW2 2910   1.972   2.658   1.092  1.9186 -1.5710 -0.8394
  971SOL     OW 2911   2.245   2.367   0.752 -0.1996 -0.1346 -0.2833
  971SOL    HW1 2912   2.271   2.392   0.848 -0.3839  1.4301 -0.2727
  971SOL    HW2 2913   2.324   2.328   0.700  1.5549  1.8170  1.3103
  972SOL     OW 2914   0.009   0.959   2.494 -0.1371 -0.3268 -0.4292
  972SOL    HW1 2915   0.060   0.879   2.463 -1.1463  2.4016  2.8387
  972SOL    HW2 2916   3.076   0.943   2.589  1.9331 -0.8913 -0.5336
  973SOL     OW 2917   0.627   0.269   0.703 -0.2740  0.2085 -0.2154
  973SOL    HW1 2918   0.686   0.333   0.757 -1.2789 -0.0765 -0.3463
  973SOL    HW2 2919   0.685   0.185   0.687 -2.1354  3.9736 -0.0621
  974SOL     OW 2920   2.360   1.054   1.861 -0.5585  0.4573 -0.0138
  974SOL    HW1 2921   2.428   1.116   1.815 -0.0807  0.2107  0.3504
  974SOL    HW2 2922   2.371   0.957   1.835 -2.4088  0.8258  0.2480
  975SOL     OW 2923   0.036   0.043   0.231 -0.3177 -0.1552 -0.4598
  975SOL    HW1 2924   3.090   0.108   0.290  3.2282 -3.6041 -1.2353
  975SOL    HW2 2925   0.134   0.077   0.207 -0.1150  0.0469 -0.2025
  976SOL     OW 2926   0.316   1.783   0.860 -0.2880 -0.0911  0.2907
  976SOL    HW1 2927   0.317   1.740   0.949  0.7129  0.8261 -2.6478
  976SOL    HW2 2928   0.265   1.726   0.790 -0.2713 -0.0547  2.3930
  977SOL     OW 2929   0.969   1.866   0.706 -0.1956  0.2871  0.2488
  977SOL    HW1 2930   0.998   1.792   0.637  2.4280 -2.1744 -2.4814
  977SOL    HW2 2931   0.883   1.850   0.744  1.8637  2.2794 -1.7420
  978SOL     OW 2932   0.109   0.837   0.048  0.2901  0.0559 -0.5688
  978SOL    HW1 2933   0.148   0.783   3.072 -0.5073 -0.1044  1.6273
  978SOL    HW2 2934   0.073   0.929   0.020 -0.4590  3.3921  2.4826
  979SOL     OW 2935   1.764   1.455   0.677  0.6083  0.0308  0.2740
  979SOL    HW1 2936   1.858   1.478   0.707  0.1643  0.2606  1.7147
  979SOL    HW2 2937   1.704   1.543   0.675 -0.8538  2.6367  1.6423
  980SOL     OW 2938   0.662   2.359   2.041  0.4282 -0.0418 -0.0529
  980SOL    HW1 2939   0.731   2.407   1.981  1.3360  0.1468 -1.4996
  980SOL    HW2 2940   0.702   2.315   2.126  0.0354  0.7455  2.0582
  981SOL     OW 2941   2.366   0.930   2.972 -0.1271  0.0865  0.3401
  981SOL    HW1 2942   2.286   0.919   2.916  0.0063  0.4257  0.4503
  981SOL    HW2 2943   2.448   0.942   2.914  1.0189  2.3215  5.0647
  982SOL     OW 2944   0.003   2.635   1.949  0.2460  0.0672 -0.1439
  982SOL    HW1 2945   3.066   2.635   2.041  1.3218 -0.2867 -1.1853
  982SOL    HW2 2946   0.104   2.608   1.956 -0.1646 -2.4528  0.4319
  983SOL     OW 2947   1.942   0.458   1.522  0.6823 -0.7079 -0.1652
  983SOL    HW1 2948   1.916   0.431   1.429 -1.3903  0.6725 -1.5617
  983SOL    HW2 2949   1.864   0.470   1.588 -0.5305 -4.8060 -1.3530
  984SOL     OW 2950   1.926   2.962   2.533  0.1056  0.6162 -0.5550
  984SOL    HW1 2951   2.027   2.953   2.520 -0.1146 -2.4811 -0.9675
  984SOL    HW2 2952   1.909   2.978   2.636 -0.1334  1.2454 -0.9004
  985SOL     OW 2953   1.584   1.356   1.713 -0.1172  0.1673  0.0885
  985SOL    HW1 2954   1.523   1.277   1.691 -1.2878  1.8563 -3.1214
  985SOL    HW2 2955   1.531   1.441   1.721  0.2765 -3.8749  0.3325
  986SOL     OW 2956   2.055   2.730   2.335 -0.0850  0.1677 -0.1644
  986SOL    HW1 2957   2.152   2.764   2.332 -0.6531 -0.7993  0.7564
  986SOL    HW2 2958   2.038   2.660   2.406  2.5252  2.7446  0.3643
  987SOL     OW 2959   2.668   1.787   2.841 -0.2773  0.2352 -0.1489
  987SOL    HW1 2960   2.731   1.740   2.775 -0.6404  0.7651 -2.0022
  987SOL    HW2 2961   2.655   1.879   2.806  2.6549 -0.8106 -2.9584
  988SOL     OW 2962   0.097   0.577   1.461  0.1312  0.0978  1.0033
  988SOL    HW1 2963   0.107   0.665   1.512 -0.9033 -3.8389 -2.8782
  988SOL    HW2 2964   0.004   0.562   1.429  0.7114 -2.7210  0.2243
  989SOL     OW 2965   2.066   1.259   1.529  0.0916  0.1745 -0.4361
  989SOL    HW1 2966   2.131   1.181   1.508  0.6837 -0.7547  0.9991
  989SOL    HW2 2967   2.104   1.322   1.603 -2.4007 -1.4924  0.7671
  990SOL     OW 2968   2.890   0.627   2.973 -0.8542  0.4883 -0.3705
  990SOL    HW1 2969   2.987   0.592   2.973 -2.6292 -1.2981  2.7627
  990SOL    HW2 2970   2.891   0.730   2.981  0.6996 -1.2109  1.4038
  991SOL     OW 2971   0.260   1.723   3.067 -0.2175  0.9815  0.5412
  991SOL    HW1 2972   0.265   1.786   2.989 -0.6812 -2.5214  3.5663
  991SOL    HW2 2973   0.337   1.729   0.027  2.2393 -1.8575 -1.2759
  992SOL     OW 2974   2.298   1.781   1.778 -0.0165 -0.2599 -0.1272
  992SOL    HW1 2975   2.203   1.744   1.759 -0.5334 -0.5375 -0.3997
  992SOL    HW2 2976   2.326   1.746   1.868 -1.1224  1.6174  1.3659
  993SOL     OW 2977   0.685   2.923   0.893 -0.1903 -0.5050  0.4085
  993SOL    HW1 2978   0.730   2.900   0.979 -2.6949 -1.1486  0.5530
  993SOL    HW2 2979   0.763   2.939   0.827  0.4991  0.1866 -2.5502
  994SOL     OW 2980   2.686   2.128   1.636 -0.0333 -0.6199 -0.6017
  994SOL    HW1 2981   2.766   2.069   1.614  3.2837  0.3044  0.1231
  994SOL    HW2 2982   2.631   2.088   1.707  2.2534  1.7202 -0.5894
  995SOL     OW 2983   2.049   1.855   2.426 -0.5005 -0.4490 -0.0876
  995SOL    HW1 2984   2.016   1.947   2.453  2.4678 -2.8755 -0.8555
  995SOL    HW2 2985   1.987   1.781   2.460 -0.6976 -1.7640  2.5686
  996SOL     OW 2986   1.860   1.768   2.912 -0.3393  0.5315  0.2972
  996SOL    HW1 2987   1.767   1.800   2.940  3.2072 -1.7992  1.4760
  996SOL    HW2 2988   1.906   1.727   2.999 -0.3844 -1.7883  0.2189
  997SOL     OW 2989   0.908   1.311   1.962 -0.3287 -0.4206 -0.4485
  997SOL    HW1 2990   0.811   1.344   1.964 -0.4362 -1.5990 -0.7741
  997SOL    HW2 2991   0.975   1.387   1.979 -1.5191 -2.9718  0.9613
  998SOL     OW 2992   2.713   2.091   0.526  0.2036 -0.1820 -0.3102
  998SOL    HW1 2993   2.698   2.052   0.434 -0.9706  1.0480 -0.0324
  998SOL    HW2 2994   2.632   2.107   0.587 -2.7681  1.9247 -0.3222
  999SOL     OW 2995   0.040   2.561   0.762  0.0217  0.4842 -1.2260
  999SOL    HW1 2996   0.004   2.467   0.734 -0.7139 -2.9844 -0.1971
  999SOL    HW2 2997   0.115   2.580   0.698  0.5737  0.4356 -2.7557
 1000SOL     OW 2998   1.064   0.042   2.916 -0.4397 -0.0191  0.2019
 1000SOL    HW1 2999   1.001   0.030   2.995 -0.4206 -0.1415 -0.0372
 1000SOL    HW2 3000   1.130   0.114   2.941 -2.9941  0.9132  1.2569
   3.10232   3.10232   3.10232
