1000 SPC/Fw water molecules t=  86.00000 step= 86000
 3000
    1SOL     OW    1   1.925   2.688   0.473  0.4681 -0.1666 -0.0494
    1SOL    HW1    2   1.946   2.617   0.405 -2.3518  3.1850 -1.9792
    1SOL    HW2    3   2.015   2.734   0.489  1.5516  0.0715 -0.4057
    2SOL     OW    4   0.819   1.154   2.019  0.0258 -0.3862  0.7627
    2SOL    HW1    5   0.877   1.073   2.051  3.8692 -0.9813  0.1882
    2SOL    HW2    6   0.796   1.213   2.104  0.6460  0.1162  2.6199
    3SOL     OW    7   1.400   2.589   2.331 -0.5374  0.0873 -0.2962
    3SOL    HW1    8   1.369   2.495   2.361  2.2088 -0.4118  1.2338
    3SOL    HW2    9   1.367   2.611   2.237 -0.6075 -1.7568 -0.9342
    4SOL     OW   10   1.149   1.797   2.633  0.1875  0.0283  0.0767
    4SOL    HW1   11   1.207   1.822   2.557 -3.0130  1.3194  1.0053
    4SOL    HW2   12   1.141   1.880   2.693  1.9568 -1.3162 -0.3630
    5SOL     OW   13   0.513   0.900   1.713 -0.3069  0.1770 -0.1883
    5SOL    HW1   14   0.545   0.968   1.783 -0.4344  0.1569  3.5856
    5SOL    HW2   15   0.560   0.918   1.629  1.1179 -1.6834  3.7895
    6SOL     OW   16   1.900   0.438   2.580 -0.5926 -0.0248 -0.1110
    6SOL    HW1   17   1.918   0.495   2.499 -0.9240 -1.1806  2.5998
    6SOL    HW2   18   1.882   0.499   2.659 -1.2065 -0.5180 -1.6611
    7SOL     OW   19   0.299   0.230   1.697  0.6240 -0.2727 -0.1121
    7SOL    HW1   20   0.297   0.333   1.675 -1.4502  1.5820 -0.4979
    7SOL    HW2   21   0.237   0.205   1.770  0.8725 -1.1349  0.6984
    8SOL     OW   22   1.800   0.155   1.817  0.2999  0.6497  0.0314
    8SOL    HW1   23   1.877   0.221   1.798  0.6010 -1.8652 -0.5228
    8SOL    HW2   24   1.826   0.062   1.776  3.6794 -1.6643 -0.7296
    9SOL     OW   25   0.325   0.028   0.673  0.1649 -0.5830  0.1437
    9SOL    HW1   26   0.296   0.033   0.772 -3.4717  3.9860 -1.7618
    9SOL    HW2   27   0.253   3.059   0.627  1.5381 -0.5855  0.2704
   10SOL     OW   28   0.494   2.038   2.323  0.1192  0.0756 -0.4264
   10SOL    HW1   29   0.558   2.003   2.394 -1.2379  1.1704 -0.5140
   10SOL    HW2   30   0.547   2.073   2.249 -0.8807 -0.0903  3.4407
   11SOL     OW   31   0.688   1.554   0.062  0.2404  0.6384 -0.2489
   11SOL    HW1   32   0.717   1.533   3.054 -1.6979  1.1430  2.7428
   11SOL    HW2   33   0.673   1.465   0.113 -2.2092 -2.0133  1.7185
   12SOL     OW   34   2.943   2.866   1.426 -0.6043  0.1596  0.1008
   12SOL    HW1   35   2.870   2.912   1.372 -0.1845 -3.1434 -2.5647
   12SOL    HW2   36   3.025   2.857   1.372 -1.5688 -1.0620 -0.9461
   13SOL     OW   37   1.045   2.822   0.382 -0.2216 -0.0679 -1.0529
   13SOL    HW1   38   0.982   2.781   0.313  0.0393 -2.1052 -0.0904
   13SOL    HW2   39   1.018   2.918   0.400  2.0994 -2.5870 -2.4114
   14SOL     OW   40   1.650   1.507   1.045  0.2653 -0.0797  0.1817
   14SOL    HW1   41   1.617   1.593   1.004 -1.5700  0.3014  0.8795
   14SOL    HW2   42   1.568   1.443   1.065 -1.7020 -1.6144  0.5176
   15SOL     OW   43   3.026   1.544   2.471 -0.2160 -0.1400 -0.9817
   15SOL    HW1   44   2.930   1.513   2.482  1.2474 -2.6310  1.0985
   15SOL    HW2   45   3.040   1.642   2.509  0.5829  0.9235  1.2753
   16SOL     OW   46   1.529   0.686   2.623 -0.3942 -0.7533  0.4258
   16SOL    HW1   47   1.532   0.772   2.674  0.4004 -5.3014 -0.6985
   16SOL    HW2   48   1.487   0.699   2.533  3.3136  0.4007  0.6840
   17SOL     OW   49   0.145   2.256   2.342 -0.2788 -0.1800  0.5538
   17SOL    HW1   50   0.142   2.290   2.439 -0.9321 -0.5059  0.4868
   17SOL    HW2   51   0.147   2.155   2.328 -1.5724  0.7913 -0.3854
   18SOL     OW   52   1.018   1.328   0.590 -0.5385  0.0427 -0.5868
   18SOL    HW1   53   1.082   1.394   0.640  2.3163  2.9116 -0.0011
   18SOL    HW2   54   1.027   1.237   0.630 -1.3804  1.0696  2.9826
   19SOL     OW   55   2.713   1.531   2.483 -0.0386  0.0586 -0.0674
   19SOL    HW1   56   2.720   1.554   2.582 -0.7280 -0.4075 -0.4825
   19SOL    HW2   57   2.617   1.525   2.444 -2.5215 -4.0214  1.8232
   20SOL     OW   58   2.516   2.163   2.505 -0.0698 -0.5666 -0.4333
   20SOL    HW1   59   2.488   2.167   2.407  0.8993 -1.5353 -0.9995
   20SOL    HW2   60   2.533   2.256   2.540  1.4695 -0.8754  2.0273
   21SOL     OW   61   1.106   2.013   0.134  0.1023  0.0343 -0.9845
   21SOL    HW1   62   1.192   2.058   0.170 -0.5958  1.9874  0.7974
   21SOL    HW2   63   1.039   2.001   0.210 -0.0073 -2.2194  1.9061
   22SOL     OW   64   2.114   2.238   1.463 -1.0819 -0.0627 -0.0293
   22SOL    HW1   65   2.092   2.312   1.530 -0.6922  0.2969  2.1923
   22SOL    HW2   66   2.042   2.211   1.394 -2.5301 -0.6332 -3.6193
   23SOL     OW   67   0.257   1.144   1.239 -0.2510 -0.3182  0.3561
   23SOL    HW1   68   0.211   1.066   1.196 -1.0185 -1.2406  0.8783
   23SOL    HW2   69   0.303   1.120   1.325  0.2856  3.0296 -0.3655
   24SOL     OW   70   2.074   1.747   2.157  0.2955  0.2982  0.4177
   24SOL    HW1   71   2.016   1.748   2.243 -2.4771  0.3927 -2.7746
   24SOL    HW2   72   2.160   1.801   2.169 -1.6711  0.8434 -0.7192
   25SOL     OW   73   1.982   0.405   2.194  0.3572 -0.0760  0.2662
   25SOL    HW1   74   2.069   0.379   2.151  1.2800  1.9347  1.6833
   25SOL    HW2   75   1.906   0.338   2.168  3.2869 -0.5823 -0.4791
   26SOL     OW   76   1.388   0.261   0.471  0.1629  0.1915  0.2043
   26SOL    HW1   77   1.361   0.358   0.462  0.7922  1.1886  0.3893
   26SOL    HW2   78   1.427   0.245   0.563  1.2654  0.7272  0.1830
   27SOL     OW   79   0.847   1.582   0.383  0.3378  0.8760  0.2453
   27SOL    HW1   80   0.767   1.644   0.387 -1.1981  1.0565  1.0785
   27SOL    HW2   81   0.819   1.484   0.389  1.0069  0.6355 -0.0649
   28SOL     OW   82   2.467   1.856   0.936  0.1809 -0.2685  0.2809
   28SOL    HW1   83   2.552   1.907   0.965 -0.9465  1.7647  1.3166
   28SOL    HW2   84   2.393   1.856   1.003  1.5694  0.2316 -0.5367
   29SOL     OW   85   2.313   2.987   1.709  0.4079 -0.6173  0.0359
   29SOL    HW1   86   2.233   2.927   1.692 -0.3361  1.3027 -0.0997
   29SOL    HW2   87   2.365   2.967   1.792 -0.0784 -0.3592 -2.9253
   30SOL     OW   88   0.981   3.029   1.250  1.3029  0.2333  0.0126
   30SOL    HW1   89   1.078   3.047   1.224 -2.3632 -1.8677 -0.5600
   30SOL    HW2   90   0.944   2.951   1.198 -1.5454 -0.5129  1.6105
   31SOL     OW   91   2.983   2.109   1.666  0.5793 -0.2486 -0.0437
   31SOL    HW1   92   3.015   2.018   1.699 -3.2832 -2.7718  0.4575
   31SOL    HW2   93   3.017   2.192   1.724 -1.6129  1.6828  2.6035
   32SOL     OW   94   1.361   1.383   1.856 -0.8231  0.0021 -0.2535
   32SOL    HW1   95   1.288   1.411   1.791  0.3571 -0.5106  0.8604
   32SOL    HW2   96   1.420   1.461   1.886 -1.9231  1.7888  2.4975
   33SOL     OW   97   0.353   0.298   0.022  0.4745  0.3299  0.0186
   33SOL    HW1   98   0.437   0.359   0.039  1.2867  4.5170  3.0153
   33SOL    HW2   99   0.334   0.294   3.012 -1.3183 -1.3614  1.3613
   34SOL     OW  100   2.356   0.079   0.655 -0.4749  0.4362 -0.7661
   34SOL    HW1  101   2.325   0.166   0.693  1.5423 -2.2174 -2.1504
   34SOL    HW2  102   2.375   0.014   0.738 -0.0773  0.3872  3.4687
   35SOL     OW  103   2.613   0.179   1.468  0.0016  0.4366 -0.1895
   35SOL    HW1  104   2.617   0.218   1.561 -0.6403 -1.2708  1.1410
   35SOL    HW2  105   2.562   0.093   1.475 -0.4492 -0.7162  1.4407
   36SOL     OW  106   2.723   2.774   2.731 -0.1438 -0.4630  0.0705
   36SOL    HW1  107   2.633   2.819   2.712  0.1578  0.2053 -0.8539
   36SOL    HW2  108   2.765   2.739   2.642 -1.2933  1.0961 -0.2978
   37SOL     OW  109   1.588   2.417   2.976 -0.3549 -0.0671 -0.0124
   37SOL    HW1  110   1.633   2.509   2.993  0.1707 -0.2490  1.7094
   37SOL    HW2  111   1.491   2.413   3.008  1.1338 -0.7986 -1.3582
   38SOL     OW  112   2.713   0.802   3.077  0.1897 -0.0421  0.8951
   38SOL    HW1  113   2.802   0.818   3.029  2.1108 -0.1759 -4.7212
   38SOL    HW2  114   2.717   0.826   0.088 -1.5288 -0.2734 -0.1335
   39SOL     OW  115   1.758   1.631   1.909  0.0228  0.2957 -0.6012
   39SOL    HW1  116   1.773   1.721   1.958  1.1256  0.4204  0.2058
   39SOL    HW2  117   1.826   1.620   1.832  1.3639  1.3552 -0.2104
   40SOL     OW  118   0.314   0.293   2.812  0.8154  0.2554  0.1566
   40SOL    HW1  119   0.232   0.231   2.815 -0.7956  2.0931  0.2971
   40SOL    HW2  120   0.393   0.235   2.784  1.5366  0.8449 -0.7903
   41SOL     OW  121   1.611   1.201   1.648 -0.1439 -0.5435  0.5805
   41SOL    HW1  122   1.565   1.119   1.604  4.3692  0.8684 -0.3151
   41SOL    HW2  123   1.663   1.168   1.728 -2.3251 -2.6342 -0.8089
   42SOL     OW  124   0.134   0.223   1.903  0.0554 -0.6576  0.0419
   42SOL    HW1  125   0.094   0.312   1.874 -2.2797  2.3817 -2.4978
   42SOL    HW2  126   0.124   0.205   2.008  0.4174 -0.7122  2.9328
   43SOL     OW  127   1.446   1.249   2.097 -0.3429 -0.0844  0.1260
   43SOL    HW1  128   1.527   1.185   2.110  2.6124 -1.6877  0.9166
   43SOL    HW2  129   1.422   1.247   1.998 -3.5641  0.6614 -2.6726
   44SOL     OW  130   3.019   0.058   0.074 -0.4788  0.2561  0.7151
   44SOL    HW1  131   3.016   0.072   3.058  0.7681  0.9116 -2.3049
   44SOL    HW2  132   2.963   0.123   0.122  1.3748 -0.9954 -0.6670
   45SOL     OW  133   0.473   2.129   1.216  0.5014  0.3312  0.1223
   45SOL    HW1  134   0.550   2.178   1.261 -2.5405 -1.9095  1.9216
   45SOL    HW2  135   0.488   2.027   1.203 -4.0165 -2.0693  0.1348
   46SOL     OW  136   2.452   2.684   1.807  0.3364  0.3273 -0.0333
   46SOL    HW1  137   2.470   2.777   1.844  1.5324 -1.0289 -0.8518
   46SOL    HW2  138   2.512   2.609   1.837  0.3705  0.4565  0.5502
   47SOL     OW  139   0.755   1.782   1.256  0.3102  0.2538 -0.0942
   47SOL    HW1  140   0.756   1.682   1.269 -2.1455 -0.0514  2.4275
   47SOL    HW2  141   0.662   1.823   1.247 -0.6138  0.4233  1.1735
   48SOL     OW  142   0.602   2.682   0.318  0.3838 -0.4392  0.5825
   48SOL    HW1  143   0.568   2.676   0.416 -1.2455  0.3385  0.5335
   48SOL    HW2  144   0.552   2.761   0.274  0.8028  1.1159  0.7525
   49SOL     OW  145   2.880   1.786   1.978 -0.1106 -0.3712 -0.4756
   49SOL    HW1  146   2.910   1.736   2.064  0.8290  0.8228  0.4814
   49SOL    HW2  147   2.819   1.730   1.918  1.7976  0.5114 -0.5952
   50SOL     OW  148   1.716   0.864   0.783  0.0285  0.1409  0.0359
   50SOL    HW1  149   1.651   0.796   0.828 -1.6453  0.5599 -0.1025
   50SOL    HW2  150   1.783   0.900   0.854 -0.3389  1.5538 -0.3085
   51SOL     OW  151   1.015   0.646   0.963  0.0069  0.3885 -0.3625
   51SOL    HW1  152   1.016   0.629   1.066 -2.2142 -1.4004  2.8122
   51SOL    HW2  153   1.055   0.567   0.916  0.0697  0.0190 -2.5863
   52SOL     OW  154   1.044   1.517   0.231 -0.1880  0.3077 -0.1872
   52SOL    HW1  155   1.095   1.450   0.289 -1.1092 -0.4828  2.4458
   52SOL    HW2  156   0.955   1.529   0.279  4.6145 -0.1094  1.2185
   53SOL     OW  157   1.357   2.906   2.656  0.0108 -0.5317 -0.0332
   53SOL    HW1  158   1.432   2.842   2.681 -1.8158  3.3374  0.1346
   53SOL    HW2  159   1.297   2.935   2.737  1.2075  0.0961  3.0123
   54SOL     OW  160   1.591   0.749   1.692 -0.0641 -0.7435  0.4585
   54SOL    HW1  161   1.534   0.663   1.671  0.0603 -3.6606 -0.7164
   54SOL    HW2  162   1.562   0.827   1.638 -0.8896 -0.6893  1.4122
   55SOL     OW  163   2.878   2.615   0.338 -0.2447  0.2262  0.6431
   55SOL    HW1  164   2.951   2.675   0.302  0.4141 -0.2768  0.2264
   55SOL    HW2  165   2.791   2.672   0.355 -1.6396 -0.1787  2.6518
   56SOL     OW  166   0.668   2.504   1.842 -0.1049 -0.3119  0.3296
   56SOL    HW1  167   0.576   2.473   1.812 -3.0848 -0.9192 -2.5056
   56SOL    HW2  168   0.681   2.600   1.819  0.7287 -2.1158  0.2594
   57SOL     OW  169   1.824   1.030   2.657  0.0388 -0.2368 -0.8072
   57SOL    HW1  170   1.828   0.969   2.737  0.1703 -0.1649 -1.0444
   57SOL    HW2  171   1.782   0.985   2.578  0.4531 -3.4263  0.3866
   58SOL     OW  172   0.259   1.251   1.881  0.0229  0.1661 -0.2624
   58SOL    HW1  173   0.248   1.184   1.804  1.5687 -1.7736  1.4693
   58SOL    HW2  174   0.317   1.330   1.857 -0.1427  1.5285 -1.1660
   59SOL     OW  175   0.455   2.782   2.326  0.1940 -0.0049 -0.2589
   59SOL    HW1  176   0.528   2.825   2.264  1.3955  0.7234 -0.9062
   59SOL    HW2  177   0.496   2.700   2.373  0.4790 -1.0631 -1.2270
   60SOL     OW  178   2.879   2.352   0.388  0.4578  1.0372 -0.2762
   60SOL    HW1  179   2.980   2.329   0.393  0.1630  0.1537  0.6992
   60SOL    HW2  180   2.858   2.451   0.386  0.9512 -0.6073 -0.7045
   61SOL     OW  181   0.913   2.716   0.599  0.7596 -0.0674  0.2511
   61SOL    HW1  182   0.893   2.616   0.581 -1.6051 -1.7450  0.2826
   61SOL    HW2  183   0.980   2.752   0.529  1.1708  2.9977 -3.7493
   62SOL     OW  184   1.708   2.492   2.639  0.0039 -0.0446  0.5529
   62SOL    HW1  185   1.714   2.473   2.537 -0.2386 -0.1303 -1.5393
   62SOL    HW2  186   1.664   2.415   2.686 -2.2096 -0.4007 -1.8969
   63SOL     OW  187   2.099   0.558   0.083 -0.3092 -0.4647 -0.9149
   63SOL    HW1  188   2.104   0.582   3.072 -2.0934  0.1497  0.5903
   63SOL    HW2  189   2.189   0.573   0.128  0.0361 -0.5772 -0.6215
   64SOL     OW  190   0.842   1.528   2.459 -0.2061 -0.1209 -0.3033
   64SOL    HW1  191   0.917   1.458   2.456  0.8180  0.1599 -0.1243
   64SOL    HW2  192   0.857   1.601   2.533 -1.0805 -0.4593  1.8124
   65SOL     OW  193   1.205   2.946   1.135 -0.9193  0.0813 -0.0792
   65SOL    HW1  194   1.303   2.958   1.106  0.0142 -1.9470  1.2881
   65SOL    HW2  195   1.143   2.956   1.052 -2.2248 -1.0686 -0.5765
   66SOL     OW  196   0.508   1.745   1.611  0.6564  0.1403  0.0653
   66SOL    HW1  197   0.598   1.733   1.570  1.1620 -0.6795  0.3391
   66SOL    HW2  198   0.517   1.764   1.710 -0.9983 -0.6562  0.4021
   67SOL     OW  199   2.334   2.776   2.189 -0.3806  0.5382 -0.5643
   67SOL    HW1  200   2.409   2.718   2.229 -0.7747 -1.5897  0.0192
   67SOL    HW2  201   2.364   2.875   2.195  0.9457  1.8203 -1.1151
   68SOL     OW  202   0.762   1.050   1.595 -0.6652  0.1167 -0.0813
   68SOL    HW1  203   0.703   1.042   1.686 -4.0432 -0.2380  3.4183
   68SOL    HW2  204   0.711   1.103   1.527  0.0101  1.7186  2.8880
   69SOL     OW  205   2.555   2.420   0.151  0.1080 -0.2352  0.1347
   69SOL    HW1  206   2.513   2.482   0.222  0.6063 -0.5467  0.0504
   69SOL    HW2  207   2.561   2.324   0.184 -0.6276 -0.4953 -2.5575
   70SOL     OW  208   2.250   0.863   2.885  0.0085  0.2065 -0.2476
   70SOL    HW1  209   2.351   0.841   2.880  2.5607 -1.3196  1.5464
   70SOL    HW2  210   2.216   0.898   2.793 -1.2333  2.8476  0.1483
   71SOL     OW  211   0.147   2.170   0.567 -0.0233 -0.4304  0.3088
   71SOL    HW1  212   0.057   2.123   0.578  0.3385 -0.5919  2.1103
   71SOL    HW2  213   0.213   2.140   0.637 -0.2244 -1.3530  2.4297
   72SOL     OW  214   2.902   1.770   0.492  0.2058 -0.2381 -0.1637
   72SOL    HW1  215   2.970   1.826   0.547 -1.4238 -0.1401  1.8841
   72SOL    HW2  216   2.937   1.672   0.501  2.4073  2.4279 -0.3926
   73SOL     OW  217   0.970   0.633   0.549  0.2150 -0.1278  0.2211
   73SOL    HW1  218   0.909   0.621   0.468  1.3754 -0.5637 -0.1230
   73SOL    HW2  219   0.921   0.686   0.622 -2.0872  1.9477  1.9124
   74SOL     OW  220   0.180   1.778   1.923  0.0742 -0.3105 -0.2610
   74SOL    HW1  221   0.164   1.754   2.025 -1.2092 -1.1351  2.0167
   74SOL    HW2  222   0.202   1.880   1.919 -1.3427  2.0090  0.7331
   75SOL     OW  223   1.721   1.707   1.477  0.3424  0.0261  0.0053
   75SOL    HW1  224   1.705   1.609   1.490  2.3571  1.0804 -1.8269
   75SOL    HW2  225   1.633   1.756   1.481  0.4372 -0.3534 -0.2287
   76SOL     OW  226   1.512   2.066   1.070  0.2544 -0.1044 -0.2145
   76SOL    HW1  227   1.503   2.091   0.973 -0.0321  0.1120  1.8842
   76SOL    HW2  228   1.435   2.092   1.127  1.4436 -2.6838 -1.0092
   77SOL     OW  229   2.504   1.706   1.927 -0.0541  0.4505  0.3245
   77SOL    HW1  230   2.537   1.670   2.018 -0.8898 -2.1236 -0.7060
   77SOL    HW2  231   2.453   1.795   1.934  0.3322  2.3778 -0.2072
   78SOL     OW  232   1.304   0.638   0.723  0.1822 -0.6567 -0.6793
   78SOL    HW1  233   1.273   0.735   0.747 -0.9598  0.9183 -1.0650
   78SOL    HW2  234   1.228   0.571   0.752 -2.3251  0.6673  0.3862
   79SOL     OW  235   2.220   1.814   1.669  0.0670 -0.1651 -0.2509
   79SOL    HW1  236   2.252   1.744   1.599 -0.2319  1.1557 -0.6677
   79SOL    HW2  237   2.208   1.905   1.626 -0.7188 -0.3100  0.2562
   80SOL     OW  238   1.184   0.202   1.306 -0.3132 -0.8299 -0.2553
   80SOL    HW1  239   1.279   0.181   1.287  2.3523 -1.7356  2.0257
   80SOL    HW2  240   1.164   0.187   1.403 -1.7348  0.8033 -0.3962
   81SOL     OW  241   0.597   2.471   0.650 -0.4093  0.5929  0.3016
   81SOL    HW1  242   0.687   2.480   0.609  0.7141 -2.0156  1.9338
   81SOL    HW2  243   0.593   2.472   0.752  1.2963 -1.6243 -2.5111
   82SOL     OW  244   1.488   0.443   1.651  0.0259  0.6468 -0.2700
   82SOL    HW1  245   1.422   0.505   1.604 -1.2450 -0.4429  1.0424
   82SOL    HW2  246   1.559   0.419   1.579  0.7383 -1.6288 -0.8049
   83SOL     OW  247   0.646   1.774   0.582  0.3761  0.3419  0.2694
   83SOL    HW1  248   0.704   1.830   0.645 -0.7666  1.0441 -2.0530
   83SOL    HW2  249   0.660   1.807   0.489 -1.3717  0.4196 -0.1898
   84SOL     OW  250   2.576   1.438   0.107  0.0535  0.0665  0.9992
   84SOL    HW1  251   2.547   1.533   0.078  0.6418  0.2066  0.4513
   84SOL    HW2  252   2.521   1.365   0.064  3.2255  2.4687 -1.3783
   85SOL     OW  253   3.062   2.657   1.570 -0.6067  0.4292 -0.0609
   85SOL    HW1  254   3.007   2.739   1.531  1.9906  2.9518 -2.2659
   85SOL    HW2  255   3.011   2.569   1.551 -2.5759  0.9661  0.3085
   86SOL     OW  256   1.574   2.664   1.151 -0.1490 -0.7932 -0.1006
   86SOL    HW1  257   1.629   2.584   1.175 -1.0872  3.8997  0.7336
   86SOL    HW2  258   1.606   2.693   1.053  2.3866  0.7555 -2.7877
   87SOL     OW  259   2.895   1.327   0.744 -0.0707 -0.1950  0.1243
   87SOL    HW1  260   2.796   1.350   0.733 -1.8194  2.3097  0.2191
   87SOL    HW2  261   2.912   1.326   0.845  0.2002 -1.4071 -1.9185
   88SOL     OW  262   1.020   0.550   1.221  0.1210  0.1913 -0.0863
   88SOL    HW1  263   1.027   0.559   1.325 -1.3114 -1.2134  2.1794
   88SOL    HW2  264   0.944   0.486   1.204  2.4533 -2.6511  1.0907
   89SOL     OW  265   0.675   2.803   1.846 -0.0081 -0.0761  0.0926
   89SOL    HW1  266   0.603   2.869   1.812 -0.3464 -3.1798 -0.0813
   89SOL    HW2  267   0.767   2.837   1.823  0.1049  0.2236  1.1065
   90SOL     OW  268   3.033   1.823   1.223 -0.3433 -0.3410 -0.3234
   90SOL    HW1  269   3.029   1.903   1.159  0.4946  0.6975 -0.0136
   90SOL    HW2  270   2.941   1.781   1.229 -1.3040 -0.0651 -3.9468
   91SOL     OW  271   1.183   1.810   1.013  0.1487 -0.1619  0.2184
   91SOL    HW1  272   1.286   1.809   1.022  0.7940  1.0013  1.5909
   91SOL    HW2  273   1.151   1.735   0.950 -1.1223 -2.0905  0.1525
   92SOL     OW  274   2.764   2.736   1.900  0.5518  0.1458  0.2786
   92SOL    HW1  275   2.756   2.762   1.801 -1.3801  1.5254 -1.1484
   92SOL    HW2  276   2.763   2.824   1.948  0.5761 -0.6468 -3.0659
   93SOL     OW  277   2.816   1.274   0.000  0.2572  0.4413  0.8142
   93SOL    HW1  278   2.759   1.264   3.000 -0.4519  1.3011 -3.8367
   93SOL    HW2  279   2.793   1.206   0.076 -0.7310 -1.2230  0.7837
   94SOL     OW  280   2.494   2.940   1.920 -0.5469  0.3636  0.1645
   94SOL    HW1  281   2.438   2.962   2.004 -1.2027 -0.8112 -1.1656
   94SOL    HW2  282   2.592   2.949   1.952  1.1216  2.3403  0.9250
   95SOL     OW  283   1.507   0.465   1.972 -0.3958 -1.1567  0.7477
   95SOL    HW1  284   1.565   0.514   1.907  1.0019  1.1362  1.1020
   95SOL    HW2  285   1.481   0.373   1.928  3.4610 -1.1147 -0.4569
   96SOL     OW  286   2.428   0.679   1.751 -0.1504 -0.1240  0.2109
   96SOL    HW1  287   2.418   0.777   1.754  1.4660 -0.9584 -0.1087
   96SOL    HW2  288   2.526   0.655   1.736  1.2353 -0.4577 -0.4587
   97SOL     OW  289   2.418   2.988   1.456 -0.2311 -0.5586 -0.3659
   97SOL    HW1  290   2.446   2.893   1.452 -0.0770  1.1141  0.9484
   97SOL    HW2  291   2.364   3.003   1.543 -4.0702 -0.8746  2.5928
   98SOL     OW  292   1.944   2.697   1.321  0.2436 -0.3143  0.9666
   98SOL    HW1  293   2.036   2.649   1.333  4.6646  0.2520  1.7410
   98SOL    HW2  294   1.902   2.699   1.414  0.6518 -0.0375 -1.3769
   99SOL     OW  295   2.670   0.269   1.717 -0.1537 -0.0258 -0.1596
   99SOL    HW1  296   2.642   0.251   1.810  0.8170 -0.0504 -1.0972
   99SOL    HW2  297   2.766   0.238   1.713  1.7435 -1.1890 -0.7391
  100SOL     OW  298   2.110   1.509   2.020 -0.0433 -0.3107  0.2051
  100SOL    HW1  299   2.090   1.599   2.063 -0.6356 -0.2488 -3.4639
  100SOL    HW2  300   2.104   1.433   2.090  1.6444  1.2931 -0.3847
  101SOL     OW  301   2.076   0.076   0.215 -0.1449  0.1781 -0.3205
  101SOL    HW1  302   2.155   0.103   0.275  0.7343 -0.5051 -0.6716
  101SOL    HW2  303   2.002   0.144   0.218 -1.5411 -3.5558  1.6129
  102SOL     OW  304   0.527   0.599   1.479 -0.2565 -0.6841  0.1510
  102SOL    HW1  305   0.432   0.577   1.497  1.6700 -1.3635 -0.5135
  102SOL    HW2  306   0.574   0.538   1.409 -0.3482 -0.4644 -1.9238
  103SOL     OW  307   2.435   0.076   2.665  0.2096 -0.3928  0.4908
  103SOL    HW1  308   2.510   0.126   2.717 -0.8364  1.4670  2.4320
  103SOL    HW2  309   2.344   0.091   2.709 -1.8185 -0.8686 -0.1897
  104SOL     OW  310   3.039   2.781   1.907  0.3018  0.3879  0.1173
  104SOL    HW1  311   0.020   2.704   1.907 -0.6626  0.5260 -0.5651
  104SOL    HW2  312   2.943   2.745   1.915 -0.9162 -2.0424  0.7194
  105SOL     OW  313   1.280   0.885   2.163 -0.5159 -0.1382  0.3663
  105SOL    HW1  314   1.214   0.959   2.161 -3.3663  0.2907 -3.0420
  105SOL    HW2  315   1.293   0.857   2.065 -0.1483 -0.8135 -0.2864
  106SOL     OW  316   1.730   0.349   0.860 -0.0172 -0.2604 -0.2889
  106SOL    HW1  317   1.791   0.325   0.940  0.7163 -0.4003  1.8301
  106SOL    HW2  318   1.772   0.307   0.783 -0.2844 -0.5993  2.1933
  107SOL     OW  319   0.652   1.153   1.145 -0.4024 -0.1707 -0.3368
  107SOL    HW1  320   0.658   1.052   1.129 -0.2825 -2.8555  0.0566
  107SOL    HW2  321   0.688   1.205   1.067 -0.7085  1.2446 -0.4449
  108SOL     OW  322   2.845   0.430   2.299 -0.3016 -0.1367  0.5529
  108SOL    HW1  323   2.875   0.375   2.222 -0.4479 -0.2025 -1.6662
  108SOL    HW2  324   2.861   0.373   2.381 -0.1743  0.7458  1.2659
  109SOL     OW  325   2.078   0.157   3.026 -0.7612 -0.3260  0.1119
  109SOL    HW1  326   2.073   0.108   0.029  0.6497  0.1353 -1.9132
  109SOL    HW2  327   2.012   0.106   2.966 -5.3695  2.4469 -0.4221
  110SOL     OW  328   0.089   1.851   2.853  0.1554 -0.5170  0.2780
  110SOL    HW1  329   0.172   1.901   2.888 -1.0768 -0.8179 -2.0853
  110SOL    HW2  330   0.058   1.780   2.912  2.5200  1.5679 -0.0253
  111SOL     OW  331   2.437   0.258   2.448 -0.3117 -0.2321 -0.0370
  111SOL    HW1  332   2.381   0.331   2.489  1.7784  1.4057 -0.7613
  111SOL    HW2  333   2.440   0.172   2.503 -1.7329 -1.4144  0.8046
  112SOL     OW  334   2.517   2.747   1.135 -0.3678 -0.1854 -0.5636
  112SOL    HW1  335   2.602   2.699   1.112 -0.3940  2.7693 -1.7481
  112SOL    HW2  336   2.529   2.844   1.160 -1.3100 -1.1108 -0.1066
  113SOL     OW  337   2.449   2.225   1.975 -0.6373 -0.0843  0.6908
  113SOL    HW1  338   2.501   2.182   1.901  1.8365  2.6530 -1.8410
  113SOL    HW2  339   2.371   2.277   1.936  1.3765 -0.8254  0.8433
  114SOL     OW  340   2.599   0.074   0.553  0.0725  0.2376 -0.2652
  114SOL    HW1  341   2.508   0.079   0.599  2.2567 -1.2997  0.1147
  114SOL    HW2  342   2.682   0.081   0.612  1.8018 -1.7253 -2.6137
  115SOL     OW  343   2.792   1.845   0.255 -0.5427  0.6197  0.1167
  115SOL    HW1  344   2.838   1.826   0.345  0.8455  1.5341 -3.1577
  115SOL    HW2  345   2.765   1.749   0.234  3.7650  0.8875  1.2482
  116SOL     OW  346   0.041   1.384   1.941  0.3038 -0.0938 -0.3595
  116SOL    HW1  347   3.081   1.433   1.864  0.0055 -1.9180 -0.0453
  116SOL    HW2  348   0.121   1.328   1.912 -1.7380 -1.0082 -0.5774
  117SOL     OW  349   2.084   0.043   0.883 -0.3278 -0.0055 -0.0653
  117SOL    HW1  350   2.117   3.033   0.909  0.3036  0.1269 -1.8120
  117SOL    HW2  351   2.103   0.103   0.959 -0.1464 -0.1029 -2.6503
  118SOL     OW  352   0.307   2.076   1.637 -0.2202  0.0979  0.3586
  118SOL    HW1  353   0.245   2.027   1.577  1.0570  0.1523  1.5253
  118SOL    HW2  354   0.402   2.072   1.602 -3.3510  0.8942  0.0444
  119SOL     OW  355   1.264   2.213   1.487  0.5185 -0.5120 -0.2584
  119SOL    HW1  356   1.285   2.216   1.389 -0.6284 -0.1067  0.7393
  119SOL    HW2  357   1.165   2.233   1.499 -1.1503  1.7854  0.4340
  120SOL     OW  358   0.175   1.890   1.427 -0.1119  0.2610 -0.0264
  120SOL    HW1  359   0.110   1.837   1.488 -0.7550  0.2269 -0.3212
  120SOL    HW2  360   0.244   1.824   1.393  2.3569 -1.7253  1.2145
  121SOL     OW  361   2.225   1.201   0.984  0.2340  0.3903 -0.1101
  121SOL    HW1  362   2.203   1.219   1.080  0.0534 -0.8335 -0.1003
  121SOL    HW2  363   2.255   1.286   0.935 -0.9459 -2.3618 -2.5173
  122SOL     OW  364   2.280   1.905   2.794 -0.5215 -0.3427 -0.0946
  122SOL    HW1  365   2.199   1.841   2.795  1.0133 -0.6059 -2.1507
  122SOL    HW2  366   2.276   1.971   2.716 -1.7157  0.5006 -3.2402
  123SOL     OW  367   2.771   2.806   0.611 -0.0752  0.1707  0.1706
  123SOL    HW1  368   2.775   2.882   0.674 -2.9493 -3.9172 -5.1888
  123SOL    HW2  369   2.839   2.735   0.636 -0.9499 -1.2143  0.4641
  124SOL     OW  370   1.086   1.119   0.036  0.3478  0.3938  0.5894
  124SOL    HW1  371   1.022   1.188   3.084 -0.0978 -1.1117  2.4262
  124SOL    HW2  372   1.079   1.028   3.071  0.3230 -0.3686  2.4212
  125SOL     OW  373   0.124   1.470   2.848  0.3327  0.1796  0.5904
  125SOL    HW1  374   0.190   1.523   2.787  0.3288  1.4280 -2.5821
  125SOL    HW2  375   0.103   1.373   2.809 -0.3753 -0.5728  0.7414
  126SOL     OW  376   0.065   2.349   0.401  1.0105  0.0374 -0.1583
  126SOL    HW1  377   0.138   2.401   0.357 -2.4422 -0.8464 -0.8832
  126SOL    HW2  378   0.099   2.281   0.474  0.3116 -1.6053  0.3383
  127SOL     OW  379   2.972   1.523   0.538 -0.3928  0.7396 -0.0443
  127SOL    HW1  380   2.945   1.470   0.625 -0.4264  0.2753  0.0939
  127SOL    HW2  381   2.960   1.461   0.459 -1.7336  1.6876  3.1394
  128SOL     OW  382   1.185   1.324   0.368  0.5408  0.2398 -0.1424
  128SOL    HW1  383   1.136   1.337   0.455  1.1160 -1.8986 -0.4769
  128SOL    HW2  384   1.184   1.225   0.341 -0.4015 -0.2527  0.0468
  129SOL     OW  385   2.108   1.933   1.394 -0.0008 -0.0035  0.3887
  129SOL    HW1  386   2.074   2.019   1.354  0.2650 -3.7078  1.0286
  129SOL    HW2  387   2.209   1.935   1.401 -0.0799  0.2965  1.3586
  130SOL     OW  388   1.866   0.982   0.605  0.7370 -0.1339  0.4267
  130SOL    HW1  389   1.916   0.909   0.556 -2.5075  0.4994 -0.4715
  130SOL    HW2  390   1.804   0.948   0.678  2.0799  1.8890 -0.5341
  131SOL     OW  391   2.864   0.968   2.683  0.1649 -0.9976 -0.0216
  131SOL    HW1  392   2.836   0.988   2.780 -0.1181  0.6045 -0.9131
  131SOL    HW2  393   2.780   0.951   2.627 -0.8259 -1.4412 -1.3088
  132SOL     OW  394   1.768   1.342   2.053  0.3086 -0.1706  0.0599
  132SOL    HW1  395   1.786   1.299   1.967 -1.2184 -2.3222  0.9224
  132SOL    HW2  396   1.768   1.444   2.041 -0.7632 -1.5240 -4.1251
  133SOL     OW  397   0.087   1.271   3.079 -0.7889 -0.2361 -0.2020
  133SOL    HW1  398   0.021   1.327   3.028 -0.9191  0.0103 -0.1185
  133SOL    HW2  399   0.050   1.241   0.081  1.1138  0.8549 -4.3108
  134SOL     OW  400   2.742   0.880   0.628 -0.0621 -0.3799  0.1669
  134SOL    HW1  401   2.653   0.862   0.579 -2.5740  0.8415 -1.6095
  134SOL    HW2  402   2.809   0.814   0.587 -2.3190 -0.2324 -0.7579
  135SOL     OW  403   2.124   0.947   0.047  0.1698  0.0376 -0.1453
  135SOL    HW1  404   2.172   0.906   3.054 -1.7944 -0.6553  0.4061
  135SOL    HW2  405   2.141   1.048   0.042 -1.5961  0.6368  1.7665
  136SOL     OW  406   1.919   1.843   1.621  0.9525  0.1069 -0.2053
  136SOL    HW1  407   1.853   1.783   1.581 -0.9246  1.8371  2.0446
  136SOL    HW2  408   2.007   1.795   1.624  0.9542 -0.4904  1.1698
  137SOL     OW  409   2.387   2.520   0.597  0.6498 -0.3816 -0.4436
  137SOL    HW1  410   2.458   2.447   0.617  1.7709 -0.4004 -1.1677
  137SOL    HW2  411   2.288   2.492   0.580 -0.5074  2.6160 -1.3416
  138SOL     OW  412   2.161   0.286   1.520  0.3423 -0.1738 -0.9639
  138SOL    HW1  413   2.077   0.325   1.481  1.9265 -1.6865 -1.5660
  138SOL    HW2  414   2.209   0.363   1.576 -2.2361  3.3072  0.5645
  139SOL     OW  415   2.621   0.153   2.852 -0.6884  0.5220  0.0841
  139SOL    HW1  416   2.572   0.137   2.937 -0.2609  1.2077 -2.3332
  139SOL    HW2  417   2.693   0.226   2.857 -0.6583  1.3139 -1.3390
  140SOL     OW  418   1.088   1.416   2.470  0.5892  0.0008  0.0761
  140SOL    HW1  419   1.041   1.335   2.504 -1.5000  1.0838  0.1634
  140SOL    HW2  420   1.136   1.468   2.542  1.1522 -1.4887 -1.3676
  141SOL     OW  421   0.701   0.565   2.224  0.4671  0.8053  0.1849
  141SOL    HW1  422   0.617   0.612   2.186 -0.4346 -0.9754 -1.6831
  141SOL    HW2  423   0.728   0.485   2.161 -0.6684 -1.6668 -1.7073
  142SOL     OW  424   2.642   2.529   2.803  0.2919  0.3730 -0.4925
  142SOL    HW1  425   2.728   2.482   2.830  0.8358  1.9565  0.2675
  142SOL    HW2  426   2.654   2.627   2.781 -0.3463 -1.6380  0.5731
  143SOL     OW  427   0.921   2.014   0.360 -0.0426  0.6021  0.2785
  143SOL    HW1  428   0.916   2.113   0.366  2.5058 -2.1400 -2.0870
  143SOL    HW2  429   0.940   1.981   0.452 -1.4442  1.3739  0.7859
  144SOL     OW  430   1.322   2.440   3.077 -0.3902  0.4059  0.4596
  144SOL    HW1  431   1.244   2.458   3.014 -0.4736  2.6333  0.5357
  144SOL    HW2  432   1.308   2.508   0.066  0.2641  0.4445 -2.9381
  145SOL     OW  433   1.655   1.929   2.501 -0.2410 -0.0618  0.2360
  145SOL    HW1  434   1.754   1.930   2.534 -0.4354 -0.3678 -1.4690
  145SOL    HW2  435   1.639   1.852   2.435 -1.0547  1.1725 -0.9550
  146SOL     OW  436   2.891   2.860   2.932  0.0755  0.3845 -0.0644
  146SOL    HW1  437   2.828   2.847   3.009  0.6773 -1.9472 -3.2464
  146SOL    HW2  438   2.833   2.839   2.847 -2.1925 -0.5117 -1.8480
  147SOL     OW  439   2.943   1.480   1.205  0.2180  0.1087  0.4217
  147SOL    HW1  440   3.033   1.506   1.168 -3.0828  0.0247 -0.0014
  147SOL    HW2  441   2.872   1.545   1.171 -1.1110  0.4464 -0.9872
  148SOL     OW  442   1.886   2.780   0.084 -0.3622 -0.1271  0.2909
  148SOL    HW1  443   1.788   2.814   0.086  0.1757 -1.1479 -0.0892
  148SOL    HW2  444   1.938   2.813   0.002  3.3934  0.6140 -1.6328
  149SOL     OW  445   0.683   1.922   2.681  0.9568  0.0033  0.0516
  149SOL    HW1  446   0.630   1.873   2.749 -0.4448  2.3447  0.7632
  149SOL    HW2  447   0.666   2.021   2.676  0.6849 -3.2812 -2.4270
  150SOL     OW  448   0.321   2.386   0.292  0.2092  0.0778 -0.4806
  150SOL    HW1  449   0.272   2.303   0.259  0.9588  0.6278  1.2112
  150SOL    HW2  450   0.411   2.391   0.250 -1.8674  0.1114 -2.0098
  151SOL     OW  451   0.369   1.215   0.211  0.0982  0.3392  0.1042
  151SOL    HW1  452   0.352   1.121   0.248  1.3239 -0.6528  0.9571
  151SOL    HW2  453   0.348   1.219   0.110 -0.0841 -1.6124 -2.2938
  152SOL     OW  454   2.714   1.793   0.673  0.1591 -0.7816 -0.2246
  152SOL    HW1  455   2.790   1.778   0.601  2.0984 -3.8237 -2.4188
  152SOL    HW2  456   2.643   1.859   0.646  1.9589 -0.5367  0.0658
  153SOL     OW  457   1.799   2.320   0.514  0.3048 -1.2328 -0.3719
  153SOL    HW1  458   1.877   2.303   0.450  0.8525 -0.1285  0.6102
  153SOL    HW2  459   1.818   2.388   0.590  1.6760 -1.6930  3.1932
  154SOL     OW  460   0.855   2.565   0.848 -0.5029  0.0522 -0.1817
  154SOL    HW1  461   0.846   2.627   0.765  2.4189  2.4510 -2.9648
  154SOL    HW2  462   0.760   2.537   0.878  0.1119 -0.0890  2.3299
  155SOL     OW  463   2.831   1.745   0.901 -0.6138 -0.4259  0.1664
  155SOL    HW1  464   2.786   1.772   0.812 -1.8671  0.0785 -2.0589
  155SOL    HW2  465   2.929   1.713   0.885 -0.6057 -0.7141 -0.5209
  156SOL     OW  466   2.651   2.169   0.416  0.2295  0.3579  0.0410
  156SOL    HW1  467   2.594   2.234   0.463  2.6648 -1.2263 -1.8101
  156SOL    HW2  468   2.745   2.208   0.418 -0.9339 -1.5840 -0.8842
  157SOL     OW  469   0.564   2.090   1.531  0.0588  0.2276 -0.4082
  157SOL    HW1  470   0.636   2.022   1.562 -1.2093  0.0204  1.1293
  157SOL    HW2  471   0.610   2.157   1.471 -2.6903  0.0139  1.1323
  158SOL     OW  472   1.645   0.774   0.285  0.0415 -0.4706  0.1180
  158SOL    HW1  473   1.585   0.729   0.216 -1.1984 -0.4386 -1.4513
  158SOL    HW2  474   1.745   0.747   0.263  0.7009 -1.9848 -3.8805
  159SOL     OW  475   1.293   0.777   0.175 -0.6360  0.0084 -0.1950
  159SOL    HW1  476   1.270   0.764   0.271  0.0725  0.2400 -3.2256
  159SOL    HW2  477   1.246   0.704   0.130  0.3102  2.5683  1.0831
  160SOL     OW  478   0.784   1.315   0.455  0.0072  0.0671  0.5546
  160SOL    HW1  479   0.707   1.327   0.516  1.8465 -0.5574 -2.8257
  160SOL    HW2  480   0.867   1.320   0.515 -1.5953  1.6773  0.3284
  161SOL     OW  481   0.150   2.338   2.627  0.2373 -0.3154  0.5224
  161SOL    HW1  482   0.091   2.259   2.646  1.4443  1.1964 -2.4760
  161SOL    HW2  483   0.245   2.327   2.667 -0.5939  0.1033 -0.3765
  162SOL     OW  484   0.172   2.557   0.958 -0.3765  0.2001 -0.3186
  162SOL    HW1  485   0.176   2.478   1.022  1.4213  2.7414 -0.4855
  162SOL    HW2  486   0.170   2.509   0.868 -2.3190 -3.7028  0.8241
  163SOL     OW  487   3.014   0.444   2.757  0.2144  0.1262  0.5467
  163SOL    HW1  488   3.024   0.541   2.732 -1.8872  0.3477 -3.1282
  163SOL    HW2  489   3.042   0.430   2.855  1.0516  3.1297 -0.4183
  164SOL     OW  490   0.504   0.105   2.775  0.4624  0.1048 -0.3935
  164SOL    HW1  491   0.436   0.054   2.827 -3.1220 -1.8985  3.8671
  164SOL    HW2  492   0.567   0.043   2.729 -1.2364  1.9385  1.1320
  165SOL     OW  493   2.242   0.499   1.673  0.4863  0.2892  0.0621
  165SOL    HW1  494   2.165   0.566   1.659  0.8664 -0.4655  0.5513
  165SOL    HW2  495   2.332   0.537   1.702 -0.4831 -1.1169  1.0537
  166SOL     OW  496   1.962   2.392   1.659 -0.1546 -0.7432  0.5786
  166SOL    HW1  497   1.988   2.314   1.721  1.4538  1.1207 -1.8683
  166SOL    HW2  498   1.977   2.478   1.713 -1.3451  0.7303  2.7807
  167SOL     OW  499   0.857   1.180   2.300  0.5963 -0.6510  1.0746
  167SOL    HW1  500   0.909   1.159   2.383 -0.6455  1.7119 -0.5710
  167SOL    HW2  501   0.777   1.121   2.300  1.2517  5.4371  0.1480
  168SOL     OW  502   2.375   3.040   2.137 -0.2423  0.4571 -0.1566
  168SOL    HW1  503   2.300   0.021   2.107 -0.9296  0.6078 -0.7888
  168SOL    HW2  504   2.456   0.013   2.171  1.2362 -0.2082 -2.6724
  169SOL     OW  505   0.331   0.941   0.239 -0.1742 -0.0263 -0.6662
  169SOL    HW1  506   0.396   0.866   0.225  0.4516  1.8672  0.6809
  169SOL    HW2  507   0.241   0.930   0.187  2.2781 -1.8862 -1.5120
  170SOL     OW  508   2.966   1.500   1.745  0.5885 -0.1607  0.1607
  170SOL    HW1  509   2.958   1.492   1.644  1.9292  1.3976 -1.3799
  170SOL    HW2  510   2.882   1.535   1.786  0.3499  0.2866 -0.7126
  171SOL     OW  511   1.103   2.232   1.947  0.7090  0.5476 -0.3827
  171SOL    HW1  512   1.012   2.280   1.945 -0.0865 -0.6095 -3.3205
  171SOL    HW2  513   1.175   2.293   1.967 -1.5071 -5.3335  0.5487
  172SOL     OW  514   0.880   2.440   1.993 -0.3094 -0.0954 -0.0419
  172SOL    HW1  515   0.794   2.458   1.938  1.7262 -0.1391  0.2295
  172SOL    HW2  516   0.946   2.516   1.970 -1.0290  3.1406 -2.1910
  173SOL     OW  517   1.333   2.458   0.839  0.2009 -0.2998 -0.1181
  173SOL    HW1  518   1.424   2.436   0.813 -0.5407 -0.2536  0.0730
  173SOL    HW2  519   1.290   2.526   0.782  1.3214 -0.8968  0.6580
  174SOL     OW  520   2.284   0.118   0.385 -0.3481 -0.2322 -0.1853
  174SOL    HW1  521   2.290   0.089   0.481  0.2130  0.5715 -2.2786
  174SOL    HW2  522   2.286   0.219   0.373  0.9044 -1.9099 -0.1710
  175SOL     OW  523   1.066   1.681   0.496 -0.5771  0.5436 -0.3030
  175SOL    HW1  524   1.131   1.742   0.447  1.2841 -1.4167  1.9342
  175SOL    HW2  525   0.993   1.649   0.437 -1.0102 -0.2234  1.9023
  176SOL     OW  526   0.584   1.381   0.606 -0.0783 -0.1191  0.5283
  176SOL    HW1  527   0.559   1.454   0.669  1.8655  0.9879 -1.3256
  176SOL    HW2  528   0.499   1.361   0.551 -0.5279  3.1639 -0.3546
  177SOL     OW  529   1.236   1.229   1.470 -0.6147 -0.6703 -0.0420
  177SOL    HW1  530   1.147   1.242   1.522  1.3405  0.0393  0.4160
  177SOL    HW2  531   1.304   1.304   1.492  3.4368  0.4030  2.1496
  178SOL     OW  532   2.521   1.571   0.417 -1.0083  0.2235 -0.1614
  178SOL    HW1  533   2.611   1.608   0.393 -1.4464  0.4388 -0.4861
  178SOL    HW2  534   2.460   1.553   0.340 -1.9755  0.1297  0.0235
  179SOL     OW  535   1.056   2.455   2.993 -0.3554  0.3426 -0.1920
  179SOL    HW1  536   1.022   2.399   3.069  1.0628  1.0170 -3.1555
  179SOL    HW2  537   1.056   2.392   2.908 -0.1608 -3.4987  1.2735
  180SOL     OW  538   2.008   1.621   1.766  0.1125  0.3649  0.1934
  180SOL    HW1  539   2.011   1.552   1.843  1.8651 -1.5153  3.7014
  180SOL    HW2  540   2.093   1.674   1.758  1.3315  1.6425  0.4627
  181SOL     OW  541   0.682   0.969   2.278  0.1752  0.3985  0.5423
  181SOL    HW1  542   0.618   0.972   2.198  2.0914 -1.0646  2.3841
  181SOL    HW2  543   0.760   0.910   2.262 -2.8941 -1.2380  1.8464
  182SOL     OW  544   2.806   0.919   2.343 -0.0875 -0.2130  0.0904
  182SOL    HW1  545   2.750   0.945   2.424  0.7513  0.5973 -0.0544
  182SOL    HW2  546   2.856   0.830   2.361 -0.3101 -2.6235 -0.4435
  183SOL     OW  547   1.455   0.763   2.363  0.4050  0.3745 -0.2741
  183SOL    HW1  548   1.509   0.687   2.318  1.3408 -0.2115 -2.2255
  183SOL    HW2  549   1.385   0.785   2.293  1.7677  2.2600 -1.7341
  184SOL     OW  550   0.303   0.748   1.769 -0.2121 -0.1730  0.1642
  184SOL    HW1  551   0.315   0.699   1.858  1.5114 -1.0439  3.0755
  184SOL    HW2  552   0.387   0.797   1.737 -0.8706 -0.9136 -0.7385
  185SOL     OW  553   2.052   1.794   0.771  0.2026  0.7564  0.1429
  185SOL    HW1  554   2.113   1.766   0.689  1.5018 -0.5466 -3.2655
  185SOL    HW2  555   2.079   1.736   0.852 -0.0129 -0.1302 -2.2538
  186SOL     OW  556   0.433   1.901   0.174 -0.2709 -0.2291  0.6477
  186SOL    HW1  557   0.536   1.888   0.169  2.3036 -0.8795 -0.2097
  186SOL    HW2  558   0.391   1.823   0.220  1.5705  2.9351  0.2919
  187SOL     OW  559   2.190   1.750   0.094  0.3857 -0.5185  0.1449
  187SOL    HW1  560   2.247   1.822   0.051  1.3538 -0.3543 -1.3205
  187SOL    HW2  561   2.233   1.661   0.070 -1.4162  0.8972 -0.6605
  188SOL     OW  562   0.923   2.312   0.974 -0.2010 -0.3285  0.3905
  188SOL    HW1  563   1.018   2.278   0.958  0.9164  1.2006 -1.6117
  188SOL    HW2  564   0.918   2.408   0.935 -3.7410  1.6558 -2.1383
  189SOL     OW  565   1.968   1.242   2.612  0.0923  0.5137 -0.0534
  189SOL    HW1  566   1.915   1.165   2.655  0.9892 -3.1106 -0.4842
  189SOL    HW2  567   2.065   1.212   2.595 -1.6034  0.6284  0.9654
  190SOL     OW  568   0.955   2.085   2.132  0.3054 -0.3366 -1.1928
  190SOL    HW1  569   0.991   2.007   2.182 -1.2365  0.5455  0.5885
  190SOL    HW2  570   1.021   2.131   2.069  2.0298  2.9455  1.1908
  191SOL     OW  571   2.351   0.582   1.391  0.5135  0.2667 -0.8435
  191SOL    HW1  572   2.292   0.569   1.474  1.3607 -2.5251  1.0141
  191SOL    HW2  573   2.437   0.633   1.411  1.6080  1.6303 -2.5921
  192SOL     OW  574   2.531   0.486   1.991 -0.3395  0.0791 -0.1093
  192SOL    HW1  575   2.547   0.551   1.914 -2.8261  1.8216  1.7527
  192SOL    HW2  576   2.514   0.540   2.077 -1.2984 -0.2672  0.7258
  193SOL     OW  577   0.894   0.245   0.677 -0.0912  0.0900 -0.0085
  193SOL    HW1  578   0.888   0.195   0.589 -1.5448  0.7460  1.3478
  193SOL    HW2  579   0.927   0.182   0.751 -3.3013 -2.1829  4.8607
  194SOL     OW  580   1.353   2.459   1.693  0.4996 -0.2011  0.0198
  194SOL    HW1  581   1.377   2.392   1.764 -0.0101 -0.2820  0.2771
  194SOL    HW2  582   1.251   2.476   1.683  1.5506 -1.4530  1.3262
  195SOL     OW  583   2.800   0.889   0.911  0.0603  0.0250  0.0921
  195SOL    HW1  584   2.718   0.925   0.961  1.7050 -1.6047  0.1980
  195SOL    HW2  585   2.787   0.895   0.809  1.2704  2.1993 -1.5057
  196SOL     OW  586   1.011   1.727   1.648  0.3359 -0.7176  0.4888
  196SOL    HW1  587   1.044   1.790   1.571  0.1886  1.0386  0.1088
  196SOL    HW2  588   1.004   1.785   1.733  2.0644 -1.0783  0.2751
  197SOL     OW  589   0.278   0.906   2.478  0.0024  0.0281  0.9312
  197SOL    HW1  590   0.210   0.943   2.406 -1.0504 -0.8463  1.4020
  197SOL    HW2  591   0.290   0.806   2.475 -0.0181  4.2979 -1.7596
  198SOL     OW  592   1.652   1.040   0.154  0.3693  0.2728 -0.6931
  198SOL    HW1  593   1.631   0.948   0.197 -0.1404  0.1532  0.7370
  198SOL    HW2  594   1.701   1.093   0.226  1.7949  0.3204  2.0762
  199SOL     OW  595   2.785   0.587   2.075 -0.2130 -0.4229 -0.2920
  199SOL    HW1  596   2.800   0.535   2.163  2.2102  1.6246  0.3461
  199SOL    HW2  597   2.703   0.648   2.085 -4.5470  0.5509 -0.7226
  200SOL     OW  598   2.206   2.519   2.544  0.0133  0.8170  0.5349
  200SOL    HW1  599   2.292   2.574   2.543  1.5094  1.1370  0.6354
  200SOL    HW2  600   2.212   2.452   2.620 -2.3366 -0.0966  0.6042
  201SOL     OW  601   2.211   0.040   1.353 -0.8500  0.0823  0.2102
  201SOL    HW1  602   2.222   0.138   1.381  0.2833 -1.4343  0.8465
  201SOL    HW2  603   2.295   3.073   1.385  0.1343  1.3933  1.1943
  202SOL     OW  604   2.740   2.599   0.048 -0.3384  0.1923  0.1783
  202SOL    HW1  605   2.740   2.697   0.068  2.8779 -0.1714  0.4343
  202SOL    HW2  606   2.669   2.545   0.094 -2.3287 -1.0810 -0.9106
  203SOL     OW  607   0.925   2.027   2.526 -0.9292 -0.2366 -0.8948
  203SOL    HW1  608   0.885   2.121   2.515 -1.8706 -0.1792  0.7481
  203SOL    HW2  609   0.964   2.014   2.622 -2.5462  0.4184  1.0035
  204SOL     OW  610   0.564   1.651   2.477 -0.1796  0.2298  0.4299
  204SOL    HW1  611   0.533   1.615   2.566  0.5436  2.2265  0.5842
  204SOL    HW2  612   0.652   1.602   2.467  1.2995  2.3818  0.1972
  205SOL     OW  613   1.028   1.064   1.240  0.0773  0.3777  0.1982
  205SOL    HW1  614   1.099   1.003   1.288  1.7913  0.5975  2.2267
  205SOL    HW2  615   1.074   1.107   1.160 -0.1886  0.6919 -1.4536
  206SOL     OW  616   0.105   0.697   2.705 -0.2624  0.2763 -0.9320
  206SOL    HW1  617   0.124   0.792   2.748 -0.6664  1.5819  1.0952
  206SOL    HW2  618   0.125   0.690   2.605 -0.4042 -2.4391  4.4111
  207SOL     OW  619   1.848   2.364   1.973  0.0884  0.3238  0.2125
  207SOL    HW1  620   1.937   2.375   2.029  2.2561  0.8249  0.7401
  207SOL    HW2  621   1.802   2.452   1.946 -0.6436 -1.7231  1.4627
  208SOL     OW  622   1.083   2.690   1.432  0.3593 -0.1231  0.0398
  208SOL    HW1  623   0.997   2.679   1.375 -1.6614  0.3669  1.2784
  208SOL    HW2  624   1.120   2.783   1.411 -1.1851 -0.0193 -0.6341
  209SOL     OW  625   1.236   1.598   3.006 -0.2579 -0.4331 -0.5227
  209SOL    HW1  626   1.235   1.501   3.036 -2.1859 -4.2456 -1.6186
  209SOL    HW2  627   1.164   1.661   3.051 -2.7305  1.2402 -1.4030
  210SOL     OW  628   2.241   0.589   1.023 -0.1291 -0.3749  0.9287
  210SOL    HW1  629   2.337   0.632   1.016  0.8618 -1.8547 -2.8782
  210SOL    HW2  630   2.208   0.570   0.927 -0.7280 -0.6580 -1.5399
  211SOL     OW  631   1.256   2.606   0.204 -0.8598 -0.1092  0.5451
  211SOL    HW1  632   1.265   2.593   0.306 -1.9107 -0.7296 -1.8834
  211SOL    HW2  633   1.237   2.701   0.176  2.2692 -0.8225  0.7711
  212SOL     OW  634   2.006   2.063   0.774 -0.2114 -0.7186  0.1847
  212SOL    HW1  635   2.045   1.971   0.786 -0.8816  1.2314 -1.5356
  212SOL    HW2  636   2.037   2.107   0.687 -1.5747  2.6648  0.1510
  213SOL     OW  637   1.847   0.610   2.805  0.4048 -0.6858  0.1393
  213SOL    HW1  638   1.853   0.545   2.884 -0.1498  1.8938 -0.1248
  213SOL    HW2  639   1.775   0.680   2.816  0.2930  0.8416 -1.4249
  214SOL     OW  640   0.997   1.868   1.899  0.1126 -0.1421 -0.7075
  214SOL    HW1  641   0.929   1.941   1.875 -0.7755  0.9407 -0.8750
  214SOL    HW2  642   0.967   1.814   1.979  1.1517 -0.3074  1.5329
  215SOL     OW  643   0.371   1.286   0.478  0.0248  0.1510  0.1929
  215SOL    HW1  644   0.354   1.251   0.383  0.0156  1.9375 -0.1980
  215SOL    HW2  645   0.310   1.367   0.499 -0.8257 -1.3891 -1.8952
  216SOL     OW  646   0.117   2.984   2.467 -0.2916 -0.2749  0.0538
  216SOL    HW1  647   0.199   2.970   2.525 -0.8559  0.8479 -0.5895
  216SOL    HW2  648   0.108   2.904   2.410  4.4564  1.1025  0.0159
  217SOL     OW  649   2.573   0.906   1.254  0.0117  0.2772  0.2076
  217SOL    HW1  650   2.543   0.825   1.314 -0.2689 -0.4754  1.1600
  217SOL    HW2  651   2.661   0.941   1.284 -5.3694 -2.8848  0.2056
  218SOL     OW  652   1.323   1.722   2.176 -0.3120 -0.3772 -0.0142
  218SOL    HW1  653   1.371   1.795   2.122  1.3192 -0.9134  2.2611
  218SOL    HW2  654   1.231   1.704   2.133 -0.8019  2.9075 -0.6797
  219SOL     OW  655   1.869   1.549   0.095  0.6600 -0.1365  0.1581
  219SOL    HW1  656   1.908   1.538   0.189 -0.2614 -0.6938 -0.1021
  219SOL    HW2  657   1.785   1.489   0.084  0.3371 -2.5920  2.6053
  220SOL     OW  658   2.037   0.818   0.425 -0.1865 -0.2919  0.2028
  220SOL    HW1  659   2.104   0.886   0.404  1.9830  0.2195  0.7174
  220SOL    HW2  660   1.975   0.792   0.349  0.1408 -0.2479 -0.4077
  221SOL     OW  661   0.149   0.215   0.199 -0.0201  0.3066 -0.2568
  221SOL    HW1  662   0.225   0.242   0.136  0.5339 -1.5876  1.0772
  221SOL    HW2  663   0.091   0.140   0.164  1.6785  0.6687  0.7650
  222SOL     OW  664   1.428   1.935   0.551 -0.2845  0.2019  0.1278
  222SOL    HW1  665   1.476   1.878   0.618  0.6464  0.4118 -1.7821
  222SOL    HW2  666   1.375   2.010   0.592 -2.9212 -2.7075 -1.8929
  223SOL     OW  667   0.880   0.278   0.071 -0.2920  0.1746 -0.5034
  223SOL    HW1  668   0.961   0.222   0.064  0.5414 -0.5744  0.2869
  223SOL    HW2  669   0.817   0.256   3.083  0.0128 -0.5252  2.6104
  224SOL     OW  670   1.759   0.022   1.113  0.6551 -0.1828  0.9139
  224SOL    HW1  671   1.745   3.085   1.212  1.3804 -0.2764 -0.0724
  224SOL    HW2  672   1.759   3.024   1.054  2.6327  2.7913 -0.0826
  225SOL     OW  673   0.649   2.540   1.185 -0.1661 -0.6438 -0.4254
  225SOL    HW1  674   0.640   2.526   1.088 -0.1678 -0.6806  3.0462
  225SOL    HW2  675   0.559   2.562   1.223  0.1709  1.1056 -1.4252
  226SOL     OW  676   1.072   1.744   0.067 -0.1683 -0.1126 -0.4510
  226SOL    HW1  677   1.048   1.688   0.142  1.5071  1.6967  0.5834
  226SOL    HW2  678   1.109   1.834   0.106  0.8295  3.8267  1.7360
  227SOL     OW  679   0.778   1.705   0.942 -0.2692 -0.2081 -0.1448
  227SOL    HW1  680   0.708   1.638   0.916  0.4780 -1.1094 -2.4083
  227SOL    HW2  681   0.793   1.699   1.044 -0.5538  1.0082 -1.2674
  228SOL     OW  682   0.232   1.503   0.578  0.5411 -0.1183  0.1291
  228SOL    HW1  683   0.179   1.591   0.563  0.5449 -1.8755 -2.1497
  228SOL    HW2  684   0.175   1.428   0.616  2.6616 -0.7179  0.0000
  229SOL     OW  685   2.264   0.423   2.591 -0.1668 -0.0098  0.2249
  229SOL    HW1  686   2.196   0.356   2.556 -0.6405  1.3750 -1.9050
  229SOL    HW2  687   2.276   0.414   2.691  1.2901  2.6883 -1.3235
  230SOL     OW  688   1.944   1.268   0.228  0.1451 -0.6740  0.3764
  230SOL    HW1  689   1.955   1.354   0.285 -2.0891  2.2964  3.2104
  230SOL    HW2  690   1.887   1.201   0.279  0.4601  3.2340  1.5182
  231SOL     OW  691   1.270   1.552   2.661 -0.3486 -0.1198 -0.0564
  231SOL    HW1  692   1.234   1.646   2.669 -0.3505 -1.7022 -0.1766
  231SOL    HW2  693   1.360   1.554   2.604  0.6751 -2.8047 -0.8285
  232SOL     OW  694   2.411   2.043   0.735  0.2837  0.3855 -0.6467
  232SOL    HW1  695   2.422   1.973   0.806 -2.4054 -2.1824 -1.0015
  232SOL    HW2  696   2.471   2.022   0.660  0.2974 -4.1197  0.3126
  233SOL     OW  697   0.345   2.522   0.525 -0.3183 -0.1352 -0.3758
  233SOL    HW1  698   0.425   2.499   0.583  1.3924  2.3505  1.3865
  233SOL    HW2  699   0.354   2.474   0.436 -2.6449  2.3740  0.8627
  234SOL     OW  700   0.648   0.714   2.675 -0.2361  0.1624 -0.1580
  234SOL    HW1  701   0.603   0.780   2.612  0.9836  2.2538  0.7860
  234SOL    HW2  702   0.747   0.744   2.697  1.9253 -1.5785 -0.6554
  235SOL     OW  703   2.587   0.465   2.383 -0.1706  0.1030 -0.7343
  235SOL    HW1  704   2.540   0.385   2.428  0.6831  0.4757 -0.8244
  235SOL    HW2  705   2.686   0.444   2.362 -0.3585 -1.5772 -1.4390
  236SOL     OW  706   1.727   2.444   1.209  0.3915  0.1855 -0.2785
  236SOL    HW1  707   1.736   2.448   1.312  1.0559 -0.7432  0.2108
  236SOL    HW2  708   1.747   2.353   1.176  0.8467 -1.5740  1.7380
  237SOL     OW  709   0.803   1.805   2.128 -0.1837  0.4726 -0.3955
  237SOL    HW1  710   0.879   1.734   2.129  2.4024  2.1011 -2.0206
  237SOL    HW2  711   0.805   1.856   2.217  1.7172  0.2833 -1.8364
  238SOL     OW  712   1.039   0.469   2.136  0.1434  0.1642  0.1508
  238SOL    HW1  713   1.018   0.391   2.202  1.1373 -0.7038  0.4931
  238SOL    HW2  714   1.140   0.484   2.133 -0.9912 -0.2335  0.5843
  239SOL     OW  715   0.257   2.060   1.904  0.0251  0.2145 -0.5016
  239SOL    HW1  716   0.321   2.125   1.954  0.6120 -0.7155  1.7718
  239SOL    HW2  717   0.272   2.058   1.803 -0.7434 -1.5803  2.0986
  240SOL     OW  718   2.644   2.778   0.355 -0.2370 -0.4684  0.3138
  240SOL    HW1  719   2.579   2.704   0.372  2.2000 -1.3908 -0.7393
  240SOL    HW2  720   2.686   2.801   0.440 -1.1651 -0.1439  0.2440
  241SOL     OW  721   2.559   1.013   0.997 -0.3686  0.0041  0.0150
  241SOL    HW1  722   2.560   0.969   1.087 -0.6913  0.4491 -2.6239
  241SOL    HW2  723   2.474   0.995   0.943  1.0867  0.5538  1.7086
  242SOL     OW  724   2.139   2.427   2.124  0.1799  0.6386 -0.0145
  242SOL    HW1  725   2.107   2.405   2.215  1.3024  0.8540  2.1891
  242SOL    HW2  726   2.224   2.480   2.136 -0.3376 -2.4949 -1.7385
  243SOL     OW  727   0.635   2.701   1.537  0.5667  0.0509  0.1019
  243SOL    HW1  728   0.703   2.689   1.459  3.1182  0.9685  0.3000
  243SOL    HW2  729   0.651   2.791   1.583  0.2388 -0.8876  1.6667
  244SOL     OW  730   2.125   0.640   2.869  0.2187 -0.1169 -0.2169
  244SOL    HW1  731   2.027   0.660   2.860  1.0404  0.5579  2.1564
  244SOL    HW2  732   2.180   0.724   2.880 -1.8612 -0.8355  0.2243
  245SOL     OW  733   1.470   0.540   1.234  0.6743  0.0066 -0.4960
  245SOL    HW1  734   1.428   0.632   1.211 -3.9425  1.5609 -2.1920
  245SOL    HW2  735   1.394   0.473   1.220 -0.1607  0.0326 -0.3120
  246SOL     OW  736   1.846   2.383   3.076 -0.1539 -0.0304 -0.1427
  246SOL    HW1  737   1.915   2.359   3.005 -2.4373  2.6174  0.1305
  246SOL    HW2  738   1.757   2.414   3.029 -0.5713  1.1880 -1.2138
  247SOL     OW  739   1.080   0.731   2.285  0.3730 -0.1297 -0.2863
  247SOL    HW1  740   1.120   0.665   2.347  2.3301  1.4278 -1.2278
  247SOL    HW2  741   1.147   0.787   2.235 -0.6046  1.0919  0.1690
  248SOL     OW  742   0.468   1.825   1.867 -0.2630 -0.0114  0.0445
  248SOL    HW1  743   0.499   1.765   1.945  0.0257  0.9130  0.8464
  248SOL    HW2  744   0.422   1.908   1.894  0.7998 -2.5176 -0.9352
  249SOL     OW  745   2.544   0.305   0.429  0.7226  0.4194  0.4860
  249SOL    HW1  746   2.547   0.328   0.330  2.2466 -0.9684  1.5960
  249SOL    HW2  747   2.552   0.203   0.443 -3.0529 -3.4613 -0.4393
  250SOL     OW  748   2.754   0.397   2.878  0.2143 -0.0550 -0.6999
  250SOL    HW1  749   2.782   0.428   2.970  0.2405 -0.9684 -2.9220
  250SOL    HW2  750   2.840   0.398   2.823  1.1800 -0.2104 -0.4039
  251SOL     OW  751   1.336   0.805   2.973 -0.2287 -0.0035  0.0478
  251SOL    HW1  752   1.379   0.893   2.950  1.3852  0.1490  2.3496
  251SOL    HW2  753   1.349   0.786   3.074  2.2603  1.4877  0.4072
  252SOL     OW  754   1.601   1.875   1.786 -0.0992  0.0712  0.3732
  252SOL    HW1  755   1.616   1.949   1.718 -0.3638 -1.5070  1.9443
  252SOL    HW2  756   1.678   1.813   1.796 -2.5324  0.5012  0.5130
  253SOL     OW  757   2.268   2.400   1.076 -0.0277 -0.0065  0.6185
  253SOL    HW1  758   2.330   2.470   1.034 -0.2697  0.1701  0.8059
  253SOL    HW2  759   2.296   2.385   1.173  2.1369  0.4326  2.2238
  254SOL     OW  760   2.439   1.172   0.699  0.6925  0.0290 -0.1780
  254SOL    HW1  761   2.346   1.211   0.672 -0.5899 -1.4189  0.3717
  254SOL    HW2  762   2.415   1.089   0.757  1.3939 -3.4311 -0.4699
  255SOL     OW  763   1.441   0.095   1.286  0.4420  0.4263 -0.4068
  255SOL    HW1  764   1.507   0.079   1.363 -0.6944 -1.0468  1.2398
  255SOL    HW2  765   1.443   0.023   1.215  0.5385  0.7326  2.4386
  256SOL     OW  766   1.547   2.596   1.592  0.2318  0.2608  0.6501
  256SOL    HW1  767   1.608   2.534   1.532  3.0273  1.2092 -0.7641
  256SOL    HW2  768   1.486   2.543   1.652  2.8520  0.6474  5.4182
  257SOL     OW  769   0.676   2.979   2.692 -0.0152 -0.2204 -0.0793
  257SOL    HW1  770   0.757   3.025   2.653 -0.9236  1.9927 -1.9918
  257SOL    HW2  771   0.672   2.881   2.668  2.9383  1.1307 -0.2255
  258SOL     OW  772   0.904   2.453   0.534  0.2006  0.5353  0.2182
  258SOL    HW1  773   0.948   2.462   0.439  0.2116  2.4284 -3.3409
  258SOL    HW2  774   0.941   2.367   0.577  2.4579 -1.8034 -0.8317
  259SOL     OW  775   1.581   0.179   2.719 -0.0231  0.0757  0.2762
  259SOL    HW1  776   1.546   0.274   2.718 -1.9021 -0.2723 -0.0354
  259SOL    HW2  777   1.629   0.160   2.630  0.5725  0.3328  0.8872
  260SOL     OW  778   2.522   0.356   1.295 -0.3000  0.2330  0.0959
  260SOL    HW1  779   2.453   0.435   1.305  0.0153 -0.1169  1.0484
  260SOL    HW2  780   2.527   0.304   1.384 -1.7992  1.3195 -0.1346
  261SOL     OW  781   0.709   0.521   2.505  0.5653 -0.5205 -0.4086
  261SOL    HW1  782   0.672   0.588   2.572 -2.6925  0.1019 -2.2445
  261SOL    HW2  783   0.683   0.558   2.414 -0.8074 -0.9497 -2.4471
  262SOL     OW  784   0.750   2.404   2.239  0.1310  0.0968 -0.2462
  262SOL    HW1  785   0.717   2.486   2.282  1.4701  0.6976  0.2267
  262SOL    HW2  786   0.831   2.428   2.181  2.9767 -0.5042 -1.0618
  263SOL     OW  787   0.254   1.616   2.644  0.3811 -0.4836 -0.4524
  263SOL    HW1  788   0.189   1.693   2.647 -1.4045 -3.4606  0.3479
  263SOL    HW2  789   0.227   1.551   2.571 -0.7232 -1.5187 -1.5740
  264SOL     OW  790   1.178   1.528   0.692  0.8575  0.1707  0.0587
  264SOL    HW1  791   1.112   1.543   0.770 -2.6222 -2.3105  2.7663
  264SOL    HW2  792   1.155   1.592   0.615 -0.5032  2.2239 -1.8731
  265SOL     OW  793   1.313   2.521   0.483  0.6758 -0.5914 -0.3971
  265SOL    HW1  794   1.411   2.499   0.474 -1.0156  0.1398 -2.2862
  265SOL    HW2  795   1.300   2.564   0.577 -0.0114  0.8147  1.9039
  266SOL     OW  796   1.879   0.762   1.144 -0.2947 -0.1971  0.0674
  266SOL    HW1  797   1.833   0.688   1.193  1.5969  2.9374 -1.2179
  266SOL    HW2  798   1.978   0.763   1.172  4.3634  1.6163  0.6013
  267SOL     OW  799   2.663   1.240   2.850 -0.1223  0.3875 -0.2392
  267SOL    HW1  800   2.712   1.262   2.767 -2.0305  0.5126  5.0245
  267SOL    HW2  801   2.579   1.187   2.835  2.3852  2.5109  0.7512
  268SOL     OW  802   1.561   0.198   0.060 -0.1055  0.4643 -0.5609
  268SOL    HW1  803   1.587   0.158   0.152  1.5746  1.7624  1.0775
  268SOL    HW2  804   1.535   0.296   0.070 -0.5135 -1.0451 -0.3305
  269SOL     OW  805   2.587   0.660   2.562  0.1616  0.3396 -0.1010
  269SOL    HW1  806   2.602   0.631   2.659  1.1026  1.0606 -2.8557
  269SOL    HW2  807   2.585   0.583   2.495  0.5952 -0.5041  0.5436
  270SOL     OW  808   3.000   1.451   0.267 -0.1009 -0.1669  0.2600
  270SOL    HW1  809   3.021   1.358   0.240 -1.3890  0.7356  0.9494
  270SOL    HW2  810   3.078   1.514   0.247 -0.5199  0.9034 -3.2062
  271SOL     OW  811   2.484   1.067   2.814  0.4736 -0.4987 -0.7221
  271SOL    HW1  812   2.439   1.066   2.722 -2.6935  2.5326 -0.1203
  271SOL    HW2  813   2.495   0.973   2.856 -1.7276  1.7051 -1.4450
  272SOL     OW  814   2.979   2.344   2.256  0.0049 -0.0749 -0.0999
  272SOL    HW1  815   3.076   2.325   2.286  1.7067 -1.2020 -0.7827
  272SOL    HW2  816   2.912   2.346   2.335 -0.8231  1.4873 -0.1304
  273SOL     OW  817   0.410   2.771   0.612 -0.0090 -0.3896 -0.1660
  273SOL    HW1  818   0.510   2.784   0.594 -0.3789 -0.2509 -1.4205
  273SOL    HW2  819   0.387   2.670   0.593 -0.7968  1.5412  2.4801
  274SOL     OW  820   0.677   2.155   0.555  0.0596  0.3707 -0.0352
  274SOL    HW1  821   0.578   2.151   0.563 -1.2910  2.7627  0.9028
  274SOL    HW2  822   0.717   2.147   0.648 -2.2146 -1.8422  2.3663
  275SOL     OW  823   2.474   1.063   0.455  0.5808 -0.1958 -0.0386
  275SOL    HW1  824   2.460   1.101   0.551  0.0951 -1.1733 -0.0755
  275SOL    HW2  825   2.484   1.144   0.394  2.2891  0.7976  1.4264
  276SOL     OW  826   2.497   1.637   1.441 -0.6723  0.5059  0.7587
  276SOL    HW1  827   2.535   1.580   1.516  1.8281  0.1481  2.2494
  276SOL    HW2  828   2.510   1.588   1.353 -0.5257 -0.0537  0.5125
  277SOL     OW  829   2.650   2.914   0.853 -0.6681 -0.0557  0.1672
  277SOL    HW1  830   2.554   2.932   0.858  3.5196  1.7870 -3.7058
  277SOL    HW2  831   2.685   2.845   0.915 -0.6868  1.9933 -0.4341
  278SOL     OW  832   1.419   0.271   2.357 -0.4427 -0.2279 -0.2709
  278SOL    HW1  833   1.392   0.183   2.407  0.4188 -0.7096 -0.0943
  278SOL    HW2  834   1.490   0.319   2.415  0.0983 -1.2325  0.0684
  279SOL     OW  835   1.566   2.714   0.872  0.2169 -0.2284 -0.3232
  279SOL    HW1  836   1.536   2.792   0.815 -0.5197  3.0109  2.0395
  279SOL    HW2  837   1.540   2.626   0.828 -2.5980 -0.7110  0.5905
  280SOL     OW  838   0.774   0.996   0.819 -0.7008  0.2136 -0.4113
  280SOL    HW1  839   0.809   1.090   0.839  0.8395  0.1530 -0.3868
  280SOL    HW2  840   0.691   0.995   0.761  0.4574 -0.3707 -1.9823
  281SOL     OW  841   2.496   1.452   2.887  0.4116 -0.3044 -0.1623
  281SOL    HW1  842   2.568   1.383   2.869 -2.4549  0.9709 -0.3299
  281SOL    HW2  843   2.518   1.545   2.860  0.7157  0.4416  0.1461
  282SOL     OW  844   3.056   1.192   0.227 -0.1076  0.3191 -0.1677
  282SOL    HW1  845   2.959   1.162   0.208 -1.4705 -1.2282  1.5678
  282SOL    HW2  846   3.076   1.151   0.321  0.5420 -1.3037  3.4857
  283SOL     OW  847   1.922   2.652   2.704 -0.1807 -0.2088 -0.7516
  283SOL    HW1  848   1.996   2.628   2.642 -0.5083 -0.9785 -0.0849
  283SOL    HW2  849   1.833   2.609   2.679 -1.0939  2.3917  2.3230
  284SOL     OW  850   1.095   0.092   0.090 -0.4181 -0.2242 -0.3249
  284SOL    HW1  851   1.043   0.003   0.096 -0.5602  0.2473 -0.7544
  284SOL    HW2  852   1.155   0.107   0.174 -0.9166 -0.6850  1.4237
  285SOL     OW  853   2.481   1.504   2.337  0.2329  0.7126  0.1229
  285SOL    HW1  854   2.435   1.429   2.286 -2.8903  0.3880  3.4955
  285SOL    HW2  855   2.413   1.551   2.400  0.6118 -0.0891 -0.2651
  286SOL     OW  856   1.604   2.464   0.752  0.5161 -0.8643 -0.0918
  286SOL    HW1  857   1.702   2.498   0.737  2.1790  1.3919 -0.6236
  286SOL    HW2  858   1.606   2.363   0.757 -0.7039 -0.5567 -2.3226
  287SOL     OW  859   1.531   0.674   0.882 -0.2411 -0.4815 -0.1323
  287SOL    HW1  860   1.480   0.639   0.804  2.8876 -0.1928 -1.3159
  287SOL    HW2  861   1.611   0.615   0.905 -0.4988 -0.9923  1.3051
  288SOL     OW  862   0.882   2.816   2.249  0.2396  0.5102  0.4579
  288SOL    HW1  863   0.899   2.756   2.328  1.7250 -0.6209  1.3806
  288SOL    HW2  864   0.784   2.813   2.215 -0.7213 -0.7033  0.1796
  289SOL     OW  865   0.107   1.306   0.741 -0.4485  0.4209  0.3662
  289SOL    HW1  866   0.172   1.288   0.816  0.9438  0.3275 -0.0387
  289SOL    HW2  867   0.010   1.320   0.781  0.7349  0.7280  1.8879
  290SOL     OW  868   1.197   2.220   0.906  0.6684  0.0491 -0.1676
  290SOL    HW1  869   1.249   2.307   0.885 -1.4526  0.0918 -2.3324
  290SOL    HW2  870   1.197   2.154   0.831 -0.7097  1.8805 -0.2686
  291SOL     OW  871   1.365   2.997   0.223 -0.4198 -0.5684  0.2855
  291SOL    HW1  872   1.311   2.944   0.157 -0.3561 -0.7062  0.0568
  291SOL    HW2  873   1.370   2.943   0.311 -0.2003  2.2482  1.9844
  292SOL     OW  874   0.465   0.324   2.355 -0.1509  0.2245  0.3214
  292SOL    HW1  875   0.564   0.311   2.372 -2.1395 -0.7160 -0.9144
  292SOL    HW2  876   0.409   0.338   2.438 -0.1535  0.6516 -0.6795
  293SOL     OW  877   2.501   1.645   0.776  0.1425 -0.1614  0.0286
  293SOL    HW1  878   2.589   1.684   0.740  0.4469  0.4090 -0.1766
  293SOL    HW2  879   2.456   1.702   0.849 -2.4085 -0.0748  2.7022
  294SOL     OW  880   0.696   0.131   2.191 -0.1357 -0.2547 -0.2666
  294SOL    HW1  881   0.688   0.158   2.291 -0.1940 -0.6819  0.9069
  294SOL    HW2  882   0.611   0.075   2.168 -1.4379 -0.2949 -0.1704
  295SOL     OW  883   1.034   1.611   0.888 -0.5086 -0.0611 -0.1789
  295SOL    HW1  884   1.036   1.529   0.954 -0.7947 -1.8124  1.5162
  295SOL    HW2  885   0.935   1.646   0.877 -0.9576 -0.3044 -1.4152
  296SOL     OW  886   2.284   1.715   0.619  0.0113 -0.5007 -0.0310
  296SOL    HW1  887   2.319   1.778   0.548 -0.4932  0.7037  2.3863
  296SOL    HW2  888   2.355   1.654   0.657 -3.2198  1.3466 -0.7649
  297SOL     OW  889   2.474   3.046   3.022  0.3436  0.0172  0.3281
  297SOL    HW1  890   2.435   2.956   2.993  0.7688 -1.3063  2.3109
  297SOL    HW2  891   2.466   3.058   0.039 -1.5313 -1.8906 -0.3652
  298SOL     OW  892   1.139   0.337   2.572 -0.1373 -0.1989 -0.0853
  298SOL    HW1  893   1.055   0.394   2.601 -2.3448  2.1264  1.0580
  298SOL    HW2  894   1.194   0.319   2.652 -0.4885  1.3945  0.9878
  299SOL     OW  895   1.009   2.657   1.889  0.0997 -0.0467  0.2799
  299SOL    HW1  896   0.983   2.751   1.867 -0.6341  1.9440 -1.5179
  299SOL    HW2  897   1.062   2.652   1.975 -0.4451  2.2650  0.1092
  300SOL     OW  898   2.750   2.978   1.994 -0.8705  0.2268  0.4385
  300SOL    HW1  899   2.792   2.987   2.086  0.0121 -1.7161 -2.2875
  300SOL    HW2  900   2.807   3.025   1.925 -0.0716  0.4804  1.6326
  301SOL     OW  901   1.849   0.520   1.919 -0.7301  0.1748  0.0769
  301SOL    HW1  902   1.913   0.568   1.981  0.1482 -0.5913 -0.0054
  301SOL    HW2  903   1.897   0.447   1.869 -0.9358  0.9587  0.5411
  302SOL     OW  904   0.198   2.337   0.020 -0.5027 -0.0001 -0.0070
  302SOL    HW1  905   0.184   2.253   0.074 -0.4533  0.1138 -0.1247
  302SOL    HW2  906   0.125   2.411   0.032 -2.5090  0.4478  1.8711
  303SOL     OW  907   1.768   2.451   1.486 -0.1504 -0.2138  0.2516
  303SOL    HW1  908   1.690   2.388   1.476  0.7917  2.2188 -3.0199
  303SOL    HW2  909   1.832   2.420   1.558  1.5743  2.9359 -1.1457
  304SOL     OW  910   2.848   0.792   1.352  0.0107 -0.0931 -0.0261
  304SOL    HW1  911   2.871   0.744   1.265 -2.5289  1.0467  1.9559
  304SOL    HW2  912   2.858   0.892   1.340 -0.2606 -3.6178 -0.0708
  305SOL     OW  913   0.567   1.074   0.643  0.1148  0.4435 -0.3045
  305SOL    HW1  914   0.478   1.071   0.697  0.5098 -0.5730  0.9323
  305SOL    HW2  915   0.604   1.170   0.644  1.6313  0.8415 -2.7108
  306SOL     OW  916   0.452   1.268   2.790 -0.0388 -0.5885  0.4103
  306SOL    HW1  917   0.503   1.180   2.799 -0.6000  0.5761  0.5434
  306SOL    HW2  918   0.354   1.258   2.767  1.7666 -0.1353 -1.1736
  307SOL     OW  919   1.104   0.266   1.567 -0.1583 -0.1048  0.2960
  307SOL    HW1  920   1.150   0.280   1.656  1.0932 -3.1829 -0.0904
  307SOL    HW2  921   1.007   0.237   1.577  1.4007  1.6138 -0.0230
  308SOL     OW  922   0.467   0.901   0.992 -0.1740 -0.1496 -0.4758
  308SOL    HW1  923   0.398   0.885   1.065  1.5830 -0.5997 -0.9017
  308SOL    HW2  924   0.560   0.896   1.031 -1.4975 -0.3637  0.2522
  309SOL     OW  925   2.318   0.955   0.888 -0.1199  0.2553 -0.0257
  309SOL    HW1  926   2.248   0.886   0.857 -1.7030  2.2055 -2.2496
  309SOL    HW2  927   2.266   1.033   0.928  1.4774  2.0334 -1.0623
  310SOL     OW  928   0.558   1.810   2.882 -0.0899  0.4854  0.3147
  310SOL    HW1  929   0.535   1.737   2.818  0.5567  0.3676  0.1352
  310SOL    HW2  930   0.481   1.873   2.906 -0.4207  0.1541  2.1934
  311SOL     OW  931   2.431   2.698   2.553  0.4337  0.4613 -0.2668
  311SOL    HW1  932   2.497   2.688   2.474 -1.1955 -0.8897 -1.1436
  311SOL    HW2  933   2.450   2.788   2.595 -0.9600  1.5301 -2.7050
  312SOL     OW  934   2.056   2.019   3.035  0.5363  0.2074 -0.5549
  312SOL    HW1  935   2.019   1.923   3.040  2.0652 -2.5745  1.7302
  312SOL    HW2  936   2.156   2.021   3.039 -1.5368  2.4748 -0.5358
  313SOL     OW  937   0.518   0.084   0.297 -0.2137  0.0141 -0.2925
  313SOL    HW1  938   0.596   0.147   0.310  0.1867  0.6575  0.7112
  313SOL    HW2  939   0.528   0.014   0.371  0.6712  2.1435  0.9685
  314SOL     OW  940   2.261   1.523   2.724 -0.2540 -0.5773 -0.0824
  314SOL    HW1  941   2.200   1.583   2.783  1.6482  0.0857  1.0008
  314SOL    HW2  942   2.331   1.474   2.780  0.0472  0.4800  0.0526
  315SOL     OW  943   1.631   0.431   2.456  0.2169  0.2136 -0.1238
  315SOL    HW1  944   1.717   0.397   2.491  1.0730  2.2812 -2.3553
  315SOL    HW2  945   1.604   0.513   2.514  1.0666  3.1898 -1.0311
  316SOL     OW  946   0.090   0.970   0.740 -0.1882 -0.0316  0.2445
  316SOL    HW1  947   0.051   0.995   0.834 -1.2409  1.4749  1.2191
  316SOL    HW2  948   0.027   1.019   0.675  1.1581  0.8674 -0.1833
  317SOL     OW  949   0.429   2.734   3.018  0.0003 -0.2085  0.3717
  317SOL    HW1  950   0.391   2.722   2.929  0.0316  0.7194  2.6307
  317SOL    HW2  951   0.494   2.814   3.011  0.4525 -2.5800  1.1802
  318SOL     OW  952   2.431   2.589   0.933  0.5163  0.3483 -0.8742
  318SOL    HW1  953   2.395   2.649   0.861 -0.2001 -3.1125  2.1187
  318SOL    HW2  954   2.453   2.649   1.016 -0.4069 -0.5272 -1.2489
  319SOL     OW  955   0.972   1.582   2.866 -0.2041  0.4569 -0.0514
  319SOL    HW1  956   1.072   1.559   2.859  1.4023 -2.2994 -1.8135
  319SOL    HW2  957   0.960   1.674   2.819  0.9513 -0.0896 -0.3054
  320SOL     OW  958   0.469   1.858   1.212 -0.0314 -0.3239  0.0588
  320SOL    HW1  959   0.428   1.781   1.273 -2.5958 -2.3894  0.6220
  320SOL    HW2  960   0.418   1.859   1.123  1.8079  0.6905 -0.1958
  321SOL     OW  961   1.446   2.901   1.937 -0.0758 -0.8119 -0.3112
  321SOL    HW1  962   1.390   2.947   1.866  1.9654 -0.3983 -1.0491
  321SOL    HW2  963   1.456   2.948   2.026 -0.2294  0.3662 -0.7709
  322SOL     OW  964   2.290   1.923   2.265 -0.0246 -0.0442  0.1747
  322SOL    HW1  965   2.262   2.009   2.312 -0.7479  0.8204  1.3812
  322SOL    HW2  966   2.389   1.921   2.243  3.8128 -0.0019 -2.0777
  323SOL     OW  967   2.769   0.067   0.740 -0.6476 -1.0048  0.2477
  323SOL    HW1  968   2.727   3.068   0.773 -1.3358 -0.4657 -1.3872
  323SOL    HW2  969   2.717   0.148   0.777  0.0313 -2.8547 -0.5823
  324SOL     OW  970   2.890   2.706   2.501  0.3479  0.2806 -0.4381
  324SOL    HW1  971   2.940   2.639   2.562 -1.4183 -0.2381 -1.2212
  324SOL    HW2  972   2.858   2.663   2.418  2.4154  0.8324 -0.2227
  325SOL     OW  973   1.219   0.568   2.433  0.0088 -0.0166  0.2662
  325SOL    HW1  974   1.242   0.539   2.335  1.0068 -0.3160 -0.1021
  325SOL    HW2  975   1.215   0.488   2.496  0.5451  2.3078  0.8857
  326SOL     OW  976   2.236   2.557   1.650 -0.2307 -0.4403  0.1481
  326SOL    HW1  977   2.319   2.601   1.684  1.0467  0.9781  0.4567
  326SOL    HW2  978   2.158   2.595   1.703  1.5210 -0.1248 -3.1594
  327SOL     OW  979   2.436   3.018   0.221  0.6756  0.2673 -0.1840
  327SOL    HW1  980   2.381   3.085   0.279 -2.4301  0.4838 -0.6295
  327SOL    HW2  981   2.406   2.926   0.244  1.0204  2.8180  1.3398
  328SOL     OW  982   0.017   1.238   1.617  0.0944 -0.1751 -0.3929
  328SOL    HW1  983   0.100   1.180   1.643 -0.8933  1.8817  0.2567
  328SOL    HW2  984   0.048   1.335   1.627  0.7042 -0.4702  1.4237
  329SOL     OW  985   2.061   0.685   1.623  0.1865 -0.0246 -0.0833
  329SOL    HW1  986   2.025   0.735   1.705 -1.8163 -1.7338 -2.4594
  329SOL    HW2  987   1.978   0.665   1.567  0.3125  1.8327 -0.6319
  330SOL     OW  988   0.121   0.938   1.129 -0.3323 -0.0529 -0.5517
  330SOL    HW1  989   0.046   0.991   1.085 -1.5035  0.1269 -1.5855
  330SOL    HW2  990   0.113   0.841   1.094 -0.3106 -0.1979 -3.3681
  331SOL     OW  991   0.580   1.344   1.775  0.2440 -0.1341 -0.6379
  331SOL    HW1  992   0.663   1.391   1.815  2.1299  2.7269  1.6744
  331SOL    HW2  993   0.496   1.380   1.828  1.5260 -0.0764  0.7701
  332SOL     OW  994   0.170   2.557   1.399  0.0885  0.0009  0.1963
  332SOL    HW1  995   0.105   2.601   1.459 -0.1273 -0.8420 -1.2141
  332SOL    HW2  996   0.194   2.465   1.434 -1.4833 -0.2097  0.7017
  333SOL     OW  997   2.951   2.941   0.981 -0.0256  0.2794  0.5651
  333SOL    HW1  998   2.986   3.039   0.961 -2.3512 -0.1685  0.1293
  333SOL    HW2  999   3.011   2.874   0.931 -1.0807 -0.3375  0.8563
  334SOL     OW 1000   0.067   1.108   0.471 -0.3338 -0.3074 -0.0936
  334SOL    HW1 1001   0.131   1.175   0.512  2.7053  1.3679  0.9095
  334SOL    HW2 1002   3.067   1.100   0.522  0.2931  1.5080 -0.4484
  335SOL     OW 1003   0.387   2.463   2.970 -0.6233 -0.2884 -0.8420
  335SOL    HW1 1004   0.322   2.413   3.034  0.2659 -1.7703  2.2115
  335SOL    HW2 1005   0.404   2.560   3.006 -0.4667  3.1062 -1.0707
  336SOL     OW 1006   2.842   2.587   2.228 -0.0847  0.1915 -0.0003
  336SOL    HW1 1007   2.917   2.515   2.238  1.9504 -2.6052  1.3709
  336SOL    HW2 1008   2.796   2.583   2.139 -0.4962 -0.7708  0.1952
  337SOL     OW 1009   1.950   2.096   1.741  0.3623 -0.5839  0.5236
  337SOL    HW1 1010   1.876   2.159   1.707 -0.6950 -2.6710  0.3634
  337SOL    HW2 1011   1.930   1.997   1.731  0.1260  0.4666 -0.0063
  338SOL     OW 1012   0.943   0.485   2.662 -0.2498  0.0807 -0.2315
  338SOL    HW1 1013   0.953   0.544   2.581  1.2265  0.4100 -1.3625
  338SOL    HW2 1014   0.844   0.448   2.651 -4.1884 -0.2515 -3.0136
  339SOL     OW 1015   0.309   1.152   2.153  0.2873  0.4526  0.4819
  339SOL    HW1 1016   0.283   1.213   2.077  0.1806 -2.3845 -0.9690
  339SOL    HW2 1017   0.353   1.196   2.230  0.0284 -0.8498 -1.2587
  340SOL     OW 1018   1.988   0.016   0.642  0.3909  0.1059  0.0596
  340SOL    HW1 1019   2.006   0.021   0.745  0.8628 -0.4659 -0.8063
  340SOL    HW2 1020   1.912   3.033   0.622 -0.5120 -4.7007 -1.8017
  341SOL     OW 1021   2.227   1.325   0.647 -0.1472  0.2504  0.2776
  341SOL    HW1 1022   2.202   1.414   0.595 -1.1172  2.0990 -1.1410
  341SOL    HW2 1023   2.241   1.353   0.748 -1.9035 -0.6122  1.4125
  342SOL     OW 1024   2.309   2.622   3.072  0.0366  0.7196  0.3423
  342SOL    HW1 1025   2.349   2.542   3.026 -1.4844  0.9548 -2.4580
  342SOL    HW2 1026   2.219   2.608   0.027 -0.5928  0.7121  1.8179
  343SOL     OW 1027   1.001   2.230   1.481  0.3596  0.3583 -0.9655
  343SOL    HW1 1028   0.944   2.270   1.556  0.5425 -2.1683  1.2532
  343SOL    HW2 1029   0.941   2.207   1.403 -0.0410  0.0891  1.0039
  344SOL     OW 1030   2.209   2.589   1.381  0.3667  0.1026  0.3155
  344SOL    HW1 1031   2.225   2.528   1.459 -2.3747 -1.2614 -2.2142
  344SOL    HW2 1032   2.277   2.666   1.381 -0.7152 -2.0987  0.3874
  345SOL     OW 1033   2.668   1.992   0.010  0.0404  0.4501 -0.1659
  345SOL    HW1 1034   2.721   1.966   3.019 -1.8227  0.4522  3.4637
  345SOL    HW2 1035   2.717   1.971   0.095 -3.3964  3.0286  0.3376
  346SOL     OW 1036   1.751   2.173   1.117  0.3950  0.0896  0.5012
  346SOL    HW1 1037   1.780   2.187   1.018  2.1540 -0.6298  0.5735
  346SOL    HW2 1038   1.663   2.128   1.121  2.3310  3.1198  0.4153
  347SOL     OW 1039   1.312   1.949   1.274  0.1499  0.2969  0.1184
  347SOL    HW1 1040   1.245   1.912   1.211  4.0382 -0.9021  0.6077
  347SOL    HW2 1041   1.312   2.053   1.266  2.5817  4.1777  2.4021
  348SOL     OW 1042   0.570   1.687   2.067 -0.4426  0.1793 -0.0969
  348SOL    HW1 1043   0.510   1.707   2.147  0.4311 -2.6212  0.3759
  348SOL    HW2 1044   0.669   1.712   2.092 -1.2130  0.7212  1.8094
  349SOL     OW 1045   1.910   1.559   1.147  0.3260 -0.5880  0.0148
  349SOL    HW1 1046   1.811   1.549   1.123 -1.1916  0.1171  0.2692
  349SOL    HW2 1047   1.931   1.629   1.218  0.2740 -0.8323  0.5176
  350SOL     OW 1048   2.654   2.385   0.607 -0.8558 -0.0583  0.3616
  350SOL    HW1 1049   2.747   2.405   0.566  3.4639  0.2892  1.3629
  350SOL    HW2 1050   2.655   2.412   0.706  2.5945 -1.9379 -2.0297
  351SOL     OW 1051   0.866   0.047   1.484 -0.2256  0.5138 -0.0400
  351SOL    HW1 1052   0.845   0.147   1.492 -1.2496  0.4893  1.8068
  351SOL    HW2 1053   0.908   0.011   1.397  0.0928  0.4995 -0.8332
  352SOL     OW 1054   0.191   1.529   0.955 -0.8155 -0.0808 -0.0263
  352SOL    HW1 1055   0.220   1.431   0.945  0.4635  2.6458  2.0429
  352SOL    HW2 1056   0.175   1.553   1.052 -0.3986  0.1839 -4.3248
  353SOL     OW 1057   1.105   1.418   2.175  0.4056  0.7676  0.1842
  353SOL    HW1 1058   1.138   1.361   2.100 -1.9694  0.7575  2.4541
  353SOL    HW2 1059   1.140   1.390   2.266 -1.0098 -1.9754  0.4253
  354SOL     OW 1060   1.524   0.222   1.820  0.4129  0.6533  0.0647
  354SOL    HW1 1061   1.495   0.282   1.742  0.0579 -0.9387 -2.9800
  354SOL    HW2 1062   1.625   0.214   1.815 -2.3783  0.5708  3.3330
  355SOL     OW 1063   2.578   1.296   0.338  0.2020  0.3002 -0.4669
  355SOL    HW1 1064   2.579   1.378   0.402  2.4180 -0.7237  0.5957
  355SOL    HW2 1065   2.591   1.324   0.240  1.2419 -0.2366 -3.5996
  356SOL     OW 1066   2.803   1.750   1.408 -0.2510  0.2483 -0.0921
  356SOL    HW1 1067   2.734   1.780   1.481 -1.0043  1.3743  0.7634
  356SOL    HW2 1068   2.759   1.735   1.319  1.6542 -0.8039  1.2179
  357SOL     OW 1069   0.407   2.641   1.280 -0.1038 -0.1418 -0.3896
  357SOL    HW1 1070   0.321   2.605   1.327  1.2346 -0.6421  1.8343
  357SOL    HW2 1071   0.404   2.740   1.270 -0.7793 -3.3782  1.9065
  358SOL     OW 1072   2.708   1.642   1.769  0.6539 -0.6629  0.6183
  358SOL    HW1 1073   2.630   1.659   1.833 -1.7154 -0.3628  2.2823
  358SOL    HW2 1074   2.677   1.575   1.699 -1.4170  0.3817  0.2188
  359SOL     OW 1075   2.306   2.829   2.903  0.1969 -0.5060  0.1236
  359SOL    HW1 1076   2.299   2.740   2.954  4.2503  2.5082  0.1089
  359SOL    HW2 1077   2.217   2.868   2.875  0.9492  1.7162 -1.7830
  360SOL     OW 1078   1.029   0.136   0.886 -0.4770 -0.0672  0.0649
  360SOL    HW1 1079   1.112   0.191   0.894 -0.5371  0.1078  0.0768
  360SOL    HW2 1080   1.056   0.039   0.867 -0.7066  1.1927  1.9419
  361SOL     OW 1081   2.223   0.277   0.778  0.2371 -0.1960 -0.1165
  361SOL    HW1 1082   2.175   0.366   0.784  0.6039  0.6109 -0.7980
  361SOL    HW2 1083   2.166   0.198   0.815  2.6971  1.0926 -0.1559
  362SOL     OW 1084   1.961   1.221   0.912  0.1317 -0.2589 -0.6798
  362SOL    HW1 1085   2.062   1.221   0.929  1.7234 -1.3618  0.6969
  362SOL    HW2 1086   1.920   1.131   0.939 -0.1970 -0.9143  0.7455
  363SOL     OW 1087   2.356   1.025   2.317 -0.5743  0.0468 -0.2388
  363SOL    HW1 1088   2.258   1.045   2.301  3.1876 -2.3615  1.8809
  363SOL    HW2 1089   2.416   1.104   2.289 -1.2791  0.0624 -0.7952
  364SOL     OW 1090   0.294   0.288   1.256 -0.2062  0.3159 -0.4882
  364SOL    HW1 1091   0.279   0.380   1.222 -0.3801 -1.8086  1.7821
  364SOL    HW2 1092   0.210   0.236   1.273  1.1081 -0.1452  2.4757
  365SOL     OW 1093   0.703   0.213   2.948  0.4260 -0.5042  0.2296
  365SOL    HW1 1094   0.621   0.205   2.884 -0.9481  0.8841 -1.3364
  365SOL    HW2 1095   0.785   0.184   2.894 -2.4494  0.2959  0.7524
  366SOL     OW 1096   2.014   2.422   2.853 -0.4883  0.1998  0.1579
  366SOL    HW1 1097   1.974   2.513   2.822  0.6000  0.9718  1.1769
  366SOL    HW2 1098   2.111   2.414   2.837 -1.8380  0.0230 -0.1826
  367SOL     OW 1099   2.916   2.269   0.146  0.2184 -0.1295 -0.1787
  367SOL    HW1 1100   2.875   2.288   0.240  0.4617  0.0340  2.3466
  367SOL    HW2 1101   2.981   2.348   0.134 -0.8113  4.0927 -2.6500
  368SOL     OW 1102   3.037   1.194   1.353  0.6612  0.3332 -0.1568
  368SOL    HW1 1103   3.068   1.278   1.305  0.3542  0.3381  0.2247
  368SOL    HW2 1104   3.042   1.205   1.453  1.0088  2.3763 -0.6330
  369SOL     OW 1105   0.917   0.114   2.825  0.1037  0.1069  0.4217
  369SOL    HW1 1106   0.909   0.098   2.725  0.4876 -1.5536  2.6063
  369SOL    HW2 1107   1.015   0.124   2.856 -2.5935  1.8283  0.8638
  370SOL     OW 1108   2.772   0.446   0.527 -0.2308  0.2324 -0.0835
  370SOL    HW1 1109   2.693   0.385   0.526 -0.0846  0.7214  0.1521
  370SOL    HW2 1110   2.853   0.395   0.486  1.8397 -1.8554  1.0139
  371SOL     OW 1111   1.601   2.116   0.793 -0.3206 -0.0659 -0.7183
  371SOL    HW1 1112   1.604   2.062   0.710 -2.2807  4.9819  0.7911
  371SOL    HW2 1113   1.691   2.143   0.830 -1.2705 -0.3379  0.7388
  372SOL     OW 1114   2.884   0.701   2.674  0.3985 -0.2471  0.0009
  372SOL    HW1 1115   2.864   0.663   2.582  0.3610  0.6722 -0.8770
  372SOL    HW2 1116   2.903   0.798   2.657 -1.6081 -5.6913  1.7840
  373SOL     OW 1117   2.741   1.662   1.145  0.0943 -0.2706  0.5800
  373SOL    HW1 1118   2.765   1.689   1.050 -0.0108 -0.1157  2.4581
  373SOL    HW2 1119   2.652   1.611   1.146  0.0416 -1.9875  0.9634
  374SOL     OW 1120   0.618   2.925   2.990 -0.2370  0.0025  0.2588
  374SOL    HW1 1121   0.660   2.962   3.075  0.1098 -0.6912 -2.8003
  374SOL    HW2 1122   0.660   2.964   2.906  2.1259  0.6389  0.0013
  375SOL     OW 1123   0.188   3.035   0.060 -0.1441 -0.2096  0.5491
  375SOL    HW1 1124   0.209   3.013   0.158 -0.4793  0.1204  0.0570
  375SOL    HW2 1125   0.090   3.043   0.048  1.2213 -2.4670 -2.3409
  376SOL     OW 1126   3.021   2.222   1.406 -0.4531  0.3425  0.0831
  376SOL    HW1 1127   3.034   2.190   1.505  0.7880 -0.4473  0.4667
  376SOL    HW2 1128   0.012   2.185   1.350  1.3300 -0.1125  1.6865
  377SOL     OW 1129   1.638   2.214   2.501  0.1025  0.5437  0.2262
  377SOL    HW1 1130   1.645   2.224   2.605  0.6683 -0.7039 -0.4955
  377SOL    HW2 1131   1.651   2.115   2.484 -1.2963  0.1133  0.8992
  378SOL     OW 1132   0.589   0.403   0.033  0.1307 -0.1124  0.2173
  378SOL    HW1 1133   0.606   0.480   3.048  4.0905  2.2706 -1.3531
  378SOL    HW2 1134   0.622   0.321   3.079  1.2692  5.3686 -1.3161
  379SOL     OW 1135   0.579   0.773   0.254 -0.1811  0.0314 -0.1859
  379SOL    HW1 1136   0.635   0.849   0.215  0.1736  1.2122 -0.6082
  379SOL    HW2 1137   0.550   0.794   0.350  0.2565  2.2658  2.7008
  380SOL     OW 1138   3.057   1.865   1.777 -0.1696 -0.1862  0.1249
  380SOL    HW1 1139   2.986   1.854   1.849  0.4083  1.2186  1.4153
  380SOL    HW2 1140   0.059   1.834   1.818 -0.2020  0.9574  0.3476
  381SOL     OW 1141   0.222   1.089   1.681 -0.0222  0.1403 -0.5668
  381SOL    HW1 1142   0.297   1.067   1.620 -1.3083  3.0563  1.0606
  381SOL    HW2 1143   0.165   1.002   1.696 -1.7352 -0.4670 -2.4555
  382SOL     OW 1144   2.316   1.902   0.377 -0.3947  0.2430 -0.3229
  382SOL    HW1 1145   2.358   1.966   0.312  2.3558  2.2567 -1.7598
  382SOL    HW2 1146   2.220   1.880   0.356 -0.6452  0.5274  0.1495
  383SOL     OW 1147   2.885   1.938   2.924  0.4276  0.0377  0.5085
  383SOL    HW1 1148   2.961   1.875   2.893  0.4817 -3.4146 -2.0593
  383SOL    HW2 1149   2.919   2.029   2.965  0.6370 -0.1423 -0.3035
  384SOL     OW 1150   0.789   2.277   2.489 -0.2806 -0.3783 -0.2997
  384SOL    HW1 1151   0.727   2.271   2.567  1.2871  3.4378 -1.8186
  384SOL    HW2 1152   0.736   2.295   2.408  0.2780 -0.3246  2.1271
  385SOL     OW 1153   2.890   1.291   1.027  0.3785  0.1086 -0.2697
  385SOL    HW1 1154   2.910   1.350   1.112  0.0653  1.1917  0.5860
  385SOL    HW2 1155   2.790   1.268   1.029  0.3321 -0.9275  0.2176
  386SOL     OW 1156   2.220   1.626   1.472 -0.4941 -0.1101 -0.0995
  386SOL    HW1 1157   2.291   1.592   1.411 -0.6943  2.4877 -0.2568
  386SOL    HW2 1158   2.127   1.631   1.432  1.3779  0.9163 -0.0584
  387SOL     OW 1159   2.729   1.237   2.002  0.1469 -0.4082 -0.6576
  387SOL    HW1 1160   2.797   1.216   1.930 -0.1193 -0.6623 -1.1433
  387SOL    HW2 1161   2.643   1.284   1.966 -1.6866  1.8465 -1.2402
  388SOL     OW 1162   2.945   1.352   2.144  0.3309 -0.0411  0.1755
  388SOL    HW1 1163   2.852   1.314   2.114  0.5637 -0.8464  1.3074
  388SOL    HW2 1164   3.016   1.353   2.065 -0.1402 -0.6636 -0.7804
  389SOL     OW 1165   1.851   1.180   1.836  0.2560 -0.2109  0.0141
  389SOL    HW1 1166   1.918   1.160   1.913 -1.5085  0.3461  0.6957
  389SOL    HW2 1167   1.911   1.178   1.751  0.3268 -0.4635  1.0062
  390SOL     OW 1168   1.791   2.924   0.551 -0.5637  0.2512 -0.1707
  390SOL    HW1 1169   1.815   2.823   0.553  1.0384 -0.2474  1.1351
  390SOL    HW2 1170   1.811   2.963   0.458  0.2011  1.1510 -0.3483
  391SOL     OW 1171   2.158   1.656   0.988 -0.2379 -0.1747 -1.1128
  391SOL    HW1 1172   2.199   1.737   1.034 -0.5576 -2.2269 -0.0073
  391SOL    HW2 1173   2.081   1.619   1.040 -1.3837  1.2303  1.7788
  392SOL     OW 1174   2.638   2.437   0.863  0.3825  0.2787  0.3502
  392SOL    HW1 1175   2.724   2.462   0.910  0.8164  0.4029  0.8634
  392SOL    HW2 1176   2.558   2.492   0.892 -2.4071  0.8538  0.9144
  393SOL     OW 1177   1.508   1.836   2.703  0.0385  0.2794 -0.4228
  393SOL    HW1 1178   1.521   1.742   2.661 -2.0949 -2.0010 -2.1333
  393SOL    HW2 1179   1.561   1.901   2.647 -5.0319 -2.3491 -0.0952
  394SOL     OW 1180   0.144   0.085   2.766 -0.4383  0.0059 -0.0041
  394SOL    HW1 1181   0.047   0.068   2.789  0.7547 -1.6017 -1.3788
  394SOL    HW2 1182   0.205   0.009   2.795  1.6126 -1.4068  0.2024
  395SOL     OW 1183   0.717   0.892   1.069 -0.2072  0.4422  0.5748
  395SOL    HW1 1184   0.717   0.789   1.070 -0.9335  3.6254 -1.4981
  395SOL    HW2 1185   0.744   0.928   0.972 -0.8432  1.4614 -3.6301
  396SOL     OW 1186   1.047   1.058   0.651 -0.2160  0.3243 -0.0151
  396SOL    HW1 1187   1.049   1.011   0.745  0.3567  0.7323 -1.2479
  396SOL    HW2 1188   1.134   1.051   0.603 -0.1286  0.9010  2.9747
  397SOL     OW 1189   0.516   0.700   2.052 -0.3206  0.1759 -0.4190
  397SOL    HW1 1190   0.428   0.653   2.027  0.1155 -1.6077  1.6757
  397SOL    HW2 1191   0.495   0.797   2.067  2.7951 -2.8421  1.2524
  398SOL     OW 1192   1.194   0.077   0.333 -0.4152 -0.0354  0.2142
  398SOL    HW1 1193   1.237   0.140   0.400  1.9396 -0.2095 -1.9990
  398SOL    HW2 1194   1.259   0.010   0.286  2.8739 -1.7478 -1.0645
  399SOL     OW 1195   2.066   2.849   1.628  0.0144  0.5355 -1.1285
  399SOL    HW1 1196   2.018   2.767   1.659  2.3469  2.4929  3.3425
  399SOL    HW2 1197   2.020   2.891   1.553  0.2235  0.4878  2.6006
  400SOL     OW 1198   1.059   1.682   2.111  0.1255  0.5772  0.4920
  400SOL    HW1 1199   1.054   1.741   2.197  0.8367 -0.7584  0.6732
  400SOL    HW2 1200   1.084   1.584   2.128 -0.3837  1.5190  1.0689
  401SOL     OW 1201   0.712   1.071   2.630  0.1043  0.0103 -0.3257
  401SOL    HW1 1202   0.667   1.075   2.721  0.6279 -1.4057  0.8955
  401SOL    HW2 1203   0.674   0.989   2.586  1.2184  1.6358  1.2672
  402SOL     OW 1204   2.714   1.995   1.005 -0.7360 -0.1827  0.0644
  402SOL    HW1 1205   2.772   1.916   0.980 -1.0114 -0.5943  1.1576
  402SOL    HW2 1206   2.684   1.991   1.104 -1.2435  2.6222  1.8725
  403SOL     OW 1207   0.135   0.965   2.264  0.5406  0.2560 -0.4717
  403SOL    HW1 1208   0.050   1.018   2.293 -0.3504  1.0647 -0.3218
  403SOL    HW2 1209   0.188   1.022   2.199  1.5217  0.4035 -0.1646
  404SOL     OW 1210   0.218   2.608   1.719 -0.3137 -0.3151  0.4906
  404SOL    HW1 1211   0.129   2.629   1.676 -0.1373 -1.3029  0.0512
  404SOL    HW2 1212   0.292   2.647   1.662  0.1429 -2.6762  0.4526
  405SOL     OW 1213   0.343   0.347   2.122  0.4225 -0.3383  0.7606
  405SOL    HW1 1214   0.377   0.348   2.217  0.1506  0.1088  1.0800
  405SOL    HW2 1215   0.278   0.269   2.109  1.2837  1.2385 -2.1231
  406SOL     OW 1216   1.651   1.782   2.272  0.7873  0.2568  0.7445
  406SOL    HW1 1217   1.717   1.795   2.199 -0.5274 -0.8051  0.1634
  406SOL    HW2 1218   1.597   1.695   2.262 -0.5000 -1.3933 -1.1660
  407SOL     OW 1219   1.315   1.217   2.302  0.0544  0.3207  0.4682
  407SOL    HW1 1220   1.363   1.228   2.214 -0.6569  0.1420 -1.3036
  407SOL    HW2 1221   1.230   1.159   2.287 -0.2903 -2.5646  1.7179
  408SOL     OW 1222   0.831   0.063   2.563  0.2254 -0.1756 -0.0678
  408SOL    HW1 1223   0.787   0.145   2.517 -0.0870  0.3982 -1.4958
  408SOL    HW2 1224   0.898   0.017   2.501 -1.1635  0.5497  1.6935
  409SOL     OW 1225   0.403   1.927   0.635 -0.4331  0.0655  0.2606
  409SOL    HW1 1226   0.498   1.885   0.626  1.5515 -2.5686  1.7256
  409SOL    HW2 1227   0.393   1.992   0.558 -2.3267  2.0519  0.5392
  410SOL     OW 1228   2.762   1.135   0.233 -0.0817 -0.2811 -0.1017
  410SOL    HW1 1229   2.727   1.040   0.235 -2.4550 -0.2704 -3.5142
  410SOL    HW2 1230   2.705   1.205   0.283 -1.7890  4.4185 -1.0866
  411SOL     OW 1231   0.054   0.025   1.242  0.1552  0.8185  0.7241
  411SOL    HW1 1232   0.063   0.043   1.339 -0.3632 -1.2554 -1.7520
  411SOL    HW2 1233   0.068   3.015   1.225  1.2372  0.8255 -2.3451
  412SOL     OW 1234   1.512   0.976   1.529 -0.0747  0.4332 -0.4010
  412SOL    HW1 1235   1.581   0.957   1.454  2.3655 -0.7259 -3.4600
  412SOL    HW2 1236   1.420   0.984   1.495  1.3418  1.5384 -0.9062
  413SOL     OW 1237   0.664   2.985   1.558  0.5968 -0.0747 -0.0449
  413SOL    HW1 1238   0.606   3.032   1.627  2.0903 -1.4500 -0.7934
  413SOL    HW2 1239   0.745   3.041   1.531  1.6671 -0.7982 -2.0549
  414SOL     OW 1240   2.856   1.563   2.750  0.6902  0.2546  0.1536
  414SOL    HW1 1241   2.835   1.656   2.721  1.4466 -1.2331 -2.1720
  414SOL    HW2 1242   2.849   1.551   2.851  2.4747 -2.6702  0.2554
  415SOL     OW 1243   0.667   2.445   3.017 -0.6479 -0.4484  0.7993
  415SOL    HW1 1244   0.577   2.453   2.975  1.6280 -1.8843 -0.3837
  415SOL    HW2 1245   0.734   2.506   2.971  0.7873  1.2516  2.4196
  416SOL     OW 1246   2.090   2.893   0.256 -0.7322 -0.3574  0.5822
  416SOL    HW1 1247   2.017   2.829   0.219 -0.7448 -2.4834 -1.0613
  416SOL    HW2 1248   2.074   2.991   0.219  0.9293 -0.9444  1.3320
  417SOL     OW 1249   0.350   0.588   0.687  0.2380  0.2940 -0.4806
  417SOL    HW1 1250   0.449   0.618   0.677  1.7130 -0.7236  0.4564
  417SOL    HW2 1251   0.338   0.496   0.640  0.3093  0.2066 -1.6853
  418SOL     OW 1252   2.413   0.168   1.117 -0.6193 -0.0376 -0.0914
  418SOL    HW1 1253   2.321   0.213   1.129 -1.7268 -1.6635  0.2415
  418SOL    HW2 1254   2.480   0.226   1.164  2.6024 -0.0532 -0.7325
  419SOL     OW 1255   0.053   3.049   0.513  0.1891  0.5604 -0.0432
  419SOL    HW1 1256   0.022   3.084   0.603 -0.2466 -2.3637 -0.6631
  419SOL    HW2 1257   3.063   3.052   0.446  0.3986 -3.5267 -1.8831
  420SOL     OW 1258   0.142   1.490   1.531  0.1297  0.0850 -0.0636
  420SOL    HW1 1259   0.192   1.537   1.602 -1.8130  1.6419 -1.7906
  420SOL    HW2 1260   0.070   1.559   1.499 -0.1912  2.0253 -0.3977
  421SOL     OW 1261   1.303   2.827   0.430 -0.0302 -0.5523  0.4182
  421SOL    HW1 1262   1.207   2.811   0.402  1.5360  0.4363 -0.8503
  421SOL    HW2 1263   1.372   2.751   0.407 -3.2991 -0.5880  1.3342
  422SOL     OW 1264   0.294   0.497   1.599 -0.1178  0.1828  0.2084
  422SOL    HW1 1265   0.289   0.591   1.639  0.1856 -0.3130 -1.2970
  422SOL    HW2 1266   0.207   0.484   1.547  1.5126  0.6490 -0.1534
  423SOL     OW 1267   0.977   1.257   1.592 -0.4105  0.4233  0.0985
  423SOL    HW1 1268   0.985   1.279   1.694  0.6465  0.7619  0.5762
  423SOL    HW2 1269   0.903   1.187   1.576 -2.3653  0.2031 -1.2748
  424SOL     OW 1270   2.032   1.464   2.994 -0.0226 -0.3262  0.2875
  424SOL    HW1 1271   1.965   1.505   3.059  2.6933 -2.8778 -0.8008
  424SOL    HW2 1272   1.997   1.466   2.898 -0.4652 -1.8451  1.0366
  425SOL     OW 1273   0.116   0.176   2.157  0.0263 -0.1732 -0.1495
  425SOL    HW1 1274   0.124   0.177   2.259  1.8170  0.9728 -0.1582
  425SOL    HW2 1275   0.087   0.082   2.124 -1.6304 -0.6903 -0.7101
  426SOL     OW 1276   0.337   3.023   2.912  0.1814  0.0074  0.0374
  426SOL    HW1 1277   0.276   3.034   2.999 -1.0958  1.2109  2.6974
  426SOL    HW2 1278   0.343   2.923   2.889  0.8274 -2.3007 -2.0522
  427SOL     OW 1279   1.197   1.037   2.738 -0.3535  0.0776 -0.7720
  427SOL    HW1 1280   1.238   1.129   2.762 -0.3574  1.9816  2.1337
  427SOL    HW2 1281   1.145   0.992   2.813  2.4820  0.7388 -0.8296
  428SOL     OW 1282   2.457   1.206   1.558  0.0123  0.3609 -0.4722
  428SOL    HW1 1283   2.363   1.245   1.564  1.4190 -1.7267 -0.3451
  428SOL    HW2 1284   2.476   1.167   1.466 -1.4589 -0.1172  2.7698
  429SOL     OW 1285   2.180   2.875   0.934  0.4025 -0.3175  0.9919
  429SOL    HW1 1286   2.209   2.814   0.855 -1.1328 -0.7620  0.2571
  429SOL    HW2 1287   2.109   2.829   0.990 -0.7273  1.8218  1.0596
  430SOL     OW 1288   0.594   1.281   2.148  0.3891  0.1749  0.1124
  430SOL    HW1 1289   0.526   1.236   2.207  0.3383 -0.7361 -1.7329
  430SOL    HW2 1290   0.646   1.350   2.194 -0.0883  3.2271 -1.1586
  431SOL     OW 1291   2.620   1.438   1.613  0.0731  0.0919  0.3846
  431SOL    HW1 1292   2.716   1.413   1.579 -1.6263 -1.1503  0.8638
  431SOL    HW2 1293   2.558   1.358   1.604 -1.2616 -3.0366 -0.3944
  432SOL     OW 1294   1.078   2.643   2.162  0.4560  0.1901  0.1437
  432SOL    HW1 1295   1.008   2.715   2.181 -2.9288  0.7752  0.4486
  432SOL    HW2 1296   1.081   2.569   2.234 -1.5124  0.2094  0.8640
  433SOL     OW 1297   1.729   0.071   2.201 -0.4729  0.2245  0.1978
  433SOL    HW1 1298   1.805   0.026   2.146  0.5359 -1.2022 -2.8701
  433SOL    HW2 1299   1.719   0.169   2.169  1.0776  2.9610  2.5323
  434SOL     OW 1300   0.587   2.589   2.435 -0.1941 -0.2253 -0.0180
  434SOL    HW1 1301   0.534   2.501   2.439  0.5688 -2.6887 -1.9488
  434SOL    HW2 1302   0.638   2.607   2.523  0.8759 -1.8237  0.5699
  435SOL     OW 1303   0.463   2.899   0.239  0.0432 -0.8041 -0.0425
  435SOL    HW1 1304   0.394   2.950   0.289  1.2606 -3.1173  1.0930
  435SOL    HW2 1305   0.431   2.892   0.143  2.1825 -0.9616 -2.4252
  436SOL     OW 1306   0.653   0.544   1.871  0.3157  0.0605  0.2441
  436SOL    HW1 1307   0.589   0.597   1.927  1.1001 -0.6190 -0.2843
  436SOL    HW2 1308   0.684   0.470   1.932 -0.7879  1.7641 -1.2076
  437SOL     OW 1309   0.440   2.357   2.414  0.0482 -0.1753  0.0094
  437SOL    HW1 1310   0.364   2.327   2.359 -0.2041  0.3102  0.5072
  437SOL    HW2 1311   0.477   2.290   2.479 -1.8128 -0.2571 -1.8709
  438SOL     OW 1312   0.570   1.466   1.489  0.7478 -0.1088 -0.0169
  438SOL    HW1 1313   0.636   1.539   1.515 -0.0741  0.1369 -0.7040
  438SOL    HW2 1314   0.552   1.402   1.568 -0.4486 -0.6703  0.4947
  439SOL     OW 1315   2.302   0.791   2.190  0.6708  0.0604 -0.2017
  439SOL    HW1 1316   2.265   0.722   2.256 -0.8557 -1.0373  0.3660
  439SOL    HW2 1317   2.324   0.877   2.241 -1.5641  0.5929 -0.0898
  440SOL     OW 1318   0.332   0.582   0.229 -0.9706  0.1393 -0.2361
  440SOL    HW1 1319   0.295   0.528   0.307 -1.0880  1.0151  2.8536
  440SOL    HW2 1320   0.425   0.615   0.243 -0.2985 -2.0117  2.3693
  441SOL     OW 1321   1.233   2.458   1.258 -0.0945 -0.3753 -0.0788
  441SOL    HW1 1322   1.198   2.512   1.335 -1.4821  1.4201 -0.9145
  441SOL    HW2 1323   1.274   2.523   1.195 -0.3864  0.7065  2.6053
  442SOL     OW 1324   2.184   1.522   0.479 -0.0311  0.1618 -0.1274
  442SOL    HW1 1325   2.227   1.595   0.539  0.6700  1.5391 -1.1461
  442SOL    HW2 1326   2.235   1.510   0.385  0.2032 -1.4744 -2.0104
  443SOL     OW 1327   2.680   1.957   2.480  0.1542 -0.3538 -0.8031
  443SOL    HW1 1328   2.616   2.041   2.496 -1.6392  0.8911 -1.3236
  443SOL    HW2 1329   2.662   1.912   2.390 -1.0942  1.1125  0.7595
  444SOL     OW 1330   1.678   1.477   2.825 -0.1348  0.2982  0.0367
  444SOL    HW1 1331   1.652   1.516   2.921  0.0495 -0.0193 -0.4153
  444SOL    HW2 1332   1.644   1.383   2.814 -2.1313 -0.4056  0.2145
  445SOL     OW 1333   2.565   2.631   2.330  0.4286 -0.1354  0.0135
  445SOL    HW1 1334   2.527   2.549   2.287  1.1532 -0.3009 -1.6962
  445SOL    HW2 1335   2.660   2.640   2.292 -0.5107  1.1286 -2.3900
  446SOL     OW 1336   0.399   1.067   1.486  0.1513  0.7611  0.2450
  446SOL    HW1 1337   0.432   0.970   1.455  0.8638 -5.1672 -0.7297
  446SOL    HW2 1338   0.478   1.128   1.498 -2.4958 -1.0344 -0.3582
  447SOL     OW 1339   0.784   1.277   0.924  0.0482 -0.3416  0.4133
  447SOL    HW1 1340   0.870   1.324   0.953  1.0268 -0.1322  1.9067
  447SOL    HW2 1341   0.711   1.344   0.894 -1.9758  0.5516  1.5632
  448SOL     OW 1342   1.102   1.059   1.943  0.1690  0.0171  0.3231
  448SOL    HW1 1343   1.190   1.088   1.899  3.1582  2.2719  0.1821
  448SOL    HW2 1344   1.046   1.004   1.876 -0.0735 -0.5882 -2.7870
  449SOL     OW 1345   0.020   1.943   2.303  0.5538 -0.5609  0.0105
  449SOL    HW1 1346   3.081   1.991   2.216 -1.0503 -0.6041 -2.7655
  449SOL    HW2 1347   0.061   1.856   2.281 -0.1533  0.6960  0.6497
  450SOL     OW 1348   2.757   2.040   2.009  0.2409 -0.0554 -0.2316
  450SOL    HW1 1349   2.811   2.126   2.003  0.9377  0.6470  0.5400
  450SOL    HW2 1350   2.817   1.957   2.009  0.5495 -1.1161 -0.7517
  451SOL     OW 1351   2.351   1.109   1.310 -0.7233  0.3270  0.5914
  451SOL    HW1 1352   2.261   1.062   1.341 -5.2513 -0.5870  0.0929
  451SOL    HW2 1353   2.416   1.040   1.269 -1.9009  3.6197 -2.7687
  452SOL     OW 1354   0.314   1.396   1.346 -0.9022 -0.1888 -0.1267
  452SOL    HW1 1355   0.235   1.432   1.400 -0.4370  2.3895 -2.6507
  452SOL    HW2 1356   0.293   1.309   1.299  1.6910  1.4570  2.2911
  453SOL     OW 1357   0.262   1.263   0.989  0.0088 -0.3185  0.5115
  453SOL    HW1 1358   0.309   1.193   0.933  1.9008  0.3012  0.9882
  453SOL    HW2 1359   0.268   1.243   1.083  1.8928 -0.7527 -5.2327
  454SOL     OW 1360   0.414   1.562   0.101 -0.1359  0.4536 -0.0660
  454SOL    HW1 1361   0.513   1.590   0.088  0.7458 -0.5732 -0.7659
  454SOL    HW2 1362   0.398   1.476   0.055 -2.0266  1.2340  1.1305
  455SOL     OW 1363   1.833   0.979   0.984  0.3206  0.1881 -0.1405
  455SOL    HW1 1364   1.782   1.037   1.045 -0.4095  1.8616  0.8104
  455SOL    HW2 1365   1.850   0.886   1.024  0.2534 -0.9678  1.1453
  456SOL     OW 1366   1.858   2.512   0.699 -0.1142 -0.0172 -0.1141
  456SOL    HW1 1367   1.867   2.573   0.620  0.5139 -0.7788  2.0747
  456SOL    HW2 1368   1.945   2.521   0.759  2.6635 -0.7587  0.8408
  457SOL     OW 1369   1.934   3.007   2.635  0.5482  0.2179  0.2694
  457SOL    HW1 1370   2.004   2.964   2.582 -0.6736  3.2024  2.8023
  457SOL    HW2 1371   1.845   2.967   2.604  1.0859 -1.4735 -0.8009
  458SOL     OW 1372   2.528   0.293   0.140 -0.0187  0.7288  0.1824
  458SOL    HW1 1373   2.472   0.289   0.058 -1.4635 -1.5339  0.6643
  458SOL    HW2 1374   2.628   0.297   0.116  3.9349  1.1749  1.4116
  459SOL     OW 1375   3.012   1.130   2.303 -0.4977 -0.0023 -0.5885
  459SOL    HW1 1376   2.925   1.085   2.308  2.3749  1.4500  0.0841
  459SOL    HW2 1377   2.993   1.218   2.253 -0.4791 -3.0184  1.5724
  460SOL     OW 1378   0.275   0.700   3.086  0.4928  0.3176 -0.0546
  460SOL    HW1 1379   0.276   0.632   3.005 -0.1561 -1.0358 -2.6909
  460SOL    HW2 1380   0.302   0.654   0.087 -0.9169  0.5851 -2.0881
  461SOL     OW 1381   2.954   2.365   0.684  0.1290  0.0688  0.4777
  461SOL    HW1 1382   2.927   2.282   0.733  0.6334  1.3331 -1.6462
  461SOL    HW2 1383   3.035   2.352   0.629  0.0587 -0.1935  1.8860
  462SOL     OW 1384   0.085   2.922   1.677  0.0766  0.8991  0.1558
  462SOL    HW1 1385   0.045   2.879   1.758  0.3836  1.8658 -2.3189
  462SOL    HW2 1386   0.079   2.853   1.599  0.0658 -3.1255  0.3570
  463SOL     OW 1387   2.115   2.103   1.955  0.2121 -0.0815 -0.2073
  463SOL    HW1 1388   2.037   2.104   1.891  3.4168 -1.0979 -0.4898
  463SOL    HW2 1389   2.156   2.194   1.981  1.7893  5.0151 -1.1927
  464SOL     OW 1390   0.361   2.917   1.294  0.2548 -0.0538 -0.2334
  464SOL    HW1 1391   0.416   3.001   1.311 -1.4623 -0.6150  0.5435
  464SOL    HW2 1392   0.319   2.927   1.199  0.1722  0.3261  0.0076
  465SOL     OW 1393   0.541   0.184   1.570  0.1321 -0.3104 -0.1919
  465SOL    HW1 1394   0.609   0.164   1.643  0.7227  1.0481 -1.6011
  465SOL    HW2 1395   0.451   0.156   1.611 -0.0486  0.0060  1.2599
  466SOL     OW 1396   1.411   1.923   2.001 -0.5545 -0.3661  0.1235
  466SOL    HW1 1397   1.491   1.940   1.943 -0.8012  2.5081  0.9274
  466SOL    HW2 1398   1.336   1.964   1.947  0.7563  0.2025 -2.2790
  467SOL     OW 1399   3.084   1.681   0.841 -0.1670  0.0380  0.4724
  467SOL    HW1 1400   0.077   1.624   0.871 -0.5002  0.4723 -1.5543
  467SOL    HW2 1401   3.083   1.675   0.740  3.0610 -0.4327 -1.1279
  468SOL     OW 1402   2.285   2.129   2.641  0.0813 -0.1454 -0.1732
  468SOL    HW1 1403   2.371   2.143   2.587  0.5389 -0.1200 -0.2132
  468SOL    HW2 1404   2.206   2.100   2.585  1.3719 -1.6790  1.0812
  469SOL     OW 1405   1.188   2.287   0.448  0.1438 -0.5739  0.2349
  469SOL    HW1 1406   1.221   2.251   0.358 -2.0511 -0.1314 -0.6783
  469SOL    HW2 1407   1.228   2.379   0.462 -0.8565 -0.7530 -0.6847
  470SOL     OW 1408   1.973   1.699   1.379  0.0640 -0.3287  0.1780
  470SOL    HW1 1409   2.015   1.787   1.390 -2.2735 -0.5530 -0.8846
  470SOL    HW2 1410   1.879   1.705   1.414  1.7744 -2.3432 -2.0776
  471SOL     OW 1411   0.566   2.438   0.181 -0.1905 -0.2900 -0.4826
  471SOL    HW1 1412   0.574   2.521   0.241  0.5942  0.7877  1.4288
  471SOL    HW2 1413   0.619   2.455   0.092  1.8373 -0.3308 -1.0206
  472SOL     OW 1414   2.596   1.927   2.189  0.7139 -0.0951 -0.0403
  472SOL    HW1 1415   2.608   1.827   2.176 -1.9872 -0.6487  0.7321
  472SOL    HW2 1416   2.654   1.973   2.123 -3.1474 -1.5686  1.3088
  473SOL     OW 1417   1.234   2.664   0.702 -0.3155  0.0736  0.4456
  473SOL    HW1 1418   1.139   2.679   0.736  1.6750  0.5815  1.4320
  473SOL    HW2 1419   1.273   2.762   0.687  2.3320  5.1418 -2.4785
  474SOL     OW 1420   2.858   0.179   1.348  0.3692  0.1984  0.2093
  474SOL    HW1 1421   2.872   0.086   1.307 -2.1330  0.9315  0.2365
  474SOL    HW2 1422   2.756   0.196   1.370 -2.4201  0.4766  2.0072
  475SOL     OW 1423   1.797   2.620   1.924 -0.4850  0.2553  0.4543
  475SOL    HW1 1424   1.804   2.636   2.024 -0.2094  1.0306 -2.8149
  475SOL    HW2 1425   1.722   2.677   1.881 -4.6173  0.5065  0.2474
  476SOL     OW 1426   0.392   0.559   0.983  0.3091 -0.3426  0.9271
  476SOL    HW1 1427   0.363   0.630   1.054 -0.2853 -1.3566 -0.9129
  476SOL    HW2 1428   0.338   0.575   0.897 -0.5226 -0.8019 -0.6185
  477SOL     OW 1429   0.702   2.169   0.842  0.2671 -0.2014 -0.3310
  477SOL    HW1 1430   0.621   2.220   0.884  0.0202 -0.3723  0.7268
  477SOL    HW2 1431   0.786   2.217   0.883 -0.4837  1.7497  1.2900
  478SOL     OW 1432   0.710   2.702   2.686 -0.8364  0.1090 -0.0460
  478SOL    HW1 1433   0.783   2.677   2.617  3.4833 -0.4221 -2.8093
  478SOL    HW2 1434   0.752   2.690   2.784  0.1805  1.3052  1.6756
  479SOL     OW 1435   0.274   0.563   2.004 -0.1943  0.3015  0.6550
  479SOL    HW1 1436   0.220   0.529   1.923 -1.7040  0.8579 -1.8384
  479SOL    HW2 1437   0.297   0.480   2.058  0.6236 -0.2178  0.0497
  480SOL     OW 1438   0.182   2.135   2.900  0.3190  0.0648  0.2938
  480SOL    HW1 1439   0.143   2.182   2.978  0.1455 -2.9147 -0.3469
  480SOL    HW2 1440   0.112   2.110   2.828  0.7619 -1.7835  1.1667
  481SOL     OW 1441   1.499   3.021   2.259 -0.0194  0.6067  0.6834
  481SOL    HW1 1442   1.512   2.922   2.256 -2.3983 -0.0372  0.6702
  481SOL    HW2 1443   1.589   3.068   2.249  0.3806 -2.5080  1.4195
  482SOL     OW 1444   1.603   1.958   2.937  0.2182  0.1933 -0.8953
  482SOL    HW1 1445   1.572   1.912   3.023  0.0754 -0.3340  1.2711
  482SOL    HW2 1446   1.559   1.923   2.854  2.5357  1.0526  0.5942
  483SOL     OW 1447   0.898   2.662   2.488 -0.4451  0.2413 -0.2977
  483SOL    HW1 1448   0.948   2.574   2.501 -2.3679 -0.5702 -0.8293
  483SOL    HW2 1449   0.964   2.739   2.506 -0.8830  2.1433  2.3970
  484SOL     OW 1450   0.639   2.906   0.975  0.2593 -0.1530  0.0279
  484SOL    HW1 1451   0.648   3.008   0.997  0.1774  0.0209  0.4909
  484SOL    HW2 1452   0.543   2.882   0.974  0.8354 -4.2724 -1.0220
  485SOL     OW 1453   2.121   0.528   0.787  0.5906 -0.1550 -0.1802
  485SOL    HW1 1454   2.019   0.542   0.781  0.6144 -1.0251 -1.7913
  485SOL    HW2 1455   2.152   0.568   0.701 -0.1576 -0.4135  1.2642
  486SOL     OW 1456   2.042   2.633   1.819  0.1512 -0.4279 -0.1810
  486SOL    HW1 1457   2.100   2.689   1.879  1.7213  3.0079  0.5666
  486SOL    HW2 1458   1.950   2.644   1.857  0.3641  0.0434  1.5468
  487SOL     OW 1459   1.216   2.092   0.643  0.2152  0.6239  0.6533
  487SOL    HW1 1460   1.192   2.171   0.578  0.1013  2.1846 -0.3062
  487SOL    HW2 1461   1.149   2.017   0.634  0.2151  1.7106 -2.3218
  488SOL     OW 1462   1.924   0.319   0.243 -0.0583 -0.5936  0.3096
  488SOL    HW1 1463   1.831   0.344   0.274 -0.0887 -0.7840  0.7389
  488SOL    HW2 1464   1.977   0.402   0.219 -0.8014  0.5759  0.7390
  489SOL     OW 1465   2.127   2.895   0.525  0.3640 -0.1262  0.7185
  489SOL    HW1 1466   2.089   2.970   0.583  0.4656  1.7921  1.0748
  489SOL    HW2 1467   2.125   2.920   0.422 -1.4885 -0.1092 -1.1736
  490SOL     OW 1468   1.714   2.675   2.934 -0.2650 -0.0125  0.0440
  490SOL    HW1 1469   1.810   2.665   2.902 -2.1963  0.8757 -1.1261
  490SOL    HW2 1470   1.703   2.755   2.997  0.6461  1.0392 -3.5605
  491SOL     OW 1471   0.801   0.371   1.162 -0.2105  0.4044 -0.3694
  491SOL    HW1 1472   0.839   0.285   1.125  0.6942  0.0197 -1.1473
  491SOL    HW2 1473   0.720   0.347   1.220  1.2088 -0.9934  0.0303
  492SOL     OW 1474   1.794   3.014   0.304  0.6550  0.2429  0.1180
  492SOL    HW1 1475   1.729   0.005   0.321 -0.1880 -1.9780 -0.9798
  492SOL    HW2 1476   1.866   3.035   0.235 -0.6681 -1.9198  3.1214
  493SOL     OW 1477   1.917   2.157   2.846 -0.8555 -0.8391  0.1143
  493SOL    HW1 1478   1.954   2.244   2.812  1.8287  2.6613 -0.8447
  493SOL    HW2 1479   1.975   2.127   2.925  1.1251  0.1333  1.1987
  494SOL     OW 1480   0.339   1.064   0.815 -0.2633  0.2837 -0.5675
  494SOL    HW1 1481   0.394   0.989   0.861 -1.4233 -0.4590  0.3737
  494SOL    HW2 1482   0.251   1.028   0.785  0.0110  2.6730  1.5942
  495SOL     OW 1483   2.936   0.192   1.657 -0.8498 -0.1379  0.4508
  495SOL    HW1 1484   2.999   0.264   1.619  0.5608  3.3537 -2.9478
  495SOL    HW2 1485   2.893   0.142   1.579  0.4100 -2.0749  0.8792
  496SOL     OW 1486   2.467   2.421   2.191  0.3140  0.4832  0.2316
  496SOL    HW1 1487   2.515   2.415   2.100  0.8238  1.9479  0.7194
  496SOL    HW2 1488   2.467   2.329   2.242 -1.9414 -0.5996  1.2056
  497SOL     OW 1489   1.642   1.439   2.396 -0.3314 -0.3948 -0.4909
  497SOL    HW1 1490   1.607   1.472   2.308  0.5141  0.1781  0.7173
  497SOL    HW2 1491   1.573   1.374   2.440 -3.1621 -2.5398  2.7491
  498SOL     OW 1492   0.434   1.604   0.734  0.6936 -0.5371  0.0575
  498SOL    HW1 1493   0.349   1.575   0.688  2.5079  2.0402 -0.8337
  498SOL    HW2 1494   0.471   1.685   0.682 -1.0621  1.6839  1.0957
  499SOL     OW 1495   0.122   1.618   1.214 -0.1551 -0.1378  0.8661
  499SOL    HW1 1496   0.070   1.709   1.213  0.3199  0.3142 -0.8049
  499SOL    HW2 1497   0.194   1.624   1.284  0.7721  1.1875 -2.8268
  500SOL     OW 1498   1.284   2.235   0.192 -0.4847 -1.1042 -0.0715
  500SOL    HW1 1499   1.379   2.250   0.225  1.4264 -1.7293 -0.5405
  500SOL    HW2 1500   1.273   2.286   0.102  0.5020  2.2671  0.3152
  501SOL     OW 1501   2.067   2.488   0.890 -0.0668  0.1731  0.1982
  501SOL    HW1 1502   2.098   2.443   0.976 -0.8083  2.0760 -0.0752
  501SOL    HW2 1503   2.115   2.461   0.802 -0.2267  2.7778  1.7000
  502SOL     OW 1504   0.088   0.844   1.665 -0.3961 -0.2355 -0.1382
  502SOL    HW1 1505   0.095   0.855   1.565  1.3408 -1.6548 -1.6062
  502SOL    HW2 1506   0.168   0.794   1.707 -1.3910  3.6646  1.6818
  503SOL     OW 1507   2.227   0.156   1.729 -0.1646  0.4280 -0.5622
  503SOL    HW1 1508   2.199   0.183   1.637  0.6707 -2.7212  1.6336
  503SOL    HW2 1509   2.278   0.065   1.724  2.5603 -1.8227 -0.8448
  504SOL     OW 1510   1.903   0.905   2.068 -0.3390  0.1161  0.2775
  504SOL    HW1 1511   1.842   0.894   2.150  1.1305  0.2409  0.3927
  504SOL    HW2 1512   1.970   0.986   2.078 -1.0920  1.3932 -1.6309
  505SOL     OW 1513   1.019   3.044   2.359 -0.0497 -0.3037 -0.4718
  505SOL    HW1 1514   1.114   3.038   2.395  1.1149  2.0180 -0.5691
  505SOL    HW2 1515   0.988   2.955   2.322  1.8406  1.7832  0.8627
  506SOL     OW 1516   0.457   0.204   1.913 -0.4772  0.7043  0.3923
  506SOL    HW1 1517   0.433   0.263   1.995  0.5461  1.6805  2.1458
  506SOL    HW2 1518   0.397   0.225   1.835  0.4330 -1.2296 -1.0744
  507SOL     OW 1519   1.741   0.230   2.936  0.5713 -0.3807 -0.1002
  507SOL    HW1 1520   1.688   0.214   2.851  0.9632 -2.8020  3.2711
  507SOL    HW2 1521   1.677   0.214   3.016 -0.8640 -4.2794  3.1807
  508SOL     OW 1522   2.302   0.674   2.470  0.3306  0.9914  0.0695
  508SOL    HW1 1523   2.261   0.591   2.520  1.3385 -2.2115  0.5917
  508SOL    HW2 1524   2.399   0.682   2.493 -0.7630  3.1886 -2.2853
  509SOL     OW 1525   0.783   1.478   1.908 -0.5761 -0.3760 -0.1705
  509SOL    HW1 1526   0.785   1.455   2.006  0.0955  2.0589  0.5472
  509SOL    HW2 1527   0.794   1.576   1.900  2.8254 -1.1550  3.2812
  510SOL     OW 1528   2.993   0.582   0.825 -0.3947 -0.1763 -0.1352
  510SOL    HW1 1529   0.004   0.607   0.809 -0.5427 -0.1041 -1.3395
  510SOL    HW2 1530   2.930   0.625   0.759 -0.7468  1.7187  2.3487
  511SOL     OW 1531   1.571   1.313   0.774 -0.5753 -0.5889 -0.1428
  511SOL    HW1 1532   1.507   1.398   0.754  0.2575  1.1723  0.2747
  511SOL    HW2 1533   1.667   1.343   0.799  2.2008  0.1956 -1.8369
  512SOL     OW 1534   0.631   1.317   0.228 -0.3756 -0.5819  0.1678
  512SOL    HW1 1535   0.534   1.288   0.222 -1.5867 -0.0642  0.6908
  512SOL    HW2 1536   0.671   1.309   0.325  1.1837 -0.4489  2.5017
  513SOL     OW 1537   0.209   2.414   0.732 -0.2281 -0.3240 -0.2139
  513SOL    HW1 1538   0.230   2.312   0.723 -1.6846  0.0874  2.4468
  513SOL    HW2 1539   0.233   2.458   0.642  2.0955  0.4034  1.0289
  514SOL     OW 1540   0.179   2.098   0.146 -0.2698  0.7920  0.2659
  514SOL    HW1 1541   0.083   2.060   0.161 -2.6620 -0.8755  0.7036
  514SOL    HW2 1542   0.233   2.015   0.146 -1.7748 -1.1794 -1.1078
  515SOL     OW 1543   2.867   0.207   0.237 -0.1523 -0.2606 -0.4059
  515SOL    HW1 1544   2.801   0.138   0.275 -1.9637 -0.5379 -0.1302
  515SOL    HW2 1545   2.906   0.254   0.317  0.4060 -1.3267  1.5454
  516SOL     OW 1546   1.993   2.720   1.055  0.2222  0.6699  0.0070
  516SOL    HW1 1547   1.969   2.696   1.152  1.6856 -1.1791  1.3944
  516SOL    HW2 1548   2.001   2.641   0.987 -0.8325 -0.3676 -0.7411
  517SOL     OW 1549   1.364   1.700   0.194  0.4997 -0.6631 -0.1766
  517SOL    HW1 1550   1.351   1.620   0.258 -0.4099 -1.7895  0.4133
  517SOL    HW2 1551   1.336   1.669   0.101  1.7393  0.8414  1.6759
  518SOL     OW 1552   1.362   0.636   1.502 -0.3882  0.1486  0.1722
  518SOL    HW1 1553   1.338   0.598   1.411 -0.5344  1.1293 -1.2821
  518SOL    HW2 1554   1.296   0.704   1.529  2.6408 -1.0696 -0.3585
  519SOL     OW 1555   3.020   2.035   0.658 -0.2630 -0.1874 -0.8076
  519SOL    HW1 1556   3.076   1.984   0.730  1.2156 -1.0273  0.5534
  519SOL    HW2 1557   2.926   2.045   0.685  0.6307 -0.9670 -0.8984
  520SOL     OW 1558   2.240   2.347   1.876  0.3836  0.4859 -0.1479
  520SOL    HW1 1559   2.248   2.396   1.787  0.6445  1.1316 -0.4969
  520SOL    HW2 1560   2.183   2.397   1.947 -2.1160 -0.0725  0.0534
  521SOL     OW 1561   1.281   3.051   2.429 -0.2964 -0.2536 -0.0689
  521SOL    HW1 1562   1.297   3.004   2.521  0.9498 -2.6817 -2.3042
  521SOL    HW2 1563   1.358   3.041   2.364 -3.1268  0.0909  1.3049
  522SOL     OW 1564   2.937   0.061   1.912 -0.2628 -0.5900  0.4940
  522SOL    HW1 1565   3.032   0.047   1.940  0.8812 -0.5483  1.8103
  522SOL    HW2 1566   2.933   0.105   1.817  1.6737  1.3735 -2.7121
  523SOL     OW 1567   1.406   2.103   1.687  0.2745  0.8745  0.5525
  523SOL    HW1 1568   1.338   2.055   1.742  0.6922 -0.2927  0.2394
  523SOL    HW2 1569   1.362   2.166   1.616 -1.2861  1.9617 -3.1721
  524SOL     OW 1570   2.154   2.117   0.271  0.2353 -0.1917 -0.2923
  524SOL    HW1 1571   2.234   2.166   0.238 -1.9307 -1.1213 -0.8595
  524SOL    HW2 1572   2.120   2.049   0.204  1.4940  1.2850  1.0156
  525SOL     OW 1573   2.763   0.853   0.248  0.1069  0.0094  0.6011
  525SOL    HW1 1574   2.863   0.871   0.265  2.3639  2.1807 -0.8860
  525SOL    HW2 1575   2.722   0.801   0.324 -0.9025 -0.1997 -0.5055
  526SOL     OW 1576   1.137   2.965   0.874  0.6423 -0.0310 -0.2015
  526SOL    HW1 1577   1.181   2.963   0.784 -2.0188  1.9053  1.3727
  526SOL    HW2 1578   1.106   2.869   0.902 -1.5429 -0.1554 -0.3804
  527SOL     OW 1579   2.621   1.370   0.748 -0.0225 -0.0589 -0.2049
  527SOL    HW1 1580   2.547   1.308   0.725  2.1908  0.0172 -0.3684
  527SOL    HW2 1581   2.617   1.447   0.680  0.0233 -0.8799  0.4215
  528SOL     OW 1582   0.542   0.894   2.507 -0.1473 -0.3573  0.2981
  528SOL    HW1 1583   0.598   0.938   2.432  1.4586 -3.5355 -3.4543
  528SOL    HW2 1584   0.440   0.916   2.509 -2.0557 -0.6588  0.0995
  529SOL     OW 1585   0.708   1.456   2.859  0.5173 -0.2634 -0.3487
  529SOL    HW1 1586   0.795   1.505   2.841  1.1600  0.0875 -0.2563
  529SOL    HW2 1587   0.623   1.495   2.816  0.2229 -2.7448 -1.0164
  530SOL     OW 1588   1.552   0.998   2.160  0.7207 -0.4700  0.2181
  530SOL    HW1 1589   1.595   0.979   2.070  2.0363 -0.4403 -2.2499
  530SOL    HW2 1590   1.449   0.975   2.160 -0.4564 -0.3142  2.2392
  531SOL     OW 1591   1.140   2.311   2.752 -0.0254  0.0511 -0.3645
  531SOL    HW1 1592   1.110   2.214   2.769 -0.4452  0.9212  0.3648
  531SOL    HW2 1593   1.245   2.309   2.747  2.7424  0.0826  1.0523
  532SOL     OW 1594   2.333   0.610   0.218 -0.1406  0.2130 -0.3025
  532SOL    HW1 1595   2.319   0.703   0.253 -0.3268 -1.0778 -0.4158
  532SOL    HW2 1596   2.421   0.592   0.170  1.1223 -0.8670  2.5018
  533SOL     OW 1597   0.067   0.497   1.806 -0.0978  0.6331 -0.0410
  533SOL    HW1 1598   0.039   0.466   1.716  1.5369  0.6174 -0.5777
  533SOL    HW2 1599   3.085   0.563   1.847  0.6186 -3.1011 -0.1085
  534SOL     OW 1600   1.857   0.468   3.026 -0.0656  0.2774 -0.4016
  534SOL    HW1 1601   1.815   0.379   2.984  1.3105  0.1683 -2.3647
  534SOL    HW2 1602   1.930   0.442   0.010 -0.4939 -0.6752  0.7612
  535SOL     OW 1603   0.807   0.209   0.334  0.6551  0.1083  0.1588
  535SOL    HW1 1604   0.844   0.231   0.243 -0.4583 -0.1571  0.6394
  535SOL    HW2 1605   0.756   0.288   0.374 -3.8667 -0.8053 -1.0401
  536SOL     OW 1606   0.300   1.585   1.720 -0.7005  0.3002  0.9908
  536SOL    HW1 1607   0.275   1.649   1.795  0.4878  0.2332  0.7974
  536SOL    HW2 1608   0.376   1.621   1.661 -0.0554 -0.3259 -1.3120
  537SOL     OW 1609   0.420   2.408   1.763 -0.2252 -0.5687 -0.4499
  537SOL    HW1 1610   0.461   2.422   1.670  0.9462 -0.5019  0.2780
  537SOL    HW2 1611   0.336   2.467   1.767 -2.4166  2.1140  0.0313
  538SOL     OW 1612   0.101   1.828   0.310  0.4065  0.3441 -0.2805
  538SOL    HW1 1613   0.112   1.744   0.250  1.8946 -2.4404 -0.2531
  538SOL    HW2 1614   0.039   1.898   0.263 -1.0011 -0.2048 -2.0602
  539SOL     OW 1615   2.551   0.558   2.803 -0.0520 -0.0581  0.1280
  539SOL    HW1 1616   2.467   0.501   2.812  2.2916  1.5163  1.6765
  539SOL    HW2 1617   2.639   0.499   2.825 -0.4066  1.6345 -0.8064
  540SOL     OW 1618   1.511   1.033   2.962 -0.1646  0.2700  0.1708
  540SOL    HW1 1619   1.513   1.114   2.899 -2.9412 -1.0910 -0.0975
  540SOL    HW2 1620   1.537   1.060   3.055 -1.4921 -0.4915  1.0764
  541SOL     OW 1621   0.776   0.567   1.625 -0.2254  0.4782 -0.1118
  541SOL    HW1 1622   0.747   0.566   1.723  0.8628  0.0828  1.9948
  541SOL    HW2 1623   0.701   0.605   1.567 -0.6661  1.3200  2.7631
  542SOL     OW 1624   1.784   2.412   2.355 -0.0540 -0.2828 -0.0589
  542SOL    HW1 1625   1.745   2.327   2.390 -2.9504  1.2561  1.1187
  542SOL    HW2 1626   1.887   2.403   2.350  1.4764 -0.8112 -1.1234
  543SOL     OW 1627   0.888   2.833   1.090 -0.2331  0.1320 -0.4393
  543SOL    HW1 1628   0.799   2.836   1.039 -0.7226  0.3916  0.3523
  543SOL    HW2 1629   0.958   2.773   1.046  0.3343  3.6313 -1.5733
  544SOL     OW 1630   2.922   1.617   2.188  1.0763 -0.5810  0.3257
  544SOL    HW1 1631   2.926   1.510   2.184  1.8901 -2.6293 -0.7688
  544SOL    HW2 1632   2.973   1.655   2.268 -0.0936 -1.9909 -0.1896
  545SOL     OW 1633   1.765   2.036   1.492  0.2232 -0.3011  0.1569
  545SOL    HW1 1634   1.817   1.972   1.550 -2.0474 -0.7358 -0.7511
  545SOL    HW2 1635   1.685   1.982   1.459 -0.9531 -2.1460  3.0692
  546SOL     OW 1636   0.299   0.368   2.561  0.2944 -0.3920 -0.2329
  546SOL    HW1 1637   0.220   0.306   2.541  0.5585  1.7516 -0.9114
  546SOL    HW2 1638   0.328   0.363   2.661  1.7149 -1.1089  0.1451
  547SOL     OW 1639   1.463   0.302   0.739 -0.0386  0.4220 -0.0523
  547SOL    HW1 1640   1.541   0.350   0.781 -1.3652 -3.1319 -0.3483
  547SOL    HW2 1641   1.379   0.301   0.803 -4.1210  0.9550  2.0596
  548SOL     OW 1642   1.394   2.196   2.758  0.1069  0.1704  0.1447
  548SOL    HW1 1643   1.361   2.161   2.846  0.8642 -2.3174  2.2706
  548SOL    HW2 1644   1.497   2.212   2.763 -1.1970  1.2868  0.3009
  549SOL     OW 1645   1.851   0.933   3.060 -0.2713 -0.0110 -0.1438
  549SOL    HW1 1646   1.951   0.943   3.078  0.8595 -0.7948  1.4251
  549SOL    HW2 1647   1.791   1.001   0.020 -2.4857  1.2416  0.3163
  550SOL     OW 1648   2.549   1.944   0.529  0.5505 -0.0501  0.4646
  550SOL    HW1 1649   2.474   1.895   0.479  0.7737  1.4544  0.0835
  550SOL    HW2 1650   2.598   2.001   0.460  1.2786 -0.9523  2.2259
  551SOL     OW 1651   1.118   0.058   2.131  0.4484  0.4038 -0.1873
  551SOL    HW1 1652   1.212   0.063   2.103 -1.2127  0.1929  3.1902
  551SOL    HW2 1653   1.114   3.078   2.207  0.6408  2.6786  0.7193
  552SOL     OW 1654   3.064   2.152   2.714 -0.0875 -0.5160  0.0585
  552SOL    HW1 1655   3.010   2.113   2.635 -1.1658 -0.0438 -0.7490
  552SOL    HW2 1656   3.005   2.169   2.795 -1.6886 -1.0450 -1.2815
  553SOL     OW 1657   2.872   2.474   1.003  0.1062  0.3386  0.5141
  553SOL    HW1 1658   2.966   2.484   0.955  4.3637  1.5702 -0.8152
  553SOL    HW2 1659   2.870   2.384   1.048 -2.9628 -0.1016 -0.2949
  554SOL     OW 1660   2.329   1.944   1.893 -0.0589  0.3356  0.4903
  554SOL    HW1 1661   2.268   2.013   1.928  0.2816 -0.0512 -0.4034
  554SOL    HW2 1662   2.289   1.906   1.810 -0.1468  2.0418  2.4603
  555SOL     OW 1663   1.513   2.145   2.143 -0.0595  0.3317 -0.4670
  555SOL    HW1 1664   1.478   2.059   2.106 -1.5071  1.1150  0.5965
  555SOL    HW2 1665   1.448   2.221   2.120 -0.4432  1.1576  1.8076
  556SOL     OW 1666   1.368   1.653   1.221  0.4010 -0.3272  0.1338
  556SOL    HW1 1667   1.340   1.728   1.280 -0.8237 -0.2638 -1.5504
  556SOL    HW2 1668   1.319   1.564   1.239  0.7857 -2.5727  0.6854
  557SOL     OW 1669   1.333   3.078   1.751  0.5089 -0.4497  0.0086
  557SOL    HW1 1670   1.336   0.094   1.751 -0.9888 -3.0266 -0.9746
  557SOL    HW2 1671   1.237   3.040   1.728 -3.9162  1.3841 -1.8097
  558SOL     OW 1672   0.486   3.080   2.082  0.0072  0.3048  0.6863
  558SOL    HW1 1673   0.493   0.068   2.013 -1.4226 -0.4004  1.5530
  558SOL    HW2 1674   0.402   3.025   2.058 -0.8126 -1.5662 -0.2799
  559SOL     OW 1675   2.458   2.583   0.346 -0.4160  0.2902 -0.2518
  559SOL    HW1 1676   2.396   2.648   0.298  0.0191 -4.7856 -0.6832
  559SOL    HW2 1677   2.441   2.579   0.448 -2.7924  0.9689  1.8469
  560SOL     OW 1678   1.572   2.466   0.424  0.2044  0.1338 -0.0056
  560SOL    HW1 1679   1.657   2.431   0.469  0.9787  1.7983 -1.6866
  560SOL    HW2 1680   1.560   2.409   0.342  2.1231  1.4053  1.0220
  561SOL     OW 1681   1.266   0.381   2.828 -0.1614 -0.4738  0.4363
  561SOL    HW1 1682   1.200   0.458   2.830 -2.6197  1.8381 -1.4883
  561SOL    HW2 1683   1.360   0.417   2.814  0.4710 -0.0255 -0.5681
  562SOL     OW 1684   0.461   1.460   2.018  0.0493  0.1580 -0.0790
  562SOL    HW1 1685   0.527   1.387   2.053  3.6262 -1.6766 -2.9339
  562SOL    HW2 1686   0.511   1.549   2.023  1.0402  0.4092  2.9564
  563SOL     OW 1687   1.310   1.824   2.435  0.3388  0.7396  0.0161
  563SOL    HW1 1688   1.352   1.915   2.439  1.6480  0.8115  0.5076
  563SOL    HW2 1689   1.324   1.774   2.346 -1.0874 -0.5696 -1.1030
  564SOL     OW 1690   3.027   1.049   0.963 -0.3833 -0.2944  0.1240
  564SOL    HW1 1691   2.956   0.986   0.926  0.6619 -0.2964  1.5409
  564SOL    HW2 1692   2.985   1.141   0.978 -0.6714  1.3176 -1.1520
  565SOL     OW 1693   0.511   0.831   2.992 -0.3167 -0.0254  0.1648
  565SOL    HW1 1694   0.553   0.743   2.970  0.7927  1.4498 -1.3430
  565SOL    HW2 1695   0.421   0.815   3.035  2.3057 -1.8300  1.2567
  566SOL     OW 1696   2.491   2.909   2.708  0.3168 -0.1246  0.0071
  566SOL    HW1 1697   2.473   3.011   2.688 -0.8982 -0.0712 -3.0449
  566SOL    HW2 1698   2.424   2.880   2.781  0.2370  0.7364  2.6373
  567SOL     OW 1699   1.473   1.147   0.963  0.0419  0.8278  0.1654
  567SOL    HW1 1700   1.479   1.220   0.896 -1.1321 -2.3284  1.1857
  567SOL    HW2 1701   1.546   1.163   1.031 -2.2873 -0.4996 -3.3946
  568SOL     OW 1702   1.547   1.593   2.605  0.1450 -0.3306 -0.2232
  568SOL    HW1 1703   1.579   1.542   2.687 -0.1578 -0.0754 -0.1950
  568SOL    HW2 1704   1.585   1.536   2.529  2.8735  1.3305 -1.4104
  569SOL     OW 1705   2.288   1.467   3.071 -0.5704  0.0809  0.0288
  569SOL    HW1 1706   2.349   1.450   2.992  0.8748  2.6680  0.0091
  569SOL    HW2 1707   2.192   1.472   3.036 -1.0760 -0.5142  0.4176
  570SOL     OW 1708   0.041   2.306   1.804 -0.0534 -0.1577 -0.4870
  570SOL    HW1 1709   0.044   2.401   1.838  0.7295 -1.3081  0.4203
  570SOL    HW2 1710   0.133   2.275   1.795 -3.3157  0.1365 -3.8131
  571SOL     OW 1711   2.636   1.846   1.612 -0.1420  0.3189  0.0018
  571SOL    HW1 1712   2.598   1.923   1.663 -0.5459 -2.5959  0.0830
  571SOL    HW2 1713   2.666   1.780   1.686  0.7764  2.2051  0.5507
  572SOL     OW 1714   2.022   2.337   0.356 -0.0642  0.0997  0.3640
  572SOL    HW1 1715   2.011   2.392   0.270  0.3757 -2.3412 -0.9358
  572SOL    HW2 1716   2.067   2.250   0.331 -0.3880 -0.5912  0.6486
  573SOL     OW 1717   1.533   2.033   0.314  0.3702 -0.2773 -0.0197
  573SOL    HW1 1718   1.626   2.012   0.288  1.0900 -0.0064  2.4299
  573SOL    HW2 1719   1.505   1.980   0.399  0.0450  1.9180 -0.6444
  574SOL     OW 1720   1.698   0.282   1.373  0.1353  0.3201  0.3072
  574SOL    HW1 1721   1.718   0.179   1.366 -0.3899 -1.1577 -1.3029
  574SOL    HW2 1722   1.619   0.303   1.312  1.3130 -1.3394 -1.3426
  575SOL     OW 1723   0.618   1.215   1.424  0.0185  0.3358 -0.0823
  575SOL    HW1 1724   0.604   1.314   1.427 -0.8480 -2.0312  2.5286
  575SOL    HW2 1725   0.652   1.188   1.333 -0.4625  1.8085  3.6496
  576SOL     OW 1726   2.603   0.705   1.420  0.1145  0.5297 -0.3769
  576SOL    HW1 1727   2.600   0.648   1.501 -1.2411 -0.5393 -0.0785
  576SOL    HW2 1728   2.697   0.738   1.402  2.6905  3.9556  0.8585
  577SOL     OW 1729   1.579   0.978   2.461 -0.1624 -0.2180 -0.3762
  577SOL    HW1 1730   1.554   1.075   2.446 -1.2074 -0.1417  1.2410
  577SOL    HW2 1731   1.516   0.908   2.419  1.0996  0.4837 -0.0171
  578SOL     OW 1732   2.245   1.331   2.517  0.6753 -0.0512 -0.3407
  578SOL    HW1 1733   2.258   1.402   2.593 -0.6328  1.7083  2.3561
  578SOL    HW2 1734   2.199   1.376   2.438  0.9531  2.8146 -0.7988
  579SOL     OW 1735   1.030   1.948   1.486 -0.2515  0.1372 -0.1262
  579SOL    HW1 1736   1.056   2.044   1.503 -2.2686 -2.0042  0.3669
  579SOL    HW2 1737   1.018   1.934   1.385  0.2398 -0.5889  1.4084
  580SOL     OW 1738   1.566   2.293   0.224 -0.1688 -0.0949  0.0065
  580SOL    HW1 1739   1.591   2.285   0.127  1.4804  1.7663  1.6408
  580SOL    HW2 1740   1.552   2.196   0.263  1.5138 -3.6182  0.3281
  581SOL     OW 1741   0.776   0.770   1.883  0.7421  0.3325  0.4491
  581SOL    HW1 1742   0.722   0.692   1.854 -1.1511  0.6101  0.7736
  581SOL    HW2 1743   0.776   0.784   1.981 -1.7191  0.4625  0.6311
  582SOL     OW 1744   0.933   1.311   1.315 -0.1872  0.2308 -0.0042
  582SOL    HW1 1745   0.946   1.209   1.293 -2.1120  0.3919 -0.9534
  582SOL    HW2 1746   0.953   1.340   1.410  0.0537  1.7068 -0.9874
  583SOL     OW 1747   0.606   1.092   1.868  0.5299  0.6558 -0.7426
  583SOL    HW1 1748   0.574   1.177   1.826 -0.2980 -1.6703  1.0833
  583SOL    HW2 1749   0.691   1.109   1.922  2.3129 -1.8559 -2.0533
  584SOL     OW 1750   2.121   2.420   0.623  0.8001 -0.8376  0.0713
  584SOL    HW1 1751   2.172   2.336   0.650  1.1950  2.4489 -0.4300
  584SOL    HW2 1752   2.079   2.409   0.531  2.1846 -0.8760  2.4642
  585SOL     OW 1753   1.898   0.017   2.881  0.4627 -0.0674  0.1627
  585SOL    HW1 1754   1.841   0.105   2.874  2.3208  0.9151  1.9262
  585SOL    HW2 1755   1.903   3.070   2.785  0.0621  2.3004  2.7946
  586SOL     OW 1756   0.091   1.933   0.886  0.0151 -0.3331  0.2350
  586SOL    HW1 1757   0.042   1.847   0.873 -0.9553  0.3905 -0.1132
  586SOL    HW2 1758   0.053   1.984   0.967 -3.2706 -1.8037 -0.4981
  587SOL     OW 1759   1.788   1.962   0.242  0.0011  0.2530  0.1972
  587SOL    HW1 1760   1.876   1.925   0.256 -0.8896  2.5873  0.7083
  587SOL    HW2 1761   1.799   2.032   0.170  3.9505 -1.2151 -1.3708
  588SOL     OW 1762   0.216   0.052   0.910 -0.0066 -0.1053 -0.1421
  588SOL    HW1 1763   0.129   0.075   0.949  1.5366 -0.9653 -1.6518
  588SOL    HW2 1764   0.280   0.132   0.916  0.4306 -0.7845 -1.1862
  589SOL     OW 1765   1.196   1.162   0.997  0.5031  0.8312  0.0347
  589SOL    HW1 1766   1.154   1.091   0.937  2.5557  1.0620 -1.4456
  589SOL    HW2 1767   1.297   1.156   0.997 -0.1669 -2.9057  0.2314
  590SOL     OW 1768   1.321   1.318   3.046  0.3526 -0.4662  0.5050
  590SOL    HW1 1769   1.399   1.336   0.022 -0.4372 -0.7947 -2.3980
  590SOL    HW2 1770   1.276   1.227   3.076  0.5463 -1.2422 -0.0940
  591SOL     OW 1771   2.526   2.430   2.592 -0.0468 -0.2999  0.6863
  591SOL    HW1 1772   2.561   2.453   2.685 -0.3296 -0.4351  0.4981
  591SOL    HW2 1773   2.466   2.509   2.559 -4.4257  1.6306  0.8825
  592SOL     OW 1774   1.585   2.251   1.486 -0.4506  0.6128  0.8721
  592SOL    HW1 1775   1.505   2.251   1.545 -1.4886  1.1311 -1.5539
  592SOL    HW2 1776   1.654   2.187   1.518 -0.9579  3.2992 -0.2095
  593SOL     OW 1777   0.860   0.124   1.097 -0.7392 -0.2959  0.1621
  593SOL    HW1 1778   0.906   0.053   1.159  1.3268 -2.3257 -2.0973
  593SOL    HW2 1779   0.924   0.128   1.009 -0.2391 -2.5654 -1.6480
  594SOL     OW 1780   2.937   0.677   2.366 -0.4252  0.1704 -0.2514
  594SOL    HW1 1781   3.033   0.685   2.329 -0.4027  1.7850  1.7280
  594SOL    HW2 1782   2.902   0.582   2.351 -0.9148 -0.1089 -2.1094
  595SOL     OW 1783   0.816   2.704   1.329  0.4708  0.1920 -0.2861
  595SOL    HW1 1784   0.847   2.770   1.261  0.6960 -2.3287 -1.8176
  595SOL    HW2 1785   0.771   2.632   1.282 -0.6667  0.7764 -2.9208
  596SOL     OW 1786   0.105   0.946   1.408  0.3046  0.4605 -0.4586
  596SOL    HW1 1787   0.037   1.022   1.401 -3.5448  0.3636 -1.4814
  596SOL    HW2 1788   0.147   0.937   1.315 -1.3190  1.8883 -0.0062
  597SOL     OW 1789   1.611   1.786   0.105  0.1622 -0.4234 -0.5191
  597SOL    HW1 1790   1.525   1.775   0.158 -0.6413 -1.7463 -2.5118
  597SOL    HW2 1791   1.678   1.843   0.153 -2.4987 -0.0305  1.1742
  598SOL     OW 1792   0.378   2.764   1.547  0.6048 -0.2183 -0.3044
  598SOL    HW1 1793   0.370   2.801   1.454  2.1188 -0.2440  1.0539
  598SOL    HW2 1794   0.476   2.733   1.563  3.0062 -0.1228  1.8216
  599SOL     OW 1795   2.522   1.728   2.839  0.2617 -0.4154  0.0457
  599SOL    HW1 1796   2.452   1.802   2.825  1.0333  0.8641 -0.6205
  599SOL    HW2 1797   2.601   1.746   2.777  1.1446  2.0823 -0.4757
  600SOL     OW 1798   0.829   0.978   0.142  0.5096 -0.0382  0.7262
  600SOL    HW1 1799   0.847   1.004   0.239  1.1918 -1.9590 -1.7060
  600SOL    HW2 1800   0.812   1.062   0.083 -0.9482  1.5560 -1.4249
  601SOL     OW 1801   0.625   0.657   0.646  0.2771  0.1857 -0.3193
  601SOL    HW1 1802   0.581   0.734   0.602  1.3344 -2.9838 -0.5146
  601SOL    HW2 1803   0.695   0.692   0.710 -3.3107 -2.3188 -1.8548
  602SOL     OW 1804   1.317   2.928   0.670  0.3255 -0.0772 -0.3059
  602SOL    HW1 1805   1.408   2.961   0.694  0.1440  0.9803 -1.0541
  602SOL    HW2 1806   1.318   2.899   0.570 -1.2121  1.5019 -2.2012
  603SOL     OW 1807   0.639   2.860   2.113  0.0993 -0.3819  0.7102
  603SOL    HW1 1808   0.589   2.949   2.104  1.5349  3.3610  1.5760
  603SOL    HW2 1809   0.656   2.829   2.019 -3.1870  2.0024  1.2686
  604SOL     OW 1810   2.938   2.987   2.522 -0.5634 -0.1205 -0.0710
  604SOL    HW1 1811   3.041   2.999   2.509  1.5657  1.5267 -0.5254
  604SOL    HW2 1812   2.911   2.890   2.507  0.5915 -2.0039 -2.3071
  605SOL     OW 1813   2.624   1.988   1.256 -0.3855 -0.3080 -0.4588
  605SOL    HW1 1814   2.705   1.997   1.319  2.0925  1.9098  1.2641
  605SOL    HW2 1815   2.546   1.940   1.302 -1.7400 -0.2652 -1.2148
  606SOL     OW 1816   0.488   1.537   2.715  0.3077 -0.0352  0.4304
  606SOL    HW1 1817   0.399   1.584   2.691  1.6812  1.3222 -1.9031
  606SOL    HW2 1818   0.470   1.434   2.719 -2.9840  1.3416 -0.8011
  607SOL     OW 1819   0.946   3.073   0.450  0.1413 -0.4040  0.6920
  607SOL    HW1 1820   0.883   0.041   0.396  2.1821 -1.9514 -0.0000
  607SOL    HW2 1821   1.040   0.022   0.441  1.2916  2.8724  0.0308
  608SOL     OW 1822   1.798   1.147   2.235 -0.0657 -0.0182 -0.1900
  608SOL    HW1 1823   1.706   1.107   2.248  1.3115  0.3131  2.7542
  608SOL    HW2 1824   1.796   1.225   2.170  0.7801  1.5846 -0.7220
  609SOL     OW 1825   3.064   0.093   1.004  0.1799  0.3317 -0.3859
  609SOL    HW1 1826   0.007   0.078   1.108  0.0164  1.1825  2.9957
  609SOL    HW2 1827   2.998   0.165   1.004  1.5549 -4.0859  0.8090
  610SOL     OW 1828   0.662   2.831   0.696 -0.3728  0.1527  0.0193
  610SOL    HW1 1829   0.758   2.810   0.663  1.4081  2.0206  2.1118
  610SOL    HW2 1830   0.667   2.868   0.790 -0.5828  1.2212 -1.4331
  611SOL     OW 1831   1.673   0.814   2.893 -0.1772 -0.4542 -0.2745
  611SOL    HW1 1832   1.746   0.852   2.951 -0.5805  0.2950 -1.1894
  611SOL    HW2 1833   1.598   0.882   2.901 -1.8946  0.6000  0.3993
  612SOL     OW 1834   0.680   2.185   2.113  0.4771  0.4087  0.1662
  612SOL    HW1 1835   0.774   2.150   2.113 -2.0046  1.0855  0.6596
  612SOL    HW2 1836   0.677   2.278   2.155  0.9443 -2.2333 -1.8170
  613SOL     OW 1837   1.011   2.478   0.265  0.1727 -0.4526  0.1505
  613SOL    HW1 1838   1.096   2.517   0.229  1.0245 -1.5585  0.8236
  613SOL    HW2 1839   0.985   2.393   0.215 -2.6055  0.1826 -0.5545
  614SOL     OW 1840   2.764   2.781   1.626  0.4203 -0.4580  0.1136
  614SOL    HW1 1841   2.836   2.824   1.568 -0.2068  1.6507 -1.4467
  614SOL    HW2 1842   2.700   2.716   1.580 -2.7562  1.0025  0.7969
  615SOL     OW 1843   2.238   1.174   0.306  0.4444 -0.4062 -0.2052
  615SOL    HW1 1844   2.218   1.126   0.393  2.1913  1.2285  1.5835
  615SOL    HW2 1845   2.161   1.211   0.252 -0.1418  1.2993 -1.0581
  616SOL     OW 1846   1.657   0.429   0.282  0.8743  0.5173  0.6156
  616SOL    HW1 1847   1.620   0.444   0.187  1.5074  2.4068  0.8512
  616SOL    HW2 1848   1.586   0.459   0.346  1.3337 -2.9463 -0.6280
  617SOL     OW 1849   1.088   0.913   2.942  0.2861  0.0501 -0.2119
  617SOL    HW1 1850   1.159   0.845   2.968 -3.1129  1.9685  0.6321
  617SOL    HW2 1851   0.993   0.882   2.956 -0.4941  0.5940 -0.6955
  618SOL     OW 1852   0.689   0.140   1.773 -0.3574  0.2056 -0.5608
  618SOL    HW1 1853   0.767   0.097   1.826  1.4578  0.5944 -0.3473
  618SOL    HW2 1854   0.611   0.153   1.837  1.5275  0.1279  0.7254
  619SOL     OW 1855   2.800   1.061   1.345  0.0038 -0.5879  0.3858
  619SOL    HW1 1856   2.882   1.118   1.332  0.4503 -1.8740 -2.0383
  619SOL    HW2 1857   2.760   1.069   1.436  0.4992  0.2804  1.9473
  620SOL     OW 1858   2.168   0.983   2.642  0.3667  0.3311  0.0597
  620SOL    HW1 1859   2.235   1.048   2.601  0.1730 -0.3505  1.3782
  620SOL    HW2 1860   2.118   0.926   2.576  0.5591  0.9701  2.1831
  621SOL     OW 1861   2.452   2.733   1.413  0.4983 -0.4926 -0.0790
  621SOL    HW1 1862   2.466   2.723   1.310  3.0057 -0.2747 -1.4607
  621SOL    HW2 1863   2.503   2.658   1.458 -1.8412 -0.7849 -0.4002
  622SOL     OW 1864   1.140   0.770   2.646 -0.3499 -0.0720 -0.3907
  622SOL    HW1 1865   1.198   0.734   2.573  0.6791  0.9902 -0.9242
  622SOL    HW2 1866   1.156   0.871   2.660 -0.3037  1.3471  0.4809
  623SOL     OW 1867   1.105   0.591   2.862 -0.0479 -0.3693  0.1133
  623SOL    HW1 1868   1.019   0.563   2.817  3.3592 -0.8363  1.4159
  623SOL    HW2 1869   1.149   0.654   2.802 -0.2037  1.1907  1.2070
  624SOL     OW 1870   1.910   0.722   0.202  0.2994  0.5588 -0.1867
  624SOL    HW1 1871   1.913   0.783   0.126  0.7865 -1.1712  1.8413
  624SOL    HW2 1872   1.977   0.644   0.181  1.6550 -1.2421 -1.2275
  625SOL     OW 1873   1.020   1.383   1.019 -0.0696 -0.1194  0.1700
  625SOL    HW1 1874   1.098   1.320   1.003  0.3972  2.0829  1.5078
  625SOL    HW2 1875   0.976   1.353   1.103  0.1872  4.0512 -1.4037
  626SOL     OW 1876   1.634   1.208   2.758  1.1683  0.1144 -0.3078
  626SOL    HW1 1877   1.701   1.142   2.718  1.1689  1.8666 -2.7577
  626SOL    HW2 1878   1.553   1.215   2.693 -2.1284  0.7266  1.3148
  627SOL     OW 1879   1.028   0.258   2.318  0.1361 -0.0765 -0.1317
  627SOL    HW1 1880   1.069   0.190   2.252  1.5197  0.1647 -0.2366
  627SOL    HW2 1881   1.072   0.269   2.411 -2.5433  0.6901  1.2501
  628SOL     OW 1882   2.565   0.093   2.246  0.4075  0.1774 -0.3732
  628SOL    HW1 1883   2.604   0.156   2.174  0.0851  0.3454 -0.3337
  628SOL    HW2 1884   2.508   0.155   2.306 -3.1111  1.5068  0.2049
  629SOL     OW 1885   0.885   0.800   2.760  0.0956  0.0849 -0.1084
  629SOL    HW1 1886   0.975   0.801   2.710  0.5176  2.3486  2.0018
  629SOL    HW2 1887   0.892   0.791   2.861 -1.3284 -3.0030 -1.0875
  630SOL     OW 1888   1.009   0.602   1.917  0.0588  0.0310  0.0707
  630SOL    HW1 1889   0.917   0.647   1.910  1.1606  0.2567 -2.3954
  630SOL    HW2 1890   1.028   0.558   2.009  0.7825 -1.4216 -0.4688
  631SOL     OW 1891   2.904   0.662   0.575 -0.4287  0.8134  0.1255
  631SOL    HW1 1892   2.839   0.582   0.555  2.8121 -0.4951  0.6923
  631SOL    HW2 1893   2.990   0.650   0.528 -3.0513  1.4706  3.1969
  632SOL     OW 1894   2.126   0.956   1.373 -0.1158 -0.5278  0.6799
  632SOL    HW1 1895   2.071   0.927   1.452  2.7407  0.7517  2.7347
  632SOL    HW2 1896   2.129   0.883   1.303 -1.3592 -1.5720  3.8244
  633SOL     OW 1897   1.101   0.903   0.879  0.2773  0.6393 -0.0948
  633SOL    HW1 1898   1.037   0.828   0.899  0.7938 -0.4118 -0.1985
  633SOL    HW2 1899   1.190   0.887   0.925  1.7947  0.4719  1.3289
  634SOL     OW 1900   1.769   2.868   0.983 -0.0175  0.8156  0.1960
  634SOL    HW1 1901   1.854   2.813   1.019  2.2767 -2.6210  1.6185
  634SOL    HW2 1902   1.711   2.813   0.923 -2.1945  2.6247  0.4573
  635SOL     OW 1903   1.362   0.876   0.944 -0.8947 -0.0521  0.0206
  635SOL    HW1 1904   1.431   0.801   0.917  1.8089 -1.0491  0.2421
  635SOL    HW2 1905   1.409   0.966   0.946 -2.3003 -0.0599 -0.1912
  636SOL     OW 1906   0.862   0.745   0.771  0.2050  0.5140 -0.5693
  636SOL    HW1 1907   0.913   0.695   0.845 -0.3299 -0.1548 -1.0805
  636SOL    HW2 1908   0.826   0.839   0.793 -1.0371 -0.7793 -0.6450
  637SOL     OW 1909   2.473   2.102   0.189 -0.6321  0.2643 -0.2219
  637SOL    HW1 1910   2.531   2.114   0.267  2.9572 -0.1915 -2.3571
  637SOL    HW2 1911   2.525   2.090   0.102  2.5150  0.4066 -1.1462
  638SOL     OW 1912   1.510   2.717   2.758 -0.2545 -0.5807  0.3707
  638SOL    HW1 1913   1.507   2.638   2.699 -1.0118  1.4705 -0.7752
  638SOL    HW2 1914   1.585   2.702   2.821 -1.6612  3.2625  1.7239
  639SOL     OW 1915   0.870   2.172   1.210 -0.6763  0.2229 -0.4316
  639SOL    HW1 1916   0.883   2.226   1.127 -0.1654  0.0687  2.8050
  639SOL    HW2 1917   0.913   2.081   1.199 -2.4637  1.5663  1.4282
  640SOL     OW 1918   2.990   2.643   0.635  0.2210  0.1300 -0.5726
  640SOL    HW1 1919   2.970   2.546   0.663 -0.8264 -2.6936 -0.5830
  640SOL    HW2 1920   3.008   2.653   0.537  1.6142 -1.5764  1.4023
  641SOL     OW 1921   0.589   0.398   0.306  0.3141  0.0985 -0.2304
  641SOL    HW1 1922   0.502   0.358   0.346 -0.9258  2.1205 -0.5411
  641SOL    HW2 1923   0.570   0.409   0.204 -0.9567 -1.2347 -2.9692
  642SOL     OW 1924   2.866   0.694   1.086 -0.3852 -0.3657  0.1942
  642SOL    HW1 1925   2.855   0.601   1.047 -0.3879  2.6212  0.0429
  642SOL    HW2 1926   2.843   0.766   1.017 -0.7990 -1.4878 -1.6604
  643SOL     OW 1927   0.766   2.028   1.877  0.0966  0.0311  0.1794
  643SOL    HW1 1928   0.746   1.984   1.966  0.8539 -1.4349  0.8426
  643SOL    HW2 1929   0.761   2.129   1.882  3.9437  0.0569 -2.7820
  644SOL     OW 1930   1.524   2.720   0.338 -0.6618 -0.8111 -0.1187
  644SOL    HW1 1931   1.543   2.620   0.339 -0.3788 -3.2168  1.0776
  644SOL    HW2 1932   1.611   2.774   0.368  4.7761  4.0601  2.8480
  645SOL     OW 1933   1.827   2.224   0.870  0.0282  0.8109 -0.4068
  645SOL    HW1 1934   1.898   2.158   0.837 -1.1804  1.7987 -2.3089
  645SOL    HW2 1935   1.841   2.314   0.832 -2.1949 -0.1734  1.7558
  646SOL     OW 1936   1.180   2.834   0.053  0.2397  0.0347 -0.1608
  646SOL    HW1 1937   1.211   2.883   3.057 -2.0991 -0.6613  3.4698
  646SOL    HW2 1938   1.086   2.852   0.083 -1.1687 -1.4901 -0.1014
  647SOL     OW 1939   0.477   2.940   1.749 -0.1615  0.0306  0.7305
  647SOL    HW1 1940   0.408   2.933   1.826  0.4142 -0.4635  2.7967
  647SOL    HW2 1941   0.452   2.894   1.662  1.6028 -0.0872  2.3086
  648SOL     OW 1942   1.757   0.952   1.338  0.5950  0.3161  0.2322
  648SOL    HW1 1943   1.816   0.984   1.416  1.2063 -2.1797 -0.5096
  648SOL    HW2 1944   1.803   0.884   1.277 -1.7272  1.4913 -0.2055
  649SOL     OW 1945   1.644   2.253   2.767 -0.3934  0.4850 -0.1270
  649SOL    HW1 1946   1.710   2.180   2.784  0.7301  0.2406  0.1860
  649SOL    HW2 1947   1.632   2.310   2.854  0.5743 -0.0483  1.1896
  650SOL     OW 1948   2.294   1.520   1.839  0.0912  0.3650 -0.1328
  650SOL    HW1 1949   2.354   1.601   1.844  2.3145  2.5692  3.5013
  650SOL    HW2 1950   2.230   1.510   1.919  0.1282 -0.8687 -1.0646
  651SOL     OW 1951   1.348   1.832   2.921  0.3618 -0.0375  0.4393
  651SOL    HW1 1952   1.332   1.738   2.949 -1.9975  2.3532  0.3824
  651SOL    HW2 1953   1.409   1.830   2.836  2.5466 -1.4412 -2.0086
  652SOL     OW 1954   0.884   2.650   2.907 -0.0195 -0.1471  0.1941
  652SOL    HW1 1955   0.946   2.578   2.939 -0.4240 -0.5824  0.4624
  652SOL    HW2 1956   0.868   2.723   2.974 -1.5121 -1.2395 -2.5520
  653SOL     OW 1957   2.280   1.857   1.126  0.0974 -0.2571  0.8041
  653SOL    HW1 1958   2.224   1.937   1.106 -0.9472 -1.2628 -1.9501
  653SOL    HW2 1959   2.316   1.865   1.225 -1.1263  1.4132 -0.3634
  654SOL     OW 1960   2.691   2.495   1.987 -0.2388 -0.1355 -0.6779
  654SOL    HW1 1961   2.705   2.591   1.950  0.3960 -3.0068  0.5082
  654SOL    HW2 1962   2.734   2.425   1.932  1.2637  0.2991 -0.2371
  655SOL     OW 1963   2.825   2.245   1.109  0.1624 -0.0979 -0.1095
  655SOL    HW1 1964   2.742   2.198   1.071 -1.6473 -0.4641  0.9206
  655SOL    HW2 1965   2.822   2.242   1.210  1.3749 -0.8207 -2.5260
  656SOL     OW 1966   0.269   2.741   2.767  0.4630  0.2620 -0.2323
  656SOL    HW1 1967   0.301   2.782   2.678  0.9193  0.5776 -1.8267
  656SOL    HW2 1968   0.171   2.711   2.765  1.5445 -3.1461  1.8306
  657SOL     OW 1969   3.032   0.807   0.286  0.0500 -0.0792  0.2183
  657SOL    HW1 1970   3.077   0.763   0.369 -0.6293  0.6856  1.8729
  657SOL    HW2 1971   0.009   0.855   0.220 -2.2703  0.1960 -1.5107
  658SOL     OW 1972   1.484   1.777   1.010 -0.0905  1.0191 -0.0155
  658SOL    HW1 1973   1.446   1.722   1.092 -0.1748 -0.2634  2.7022
  658SOL    HW2 1974   1.504   1.867   1.046 -1.7237  0.6756 -0.9008
  659SOL     OW 1975   1.723   0.553   1.292 -0.5151 -0.0144  0.1159
  659SOL    HW1 1976   1.757   0.461   1.253  0.5812 -5.7734 -1.5383
  659SOL    HW2 1977   1.625   0.564   1.273  1.9824  2.9561  2.6449
  660SOL     OW 1978   1.385   1.496   0.372  0.0833 -0.3353 -0.2563
  660SOL    HW1 1979   1.322   1.414   0.387 -0.7663  1.8559 -0.8518
  660SOL    HW2 1980   1.456   1.504   0.442 -1.2809  1.1600  0.6949
  661SOL     OW 1981   0.150   1.772   0.585  0.1784  0.1879 -0.0460
  661SOL    HW1 1982   0.151   1.795   0.486 -3.7396 -0.6537 -0.7881
  661SOL    HW2 1983   0.223   1.825   0.633 -0.2509  0.8875 -1.2486
  662SOL     OW 1984   0.081   0.695   2.228 -0.2513  0.2407  0.0353
  662SOL    HW1 1985   0.058   0.664   2.132  1.0642  0.9682  0.1192
  662SOL    HW2 1986   0.107   0.798   2.233 -0.0562  4.3517 -0.1988
  663SOL     OW 1987   2.012   1.321   1.222  0.2911 -0.0865  0.5083
  663SOL    HW1 1988   1.935   1.251   1.234  0.6322 -0.6621 -0.3028
  663SOL    HW2 1989   1.972   1.406   1.181 -0.9231 -2.9970  1.0486
  664SOL     OW 1990   0.675   0.624   1.058  0.8542 -0.6405 -0.0327
  664SOL    HW1 1991   0.577   0.607   1.036 -0.3096 -0.4148  1.5377
  664SOL    HW2 1992   0.728   0.540   1.069 -0.0078  0.0507 -0.3865
  665SOL     OW 1993   1.236   2.987   2.915  0.5922  0.1922 -0.8421
  665SOL    HW1 1994   1.334   3.003   2.915  1.7844 -0.8469 -0.2116
  665SOL    HW2 1995   1.191   3.081   2.905 -3.8231  4.9450  1.6368
  666SOL     OW 1996   0.202   0.609   2.475 -0.2181  0.1551  0.2677
  666SOL    HW1 1997   0.246   0.515   2.482  2.8759 -0.4073  0.0976
  666SOL    HW2 1998   0.158   0.622   2.385 -0.8584 -1.3466  0.6836
  667SOL     OW 1999   2.085   1.325   2.204  0.2247 -0.1486  0.3697
  667SOL    HW1 2000   2.005   1.369   2.252 -1.4413 -0.6718 -0.6565
  667SOL    HW2 2001   2.110   1.235   2.249  1.1676 -0.8903 -1.2912
  668SOL     OW 2002   3.066   1.645   2.993 -0.2672 -0.3393  0.4980
  668SOL    HW1 2003   0.015   1.577   2.927 -0.4800 -1.7277 -0.5932
  668SOL    HW2 2004   2.964   1.636   3.011 -2.0303  0.5338  1.6892
  669SOL     OW 2005   2.137   2.872   2.519  0.5754  0.0119 -0.3922
  669SOL    HW1 2006   2.110   2.881   2.419 -2.7450  0.0341 -2.0091
  669SOL    HW2 2007   2.202   2.795   2.527  2.5485  0.0951  2.9678
  670SOL     OW 2008   2.639   0.924   2.557  0.1637  0.1311  0.2458
  670SOL    HW1 2009   2.620   0.823   2.568  2.1054  0.9890 -1.8534
  670SOL    HW2 2010   2.557   0.976   2.589  0.4870 -1.5128 -0.2039
  671SOL     OW 2011   2.302   1.431   0.261  0.6519 -0.3634 -0.0729
  671SOL    HW1 2012   2.291   1.445   0.158  1.0428 -0.1646  0.0664
  671SOL    HW2 2013   2.299   1.327   0.282  0.9693 -4.1008 -0.3145
  672SOL     OW 2014   2.710   1.230   2.344  0.2370 -0.3066  0.3657
  672SOL    HW1 2015   2.724   1.325   2.375 -0.9030 -2.0338 -0.0725
  672SOL    HW2 2016   2.688   1.170   2.424  1.2243 -1.5419  1.7532
  673SOL     OW 2017   2.885   1.474   1.485 -0.2937 -0.2913 -0.1228
  673SOL    HW1 2018   2.879   1.568   1.446 -0.7020 -0.2444 -0.6275
  673SOL    HW2 2019   2.923   1.416   1.414 -0.6915  0.3732 -2.6701
  674SOL     OW 2020   1.481   1.633   1.903 -0.5579 -0.3005 -0.5488
  674SOL    HW1 2021   1.471   1.730   1.880  0.1069 -1.3471  1.6062
  674SOL    HW2 2022   1.586   1.612   1.906  6.2121 -0.2137 -0.1050
  675SOL     OW 2023   2.928   0.345   1.013 -0.2264 -0.1471  0.3652
  675SOL    HW1 2024   2.949   0.421   0.948  1.2289 -0.5830  1.9802
  675SOL    HW2 2025   2.833   0.361   1.053 -1.7230  0.2743  1.6853
  676SOL     OW 2026   2.083   0.822   0.863  0.4779  0.2592 -0.1348
  676SOL    HW1 2027   2.053   0.729   0.844  0.4720  0.8837 -0.1750
  676SOL    HW2 2028   2.014   0.887   0.829  2.0554  1.5914 -3.2095
  677SOL     OW 2029   1.529   1.548   2.182  0.5132  0.1509  0.0529
  677SOL    HW1 2030   1.441   1.606   2.180 -3.5350  1.4156  1.0068
  677SOL    HW2 2031   1.536   1.495   2.097  2.3802  0.7618  1.4771
  678SOL     OW 2032   2.521   1.479   1.219 -0.0503  0.0098  0.2356
  678SOL    HW1 2033   2.568   1.408   1.159 -1.0641 -1.6652 -0.7479
  678SOL    HW2 2034   2.419   1.458   1.214 -1.2069 -1.5783  1.1720
  679SOL     OW 2035   0.406   2.695   0.881  0.3082  0.4334  0.0309
  679SOL    HW1 2036   0.398   2.732   0.782 -1.0845  2.1271 -0.5267
  679SOL    HW2 2037   0.318   2.644   0.909 -1.2543 -1.6530  0.7452
  680SOL     OW 2038   3.056   2.066   1.086  0.3376 -1.0912 -0.1642
  680SOL    HW1 2039   0.038   2.097   1.154 -1.5643  2.2285 -0.9483
  680SOL    HW2 2040   2.982   2.135   1.075  1.4684 -1.4058 -1.5987
  681SOL     OW 2041   0.843   0.815   1.325  0.4010  0.0640 -0.0010
  681SOL    HW1 2042   0.926   0.785   1.371 -0.4500  1.9368  0.5178
  681SOL    HW2 2043   0.868   0.842   1.229 -0.3936  1.3016 -0.7885
  682SOL     OW 2044   1.601   2.975   0.722 -0.1575  0.1537  0.2881
  682SOL    HW1 2045   1.610   3.062   0.781 -3.4208 -1.2089 -2.1726
  682SOL    HW2 2046   1.679   2.954   0.655  1.8187 -2.8492 -0.0393
  683SOL     OW 2047   2.227   1.389   1.621 -0.2750  0.4004  0.0271
  683SOL    HW1 2048   2.250   1.419   1.717 -0.2464 -1.8364 -1.4147
  683SOL    HW2 2049   2.217   1.470   1.563  2.1259  2.2431 -1.4546
  684SOL     OW 2050   3.054   1.716   1.538 -0.3661  0.1981 -0.0650
  684SOL    HW1 2051   2.975   1.750   1.482  1.3730 -1.0988 -0.1085
  684SOL    HW2 2052   3.040   1.730   1.635 -2.4827  2.4148  1.1147
  685SOL     OW 2053   2.034   1.830   0.292  0.2769  0.2662  0.1050
  685SOL    HW1 2054   1.981   1.765   0.350 -1.0469  0.3940 -0.5769
  685SOL    HW2 2055   2.085   1.783   0.217 -1.8887 -0.6432 -0.4014
  686SOL     OW 2056   3.026   0.152   0.686  0.3383  0.1400  0.8444
  686SOL    HW1 2057   3.056   0.168   0.784  0.9042  0.9516  3.1379
  686SOL    HW2 2058   2.940   0.096   0.678  0.0478  1.2053 -2.6052
  687SOL     OW 2059   1.503   0.012   2.932  0.3378 -0.0647 -0.2524
  687SOL    HW1 2060   1.509   0.086   3.009  0.7988  2.4320  4.0277
  687SOL    HW2 2061   1.531   0.047   2.845  0.2781 -0.1929 -1.6471
  688SOL     OW 2062   1.844   1.864   2.001 -0.0876 -0.3935 -0.1008
  688SOL    HW1 2063   1.931   1.824   2.033 -1.6327  2.7907 -0.4809
  688SOL    HW2 2064   1.823   1.950   2.057  0.4451  0.0593  3.8724
  689SOL     OW 2065   2.677   0.989   2.106 -0.1944  0.1033 -0.0596
  689SOL    HW1 2066   2.694   1.082   2.060  2.7572  0.3035 -0.6708
  689SOL    HW2 2067   2.710   0.983   2.201  0.1769  1.2456 -1.2977
  690SOL     OW 2068   1.801   1.423   0.833  0.0197 -0.4467 -0.0277
  690SOL    HW1 2069   1.862   1.353   0.853 -1.9908  3.9609  2.2834
  690SOL    HW2 2070   1.764   1.463   0.920 -2.2636  2.6579  0.5019
  691SOL     OW 2071   0.781   1.499   1.191 -0.2909  0.7922 -0.1441
  691SOL    HW1 2072   0.850   1.437   1.237  2.9145  2.3774 -1.3123
  691SOL    HW2 2073   0.684   1.460   1.187 -1.8428 -0.4113 -0.8132
  692SOL     OW 2074   1.955   3.027   2.066 -0.4674  0.0545 -0.0061
  692SOL    HW1 2075   2.028   0.011   2.070 -1.6625 -3.1444  0.4851
  692SOL    HW2 2076   1.931   3.009   1.968 -0.5897  2.7579  0.8622
  693SOL     OW 2077   2.840   1.293   2.659  0.9128 -0.5157 -0.0679
  693SOL    HW1 2078   2.887   1.381   2.666 -0.0099  1.4631 -0.4224
  693SOL    HW2 2079   2.904   1.219   2.646 -1.7516  0.4315  0.7645
  694SOL     OW 2080   2.123   0.180   1.112 -0.6151  0.5244 -0.0438
  694SOL    HW1 2081   2.124   0.112   1.188  1.1496  0.8818  2.3597
  694SOL    HW2 2082   2.165   0.266   1.143 -0.4122 -0.3973  1.2586
  695SOL     OW 2083   1.324   1.295   2.766 -0.1173 -0.4755  0.0900
  695SOL    HW1 2084   1.349   1.314   2.864 -1.1969 -0.7987  0.5048
  695SOL    HW2 2085   1.285   1.377   2.719  0.3925 -2.2652 -2.2200
  696SOL     OW 2086   1.997   0.307   1.759  0.1438  0.2076  0.3599
  696SOL    HW1 2087   1.979   0.317   1.656  0.0025 -0.7665 -4.0666
  696SOL    HW2 2088   2.097   0.279   1.777  2.6564 -0.6322 -2.1603
  697SOL     OW 2089   1.600   0.563   2.221 -0.4430  0.3199  0.9317
  697SOL    HW1 2090   1.613   0.489   2.292 -1.6058 -0.8709  0.2171
  697SOL    HW2 2091   1.566   0.531   2.127  2.2980 -1.0801 -1.2217
  698SOL     OW 2092   1.922   1.707   2.367 -0.2115 -0.3056 -0.1922
  698SOL    HW1 2093   1.825   1.738   2.379  0.1527  0.1924  0.0295
  698SOL    HW2 2094   1.924   1.609   2.405 -1.7371  0.6075  0.5569
  699SOL     OW 2095   1.510   1.071   0.657 -0.2235 -0.1493  0.0207
  699SOL    HW1 2096   1.525   1.153   0.715  1.3933  3.1395 -1.1905
  699SOL    HW2 2097   1.587   1.010   0.680 -1.3430  2.3747  0.2982
  700SOL     OW 2098   1.618   2.851   0.049 -0.4644  0.5105 -0.1807
  700SOL    HW1 2099   1.605   2.942   0.009 -0.1649  0.6110  0.1543
  700SOL    HW2 2100   1.546   2.830   0.118  0.4277  1.8899 -0.4313
  701SOL     OW 2101   0.176   0.552   1.309  0.4989 -0.0689 -0.2229
  701SOL    HW1 2102   0.127   0.620   1.252 -1.3306 -0.6266 -2.2306
  701SOL    HW2 2103   0.113   0.469   1.310  3.7264  1.3901 -0.2053
  702SOL     OW 2104   1.753   0.011   1.401  0.9457  0.0629 -0.2533
  702SOL    HW1 2105   1.844   3.055   1.398 -1.9728  0.7430  1.5388
  702SOL    HW2 2106   1.697   3.061   1.478  2.7690  0.9827 -1.8561
  703SOL     OW 2107   2.675   0.531   1.685  0.0058  0.0997  0.5191
  703SOL    HW1 2108   2.682   0.433   1.691  1.5214 -1.3814  2.2294
  703SOL    HW2 2109   2.768   0.573   1.677 -0.3810  1.2701  1.2550
  704SOL     OW 2110   1.264   2.195   1.181 -0.5765 -0.4543  0.0655
  704SOL    HW1 2111   1.264   2.292   1.222 -1.0047 -1.8240 -0.4503
  704SOL    HW2 2112   1.216   2.186   1.090 -0.3665 -0.6947 -2.4217
  705SOL     OW 2113   0.153   1.722   2.186  0.0663 -0.1024 -0.3714
  705SOL    HW1 2114   0.247   1.740   2.217 -0.5539  2.3323 -0.0914
  705SOL    HW2 2115   0.140   1.621   2.178 -0.3475 -0.8840  2.0616
  706SOL     OW 2116   2.316   0.429   2.865  0.2024  0.3608 -0.0920
  706SOL    HW1 2117   2.252   0.504   2.900 -0.2059  0.0901 -0.2449
  706SOL    HW2 2118   2.319   0.356   2.935  0.7482  0.8305  2.2937
  707SOL     OW 2119   1.603   2.766   2.325  0.1286  0.1160  0.0825
  707SOL    HW1 2120   1.684   2.714   2.286 -0.2923 -1.3928  1.0107
  707SOL    HW2 2121   1.521   2.710   2.343 -1.5468  0.3498 -0.2883
  708SOL     OW 2122   0.669   2.292   1.353 -0.5623  0.3432  0.3304
  708SOL    HW1 2123   0.666   2.390   1.320 -0.8199  0.7961  1.0597
  708SOL    HW2 2124   0.750   2.243   1.315 -1.0255 -0.6356 -1.4919
  709SOL     OW 2125   2.656   0.930   1.826 -0.3392 -0.0973 -0.2771
  709SOL    HW1 2126   2.645   0.909   1.924  0.0000  1.3504 -0.0623
  709SOL    HW2 2127   2.736   0.885   1.794 -0.5617 -0.4964  1.0728
  710SOL     OW 2128   3.069   0.432   1.558  0.1468  0.0959  0.1598
  710SOL    HW1 2129   3.052   0.402   1.464 -0.4826  0.4681  0.7392
  710SOL    HW2 2130   3.024   0.522   1.578 -1.1398 -1.4006 -0.3157
  711SOL     OW 2131   3.085   2.745   0.881  0.1349  0.7419 -0.0304
  711SOL    HW1 2132   0.063   2.674   0.920 -0.4412 -0.0765 -0.4103
  711SOL    HW2 2133   3.066   2.716   0.783  0.7057 -1.8331 -2.8713
  712SOL     OW 2134   0.359   2.930   2.560 -0.5485  0.0571  0.0240
  712SOL    HW1 2135   0.440   2.983   2.607 -0.4493  0.1863  0.4268
  712SOL    HW2 2136   0.384   2.889   2.470 -1.4958  0.4117 -0.3551
  713SOL     OW 2137   2.262   0.419   0.401  0.0651 -0.0068 -0.0223
  713SOL    HW1 2138   2.223   0.492   0.463 -1.3742  3.2952  2.4987
  713SOL    HW2 2139   2.294   0.461   0.314  0.4448  0.6124  2.7911
  714SOL     OW 2140   1.577   1.555   3.078 -0.0390  0.4123 -0.6084
  714SOL    HW1 2141   1.585   1.646   0.044  0.7548 -0.5887  2.0038
  714SOL    HW2 2142   1.555   1.479   0.054 -0.6312 -1.3428 -1.2870
  715SOL     OW 2143   0.186   0.374   0.429 -0.1833 -0.0389 -0.2341
  715SOL    HW1 2144   0.186   0.314   0.343  1.9254 -0.9771  0.8445
  715SOL    HW2 2145   0.262   0.344   0.491  1.5181  1.0548 -0.6387
  716SOL     OW 2146   0.887   0.048   2.000 -0.1844  0.2872 -0.6638
  716SOL    HW1 2147   0.969   0.045   2.059  1.6057 -0.8313  0.0772
  716SOL    HW2 2148   0.815   0.088   2.057  1.0365 -2.8000 -0.6153
  717SOL     OW 2149   0.286   0.555   2.859 -0.5770 -0.4676 -0.0508
  717SOL    HW1 2150   0.271   0.460   2.838  0.6479 -0.2406 -0.0870
  717SOL    HW2 2151   0.228   0.606   2.791 -0.7489  0.1310 -2.4214
  718SOL     OW 2152   1.380   0.548   0.449  0.1285  0.8872 -0.1363
  718SOL    HW1 2153   1.323   0.611   0.392 -2.3900  0.3636 -2.6529
  718SOL    HW2 2154   1.358   0.562   0.547  0.8187  0.7758  0.9620
  719SOL     OW 2155   2.331   1.957   3.055  0.1896  0.5073 -0.1426
  719SOL    HW1 2156   2.320   1.952   2.953  2.2585  1.4908 -1.0698
  719SOL    HW2 2157   2.408   2.017   0.003  1.6671  2.0444 -1.8042
  720SOL     OW 2158   1.255   0.968   1.389 -0.0332  0.5851  0.1634
  720SOL    HW1 2159   1.266   1.065   1.415 -1.9391 -2.7003  2.2968
  720SOL    HW2 2160   1.211   0.924   1.471  4.5681 -1.4304  1.7245
  721SOL     OW 2161   0.076   2.783   1.274  0.0508 -0.2428 -0.4577
  721SOL    HW1 2162   0.148   2.818   1.209  0.9070  0.5517  0.8194
  721SOL    HW2 2163   0.111   2.692   1.314  2.3683 -1.3565  0.8846
  722SOL     OW 2164   0.880   1.729   2.615  0.2024 -0.4910  0.1989
  722SOL    HW1 2165   0.953   1.770   2.562  0.0654 -0.1348  0.1847
  722SOL    HW2 2166   0.812   1.800   2.646  2.4253  1.1372 -0.6501
  723SOL     OW 2167   1.837   0.264   0.630  0.1064 -0.3555  0.1023
  723SOL    HW1 2168   1.777   0.265   0.548  0.4489  0.1216 -0.7155
  723SOL    HW2 2169   1.902   0.186   0.624 -1.2815 -1.7321 -1.3141
  724SOL     OW 2170   0.613   2.208   2.681  0.7823 -0.5148 -0.2808
  724SOL    HW1 2171   0.670   2.192   2.768  1.1982 -0.2464  1.6067
  724SOL    HW2 2172   0.518   2.234   2.715 -1.1100 -0.4955 -0.1554
  725SOL     OW 2173   0.075   0.689   1.076 -0.6626  0.3640 -0.0366
  725SOL    HW1 2174   3.067   0.648   1.084 -1.4874  1.3244  1.5050
  725SOL    HW2 2175   0.109   0.697   0.981  0.9367  0.4377  0.1233
  726SOL     OW 2176   2.453   0.391   0.667 -0.5051  0.9058  0.0462
  726SOL    HW1 2177   2.463   0.381   0.568 -1.0296  1.5559  3.6072
  726SOL    HW2 2178   2.369   0.344   0.704 -0.8918 -3.1055 -1.9750
  727SOL     OW 2179   2.062   1.069   2.325 -0.0485 -0.1711 -0.1139
  727SOL    HW1 2180   1.962   1.095   2.327 -0.6966  1.2392  1.8617
  727SOL    HW2 2181   2.076   0.969   2.343 -1.3924 -0.2076  0.2654
  728SOL     OW 2182   1.550   2.977   1.546 -0.5886 -0.3146 -0.7334
  728SOL    HW1 2183   1.480   3.014   1.610 -0.6022  0.5579  0.1316
  728SOL    HW2 2184   1.514   2.899   1.493  1.8217  0.0316  0.5473
  729SOL     OW 2185   2.070   0.641   2.023 -0.2700 -0.5463  0.3461
  729SOL    HW1 2186   2.027   0.725   2.060 -2.2471 -2.3952 -0.2559
  729SOL    HW2 2187   2.105   0.578   2.097 -1.6350  0.8649  0.5205
  730SOL     OW 2188   0.572   0.854   1.404  0.2591 -0.1524 -0.0156
  730SOL    HW1 2189   0.547   0.768   1.456  0.1113  3.2039  0.5321
  730SOL    HW2 2190   0.664   0.853   1.367  0.3336  0.3028  0.4481
  731SOL     OW 2191   0.250   3.042   0.327  0.5852  0.0964 -0.0825
  731SOL    HW1 2192   0.178   3.055   0.396 -0.3719  1.9691 -1.9641
  731SOL    HW2 2193   0.314   0.032   0.329 -1.4377 -2.1042  2.6905
  732SOL     OW 2194   0.808   0.595   0.344  0.0689  0.1186 -0.3222
  732SOL    HW1 2195   0.747   0.512   0.344 -0.5412  2.9858 -1.8330
  732SOL    HW2 2196   0.754   0.672   0.312  0.5885 -1.5795 -0.5888
  733SOL     OW 2197   1.909   1.448   2.416 -0.1512 -0.1035 -0.4263
  733SOL    HW1 2198   1.812   1.446   2.403 -1.6369  1.8739  1.3320
  733SOL    HW2 2199   1.937   1.371   2.475  1.4078 -0.1223  0.9204
  734SOL     OW 2200   3.076   2.064   2.053  0.1376  0.2136 -0.6656
  734SOL    HW1 2201   0.079   2.075   2.002  0.2844  3.4025  3.4256
  734SOL    HW2 2202   3.015   2.148   2.033 -2.7772  3.0338 -1.1133
  735SOL     OW 2203   1.862   0.257   1.076 -1.1039  0.2565  0.2312
  735SOL    HW1 2204   1.963   0.238   1.075  0.9468 -1.8171 -1.2320
  735SOL    HW2 2205   1.814   0.173   1.106  1.3271 -0.6477  1.9475
  736SOL     OW 2206   0.954   1.351   3.071 -0.0033  0.2346 -0.2791
  736SOL    HW1 2207   0.945   1.427   3.003 -0.5961  4.8724  1.9842
  736SOL    HW2 2208   1.022   1.376   0.054 -0.5707 -0.7899  2.1715
  737SOL     OW 2209   3.002   0.298   0.450  0.0432  0.3751 -0.1589
  737SOL    HW1 2210   0.008   0.341   0.438  0.4512  0.2488  1.8082
  737SOL    HW2 2211   2.992   0.256   0.548  1.8678 -0.6310  4.0278
  738SOL     OW 2212   0.536   2.453   1.533 -0.0212 -0.3354 -0.3366
  738SOL    HW1 2213   0.570   2.551   1.533  2.7636  2.8504 -2.6309
  738SOL    HW2 2214   0.595   2.377   1.489  2.0921 -3.3291 -2.7565
  739SOL     OW 2215   1.095   2.792   2.614 -0.8693 -0.1954  0.2593
  739SOL    HW1 2216   1.064   2.789   2.711 -1.5769 -1.7126  0.2183
  739SOL    HW2 2217   1.194   2.792   2.598  0.7267 -1.4383 -3.3732
  740SOL     OW 2218   1.839   2.694   1.570  0.1847  0.0054  0.1444
  740SOL    HW1 2219   1.775   2.718   1.643  1.0324 -0.4420  1.5171
  740SOL    HW2 2220   1.795   2.613   1.521  0.9989  0.7320 -3.4678
  741SOL     OW 2221   2.199   0.649   0.556  0.4627  0.0411  0.3361
  741SOL    HW1 2222   2.297   0.674   0.549  0.2050 -0.2731  0.1187
  741SOL    HW2 2223   2.132   0.717   0.517 -1.6154  0.9326 -1.2461
  742SOL     OW 2224   1.166   2.392   2.318  0.2443  0.1883 -0.5334
  742SOL    HW1 2225   1.238   2.327   2.352 -1.2911  0.8992 -2.6664
  742SOL    HW2 2226   1.099   2.404   2.395  1.1909  0.5932 -0.2200
  743SOL     OW 2227   2.422   1.122   1.890 -0.1212  0.4974  0.0215
  743SOL    HW1 2228   2.361   1.042   1.910  0.1736  1.0220  1.2750
  743SOL    HW2 2229   2.524   1.102   1.885  3.4639 -0.4781 -0.7420
  744SOL     OW 2230   2.649   0.294   0.843  0.3711 -0.3695  0.0487
  744SOL    HW1 2231   2.573   0.341   0.793  1.8924 -2.1954  0.9953
  744SOL    HW2 2232   2.674   0.330   0.933  1.0315 -0.1161 -1.0846
  745SOL     OW 2233   2.499   1.363   1.961 -0.9175  0.2795  0.5047
  745SOL    HW1 2234   2.435   1.432   1.917 -1.3376 -1.8573  2.6376
  745SOL    HW2 2235   2.459   1.272   1.943 -1.3331  0.9308  1.5123
  746SOL     OW 2236   1.454   1.518   0.671  0.5412  0.1311  0.2977
  746SOL    HW1 2237   1.482   1.616   0.673  2.0137 -2.3319  0.9988
  746SOL    HW2 2238   1.351   1.516   0.659  2.3522 -0.5206 -1.5883
  747SOL     OW 2239   1.525   1.933   1.450  0.2241 -0.3920 -0.2022
  747SOL    HW1 2240   1.465   1.963   1.531  0.5417 -1.7379  2.2339
  747SOL    HW2 2241   1.474   1.952   1.365 -1.9730  1.4745  2.7505
  748SOL     OW 2242   0.166   2.676   0.013  0.3338 -0.0847  0.4149
  748SOL    HW1 2243   0.117   2.726   0.082 -0.2090  1.5958 -0.1303
  748SOL    HW2 2244   0.261   2.707   0.003 -1.9226  0.2259  0.5750
  749SOL     OW 2245   0.210   1.251   2.653  0.4424 -0.0907  0.2500
  749SOL    HW1 2246   0.210   1.308   2.566 -1.5511 -0.0257 -0.4082
  749SOL    HW2 2247   0.125   1.195   2.649 -0.2894  1.6690  1.7587
  750SOL     OW 2248   1.379   0.087   2.049  0.6166 -0.2859 -0.2010
  750SOL    HW1 2249   1.450   0.081   2.126  1.8604 -3.2775 -1.0730
  750SOL    HW2 2250   1.415   0.129   1.966 -1.8846  1.5902  1.4098
  751SOL     OW 2251   2.634   0.643   0.369  0.1561 -0.4434  0.8802
  751SOL    HW1 2252   2.599   0.627   0.272  2.0535  1.1631 -2.2589
  751SOL    HW2 2253   2.683   0.566   0.406 -2.3438  4.7870 -3.8794
  752SOL     OW 2254   0.289   2.097   0.788 -0.1606  0.3910 -0.1845
  752SOL    HW1 2255   0.352   2.036   0.735 -1.3146 -2.3866  1.1849
  752SOL    HW2 2256   0.220   2.037   0.823 -0.4204  3.7292 -0.0133
  753SOL     OW 2257   1.097   2.698   0.968  0.3690  0.8818 -0.0408
  753SOL    HW1 2258   1.189   2.684   1.018  2.7043  0.8461  2.4445
  753SOL    HW2 2259   1.046   2.614   0.945 -1.5073  0.4661 -0.9162
  754SOL     OW 2260   0.289   2.930   1.955 -0.1422 -0.2267 -0.3762
  754SOL    HW1 2261   0.296   2.846   2.009  0.2697 -0.0908 -0.9105
  754SOL    HW2 2262   0.199   2.974   1.974 -0.7720  1.2033 -0.8539
  755SOL     OW 2263   1.759   1.148   0.388 -0.5745 -0.0248  0.3242
  755SOL    HW1 2264   1.691   1.209   0.434  0.1360  0.8332 -2.7894
  755SOL    HW2 2265   1.813   1.097   0.460  0.8749  0.4931  2.3565
  756SOL     OW 2266   2.287   2.371   2.778  0.3351 -0.6991  0.0200
  756SOL    HW1 2267   2.286   2.274   2.749  1.4856  0.7329  0.9578
  756SOL    HW2 2268   2.364   2.391   2.846  1.2763  0.5117  1.3674
  757SOL     OW 2269   1.658   0.660   0.551 -0.3816 -0.6739 -0.3245
  757SOL    HW1 2270   1.674   0.717   0.468 -1.1863 -1.1084 -2.7281
  757SOL    HW2 2271   1.592   0.589   0.533 -0.5699  0.9033  0.3992
  758SOL     OW 2272   2.230   0.390   1.216  0.4907 -0.2408 -0.3708
  758SOL    HW1 2273   2.236   0.430   1.311  1.1035 -2.1110  1.2111
  758SOL    HW2 2274   2.239   0.451   1.138 -0.8668 -1.3086  1.3009
  759SOL     OW 2275   2.680   0.429   1.080  0.3236 -0.2984 -0.2173
  759SOL    HW1 2276   2.622   0.389   1.157 -1.4466 -3.9833  2.3156
  759SOL    HW2 2277   2.637   0.513   1.043  0.2934 -2.5672  3.1517
  760SOL     OW 2278   2.260   1.351   1.258 -0.5825 -0.3333 -0.4302
  760SOL    HW1 2279   2.156   1.348   1.255  0.7251  0.1360  0.9141
  760SOL    HW2 2280   2.311   1.264   1.282  0.6726 -0.4827 -0.0304
  761SOL     OW 2281   0.389   0.300   0.584 -0.2521 -0.0587 -0.2397
  761SOL    HW1 2282   0.487   0.332   0.598 -0.7966 -1.6509 -0.2653
  761SOL    HW2 2283   0.384   0.206   0.629  1.1358 -2.9565 -0.8948
  762SOL     OW 2284   0.986   1.907   1.191  0.0506 -0.2108 -0.0203
  762SOL    HW1 2285   1.032   1.852   1.113  0.6814 -0.6812 -0.4469
  762SOL    HW2 2286   0.889   1.882   1.207 -0.7996  0.9395 -1.3168
  763SOL     OW 2287   1.376   1.112   1.841  0.0561  0.2728 -0.4546
  763SOL    HW1 2288   1.386   1.210   1.811 -0.3895  2.3029  0.8496
  763SOL    HW2 2289   1.466   1.060   1.836  4.9058 -2.8291  0.4875
  764SOL     OW 2290   0.013   1.777   2.589  0.5786  0.3961  0.0865
  764SOL    HW1 2291   0.024   1.809   2.689 -1.4938  0.1279  1.5487
  764SOL    HW2 2292   3.060   1.853   2.534 -2.3843  1.8156 -3.1207
  765SOL     OW 2293   1.334   2.618   1.061 -0.0312  0.6602 -0.1562
  765SOL    HW1 2294   1.430   2.627   1.101  1.8570  1.2682 -0.3523
  765SOL    HW2 2295   1.340   2.548   0.983  0.5024 -0.9060 -2.7236
  766SOL     OW 2296   2.861   2.383   2.486 -0.0374  0.4579 -0.1836
  766SOL    HW1 2297   2.917   2.424   2.554 -1.1537 -1.5719  1.0149
  766SOL    HW2 2298   2.775   2.361   2.531  1.4304  0.4304 -0.1698
  767SOL     OW 2299   0.956   1.171   2.552 -0.2481  0.0386  0.2288
  767SOL    HW1 2300   0.869   1.125   2.583 -0.4357 -2.6781 -1.3513
  767SOL    HW2 2301   1.034   1.139   2.608 -2.7919  0.0404  0.8724
  768SOL     OW 2302   1.221   2.064   2.990  0.0343  0.1462  0.3209
  768SOL    HW1 2303   1.280   1.984   2.972  0.2950  2.2815  0.8854
  768SOL    HW2 2304   1.178   2.044   3.080 -0.9804 -0.2439 -1.8186
  769SOL     OW 2305   0.461   2.248   0.945 -0.2837  0.1286 -0.6512
  769SOL    HW1 2306   0.449   2.203   1.035 -0.5570  0.4282 -1.1580
  769SOL    HW2 2307   0.405   2.201   0.877  0.5727  0.4005  1.1017
  770SOL     OW 2308   1.455   1.271   2.522  0.1038  0.5199 -0.2336
  770SOL    HW1 2309   1.392   1.269   2.604 -1.5830  0.6394 -0.1962
  770SOL    HW2 2310   1.406   1.239   2.437  3.2654  1.5074  1.7371
  771SOL     OW 2311   3.082   2.805   2.251  0.3794 -0.3942 -0.3103
  771SOL    HW1 2312   0.073   2.763   2.201  2.0408  2.2838  2.9669
  771SOL    HW2 2313   3.005   2.736   2.250  0.5507 -0.5326 -1.5861
  772SOL     OW 2314   2.226   2.750   1.962  0.2853  0.2667 -0.2650
  772SOL    HW1 2315   2.263   2.744   2.054 -1.2320  0.0480 -1.1283
  772SOL    HW2 2316   2.295   2.723   1.890 -1.0922 -1.9524 -0.6704
  773SOL     OW 2317   0.776   1.949   1.603 -0.5929  0.1166 -0.5173
  773SOL    HW1 2318   0.870   1.940   1.561 -1.2354  0.8079  1.4133
  773SOL    HW2 2319   0.783   1.976   1.704 -0.9583  0.1775  1.5268
  774SOL     OW 2320   1.141   0.355   1.831 -0.1337 -0.2691  0.2254
  774SOL    HW1 2321   1.090   0.442   1.862 -1.2053  1.3978  1.2746
  774SOL    HW2 2322   1.145   0.288   1.912 -1.2720 -3.2142  3.8427
  775SOL     OW 2323   1.998   2.845   2.934 -0.6112  0.3488 -0.5703
  775SOL    HW1 2324   1.979   2.944   2.927 -1.1289  0.2819  3.5685
  775SOL    HW2 2325   1.970   2.798   2.848 -0.1357 -2.0063 -3.1152
  776SOL     OW 2326   2.944   0.295   2.094 -0.0975 -0.5930 -0.2840
  776SOL    HW1 2327   3.045   0.307   2.118  0.4951 -0.3671 -0.0329
  776SOL    HW2 2328   2.942   0.220   2.025 -0.5053 -0.1481  2.9668
  777SOL     OW 2329   2.478   2.157   2.240  0.3778 -0.1412 -0.1648
  777SOL    HW1 2330   2.522   2.067   2.220 -1.7470  2.2540 -1.5085
  777SOL    HW2 2331   2.467   2.210   2.152  0.3439  1.1520 -1.5396
  778SOL     OW 2332   1.755   0.789   2.292  0.2985  0.2619  0.9058
  778SOL    HW1 2333   1.704   0.706   2.260  0.9725 -0.2981  2.3020
  778SOL    HW2 2334   1.698   0.849   2.349 -2.1574 -2.2734 -1.5353
  779SOL     OW 2335   2.492   0.657   0.771 -0.0681  0.4113  0.3285
  779SOL    HW1 2336   2.458   0.566   0.747  0.7423  2.1683 -1.5084
  779SOL    HW2 2337   2.509   0.713   0.686 -0.2828  3.3975 -3.5900
  780SOL     OW 2338   2.358   0.195   3.038  0.1413  0.1537 -0.9387
  780SOL    HW1 2339   2.259   0.189   3.049  1.9776  1.9946  3.0946
  780SOL    HW2 2340   2.395   0.102   3.007  0.6191 -2.4184 -3.3877
  781SOL     OW 2341   0.277   2.326   1.493 -0.4671 -0.0809 -0.1146
  781SOL    HW1 2342   0.370   2.362   1.481 -1.4364 -1.0583 -0.2383
  781SOL    HW2 2343   0.269   2.237   1.539  0.9573 -0.0813 -1.1335
  782SOL     OW 2344   2.462   2.420   2.971  0.2510  1.0113  0.2854
  782SOL    HW1 2345   2.527   2.473   2.915 -2.4507  0.3852  1.6294
  782SOL    HW2 2346   2.500   2.408   3.066  0.3017 -1.9674 -0.6682
  783SOL     OW 2347   0.361   1.673   1.383 -0.1493 -0.1674  0.0509
  783SOL    HW1 2348   0.408   1.587   1.360  0.9704  0.8697  1.1517
  783SOL    HW2 2349   0.398   1.704   1.474 -1.3580 -1.7858 -0.9812
  784SOL     OW 2350   1.517   0.458   2.762 -0.0931 -0.2302 -0.2757
  784SOL    HW1 2351   1.551   0.477   2.857  0.0596 -0.5547 -2.6569
  784SOL    HW2 2352   1.515   0.540   2.695  2.2263  1.5719 -1.9922
  785SOL     OW 2353   2.409   3.054   0.907 -0.1193 -0.0283  0.2306
  785SOL    HW1 2354   2.315   3.023   0.906  0.7297 -0.5487  1.6103
  785SOL    HW2 2355   2.418   0.037   0.975  2.0020 -1.5764 -2.0340
  786SOL     OW 2356   1.218   2.018   1.849 -0.1410 -0.2729  0.0899
  786SOL    HW1 2357   1.142   1.950   1.839  1.6640 -0.5500 -2.2553
  786SOL    HW2 2358   1.178   2.097   1.900 -1.1163  0.8467 -0.4487
  787SOL     OW 2359   1.333   0.775   1.207  0.2873 -0.3895 -0.2323
  787SOL    HW1 2360   1.292   0.843   1.273  0.7590 -4.4928 -0.4466
  787SOL    HW2 2361   1.324   0.809   1.114 -0.5724  0.4155  2.5774
  788SOL     OW 2362   0.075   0.628   0.470  0.4839 -0.0302 -0.0766
  788SOL    HW1 2363   0.136   0.696   0.513 -0.2036  1.1477 -0.0991
  788SOL    HW2 2364   0.124   0.543   0.443 -2.5142  0.3700  0.1736
  789SOL     OW 2365   0.157   2.104   1.260  0.2871 -0.0611  0.0129
  789SOL    HW1 2366   0.255   2.118   1.249 -2.9211  2.3837  0.7970
  789SOL    HW2 2367   0.143   2.008   1.298 -0.4204 -0.1186  3.0958
  790SOL     OW 2368   0.853   0.777   2.138 -0.2333 -0.0989 -0.6181
  790SOL    HW1 2369   0.941   0.762   2.193  3.0588 -2.9719  1.1907
  790SOL    HW2 2370   0.796   0.693   2.157 -0.0522 -1.4687  0.2618
  791SOL     OW 2371   1.858   0.566   0.753  0.7704  0.1373  0.7960
  791SOL    HW1 2372   1.799   0.630   0.701 -1.1431 -0.0393  1.0534
  791SOL    HW2 2373   1.806   0.484   0.784 -1.4056  0.3590  2.4030
  792SOL     OW 2374   1.349   2.632   2.071 -0.0029  0.6105 -0.7192
  792SOL    HW1 2375   1.380   2.698   2.006 -0.4021 -2.6362  2.4809
  792SOL    HW2 2376   1.254   2.652   2.097  1.0635 -0.8257 -3.2527
  793SOL     OW 2377   1.192   0.762   0.433 -0.2253 -0.1077 -0.1210
  793SOL    HW1 2378   1.217   0.848   0.483  2.9153  0.5833 -3.7449
  793SOL    HW2 2379   1.111   0.714   0.472  3.4232 -1.5951 -1.7374
  794SOL     OW 2380   0.493   0.968   2.071 -0.0615 -0.8100  0.2359
  794SOL    HW1 2381   0.413   1.030   2.086 -3.5555  1.6169 -0.6682
  794SOL    HW2 2382   0.556   1.019   2.005  0.2481  0.8248 -0.0203
  795SOL     OW 2383   0.421   1.778   2.260  0.0733 -0.2915 -0.7197
  795SOL    HW1 2384   0.437   1.875   2.277  0.8224  0.3301  3.1217
  795SOL    HW2 2385   0.448   1.721   2.344  0.0664 -1.7365  0.7691
  796SOL     OW 2386   2.551   0.752   2.094 -0.4144  0.4699 -0.1546
  796SOL    HW1 2387   2.449   0.764   2.113 -1.2120  0.5381  1.9856
  796SOL    HW2 2388   2.604   0.838   2.102 -0.5799 -0.9559 -0.9764
  797SOL     OW 2389   2.954   2.206   2.970 -1.0806  0.5501 -0.3003
  797SOL    HW1 2390   2.954   2.304   2.941  0.1793 -0.7114 -1.2696
  797SOL    HW2 2391   2.912   2.203   3.060 -0.2488  0.1311 -0.1940
  798SOL     OW 2392   0.201   2.372   2.105  0.3716  0.1048  0.1236
  798SOL    HW1 2393   0.298   2.353   2.076 -0.2895 -2.5977  0.5140
  798SOL    HW2 2394   0.182   2.325   2.198 -0.7548  0.5137 -1.8520
  799SOL     OW 2395   0.362   2.275   2.776 -0.0233  0.3629  0.1656
  799SOL    HW1 2396   0.389   2.362   2.820  3.9469  2.2685 -1.3068
  799SOL    HW2 2397   0.290   2.227   2.830  2.6186  0.4399  0.4033
  800SOL     OW 2398   0.750   2.210   2.923  0.1944  0.3758  0.3819
  800SOL    HW1 2399   0.718   2.302   2.952 -1.3061 -3.5140  0.7997
  800SOL    HW2 2400   0.788   2.150   2.996  0.4412 -0.9667  1.9909
  801SOL     OW 2401   1.517   1.318   1.264  0.1336  0.1983 -0.4625
  801SOL    HW1 2402   1.529   1.385   1.339  1.2389  0.7618  1.8274
  801SOL    HW2 2403   1.426   1.273   1.279  1.0806  1.0376 -0.2510
  802SOL     OW 2404   2.941   1.071   0.629  0.2508  0.1397 -0.0773
  802SOL    HW1 2405   2.901   1.162   0.654 -1.7286 -0.6541  1.3144
  802SOL    HW2 2406   2.864   1.001   0.630 -1.0733  0.1892 -2.4450
  803SOL     OW 2407   1.059   1.873   2.312 -0.1156 -0.1817 -0.0882
  803SOL    HW1 2408   0.988   1.926   2.365 -0.2317  0.1464  2.2294
  803SOL    HW2 2409   1.151   1.877   2.360  0.5070 -2.0031  0.9742
  804SOL     OW 2410   1.517   1.335   0.166 -0.0356 -0.1665  0.4086
  804SOL    HW1 2411   1.492   1.359   0.260 -0.9986  1.5884 -0.3905
  804SOL    HW2 2412   1.581   1.252   0.163  0.6028  0.8985 -2.3499
  805SOL     OW 2413   2.594   1.700   0.001 -0.0284  0.1319  0.1372
  805SOL    HW1 2414   2.565   1.792   0.038 -0.9097  2.3628 -2.5332
  805SOL    HW2 2415   2.568   1.695   2.991 -0.7381  2.0911  1.1966
  806SOL     OW 2416   0.553   3.034   0.529  0.4009  0.2432 -0.2663
  806SOL    HW1 2417   0.472   3.057   0.586 -0.8587 -0.7791 -0.7877
  806SOL    HW2 2418   0.604   2.962   0.582  1.8267  0.3556 -1.3636
  807SOL     OW 2419   2.048   1.713   2.792 -0.0790 -0.3479  0.3310
  807SOL    HW1 2420   1.994   1.735   2.879 -0.3074 -0.0249  1.6923
  807SOL    HW2 2421   2.008   1.635   2.742 -0.1495  0.3797  0.3319
  808SOL     OW 2422   0.603   1.488   0.916 -0.5427  0.2308  0.1443
  808SOL    HW1 2423   0.537   1.530   0.856  3.4181  1.3321 -0.3127
  808SOL    HW2 2424   0.562   1.463   1.004  1.9175  0.5673 -1.6563
  809SOL     OW 2425   2.497   0.802   0.539 -0.1308  0.1032  0.4297
  809SOL    HW1 2426   2.460   0.886   0.487 -0.9763 -0.2316  3.4480
  809SOL    HW2 2427   2.541   0.738   0.470  0.1151  0.3248  1.3040
  810SOL     OW 2428   0.889   1.068   0.399  0.0390 -0.3985  0.1003
  810SOL    HW1 2429   0.838   1.162   0.410 -0.7086  2.2253 -1.9338
  810SOL    HW2 2430   0.935   1.040   0.486  0.6222  0.9132  1.7902
  811SOL     OW 2431   1.456   2.779   1.401  0.2127  0.3429  0.0249
  811SOL    HW1 2432   1.493   2.759   1.305 -0.4427  2.6149  0.4867
  811SOL    HW2 2433   1.490   2.706   1.468  0.9997 -0.1085 -0.0066
  812SOL     OW 2434   1.090   2.548   1.658 -0.9305  0.0178  0.4526
  812SOL    HW1 2435   1.068   2.605   1.739 -0.0257 -1.8949 -1.2716
  812SOL    HW2 2436   1.085   2.606   1.574 -0.9353 -2.3674  0.3732
  813SOL     OW 2437   0.954   2.915   1.851 -0.1690 -0.2599 -0.2224
  813SOL    HW1 2438   0.922   3.001   1.905 -3.0258  3.1546  0.9058
  813SOL    HW2 2439   1.019   2.947   1.785 -1.3281  2.6583  2.7012
  814SOL     OW 2440   1.018   2.430   2.523  0.8878  0.1343  0.0123
  814SOL    HW1 2441   0.925   2.381   2.517  0.3756  2.0614  0.5019
  814SOL    HW2 2442   1.076   2.400   2.600  0.8351  1.2699 -0.3572
  815SOL     OW 2443   0.766   0.282   2.399 -0.1357 -0.6708 -0.2937
  815SOL    HW1 2444   0.857   0.271   2.350  0.4098 -1.6812 -0.1966
  815SOL    HW2 2445   0.766   0.380   2.433  1.7978  1.1531  2.2677
  816SOL     OW 2446   2.201   0.133   2.776 -0.2269 -0.7500 -0.2949
  816SOL    HW1 2447   2.129   0.158   2.709 -0.5452  1.2917 -0.7775
  816SOL    HW2 2448   2.168   0.161   2.866 -0.5544  0.9119 -1.2924
  817SOL     OW 2449   2.168   0.104   2.027  0.3479 -0.5891  0.3547
  817SOL    HW1 2450   2.197   0.072   1.933  2.5634  2.2991 -1.4260
  817SOL    HW2 2451   2.204   0.202   2.034  3.2135  0.8452  1.0074
  818SOL     OW 2452   1.611   0.563   3.006  0.2398  0.1785 -0.1717
  818SOL    HW1 2453   1.602   0.659   2.975 -0.4175  2.8106  0.5909
  818SOL    HW2 2454   1.703   0.530   2.988 -1.2369  0.2983 -2.3999
  819SOL     OW 2455   2.294   1.632   2.484 -0.0348 -0.2688 -0.8583
  819SOL    HW1 2456   2.279   1.608   2.584 -1.6069 -1.5619  0.5815
  819SOL    HW2 2457   2.250   1.719   2.461  0.0663  1.1630  3.6277
  820SOL     OW 2458   0.127   1.612   0.142  0.3642 -0.2689 -0.2558
  820SOL    HW1 2459   0.095   1.620   0.047  0.5637  1.0507  0.0349
  820SOL    HW2 2460   0.227   1.602   0.153 -3.3032  3.6097  0.9910
  821SOL     OW 2461   0.291   2.911   1.046 -0.7513  0.1244 -0.1135
  821SOL    HW1 2462   0.239   2.972   0.983  0.0544  1.2771 -0.7393
  821SOL    HW2 2463   0.324   2.830   0.993 -2.1798 -1.4323  2.9778
  822SOL     OW 2464   2.882   2.483   2.924 -0.3436 -0.2738  0.1836
  822SOL    HW1 2465   2.825   2.520   2.999  2.2489 -3.2531 -0.5397
  822SOL    HW2 2466   2.934   2.552   2.870  0.2918  0.9890 -2.2476
  823SOL     OW 2467   1.311   0.467   2.184  0.4884  0.5154  0.4485
  823SOL    HW1 2468   1.369   0.484   2.100  1.8167  0.4073  1.3529
  823SOL    HW2 2469   1.354   0.388   2.233 -0.5159 -2.1979  0.4081
  824SOL     OW 2470   2.920   2.271   2.007 -0.8409  0.2573 -0.0223
  824SOL    HW1 2471   2.918   2.321   2.100 -2.0206  2.3351  0.7504
  824SOL    HW2 2472   2.977   2.321   1.936  0.8971 -1.4909 -2.0430
  825SOL     OW 2473   2.958   2.014   2.496 -0.6719 -0.1539 -1.1224
  825SOL    HW1 2474   2.872   1.976   2.471  2.7499  3.7870 -1.2791
  825SOL    HW2 2475   3.013   2.008   2.408  1.4875  0.5642 -1.3931
  826SOL     OW 2476   2.409   1.102   2.558 -0.1624  0.0341 -0.3859
  826SOL    HW1 2477   2.388   1.047   2.472 -0.0807  2.0684  1.1817
  826SOL    HW2 2478   2.386   1.195   2.529 -2.0614  0.1494 -1.5085
  827SOL     OW 2479   2.347   2.270   1.312 -0.6010 -0.2457 -0.2724
  827SOL    HW1 2480   2.355   2.188   1.260  1.3355  2.3678  2.5360
  827SOL    HW2 2481   2.270   2.264   1.376 -3.0021  1.9280  0.9463
  828SOL     OW 2482   0.121   0.107   1.525 -0.8748 -0.1498 -0.3831
  828SOL    HW1 2483   0.124   0.013   1.567 -0.6321  1.3559 -1.8588
  828SOL    HW2 2484   0.196   0.159   1.573 -0.7832  1.0921  2.9434
  829SOL     OW 2485   1.374   2.296   2.463  0.2305  0.2838 -0.2804
  829SOL    HW1 2486   1.471   2.264   2.445 -1.5445 -0.2395  0.8015
  829SOL    HW2 2487   1.334   2.233   2.532  1.0911 -0.7479 -1.1107
  830SOL     OW 2488   1.061   0.474   0.751  0.2150 -0.2122 -0.6880
  830SOL    HW1 2489   1.015   0.382   0.743 -0.0363 -1.1017  2.1390
  830SOL    HW2 2490   1.040   0.534   0.668 -0.9969  2.2986 -0.7208
  831SOL     OW 2491   2.807   1.556   3.036  0.0261 -0.1057  0.0254
  831SOL    HW1 2492   2.714   1.589   3.068 -2.8012  0.1527 -1.5250
  831SOL    HW2 2493   2.831   1.463   3.064  2.9811 -2.2555  0.9091
  832SOL     OW 2494   1.783   2.131   2.122  0.1520  0.1793  0.5879
  832SOL    HW1 2495   1.684   2.143   2.148 -1.4120 -1.6864  1.0558
  832SOL    HW2 2496   1.814   2.209   2.063 -2.3476 -0.3866 -2.9594
  833SOL     OW 2497   0.781   0.375   2.049  0.7514  0.3208  0.3627
  833SOL    HW1 2498   0.876   0.379   2.085 -3.3364  1.5363 -1.5072
  833SOL    HW2 2499   0.723   0.306   2.100 -1.0665 -1.0372  2.4811
  834SOL     OW 2500   0.375   0.754   1.203 -0.4990 -0.2805  0.6350
  834SOL    HW1 2501   0.454   0.789   1.259  0.5174 -1.3954  1.3167
  834SOL    HW2 2502   0.326   0.678   1.249  0.3300 -0.7810 -1.8923
  835SOL     OW 2503   2.567   0.587   0.104 -0.5948 -0.3671  0.3172
  835SOL    HW1 2504   2.605   0.652   0.034 -1.5016  0.5510 -0.1224
  835SOL    HW2 2505   2.627   0.509   0.108 -0.0958 -1.8210  0.1937
  836SOL     OW 2506   1.242   1.835   0.390  0.2537  0.2037  0.1596
  836SOL    HW1 2507   1.317   1.868   0.457  0.5535  0.1041  2.0984
  836SOL    HW2 2508   1.282   1.789   0.311 -1.8852  1.3962  0.0531
  837SOL     OW 2509   1.549   1.785   0.753  0.6636 -0.1598 -0.0310
  837SOL    HW1 2510   1.648   1.798   0.738  0.5819 -3.0664  1.1192
  837SOL    HW2 2511   1.521   1.781   0.848  1.5856 -0.4585 -5.3807
  838SOL     OW 2512   1.097   1.078   2.205  0.3674  0.2228 -0.1184
  838SOL    HW1 2513   1.095   1.076   2.104 -1.5939  1.4047  0.4412
  838SOL    HW2 2514   1.008   1.115   2.236  1.5812 -0.4569 -0.6876
  839SOL     OW 2515   0.719   1.874   2.376 -0.3902 -0.5599  0.5368
  839SOL    HW1 2516   0.789   1.910   2.444  0.8618  0.1821 -0.6128
  839SOL    HW2 2517   0.664   1.801   2.411  0.4243  2.9395  0.0372
  840SOL     OW 2518   0.746   2.256   0.293  0.3834 -0.0076 -0.0281
  840SOL    HW1 2519   0.681   2.324   0.266 -1.2610  0.9334 -1.2610
  840SOL    HW2 2520   0.725   2.211   0.381  0.8792  1.2833  1.0783
  841SOL     OW 2521   1.989   2.516   0.158  0.2810  0.1233 -0.1217
  841SOL    HW1 2522   1.972   2.618   0.157  0.7065  0.0482  0.4875
  841SOL    HW2 2523   1.920   2.469   0.099 -1.4691  0.1625  0.8376
  842SOL     OW 2524   0.590   0.594   2.900  0.2007 -0.2439  0.3861
  842SOL    HW1 2525   0.629   0.639   2.815 -0.2816 -0.1127 -0.4803
  842SOL    HW2 2526   0.494   0.571   2.880 -1.6476 -0.3475  0.6923
  843SOL     OW 2527   1.238   0.337   0.909  0.0251  0.1812 -0.1899
  843SOL    HW1 2528   1.191   0.411   0.857  1.0253  3.0255  2.2406
  843SOL    HW2 2529   1.234   0.354   1.011  0.5418 -0.6816  0.8028
  844SOL     OW 2530   2.840   0.091   2.665 -0.0931 -0.2339  0.4856
  844SOL    HW1 2531   2.742   0.085   2.690  3.8207  0.1907 -1.2807
  844SOL    HW2 2532   2.875   0.009   2.625 -0.8243  3.6818  3.4532
  845SOL     OW 2533   2.641   2.284   1.336 -0.0577  0.5146  0.5005
  845SOL    HW1 2534   2.541   2.291   1.358 -2.5288  0.7072 -1.0062
  845SOL    HW2 2535   2.676   2.206   1.386 -0.7625  1.3317 -0.3661
  846SOL     OW 2536   2.638   1.652   2.170 -0.1452  0.0719 -0.1486
  846SOL    HW1 2537   2.590   1.611   2.245  3.8844  1.7288 -4.2261
  846SOL    HW2 2538   2.736   1.620   2.183 -2.1676 -1.3011  1.6203
  847SOL     OW 2539   1.140   0.782   1.578 -0.0711 -0.2392 -0.6640
  847SOL    HW1 2540   1.085   0.806   1.664  2.8699  1.7887  0.0865
  847SOL    HW2 2541   1.096   0.697   1.542 -3.4263 -0.5906  0.4938
  848SOL     OW 2542   2.745   2.860   0.087 -0.3080 -0.0562 -0.2052
  848SOL    HW1 2543   2.673   2.855   0.158  2.2781 -1.0168 -1.6880
  848SOL    HW2 2544   2.786   2.951   0.084 -1.2194  1.1701 -0.5335
  849SOL     OW 2545   0.690   0.016   0.100  0.6636 -0.1094  0.1531
  849SOL    HW1 2546   0.614   0.017   0.166  1.8524 -0.8482  2.2589
  849SOL    HW2 2547   0.682   0.087   0.028 -0.6585  1.2012 -1.3442
  850SOL     OW 2548   1.460   2.969   1.048 -0.6598  0.0812 -0.3208
  850SOL    HW1 2549   1.504   3.040   0.991  0.7668  0.6045  0.5811
  850SOL    HW2 2550   1.533   2.910   1.087  0.3065 -2.1826 -2.0083
  851SOL     OW 2551   2.650   0.262   2.066  0.0396  0.1427  0.3985
  851SOL    HW1 2552   2.750   0.266   2.041 -0.0657  0.8260  2.6411
  851SOL    HW2 2553   2.613   0.353   2.051 -1.1991 -0.5364  3.3341
  852SOL     OW 2554   1.935   0.591   2.379 -0.2309 -0.4839  0.0871
  852SOL    HW1 2555   1.882   0.669   2.336 -1.3692  3.7049 -2.1636
  852SOL    HW2 2556   1.956   0.513   2.309  1.0240 -0.5782 -0.0665
  853SOL     OW 2557   2.953   2.999   0.294  0.5736 -0.1438 -0.2843
  853SOL    HW1 2558   2.850   2.998   0.306 -1.7339 -0.1517 -0.1421
  853SOL    HW2 2559   2.989   3.071   0.230  1.2654  0.1369  1.8791
  854SOL     OW 2560   2.485   1.246   2.201 -0.3118 -0.4390 -0.3562
  854SOL    HW1 2561   2.580   1.236   2.244  2.1308  0.6913  2.3305
  854SOL    HW2 2562   2.500   1.286   2.107  2.7406  1.5341 -0.4896
  855SOL     OW 2563   0.861   2.696   0.220  0.0734  0.1113  0.1211
  855SOL    HW1 2564   0.766   2.697   0.267 -1.2046 -1.4824  1.5417
  855SOL    HW2 2565   0.907   2.603   0.236  0.3778 -4.9261  2.0935
  856SOL     OW 2566   2.990   0.033   2.897 -0.2075 -0.0663 -0.3912
  856SOL    HW1 2567   2.929   0.081   2.832 -0.1666 -1.9222 -1.4885
  856SOL    HW2 2568   2.962   3.023   2.915 -1.7190  0.4862  0.8049
  857SOL     OW 2569   1.108   2.983   1.642 -0.1633 -0.0552  0.3740
  857SOL    HW1 2570   1.158   2.948   1.561 -2.3364  0.8867 -1.0569
  857SOL    HW2 2571   1.024   3.026   1.605  0.3742 -1.0799  3.4164
  858SOL     OW 2572   2.746   2.361   1.740 -0.3798 -0.0048  0.0488
  858SOL    HW1 2573   2.707   2.263   1.739 -2.4946 -1.6351  1.1625
  858SOL    HW2 2574   2.832   2.378   1.684  2.5207  2.2100 -1.5155
  859SOL     OW 2575   1.727   2.248   1.759  0.1072  0.1096  0.0908
  859SOL    HW1 2576   1.635   2.219   1.789 -2.8657 -1.5564  0.7746
  859SOL    HW2 2577   1.778   2.281   1.838 -3.4356  2.8130 -2.5769
  860SOL     OW 2578   2.316   2.772   0.217 -0.1614  0.6327 -0.2315
  860SOL    HW1 2579   2.320   2.733   0.123  1.0286  0.6608 -0.3885
  860SOL    HW2 2580   2.237   2.834   0.226  0.8367 -2.6712 -1.1885
  861SOL     OW 2581   2.306   2.756   0.699 -0.1261 -0.5826  0.2010
  861SOL    HW1 2582   2.251   2.803   0.626  1.6762  0.8747 -1.1998
  861SOL    HW2 2583   2.352   2.673   0.661  1.8988  0.3801  1.4260
  862SOL     OW 2584   1.684   0.084   2.490 -0.4186  0.2795 -0.6054
  862SOL    HW1 2585   1.672   3.071   2.514 -2.3311  1.3449 -0.0507
  862SOL    HW2 2586   1.709   0.092   2.392  1.2192  0.2303  3.4249
  863SOL     OW 2587   0.168   0.725   0.821 -0.5151 -0.4491 -0.4601
  863SOL    HW1 2588   0.238   0.690   0.754 -2.1500 -0.6561 -1.3688
  863SOL    HW2 2589   0.137   0.810   0.776 -1.1515  0.5355  1.1307
  864SOL     OW 2590   0.251   2.704   2.139 -0.4532  0.0972 -0.3606
  864SOL    HW1 2591   0.334   2.732   2.192 -0.2340 -3.7154 -1.1272
  864SOL    HW2 2592   0.245   2.600   2.123  1.6119 -2.5130  0.2631
  865SOL     OW 2593   0.575   1.062   2.865 -0.4173 -0.0746 -0.1178
  865SOL    HW1 2594   0.630   1.118   2.927 -3.4424 -1.9666  0.6703
  865SOL    HW2 2595   0.553   0.981   2.918 -0.2843 -0.9020 -2.3771
  866SOL     OW 2596   2.994   0.613   0.077 -0.6704  0.5944 -0.2694
  866SOL    HW1 2597   3.009   0.675   0.157 -1.8747  1.0387  2.0786
  866SOL    HW2 2598   2.993   0.668   3.083 -1.2322 -2.5384  0.7715
  867SOL     OW 2599   0.007   2.681   2.862  0.4749 -0.5288  0.0489
  867SOL    HW1 2600   0.065   2.695   2.941 -1.9696 -2.3458  0.5499
  867SOL    HW2 2601   3.004   2.731   2.878  1.4308 -0.2124 -1.0229
  868SOL     OW 2602   1.565   0.080   0.341  0.5042  0.3318  0.5127
  868SOL    HW1 2603   1.523   0.170   0.370 -0.7377 -1.0488 -0.1154
  868SOL    HW2 2604   1.485   0.014   0.335 -2.0824  0.0085  2.0781
  869SOL     OW 2605   1.781   1.593   0.586 -0.0499  0.1192 -0.6991
  869SOL    HW1 2606   1.795   1.541   0.677  1.7785 -2.4971  3.2012
  869SOL    HW2 2607   1.783   1.694   0.611  0.8029 -3.0420  2.6291
  870SOL     OW 2608   1.790   1.836   0.665 -0.1514  0.0198 -0.5614
  870SOL    HW1 2609   1.882   1.830   0.709 -2.2465  1.2982  0.0816
  870SOL    HW2 2610   1.788   1.916   0.602  0.5233 -2.8906  0.8601
  871SOL     OW 2611   1.203   1.434   1.244 -0.8964  0.4072 -0.5947
  871SOL    HW1 2612   1.171   1.374   1.326 -0.9450  0.0378  3.6395
  871SOL    HW2 2613   1.123   1.467   1.193 -0.4898  2.4261  1.1310
  872SOL     OW 2614   1.151   1.486   1.724 -0.1926  0.3062  0.4059
  872SOL    HW1 2615   1.082   1.420   1.763  0.5112  1.0247  1.8681
  872SOL    HW2 2616   1.099   1.570   1.694 -0.5220  1.8365  0.9768
  873SOL     OW 2617   0.804   1.464   2.172  0.1789  0.4012  0.3394
  873SOL    HW1 2618   0.888   1.412   2.170  0.1627  0.7851 -0.8390
  873SOL    HW2 2619   0.799   1.516   2.259 -1.0624 -1.7295 -0.9613
  874SOL     OW 2620   0.531   1.388   1.166 -0.0394  0.3016  0.5715
  874SOL    HW1 2621   0.445   1.393   1.224 -2.5344  0.1408  0.2174
  874SOL    HW2 2622   0.570   1.293   1.149  1.6612 -5.3535 -2.1967
  875SOL     OW 2623   2.527   3.001   1.218  0.1040 -0.1475  0.5285
  875SOL    HW1 2624   2.484   3.073   1.168  0.8517 -2.3310  0.3388
  875SOL    HW2 2625   2.494   3.006   1.314  0.0855  3.6578  0.9145
  876SOL     OW 2626   0.873   0.778   3.028  0.0136 -0.4247 -0.2396
  876SOL    HW1 2627   0.887   0.692   3.082  0.1246  1.6551 -3.4441
  876SOL    HW2 2628   0.862   0.857   0.004  0.6888 -0.8785 -0.6083
  877SOL     OW 2629   3.051   0.368   1.268  0.7953 -0.0494 -0.2088
  877SOL    HW1 2630   3.013   0.411   1.183 -0.7714 -2.2028  0.9716
  877SOL    HW2 2631   2.986   0.291   1.288  0.6821 -1.6566 -0.4823
  878SOL     OW 2632   1.723   2.128   0.042 -0.1463 -0.3556 -0.2539
  878SOL    HW1 2633   1.777   2.211   0.008 -1.7882 -0.1576  0.3155
  878SOL    HW2 2634   1.673   2.079   3.051 -2.2633 -0.7561 -0.6549
  879SOL     OW 2635   2.270   2.071   1.613 -0.2611  0.3185 -0.0816
  879SOL    HW1 2636   2.208   2.113   1.544 -1.5910  0.8340  0.3076
  879SOL    HW2 2637   2.253   2.104   1.709  0.0151 -0.6599  1.5581
  880SOL     OW 2638   0.841   0.291   1.595  0.3229 -0.1033  0.2205
  880SOL    HW1 2639   0.784   0.253   1.672 -0.9113  2.5637 -0.7440
  880SOL    HW2 2640   0.795   0.373   1.557  3.1754 -1.5234  0.5042
  881SOL     OW 2641   1.062   2.036   2.779  0.0179  0.1181  0.1319
  881SOL    HW1 2642   0.963   2.035   2.803  0.8330 -0.5394 -1.7067
  881SOL    HW2 2643   1.117   2.063   2.863  2.0161  1.8093 -0.6622
  882SOL     OW 2644   2.063   1.123   2.011 -0.3494  0.5648  0.3005
  882SOL    HW1 2645   2.073   1.187   2.088  0.0025 -1.2834  0.7470
  882SOL    HW2 2646   2.150   1.072   1.993  3.6445 -3.5402 -0.0040
  883SOL     OW 2647   1.232   0.787   1.906  0.3066 -0.0681  0.4821
  883SOL    HW1 2648   1.264   0.832   1.815  0.3956  1.7166 -4.3366
  883SOL    HW2 2649   1.169   0.714   1.890 -0.1953 -0.0339  1.6683
  884SOL     OW 2650   2.810   0.416   0.065  0.0461 -0.3288 -0.8160
  884SOL    HW1 2651   2.828   0.331   0.118  0.7873  2.5869  0.4176
  884SOL    HW2 2652   2.884   0.485   0.072 -0.5216 -0.9374  3.1437
  885SOL     OW 2653   0.379   2.082   0.398  0.3005 -0.0580 -0.0728
  885SOL    HW1 2654   0.404   2.057   0.303 -0.0182  0.4896 -0.5151
  885SOL    HW2 2655   0.294   2.136   0.403  1.2121  0.2738 -0.0430
  886SOL     OW 2656   1.941   1.479   2.743  0.0330 -0.1579 -0.0779
  886SOL    HW1 2657   1.970   1.411   2.675 -0.3514  0.7395 -1.1636
  886SOL    HW2 2658   1.836   1.490   2.751 -1.2582 -1.4155  2.1387
  887SOL     OW 2659   1.818   0.633   1.530  0.5220 -0.7367 -0.2698
  887SOL    HW1 2660   1.749   0.681   1.589 -0.8297  1.4988  2.3680
  887SOL    HW2 2661   1.776   0.611   1.441  1.0754  1.5305  2.3625
  888SOL     OW 2662   2.686   1.109   1.613  0.0116  0.2391  0.0215
  888SOL    HW1 2663   2.593   1.145   1.590  2.4889  0.3662 -0.9895
  888SOL    HW2 2664   2.691   1.065   1.704  2.1649  1.0938 -0.8387
  889SOL     OW 2665   2.770   2.723   1.026 -0.6909  0.8038 -0.5472
  889SOL    HW1 2666   2.841   2.797   1.005 -0.1207  1.9807 -3.5058
  889SOL    HW2 2667   2.802   2.625   1.003  0.2801 -0.6793 -1.2904
  890SOL     OW 2668   3.033   2.529   2.649 -0.0954  0.3286 -0.2072
  890SOL    HW1 2669   0.007   2.445   2.640  0.9955 -1.1828  0.2006
  890SOL    HW2 2670   3.072   2.599   2.714  1.8415  0.5114 -1.0356
  891SOL     OW 2671   0.658   1.822   0.052  0.4916  0.4106  0.0967
  891SOL    HW1 2672   0.621   1.816   3.041  0.8865  1.3053 -2.3902
  891SOL    HW2 2673   0.689   1.731   0.085  1.6142  1.6852  0.9015
  892SOL     OW 2674   0.153   2.402   1.159  0.2842 -0.3127  0.0741
  892SOL    HW1 2675   0.162   2.308   1.197 -1.7874 -0.5367  2.1864
  892SOL    HW2 2676   0.159   2.467   1.237  2.2386 -1.9501 -1.0050
  893SOL     OW 2677   0.475   0.068   1.311  0.5521 -0.3452  0.0979
  893SOL    HW1 2678   0.522   0.084   1.398 -0.3928  1.7009 -1.7280
  893SOL    HW2 2679   0.401   0.140   1.297 -1.5611  2.7669 -0.2689
  894SOL     OW 2680   2.615   1.278   1.035 -0.2078  0.1769 -0.4476
  894SOL    HW1 2681   2.596   1.328   0.947 -0.7639 -0.0191 -0.2932
  894SOL    HW2 2682   2.589   1.179   1.024 -0.2090 -1.0819 -0.1125
  895SOL     OW 2683   2.623   2.531   1.525 -0.7711 -0.4841  0.3669
  895SOL    HW1 2684   2.665   2.493   1.607 -0.9645 -1.1455 -2.2266
  895SOL    HW2 2685   2.612   2.455   1.456  0.9921 -3.0104 -1.7110
  896SOL     OW 2686   1.017   0.542   1.484  0.0612 -0.1618 -0.4766
  896SOL    HW1 2687   1.046   0.444   1.508 -2.6992 -1.2180 -0.0497
  896SOL    HW2 2688   0.926   0.573   1.527  2.2101  0.2144  2.2031
  897SOL     OW 2689   0.751   1.654   1.530  0.6707  0.1234 -0.1586
  897SOL    HW1 2690   0.826   1.660   1.602  2.0125  2.8718  0.4079
  897SOL    HW2 2691   0.766   1.732   1.463  0.8662  0.1785 -2.0755
  898SOL     OW 2692   1.616   2.758   1.776  0.6058 -0.4153 -0.2294
  898SOL    HW1 2693   1.588   2.712   1.691  3.2400 -0.1704  0.5361
  898SOL    HW2 2694   1.546   2.811   1.832  1.7143  0.1030 -0.3928
  899SOL     OW 2695   0.905   0.554   0.091  0.0521 -0.0129 -0.0618
  899SOL    HW1 2696   0.889   0.574   0.190 -1.0143 -0.8778 -0.6615
  899SOL    HW2 2697   0.858   0.463   0.060 -1.7846  1.5399 -2.3788
  900SOL     OW 2698   1.334   2.342   2.078 -0.4128 -0.6013  0.0687
  900SOL    HW1 2699   1.276   2.341   2.162  0.6372  1.3381  0.9751
  900SOL    HW2 2700   1.375   2.434   2.064  3.1370 -2.3664  1.2908
  901SOL     OW 2701   0.958   2.253   0.130 -0.0836  0.2814 -0.2804
  901SOL    HW1 2702   0.881   2.243   0.194  0.7087  1.4216  0.4887
  901SOL    HW2 2703   0.991   2.162   0.092  0.9752  0.3971 -1.1989
  902SOL     OW 2704   1.623   1.330   0.521 -0.2044 -0.6666 -0.2821
  902SOL    HW1 2705   1.578   1.326   0.608  1.7603  2.0550 -2.3056
  902SOL    HW2 2706   1.667   1.420   0.506  1.9331 -0.9725  1.8845
  903SOL     OW 2707   2.323   0.877   0.260  0.1272 -0.1915 -0.0140
  903SOL    HW1 2708   2.371   0.950   0.309 -1.2944 -3.0420 -0.2378
  903SOL    HW2 2709   2.248   0.918   0.203 -1.7643 -0.4186  1.2134
  904SOL     OW 2710   0.727   1.190   3.067  0.5736  0.1542  0.1611
  904SOL    HW1 2711   0.783   1.263   3.024  0.2951  0.1650  1.5517
  904SOL    HW2 2712   0.674   1.210   0.065 -0.5458 -1.8402  1.9923
  905SOL     OW 2713   1.994   2.982   1.397  0.4169  0.2923  0.0089
  905SOL    HW1 2714   2.080   3.022   1.356  1.7766  0.5908 -0.1673
  905SOL    HW2 2715   1.970   2.889   1.353  0.3688 -2.9951  0.6466
  906SOL     OW 2716   2.766   2.542   1.280 -0.1434 -0.3136  0.2695
  906SOL    HW1 2717   2.803   2.568   1.186  3.2746  0.1849 -0.0188
  906SOL    HW2 2718   2.733   2.448   1.290  1.2841 -0.6642 -0.9928
  907SOL     OW 2719   1.249   1.046   0.256  0.0789 -0.6679 -0.4870
  907SOL    HW1 2720   1.291   0.963   0.217 -0.6366  3.5975  0.9334
  907SOL    HW2 2721   1.151   1.052   0.231 -2.4629 -1.6561  0.4849
  908SOL     OW 2722   1.580   0.072   0.903 -0.3050  0.0181  0.4138
  908SOL    HW1 2723   1.637   0.096   0.985 -0.3064 -1.2407  0.1284
  908SOL    HW2 2724   1.530   0.160   0.879 -1.0882 -0.4285  3.5536
  909SOL     OW 2725   2.067   1.172   1.686  0.8525 -0.2291  0.2088
  909SOL    HW1 2726   2.104   1.136   1.773 -0.4040  1.4164  0.4498
  909SOL    HW2 2727   2.116   1.263   1.661  0.4516  3.5211 -1.0272
  910SOL     OW 2728   1.760   0.313   2.071 -0.1349 -0.2613  0.0707
  910SOL    HW1 2729   1.755   0.402   2.022  1.4355  1.5520  1.9289
  910SOL    HW2 2730   1.777   0.241   2.008 -1.6862  1.7399  3.0278
  911SOL     OW 2731   2.530   0.821   2.881 -0.5831  0.0888  0.3945
  911SOL    HW1 2732   2.604   0.830   2.958  3.4643  0.8844  0.1216
  911SOL    HW2 2733   2.514   0.720   2.859 -1.6535  0.4516 -2.4472
  912SOL     OW 2734   2.887   1.191   1.768  0.0343  0.2549 -0.0506
  912SOL    HW1 2735   2.971   1.211   1.713 -1.7239 -2.0339  0.6223
  912SOL    HW2 2736   2.804   1.203   1.705  0.0029  1.0183 -1.1988
  913SOL     OW 2737   2.923   2.437   1.507 -0.3783 -0.1798  0.7313
  913SOL    HW1 2738   2.963   2.359   1.462 -0.7481  1.0317  0.5457
  913SOL    HW2 2739   2.852   2.479   1.447 -1.5599  0.1431  0.3611
  914SOL     OW 2740   1.642   0.993   1.862 -0.4609 -0.0745  0.1346
  914SOL    HW1 2741   1.741   1.025   1.874  0.2147 -2.6510 -0.6571
  914SOL    HW2 2742   1.639   0.899   1.829 -0.2765  0.7829  0.8087
  915SOL     OW 2743   2.139   0.712   1.230  0.3020  0.3270  0.6746
  915SOL    HW1 2744   2.187   0.654   1.297 -0.1271 -1.4255  0.3887
  915SOL    HW2 2745   2.172   0.690   1.135  4.2747  0.2341  2.2275
  916SOL     OW 2746   2.123   2.072   1.102  0.4073  0.2025  0.1640
  916SOL    HW1 2747   2.047   2.067   1.165  2.5066  2.0567 -2.3414
  916SOL    HW2 2748   2.124   2.167   1.070  0.5289  1.0737  1.0310
  917SOL     OW 2749   1.893   1.938   2.655 -0.0919 -0.3268 -0.5727
  917SOL    HW1 2750   1.888   2.008   2.732 -0.0623  0.8497  1.6521
  917SOL    HW2 2751   1.953   1.860   2.682 -1.9941 -0.3382  1.3406
  918SOL     OW 2752   1.820   2.655   2.197 -0.4686 -0.1347  0.8463
  918SOL    HW1 2753   1.921   2.684   2.200  2.1169 -1.3635 -0.4735
  918SOL    HW2 2754   1.814   2.572   2.260  0.0100 -1.6771 -0.8553
  919SOL     OW 2755   1.236   2.922   1.421 -0.6483  1.0351 -0.3663
  919SOL    HW1 2756   1.227   2.954   1.326 -0.7092 -0.5952 -3.4480
  919SOL    HW2 2757   1.325   2.871   1.438 -1.8523  3.0938 -1.7390
  920SOL     OW 2758   0.110   0.177   2.445 -0.4678 -0.5173  0.3382
  920SOL    HW1 2759   0.116   0.078   2.448 -0.6091  1.5004 -1.1967
  920SOL    HW2 2760   0.014   0.210   2.454  1.7392 -1.3207 -0.6418
  921SOL     OW 2761   2.927   0.904   1.771 -0.0017  0.1179  0.2212
  921SOL    HW1 2762   2.914   1.003   1.805  3.2518 -2.0963  1.4842
  921SOL    HW2 2763   3.024   0.893   1.735  0.8806  1.6933 -1.5338
  922SOL     OW 2764   2.202   2.113   0.555 -0.3809  0.0857 -0.1851
  922SOL    HW1 2765   2.193   2.074   0.465  0.0960 -0.7423  0.1821
  922SOL    HW2 2766   2.284   2.084   0.613 -0.3029  2.1347  0.4106
  923SOL     OW 2767   0.689   1.832   0.312  0.3721  0.0730 -0.4549
  923SOL    HW1 2768   0.691   1.835   0.213 -0.8196  0.5895  0.6867
  923SOL    HW2 2769   0.741   1.916   0.345 -0.3278  3.0791 -0.1254
  924SOL     OW 2770   1.181   0.550   0.047 -0.0722 -0.2697  0.0593
  924SOL    HW1 2771   1.085   0.540   0.088 -2.8364  1.8015  1.2853
  924SOL    HW2 2772   1.150   0.567   3.038 -0.2557  0.9447  2.2277
  925SOL     OW 2773   2.513   0.655   1.041  0.6252  0.5189 -0.0165
  925SOL    HW1 2774   2.530   0.748   1.080  0.0380  0.1609  0.7506
  925SOL    HW2 2775   2.520   0.653   0.939  0.0305 -1.0516  0.0069
  926SOL     OW 2776   0.569   0.347   1.349 -0.3092 -0.0065  0.2122
  926SOL    HW1 2777   0.489   0.345   1.291  0.0271  0.2833 -0.4780
  926SOL    HW2 2778   0.557   0.285   1.427  0.7352  1.1099 -1.3513
  927SOL     OW 2779   0.167   1.413   2.428  0.6273  0.5343 -0.2303
  927SOL    HW1 2780   0.076   1.457   2.451 -2.8043 -1.0283  0.6528
  927SOL    HW2 2781   0.177   1.405   2.325 -1.4433 -0.3561  1.2960
  928SOL     OW 2782   2.927   0.318   2.535 -0.0672  0.2915 -0.3722
  928SOL    HW1 2783   2.904   0.225   2.563  0.3126  2.2091  2.1413
  928SOL    HW2 2784   2.964   0.366   2.619  0.9086 -1.4989  1.9191
  929SOL     OW 2785   2.803   2.986   1.203  0.4529  0.0066  0.3600
  929SOL    HW1 2786   2.846   2.955   1.121 -0.9509 -2.1667 -0.8340
  929SOL    HW2 2787   2.698   2.978   1.198 -1.5976 -2.6864 -2.3345
  930SOL     OW 2788   1.903   0.801   1.818 -0.6161  0.1650 -0.0677
  930SOL    HW1 2789   1.847   0.713   1.827 -0.1385 -0.1270  0.8248
  930SOL    HW2 2790   1.926   0.846   1.912  1.3070  0.1755  2.6747
  931SOL     OW 2791   2.094   1.213   0.018  0.1787 -0.4628  0.4778
  931SOL    HW1 2792   2.071   1.280   3.031  0.4656 -0.3369 -0.7852
  931SOL    HW2 2793   2.023   1.233   0.093 -1.1295 -0.2588  1.1920
  932SOL     OW 2794   2.146   1.072   0.568 -0.2875 -0.1057  0.5850
  932SOL    HW1 2795   2.172   1.172   0.574  0.2357  0.2089  0.8800
  932SOL    HW2 2796   2.045   1.052   0.592 -0.4470 -0.1454  2.9346
  933SOL     OW 2797   2.319   1.437   0.882 -0.4069 -0.5058  0.1828
  933SOL    HW1 2798   2.406   1.495   0.876  3.4044  1.0540  0.7870
  933SOL    HW2 2799   2.251   1.500   0.922 -2.4224  2.6492 -0.3996
  934SOL     OW 2800   2.085   0.806   2.440  0.1419 -0.3866 -0.4543
  934SOL    HW1 2801   2.176   0.755   2.467 -0.4604 -2.9565  0.6575
  934SOL    HW2 2802   2.008   0.740   2.418 -0.6042  1.0280 -2.5058
  935SOL     OW 2803   0.234   0.858   0.502 -0.2699 -0.2492  0.2478
  935SOL    HW1 2804   0.259   0.891   0.407 -1.6391  0.8588  0.0310
  935SOL    HW2 2805   0.187   0.931   0.559  0.3855  0.9615  1.1914
  936SOL     OW 2806   0.429   0.211   0.901 -0.0084  0.1329 -0.2256
  936SOL    HW1 2807   0.498   0.149   0.939  0.5785 -0.2989  2.8710
  936SOL    HW2 2808   0.471   0.301   0.886  0.5998 -0.6553  0.3544
  937SOL     OW 2809   0.051   2.996   2.068 -0.5710 -0.2828 -0.1769
  937SOL    HW1 2810   0.022   2.944   2.151 -2.0067  0.9315  1.9061
  937SOL    HW2 2811   0.018   2.940   1.986 -2.3162 -3.3053 -0.9068
  938SOL     OW 2812   3.060   2.484   0.127  0.2479 -0.1484  0.0230
  938SOL    HW1 2813   3.007   2.513   0.208  1.5513 -1.0367 -2.2336
  938SOL    HW2 2814   3.081   2.565   0.069  0.5367 -1.4817  0.8410
  939SOL     OW 2815   0.770   1.928   0.782 -0.0863 -0.0780 -0.1672
  939SOL    HW1 2816   0.739   2.019   0.818  1.5803 -0.3255 -1.2079
  939SOL    HW2 2817   0.785   1.858   0.852  1.5281 -0.2857  0.8724
  940SOL     OW 2818   0.012   0.368   3.038 -0.2769 -0.2640 -0.2059
  940SOL    HW1 2819   0.039   0.278   3.077 -1.5110 -0.7885  0.6111
  940SOL    HW2 2820   0.012   0.449   0.012 -2.2319  1.7799  0.8610
  941SOL     OW 2821   2.025   0.209   2.584 -0.4692  0.2710 -0.2263
  941SOL    HW1 2822   1.978   0.298   2.595  1.1650 -0.8443 -1.4638
  941SOL    HW2 2823   1.955   0.132   2.588  0.3811  0.0871  0.8657
  942SOL     OW 2824   1.250   0.424   1.167 -0.1647 -0.1505  0.4513
  942SOL    HW1 2825   1.221   0.339   1.219  0.8351 -1.9519 -0.5410
  942SOL    HW2 2826   1.179   0.498   1.183  2.2586 -1.8351  0.5283
  943SOL     OW 2827   0.950   0.927   1.743  0.1917  0.1132 -0.1808
  943SOL    HW1 2828   0.877   0.875   1.795 -1.9487 -1.5177 -2.1489
  943SOL    HW2 2829   0.903   0.992   1.679 -1.8874  1.0903  3.2620
  944SOL     OW 2830   1.935   0.959   1.580 -0.0310 -0.2301 -0.1392
  944SOL    HW1 2831   1.937   0.901   1.670  0.4946 -0.5200  1.9572
  944SOL    HW2 2832   1.991   1.044   1.591  0.4444 -1.8543  0.3811
  945SOL     OW 2833   2.687   0.008   0.315 -0.1443  0.2664  0.2746
  945SOL    HW1 2834   2.656   3.084   0.412 -1.4690  1.1002  1.2061
  945SOL    HW2 2835   2.604   3.082   0.259 -2.4384 -5.1100  1.2337
  946SOL     OW 2836   2.990   0.673   1.936  0.4688 -0.2970 -0.2733
  946SOL    HW1 2837   2.916   0.629   1.987  0.7754 -0.3264 -2.0450
  946SOL    HW2 2838   2.965   0.762   1.902  2.8526 -0.3739  0.9136
  947SOL     OW 2839   0.917   2.948   0.105 -0.1622 -0.5304  0.0753
  947SOL    HW1 2840   0.840   3.020   0.100 -1.5372  1.2109 -2.7259
  947SOL    HW2 2841   0.874   2.859   0.123  0.4298  0.1959 -1.8011
  948SOL     OW 2842   2.377   1.879   1.409 -0.0762 -0.0844  0.0508
  948SOL    HW1 2843   2.393   1.929   1.497  0.8951  2.1582  1.4547
  948SOL    HW2 2844   2.414   1.783   1.418 -1.3975  1.9947 -1.4309
  949SOL     OW 2845   0.358   1.342   3.056 -1.2164  0.1873 -0.2437
  949SOL    HW1 2846   0.259   1.332   3.041  2.6207 -3.4214 -0.7567
  949SOL    HW2 2847   0.406   1.330   2.966 -0.2002  0.2188  1.0954
  950SOL     OW 2848   0.581   2.488   0.918 -0.1914  0.2024 -0.0540
  950SOL    HW1 2849   0.516   2.563   0.942 -0.9320 -0.6670 -0.7121
  950SOL    HW2 2850   0.537   2.402   0.945 -2.9434  1.1187 -3.4375
  951SOL     OW 2851   0.638   1.322   2.504  0.3185  0.5055  0.2912
  951SOL    HW1 2852   0.734   1.348   2.519 -1.3693  0.5454 -2.0050
  951SOL    HW2 2853   0.608   1.261   2.581 -1.3131  0.2128 -1.0962
  952SOL     OW 2854   0.504   0.840   0.495 -0.1756 -0.3735  0.1761
  952SOL    HW1 2855   0.538   0.929   0.524 -0.7338 -0.6631  1.1666
  952SOL    HW2 2856   0.399   0.841   0.506 -1.1303 -1.1700 -0.8649
  953SOL     OW 2857   2.778   3.025   2.271  0.3593  0.1022 -0.7071
  953SOL    HW1 2858   2.692   3.072   2.304  3.9009  1.2948 -0.6992
  953SOL    HW2 2859   2.860   3.036   2.336  0.6825 -1.2937  1.3037
  954SOL     OW 2860   1.275   1.007   0.520  0.0851  0.1565  0.1899
  954SOL    HW1 2861   1.296   1.022   0.423 -0.8516 -1.6020 -0.1452
  954SOL    HW2 2862   1.357   1.007   0.581 -1.8927  0.3988  0.9830
  955SOL     OW 2863   0.856   1.972   2.991 -0.1034 -0.0847  0.1331
  955SOL    HW1 2864   0.915   1.915   3.044 -3.4115 -0.3249  0.8374
  955SOL    HW2 2865   0.762   1.932   3.001  1.4032  0.9420 -0.9576
  956SOL     OW 2866   2.291   0.368   2.038 -0.3008 -0.1637  0.2835
  956SOL    HW1 2867   2.392   0.394   2.042  0.3863  1.9219  0.1503
  956SOL    HW2 2868   2.268   0.381   1.940 -0.6896  1.1626 -3.9202
  957SOL     OW 2869   2.059   2.379   2.381  0.1564  0.4416 -0.2330
  957SOL    HW1 2870   2.042   2.289   2.424 -0.5077  0.8156 -3.3976
  957SOL    HW2 2871   2.127   2.440   2.432 -1.0582 -0.8358  0.5042
  958SOL     OW 2872   1.669   1.122   1.148  0.0127  0.4763  0.1369
  958SOL    HW1 2873   1.637   1.208   1.185  3.6938 -2.9120 -2.2340
  958SOL    HW2 2874   1.682   1.051   1.221 -0.3374 -1.1107 -0.4458
  959SOL     OW 2875   2.019   2.052   2.225 -0.0254 -0.3711 -0.8143
  959SOL    HW1 2876   2.099   2.033   2.165 -1.5869  1.3047 -1.1741
  959SOL    HW2 2877   1.938   2.090   2.180 -1.5271 -1.3115  3.0926
  960SOL     OW 2878   0.277   0.961   2.805  0.2438  0.3274 -0.1035
  960SOL    HW1 2879   0.277   1.010   2.716 -2.1927  0.4597 -0.7325
  960SOL    HW2 2880   0.366   0.910   2.814  3.2048  1.1731  0.3851
  961SOL     OW 2881   0.051   1.018   2.958  0.1700  0.1703  1.0516
  961SOL    HW1 2882   0.141   1.013   2.916 -0.4933 -0.5952  0.8751
  961SOL    HW2 2883   0.046   1.106   3.004 -0.7077 -0.9349  1.4824
  962SOL     OW 2884   0.419   1.283   2.355  0.2262 -0.2976  0.4039
  962SOL    HW1 2885   0.341   1.339   2.390 -0.9647  1.7380  0.9550
  962SOL    HW2 2886   0.504   1.296   2.408 -2.6723 -0.5347 -1.0493
  963SOL     OW 2887   3.015   2.029   0.215 -0.1364  0.5751 -0.0373
  963SOL    HW1 2888   2.987   2.124   0.195 -0.5039  2.7244 -0.1336
  963SOL    HW2 2889   2.940   1.969   0.232  0.7080  1.6819 -1.7292
  964SOL     OW 2890   0.845   2.376   1.664  0.2762 -0.2118 -0.4957
  964SOL    HW1 2891   0.895   2.464   1.665 -1.1800 -0.3229  3.8538
  964SOL    HW2 2892   0.765   2.382   1.724 -3.0097 -0.9485 -1.8823
  965SOL     OW 2893   1.790   2.052   0.513  0.5067 -0.6841  0.2225
  965SOL    HW1 2894   1.793   2.155   0.529  1.4946  0.7765  3.5008
  965SOL    HW2 2895   1.794   2.027   0.412  0.3474 -3.2220 -0.6242
  966SOL     OW 2896   2.744   1.571   0.274  0.5177 -0.0635  0.4149
  966SOL    HW1 2897   2.845   1.547   0.274  1.7412  1.3001  1.4924
  966SOL    HW2 2898   2.690   1.509   0.211  2.0274  2.5441 -1.3502
  967SOL     OW 2899   1.835   2.957   1.793  0.3532 -0.4370  0.1918
  967SOL    HW1 2900   1.918   2.904   1.762  0.1704  1.3431  3.2322
  967SOL    HW2 2901   1.749   2.902   1.799  0.8183 -0.5637 -0.9718
  968SOL     OW 2902   1.442   0.456   0.102 -0.2444 -0.0903 -0.4523
  968SOL    HW1 2903   1.343   0.487   0.100 -0.8254  0.8478 -0.9082
  968SOL    HW2 2904   1.486   0.497   0.018  1.9653  1.8287 -4.3440
  969SOL     OW 2905   0.205   1.441   2.169  0.6159 -0.1488 -0.2093
  969SOL    HW1 2906   0.302   1.445   2.140 -2.1296 -4.1190 -0.6894
  969SOL    HW2 2907   0.144   1.430   2.085 -2.9205 -0.1220 -4.6515
  970SOL     OW 2908   1.931   2.113   1.301  0.3277  0.0638  0.7483
  970SOL    HW1 2909   1.866   2.095   1.379 -1.0740 -1.5929 -0.0694
  970SOL    HW2 2910   1.869   2.130   1.222  0.0347  2.0267 -0.1323
  971SOL     OW 2911   2.297   2.306   0.815  0.0043 -0.4073 -0.0792
  971SOL    HW1 2912   2.281   2.327   0.917 -1.7565 -1.3008  1.3316
  971SOL    HW2 2913   2.366   2.232   0.807  2.6591 -0.1466  1.2003
  972SOL     OW 2914   3.059   1.132   2.603 -0.3059  0.2434  0.0465
  972SOL    HW1 2915   3.068   1.131   2.499  0.0987 -2.6889 -3.8592
  972SOL    HW2 2916   2.984   1.074   2.633 -1.5220 -3.4482  0.2328
  973SOL     OW 2917   0.642   0.381   0.636 -0.0426  0.2117 -0.5070
  973SOL    HW1 2918   0.637   0.483   0.635 -1.3897 -0.4447 -1.6393
  973SOL    HW2 2919   0.731   0.343   0.665 -0.2570  0.6460  1.1277
  974SOL     OW 2920   2.264   0.923   1.956 -0.2943 -0.6090 -0.0865
  974SOL    HW1 2921   2.274   0.893   2.052 -1.6212 -1.2799  0.0919
  974SOL    HW2 2922   2.238   0.839   1.905  0.5895  1.8254 -0.0525
  975SOL     OW 2923   3.085   2.763   0.227 -0.6649 -0.3267  0.2028
  975SOL    HW1 2924   3.044   2.857   0.248  1.0484  1.6957  1.2675
  975SOL    HW2 2925   0.062   2.733   0.305  0.8652  0.2996  0.1790
  976SOL     OW 2926   0.330   1.798   0.982  0.0816 -0.1740  0.0971
  976SOL    HW1 2927   0.334   1.708   0.935  1.3370 -0.5139  1.5944
  976SOL    HW2 2928   0.246   1.848   0.967  2.3948 -1.2763  0.7084
  977SOL     OW 2929   0.996   1.934   0.609  0.4202 -0.4205 -0.5913
  977SOL    HW1 2930   1.015   1.835   0.598  0.3189 -1.1468  1.2279
  977SOL    HW2 2931   0.919   1.954   0.681 -1.3429  0.8312  2.7895
  978SOL     OW 2932   0.122   0.900   0.095  0.2376 -0.3222  0.1863
  978SOL    HW1 2933   0.182   0.823   0.074 -0.0912  0.4391 -2.3237
  978SOL    HW2 2934   0.085   0.938   0.006 -0.9013  1.4566 -0.4109
  979SOL     OW 2935   1.947   1.517   0.376  0.2716  0.2996  0.0539
  979SOL    HW1 2936   2.043   1.518   0.416  2.3740 -1.5872  1.0837
  979SOL    HW2 2937   1.880   1.530   0.448  0.5326 -1.2343  0.0569
  980SOL     OW 2938   0.437   2.255   1.987 -0.2888 -0.0129 -0.2017
  980SOL    HW1 2939   0.450   2.307   1.898 -1.1977  3.8843 -2.0579
  980SOL    HW2 2940   0.529   2.223   2.021  1.8093  1.3676 -1.9683
  981SOL     OW 2941   2.436   1.219   0.020  0.5595 -0.1558  0.5343
  981SOL    HW1 2942   2.341   1.251   0.018  0.6121 -0.2075 -0.2202
  981SOL    HW2 2943   2.454   1.171   3.020  1.2800 -0.7921  2.0613
  982SOL     OW 2944   0.084   2.552   1.934  0.2139  0.1614  0.1784
  982SOL    HW1 2945   0.120   2.487   2.003 -0.5482 -2.6514 -0.2969
  982SOL    HW2 2946   0.158   2.579   1.871 -1.0099 -0.4112  1.9713
  983SOL     OW 2947   1.911   0.378   1.523 -1.0587 -0.6525 -0.5293
  983SOL    HW1 2948   1.845   0.317   1.476  1.4504  0.6813 -0.9399
  983SOL    HW2 2949   1.867   0.468   1.539  1.3494 -2.1079  1.3840
  984SOL     OW 2950   1.685   2.900   2.551  0.1284  0.0104 -0.1037
  984SOL    HW1 2951   1.658   2.848   2.462 -0.8000 -1.8349 -1.5907
  984SOL    HW2 2952   1.619   2.877   2.624  0.4911  1.6745 -0.5629
  985SOL     OW 2953   1.394   1.452   1.546 -0.0928 -0.4159  0.8741
  985SOL    HW1 2954   1.439   1.430   1.625 -1.7134  1.0958 -2.8429
  985SOL    HW2 2955   1.311   1.505   1.562  0.9018  1.8986  1.9133
  986SOL     OW 2956   2.058   2.789   2.241 -0.3016 -0.2593  0.8438
  986SOL    HW1 2957   2.153   2.759   2.210  0.4473 -3.7983  0.9068
  986SOL    HW2 2958   2.026   2.874   2.199 -2.7326  0.4977  0.5235
  987SOL     OW 2959   2.746   1.805   2.712 -0.5250  0.1158  0.3974
  987SOL    HW1 2960   2.798   1.861   2.779 -0.0216 -4.9826  4.0653
  987SOL    HW2 2961   2.730   1.855   2.623 -0.2331  2.7935  1.6901
  988SOL     OW 2962   2.891   0.672   1.593 -0.8924  0.3027 -0.0259
  988SOL    HW1 2963   2.888   0.711   1.496  1.4700  0.0350 -1.7795
  988SOL    HW2 2964   2.936   0.739   1.660  0.0124  0.9729  1.3624
  989SOL     OW 2965   1.737   1.434   1.498 -0.2125 -0.4460 -0.3662
  989SOL    HW1 2966   1.693   1.353   1.542 -0.7046 -0.6877 -1.1420
  989SOL    HW2 2967   1.826   1.409   1.458  0.3962  1.2864 -1.6080
  990SOL     OW 2968   2.943   0.816   2.959 -0.5485 -0.2521 -0.1917
  990SOL    HW1 2969   3.021   0.883   2.958  1.1805  2.2061  0.6417
  990SOL    HW2 2970   2.931   0.782   2.862  3.0856  1.8985  2.3542
  991SOL     OW 2971   0.355   1.926   2.992 -0.2297  0.1229 -0.0359
  991SOL    HW1 2972   0.338   2.027   2.983  0.6115  0.0013  0.4640
  991SOL    HW2 2973   0.364   1.891   0.003  0.3197 -0.9577  0.2887
  992SOL     OW 2974   2.561   2.042   1.777 -0.0340 -0.7391 -0.2408
  992SOL    HW1 2975   2.487   2.010   1.839  3.2402 -1.0208  0.4772
  992SOL    HW2 2976   2.647   2.058   1.829  1.4556 -1.1535  2.4702
  993SOL     OW 2977   0.601   0.063   1.054 -0.6859  0.4197  0.1284
  993SOL    HW1 2978   0.554   0.057   1.145 -0.3786  1.8228 -0.4663
  993SOL    HW2 2979   0.692   0.103   1.061 -1.4785  0.0173 -0.0390
  994SOL     OW 2980   2.743   2.055   1.487 -0.2974 -0.1261 -0.3044
  994SOL    HW1 2981   2.828   2.088   1.539 -3.0405 -0.5837  0.9805
  994SOL    HW2 2982   2.701   1.974   1.542 -2.6103 -1.8659 -0.4657
  995SOL     OW 2983   2.086   2.064   2.480  0.3473 -0.0829  0.4421
  995SOL    HW1 2984   2.006   2.032   2.534 -3.5762  0.5779 -1.6019
  995SOL    HW2 2985   2.065   2.046   2.379 -0.1619 -0.2255 -2.2406
  996SOL     OW 2986   1.904   1.784   3.016 -0.6679  0.0270 -0.2227
  996SOL    HW1 2987   1.814   1.813   2.981 -3.6328 -1.0502 -1.0563
  996SOL    HW2 2988   1.879   1.725   0.012  0.0607 -1.1914  0.6374
  997SOL     OW 2989   0.977   1.302   1.850  0.1695  0.2650  0.0564
  997SOL    HW1 2990   0.901   1.365   1.873  2.5081  1.3811 -0.0587
  997SOL    HW2 2991   0.981   1.223   1.909  0.7250  1.9309 -2.2792
  998SOL     OW 2992   2.786   2.141   0.760 -0.5618 -0.2545 -0.1232
  998SOL    HW1 2993   2.733   2.217   0.718  0.0658  0.4098 -0.1040
  998SOL    HW2 2994   2.742   2.094   0.839  0.7820 -2.4277  0.4826
  999SOL     OW 2995   0.166   2.733   0.434 -0.2278 -0.3318  0.3207
  999SOL    HW1 2996   0.233   2.663   0.461  0.7708  1.9369 -0.3056
  999SOL    HW2 2997   0.152   2.794   0.515  3.8425  0.2586 -1.7974
 1000SOL     OW 2998   1.170   0.164   2.933  0.0251  1.2386  0.1630
 1000SOL    HW1 2999   1.151   0.151   3.034 -4.4781 -0.8699  1.8522
 1000SOL    HW2 3000   1.194   0.257   2.909 -1.2345 -0.4892  2.8998
   3.08615   3.08615   3.08615
