1000 SPC/Fw water molecules t= 376.00000 step= 376000
 3000
    1SOL     OW    1   2.619   2.726   1.799 -0.4268 -0.2149 -0.5051
    1SOL    HW1    2   2.537   2.773   1.829  2.0516 -1.6400 -1.7331
    1SOL    HW2    3   2.599   2.641   1.746  4.8919  1.0488 -0.8989
    2SOL     OW    4   2.165   2.457   0.492 -0.4555 -0.1269 -0.9975
    2SOL    HW1    5   2.187   2.450   0.395  0.0671  0.6285 -0.5988
    2SOL    HW2    6   2.204   2.543   0.535  2.6271 -0.7161  1.2828
    3SOL     OW    7   1.102   0.143   0.219 -0.0783  0.6022  0.2812
    3SOL    HW1    8   1.132   0.227   0.266  1.4644 -3.0765 -2.2102
    3SOL    HW2    9   1.159   0.126   0.132  3.0781 -0.3277 -2.1149
    4SOL     OW   10   1.419   2.964   2.090 -0.4837  0.4609  0.4358
    4SOL    HW1   11   1.388   2.883   2.148 -0.1689 -1.7738  0.6533
    4SOL    HW2   12   1.376   2.966   1.991  2.1666  2.1602  0.5621
    5SOL     OW   13   2.474   0.348   1.599  0.0828  0.0721 -0.1051
    5SOL    HW1   14   2.494   0.414   1.525  2.7003 -0.3134  0.8674
    5SOL    HW2   15   2.376   0.364   1.624  1.5570  0.5726 -0.8043
    6SOL     OW   16   2.159   2.187   0.613 -0.1384 -0.3147 -0.1255
    6SOL    HW1   17   2.168   2.285   0.578 -1.1222  2.3289 -1.0313
    6SOL    HW2   18   2.079   2.143   0.565 -1.1846 -1.1060 -2.2016
    7SOL     OW   19   2.004   1.110   1.115 -0.6242  0.4373 -0.3411
    7SOL    HW1   20   2.075   1.115   1.185 -1.3137 -1.4394 -1.0344
    7SOL    HW2   21   1.951   1.023   1.124 -0.9361 -0.8335 -0.3401
    8SOL     OW   22   1.015   1.259   1.191  0.0567  0.2644  0.3332
    8SOL    HW1   23   0.984   1.359   1.195 -1.2504 -0.7625  0.1430
    8SOL    HW2   24   0.931   1.201   1.213 -1.1424 -2.0252  1.0865
    9SOL     OW   25   0.703   2.507   1.535  0.5942  0.4105  0.3595
    9SOL    HW1   26   0.687   2.544   1.624 -0.0182 -0.5845 -1.9092
    9SOL    HW2   27   0.645   2.425   1.521 -2.0768 -0.4716  1.2962
   10SOL     OW   28   1.023   2.411   0.614  0.0944 -0.1930 -0.5518
   10SOL    HW1   29   0.940   2.401   0.550 -1.1329 -0.9560 -0.2383
   10SOL    HW2   30   1.086   2.331   0.600  0.3651 -2.6589 -1.0680
   11SOL     OW   31   1.737   1.590   1.468  0.0876 -0.5657 -0.0923
   11SOL    HW1   32   1.742   1.691   1.452  0.5652 -1.5461  1.5480
   11SOL    HW2   33   1.732   1.541   1.382  0.2269 -1.3689 -0.6349
   12SOL     OW   34   2.673   0.545   2.146 -0.8934 -0.0937  0.3524
   12SOL    HW1   35   2.752   0.519   2.083  1.6324  0.9735 -1.4975
   12SOL    HW2   36   2.645   0.641   2.133 -0.4532 -0.2204 -3.3032
   13SOL     OW   37   2.611   0.260   0.686  0.1781 -0.2681  0.9302
   13SOL    HW1   38   2.511   0.235   0.694 -0.6954  0.6071  0.2863
   13SOL    HW2   39   2.678   0.182   0.696  2.0529  0.3299 -0.4221
   14SOL     OW   40   1.560   1.471   0.003  0.4183 -0.9344  0.1822
   14SOL    HW1   41   1.535   1.371   3.095 -0.1121 -2.1279  2.9143
   14SOL    HW2   42   1.534   1.528   3.032  0.7933 -1.2773  1.0555
   15SOL     OW   43   2.525   2.476   1.688 -0.3513  0.0277 -0.3009
   15SOL    HW1   44   2.453   2.503   1.621 -1.4245 -1.9588 -1.0694
   15SOL    HW2   45   2.492   2.461   1.784 -0.8816 -1.5999  0.9210
   16SOL     OW   46   2.212   2.781   1.036 -0.3544  0.2488  0.1664
   16SOL    HW1   47   2.215   2.885   1.046  0.6134  3.3193  0.4711
   16SOL    HW2   48   2.120   2.747   1.009  0.2507 -1.7239 -0.1249
   17SOL     OW   49   1.049   0.415   1.357  0.0368  0.2621  0.0390
   17SOL    HW1   50   1.017   0.451   1.268  0.7276 -0.8393  0.8633
   17SOL    HW2   51   1.044   0.313   1.357 -0.8025 -0.8723  2.0010
   18SOL     OW   52   1.806   0.444   0.866  0.8153 -0.4239  0.1546
   18SOL    HW1   53   1.706   0.422   0.885 -0.4859  1.9559  2.1610
   18SOL    HW2   54   1.862   0.363   0.857 -1.2743  2.8568  0.1557
   19SOL     OW   55   2.023   1.611   0.201 -0.0608  0.1579 -0.0214
   19SOL    HW1   56   1.961   1.581   0.125  0.6749 -1.4826 -1.0714
   19SOL    HW2   57   2.081   1.686   0.168  0.1332  2.5532 -0.8639
   20SOL     OW   58   2.284   1.515   2.435 -0.5341 -0.1949  0.2666
   20SOL    HW1   59   2.384   1.507   2.399  1.2589  0.6325  0.4017
   20SOL    HW2   60   2.211   1.501   2.364  0.2412  0.8459  0.9224
   21SOL     OW   61   1.457   0.264   0.561  0.2481  0.0082  0.3082
   21SOL    HW1   62   1.400   0.304   0.633 -0.3917  1.0716 -0.5035
   21SOL    HW2   63   1.450   0.312   0.469 -0.3698  1.6083 -3.2302
   22SOL     OW   64   2.538   0.599   1.446  0.2065 -0.3871  0.6269
   22SOL    HW1   65   2.569   0.625   1.540 -0.7888  0.1595  1.9344
   22SOL    HW2   66   2.620   0.591   1.381  2.6370  0.8122 -3.7356
   23SOL     OW   67   0.224   0.158   1.912  0.2687  0.0240 -0.0611
   23SOL    HW1   68   0.273   0.210   1.835  1.4076  1.4313 -0.3546
   23SOL    HW2   69   0.283   0.131   1.990 -1.3139 -1.0766  0.4805
   24SOL     OW   70   2.642   2.543   0.401  0.1481  0.8424 -0.2219
   24SOL    HW1   71   2.622   2.452   0.359  1.0823  0.8398 -1.7434
   24SOL    HW2   72   2.555   2.594   0.398 -0.8977  0.2820 -1.3980
   25SOL     OW   73   1.326   0.187   2.645 -0.1631  0.8237 -0.1556
   25SOL    HW1   74   1.372   0.126   2.713  2.0625 -0.9308  0.9948
   25SOL    HW2   75   1.246   0.234   2.684 -1.3731  1.9190 -2.0628
   26SOL     OW   76   1.437   2.629   0.157  0.5407 -0.1443 -0.4419
   26SOL    HW1   77   1.423   2.723   0.119 -0.2586 -0.4905  1.4983
   26SOL    HW2   78   1.353   2.598   0.204 -4.3135  0.7459  0.5159
   27SOL     OW   79   1.319   0.651   1.150 -0.0291 -0.2751 -0.5305
   27SOL    HW1   80   1.229   0.683   1.113  1.0323  1.6799  3.9948
   27SOL    HW2   81   1.392   0.655   1.084  2.9556  2.4649  1.0000
   28SOL     OW   82   1.368   1.408   0.804 -0.3181 -0.8247 -0.4337
   28SOL    HW1   83   1.406   1.450   0.717 -0.4604 -0.8456 -2.6039
   28SOL    HW2   84   1.446   1.362   0.853  0.2507 -0.6954  0.5812
   29SOL     OW   85   2.888   0.066   1.910  0.5959  0.2583  0.0018
   29SOL    HW1   86   2.853   3.091   1.872  2.1021 -0.7435 -1.5495
   29SOL    HW2   87   2.868   0.142   1.844  2.0484  1.4136  0.3588
   30SOL     OW   88   1.123   3.094   1.215  0.0269 -0.1321 -0.4527
   30SOL    HW1   89   1.122   3.033   1.134 -1.5417  0.3462  2.4362
   30SOL    HW2   90   1.223   0.013   1.229  0.8778  0.9294  1.4314
   31SOL     OW   91   1.981   2.950   2.021 -0.4341 -0.2734 -0.4450
   31SOL    HW1   92   2.035   3.010   1.955  1.9469  1.2409 -1.1483
   31SOL    HW2   93   2.004   2.854   2.008  3.0745  2.0269 -1.7147
   32SOL     OW   94   0.933   1.865   3.032  0.1159  0.8642  0.2312
   32SOL    HW1   95   0.842   1.884   3.075 -0.2944 -0.3570  1.9540
   32SOL    HW2   96   0.990   1.947   3.041 -1.0984  0.4542  1.4555
   33SOL     OW   97   2.961   0.810   2.196 -0.3689 -0.2609  0.3276
   33SOL    HW1   98   2.912   0.829   2.286 -1.0159 -2.1499 -1.0578
   33SOL    HW2   99   2.973   0.710   2.185  0.4769 -1.5558  1.9071
   34SOL     OW  100   2.351   0.166   0.703  0.4459  0.2875 -0.2551
   34SOL    HW1  101   2.262   0.184   0.753 -2.6104 -0.2048 -0.8310
   34SOL    HW2  102   2.353   0.076   0.662  2.5979  0.7622  2.2337
   35SOL     OW  103   2.532   2.463   1.952  0.3868  0.3676  0.1896
   35SOL    HW1  104   2.603   2.420   2.015  0.0828 -1.2351  2.9214
   35SOL    HW2  105   2.454   2.485   2.019 -1.0095 -0.7642  1.2463
   36SOL     OW  106   2.368   2.073   3.079  0.0460  0.0719 -0.3547
   36SOL    HW1  107   2.346   2.045   2.982 -0.6969 -1.7549  0.8483
   36SOL    HW2  108   2.287   2.112   0.018  0.2341 -1.0464  2.1445
   37SOL     OW  109   2.146   0.316   1.694  0.1127  0.4136 -0.6447
   37SOL    HW1  110   2.161   0.362   1.779  4.5819 -0.8144 -0.0116
   37SOL    HW2  111   2.049   0.297   1.676  1.4910 -2.3843 -1.8681
   38SOL     OW  112   3.107   0.365   2.949  0.3681  0.3054 -0.2746
   38SOL    HW1  113   0.062   0.446   2.955 -0.1127  2.0185  0.8535
   38SOL    HW2  114   0.044   0.274   2.946 -0.7453 -2.1812  0.2829
   39SOL     OW  115   1.874   1.289   1.740  0.1696  0.4059 -0.0458
   39SOL    HW1  116   1.953   1.277   1.806  0.9358  0.0680  0.7969
   39SOL    HW2  117   1.891   1.369   1.672 -0.0325 -0.1822 -3.4717
   40SOL     OW  118   1.270   2.069   0.730  0.2324 -0.9781 -0.3786
   40SOL    HW1  119   1.348   2.008   0.733  0.4119  1.2268  1.7509
   40SOL    HW2  120   1.255   2.119   0.641  1.2028  1.7107 -0.5358
   41SOL     OW  121   1.868   2.010   0.897  0.0981  0.3828  0.1042
   41SOL    HW1  122   1.954   2.051   0.936 -1.3150 -0.4083  0.4192
   41SOL    HW2  123   1.883   1.922   0.852 -0.3780 -0.0247  1.9767
   42SOL     OW  124   0.219   0.668   1.377 -0.7968 -0.4875  0.1959
   42SOL    HW1  125   0.166   0.598   1.418  1.5203  1.6237 -3.6585
   42SOL    HW2  126   0.296   0.702   1.432  1.0405 -0.5162 -3.7815
   43SOL     OW  127   0.122   1.617   2.680 -0.1310 -0.2359 -0.0627
   43SOL    HW1  128   0.129   1.624   2.784 -0.6081 -0.3196  3.8570
   43SOL    HW2  129   0.211   1.654   2.639  1.9270 -0.0916  0.4781
   44SOL     OW  130   1.769   2.775   1.300 -0.2534  0.4748 -0.1303
   44SOL    HW1  131   1.802   2.681   1.318 -0.6710 -0.3297 -1.0882
   44SOL    HW2  132   1.684   2.797   1.349 -0.7829  3.6379 -1.5365
   45SOL     OW  133   1.078   0.211   2.346  0.1620  0.1766  0.7373
   45SOL    HW1  134   1.040   0.137   2.406 -0.1698 -0.5399 -1.7052
   45SOL    HW2  135   1.176   0.205   2.345 -2.7483  1.0402  0.2676
   46SOL     OW  136   0.811   2.482   2.369 -0.8003 -0.0512  0.2620
   46SOL    HW1  137   0.899   2.530   2.339  2.0147  2.1912 -2.1376
   46SOL    HW2  138   0.739   2.557   2.372 -3.4483  2.1018 -3.6800
   47SOL     OW  139   0.813   2.268   0.889 -0.1705 -0.0773 -0.2125
   47SOL    HW1  140   0.825   2.372   0.878 -0.6977 -0.2715 -2.0616
   47SOL    HW2  141   0.892   2.235   0.944 -2.1112  0.5242 -1.9843
   48SOL     OW  142   1.011   2.146   1.087  0.0416  0.1997 -0.4358
   48SOL    HW1  143   0.929   2.178   1.143 -0.3397  0.1555  1.0939
   48SOL    HW2  144   1.080   2.092   1.142 -0.7483 -0.4026 -2.1291
   49SOL     OW  145   2.429   0.258   2.996 -0.2452  0.4830  0.0539
   49SOL    HW1  146   2.357   0.231   2.931 -3.2629  2.6818  0.9943
   49SOL    HW2  147   2.494   0.333   2.969 -1.0283  1.1874 -0.7259
   50SOL     OW  148   1.811   0.151   0.330  0.1780 -0.1442 -0.1555
   50SOL    HW1  149   1.902   0.161   0.379  1.1986 -0.7847 -0.0836
   50SOL    HW2  150   1.816   0.206   0.244 -1.3071  2.7278 -0.2173
   51SOL     OW  151   2.505   0.879   1.320  0.0470 -0.6551 -0.1438
   51SOL    HW1  152   2.468   0.934   1.240  1.2784  0.3504 -0.6813
   51SOL    HW2  153   2.469   0.900   1.410 -2.4704 -2.0958 -0.3282
   52SOL     OW  154   0.509   1.615   0.187  0.4809  0.3903  0.0315
   52SOL    HW1  155   0.596   1.567   0.171 -1.6807  1.3213  1.6542
   52SOL    HW2  156   0.512   1.708   0.148  0.6292 -1.2421 -1.1743
   53SOL     OW  157   0.170   1.187   2.858  0.6009 -0.1526 -0.1212
   53SOL    HW1  158   0.148   1.106   2.810  1.9115  2.8392  4.1742
   53SOL    HW2  159   0.265   1.222   2.833 -0.4666  2.4688 -2.1676
   54SOL     OW  160   2.678   1.363   1.977  0.1497 -0.0647 -0.5597
   54SOL    HW1  161   2.682   1.456   2.017 -0.8427 -1.1108 -0.0598
   54SOL    HW2  162   2.734   1.299   2.035  1.8540 -2.0901  0.4484
   55SOL     OW  163   2.305   1.846   0.341 -0.4617 -0.1074  0.1298
   55SOL    HW1  164   2.371   1.922   0.309 -0.9046 -2.5883 -2.8612
   55SOL    HW2  165   2.335   1.751   0.316  2.5227 -0.5717  0.0227
   56SOL     OW  166   1.772   0.132   1.423  0.2548 -0.1810 -0.2984
   56SOL    HW1  167   1.811   0.178   1.502 -0.8113  1.0412 -1.3022
   56SOL    HW2  168   1.841   0.136   1.346  1.9538  1.0369  1.1666
   57SOL     OW  169   1.666   1.362   2.819  0.3634 -0.3949  0.0773
   57SOL    HW1  170   1.663   1.268   2.856  1.3632  3.3246  0.7609
   57SOL    HW2  171   1.698   1.365   2.723  1.0820  0.9400  1.3533
   58SOL     OW  172   2.612   0.163   1.425 -0.1152  0.0013 -0.6971
   58SOL    HW1  173   2.654   0.089   1.475 -2.4123  6.4348 -3.3156
   58SOL    HW2  174   2.567   0.226   1.496 -0.8197  0.8600  0.0306
   59SOL     OW  175   1.367   2.868   0.019 -0.4537 -0.2374  0.0682
   59SOL    HW1  176   1.295   2.898   3.066 -0.2146 -0.1345 -1.1985
   59SOL    HW2  177   1.341   2.895   0.116  2.2306 -1.1133 -0.8380
   60SOL     OW  178   3.009   2.163   2.873 -0.7860  0.0769 -0.4826
   60SOL    HW1  179   2.912   2.136   2.865  3.3394  2.2701  2.9799
   60SOL    HW2  180   3.080   2.089   2.883 -0.2289  0.2120  0.7549
   61SOL     OW  181   0.621   2.566   0.783  0.2821  0.0771 -0.0993
   61SOL    HW1  182   0.631   2.579   0.882  0.7109  2.3777  1.4495
   61SOL    HW2  183   0.671   2.643   0.736 -1.5584  0.9136 -1.7115
   62SOL     OW  184   1.973   1.847   2.552  0.6775  0.8851 -0.1492
   62SOL    HW1  185   1.874   1.847   2.564  2.2668 -1.2254 -1.9221
   62SOL    HW2  186   2.019   1.830   2.640  1.4692  0.7922  2.0723
   63SOL     OW  187   1.745   1.941   0.093 -0.2452  0.1535  0.1774
   63SOL    HW1  188   1.770   2.022   0.029  0.3841  4.0831 -3.9253
   63SOL    HW2  189   1.735   1.852   0.038  2.4846 -3.2677 -1.1639
   64SOL     OW  190   2.017   0.962   3.077  0.0654  0.1084  0.0311
   64SOL    HW1  191   1.977   1.055   3.063  0.0121 -2.1797  2.5443
   64SOL    HW2  192   2.073   0.961   0.049 -1.1172  0.7021  1.3227
   65SOL     OW  193   2.180   2.109   2.107 -0.1129 -0.0278 -0.3007
   65SOL    HW1  194   2.167   2.011   2.128  0.5585  0.4019 -0.0081
   65SOL    HW2  195   2.260   2.146   2.157 -2.5352 -0.1970 -0.6248
   66SOL     OW  196   0.418   0.825   1.504 -0.5430 -0.4200  0.4432
   66SOL    HW1  197   0.448   0.892   1.432 -1.8541 -0.3003 -0.8796
   66SOL    HW2  198   0.323   0.845   1.542 -3.1880 -0.9256 -0.8495
   67SOL     OW  199   2.107   0.056   0.005  0.0085  0.5889  0.6664
   67SOL    HW1  200   2.043   3.101   0.044  0.3515 -0.7131  0.8006
   67SOL    HW2  201   2.073   0.104   3.037 -0.2017  1.9002  2.6090
   68SOL     OW  202   1.689   1.874   1.409  0.3545  0.3826 -0.2246
   68SOL    HW1  203   1.757   1.938   1.446  0.1264  1.2111  1.5114
   68SOL    HW2  204   1.666   1.890   1.309  0.1129 -0.6589 -3.8897
   69SOL     OW  205   0.136   2.888   0.101 -0.1710 -0.0143 -0.7039
   69SOL    HW1  206   0.181   2.828   0.033  0.8698  0.5399  0.7702
   69SOL    HW2  207   0.048   2.850   0.131  3.0083  0.9673 -0.9607
   70SOL     OW  208   0.451   0.604   1.867 -0.4450  0.4887  0.1952
   70SOL    HW1  209   0.351   0.592   1.860  0.5435  1.5337 -2.7019
   70SOL    HW2  210   0.491   0.618   1.772  3.2202  0.8288  1.4733
   71SOL     OW  211   0.939   1.074   2.728 -0.0828  0.3998  0.3123
   71SOL    HW1  212   0.952   1.076   2.830  2.5695  0.2400  0.6352
   71SOL    HW2  213   0.999   1.010   2.675 -0.5162  0.1841  1.0545
   72SOL     OW  214   2.875   1.617   1.927  0.2302 -0.4129  0.4232
   72SOL    HW1  215   2.785   1.659   1.891 -2.2302  1.2792  0.0688
   72SOL    HW2  216   2.900   1.537   1.878 -0.5017  1.6204 -0.2043
   73SOL     OW  217   1.279   1.914   0.166 -0.1926 -0.0648 -0.4089
   73SOL    HW1  218   1.294   1.886   0.071 -0.3659  0.7587  0.2680
   73SOL    HW2  219   1.199   1.860   0.202 -2.6893 -2.3019 -0.7348
   74SOL     OW  220   2.313   3.035   2.992  0.3916 -0.4155  0.6848
   74SOL    HW1  221   2.323   3.097   2.910  0.6393  1.6421 -3.3910
   74SOL    HW2  222   2.248   3.077   3.058  1.1607  1.0029 -0.5463
   75SOL     OW  223   1.477   2.290   0.980 -0.3565 -0.6789  0.1193
   75SOL    HW1  224   1.379   2.266   0.953 -0.5958 -1.5423 -2.1014
   75SOL    HW2  225   1.537   2.233   0.916 -0.0210  1.5274 -2.2309
   76SOL     OW  226   2.934   1.930   1.923  0.3721  0.3826  0.1495
   76SOL    HW1  227   2.929   1.830   1.932 -1.4889 -0.7411  1.8082
   76SOL    HW2  228   3.017   1.973   1.959  0.3659  1.7074 -1.2709
   77SOL     OW  229   0.767   2.853   1.763  0.3741 -0.3087  0.3931
   77SOL    HW1  230   0.754   2.936   1.708  2.4023 -1.3457  2.4919
   77SOL    HW2  231   0.761   2.875   1.863  1.7347  2.2421  0.1782
   78SOL     OW  232   2.081   0.711   0.335 -0.0386 -0.1709  0.3534
   78SOL    HW1  233   2.101   0.654   0.248 -1.6249 -3.2188 -4.3881
   78SOL    HW2  234   1.981   0.729   0.348  0.6196  2.1343  3.2668
   79SOL     OW  235   0.006   1.386   2.599  0.5742  0.1824 -0.0952
   79SOL    HW1  236   0.056   1.475   2.609  0.7303  1.9480 -0.3428
   79SOL    HW2  237   0.066   1.312   2.555  0.8055 -1.0255 -1.1377
   80SOL     OW  238   1.999   1.767   1.923  0.3332  0.3036 -0.4824
   80SOL    HW1  239   1.898   1.780   1.908 -1.6540 -0.5444  0.2153
   80SOL    HW2  240   2.056   1.819   1.853  0.3253  3.1684  0.1829
   81SOL     OW  241   2.038   1.478   2.307  0.4156 -0.5697  0.1889
   81SOL    HW1  242   1.996   1.403   2.249  1.8342  0.1797  0.5211
   81SOL    HW2  243   2.006   1.564   2.266  0.3535  0.8383 -1.3292
   82SOL     OW  244   1.587   1.490   1.915  0.6300 -0.1535 -0.4209
   82SOL    HW1  245   1.552   1.529   1.825 -1.0416  1.7417  0.8449
   82SOL    HW2  246   1.628   1.398   1.902 -1.0068  1.1393 -1.9750
   83SOL     OW  247   0.470   0.332   0.238  0.4994  0.3014 -0.5782
   83SOL    HW1  248   0.533   0.374   0.306  0.6692  3.1908 -3.1478
   83SOL    HW2  249   0.393   0.277   0.281 -4.2558  1.4378  1.4544
   84SOL     OW  250   0.092   0.520   0.445  0.3654 -0.5756  0.4543
   84SOL    HW1  251   3.107   0.527   0.439  1.8051  0.6367 -0.5096
   84SOL    HW2  252   0.137   0.601   0.495 -0.1764  1.6439  1.0444
   85SOL     OW  253   2.426   2.402   1.188  0.1245 -0.1062 -0.3003
   85SOL    HW1  254   2.321   2.402   1.186 -0.2906  1.5413 -3.1148
   85SOL    HW2  255   2.463   2.326   1.138  0.5825 -0.4317 -2.0425
   86SOL     OW  256   0.402   0.328   1.458  0.2576 -0.0401  0.0539
   86SOL    HW1  257   0.472   0.398   1.427  0.3342  3.9259 -1.9403
   86SOL    HW2  258   0.430   0.236   1.438 -1.7022 -1.6325  1.7789
   87SOL     OW  259   0.397   2.542   1.842  0.6195  0.2322 -0.0626
   87SOL    HW1  260   0.499   2.550   1.819  0.8101 -1.2181 -0.5101
   87SOL    HW2  261   0.366   2.451   1.806  1.0117 -1.1640  0.8519
   88SOL     OW  262   0.187   1.990   2.924  0.1383  0.0429  0.3026
   88SOL    HW1  263   0.098   1.941   2.931  2.2855  0.1753 -0.1743
   88SOL    HW2  264   0.216   2.021   3.016 -2.3853  0.0100 -1.1069
   89SOL     OW  265   0.996   0.822   0.629 -0.2239  0.1731  0.1940
   89SOL    HW1  266   1.076   0.777   0.583  0.4244 -1.0522  0.9551
   89SOL    HW2  267   0.914   0.767   0.605  0.0808  0.2276  2.3659
   90SOL     OW  268   0.146   1.494   2.092  0.1305 -0.0377 -0.1352
   90SOL    HW1  269   0.149   1.551   2.012 -0.5981  0.5438 -1.6101
   90SOL    HW2  270   0.126   1.558   2.174 -0.4472 -1.3247  1.1213
   91SOL     OW  271   1.537   0.871   0.807 -0.2368 -0.0963 -0.1933
   91SOL    HW1  272   1.449   0.816   0.814  0.7481 -3.4611  0.0619
   91SOL    HW2  273   1.614   0.802   0.810  0.6832 -1.8593 -1.2342
   92SOL     OW  274   2.308   1.219   0.835 -0.5845 -0.3906 -0.2341
   92SOL    HW1  275   2.321   1.255   0.741 -1.0485 -3.6784  2.1370
   92SOL    HW2  276   2.276   1.294   0.902  1.7691  0.2968 -1.3156
   93SOL     OW  277   0.061   1.034   2.659 -0.4369  0.7970 -0.0833
   93SOL    HW1  278   3.081   1.078   2.669 -2.0144  1.7487  1.1477
   93SOL    HW2  279   0.128   1.091   2.606  1.3496  0.2888 -2.7281
   94SOL     OW  280   1.950   2.296   2.596 -0.2595  0.0560  0.6409
   94SOL    HW1  281   1.990   2.233   2.667  0.8533 -1.5717 -0.1770
   94SOL    HW2  282   2.028   2.347   2.547  0.2802 -0.6242 -0.5831
   95SOL     OW  283   0.150   0.026   1.325  0.3645 -0.0721 -0.6361
   95SOL    HW1  284   0.208   3.084   1.387 -0.5296 -1.4627 -0.9384
   95SOL    HW2  285   0.093   0.088   1.377  1.2131 -1.4256 -3.2795
   96SOL     OW  286   3.033   2.703   1.141 -0.0942  0.0052  0.4357
   96SOL    HW1  287   2.957   2.751   1.089 -0.6608 -1.2994 -1.0581
   96SOL    HW2  288   2.999   2.714   1.240 -0.4500  2.7990  3.8611
   97SOL     OW  289   2.731   0.589   1.671 -0.2233  0.4110  0.4445
   97SOL    HW1  290   2.745   0.682   1.704  0.3817  0.8123 -0.9060
   97SOL    HW2  291   2.714   0.537   1.754 -0.1614  3.4194 -2.4001
   98SOL     OW  292   1.910   2.444   1.823  0.0756  0.0494 -0.3505
   98SOL    HW1  293   1.896   2.362   1.767  0.8163  4.4106 -1.0209
   98SOL    HW2  294   1.819   2.488   1.822  0.1552 -1.1755  0.3353
   99SOL     OW  295   0.291   2.940   1.478 -0.2366 -0.4484  0.1711
   99SOL    HW1  296   0.237   2.934   1.569 -1.8159  0.3223  0.0081
   99SOL    HW2  297   0.389   2.942   1.496 -0.0807  2.5289 -1.2077
  100SOL     OW  298   1.586   0.479   2.625 -0.0161  0.3005  0.0320
  100SOL    HW1  299   1.628   0.420   2.697  3.4517  0.2987  0.3638
  100SOL    HW2  300   1.566   0.574   2.655 -1.2941 -0.0749 -1.3897
  101SOL     OW  301   2.861   0.451   2.596 -0.1383  1.1438 -0.2029
  101SOL    HW1  302   2.883   0.360   2.543 -1.7598  0.9997 -0.2405
  101SOL    HW2  303   2.798   0.511   2.541 -0.3524 -1.3626  0.2383
  102SOL     OW  304   0.572   0.652   1.633 -0.0340  0.5289  0.4474
  102SOL    HW1  305   0.517   0.713   1.571 -2.3035  0.1866  0.6191
  102SOL    HW2  306   0.621   0.583   1.581 -0.2284  1.3281  3.8959
  103SOL     OW  307   0.812   0.470   2.745 -0.2106 -0.3988  0.1901
  103SOL    HW1  308   0.892   0.423   2.702 -1.4905  0.9603  1.5927
  103SOL    HW2  309   0.826   0.569   2.746  1.6532  0.0861 -0.7037
  104SOL     OW  310   0.247   0.703   2.338  0.3866 -0.3967  0.2259
  104SOL    HW1  311   0.291   0.725   2.428  1.5970  0.2987  1.1847
  104SOL    HW2  312   0.316   0.714   2.263  0.3158  0.1340 -1.0684
  105SOL     OW  313   2.376   2.023   1.448 -0.1070 -0.3165 -0.2065
  105SOL    HW1  314   2.378   2.113   1.505  0.7621  0.9023  1.2594
  105SOL    HW2  315   2.342   2.040   1.353 -0.5242 -0.1392 -2.5796
  106SOL     OW  316   1.656   2.955   0.614  0.0251 -0.6659  0.1888
  106SOL    HW1  317   1.663   3.057   0.602 -1.1027  2.7828 -0.3909
  106SOL    HW2  318   1.563   2.931   0.585 -0.7434  1.5786  0.4317
  107SOL     OW  319   1.853   2.286   1.077 -0.3262 -0.1484 -0.0708
  107SOL    HW1  320   1.819   2.203   1.120  1.4834  3.7479 -1.4951
  107SOL    HW2  321   1.826   2.370   1.131  0.2825  0.4878 -0.9115
  108SOL     OW  322   0.148   2.325   1.138  0.1861  0.3172  0.6837
  108SOL    HW1  323   0.156   2.239   1.086 -1.3644 -1.6221 -0.1815
  108SOL    HW2  324   0.146   2.412   1.085 -0.1869 -0.8553 -2.4305
  109SOL     OW  325   2.304   2.258   0.819 -0.7292 -0.0291  0.1670
  109SOL    HW1  326   2.263   2.204   0.744  0.6208  0.9471  0.3939
  109SOL    HW2  327   2.255   2.346   0.817 -2.0604  1.2572  1.4535
  110SOL     OW  328   1.203   1.713   1.970 -0.3961  0.2308  0.3958
  110SOL    HW1  329   1.154   1.623   1.951  1.6050 -1.5996 -0.6556
  110SOL    HW2  330   1.150   1.789   1.931 -3.0533  0.1566  1.5350
  111SOL     OW  331   1.605   2.289   2.278  0.1205 -0.1192 -0.1049
  111SOL    HW1  332   1.634   2.307   2.181 -3.6080 -2.4878  0.2269
  111SOL    HW2  333   1.685   2.288   2.341  2.3435 -2.9202  1.8926
  112SOL     OW  334   1.313   2.037   2.859 -0.2196 -0.0868  0.4485
  112SOL    HW1  335   1.291   2.016   2.954  1.7760  2.2071 -2.2755
  112SOL    HW2  336   1.407   2.006   2.841  1.7848  3.1510 -1.4570
  113SOL     OW  337   1.842   1.995   1.772 -0.2609  0.5601 -0.2994
  113SOL    HW1  338   1.782   1.910   1.795  0.4756  0.9244  1.4592
  113SOL    HW2  339   1.854   2.052   1.853 -2.5603 -1.2558 -1.0683
  114SOL     OW  340   0.100   1.201   1.459  0.0890  0.2980  0.2571
  114SOL    HW1  341   0.121   1.228   1.365 -1.4483 -2.1575 -3.5991
  114SOL    HW2  342   3.111   1.187   1.474 -0.7848 -0.3594  3.0687
  115SOL     OW  343   0.708   0.770   0.139 -0.1894 -0.5893  0.2537
  115SOL    HW1  344   0.634   0.750   0.070 -1.2941 -1.1250 -2.5504
  115SOL    HW2  345   0.746   0.688   0.191 -2.2609 -1.1765 -1.6024
  116SOL     OW  346   2.522   1.665   2.309 -0.0790  0.1131  0.1320
  116SOL    HW1  347   2.546   1.696   2.215  0.3716  2.0310 -0.0080
  116SOL    HW2  348   2.543   1.566   2.320 -0.7112  2.3195 -1.6936
  117SOL     OW  349   3.051   2.506   0.290  0.1515  0.0333  0.2626
  117SOL    HW1  350   0.018   2.545   0.337  0.4560  1.1758 -1.4344
  117SOL    HW2  351   2.993   2.458   0.353  0.3378 -0.0190  0.8657
  118SOL     OW  352   0.679   1.772   2.662  0.1323 -0.2408  0.0242
  118SOL    HW1  353   0.619   1.803   2.743 -0.0860  1.4562 -0.6585
  118SOL    HW2  354   0.636   1.812   2.582  1.2547 -0.2961  0.2084
  119SOL     OW  355   0.793   2.365   0.428 -0.0405 -0.3863  0.0286
  119SOL    HW1  356   0.696   2.354   0.456 -0.2021  0.9351 -0.5845
  119SOL    HW2  357   0.813   2.324   0.338 -1.6901 -0.5444 -3.3522
  120SOL     OW  358   1.410   0.653   0.033 -0.6366  0.0873 -0.7058
  120SOL    HW1  359   1.467   0.591   0.092 -0.0817 -1.1016  1.4570
  120SOL    HW2  360   1.314   0.655   0.064  0.4888 -0.3661 -3.0584
  121SOL     OW  361   1.202   2.244   0.915 -0.0709 -0.3152  0.1804
  121SOL    HW1  362   1.128   2.207   0.975 -1.5166  0.3388  1.5167
  121SOL    HW2  363   1.228   2.182   0.839 -0.1177 -1.0907 -0.3264
  122SOL     OW  364   2.728   2.148   1.907 -0.4656 -0.1777 -0.2322
  122SOL    HW1  365   2.794   2.076   1.896 -2.0197 -0.7657 -0.8644
  122SOL    HW2  366   2.646   2.101   1.933  2.3794 -0.6812 -1.9062
  123SOL     OW  367   1.234   1.721   0.710 -0.1167 -0.0021 -0.1155
  123SOL    HW1  368   1.217   1.791   0.780 -1.1135 -0.4515 -1.9683
  123SOL    HW2  369   1.324   1.679   0.729 -2.7786 -0.4578  0.7776
  124SOL     OW  370   2.898   0.898   0.408  0.1053  0.1853 -0.1771
  124SOL    HW1  371   2.919   0.999   0.416  0.4835 -0.6959  1.0750
  124SOL    HW2  372   2.873   0.870   0.313 -0.0317  3.8412  3.4031
  125SOL     OW  373   0.142   0.421   0.194  0.2591  0.4496 -0.2374
  125SOL    HW1  374   0.118   0.456   0.289 -1.2856 -0.2556  0.2141
  125SOL    HW2  375   0.226   0.466   0.160 -1.6774 -0.5333 -0.7442
  126SOL     OW  376   0.190   1.691   0.722  0.3349  0.3567 -0.1535
  126SOL    HW1  377   0.241   1.766   0.673 -2.2783  0.6727  1.8173
  126SOL    HW2  378   0.151   1.723   0.815 -1.0435  0.3644  3.9829
  127SOL     OW  379   1.278   2.582   1.495  0.0494 -0.2834  0.3040
  127SOL    HW1  380   1.214   2.507   1.518 -2.6851 -2.3060  0.5016
  127SOL    HW2  381   1.228   2.642   1.430 -0.7789 -0.3948 -1.4339
  128SOL     OW  382   1.222   1.461   0.037  0.8850 -0.4511  0.5067
  128SOL    HW1  383   1.230   1.529   3.073  0.2006  2.1372 -2.4078
  128SOL    HW2  384   1.294   1.389   0.036  0.2947  0.5335  1.7653
  129SOL     OW  385   1.897   2.119   1.406 -0.2184  0.1405 -0.2143
  129SOL    HW1  386   1.851   2.095   1.315 -1.7537 -2.2798 -1.9047
  129SOL    HW2  387   1.955   2.203   1.398 -1.0616 -1.3980 -1.0915
  130SOL     OW  388   1.991   1.932   1.567  0.1759 -0.6204 -0.4278
  130SOL    HW1  389   1.927   1.945   1.651  2.2305  2.4338 -0.7520
  130SOL    HW2  390   1.959   1.994   1.493 -2.3392 -0.0562 -0.1376
  131SOL     OW  391   2.948   2.664   2.462  0.1401 -0.1707 -0.2473
  131SOL    HW1  392   2.900   2.741   2.414 -1.6684 -2.1953 -1.9555
  131SOL    HW2  393   2.894   2.599   2.505  1.6398  1.7786 -3.9966
  132SOL     OW  394   0.007   2.150   0.529 -0.3303 -0.1754  0.2015
  132SOL    HW1  395   0.105   2.143   0.557 -0.6582 -1.1950 -1.2648
  132SOL    HW2  396   3.059   2.097   0.587  2.4053  2.9015 -1.8945
  133SOL     OW  397   0.556   0.184   2.095 -0.8251 -0.0794 -0.1382
  133SOL    HW1  398   0.572   0.264   2.032 -1.0396  0.5372  1.9686
  133SOL    HW2  399   0.485   0.215   2.154  0.2610 -0.0353 -4.5184
  134SOL     OW  400   2.868   1.937   0.242 -0.1932 -0.3197  0.1527
  134SOL    HW1  401   2.929   2.016   0.261 -0.7856 -3.2908  0.7901
  134SOL    HW2  402   2.802   1.928   0.321 -0.5260 -0.9912  1.8847
  135SOL     OW  403   1.722   1.081   2.584 -0.2174  0.4015 -0.4009
  135SOL    HW1  404   1.627   1.043   2.575  2.8500  0.7033  0.7846
  135SOL    HW2  405   1.722   1.184   2.586 -1.2965 -1.8376 -0.1026
  136SOL     OW  406   2.553   1.784   0.922  0.9090 -0.3621  0.2520
  136SOL    HW1  407   2.468   1.809   0.871  0.8608 -0.4515  1.4899
  136SOL    HW2  408   2.603   1.866   0.960  1.5803  1.2069  0.2452
  137SOL     OW  409   2.823   1.729   0.838  1.0354  0.0452 -0.1306
  137SOL    HW1  410   2.822   1.660   0.766  0.5989 -1.8682 -0.9057
  137SOL    HW2  411   2.728   1.761   0.863  0.6268  0.4677 -0.5132
  138SOL     OW  412   2.850   0.444   1.067 -0.5497 -0.5459  0.4648
  138SOL    HW1  413   2.761   0.471   1.115  0.3137 -0.2789  0.4252
  138SOL    HW2  414   2.870   0.502   0.980 -0.3557  3.9811 -3.8341
  139SOL     OW  415   2.952   2.695   2.932  0.2125 -0.5015  0.1379
  139SOL    HW1  416   2.957   2.593   2.953  0.8469  1.1404 -1.0643
  139SOL    HW2  417   3.038   2.733   2.886  0.8889 -1.5325 -1.3566
  140SOL     OW  418   0.812   1.741   1.820 -0.3333 -0.2906 -0.1385
  140SOL    HW1  419   0.828   1.728   1.921 -1.5942 -1.4030  2.1673
  140SOL    HW2  420   0.895   1.745   1.763 -1.0730 -0.5588  0.6016
  141SOL     OW  421   1.467   1.872   0.817 -0.4654 -0.8251 -0.1979
  141SOL    HW1  422   1.528   1.830   0.748  1.9790  3.1972  1.6776
  141SOL    HW2  423   1.460   1.818   0.904 -1.0115 -0.1587  0.6897
  142SOL     OW  424   1.093   0.802   1.079  0.5151  0.4665  0.6094
  142SOL    HW1  425   1.023   0.829   1.012  2.7494 -1.3089 -0.6132
  142SOL    HW2  426   1.152   0.876   1.112 -1.6540 -0.2198  0.3024
  143SOL     OW  427   0.673   1.142   3.018  0.3085 -0.1848 -0.0632
  143SOL    HW1  428   0.583   1.187   3.008 -0.5411 -1.7024 -2.6324
  143SOL    HW2  429   0.667   1.056   3.065 -0.2097  1.6081  0.5650
  144SOL     OW  430   1.953   2.721   0.976 -0.0061  0.1663  0.9003
  144SOL    HW1  431   1.931   2.781   0.901 -0.1476 -0.7965  1.9310
  144SOL    HW2  432   1.865   2.706   1.028 -0.2859  0.9659  0.0387
  145SOL     OW  433   2.209   0.710   2.675  0.3630  0.2668  0.7433
  145SOL    HW1  434   2.190   0.766   2.756  0.5016  1.7250 -0.7199
  145SOL    HW2  435   2.302   0.677   2.675 -2.8304 -1.0221 -1.2485
  146SOL     OW  436   2.870   2.514   0.677 -0.5810 -0.0857 -0.2691
  146SOL    HW1  437   2.870   2.561   0.766  2.6137  1.1477 -2.1447
  146SOL    HW2  438   2.862   2.580   0.597 -0.1980  4.0879 -0.4620
  147SOL     OW  439   1.232   0.975   2.413 -0.4318 -0.0126  0.5380
  147SOL    HW1  440   1.197   1.073   2.404 -1.2971  2.3174 -0.6730
  147SOL    HW2  441   1.222   0.941   2.321  0.1054 -1.1877  4.0035
  148SOL     OW  442   1.009   0.479   2.409 -0.2739  0.4701 -0.4816
  148SOL    HW1  443   1.048   0.552   2.349 -1.4101  1.7933  3.1362
  148SOL    HW2  444   1.012   0.387   2.362 -0.9895 -0.8533 -1.4351
  149SOL     OW  445   1.985   0.021   2.235 -0.4945 -0.3846  0.3437
  149SOL    HW1  446   1.978   3.094   2.143 -0.6205 -3.4656 -0.9903
  149SOL    HW2  447   2.039   3.071   2.295 -1.5612  1.1512  1.9043
  150SOL     OW  448   2.549   2.716   0.112 -0.4668  0.3953 -0.0044
  150SOL    HW1  449   2.513   2.735   0.020 -1.2006 -2.1482 -0.6723
  150SOL    HW2  450   2.623   2.780   0.125 -1.1267 -3.2952 -0.0619
  151SOL     OW  451   0.445   1.305   2.953 -0.0181 -0.4438 -0.3901
  151SOL    HW1  452   0.375   1.312   3.019  0.7852 -1.0620 -1.3745
  151SOL    HW2  453   0.497   1.391   2.957 -2.2990  0.0447  1.8092
  152SOL     OW  454   3.015   0.232   1.093 -0.0515 -0.0233  0.2874
  152SOL    HW1  455   2.965   0.320   1.069 -1.4109  3.2119 -1.4110
  152SOL    HW2  456   3.113   0.243   1.066  0.1256  1.8960 -0.0237
  153SOL     OW  457   2.466   3.098   1.726 -0.1716  0.1693  0.1483
  153SOL    HW1  458   2.443   3.017   1.787  0.0898 -0.6059  2.1457
  153SOL    HW2  459   2.378   0.022   1.683 -0.6386  0.3133 -1.5953
  154SOL     OW  460   2.004   0.498   2.174  0.2295  0.9220  0.2997
  154SOL    HW1  461   1.998   0.561   2.252 -0.2727 -1.5867 -1.4167
  154SOL    HW2  462   1.909   0.494   2.135 -0.9892 -0.6103  0.0520
  155SOL     OW  463   0.079   1.550   0.280  0.3322 -0.4000 -0.1445
  155SOL    HW1  464   0.165   1.563   0.336  1.2662  1.0225  1.1347
  155SOL    HW2  465   3.113   1.593   0.324  0.8051 -1.3399  2.1566
  156SOL     OW  466   2.948   1.598   0.090  0.2175  0.2014 -0.1943
  156SOL    HW1  467   2.917   1.683   0.041 -2.4951 -0.8593  0.8270
  156SOL    HW2  468   2.999   1.621   0.175 -0.9340  2.9162  1.3483
  157SOL     OW  469   0.627   0.143   0.610  0.2933  0.1406  0.5158
  157SOL    HW1  470   0.590   0.048   0.630 -1.9766  0.2908 -0.8873
  157SOL    HW2  471   0.701   0.169   0.671 -3.0744  2.0142 -1.9789
  158SOL     OW  472   2.309   0.845   1.564  0.2560 -0.3405 -0.3413
  158SOL    HW1  473   2.295   0.943   1.588  0.7398  0.3797  1.3163
  158SOL    HW2  474   2.357   0.794   1.641 -3.0601  1.5721 -0.1574
  159SOL     OW  475   0.148   0.292   0.593 -0.0734 -0.4893 -0.1105
  159SOL    HW1  476   0.063   0.241   0.612 -2.3163  2.0755  0.6406
  159SOL    HW2  477   0.132   0.386   0.556 -0.5400 -0.0534  0.0589
  160SOL     OW  478   2.176   2.350   1.867  0.1259  0.2308  0.3041
  160SOL    HW1  479   2.209   2.370   1.963  0.7404  0.1088  2.8306
  160SOL    HW2  480   2.075   2.353   1.860  2.1061 -4.7438  1.5680
  161SOL     OW  481   0.000   0.822   2.500 -0.4162 -0.0523  0.5195
  161SOL    HW1  482   0.082   0.768   2.466 -1.4349  0.2519 -0.6655
  161SOL    HW2  483   0.040   0.908   2.544  1.2352 -0.6098  0.5378
  162SOL     OW  484   0.589   2.859   1.467  0.0599  0.2767  0.2743
  162SOL    HW1  485   0.638   2.941   1.508  1.9414  2.0826 -0.6705
  162SOL    HW2  486   0.653   2.807   1.408 -1.1192 -0.3044  0.3408
  163SOL     OW  487   2.888   0.196   2.473 -0.0123 -0.6002  0.0585
  163SOL    HW1  488   2.815   0.140   2.425 -1.3814  0.8128  0.6090
  163SOL    HW2  489   2.950   0.235   2.404  0.6311  0.6785  0.4352
  164SOL     OW  490   2.182   1.817   0.113 -0.2092  0.1300  0.3300
  164SOL    HW1  491   2.231   1.822   0.205 -1.9771 -2.7695 -0.8619
  164SOL    HW2  492   2.237   1.776   0.038  1.5600  0.5809  4.2350
  165SOL     OW  493   0.007   0.175   1.520 -0.4643 -0.2505  0.5742
  165SOL    HW1  494   0.040   0.122   1.603  0.5642  1.2634  2.9887
  165SOL    HW2  495   3.022   0.171   1.517  2.4972  0.1867  2.1631
  166SOL     OW  496   1.979   0.829   0.758  0.7057 -0.0003  0.0982
  166SOL    HW1  497   2.006   0.920   0.785 -2.7058 -1.0894 -0.6703
  166SOL    HW2  498   1.937   0.834   0.663  1.0734  1.7930 -0.6884
  167SOL     OW  499   2.546   1.014   3.104 -0.4992  0.4115 -0.0119
  167SOL    HW1  500   2.492   0.937   3.067  0.4525 -0.6803 -0.9832
  167SOL    HW2  501   2.530   1.023   0.094 -1.3699 -1.4607  3.1280
  168SOL     OW  502   1.706   0.421   2.856  0.7896 -0.1616  0.0426
  168SOL    HW1  503   1.746   0.490   2.919 -1.3079  0.9316 -0.0683
  168SOL    HW2  504   1.741   0.330   2.883 -0.0311 -1.7623 -0.3005
  169SOL     OW  505   0.319   1.464   0.840  0.6052  0.0991  0.1684
  169SOL    HW1  506   0.340   1.484   0.934 -1.6686 -2.0875 -0.5187
  169SOL    HW2  507   0.257   1.536   0.804  0.2199 -0.3170 -1.4826
  170SOL     OW  508   3.043   0.914   0.999  0.7209 -0.2840 -0.2638
  170SOL    HW1  509   3.063   0.897   1.095 -2.1630 -0.0263 -0.7516
  170SOL    HW2  510   0.020   0.904   0.949  0.5627  0.8831 -1.3511
  171SOL     OW  511   2.440   2.041   2.233 -0.5370  0.1740 -0.2440
  171SOL    HW1  512   2.471   1.977   2.306  1.3022  0.9960 -1.2159
  171SOL    HW2  513   2.487   2.028   2.142  0.6554 -1.7814  1.5992
  172SOL     OW  514   0.530   1.989   1.223  0.3938 -0.7479 -0.0837
  172SOL    HW1  515   0.538   2.082   1.176 -0.0487  0.4431  1.0205
  172SOL    HW2  516   0.622   1.959   1.255 -2.0692  2.0259 -2.8380
  173SOL     OW  517   1.505   1.565   2.876 -0.2567 -0.6391 -0.1118
  173SOL    HW1  518   1.564   1.484   2.848 -0.1742 -2.0927 -0.6776
  173SOL    HW2  519   1.464   1.612   2.796  2.5270  0.0785  2.8202
  174SOL     OW  520   1.353   0.794   2.921 -0.0278 -0.3168  0.0663
  174SOL    HW1  521   1.372   0.733   3.001 -0.3662 -0.6530 -0.7615
  174SOL    HW2  522   1.404   0.760   2.840 -1.4746 -0.6490 -0.7895
  175SOL     OW  523   1.413   1.445   1.313  0.0051  0.1429 -0.5990
  175SOL    HW1  524   1.390   1.506   1.391  1.7851 -0.3172 -0.6477
  175SOL    HW2  525   1.375   1.351   1.328  1.3940 -1.4328  0.3128
  176SOL     OW  526   1.329   0.009   0.593  0.2870 -0.1565  0.1461
  176SOL    HW1  527   1.367   3.037   0.555 -1.9441  0.1559 -1.2386
  176SOL    HW2  528   1.384   0.094   0.582 -0.9511  0.6617 -0.7484
  177SOL     OW  529   0.235   0.801   0.121 -0.4183 -0.6572 -0.4169
  177SOL    HW1  530   0.135   0.794   0.142 -0.0149  1.0289  1.6242
  177SOL    HW2  531   0.292   0.717   0.119  3.1497  1.0063 -1.0494
  178SOL     OW  532   2.641   2.419   2.330  0.3386  0.1814  0.6043
  178SOL    HW1  533   2.697   2.392   2.410 -1.6111  1.8031 -2.4049
  178SOL    HW2  534   2.694   2.402   2.247  1.0364  0.2231  2.0413
  179SOL     OW  535   3.079   0.154   2.669  0.6658  0.2345 -0.2957
  179SOL    HW1  536   3.034   0.132   2.756 -2.0517 -2.1561  0.6058
  179SOL    HW2  537   3.003   0.156   2.599 -1.3892 -1.3965 -1.2736
  180SOL     OW  538   2.138   0.446   0.969  0.7496  0.1398 -0.1596
  180SOL    HW1  539   2.204   0.426   1.042 -0.3592  0.1684  1.3372
  180SOL    HW2  540   2.116   0.547   0.966  0.3189 -0.9520 -1.9593
  181SOL     OW  541   2.127   0.920   2.549  0.1052 -0.4240  0.1039
  181SOL    HW1  542   2.142   0.828   2.591  0.0790  1.2167  1.6250
  181SOL    HW2  543   2.037   0.952   2.581 -2.8351  2.7172  0.2907
  182SOL     OW  544   2.736   2.358   2.090  0.1118  0.3160  0.2616
  182SOL    HW1  545   2.822   2.407   2.088 -1.6408 -1.1397  0.4472
  182SOL    HW2  546   2.735   2.273   2.028 -0.0911  1.2694  1.4380
  183SOL     OW  547   2.121   0.731   1.866 -0.2973 -0.7492  0.2084
  183SOL    HW1  548   2.093   0.630   1.853 -0.7034  0.7041  0.0832
  183SOL    HW2  549   2.219   0.743   1.837  1.9423 -1.1488 -0.2875
  184SOL     OW  550   0.170   1.539   1.166  0.8231  0.0860  0.4233
  184SOL    HW1  551   0.146   1.441   1.154 -1.7421 -0.0099 -1.5457
  184SOL    HW2  552   0.145   1.573   1.259 -0.0830  1.1274 -1.9643
  185SOL     OW  553   2.198   3.085   0.984  0.0760  0.5318 -0.5755
  185SOL    HW1  554   2.165   0.062   0.947 -2.6021  1.3249  0.1149
  185SOL    HW2  555   2.298   3.077   0.984  1.5903  0.5686 -0.1957
  186SOL     OW  556   2.453   2.618   2.788  0.2350 -0.9349 -0.0675
  186SOL    HW1  557   2.455   2.687   2.861  1.4672  0.0827  0.4803
  186SOL    HW2  558   2.454   2.526   2.824  1.1126  1.4672  1.6264
  187SOL     OW  559   0.306   1.331   0.530 -0.0241 -0.0061  0.6026
  187SOL    HW1  560   0.256   1.267   0.474  1.1470  0.3989  0.5892
  187SOL    HW2  561   0.341   1.294   0.614 -2.0810  3.2552 -2.5618
  188SOL     OW  562   2.272   1.324   1.286 -0.0933  0.6000  0.0362
  188SOL    HW1  563   2.359   1.358   1.328  3.1737  0.0967  0.1698
  188SOL    HW2  564   2.256   1.354   1.193 -1.1740  2.2114  1.3500
  189SOL     OW  565   0.148   0.472   2.187 -0.1134 -0.0814 -0.5185
  189SOL    HW1  566   0.177   0.553   2.248 -0.3894  2.9209  2.5411
  189SOL    HW2  567   0.049   0.477   2.149 -0.3990  1.9768 -0.4596
  190SOL     OW  568   1.845   0.881   1.892 -0.3190 -0.4499  0.6539
  190SOL    HW1  569   1.798   0.935   1.821  0.8403  0.0854  0.0831
  190SOL    HW2  570   1.945   0.886   1.887 -1.2965 -0.7634  0.8350
  191SOL     OW  571   1.067   0.277   2.088 -0.2407 -0.2189 -0.5473
  191SOL    HW1  572   1.009   0.210   2.039 -0.1834  0.0383 -1.4132
  191SOL    HW2  573   1.081   0.257   2.183  1.3085 -0.9394 -0.6386
  192SOL     OW  574   1.103   1.961   1.914 -1.0535 -0.3319 -0.0908
  192SOL    HW1  575   1.185   2.020   1.891  1.8520  0.8312  4.1317
  192SOL    HW2  576   1.029   2.016   1.956 -0.5041 -0.0621 -0.5990
  193SOL     OW  577   1.303   0.340   0.790 -0.8999  0.6908  0.2486
  193SOL    HW1  578   1.221   0.399   0.798 -2.2589  1.9955  0.5328
  193SOL    HW2  579   1.275   0.246   0.821 -0.5997 -1.9270 -0.1300
  194SOL     OW  580   1.008   2.134   1.589 -0.1753  0.5113  0.1645
  194SOL    HW1  581   0.916   2.127   1.544  2.0907  0.4255  1.7564
  194SOL    HW2  582   1.085   2.120   1.526 -0.3047  1.6645  1.5662
  195SOL     OW  583   1.473   0.433   0.330 -0.4859  0.6157  0.5216
  195SOL    HW1  584   1.498   0.514   0.381 -1.9641  0.0557 -2.1643
  195SOL    HW2  585   1.523   0.418   0.241  2.3522 -1.3742 -3.1372
  196SOL     OW  586   0.808   1.416   2.189  0.0833  0.0674  0.8025
  196SOL    HW1  587   0.831   1.419   2.092  2.5239 -0.9156  2.3173
  196SOL    HW2  588   0.868   1.348   2.241 -3.8212 -1.7827  0.5055
  197SOL     OW  589   0.938   0.527   1.584 -0.0247  0.3623  0.4018
  197SOL    HW1  590   1.014   0.565   1.643  0.6172 -0.5029 -0.7686
  197SOL    HW2  591   0.970   0.483   1.495 -1.4786 -0.3168  0.9379
  198SOL     OW  592   0.703   0.876   1.019  0.1527 -0.0636  0.4223
  198SOL    HW1  593   0.786   0.893   0.960 -1.8088  2.4653  1.2261
  198SOL    HW2  594   0.675   0.964   1.052  1.3047 -4.3227  0.1510
  199SOL     OW  595   0.504   2.338   1.512  0.1805 -1.0692  0.0314
  199SOL    HW1  596   0.448   2.256   1.523  1.2253  1.9925  0.4843
  199SOL    HW2  597   0.474   2.402   1.438  0.1991  0.1040 -1.2273
  200SOL     OW  598   1.694   1.171   2.189  0.5999 -1.0992 -0.1094
  200SOL    HW1  599   1.696   1.207   2.096  0.9115  0.7596  0.0967
  200SOL    HW2  600   1.678   1.073   2.187 -0.8971  0.9637  0.4263
  201SOL     OW  601   0.725   2.004   1.819  0.4759  0.0319 -0.1393
  201SOL    HW1  602   0.734   1.903   1.800 -1.4946  0.0355  0.5134
  201SOL    HW2  603   0.624   2.028   1.816  0.2144  0.2698  0.0474
  202SOL     OW  604   1.279   2.941   0.265 -0.5454 -0.3609 -0.0165
  202SOL    HW1  605   1.289   3.046   0.267  3.0846  2.4967  1.4874
  202SOL    HW2  606   1.205   2.908   0.326  0.4721 -3.2528 -1.2648
  203SOL     OW  607   1.563   0.096   2.205  0.4782  0.0386 -0.0495
  203SOL    HW1  608   1.510   0.014   2.166 -0.9151  0.1137  2.3926
  203SOL    HW2  609   1.617   0.069   2.286  1.2346  1.2805  1.0895
  204SOL     OW  610   0.640   1.570   1.655  0.1442 -0.2870 -0.3888
  204SOL    HW1  611   0.699   1.642   1.701 -2.3135  2.1607 -0.4006
  204SOL    HW2  612   0.639   1.478   1.694 -0.9254  1.2051 -1.0455
  205SOL     OW  613   2.225   1.192   2.542  0.0479  0.0485  0.8047
  205SOL    HW1  614   2.227   1.095   2.504  2.2179 -2.8761 -3.8841
  205SOL    HW2  615   2.267   1.264   2.479  4.0689  0.7593 -0.2267
  206SOL     OW  616   0.097   1.642   2.320  0.0120 -0.1636 -0.6018
  206SOL    HW1  617   0.108   1.733   2.362 -2.1036 -3.0682 -0.7804
  206SOL    HW2  618   0.155   1.573   2.359 -1.8842  0.2727 -0.5428
  207SOL     OW  619   1.056   2.859   1.534  0.2681  0.2042  0.2705
  207SOL    HW1  620   1.026   2.797   1.609 -2.1984  0.0534 -0.7534
  207SOL    HW2  621   1.010   2.949   1.539  1.7223 -2.8749 -1.0299
  208SOL     OW  622   0.466   2.507   1.307  0.2611 -0.1938 -0.5542
  208SOL    HW1  623   0.457   2.558   1.393  0.9814 -1.0763 -0.8697
  208SOL    HW2  624   0.419   2.551   1.226  0.5967 -0.2535 -0.6312
  209SOL     OW  625   1.087   2.843   0.416 -0.3114 -0.5616 -0.5079
  209SOL    HW1  626   1.107   2.755   0.459 -0.4081  2.0100 -0.0835
  209SOL    HW2  627   1.056   2.906   0.489  1.2341 -0.3187 -0.2051
  210SOL     OW  628   2.741   1.367   0.991 -0.2885  0.2353 -0.1066
  210SOL    HW1  629   2.838   1.336   0.982 -3.6129  0.5919 -2.5566
  210SOL    HW2  630   2.671   1.309   0.946 -1.1998 -0.0610  0.2727
  211SOL     OW  631   0.750   0.861   1.699  0.5940  0.2179  0.5253
  211SOL    HW1  632   0.691   0.779   1.680 -0.8760  0.6077 -2.3492
  211SOL    HW2  633   0.841   0.835   1.738  0.2597 -0.0388 -0.9998
  212SOL     OW  634   1.590   2.237   1.787  0.0278 -0.1166  0.1722
  212SOL    HW1  635   1.535   2.278   1.709  0.9149 -1.3914 -1.3086
  212SOL    HW2  636   1.688   2.226   1.760  1.0933 -0.3995 -0.1410
  213SOL     OW  637   2.855   0.197   1.609 -0.5089  0.3162 -0.2619
  213SOL    HW1  638   2.814   0.264   1.544  0.5384 -1.5348  0.8929
  213SOL    HW2  639   2.790   0.124   1.640  0.8142 -0.9805  1.0787
  214SOL     OW  640   1.046   2.637   1.734  0.4093 -0.6176 -0.9354
  214SOL    HW1  641   1.097   2.564   1.684  1.1212  2.3777  0.1363
  214SOL    HW2  642   1.105   2.692   1.794 -1.0958 -0.2454  0.5988
  215SOL     OW  643   2.604   1.869   1.431  0.1759 -0.2730  0.2874
  215SOL    HW1  644   2.522   1.930   1.432 -0.9782  0.1840 -0.2984
  215SOL    HW2  645   2.589   1.800   1.355  1.4245 -1.6367  0.3662
  216SOL     OW  646   0.335   0.962   1.845  0.3760 -0.2473  0.1882
  216SOL    HW1  647   0.289   0.897   1.911 -0.2311 -0.8188 -0.2913
  216SOL    HW2  648   0.299   0.949   1.750 -0.3655  2.5941  0.6478
  217SOL     OW  649   2.811   0.112   1.220 -0.0080  0.6512  0.0898
  217SOL    HW1  650   2.742   0.185   1.244  0.9317  2.1812  0.1168
  217SOL    HW2  651   2.883   0.158   1.156  1.1558 -1.0133 -1.7657
  218SOL     OW  652   1.374   2.303   1.321 -0.5094 -0.0113 -0.0513
  218SOL    HW1  653   1.443   2.333   1.248  3.2117  1.0005 -3.3815
  218SOL    HW2  654   1.292   2.357   1.305  5.2775  0.7392 -2.8492
  219SOL     OW  655   1.422   2.885   0.490 -0.3431 -0.4438 -0.7767
  219SOL    HW1  656   1.456   2.789   0.509 -1.4595 -0.3718  3.0535
  219SOL    HW2  657   1.378   2.885   0.399  0.4487 -1.6444  0.9123
  220SOL     OW  658   1.601   2.460   0.009  0.6169 -0.0317  0.5008
  220SOL    HW1  659   1.548   2.536   0.055  0.2437  1.0023 -0.2809
  220SOL    HW2  660   1.680   2.502   3.071  0.1333 -0.1214  0.8508
  221SOL     OW  661   2.775   2.108   0.799 -0.3918  0.3856  0.3659
  221SOL    HW1  662   2.697   2.084   0.737  1.1597  1.2709  0.9042
  221SOL    HW2  663   2.861   2.072   0.752  0.0195 -4.0147 -0.0662
  222SOL     OW  664   0.913   2.054   0.646 -0.6017  0.4641 -0.3678
  222SOL    HW1  665   0.911   2.146   0.689  0.6082  0.9881  2.6345
  222SOL    HW2  666   0.829   2.034   0.593 -0.2483 -0.3590  1.0912
  223SOL     OW  667   1.076   2.990   2.650 -0.5030  0.9881 -0.5677
  223SOL    HW1  668   1.044   3.082   2.624  1.3485 -0.8716  2.1905
  223SOL    HW2  669   1.008   2.908   2.641 -3.7710 -0.8668  0.2315
  224SOL     OW  670   2.708   1.047   1.135  0.8666 -0.2364 -0.0198
  224SOL    HW1  671   2.753   0.996   1.061  0.0513 -0.6157  2.1578
  224SOL    HW2  672   2.604   1.045   1.121  0.8987  0.1459  0.3397
  225SOL     OW  673   2.818   1.718   1.105 -0.0206 -0.2643  0.3203
  225SOL    HW1  674   2.853   1.689   1.013 -3.2637 -0.4224 -1.6881
  225SOL    HW2  675   2.785   1.815   1.094 -1.8617  0.8531  0.4877
  226SOL     OW  676   1.173   2.597   0.971  0.1029 -0.2373 -0.3103
  226SOL    HW1  677   1.086   2.544   0.958  1.1048 -1.2283 -1.3406
  226SOL    HW2  678   1.242   2.528   1.001 -1.4366 -0.9978 -0.0786
  227SOL     OW  679   1.229   1.213   1.330 -0.1869 -0.0275  0.6134
  227SOL    HW1  680   1.189   1.163   1.409 -0.1778 -0.9275 -0.1747
  227SOL    HW2  681   1.154   1.241   1.270  3.5716 -0.2090  1.9043
  228SOL     OW  682   1.561   0.288   2.011 -0.9332  0.0359  0.1108
  228SOL    HW1  683   1.574   0.208   2.078  5.2655 -0.1658 -0.6154
  228SOL    HW2  684   1.461   0.304   1.992 -1.0950  0.0842  2.0351
  229SOL     OW  685   2.821   0.844   2.448 -0.0117 -0.2735  0.2893
  229SOL    HW1  686   2.767   0.879   2.529 -0.9035 -2.7547 -2.1759
  229SOL    HW2  687   2.922   0.840   2.471  0.4619  0.3439  1.5055
  230SOL     OW  688   0.301   1.192   0.769 -0.0427  0.4064 -0.4124
  230SOL    HW1  689   0.206   1.166   0.739 -0.0872  1.7557 -2.0301
  230SOL    HW2  690   0.297   1.288   0.801  0.5995  0.5579 -0.8531
  231SOL     OW  691   2.242   0.007   2.730 -0.1506  0.5086  0.6180
  231SOL    HW1  692   2.217   3.028   2.696  0.9772  3.8875 -1.3070
  231SOL    HW2  693   2.231   0.074   2.649  2.7042  2.5740 -1.2257
  232SOL     OW  694   0.448   1.600   3.007  0.4796  0.0202  0.6845
  232SOL    HW1  695   0.455   1.568   3.102  0.4619 -2.2502 -2.6976
  232SOL    HW2  696   0.353   1.627   2.979 -0.9281  1.4263  0.6631
  233SOL     OW  697   1.316   2.698   2.877 -0.7499 -0.2702  0.1602
  233SOL    HW1  698   1.312   2.735   2.974  0.4934  0.5325  1.1565
  233SOL    HW2  699   1.339   2.778   2.820 -0.2044 -0.1156 -1.1818
  234SOL     OW  700   1.089   1.462   1.916  0.2306  0.0638  0.2895
  234SOL    HW1  701   1.188   1.434   1.926  1.8293  1.3877 -0.1566
  234SOL    HW2  702   1.028   1.379   1.923 -0.8417  3.9208  0.2676
  235SOL     OW  703   0.364   1.903   1.685  0.9814 -0.2488  0.2870
  235SOL    HW1  704   0.365   1.891   1.586  2.1642 -1.1962 -0.8346
  235SOL    HW2  705   0.390   1.821   1.737 -2.5887  2.5256 -4.6163
  236SOL     OW  706   1.619   2.215   2.861 -0.0901 -0.2667  0.1727
  236SOL    HW1  707   1.676   2.194   2.942 -2.2210  4.1314  0.9101
  236SOL    HW2  708   1.542   2.280   2.889  0.6379  3.2554  2.7071
  237SOL     OW  709   1.547   0.388   0.918  0.5465  0.7243  0.8015
  237SOL    HW1  710   1.553   0.486   0.949 -0.1260 -2.3314  0.6939
  237SOL    HW2  711   1.465   0.367   0.861  0.0138 -2.2382  0.6767
  238SOL     OW  712   1.011   0.341   2.640  0.3538 -0.5983  0.2508
  238SOL    HW1  713   0.970   0.248   2.625  1.3740 -0.9220 -1.6908
  238SOL    HW2  714   1.002   0.392   2.551 -0.6663  1.9414 -2.4282
  239SOL     OW  715   0.723   3.066   1.589  0.5824 -0.0576 -0.0889
  239SOL    HW1  716   0.685   0.029   1.648  1.1287 -1.7753  0.7563
  239SOL    HW2  717   0.805   3.092   1.536  2.0604 -2.4101  0.6028
  240SOL     OW  718   2.374   2.625   0.838  0.5338  0.1993 -0.4400
  240SOL    HW1  719   2.357   2.637   0.742  0.9119 -1.8426  1.1357
  240SOL    HW2  720   2.314   2.679   0.900 -1.0180 -0.2306 -2.1075
  241SOL     OW  721   1.146   1.441   1.627  0.1956 -0.2374 -0.2835
  241SOL    HW1  722   1.066   1.441   1.564  0.4262 -1.4405  2.0973
  241SOL    HW2  723   1.119   1.459   1.723  0.6174  2.2584  0.1620
  242SOL     OW  724   2.784   0.624   0.489 -0.3842 -0.2135  0.3928
  242SOL    HW1  725   2.812   0.717   0.456  1.9268  1.3126 -0.7195
  242SOL    HW2  726   2.822   0.559   0.424  0.5586 -1.7484  0.6493
  243SOL     OW  727   0.654   0.748   1.244 -0.3828  0.2858  0.2975
  243SOL    HW1  728   0.724   0.794   1.300  0.7019 -0.2024 -1.9247
  243SOL    HW2  729   0.672   0.766   1.146 -1.5300 -0.1593  1.1995
  244SOL     OW  730   1.044   0.474   0.017 -0.5939 -0.4351 -0.2463
  244SOL    HW1  731   0.944   0.489   0.027  1.5356 -0.6212  0.0874
  244SOL    HW2  732   1.057   0.415   3.045  2.6631 -0.9499 -1.7540
  245SOL     OW  733   2.169   0.330   0.060  0.1146  0.1512  0.1520
  245SOL    HW1  734   2.214   0.337   3.078  0.2453 -1.6150 -2.0716
  245SOL    HW2  735   2.194   0.240   0.101  1.3871  1.6956  1.5141
  246SOL     OW  736   0.808   0.883   1.407 -0.4179  0.7193  0.1523
  246SOL    HW1  737   0.771   0.875   1.506 -0.2870  1.6039  0.7851
  246SOL    HW2  738   0.904   0.856   1.413 -2.7507 -0.5857  1.9702
  247SOL     OW  739   0.738   2.944   2.042 -0.0118  0.5188  0.1323
  247SOL    HW1  740   0.643   2.983   2.052 -0.3980  0.7385 -0.8125
  247SOL    HW2  741   0.802   3.007   2.088 -1.8603  1.2434  0.3368
  248SOL     OW  742   0.144   1.633   1.871  0.3771  0.3640 -0.0634
  248SOL    HW1  743   0.078   1.612   1.797 -0.8627 -2.9331 -0.7334
  248SOL    HW2  744   0.228   1.680   1.833 -0.3305  0.3286  2.6352
  249SOL     OW  745   3.103   3.026   3.062 -0.3283 -0.0617  0.1281
  249SOL    HW1  746   0.052   3.095   3.017  0.4012 -1.1615 -3.3655
  249SOL    HW2  747   0.044   2.960   0.002 -1.1812 -0.5145  0.1024
  250SOL     OW  748   2.879   0.189   0.389 -0.5222 -0.3251 -0.7459
  250SOL    HW1  749   2.816   0.105   0.394  0.6112 -1.8315  0.1282
  250SOL    HW2  750   2.959   0.173   0.330  0.7802  0.6944 -0.7686
  251SOL     OW  751   0.631   1.387   0.953  0.5548 -0.4926 -0.1238
  251SOL    HW1  752   0.547   1.445   0.979  1.0716  1.8115  0.3390
  251SOL    HW2  753   0.637   1.355   0.853  0.3928  1.1077 -0.1421
  252SOL     OW  754   1.581   2.858   1.483 -0.2006  0.3209  0.1197
  252SOL    HW1  755   1.617   2.906   1.563 -1.1287 -2.0127 -1.3602
  252SOL    HW2  756   1.524   2.779   1.523 -4.3687 -1.1118 -0.0906
  253SOL     OW  757   2.038   2.147   2.835  0.0285  0.1381 -0.4417
  253SOL    HW1  758   2.098   2.235   2.833  1.5629  2.5797  0.8131
  253SOL    HW2  759   2.091   2.074   2.882  0.6063  0.2584  2.7199
  254SOL     OW  760   0.403   1.647   1.797  0.3811  0.3504 -0.3835
  254SOL    HW1  761   0.466   1.608   1.723  1.6981 -0.9933  0.4048
  254SOL    HW2  762   0.448   1.671   1.884 -0.7009 -0.7139 -1.3142
  255SOL     OW  763   0.949   3.106   1.417  0.3774 -0.4050  0.2239
  255SOL    HW1  764   1.017   3.102   1.339  3.2381 -1.9293 -0.0021
  255SOL    HW2  765   0.982   0.065   1.487 -0.3787 -0.0260  1.5534
  256SOL     OW  766   2.498   2.204   1.028 -0.0482  0.4454  0.0920
  256SOL    HW1  767   2.597   2.225   1.011 -0.5945  3.0572  2.4428
  256SOL    HW2  768   2.447   2.221   0.942 -0.2411 -0.7702  1.2115
  257SOL     OW  769   0.337   2.172   3.082 -0.3542 -0.0492 -0.0816
  257SOL    HW1  770   0.412   2.171   0.038  1.1624 -0.9904 -1.3214
  257SOL    HW2  771   0.365   2.211   2.993 -2.1341 -1.7657 -0.2146
  258SOL     OW  772   0.972   2.152   2.467 -0.2975  0.1499 -0.3127
  258SOL    HW1  773   0.893   2.201   2.515 -1.7388  0.9355  1.1480
  258SOL    HW2  774   1.054   2.147   2.530  0.2345  0.0052  0.8640
  259SOL     OW  775   0.905   1.911   2.741  0.1473  0.0315  0.4999
  259SOL    HW1  776   0.816   1.876   2.706 -1.1703  2.7307 -0.1942
  259SOL    HW2  777   0.913   1.887   2.843  1.5781 -1.4096  1.1446
  260SOL     OW  778   2.089   1.301   1.960  0.3311  0.1454 -0.3058
  260SOL    HW1  779   2.099   1.400   1.944 -0.8251  3.4051 -1.6864
  260SOL    HW2  780   2.026   1.280   2.038 -0.9304 -1.5042  2.0519
  261SOL     OW  781   1.306   0.742   0.826  0.0336 -0.0473  0.8546
  261SOL    HW1  782   1.236   0.672   0.861  0.3279  0.7754  1.3751
  261SOL    HW2  783   1.262   0.836   0.833 -1.1376  0.0796  0.6724
  262SOL     OW  784   1.656   2.180   2.594 -0.2667  0.3523 -0.6140
  262SOL    HW1  785   1.757   2.195   2.577 -0.2957  0.3400  0.0452
  262SOL    HW2  786   1.635   2.207   2.690  0.6734  1.2941 -0.1019
  263SOL     OW  787   0.153   1.531   0.043  0.0815 -0.1523 -0.5449
  263SOL    HW1  788   0.117   1.559   0.137 -4.3923  0.3791  1.4914
  263SOL    HW2  789   0.222   1.460   0.047 -0.8149 -0.9938 -2.7106
  264SOL     OW  790   0.628   2.098   0.590 -0.2987 -0.2314 -0.1279
  264SOL    HW1  791   0.566   2.177   0.604  2.3406  2.5575  0.9050
  264SOL    HW2  792   0.627   2.038   0.668  0.3340  2.9774 -0.1408
  265SOL     OW  793   0.525   1.203   0.209  0.0530 -0.4541 -0.1603
  265SOL    HW1  794   0.556   1.115   0.252  0.4259 -1.6583 -0.7427
  265SOL    HW2  795   0.602   1.267   0.199 -1.9414 -2.7653  0.7181
  266SOL     OW  796   1.116   1.686   2.958  0.0198  0.2498 -0.0716
  266SOL    HW1  797   1.131   1.700   2.856 -1.4519 -0.5624  1.7924
  266SOL    HW2  798   1.049   1.750   3.000 -1.1983 -0.4977 -0.0572
  267SOL     OW  799   0.883   0.774   2.377  0.4353  0.1823 -0.1754
  267SOL    HW1  800   0.957   0.713   2.339  0.5875 -2.4226 -0.5015
  267SOL    HW2  801   0.904   0.807   2.472 -0.4058  3.3947  1.0959
  268SOL     OW  802   0.399   0.744   2.582 -0.6165 -0.3813  0.0452
  268SOL    HW1  803   0.482   0.760   2.526 -0.3780 -1.7471  0.2465
  268SOL    HW2  804   0.408   0.782   2.677 -3.3304  2.4625  0.9689
  269SOL     OW  805   1.953   3.007   2.764 -0.3314  0.0216 -0.5463
  269SOL    HW1  806   1.875   3.067   2.739 -1.8892 -1.1417 -1.4342
  269SOL    HW2  807   1.945   2.928   2.706 -1.6177  1.3803  0.7750
  270SOL     OW  808   1.031   1.525   2.494  0.2162  0.3537 -0.5902
  270SOL    HW1  809   0.976   1.456   2.546 -0.3991 -0.9616 -0.2490
  270SOL    HW2  810   1.106   1.570   2.550 -0.1652  1.7770 -0.3465
  271SOL     OW  811   0.163   0.139   2.947 -0.2226 -0.0737 -0.6194
  271SOL    HW1  812   0.217   0.083   2.879  1.0377 -0.1150 -0.6576
  271SOL    HW2  813   0.219   0.174   3.024  0.0458  3.5216  2.6406
  272SOL     OW  814   2.310   0.622   0.492  0.4362 -0.0342 -0.4563
  272SOL    HW1  815   2.302   0.579   0.588 -0.1748  1.1269  1.5257
  272SOL    HW2  816   2.212   0.645   0.461 -0.5935 -0.2736  2.8610
  273SOL     OW  817   0.456   2.974   1.810  0.1060 -0.2169  0.4124
  273SOL    HW1  818   0.363   3.002   1.782  0.3928 -0.6816 -1.0329
  273SOL    HW2  819   0.452   2.885   1.860 -0.8712 -1.1964  0.6025
  274SOL     OW  820   2.815   0.473   1.925 -0.1733 -0.1772  0.5014
  274SOL    HW1  821   2.894   0.473   1.854  2.3538  1.6101 -1.1388
  274SOL    HW2  822   2.747   0.397   1.907  1.4444  0.6450 -0.6373
  275SOL     OW  823   1.690   1.730   0.690  0.1491 -0.6329  0.3037
  275SOL    HW1  824   1.717   1.639   0.725  1.8328  0.8822 -1.3530
  275SOL    HW2  825   1.770   1.792   0.675  2.2411 -1.4169  1.4487
  276SOL     OW  826   0.759   1.041   2.030  0.0097  0.0255 -0.1762
  276SOL    HW1  827   0.756   0.944   2.045 -1.1088  1.5124 -0.1997
  276SOL    HW2  828   0.667   1.089   2.022 -0.2620  0.8763 -1.2108
  277SOL     OW  829   1.818   2.666   2.185  0.4240 -0.4343  0.2653
  277SOL    HW1  830   1.795   2.571   2.216  0.8952 -1.9267  1.0917
  277SOL    HW2  831   1.838   2.666   2.087 -0.6673 -0.1527 -1.5160
  278SOL     OW  832   2.069   2.917   2.376 -0.0494  0.2874 -0.0334
  278SOL    HW1  833   2.008   2.851   2.425 -3.6292 -1.6366  0.1413
  278SOL    HW2  834   2.150   2.937   2.433 -1.2444 -0.9694  1.9693
  279SOL     OW  835   1.817   1.178   0.207 -0.0889  0.5616 -0.3168
  279SOL    HW1  836   1.833   1.266   0.254 -0.0758  0.0568  0.2578
  279SOL    HW2  837   1.807   1.187   0.103 -0.2147  0.0210 -2.5492
  280SOL     OW  838   0.748   1.504   0.098 -0.1961 -0.5123  0.0563
  280SOL    HW1  839   0.838   1.523   0.138 -2.3536  1.4530 -2.2534
  280SOL    HW2  840   0.757   1.481   3.111  0.1477 -1.6951 -0.2973
  281SOL     OW  841   0.206   3.076   1.730  0.2761 -0.2912 -0.2680
  281SOL    HW1  842   0.142   3.019   1.785  1.1223 -1.3387  0.8773
  281SOL    HW2  843   0.232   0.051   1.784  0.1376  2.4273  0.2518
  282SOL     OW  844   0.061   2.334   0.838  0.0384  0.6825 -0.3412
  282SOL    HW1  845   0.034   2.361   0.746 -0.6072  0.9219  1.5850
  282SOL    HW2  846   0.087   2.418   0.895 -0.7740  0.4343 -0.2676
  283SOL     OW  847   1.436   2.055   2.169 -0.2132  0.2584 -0.2489
  283SOL    HW1  848   1.480   2.138   2.208 -1.0318  2.6744 -0.6210
  283SOL    HW2  849   1.474   1.971   2.217  2.9026 -2.8025  0.9898
  284SOL     OW  850   1.696   0.104   0.580 -0.6827 -0.0289  0.2577
  284SOL    HW1  851   1.726   0.154   0.495  1.9110 -0.0237  0.2243
  284SOL    HW2  852   1.617   0.154   0.623 -0.1288  1.0339  0.7751
  285SOL     OW  853   0.040   2.617   2.626 -0.5011  0.4102  0.1564
  285SOL    HW1  854   3.079   2.644   2.563 -1.7509  0.2227 -2.6365
  285SOL    HW2  855   0.045   2.516   2.633 -0.4214  1.1327  0.9294
  286SOL     OW  856   2.825   2.511   1.340  0.3539 -0.3091 -0.3558
  286SOL    HW1  857   2.851   2.600   1.381  0.8757  0.5476 -1.7116
  286SOL    HW2  858   2.888   2.484   1.267 -2.1434 -0.6023  0.0392
  287SOL     OW  859   0.530   1.519   0.660  0.4450  0.6397  0.0226
  287SOL    HW1  860   0.447   1.500   0.721  1.2706 -1.0799 -0.3708
  287SOL    HW2  861   0.549   1.613   0.638 -0.8025 -0.2357  1.4418
  288SOL     OW  862   2.333   1.927   2.808  0.2660  0.1500 -0.5410
  288SOL    HW1  863   2.237   1.898   2.810 -0.9055 -0.8868 -2.8089
  288SOL    HW2  864   2.402   1.850   2.795  3.9970 -2.1417 -0.7597
  289SOL     OW  865   0.174   1.667   2.941  0.5061 -0.4896 -0.2014
  289SOL    HW1  866   0.113   1.747   2.942  0.0555 -2.0293 -1.0547
  289SOL    HW2  867   0.160   1.604   3.023 -1.4707 -2.1970 -2.5318
  290SOL     OW  868   1.123   1.774   1.090 -0.5262  0.5511  0.1674
  290SOL    HW1  869   1.191   1.718   1.040 -1.1750  2.0798  2.1461
  290SOL    HW2  870   1.067   1.829   1.030  0.2538 -3.7202  0.9807
  291SOL     OW  871   1.658   1.097   2.894  0.9211  0.0145 -0.3234
  291SOL    HW1  872   1.636   1.057   2.803 -2.9274  0.7383  1.4626
  291SOL    HW2  873   1.624   1.037   2.968 -0.6941 -3.2908 -0.1217
  292SOL     OW  874   1.336   1.501   0.329 -0.5558 -0.2900 -0.0297
  292SOL    HW1  875   1.255   1.507   0.391  1.4897  0.9964  0.5438
  292SOL    HW2  876   1.310   1.493   0.233 -0.7647  0.1264  1.9947
  293SOL     OW  877   1.143   2.839   1.049 -0.1200 -0.2040 -0.3289
  293SOL    HW1  878   1.218   2.884   0.995  0.0479 -3.2242 -0.5220
  293SOL    HW2  879   1.124   2.750   1.008 -0.2089  2.2570  0.3011
  294SOL     OW  880   2.283   1.245   3.010  0.4245 -0.2275 -0.1420
  294SOL    HW1  881   2.224   1.208   2.935 -1.4799 -2.4272 -0.6696
  294SOL    HW2  882   2.383   1.238   2.996 -1.5335  0.4474 -1.2672
  295SOL     OW  883   1.380   2.087   2.550  0.1849  0.3840  0.2784
  295SOL    HW1  884   1.344   2.182   2.569 -0.5257 -0.9947  1.6735
  295SOL    HW2  885   1.482   2.085   2.542  1.5274  3.8320 -0.4504
  296SOL     OW  886   1.812   0.626   1.776 -0.4918 -0.3221 -0.1263
  296SOL    HW1  887   1.826   0.713   1.826  2.4341 -0.8212  0.0511
  296SOL    HW2  888   1.861   0.618   1.687  1.3277 -2.0844  4.3102
  297SOL     OW  889   0.199   0.520   1.879  0.4849  0.4199 -0.1288
  297SOL    HW1  890   0.185   0.485   1.974  2.0721 -2.3007  0.3636
  297SOL    HW2  891   0.111   0.559   1.837 -4.0191  0.2896  2.5711
  298SOL     OW  892   1.154   2.396   1.651 -0.1179  0.4016 -0.1829
  298SOL    HW1  893   1.085   2.328   1.618  0.8769  0.3752  2.0758
  298SOL    HW2  894   1.239   2.355   1.691  3.2930 -2.9360  1.0632
  299SOL     OW  895   1.334   2.895   2.698  0.5372  0.6225  0.3243
  299SOL    HW1  896   1.402   2.971   2.717 -1.2663 -2.1953  0.5666
  299SOL    HW2  897   1.245   2.933   2.668  1.7311  0.8405  1.2497
  300SOL     OW  898   2.979   1.065   3.044 -0.3384 -0.7025 -0.6388
  300SOL    HW1  899   2.980   1.160   3.078  1.5638 -1.5170  0.4056
  300SOL    HW2  900   3.015   1.005   0.006 -0.8450 -0.1016  2.2504
  301SOL     OW  901   1.918   1.099   1.524  0.3680 -0.1500 -0.7877
  301SOL    HW1  902   1.859   1.028   1.568 -1.1801 -0.1587  1.2615
  301SOL    HW2  903   1.950   1.160   1.600 -0.3028 -0.2451 -0.7178
  302SOL     OW  904   2.544   1.844   2.530 -0.1811  0.2536 -0.4786
  302SOL    HW1  905   2.539   1.764   2.464 -0.7474  0.2009 -0.8204
  302SOL    HW2  906   2.451   1.886   2.537  1.0747 -2.5275  0.2045
  303SOL     OW  907   0.386   2.395   2.110 -0.4272 -0.1151  0.4647
  303SOL    HW1  908   0.465   2.387   2.175  0.7468 -1.0689  0.3850
  303SOL    HW2  909   0.407   2.456   2.035 -2.0424  0.4615  0.8324
  304SOL     OW  910   0.043   0.833   1.241  0.2012  0.7972 -0.1604
  304SOL    HW1  911   0.125   0.894   1.214  2.0079 -0.9147 -0.1202
  304SOL    HW2  912   0.079   0.748   1.287  1.6996 -2.7293  0.1820
  305SOL     OW  913   2.861   0.805   1.797 -0.0003  0.2837  0.4291
  305SOL    HW1  914   2.923   0.767   1.726  1.0910  0.8322 -1.1475
  305SOL    HW2  915   2.912   0.855   1.868  0.6294  0.2561 -2.3469
  306SOL     OW  916   2.554   1.133   1.619 -0.0109 -0.3262  0.3450
  306SOL    HW1  917   2.455   1.121   1.644 -0.6792  2.1562  0.0659
  306SOL    HW2  918   2.567   1.233   1.627  1.2202 -0.2604  0.4990
  307SOL     OW  919   2.465   3.034   1.068  0.0480  0.3716 -0.2353
  307SOL    HW1  920   2.522   3.007   0.991 -1.1015  0.9173  1.0181
  307SOL    HW2  921   2.484   2.970   1.149  0.8210 -0.2746 -0.9080
  308SOL     OW  922   2.989   1.883   1.658  0.6769  0.3065  0.0274
  308SOL    HW1  923   2.990   1.930   1.745 -0.0986 -2.7084 -0.1880
  308SOL    HW2  924   2.923   1.808   1.653 -0.1828 -0.0780 -0.2702
  309SOL     OW  925   2.344   2.231   1.689 -0.3378  0.0074  0.3317
  309SOL    HW1  926   2.434   2.279   1.698  2.3914 -2.1637 -2.1201
  309SOL    HW2  927   2.265   2.285   1.731 -2.1033 -1.3117 -0.2740
  310SOL     OW  928   2.242   1.513   3.001  0.2620  0.4485 -0.6605
  310SOL    HW1  929   2.229   1.535   2.903  1.5457  0.1420  1.5674
  310SOL    HW2  930   2.233   1.410   3.006  1.0421  0.8409 -0.6673
  311SOL     OW  931   1.861   1.187   3.049  0.1880  0.6991  0.5177
  311SOL    HW1  932   1.789   1.146   2.990 -1.7601 -0.8694  2.1654
  311SOL    HW2  933   1.908   1.259   2.999 -3.9332  0.5375  2.6541
  312SOL     OW  934   1.083   2.360   2.089 -0.3529 -0.1745 -0.0097
  312SOL    HW1  935   1.093   2.286   2.159  2.0643 -1.5009 -1.9683
  312SOL    HW2  936   1.032   2.344   2.005 -1.7636 -1.7506 -1.0225
  313SOL     OW  937   0.359   0.292   0.780 -0.6189 -0.0277 -0.1456
  313SOL    HW1  938   0.284   0.287   0.711  1.4346 -0.0274 -0.9328
  313SOL    HW2  939   0.377   0.196   0.811 -2.1951 -0.3256 -1.0819
  314SOL     OW  940   0.654   1.829   0.815  0.1273  0.1031  0.3008
  314SOL    HW1  941   0.718   1.842   0.896 -0.1799  0.0602  0.4764
  314SOL    HW2  942   0.567   1.780   0.845 -0.7250 -1.3042 -1.6966
  315SOL     OW  943   0.795   2.023   2.082 -0.5471  0.1428 -0.1976
  315SOL    HW1  944   0.746   2.021   1.990 -2.2781 -0.1328 -1.0911
  315SOL    HW2  945   0.785   2.118   2.127 -2.9925  3.4623  1.2213
  316SOL     OW  946   0.369   2.007   0.854  0.1590 -0.1452 -0.0269
  316SOL    HW1  947   0.429   2.088   0.870  1.4513 -0.6979 -2.0440
  316SOL    HW2  948   0.269   2.030   0.867 -2.5496  1.9540  2.1228
  317SOL     OW  949   1.750   0.692   0.791  0.2784  0.1029  0.1731
  317SOL    HW1  950   1.829   0.749   0.763 -1.9493 -0.1645 -0.6750
  317SOL    HW2  951   1.786   0.598   0.797 -0.1418  1.9594 -1.5985
  318SOL     OW  952   2.261   2.374   0.254  0.3745 -0.2765 -0.2618
  318SOL    HW1  953   2.215   2.296   0.202  0.3207  0.2095  0.2040
  318SOL    HW2  954   2.338   2.337   0.313  0.4538 -0.0857  1.8526
  319SOL     OW  955   1.362   1.845   3.039  0.7482 -0.1443  0.3172
  319SOL    HW1  956   1.339   1.808   2.951 -0.0650  1.0427  1.0940
  319SOL    HW2  957   1.461   1.864   3.038 -1.2343  2.5108 -2.4522
  320SOL     OW  958   0.429   2.634   2.591 -0.0275 -0.2771  0.4257
  320SOL    HW1  959   0.394   2.594   2.506  0.3836 -1.1486  1.3758
  320SOL    HW2  960   0.394   2.585   2.674 -2.1573  1.2467  1.9259
  321SOL     OW  961   0.899   2.782   2.663 -0.2273  0.6772 -0.5910
  321SOL    HW1  962   0.964   2.709   2.667 -2.7400  2.8075  1.1001
  321SOL    HW2  963   0.814   2.761   2.609 -0.7339  1.8701  0.3961
  322SOL     OW  964   2.247   0.729   2.297  0.0387 -0.1991  0.3047
  322SOL    HW1  965   2.148   0.714   2.330 -2.5949 -1.4997 -1.5326
  322SOL    HW2  966   2.316   0.748   2.370 -0.2088  1.0551 -0.2864
  323SOL     OW  967   2.906   1.054   0.780  0.3037 -0.0913  0.1479
  323SOL    HW1  968   2.947   1.002   0.859 -0.8173 -1.3943  1.1275
  323SOL    HW2  969   2.831   1.003   0.737 -0.2568  1.3672 -1.2702
  324SOL     OW  970   0.422   0.729   2.105  0.1432  0.1134 -0.0865
  324SOL    HW1  971   0.455   0.660   2.031  2.2930 -0.7247 -4.0044
  324SOL    HW2  972   0.499   0.793   2.135  2.9128  0.4587  0.9765
  325SOL     OW  973   0.504   3.051   2.098 -0.8995  0.1422  0.1949
  325SOL    HW1  974   0.544   0.032   2.081  2.2001 -0.8635  1.6057
  325SOL    HW2  975   0.487   3.023   2.194 -0.1949 -0.8521 -1.2194
  326SOL     OW  976   2.662   2.277   0.278 -0.1733 -0.2990 -0.3194
  326SOL    HW1  977   2.691   2.262   0.181 -1.9187  0.6091  2.4926
  326SOL    HW2  978   2.744   2.320   0.322 -0.4228  2.0833 -0.1194
  327SOL     OW  979   2.316   1.345   0.567 -0.4939 -0.3539 -0.1491
  327SOL    HW1  980   2.249   1.371   0.489 -3.7514 -0.0429 -0.3002
  327SOL    HW2  981   2.347   1.437   0.603 -0.8955 -0.9990  0.8153
  328SOL     OW  982   2.950   1.613   2.218 -0.2149  0.4442 -0.2220
  328SOL    HW1  983   3.051   1.603   2.248  3.6709 -1.4137 -0.4400
  328SOL    HW2  984   2.937   1.618   2.111  0.4461  0.7902 -0.4510
  329SOL     OW  985   0.308   2.162   1.540 -0.9646  0.1544  0.2481
  329SOL    HW1  986   0.224   2.202   1.502  1.0888  1.0059  2.6864
  329SOL    HW2  987   0.304   2.060   1.516  0.4393 -2.4603  0.4785
  330SOL     OW  988   2.590   1.403   2.390  0.0055  0.3900  0.8137
  330SOL    HW1  989   2.693   1.400   2.378 -0.4250  0.4958  0.3489
  330SOL    HW2  990   2.559   1.305   2.401  0.5864 -1.1715 -0.7273
  331SOL     OW  991   2.661   2.582   0.901 -0.4633 -0.2996 -0.5064
  331SOL    HW1  992   2.707   2.492   0.880 -0.3329 -2.3397  1.0422
  331SOL    HW2  993   2.563   2.595   0.878  0.3430 -1.9254  2.0333
  332SOL     OW  994   0.574   2.972   0.737 -0.0796 -0.2267 -0.4876
  332SOL    HW1  995   0.521   2.914   0.670  0.4369  0.2355 -1.2243
  332SOL    HW2  996   0.625   2.915   0.803 -4.3697  3.2693 -0.2692
  333SOL     OW  997   2.264   2.872   2.568 -0.0302  0.1683 -0.0199
  333SOL    HW1  998   2.224   2.788   2.612 -0.5812 -1.0346  1.2033
  333SOL    HW2  999   2.351   2.848   2.527 -1.1129 -0.5564  1.7386
  334SOL     OW 1000   0.895   1.298   0.356  0.0875  0.5464 -0.0689
  334SOL    HW1 1001   0.926   1.236   0.432  2.8630 -0.4183 -0.5524
  334SOL    HW2 1002   0.800   1.332   0.380 -2.5224 -0.9015  1.1228
  335SOL     OW 1003   0.128   1.995   2.055  0.1798 -0.5979 -0.6408
  335SOL    HW1 1004   0.219   1.962   2.086 -3.3817 -0.1892 -0.1135
  335SOL    HW2 1005   0.127   2.100   2.056  1.3665  0.8940  0.0773
  336SOL     OW 1006   2.897   2.906   2.312 -0.7652  0.3991 -0.2763
  336SOL    HW1 1007   2.989   2.954   2.307  4.3485  1.2322 -1.9945
  336SOL    HW2 1008   2.825   2.977   2.325 -0.4103  0.4357 -1.8353
  337SOL     OW 1009   1.083   1.170   0.924 -0.3340 -0.3634 -0.3797
  337SOL    HW1 1010   1.074   1.237   0.851  1.8312  2.2119  0.0504
  337SOL    HW2 1011   1.079   1.207   1.017 -0.7233  0.2609 -2.7944
  338SOL     OW 1012   1.059   1.906   0.856  0.2710 -0.3940  0.4389
  338SOL    HW1 1013   1.117   1.978   0.807 -1.4481  1.6615 -0.9054
  338SOL    HW2 1014   0.975   1.951   0.887 -0.1924  2.3337 -1.1084
  339SOL     OW 1015   0.227   1.409   1.561 -0.0700 -0.1446 -0.0967
  339SOL    HW1 1016   0.184   1.323   1.531 -0.8522  0.3894  1.6738
  339SOL    HW2 1017   0.156   1.479   1.579  0.3802 -2.2237  0.2462
  340SOL     OW 1018   1.687   2.826   1.943  0.0310 -0.0038  0.4226
  340SOL    HW1 1019   1.772   2.856   1.993  0.2074  1.1648  0.1716
  340SOL    HW2 1020   1.600   2.854   1.987 -0.9945 -0.9615 -1.6406
  341SOL     OW 1021   1.729   1.688   1.043  1.1212  0.2271  0.2692
  341SOL    HW1 1022   1.766   1.597   1.020  1.2242 -1.0946  0.1184
  341SOL    HW2 1023   1.794   1.736   1.103 -1.8134 -1.0889  1.8948
  342SOL     OW 1024   3.003   1.329   0.957 -0.3060 -0.1497 -0.4447
  342SOL    HW1 1025   2.965   1.234   0.933 -2.1827  1.0252  1.2968
  342SOL    HW2 1026   3.038   1.381   0.878  1.2812 -1.2144 -1.2437
  343SOL     OW 1027   2.785   0.416   1.464 -0.0957  0.1232 -0.1285
  343SOL    HW1 1028   2.762   0.471   1.545  0.5620  0.9613  0.3054
  343SOL    HW2 1029   2.858   0.459   1.410  1.7293 -2.1195 -0.3167
  344SOL     OW 1030   1.701   0.271   1.131 -0.3609  0.5428  0.7055
  344SOL    HW1 1031   1.757   0.345   1.169  0.6301  2.3348  1.5156
  344SOL    HW2 1032   1.655   0.310   1.050  1.2792 -0.7385 -0.5219
  345SOL     OW 1033   0.675   2.962   2.463 -0.3057 -0.1589 -0.0937
  345SOL    HW1 1034   0.694   2.973   2.564 -2.4516  3.9163 -1.9939
  345SOL    HW2 1035   0.702   3.051   2.416  1.2899 -0.0497 -0.2666
  346SOL     OW 1036   2.409   1.587   0.617 -0.1086 -0.6920 -0.2565
  346SOL    HW1 1037   2.493   1.607   0.566 -3.7266  0.8898 -1.1573
  346SOL    HW2 1038   2.403   1.636   0.706 -1.2603 -1.1032  0.5690
  347SOL     OW 1039   2.491   0.129   1.968  0.1185  0.4795 -0.1297
  347SOL    HW1 1040   2.470   0.088   1.875 -0.4106 -0.6379 -1.9731
  347SOL    HW2 1041   2.409   0.121   2.031 -2.8399  0.6395  1.6686
  348SOL     OW 1042   1.246   1.203   1.712 -0.2347  0.1104 -0.1711
  348SOL    HW1 1043   1.208   1.141   1.639  2.2804 -0.6527 -2.1452
  348SOL    HW2 1044   1.208   1.292   1.694  0.7510  0.1110  0.0036
  349SOL     OW 1045   2.609   0.882   1.754 -0.0280 -0.1334 -0.1785
  349SOL    HW1 1046   2.699   0.864   1.801 -0.7942  0.0445 -0.2868
  349SOL    HW2 1047   2.608   0.971   1.699 -0.7349  1.0416 -0.2042
  350SOL     OW 1048   2.130   2.182   0.113 -0.1113  0.1169  0.3002
  350SOL    HW1 1049   2.069   2.259   0.090 -2.6252 -0.2872 -0.3051
  350SOL    HW2 1050   2.075   2.101   0.147  0.6034  1.6875  0.3921
  351SOL     OW 1051   0.737   0.482   2.123 -0.3850  0.1484 -0.0631
  351SOL    HW1 1052   0.827   0.440   2.143  0.4281 -1.8460 -0.0895
  351SOL    HW2 1053   0.686   0.435   2.049  0.2812  3.8772 -0.9825
  352SOL     OW 1054   2.026   2.682   1.948 -0.0380 -0.0227 -0.3706
  352SOL    HW1 1055   2.083   2.660   2.030  3.4690 -0.6807  0.4811
  352SOL    HW2 1056   2.000   2.609   1.887  2.9601  2.1441  2.6500
  353SOL     OW 1057   0.607   0.831   2.403 -0.0517  0.2102 -0.1842
  353SOL    HW1 1058   0.704   0.809   2.397 -0.2712 -0.0625  3.9034
  353SOL    HW2 1059   0.586   0.926   2.368 -1.1344 -2.9940  0.9851
  354SOL     OW 1060   0.673   1.965   3.006 -0.3361 -0.1126 -0.4904
  354SOL    HW1 1061   0.712   2.041   2.958  0.9435 -0.0652  1.2447
  354SOL    HW2 1062   0.606   1.907   2.956 -2.2662  0.3762  2.2660
  355SOL     OW 1063   1.654   2.709   1.050 -0.0692  0.2964 -0.4867
  355SOL    HW1 1064   1.626   2.793   0.997 -0.9935  2.2160 -1.7179
  355SOL    HW2 1065   1.678   2.730   1.147  1.0720 -1.2549 -2.2316
  356SOL     OW 1066   2.187   0.949   0.173  0.4049  0.4378 -0.2546
  356SOL    HW1 1067   2.227   1.045   0.180  0.5458 -0.2895 -3.2991
  356SOL    HW2 1068   2.160   0.911   0.268  0.0171 -1.6788  1.1532
  357SOL     OW 1069   3.111   0.095   2.076  0.3157  0.2901 -0.1533
  357SOL    HW1 1070   0.085   0.097   2.028 -1.4756  2.3918  2.3480
  357SOL    HW2 1071   3.033   0.092   2.013 -0.0631 -2.7739  1.0993
  358SOL     OW 1072   0.019   1.459   0.722  0.1285  0.1734 -0.0550
  358SOL    HW1 1073   0.046   1.361   0.698 -2.4859  1.2622 -0.5065
  358SOL    HW2 1074   0.088   1.535   0.706  1.0687  3.1152  0.1746
  359SOL     OW 1075   2.857   0.354   2.863 -0.1012  0.0239  0.2192
  359SOL    HW1 1076   2.952   0.375   2.905  1.8951  0.8679  0.1699
  359SOL    HW2 1077   2.865   0.387   2.765 -0.3262  0.3525  1.0273
  360SOL     OW 1078   1.265   1.019   1.125  0.1340  0.5129  0.0468
  360SOL    HW1 1079   1.364   1.010   1.088  3.2708 -0.5260  1.9744
  360SOL    HW2 1080   1.257   1.083   1.204 -0.3922  2.2618 -1.5567
  361SOL     OW 1081   2.596   2.612   1.207 -0.1260  0.6458 -0.4012
  361SOL    HW1 1082   2.668   2.564   1.261  1.3222  0.6663 -1.5111
  361SOL    HW2 1083   2.520   2.547   1.186 -1.0522  1.9798  0.9924
  362SOL     OW 1084   1.112   0.541   0.899  0.2488  0.0940  0.4394
  362SOL    HW1 1085   1.099   0.461   0.961  0.2166  0.6753 -0.0782
  362SOL    HW2 1086   1.035   0.531   0.831  2.6106  0.5762 -0.1959
  363SOL     OW 1087   1.930   1.824   0.668  0.3997  0.0652  0.9385
  363SOL    HW1 1088   1.991   1.743   0.685 -0.5202  1.3528 -0.5547
  363SOL    HW2 1089   1.984   1.897   0.615 -1.1085 -0.1110 -4.2806
  364SOL     OW 1090   0.589   0.487   1.334 -0.8641 -0.6158 -0.2187
  364SOL    HW1 1091   0.597   0.416   1.260 -0.7735 -0.1987 -0.3103
  364SOL    HW2 1092   0.595   0.585   1.297  1.4396  0.4112  1.3626
  365SOL     OW 1093   0.312   0.172   1.154 -0.2365 -0.1723  0.0302
  365SOL    HW1 1094   0.246   0.122   1.212 -0.4417 -1.0753  0.3163
  365SOL    HW2 1095   0.261   0.219   1.081  2.8003  0.0153  0.4925
  366SOL     OW 1096   2.776   1.133   0.175  0.1812 -1.2768  0.2989
  366SOL    HW1 1097   2.680   1.130   0.212 -0.2366 -2.8235  1.5263
  366SOL    HW2 1098   2.788   1.220   0.123  0.1272  1.2457  0.3943
  367SOL     OW 1099   2.196   2.628   2.677 -0.4548 -0.2617  0.1566
  367SOL    HW1 1100   2.107   2.663   2.719 -4.4402 -0.3219  0.7492
  367SOL    HW2 1101   2.272   2.616   2.744  3.2858 -0.0503  0.1583
  368SOL     OW 1102   2.304   1.827   0.794 -0.5087 -0.2882 -0.4503
  368SOL    HW1 1103   2.307   1.895   0.718  1.4346  1.8906  0.0178
  368SOL    HW2 1104   2.220   1.774   0.793  4.7545 -1.0742  0.3106
  369SOL     OW 1105   1.952   0.580   2.678  0.1733 -0.4391  0.2634
  369SOL    HW1 1106   2.044   0.622   2.686 -0.7665 -2.2123 -1.6015
  369SOL    HW2 1107   1.880   0.641   2.720  2.6502 -0.6089 -1.6443
  370SOL     OW 1108   0.557   0.306   1.145 -0.7427  0.2670 -0.3664
  370SOL    HW1 1109   0.468   0.256   1.142  0.8143 -1.4193  0.8610
  370SOL    HW2 1110   0.620   0.255   1.083  0.2116  0.3536 -1.3895
  371SOL     OW 1111   2.943   1.326   0.015 -0.1476 -0.4301 -0.3788
  371SOL    HW1 1112   2.982   1.334   3.037 -1.7650 -2.0889  1.8862
  371SOL    HW2 1113   2.936   1.422   0.047 -1.1403  1.1852 -2.7853
  372SOL     OW 1114   0.604   0.560   2.354 -0.0233 -0.1322  0.1665
  372SOL    HW1 1115   0.664   0.545   2.274  2.0798 -1.1905  2.8580
  372SOL    HW2 1116   0.592   0.658   2.386 -0.9771  0.5043  3.5364
  373SOL     OW 1117   0.721   2.955   3.096 -0.4216 -0.1573 -0.1787
  373SOL    HW1 1118   0.678   2.866   0.017  0.5464 -1.1848  0.9517
  373SOL    HW2 1119   0.655   3.031   3.072 -1.1668  0.1426 -1.4285
  374SOL     OW 1120   0.804   1.381   2.951  0.0679  0.3253 -0.1242
  374SOL    HW1 1121   0.897   1.384   2.908  0.8997 -1.9781 -1.0217
  374SOL    HW2 1122   0.783   1.282   2.955  1.7370 -1.3924 -1.3956
  375SOL     OW 1123   1.048   0.542   1.983 -0.2337 -0.5640 -0.0555
  375SOL    HW1 1124   1.074   0.546   1.885 -1.1255 -0.0916 -0.6617
  375SOL    HW2 1125   1.054   0.445   2.019  1.3462 -0.9766  0.0982
  376SOL     OW 1126   0.194   2.674   1.987 -0.0513  0.0596 -0.6727
  376SOL    HW1 1127   0.209   2.676   2.089 -0.6044 -1.6540  4.4480
  376SOL    HW2 1128   0.263   2.612   1.944 -0.4081  0.5320  2.5833
  377SOL     OW 1129   2.744   2.067   2.929 -0.0936  0.1863 -0.0898
  377SOL    HW1 1130   2.717   2.065   2.833  1.7963 -2.3641  2.3597
  377SOL    HW2 1131   2.692   1.989   2.969 -0.3895 -1.1858  2.1700
  378SOL     OW 1132   2.062   0.192   0.429  0.3505  0.4840  0.2777
  378SOL    HW1 1133   2.110   0.134   0.501  1.7722 -2.0367  3.1782
  378SOL    HW2 1134   2.127   0.263   0.392  0.1397 -1.0732  0.4008
  379SOL     OW 1135   1.616   0.639   0.469  0.4076  0.6402 -0.3824
  379SOL    HW1 1136   1.649   0.636   0.563  0.6464 -2.4719  1.6559
  379SOL    HW2 1137   1.692   0.637   0.401 -1.8995  0.9482  0.4971
  380SOL     OW 1138   2.489   2.025   1.965  0.4477 -0.1484 -0.2946
  380SOL    HW1 1139   2.451   2.097   1.906  0.5894 -3.0151  2.3772
  380SOL    HW2 1140   2.465   1.931   1.932 -1.9375  1.8152  0.8139
  381SOL     OW 1141   2.324   1.461   2.117  0.3406  0.4084  0.1873
  381SOL    HW1 1142   2.277   1.467   2.027 -0.1513  2.3098 -1.9833
  381SOL    HW2 1143   2.312   1.368   2.161  1.1650 -2.4249 -0.8125
  382SOL     OW 1144   2.810   2.482   2.767 -0.7428 -0.1487  0.5107
  382SOL    HW1 1145   2.859   2.466   2.857 -1.1067 -1.4574  3.1417
  382SOL    HW2 1146   2.756   2.569   2.759  0.1429  0.6057 -0.1844
  383SOL     OW 1147   1.028   1.192   2.989 -0.1876  0.5075 -0.2067
  383SOL    HW1 1148   0.971   1.219   3.072 -0.2784 -2.9133  0.4382
  383SOL    HW2 1149   1.051   1.273   2.929 -0.0659 -0.8467  0.2444
  384SOL     OW 1150   1.651   1.885   2.561 -0.5450 -0.0145  0.0448
  384SOL    HW1 1151   1.660   1.987   2.578 -2.3533 -1.0938  0.8570
  384SOL    HW2 1152   1.630   1.869   2.466 -0.9906 -0.4925  3.2368
  385SOL     OW 1153   1.833   2.816   0.442  0.2559 -0.1958 -0.8814
  385SOL    HW1 1154   1.762   2.866   0.504 -5.6074 -1.0963 -1.0034
  385SOL    HW2 1155   1.797   2.727   0.408  2.5537 -1.7724  2.1351
  386SOL     OW 1156   1.775   1.260   0.602 -0.3383  0.1205  0.1086
  386SOL    HW1 1157   1.723   1.176   0.583  0.1868 -0.4036 -1.4944
  386SOL    HW2 1158   1.800   1.309   0.515  0.8048  0.4959  1.9007
  387SOL     OW 1159   2.850   2.023   1.466 -0.0773 -0.4730  0.6459
  387SOL    HW1 1160   2.770   1.968   1.444  2.9826  0.6067 -1.2958
  387SOL    HW2 1161   2.908   1.977   1.534 -0.7668  0.5436 -2.0085
  388SOL     OW 1162   0.170   0.931   1.553 -0.0515 -0.5726  0.2330
  388SOL    HW1 1163   0.160   1.022   1.508 -2.3840 -1.6203  0.9531
  388SOL    HW2 1164   0.074   0.905   1.572  0.2184 -1.1828  2.2470
  389SOL     OW 1165   2.199   0.890   2.890  0.4602 -0.1249 -0.3714
  389SOL    HW1 1166   2.268   0.858   2.958 -0.3244  0.5607  0.1216
  389SOL    HW2 1167   2.118   0.920   2.939  0.3351  0.1071  1.2084
  390SOL     OW 1168   0.649   1.470   2.729  0.5451 -0.5322  0.2161
  390SOL    HW1 1169   0.685   1.463   2.826  0.4957 -1.3055  0.4804
  390SOL    HW2 1170   0.637   1.567   2.697  1.4897 -0.4039  1.1374
  391SOL     OW 1171   0.896   2.249   0.200 -0.4347 -0.0917 -0.1753
  391SOL    HW1 1172   0.825   2.248   0.130  0.6872 -1.3137  1.6360
  391SOL    HW2 1173   0.992   2.281   0.166  2.0204 -1.1484  1.4789
  392SOL     OW 1174   3.110   2.512   2.275  0.4481  0.3070  0.2757
  392SOL    HW1 1175   3.066   2.515   2.180 -0.6512  2.1119 -1.3456
  392SOL    HW2 1176   3.046   2.565   2.336  0.3448  2.6306  0.6683
  393SOL     OW 1177   1.393   2.290   0.326  0.0248  0.5689  0.0224
  393SOL    HW1 1178   1.449   2.271   0.411  1.5332 -0.0066 -1.1695
  393SOL    HW2 1179   1.441   2.262   0.245 -0.7018 -0.8200  1.0679
  394SOL     OW 1180   0.707   0.139   2.372 -0.0467 -0.0282  0.4268
  394SOL    HW1 1181   0.702   0.215   2.441 -0.3362 -2.0682  0.0205
  394SOL    HW2 1182   0.658   0.164   2.289 -2.0316  1.8519 -2.4758
  395SOL     OW 1183   0.568   1.535   1.278  0.3383  0.4731  0.1752
  395SOL    HW1 1184   0.640   1.593   1.323  0.3485  0.1549  1.5640
  395SOL    HW2 1185   0.533   1.573   1.193 -0.2233 -1.8888  0.7358
  396SOL     OW 1186   1.929   1.413   2.874 -0.1520  0.1091 -0.6422
  396SOL    HW1 1187   2.003   1.404   2.805  2.2997  1.2986 -0.6038
  396SOL    HW2 1188   1.841   1.434   2.842  3.9189  0.0811  2.9122
  397SOL     OW 1189   0.194   0.553   2.923  0.0537 -0.5061 -0.4114
  397SOL    HW1 1190   0.287   0.545   2.964 -1.0951  0.7344 -1.5072
  397SOL    HW2 1191   0.156   0.645   2.934 -2.5489  0.5640 -0.7136
  398SOL     OW 1192   0.994   2.661   0.016 -0.3579  0.1627  0.2210
  398SOL    HW1 1193   1.004   2.741   3.065  2.7736  4.3959 -0.4485
  398SOL    HW2 1194   0.969   2.576   3.074 -0.2208  1.5722 -1.6093
  399SOL     OW 1195   1.855   2.399   2.361  0.8311 -0.4608 -0.1940
  399SOL    HW1 1196   1.946   2.425   2.340 -5.3471  0.0752  1.8197
  399SOL    HW2 1197   1.849   2.386   2.464  1.2321  0.2540  0.4635
  400SOL     OW 1198   2.516   1.448   1.426 -0.3263  0.1536 -0.1645
  400SOL    HW1 1199   2.558   1.483   1.514  2.1737 -0.3541  1.2483
  400SOL    HW2 1200   2.588   1.418   1.356  1.6897 -1.7547  1.1253
  401SOL     OW 1201   1.513   1.045   1.012  0.0451 -0.2242 -0.6204
  401SOL    HW1 1202   1.543   0.979   0.939  1.9154 -2.2124 -0.9266
  401SOL    HW2 1203   1.576   1.025   1.090 -2.6389  0.9560 -0.2974
  402SOL     OW 1204   0.277   0.008   2.381  0.0146  0.1569  0.5120
  402SOL    HW1 1205   0.322   0.087   2.425 -0.4048  1.0373 -1.4336
  402SOL    HW2 1206   0.352   3.050   2.355  1.0244 -1.1633 -0.5879
  403SOL     OW 1207   2.775   1.704   1.568  0.5942  0.4180 -0.3051
  403SOL    HW1 1208   2.778   1.643   1.483 -1.0031 -2.4213 -0.0987
  403SOL    HW2 1209   2.705   1.777   1.557 -2.2555 -3.3673  3.8895
  404SOL     OW 1210   2.464   1.883   1.722 -0.4027 -0.2883  0.1788
  404SOL    HW1 1211   2.364   1.881   1.720  0.6804 -0.5048  0.9770
  404SOL    HW2 1212   2.494   1.936   1.641 -0.4104 -0.3143 -0.2607
  405SOL     OW 1213   2.221   0.232   2.526  0.4204 -0.9062  0.3565
  405SOL    HW1 1214   2.163   0.255   2.442 -2.3824  1.2554  1.2258
  405SOL    HW2 1215   2.309   0.283   2.518  0.9657  0.3909  1.7725
  406SOL     OW 1216   0.872   1.333   2.626  0.4278 -0.2178 -0.2281
  406SOL    HW1 1217   0.866   1.239   2.668 -1.5995  1.9795  0.9205
  406SOL    HW2 1218   0.785   1.386   2.648 -2.3657  0.0003  0.3547
  407SOL     OW 1219   1.760   2.434   0.805  0.5859  0.1508  0.6141
  407SOL    HW1 1220   1.825   2.431   0.882 -1.2201  2.4413 -2.7313
  407SOL    HW2 1221   1.747   2.339   0.774  1.4775 -1.6382 -1.5568
  408SOL     OW 1222   0.129   2.970   0.852 -0.2556  0.4107 -0.2691
  408SOL    HW1 1223   0.117   2.993   0.951 -2.1076 -1.0825 -0.0881
  408SOL    HW2 1224   0.047   2.985   0.802  1.1269 -0.1893  0.9441
  409SOL     OW 1225   2.043   1.405   0.843  0.1083  0.3077  0.1753
  409SOL    HW1 1226   1.964   1.409   0.907 -2.7700 -1.2026  0.6809
  409SOL    HW2 1227   2.036   1.316   0.794  1.2756  2.8212 -0.1538
  410SOL     OW 1228   2.287   2.503   3.087 -0.1791 -0.0937 -0.1981
  410SOL    HW1 1229   2.390   2.501   3.077 -2.4969 -1.6874  0.9276
  410SOL    HW2 1230   2.262   2.517   0.069  1.3747 -0.7103 -1.4449
  411SOL     OW 1231   3.026   2.883   0.434 -0.3756  0.4147  0.1786
  411SOL    HW1 1232   3.015   2.969   0.487  0.1442  1.6463  0.6475
  411SOL    HW2 1233   2.957   2.812   0.459 -1.8243  2.1064  0.2565
  412SOL     OW 1234   1.367   2.720   0.807  0.1532  0.2609  0.3655
  412SOL    HW1 1235   1.311   2.807   0.796 -0.6082 -1.9669  1.4711
  412SOL    HW2 1236   1.386   2.688   0.901  1.7102  0.8851 -2.1450
  413SOL     OW 1237   1.762   0.048   2.637 -0.1019  0.3480 -0.0936
  413SOL    HW1 1238   1.744   0.035   2.540  2.3277 -1.6411 -0.7714
  413SOL    HW2 1239   1.822   0.127   2.646  0.7052  0.9052 -3.7584
  414SOL     OW 1240   0.462   0.628   0.634  0.2357 -0.2596 -0.4163
  414SOL    HW1 1241   0.493   0.551   0.574 -0.3714  2.5306 -1.1922
  414SOL    HW2 1242   0.450   0.599   0.732  0.7008 -1.8050 -2.0566
  415SOL     OW 1243   0.210   1.008   1.137 -0.5013  0.1247 -0.1023
  415SOL    HW1 1244   0.217   0.973   1.041 -0.8658 -2.6816 -2.3307
  415SOL    HW2 1245   0.300   1.014   1.175 -4.2663  4.3297 -2.4653
  416SOL     OW 1246   0.351   0.158   0.034 -0.3161 -0.3281  0.0109
  416SOL    HW1 1247   0.406   0.231   0.082 -1.8050 -1.0681 -1.2650
  416SOL    HW2 1248   0.270   0.127   0.085 -1.8250 -0.4816 -1.6043
  417SOL     OW 1249   2.132   0.211   0.845 -0.3346 -0.0887 -0.4423
  417SOL    HW1 1250   2.134   0.304   0.891 -1.8148 -1.0556  1.4410
  417SOL    HW2 1251   2.038   0.175   0.840  0.9058  0.3886 -1.0414
  418SOL     OW 1252   0.651   0.359   2.542  0.2004 -0.0191 -0.4716
  418SOL    HW1 1253   0.692   0.413   2.626  1.8302  2.4324  2.8977
  418SOL    HW2 1254   0.637   0.423   2.468  0.0967 -1.7953 -1.7537
  419SOL     OW 1255   0.559   0.870   0.578 -0.7148 -0.2375 -0.1002
  419SOL    HW1 1256   0.535   0.773   0.594 -0.1371 -1.0608  3.2802
  419SOL    HW2 1257   0.531   0.932   0.657 -0.1514  1.2082  1.8213
  420SOL     OW 1258   2.248   1.764   1.223  0.2120 -0.0102 -0.5923
  420SOL    HW1 1259   2.273   1.861   1.187  1.0983  1.1795  1.1792
  420SOL    HW2 1260   2.333   1.716   1.254  1.1914 -0.5147  0.5718
  421SOL     OW 1261   1.119   1.744   2.695 -0.1700 -0.1831 -0.0491
  421SOL    HW1 1262   1.024   1.779   2.707  0.1228  2.0353 -0.4181
  421SOL    HW2 1263   1.177   1.791   2.623  1.5158  2.2763  0.9865
  422SOL     OW 1264   2.613   0.674   0.086 -0.1357 -0.1813  0.3026
  422SOL    HW1 1265   2.565   0.620   0.163 -0.6355 -0.1904 -0.6735
  422SOL    HW2 1266   2.701   0.617   0.069  0.3998 -0.5842  0.6711
  423SOL     OW 1267   1.944   2.062   0.493  0.2973  0.3561 -0.1901
  423SOL    HW1 1268   1.945   2.020   0.400 -3.0753 -2.0630 -3.1632
  423SOL    HW2 1269   1.849   2.052   0.528 -1.7415  0.0217  0.5066
  424SOL     OW 1270   0.372   1.628   1.435  0.4036 -0.1513 -0.5086
  424SOL    HW1 1271   0.459   1.602   1.387 -1.9892 -1.0653 -1.0369
  424SOL    HW2 1272   0.332   1.540   1.466  1.2104 -0.0231  1.0184
  425SOL     OW 1273   2.634   2.753   2.092 -0.1162  0.0110  0.2454
  425SOL    HW1 1274   2.693   2.709   2.159 -1.5449 -1.1225 -1.4514
  425SOL    HW2 1275   2.678   2.758   2.001 -0.3416 -2.4889  1.6361
  426SOL     OW 1276   1.686   2.588   0.355 -1.3053 -0.3265 -0.6182
  426SOL    HW1 1277   1.634   2.602   0.272  0.4067  1.2812  3.0627
  426SOL    HW2 1278   1.623   2.570   0.435 -0.5373 -0.9836 -0.5073
  427SOL     OW 1279   0.212   0.545   2.644 -0.6164 -0.1194 -0.1092
  427SOL    HW1 1280   0.274   0.621   2.619  0.6648 -3.5538  2.6860
  427SOL    HW2 1281   0.197   0.536   2.745  3.7675 -0.9588 -0.2718
  428SOL     OW 1282   2.141   1.191   2.783  0.3996 -0.0356 -0.0371
  428SOL    HW1 1283   2.194   1.181   2.700 -1.6798  2.0548  0.6325
  428SOL    HW2 1284   2.071   1.116   2.790  0.0756  1.8757 -0.2646
  429SOL     OW 1285   2.977   0.227   0.639  0.9329  0.1506 -0.3345
  429SOL    HW1 1286   2.949   0.245   0.542  1.8283  1.5284 -0.2252
  429SOL    HW2 1287   2.964   0.307   0.700 -2.1198 -2.6401 -0.6023
  430SOL     OW 1288   1.144   2.764   1.988  0.1402 -0.7099 -0.2605
  430SOL    HW1 1289   1.062   2.734   2.040 -3.4886  0.2954 -0.5483
  430SOL    HW2 1290   1.224   2.711   2.022  0.0972  1.1161  0.7731
  431SOL     OW 1291   3.104   2.016   1.132 -0.0031 -0.1392  0.4236
  431SOL    HW1 1292   3.008   2.052   1.131  1.1412 -0.3003  1.5961
  431SOL    HW2 1293   0.024   1.988   1.222 -4.3640 -0.2909 -2.9986
  432SOL     OW 1294   2.393   2.867   2.152 -0.1833 -0.0171  0.4516
  432SOL    HW1 1295   2.485   2.822   2.134  1.1857 -0.5558  1.1477
  432SOL    HW2 1296   2.411   2.959   2.191  0.8642 -1.5037  1.1577
  433SOL     OW 1297   1.103   2.068   0.006  0.2661  0.3416 -0.6454
  433SOL    HW1 1298   1.163   2.142   3.090 -0.1769 -1.0257 -1.1886
  433SOL    HW2 1299   1.152   2.019   0.080  0.9384 -0.2727 -1.4346
  434SOL     OW 1300   0.100   2.349   2.591 -0.7485  0.4649 -0.0373
  434SOL    HW1 1301   0.025   2.309   2.533  0.3670  0.7081  0.0742
  434SOL    HW2 1302   0.146   2.278   2.648 -0.4229  1.1577  0.7669
  435SOL     OW 1303   0.050   1.175   0.687  0.2568 -0.2493  0.1947
  435SOL    HW1 1304   0.062   1.166   0.587 -3.3538 -2.2217  3.1953
  435SOL    HW2 1305   3.086   1.116   0.710  0.1692  3.5831 -0.3252
  436SOL     OW 1306   0.866   2.474   1.897  0.0148 -0.4025 -0.3424
  436SOL    HW1 1307   0.926   2.537   1.852 -2.6986 -3.0779 -1.3470
  436SOL    HW2 1308   0.881   2.378   1.873 -1.5608  2.2261 -2.5328
  437SOL     OW 1309   1.245   2.099   1.450 -0.1156  0.1298 -0.5075
  437SOL    HW1 1310   1.283   2.177   1.397 -3.0358  0.1044 -1.8349
  437SOL    HW2 1311   1.318   2.042   1.494 -0.9153  0.8836  1.4913
  438SOL     OW 1312   0.297   2.335   0.453 -0.2054 -0.1226 -0.3950
  438SOL    HW1 1313   0.276   2.329   0.354 -3.6679 -1.0560 -2.1315
  438SOL    HW2 1314   0.299   2.242   0.495 -1.0881 -2.6341 -3.0203
  439SOL     OW 1315   0.518   0.105   1.381 -0.3825 -0.4610 -0.6875
  439SOL    HW1 1316   0.460   0.056   1.316  0.3979 -1.2164 -0.4530
  439SOL    HW2 1317   0.536   0.044   1.461 -1.7999  0.7480 -3.4066
  440SOL     OW 1318   2.552   2.634   2.476 -0.1291  0.1662 -0.2028
  440SOL    HW1 1319   2.499   2.607   2.556  0.5489  2.6325 -0.5855
  440SOL    HW2 1320   2.557   2.548   2.423 -0.4673 -0.0598  0.2241
  441SOL     OW 1321   3.058   0.359   1.801 -0.3809 -0.8581 -0.8807
  441SOL    HW1 1322   3.023   0.294   1.736 -3.1361  1.1033  2.8999
  441SOL    HW2 1323   0.037   0.340   1.835 -0.0505  3.0960  0.8163
  442SOL     OW 1324   1.918   2.372   0.055  0.3274 -0.3315 -0.3948
  442SOL    HW1 1325   1.936   2.428   0.143 -0.1946  1.4944  4.1524
  442SOL    HW2 1326   1.896   2.439   3.091 -0.8725  2.0249  0.6841
  443SOL     OW 1327   0.098   0.839   2.909  0.0844 -0.4171  0.7071
  443SOL    HW1 1328   0.174   0.892   2.955 -0.9630 -1.8708 -3.0184
  443SOL    HW2 1329   0.077   0.875   2.818 -2.3199 -3.4938  3.2460
  444SOL     OW 1330   1.601   1.390   2.333  0.1357  0.5096 -0.2001
  444SOL    HW1 1331   1.636   1.307   2.292  1.7811 -1.1666  1.5793
  444SOL    HW2 1332   1.620   1.468   2.273  1.7504 -1.9154  3.3127
  445SOL     OW 1333   0.128   2.593   0.986  0.6432  0.3908 -0.0520
  445SOL    HW1 1334   0.065   2.630   1.058 -0.7062 -0.4033  1.1301
  445SOL    HW2 1335   0.178   2.665   0.940 -0.0222  1.5001  3.4906
  446SOL     OW 1336   2.861   1.588   1.329 -0.2742  0.6477 -0.0349
  446SOL    HW1 1337   2.805   1.503   1.328 -0.4532  1.1325  1.6193
  446SOL    HW2 1338   2.859   1.649   1.246  0.1117 -1.3106 -0.5137
  447SOL     OW 1339   0.208   0.747   0.554  0.4704 -0.4539  1.0689
  447SOL    HW1 1340   0.215   0.819   0.477 -0.6037  2.2923 -3.9471
  447SOL    HW2 1341   0.300   0.709   0.581 -1.4069 -3.8789 -0.0341
  448SOL     OW 1342   1.391   2.093   1.900 -0.0352 -0.3118 -0.3579
  448SOL    HW1 1343   1.461   2.128   1.835 -0.7547 -1.4734 -2.3346
  448SOL    HW2 1344   1.415   2.083   1.994 -0.1487  0.7198 -1.9674
  449SOL     OW 1345   1.017   1.511   0.233  0.3871  0.7548  0.1016
  449SOL    HW1 1346   0.993   1.426   0.291  0.8337 -1.6774  0.9880
  449SOL    HW2 1347   1.054   1.469   0.151 -0.4018 -0.5536  1.9215
  450SOL     OW 1348   0.011   2.266   1.825 -0.2574  0.2655 -1.1866
  450SOL    HW1 1349   0.052   2.179   1.791  0.9211  0.4821 -1.8052
  450SOL    HW2 1350   3.067   2.304   1.752  0.6731 -1.5431  0.4189
  451SOL     OW 1351   2.500   0.946   2.769  0.0232  0.0267 -0.0461
  451SOL    HW1 1352   2.401   0.943   2.803 -3.3254  0.8438 -2.0953
  451SOL    HW2 1353   2.573   0.926   2.835 -1.5726 -0.5537 -1.0424
  452SOL     OW 1354   1.590   0.648   1.044 -0.7468 -0.0770  0.1004
  452SOL    HW1 1355   1.648   0.690   0.971 -0.9774 -0.7591 -1.7163
  452SOL    HW2 1356   1.640   0.644   1.132 -0.7885  1.3161  0.1651
  453SOL     OW 1357   1.637   0.998   1.246 -0.2979  0.9828  0.4048
  453SOL    HW1 1358   1.561   0.933   1.274 -0.8006  0.5081 -0.2644
  453SOL    HW2 1359   1.663   1.069   1.316  1.2362  0.6427 -2.3200
  454SOL     OW 1360   2.867   1.167   0.449  0.1363 -0.3050  0.6815
  454SOL    HW1 1361   2.812   1.229   0.506 -0.6990 -1.4480 -2.9811
  454SOL    HW2 1362   2.849   1.177   0.347  1.7698 -0.6872  0.5380
  455SOL     OW 1363   2.354   2.662   1.522  0.0339 -0.0410 -0.1714
  455SOL    HW1 1364   2.345   2.748   1.571 -0.2845  0.3952  0.9936
  455SOL    HW2 1365   2.337   2.669   1.417  0.0858 -0.1451  0.2519
  456SOL     OW 1366   0.221   2.769   1.281  0.2140  0.2015  0.1901
  456SOL    HW1 1367   0.264   2.821   1.358 -0.6005 -3.3133 -1.5621
  456SOL    HW2 1368   0.117   2.781   1.288 -0.6671 -1.7691 -1.5442
  457SOL     OW 1369   1.180   2.918   0.725  0.1315  0.0680 -0.0968
  457SOL    HW1 1370   1.101   2.959   0.775  1.2464 -0.6443 -0.3751
  457SOL    HW2 1371   1.219   2.983   0.653 -1.0264  2.4377 -2.2803
  458SOL     OW 1372   2.561   2.884   1.282 -0.6255  0.3402 -0.0266
  458SOL    HW1 1373   2.652   2.920   1.306  1.1507 -1.1360 -0.0279
  458SOL    HW2 1374   2.571   2.784   1.248 -0.7916 -0.7839  1.1954
  459SOL     OW 1375   2.599   0.440   2.919 -0.0161  0.1207 -0.1289
  459SOL    HW1 1376   2.610   0.537   2.942 -2.5621 -0.7686 -2.1028
  459SOL    HW2 1377   2.689   0.401   2.891  1.9752  0.9733  2.0712
  460SOL     OW 1378   2.559   2.484   3.088  0.1064  0.3250 -0.0201
  460SOL    HW1 1379   2.555   2.559   0.045  0.4751 -1.1518 -0.1153
  460SOL    HW2 1380   2.634   2.422   3.102 -1.4683  1.7197 -1.8338
  461SOL     OW 1381   0.822   1.605   0.489  0.2057 -0.0317  0.3099
  461SOL    HW1 1382   0.876   1.622   0.405 -1.4942 -0.4747 -0.7321
  461SOL    HW2 1383   0.765   1.520   0.468 -2.9517 -0.2455 -3.8247
  462SOL     OW 1384   2.085   2.139   0.985  0.2781  0.0038 -0.2408
  462SOL    HW1 1385   2.027   2.221   1.009  0.3508 -1.8016 -2.2055
  462SOL    HW2 1386   2.177   2.167   0.943  1.1411  0.8183 -0.1696
  463SOL     OW 1387   2.576   1.187   0.854 -0.2698  0.0598  0.0533
  463SOL    HW1 1388   2.585   1.092   0.813 -2.0312 -5.8498  3.2931
  463SOL    HW2 1389   2.476   1.206   0.869  1.6083  0.7690 -0.8971
  464SOL     OW 1390   0.933   3.017   0.823 -0.0230  0.3676 -0.8242
  464SOL    HW1 1391   0.913   3.066   0.735  0.4433 -1.0372  2.2986
  464SOL    HW2 1392   0.851   2.975   0.863  1.4180  0.5046  1.7264
  465SOL     OW 1393   2.207   1.436   0.289 -0.3296 -0.1371 -0.4808
  465SOL    HW1 1394   2.133   1.484   0.248  1.5149 -2.2310  1.3168
  465SOL    HW2 1395   2.292   1.496   0.292  0.4110  1.1686 -1.5137
  466SOL     OW 1396   2.081   0.178   2.876 -0.7331  0.7124 -0.0088
  466SOL    HW1 1397   2.028   0.234   2.814  0.7083 -1.7347 -0.1453
  466SOL    HW2 1398   2.134   0.114   2.815  1.5249  1.1333  0.0185
  467SOL     OW 1399   1.103   1.059   1.530  0.1945  0.3981 -0.0178
  467SOL    HW1 1400   1.099   0.963   1.496 -1.3890 -0.2195  1.5631
  467SOL    HW2 1401   1.018   1.079   1.586 -2.3315  3.1985 -2.4012
  468SOL     OW 1402   0.615   1.132   2.341  0.0116  0.2916 -0.5589
  468SOL    HW1 1403   0.603   1.159   2.243 -0.1355 -2.1105 -0.6455
  468SOL    HW2 1404   0.564   1.191   2.402  1.1891  1.2643 -0.7456
  469SOL     OW 1405   0.519   2.220   0.155 -0.2486  0.2333  0.4684
  469SOL    HW1 1406   0.582   2.288   0.108  0.8020  1.3041 -1.0015
  469SOL    HW2 1407   0.564   2.146   0.206 -4.3750  1.3237 -3.7702
  470SOL     OW 1408   2.559   1.280   2.998  0.5392  0.5159  0.3708
  470SOL    HW1 1409   2.567   1.191   3.047  0.6879  2.0526 -1.1381
  470SOL    HW2 1410   2.618   1.352   3.045 -1.6164 -0.9796  1.2387
  471SOL     OW 1411   2.564   1.121   2.246  0.1733 -0.0902 -0.0842
  471SOL    HW1 1412   2.667   1.113   2.261 -1.0252  2.0685  0.6736
  471SOL    HW2 1413   2.541   1.103   2.148 -1.3366  0.1333  0.1912
  472SOL     OW 1414   0.443   2.788   0.573  0.6212  0.0333  0.0275
  472SOL    HW1 1415   0.398   2.695   0.566 -3.3780 -0.4857 -0.7978
  472SOL    HW2 1416   0.534   2.776   0.535 -1.6770  0.3120  2.0664
  473SOL     OW 1417   0.575   0.062   2.997  0.2365  0.2786  0.0170
  473SOL    HW1 1418   0.474   0.075   3.014  0.7241  1.8475  1.0631
  473SOL    HW2 1419   0.614   0.125   2.923  0.0725  0.0084  2.8704
  474SOL     OW 1420   1.759   0.489   2.027  0.3136  0.6162 -0.0596
  474SOL    HW1 1421   1.773   0.520   1.931 -0.3883 -1.2996  0.4941
  474SOL    HW2 1422   1.694   0.412   2.028 -1.9674 -0.1001  0.5756
  475SOL     OW 1423   1.112   2.394   0.125 -0.3040 -0.3220  0.1398
  475SOL    HW1 1424   1.177   2.351   0.059  2.3272 -1.1528 -0.6400
  475SOL    HW2 1425   1.166   2.444   0.192  1.0850 -0.9058  0.9745
  476SOL     OW 1426   0.518   1.035   0.797 -0.1657  0.1133 -0.0862
  476SOL    HW1 1427   0.536   1.025   0.897  1.3294  1.3213 -1.8578
  476SOL    HW2 1428   0.439   1.103   0.783 -3.0486  0.2432  0.6330
  477SOL     OW 1429   1.716   2.506   1.350 -0.3098  0.2423 -0.0078
  477SOL    HW1 1430   1.657   2.464   1.426 -3.1541  0.7362  1.0287
  477SOL    HW2 1431   1.657   2.529   1.269 -0.0842  0.5686  0.2458
  478SOL     OW 1432   0.530   1.511   2.247 -0.2816  0.3012  0.7208
  478SOL    HW1 1433   0.622   1.483   2.212  0.9751  1.3804 -0.3933
  478SOL    HW2 1434   0.518   1.484   2.347  0.0245 -1.2299 -0.4429
  479SOL     OW 1435   0.032   3.094   1.094 -0.6662  0.6900 -0.1146
  479SOL    HW1 1436   0.093   3.106   1.178 -0.3961  0.0783 -1.6738
  479SOL    HW2 1437   3.093   0.065   1.078  1.8586 -0.9998 -1.1528
  480SOL     OW 1438   2.759   3.054   0.379  0.1351  0.0294 -0.2151
  480SOL    HW1 1439   2.765   3.027   0.477  1.5500 -3.3770  2.5787
  480SOL    HW2 1440   2.789   2.977   0.325 -0.6318 -0.7126 -0.1904
  481SOL     OW 1441   2.802   2.781   1.031  0.4315  0.6037 -0.4336
  481SOL    HW1 1442   2.741   2.710   0.987  3.8746  1.9158  3.6056
  481SOL    HW2 1443   2.751   2.830   1.102 -0.1973 -1.3216 -0.1954
  482SOL     OW 1444   1.387   2.453   2.222  0.2623 -0.3146  0.4348
  482SOL    HW1 1445   1.310   2.400   2.191  2.9236  0.2161 -0.4086
  482SOL    HW2 1446   1.451   2.390   2.275 -0.1128 -0.9101  2.3451
  483SOL     OW 1447   0.339   1.751   2.576  0.5403  0.0123 -0.1593
  483SOL    HW1 1448   0.432   1.794   2.548  4.0729  1.5166 -2.5610
  483SOL    HW2 1449   0.265   1.821   2.559 -0.2896  0.7406  0.2401
  484SOL     OW 1450   1.169   1.253   2.383  0.8478  0.4669  0.1436
  484SOL    HW1 1451   1.069   1.258   2.367  2.7439 -2.7522  0.9627
  484SOL    HW2 1452   1.217   1.338   2.355 -0.3158  0.2179  1.3337
  485SOL     OW 1453   2.622   0.300   0.403 -0.0538  0.2218 -0.2984
  485SOL    HW1 1454   2.588   0.285   0.497 -0.1526 -0.2836 -0.7857
  485SOL    HW2 1455   2.721   0.284   0.390 -1.8071  1.7225 -1.0825
  486SOL     OW 1456   1.648   2.945   0.898  0.3412 -0.0358  0.0830
  486SOL    HW1 1457   1.698   3.016   0.951 -0.6830  0.1141  1.5178
  486SOL    HW2 1458   1.661   2.959   0.796  0.7749  1.0514  0.7338
  487SOL     OW 1459   0.557   2.202   0.859 -0.6943 -0.5201 -0.1660
  487SOL    HW1 1460   0.658   2.212   0.874  0.3359  1.0168  0.4971
  487SOL    HW2 1461   0.529   2.244   0.772  1.0919  2.0058  2.9787
  488SOL     OW 1462   2.279   1.211   0.147 -0.8890  0.5046  0.0302
  488SOL    HW1 1463   2.226   1.291   0.189  1.2915  0.0224  1.2327
  488SOL    HW2 1464   2.268   1.209   0.045  0.9991  0.3877 -0.5885
  489SOL     OW 1465   1.372   2.989   0.953  0.9534  0.2278 -0.0974
  489SOL    HW1 1466   1.373   3.046   1.041 -0.5419  2.5734  2.3861
  489SOL    HW2 1467   1.466   2.955   0.927  0.1948 -1.0823 -0.5770
  490SOL     OW 1468   0.979   1.163   0.144  0.2850  0.0894 -0.0719
  490SOL    HW1 1469   1.072   1.127   0.164  0.0756 -0.2182  0.7440
  490SOL    HW2 1470   0.940   1.217   0.219  0.0141 -1.2309 -2.4744
  491SOL     OW 1471   0.707   2.911   0.946  0.4887  0.4274  0.0070
  491SOL    HW1 1472   0.640   2.955   1.013 -1.6216  3.3523  0.0802
  491SOL    HW2 1473   0.712   2.809   0.966 -0.2755 -1.8728  1.9337
  492SOL     OW 1474   1.351   1.409   2.042 -0.3256 -0.7713 -0.3491
  492SOL    HW1 1475   1.316   1.444   2.133  2.5927  1.9550 -1.2331
  492SOL    HW2 1476   1.446   1.446   2.023  1.7102  0.1397  1.6325
  493SOL     OW 1477   0.267   2.555   0.585 -0.0377  0.3395  0.0948
  493SOL    HW1 1478   0.280   2.456   0.553 -0.1525  0.3736  1.4021
  493SOL    HW2 1479   0.230   2.609   0.506 -1.2639 -0.2002 -0.7174
  494SOL     OW 1480   2.583   1.852   3.056 -0.3096  0.6293  0.0691
  494SOL    HW1 1481   2.517   1.927   3.079  2.2584 -1.7622 -1.6051
  494SOL    HW2 1482   2.546   1.761   3.080  1.4738  2.0863  1.3820
  495SOL     OW 1483   2.715   1.507   3.096  0.4026  0.2223  0.4431
  495SOL    HW1 1484   2.705   1.545   3.003 -0.3525 -2.2551  2.1310
  495SOL    HW2 1485   2.798   1.549   0.032  2.2645 -0.0970  1.0323
  496SOL     OW 1486   2.711   3.069   1.610 -0.0115  0.2671 -0.0735
  496SOL    HW1 1487   2.628   3.104   1.666 -2.8843  2.2110  0.8116
  496SOL    HW2 1488   2.758   2.999   1.672 -0.3101  0.0702  0.3323
  497SOL     OW 1489   2.417   1.084   0.535 -0.2158 -0.6678  0.7077
  497SOL    HW1 1490   2.341   1.011   0.548 -1.3418 -0.8463 -0.6985
  497SOL    HW2 1491   2.392   1.178   0.569  0.1059 -3.6086 -0.6591
  498SOL     OW 1492   3.020   2.256   2.407 -0.0262 -0.2364 -0.1928
  498SOL    HW1 1493   3.023   2.165   2.360  1.9244 -0.5555 -0.0633
  498SOL    HW2 1494   3.054   2.324   2.343  1.6731 -2.6831  1.5529
  499SOL     OW 1495   0.875   1.997   0.289  0.3860  0.2530  0.2025
  499SOL    HW1 1496   0.938   1.918   0.264 -0.7747  0.9769  0.9467
  499SOL    HW2 1497   0.907   2.083   0.247 -3.1867  0.1697  0.3914
  500SOL     OW 1498   0.708   3.071   2.719 -0.1526  0.2666  0.0427
  500SOL    HW1 1499   0.749   3.110   2.806 -0.3135  0.7859  0.6957
  500SOL    HW2 1500   0.611   3.043   2.739  1.1364  2.0743 -1.7337
  501SOL     OW 1501   1.398   0.002   1.183  0.6786 -0.0066  0.1295
  501SOL    HW1 1502   1.445   3.092   1.270 -1.3729 -2.6118  0.2696
  501SOL    HW2 1503   1.408   0.099   1.172  3.1865  0.5491 -0.2873
  502SOL     OW 1504   3.052   0.300   2.272 -0.3831  0.1596 -0.4982
  502SOL    HW1 1505   3.112   0.330   2.352 -1.3274 -2.9571  1.9956
  502SOL    HW2 1506   3.099   0.239   2.205  0.7319 -1.5244 -0.9108
  503SOL     OW 1507   2.356   2.031   2.559  1.0730  0.4946  0.0692
  503SOL    HW1 1508   2.273   1.981   2.535  2.2823  0.1860 -1.1301
  503SOL    HW2 1509   2.376   2.027   2.659 -1.1060 -2.9493  1.1353
  504SOL     OW 1510   1.378   0.534   1.831 -0.1560 -0.0158  0.3093
  504SOL    HW1 1511   1.350   0.438   1.868 -0.5707 -0.9128  0.5469
  504SOL    HW2 1512   1.468   0.519   1.782  0.6317 -0.6125  1.3048
  505SOL     OW 1513   2.918   0.864   1.343 -0.0711  0.4589 -0.3438
  505SOL    HW1 1514   2.927   0.954   1.392 -1.2839 -0.3173 -1.8729
  505SOL    HW2 1515   3.010   0.849   1.303 -1.1176  1.1422 -0.4082
  506SOL     OW 1516   0.481   1.125   2.084 -0.3454 -0.1752  0.3191
  506SOL    HW1 1517   0.420   1.199   2.116  1.1588 -0.9571  1.9195
  506SOL    HW2 1518   0.432   1.061   2.019 -2.5391  2.5565 -1.6452
  507SOL     OW 1519   0.429   2.907   2.336  0.0830  0.1064  0.3019
  507SOL    HW1 1520   0.503   2.884   2.399 -0.7071 -1.5670 -0.3852
  507SOL    HW2 1521   0.374   2.827   2.310  2.5519  5.8451 -1.3878
  508SOL     OW 1522   1.426   0.865   1.330 -0.3059  0.0917  0.2559
  508SOL    HW1 1523   1.339   0.883   1.383  1.2337 -1.8231  1.5722
  508SOL    HW2 1524   1.399   0.803   1.254  2.3240 -1.2286 -1.0275
  509SOL     OW 1525   0.999   1.797   1.589 -0.0527  0.2420 -0.4501
  509SOL    HW1 1526   1.017   1.883   1.635  1.4627 -1.5698 -0.0804
  509SOL    HW2 1527   1.051   1.802   1.504  0.4938  1.3683  2.0217
  510SOL     OW 1528   2.474   0.879   2.437 -0.4193  0.1634  0.5339
  510SOL    HW1 1529   2.470   0.886   2.539 -0.4988 -1.7136  0.3323
  510SOL    HW2 1530   2.523   0.960   2.401  1.2422 -1.7700 -1.9298
  511SOL     OW 1531   0.823   1.549   0.996  0.2265 -0.1820  0.1455
  511SOL    HW1 1532   0.864   1.570   0.904 -0.0973 -3.1071  1.1922
  511SOL    HW2 1533   0.740   1.490   0.995  1.3131  5.1293  0.5146
  512SOL     OW 1534   2.577   2.101   0.602  0.3917 -0.5767 -0.0514
  512SOL    HW1 1535   2.477   2.078   0.591 -1.1526 -0.3991 -1.4513
  512SOL    HW2 1536   2.593   2.204   0.595  0.2288  1.7673  2.1447
  513SOL     OW 1537   2.742   1.596   2.827  0.3636  0.0210  0.3515
  513SOL    HW1 1538   2.709   1.510   2.783  1.9581  2.6119  0.6369
  513SOL    HW2 1539   2.838   1.604   2.789 -1.0295  0.5110 -0.4641
  514SOL     OW 1540   0.257   2.176   2.737 -0.0376 -0.6932  0.1883
  514SOL    HW1 1541   0.219   2.106   2.800  1.3986  3.8702  0.5554
  514SOL    HW2 1542   0.342   2.217   2.776 -1.6673 -0.1603 -0.0588
  515SOL     OW 1543   1.904   1.676   2.156  0.4979 -0.0484  0.0895
  515SOL    HW1 1544   1.949   1.691   2.068 -3.3330 -1.7875  0.6208
  515SOL    HW2 1545   1.913   1.755   2.222  1.8361  0.6191 -0.3835
  516SOL     OW 1546   2.204   2.357   2.859  0.3775 -0.4230 -0.7457
  516SOL    HW1 1547   2.220   2.410   2.949  0.3307 -0.1862  1.0842
  516SOL    HW2 1548   2.288   2.334   2.812 -2.7978  1.6866 -0.2422
  517SOL     OW 1549   1.417   1.228   0.044  0.0283 -0.2896 -0.1464
  517SOL    HW1 1550   1.359   1.149   0.009 -0.1554 -0.5301  1.0567
  517SOL    HW2 1551   1.497   1.199   0.097 -0.5475 -1.2278  0.1312
  518SOL     OW 1552   2.734   0.024   2.344  0.8790  0.0373  0.4745
  518SOL    HW1 1553   2.756   0.063   2.253 -1.2253  0.8220  0.0179
  518SOL    HW2 1554   2.633   0.003   2.354  1.7654 -1.0800 -0.3955
  519SOL     OW 1555   1.918   2.154   2.000 -0.0705  0.0158 -0.6057
  519SOL    HW1 1556   1.887   2.249   2.018 -2.0681 -1.4927 -0.7171
  519SOL    HW2 1557   2.006   2.130   2.046  0.7273  0.0660 -1.3466
  520SOL     OW 1558   2.754   3.081   2.683  0.3945 -0.2715  0.2018
  520SOL    HW1 1559   2.827   3.103   2.755  0.0162  1.1724  0.7729
  520SOL    HW2 1560   2.796   3.080   2.587 -0.2524 -2.2642 -0.2789
  521SOL     OW 1561   0.340   1.323   2.186 -0.4148 -0.7106 -0.2637
  521SOL    HW1 1562   0.262   1.381   2.155  0.5056 -0.9436  0.9918
  521SOL    HW2 1563   0.415   1.381   2.221 -0.0886 -2.2216  1.1158
  522SOL     OW 1564   1.032   0.164   1.583  0.2965  0.5959  0.1533
  522SOL    HW1 1565   1.092   0.130   1.654 -0.3415 -1.9337 -1.0230
  522SOL    HW2 1566   0.999   0.255   1.608 -2.5266 -0.1975  0.6945
  523SOL     OW 1567   0.306   2.770   0.869  0.2623  0.3356  0.5452
  523SOL    HW1 1568   0.247   2.850   0.880  2.4612 -1.6856  2.0507
  523SOL    HW2 1569   0.294   2.732   0.776 -0.5794  3.2809 -0.6486
  524SOL     OW 1570   1.536   2.590   0.597  0.1808  0.2138  0.3079
  524SOL    HW1 1571   1.597   2.560   0.671 -0.1243  2.2806  1.7143
  524SOL    HW2 1572   1.443   2.587   0.630  0.1717 -0.3870 -0.0490
  525SOL     OW 1573   2.355   0.625   1.210  0.0269 -0.1773 -0.0761
  525SOL    HW1 1574   2.398   0.627   1.307  0.9030 -0.5667 -0.0620
  525SOL    HW2 1575   2.325   0.723   1.187 -2.5137 -1.1574  0.3667
  526SOL     OW 1576   0.914   2.510   0.837  0.3589 -0.2815  0.2104
  526SOL    HW1 1577   0.986   2.468   0.779  0.6265  3.2385  1.8066
  526SOL    HW2 1578   0.850   2.556   0.775 -0.5028  1.8734  1.9308
  527SOL     OW 1579   2.325   1.982   0.572 -0.1785  0.1583  0.1354
  527SOL    HW1 1580   2.301   1.913   0.493  1.1814 -0.2447 -1.7000
  527SOL    HW2 1581   2.260   2.061   0.580  0.0207  1.5319  1.3785
  528SOL     OW 1582   2.333   0.477   0.733 -0.0802 -0.1079  0.1946
  528SOL    HW1 1583   2.431   0.473   0.748 -0.8521  2.3566 -2.7495
  528SOL    HW2 1584   2.289   0.428   0.805  0.6081  1.7549  2.9188
  529SOL     OW 1585   1.251   1.512   2.277 -0.1331 -0.2069 -0.4966
  529SOL    HW1 1586   1.179   1.561   2.227  2.0673  1.2433  1.8926
  529SOL    HW2 1587   1.299   1.570   2.349 -0.6091 -1.3516  1.8555
  530SOL     OW 1588   2.355   0.811   0.009  0.4512 -0.3140  0.0438
  530SOL    HW1 1589   2.423   0.741   0.042  1.5822 -5.1484  2.2037
  530SOL    HW2 1590   2.298   0.852   0.086  1.5608  1.4738 -0.9935
  531SOL     OW 1591   1.221   1.034   0.265  0.0302  0.5691 -0.1725
  531SOL    HW1 1592   1.228   0.941   0.297 -1.5981  0.2787 -0.3020
  531SOL    HW2 1593   1.267   1.095   0.328 -1.2621 -1.8944  1.0819
  532SOL     OW 1594   1.988   2.976   0.834  0.4906 -0.5441  0.4793
  532SOL    HW1 1595   1.925   3.051   0.809 -0.5760 -0.7034  1.0044
  532SOL    HW2 1596   2.066   3.005   0.896  0.7933 -0.7992  2.4461
  533SOL     OW 1597   1.240   0.871   2.172  0.9204 -0.0187  0.7425
  533SOL    HW1 1598   1.158   0.903   2.117 -1.4485  0.2051 -0.2730
  533SOL    HW2 1599   1.318   0.857   2.108 -1.2292  0.4377  0.8045
  534SOL     OW 1600   1.820   3.020   3.036 -0.8341 -0.6093  0.2851
  534SOL    HW1 1601   1.868   2.964   2.960  0.3670  2.0204 -2.1188
  534SOL    HW2 1602   1.881   3.008   0.004 -0.4817 -1.0663  0.2076
  535SOL     OW 1603   0.470   2.955   0.133  0.3985 -0.3214  0.2431
  535SOL    HW1 1604   0.524   2.991   0.211 -1.2530 -0.7692 -0.5608
  535SOL    HW2 1605   0.378   2.997   0.138  2.3351 -0.7322  0.8326
  536SOL     OW 1606   0.672   2.658   1.050 -0.3152 -0.7539 -0.8253
  536SOL    HW1 1607   0.585   2.708   1.081  0.7988  1.1948 -0.1243
  536SOL    HW2 1608   0.745   2.670   1.118  2.5103 -0.9493 -2.0281
  537SOL     OW 1609   1.741   0.608   1.293  0.4162 -0.0988 -0.5930
  537SOL    HW1 1610   1.822   0.556   1.263 -2.6489 -0.3180 -0.5341
  537SOL    HW2 1611   1.684   0.546   1.349  1.7767  2.2804 -3.1077
  538SOL     OW 1612   3.031   2.769   0.183  0.0433 -0.0318  0.0040
  538SOL    HW1 1613   3.001   2.673   0.210  0.6667  0.3411  1.6585
  538SOL    HW2 1614   3.029   2.829   0.267 -0.0117  0.7689  0.2069
  539SOL     OW 1615   2.811   1.822   2.553 -0.2842 -0.3547  0.0598
  539SOL    HW1 1616   2.709   1.832   2.562 -1.1940  1.7330  2.3927
  539SOL    HW2 1617   2.838   1.841   2.456 -0.2320 -0.8189  0.5407
  540SOL     OW 1618   3.098   2.740   1.651  0.2649 -0.0156 -0.3492
  540SOL    HW1 1619   0.046   2.667   1.616 -2.3738 -0.0491  0.4473
  540SOL    HW2 1620   3.009   2.706   1.699 -3.8897 -1.2686  1.0270
  541SOL     OW 1621   2.809   2.929   1.820  0.2609 -0.9470  0.2338
  541SOL    HW1 1622   2.728   2.873   1.796  0.7425 -0.8580 -0.7257
  541SOL    HW2 1623   2.859   2.890   1.901  0.5876  0.1561  1.5255
  542SOL     OW 1624   2.988   0.540   2.122 -0.0912  0.6901 -0.3606
  542SOL    HW1 1625   2.981   0.461   2.187  1.4854 -0.8063  2.2697
  542SOL    HW2 1626   2.920   0.528   2.048  0.3798 -0.1940  0.0157
  543SOL     OW 1627   0.910   0.523   0.716 -0.7328  0.1834 -0.0497
  543SOL    HW1 1628   0.896   0.593   0.641  0.9403 -0.2786 -1.1373
  543SOL    HW2 1629   0.856   0.544   0.800 -1.4615 -1.2780  1.2624
  544SOL     OW 1630   2.745   2.323   0.963 -0.5157 -0.6132 -0.2161
  544SOL    HW1 1631   2.770   2.240   0.912  1.4759  1.1198  1.2867
  544SOL    HW2 1632   2.823   2.360   1.022 -0.2372 -0.1745  3.2582
  545SOL     OW 1633   1.059   1.779   0.268 -0.2127 -0.5009  0.0501
  545SOL    HW1 1634   1.078   1.813   0.361  0.3739 -0.9624 -0.3583
  545SOL    HW2 1635   1.052   1.677   0.267  0.1664  0.0976  0.1991
  546SOL     OW 1636   2.355   0.589   2.074  0.3911  0.5115 -0.0080
  546SOL    HW1 1637   2.300   0.627   2.153 -0.3487 -1.1700 -2.5195
  546SOL    HW2 1638   2.448   0.558   2.101  3.3002  1.1788 -1.6404
  547SOL     OW 1639   0.352   0.234   2.484 -0.1614 -0.0235 -0.3141
  547SOL    HW1 1640   0.257   0.257   2.513  2.5752  0.6436 -1.3436
  547SOL    HW2 1641   0.380   0.286   2.401  1.4041 -0.5718  1.7997
  548SOL     OW 1642   2.223   1.785   2.486 -0.2548  0.0534 -0.2928
  548SOL    HW1 1643   2.251   1.686   2.498  2.2499 -3.1146  0.7846
  548SOL    HW2 1644   2.122   1.802   2.504  0.6298  4.0747 -0.0104
  549SOL     OW 1645   2.566   0.754   0.822  0.0812 -0.0355 -0.4837
  549SOL    HW1 1646   2.599   0.680   0.763 -1.1242 -1.0226  2.2313
  549SOL    HW2 1647   2.648   0.783   0.877 -0.3462 -0.1118 -0.4902
  550SOL     OW 1648   1.455   1.536   0.583 -0.3754 -0.1231 -0.0068
  550SOL    HW1 1649   1.400   1.539   0.498  0.1407  1.4780 -1.8390
  550SOL    HW2 1650   1.541   1.583   0.577  2.8151 -2.6184 -2.1538
  551SOL     OW 1651   1.096   0.292   1.047 -0.2865  0.4541 -0.0573
  551SOL    HW1 1652   1.015   0.259   1.104 -0.4368 -3.5904  0.8424
  551SOL    HW2 1653   1.141   0.213   0.998 -0.9417 -0.8568 -0.3142
  552SOL     OW 1654   2.288   2.451   2.089  0.3051  0.0103 -0.0971
  552SOL    HW1 1655   2.253   2.545   2.119 -2.8909  1.6804  3.2743
  552SOL    HW2 1656   2.302   2.391   2.164 -2.2299 -1.1232 -1.7819
  553SOL     OW 1657   3.046   0.197   0.184 -0.4028  0.3191 -0.2073
  553SOL    HW1 1658   3.101   0.279   0.161 -0.3812 -2.0495  0.1659
  553SOL    HW2 1659   2.986   0.170   0.107  0.6312  1.4627 -1.3365
  554SOL     OW 1660   1.461   2.642   1.667 -0.1457  0.2495 -0.0164
  554SOL    HW1 1661   1.386   2.615   1.601  1.5988 -1.2489 -0.2772
  554SOL    HW2 1662   1.419   2.653   1.762 -0.6328 -2.3738  1.1072
  555SOL     OW 1663   2.395   2.881   1.873 -0.7106  0.1314 -0.0090
  555SOL    HW1 1664   2.300   2.866   1.839 -1.8911 -0.8786 -0.3584
  555SOL    HW2 1665   2.387   2.883   1.974  1.1267 -0.6309 -1.6981
  556SOL     OW 1666   0.948   2.882   2.975  0.4276  1.6027 -0.0133
  556SOL    HW1 1667   0.951   2.908   2.874  0.3039 -1.0779 -2.8707
  556SOL    HW2 1668   0.854   2.902   3.012  0.2903 -0.5230 -2.5477
  557SOL     OW 1669   0.304   2.071   2.324  0.3915 -0.0429 -0.4925
  557SOL    HW1 1670   0.353   2.014   2.257  0.3969  0.8121  2.7166
  557SOL    HW2 1671   0.261   2.157   2.294 -0.3065 -0.1031 -0.5360
  558SOL     OW 1672   2.656   1.340   2.744  0.5935  0.2024  0.0787
  558SOL    HW1 1673   2.610   1.323   2.833 -1.4892 -1.1021 -2.3627
  558SOL    HW2 1674   2.644   1.249   2.692 -1.3329 -0.2128  2.9517
  559SOL     OW 1675   2.371   2.303   2.318  0.3848  0.1196 -0.1381
  559SOL    HW1 1676   2.463   2.350   2.323  1.8236 -1.2439 -2.2839
  559SOL    HW2 1677   2.395   2.203   2.312  1.3559 -0.4825 -1.8963
  560SOL     OW 1678   0.404   0.359   2.243  0.3259 -0.0587 -0.0281
  560SOL    HW1 1679   0.303   0.378   2.222  0.0814  1.5780  0.3919
  560SOL    HW2 1680   0.460   0.443   2.259 -0.9536 -1.0225  2.2427
  561SOL     OW 1681   0.753   0.529   0.292  0.1859 -0.1072  0.0439
  561SOL    HW1 1682   0.810   0.456   0.340  1.4336 -0.3150 -1.1254
  561SOL    HW2 1683   0.746   0.500   0.197  0.6661  0.9934  1.3398
  562SOL     OW 1684   0.886   1.394   1.529 -0.1997  0.6417  0.2520
  562SOL    HW1 1685   0.888   1.300   1.566  0.3325  3.8124  1.3792
  562SOL    HW2 1686   0.797   1.419   1.484  0.1235  3.2618  0.6609
  563SOL     OW 1687   1.553   3.018   3.046 -0.7297 -0.1788 -0.1464
  563SOL    HW1 1688   1.494   2.938   3.084  2.3987  1.4726  0.4178
  563SOL    HW2 1689   1.654   3.014   3.061  1.2028  1.6248 -0.3645
  564SOL     OW 1690   0.267   2.097   0.589 -0.6426 -0.1541 -0.0448
  564SOL    HW1 1691   0.297   2.008   0.555 -0.9657  2.8663 -0.8824
  564SOL    HW2 1692   0.284   2.110   0.688 -0.5264 -1.4621 -0.6765
  565SOL     OW 1693   0.300   2.466   2.428  0.0828  0.7294 -0.2907
  565SOL    HW1 1694   0.276   2.485   2.325  1.4034  1.0250 -2.4091
  565SOL    HW2 1695   0.217   2.451   2.486  0.3544 -1.1262 -2.0888
  566SOL     OW 1696   1.347   2.713   2.293  0.0574 -0.0165  0.0629
  566SOL    HW1 1697   1.384   2.750   2.379 -0.1845 -1.1850  0.1868
  566SOL    HW2 1698   1.385   2.617   2.271  0.3990 -0.4522 -2.0518
  567SOL     OW 1699   1.790   2.048   1.157 -0.2747 -0.0918 -0.4742
  567SOL    HW1 1700   1.693   2.029   1.171  1.7095  1.3698 -0.2677
  567SOL    HW2 1701   1.819   2.032   1.058  0.9016  0.6454 -0.9591
  568SOL     OW 1702   2.111   0.574   0.097  0.2328  0.3711  0.5833
  568SOL    HW1 1703   2.170   0.612   0.024 -1.1810  1.0330 -3.1315
  568SOL    HW2 1704   2.133   0.473   0.099  2.0668 -0.3590 -2.1534
  569SOL     OW 1705   2.865   1.384   2.378 -0.1942  0.0895 -0.2065
  569SOL    HW1 1706   2.886   1.471   2.325  1.1493 -3.9373  1.5543
  569SOL    HW2 1707   2.924   1.375   2.461  2.3502 -1.3316 -2.5853
  570SOL     OW 1708   2.900   2.613   1.789 -0.1696  0.0012 -0.0815
  570SOL    HW1 1709   2.836   2.670   1.840  0.5479  1.6368 -1.2659
  570SOL    HW2 1710   2.864   2.516   1.777  0.2667 -2.7692  0.8891
  571SOL     OW 1711   0.311   0.322   1.732 -0.5106  0.2332 -0.2442
  571SOL    HW1 1712   0.334   0.341   1.634 -0.3840  2.0942  1.5300
  571SOL    HW2 1713   0.287   0.403   1.787 -2.9293 -2.4386 -0.3988
  572SOL     OW 1714   0.118   2.079   0.904 -0.2086 -0.3091 -0.5881
  572SOL    HW1 1715   0.076   2.165   0.874 -1.8966  2.7700  0.5868
  572SOL    HW2 1716   0.068   2.044   0.989 -0.3695 -1.5255  1.0911
  573SOL     OW 1717   0.942   0.901   0.107 -0.0507  0.1873 -0.3873
  573SOL    HW1 1718   0.952   1.000   0.110 -0.8461 -1.2209  1.2062
  573SOL    HW2 1719   0.845   0.869   0.126 -4.5919 -0.3665  0.2964
  574SOL     OW 1720   2.770   2.896   0.133  0.5596 -0.2301 -0.6226
  574SOL    HW1 1721   2.747   2.926   0.037  0.5714 -1.9795 -3.2288
  574SOL    HW2 1722   2.872   2.887   0.142 -1.8802 -0.7630  1.9395
  575SOL     OW 1723   1.160   1.835   1.349 -0.0875  0.1772  0.5567
  575SOL    HW1 1724   1.166   1.819   1.250 -0.8960 -1.4006  2.0014
  575SOL    HW2 1725   1.171   1.931   1.382 -3.2778 -0.7371 -1.6043
  576SOL     OW 1726   2.987   2.786   1.393  0.1952  0.2423 -0.0009
  576SOL    HW1 1727   2.936   2.873   1.393  1.1691 -3.4192  0.3184
  576SOL    HW2 1728   3.021   2.773   1.489 -1.0335  2.8909  0.1001
  577SOL     OW 1729   2.335   1.537   1.710  0.2692 -0.0041 -0.1487
  577SOL    HW1 1730   2.305   1.454   1.665  0.1482  0.0318  2.2103
  577SOL    HW2 1731   2.321   1.621   1.656 -0.9063 -0.9275  0.4028
  578SOL     OW 1732   1.225   0.138   3.064 -0.5454 -0.3596  0.5543
  578SOL    HW1 1733   1.208   0.049   3.017  0.7151  0.4957  0.0713
  578SOL    HW2 1734   1.194   0.218   3.007 -0.7743  1.4935  2.3181
  579SOL     OW 1735   2.831   1.852   2.236  0.2458  0.5785 -0.5546
  579SOL    HW1 1736   2.732   1.842   2.256 -0.2564 -0.9362  1.5606
  579SOL    HW2 1737   2.874   1.765   2.211  2.6851  0.2284 -1.2832
  580SOL     OW 1738   1.856   0.721   1.514 -0.0288  0.4209  0.1812
  580SOL    HW1 1739   1.802   0.687   1.433  0.4962  1.7547 -1.7703
  580SOL    HW2 1740   1.939   0.769   1.480  3.0204 -1.8353  0.5882
  581SOL     OW 1741   0.809   1.658   1.364  0.7432 -0.5582  0.1504
  581SOL    HW1 1742   0.873   1.619   1.295 -0.2438  1.2129  1.4050
  581SOL    HW2 1743   0.846   1.635   1.454 -0.8791 -0.4559 -3.0350
  582SOL     OW 1744   2.944   2.805   2.025 -0.3742 -0.4786 -0.2305
  582SOL    HW1 1745   3.033   2.820   1.974 -0.5979  3.2672  0.5994
  582SOL    HW2 1746   2.961   2.825   2.125  1.0854 -1.6314  2.1259
  583SOL     OW 1747   2.166   1.331   1.565  0.2351 -0.3906  0.1042
  583SOL    HW1 1748   2.078   1.383   1.585 -2.5172  0.3614 -2.1158
  583SOL    HW2 1749   2.194   1.338   1.468 -1.8087 -0.6893  1.4387
  584SOL     OW 1750   1.072   2.125   2.762  1.0241  0.1588  0.1404
  584SOL    HW1 1751   1.164   2.091   2.793  0.7472 -0.0158 -0.4337
  584SOL    HW2 1752   1.006   2.047   2.753  0.2993  0.4908  2.5772
  585SOL     OW 1753   0.434   2.718   0.265  0.3831  0.3479 -0.8696
  585SOL    HW1 1754   0.446   2.786   0.197 -0.2225 -1.3479  2.3149
  585SOL    HW2 1755   0.422   2.622   0.226  0.6960  0.0146  0.5226
  586SOL     OW 1756   1.831   2.523   2.704  0.0585 -0.1403 -0.0974
  586SOL    HW1 1757   1.731   2.536   2.691  2.7040  0.0034  3.5483
  586SOL    HW2 1758   1.868   2.433   2.672  1.3123  3.4519  0.3248
  587SOL     OW 1759   2.622   1.664   0.463  0.0739 -0.0334 -0.4956
  587SOL    HW1 1760   2.629   1.767   0.456 -1.9654  0.3691  0.0993
  587SOL    HW2 1761   2.713   1.631   0.497  0.5311  3.6290  1.0163
  588SOL     OW 1762   2.209   0.024   1.281  0.3784  0.2881  0.7423
  588SOL    HW1 1763   2.209   3.106   1.185  0.6369  1.9100  1.5020
  588SOL    HW2 1764   2.157   0.107   1.289 -2.1417 -1.8289 -2.0112
  589SOL     OW 1765   0.770   0.692   0.554  0.0264  0.2455  0.2517
  589SOL    HW1 1766   0.702   0.760   0.577  3.2969 -1.4490 -2.1855
  589SOL    HW2 1767   0.747   0.648   0.462  0.4220 -3.1101 -1.4290
  590SOL     OW 1768   2.484   2.045   0.222 -0.0310  0.6216 -0.0378
  590SOL    HW1 1769   2.526   2.126   0.256 -1.5651 -0.4556  0.1605
  590SOL    HW2 1770   2.427   2.061   0.139  1.0234  0.7429 -1.1664
  591SOL     OW 1771   0.149   2.549   1.533 -0.2377  0.0405  0.0741
  591SOL    HW1 1772   0.229   2.590   1.491 -2.3170  1.3227  1.4188
  591SOL    HW2 1773   0.135   2.451   1.506  0.9270  1.1740 -0.9478
  592SOL     OW 1774   0.773   1.132   1.296 -0.0516 -0.1151  0.1421
  592SOL    HW1 1775   0.750   1.194   1.373  2.2071 -0.4957 -1.0099
  592SOL    HW2 1776   0.778   1.033   1.323 -1.3842 -0.7254 -1.2771
  593SOL     OW 1777   0.984   1.540   1.192  0.6381  0.2834  0.3813
  593SOL    HW1 1778   1.046   1.616   1.179 -1.5899  0.7288  0.4702
  593SOL    HW2 1779   0.924   1.530   1.104 -4.3172 -0.4548  0.8663
  594SOL     OW 1780   0.507   1.828   2.853 -0.2738 -0.1141 -0.4389
  594SOL    HW1 1781   0.423   1.887   2.877 -0.2011  1.5891 -1.6713
  594SOL    HW2 1782   0.505   1.737   2.901 -0.5082 -0.3104  1.7002
  595SOL     OW 1783   1.416   0.306   1.231 -0.1917  0.0632 -0.2829
  595SOL    HW1 1784   1.479   0.285   1.154 -0.3244  0.9141 -1.1650
  595SOL    HW2 1785   1.326   0.340   1.194 -2.8582  0.9334 -1.4006
  596SOL     OW 1786   0.122   1.160   0.424  0.2118 -0.3543  0.1536
  596SOL    HW1 1787   0.085   1.199   0.339 -0.8058  1.3807 -0.7901
  596SOL    HW2 1788   0.184   1.082   0.395 -3.4738 -0.5834  1.3460
  597SOL     OW 1789   2.977   2.415   2.987 -0.3694  0.0275 -0.0737
  597SOL    HW1 1790   3.004   2.334   2.932  2.4494 -1.1978  0.4132
  597SOL    HW2 1791   2.989   2.399   3.087 -2.2740 -0.1058 -0.4610
  598SOL     OW 1792   2.191   1.852   2.209 -0.0149  0.1603  0.7038
  598SOL    HW1 1793   2.207   1.854   2.310  4.4503 -0.0268  1.2613
  598SOL    HW2 1794   2.233   1.767   2.171 -0.0036  0.8569  0.7489
  599SOL     OW 1795   1.147   0.417   0.506  0.6619  0.2851  0.1442
  599SOL    HW1 1796   1.165   0.510   0.531  2.5627 -3.4581 -2.3199
  599SOL    HW2 1797   1.174   0.402   0.412  0.3008 -0.6825  2.5437
  600SOL     OW 1798   0.653   2.688   0.416 -0.1415 -0.2108 -0.3015
  600SOL    HW1 1799   0.564   2.705   0.373  1.3905  0.2365  1.4110
  600SOL    HW2 1800   0.724   2.661   0.350 -1.5925  1.5027  2.2034
  601SOL     OW 1801   0.479   0.948   1.264 -0.1169 -0.1128 -0.3911
  601SOL    HW1 1802   0.516   1.027   1.216 -3.3314 -2.4465  2.3979
  601SOL    HW2 1803   0.527   0.858   1.245 -0.4246  0.7628  0.6949
  602SOL     OW 1804   0.436   2.807   1.113  0.4883 -0.0710  0.5645
  602SOL    HW1 1805   0.372   2.792   1.187  1.6806 -0.1019 -1.7186
  602SOL    HW2 1806   0.383   2.779   1.026  0.1316 -0.5550  2.1026
  603SOL     OW 1807   1.079   2.631   2.267  0.7799 -0.4121 -0.0102
  603SOL    HW1 1808   1.001   2.667   2.211  2.1246 -0.3739  0.0521
  603SOL    HW2 1809   1.165   2.686   2.252 -0.5764  0.6943 -1.3737
  604SOL     OW 1810   0.683   2.699   2.508  0.2301 -0.3162 -0.0142
  604SOL    HW1 1811   0.592   2.672   2.543 -0.6456 -0.1759 -1.4827
  604SOL    HW2 1812   0.677   2.796   2.476  1.4185 -0.4151 -1.5764
  605SOL     OW 1813   1.457   0.779   1.969 -0.7233 -0.0594 -0.3811
  605SOL    HW1 1814   1.400   0.705   1.929 -2.2214 -0.9275 -0.0234
  605SOL    HW2 1815   1.534   0.747   2.024  0.3710  0.5980 -3.3832
  606SOL     OW 1816   1.962   0.303   2.667  0.0484  0.7514 -0.7261
  606SOL    HW1 1817   1.929   0.399   2.667  2.1599 -3.2468  0.0254
  606SOL    HW2 1818   2.051   0.299   2.615  1.7738 -1.4722 -0.1815
  607SOL     OW 1819   0.733   0.573   0.907 -0.2051  0.0951 -0.0352
  607SOL    HW1 1820   0.687   0.661   0.913 -0.6513  1.4277 -0.4078
  607SOL    HW2 1821   0.659   0.504   0.883 -4.6735 -0.0755  0.6477
  608SOL     OW 1822   0.136   2.263   2.065 -0.5939  0.3211 -0.3655
  608SOL    HW1 1823   0.210   2.336   2.059 -0.4557  2.0235 -1.3272
  608SOL    HW2 1824   0.083   2.261   1.979 -1.8606  0.6865  0.3869
  609SOL     OW 1825   1.882   0.591   3.031 -0.5907  0.8512 -0.0747
  609SOL    HW1 1826   1.949   0.532   3.080 -0.2584  1.1653  0.1692
  609SOL    HW2 1827   1.860   0.667   3.089  0.1120 -1.2807  1.5257
  610SOL     OW 1828   0.743   2.994   1.245 -0.1505 -0.2244  0.1204
  610SOL    HW1 1829   0.675   3.055   1.198 -1.1546 -0.8495  2.8563
  610SOL    HW2 1830   0.817   3.040   1.298 -3.1153 -1.4029 -0.0727
  611SOL     OW 1831   1.400   0.806   0.379  0.6445 -0.1885  0.1447
  611SOL    HW1 1832   1.438   0.883   0.332  1.1774 -3.6792  2.3690
  611SOL    HW2 1833   1.475   0.742   0.408 -1.1478 -1.4432  0.7231
  612SOL     OW 1834   1.796   0.749   2.830  0.1791 -0.1715 -0.4888
  612SOL    HW1 1835   1.693   0.738   2.821 -2.0396  1.1922  0.9953
  612SOL    HW2 1836   1.837   0.692   2.903  0.0301  1.2631  0.9755
  613SOL     OW 1837   2.324   0.816   0.977 -0.3717 -0.2281 -0.3832
  613SOL    HW1 1838   2.224   0.814   0.957  0.3440  2.6012 -0.6369
  613SOL    HW2 1839   2.379   0.764   0.911 -0.6296 -0.6809 -0.3077
  614SOL     OW 1840   2.595   0.327   2.257 -0.0126 -0.0513  0.3872
  614SOL    HW1 1841   2.632   0.417   2.233  0.1075  0.1183  0.0342
  614SOL    HW2 1842   2.654   0.249   2.219  2.3107 -1.9865  0.0063
  615SOL     OW 1843   0.812   1.811   1.036 -0.7971  0.7072  0.4022
  615SOL    HW1 1844   0.836   1.713   1.040  1.3373  2.3703  0.3114
  615SOL    HW2 1845   0.795   1.855   1.126 -1.9132  4.2846  0.3192
  616SOL     OW 1846   1.753   1.355   2.568  0.5686  0.0981 -0.2195
  616SOL    HW1 1847   1.695   1.395   2.493  3.2554 -0.2595 -0.8456
  616SOL    HW2 1848   1.847   1.392   2.573 -1.0922  2.2207 -0.0290
  617SOL     OW 1849   1.501   0.161   3.101 -0.0195  0.1544 -0.4302
  617SOL    HW1 1850   1.404   0.163   3.114 -1.1837  1.5262 -0.4518
  617SOL    HW2 1851   1.529   0.063   3.085 -1.3210 -1.2674  0.4930
  618SOL     OW 1852   1.628   1.857   2.290 -0.0307  0.0319  0.6995
  618SOL    HW1 1853   1.699   1.919   2.253  0.4620  1.1585  0.3661
  618SOL    HW2 1854   1.631   1.771   2.234  2.0970  1.4082 -1.2098
  619SOL     OW 1855   2.509   1.528   0.993 -0.0523 -0.2323  0.2958
  619SOL    HW1 1856   2.531   1.622   0.967  0.9784 -1.9634  0.0372
  619SOL    HW2 1857   2.592   1.469   0.989  0.2896 -0.2262 -1.3953
  620SOL     OW 1858   2.166   2.858   2.872 -0.3478 -0.3157  0.0202
  620SOL    HW1 1859   2.245   2.918   2.899  1.4651 -2.2714 -0.0108
  620SOL    HW2 1860   2.082   2.904   2.847  1.7301 -1.7426  2.8154
  621SOL     OW 1861   2.862   1.544   0.644  0.0787 -0.3741  0.5291
  621SOL    HW1 1862   2.800   1.464   0.663 -1.7181 -1.5156 -0.6259
  621SOL    HW2 1863   2.958   1.530   0.670 -1.3324  1.4064 -2.0653
  622SOL     OW 1864   1.120   2.402   2.428 -0.7537 -0.1761 -0.6966
  622SOL    HW1 1865   1.077   2.319   2.381 -0.6975 -4.9880 -0.6152
  622SOL    HW2 1866   1.101   2.482   2.372  1.3484  0.1794  1.0456
  623SOL     OW 1867   0.156   2.446   3.043  0.2595 -0.1285  0.3360
  623SOL    HW1 1868   0.192   2.353   3.056 -1.3969 -1.3595 -0.4055
  623SOL    HW2 1869   0.061   2.447   3.004 -1.6750  0.3467 -1.6000
  624SOL     OW 1870   0.474   2.868   2.764 -0.6669  0.2107 -0.3619
  624SOL    HW1 1871   0.439   2.795   2.705  0.1707  2.5406  1.3825
  624SOL    HW2 1872   0.466   2.846   2.864  0.2021 -0.7200  1.4913
  625SOL     OW 1873   0.749   2.174   2.831 -0.3107 -0.9530 -0.1260
  625SOL    HW1 1874   0.731   2.190   2.730  0.0932  1.9285  2.2711
  625SOL    HW2 1875   0.827   2.226   2.870  0.8938  0.2064  2.3206
  626SOL     OW 1876   2.891   0.448   0.321  0.2542  0.1876  0.1032
  626SOL    HW1 1877   2.886   0.343   0.327  0.1040 -0.5927 -1.0068
  626SOL    HW2 1878   2.889   0.475   0.221 -1.3274  0.1072 -0.2343
  627SOL     OW 1879   1.683   1.742   3.026  0.5164  0.0935 -0.2032
  627SOL    HW1 1880   1.753   1.678   3.065  0.6585 -1.6773 -1.8931
  627SOL    HW2 1881   1.608   1.688   2.980 -0.8366  0.6429 -0.7914
  628SOL     OW 1882   1.230   1.325   2.642  0.0130  0.1842 -0.2709
  628SOL    HW1 1883   1.185   1.275   2.565  1.1178  1.0554 -2.8469
  628SOL    HW2 1884   1.301   1.385   2.603  0.9671  1.8013 -0.0420
  629SOL     OW 1885   0.559   0.112   1.736 -0.0380 -0.2340  0.5584
  629SOL    HW1 1886   0.534   0.019   1.774 -1.5823  0.7728  1.3769
  629SOL    HW2 1887   0.487   0.180   1.756 -1.0618 -2.4044  1.0084
  630SOL     OW 1888   2.269   1.087   1.936  0.5453 -0.1856  0.5719
  630SOL    HW1 1889   2.200   1.161   1.956  2.4526 -0.5629  0.3217
  630SOL    HW2 1890   2.254   1.006   1.998 -1.2426 -1.0094  0.6467
  631SOL     OW 1891   1.874   0.118   0.833  0.1624 -0.2789  0.4993
  631SOL    HW1 1892   1.811   0.097   0.915 -0.8646  0.3183  3.9873
  631SOL    HW2 1893   1.815   0.132   0.753  1.5809  0.1583  1.6567
  632SOL     OW 1894   3.006   0.722   1.569 -0.0912  0.6697 -0.1594
  632SOL    HW1 1895   2.963   0.784   1.498  0.1306  3.0905  0.0160
  632SOL    HW2 1896   3.022   0.630   1.522  1.0010 -2.0451 -0.5810
  633SOL     OW 1897   0.779   0.457   0.006 -0.0241  0.1592  0.3257
  633SOL    HW1 1898   0.736   0.454   3.031  0.9273 -0.7045  0.9788
  633SOL    HW2 1899   0.766   0.367   0.054 -2.2924 -0.2413  4.2872
  634SOL     OW 1900   0.601   2.529   2.937  0.2270  0.1781  0.3973
  634SOL    HW1 1901   0.552   2.615   2.956  2.9190  0.0349 -0.6727
  634SOL    HW2 1902   0.695   2.548   2.908 -0.7898 -2.0001  1.3260
  635SOL     OW 1903   3.041   0.812   0.648 -0.1774 -0.1000 -0.3767
  635SOL    HW1 1904   2.997   0.853   0.565 -1.8647 -0.0977 -1.8754
  635SOL    HW2 1905   0.030   0.801   0.639  1.7134  0.5897 -3.0783
  636SOL     OW 1906   0.316   1.303   0.072  0.7813 -0.2009  0.3939
  636SOL    HW1 1907   0.401   1.266   0.114 -1.2942  0.1689  0.0523
  636SOL    HW2 1908   0.233   1.293   0.136 -1.4483 -0.2197  1.0637
  637SOL     OW 1909   0.144   2.699   0.371  0.1227 -0.4911  0.0091
  637SOL    HW1 1910   0.239   2.712   0.346 -1.8941 -2.1037 -1.1018
  637SOL    HW2 1911   0.100   2.786   0.399  1.8328  4.3234  0.4912
  638SOL     OW 1912   2.906   2.323   0.476  0.0583  0.5452  0.0838
  638SOL    HW1 1913   2.987   2.262   0.467 -1.2106  0.0708 -0.3864
  638SOL    HW2 1914   2.905   2.383   0.555 -0.4472 -1.4295 -1.7491
  639SOL     OW 1915   1.569   0.922   0.032 -0.0113 -0.5480 -0.1134
  639SOL    HW1 1916   1.500   0.868   3.098  1.2697 -0.6110  0.9171
  639SOL    HW2 1917   1.535   0.953   0.122  3.4616  1.0057  0.4249
  640SOL     OW 1918   1.859   2.238   1.671  1.0559 -0.4237  0.4632
  640SOL    HW1 1919   1.833   2.262   1.572  0.6852  0.2370  0.1268
  640SOL    HW2 1920   1.866   2.141   1.693 -2.5085  3.1426 -1.4223
  641SOL     OW 1921   2.998   3.069   0.663 -0.0525  0.2594  0.0616
  641SOL    HW1 1922   2.994   0.060   0.664  0.4950  0.0945 -0.8938
  641SOL    HW2 1923   2.943   3.022   0.742 -0.1918 -0.7447  1.0014
  642SOL     OW 1924   1.172   0.629   1.700 -0.0005  0.1708  0.3113
  642SOL    HW1 1925   1.207   0.625   1.600  2.1972 -1.5911 -0.0708
  642SOL    HW2 1926   1.249   0.600   1.760  0.6562 -1.5523  3.6943
  643SOL     OW 1927   0.752   2.304   2.571 -0.8596 -0.4249 -0.0986
  643SOL    HW1 1928   0.654   2.279   2.557 -0.2214 -0.7282  0.4909
  643SOL    HW2 1929   0.785   2.374   2.508 -1.3791 -1.5906 -0.7903
  644SOL     OW 1930   1.231   2.512   0.329  0.4488 -0.1882 -0.7678
  644SOL    HW1 1931   1.279   2.423   0.332  2.9024  1.8058  0.9111
  644SOL    HW2 1932   1.212   2.542   0.429  2.5148  3.1259  1.1823
  645SOL     OW 1933   1.677   1.206   1.909  0.1802 -0.0743 -0.4146
  645SOL    HW1 1934   1.734   1.230   1.830 -0.9035 -1.2109  2.7733
  645SOL    HW2 1935   1.611   1.132   1.883 -1.2272 -2.1750 -1.4132
  646SOL     OW 1936   0.376   0.548   0.099  0.2900 -0.5791  0.4898
  646SOL    HW1 1937   0.414   0.482   0.171 -0.0402 -0.1486  1.7671
  646SOL    HW2 1938   0.451   0.592   0.042  1.4586  1.1959 -2.3588
  647SOL     OW 1939   1.099   0.184   0.636  0.2918 -0.9123  0.0271
  647SOL    HW1 1940   1.128   0.274   0.597  0.6102 -1.2781  1.5961
  647SOL    HW2 1941   1.168   0.113   0.608 -0.3144 -0.6859  0.3447
  648SOL     OW 1942   2.253   2.677   1.282 -0.2466 -0.1318  0.4176
  648SOL    HW1 1943   2.241   2.716   1.189  1.5532  0.9751  0.5303
  648SOL    HW2 1944   2.264   2.573   1.279 -0.5787 -0.8303  0.8964
  649SOL     OW 1945   0.514   1.872   0.081  0.3558 -0.0162 -0.8120
  649SOL    HW1 1946   0.564   1.920   0.005 -0.8604  0.4608 -0.7124
  649SOL    HW2 1947   0.535   1.925   0.166 -1.3271 -0.1486 -1.4777
  650SOL     OW 1948   2.189   1.932   1.763 -0.6665 -0.1559  0.4533
  650SOL    HW1 1949   2.184   2.030   1.786  0.2403 -1.7940  1.9768
  650SOL    HW2 1950   2.133   1.909   1.681  0.7198 -0.5178  0.6036
  651SOL     OW 1951   0.130   3.054   2.619  0.1733 -0.3886  0.2905
  651SOL    HW1 1952   0.196   3.066   2.541 -0.1065  0.0511 -2.7417
  651SOL    HW2 1953   0.063   0.016   2.618 -0.2013  1.1646  1.5917
  652SOL     OW 1954   2.998   1.963   0.714  0.0932  0.6707  0.2384
  652SOL    HW1 1955   2.948   1.881   0.751  0.6724 -0.4334  1.4104
  652SOL    HW2 1956   3.096   1.932   0.709 -0.6235  1.1988 -2.1103
  653SOL     OW 1957   3.010   0.530   1.313 -0.4144  0.1502 -0.3979
  653SOL    HW1 1958   2.979   0.511   1.214  0.3858  0.8310  0.4468
  653SOL    HW2 1959   3.090   0.476   1.343 -2.5994  1.4248 -0.2709
  654SOL     OW 1960   0.757   0.197   0.068  0.4351 -0.6207  0.2713
  654SOL    HW1 1961   0.775   0.168   0.163  0.9855 -0.1886 -3.4912
  654SOL    HW2 1962   0.686   0.139   0.023  0.7201  1.7776  0.4853
  655SOL     OW 1963   0.530   3.062   1.113  0.7360  0.3529  0.0520
  655SOL    HW1 1964   0.454   0.009   1.089  1.9496 -1.9682  2.7743
  655SOL    HW2 1965   0.494   2.968   1.116 -1.3193  2.7292  0.0364
  656SOL     OW 1966   0.203   2.711   2.273  0.2455  0.2345 -0.6379
  656SOL    HW1 1967   0.161   2.804   2.278  1.2999  0.8941  0.8464
  656SOL    HW2 1968   0.133   2.639   2.267 -0.6932  1.5925 -3.3489
  657SOL     OW 1969   2.289   0.577   2.951 -0.3847  0.4338  0.5804
  657SOL    HW1 1970   2.347   0.514   2.902  0.3633  1.5113 -0.8098
  657SOL    HW2 1971   2.318   0.669   2.940 -0.2704 -0.2981  1.9927
  658SOL     OW 1972   1.973   1.814   1.175 -0.0922 -0.5114 -0.6660
  658SOL    HW1 1973   1.981   1.912   1.162  0.5781 -3.8598 -1.4574
  658SOL    HW2 1974   2.068   1.769   1.187 -1.4436  1.2575  0.3042
  659SOL     OW 1975   2.478   2.339   2.869  0.1055  0.7751  0.3970
  659SOL    HW1 1976   2.508   2.361   2.961 -2.0625  2.4930 -2.2018
  659SOL    HW2 1977   2.520   2.252   2.833  1.5742  0.4864 -0.5114
  660SOL     OW 1978   1.204   0.412   0.244 -0.5335 -0.2772 -0.5408
  660SOL    HW1 1979   1.301   0.441   0.244  3.4064  2.5758 -2.3201
  660SOL    HW2 1980   1.157   0.439   0.158  3.0799  0.8777  0.3215
  661SOL     OW 1981   2.480   3.034   0.526  0.6080  0.0023 -0.6273
  661SOL    HW1 1982   2.496   3.082   0.443  0.4334  2.1994  1.8115
  661SOL    HW2 1983   2.383   3.049   0.565 -4.1650  0.5820  3.3180
  662SOL     OW 1984   0.885   0.184   1.182 -0.5129 -0.1677  0.0998
  662SOL    HW1 1985   0.812   0.166   1.113 -2.8610 -0.1158 -2.0584
  662SOL    HW2 1986   0.851   0.166   1.274  0.1620 -0.0472 -2.4729
  663SOL     OW 1987   1.743   2.825   2.417 -0.1678  0.5648  0.4975
  663SOL    HW1 1988   1.760   2.787   2.325  1.5339 -1.6807  2.0906
  663SOL    HW2 1989   1.648   2.795   2.441 -1.5072 -1.4085 -0.6971
  664SOL     OW 1990   0.767   2.126   1.467 -0.3686  0.1792 -0.8771
  664SOL    HW1 1991   0.690   2.123   1.529  2.0251 -0.6818 -1.4260
  664SOL    HW2 1992   0.767   2.202   1.404 -1.0831 -3.6153 -1.7779
  665SOL     OW 1993   0.933   2.183   1.837 -0.1730  0.6773  0.2677
  665SOL    HW1 1994   0.852   2.119   1.840 -0.1618 -2.1545 -1.3036
  665SOL    HW2 1995   0.984   2.183   1.747  3.5374 -0.2304 -3.3843
  666SOL     OW 1996   0.105   2.825   2.796  0.0189  0.1732  0.3072
  666SOL    HW1 1997   0.095   2.912   2.748 -0.3029 -1.1299  2.2775
  666SOL    HW2 1998   0.069   2.746   2.741 -0.6792 -0.3394  0.7893
  667SOL     OW 1999   1.544   1.563   1.656 -0.6098  0.6708  0.0367
  667SOL    HW1 2000   1.456   1.593   1.616 -1.8894  1.3176 -1.8536
  667SOL    HW2 2001   1.617   1.589   1.595 -1.2818 -0.8679  3.2322
  668SOL     OW 2002   1.308   0.285   1.920  0.3805  0.3653 -0.4996
  668SOL    HW1 2003   1.295   0.200   1.871 -2.6842 -0.4152 -0.1346
  668SOL    HW2 2004   1.229   0.293   1.988 -0.7061  0.8194 -0.4862
  669SOL     OW 2005   2.665   2.307   1.317  0.2518  0.1493 -0.1125
  669SOL    HW1 2006   2.568   2.341   1.311  1.0339 -1.6520  0.8398
  669SOL    HW2 2007   2.725   2.390   1.316 -0.7323 -2.1389  0.3782
  670SOL     OW 2008   1.540   2.227   0.096  0.2994  0.3370 -0.0051
  670SOL    HW1 2009   1.588   2.178   0.168 -0.1249 -1.3804 -2.8582
  670SOL    HW2 2010   1.580   2.321   0.081  0.1799 -0.1802 -0.3529
  671SOL     OW 2011   1.287   1.015   0.843 -0.6352  0.4399 -0.0929
  671SOL    HW1 2012   1.385   1.038   0.867  2.1073  0.5849  1.2030
  671SOL    HW2 2013   1.224   1.070   0.904 -1.8442 -1.0024  2.7661
  672SOL     OW 2014   2.937   1.111   2.765  0.6423 -0.2613  0.8849
  672SOL    HW1 2015   2.966   1.098   2.862  1.1477 -1.9021 -0.8140
  672SOL    HW2 2016   2.882   1.199   2.748 -0.3918  1.1945  0.9543
  673SOL     OW 2017   0.031   1.905   1.378  0.4151  0.3127  0.1842
  673SOL    HW1 2018   3.080   1.927   1.453 -2.7060 -1.5759 -0.0046
  673SOL    HW2 2019   0.133   1.898   1.402 -1.8263  1.3370 -1.8508
  674SOL     OW 2020   0.609   2.328   2.250  0.0601 -0.5060  0.5202
  674SOL    HW1 2021   0.563   2.308   2.338  2.1657  2.5951  1.1030
  674SOL    HW2 2022   0.687   2.387   2.278 -2.7168 -0.7209 -1.9905
  675SOL     OW 2023   0.842   1.144   1.616 -0.0218 -0.2795  0.0346
  675SOL    HW1 2024   0.758   1.183   1.576 -1.0923  2.0887  0.3317
  675SOL    HW2 2025   0.824   1.089   1.700 -0.2206 -0.5282  3.2007
  676SOL     OW 2026   2.507   0.535   0.976  0.4938  0.1289  0.2879
  676SOL    HW1 2027   2.539   0.618   0.919 -0.5250  2.5910  1.7926
  676SOL    HW2 2028   2.469   0.575   1.063 -1.4866 -2.7726 -0.9182
  677SOL     OW 2029   2.459   1.606   0.018  0.3126 -0.1899  0.1071
  677SOL    HW1 2030   2.370   1.569   3.094 -1.1261 -1.1930  0.8117
  677SOL    HW2 2031   2.535   1.542   0.001 -0.2658  1.2184  1.6426
  678SOL     OW 2032   0.132   0.414   1.440  0.2426 -0.0893 -0.4653
  678SOL    HW1 2033   0.234   0.396   1.427  2.6253 -1.5870 -0.1096
  678SOL    HW2 2034   0.089   0.329   1.476  0.9839 -0.4345  2.4219
  679SOL     OW 2035   2.288   0.320   0.331  0.4071  0.1762 -0.1667
  679SOL    HW1 2036   2.342   0.375   0.271 -0.8775 -3.2314  0.7523
  679SOL    HW2 2037   2.298   0.359   0.425  3.2861  1.2968 -0.7672
  680SOL     OW 2038   0.128   2.019   1.783 -0.7802 -0.2477 -0.0513
  680SOL    HW1 2039   0.208   1.981   1.733  0.2865  1.9442 -1.7252
  680SOL    HW2 2040   0.125   1.975   1.875  0.0775 -0.5608 -0.5959
  681SOL     OW 2041   2.314   2.038   1.190  0.5210 -0.0660 -0.1399
  681SOL    HW1 2042   2.246   2.072   1.118 -2.2952  2.9552 -1.7751
  681SOL    HW2 2043   2.409   2.077   1.179  0.4782  0.4033  1.4268
  682SOL     OW 2044   3.038   2.009   2.288 -0.5760  0.0309  0.2965
  682SOL    HW1 2045   2.954   1.949   2.271 -1.4560 -1.3074  0.1953
  682SOL    HW2 2046   3.096   2.018   2.205 -0.1144 -0.7223  1.7665
  683SOL     OW 2047   0.101   2.298   1.406 -0.4321  0.4253 -0.7351
  683SOL    HW1 2048   0.110   2.307   1.302 -1.6015 -2.7384 -1.4419
  683SOL    HW2 2049   0.004   2.275   1.429 -0.2793  0.9450 -0.9170
  684SOL     OW 2050   2.688   1.066   2.641 -0.0352  0.1777  0.1267
  684SOL    HW1 2051   2.778   1.050   2.688  0.8534 -0.0330 -1.0410
  684SOL    HW2 2052   2.613   1.019   2.695 -0.2484 -0.2071 -0.4446
  685SOL     OW 2053   1.353   1.229   0.402  0.4032 -0.0506  0.1857
  685SOL    HW1 2054   1.321   1.218   0.497 -1.8861  3.1886  0.6461
  685SOL    HW2 2055   1.366   1.327   0.381 -0.8801 -1.0605  0.8963
  686SOL     OW 2056   0.289   0.183   0.381  0.1612  0.1551  0.2699
  686SOL    HW1 2057   0.234   0.116   0.326  1.2945  1.9652 -1.0940
  686SOL    HW2 2058   0.231   0.224   0.456 -1.3749  1.6299 -0.3364
  687SOL     OW 2059   1.384   1.513   2.536  0.3696 -0.4892 -0.2126
  687SOL    HW1 2060   1.407   1.599   2.590 -0.2589  1.3804  1.0809
  687SOL    HW2 2061   1.438   1.504   2.453 -1.8990  1.0807  0.4149
  688SOL     OW 2062   1.511   1.285   1.618  0.1745  0.3577  0.2457
  688SOL    HW1 2063   1.543   1.374   1.657  1.3950 -0.8452  2.2085
  688SOL    HW2 2064   1.415   1.272   1.622  2.8438 -1.1253 -0.1361
  689SOL     OW 2065   2.365   2.974   1.442 -0.5023  0.3661 -0.1581
  689SOL    HW1 2066   2.333   3.047   1.376  1.4469 -0.1039 -0.0354
  689SOL    HW2 2067   2.450   2.935   1.410 -2.1344  0.5799  0.2616
  690SOL     OW 2068   0.112   1.267   1.136  0.3992 -0.7178  0.3446
  690SOL    HW1 2069   0.029   1.282   1.081 -0.2437  1.1717  3.8854
  690SOL    HW2 2070   0.150   1.175   1.136  0.6384 -1.7181 -0.3981
  691SOL     OW 2071   0.531   2.273   1.137 -0.7309 -0.1582 -0.1620
  691SOL    HW1 2072   0.521   2.282   1.038  0.7939 -0.0960  3.4332
  691SOL    HW2 2073   0.489   2.357   1.187 -0.1346  2.1912  1.8556
  692SOL     OW 2074   2.391   0.716   1.806 -0.1332  0.4239  0.1375
  692SOL    HW1 2075   2.480   0.758   1.774 -2.6081 -3.0294  0.1251
  692SOL    HW2 2076   2.401   0.667   1.894  1.9610  0.7188  3.9517
  693SOL     OW 2077   0.539   1.700   2.045  0.6418 -0.0105 -0.3011
  693SOL    HW1 2078   0.638   1.720   2.071 -1.6829 -1.2236  0.5290
  693SOL    HW2 2079   0.511   1.632   2.115 -0.4353  0.6673  0.0442
  694SOL     OW 2080   1.665   1.404   1.247  0.1953  0.0340 -0.4055
  694SOL    HW1 2081   1.682   1.323   1.308 -0.4751  0.3028  0.1956
  694SOL    HW2 2082   1.569   1.444   1.265  0.6667  0.3056  0.2093
  695SOL     OW 2083   0.990   1.392   0.719  0.0857  0.1208  0.7496
  695SOL    HW1 2084   0.962   1.488   0.723 -0.3976 -2.2358 -1.4879
  695SOL    HW2 2085   0.913   1.328   0.720 -1.0794 -0.7555 -1.4582
  696SOL     OW 2086   0.819   2.944   0.256 -0.7430  0.2511 -0.2309
  696SOL    HW1 2087   0.794   2.933   0.156 -0.6254 -2.7051  0.2416
  696SOL    HW2 2088   0.891   2.874   0.278  1.0072  3.8990 -1.8585
  697SOL     OW 2089   1.570   0.533   1.631 -0.1726  0.6164 -0.1505
  697SOL    HW1 2090   1.657   0.577   1.663 -1.2365  0.7459 -0.8919
  697SOL    HW2 2091   1.571   0.512   1.533 -3.1408  0.3719  1.5657
  698SOL     OW 2092   1.644   1.598   2.163  0.7848  0.0123 -0.2146
  698SOL    HW1 2093   1.747   1.610   2.168  1.6343 -1.3801 -0.8649
  698SOL    HW2 2094   1.608   1.569   2.071  0.9979 -0.7746 -2.1747
  699SOL     OW 2095   2.622   0.324   1.844  0.1246 -0.7844  0.1647
  699SOL    HW1 2096   2.570   0.278   1.912 -0.1518  1.0787 -0.2531
  699SOL    HW2 2097   2.574   0.331   1.756  1.7897  0.6761  0.4065
  700SOL     OW 2098   1.190   2.194   0.506 -0.3050 -0.0262  0.0505
  700SOL    HW1 2099   1.256   2.240   0.441  1.3863  0.8694 -0.4183
  700SOL    HW2 2100   1.126   2.129   0.457 -2.2680 -0.0434  1.7993
  701SOL     OW 2101   2.448   3.091   2.354 -0.2483  0.0680 -0.4995
  701SOL    HW1 2102   2.506   3.009   2.380 -0.3970 -0.3495  1.2356
  701SOL    HW2 2103   2.427   0.030   2.439  0.7020  1.1181  0.5093
  702SOL     OW 2104   0.849   2.970   0.556 -0.2544 -0.1577  0.0008
  702SOL    HW1 2105   0.776   2.969   0.626  2.2916  1.3879  0.7783
  702SOL    HW2 2106   0.807   2.981   0.461 -0.7641 -1.2538  0.1578
  703SOL     OW 2107   2.301   0.121   2.166  0.1145 -0.4133 -0.6760
  703SOL    HW1 2108   2.227   0.180   2.203  1.0061 -2.4720 -1.2579
  703SOL    HW2 2109   2.340   0.069   2.244  2.4959  0.5617  1.3152
  704SOL     OW 2110   2.639   1.929   0.410  0.9323 -0.1995  0.1216
  704SOL    HW1 2111   2.585   1.958   0.327 -2.4550  0.3447 -1.6064
  704SOL    HW2 2112   2.610   1.986   0.489 -0.7264 -0.7892 -2.2219
  705SOL     OW 2113   2.602   2.894   2.475  0.3487  0.3403  0.2692
  705SOL    HW1 2114   2.652   2.913   2.560 -2.4645 -0.2134 -1.1682
  705SOL    HW2 2115   2.579   2.797   2.463 -3.4741 -1.6640 -0.2145
  706SOL     OW 2116   2.461   0.168   1.183  0.1992  0.2025  0.3633
  706SOL    HW1 2117   2.531   0.157   1.259  1.8431  0.8420 -1.3622
  706SOL    HW2 2118   2.448   0.075   1.136 -3.9254 -1.9977 -2.9200
  707SOL     OW 2119   0.905   0.083   2.569 -0.2667  0.5305 -0.0321
  707SOL    HW1 2120   0.868   0.030   2.648 -2.0305 -0.3513 -1.2929
  707SOL    HW2 2121   0.835   0.087   2.492  2.1263 -1.5450 -1.0822
  708SOL     OW 2122   0.294   2.308   1.771  0.0262  0.0177  0.0038
  708SOL    HW1 2123   0.303   2.264   1.678 -1.3650  0.9580  1.2299
  708SOL    HW2 2124   0.194   2.313   1.793 -1.0843  0.9886 -1.1434
  709SOL     OW 2125   1.435   0.179   1.607 -0.1181  0.0156  0.0319
  709SOL    HW1 2126   1.431   0.269   1.562  1.1867 -0.1558  0.5498
  709SOL    HW2 2127   1.449   0.113   1.534  1.0055  0.2931  2.5928
  710SOL     OW 2128   1.202   2.993   2.960 -0.0377  0.1772  0.1783
  710SOL    HW1 2129   1.111   2.960   2.986  1.7953  0.6045 -1.0884
  710SOL    HW2 2130   1.231   2.964   2.868 -1.2545  0.0568  1.3289
  711SOL     OW 2131   1.275   2.317   2.626  0.0056 -0.0095  0.3423
  711SOL    HW1 2132   1.212   2.264   2.689  0.0048  0.0965  0.7058
  711SOL    HW2 2133   1.228   2.359   2.542  2.0123  1.3470  1.0816
  712SOL     OW 2134   0.985   2.307   2.946 -0.1029 -0.3719  0.1654
  712SOL    HW1 2135   1.014   2.240   2.874  0.7837 -2.1482  2.1277
  712SOL    HW2 2136   0.991   2.266   3.040 -0.7528 -0.5493  1.3405
  713SOL     OW 2137   1.970   1.235   2.191  0.0771  0.3164 -0.1267
  713SOL    HW1 2138   1.871   1.209   2.189  1.6026  1.4850 -0.8901
  713SOL    HW2 2139   2.034   1.161   2.227 -0.4195 -0.4414 -0.5126
  714SOL     OW 2140   0.882   1.257   1.934  0.4307 -0.7074  0.2321
  714SOL    HW1 2141   0.817   1.303   1.878  1.4194  0.5402  0.0625
  714SOL    HW2 2142   0.843   1.171   1.975 -0.8765 -0.1452  0.0663
  715SOL     OW 2143   2.491   0.526   0.298  0.2059  0.2338 -0.6117
  715SOL    HW1 2144   2.559   0.457   0.335  0.6594  1.4653  0.4570
  715SOL    HW2 2145   2.423   0.553   0.370 -2.0685  1.7813 -0.5959
  716SOL     OW 2146   2.776   2.380   1.740 -0.1899  0.0879  0.3453
  716SOL    HW1 2147   2.691   2.435   1.738  2.5272 -1.1814 -0.1077
  716SOL    HW2 2148   2.769   2.292   1.791 -0.2133 -1.1547  0.1048
  717SOL     OW 2149   2.431   1.029   1.124 -0.4159  0.0381  0.1873
  717SOL    HW1 2150   2.376   1.116   1.137  0.2231  1.2498 -1.7759
  717SOL    HW2 2151   2.398   0.957   1.058 -1.1128 -1.9512 -0.7780
  718SOL     OW 2152   1.305   1.623   1.515 -0.1709 -0.4308  0.2032
  718SOL    HW1 2153   1.241   1.551   1.553  0.8684  0.3014 -0.2616
  718SOL    HW2 2154   1.247   1.666   1.447  1.1396 -1.6556  1.3178
  719SOL     OW 2155   2.847   0.538   0.039 -0.0293  0.5252  0.0560
  719SOL    HW1 2156   2.883   0.608   3.092 -2.4084 -1.0307 -0.1377
  719SOL    HW2 2157   2.870   0.445   3.113  0.5048 -3.4873 -2.4648
  720SOL     OW 2158   0.860   0.250   0.748  0.2382  0.1105  0.6874
  720SOL    HW1 2159   0.959   0.233   0.713  0.9552 -0.4619  0.9765
  720SOL    HW2 2160   0.837   0.346   0.747 -0.0079 -2.9427  2.2665
  721SOL     OW 2161   2.643   0.992   0.696 -0.3303 -0.6491  0.3353
  721SOL    HW1 2162   2.600   1.016   0.609  4.2965 -0.2653 -0.7867
  721SOL    HW2 2163   2.612   0.903   0.730 -2.0438  0.5543 -1.5063
  722SOL     OW 2164   0.506   2.224   2.497 -0.2228  0.2458  0.1442
  722SOL    HW1 2165   0.488   2.127   2.522  0.7388  0.2107  1.1486
  722SOL    HW2 2166   0.416   2.269   2.488 -0.2990  0.0053 -0.4535
  723SOL     OW 2167   1.794   0.016   1.081 -0.3986 -0.3883 -0.3045
  723SOL    HW1 2168   1.752   0.102   1.117 -0.2527 -0.1711 -0.6614
  723SOL    HW2 2169   1.835   3.078   1.159 -2.2148 -0.0089 -0.1123
  724SOL     OW 2170   1.414   1.815   1.835 -0.3639 -0.6483  0.4843
  724SOL    HW1 2171   1.416   1.910   1.867 -1.7957 -0.2706 -2.7884
  724SOL    HW2 2172   1.343   1.762   1.877  3.9152 -0.3402 -0.3469
  725SOL     OW 2173   1.157   2.752   1.323 -0.2319  0.2506 -0.2613
  725SOL    HW1 2174   1.117   2.795   1.408 -1.1209  2.1242  0.8643
  725SOL    HW2 2175   1.156   2.816   1.247  0.6813  2.2007  2.5187
  726SOL     OW 2176   2.167   2.695   0.185  0.2118 -0.4512 -1.0027
  726SOL    HW1 2177   2.152   2.701   0.082 -1.2476  0.0352  0.7728
  726SOL    HW2 2178   2.087   2.657   0.234  0.3893 -0.0421  3.2545
  727SOL     OW 2179   1.475   1.760   1.058  0.0472  0.0254 -0.0983
  727SOL    HW1 2180   1.566   1.717   1.046 -0.9902 -0.8329 -1.6062
  727SOL    HW2 2181   1.403   1.693   1.081  0.0351 -1.5117  0.1988
  728SOL     OW 2182   2.192   2.699   2.173  0.1963 -0.0061  0.4988
  728SOL    HW1 2183   2.136   2.734   2.253 -0.0422 -1.2616  2.4158
  728SOL    HW2 2184   2.275   2.763   2.159  1.7744  1.0138  1.0943
  729SOL     OW 2185   1.971   2.406   1.358 -0.2589 -0.3218  0.0755
  729SOL    HW1 2186   1.881   2.445   1.379  1.0648  0.3170  0.2242
  729SOL    HW2 2187   2.031   2.429   1.441  1.0018  0.9573  2.6648
  730SOL     OW 2188   1.865   0.922   2.402 -0.2743  0.0733  0.0744
  730SOL    HW1 2189   1.832   0.919   2.308 -0.3215 -3.7595 -0.1569
  730SOL    HW2 2190   1.810   0.998   2.445  0.5545  1.7386 -0.6801
  731SOL     OW 2191   0.872   2.752   1.191  0.4051 -0.3474  0.3311
  731SOL    HW1 2192   0.815   2.834   1.214  0.0853 -2.0285  1.2272
  731SOL    HW2 2193   0.961   2.766   1.143  2.1045 -0.4153 -0.0430
  732SOL     OW 2194   1.184   0.066   0.884  0.2305 -0.7334  0.0373
  732SOL    HW1 2195   1.098   0.037   0.835 -1.1623 -0.4999  0.7280
  732SOL    HW2 2196   1.248   3.098   0.897  1.0066 -1.9556  0.8156
  733SOL     OW 2197   1.251   1.200   0.662 -0.6948 -0.7150 -0.0733
  733SOL    HW1 2198   1.235   1.293   0.698 -1.2479  1.5416 -0.9122
  733SOL    HW2 2199   1.267   1.124   0.731 -2.1171  0.4478 -0.5564
  734SOL     OW 2200   2.631   2.149   2.692 -0.2872  0.0201  0.0498
  734SOL    HW1 2201   2.673   2.233   2.650 -0.5663  2.4562  1.0488
  734SOL    HW2 2202   2.563   2.103   2.641  2.3203  2.2656  2.5607
  735SOL     OW 2203   0.715   0.140   0.967 -0.3298 -0.2636 -0.1327
  735SOL    HW1 2204   0.650   0.061   0.961 -1.4572  1.3092 -0.3100
  735SOL    HW2 2205   0.773   0.155   0.888 -0.9760  0.1660  2.3186
  736SOL     OW 2206   1.548   2.479   2.651 -0.0775  0.5193 -0.2733
  736SOL    HW1 2207   1.590   2.392   2.618  2.1634  0.2212  1.9262
  736SOL    HW2 2208   1.449   2.467   2.678  1.5457  2.1480  1.8710
  737SOL     OW 2209   0.814   2.277   1.234  0.5020  0.3961  0.5926
  737SOL    HW1 2210   0.725   2.272   1.184 -2.2001 -0.6120  0.6658
  737SOL    HW2 2211   0.847   2.367   1.267  0.4153 -1.5154  0.7695
  738SOL     OW 2212   1.521   3.101   2.780  0.8435  0.3450 -0.0091
  738SOL    HW1 2213   1.604   3.113   2.724 -1.3298  1.2431  1.5639
  738SOL    HW2 2214   1.535   3.077   2.877 -0.8416 -1.8805  1.0583
  739SOL     OW 2215   1.304   2.373   1.899 -0.0384  0.3059  0.0031
  739SOL    HW1 2216   1.247   2.368   1.981 -2.0208  0.6640  1.8709
  739SOL    HW2 2217   1.338   2.283   1.870 -1.8148  1.0968 -1.2188
  740SOL     OW 2218   1.531   2.379   1.561  0.5154  0.3290  0.3587
  740SOL    HW1 2219   1.490   2.321   1.484  0.8815 -0.4762 -3.3307
  740SOL    HW2 2220   1.471   2.462   1.573  3.5341 -0.3802  2.2341
  741SOL     OW 2221   2.504   1.130   0.266  0.2007 -0.1616 -0.3326
  741SOL    HW1 2222   2.470   1.094   0.354 -2.6504  0.5935 -1.5221
  741SOL    HW2 2223   2.424   1.166   0.208 -0.5170  2.2170 -0.5750
  742SOL     OW 2224   0.531   1.927   2.478  0.3936  0.5168  0.1355
  742SOL    HW1 2225   0.628   1.913   2.450  0.2281  0.0364  2.0667
  742SOL    HW2 2226   0.468   1.966   2.410 -0.1550 -1.2143  2.0146
  743SOL     OW 2227   0.417   1.167   2.714  0.0928 -0.1294  0.4330
  743SOL    HW1 2228   0.490   1.092   2.707  1.9710 -1.1317  0.4588
  743SOL    HW2 2229   0.435   1.222   2.798 -1.1208 -0.5985  2.1920
  744SOL     OW 2230   2.184   2.404   1.184  0.0567  0.0051 -0.2146
  744SOL    HW1 2231   2.154   2.430   1.093  2.6394 -2.1306  1.7310
  744SOL    HW2 2232   2.108   2.400   1.258 -3.1757 -0.1710 -0.4659
  745SOL     OW 2233   2.166   1.726   1.511 -0.0940 -0.0475 -0.0037
  745SOL    HW1 2234   2.192   1.727   1.414 -2.9517 -0.9678 -0.7354
  745SOL    HW2 2235   2.086   1.788   1.502  1.2532  2.5312 -2.3241
  746SOL     OW 2236   2.074   1.055   0.842 -0.0311  0.3869  0.1749
  746SOL    HW1 2237   2.164   1.105   0.822  1.7052  0.6155 -0.0069
  746SOL    HW2 2238   2.042   1.081   0.936 -1.3031  3.1653  0.3626
  747SOL     OW 2239   1.632   2.109   0.836 -0.0015 -0.2835 -0.2851
  747SOL    HW1 2240   1.573   2.027   0.834 -0.4467 -1.1384 -0.9078
  747SOL    HW2 2241   1.730   2.083   0.837 -2.4942  1.1278 -1.1963
  748SOL     OW 2242   0.622   1.773   0.550 -0.3774  0.3414  0.1285
  748SOL    HW1 2243   0.683   1.712   0.495 -0.7958 -0.2543  0.0919
  748SOL    HW2 2244   0.656   1.783   0.647 -1.8928 -0.8498 -1.1802
  749SOL     OW 2245   0.070   3.010   2.261  0.0527 -0.2250  0.3242
  749SOL    HW1 2246   0.028   3.089   2.208  0.3567  1.5520  1.6310
  749SOL    HW2 2247   0.156   3.043   2.300 -4.8450 -2.0372  0.8787
  750SOL     OW 2248   1.929   0.429   1.210 -0.6681  0.0862 -0.1175
  750SOL    HW1 2249   1.992   0.434   1.131 -1.3647  0.0579  2.4318
  750SOL    HW2 2250   1.971   0.369   1.285  1.9494 -0.1342 -0.6055
  751SOL     OW 2251   2.253   3.001   0.282  0.5546 -0.3456  0.4376
  751SOL    HW1 2252   2.241   2.898   0.279  0.1916  1.2906 -0.3884
  751SOL    HW2 2253   2.342   3.020   0.244 -1.2849 -0.7144  2.0075
  752SOL     OW 2254   1.985   1.985   0.215  0.6287  0.5247  0.1158
  752SOL    HW1 2255   1.890   1.960   0.184  1.5854  0.0489 -0.2041
  752SOL    HW2 2256   2.047   1.907   0.187  0.0673  0.8484 -1.5787
  753SOL     OW 2257   2.036   1.411   2.587 -0.5038  0.1681 -0.0133
  753SOL    HW1 2258   2.080   1.326   2.627  1.7703 -2.5828  1.6794
  753SOL    HW2 2259   2.043   1.420   2.486  0.4303  0.7337 -0.3362
  754SOL     OW 2260   2.952   2.422   1.100 -0.0515  0.0778  0.0072
  754SOL    HW1 2261   2.980   2.522   1.085  0.5050  1.0472  0.3929
  754SOL    HW2 2262   3.029   2.357   1.108 -1.1361 -0.6045  0.2210
  755SOL     OW 2263   2.064   0.714   0.998  0.2966 -0.1194  0.4071
  755SOL    HW1 2264   2.020   0.757   0.919  1.0866 -0.2597  0.9268
  755SOL    HW2 2265   2.026   0.737   1.091  2.3583 -2.0327  1.3148
  756SOL     OW 2266   1.068   1.440   2.856  0.0743 -0.2560 -0.5724
  756SOL    HW1 2267   1.086   1.538   2.893  0.7851  0.3380  1.5418
  756SOL    HW2 2268   1.113   1.429   2.771 -2.5933  0.1071  3.8302
  757SOL     OW 2269   2.100   2.856   1.471 -0.7312 -0.0107 -0.1612
  757SOL    HW1 2270   2.087   2.764   1.430  3.2840  0.5692  0.8219
  757SOL    HW2 2271   2.197   2.875   1.450 -1.8165  0.6385  1.3061
  758SOL     OW 2272   0.889   2.515   1.324 -0.2933  0.4264  0.4439
  758SOL    HW1 2273   0.827   2.511   1.406  1.7484  0.7076 -2.0901
  758SOL    HW2 2274   0.872   2.599   1.272  0.4423  1.3085 -0.0151
  759SOL     OW 2275   2.263   1.425   1.012 -0.4888 -0.2927  0.0874
  759SOL    HW1 2276   2.178   1.471   0.980 -0.5619  0.2626  3.9411
  759SOL    HW2 2277   2.352   1.476   1.001  2.3999  1.1652 -0.3042
  760SOL     OW 2278   2.131   1.096   1.348  0.1807  0.2723  0.2481
  760SOL    HW1 2279   2.059   1.105   1.424  1.3120  0.3711  0.2650
  760SOL    HW2 2280   2.195   1.175   1.346  0.4363 -0.5984  1.2685
  761SOL     OW 2281   2.216   3.086   0.541 -0.6811 -0.1374  0.5657
  761SOL    HW1 2282   2.147   3.017   0.569  1.5995  1.6842 -1.5776
  761SOL    HW2 2283   2.216   3.091   0.438 -2.7486 -1.9138  0.8845
  762SOL     OW 2284   1.824   2.149   3.037  0.6876  0.1026 -0.1695
  762SOL    HW1 2285   1.882   2.162   2.953  0.2236 -0.4346 -1.2732
  762SOL    HW2 2286   1.852   2.219   3.102  2.5358 -0.6349 -1.7321
  763SOL     OW 2287   0.583   1.130   1.088 -0.2078  0.4351  0.4580
  763SOL    HW1 2288   0.560   1.219   1.048 -2.4774 -1.0759  0.3434
  763SOL    HW2 2289   0.664   1.135   1.151 -1.4304 -0.3870 -2.3326
  764SOL     OW 2290   2.774   2.231   0.034 -0.1337 -0.2652 -0.6882
  764SOL    HW1 2291   2.877   2.229   0.044  1.2993  0.0055  0.2677
  764SOL    HW2 2292   2.748   2.184   3.064  1.3855 -1.5257  0.0324
  765SOL     OW 2293   0.837   0.123   1.961 -0.1037  0.7814 -0.2220
  765SOL    HW1 2294   0.748   0.162   1.956  3.1412 -4.3157  0.0545
  765SOL    HW2 2295   0.868   0.074   1.881 -0.3367  1.9741 -0.9795
  766SOL     OW 2296   2.985   1.728   2.720 -0.2465 -0.4507  0.0682
  766SOL    HW1 2297   2.921   1.765   2.652 -1.0681  0.5431  1.3937
  766SOL    HW2 2298   3.073   1.698   2.672 -2.3597 -0.1494 -1.0484
  767SOL     OW 2299   0.017   1.549   1.639  0.8237 -0.0904  0.0732
  767SOL    HW1 2300   3.041   1.513   1.668  1.3045 -2.2365 -0.2981
  767SOL    HW2 2301   0.012   1.592   1.544 -0.3210  0.4107  2.2101
  768SOL     OW 2302   0.994   0.867   2.950 -0.2645  0.2357 -0.3751
  768SOL    HW1 2303   0.971   0.867   3.050 -1.1451 -1.9971 -1.4022
  768SOL    HW2 2304   1.090   0.904   2.948 -0.8170  1.2118 -0.4128
  769SOL     OW 2305   1.977   2.513   0.295  0.3146  0.3634 -0.3139
  769SOL    HW1 2306   1.876   2.516   0.312  0.6553  0.6347 -0.3585
  769SOL    HW2 2307   2.032   2.496   0.383 -0.6535 -0.1423  1.5523
  770SOL     OW 2308   2.816   0.204   3.111 -0.5053  0.2758 -0.5084
  770SOL    HW1 2309   2.733   0.196   0.055  1.9384  0.1241 -1.1376
  770SOL    HW2 2310   2.798   0.270   3.030  2.0006  1.3039 -3.9600
  771SOL     OW 2311   1.677   2.362   2.038  0.2924 -0.2599 -0.2625
  771SOL    HW1 2312   1.713   2.453   2.003  0.2842  1.7706 -1.3019
  771SOL    HW2 2313   1.633   2.310   1.964  1.7424  1.1890  0.8945
  772SOL     OW 2314   0.593   0.422   2.905 -0.5078  0.2967 -0.2393
  772SOL    HW1 2315   0.679   0.444   2.859 -0.7889 -1.1544 -0.1280
  772SOL    HW2 2316   0.540   0.361   2.845  2.1545  0.1748 -0.6850
  773SOL     OW 2317   2.951   1.097   1.480 -0.1879  0.7477 -0.3633
  773SOL    HW1 2318   2.857   1.107   1.436 -1.0905  0.2360 -0.2645
  773SOL    HW2 2319   2.945   1.104   1.580 -0.0327 -1.2498 -2.5519
  774SOL     OW 2320   1.549   1.066   0.272 -0.0910 -0.1863  0.3766
  774SOL    HW1 2321   1.484   1.122   0.320  1.9646 -2.6497  1.8896
  774SOL    HW2 2322   1.647   1.101   0.272 -2.3751 -1.0055 -1.0374
  775SOL     OW 2323   2.399   2.704   0.330  0.1016 -0.0583 -0.4995
  775SOL    HW1 2324   2.466   2.705   0.251  1.2983  0.2526  1.5440
  775SOL    HW2 2325   2.307   2.698   0.286 -1.8452 -0.7234 -0.8070
  776SOL     OW 2326   2.588   0.802   2.142  0.2869  0.1529  0.6858
  776SOL    HW1 2327   2.598   0.880   2.079  2.2837  1.2908  0.3395
  776SOL    HW2 2328   2.547   0.832   2.234 -0.1310  2.5467  2.1366
  777SOL     OW 2329   0.147   1.221   2.447  0.2096  0.0139  0.8334
  777SOL    HW1 2330   0.242   1.254   2.425 -0.0342 -0.3674 -2.5395
  777SOL    HW2 2331   0.122   1.155   2.375  0.4957 -0.5382  1.2847
  778SOL     OW 2332   0.857   0.335   0.443  0.4859 -0.9103 -0.9138
  778SOL    HW1 2333   0.947   0.346   0.486 -0.3836  0.5141  0.6591
  778SOL    HW2 2334   0.835   0.238   0.424  2.3475 -0.1084 -1.6594
  779SOL     OW 2335   0.631   0.985   2.704  0.1007  0.5853 -0.0035
  779SOL    HW1 2336   0.680   1.070   2.703 -0.3566 -0.4256  0.8407
  779SOL    HW2 2337   0.687   0.902   2.709  1.8109  1.9754 -1.0029
  780SOL     OW 2338   2.125   1.031   2.271  0.7134 -0.2589 -0.8305
  780SOL    HW1 2339   2.066   0.988   2.338  0.1393 -0.3284 -0.7365
  780SOL    HW2 2340   2.166   0.958   2.208 -0.4720 -2.8913 -1.8459
  781SOL     OW 2341   3.008   1.124   1.752 -0.3803  0.0464 -0.1720
  781SOL    HW1 2342   3.103   1.154   1.768  0.0509  1.1711 -1.7921
  781SOL    HW2 2343   2.973   1.074   1.832  0.4918  1.1296 -0.1858
  782SOL     OW 2344   0.944   1.723   2.345 -0.6918 -0.2515 -0.1785
  782SOL    HW1 2345   0.930   1.792   2.417 -0.4884 -1.5761  1.6426
  782SOL    HW2 2346   0.980   1.644   2.396  0.0814  0.9067 -0.9971
  783SOL     OW 2347   0.421   2.656   1.523  0.2118  0.0682 -0.2552
  783SOL    HW1 2348   0.421   2.616   1.617 -0.1215 -0.3872  1.4144
  783SOL    HW2 2349   0.484   2.736   1.523  1.0376 -1.1096 -1.5060
  784SOL     OW 2350   1.387   0.443   2.940 -0.3373  0.3867 -0.4388
  784SOL    HW1 2351   1.465   0.377   2.914  1.3703  0.3507 -0.8104
  784SOL    HW2 2352   1.418   0.510   3.011 -0.3537  0.9420  2.9288
  785SOL     OW 2353   1.138   0.340   2.911  0.1902 -0.4644 -0.0261
  785SOL    HW1 2354   1.232   0.378   2.905 -0.9872  1.4598 -1.7825
  785SOL    HW2 2355   1.091   0.364   2.826 -2.4274 -3.6636 -0.7483
  786SOL     OW 2356   0.345   1.584   0.401 -0.0024 -0.5719  0.4374
  786SOL    HW1 2357   0.346   1.496   0.453 -0.5135  0.4764 -0.1841
  786SOL    HW2 2358   0.424   1.595   0.334 -0.5992 -1.6154  0.2731
  787SOL     OW 2359   1.845   1.398   0.366 -0.0920 -0.4548 -0.1086
  787SOL    HW1 2360   1.925   1.451   0.341 -1.2257  1.6606 -2.2473
  787SOL    HW2 2361   1.760   1.440   0.330  4.0010 -1.0128 -2.3204
  788SOL     OW 2362   1.966   1.510   1.583 -0.7994  0.2455 -0.1158
  788SOL    HW1 2363   1.896   1.555   1.527 -0.7392  0.4547  2.6527
  788SOL    HW2 2364   2.049   1.567   1.580  0.0793  0.4726 -3.7799
  789SOL     OW 2365   0.360   1.367   1.792  0.0473 -0.2162 -0.1071
  789SOL    HW1 2366   0.319   1.432   1.861  0.5251  0.4330  0.7655
  789SOL    HW2 2367   0.338   1.395   1.696 -0.0606  1.6080  1.7608
  790SOL     OW 2368   0.479   2.771   3.025 -0.0129 -0.3584  0.0047
  790SOL    HW1 2369   0.389   2.725   3.012  0.5195  0.8892 -1.4519
  790SOL    HW2 2370   0.478   2.837   3.105 -2.8306 -0.8645 -0.3759
  791SOL     OW 2371   0.474   0.222   2.732  0.0780 -0.0604 -0.2539
  791SOL    HW1 2372   0.495   0.274   2.652 -1.1912 -2.0199  2.9580
  791SOL    HW2 2373   0.399   0.153   2.722 -2.0152  1.8206 -1.3108
  792SOL     OW 2374   2.004   0.657   2.410 -0.5948  0.0738  0.3893
  792SOL    HW1 2375   1.948   0.743   2.410 -0.0247 -1.8983 -2.6928
  792SOL    HW2 2376   1.984   0.602   2.493  1.2546  2.6142 -1.3941
  793SOL     OW 2377   0.382   0.572   1.126 -0.1590  0.1368 -0.1022
  793SOL    HW1 2378   0.423   0.492   1.163 -0.4382  0.6193 -0.2811
  793SOL    HW2 2379   0.323   0.609   1.201 -0.8931 -0.4258 -0.4248
  794SOL     OW 2380   0.628   0.393   1.889  0.4554  0.3801 -0.0645
  794SOL    HW1 2381   0.679   0.366   1.805  0.0927  1.3237 -1.1733
  794SOL    HW2 2382   0.564   0.469   1.874 -0.6163  0.7178  0.2571
  795SOL     OW 2383   0.049   1.287   0.178 -0.1557 -0.2900  0.4353
  795SOL    HW1 2384   3.079   1.286   0.117 -1.3124  0.1548 -0.9544
  795SOL    HW2 2385   0.075   1.383   0.199  0.0422  1.6287 -2.2615
  796SOL     OW 2386   0.146   0.035   0.194  0.7759  0.4283 -0.4629
  796SOL    HW1 2387   0.066   0.094   0.202  0.6179 -1.3874 -1.7921
  796SOL    HW2 2388   0.112   3.056   0.172 -1.1837  1.3882  0.1669
  797SOL     OW 2389   1.504   2.757   2.525  0.0401 -0.0442 -0.2478
  797SOL    HW1 2390   1.442   2.811   2.584 -0.2745  1.5509 -2.2951
  797SOL    HW2 2391   1.514   2.666   2.565  0.2951  0.1086  0.0381
  798SOL     OW 2392   2.911   0.566   0.817 -0.6572 -1.3428  0.6622
  798SOL    HW1 2393   2.821   0.551   0.779 -0.4467 -0.8886  0.8190
  798SOL    HW2 2394   2.946   0.654   0.785  0.9653  1.6714 -1.6734
  799SOL     OW 2395   2.459   0.598   2.667 -0.0493  0.2925  0.3418
  799SOL    HW1 2396   2.461   0.509   2.622 -1.5242  1.7845  1.1899
  799SOL    HW2 2397   2.520   0.660   2.616  1.0627  1.8860  3.2935
  800SOL     OW 2398   0.039   2.091   0.264  0.1370 -0.1042 -0.1009
  800SOL    HW1 2399   0.039   2.108   0.365 -1.6079  1.0817  0.8559
  800SOL    HW2 2400   0.118   2.028   0.239 -0.0868  0.4040 -1.3746
  801SOL     OW 2401   1.289   1.560   1.061  0.3524 -0.7249 -0.1182
  801SOL    HW1 2402   1.311   1.495   1.137 -1.3975  0.3534 -1.9011
  801SOL    HW2 2403   1.302   1.520   0.968 -0.4594 -1.1846  0.1101
  802SOL     OW 2404   1.202   1.818   2.249  0.9206 -0.6356  0.7590
  802SOL    HW1 2405   1.097   1.814   2.250  1.0129  2.1644 -4.3922
  802SOL    HW2 2406   1.230   1.781   2.159 -2.0684  1.1388  1.6649
  803SOL     OW 2407   0.458   1.817   1.010  0.0906 -0.4106  0.0068
  803SOL    HW1 2408   0.428   1.884   0.938 -1.8503 -0.0262 -0.6281
  803SOL    HW2 2409   0.492   1.868   1.084 -2.0183 -0.2558  0.2857
  804SOL     OW 2410   1.158   2.459   1.263 -0.1475 -0.7691  0.2138
  804SOL    HW1 2411   1.200   2.551   1.250  1.3175 -2.0241  0.3036
  804SOL    HW2 2412   1.054   2.471   1.265 -3.1966  0.1033 -1.2014
  805SOL     OW 2413   1.842   1.531   3.101  0.2669  0.2710 -0.1665
  805SOL    HW1 2414   1.887   1.482   3.023 -3.5178  0.2389 -0.1816
  805SOL    HW2 2415   1.746   1.491   3.112 -2.2582 -2.0347  1.5665
  806SOL     OW 2416   2.100   2.464   0.925 -0.4256  0.0408 -0.1173
  806SOL    HW1 2417   2.199   2.495   0.902 -0.6978 -1.0833 -1.8460
  806SOL    HW2 2418   2.034   2.541   0.938 -2.3894 -2.4558 -1.3121
  807SOL     OW 2419   2.940   0.703   2.682 -0.3325  0.0562 -0.5896
  807SOL    HW1 2420   2.925   0.605   2.659 -2.1724  0.6492  2.5396
  807SOL    HW2 2421   3.011   0.745   2.616  0.1525  1.1521 -3.9445
  808SOL     OW 2422   0.286   0.929   0.351 -0.0720 -0.1067  0.2662
  808SOL    HW1 2423   0.385   0.905   0.370  2.1986 -0.5554 -0.9671
  808SOL    HW2 2424   0.260   0.910   0.254  0.0439 -2.0840  0.5078
  809SOL     OW 2425   2.536   1.041   2.005  0.0802 -0.0142  0.0122
  809SOL    HW1 2426   2.441   1.064   1.997  2.0085  1.3797  2.3967
  809SOL    HW2 2427   2.575   1.030   1.914 -0.3353 -3.7154  1.4692
  810SOL     OW 2428   1.235   0.576   1.436 -1.0533  0.1173 -0.3624
  810SOL    HW1 2429   1.164   0.508   1.416  1.2532  0.5484 -2.3730
  810SOL    HW2 2430   1.295   0.586   1.358  1.4658 -1.6642 -0.1712
  811SOL     OW 2431   2.184   2.764   1.734 -0.0085  0.0260  0.0880
  811SOL    HW1 2432   2.146   2.815   1.655  0.3417 -0.3221  0.5300
  811SOL    HW2 2433   2.123   2.740   1.810  1.8669 -1.2807 -1.3737
  812SOL     OW 2434   1.425   2.433   2.920  0.5731 -0.0854 -0.3352
  812SOL    HW1 2435   1.406   2.522   2.874  2.4431  1.1104  1.8238
  812SOL    HW2 2436   1.502   2.445   2.982 -0.1776 -0.3331  0.2191
  813SOL     OW 2437   1.719   0.959   1.650 -0.0332  0.3054  0.1613
  813SOL    HW1 2438   1.634   0.980   1.701 -2.3847 -0.3490 -0.3488
  813SOL    HW2 2439   1.715   0.872   1.599 -0.4951 -1.9365  2.2143
  814SOL     OW 2440   0.780   0.345   1.678  0.6948  0.0754  0.3979
  814SOL    HW1 2441   0.745   0.277   1.609  0.1880  1.4089 -1.6496
  814SOL    HW2 2442   0.846   0.412   1.637 -2.8875  0.5334  0.5690
  815SOL     OW 2443   0.586   0.961   0.322  0.4049  0.6499  0.3232
  815SOL    HW1 2444   0.638   0.904   0.254  2.8096  0.9997  1.7789
  815SOL    HW2 2445   0.607   0.933   0.414 -2.7231  1.2229  0.4074
  816SOL     OW 2446   2.250   1.582   2.716 -0.1156 -0.3849  0.4782
  816SOL    HW1 2447   2.219   1.514   2.647  0.7799  0.5200  1.4035
  816SOL    HW2 2448   2.352   1.591   2.713  0.5199  0.7053 -3.2451
  817SOL     OW 2449   0.846   2.581   0.225  0.3160 -0.1797 -0.1456
  817SOL    HW1 2450   0.911   2.608   0.152 -0.3899 -0.6593  0.8594
  817SOL    HW2 2451   0.893   2.518   0.291 -0.1854 -1.9937  2.3402
  818SOL     OW 2452   1.882   0.315   0.126  0.3105 -0.3555 -0.1550
  818SOL    HW1 2453   1.981   0.301   0.122 -0.8603 -1.2511  0.4935
  818SOL    HW2 2454   1.843   0.302   0.033 -1.1343  0.6511 -3.7595
  819SOL     OW 2455   1.568   0.437   0.067  0.1462 -0.1801 -0.0080
  819SOL    HW1 2456   1.672   0.443   0.064 -0.2780  1.1558 -0.0061
  819SOL    HW2 2457   1.548   0.340   0.040 -0.4675 -0.1679  1.1090
  820SOL     OW 2458   1.806   0.637   0.270 -0.1944  0.5718  0.2105
  820SOL    HW1 2459   1.865   0.564   0.230  0.3797  1.8996 -1.3555
  820SOL    HW2 2460   1.798   0.715   0.203 -1.1615 -0.9465  1.3115
  821SOL     OW 2461   2.577   0.217   0.115 -0.1588  0.4697  0.3317
  821SOL    HW1 2462   2.550   0.279   0.187  1.1929 -3.3628 -1.1628
  821SOL    HW2 2463   2.526   0.237   0.028 -2.6671  0.4581  0.9739
  822SOL     OW 2464   0.653   2.628   1.783  0.5317 -0.0104  0.4634
  822SOL    HW1 2465   0.677   2.725   1.762 -0.4720 -0.2010  0.6740
  822SOL    HW2 2466   0.732   2.582   1.825 -2.5406  1.1036  1.3971
  823SOL     OW 2467   0.007   1.636   1.375  0.1518 -0.0048 -0.8579
  823SOL    HW1 2468   0.022   1.736   1.364  1.5389  4.0437  0.3412
  823SOL    HW2 2469   3.024   1.609   1.352 -1.4403 -0.3822  1.5873
  824SOL     OW 2470   1.747   3.112   2.367 -0.7151 -0.3594 -0.1529
  824SOL    HW1 2471   1.739   3.012   2.385  1.4801 -1.7103 -1.4708
  824SOL    HW2 2472   1.826   0.016   2.305 -1.2361  2.3810 -1.1057
  825SOL     OW 2473   1.604   1.008   0.553  0.2921  0.1214  0.0336
  825SOL    HW1 2474   1.592   0.988   0.651  3.0471  1.2733  0.6666
  825SOL    HW2 2475   1.516   0.995   0.497 -4.5476 -1.2945 -2.3638
  826SOL     OW 2476   1.815   0.821   0.072 -0.4096 -0.4118 -0.1947
  826SOL    HW1 2477   1.888   0.878   0.032 -2.3243  2.3403 -3.1910
  826SOL    HW2 2478   1.732   0.869   0.053  4.3158  2.6168 -0.1989
  827SOL     OW 2479   0.597   1.308   1.446 -0.6364 -0.1724  0.5271
  827SOL    HW1 2480   0.533   1.314   1.520 -0.5261 -1.2721  0.3041
  827SOL    HW2 2481   0.571   1.372   1.368 -2.4806  1.0980  1.2050
  828SOL     OW 2482   2.165   1.556   1.913 -0.0589  0.3200  0.0628
  828SOL    HW1 2483   2.120   1.646   1.921 -1.6339 -1.8718  0.1146
  828SOL    HW2 2484   2.234   1.551   1.838  1.4319  1.8361  0.6281
  829SOL     OW 2485   0.266   1.939   0.229  0.3452 -0.1768  0.0144
  829SOL    HW1 2486   0.334   1.959   0.299 -0.8329  0.0032  2.5159
  829SOL    HW2 2487   0.310   1.898   0.146 -0.4462 -1.1267 -0.4010
  830SOL     OW 2488   1.830   0.862   0.536 -0.0798  0.0302 -0.5287
  830SOL    HW1 2489   1.734   0.895   0.533  0.0198  0.0319 -1.8385
  830SOL    HW2 2490   1.891   0.914   0.465  2.6649  0.7288  1.4634
  831SOL     OW 2491   2.862   1.845   3.113 -0.0549  0.1108  0.3241
  831SOL    HW1 2492   2.767   1.827   3.069 -0.8552 -0.0864  0.0768
  831SOL    HW2 2493   2.848   1.881   0.090  0.9306  0.9270 -0.1654
  832SOL     OW 2494   0.834   0.100   0.309 -0.3612  0.4524  0.4557
  832SOL    HW1 2495   0.802   0.001   0.320  0.9368 -1.2011 -0.7693
  832SOL    HW2 2496   0.935   0.095   0.286  4.1033  2.1686 -0.2644
  833SOL     OW 2497   1.075   0.661   2.229  0.4740  0.4216 -0.1502
  833SOL    HW1 2498   1.137   0.741   2.218 -1.0055  0.2381 -3.1826
  833SOL    HW2 2499   1.054   0.616   2.140 -0.2818 -0.7090  1.0702
  834SOL     OW 2500   0.156   0.320   0.979 -0.1895 -0.1364 -0.2428
  834SOL    HW1 2501   0.214   0.302   0.897 -0.8869  1.5428  2.8489
  834SOL    HW2 2502   0.141   0.422   0.998 -2.4845  1.1289  3.2256
  835SOL     OW 2503   2.943   2.979   0.903  0.3588 -0.2770 -0.0971
  835SOL    HW1 2504   2.879   2.905   0.928 -1.0909  1.4032 -0.0145
  835SOL    HW2 2505   3.009   3.000   0.977  1.0551  0.2599 -0.1593
  836SOL     OW 2506   0.584   2.006   0.314 -0.3523  0.3436  0.2661
  836SOL    HW1 2507   0.573   2.003   0.416 -0.3121 -0.0489  2.2336
  836SOL    HW2 2508   0.684   2.013   0.294 -2.2052  0.9814  1.4993
  837SOL     OW 2509   1.445   1.745   2.662 -0.2379 -0.1924 -0.5826
  837SOL    HW1 2510   1.369   1.787   2.607 -0.0054  2.1259  2.2715
  837SOL    HW2 2511   1.534   1.774   2.622  1.5959 -2.8580  1.2228
  838SOL     OW 2512   0.189   0.824   2.044 -0.3395 -0.1272 -0.2255
  838SOL    HW1 2513   0.116   0.835   2.110  1.4560 -0.3316 -1.1016
  838SOL    HW2 2514   0.266   0.764   2.081  0.8705  0.1820  1.7699
  839SOL     OW 2515   0.439   0.525   0.866  0.8706 -0.1064  0.1076
  839SOL    HW1 2516   0.410   0.429   0.841 -0.5563 -1.9911  3.2923
  839SOL    HW2 2517   0.406   0.548   0.961 -1.9668 -0.1198 -0.3808
  840SOL     OW 2518   2.464   0.362   2.510  0.7428  0.2167 -0.1051
  840SOL    HW1 2519   2.510   0.295   2.572 -1.9745 -0.1218  0.5605
  840SOL    HW2 2520   2.503   0.343   2.417  1.8807 -3.1096  1.3794
  841SOL     OW 2521   0.888   2.556   2.893  0.0268  0.0228 -0.6523
  841SOL    HW1 2522   0.947   2.595   2.816  0.8396 -1.2596 -3.3944
  841SOL    HW2 2523   0.915   2.458   2.913  0.1818 -0.2065 -2.7538
  842SOL     OW 2524   0.362   0.005   0.850  0.2759 -0.8659  0.0145
  842SOL    HW1 2525   0.430   3.054   0.820 -1.7808 -0.9187  1.3244
  842SOL    HW2 2526   0.268   3.082   0.828  0.7837  0.9549 -0.3905
  843SOL     OW 2527   3.063   0.804   0.100 -0.3339 -0.2903  0.4839
  843SOL    HW1 2528   3.062   0.749   0.015  2.7380  3.8110 -2.8956
  843SOL    HW2 2529   2.963   0.828   0.117  2.4841  1.3650 -0.7133
  844SOL     OW 2530   1.106   2.597   2.678 -0.2752 -0.6720  0.5773
  844SOL    HW1 2531   1.138   2.546   2.596  0.9263 -0.7491 -0.3707
  844SOL    HW2 2532   1.176   2.611   2.751 -2.1613 -0.9163  2.0722
  845SOL     OW 2533   2.516   0.093   2.633  0.2186  0.4860 -0.5808
  845SOL    HW1 2534   2.600   0.052   2.668  0.3475  2.7182 -2.2648
  845SOL    HW2 2535   2.447   0.079   2.703  1.1001  0.9273 -2.5674
  846SOL     OW 2536   2.087   1.779   2.825 -0.1658 -0.3879  0.4350
  846SOL    HW1 2537   2.137   1.707   2.773 -1.4071 -0.0362  0.4882
  846SOL    HW2 2538   2.019   1.748   2.891  0.3555  1.8200  1.6404
  847SOL     OW 2539   2.550   3.079   0.230  0.0856  0.4803 -0.3492
  847SOL    HW1 2540   2.556   0.063   0.197 -0.1906 -1.4562 -1.6303
  847SOL    HW2 2541   2.627   3.052   0.294  0.0523 -0.9660  2.6060
  848SOL     OW 2542   0.565   0.415   0.497 -0.5074  0.3062 -0.7553
  848SOL    HW1 2543   0.534   0.336   0.552  2.2455 -2.7066 -1.0156
  848SOL    HW2 2544   0.664   0.403   0.481 -0.9610  0.0982  0.4078
  849SOL     OW 2545   1.673   2.974   1.712 -0.1260 -0.0844 -0.7623
  849SOL    HW1 2546   1.704   2.900   1.777  0.2543  0.6725 -0.1622
  849SOL    HW2 2547   1.684   3.066   1.752 -0.2009  2.2824  0.8578
  850SOL     OW 2548   0.780   1.209   0.727 -0.4644 -0.6888  0.5067
  850SOL    HW1 2549   0.837   1.153   0.667  1.4578 -0.4468  2.0626
  850SOL    HW2 2550   0.693   1.155   0.740 -1.0005 -1.9469  0.7069
  851SOL     OW 2551   0.303   0.971   3.041 -0.1136  0.1201  0.5543
  851SOL    HW1 2552   0.292   0.905   0.001  0.3626  2.2833  2.1602
  851SOL    HW2 2553   0.263   1.062   3.063  2.0671  0.9182  0.7737
  852SOL     OW 2554   1.241   0.075   1.768  0.0503 -0.1696  0.0056
  852SOL    HW1 2555   1.265   3.091   1.783 -0.1587  1.7770  2.4495
  852SOL    HW2 2556   1.305   0.126   1.709  0.1728  0.3476 -1.2973
  853SOL     OW 2557   2.416   1.619   0.282  0.8224  0.0927  0.3646
  853SOL    HW1 2558   2.447   1.611   0.186  1.4882  0.7378  0.3506
  853SOL    HW2 2559   2.498   1.626   0.346 -1.8909  1.8435  1.3819
  854SOL     OW 2560   1.052   0.972   2.027  0.4335  0.2773  0.4456
  854SOL    HW1 2561   0.961   1.022   2.033  0.8148 -1.4960  0.5195
  854SOL    HW2 2562   1.123   1.043   2.018 -2.9174 -0.4710  0.6677
  855SOL     OW 2563   0.208   2.697   3.029  0.2817 -0.3951 -0.2589
  855SOL    HW1 2564   0.170   2.757   2.952  0.9920  1.0628  0.6966
  855SOL    HW2 2565   0.189   2.597   3.031 -0.0099  2.4555  0.6119
  856SOL     OW 2566   0.729   0.770   2.113 -0.0109  0.0904 -0.0835
  856SOL    HW1 2567   0.739   0.675   2.083  0.7891  0.9280  1.8512
  856SOL    HW2 2568   0.801   0.785   2.183  0.0497  0.4560 -0.9414
  857SOL     OW 2569   1.112   0.819   2.593  0.0088 -0.4314 -0.2407
  857SOL    HW1 2570   1.163   0.875   2.520 -1.2957 -0.8005 -1.6703
  857SOL    HW2 2571   1.176   0.734   2.611  2.3456 -2.9784 -1.4316
  858SOL     OW 2572   0.006   1.253   2.070  0.2873  0.4637  0.2530
  858SOL    HW1 2573   0.057   1.338   2.093 -0.2119  0.2199  1.0474
  858SOL    HW2 2574   0.046   1.214   1.981  1.1187 -1.2152 -1.1821
  859SOL     OW 2575   2.634   0.239   0.979  0.3165  0.2755 -0.2227
  859SOL    HW1 2576   2.577   0.237   1.065 -0.1046  1.3026  1.5572
  859SOL    HW2 2577   2.592   0.299   0.903  0.6090 -1.2875 -3.3148
  860SOL     OW 2578   1.725   3.010   0.265 -0.3583 -0.2906  0.5412
  860SOL    HW1 2579   1.734   3.109   0.293 -0.8948 -1.3585 -2.8773
  860SOL    HW2 2580   1.720   2.943   0.341 -2.7307  2.5279  1.2003
  861SOL     OW 2581   0.948   0.564   1.138 -0.0077 -1.0171  0.0155
  861SOL    HW1 2582   0.869   0.566   1.077 -1.1754 -2.0881  2.1096
  861SOL    HW2 2583   1.001   0.649   1.140 -2.0524 -1.3417  2.4782
  862SOL     OW 2584   1.348   0.231   2.378  0.2791 -0.4762  0.9984
  862SOL    HW1 2585   1.337   0.208   2.481  1.3702  2.1903  4.6623
  862SOL    HW2 2586   1.426   0.179   2.334  0.7543 -0.6899 -1.8345
  863SOL     OW 2587   2.593   2.388   0.642 -0.0238 -0.6862  0.1219
  863SOL    HW1 2588   2.670   2.410   0.576  3.2562  1.5021  0.4322
  863SOL    HW2 2589   2.558   2.472   0.682 -2.5856 -4.4007 -0.6390
  864SOL     OW 2590   2.717   0.144   2.109  0.4876  0.2196  0.0252
  864SOL    HW1 2591   2.626   0.136   2.065  0.0598 -1.1342  0.3421
  864SOL    HW2 2592   2.784   0.123   2.032  1.1501 -0.9967 -2.4175
  865SOL     OW 2593   1.511   1.009   1.852  0.4123 -0.2935  0.7826
  865SOL    HW1 2594   1.510   0.916   1.894 -1.4712  0.5739  1.3670
  865SOL    HW2 2595   1.421   1.050   1.826 -0.0766  0.7688 -1.3749
  866SOL     OW 2596   1.534   2.486   1.145 -0.0602  0.1291 -0.8647
  866SOL    HW1 2597   1.511   2.410   1.074 -1.5575 -0.3086 -2.8842
  866SOL    HW2 2598   1.570   2.567   1.098  1.0622  1.2648 -0.9045
  867SOL     OW 2599   2.271   2.705   0.569 -0.1553  0.2272  0.0682
  867SOL    HW1 2600   2.183   2.755   0.586 -0.0545 -2.1591 -0.4112
  867SOL    HW2 2601   2.318   2.728   0.478 -0.0188  3.0307 -2.1207
  868SOL     OW 2602   0.469   2.090   1.861 -0.2847  0.3246 -0.6842
  868SOL    HW1 2603   0.435   2.007   1.811 -1.5286  0.4181  1.4232
  868SOL    HW2 2604   0.413   2.174   1.855 -0.0552 -1.5094  1.3457
  869SOL     OW 2605   2.153   2.438   2.475  0.1763 -0.0232 -0.1276
  869SOL    HW1 2606   2.180   2.505   2.546  1.0248  0.4187 -0.1251
  869SOL    HW2 2607   2.234   2.387   2.434  0.6748  0.3975  0.8505
  870SOL     OW 2608   1.719   1.475   0.784 -0.3754  0.0701  0.7845
  870SOL    HW1 2609   1.734   1.414   0.701  0.1496 -0.1274  1.1958
  870SOL    HW2 2610   1.697   1.413   0.862  0.2784 -0.7787  1.1800
  871SOL     OW 2611   0.423   1.568   1.061  0.0737 -0.2246  0.0184
  871SOL    HW1 2612   0.442   1.664   1.031  1.1314 -0.9082 -0.1619
  871SOL    HW2 2613   0.331   1.560   1.108  1.1119 -0.3058 -3.4679
  872SOL     OW 2614   0.481   1.367   2.555  0.0164  0.3435  0.5552
  872SOL    HW1 2615   0.427   1.287   2.595 -2.3797 -2.4600 -1.0404
  872SOL    HW2 2616   0.548   1.392   2.628 -1.5490 -1.1631  0.1023
  873SOL     OW 2617   0.802   1.764   2.110 -0.0058  0.2921  0.3727
  873SOL    HW1 2618   0.810   1.863   2.093  1.6621 -1.3930  0.7057
  873SOL    HW2 2619   0.849   1.743   2.199  1.0428  0.2388  1.1000
  874SOL     OW 2620   1.003   0.841   1.792  0.5322 -0.2924 -0.3179
  874SOL    HW1 2621   1.075   0.781   1.755 -1.2555  1.3658  2.0646
  874SOL    HW2 2622   1.027   0.876   1.884 -1.6539 -0.4444  0.2058
  875SOL     OW 2623   2.821   2.727   0.474  0.1375 -0.0312 -0.6076
  875SOL    HW1 2624   2.746   2.672   0.428 -0.2294 -1.9423 -0.1862
  875SOL    HW2 2625   2.779   2.783   0.549  1.4471 -0.2428 -0.7650
  876SOL     OW 2626   0.643   1.389   0.429 -0.5317 -0.2389 -0.3239
  876SOL    HW1 2627   0.632   1.402   0.529  1.5894 -0.0760 -1.6456
  876SOL    HW2 2628   0.555   1.359   0.385 -1.5675 -0.6551  0.3907
  877SOL     OW 2629   2.752   0.047   0.819 -0.0439 -0.0489 -0.3810
  877SOL    HW1 2630   2.728   0.118   0.892 -2.3719  1.1776  2.2150
  877SOL    HW2 2631   2.829   3.099   0.860  2.2024 -0.3240 -0.1614
  878SOL     OW 2632   2.122   1.629   0.728  0.1704 -0.4597 -0.0944
  878SOL    HW1 2633   2.199   1.610   0.666  0.4537  1.3188  2.4293
  878SOL    HW2 2634   2.078   1.544   0.763  1.7258  0.8715  1.2922
  879SOL     OW 2635   2.492   1.654   1.271  0.5613 -0.4097  0.3804
  879SOL    HW1 2636   2.492   1.573   1.329  0.0885 -1.4840  2.2168
  879SOL    HW2 2637   2.547   1.641   1.187  0.5651 -0.5501  0.8690
  880SOL     OW 2638   0.521   2.351   0.633  0.2584 -0.5272 -0.6440
  880SOL    HW1 2639   0.461   2.393   0.559 -0.5004  1.0299 -2.5585
  880SOL    HW2 2640   0.565   2.425   0.680  1.6727  0.7159 -1.0938
  881SOL     OW 2641   0.953   0.948   0.882  0.2175  0.3699 -0.5404
  881SOL    HW1 2642   0.992   0.940   0.787 -0.0114 -0.6732 -1.2307
  881SOL    HW2 2643   0.975   1.039   0.916  0.8990 -0.3250 -2.2734
  882SOL     OW 2644   2.233   0.882   0.538 -0.2523  0.1157 -0.3369
  882SOL    HW1 2645   2.136   0.860   0.574 -4.1091  0.1944  1.1868
  882SOL    HW2 2646   2.291   0.805   0.520 -1.4516  5.0820  0.1085
  883SOL     OW 2647   1.651   0.106   1.810  0.2851 -0.4173 -0.2081
  883SOL    HW1 2648   1.649   0.153   1.898  0.3834 -0.0475 -0.4586
  883SOL    HW2 2649   1.590   0.155   1.737 -1.4774  0.8614 -3.4703
  884SOL     OW 2650   2.818   2.998   1.365  0.0394 -0.2524  0.0607
  884SOL    HW1 2651   2.819   3.084   1.306  0.0422  2.9030 -1.3017
  884SOL    HW2 2652   2.764   3.014   1.452 -2.5499  1.6017  1.0185
  885SOL     OW 2653   1.470   0.969   2.579  0.6074 -0.8941 -0.1573
  885SOL    HW1 2654   1.394   0.974   2.515 -1.0385  0.8708 -0.7146
  885SOL    HW2 2655   1.445   1.019   2.666 -4.2199  0.8033 -0.1663
  886SOL     OW 2656   1.609   0.688   2.187 -0.1317  0.2826  0.6917
  886SOL    HW1 2657   1.671   0.636   2.124  1.2419  0.1881 -0.0497
  886SOL    HW2 2658   1.561   0.631   2.256 -0.7683 -1.7434 -0.6457
  887SOL     OW 2659   1.608   0.395   1.404 -0.5349  0.0493 -0.2886
  887SOL    HW1 2660   1.554   0.357   1.325  0.1343 -2.6343 -0.8210
  887SOL    HW2 2661   1.660   0.318   1.445  0.9597  0.9856  1.7703
  888SOL     OW 2662   2.569   1.630   2.045 -0.3164  0.2782  0.3530
  888SOL    HW1 2663   2.596   1.633   1.944  1.1820 -0.6635  1.0670
  888SOL    HW2 2664   2.501   1.559   2.063  0.0062  1.9996 -3.0430
  889SOL     OW 2665   1.513   2.171   0.586 -0.3605  0.0381  0.0264
  889SOL    HW1 2666   1.550   2.082   0.552 -0.0766 -0.3397 -0.5270
  889SOL    HW2 2667   1.553   2.193   0.674  0.3581 -0.3884 -1.1731
  890SOL     OW 2668   1.086   1.886   0.515 -0.0490 -0.3871  0.6386
  890SOL    HW1 2669   1.163   1.849   0.566 -1.0634  0.3839 -1.1143
  890SOL    HW2 2670   1.034   1.956   0.570  0.8737  0.6221  2.1217
  891SOL     OW 2671   2.725   0.950   2.916  0.0490  0.2779 -0.0838
  891SOL    HW1 2672   2.822   0.962   2.933 -2.2982  0.8140 -0.0887
  891SOL    HW2 2673   2.668   0.979   2.996  0.0791  0.1346  2.5169
  892SOL     OW 2674   1.294   0.611   2.560 -0.5615 -0.1316 -0.9011
  892SOL    HW1 2675   1.354   0.611   2.479 -0.7843  1.2884  0.2776
  892SOL    HW2 2676   1.251   0.523   2.551 -1.2896 -1.4366  0.7974
  893SOL     OW 2677   1.530   0.003   1.407  0.7348 -0.2290 -0.6111
  893SOL    HW1 2678   1.611   0.064   1.423  0.6135 -0.7773 -1.8973
  893SOL    HW2 2679   1.549   3.021   1.429  0.3100 -0.4969 -1.2224
  894SOL     OW 2680   2.711   2.929   0.634  0.8804  0.5332  0.7544
  894SOL    HW1 2681   2.614   2.945   0.600  0.0336 -0.1610 -0.1487
  894SOL    HW2 2682   2.734   3.003   0.706  4.4701 -0.1876  0.9802
  895SOL     OW 2683   1.821   2.567   2.964 -0.4604 -0.0362  0.0679
  895SOL    HW1 2684   1.830   2.539   2.865  0.0177  4.3445  1.2031
  895SOL    HW2 2685   1.907   2.623   2.974 -0.5822  0.6431 -0.2642
  896SOL     OW 2686   2.099   0.269   2.288  0.1716  0.0780  0.9746
  896SOL    HW1 2687   2.022   0.206   2.273  0.8416  1.0385  2.9443
  896SOL    HW2 2688   2.078   0.358   2.243 -1.8038 -1.4345 -1.1000
  897SOL     OW 2689   0.309   1.890   1.415 -0.6736 -0.2043  0.4385
  897SOL    HW1 2690   0.347   1.793   1.413  2.7473 -2.6872  2.7851
  897SOL    HW2 2691   0.371   1.945   1.354 -1.5769 -0.8533  1.9781
  898SOL     OW 2692   2.653   1.681   1.808 -0.1248  0.0674  0.0802
  898SOL    HW1 2693   2.585   1.756   1.791  0.5236 -1.1020 -2.0127
  898SOL    HW2 2694   2.716   1.682   1.725 -0.5546 -0.3296 -0.5545
  899SOL     OW 2695   1.526   1.984   1.198  0.3556  0.1667  0.0366
  899SOL    HW1 2696   1.440   2.022   1.243 -0.5338 -1.2336 -0.0425
  899SOL    HW2 2697   1.510   1.897   1.145  1.6840  0.8228  1.5624
  900SOL     OW 2698   0.890   0.113   2.940  0.1532 -0.3571  0.2951
  900SOL    HW1 2699   0.854   0.128   3.037 -1.2417 -2.4623  1.0794
  900SOL    HW2 2700   0.976   0.161   2.915  1.4003 -0.4602 -1.8550
  901SOL     OW 2701   1.261   1.855   2.505  0.7020  0.6756 -0.0862
  901SOL    HW1 2702   1.226   1.841   2.409 -2.9659 -0.9424  0.7535
  901SOL    HW2 2703   1.306   1.947   2.514  0.2690 -0.3478 -0.7631
  902SOL     OW 2704   2.931   0.067   2.885 -0.5058 -0.7433  0.0401
  902SOL    HW1 2705   2.905   0.149   2.937  1.8779 -0.4716 -1.5864
  902SOL    HW2 2706   2.990   0.006   2.944 -0.4581 -2.2897  1.5189
  903SOL     OW 2707   2.227   0.869   2.059 -0.6193  0.3268  0.6541
  903SOL    HW1 2708   2.194   0.811   1.982  0.9910 -2.3240 -0.0661
  903SOL    HW2 2709   2.236   0.812   2.144  1.0788 -0.7783  0.9685
  904SOL     OW 2710   1.474   0.521   2.381 -0.2855  0.0240  0.1090
  904SOL    HW1 2711   1.537   0.489   2.458  1.8318 -1.8688  1.2234
  904SOL    HW2 2712   1.413   0.442   2.353 -2.0074 -0.1557  1.0439
  905SOL     OW 2713   2.134   2.480   1.554 -0.5123 -0.0437  0.1335
  905SOL    HW1 2714   2.202   2.556   1.560  0.3000 -0.1700  1.2826
  905SOL    HW2 2715   2.118   2.437   1.643  0.3581 -0.4915 -0.3971
  906SOL     OW 2716   1.523   2.007   0.273  0.0299 -0.0118  0.5233
  906SOL    HW1 2717   1.434   1.961   0.247  0.8032  0.4798  0.0846
  906SOL    HW2 2718   1.589   1.989   0.196 -2.5210 -1.3564  0.9637
  907SOL     OW 2719   0.789   2.717   0.640 -0.1088  0.4297 -0.2309
  907SOL    HW1 2720   0.843   2.801   0.618 -1.9600 -1.7110 -1.1940
  907SOL    HW2 2721   0.720   2.697   0.566 -3.4899 -1.2214 -0.3378
  908SOL     OW 2722   1.406   2.612   1.983 -0.0248 -0.1288 -0.2763
  908SOL    HW1 2723   1.469   2.586   2.058 -1.7486  0.5120 -1.7944
  908SOL    HW2 2724   1.365   2.533   1.934  2.8275 -0.2454 -2.2267
  909SOL     OW 2725   2.163   0.453   1.922  0.9471  0.2752 -0.2601
  909SOL    HW1 2726   2.245   0.507   1.953 -1.5598 -1.0826 -0.4044
  909SOL    HW2 2727   2.096   0.461   1.999 -0.0608 -3.1968 -1.5132
  910SOL     OW 2728   1.270   1.048   3.003 -0.7695 -0.1207  0.2409
  910SOL    HW1 2729   1.184   1.081   3.046  0.6493 -0.3553 -0.1900
  910SOL    HW2 2730   1.266   0.952   2.965  0.5360 -2.1120 -0.1090
  911SOL     OW 2731   2.804   0.859   0.159  0.7408  0.0521 -0.1476
  911SOL    HW1 2732   2.729   0.817   0.107  1.0757  0.6145  1.3239
  911SOL    HW2 2733   2.785   0.958   0.186 -1.3497  2.9801 -2.6398
  912SOL     OW 2734   0.335   2.458   0.169  0.4285  0.0293  0.0186
  912SOL    HW1 2735   0.383   2.367   0.154 -1.3359 -1.9181 -1.1499
  912SOL    HW2 2736   0.296   2.490   0.087 -0.6653 -0.1078  1.8279
  913SOL     OW 2737   2.789   2.344   2.534  0.2210  0.1847 -0.1530
  913SOL    HW1 2738   2.874   2.294   2.509 -0.9196  1.7969 -0.3433
  913SOL    HW2 2739   2.793   2.385   2.622  0.4759 -0.5222 -3.3933
  914SOL     OW 2740   1.438   1.922   1.530  0.4019  0.3250  0.3084
  914SOL    HW1 2741   1.530   1.906   1.485  2.0462 -1.2485  0.2571
  914SOL    HW2 2742   1.437   1.877   1.620 -0.4668  3.2388  0.7635
  915SOL     OW 2743   0.882   2.683   2.072  0.0232  1.1443  0.7365
  915SOL    HW1 2744   0.848   2.593   2.024 -0.0974 -2.5787 -1.0905
  915SOL    HW2 2745   0.832   2.759   2.042  1.0200 -1.0181 -0.1683
  916SOL     OW 2746   0.562   1.068   1.732  0.1950 -0.4479  0.0363
  916SOL    HW1 2747   0.477   1.034   1.780 -2.5751 -1.8111 -1.5053
  916SOL    HW2 2748   0.618   0.989   1.705 -0.1406  1.2301 -0.1295
  917SOL     OW 2749   2.648   0.533   0.710  0.0231  0.8209  0.0443
  917SOL    HW1 2750   2.626   0.439   0.684  0.0246 -0.0346  3.3450
  917SOL    HW2 2751   2.710   0.573   0.643  0.1324 -0.6181  1.7537
  918SOL     OW 2752   1.899   2.765   2.660 -0.4038  0.4231 -0.6607
  918SOL    HW1 2753   1.902   2.664   2.675 -0.0303 -3.1445  0.2758
  918SOL    HW2 2754   1.831   2.797   2.594 -0.5515  1.3817  2.6656
  919SOL     OW 2755   1.676   2.590   1.834  0.0542 -0.1373  0.1967
  919SOL    HW1 2756   1.611   2.594   1.751 -1.2410 -1.1891  0.4392
  919SOL    HW2 2757   1.683   2.683   1.869 -0.6133 -1.3346 -2.1486
  920SOL     OW 2758   0.539   0.678   3.060  0.2937  0.0600 -0.0748
  920SOL    HW1 2759   0.520   0.736   2.976 -0.3238  0.3033  1.5001
  920SOL    HW2 2760   0.593   0.588   3.053 -0.8005 -1.4666  1.8567
  921SOL     OW 2761   2.950   0.723   2.964  0.5168 -0.1278  0.4985
  921SOL    HW1 2762   3.037   0.781   2.968  0.5279  0.3634  1.6986
  921SOL    HW2 2763   2.924   0.715   2.866 -1.9506  2.0083 -1.2692
  922SOL     OW 2764   0.935   1.656   0.740  0.3361  0.1144  0.4067
  922SOL    HW1 2765   0.967   1.732   0.797 -2.7225 -1.1196  0.7156
  922SOL    HW2 2766   0.886   1.686   0.653 -2.9481 -0.7741 -1.9433
  923SOL     OW 2767   0.623   1.327   1.767  0.3806 -0.1828 -0.0800
  923SOL    HW1 2768   0.539   1.331   1.822 -0.1420  1.2705  1.4072
  923SOL    HW2 2769   0.622   1.236   1.725  0.3219  1.6989 -1.5242
  924SOL     OW 2770   1.762   0.181   2.995 -0.0846 -0.0971 -0.4550
  924SOL    HW1 2771   1.666   0.168   3.023  2.3659 -0.1956 -0.6351
  924SOL    HW2 2772   1.814   0.091   3.005  1.8183 -2.5115  0.2170
  925SOL     OW 2773   2.723   1.376   1.281 -0.1948  0.4277  0.3949
  925SOL    HW1 2774   2.736   1.384   1.178 -1.5651  0.0046  0.9647
  925SOL    HW2 2775   2.732   1.280   1.317 -0.6511  0.4158  0.7365
  926SOL     OW 2776   2.088   0.285   1.374  0.2642  0.1996 -0.2363
  926SOL    HW1 2777   2.126   0.304   1.467  0.3114  0.3378  1.1289
  926SOL    HW2 2778   2.152   0.318   1.299  1.2024  0.5374 -0.3267
  927SOL     OW 2779   1.921   2.984   1.283  0.0015 -0.0215 -0.0967
  927SOL    HW1 2780   1.878   2.889   1.292  0.9332 -1.5620  1.0004
  927SOL    HW2 2781   2.003   2.983   1.341  0.5222 -0.2264 -1.7887
  928SOL     OW 2782   0.056   1.043   2.262  0.4490 -0.5273 -0.7245
  928SOL    HW1 2783   0.035   1.090   2.176  0.6965  0.4111  0.1094
  928SOL    HW2 2784   0.016   0.950   2.261  0.0585  1.6035 -0.4243
  929SOL     OW 2785   2.795   0.825   0.957 -0.2036 -0.3649  0.0175
  929SOL    HW1 2786   2.892   0.858   0.977  3.8024  1.0364  0.1386
  929SOL    HW2 2787   2.766   0.771   1.036  2.7237  0.2060 -0.0284
  930SOL     OW 2788   3.010   2.466   2.014 -0.0302  0.2499  0.4042
  930SOL    HW1 2789   3.005   2.557   1.964  0.2066  0.2801  1.1388
  930SOL    HW2 2790   3.057   2.403   1.950 -0.2655  1.2476  1.5503
  931SOL     OW 2791   1.890   0.866   1.186 -0.6868  0.0622  0.0845
  931SOL    HW1 2792   1.793   0.881   1.205  1.2299 -0.2139 -0.2237
  931SOL    HW2 2793   1.935   0.836   1.274 -0.6175 -1.7982  0.7469
  932SOL     OW 2794   0.152   1.167   1.838 -0.0158 -0.5842  0.2003
  932SOL    HW1 2795   0.214   1.088   1.852  0.5175  0.6826 -1.3079
  932SOL    HW2 2796   0.194   1.245   1.787 -0.8797 -1.4363  0.1165
  933SOL     OW 2797   2.970   2.270   1.577 -0.3114 -0.2306 -0.8748
  933SOL    HW1 2798   2.894   2.323   1.622 -1.1093 -0.8749  0.4625
  933SOL    HW2 2799   2.929   2.189   1.529  1.7662 -1.4126 -0.4199
  934SOL     OW 2800   0.788   1.914   1.287 -0.2702 -0.1324  0.1845
  934SOL    HW1 2801   0.799   1.813   1.314 -0.0314 -1.0965 -0.7572
  934SOL    HW2 2802   0.809   1.985   1.354  0.0602 -1.5634 -2.8068
  935SOL     OW 2803   2.904   1.379   1.746 -0.4024  0.4306 -0.3646
  935SOL    HW1 2804   2.951   1.289   1.755  1.2286  1.9192 -2.2000
  935SOL    HW2 2805   2.811   1.381   1.700 -0.9852 -0.3745 -1.4149
  936SOL     OW 2806   2.568   1.393   1.733 -0.0189  0.4790  0.4338
  936SOL    HW1 2807   2.608   1.382   1.829  2.1957  2.7716 -2.1792
  936SOL    HW2 2808   2.487   1.448   1.741  1.5329 -3.4197 -0.2045
  937SOL     OW 2809   2.087   0.824   1.392 -0.2338  0.1816  0.2920
  937SOL    HW1 2810   2.166   0.799   1.446  0.4991  1.7525 -1.1836
  937SOL    HW2 2811   2.099   0.922   1.368 -0.7035  0.2792  0.1594
  938SOL     OW 2812   0.494   2.295   2.885 -0.1017  0.1880  0.1609
  938SOL    HW1 2813   0.525   2.392   2.901  0.6879  2.3106  0.2467
  938SOL    HW2 2814   0.582   2.246   2.864  1.3510  1.6507 -0.7705
  939SOL     OW 2815   2.486   1.704   2.777 -0.2237 -0.1313 -0.0951
  939SOL    HW1 2816   2.552   1.695   2.853 -0.7320 -1.1219  2.7568
  939SOL    HW2 2817   2.529   1.726   2.687  1.2093  1.2243  0.5181
  940SOL     OW 2818   1.634   1.945   0.502 -0.1451 -0.1998  0.2793
  940SOL    HW1 2819   1.582   1.954   0.414 -0.4380  1.2565  1.4915
  940SOL    HW2 2820   1.615   1.854   0.544  0.7669  1.3482 -0.0431
  941SOL     OW 2821   2.066   2.674   3.012 -0.3260 -0.2850 -0.0132
  941SOL    HW1 2822   2.130   2.592   3.015  0.0743  0.0540 -0.6840
  941SOL    HW2 2823   2.117   2.754   2.968  2.2005 -0.0797 -1.5813
  942SOL     OW 2824   1.190   2.619   0.567  0.2401 -0.0005  0.4015
  942SOL    HW1 2825   1.217   2.680   0.641 -1.7060 -0.7282 -0.9644
  942SOL    HW2 2826   1.117   2.550   0.606  0.0811 -1.0655 -0.2464
  943SOL     OW 2827   2.300   1.110   1.679 -0.0983  0.4171 -0.1022
  943SOL    HW1 2828   2.280   1.118   1.779 -0.7299  0.9273 -1.2321
  943SOL    HW2 2829   2.254   1.189   1.629 -2.2640 -0.0845 -1.3891
  944SOL     OW 2830   1.377   1.140   2.767 -0.0713 -0.4144 -0.1946
  944SOL    HW1 2831   1.340   1.133   2.862 -1.7543  1.9926  1.2612
  944SOL    HW2 2832   1.324   1.212   2.716 -2.6874 -0.2564 -0.5250
  945SOL     OW 2833   2.837   2.114   1.208  0.0445  0.1146  0.1056
  945SOL    HW1 2834   2.834   2.077   1.302  2.2069 -0.2593  2.0266
  945SOL    HW2 2835   2.773   2.192   1.205  2.0060  1.1361  1.0767
  946SOL     OW 2836   0.460   0.835   2.853 -0.7486 -0.1509 -0.4282
  946SOL    HW1 2837   0.404   0.897   2.911  2.5734 -0.9720  1.1219
  946SOL    HW2 2838   0.550   0.877   2.821 -1.1772 -0.1174 -2.4330
  947SOL     OW 2839   2.180   3.108   1.921  0.1568  0.0541 -0.0278
  947SOL    HW1 2840   2.229   0.040   1.998  1.9461 -2.1303 -1.3042
  947SOL    HW2 2841   2.210   0.025   1.827 -1.7658 -1.6033  1.4955
  948SOL     OW 2842   0.060   1.715   0.975  0.3039 -0.2109  0.1376
  948SOL    HW1 2843   3.095   1.767   1.015 -0.4290  3.4531 -1.5283
  948SOL    HW2 2844   0.107   1.648   1.038  0.9453  0.7392 -0.1577
  949SOL     OW 2845   1.249   1.148   1.997  0.6205  0.0909  0.3688
  949SOL    HW1 2846   1.236   1.158   1.896  1.3067 -1.2211  0.3178
  949SOL    HW2 2847   1.293   1.233   2.024 -1.1842 -1.2701  0.0929
  950SOL     OW 2848   0.188   0.891   0.874  0.0136  0.0441  0.0259
  950SOL    HW1 2849   0.203   0.965   0.808 -2.1399  2.3175  0.9207
  950SOL    HW2 2850   0.227   0.802   0.848  0.8388  1.0587 -2.0556
  951SOL     OW 2851   0.430   1.945   2.136 -0.7279  0.1721 -0.9293
  951SOL    HW1 2852   0.452   1.845   2.114  1.2287  2.2310  1.5027
  951SOL    HW2 2853   0.455   2.006   2.058 -0.6411  0.1847 -0.3851
  952SOL     OW 2854   1.621   1.494   0.267 -0.2408  0.5965 -0.7794
  952SOL    HW1 2855   1.521   1.489   0.290 -0.8130 -0.9680  0.3813
  952SOL    HW2 2856   1.631   1.488   0.165 -1.0381 -0.0258 -0.6472
  953SOL     OW 2857   1.157   0.699   0.127 -0.0062  0.1193  0.5474
  953SOL    HW1 2858   1.118   0.622   0.073  3.2515 -1.0468 -2.6953
  953SOL    HW2 2859   1.086   0.770   0.142 -1.2294  2.8710 -1.6046
  954SOL     OW 2860   1.970   1.034   0.381 -0.6068 -0.1847  0.2703
  954SOL    HW1 2861   2.014   1.101   0.448 -1.5005  3.1931 -0.6373
  954SOL    HW2 2862   1.918   1.081   0.304 -0.0943 -1.3796  0.1237
  955SOL     OW 2863   2.484   2.808   2.984  0.3506  0.1860  0.0983
  955SOL    HW1 2864   2.422   2.890   2.988  0.0623 -3.0478  1.3706
  955SOL    HW2 2865   2.579   2.843   2.981 -1.1990  2.6408  1.2967
  956SOL     OW 2866   1.095   0.814   1.372  0.2713  0.1549  0.2824
  956SOL    HW1 2867   1.090   0.802   1.272 -0.6286  0.7783  1.8065
  956SOL    HW2 2868   1.133   0.730   1.409 -1.3873  0.6701 -3.5419
  957SOL     OW 2869   1.686   1.206   1.436  0.5401 -0.2371 -0.4375
  957SOL    HW1 2870   1.776   1.170   1.470 -2.6202 -0.9286 -0.8001
  957SOL    HW2 2871   1.624   1.224   1.515 -0.6910  3.1725  0.5011
  958SOL     OW 2872   0.334   1.846   0.500  0.9135  0.2127  0.0582
  958SOL    HW1 2873   0.319   1.776   0.434 -0.0823  0.6991  1.8423
  958SOL    HW2 2874   0.434   1.832   0.532  0.5981  0.5055 -0.1276
  959SOL     OW 2875   1.865   1.359   1.058 -0.6101  0.0304  0.3773
  959SOL    HW1 2876   1.793   1.377   1.127  0.2434  0.5772  0.3968
  959SOL    HW2 2877   1.916   1.274   1.082  0.0492  2.1925  0.3453
  960SOL     OW 2878   3.066   1.347   2.887 -0.1570 -0.1120 -0.2161
  960SOL    HW1 2879   0.038   1.296   2.884 -3.4341  0.6252 -0.4437
  960SOL    HW2 2880   3.027   1.369   2.797  1.3848  1.8761  0.9649
  961SOL     OW 2881   1.161   1.532   0.526  0.1411 -0.1282 -0.6823
  961SOL    HW1 2882   1.085   1.474   0.562 -0.1637 -1.5676 -2.6710
  961SOL    HW2 2883   1.183   1.615   0.582 -0.3909 -1.2856  0.3155
  962SOL     OW 2884   0.978   1.121   0.561 -0.1589 -0.2771 -0.2482
  962SOL    HW1 2885   0.979   1.024   0.567  0.5094  2.5448 -0.5362
  962SOL    HW2 2886   1.063   1.170   0.591 -1.2878  2.0734  0.4101
  963SOL     OW 2887   1.155   2.164   2.271 -0.1869  0.0716 -0.2680
  963SOL    HW1 2888   1.225   2.095   2.255 -0.8296  2.9220  1.1672
  963SOL    HW2 2889   1.087   2.136   2.344  0.4562 -2.6795  1.4640
  964SOL     OW 2890   2.745   2.877   2.963 -0.3180  0.0359  0.3403
  964SOL    HW1 2891   2.761   2.936   2.885  0.8121 -3.3361 -3.0437
  964SOL    HW2 2892   2.830   2.823   2.989 -1.3626  0.9058  4.2607
  965SOL     OW 2893   0.706   2.401   0.061  0.2788  0.1185  0.0407
  965SOL    HW1 2894   0.655   2.441   3.096 -1.4725 -0.1790  1.1180
  965SOL    HW2 2895   0.763   2.467   0.112 -1.3059 -0.7641 -3.1342
  966SOL     OW 2896   3.081   1.847   2.940 -0.2448  0.2469  0.1992
  966SOL    HW1 2897   3.007   1.847   3.014  0.3089 -2.3451  2.6679
  966SOL    HW2 2898   3.054   1.811   2.849 -1.0776 -1.4796  1.8043
  967SOL     OW 2899   1.974   2.978   0.151  0.0639 -0.3784 -0.3101
  967SOL    HW1 2900   1.882   3.002   0.201 -3.1227  0.2541  1.5842
  967SOL    HW2 2901   2.055   2.983   0.214 -1.1113  0.1461  0.1898
  968SOL     OW 2902   2.048   2.850   0.584  0.2537 -0.2192  0.1290
  968SOL    HW1 2903   1.978   2.835   0.511 -1.5239  1.1262  0.9602
  968SOL    HW2 2904   2.005   2.874   0.672  2.3362  0.8831 -0.3854
  969SOL     OW 2905   0.899   1.222   2.369 -0.3972  0.3070  0.1050
  969SOL    HW1 2906   0.817   1.161   2.364  0.2286  1.8253  1.6574
  969SOL    HW2 2907   0.914   1.261   2.465 -0.3272 -2.1189  2.8768
  970SOL     OW 2908   1.596   1.314   0.970  0.7132 -0.4779 -0.3140
  970SOL    HW1 2909   1.563   1.219   0.985 -3.6413 -0.1800 -0.0725
  970SOL    HW2 2910   1.611   1.357   1.060 -1.8682 -0.8028  2.4596
  971SOL     OW 2911   2.234   0.055   1.646  0.3281 -0.1344  1.0181
  971SOL    HW1 2912   2.218   0.020   1.551 -0.1375  0.9291 -1.3212
  971SOL    HW2 2913   2.175   0.137   1.666  0.9934  1.3005 -0.4784
  972SOL     OW 2914   0.070   2.887   1.870  0.2551 -0.0677 -0.3590
  972SOL    HW1 2915   0.128   2.826   1.930  1.3121 -0.9672 -1.7320
  972SOL    HW2 2916   0.035   2.840   1.784  0.4332 -0.2249 -4.0461
  973SOL     OW 2917   0.104   0.316   2.517 -0.0010  0.0992  0.3005
  973SOL    HW1 2918   0.043   0.260   2.577  1.2309  0.4766  3.3163
  973SOL    HW2 2919   0.120   0.405   2.557 -1.9015 -1.2419 -2.1904
  974SOL     OW 2920   2.322   1.229   2.280  0.7499 -0.5628 -0.4157
  974SOL    HW1 2921   2.414   1.189   2.271 -0.3300 -1.5573  0.6744
  974SOL    HW2 2922   2.249   1.157   2.270  1.7407 -1.0214  0.1177
  975SOL     OW 2923   0.730   0.255   1.430 -0.3312 -0.2777  0.0636
  975SOL    HW1 2924   0.647   0.214   1.393  1.1101  0.8878 -0.9787
  975SOL    HW2 2925   0.719   0.356   1.438  0.1036 -0.6525 -2.9721
  976SOL     OW 2926   0.791   1.968   2.378  0.2327  0.2016 -0.0203
  976SOL    HW1 2927   0.786   1.956   2.277 -3.2424 -0.8524  1.9111
  976SOL    HW2 2928   0.865   2.029   2.408 -1.1114 -1.1529  1.0615
  977SOL     OW 2929   0.492   3.103   0.398 -0.0660  0.2035  0.1132
  977SOL    HW1 2930   0.568   0.059   0.380  0.9692  1.8934 -1.5080
  977SOL    HW2 2931   0.410   0.037   0.436 -2.1510  3.7500 -0.4492
  978SOL     OW 2932   2.872   1.202   2.171  0.0530 -0.5910 -0.0427
  978SOL    HW1 2933   2.958   1.228   2.122  2.6500  2.1016 -1.3926
  978SOL    HW2 2934   2.871   1.241   2.262 -0.6946 -0.1921 -1.4422
  979SOL     OW 2935   1.892   0.161   1.684 -0.2967 -0.9923  0.6083
  979SOL    HW1 2936   1.820   0.167   1.756  1.9535 -1.5785  1.8537
  979SOL    HW2 2937   1.919   0.067   1.658 -0.4572  0.5254 -0.8972
  980SOL     OW 2938   1.713   1.768   1.838 -0.6242 -0.1930 -0.3463
  980SOL    HW1 2939   1.705   1.675   1.877 -1.2290  1.2680 -1.8715
  980SOL    HW2 2940   1.619   1.802   1.821 -1.0269  2.2307  0.7004
  981SOL     OW 2941   2.707   0.717   1.235 -0.2555  0.2473  0.0167
  981SOL    HW1 2942   2.638   0.783   1.271  1.1617  1.3904  0.9401
  981SOL    HW2 2943   2.802   0.740   1.272  0.6666  1.4304 -0.1936
  982SOL     OW 2944   0.329   3.100   2.788 -0.5628  0.3754 -0.1998
  982SOL    HW1 2945   0.398   3.023   2.788  1.7294 -0.2910  2.0341
  982SOL    HW2 2946   0.253   3.081   2.727  2.6823  1.4181  0.6804
  983SOL     OW 2947   2.725   0.597   2.406 -0.3482 -0.1868 -0.1467
  983SOL    HW1 2948   2.768   0.687   2.412  0.8422 -2.6819 -1.2485
  983SOL    HW2 2949   2.691   0.583   2.309  0.1948 -0.2362 -1.7277
  984SOL     OW 2950   1.330   2.926   1.850 -0.3407 -0.1224 -0.0712
  984SOL    HW1 2951   1.404   2.885   1.794  1.6937  2.1650 -2.5364
  984SOL    HW2 2952   1.253   2.861   1.881 -0.2773 -0.1920  2.4279
  985SOL     OW 2953   1.863   1.984   2.209  0.0094 -0.2720  0.3038
  985SOL    HW1 2954   1.923   2.018   2.285 -1.2983  2.0872  1.6534
  985SOL    HW2 2955   1.883   2.028   2.122 -1.4284  0.4616 -1.5518
  986SOL     OW 2956   2.273   0.371   1.196 -0.7463 -0.0280  0.1793
  986SOL    HW1 2957   2.348   0.301   1.198  2.5616  0.2226  0.7277
  986SOL    HW2 2958   2.320   0.461   1.192  1.8796  0.2043 -1.5246
  987SOL     OW 2959   2.721   1.130   1.375  0.0207  0.2983  0.3824
  987SOL    HW1 2960   2.637   1.092   1.422 -0.6718 -4.0057  2.7587
  987SOL    HW2 2961   2.733   1.098   1.278 -0.0614  3.0951 -1.2206
  988SOL     OW 2962   2.923   0.979   2.001  0.0087 -0.4561 -0.4034
  988SOL    HW1 2963   2.938   0.904   2.070  0.8126 -0.4994  0.5684
  988SOL    HW2 2964   2.888   1.063   2.051  1.1549  1.2729  1.2464
  989SOL     OW 2965   1.298   2.255   3.085 -0.5379  0.4852  0.3585
  989SOL    HW1 2966   1.385   2.227   0.018 -1.8568 -0.1770  0.4404
  989SOL    HW2 2967   1.323   2.325   3.010 -0.0903  0.0287  0.2275
  990SOL     OW 2968   1.501   0.734   2.687  0.3127 -0.3774  0.1615
  990SOL    HW1 2969   1.419   0.695   2.647  0.5983 -0.6225  3.3166
  990SOL    HW2 2970   1.518   0.828   2.651  0.4866  2.6154 -0.1266
  991SOL     OW 2971   1.202   0.677   0.548  0.0037 -0.0829  0.1673
  991SOL    HW1 2972   1.247   0.692   0.640  1.7651 -0.9767  0.7483
  991SOL    HW2 2973   1.271   0.703   0.477  0.8355  1.6836 -0.8226
  992SOL     OW 2974   2.731   1.972   1.012  0.2832 -0.7340  0.2789
  992SOL    HW1 2975   2.737   2.028   0.926  1.0550 -0.1358  2.0076
  992SOL    HW2 2976   2.776   2.014   1.094 -0.7032 -2.2257  0.1492
  993SOL     OW 2977   0.068   0.586   0.964  0.2308 -0.6462  0.3925
  993SOL    HW1 2978   0.063   0.662   1.027  1.5925  0.6125  0.1023
  993SOL    HW2 2979   3.090   0.571   0.923  1.8757 -1.1331  1.9351
  994SOL     OW 2980   0.139   1.891   2.427  0.6527 -0.4089 -0.2382
  994SOL    HW1 2981   0.042   1.916   2.402 -2.8609  3.1507 -0.6346
  994SOL    HW2 2982   0.197   1.966   2.392 -0.4144 -1.1219  1.3067
  995SOL     OW 2983   1.911   1.000   2.741 -0.2433  0.3006  0.8032
  995SOL    HW1 2984   1.887   0.910   2.785 -0.9708 -0.8829  1.3129
  995SOL    HW2 2985   1.836   1.034   2.677 -0.0865 -0.3106 -3.6292
  996SOL     OW 2986   2.772   1.289   0.663 -0.2329  0.4181  0.4038
  996SOL    HW1 2987   2.837   1.212   0.684 -2.5056  0.6377  0.0937
  996SOL    HW2 2988   2.680   1.258   0.691  1.8964 -0.7162 -2.1525
  997SOL     OW 2989   1.766   0.912   2.153  0.5187 -0.1310 -0.2622
  997SOL    HW1 2990   1.722   0.825   2.186  0.7025 -3.4329 -0.3547
  997SOL    HW2 2991   1.798   0.903   2.061 -0.6487  0.4646  1.6003
  998SOL     OW 2992   2.974   1.664   0.389 -0.2474 -0.3064  0.0565
  998SOL    HW1 2993   2.923   1.744   0.350 -0.5922 -1.7120 -3.3137
  998SOL    HW2 2994   2.939   1.641   0.479 -1.5280 -2.1826 -1.9594
  999SOL     OW 2995   3.039   2.305   0.119 -0.0500  0.1706  0.7923
  999SOL    HW1 2996   3.088   2.222   0.148  1.1635  1.9853 -0.7213
  999SOL    HW2 2997   3.063   2.385   0.183  1.3765  1.2559  0.5479
 1000SOL     OW 2998   0.866   0.765   2.743  0.4733  0.2728 -0.0366
 1000SOL    HW1 2999   0.892   0.817   2.828  0.3103 -1.5754  1.4119
 1000SOL    HW2 3000   0.944   0.759   2.682  0.0106  0.1203  0.2455
   3.11378   3.11378   3.11378
