1000 SPC/Fw water molecules t= 166.00000 step= 166000
 3000
    1SOL     OW    1   2.606   2.774   0.772 -0.0579  0.5356  0.5061
    1SOL    HW1    2   2.601   2.771   0.670  2.0563  1.1991 -0.7500
    1SOL    HW2    3   2.576   2.687   0.817 -2.3113  1.2958 -1.1435
    2SOL     OW    4   1.331   1.854   2.194 -0.1923 -0.1164  0.2270
    2SOL    HW1    5   1.271   1.770   2.188  1.5360  0.9286 -2.1297
    2SOL    HW2    6   1.361   1.881   2.102  1.1375 -1.2266  0.3858
    3SOL     OW    7   1.742   2.349   2.258  0.4391 -0.4385  0.4699
    3SOL    HW1    8   1.649   2.380   2.228  1.1753 -1.3989  0.0411
    3SOL    HW2    9   1.753   2.350   2.358  2.4536 -0.9878  0.5932
    4SOL     OW   10   2.026   2.048   2.107  0.0055 -0.3924 -0.1880
    4SOL    HW1   11   2.089   2.128   2.097 -1.6596  0.0402  0.5791
    4SOL    HW2   12   1.936   2.058   2.056 -1.0560  1.2848 -1.1898
    5SOL     OW   13   0.809   0.585   1.687 -0.3112  0.1546  0.0008
    5SOL    HW1   14   0.875   0.661   1.697 -0.5431 -1.8758  0.3079
    5SOL    HW2   15   0.778   0.542   1.774 -0.8522 -1.4010 -1.1699
    6SOL     OW   16   2.420   1.088   2.906 -0.2337 -0.0013  0.0752
    6SOL    HW1   17   2.434   1.029   2.825  0.4680 -0.3989  1.5186
    6SOL    HW2   18   2.326   1.116   2.896  4.6553 -0.0347  0.4023
    7SOL     OW   19   1.089   0.586   1.422  0.3628  0.5360  0.0055
    7SOL    HW1   20   1.174   0.564   1.376  1.5167  1.0829  1.9467
    7SOL    HW2   21   1.039   0.664   1.377  1.4874  1.3987  0.4304
    8SOL     OW   22   1.083   2.609   1.402 -0.2382 -0.1851  0.0824
    8SOL    HW1   23   1.040   2.567   1.484 -0.3156 -0.1360  1.5560
    8SOL    HW2   24   1.136   2.691   1.431  1.3230 -2.8471 -0.4485
    9SOL     OW   25   0.860   1.246   0.211  0.0489  0.2215 -0.6014
    9SOL    HW1   26   0.829   1.221   0.116  2.5904 -0.6814  2.0840
    9SOL    HW2   27   0.921   1.175   0.249  0.3770 -0.9058  2.2147
   10SOL     OW   28   0.479   2.923   3.076  0.0198  0.4220  0.4906
   10SOL    HW1   29   0.442   2.924   2.981 -1.3264  1.3907 -1.6188
   10SOL    HW2   30   0.550   2.848   3.079  0.1018 -0.6936  1.3816
   11SOL     OW   31   0.046   1.251   2.904  0.0416 -0.0388 -0.1700
   11SOL    HW1   32   0.112   1.334   2.901  1.1810  5.0043  1.7285
   11SOL    HW2   33   0.025   1.227   3.003 -2.0902 -1.1652  1.6562
   12SOL     OW   34   0.704   0.123   1.389  0.4673 -0.5444 -0.1874
   12SOL    HW1   35   0.682   0.056   1.316  2.0182 -1.5203  1.7637
   12SOL    HW2   36   0.626   0.188   1.395 -1.2410 -1.8476 -2.7527
   13SOL     OW   37   0.520   3.032   0.568  0.3937  0.3118  0.0772
   13SOL    HW1   38   0.549   2.935   0.551 -1.7834 -0.1111 -0.2925
   13SOL    HW2   39   0.585   3.108   0.536  1.1421  3.6306 -1.9826
   14SOL     OW   40   1.154   1.953   0.886  0.2593  0.2779 -0.5158
   14SOL    HW1   41   1.114   2.038   0.922  0.1622  0.3372 -1.0328
   14SOL    HW2   42   1.242   1.929   0.927 -4.4793 -0.6696 -5.5174
   15SOL     OW   43   2.537   0.843   2.390 -0.1702  0.7928 -0.2168
   15SOL    HW1   44   2.505   0.831   2.486 -0.2878 -1.2581 -0.1845
   15SOL    HW2   45   2.462   0.853   2.327  3.0029  0.6802  1.0018
   16SOL     OW   46   1.388   2.935   2.875 -0.0041 -0.8550  0.0983
   16SOL    HW1   47   1.368   2.837   2.884 -2.8168  0.3915 -0.3733
   16SOL    HW2   48   1.445   2.949   2.793 -1.2233 -0.4678  0.4173
   17SOL     OW   49   0.695   2.844   1.717  0.2725  0.6700  0.4315
   17SOL    HW1   50   0.700   2.840   1.819  1.8520 -0.5304  0.8781
   17SOL    HW2   51   0.736   2.932   1.680 -0.5142  2.1383  0.4961
   18SOL     OW   52   1.438   0.862   0.234  0.4071  0.5689  0.3329
   18SOL    HW1   53   1.479   0.812   0.150  1.6168 -0.6202 -2.0764
   18SOL    HW2   54   1.447   0.801   0.323  1.9641 -0.1497  1.5616
   19SOL     OW   55   2.095   1.928   2.884 -0.0544  0.3112  0.1644
   19SOL    HW1   56   2.059   2.021   2.905  0.1514  0.1512  0.9208
   19SOL    HW2   57   2.174   1.937   2.826 -2.5127  1.4117  0.5756
   20SOL     OW   58   2.137   1.881   1.922 -0.0363  0.4422 -0.0230
   20SOL    HW1   59   2.198   1.814   1.969  0.1808 -0.0008 -0.5080
   20SOL    HW2   60   2.083   1.934   1.991  2.9391  0.4163 -2.5203
   21SOL     OW   61   0.295   1.413   2.886  0.0899 -0.1584  0.0114
   21SOL    HW1   62   0.337   1.381   2.970 -1.8979  0.0718 -0.0513
   21SOL    HW2   63   0.364   1.456   2.825  1.4946  0.5043  1.2363
   22SOL     OW   64   2.659   0.018   1.452  0.2911 -0.2293  0.4738
   22SOL    HW1   65   2.741   3.090   1.408 -0.9959  0.1535  0.7380
   22SOL    HW2   66   2.587   0.051   1.380 -1.5706 -2.4549 -1.9170
   23SOL     OW   67   2.945   0.854   1.738  0.1850  0.4985  0.2956
   23SOL    HW1   68   2.888   0.872   1.650 -1.2005  0.3107 -3.9816
   23SOL    HW2   69   3.033   0.808   1.714  0.9828 -2.3906  1.0815
   24SOL     OW   70   2.705   1.912   1.407  0.1482  0.2174 -0.4969
   24SOL    HW1   71   2.651   1.963   1.482  0.5590  2.0020  0.1059
   24SOL    HW2   72   2.746   1.829   1.446 -1.5500  2.6215 -0.0504
   25SOL     OW   73   1.939   0.056   2.593 -0.2447  0.4317  0.1017
   25SOL    HW1   74   1.959   0.031   2.496 -0.0814  1.3596  3.2455
   25SOL    HW2   75   1.916   3.084   2.646 -1.6082 -0.2879  1.9316
   26SOL     OW   76   1.531   3.026   0.404 -0.0196 -0.3377  0.4046
   26SOL    HW1   77   1.557   0.015   0.421 -1.5248  0.6644  3.7416
   26SOL    HW2   78   1.613   2.973   0.386  0.6970 -2.8586  2.6009
   27SOL     OW   79   0.664   2.015   3.027  0.4088  0.4488  0.4670
   27SOL    HW1   80   0.669   1.974   2.933  0.0703  2.0543 -0.1205
   27SOL    HW2   81   0.717   1.954   3.086 -2.4298 -0.1975 -0.9322
   28SOL     OW   82   2.714   1.386   1.102  0.2814  0.0183 -0.2445
   28SOL    HW1   83   2.693   1.482   1.070 -1.3059  0.5609  0.8321
   28SOL    HW2   84   2.815   1.372   1.098 -1.1048 -0.1870 -1.9703
   29SOL     OW   85   2.458   1.972   2.155 -0.4233 -0.5707 -0.8171
   29SOL    HW1   86   2.383   2.011   2.207  0.7703  0.0275 -1.0486
   29SOL    HW2   87   2.527   2.046   2.135  1.0340  1.2071  0.0220
   30SOL     OW   88   0.888   2.916   0.826  0.2642 -0.2305  0.0508
   30SOL    HW1   89   0.963   2.920   0.755  1.7198 -0.9697 -2.4358
   30SOL    HW2   90   0.882   3.003   0.881  1.6789 -2.7176  1.2171
   31SOL     OW   91   3.108   2.288   1.772  0.0103  1.3727  0.2226
   31SOL    HW1   92   0.028   2.382   1.779 -1.3407 -0.7491  0.9063
   31SOL    HW2   93   0.063   2.238   1.715 -0.9388  0.0604  0.2764
   32SOL     OW   94   1.334   0.882   1.957  0.2955 -0.1790 -0.5136
   32SOL    HW1   95   1.357   0.923   1.864 -0.0271  2.7233 -0.4882
   32SOL    HW2   96   1.416   0.864   2.013 -1.1409 -3.1384 -0.4283
   33SOL     OW   97   0.538   2.858   2.519 -0.4973  0.1314 -0.4745
   33SOL    HW1   98   0.564   2.891   2.427  2.6668 -0.0340 -1.8196
   33SOL    HW2   99   0.615   2.858   2.588  3.2461  3.4926  0.0003
   34SOL     OW  100   1.837   2.926   1.392  0.3995  0.2427  0.7035
   34SOL    HW1  101   1.741   2.951   1.373  2.9047  2.8807  1.5548
   34SOL    HW2  102   1.833   2.848   1.456  0.4082 -0.8132  0.8424
   35SOL     OW  103   2.272   0.817   1.146 -0.1483 -0.4524  0.4127
   35SOL    HW1  104   2.228   0.910   1.152  0.7273  0.1435 -1.6160
   35SOL    HW2  105   2.268   0.777   1.236  1.6189 -0.6195 -1.7235
   36SOL     OW  106   2.452   2.595   2.233 -0.0237 -0.3150 -0.4151
   36SOL    HW1  107   2.474   2.586   2.326 -4.1259 -2.5463 -1.9682
   36SOL    HW2  108   2.435   2.695   2.202 -1.5224 -0.8586 -2.8238
   37SOL     OW  109   1.098   2.343   2.264  0.1146 -0.1459 -0.0465
   37SOL    HW1  110   1.169   2.347   2.335 -0.5236 -1.1758  2.2737
   37SOL    HW2  111   1.010   2.311   2.308 -2.5872 -0.4608  0.4121
   38SOL     OW  112   2.498   0.334   0.041 -0.1579  0.2878  0.2245
   38SOL    HW1  113   2.491   0.237   0.012 -3.3374 -1.5186  0.0063
   38SOL    HW2  114   2.453   0.400   3.089  1.2912 -1.1968  1.0375
   39SOL     OW  115   2.093   1.653   2.534  0.0046  0.2346  0.2188
   39SOL    HW1  116   2.039   1.733   2.565  1.6660  0.3260 -0.1822
   39SOL    HW2  117   2.039   1.582   2.488 -0.0177 -2.3532  0.8307
   40SOL     OW  118   0.179   3.006   2.483  0.0269  0.2155  0.1272
   40SOL    HW1  119   0.078   3.007   2.491  4.9963 -0.8753  2.5069
   40SOL    HW2  120   0.209   2.915   2.512  0.0174  2.1962  0.9710
   41SOL     OW  121   1.759   0.384   1.408  0.0582  0.6844 -0.4936
   41SOL    HW1  122   1.687   0.320   1.437  1.7920  0.1658  1.2225
   41SOL    HW2  123   1.790   0.349   1.317 -1.1475 -2.4580  0.1124
   42SOL     OW  124   0.583   0.180   1.724 -0.2842 -0.2862 -0.1252
   42SOL    HW1  125   0.558   0.274   1.692 -1.4443  0.2967 -1.5221
   42SOL    HW2  126   0.517   0.119   1.680  1.0795 -0.1607  0.6491
   43SOL     OW  127   1.611   0.435   1.840 -0.2362 -0.1069  0.1442
   43SOL    HW1  128   1.599   0.342   1.871  1.5805  0.5546  0.0398
   43SOL    HW2  129   1.684   0.442   1.772 -0.2710 -0.7890  1.4832
   44SOL     OW  130   0.317   2.898   2.783 -0.3867  0.0799 -0.2828
   44SOL    HW1  131   0.326   2.812   2.733 -1.7796 -0.1207 -0.3306
   44SOL    HW2  132   0.227   2.907   2.832 -1.7941 -0.2699  0.4402
   45SOL     OW  133   0.247   2.384   1.495 -0.5679  0.3750 -0.1060
   45SOL    HW1  134   0.262   2.406   1.597  2.7713  0.2073 -0.2285
   45SOL    HW2  135   0.339   2.354   1.457 -1.8752 -0.9686  0.7999
   46SOL     OW  136   2.247   2.025   2.323  0.1436 -0.1422 -0.0325
   46SOL    HW1  137   2.199   2.049   2.411  0.4954  1.1406  0.3354
   46SOL    HW2  138   2.270   1.925   2.332 -1.2378  0.1812  1.2528
   47SOL     OW  139   1.774   1.749   1.635  0.6977  0.4649 -0.0056
   47SOL    HW1  140   1.834   1.829   1.654  0.9088 -0.7319  2.9190
   47SOL    HW2  141   1.764   1.685   1.716 -3.8966 -2.0028  2.0672
   48SOL     OW  142   0.445   1.699   0.305  0.1366 -0.1973 -0.4797
   48SOL    HW1  143   0.497   1.784   0.275  0.3760  3.0933 -0.1315
   48SOL    HW2  144   0.427   1.707   0.404  0.3940  1.2277  1.5826
   49SOL     OW  145   2.760   0.377   2.657  0.0309 -0.2115  0.3706
   49SOL    HW1  146   2.746   0.456   2.720 -3.0861  2.7216 -2.6983
   49SOL    HW2  147   2.734   0.407   2.563 -2.1500 -0.1979  0.8392
   50SOL     OW  148   1.982   0.726   0.882  0.5174  0.0964  0.0942
   50SOL    HW1  149   1.971   0.790   0.958 -0.5048 -0.4968 -1.6137
   50SOL    HW2  150   1.923   0.751   0.803  1.5085 -3.7630  2.2051
   51SOL     OW  151   1.187   0.774   1.070  0.1267 -0.3445 -0.3904
   51SOL    HW1  152   1.126   0.696   1.052  0.3216  3.5617 -1.5088
   51SOL    HW2  153   1.158   0.855   1.015  0.7384  1.1456  0.8928
   52SOL     OW  154   1.310   1.218   0.044  0.3079  0.1193 -0.7341
   52SOL    HW1  155   1.340   1.187   0.140  2.1131 -1.0713  0.7142
   52SOL    HW2  156   1.343   1.311   0.023  0.1532  2.8906  1.3887
   53SOL     OW  157   1.231   2.019   2.749  0.2875  0.2167 -0.0648
   53SOL    HW1  158   1.166   1.999   2.827  1.7994 -0.3090  0.1435
   53SOL    HW2  159   1.298   2.091   2.781 -1.6723 -1.5407  0.3404
   54SOL     OW  160   1.982   0.306   1.252  0.6649  0.1609 -0.0475
   54SOL    HW1  161   1.993   0.210   1.283  1.6720  2.5336  0.9430
   54SOL    HW2  162   2.060   0.365   1.278  1.1829  0.4579  0.0693
   55SOL     OW  163   2.217   2.697   0.680  0.5196 -0.0992  0.5677
   55SOL    HW1  164   2.274   2.744   0.610 -1.9329 -1.7879  1.1897
   55SOL    HW2  165   2.127   2.667   0.636 -2.4237 -1.7269 -2.2972
   56SOL     OW  166   0.795   2.883   1.396  0.2141  0.3993 -0.2024
   56SOL    HW1  167   0.812   2.793   1.432 -3.0855  2.6545 -1.6089
   56SOL    HW2  168   0.797   2.957   1.462 -3.9277  0.5125 -0.4147
   57SOL     OW  169   1.756   1.334   0.606 -0.0012  0.5801  0.1024
   57SOL    HW1  170   1.695   1.307   0.527  2.6567  0.7787 -2.1410
   57SOL    HW2  171   1.820   1.406   0.578 -0.7889 -0.1822  0.4369
   58SOL     OW  172   0.305   1.056   2.214  0.7623 -0.1846 -0.1227
   58SOL    HW1  173   0.331   1.136   2.263  2.2068 -0.4466 -0.5158
   58SOL    HW2  174   0.230   1.007   2.261 -1.5817 -2.9835 -0.4934
   59SOL     OW  175   0.771   2.594   2.700  0.2236 -0.0217 -0.1563
   59SOL    HW1  176   0.845   2.551   2.763  0.5052 -0.8400  2.5205
   59SOL    HW2  177   0.750   2.691   2.731  2.4509  2.1072 -0.3011
   60SOL     OW  178   2.514   2.524   1.169  0.6496  0.0699 -0.2484
   60SOL    HW1  179   2.428   2.545   1.118  0.8807 -1.7212 -0.0295
   60SOL    HW2  180   2.522   2.587   1.248  0.8466 -1.7347 -0.6717
   61SOL     OW  181   1.121   2.135   0.461  0.8588  0.2855  0.1361
   61SOL    HW1  182   1.024   2.119   0.485 -1.0512 -0.9355  0.6724
   61SOL    HW2  183   1.177   2.168   0.538 -2.5650  0.5890 -3.2565
   62SOL     OW  184   2.124   2.682   2.791  0.1420  0.4247  0.3354
   62SOL    HW1  185   2.159   2.617   2.867  1.4400  0.1535  1.4457
   62SOL    HW2  186   2.140   2.781   2.815  0.4644  1.6397 -2.5775
   63SOL     OW  187   2.069   0.714   0.173 -0.3149 -0.7333 -0.3295
   63SOL    HW1  188   1.970   0.684   0.190  0.0803 -1.6932  0.1857
   63SOL    HW2  189   2.125   0.705   0.259 -0.3752  1.2006  1.0508
   64SOL     OW  190   1.064   1.173   2.858  0.4191 -0.1851  0.3088
   64SOL    HW1  191   1.108   1.260   2.848 -2.7201 -2.7082 -0.2395
   64SOL    HW2  192   0.992   1.185   2.931 -0.6036 -0.0813  1.2928
   65SOL     OW  193   1.392   2.473   0.650 -0.2515  0.3268  0.4776
   65SOL    HW1  194   1.408   2.516   0.562 -0.6423  0.2327  2.7172
   65SOL    HW2  195   1.392   2.370   0.633  2.6271  0.6663 -2.3363
   66SOL     OW  196   0.696   1.269   1.754  0.3648 -0.3829 -0.0278
   66SOL    HW1  197   0.787   1.223   1.770  2.4119 -1.2509  2.3329
   66SOL    HW2  198   0.641   1.264   1.840 -1.1145  0.0635 -0.7845
   67SOL     OW  199   2.361   0.013   2.391  0.5515  0.8176  0.0758
   67SOL    HW1  200   2.303   0.028   2.314 -0.8367 -1.0461 -0.9776
   67SOL    HW2  201   2.431   0.086   2.402 -1.3385  1.0031 -0.1304
   68SOL     OW  202   0.953   1.368   1.290 -0.0590  0.1868 -0.1836
   68SOL    HW1  203   0.945   1.292   1.362 -1.5255  0.1315  2.0655
   68SOL    HW2  204   0.951   1.326   1.192  1.0435 -3.6477 -2.7108
   69SOL     OW  205   1.662   2.401   0.272  0.3444 -0.0385 -0.1366
   69SOL    HW1  206   1.594   2.480   0.268  2.3537  1.3857  1.0845
   69SOL    HW2  207   1.713   2.394   0.360 -1.5421 -0.4794 -3.5956
   70SOL     OW  208   2.759   1.005   2.356 -0.0228  0.0348 -0.2660
   70SOL    HW1  209   2.840   0.944   2.376  0.3507 -0.4579 -0.3054
   70SOL    HW2  210   2.676   0.948   2.351  0.6691  0.2974  2.6330
   71SOL     OW  211   3.012   1.617   2.927 -0.6751 -0.4990  0.2160
   71SOL    HW1  212   2.960   1.562   2.859 -0.8217 -1.6884 -0.1772
   71SOL    HW2  213   2.959   1.633   3.009  1.5212 -0.8673 -1.8434
   72SOL     OW  214   2.695   2.329   0.541  0.5492 -0.4257  0.2105
   72SOL    HW1  215   2.630   2.406   0.550 -0.9923 -0.4137  1.0219
   72SOL    HW2  216   2.691   2.285   0.447 -0.1085 -0.4369 -1.3075
   73SOL     OW  217   0.703   1.668   0.524 -0.3393  0.4763  0.0427
   73SOL    HW1  218   0.729   1.567   0.516  2.0464 -0.1766 -1.5383
   73SOL    HW2  219   0.605   1.689   0.502  0.6004  0.4910  1.1309
   74SOL     OW  220   0.087   1.749   2.390  0.2376  0.4842  0.0642
   74SOL    HW1  221   0.125   1.837   2.420  0.2373 -1.3338  2.2528
   74SOL    HW2  222   0.007   1.735   2.452 -0.0615 -0.1461 -1.4495
   75SOL     OW  223   1.603   1.398   1.568  0.0126  0.7224  0.0818
   75SOL    HW1  224   1.646   1.400   1.476 -2.0720  2.0205  1.2644
   75SOL    HW2  225   1.542   1.483   1.573  0.5209  4.0917 -1.1433
   76SOL     OW  226   1.972   2.740   1.581  0.1199  0.4325  0.8137
   76SOL    HW1  227   2.016   2.661   1.637  1.2959 -4.0807  0.8285
   76SOL    HW2  228   1.998   2.829   1.622 -0.5819  0.3735 -0.2564
   77SOL     OW  229   2.657   0.927   1.215 -0.2667  0.0872  0.4694
   77SOL    HW1  230   2.754   0.908   1.238  1.2359  0.2817 -0.4151
   77SOL    HW2  231   2.628   0.866   1.140 -0.6561  0.1866  1.6369
   78SOL     OW  232   1.361   0.937   0.621 -0.2471  0.4578  0.3634
   78SOL    HW1  233   1.341   1.021   0.674 -1.1650 -1.5487  1.1591
   78SOL    HW2  234   1.433   0.949   0.547  1.9054  0.1307 -4.9259
   79SOL     OW  235   3.091   1.412   1.803  0.1846 -0.9803 -0.1103
   79SOL    HW1  236   0.019   1.352   1.737 -0.8963 -0.5960 -1.2242
   79SOL    HW2  237   2.993   1.396   1.813  3.0753 -0.2568  2.2799
   80SOL     OW  238   1.340   0.819   1.484  0.2174 -0.2534 -0.0391
   80SOL    HW1  239   1.263   0.758   1.512  0.6884 -0.9515 -0.1207
   80SOL    HW2  240   1.412   0.769   1.435 -1.6360  0.7797  0.6670
   81SOL     OW  241   0.819   0.007   1.008 -0.0823  0.2398 -0.2043
   81SOL    HW1  242   0.762   0.062   0.941  0.4342  1.2709 -0.6230
   81SOL    HW2  243   0.756   3.085   1.086 -2.7951  1.0424 -0.0944
   82SOL     OW  244   1.518   2.885   1.713 -0.3358 -0.1954  0.0770
   82SOL    HW1  245   1.455   2.810   1.744  1.1435 -0.2798 -1.3187
   82SOL    HW2  246   1.538   2.879   1.614 -2.1085  0.2627  1.9583
   83SOL     OW  247   0.924   2.034   0.749  0.4427 -0.2187  0.4201
   83SOL    HW1  248   0.842   2.022   0.807  0.0704  1.0999 -1.5992
   83SOL    HW2  249   1.012   2.004   0.792 -1.3510  1.2395 -0.2644
   84SOL     OW  250   0.448   1.561   2.713  0.0853  0.0302  0.3618
   84SOL    HW1  251   0.364   1.557   2.654 -2.0447  1.1766 -0.2121
   84SOL    HW2  252   0.532   1.546   2.657 -0.2490  2.4928  2.4693
   85SOL     OW  253   0.048   2.175   1.385  0.1897 -0.4212 -0.4744
   85SOL    HW1  254   3.075   2.140   1.433  0.5427 -2.0040  1.0759
   85SOL    HW2  255   0.096   2.251   1.436  1.8174 -2.9471 -1.0744
   86SOL     OW  256   2.398   2.149   1.403 -0.0339 -0.0792  0.4356
   86SOL    HW1  257   2.347   2.071   1.444  1.9950  0.6262 -0.4181
   86SOL    HW2  258   2.440   2.205   1.481  0.4259  1.3519 -0.2965
   87SOL     OW  259   2.748   2.217   0.287 -0.1324 -0.1422  0.0151
   87SOL    HW1  260   2.671   2.168   0.238 -0.4411 -1.5376 -3.3206
   87SOL    HW2  261   2.816   2.255   0.225  1.2202  0.2866  0.1442
   88SOL     OW  262   0.713   1.490   1.388 -0.0546 -0.1881  0.0635
   88SOL    HW1  263   0.669   1.553   1.321 -0.4670 -0.8600 -1.8013
   88SOL    HW2  264   0.797   1.443   1.344  1.0879  0.1489 -2.3277
   89SOL     OW  265   1.006   3.069   2.092  0.1689  0.0962  0.4302
   89SOL    HW1  266   1.006   2.968   2.105  0.5730 -4.0667  2.3204
   89SOL    HW2  267   0.964   3.097   1.997 -1.6271  1.4879 -0.5601
   90SOL     OW  268   2.957   1.804   1.140  0.3351 -0.5661 -0.0451
   90SOL    HW1  269   2.857   1.826   1.138 -2.2269  0.8237  0.0000
   90SOL    HW2  270   2.974   1.706   1.166  1.6042  1.2392  3.2355
   91SOL     OW  271   1.356   1.896   1.048 -0.8190 -0.2885 -0.5127
   91SOL    HW1  272   1.318   1.951   1.128 -2.5685 -0.1987  0.3492
   91SOL    HW2  273   1.458   1.885   1.047  2.0546  0.1845 -2.2495
   92SOL     OW  274   2.526   2.277   1.604 -0.0324 -0.2131 -0.2725
   92SOL    HW1  275   2.485   2.239   1.688  1.4192 -0.0076 -1.2858
   92SOL    HW2  276   2.627   2.286   1.605  0.4979  3.3228  0.1883
   93SOL     OW  277   2.833   1.575   2.687  0.0453 -0.2239  0.2396
   93SOL    HW1  278   2.773   1.552   2.608 -1.7369 -1.3568  0.0374
   93SOL    HW2  279   2.865   1.492   2.732  0.3066  3.1521  3.3717
   94SOL     OW  280   2.785   2.646   2.088  0.2886  0.0097  0.0919
   94SOL    HW1  281   2.764   2.695   2.176 -2.0186  1.0036  2.3238
   94SOL    HW2  282   2.836   2.561   2.102 -1.8581  0.2235  0.4838
   95SOL     OW  283   1.658   0.092   1.813 -0.0030  0.3355  0.5080
   95SOL    HW1  284   1.729   0.080   1.884 -1.0532 -1.1517  0.2373
   95SOL    HW2  285   1.565   0.106   1.853 -1.7513  1.7340 -1.0242
   96SOL     OW  286   0.002   3.031   1.560  0.1092  0.0230 -0.1694
   96SOL    HW1  287   3.101   0.011   1.610  0.8364  1.0281 -0.6812
   96SOL    HW2  288   3.046   3.020   1.484 -0.5138 -1.2039  1.9722
   97SOL     OW  289   2.382   0.319   1.456  0.1442 -0.8007 -0.1248
   97SOL    HW1  290   2.403   0.289   1.549  2.3345 -2.3336 -1.9444
   97SOL    HW2  291   2.435   0.402   1.421 -1.0169 -1.8630 -0.0486
   98SOL     OW  292   1.688   2.536   1.535  0.1916  0.4253  0.2049
   98SOL    HW1  293   1.776   2.539   1.486 -4.0507 -1.6201 -0.0266
   98SOL    HW2  294   1.701   2.495   1.626 -0.9534  1.6488 -0.0867
   99SOL     OW  295   2.982   2.980   2.023  0.1296 -0.0068  0.1988
   99SOL    HW1  296   2.961   2.965   1.924  1.5294 -1.4084  1.2999
   99SOL    HW2  297   3.027   3.075   2.035  1.6572  1.2479  1.2663
  100SOL     OW  298   2.843   1.125   2.122  0.3751  0.2843  0.2129
  100SOL    HW1  299   2.870   1.222   2.139  0.2442  0.0965 -0.2623
  100SOL    HW2  300   2.796   1.082   2.204  0.3679  1.4968  1.8892
  101SOL     OW  301   1.520   0.705   0.416  0.8866  0.2843 -0.8828
  101SOL    HW1  302   1.478   0.622   0.372  2.4880  2.9109  0.3934
  101SOL    HW2  303   1.586   0.685   0.492  0.3645  1.9125 -1.9979
  102SOL     OW  304   0.333   0.624   1.561 -0.0541  0.4824 -0.5394
  102SOL    HW1  305   0.372   0.551   1.620  1.0535 -2.8188  0.8699
  102SOL    HW2  306   0.377   0.714   1.586 -2.6855 -2.2662 -0.5410
  103SOL     OW  307   2.198   0.698   3.020  0.5107 -0.0012 -0.1344
  103SOL    HW1  308   2.154   0.678   3.109  0.3802 -2.2797  0.7097
  103SOL    HW2  309   2.150   0.777   2.975  2.2128  0.0139  0.3831
  104SOL     OW  310   0.115   0.200   2.236 -0.5190 -0.0672  0.5550
  104SOL    HW1  311   0.161   0.296   2.227  0.3060  1.8450 -0.4020
  104SOL    HW2  312   0.090   0.188   2.336  1.7175 -2.1890  2.2431
  105SOL     OW  313   1.914   0.747   1.685 -0.3752 -0.1220  0.1376
  105SOL    HW1  314   1.820   0.793   1.691 -0.7474  0.9703 -0.4050
  105SOL    HW2  315   1.972   0.808   1.627  0.5971  0.2760  0.2735
  106SOL     OW  316   1.601   3.020   0.849  0.3324  0.3313  0.2425
  106SOL    HW1  317   1.520   3.014   0.911  1.6933 -3.7285 -1.6415
  106SOL    HW2  318   1.674   2.962   0.884  2.9231  0.9134 -0.9109
  107SOL     OW  319   0.322   1.266   0.784 -0.7844  0.2449 -0.3246
  107SOL    HW1  320   0.296   1.255   0.684 -2.7079  1.2601 -3.8518
  107SOL    HW2  321   0.241   1.300   0.839 -3.4746  0.8294  0.7602
  108SOL     OW  322   0.041   0.163   2.507 -0.0741  0.9376  0.0639
  108SOL    HW1  323   3.087   0.087   2.530 -1.5462 -1.8228  0.7214
  108SOL    HW2  324   0.123   0.163   2.565  0.2927  2.0144 -0.3387
  109SOL     OW  325   2.678   0.229   0.319 -0.5961  0.1491 -0.2065
  109SOL    HW1  326   2.595   0.286   0.333  0.1138  2.0184  1.1169
  109SOL    HW2  327   2.724   0.250   0.233 -0.4739 -0.3050  0.8217
  110SOL     OW  328   0.368   2.352   2.917 -0.3769 -0.3921 -0.4718
  110SOL    HW1  329   0.279   2.390   2.954  0.7829  3.4321  0.2246
  110SOL    HW2  330   0.415   2.432   2.871 -2.5039 -0.8499  0.2085
  111SOL     OW  331   1.808   3.022   2.137 -0.2796 -0.7039  0.1360
  111SOL    HW1  332   1.845   3.088   2.070 -0.5399 -2.9162 -0.5281
  111SOL    HW2  333   1.771   2.943   2.092 -1.7678  0.1614 -2.3473
  112SOL     OW  334   2.208   2.494   2.955  0.2100  0.4948 -0.7148
  112SOL    HW1  335   2.183   2.466   3.048  2.7233 -1.0597 -0.5176
  112SOL    HW2  336   2.311   2.514   2.954  0.3677  0.0294 -0.7859
  113SOL     OW  337   2.749   2.031   1.815  0.5480  0.5869  0.0952
  113SOL    HW1  338   2.848   2.045   1.787  1.2577 -1.9002 -0.4958
  113SOL    HW2  339   2.720   2.116   1.863 -0.8381  3.1823  0.0773
  114SOL     OW  340   2.672   0.771   0.976  0.0081 -0.3228  0.5480
  114SOL    HW1  341   2.582   0.778   0.927 -1.3265  0.9670 -1.2945
  114SOL    HW2  342   2.695   0.675   0.996 -2.7917 -1.9410 -1.2401
  115SOL     OW  343   2.860   1.594   0.063  0.3790  0.1871  0.4548
  115SOL    HW1  344   2.829   1.518   0.122 -1.0391  2.2823 -0.9056
  115SOL    HW2  345   2.912   1.662   0.123 -0.7395  1.5613  0.2330
  116SOL     OW  346   0.188   1.458   1.975 -0.1618  0.2476 -0.1381
  116SOL    HW1  347   0.270   1.449   1.909 -0.7967 -0.7942  0.5800
  116SOL    HW2  348   0.102   1.430   1.925  1.3442  0.1206 -1.2711
  117SOL     OW  349   2.640   3.060   0.816 -0.1951  0.1784  0.4266
  117SOL    HW1  350   2.612   2.967   0.801  1.4836  1.7431  3.0733
  117SOL    HW2  351   2.622   0.003   0.731  0.1409 -0.3255 -0.5218
  118SOL     OW  352   0.488   2.200   1.658 -0.7129  0.3241 -0.0605
  118SOL    HW1  353   0.442   2.265   1.720 -0.0911 -1.6093  1.6889
  118SOL    HW2  354   0.548   2.246   1.590 -0.7084  1.1705 -0.4884
  119SOL     OW  355   1.600   2.170   0.439 -0.0321  0.2618  0.0403
  119SOL    HW1  356   1.642   2.082   0.403 -1.7324 -0.7625  4.4593
  119SOL    HW2  357   1.595   2.247   0.376 -3.3441 -0.7433  1.1620
  120SOL     OW  358   0.112   2.030   2.461  0.1670  0.3411 -0.0074
  120SOL    HW1  359   0.193   2.037   2.403 -1.9236 -0.1876  1.5291
  120SOL    HW2  360   0.051   2.114   2.448 -1.3657 -0.5133 -3.0622
  121SOL     OW  361   2.195   1.976   1.500  0.5479 -0.4334 -0.1425
  121SOL    HW1  362   2.178   1.895   1.438  1.0773  0.7960 -0.7061
  121SOL    HW2  363   2.173   2.069   1.464 -0.2686 -0.5824 -1.9669
  122SOL     OW  364   2.273   1.724   2.322  0.4215  0.3033 -0.4675
  122SOL    HW1  365   2.371   1.745   2.358 -0.1364  2.5998 -0.9857
  122SOL    HW2  366   2.223   1.676   2.397 -1.2768 -2.2134  4.4851
  123SOL     OW  367   0.083   2.953   0.732 -0.1850  0.1184 -0.7788
  123SOL    HW1  368   0.067   3.047   0.717 -0.0194 -1.8659  0.5674
  123SOL    HW2  369   3.105   2.902   0.728  0.1557  1.2190  1.1383
  124SOL     OW  370   1.588   0.752   2.428 -0.0696  0.2697  0.1591
  124SOL    HW1  371   1.679   0.781   2.394 -1.1170  0.1457  2.4747
  124SOL    HW2  372   1.517   0.811   2.388 -1.1946 -1.8725 -0.9884
  125SOL     OW  373   0.676   1.451   0.013 -0.1902  0.4791 -0.1777
  125SOL    HW1  374   0.687   1.536   0.067 -0.2312 -4.8478  0.2928
  125SOL    HW2  375   0.589   1.407   0.040  1.6382 -1.5356 -0.9546
  126SOL     OW  376   2.568   1.913   0.323  0.1355  0.3047 -0.7269
  126SOL    HW1  377   2.522   1.993   0.271 -0.8288  3.5131  0.0766
  126SOL    HW2  378   2.495   1.870   0.383 -0.0623  1.3918 -0.2299
  127SOL     OW  379   0.579   1.672   1.230 -0.0876  0.2252  0.2962
  127SOL    HW1  380   0.569   1.771   1.263 -0.2680  0.3433 -2.2038
  127SOL    HW2  381   0.509   1.650   1.158 -1.5445 -2.1755 -3.8290
  128SOL     OW  382   0.866   0.731   0.095 -0.7288  0.3273 -0.5913
  128SOL    HW1  383   0.873   0.745   3.106 -0.5329 -1.6004  0.2736
  128SOL    HW2  384   0.950   0.776   0.140  0.9261 -0.8228  1.8528
  129SOL     OW  385   2.298   1.358   0.751 -0.0579 -0.0276 -0.4970
  129SOL    HW1  386   2.196   1.360   0.749  0.3346  1.0666  0.2975
  129SOL    HW2  387   2.341   1.293   0.822  2.0048  1.0870 -0.0466
  130SOL     OW  388   2.229   1.737   1.089  0.3801 -0.4247 -0.2872
  130SOL    HW1  389   2.241   1.796   1.007 -2.8501  0.4838  2.2027
  130SOL    HW2  390   2.140   1.694   1.076  0.2898  0.3210 -0.3928
  131SOL     OW  391   2.804   1.145   2.778 -0.3416  0.4076  0.1269
  131SOL    HW1  392   2.742   1.138   2.855 -0.4909 -0.6513 -3.1573
  131SOL    HW2  393   2.876   1.074   2.787 -1.9739 -0.1259  2.4536
  132SOL     OW  394   2.760   1.572   1.726 -0.0489  0.3112 -0.1902
  132SOL    HW1  395   2.773   1.655   1.788  3.3291  0.7909  0.6567
  132SOL    HW2  396   2.784   1.482   1.774  1.0565 -0.3131 -0.1744
  133SOL     OW  397   3.011   0.689   0.281 -0.4890 -0.1505 -0.5139
  133SOL    HW1  398   2.987   0.589   0.297  1.4626 -1.9851 -3.0654
  133SOL    HW2  399   0.001   0.691   0.269 -0.0504  0.0118  0.0639
  134SOL     OW  400   0.238   1.123   0.082 -0.0227 -0.4715  0.0528
  134SOL    HW1  401   0.141   1.161   0.076  0.2280 -1.0774 -0.1212
  134SOL    HW2  402   0.235   1.037   0.023  2.5544 -4.0913  0.6161
  135SOL     OW  403   2.235   1.678   0.679 -0.3382  0.0879  0.0280
  135SOL    HW1  404   2.246   1.578   0.691  1.3234 -1.0393 -0.1082
  135SOL    HW2  405   2.140   1.706   0.663  0.9178  0.2261  1.3603
  136SOL     OW  406   1.961   1.341   1.056  0.2375 -0.1346 -0.2089
  136SOL    HW1  407   2.022   1.282   1.120  0.5580  1.9083  4.2299
  136SOL    HW2  408   1.999   1.439   1.048 -1.3581  1.7988  0.3301
  137SOL     OW  409   2.525   1.533   0.796 -0.3011  0.1925 -0.4351
  137SOL    HW1  410   2.446   1.471   0.801  0.5654  0.6222  2.0941
  137SOL    HW2  411   2.521   1.593   0.877 -1.4979  3.1533 -0.3873
  138SOL     OW  412   1.330   0.257   1.669  0.2039  0.1501  0.0641
  138SOL    HW1  413   1.361   0.348   1.635  1.6141  0.2097  1.8136
  138SOL    HW2  414   1.290   0.190   1.601 -2.7067  0.3318  1.4149
  139SOL     OW  415   1.847   0.142   0.012 -0.1201  0.4107  0.3984
  139SOL    HW1  416   1.878   0.183   3.038 -2.5433 -0.7732  1.1547
  139SOL    HW2  417   1.875   0.186   0.099  1.3425 -1.0317 -0.4038
  140SOL     OW  418   1.535   2.071   2.458 -0.3759 -0.0228 -0.1876
  140SOL    HW1  419   1.436   2.073   2.430 -0.4058 -0.1237 -0.2676
  140SOL    HW2  420   1.599   2.063   2.378  2.0520  1.1635  0.2143
  141SOL     OW  421   0.963   1.114   1.782 -0.0271 -0.5835  0.2763
  141SOL    HW1  422   1.042   1.181   1.795  0.0955  0.0921 -3.4427
  141SOL    HW2  423   0.988   1.014   1.774 -2.5106  2.7549 -3.3451
  142SOL     OW  424   2.673   0.186   2.960 -0.2356  0.1192 -0.0046
  142SOL    HW1  425   2.603   0.117   2.994 -1.6456  2.2398 -1.1857
  142SOL    HW2  426   2.758   0.180   3.016  0.0163 -0.2340 -1.4017
  143SOL     OW  427   0.840   2.254   2.937  0.2646  0.4016  0.4409
  143SOL    HW1  428   0.847   2.259   3.038 -1.2359  0.0006  0.6999
  143SOL    HW2  429   0.859   2.347   2.894 -0.4302  2.1688  1.9794
  144SOL     OW  430   1.160   2.621   2.513 -0.0261  0.5180 -0.2713
  144SOL    HW1  431   1.144   2.547   2.576  1.6478 -0.0176 -1.9817
  144SOL    HW2  432   1.234   2.679   2.550 -1.0446 -0.6433  0.5032
  145SOL     OW  433   2.371   1.411   0.095  0.0336 -0.1177 -0.6716
  145SOL    HW1  434   2.445   1.345   0.101 -2.3512  1.4903  1.8888
  145SOL    HW2  435   2.403   1.508   0.097  0.7699 -2.1507 -0.3740
  146SOL     OW  436   2.813   2.951   2.846  0.3052 -0.3727  0.0680
  146SOL    HW1  437   2.809   3.043   2.892  0.2016  2.4852 -0.0183
  146SOL    HW2  438   2.862   2.876   2.899 -0.2310 -2.7205 -1.0397
  147SOL     OW  439   2.283   2.221   1.156 -0.0424  0.1885 -0.0158
  147SOL    HW1  440   2.257   2.310   1.188 -0.8455  1.7012 -1.0580
  147SOL    HW2  441   2.340   2.176   1.228  0.9566  0.3909  0.8471
  148SOL     OW  442   1.571   0.055   0.050  0.1406 -0.2799  0.2692
  148SOL    HW1  443   1.539   0.088   0.142  0.0963  1.3365  0.0954
  148SOL    HW2  444   1.672   0.085   0.044 -0.1931  1.2433 -0.4842
  149SOL     OW  445   0.997   1.547   2.824  0.0229 -0.1832 -0.2671
  149SOL    HW1  446   1.088   1.495   2.829 -1.4659 -0.9562  1.2085
  149SOL    HW2  447   0.958   1.559   2.730 -2.6772 -1.5599 -0.0207
  150SOL     OW  448   0.655   2.766   0.503 -0.0864 -0.4226 -0.2095
  150SOL    HW1  449   0.737   2.745   0.446  1.3058  0.7252  1.2209
  150SOL    HW2  450   0.580   2.699   0.496  1.0873  0.7053 -2.4199
  151SOL     OW  451   0.357   1.857   3.061 -0.0423 -0.4121 -0.1229
  151SOL    HW1  452   0.273   1.803   3.053  0.7778  0.6345  1.0118
  151SOL    HW2  453   0.433   1.805   3.013  0.3448  0.3214  1.8064
  152SOL     OW  454   2.875   0.878   0.413  0.4537  0.1746  0.0348
  152SOL    HW1  455   2.909   0.919   0.502 -1.9198 -0.6169  1.4052
  152SOL    HW2  456   2.947   0.812   0.377  2.6231 -2.9351 -0.7171
  153SOL     OW  457   2.475   2.577   2.902 -0.2634  0.0467  0.1478
  153SOL    HW1  458   2.535   2.569   2.987  3.2831  1.9982 -0.2800
  153SOL    HW2  459   2.510   2.648   2.838 -0.2621 -0.4809 -1.0631
  154SOL     OW  460   0.658   3.013   1.203 -0.3654  0.0934  0.4053
  154SOL    HW1  461   0.726   2.956   1.258 -0.9328 -0.3609  0.8923
  154SOL    HW2  462   0.568   2.966   1.196  1.3533 -0.3579 -0.2974
  155SOL     OW  463   0.439   1.940   1.254 -0.1523 -0.3530  0.2630
  155SOL    HW1  464   0.391   1.960   1.166 -1.3498 -1.9372 -2.2597
  155SOL    HW2  465   0.374   1.918   1.326  0.6051  2.9095 -2.7954
  156SOL     OW  466   2.480   2.299   2.832  0.2755  0.1314  1.0743
  156SOL    HW1  467   2.534   2.260   2.904 -3.7419 -0.9415 -1.1559
  156SOL    HW2  468   2.481   2.400   2.830  2.6145 -1.5552  1.5709
  157SOL     OW  469   0.917   2.544   1.200 -0.2637  0.4106  0.1895
  157SOL    HW1  470   0.827   2.557   1.237 -1.7844 -0.7247  0.3313
  157SOL    HW2  471   0.984   2.562   1.273 -0.2864  2.1853  2.0476
  158SOL     OW  472   1.812   0.895   2.794  0.1562 -0.2102 -0.0255
  158SOL    HW1  473   1.773   0.814   2.753  0.6762  3.3900 -0.9401
  158SOL    HW2  474   1.745   0.971   2.798 -2.1283  0.1879  0.3511
  159SOL     OW  475   1.010   0.466   2.452  0.0276 -0.5353  0.4114
  159SOL    HW1  476   1.011   0.539   2.383 -0.9678  0.5723 -0.3949
  159SOL    HW2  477   1.077   0.488   2.525  0.1389 -1.5807  0.0816
  160SOL     OW  478   1.265   1.894   0.470 -0.0071 -0.2419 -0.7024
  160SOL    HW1  479   1.201   1.976   0.458 -0.1166 -2.0348  1.1219
  160SOL    HW2  480   1.230   1.835   0.548 -0.8903 -0.2075  0.8318
  161SOL     OW  481   3.069   2.204   0.151  0.5583  0.6365  0.3376
  161SOL    HW1  482   3.090   2.108   0.159  2.3419  0.7608 -0.7975
  161SOL    HW2  483   3.073   2.256   0.233 -1.5289 -2.5740 -0.4731
  162SOL     OW  484   0.599   2.592   0.999 -0.7004 -0.2279  0.6703
  162SOL    HW1  485   0.651   2.628   0.919  0.5360 -0.0315  1.3923
  162SOL    HW2  486   0.637   2.617   1.090 -1.0027  1.9195 -1.8179
  163SOL     OW  487   2.377   0.912   0.050  0.5159  0.3865 -0.4618
  163SOL    HW1  488   2.436   0.946   3.087  0.7846 -0.7681  2.1754
  163SOL    HW2  489   2.345   0.818   0.020  0.0665  0.3460 -1.5592
  164SOL     OW  490   0.123   2.887   0.093 -0.6315 -0.0373 -0.4035
  164SOL    HW1  491   0.163   2.793   0.081  1.6648  0.8876  0.9217
  164SOL    HW2  492   0.074   2.914   0.005 -2.0369 -1.7158 -0.2370
  165SOL     OW  493   2.198   0.448   1.276  0.1834 -0.4774 -0.5087
  165SOL    HW1  494   2.252   0.382   1.338  0.1591 -0.2825 -0.4863
  165SOL    HW2  495   2.208   0.545   1.318  0.9034  2.3268 -0.0338
  166SOL     OW  496   2.008   0.318   0.936 -0.0969 -0.3871  0.0956
  166SOL    HW1  497   2.100   0.356   0.967  0.2377 -0.6059  2.1447
  166SOL    HW2  498   1.978   0.237   0.990  1.5655  1.4053  1.4162
  167SOL     OW  499   0.542   0.702   1.812 -0.5711  0.1255  0.1004
  167SOL    HW1  500   0.576   0.619   1.856  1.9745 -0.7263 -0.3608
  167SOL    HW2  501   0.451   0.732   1.856 -0.7126 -1.8858  0.0018
  168SOL     OW  502   2.852   3.006   2.275  0.3413  0.0747  0.0939
  168SOL    HW1  503   2.795   3.088   2.265  0.9421 -1.0582 -0.0367
  168SOL    HW2  504   2.915   3.001   2.195 -0.0180  0.4442  2.1794
  169SOL     OW  505   0.063   1.392   0.509  1.1173 -0.3216  0.2973
  169SOL    HW1  506   0.150   1.343   0.527  1.3230  2.4771  1.6001
  169SOL    HW2  507   3.103   1.351   0.568 -2.1616 -1.0599  1.5528
  170SOL     OW  508   0.064   0.732   1.686 -0.0577  0.2601  0.3433
  170SOL    HW1  509   0.152   0.753   1.721 -2.8816 -0.7193 -3.5088
  170SOL    HW2  510   0.046   0.638   1.725  1.1139 -2.1218  2.5844
  171SOL     OW  511   1.186   1.895   1.846 -0.8338  0.1313  0.1057
  171SOL    HW1  512   1.204   1.990   1.879 -0.2467  0.0106 -2.2246
  171SOL    HW2  513   1.085   1.875   1.862  3.7874  1.0731 -2.1282
  172SOL     OW  514   0.531   2.366   1.412  0.2060  0.2941 -0.5456
  172SOL    HW1  515   0.586   2.447   1.382  1.4986  1.2770  1.3614
  172SOL    HW2  516   0.555   2.281   1.361 -0.2616  1.9066 -2.1760
  173SOL     OW  517   1.051   0.077   0.301 -0.1105  0.4603 -0.1898
  173SOL    HW1  518   1.018   3.100   0.332  0.5668  4.5387  1.5758
  173SOL    HW2  519   1.035   0.087   0.200  1.5475 -0.1558 -1.2712
  174SOL     OW  520   0.902   2.861   3.025  0.9577 -0.0075  0.8025
  174SOL    HW1  521   0.825   2.919   2.999 -2.7184  0.4242  1.5116
  174SOL    HW2  522   0.963   2.858   2.941 -1.4909  0.2302  0.2614
  175SOL     OW  523   1.151   1.015   3.067 -0.4789 -0.0162 -0.4934
  175SOL    HW1  524   1.201   1.100   3.098  1.8502  2.5778  0.5761
  175SOL    HW2  525   1.108   1.034   2.975  1.8771  3.1040  0.9543
  176SOL     OW  526   1.366   0.484   0.326 -0.1790  0.2074 -0.0792
  176SOL    HW1  527   1.320   0.393   0.323  0.3643  0.5976  0.6378
  176SOL    HW2  528   1.294   0.556   0.347  1.4225  3.4115 -0.6591
  177SOL     OW  529   1.125   0.953   0.849 -0.7421  0.5570  0.5034
  177SOL    HW1  530   1.055   0.988   0.784  0.1612 -1.3165 -0.3234
  177SOL    HW2  531   1.190   0.903   0.793 -5.5640 -0.5806  0.8053
  178SOL     OW  532   2.790   1.878   2.728 -0.2963  0.0236  0.1764
  178SOL    HW1  533   2.790   1.772   2.738  1.1828 -1.7979 -0.0525
  178SOL    HW2  534   2.753   1.902   2.636  0.3626  0.0138 -0.2880
  179SOL     OW  535   0.701   2.855   2.722 -0.0629 -0.9223  0.9105
  179SOL    HW1  536   0.642   2.937   2.747 -3.3355  1.6977  2.9584
  179SOL    HW2  537   0.799   2.879   2.712 -3.1617  0.5714  1.2648
  180SOL     OW  538   1.736   1.440   1.339 -0.4642  0.0277  0.2423
  180SOL    HW1  539   1.796   1.356   1.335  2.9525 -1.4253  2.8732
  180SOL    HW2  540   1.793   1.516   1.371  0.1629 -0.8114 -2.4907
  181SOL     OW  541   1.181   1.335   2.214  0.1768  0.1004  0.0954
  181SOL    HW1  542   1.197   1.256   2.155  0.1146 -1.9371  0.1948
  181SOL    HW2  543   1.261   1.352   2.274 -0.2679 -0.0364 -0.2528
  182SOL     OW  544   2.965   0.663   2.642  0.3554  0.1715  0.3556
  182SOL    HW1  545   2.874   0.662   2.694 -1.1933  0.2790  0.7281
  182SOL    HW2  546   2.976   0.570   2.599  0.3215 -1.8902 -0.4154
  183SOL     OW  547   1.538   2.979   2.664 -0.1816  0.3666 -0.1327
  183SOL    HW1  548   1.627   2.983   2.711 -0.0901  0.2176 -3.1637
  183SOL    HW2  549   1.506   3.075   2.650 -0.8865  0.9012 -1.1222
  184SOL     OW  550   0.665   0.522   1.481 -0.0277 -0.0336 -0.4949
  184SOL    HW1  551   0.714   0.569   1.559  1.1787 -0.4185  0.5874
  184SOL    HW2  552   0.705   0.539   1.385 -0.5458  0.4839 -3.3102
  185SOL     OW  553   2.776   1.205   0.770  0.3127  0.3293  0.1915
  185SOL    HW1  554   2.746   1.297   0.735 -1.4525 -3.6233 -0.0949
  185SOL    HW2  555   2.739   1.180   0.864 -1.6863  0.1774 -1.6436
  186SOL     OW  556   0.298   2.078   2.877  0.3743 -0.5408  0.0781
  186SOL    HW1  557   0.310   2.176   2.915 -0.5253  0.1058  2.3884
  186SOL    HW2  558   0.340   2.006   2.938 -0.4264 -1.2976  0.9570
  187SOL     OW  559   2.611   1.271   0.169 -0.2780  0.2345  0.3898
  187SOL    HW1  560   2.685   1.329   0.211 -0.5755  0.6725  1.2573
  187SOL    HW2  561   2.648   1.199   0.105  2.8346 -2.5340 -2.1571
  188SOL     OW  562   0.557   2.064   0.602  0.1724  0.3279 -0.2708
  188SOL    HW1  563   0.640   2.002   0.605 -2.6794  0.9015 -0.9246
  188SOL    HW2  564   0.511   2.051   0.510 -0.8284  3.0565  0.5321
  189SOL     OW  565   2.480   0.835   0.275  0.1323 -0.3136  0.2070
  189SOL    HW1  566   2.451   0.872   0.185 -0.1198 -0.9160  3.1230
  189SOL    HW2  567   2.510   0.908   0.338  0.2965 -1.6894 -1.9323
  190SOL     OW  568   1.176   1.595   2.153 -0.0069  0.2561 -0.1646
  190SOL    HW1  569   1.195   1.498   2.187 -2.1572 -0.1284  0.2323
  190SOL    HW2  570   1.080   1.619   2.154  1.8369 -1.3560 -1.4690
  191SOL     OW  571   2.959   0.360   1.567 -0.1867  0.1701  0.6380
  191SOL    HW1  572   2.892   0.336   1.495 -0.8072 -1.3565  1.6670
  191SOL    HW2  573   2.929   0.441   1.624  2.7491  0.2635  1.8888
  192SOL     OW  574   2.349   0.292   1.869 -0.3279  0.4878 -0.6790
  192SOL    HW1  575   2.388   0.197   1.854  0.8697 -0.6795 -0.2776
  192SOL    HW2  576   2.308   0.308   1.960 -4.5900  2.7591 -1.3259
  193SOL     OW  577   0.550   0.778   0.526  0.1955  0.6034 -0.7558
  193SOL    HW1  578   0.480   0.770   0.603 -2.2157 -0.5508  1.7662
  193SOL    HW2  579   0.539   0.866   0.476 -0.6545 -1.9113  0.6232
  194SOL     OW  580   1.290   2.437   1.667 -0.1433  0.0716  0.2846
  194SOL    HW1  581   1.213   2.375   1.682  0.6952  1.2398 -1.5757
  194SOL    HW2  582   1.338   2.420   1.574  1.3318 -0.0425 -2.2954
  195SOL     OW  583   2.214   0.575   0.804 -0.2376  0.1814 -0.1200
  195SOL    HW1  584   2.275   0.647   0.841 -3.1872 -1.7056  1.5863
  195SOL    HW2  585   2.123   0.610   0.824  1.6444  0.4003 -1.4332
  196SOL     OW  586   1.819   2.056   1.950 -0.2714 -0.0860  0.1926
  196SOL    HW1  587   1.760   1.969   1.956  1.7196 -1.3323  0.7497
  196SOL    HW2  588   1.770   2.128   1.895 -0.5421  3.4266  1.6732
  197SOL     OW  589   0.366   0.291   0.053  0.4994  0.5515  0.0549
  197SOL    HW1  590   0.388   0.190   0.070  0.2408  0.6368 -0.2878
  197SOL    HW2  591   0.284   0.292   3.094 -2.9870 -1.0869 -0.6802
  198SOL     OW  592   1.175   1.360   0.743  0.2575  0.0038  0.4230
  198SOL    HW1  593   1.084   1.320   0.725 -0.2363 -2.5398 -0.4899
  198SOL    HW2  594   1.166   1.449   0.798 -1.1699  1.8877  1.1497
  199SOL     OW  595   2.482   0.852   1.915 -0.4231  0.0038 -0.0350
  199SOL    HW1  596   2.508   0.772   1.967 -1.5705  2.0345 -1.4463
  199SOL    HW2  597   2.558   0.924   1.917  0.5246  3.2566 -0.0967
  200SOL     OW  598   2.628   2.354   2.363  0.5021  0.0742  0.1965
  200SOL    HW1  599   2.728   2.367   2.338 -0.3166 -0.6220  1.4356
  200SOL    HW2  600   2.596   2.430   2.420 -0.2133 -3.1936 -2.6715
  201SOL     OW  601   2.823   0.171   1.143 -0.2664  0.3830  0.5785
  201SOL    HW1  602   2.901   0.180   1.084 -2.9732  0.0361  1.0237
  201SOL    HW2  603   2.738   0.156   1.086 -1.1385  1.0854 -2.0474
  202SOL     OW  604   1.863   0.344   0.707 -0.3142 -1.1949 -0.2657
  202SOL    HW1  605   1.776   0.292   0.707 -4.0884  0.8100 -1.1600
  202SOL    HW2  606   1.920   0.325   0.792 -1.1989 -2.4690  0.6547
  203SOL     OW  607   1.684   1.837   1.965 -0.3670 -0.2162  0.1738
  203SOL    HW1  608   1.660   1.805   2.060  1.3507  0.1839 -1.5531
  203SOL    HW2  609   1.744   1.768   1.924 -1.5416 -0.5252  1.6812
  204SOL     OW  610   0.708   1.672   1.989 -0.1379  0.1668 -0.2962
  204SOL    HW1  611   0.803   1.634   1.980 -2.2056  0.3750  1.5147
  204SOL    HW2  612   0.705   1.760   2.032 -0.1366 -1.3401 -1.4428
  205SOL     OW  613   0.810   1.765   1.607  1.0877 -0.2907 -0.1663
  205SOL    HW1  614   0.784   1.671   1.627  1.1731  2.7149 -0.5255
  205SOL    HW2  615   0.729   1.830   1.621 -1.3858  1.3723 -1.1897
  206SOL     OW  616   3.074   0.461   2.950 -0.3933 -0.5980 -0.3062
  206SOL    HW1  617   3.103   0.551   2.991  0.2335 -2.2460  0.1073
  206SOL    HW2  618   2.973   0.457   2.945  0.5550 -1.3926 -1.0970
  207SOL     OW  619   1.809   2.666   1.942 -0.1111  0.9052  0.9705
  207SOL    HW1  620   1.884   2.684   2.006  0.6600  2.1718 -0.2007
  207SOL    HW2  621   1.814   2.572   1.898 -3.1474 -0.4062 -2.3171
  208SOL     OW  622   0.621   2.156   1.266  0.0791  0.3625  0.4144
  208SOL    HW1  623   0.600   2.055   1.264 -2.4975  0.1482  1.2026
  208SOL    HW2  624   0.602   2.193   1.173  1.2051 -0.7474  2.4118
  209SOL     OW  625   1.495   1.213   2.191 -0.0294 -0.5485 -0.7957
  209SOL    HW1  626   1.492   1.254   2.098  2.4633 -0.9649  2.2035
  209SOL    HW2  627   1.469   1.285   2.261  0.3997 -2.6509  3.0806
  210SOL     OW  628   1.930   0.866   1.327  0.1728  0.2498 -0.3568
  210SOL    HW1  629   1.962   0.900   1.234 -0.9853  2.8976 -3.3206
  210SOL    HW2  630   1.888   0.772   1.319 -1.1939 -0.7595  1.0446
  211SOL     OW  631   0.722   0.096   0.493  0.0630 -0.5160 -0.7491
  211SOL    HW1  632   0.714   0.096   0.394  2.2512  0.2941 -0.7282
  211SOL    HW2  633   0.769   0.180   0.530 -0.3434  0.1101  0.6564
  212SOL     OW  634   1.738   1.380   0.214 -0.4811 -0.3105 -0.4849
  212SOL    HW1  635   1.768   1.472   0.190 -1.9939 -0.0225 -0.4754
  212SOL    HW2  636   1.813   1.318   0.200 -0.5572  0.1918  4.0262
  213SOL     OW  637   1.510   0.181   2.638  0.4435 -0.2026  0.1444
  213SOL    HW1  638   1.598   0.202   2.591 -0.0268 -5.3715  1.9034
  213SOL    HW2  639   1.526   0.169   2.742 -0.0321 -1.2008  1.2133
  214SOL     OW  640   1.651   1.534   2.033 -0.1954 -0.3009 -0.0021
  214SOL    HW1  641   1.673   1.572   2.123  0.0304  1.4843 -3.1314
  214SOL    HW2  642   1.729   1.548   1.973  2.0181  1.4774 -1.8062
  215SOL     OW  643   0.599   1.914   0.229 -0.0787  0.4891  0.4482
  215SOL    HW1  644   0.518   1.958   0.188 -0.6907  0.0504 -0.6793
  215SOL    HW2  645   0.661   1.981   0.270  1.7243  0.1534  1.2894
  216SOL     OW  646   0.527   2.923   2.237  0.5553  0.1453 -0.0617
  216SOL    HW1  647   0.605   2.968   2.186 -1.0206  0.5335  0.0304
  216SOL    HW2  648   0.450   2.991   2.246  0.7298 -2.1854 -0.7818
  217SOL     OW  649   2.369   0.970   0.709 -0.3935 -0.3071 -0.4239
  217SOL    HW1  650   2.452   0.947   0.658  0.7786 -1.1932 -2.7041
  217SOL    HW2  651   2.306   1.016   0.643  2.4083  2.3436  0.9856
  218SOL     OW  652   1.899   1.626   1.858 -0.4944  0.0004  0.2440
  218SOL    HW1  653   1.955   1.619   1.945 -1.6844 -0.0464  1.0028
  218SOL    HW2  654   1.960   1.657   1.777  1.5628 -0.4599 -1.0082
  219SOL     OW  655   1.837   1.275   3.011 -0.2157  0.0718  0.1150
  219SOL    HW1  656   1.866   1.253   2.919  0.4481  0.0824 -1.0609
  219SOL    HW2  657   1.739   1.312   3.014 -1.0201  0.3294 -0.5490
  220SOL     OW  658   1.326   1.610   1.070 -0.1999  0.2553  0.1343
  220SOL    HW1  659   1.346   1.705   1.096 -0.3482 -4.1817  1.8567
  220SOL    HW2  660   1.409   1.573   1.022  3.6729 -1.3694  0.6795
  221SOL     OW  661   0.875   0.784   2.937 -0.3021 -0.0761  0.1984
  221SOL    HW1  662   0.902   0.860   2.873 -0.4593  1.1263  1.3371
  221SOL    HW2  663   0.830   0.710   2.880  1.3720  0.2745 -0.0726
  222SOL     OW  664   0.897   1.664   0.916  0.1551  0.4254 -0.0511
  222SOL    HW1  665   0.817   1.649   0.854  0.4049 -0.0313 -0.5429
  222SOL    HW2  666   0.891   1.749   0.971  0.7251 -0.3489 -1.2216
  223SOL     OW  667   1.177   3.086   2.973  0.7480 -0.3951  0.0281
  223SOL    HW1  668   1.261   3.039   2.943  0.2336  0.7430 -0.5573
  223SOL    HW2  669   1.100   3.078   2.904 -0.4436 -4.7658  1.0747
  224SOL     OW  670   2.783   0.283   1.399 -0.4072  0.1468 -0.3679
  224SOL    HW1  671   2.724   0.212   1.440 -1.5168  0.7538 -0.0673
  224SOL    HW2  672   2.800   0.251   1.301 -1.9622 -0.8536 -1.7131
  225SOL     OW  673   0.993   0.404   1.596  0.2158  0.3639  0.7893
  225SOL    HW1  674   1.056   0.475   1.563  1.2496 -0.7601  2.0008
  225SOL    HW2  675   0.900   0.447   1.596 -1.2921 -0.7762  0.7744
  226SOL     OW  676   1.532   1.688   2.858  0.1636  0.5472 -0.4845
  226SOL    HW1  677   1.497   1.748   2.785 -0.0186  0.4175  3.3029
  226SOL    HW2  678   1.474   1.706   2.936  0.3602  0.9540 -0.9092
  227SOL     OW  679   1.276   2.026   1.271 -0.3914 -0.2026 -0.2442
  227SOL    HW1  680   1.310   1.951   1.333 -1.0421 -0.4383  0.2687
  227SOL    HW2  681   1.172   2.021   1.273 -2.4025 -1.4392  0.4768
  228SOL     OW  682   0.431   1.692   0.577  0.7899 -0.0872  0.3250
  228SOL    HW1  683   0.397   1.784   0.596  0.3141 -0.0482  0.6485
  228SOL    HW2  684   0.435   1.641   0.667  1.8429 -0.1989 -1.2503
  229SOL     OW  685   1.301   0.302   0.026  0.5593  0.1486  0.1821
  229SOL    HW1  686   1.264   0.392   3.103 -2.6002  0.2562 -2.1191
  229SOL    HW2  687   1.359   0.258   3.065 -0.1287  2.5398 -0.7364
  230SOL     OW  688   1.208   0.594   2.166 -0.2690 -0.0642 -0.0588
  230SOL    HW1  689   1.248   0.518   2.108 -0.9927  0.1215  1.2268
  230SOL    HW2  690   1.106   0.598   2.178  0.6189 -1.0637  2.6660
  231SOL     OW  691   0.948   1.730   2.191 -0.0996 -0.2952  0.2076
  231SOL    HW1  692   1.009   1.735   2.270 -2.1562 -1.7878  0.4390
  231SOL    HW2  693   0.953   1.821   2.146 -1.3862  1.1179 -1.8577
  232SOL     OW  694   2.236   1.908   0.883  0.1376  0.4620 -0.4090
  232SOL    HW1  695   2.246   1.847   0.798  0.1630 -2.5436 -0.0376
  232SOL    HW2  696   2.313   1.971   0.891 -0.1970 -1.5519 -2.4627
  233SOL     OW  697   2.303   2.847   0.148 -0.6106  0.0575 -0.5824
  233SOL    HW1  698   2.235   2.917   0.167  0.1509  1.8310 -0.9655
  233SOL    HW2  699   2.361   2.869   0.064  0.9631 -1.0750 -0.3029
  234SOL     OW  700   0.882   0.252   2.867  0.0244 -0.5533  0.3527
  234SOL    HW1  701   0.864   0.229   2.966  0.7863 -1.5565  1.2505
  234SOL    HW2  702   0.837   0.188   2.804  2.7988  0.2797  0.3456
  235SOL     OW  703   2.301   0.026   2.700  0.2223 -0.2464  0.1686
  235SOL    HW1  704   2.388   0.075   2.724  0.5261 -0.2192  0.7384
  235SOL    HW2  705   2.282   0.011   2.601 -1.9060 -0.9650 -3.1716
  236SOL     OW  706   2.335   2.340   2.272  0.3100 -0.1940  0.4549
  236SOL    HW1  707   2.373   2.434   2.253 -1.4639  0.8213  0.0524
  236SOL    HW2  708   2.415   2.281   2.294 -0.6363  1.4605  0.2812
  237SOL     OW  709   0.922   1.403   2.136  0.0066 -0.5002  0.3856
  237SOL    HW1  710   0.947   1.451   2.047  0.6299 -0.5494 -2.8506
  237SOL    HW2  711   1.007   1.367   2.174  0.3829 -0.2483  0.3551
  238SOL     OW  712   1.760   0.247   2.559  0.1684 -0.4539 -0.4123
  238SOL    HW1  713   1.832   0.179   2.587 -0.1078  0.7332 -0.5082
  238SOL    HW2  714   1.790   0.340   2.585 -1.2773 -0.5799  0.9204
  239SOL     OW  715   0.152   1.863   1.802 -0.3447 -0.4427  0.4265
  239SOL    HW1  716   0.183   1.862   1.901  1.0404  0.1238  2.0904
  239SOL    HW2  717   0.095   1.786   1.786  0.7131  1.8117  1.7339
  240SOL     OW  718   2.837   2.727   0.354  0.2905 -0.4249 -0.3129
  240SOL    HW1  719   2.851   2.651   0.420  0.1714  1.0451  0.9444
  240SOL    HW2  720   2.917   2.727   0.293 -0.4551  1.7463  1.0596
  241SOL     OW  721   2.035   1.828   0.512  0.1996  0.2378 -0.3986
  241SOL    HW1  722   2.127   1.779   0.503 -1.5289  1.3318 -0.0033
  241SOL    HW2  723   1.953   1.765   0.496 -1.1503  1.9884 -0.5957
  242SOL     OW  724   1.478   1.905   2.686 -0.3105  0.2465  0.0999
  242SOL    HW1  725   1.510   1.973   2.611 -0.5989  2.0872  0.5053
  242SOL    HW2  726   1.382   1.934   2.719  1.6432  0.3826  0.9028
  243SOL     OW  727   0.729   2.549   2.439 -0.4885 -0.7724 -0.0345
  243SOL    HW1  728   0.641   2.602   2.416 -1.5788 -0.2808 -0.8904
  243SOL    HW2  729   0.760   2.579   2.532  1.0215  1.7705  2.8732
  244SOL     OW  730   2.124   0.269   2.671  0.5808 -0.6085  0.3674
  244SOL    HW1  731   2.040   0.215   2.648  0.3023 -2.3926  1.2218
  244SOL    HW2  732   2.205   0.209   2.674 -0.9567 -0.0611 -0.0736
  245SOL     OW  733   1.536   2.805   0.660 -0.4817 -0.6042  0.4423
  245SOL    HW1  734   1.550   2.874   0.734 -0.1786  4.0146  0.3732
  245SOL    HW2  735   1.450   2.829   0.609 -0.2620 -0.4167 -3.3627
  246SOL     OW  736   1.435   2.576   0.392  0.2099  0.1710  0.9352
  246SOL    HW1  737   1.501   2.648   0.357  0.3560  3.2598  2.1483
  246SOL    HW2  738   1.340   2.620   0.402 -0.2489  1.9747  1.3312
  247SOL     OW  739   0.955   0.650   2.256 -0.0513 -0.2917 -0.1874
  247SOL    HW1  740   0.946   0.756   2.234  3.3259  3.1282 -2.9331
  247SOL    HW2  741   0.870   0.606   2.225  2.6442  0.6613  1.1768
  248SOL     OW  742   0.585   1.456   2.137 -0.0446 -0.1551 -0.0612
  248SOL    HW1  743   0.642   1.415   2.212  0.6536 -0.9481 -2.7164
  248SOL    HW2  744   0.628   1.538   2.092  1.1083  4.9043  1.5759
  249SOL     OW  745   2.187   0.303   0.328  0.2152 -0.0963 -0.0181
  249SOL    HW1  746   2.284   0.337   0.319 -0.3459 -0.6656 -1.3931
  249SOL    HW2  747   2.128   0.358   0.391  0.2418  0.3353  1.4927
  250SOL     OW  748   0.658   0.142   0.838 -0.1432 -0.3436  0.2263
  250SOL    HW1  749   0.570   0.089   0.830  0.4622 -0.9967  1.7569
  250SOL    HW2  750   0.683   0.193   0.749  2.1293  3.3108 -0.4978
  251SOL     OW  751   1.869   0.549   2.873  0.1522 -0.1850  0.2669
  251SOL    HW1  752   1.789   0.608   2.849  0.8398 -1.0021 -2.3012
  251SOL    HW2  753   1.937   0.598   2.926  0.1362 -0.8981  0.4595
  252SOL     OW  754   2.013   1.585   2.110 -0.2992 -0.2198 -0.4320
  252SOL    HW1  755   2.033   1.503   2.162 -2.1299  1.3180 -0.4789
  252SOL    HW2  756   1.984   1.660   2.172 -2.5166  0.6036 -0.3749
  253SOL     OW  757   2.740   2.328   1.893 -0.5697  0.2452 -0.2582
  253SOL    HW1  758   2.656   2.386   1.896  2.3191  1.1304  4.2624
  253SOL    HW2  759   2.815   2.365   1.836 -1.5317 -1.0697 -0.9069
  254SOL     OW  760   0.236   1.402   1.136  0.0889  0.2731 -0.5543
  254SOL    HW1  761   0.181   1.390   1.058  0.9639  3.0154  1.5046
  254SOL    HW2  762   0.187   1.424   1.221  0.9401  1.4779 -0.0769
  255SOL     OW  763   0.756   0.644   1.236 -0.3341  0.1393 -0.2076
  255SOL    HW1  764   0.693   0.684   1.170  1.4358 -0.9453 -2.3548
  255SOL    HW2  765   0.829   0.708   1.269  3.3893 -2.8337  1.8347
  256SOL     OW  766   2.101   2.591   1.777  0.1869  0.0380 -1.0423
  256SOL    HW1  767   2.175   2.641   1.828 -1.0886 -0.1627  0.9371
  256SOL    HW2  768   2.138   2.502   1.740 -0.3779  0.1676  1.2068
  257SOL     OW  769   0.455   2.624   3.058  0.2575  0.6022 -0.4501
  257SOL    HW1  770   0.462   2.609   2.960 -2.7737 -1.0181  2.4097
  257SOL    HW2  771   0.528   2.566   0.000  2.4006  2.5066 -1.1093
  258SOL     OW  772   0.872   2.637   0.085 -0.5443 -0.4460 -0.3083
  258SOL    HW1  773   0.782   2.589   0.097 -1.6356 -0.3613 -1.2968
  258SOL    HW2  774   0.873   2.704   0.006 -2.9151 -0.0086 -1.1198
  259SOL     OW  775   1.149   0.038   2.303  0.3459 -0.2245  0.6803
  259SOL    HW1  776   1.090   0.026   2.218 -1.6315 -0.2972  0.6508
  259SOL    HW2  777   1.248   0.044   2.282 -0.5192 -0.1997 -0.2582
  260SOL     OW  778   1.854   0.526   1.018  0.5023 -0.1531  0.0290
  260SOL    HW1  779   1.903   0.441   1.001 -1.8735  0.4202  1.0490
  260SOL    HW2  780   1.895   0.613   0.978  0.3854 -0.6730 -0.5270
  261SOL     OW  781   0.512   0.418   2.472  0.2477 -0.0150 -0.2512
  261SOL    HW1  782   0.455   0.495   2.503  1.6343  0.2256 -1.1635
  261SOL    HW2  783   0.610   0.440   2.495 -0.6015  1.6683  0.8742
  262SOL     OW  784   0.213   2.416   2.172  0.0685 -0.1294  0.8223
  262SOL    HW1  785   0.204   2.381   2.080 -3.4180 -1.7360  2.1490
  262SOL    HW2  786   0.274   2.353   2.219  0.3572 -1.4083  0.1771
  263SOL     OW  787   3.041   1.635   2.175 -0.0114  0.2594 -0.3617
  263SOL    HW1  788   3.031   1.718   2.122  1.0932 -5.0059  4.5209
  263SOL    HW2  789   3.104   1.652   2.251 -2.3627 -0.1503  1.5447
  264SOL     OW  790   0.471   1.129   0.985  0.3549 -0.4696 -0.5336
  264SOL    HW1  791   0.448   1.188   0.904 -1.5235  0.6508 -1.9433
  264SOL    HW2  792   0.377   1.108   1.029 -1.5560  0.8327 -0.1378
  265SOL     OW  793   1.111   2.497   0.670 -0.2858  0.1084 -0.4117
  265SOL    HW1  794   1.212   2.507   0.664 -0.4525 -2.1968 -0.7442
  265SOL    HW2  795   1.081   2.515   0.765  1.5396  1.3287 -0.4143
  266SOL     OW  796   1.600   0.807   0.996  1.0339 -0.2860 -0.1096
  266SOL    HW1  797   1.660   0.730   1.009  0.4326  0.4167 -1.9398
  266SOL    HW2  798   1.642   0.900   0.985  1.1951 -0.8276 -2.7653
  267SOL     OW  799   2.657   1.112   3.022 -0.4462 -0.0826  0.0381
  267SOL    HW1  800   2.691   1.025   3.060  0.1708  1.4740  0.6107
  267SOL    HW2  801   2.562   1.110   2.982 -0.2785 -1.4227  1.3368
  268SOL     OW  802   1.617   0.452   0.222 -0.0748  0.1825  0.1051
  268SOL    HW1  803   1.674   0.420   0.294 -1.4181  0.0863 -3.0988
  268SOL    HW2  804   1.524   0.434   0.247  0.6817  1.0502 -0.9022
  269SOL     OW  805   2.076   0.887   2.888  0.6902  0.0934 -0.0833
  269SOL    HW1  806   1.973   0.886   2.890  0.3617 -1.8601  1.7380
  269SOL    HW2  807   2.117   0.980   2.879  0.5027  0.0018  2.3049
  270SOL     OW  808   2.956   0.923   0.004  0.2975 -0.1696  0.0030
  270SOL    HW1  809   3.005   0.956   3.032 -0.7748  0.7048  2.2520
  270SOL    HW2  810   2.981   0.829   0.035 -1.5382  3.6791 -1.5660
  271SOL     OW  811   2.709   0.691   0.230 -0.3187 -0.0242 -0.6974
  271SOL    HW1  812   2.629   0.751   0.242  1.1109  0.8129  0.2348
  271SOL    HW2  813   2.792   0.728   0.274 -1.1036 -1.0596 -0.3403
  272SOL     OW  814   0.118   2.415   2.978  0.0716 -0.0625 -0.2445
  272SOL    HW1  815   0.099   2.416   2.875 -0.0644 -0.9783  0.7011
  272SOL    HW2  816   0.049   2.357   3.018  0.0124  2.3352 -2.8035
  273SOL     OW  817   2.574   3.100   0.276 -0.2187  0.2543  0.1430
  273SOL    HW1  818   2.621   0.076   0.298  2.3012  0.7011  2.0385
  273SOL    HW2  819   2.474   3.110   0.292 -2.4758 -0.8030 -1.4963
  274SOL     OW  820   0.607   2.290   1.031 -0.0575 -0.2392 -0.1057
  274SOL    HW1  821   0.615   2.395   1.039  0.8134  1.4500  0.6647
  274SOL    HW2  822   0.579   2.263   0.938  0.6564  0.3433  1.5217
  275SOL     OW  823   2.740   1.561   0.414 -0.1514 -0.0682  0.4048
  275SOL    HW1  824   2.810   1.502   0.371 -2.4845 -0.6460  0.6939
  275SOL    HW2  825   2.776   1.654   0.426  0.5343 -1.4653  1.1997
  276SOL     OW  826   3.028   1.012   1.936 -0.3265 -0.1464  0.0310
  276SOL    HW1  827   2.949   1.059   1.991 -3.1107  1.5878  1.3318
  276SOL    HW2  828   2.993   0.960   1.852 -0.3427 -1.6558 -1.9283
  277SOL     OW  829   2.196   2.957   1.312 -0.2137  0.4689 -0.0080
  277SOL    HW1  830   2.119   2.894   1.293 -2.7168 -1.9102 -1.5905
  277SOL    HW2  831   2.156   3.050   1.329 -1.4865  2.4160  3.0228
  278SOL     OW  832   1.486   2.423   2.127  1.0823  0.1725 -0.7885
  278SOL    HW1  833   1.519   2.514   2.090  0.4264  1.3609  0.3025
  278SOL    HW2  834   1.389   2.429   2.156  0.3398 -0.3842 -2.2324
  279SOL     OW  835   1.689   1.919   0.350 -0.4726 -1.0210  0.2662
  279SOL    HW1  836   1.725   1.822   0.368 -0.6389 -3.9371  1.7509
  279SOL    HW2  837   1.606   1.919   0.291 -0.1078  2.1710 -1.8900
  280SOL     OW  838   0.373   1.630   1.064 -0.0608  0.5026  0.0082
  280SOL    HW1  839   0.296   1.695   1.079 -0.0858 -1.3306 -0.8434
  280SOL    HW2  840   0.342   1.538   1.100 -1.6058  2.5276  3.5574
  281SOL     OW  841   2.921   0.792   2.394 -0.1510 -0.4209 -0.5253
  281SOL    HW1  842   2.921   0.699   2.344  0.8254  1.3284  0.7963
  281SOL    HW2  843   2.957   0.786   2.493  0.0186  0.2970  2.6914
  282SOL     OW  844   0.677   1.624   0.783  0.4231  0.1783 -0.1165
  282SOL    HW1  845   0.605   1.556   0.772  1.5663 -0.4338  0.3734
  282SOL    HW2  846   0.709   1.657   0.695 -1.2380  0.0643  4.1066
  283SOL     OW  847   2.092   2.288   0.044 -0.5771  0.1354 -0.2585
  283SOL    HW1  848   2.036   2.356   0.090  0.6949 -0.7869 -1.1827
  283SOL    HW2  849   2.144   2.237   0.119  0.6683  0.8048  2.6056
  284SOL     OW  850   0.939   0.480   0.423  0.3100 -0.2113 -0.1126
  284SOL    HW1  851   0.881   0.445   0.348  2.4643  2.5227 -0.1822
  284SOL    HW2  852   0.893   0.528   0.502  3.1796 -0.6542 -1.2972
  285SOL     OW  853   2.156   1.159   2.873 -0.5027 -0.1811 -0.2094
  285SOL    HW1  854   2.067   1.165   2.822 -0.4327  0.4344  0.4810
  285SOL    HW2  855   2.193   1.256   2.896  0.8481  1.8041  0.3630
  286SOL     OW  856   1.860   2.335   1.345 -0.4581  0.0857  0.0796
  286SOL    HW1  857   1.802   2.310   1.258 -4.4626 -3.5772 -1.9552
  286SOL    HW2  858   1.908   2.426   1.331  0.4736  0.4496 -3.9940
  287SOL     OW  859   0.919   0.999   0.693 -0.1561  0.0537  0.2548
  287SOL    HW1  860   0.819   0.986   0.711  0.9361  0.1618 -0.5315
  287SOL    HW2  861   0.939   1.097   0.683 -0.2672 -1.9317  0.4269
  288SOL     OW  862   1.122   2.530   0.019  0.2649  0.1579 -0.0092
  288SOL    HW1  863   1.206   2.521   0.072 -1.5715  1.2640 -2.5747
  288SOL    HW2  864   1.045   2.578   0.063  3.4494  0.4701  0.1641
  289SOL     OW  865   0.138   1.513   1.371 -0.1581  0.0068  0.2724
  289SOL    HW1  866   0.169   1.595   1.419  1.2261  1.5850  2.0360
  289SOL    HW2  867   0.192   1.435   1.404 -0.0331  0.5590 -0.8817
  290SOL     OW  868   1.449   2.127   0.846 -0.3121  0.1044 -0.0521
  290SOL    HW1  869   1.431   2.167   0.934 -2.0108 -0.7314 -0.0233
  290SOL    HW2  870   1.552   2.116   0.835  1.6326  2.7933  2.0131
  291SOL     OW  871   1.927   3.018   2.982  0.3426 -0.1468 -0.7118
  291SOL    HW1  872   1.883   3.099   3.033  0.1549 -1.5608 -0.7887
  291SOL    HW2  873   1.891   2.929   3.021 -1.0440 -0.9759  0.0901
  292SOL     OW  874   0.920   0.383   2.030  0.2208 -0.2766 -0.0114
  292SOL    HW1  875   0.992   0.331   1.979  2.0839 -2.1315  1.0423
  292SOL    HW2  876   0.885   0.328   2.103  3.2815 -0.0969 -0.2979
  293SOL     OW  877   2.101   2.307   0.845  0.3606 -0.5061  0.4086
  293SOL    HW1  878   2.030   2.301   0.769 -1.2197 -0.1197  1.9529
  293SOL    HW2  879   2.093   2.235   0.920  0.1576 -1.0420  0.4362
  294SOL     OW  880   0.398   0.925   2.512  0.1621  0.4624 -0.0112
  294SOL    HW1  881   0.451   0.891   2.591 -0.7993  2.8410 -0.0706
  294SOL    HW2  882   0.384   1.023   2.533 -2.4689 -0.9983  0.3816
  295SOL     OW  883   1.585   1.559   0.959 -0.0779  0.3391 -0.0023
  295SOL    HW1  884   1.631   1.472   1.003  1.7882 -1.5076  2.4148
  295SOL    HW2  885   1.586   1.639   1.024 -0.5756  0.2645 -0.8706
  296SOL     OW  886   2.443   1.669   0.119 -0.1293 -0.7427 -0.3928
  296SOL    HW1  887   2.419   1.769   0.140 -0.4774  0.7066  0.7566
  296SOL    HW2  888   2.463   1.620   0.211  0.9678 -3.7081  2.9699
  297SOL     OW  889   2.079   3.020   0.197 -0.5212 -0.2651  0.5002
  297SOL    HW1  890   2.009   3.092   0.168 -0.0689  1.0375  0.6427
  297SOL    HW2  891   2.145   3.057   0.269  0.3000 -0.5832 -0.0882
  298SOL     OW  892   0.948   2.503   2.888  0.0827  0.3369  0.1169
  298SOL    HW1  893   1.029   2.468   2.836  2.0294 -1.3066  2.9322
  298SOL    HW2  894   0.978   2.545   2.972  0.5365 -2.0179 -0.1760
  299SOL     OW  895   1.199   2.112   2.009  0.6039 -0.1270 -0.6193
  299SOL    HW1  896   1.291   2.081   2.037  1.2028 -0.2595 -1.2989
  299SOL    HW2  897   1.192   2.214   2.018 -0.6866 -0.0726  2.5517
  300SOL     OW  898   2.507   0.196   2.740 -0.0192 -0.1546  0.1448
  300SOL    HW1  899   2.582   0.202   2.812 -1.4493  1.1227  1.2413
  300SOL    HW2  900   2.456   0.281   2.734  0.9772  0.5359 -1.3993
  301SOL     OW  901   1.202   1.130   2.046 -0.5596  0.1789  0.1940
  301SOL    HW1  902   1.185   1.185   1.962  0.5574 -0.8445  0.7052
  301SOL    HW2  903   1.234   1.035   2.030 -2.1060 -1.2352 -0.1766
  302SOL     OW  904   2.785   2.926   0.084  0.1792  0.0799  0.1380
  302SOL    HW1  905   2.697   2.976   0.077 -2.8862 -3.0591 -0.3514
  302SOL    HW2  906   2.846   2.962   0.153 -0.7469 -0.5029 -0.9983
  303SOL     OW  907   2.511   2.474   1.904  0.4044  0.4034  0.0203
  303SOL    HW1  908   2.444   2.404   1.861  1.1176 -1.7324 -0.7193
  303SOL    HW2  909   2.479   2.501   1.997 -1.5801 -0.0742  2.5101
  304SOL     OW  910   2.870   0.553   1.712 -0.9757  0.0353 -0.2049
  304SOL    HW1  911   2.779   0.601   1.698  1.4470  1.9378  0.8740
  304SOL    HW2  912   2.944   0.620   1.747  1.9540  0.4240  3.1067
  305SOL     OW  913   0.475   1.498   1.514 -0.5896  0.2641 -0.7387
  305SOL    HW1  914   0.572   1.509   1.480 -0.0264  1.9729  1.1155
  305SOL    HW2  915   0.419   1.581   1.491  0.3041  0.2437 -0.8774
  306SOL     OW  916   0.141   1.051   1.784  0.0698 -0.2534 -0.2801
  306SOL    HW1  917   0.214   1.077   1.847 -0.7197 -1.4769  0.0666
  306SOL    HW2  918   0.056   1.035   1.842  1.4030 -0.3664 -0.7983
  307SOL     OW  919   1.030   0.854   1.724  0.3976 -0.0844 -0.7012
  307SOL    HW1  920   1.054   0.879   1.629  0.9407  2.5089  0.9607
  307SOL    HW2  921   1.103   0.790   1.755  0.3142 -0.2285 -1.7791
  308SOL     OW  922   3.037   1.112   0.983 -0.0258 -0.0090  0.5443
  308SOL    HW1  923   2.958   1.089   0.922  1.8429 -0.0872 -1.6461
  308SOL    HW2  924   3.031   1.068   1.074 -0.0725  0.0770 -3.8462
  309SOL     OW  925   2.378   1.087   1.316 -0.0644 -0.2357 -0.5473
  309SOL    HW1  926   2.424   1.177   1.290 -0.7902  1.5910 -0.6005
  309SOL    HW2  927   2.455   1.022   1.342 -1.9729 -1.9208  1.9187
  310SOL     OW  928   2.934   2.279   2.657  0.1843 -0.3184 -0.0913
  310SOL    HW1  929   2.966   2.197   2.712  3.5699 -0.6889 -2.2866
  310SOL    HW2  930   2.836   2.275   2.632  0.5923  1.4115 -0.3630
  311SOL     OW  931   2.743   3.031   2.602  0.6145  0.3568 -0.2230
  311SOL    HW1  932   2.771   2.996   2.693 -0.4061  0.5370  1.9013
  311SOL    HW2  933   2.651   2.997   2.585  3.4505  0.0930  2.4971
  312SOL     OW  934   2.279   1.911   0.159 -0.3870  0.1205  0.5326
  312SOL    HW1  935   2.317   1.982   0.099  0.9172 -0.0573  0.6291
  312SOL    HW2  936   2.229   1.837   0.106  1.5411 -0.8860  1.2791
  313SOL     OW  937   2.629   2.868   0.429  0.1011  0.1337  0.4226
  313SOL    HW1  938   2.707   2.814   0.384  1.7801 -1.8537 -0.7766
  313SOL    HW2  939   2.614   2.949   0.375  1.0291 -3.2350  0.5680
  314SOL     OW  940   1.559   1.272   0.384  0.3958  0.4009 -0.0314
  314SOL    HW1  941   1.488   1.205   0.357 -2.4165  0.1708  0.5499
  314SOL    HW2  942   1.618   1.298   0.304  3.0134 -0.0250 -0.2606
  315SOL     OW  943   1.436   2.886   2.057 -0.0917  0.0502 -0.0405
  315SOL    HW1  944   1.407   2.910   2.148  1.2417 -0.9940 -2.8139
  315SOL    HW2  945   1.382   2.944   1.995  0.2556  3.2118  0.7059
  316SOL     OW  946   2.660   0.836   3.091 -0.2213  0.3476 -0.4082
  316SOL    HW1  947   2.754   0.815   3.054  2.5870  0.8045 -0.4380
  316SOL    HW2  948   2.637   0.771   0.058  0.4984  0.7516  0.5834
  317SOL     OW  949   0.406   0.038   0.137 -0.1776  0.1888  0.7992
  317SOL    HW1  950   0.340   0.002   0.202  1.7246  0.3043 -2.1528
  317SOL    HW2  951   0.439   3.070   0.088  2.1624  1.1085  1.5172
  318SOL     OW  952   2.266   2.535   1.034 -0.0419  0.3012  0.0261
  318SOL    HW1  953   2.279   2.472   0.952  1.1998  0.0736 -1.2894
  318SOL    HW2  954   2.224   2.620   1.003  1.5535  0.9851  0.7941
  319SOL     OW  955   1.021   1.929   2.928  0.1471 -0.7492  0.6583
  319SOL    HW1  956   0.980   1.947   3.023  0.9298  1.7128 -1.1245
  319SOL    HW2  957   0.950   1.898   2.861 -0.1396  0.4662  0.7338
  320SOL     OW  958   0.393   2.416   1.790 -0.0218  0.9144 -0.0833
  320SOL    HW1  959   0.444   2.502   1.811  0.4042 -1.4896 -1.1754
  320SOL    HW2  960   0.327   2.397   1.861  0.2938 -1.4158 -1.3912
  321SOL     OW  961   1.390   2.759   2.571 -0.2655  0.1059 -0.4907
  321SOL    HW1  962   1.436   2.843   2.610  0.0447  1.6861  0.6175
  321SOL    HW2  963   1.461   2.714   2.515 -1.4261 -0.8383 -0.2539
  322SOL     OW  964   2.888   1.403   2.156  0.2995 -0.2395 -0.1285
  322SOL    HW1  965   2.961   1.471   2.168 -2.8421 -1.9722  2.5393
  322SOL    HW2  966   2.810   1.432   2.210  1.7879 -2.0827 -0.6927
  323SOL     OW  967   2.219   1.080   1.102  0.1520 -0.0916  0.3007
  323SOL    HW1  968   2.293   1.103   1.035 -1.4276 -1.6357 -0.9700
  323SOL    HW2  969   2.247   1.123   1.188  0.3259 -0.8115  0.0138
  324SOL     OW  970   3.018   3.005   2.496  0.2821 -0.1083  0.7911
  324SOL    HW1  971   2.961   2.997   2.409 -0.1288  0.0821 -1.6122
  324SOL    HW2  972   2.960   3.020   2.580 -0.5269 -0.3946  3.0269
  325SOL     OW  973   1.194   0.752   2.667  0.3928  0.4270 -0.1569
  325SOL    HW1  974   1.203   0.650   2.674 -0.0353 -1.5531  0.7199
  325SOL    HW2  975   1.111   0.779   2.615  1.1952 -0.2036  1.1812
  326SOL     OW  976   2.022   2.647   2.113  0.6509  0.7915 -0.1096
  326SOL    HW1  977   2.096   2.681   2.049  2.3501  1.2529  0.7516
  326SOL    HW2  978   2.008   2.544   2.110 -1.6462 -0.0944  0.0697
  327SOL     OW  979   1.893   0.234   0.269 -0.8684 -0.1718 -0.1031
  327SOL    HW1  980   1.839   0.303   0.324 -0.2557  0.4745 -1.0024
  327SOL    HW2  981   1.989   0.231   0.305  0.8443 -0.9868  3.1205
  328SOL     OW  982   0.226   1.550   2.558  0.2225  0.3000  0.0576
  328SOL    HW1  983   0.279   1.546   2.466 -0.4202 -0.2833 -2.5068
  328SOL    HW2  984   0.129   1.571   2.537  0.0911 -0.9331 -0.0931
  329SOL     OW  985   2.343   0.010   1.948 -0.5848 -0.0978  0.3890
  329SOL    HW1  986   2.315   3.036   1.898  0.3264 -0.4743 -1.3910
  329SOL    HW2  987   2.437   3.109   1.982  0.9419 -0.2093  0.1813
  330SOL     OW  988   0.118   1.412   0.863  0.2690  0.1376  0.3547
  330SOL    HW1  989   0.116   1.513   0.841 -1.6724  4.0975  0.6184
  330SOL    HW2  990   0.064   1.355   0.800  1.1599  0.4263  4.4717
  331SOL     OW  991   0.389   1.779   2.285 -0.1895 -0.7271  0.1055
  331SOL    HW1  992   0.341   1.691   2.283 -0.5980  2.9360  0.8598
  331SOL    HW2  993   0.493   1.757   2.282  0.5690 -2.1626 -0.6815
  332SOL     OW  994   0.192   2.945   1.751 -0.1124  0.1886  0.2089
  332SOL    HW1  995   0.272   2.892   1.708 -0.4634 -0.6241  2.5430
  332SOL    HW2  996   0.138   2.980   1.675 -1.0200  1.5520  0.3366
  333SOL     OW  997   2.130   3.051   0.950  0.2431 -0.2394  0.5262
  333SOL    HW1  998   2.033   3.066   0.986  0.3177 -2.2242  0.5437
  333SOL    HW2  999   2.194   0.000   1.002 -0.1391 -2.0879 -2.5344
  334SOL     OW 1000   0.472   1.968   0.860 -0.6251  0.0154 -0.6930
  334SOL    HW1 1001   0.495   2.025   0.776 -3.0886 -0.2300  1.7487
  334SOL    HW2 1002   0.549   1.971   0.930  2.2223  1.3043  0.4721
  335SOL     OW 1003   0.204   2.623   0.066  0.2275  0.2179  0.2189
  335SOL    HW1 1004   0.166   2.582   3.093 -0.8169  0.1249  2.4043
  335SOL    HW2 1005   0.306   2.627   0.064  0.7163  1.9320  0.2931
  336SOL     OW 1006   0.349   0.008   2.283  0.2266 -0.6725 -0.2245
  336SOL    HW1 1007   0.296   3.066   2.353  0.7290 -0.8296  2.5075
  336SOL    HW2 1008   0.293   0.037   2.208  4.4362 -0.4905  2.1764
  337SOL     OW 1009   2.655   2.211   2.602  0.3046 -0.2517  0.0522
  337SOL    HW1 1010   2.621   2.253   2.520  2.8978 -1.9534  2.0617
  337SOL    HW2 1011   2.596   2.232   2.686 -0.5824  0.9824  1.2496
  338SOL     OW 1012   0.812   0.916   1.155  0.1874 -0.1621  0.2210
  338SOL    HW1 1013   0.821   0.874   1.061 -0.2106  2.1909 -1.4820
  338SOL    HW2 1014   0.761   1.004   1.145  0.4305  0.8894 -0.4845
  339SOL     OW 1015   0.068   0.829   2.060 -0.6462  0.2670 -0.1908
  339SOL    HW1 1016   0.057   0.854   2.160 -2.9228 -1.3383  0.6380
  339SOL    HW2 1017   0.032   0.906   2.004 -0.5889 -1.9680  0.0295
  340SOL     OW 1018   1.639   2.728   0.307  0.4456 -0.3262 -0.9048
  340SOL    HW1 1019   1.703   2.782   0.363  0.7531 -2.2746  1.4187
  340SOL    HW2 1020   1.606   2.787   0.229 -1.2139  3.6436 -0.8764
  341SOL     OW 1021   1.979   0.968   1.064  0.0563  0.1579  0.3413
  341SOL    HW1 1022   1.908   1.026   1.020  0.0768 -0.0521  2.4189
  341SOL    HW2 1023   2.069   1.010   1.052 -1.0275 -1.1957 -0.7815
  342SOL     OW 1024   2.407   2.935   3.022  0.0064 -0.0100 -0.0805
  342SOL    HW1 1025   2.322   2.927   2.967  1.6634  0.0059 -3.1396
  342SOL    HW2 1026   2.482   2.895   2.964  3.0356 -1.0876  1.8794
  343SOL     OW 1027   1.604   2.160   1.742  0.8009 -0.1113 -0.1658
  343SOL    HW1 1028   1.621   2.188   1.649  1.8385 -1.3348  0.2265
  343SOL    HW2 1029   1.537   2.224   1.794  0.0843  0.5102  0.5212
  344SOL     OW 1030   2.204   2.446   1.351 -0.0664 -0.3071  0.5752
  344SOL    HW1 1031   2.119   2.500   1.366  0.5792 -0.9533 -0.7838
  344SOL    HW2 1032   2.283   2.494   1.399  0.7727  0.1920  1.2444
  345SOL     OW 1033   2.618   2.532   0.046 -0.0174  1.0080  0.0465
  345SOL    HW1 1034   2.565   2.476   0.108 -0.6244 -0.4603  2.1045
  345SOL    HW2 1035   2.643   2.622   0.090  1.2837 -0.0277  1.9811
  346SOL     OW 1036   2.770   1.491   0.693 -0.4051 -0.3658  0.3150
  346SOL    HW1 1037   2.765   1.501   0.593 -1.6810 -1.7944  0.1849
  346SOL    HW2 1038   2.678   1.502   0.741  0.5980 -0.6787  2.1904
  347SOL     OW 1039   1.968   1.964   1.665  0.4888  0.0558  0.0061
  347SOL    HW1 1040   1.991   1.961   1.764  1.9516 -0.0293  0.9661
  347SOL    HW2 1041   2.050   1.985   1.607 -0.2012  1.2064  0.2068
  348SOL     OW 1042   0.535   1.737   2.910  0.0118 -0.4752  0.0927
  348SOL    HW1 1043   0.490   1.685   2.831 -1.4891  0.3029 -0.6942
  348SOL    HW2 1044   0.630   1.702   2.916  1.5886  0.3712 -0.1179
  349SOL     OW 1045   2.465   1.379   1.605 -0.0154  0.3258 -0.4187
  349SOL    HW1 1046   2.427   1.430   1.524  0.3569 -0.0272 -0.1671
  349SOL    HW2 1047   2.547   1.335   1.568  0.6402  3.9116  0.3583
  350SOL     OW 1048   2.855   2.570   1.038  0.1564  0.0801 -0.1751
  350SOL    HW1 1049   2.838   2.517   1.116  1.6292  0.1796 -2.4178
  350SOL    HW2 1050   2.785   2.560   0.962 -1.9348 -1.0400  0.4803
  351SOL     OW 1051   0.430   0.581   2.230  0.3367 -0.6681 -0.0591
  351SOL    HW1 1052   0.407   0.673   2.266  1.1292  0.8881 -0.1567
  351SOL    HW2 1053   0.506   0.529   2.281  2.8127 -3.8268  0.6447
  352SOL     OW 1054   0.782   1.828   1.137  0.4279 -0.0040 -0.2035
  352SOL    HW1 1055   0.849   1.828   1.214 -1.5787 -1.5735  4.0308
  352SOL    HW2 1056   0.724   1.744   1.151 -0.5995 -1.8339 -0.0279
  353SOL     OW 1057   1.366   1.746   2.458 -0.2800 -0.2116 -0.1061
  353SOL    HW1 1058   1.399   1.803   2.382 -2.9221 -0.1496  1.4679
  353SOL    HW2 1059   1.377   1.788   2.551  0.0926 -0.2618  1.7132
  354SOL     OW 1060   1.087   0.488   0.863 -0.6511 -0.2871 -0.0195
  354SOL    HW1 1061   1.046   0.475   0.954  1.4044 -0.6224 -0.8538
  354SOL    HW2 1062   1.184   0.455   0.863 -0.6435 -0.8968 -1.8615
  355SOL     OW 1063   2.573   0.695   0.573 -0.2702  0.1021 -0.1106
  355SOL    HW1 1064   2.594   0.795   0.573 -2.1309  0.5188 -0.5698
  355SOL    HW2 1065   2.495   0.672   0.511  2.2217  0.0376 -0.7029
  356SOL     OW 1066   2.494   1.797   2.444  0.0248 -0.1272  0.1314
  356SOL    HW1 1067   2.479   1.749   2.537  1.1783  1.5080 -1.1683
  356SOL    HW2 1068   2.568   1.872   2.443 -0.7146  2.8868 -1.4933
  357SOL     OW 1069   0.670   2.613   1.321 -0.5451  0.2238  0.5535
  357SOL    HW1 1070   0.581   2.659   1.314  0.5076 -2.8448  1.4572
  357SOL    HW2 1071   0.723   2.646   1.401  1.3035 -0.0409 -1.6858
  358SOL     OW 1072   2.611   0.672   1.673 -0.0855  0.4545  0.1680
  358SOL    HW1 1073   2.592   0.718   1.583 -1.3126  2.0751  1.3600
  358SOL    HW2 1074   2.608   0.737   1.749  0.7612  0.9038  0.1554
  359SOL     OW 1075   2.280   2.670   2.569 -0.4385  0.3964  0.4750
  359SOL    HW1 1076   2.219   2.646   2.489  2.3952  0.1968  0.2139
  359SOL    HW2 1077   2.235   2.661   2.658  2.0677 -0.8014  2.5333
  360SOL     OW 1078   1.372   0.467   0.824 -0.0273 -0.8479 -0.3598
  360SOL    HW1 1079   1.372   0.567   0.804 -0.9907  0.9920 -0.2209
  360SOL    HW2 1080   1.445   0.446   0.891 -0.5379 -1.5161 -1.0395
  361SOL     OW 1081   2.383   0.079   1.314  0.2789 -0.7186  0.2335
  361SOL    HW1 1082   2.379   0.172   1.360 -1.6126 -0.3740  0.1013
  361SOL    HW2 1083   2.347   0.002   1.368  2.6999  2.9655 -0.8983
  362SOL     OW 1084   1.245   1.195   0.510 -0.0983 -0.4945 -0.2627
  362SOL    HW1 1085   1.306   1.200   0.596  2.1260 -0.0422 -0.3365
  362SOL    HW2 1086   1.215   1.295   0.482 -0.3218  4.0628 -3.8608
  363SOL     OW 1087   2.324   1.679   2.652  0.5157  0.2303 -0.0722
  363SOL    HW1 1088   2.351   1.584   2.682 -0.3903 -3.5427  0.8697
  363SOL    HW2 1089   2.234   1.670   2.605 -1.4854 -0.3040 -0.8906
  364SOL     OW 1090   0.967   0.172   1.401  0.1359  0.1980 -0.9236
  364SOL    HW1 1091   0.995   0.257   1.456 -1.3548  2.2997 -1.2122
  364SOL    HW2 1092   0.868   0.145   1.396  0.1203 -3.3935 -0.7993
  365SOL     OW 1093   0.232   3.005   0.306 -0.2265  1.0118 -0.0563
  365SOL    HW1 1094   0.206   2.949   0.222 -2.3667 -1.8478 -3.6937
  365SOL    HW2 1095   0.244   2.944   0.384 -3.0221 -0.7945 -5.3526
  366SOL     OW 1096   2.614   1.661   2.997  0.6277 -0.5200  0.1073
  366SOL    HW1 1097   2.540   1.660   3.067 -1.4577 -1.2421 -1.1345
  366SOL    HW2 1098   2.701   1.621   3.030  0.4397 -1.5497  1.8139
  367SOL     OW 1099   2.780   2.645   2.593 -0.1535 -0.3659  0.5064
  367SOL    HW1 1100   2.771   2.704   2.512  0.0076 -1.6342  2.9314
  367SOL    HW2 1101   2.861   2.671   2.652  4.7902  0.3738 -1.7299
  368SOL     OW 1102   0.127   1.782   1.097 -0.4545 -0.4852 -0.0588
  368SOL    HW1 1103   0.049   1.787   1.164  1.4298  3.0267 -2.4342
  368SOL    HW2 1104   0.170   1.874   1.097 -1.0413 -0.6559 -1.5986
  369SOL     OW 1105   1.112   2.958   0.078 -0.1986 -0.1143  0.3737
  369SOL    HW1 1106   1.152   3.014   0.001 -4.4033 -2.8569 -1.1253
  369SOL    HW2 1107   1.027   2.918   0.036  2.7452  0.2555  0.2357
  370SOL     OW 1108   0.156   0.937   0.715  0.2611 -0.2279  0.4666
  370SOL    HW1 1109   0.237   0.879   0.731 -1.7591  1.0289 -1.8413
  370SOL    HW2 1110   0.144   1.008   0.785 -2.2999  1.8944  1.4947
  371SOL     OW 1111   1.883   2.852   0.781 -0.3176 -0.3348 -0.6780
  371SOL    HW1 1112   1.914   2.943   0.752  1.3662 -2.2379  0.9802
  371SOL    HW2 1113   1.905   2.774   0.716 -2.9163 -1.3555 -0.4210
  372SOL     OW 1114   0.146   0.904   2.679  0.8299  0.8370  0.0917
  372SOL    HW1 1115   0.219   0.961   2.724  2.1521 -0.9064 -2.7320
  372SOL    HW2 1116   0.151   0.908   2.580 -1.5689 -0.4056  1.5820
  373SOL     OW 1117   2.808   1.992   0.654 -0.0877 -0.7980 -0.1794
  373SOL    HW1 1118   2.862   2.049   0.586  0.6720 -0.4336 -2.0452
  373SOL    HW2 1119   2.857   1.981   0.745  1.2422  3.0862 -1.1221
  374SOL     OW 1120   0.249   2.476   0.347  0.4569 -0.3526 -0.3756
  374SOL    HW1 1121   0.212   2.510   0.260  0.6856  1.0353  1.8179
  374SOL    HW2 1122   0.341   2.511   0.369  2.1194 -3.1920 -1.2780
  375SOL     OW 1123   0.405   0.765   0.096  0.1754 -0.6458 -0.5018
  375SOL    HW1 1124   0.464   0.842   0.120 -1.0272 -1.2154 -0.1643
  375SOL    HW2 1125   0.437   0.680   0.141  1.0602 -0.6317  0.8902
  376SOL     OW 1126   0.542   2.495   2.099 -0.6008  0.0990  0.2355
  376SOL    HW1 1127   0.504   2.545   2.017  1.7624 -0.3663  1.6973
  376SOL    HW2 1128   0.516   2.544   2.182 -1.5018 -0.3703  1.7415
  377SOL     OW 1129   1.263   2.318   2.518 -0.2600  0.5675  0.1668
  377SOL    HW1 1130   1.355   2.362   2.531 -0.5193  0.5183  0.4022
  377SOL    HW2 1131   1.279   2.227   2.480  2.1995  1.1318  2.0907
  378SOL     OW 1132   1.119   0.846   0.578  0.0655  0.1252  0.1047
  378SOL    HW1 1133   1.051   0.916   0.567  2.7878 -2.8477  1.0142
  378SOL    HW2 1134   1.213   0.882   0.583 -0.9132 -2.7590 -0.4310
  379SOL     OW 1135   0.956   1.766   0.297  0.3490 -0.2034  0.5220
  379SOL    HW1 1136   0.930   1.776   0.399  1.1342  1.2812  1.2800
  379SOL    HW2 1137   1.038   1.707   0.289 -1.4691 -0.9752 -1.1990
  380SOL     OW 1138   0.180   1.931   1.400 -0.0216 -0.1915  0.4426
  380SOL    HW1 1139   0.100   1.875   1.426  2.3706 -0.1029 -1.4096
  380SOL    HW2 1140   0.147   2.024   1.371 -0.9718  0.4008  0.2871
  381SOL     OW 1141   0.317   0.941   1.594  0.2120 -0.1386  0.0405
  381SOL    HW1 1142   0.251   0.958   1.666 -0.5580  0.7667 -2.3082
  381SOL    HW2 1143   0.401   0.993   1.604 -3.2748  1.4783 -0.2936
  382SOL     OW 1144   2.399   2.207   0.498 -0.0512  0.8099  0.0692
  382SOL    HW1 1145   2.364   2.266   0.568 -0.4041 -2.2290  0.4759
  382SOL    HW2 1146   2.459   2.133   0.537 -0.5393  0.8816  2.2145
  383SOL     OW 1147   2.659   1.805   2.206  0.0523 -0.8145 -0.3992
  383SOL    HW1 1148   2.569   1.848   2.179 -3.0657  1.3583  1.5590
  383SOL    HW2 1149   2.734   1.860   2.242  1.1633 -2.7684  1.1953
  384SOL     OW 1150   0.204   2.189   1.969 -0.4804  0.5897  0.5040
  384SOL    HW1 1151   0.109   2.185   2.011 -0.1429  2.3792  2.1511
  384SOL    HW2 1152   0.213   2.123   1.892  1.6478  1.9776  0.5308
  385SOL     OW 1153   2.750   2.293   0.794  0.1578 -0.4927 -0.1268
  385SOL    HW1 1154   2.724   2.285   0.694  2.1881  1.5022  1.8462
  385SOL    HW2 1155   2.851   2.305   0.805  0.9287  2.4728 -0.8638
  386SOL     OW 1156   1.801   0.810   0.713 -0.7243 -0.4732  0.1679
  386SOL    HW1 1157   1.753   0.900   0.726 -0.0492 -2.1077 -0.9052
  386SOL    HW2 1158   1.831   0.802   0.616 -0.4509  0.0249 -0.6512
  387SOL     OW 1159   0.291   0.811   1.905 -0.5772  0.1947 -0.1795
  387SOL    HW1 1160   0.217   0.787   1.972 -0.9250 -1.9153 -2.2768
  387SOL    HW2 1161   0.302   0.914   1.896  3.3305 -1.8243 -1.5058
  388SOL     OW 1162   2.176   1.012   2.439  0.1450 -0.7689 -0.1190
  388SOL    HW1 1163   2.149   1.108   2.428 -2.1825  0.0679 -0.1899
  388SOL    HW2 1164   2.092   0.962   2.480 -0.4165 -2.8893  2.6633
  389SOL     OW 1165   1.834   1.399   1.738 -0.0265  0.1298  0.1741
  389SOL    HW1 1166   1.751   1.412   1.685  1.4512  0.3784 -1.4096
  389SOL    HW2 1167   1.884   1.484   1.749 -0.6643 -2.3808 -3.9555
  390SOL     OW 1168   1.923   2.783   0.186 -0.2506 -0.2174 -0.0140
  390SOL    HW1 1169   1.972   2.870   0.202  0.2321 -1.9166 -1.7929
  390SOL    HW2 1170   1.875   2.786   0.097  2.3727  1.2520 -2.0275
  391SOL     OW 1171   2.109   2.211   1.410 -0.2939  0.0786  0.0976
  391SOL    HW1 1172   2.162   2.296   1.401 -0.1717 -0.9377  0.6923
  391SOL    HW2 1173   2.019   2.230   1.371 -2.9949 -2.1995  0.2779
  392SOL     OW 1174   3.075   2.523   0.876 -0.3072  0.3329 -0.5328
  392SOL    HW1 1175   3.001   2.550   0.943 -2.0269 -1.6960  0.5243
  392SOL    HW2 1176   3.082   2.422   0.876 -0.2529  0.5761  2.6041
  393SOL     OW 1177   2.124   1.766   3.092  0.4643  0.0638 -0.4526
  393SOL    HW1 1178   2.121   1.667   3.072 -0.4553  2.9912  2.2892
  393SOL    HW2 1179   2.113   1.826   3.012 -0.0404 -1.7142  1.9026
  394SOL     OW 1180   0.097   0.235   3.043  0.6082  0.1236 -0.2706
  394SOL    HW1 1181   0.054   0.318   3.004  0.7516 -2.3768  0.4103
  394SOL    HW2 1182   0.096   0.156   2.979 -2.2134 -0.5913 -0.3059
  395SOL     OW 1183   1.230   1.174   1.250 -0.0717 -0.1140  0.6559
  395SOL    HW1 1184   1.253   1.075   1.251 -1.0075  3.1050 -1.4188
  395SOL    HW2 1185   1.198   1.200   1.158  1.0967 -1.0001  0.5711
  396SOL     OW 1186   1.500   0.836   3.051  0.1330 -0.3223 -0.1601
  396SOL    HW1 1187   1.469   0.930   3.037  1.5914 -1.9322 -1.1775
  396SOL    HW2 1188   1.427   0.772   3.017  1.0943  2.4143  0.7672
  397SOL     OW 1189   0.154   0.593   2.717 -0.3876  0.3546  0.5411
  397SOL    HW1 1190   0.073   0.537   2.746 -0.7888  0.7981 -0.0903
  397SOL    HW2 1191   0.119   0.682   2.683  1.6922 -0.8731  0.2428
  398SOL     OW 1192   0.825   0.227   0.020 -0.0618  0.4219 -0.4344
  398SOL    HW1 1193   0.813   0.314   0.067  1.1596 -0.8052 -0.7656
  398SOL    HW2 1194   0.924   0.199   0.036  1.6646 -0.9151 -0.3818
  399SOL     OW 1195   2.645   2.843   1.957  0.6507  0.4971 -0.1322
  399SOL    HW1 1196   2.629   2.806   1.864 -2.7807 -0.6890  2.3233
  399SOL    HW2 1197   2.713   2.790   2.007  1.2885  0.3757 -0.1244
  400SOL     OW 1198   0.224   1.784   2.061 -0.0757  0.1091 -0.2390
  400SOL    HW1 1199   0.158   1.714   2.097 -1.6391  0.3485  3.2304
  400SOL    HW2 1200   0.282   1.828   2.132  1.2100 -2.3653  0.0843
  401SOL     OW 1201   0.750   0.471   2.553 -0.8051  0.4397  0.1286
  401SOL    HW1 1202   0.779   0.497   2.645  1.4914 -0.2585 -1.8835
  401SOL    HW2 1203   0.830   0.451   2.494 -0.1087 -2.1177 -0.0580
  402SOL     OW 1204   0.217   2.103   1.708  0.0884 -0.3110  0.2960
  402SOL    HW1 1205   0.201   2.004   1.715  0.0015  0.2638  1.6628
  402SOL    HW2 1206   0.296   2.132   1.652  2.4788  1.8988 -1.4673
  403SOL     OW 1207   0.574   1.054   1.542  0.2830 -0.5406 -0.1149
  403SOL    HW1 1208   0.626   0.968   1.551 -1.9330 -0.0842 -0.8870
  403SOL    HW2 1209   0.610   1.129   1.598 -0.6808  1.1077 -0.5118
  404SOL     OW 1210   2.790   2.279   1.595  0.5351  0.0896  0.0793
  404SOL    HW1 1211   2.833   2.369   1.587 -2.3868 -2.5306 -1.8890
  404SOL    HW2 1212   2.858   2.204   1.581 -0.9282 -0.9756  1.9588
  405SOL     OW 1213   0.199   0.313   1.668  0.1879  0.3098 -0.0219
  405SOL    HW1 1214   0.183   0.303   1.565  0.5582 -0.2811 -0.7957
  405SOL    HW2 1215   0.168   0.229   1.721  2.2158 -1.0940 -1.0408
  406SOL     OW 1216   1.804   2.505   3.026 -0.3420  0.2974  0.3845
  406SOL    HW1 1217   1.852   2.506   0.005 -1.5672 -1.3095 -1.9913
  406SOL    HW2 1218   1.864   2.469   2.953  3.0413  1.2288 -0.2036
  407SOL     OW 1219   1.415   1.208   1.643 -0.0713 -0.1206  0.3613
  407SOL    HW1 1220   1.491   1.275   1.628 -0.7333 -1.1537  1.2026
  407SOL    HW2 1221   1.341   1.220   1.572  0.0683  0.9351 -2.2176
  408SOL     OW 1222   0.758   0.062   2.569 -0.7608 -0.0606 -0.1758
  408SOL    HW1 1223   0.770   3.089   2.513 -1.9864  2.0258 -0.7600
  408SOL    HW2 1224   0.821   0.137   2.546 -1.3168 -1.4118  0.5533
  409SOL     OW 1225   2.909   2.502   0.547  0.1812  0.5922  0.0686
  409SOL    HW1 1226   2.824   2.445   0.544 -1.3868  0.4304  1.2237
  409SOL    HW2 1227   2.981   2.460   0.602  2.1360  2.3523 -0.3878
  410SOL     OW 1228   2.482   1.557   0.386  0.2187  0.6538  0.4973
  410SOL    HW1 1229   2.463   1.639   0.442 -0.7431 -0.2605 -3.5665
  410SOL    HW2 1230   2.582   1.545   0.367 -0.1653 -0.4875  1.9927
  411SOL     OW 1231   3.082   0.695   0.976 -0.3596  0.1167  0.7885
  411SOL    HW1 1232   0.023   0.646   0.898  2.0339  0.8062 -1.9037
  411SOL    HW2 1233   0.039   0.737   1.039 -2.7527  0.2397 -0.0780
  412SOL     OW 1234   1.417   0.733   0.793  0.3901  0.1237 -0.4643
  412SOL    HW1 1235   1.484   0.750   0.869 -1.6766  0.4673 -0.6679
  412SOL    HW2 1236   1.409   0.815   0.735  0.4614 -3.9440  0.2017
  413SOL     OW 1237   0.907   0.445   1.095 -0.9819  0.8010 -0.0856
  413SOL    HW1 1238   0.918   0.345   1.122  0.8396 -0.7606  1.7773
  413SOL    HW2 1239   0.860   0.494   1.169  0.5569 -0.3080 -0.9333
  414SOL     OW 1240   0.167   1.677   2.994 -0.4002  0.1854  0.0358
  414SOL    HW1 1241   0.069   1.687   2.970  0.5413  1.0705 -1.6158
  414SOL    HW2 1242   0.214   1.613   2.927  2.5768  0.4434 -1.4278
  415SOL     OW 1243   0.557   2.249   0.019  0.0770 -0.4205 -0.0368
  415SOL    HW1 1244   0.604   2.173   3.090  0.4302  1.8676 -0.3720
  415SOL    HW2 1245   0.507   2.304   3.061 -1.1985 -0.5975 -0.3021
  416SOL     OW 1246   1.583   0.975   0.459 -0.2510 -0.2211 -0.2745
  416SOL    HW1 1247   1.571   0.891   0.403  1.3543 -1.6523  2.5735
  416SOL    HW2 1248   1.666   1.027   0.423  2.9836  1.4130  0.2645
  417SOL     OW 1249   0.256   1.048   0.350 -0.2399 -0.1041 -0.4691
  417SOL    HW1 1250   0.260   1.066   0.250 -1.2553 -0.6430 -0.0370
  417SOL    HW2 1251   0.232   0.951   0.368 -1.9948 -1.0660 -0.5615
  418SOL     OW 1252   2.643   1.463   2.533  0.0008  0.2232 -0.6071
  418SOL    HW1 1253   2.630   1.492   2.441 -1.2497 -1.7024  4.8339
  418SOL    HW2 1254   2.649   1.359   2.540 -1.6941  0.9554 -1.7472
  419SOL     OW 1255   0.554   0.571   2.940  0.0531 -0.6494  0.2197
  419SOL    HW1 1256   0.580   0.609   3.031 -0.3042  1.2251 -1.8564
  419SOL    HW2 1257   0.450   0.563   2.942 -0.9849  0.2495  0.1695
  420SOL     OW 1258   0.423   1.529   0.784  0.5682  0.6226  0.2486
  420SOL    HW1 1259   0.428   1.552   0.879 -0.3947  0.0418 -1.0997
  420SOL    HW2 1260   0.396   1.431   0.773  1.2425  0.7204 -2.0077
  421SOL     OW 1261   0.551   2.297   0.761  0.3471 -0.6046 -0.1510
  421SOL    HW1 1262   0.627   2.362   0.752  0.3676 -4.4378 -0.0938
  421SOL    HW2 1263   0.557   2.226   0.695 -1.6210  2.5608  0.7074
  422SOL     OW 1264   2.910   0.826   1.268  0.9562  0.0602  0.1580
  422SOL    HW1 1265   2.989   0.894   1.256 -0.5296  1.5326  1.4508
  422SOL    HW2 1266   2.947   0.737   1.291  1.5580 -1.0013  1.7228
  423SOL     OW 1267   1.422   1.414   1.335  0.4010  0.3511 -0.1250
  423SOL    HW1 1268   1.472   1.348   1.276  1.2846  0.7114  1.8104
  423SOL    HW2 1269   1.340   1.370   1.368  1.7083 -1.6347  0.0302
  424SOL     OW 1270   1.842   1.099   0.394  0.4933  0.0190 -0.3457
  424SOL    HW1 1271   1.872   1.171   0.462  0.9016  1.7255 -0.4523
  424SOL    HW2 1272   1.869   1.129   0.305  2.3466 -0.4680  2.5138
  425SOL     OW 1273   0.011   0.105   2.016  0.0734 -0.1313  0.0873
  425SOL    HW1 1274   0.026   0.157   2.106  1.0030 -1.0244  1.6381
  425SOL    HW2 1275   0.103   0.076   1.976 -0.3468 -0.8229 -0.3819
  426SOL     OW 1276   2.478   2.908   2.521 -0.5384 -0.0419 -0.5053
  426SOL    HW1 1277   2.409   2.832   2.531  2.0911  1.9557 -0.3758
  426SOL    HW2 1278   2.442   2.991   2.473 -0.8070  1.0863 -0.6808
  427SOL     OW 1279   1.178   0.851   2.281  0.8447  0.3751  0.1319
  427SOL    HW1 1280   1.180   0.754   2.242 -3.7525 -3.5684 -3.1388
  427SOL    HW2 1281   1.272   0.887   2.273  0.3430 -0.6309 -1.6753
  428SOL     OW 1282   2.301   1.283   2.187  0.4062  0.6989  0.1693
  428SOL    HW1 1283   2.283   1.302   2.284  0.6655  0.3957  0.4364
  428SOL    HW2 1284   2.365   1.202   2.171  3.1594 -1.3765 -1.8104
  429SOL     OW 1285   2.671   0.144   0.613 -0.9532 -0.5428 -0.3677
  429SOL    HW1 1286   2.688   0.177   0.517 -0.1538  2.8797 -0.2094
  429SOL    HW2 1287   2.722   0.203   0.678  0.6322 -3.4272 -1.9079
  430SOL     OW 1288   2.012   1.289   2.165 -0.1247  0.0027  0.1696
  430SOL    HW1 1289   2.112   1.261   2.167  4.6863 -1.4321 -0.6767
  430SOL    HW2 1290   1.963   1.261   2.079  0.7733 -0.3430  0.8432
  431SOL     OW 1291   2.914   1.980   0.909  0.5272 -0.6296  0.6546
  431SOL    HW1 1292   2.844   2.020   0.974 -0.4770 -0.4404 -0.9259
  431SOL    HW2 1293   2.966   1.897   0.945  0.6357 -1.6799  0.7448
  432SOL     OW 1294   1.585   2.981   2.285  0.4554  0.0320 -0.8147
  432SOL    HW1 1295   1.515   3.051   2.272 -0.0310 -3.6917  0.6257
  432SOL    HW2 1296   1.674   3.011   2.251  1.0946 -0.9338 -0.2336
  433SOL     OW 1297   1.314   3.017   1.852 -0.3531  0.4059  0.6734
  433SOL    HW1 1298   1.222   2.981   1.818 -1.7402  0.7126  0.1492
  433SOL    HW2 1299   1.389   2.976   1.794 -2.1524  1.6544 -0.7564
  434SOL     OW 1300   0.484   2.667   2.288  0.2042  0.3346  0.2419
  434SOL    HW1 1301   0.504   2.768   2.266 -0.1025  1.9859  0.6289
  434SOL    HW2 1302   0.392   2.655   2.327  0.6314 -2.4106 -1.9316
  435SOL     OW 1303   0.319   1.972   0.411 -0.3425 -0.5652  0.3692
  435SOL    HW1 1304   0.344   1.988   0.312  2.0838  1.4572 -0.9081
  435SOL    HW2 1305   0.219   1.969   0.427  0.2759  0.3802  1.6177
  436SOL     OW 1306   0.728   0.880   1.910  0.3312 -0.1561 -0.3307
  436SOL    HW1 1307   0.810   0.912   1.860  1.9602  0.7800 -0.5511
  436SOL    HW2 1308   0.653   0.848   1.844 -2.6707  0.1334 -0.9375
  437SOL     OW 1309   0.784   0.238   2.238  0.0577  0.2223  0.5058
  437SOL    HW1 1310   0.826   0.221   2.331  0.2564 -0.5971 -0.4202
  437SOL    HW2 1311   0.684   0.240   2.250 -0.3500 -0.2649  1.4016
  438SOL     OW 1312   0.574   1.895   1.663  0.0913 -0.5782 -0.1132
  438SOL    HW1 1313   0.542   1.990   1.651 -2.0371 -3.7911  0.1649
  438SOL    HW2 1314   0.525   1.856   1.742  2.7735  0.3859 -0.6294
  439SOL     OW 1315   1.719   0.905   0.081 -0.3051  0.3016  0.4118
  439SOL    HW1 1316   1.628   0.885   0.039 -0.2963  0.6663  1.5193
  439SOL    HW2 1317   1.745   1.001   0.079  2.9110  1.8803 -0.6822
  440SOL     OW 1318   0.733   0.573   0.591 -0.0727  0.2856  0.1744
  440SOL    HW1 1319   0.798   0.618   0.656  0.2372  0.3682  0.3523
  440SOL    HW2 1320   0.660   0.636   0.569  0.7162 -2.1239  0.2674
  441SOL     OW 1321   0.952   2.437   1.615 -0.0369 -0.3650  0.0331
  441SOL    HW1 1322   0.959   2.414   1.719  1.0007 -2.4188 -0.0498
  441SOL    HW2 1323   0.911   2.359   1.563 -1.1444  2.7679  1.5324
  442SOL     OW 1324   2.788   1.817   0.432 -0.4272 -0.6132  0.0987
  442SOL    HW1 1325   2.717   1.858   0.365 -2.1490 -1.5060 -2.7898
  442SOL    HW2 1326   2.798   1.881   0.513  1.3499  0.2975  3.6184
  443SOL     OW 1327   2.982   2.052   2.802  0.0378 -0.1394  0.0075
  443SOL    HW1 1328   2.906   1.984   2.785 -2.1709 -1.0746 -1.6686
  443SOL    HW2 1329   3.071   2.006   2.783  2.2018 -0.6472  0.1205
  444SOL     OW 1330   1.358   1.110   0.273 -0.0383 -0.5295 -0.2160
  444SOL    HW1 1331   1.377   1.014   0.243 -1.6638  3.6581 -0.3322
  444SOL    HW2 1332   1.317   1.112   0.362 -0.7500  2.6987 -3.4659
  445SOL     OW 1333   2.635   2.649   1.745 -0.3556  0.2579 -0.2314
  445SOL    HW1 1334   2.725   2.631   1.789  1.3017  3.7349  0.0061
  445SOL    HW2 1335   2.564   2.588   1.785  0.7841  0.9680 -0.9198
  446SOL     OW 1336   3.040   1.243   0.695 -0.0151  0.5438  0.6290
  446SOL    HW1 1337   3.046   1.146   0.667 -1.2519 -0.3402 -0.6534
  446SOL    HW2 1338   2.943   1.268   0.703 -1.0071 -0.8052 -0.8870
  447SOL     OW 1339   1.094   2.177   1.042 -0.4335  1.0267 -0.1050
  447SOL    HW1 1340   1.187   2.214   1.069  1.8434  2.5957 -0.8175
  447SOL    HW2 1341   1.033   2.153   1.121 -1.7723 -1.9464  1.4088
  448SOL     OW 1342   1.465   1.608   1.630 -0.4532  0.1263 -0.2196
  448SOL    HW1 1343   1.468   1.674   1.706  3.0684  0.8165  0.7882
  448SOL    HW2 1344   1.371   1.579   1.607 -0.5364  0.5434 -2.9323
  449SOL     OW 1345   3.080   2.289   2.426 -0.7218  0.3564 -0.3074
  449SOL    HW1 1346   3.011   2.286   2.504 -1.9263  1.0172  2.2618
  449SOL    HW2 1347   0.063   2.323   2.463  0.7901  1.4649  1.6053
  450SOL     OW 1348   3.016   1.852   2.013 -0.5674 -0.2065  0.2650
  450SOL    HW1 1349   3.026   1.942   2.059  0.3061 -4.2726 -0.4422
  450SOL    HW2 1350   2.924   1.843   1.973  1.3941 -0.8914  1.6449
  451SOL     OW 1351   2.256   0.700   1.391  0.5081  0.1319 -0.3045
  451SOL    HW1 1352   2.201   0.753   1.458 -1.0568 -0.2248 -0.4400
  451SOL    HW2 1353   2.357   0.705   1.410  0.8620 -0.3917  0.5333
  452SOL     OW 1354   0.844   1.280   0.915 -0.4613 -0.1804  0.1984
  452SOL    HW1 1355   0.773   1.253   0.848  0.0711  2.5591 -2.1269
  452SOL    HW2 1356   0.886   1.375   0.912  2.5487  2.5270  0.9201
  453SOL     OW 1357   1.370   2.194   0.589 -0.0770  0.4061  0.6486
  453SOL    HW1 1358   1.393   2.169   0.686 -0.3162  0.9563 -3.2653
  453SOL    HW2 1359   1.454   2.178   0.534  3.5528  0.2204 -0.0215
  454SOL     OW 1360   0.132   1.698   0.171  0.0980  0.3558  0.1473
  454SOL    HW1 1361   0.195   1.713   0.249 -0.6075 -2.5377 -3.2861
  454SOL    HW2 1362   0.175   1.716   0.082 -2.1840 -1.4143 -0.7785
  455SOL     OW 1363   1.034   1.078   0.347  0.5712  0.1144 -0.1856
  455SOL    HW1 1364   1.054   1.003   0.284  0.4629  1.1278  4.7493
  455SOL    HW2 1365   1.116   1.123   0.385  0.8703  0.4212 -1.0674
  456SOL     OW 1366   1.803   2.722   1.003 -0.3903 -0.5242  0.3997
  456SOL    HW1 1367   1.837   2.757   0.916  2.0395 -0.9589 -1.9204
  456SOL    HW2 1368   1.814   2.620   1.007  0.5313 -3.5501  0.1573
  457SOL     OW 1369   1.571   2.890   0.104 -0.1623 -0.5558 -0.3433
  457SOL    HW1 1370   1.570   2.982   0.061 -1.4035 -2.4705  0.3104
  457SOL    HW2 1371   1.473   2.860   0.113 -1.6979  3.0326  1.1719
  458SOL     OW 1372   2.342   0.644   0.400 -0.2739 -0.3131 -0.2589
  458SOL    HW1 1373   2.262   0.679   0.455  1.7612 -1.2837 -2.1760
  458SOL    HW2 1374   2.385   0.722   0.349  1.4014  0.5852  0.0664
  459SOL     OW 1375   2.405   0.401   2.332  0.2599 -0.1055 -0.1417
  459SOL    HW1 1376   2.324   0.452   2.372 -2.0123  0.0567  1.4127
  459SOL    HW2 1377   2.487   0.464   2.315  0.5340  2.1122  1.9848
  460SOL     OW 1378   2.700   0.632   2.750  0.2701 -0.3457  0.1307
  460SOL    HW1 1379   2.721   0.629   2.846 -2.5457 -0.1388 -1.5670
  460SOL    HW2 1380   2.605   0.679   2.735 -0.7572 -1.2720 -1.2606
  461SOL     OW 1381   3.095   2.322   0.659 -0.6737 -0.9008  0.1801
  461SOL    HW1 1382   3.096   2.263   0.744  1.0037  1.1063  2.0767
  461SOL    HW2 1383   0.048   2.285   0.588  0.4397 -1.7477 -0.9538
  462SOL     OW 1384   2.911   2.522   1.543 -0.5667  0.2345  0.1164
  462SOL    HW1 1385   2.900   2.566   1.638  0.2478  1.7292  2.6003
  462SOL    HW2 1386   2.967   2.580   1.483 -1.9111  0.5602 -2.2648
  463SOL     OW 1387   2.344   1.917   2.752  0.5617  0.7691 -0.4284
  463SOL    HW1 1388   2.446   1.925   2.766  1.1764  2.6555 -0.3159
  463SOL    HW2 1389   2.321   1.823   2.716 -1.0991  0.6994  0.0928
  464SOL     OW 1390   0.812   2.659   1.542  0.1334  0.1974  0.0921
  464SOL    HW1 1391   0.853   2.570   1.569  0.2778 -0.2697 -0.5741
  464SOL    HW2 1392   0.754   2.713   1.616  2.1858 -0.3929  1.9737
  465SOL     OW 1393   0.769   3.072   1.596  0.0829 -0.2449  0.5859
  465SOL    HW1 1394   0.737   0.034   1.528 -1.9538 -1.9482 -0.7519
  465SOL    HW2 1395   0.812   3.109   1.685  0.0785  1.0202  2.3424
  466SOL     OW 1396   1.572   2.635   2.012  0.0211  0.1463 -0.4421
  466SOL    HW1 1397   1.667   2.645   1.978 -1.0760  0.7478  1.2379
  466SOL    HW2 1398   1.528   2.723   2.001  1.2077 -0.1974  3.0450
  467SOL     OW 1399   0.991   2.045   1.280  0.2907 -0.3202  0.4229
  467SOL    HW1 1400   0.989   1.944   1.296 -0.5637 -2.1942  0.4385
  467SOL    HW2 1401   0.920   2.094   1.327  1.3695 -0.5091 -3.9949
  468SOL     OW 1402   2.914   1.927   2.296 -0.6948 -0.3943 -0.5763
  468SOL    HW1 1403   2.972   1.997   2.247 -0.6228  2.1083  0.6909
  468SOL    HW2 1404   2.955   1.833   2.295 -2.2654 -1.2278 -0.9079
  469SOL     OW 1405   0.814   1.918   0.517  0.0912 -0.3364 -0.3808
  469SOL    HW1 1406   0.852   1.959   0.604  0.7195 -0.1632 -0.0015
  469SOL    HW2 1407   0.768   1.828   0.538  0.5964 -1.2908  0.1642
  470SOL     OW 1408   2.183   1.348   1.687 -0.3448  0.0530 -0.4053
  470SOL    HW1 1409   2.123   1.423   1.654 -2.1230 -0.5412  1.8358
  470SOL    HW2 1410   2.275   1.376   1.707 -3.3840 -2.3199 -0.5611
  471SOL     OW 1411   0.653   2.503   0.097 -0.1807 -0.2788  0.3662
  471SOL    HW1 1412   0.623   2.504   0.198 -0.1319 -1.5266  3.3401
  471SOL    HW2 1413   0.665   2.404   0.073 -0.9330 -0.1430 -1.4004
  472SOL     OW 1414   3.061   2.388   2.030  0.4261  0.7021 -0.0557
  472SOL    HW1 1415   3.062   2.322   1.951  2.2170 -1.4990  0.1172
  472SOL    HW2 1416   3.099   2.479   2.001 -1.7797  3.3800  0.3111
  473SOL     OW 1417   0.882   2.730   0.345  0.6936 -0.2326 -0.1775
  473SOL    HW1 1418   0.897   2.630   0.375  0.7379 -2.7866 -0.6564
  473SOL    HW2 1419   0.866   2.727   0.244  1.1340  0.6443 -1.2918
  474SOL     OW 1420   2.603   2.514   0.891 -0.2456  0.5595 -0.0424
  474SOL    HW1 1421   2.572   2.501   0.985  0.1927  0.5633 -2.1973
  474SOL    HW2 1422   2.637   2.430   0.853  0.3986  3.7695 -0.9189
  475SOL     OW 1423   2.225   2.909   1.801  0.5118  0.4808  0.4640
  475SOL    HW1 1424   2.276   2.885   1.716 -0.7007 -1.2853  0.3036
  475SOL    HW2 1425   2.136   2.958   1.774 -2.4180  1.0170 -0.4783
  476SOL     OW 1426   0.654   1.150   0.543 -0.7788 -0.0878 -0.2107
  476SOL    HW1 1427   0.747   1.192   0.545  0.5983  1.3851 -0.5038
  476SOL    HW2 1428   0.635   1.096   0.625 -0.5482  0.1803 -2.1979
  477SOL     OW 1429   0.277   2.001   1.035  0.6969  0.0716  0.3756
  477SOL    HW1 1430   0.262   2.097   1.061 -0.8896  0.8152 -0.7772
  477SOL    HW2 1431   0.340   1.990   0.955 -3.2933  0.0894 -1.1008
  478SOL     OW 1432   0.191   2.614   2.362 -0.1308  0.1537 -0.4742
  478SOL    HW1 1433   0.088   2.637   2.369  0.0293 -0.6455  0.3477
  478SOL    HW2 1434   0.209   2.559   2.279  1.8266 -0.6544 -0.6630
  479SOL     OW 1435   0.285   0.168   1.406 -0.3196  0.6739 -0.0586
  479SOL    HW1 1436   0.365   0.234   1.410 -0.6513  0.2131 -0.5543
  479SOL    HW2 1437   0.198   0.207   1.361 -1.8029  1.4141  0.0315
  480SOL     OW 1438   2.888   2.496   3.083  0.2896  0.3309  0.0244
  480SOL    HW1 1439   2.947   2.416   3.054 -1.2689  3.1157 -1.3567
  480SOL    HW2 1440   2.790   2.469   3.103  2.0511 -0.8376 -0.1776
  481SOL     OW 1441   2.305   1.985   1.734  0.2311  0.3810  0.0452
  481SOL    HW1 1442   2.237   1.954   1.803 -1.1365  0.3720  0.5559
  481SOL    HW2 1443   2.270   1.981   1.639 -3.2036  0.2743 -0.5945
  482SOL     OW 1444   1.699   2.182   2.657  0.5050  0.5268 -0.9459
  482SOL    HW1 1445   1.660   2.122   2.588  2.0443  1.1162  0.0949
  482SOL    HW2 1446   1.763   2.246   2.614 -3.1338  0.4311  3.9798
  483SOL     OW 1447   0.666   1.746   2.306  0.3633 -0.3079  0.7739
  483SOL    HW1 1448   0.760   1.708   2.325 -0.1837  0.6048 -2.0499
  483SOL    HW2 1449   0.679   1.831   2.243  1.7934  2.8262 -1.2395
  484SOL     OW 1450   0.035   0.240   1.341 -0.3000 -0.2278 -0.3211
  484SOL    HW1 1451   3.110   0.231   1.244  0.2397  1.0246  0.1916
  484SOL    HW2 1452   3.078   0.293   1.399 -3.7240 -2.4786  3.1121
  485SOL     OW 1453   2.112   1.054   0.658  0.4951 -0.1226  0.1012
  485SOL    HW1 1454   2.094   1.130   0.585  0.1772 -0.0412 -1.1915
  485SOL    HW2 1455   2.052   1.077   0.741 -1.2255  0.5502 -0.2721
  486SOL     OW 1456   1.396   0.100   2.188  0.1606 -0.5119 -0.4206
  486SOL    HW1 1457   1.416   0.114   2.091  1.2165  0.2659 -1.2496
  486SOL    HW2 1458   1.460   0.153   2.245 -1.6977 -1.3803 -2.0295
  487SOL     OW 1459   0.992   1.773   1.342  0.0536 -0.0982 -0.4080
  487SOL    HW1 1460   0.932   1.746   1.420  0.3371  0.4128 -1.1430
  487SOL    HW2 1461   1.074   1.709   1.329  0.4158  1.0540  1.5355
  488SOL     OW 1462   2.282   1.389   2.939  0.0688  0.1468  0.4614
  488SOL    HW1 1463   2.348   1.415   2.862  2.9227  0.6452 -2.4350
  488SOL    HW2 1464   2.327   1.405   3.028  1.3148 -0.1124 -1.3628
  489SOL     OW 1465   2.250   0.047   0.361  0.0858  0.0477 -0.3954
  489SOL    HW1 1466   2.269   0.045   0.464 -1.8596  1.8538 -0.2779
  489SOL    HW2 1467   2.223   0.140   0.345  0.4062 -2.3512  1.4488
  490SOL     OW 1468   1.369   2.426   0.159  0.2924 -0.2016 -0.1239
  490SOL    HW1 1469   1.432   2.356   0.119  1.6798  3.6739  0.9278
  490SOL    HW2 1470   1.402   2.472   0.246  1.4942  1.4769 -2.1185
  491SOL     OW 1471   1.054   1.166   1.015 -0.0782 -0.2992  0.5417
  491SOL    HW1 1472   1.066   1.083   0.960 -2.3955  0.2077 -1.6276
  491SOL    HW2 1473   0.972   1.215   0.983  0.3226 -0.6349 -2.2173
  492SOL     OW 1474   1.217   0.154   2.707  0.0287  0.4930  0.3049
  492SOL    HW1 1475   1.315   0.165   2.677 -0.2579  1.2062  0.2227
  492SOL    HW2 1476   1.206   0.193   2.799 -0.4434  2.1865  1.3715
  493SOL     OW 1477   1.940   1.858   0.165 -0.0316  0.5354  0.0326
  493SOL    HW1 1478   1.979   1.916   0.240  1.1127 -2.0353 -1.9145
  493SOL    HW2 1479   2.011   1.840   0.094  1.7615  0.2764  0.3727
  494SOL     OW 1480   0.449   1.402   0.320  0.8632 -0.1864 -0.0009
  494SOL    HW1 1481   0.402   1.491   0.314 -0.0146 -0.6882  0.8668
  494SOL    HW2 1482   0.545   1.417   0.356  1.9586 -2.4485 -0.4937
  495SOL     OW 1483   2.972   2.749   0.719  0.0405  0.3635 -0.4740
  495SOL    HW1 1484   3.031   2.674   0.753  0.4950  0.0192 -1.4863
  495SOL    HW2 1485   2.923   2.723   0.636  0.8362  0.5543  4.4674
  496SOL     OW 1486   2.758   3.091   1.686  0.4861 -0.9180 -0.0730
  496SOL    HW1 1487   2.711   3.099   1.596  0.9862  1.4401 -2.0504
  496SOL    HW2 1488   2.738   0.070   1.729 -0.0387  1.7563 -0.9463
  497SOL     OW 1489   2.171   1.299   2.465  0.4276  0.5555  0.3083
  497SOL    HW1 1490   2.218   1.309   2.551 -0.8419 -2.8163 -0.2049
  497SOL    HW2 1491   2.076   1.338   2.471 -2.8452 -0.0584  1.8974
  498SOL     OW 1492   0.738   2.035   0.957 -0.1504 -0.0603  0.0622
  498SOL    HW1 1493   0.739   2.128   0.999  0.1866  0.8213  0.5943
  498SOL    HW2 1494   0.766   1.959   1.017 -1.7692  1.4941 -1.8681
  499SOL     OW 1495   0.845   2.190   1.438  0.0043  0.1002  0.1443
  499SOL    HW1 1496   0.826   2.158   1.534  0.9770  0.1271  1.3652
  499SOL    HW2 1497   0.762   2.192   1.381  0.8555  0.3573  1.0743
  500SOL     OW 1498   0.942   1.956   0.080 -0.6098  0.0234  0.3742
  500SOL    HW1 1499   0.964   1.884   0.145 -1.1083  1.8907 -2.6638
  500SOL    HW2 1500   0.886   2.031   0.117 -0.8536 -0.9887 -0.2983
  501SOL     OW 1501   2.619   2.852   1.224  0.0378  0.9548 -0.4282
  501SOL    HW1 1502   2.535   2.878   1.179 -1.8089 -1.7358  0.2768
  501SOL    HW2 1503   2.704   2.868   1.170  2.2758 -0.2944  2.9602
  502SOL     OW 1504   0.023   0.474   1.799  0.7497 -0.1699 -0.1902
  502SOL    HW1 1505   0.097   0.422   1.748  1.2929 -2.9377  0.2296
  502SOL    HW2 1506   3.042   0.446   1.773  1.8459  1.9719 -0.7791
  503SOL     OW 1507   2.226   0.908   1.974 -0.4095  0.2813  0.3081
  503SOL    HW1 1508   2.326   0.897   1.949  0.0384 -0.6307  0.5213
  503SOL    HW2 1509   2.188   0.996   1.944  1.2395  0.6544  0.5119
  504SOL     OW 1510   1.246   0.706   1.758 -0.4331 -0.6223 -0.7050
  504SOL    HW1 1511   1.303   0.627   1.731  1.6051 -1.4850 -1.2987
  504SOL    HW2 1512   1.283   0.745   1.847  1.9248  0.9950  2.3112
  505SOL     OW 1513   0.862   2.991   2.374  0.2776  0.5311 -0.5000
  505SOL    HW1 1514   0.903   2.896   2.365  1.1448 -1.3117 -0.1080
  505SOL    HW2 1515   0.873   3.043   2.287 -0.0708 -1.6588 -1.2752
  506SOL     OW 1516   0.190   0.542   0.831 -0.5849  0.0578 -0.4814
  506SOL    HW1 1517   0.209   0.502   0.736 -1.7713 -0.6404 -2.2369
  506SOL    HW2 1518   0.204   0.479   0.909  1.9593  0.0111  0.7969
  507SOL     OW 1519   1.547   0.200   2.917 -0.5882 -0.3158 -0.6302
  507SOL    HW1 1520   1.605   0.278   2.948  0.9573 -1.8940 -0.5046
  507SOL    HW2 1521   1.536   0.133   2.997  2.0396  1.2660  2.6350
  508SOL     OW 1522   1.590   0.270   2.297 -0.4389 -0.5914  0.1087
  508SOL    HW1 1523   1.560   0.370   2.297  1.3842  0.4964  0.7347
  508SOL    HW2 1524   1.612   0.241   2.394 -1.3238  0.8497 -0.2047
  509SOL     OW 1525   0.730   1.345   2.333  0.3586 -0.6333  0.2996
  509SOL    HW1 1526   0.810   1.383   2.286  1.1840 -2.6982  1.2535
  509SOL    HW2 1527   0.731   1.244   2.341 -0.9817  0.1748 -1.5060
  510SOL     OW 1528   3.014   0.958   0.639  0.2417 -0.0010 -0.4049
  510SOL    HW1 1529   2.968   0.931   0.724  0.5458 -1.3792 -0.0771
  510SOL    HW2 1530   3.111   0.935   0.657 -1.8467  0.0151 -0.4376
  511SOL     OW 1531   1.815   2.022   1.066  0.0259  0.3587 -0.3534
  511SOL    HW1 1532   1.772   2.101   1.118  1.9990  1.4909 -0.9209
  511SOL    HW2 1533   1.918   2.032   1.073  6.0276  1.0438  0.7259
  512SOL     OW 1534   0.080   1.696   0.582 -0.4482  0.2193 -0.0160
  512SOL    HW1 1535   0.073   1.699   0.686  2.3860 -0.5758  2.2904
  512SOL    HW2 1536   0.109   1.608   0.546 -1.9312  1.0685 -0.6157
  513SOL     OW 1537   0.240   2.250   0.527 -0.2799  0.0084  0.6417
  513SOL    HW1 1538   0.273   2.158   0.494  0.2543 -1.0235 -0.2010
  513SOL    HW2 1539   0.240   2.320   0.451  1.1266 -2.3294 -0.7203
  514SOL     OW 1540   2.704   1.963   2.486 -0.2013  0.2987 -0.1576
  514SOL    HW1 1541   2.694   2.054   2.535 -2.2720  0.1574  4.3261
  514SOL    HW2 1542   2.789   1.953   2.426  3.1954 -1.3587  0.0750
  515SOL     OW 1543   2.141   1.200   0.402 -0.1645  0.1981  0.2181
  515SOL    HW1 1544   2.140   1.110   0.357  1.0654 -0.8048  0.5665
  515SOL    HW2 1545   2.239   1.221   0.407 -1.1641  0.8304 -1.4592
  516SOL     OW 1546   1.916   3.077   0.627 -0.3018  0.1950 -0.1442
  516SOL    HW1 1547   1.871   0.056   0.619 -0.1818 -0.4367 -0.0534
  516SOL    HW2 1548   2.012   3.076   0.589  0.4381  0.5942  0.4912
  517SOL     OW 1549   1.128   2.235   2.993 -0.1072 -0.2735 -0.3483
  517SOL    HW1 1550   1.086   2.300   3.068 -2.0628  2.4619  1.6332
  517SOL    HW2 1551   1.058   2.162   2.985 -0.1396 -1.2471 -0.3827
  518SOL     OW 1552   0.717   0.534   1.944  0.1477 -0.3350  0.1030
  518SOL    HW1 1553   0.795   0.476   1.976 -2.7434  2.0093 -2.0130
  518SOL    HW2 1554   0.688   0.609   2.010  0.3843  2.6900  1.4811
  519SOL     OW 1555   2.865   1.358   0.236  0.3675 -0.1939  0.6075
  519SOL    HW1 1556   2.961   1.395   0.231  0.9371  0.1899 -0.1303
  519SOL    HW2 1557   2.866   1.259   0.261  0.4469  2.2130  0.9341
  520SOL     OW 1558   2.569   1.945   1.640  0.0056  0.4676 -0.4946
  520SOL    HW1 1559   2.478   1.968   1.681 -1.3931 -0.0124 -0.1790
  520SOL    HW2 1560   2.643   1.980   1.698  1.8289  1.4031 -0.8650
  521SOL     OW 1561   0.956   2.718   2.384 -0.0175  0.4222  0.0672
  521SOL    HW1 1562   1.035   2.684   2.436 -0.0295  1.2601 -2.3007
  521SOL    HW2 1563   0.875   2.656   2.394 -0.7404  0.8560 -0.3657
  522SOL     OW 1564   1.841   0.265   2.199  0.1448  0.3648  0.2629
  522SOL    HW1 1565   1.899   0.211   2.262 -0.2101  1.7984 -2.5078
  522SOL    HW2 1566   1.742   0.259   2.228 -0.5708 -0.8549  0.2591
  523SOL     OW 1567   1.629   1.805   1.096  0.4878  0.6219 -0.1239
  523SOL    HW1 1568   1.696   1.880   1.080 -1.5945  0.3538 -1.0029
  523SOL    HW2 1569   1.626   1.773   1.192  1.2736  0.3587 -3.2279
  524SOL     OW 1570   0.972   2.484   0.415 -0.1413 -0.4732 -0.6406
  524SOL    HW1 1571   1.025   2.415   0.358 -0.0125 -2.6809  0.2806
  524SOL    HW2 1572   1.035   2.508   0.498  0.1560  0.7226  4.1435
  525SOL     OW 1573   2.965   0.425   0.288 -0.4683  0.1866 -0.1335
  525SOL    HW1 1574   2.891   0.405   0.231  0.9415 -0.9945  0.5061
  525SOL    HW2 1575   3.053   0.405   0.238 -0.8552 -0.4277 -0.5642
  526SOL     OW 1576   0.913   2.987   0.456  0.3464  0.1756 -0.3668
  526SOL    HW1 1577   0.828   3.037   0.472  1.5835  0.3742  0.5254
  526SOL    HW2 1578   0.893   2.895   0.410 -2.5292 -4.7616 -0.3827
  527SOL     OW 1579   2.523   2.006   0.639 -0.0799  0.1647  0.4072
  527SOL    HW1 1580   2.623   1.981   0.650  2.7311 -1.2131 -0.3964
  527SOL    HW2 1581   2.492   2.065   0.720 -2.5242  0.4818 -0.3673
  528SOL     OW 1582   2.917   0.540   2.302  0.3175  0.2581 -0.0628
  528SOL    HW1 1583   2.951   0.465   2.363  3.4167 -2.0814  3.7756
  528SOL    HW2 1584   2.969   0.543   2.211  1.5663  0.1404 -2.5177
  529SOL     OW 1585   1.105   1.765   2.438 -0.1594 -0.2449 -0.3647
  529SOL    HW1 1586   1.203   1.743   2.424 -0.8059  0.6368 -3.5263
  529SOL    HW2 1587   1.099   1.864   2.458  1.3397  0.3978 -1.1986
  530SOL     OW 1588   1.760   1.161   2.271 -0.2925 -0.5559 -0.9747
  530SOL    HW1 1589   1.662   1.157   2.245  0.3466 -0.5555  1.2065
  530SOL    HW2 1590   1.816   1.200   2.193 -1.8266 -0.5034 -0.7639
  531SOL     OW 1591   0.681   1.902   2.552 -0.0439 -0.2783 -0.0246
  531SOL    HW1 1592   0.684   1.852   2.461 -0.7998 -3.3944 -1.2795
  531SOL    HW2 1593   0.591   1.942   2.577  0.1605 -0.8737 -1.4154
  532SOL     OW 1594   1.977   1.451   0.465 -0.4661  0.3493  0.4665
  532SOL    HW1 1595   2.042   1.383   0.442 -1.8072  3.1408  0.1712
  532SOL    HW2 1596   2.011   1.537   0.430 -0.8840 -1.7829 -1.1976
  533SOL     OW 1597   0.256   0.071   1.895 -0.1951  0.1309  0.3788
  533SOL    HW1 1598   0.343   0.125   1.905  3.1820 -0.1795 -1.3472
  533SOL    HW2 1599   0.262   3.098   1.837 -0.9845 -1.8155 -3.2813
  534SOL     OW 1600   0.752   3.090   3.011  0.3226  0.5866  0.0634
  534SOL    HW1 1601   0.657   0.005   2.982 -1.8601 -0.8778 -0.4560
  534SOL    HW2 1602   0.794   0.054   3.069 -0.8035  1.9300  3.9926
  535SOL     OW 1603   0.270   0.346   0.371  0.1981 -0.2808 -0.2452
  535SOL    HW1 1604   0.338   0.425   0.383  2.4237  1.6032 -3.7939
  535SOL    HW2 1605   0.317   0.259   0.392 -2.5046  2.9399  1.6620
  536SOL     OW 1606   0.286   1.318   1.451 -0.0834 -0.2034  0.2345
  536SOL    HW1 1607   0.312   1.270   1.364 -1.5157 -0.7819 -0.8687
  536SOL    HW2 1608   0.372   1.363   1.486 -0.6822  0.3200 -0.4237
  537SOL     OW 1609   1.310   2.709   1.749 -0.2064  0.2802 -0.0406
  537SOL    HW1 1610   1.263   2.713   1.839  0.3220 -1.4012  1.1195
  537SOL    HW2 1611   1.317   2.616   1.709 -0.0375 -0.8349 -0.4279
  538SOL     OW 1612   0.060   1.929   0.441 -0.7889  0.1009 -0.1051
  538SOL    HW1 1613   0.044   1.846   0.494  2.6694  1.7186 -1.9347
  538SOL    HW2 1614   3.096   1.995   0.465 -1.1015 -0.2573  1.4172
  539SOL     OW 1615   2.680   1.197   2.526 -0.4234 -0.2213 -0.4369
  539SOL    HW1 1616   2.724   1.174   2.615  0.7057  2.4330 -0.2097
  539SOL    HW2 1617   2.694   1.120   2.458  0.7426 -3.0922  0.9149
  540SOL     OW 1618   1.777   0.986   1.940  0.1719  0.0818  0.1185
  540SOL    HW1 1619   1.838   0.909   1.957 -3.1615 -0.4586 -1.4432
  540SOL    HW2 1620   1.811   1.082   1.957 -2.1088  1.0834  0.1031
  541SOL     OW 1621   0.717   0.751   2.146  0.1599  0.1416 -0.1483
  541SOL    HW1 1622   0.622   0.773   2.177  0.3676  1.0342  2.6357
  541SOL    HW2 1623   0.749   0.816   2.072  2.6810  0.8397 -1.0592
  542SOL     OW 1624   1.958   0.288   2.909  0.4904 -0.6387 -0.1746
  542SOL    HW1 1625   1.936   0.385   2.878 -0.6913 -1.0242 -0.6370
  542SOL    HW2 1626   2.037   0.241   2.864  0.7464  0.8889  0.5737
  543SOL     OW 1627   1.320   2.762   0.106  0.8721  0.5450 -0.4764
  543SOL    HW1 1628   1.321   2.702   0.025  1.0892  1.1454  0.3006
  543SOL    HW2 1629   1.256   2.840   0.090  2.3787 -2.1462 -0.4437
  544SOL     OW 1630   2.816   1.350   1.875 -0.2895 -0.1436  0.5563
  544SOL    HW1 1631   2.825   1.372   1.974 -0.6137 -0.2713  0.9411
  544SOL    HW2 1632   2.787   1.255   1.858 -1.2793  2.9229 -0.1929
  545SOL     OW 1633   1.861   2.451   1.782  0.1229  0.4467  0.0247
  545SOL    HW1 1634   1.872   2.364   1.729  1.5965  1.5659  2.5177
  545SOL    HW2 1635   1.952   2.498   1.783 -1.9884 -1.4126  0.0722
  546SOL     OW 1636   0.248   0.130   2.688 -0.3116 -0.1891  0.8457
  546SOL    HW1 1637   0.261   0.056   2.623  1.2590  1.6898  1.3614
  546SOL    HW2 1638   0.331   0.171   2.723  0.1058 -1.4695 -1.8331
  547SOL     OW 1639   1.750   1.061   0.936  0.0178 -0.4968 -0.3368
  547SOL    HW1 1640   1.716   1.061   0.836  0.5651 -0.8452 -0.9903
  547SOL    HW2 1641   1.723   1.154   0.971 -0.7929 -0.6669  0.2317
  548SOL     OW 1642   1.927   1.821   2.303 -0.1770  0.2555  0.7617
  548SOL    HW1 1643   1.982   1.828   2.389  0.9364 -1.6869  0.8211
  548SOL    HW2 1644   1.960   1.879   2.225 -0.3831  1.1389  0.6579
  549SOL     OW 1645   2.076   0.438   0.547 -0.1719  0.0455  0.4522
  549SOL    HW1 1646   1.987   0.415   0.592  0.5732 -0.8242 -1.7431
  549SOL    HW2 1647   2.140   0.481   0.612 -1.6159 -1.5697  1.2889
  550SOL     OW 1648   2.427   1.771   0.537  0.5397  0.5100  0.6478
  550SOL    HW1 1649   2.468   1.858   0.573 -1.1856  0.8843  0.8572
  550SOL    HW2 1650   2.346   1.748   0.598 -2.7073  0.2323  0.7616
  551SOL     OW 1651   1.284   2.636   2.256  0.3073 -0.1433  0.1163
  551SOL    HW1 1652   1.317   2.730   2.263 -0.2097 -0.2784 -1.3198
  551SOL    HW2 1653   1.229   2.607   2.337 -0.0653  3.4149 -0.3542
  552SOL     OW 1654   0.013   2.459   2.720  0.2219  0.0622 -0.6218
  552SOL    HW1 1655   3.053   2.390   2.721 -1.0414  0.9619 -0.1885
  552SOL    HW2 1656   0.079   2.419   2.653  3.3814  1.5316 -1.1450
  553SOL     OW 1657   0.234   0.297   1.000 -0.5888 -0.1688 -0.8440
  553SOL    HW1 1658   0.260   0.243   0.920 -0.1619 -1.0083 -2.7469
  553SOL    HW2 1659   0.140   0.281   1.036 -1.6589 -0.1424  1.5009
  554SOL     OW 1660   2.365   2.220   1.830  0.5385 -0.4162 -0.3084
  554SOL    HW1 1661   2.333   2.133   1.788  0.5341 -2.2455 -1.7187
  554SOL    HW2 1662   2.315   2.237   1.919  1.1074 -1.3888  0.6191
  555SOL     OW 1663   1.465   2.340   1.857  0.4552 -0.5832 -0.3501
  555SOL    HW1 1664   1.403   2.406   1.810 -0.6454  0.8936 -0.8053
  555SOL    HW2 1665   1.500   2.378   1.948  0.0546  2.4655 -1.1226
  556SOL     OW 1666   1.330   1.831   1.463  0.4353 -0.0911 -0.9257
  556SOL    HW1 1667   1.375   1.881   1.533  0.6097 -1.6582 -3.0679
  556SOL    HW2 1668   1.268   1.765   1.508  0.0492 -0.0120  1.0738
  557SOL     OW 1669   1.864   2.367   2.511  0.4137  0.7697 -0.2126
  557SOL    HW1 1670   1.964   2.346   2.504 -1.6461 -1.7855 -0.9324
  557SOL    HW2 1671   1.830   2.461   2.479 -0.2315  3.3223 -1.1383
  558SOL     OW 1672   0.217   2.777   1.954  0.0218 -0.1612 -0.4100
  558SOL    HW1 1673   0.209   2.841   1.872 -0.4315  0.3206 -0.3641
  558SOL    HW2 1674   0.135   2.768   2.010 -0.2086  0.7361 -2.4781
  559SOL     OW 1675   2.184   2.789   0.949 -0.1815  0.2783 -0.0898
  559SOL    HW1 1676   2.197   2.756   0.852 -0.1720 -2.2738 -1.9613
  559SOL    HW2 1677   2.176   2.893   0.940  2.0858  0.8496 -0.7111
  560SOL     OW 1678   1.771   2.442   0.514  0.3541 -0.3477  0.4360
  560SOL    HW1 1679   1.720   2.500   0.582 -0.1683  2.5182  1.7462
  560SOL    HW2 1680   1.816   2.365   0.562 -1.7172 -1.4674  2.0126
  561SOL     OW 1681   1.181   0.086   0.729  0.2062  0.1000 -0.6833
  561SOL    HW1 1682   1.120   0.152   0.683  2.5731 -1.7308  0.7015
  561SOL    HW2 1683   1.147   3.102   0.724 -1.0987  2.9399 -0.3645
  562SOL     OW 1684   0.719   0.815   2.497 -0.3540 -0.3363  0.6374
  562SOL    HW1 1685   0.673   0.756   2.424 -0.8304 -1.5944 -1.7728
  562SOL    HW2 1686   0.656   0.820   2.575  2.4871  0.2773 -0.0894
  563SOL     OW 1687   1.731   1.534   2.779  0.5929  0.7263  0.2436
  563SOL    HW1 1688   1.649   1.586   2.822 -1.3075 -1.0019 -0.6942
  563SOL    HW2 1689   1.820   1.580   2.793  0.9459 -0.6637 -1.9421
  564SOL     OW 1690   2.528   0.710   1.399 -0.0636  0.6988 -0.4210
  564SOL    HW1 1691   2.571   0.621   1.365 -1.4693  0.3107 -0.1777
  564SOL    HW2 1692   2.554   0.793   1.353  0.3548 -0.4513  0.0615
  565SOL     OW 1693   1.153   0.540   0.001 -0.3310  0.7450 -0.2422
  565SOL    HW1 1694   1.197   0.622   3.071  1.3334  1.6506  1.9835
  565SOL    HW2 1695   1.084   0.559   0.069  2.3627  2.6210  0.2707
  566SOL     OW 1696   1.897   0.505   2.548 -0.2144  0.6942 -0.5951
  566SOL    HW1 1697   1.909   0.464   2.457 -0.3368  1.6121 -0.8232
  566SOL    HW2 1698   1.981   0.550   2.579 -0.0923 -0.5088 -1.0952
  567SOL     OW 1699   2.161   1.622   0.357 -0.4395  0.1810 -0.0133
  567SOL    HW1 1700   2.253   1.655   0.344 -1.7397 -0.3749 -0.6369
  567SOL    HW2 1701   2.132   1.570   0.275 -0.1150  1.8498 -0.4248
  568SOL     OW 1702   1.876   1.600   0.157  0.0868 -0.1118 -0.2824
  568SOL    HW1 1703   1.925   1.566   0.076 -0.3485  3.4459 -2.2683
  568SOL    HW2 1704   1.882   1.701   0.162 -1.5522  0.5642  0.9054
  569SOL     OW 1705   1.909   1.170   0.146 -0.3629  0.3612  0.2868
  569SOL    HW1 1706   1.876   1.209   0.060 -1.0993 -0.9902  0.4744
  569SOL    HW2 1707   1.991   1.112   0.128  0.6737  0.5912  1.6357
  570SOL     OW 1708   0.481   2.648   1.881 -0.5776 -0.2680  0.0921
  570SOL    HW1 1709   0.396   2.701   1.889  1.4309 -1.0686 -0.1477
  570SOL    HW2 1710   0.551   2.699   1.826  1.8964  0.1768  0.8667
  571SOL     OW 1711   0.330   1.082   1.953 -0.5000 -0.3980 -0.7386
  571SOL    HW1 1712   0.402   1.153   1.933  1.9076 -0.7305 -0.2557
  571SOL    HW2 1713   0.319   1.076   2.055 -0.7724  0.0779  0.4428
  572SOL     OW 1714   0.982   1.524   0.552 -0.1243  0.0506  0.8130
  572SOL    HW1 1715   0.993   1.599   0.621 -2.0497 -2.1950  0.2068
  572SOL    HW2 1716   1.054   1.520   0.480 -1.5366  1.3763  1.1059
  573SOL     OW 1717   1.744   1.946   3.100  0.0940 -0.2266  0.0979
  573SOL    HW1 1718   1.653   1.966   0.031  1.2226 -0.4930  1.7139
  573SOL    HW2 1719   1.801   1.909   0.063 -2.1195 -0.4315  0.6308
  574SOL     OW 1720   0.999   0.179   1.130  0.4804 -0.1320  0.6858
  574SOL    HW1 1721   0.998   0.173   1.227  0.4348 -0.1748 -3.2048
  574SOL    HW2 1722   0.931   0.119   1.089 -1.7561  2.1425 -0.4654
  575SOL     OW 1723   0.194   1.022   1.371  0.2242  0.2689  0.5227
  575SOL    HW1 1724   0.217   0.958   1.450 -0.3741  0.3146 -0.0378
  575SOL    HW2 1725   0.276   1.059   1.322 -0.5314  2.0306 -1.1764
  576SOL     OW 1726   2.374   2.891   1.130  0.3077 -0.0876  0.8257
  576SOL    HW1 1727   2.315   2.908   1.211 -3.6702  1.0441  3.5679
  576SOL    HW2 1728   2.317   2.847   1.055 -4.0236  2.3926 -0.4015
  577SOL     OW 1729   0.995   1.055   2.261 -0.7762 -0.1836 -0.4360
  577SOL    HW1 1730   1.034   1.102   2.183  1.1082 -0.9701  0.8044
  577SOL    HW2 1731   1.056   0.980   2.286 -2.7629  1.2773  1.8312
  578SOL     OW 1732   1.949   0.928   2.564  0.2512 -0.2572  0.0036
  578SOL    HW1 1733   1.904   0.895   2.474 -1.0390 -0.6859  0.6137
  578SOL    HW2 1734   1.883   0.918   2.641 -1.2936  0.4547  0.4247
  579SOL     OW 1735   2.168   2.340   1.674  0.0973  0.1117  0.2628
  579SOL    HW1 1736   2.208   2.270   1.742  2.3601 -1.1495  0.7843
  579SOL    HW2 1737   2.096   2.300   1.614 -1.4191 -0.3923  2.7066
  580SOL     OW 1738   1.729   1.652   2.264  0.5665 -0.5999  0.1163
  580SOL    HW1 1739   1.791   1.727   2.294 -0.9456  0.3134 -1.8266
  580SOL    HW2 1740   1.694   1.604   2.341  1.7396  0.6656 -3.1115
  581SOL     OW 1741   1.391   1.380   2.374 -0.3182  0.3140  0.0713
  581SOL    HW1 1742   1.454   1.460   2.363  0.3625 -1.2397  0.5240
  581SOL    HW2 1743   1.378   1.348   2.471  0.1954 -0.9393  2.6877
  582SOL     OW 1744   0.960   1.575   1.869 -1.3964 -0.7983 -0.7034
  582SOL    HW1 1745   0.936   1.535   1.782 -1.4169  2.1456 -1.9911
  582SOL    HW2 1746   1.060   1.563   1.884 -0.5793 -0.1880 -0.9021
  583SOL     OW 1747   1.442   0.934   1.707  0.3414  0.2306 -0.5585
  583SOL    HW1 1748   1.371   0.885   1.651 -3.0665 -1.0305 -2.8899
  583SOL    HW2 1749   1.444   1.035   1.684 -0.4768  1.6835  4.6353
  584SOL     OW 1750   1.960   2.658   0.565 -0.5161 -0.2736 -0.3773
  584SOL    HW1 1751   1.914   2.572   0.534  2.2107 -0.3847 -0.0521
  584SOL    HW2 1752   1.921   2.738   0.517  0.2544 -4.2517  0.8392
  585SOL     OW 1753   1.825   2.918   2.734  0.6557  0.1177  0.1155
  585SOL    HW1 1754   1.831   2.815   2.728 -0.2618 -0.4744  0.6059
  585SOL    HW2 1755   1.855   2.949   2.826 -1.9439 -1.6785  0.6902
  586SOL     OW 1756   2.728   2.133   1.021  1.0996  0.4811 -0.0667
  586SOL    HW1 1757   2.701   2.187   1.104 -1.6051  1.3809  1.9677
  586SOL    HW2 1758   2.741   2.194   0.938  1.1866  1.4925 -1.6487
  587SOL     OW 1759   1.373   1.847   3.031  0.2425 -0.0627  0.6557
  587SOL    HW1 1760   1.372   1.947   3.068  1.0103  3.7202  1.3976
  587SOL    HW2 1761   1.281   1.799   3.048 -6.3919 -0.1186 -1.4433
  588SOL     OW 1762   0.454   0.391   1.144 -0.0370  0.1502  0.4543
  588SOL    HW1 1763   0.545   0.388   1.093  4.2223 -1.5711  0.5044
  588SOL    HW2 1764   0.377   0.346   1.095  1.0119 -1.7373  0.3920
  589SOL     OW 1765   1.047   0.258   0.537  0.0042  0.1724 -0.0592
  589SOL    HW1 1766   1.024   0.341   0.480 -1.0166  1.3015  2.7500
  589SOL    HW2 1767   1.079   0.180   0.481  0.2362 -0.8662  1.4689
  590SOL     OW 1768   1.244   0.786   2.969  0.1562  0.1392 -0.3454
  590SOL    HW1 1769   1.219   0.780   2.869 -0.6216  2.4366 -0.4683
  590SOL    HW2 1770   1.217   0.873   3.017 -1.5320  0.5548 -2.3130
  591SOL     OW 1771   2.646   2.172   2.143 -0.2253  0.3348 -0.6442
  591SOL    HW1 1772   2.668   2.223   2.058 -0.7060  0.7522  1.8022
  591SOL    HW2 1773   2.694   2.213   2.224 -0.7709  0.6947  1.8049
  592SOL     OW 1774   2.473   1.267   1.878  0.2899  0.6607 -0.5624
  592SOL    HW1 1775   2.465   1.318   1.791 -3.3690 -2.2570  2.0308
  592SOL    HW2 1776   2.494   1.334   1.958  2.5776  1.6253  0.0025
  593SOL     OW 1777   1.105   0.964   1.487 -0.8382  0.0469  0.1132
  593SOL    HW1 1778   1.111   1.067   1.498 -0.2853  1.8441 -0.1138
  593SOL    HW2 1779   1.196   0.918   1.462 -0.2031 -0.6282  2.2880
  594SOL     OW 1780   2.475   1.481   2.774 -0.0198 -0.2076  0.2306
  594SOL    HW1 1781   2.527   1.545   2.835  1.9171  0.8133  0.5623
  594SOL    HW2 1782   2.536   1.460   2.697 -0.0008 -0.0118  0.7753
  595SOL     OW 1783   0.471   0.417   0.656  1.4458 -0.0561 -0.0204
  595SOL    HW1 1784   0.426   0.330   0.682 -3.0988  0.1456  1.5092
  595SOL    HW2 1785   0.566   0.429   0.689 -0.4725  0.6079  3.0302
  596SOL     OW 1786   2.981   1.383   1.029  0.3635 -0.3382  0.6717
  596SOL    HW1 1787   3.007   1.286   1.036  1.1314  0.7178 -2.1576
  596SOL    HW2 1788   3.037   1.437   0.966 -2.4738 -1.8943  1.4344
  597SOL     OW 1789   1.437   1.886   0.694  0.3604  0.1396  0.5782
  597SOL    HW1 1790   1.396   1.960   0.745  0.8187 -1.1653  0.3062
  597SOL    HW2 1791   1.420   1.888   0.592 -0.6588 -1.0092 -1.5847
  598SOL     OW 1792   0.417   2.846   1.609 -0.3008  0.3676  0.0824
  598SOL    HW1 1793   0.512   2.866   1.640 -0.3272 -0.3489 -1.8470
  598SOL    HW2 1794   0.414   2.790   1.520  2.4089 -0.2379 -0.9265
  599SOL     OW 1795   3.026   1.729   2.584 -0.3042  0.1521  0.4174
  599SOL    HW1 1796   2.949   1.677   2.626 -1.9132  2.5243 -1.1382
  599SOL    HW2 1797   3.094   1.767   2.650  0.3738 -0.8231  1.5270
  600SOL     OW 1798   0.254   0.910   2.993 -0.5599 -0.1085  0.0919
  600SOL    HW1 1799   0.317   0.829   3.001  0.8224  2.0991  0.8011
  600SOL    HW2 1800   0.288   0.975   2.920  1.2705 -0.1083 -2.1306
  601SOL     OW 1801   0.522   0.779   1.179 -0.3766  0.9958 -0.1545
  601SOL    HW1 1802   0.514   0.876   1.204  0.2918  0.7383  1.0017
  601SOL    HW2 1803   0.480   0.713   1.247 -2.6605 -3.6059  0.8880
  602SOL     OW 1804   1.089   2.937   0.653 -0.1373  0.2967 -0.3847
  602SOL    HW1 1805   1.182   2.927   0.608  2.9916 -2.0870 -0.2507
  602SOL    HW2 1806   1.018   2.948   0.577 -2.5052 -0.3642 -0.9190
  603SOL     OW 1807   1.697   2.084   2.230  0.0034 -0.0531  0.1764
  603SOL    HW1 1808   1.785   2.041   2.210 -0.5769 -0.1504  0.7385
  603SOL    HW2 1809   1.715   2.185   2.253 -0.1459  0.9921  2.7900
  604SOL     OW 1810   0.530   3.052   2.768  0.4565  0.1926 -0.6933
  604SOL    HW1 1811   0.441   3.005   2.772 -0.0129 -1.2423 -0.3652
  604SOL    HW2 1812   0.536   0.024   2.705  3.9528  1.4754 -1.0844
  605SOL     OW 1813   2.710   1.234   1.594  0.0650  0.1789 -0.4108
  605SOL    HW1 1814   2.732   1.179   1.672  1.1269  1.7060  0.1795
  605SOL    HW2 1815   2.791   1.257   1.538 -2.7743 -0.7260 -0.5040
  606SOL     OW 1816   0.788   1.879   2.796  0.3745 -0.0369  0.6458
  606SOL    HW1 1817   0.784   1.779   2.820 -1.3366  0.1505 -2.6434
  606SOL    HW2 1818   0.742   1.894   2.703  2.0404 -1.2719  0.7065
  607SOL     OW 1819   0.779   0.337   0.680  0.7536  0.4627 -0.6648
  607SOL    HW1 1820   0.766   0.433   0.644 -0.2217 -2.2901 -0.4894
  607SOL    HW2 1821   0.874   0.316   0.695 -0.2809  0.6552 -1.4999
  608SOL     OW 1822   2.823   1.663   1.468 -0.1956 -0.2097  0.7166
  608SOL    HW1 1823   2.798   1.631   1.559  3.8318  0.0799 -0.0348
  608SOL    HW2 1824   2.880   1.597   1.417 -2.3001  0.9794  1.6767
  609SOL     OW 1825   2.703   0.332   0.852 -0.7293  0.0382 -0.3583
  609SOL    HW1 1826   2.671   0.248   0.898 -0.8468  1.4344 -0.2778
  609SOL    HW2 1827   2.616   0.373   0.815  0.2319 -1.5860 -0.4225
  610SOL     OW 1828   0.163   2.598   1.309  0.6019 -0.4923 -0.0893
  610SOL    HW1 1829   0.182   2.516   1.367 -3.7444 -2.5112  1.5079
  610SOL    HW2 1830   0.149   2.574   1.210 -1.3492  2.1850  1.2164
  611SOL     OW 1831   1.435   1.671   0.230 -0.1823  0.2959 -0.2183
  611SOL    HW1 1832   1.477   1.636   0.317  1.4140 -1.5802 -0.3628
  611SOL    HW2 1833   1.448   1.770   0.212 -0.7451 -2.2182  0.8363
  612SOL     OW 1834   0.965   2.796   2.122 -0.0977  0.5747 -0.7239
  612SOL    HW1 1835   0.973   2.749   2.211 -1.7219  0.8758  0.7225
  612SOL    HW2 1836   0.876   2.787   2.073  1.2358  1.5674  2.2690
  613SOL     OW 1837   0.370   2.647   0.903 -0.2668 -0.0495 -0.1573
  613SOL    HW1 1838   0.354   2.584   0.828 -3.4374 -1.5480  0.9065
  613SOL    HW2 1839   0.448   2.621   0.965  0.3922  1.3608  1.6331
  614SOL     OW 1840   2.201   0.080   2.170  0.1132  0.1462  0.0224
  614SOL    HW1 1841   2.200   0.186   2.164  3.9944  2.0260  1.5245
  614SOL    HW2 1842   2.229   0.034   2.082 -2.5523  0.6210 -2.2066
  615SOL     OW 1843   1.223   1.458   0.419 -0.4123 -0.1753  0.8129
  615SOL    HW1 1844   1.189   1.482   0.325  0.8042  0.8277 -3.0673
  615SOL    HW2 1845   1.317   1.503   0.429  0.2423 -1.3677 -0.6837
  616SOL     OW 1846   1.502   1.540   0.454 -0.1156  0.4703 -0.5894
  616SOL    HW1 1847   1.509   1.441   0.430  3.4935 -1.9803 -2.5221
  616SOL    HW2 1848   1.531   1.557   0.555 -2.3662 -0.1280  4.6076
  617SOL     OW 1849   1.249   1.258   2.619  0.2834 -0.3181  0.4400
  617SOL    HW1 1850   1.150   1.254   2.595  1.5284 -0.0393  0.4462
  617SOL    HW2 1851   1.288   1.166   2.615  0.5642  1.7145  1.2291
  618SOL     OW 1852   0.708   3.067   2.066  0.1796 -0.1385 -0.4405
  618SOL    HW1 1853   0.620   0.003   2.043 -0.9972 -1.6643  0.5435
  618SOL    HW2 1854   0.775   0.025   2.099 -0.4599 -0.1006  1.7117
  619SOL     OW 1855   2.987   1.515   1.305 -0.4187  0.4619  0.0678
  619SOL    HW1 1856   3.085   1.522   1.340 -0.3310 -0.8696  1.0701
  619SOL    HW2 1857   2.989   1.477   1.207 -0.1094 -1.2516 -3.2608
  620SOL     OW 1858   2.351   0.440   2.708 -0.0555 -0.2463  0.2052
  620SOL    HW1 1859   2.353   0.493   2.621 -3.0497 -0.6913 -0.1506
  620SOL    HW2 1860   2.255   0.407   2.719  0.3119 -0.4397  0.1029
  621SOL     OW 1861   2.178   2.084   2.609 -0.2695 -0.4180  0.2924
  621SOL    HW1 1862   2.258   2.027   2.627 -1.8149 -1.4039 -1.3520
  621SOL    HW2 1863   2.175   2.175   2.656 -1.3181 -0.8517 -1.4636
  622SOL     OW 1864   1.009   0.862   2.503  0.3781 -0.4967 -0.6732
  622SOL    HW1 1865   0.908   0.849   2.478 -2.3379 -0.4412 -1.5839
  622SOL    HW2 1866   1.072   0.854   2.422 -0.4784  1.4957 -0.2855
  623SOL     OW 1867   0.748   1.076   2.333 -0.3685 -0.2767 -0.4535
  623SOL    HW1 1868   0.840   1.063   2.295  1.8107 -0.3033  0.5000
  623SOL    HW2 1869   0.689   0.993   2.321 -0.7562 -0.8602 -0.0472
  624SOL     OW 1870   2.995   0.450   0.550 -0.6067 -0.4938 -0.5741
  624SOL    HW1 1871   2.983   0.424   0.453  1.7862  0.0976 -1.1335
  624SOL    HW2 1872   2.932   0.529   0.572 -1.5645  1.6673  2.6552
  625SOL     OW 1873   0.787   2.458   0.765 -0.0623 -0.0324 -1.1854
  625SOL    HW1 1874   0.769   2.558   0.767  0.0892  1.8136  1.6453
  625SOL    HW2 1875   0.857   2.440   0.837 -0.3904  1.0504 -0.3500
  626SOL     OW 1876   2.121   0.706   2.649  0.0742 -1.0823 -0.1447
  626SOL    HW1 1877   2.135   0.726   2.749  2.5480 -2.9486  0.3526
  626SOL    HW2 1878   2.072   0.789   2.607 -1.0444  2.8900 -0.1229
  627SOL     OW 1879   1.436   2.217   2.782  1.1836  0.3368  0.2857
  627SOL    HW1 1880   1.529   2.220   2.735  1.6139 -0.5500  1.3609
  627SOL    HW2 1881   1.429   2.304   2.834  1.3315  3.4090  0.9221
  628SOL     OW 1882   2.719   2.769   2.362 -0.3030  0.5045  0.2097
  628SOL    HW1 1883   2.766   2.855   2.331  0.8848  2.4103  0.2011
  628SOL    HW2 1884   2.624   2.787   2.384  1.2961 -1.0133  1.2901
  629SOL     OW 1885   1.310   2.902   2.325  0.2285 -0.4560  0.4580
  629SOL    HW1 1886   1.346   2.890   2.422 -0.5762  5.0296 -0.4788
  629SOL    HW2 1887   1.230   2.964   2.313 -2.0653  1.0578  0.3789
  630SOL     OW 1888   0.965   0.197   2.432  0.1274  0.2902 -0.0311
  630SOL    HW1 1889   1.004   0.292   2.453 -0.6733 -0.2180 -0.6399
  630SOL    HW2 1890   1.045   0.137   2.405  0.4873  2.6852 -2.1982
  631SOL     OW 1891   2.001   1.304   0.781  0.3945 -0.1253  0.4056
  631SOL    HW1 1892   1.923   1.328   0.720  0.7057  2.0985 -0.7529
  631SOL    HW2 1893   1.982   1.299   0.881 -2.4315  1.7548  2.6564
  632SOL     OW 1894   2.716   0.237   1.752  0.3880  0.1074 -0.0510
  632SOL    HW1 1895   2.679   0.331   1.744 -4.1894 -0.7930  1.8507
  632SOL    HW2 1896   2.781   0.229   1.835  3.6113 -0.4339  1.8644
  633SOL     OW 1897   1.161   1.624   0.224 -0.1409 -0.0923 -0.2675
  633SOL    HW1 1898   1.258   1.649   0.244 -0.4265 -0.1438  0.7608
  633SOL    HW2 1899   1.147   1.625   0.122 -0.7765 -1.6790 -3.2846
  634SOL     OW 1900   2.947   2.910   1.750 -0.1811 -0.2646 -0.1550
  634SOL    HW1 1901   2.885   2.987   1.737 -1.3583 -1.9046 -0.5461
  634SOL    HW2 1902   3.011   2.906   1.675  0.2817 -1.0337  0.1944
  635SOL     OW 1903   1.593   0.457   0.978  0.4347  0.7284  0.3342
  635SOL    HW1 1904   1.694   0.477   0.986 -2.1904  0.3952  0.4757
  635SOL    HW2 1905   1.558   0.402   1.059 -0.3542 -2.1529  1.2462
  636SOL     OW 1906   0.827   1.248   2.996 -0.7204  0.5316  0.0858
  636SOL    HW1 1907   0.768   1.166   3.021 -0.0389  1.5553  0.2308
  636SOL    HW2 1908   0.780   1.337   3.016  0.7564  0.7249  1.3887
  637SOL     OW 1909   3.007   2.248   2.998  0.1999 -0.2723 -0.4106
  637SOL    HW1 1910   3.018   2.165   2.933 -0.9458 -1.3696  0.0566
  637SOL    HW2 1911   3.008   2.222   3.096  0.8600 -1.7398  1.8131
  638SOL     OW 1912   1.521   2.438   2.518  0.2837 -0.2794  0.2416
  638SOL    HW1 1913   1.511   2.522   2.464  0.3962 -0.0837  1.2179
  638SOL    HW2 1914   1.572   2.454   2.606  0.3350  1.5705 -0.6356
  639SOL     OW 1915   1.742   1.859   0.662 -0.1247  0.8759  0.1480
  639SOL    HW1 1916   1.674   1.788   0.651 -1.0416 -0.3331 -2.0449
  639SOL    HW2 1917   1.768   1.900   0.577  0.2059  0.9300 -0.1437
  640SOL     OW 1918   2.374   2.781   0.458 -0.1666 -0.1687 -0.0907
  640SOL    HW1 1919   2.320   2.781   0.373  1.9288 -2.6879 -0.7136
  640SOL    HW2 1920   2.463   2.826   0.440 -0.4533  0.7574  1.6796
  641SOL     OW 1921   2.794   0.484   2.967 -0.0975 -0.7481  0.3900
  641SOL    HW1 1922   2.801   0.469   3.065 -1.2334 -0.8894 -0.9469
  641SOL    HW2 1923   2.707   0.437   2.941 -0.6352  1.4218  1.3700
  642SOL     OW 1924   0.343   0.604   1.288  0.3191  0.0030  0.2527
  642SOL    HW1 1925   0.349   0.598   1.390  0.7778 -2.0254  0.2031
  642SOL    HW2 1926   0.389   0.517   1.257 -1.9466 -0.5589  1.6251
  643SOL     OW 1927   0.657   1.518   2.553 -0.5274 -0.1896  0.1295
  643SOL    HW1 1928   0.757   1.544   2.575  1.7283  0.1976  0.9696
  643SOL    HW2 1929   0.653   1.468   2.468  0.9925  2.0938  2.9962
  644SOL     OW 1930   1.902   2.262   0.678 -0.0022  0.2702  0.4760
  644SOL    HW1 1931   1.956   2.203   0.613  0.2375  2.3885  0.4770
  644SOL    HW2 1932   1.810   2.222   0.694  0.0879  0.6448 -2.1580
  645SOL     OW 1933   1.781   2.415   0.927 -0.1411 -0.4487  0.2616
  645SOL    HW1 1934   1.855   2.365   0.880 -0.1532  3.0100  3.7150
  645SOL    HW2 1935   1.732   2.472   0.860  1.1083 -1.7779  2.5339
  646SOL     OW 1936   0.593   2.255   2.803 -0.7001 -0.3293 -0.0747
  646SOL    HW1 1937   0.519   2.291   2.858  1.4650  0.7230 -1.3149
  646SOL    HW2 1938   0.676   2.231   2.858 -0.9400 -0.8447 -1.1575
  647SOL     OW 1939   1.279   2.841   1.424  0.2452 -0.3241 -0.3207
  647SOL    HW1 1940   1.268   2.918   1.359  1.5246  1.4572  0.0628
  647SOL    HW2 1941   1.376   2.808   1.422 -0.1330 -0.8644 -2.3465
  648SOL     OW 1942   1.432   0.323   1.166 -0.8494  0.4912 -0.2392
  648SOL    HW1 1943   1.434   0.258   1.245  1.0628 -0.6010 -1.9589
  648SOL    HW2 1944   1.364   0.284   1.096 -1.2699  1.9783 -2.6109
  649SOL     OW 1945   1.340   2.112   0.044  0.0191 -0.3755 -0.2127
  649SOL    HW1 1946   1.255   2.146   3.106 -0.0081  0.4746 -1.6460
  649SOL    HW2 1947   1.423   2.172   0.028  3.3923 -0.1042 -0.9168
  650SOL     OW 1948   2.304   1.556   1.469 -0.7841  0.2870 -0.2028
  650SOL    HW1 1949   2.378   1.602   1.524 -0.8256  0.2189  0.1806
  650SOL    HW2 1950   2.213   1.593   1.480  1.5047  0.6359  1.2435
  651SOL     OW 1951   1.789   2.770   3.062  0.3747 -0.0191 -0.1624
  651SOL    HW1 1952   1.697   2.799   3.090  2.4949 -1.3162 -0.1773
  651SOL    HW2 1953   1.786   2.672   3.034  3.1245 -1.1163  0.7572
  652SOL     OW 1954   2.987   1.762   0.216  0.3297  0.2312  0.0567
  652SOL    HW1 1955   2.961   1.804   0.308 -0.6109  0.6519  3.9675
  652SOL    HW2 1956   3.089   1.759   0.211 -0.4169 -0.6088  1.8296
  653SOL     OW 1957   2.893   2.928   0.925 -0.2985 -0.2793 -0.2709
  653SOL    HW1 1958   2.907   2.858   0.851 -0.6380 -1.1574 -1.9592
  653SOL    HW2 1959   2.815   2.991   0.903 -0.3015  1.8965  1.5787
  654SOL     OW 1960   2.910   2.639   1.802 -0.1905  0.0422 -0.8784
  654SOL    HW1 1961   2.904   2.645   1.904 -1.1730  1.0162  0.7362
  654SOL    HW2 1962   2.930   2.737   1.767 -2.6930  3.1940  0.0448
  655SOL     OW 1963   3.078   2.228   0.918  0.5937 -0.9935  0.4930
  655SOL    HW1 1964   3.018   2.147   0.911 -0.7464 -1.8670 -0.4523
  655SOL    HW2 1965   0.010   2.233   1.009 -2.0860 -1.1081 -0.8270
  656SOL     OW 1966   3.040   2.657   2.385 -0.3276 -0.0919 -0.4392
  656SOL    HW1 1967   2.964   2.596   2.365  0.3432 -0.0547 -1.3665
  656SOL    HW2 1968   3.020   2.712   2.469 -0.6665  0.0227  1.8256
  657SOL     OW 1969   2.957   1.368   2.787 -0.1064  0.4090  0.0229
  657SOL    HW1 1970   3.031   1.324   2.842 -1.6011  0.4445  1.5234
  657SOL    HW2 1971   2.890   1.300   2.760 -1.5270  2.2540 -0.7142
  658SOL     OW 1972   2.593   1.657   1.042  0.1177 -0.0524  0.2274
  658SOL    HW1 1973   2.633   1.739   1.086  0.1336 -1.2476  0.6484
  658SOL    HW2 1974   2.510   1.621   1.092  1.2259 -1.5267 -1.5520
  659SOL     OW 1975   1.662   0.138   0.721  0.1145  0.0421 -0.1399
  659SOL    HW1 1976   1.634   0.045   0.756 -1.2053 -0.4026 -0.3275
  659SOL    HW2 1977   1.581   0.198   0.713 -0.5677 -0.1516 -0.1300
  660SOL     OW 1978   1.569   1.368   2.955 -0.4416 -0.1215 -0.1857
  660SOL    HW1 1979   1.512   1.410   3.026 -0.1178  2.0718 -2.2608
  660SOL    HW2 1980   1.595   1.427   2.875  1.1737 -0.9877 -1.1256
  661SOL     OW 1981   0.096   2.287   1.141  0.4984  0.1472 -0.3102
  661SOL    HW1 1982   0.121   2.384   1.139 -3.5614 -3.0256  1.1477
  661SOL    HW2 1983   0.064   2.256   1.234  0.3709 -0.3991 -0.1942
  662SOL     OW 1984   0.054   0.707   3.062  0.0264 -0.0118 -0.3024
  662SOL    HW1 1985   0.085   0.719   0.051 -0.0583 -0.8001  4.0731
  662SOL    HW2 1986   0.097   0.781   3.008 -3.0652 -0.1662 -2.5955
  663SOL     OW 1987   1.986   1.632   1.084 -0.3535  0.1291 -0.4368
  663SOL    HW1 1988   1.951   1.668   0.993  1.7372  0.3791 -0.1293
  663SOL    HW2 1989   1.922   1.659   1.162  0.2955  0.8627 -0.4688
  664SOL     OW 1990   1.145   1.557   1.319  0.2261  0.3767 -0.5037
  664SOL    HW1 1991   1.067   1.495   1.290 -0.9256 -1.0897  0.8812
  664SOL    HW2 1992   1.213   1.557   1.249 -3.6367 -1.1604  1.7981
  665SOL     OW 1993   1.794   2.636   2.476 -0.1468  0.0538 -0.1349
  665SOL    HW1 1994   1.723   2.659   2.409  2.6520 -0.9383 -0.0461
  665SOL    HW2 1995   1.887   2.666   2.447  0.2149 -1.0164  0.3574
  666SOL     OW 1996   0.045   2.897   2.921  0.0083  0.0743 -0.4343
  666SOL    HW1 1997   3.090   2.838   2.969  1.8518  0.3560 -2.5738
  666SOL    HW2 1998   0.009   2.990   2.893 -2.2045 -0.8653  1.6464
  667SOL     OW 1999   2.472   1.444   2.064 -0.2587 -0.0246  0.0796
  667SOL    HW1 2000   2.402   1.381   2.107  0.5521 -4.2478  0.3245
  667SOL    HW2 2001   2.429   1.534   2.064 -2.2970  0.4414  1.6345
  668SOL     OW 2002   0.493   1.218   2.561 -0.4092  0.2078  0.2729
  668SOL    HW1 2003   0.586   1.251   2.528  5.2263 -0.2763  0.7722
  668SOL    HW2 2004   0.416   1.281   2.545  1.0055 -0.4631  0.8422
  669SOL     OW 2005   2.135   2.391   2.472  0.0080  0.2016 -0.2381
  669SOL    HW1 2006   2.193   2.359   2.390  2.4536 -0.1306  0.5133
  669SOL    HW2 2007   2.176   2.368   2.566  0.0493  1.9878  2.9219
  670SOL     OW 2008   2.118   1.159   1.893  0.7147 -0.0830 -0.6307
  670SOL    HW1 2009   2.193   1.225   1.892 -1.6477 -2.2769  0.0571
  670SOL    HW2 2010   2.068   1.165   1.804 -0.7929 -0.4245 -0.0259
  671SOL     OW 2011   2.555   1.123   0.389 -0.1126 -0.0727  0.4385
  671SOL    HW1 2012   2.592   1.152   0.299 -0.8547  1.6033 -2.0485
  671SOL    HW2 2013   2.498   1.198   0.424  0.2379 -0.9003  0.8190
  672SOL     OW 2014   2.347   0.942   2.239  0.2485  0.0724 -0.2227
  672SOL    HW1 2015   2.304   0.921   2.148 -0.8753 -1.8699  2.2461
  672SOL    HW2 2016   2.279   0.967   2.313 -2.1366 -0.4365 -0.6001
  673SOL     OW 2017   3.084   0.139   1.703 -0.4025 -0.2232  0.1662
  673SOL    HW1 2018   3.038   0.106   1.785  0.7728  1.6420 -0.3444
  673SOL    HW2 2019   3.027   0.206   1.656  1.3496  0.1071 -2.1259
  674SOL     OW 2020   1.830   1.722   1.379  0.2589 -0.3241 -0.1229
  674SOL    HW1 2021   1.731   1.695   1.352 -1.5365  2.6424  3.3239
  674SOL    HW2 2022   1.833   1.733   1.478  1.4225 -0.1811 -2.7203
  675SOL     OW 2023   0.799   0.794   0.903 -0.6627  0.5745 -0.1356
  675SOL    HW1 2024   0.718   0.727   0.907 -2.6443 -1.1133 -0.5881
  675SOL    HW2 2025   0.864   0.778   0.829  0.2223  4.1202  2.1890
  676SOL     OW 2026   1.567   1.193   1.232  0.2584 -0.6013  0.0410
  676SOL    HW1 2027   1.484   1.140   1.251 -0.3455  2.5835  0.3586
  676SOL    HW2 2028   1.638   1.176   1.301 -3.3364 -0.1923 -2.9285
  677SOL     OW 2029   2.649   1.527   2.264  0.5476  0.4586 -0.8555
  677SOL    HW1 2030   2.597   1.477   2.193  2.1635  1.6324 -2.0015
  677SOL    HW2 2031   2.672   1.619   2.241 -0.2077 -0.8383 -0.3987
  678SOL     OW 2032   2.897   1.639   0.871  0.4208  0.0494  0.1050
  678SOL    HW1 2033   2.863   1.575   0.797 -0.8726 -1.5602 -0.3107
  678SOL    HW2 2034   2.815   1.673   0.923  1.0046 -0.1152 -0.9802
  679SOL     OW 2035   2.245   2.571   0.157 -0.1384 -0.5378 -0.6812
  679SOL    HW1 2036   2.145   2.557   0.159  1.6150 -1.9420  0.3316
  679SOL    HW2 2037   2.265   2.674   0.129 -3.3911  2.7085 -1.7193
  680SOL     OW 2038   3.012   2.022   1.748  0.4353  0.0847  0.1428
  680SOL    HW1 2039   3.091   1.964   1.764 -0.7924  1.1824  2.4127
  680SOL    HW2 2040   3.022   2.118   1.775  3.6295 -1.9843  0.0904
  681SOL     OW 2041   0.487   1.064   1.275 -0.0486  0.1908 -0.1733
  681SOL    HW1 2042   0.563   1.116   1.229  1.1009  2.1582 -1.2737
  681SOL    HW2 2043   0.514   1.055   1.375 -0.5210  1.5224  2.4798
  682SOL     OW 2044   1.644   2.551   0.726 -0.2245 -0.3891  0.5197
  682SOL    HW1 2045   1.628   2.648   0.706  1.0195 -2.2082  1.2674
  682SOL    HW2 2046   1.553   2.506   0.732  1.0074 -1.5739  2.3228
  683SOL     OW 2047   2.389   1.313   0.465  0.1033  0.0393 -0.1725
  683SOL    HW1 2048   2.345   1.320   0.556 -1.2027  1.5239 -0.2348
  683SOL    HW2 2049   2.423   1.405   0.435 -2.2182 -1.6875  0.9735
  684SOL     OW 2050   0.472   2.057   1.965  0.5989  0.0779  0.2322
  684SOL    HW1 2051   0.377   2.076   1.988  2.7930 -0.2783 -0.8764
  684SOL    HW2 2052   0.508   2.118   1.891 -0.9657 -0.0226 -0.6345
  685SOL     OW 2053   2.004   1.486   3.050 -0.1625 -0.4578 -0.2655
  685SOL    HW1 2054   2.086   1.455   3.104  2.3295 -2.8883 -0.4502
  685SOL    HW2 2055   1.934   1.410   3.053 -0.5440  0.1055  2.2581
  686SOL     OW 2056   0.358   0.740   0.764  0.0806 -0.0251 -0.3449
  686SOL    HW1 2057   0.288   0.672   0.794  1.9296  2.1066 -1.5562
  686SOL    HW2 2058   0.441   0.726   0.822 -1.3676  1.3060  0.2946
  687SOL     OW 2059   1.136   2.375   2.762 -0.0041  0.3420  0.5666
  687SOL    HW1 2060   1.134   2.313   2.846 -0.9592  0.4407 -0.1495
  687SOL    HW2 2061   1.212   2.350   2.693  1.1455 -1.1697 -3.5913
  688SOL     OW 2062   2.515   1.679   1.609 -0.2476 -0.5942 -0.1625
  688SOL    HW1 2063   2.579   1.615   1.663 -2.3922 -0.9743 -0.9304
  688SOL    HW2 2064   2.548   1.773   1.595  1.0683  2.3816  1.5721
  689SOL     OW 2065   2.227   0.618   2.101 -0.4669 -0.7166 -0.1612
  689SOL    HW1 2066   2.329   0.635   2.095  2.6066  2.4848  0.8441
  689SOL    HW2 2067   2.177   0.708   2.099  1.0693 -0.3752 -3.0976
  690SOL     OW 2068   2.113   0.881   1.525  0.8786  0.2980 -1.0213
  690SOL    HW1 2069   2.052   0.884   1.442 -1.6273 -1.2863 -0.3117
  690SOL    HW2 2070   2.147   0.974   1.545  0.2225  0.3118 -0.8188
  691SOL     OW 2071   0.877   2.136   1.705  0.3538  0.0117 -0.3021
  691SOL    HW1 2072   0.878   2.216   1.771 -0.9226  2.4454  0.3132
  691SOL    HW2 2073   0.877   2.050   1.769  1.5667 -2.8638 -1.1188
  692SOL     OW 2074   2.006   0.033   1.375 -0.4737  0.2646  0.4428
  692SOL    HW1 2075   1.977   0.081   1.457 -1.8036 -1.3698 -0.0845
  692SOL    HW2 2076   1.953   3.060   1.368 -0.5029  1.4281  2.3379
  693SOL     OW 2077   0.795   1.132   2.611 -0.2130 -0.2376  0.0443
  693SOL    HW1 2078   0.755   1.085   2.525 -0.3838 -4.1594  0.9849
  693SOL    HW2 2079   0.840   1.071   2.676  1.2651 -0.1770 -1.1265
  694SOL     OW 2080   1.969   2.580   1.372  0.2577 -0.0361  0.0010
  694SOL    HW1 2081   1.993   2.639   1.295 -1.2475 -1.3055  2.2523
  694SOL    HW2 2082   1.974   2.644   1.452 -0.9140 -0.1885  0.3326
  695SOL     OW 2083   1.546   1.315   1.941 -0.0064 -0.2011  0.7744
  695SOL    HW1 2084   1.552   1.298   1.841  0.3662  1.5272  3.2519
  695SOL    HW2 2085   1.576   1.411   1.959  2.9877 -2.7284  0.6101
  696SOL     OW 2086   1.677   0.157   1.194 -0.2056 -0.2360  0.0949
  696SOL    HW1 2087   1.650   0.057   1.198  1.2390 -0.3449  0.8554
  696SOL    HW2 2088   1.597   0.218   1.198 -1.1449  0.6760 -1.0691
  697SOL     OW 2089   1.262   0.222   0.983  0.5713 -0.1555 -1.0401
  697SOL    HW1 2090   1.181   0.186   1.032 -0.5328  1.5754 -0.1217
  697SOL    HW2 2091   1.238   0.253   0.891  1.8812 -0.7892  2.7533
  698SOL     OW 2092   1.817   1.253   1.975  0.0773  0.2238  0.1076
  698SOL    HW1 2093   1.818   1.318   1.900 -1.4147 -2.7446  1.9876
  698SOL    HW2 2094   1.719   1.245   2.005  1.3658 -0.9344  0.6579
  699SOL     OW 2095   1.185   1.250   1.487  0.2244  0.0144 -0.5103
  699SOL    HW1 2096   1.105   1.312   1.491 -2.1419 -0.4028  0.7648
  699SOL    HW2 2097   1.194   1.212   1.391 -1.3557 -1.1150 -1.4553
  700SOL     OW 2098   1.316   0.200   0.263 -0.1519 -0.1344 -0.3696
  700SOL    HW1 2099   1.339   0.229   0.167  0.7766 -0.2492 -1.1073
  700SOL    HW2 2100   1.217   0.171   0.270 -1.4507  0.2048 -1.7826
  701SOL     OW 2101   0.508   0.134   1.993 -0.1180 -0.1899  0.3473
  701SOL    HW1 2102   0.501   0.207   2.061 -2.3548 -1.0698  1.8608
  701SOL    HW2 2103   0.536   0.179   1.903  2.1758  1.9724 -0.2985
  702SOL     OW 2104   1.321   2.897   0.524  0.0979 -0.1673 -0.4908
  702SOL    HW1 2105   1.404   2.941   0.490  0.4691  0.9287 -1.0878
  702SOL    HW2 2106   1.268   2.835   0.456  0.9889 -2.0462 -0.4006
  703SOL     OW 2107   2.724   0.136   2.219 -0.3029 -0.1898 -0.0627
  703SOL    HW1 2108   2.685   0.151   2.311 -3.6112  1.5754 -2.4758
  703SOL    HW2 2109   2.644   0.129   2.155  1.8606 -1.7604  2.1074
  704SOL     OW 2110   0.987   2.415   0.969  0.0261  0.1340 -0.0875
  704SOL    HW1 2111   1.014   2.318   0.986  2.4879 -2.2225  1.7064
  704SOL    HW2 2112   0.947   2.455   1.054  1.5562 -3.0175  0.7635
  705SOL     OW 2113   0.063   0.928   2.323 -0.5025 -0.4791  0.0643
  705SOL    HW1 2114   0.123   0.851   2.350 -3.2051  4.2390 -0.5026
  705SOL    HW2 2115   3.079   0.903   2.343  0.5331 -2.1039  0.6671
  706SOL     OW 2116   1.537   0.185   0.425 -0.4847 -0.0828  0.1086
  706SOL    HW1 2117   1.494   0.183   0.516  2.0002 -1.0790 -1.6939
  706SOL    HW2 2118   1.467   0.200   0.357  1.5712  1.4233  3.4907
  707SOL     OW 2119   1.282   2.067   2.343  0.3363 -0.0782  0.0998
  707SOL    HW1 2120   1.202   2.050   2.408 -3.8450 -0.6283  2.0579
  707SOL    HW2 2121   1.298   1.997   2.270 -0.4076 -0.1157  2.6183
  708SOL     OW 2122   2.938   2.071   1.473  0.3759  0.3676 -0.9812
  708SOL    HW1 2123   2.877   2.007   1.427  0.2724  1.2874  0.4933
  708SOL    HW2 2124   2.972   2.028   1.558  0.8074 -2.2609  0.9947
  709SOL     OW 2125   2.000   0.332   1.787 -0.1993 -0.1949 -0.0960
  709SOL    HW1 2126   2.089   0.350   1.827 -2.7226 -0.1374  0.2007
  709SOL    HW2 2127   1.935   0.418   1.783 -1.7051  2.3800 -0.4290
  710SOL     OW 2128   2.923   3.046   1.355  0.0322 -0.4714 -0.3953
  710SOL    HW1 2129   2.913   3.111   1.274 -0.0229  0.7440 -2.2781
  710SOL    HW2 2130   2.894   2.954   1.325 -0.6998  1.0583  1.2725
  711SOL     OW 2131   0.285   2.465   0.708 -0.3663 -0.1006  0.1704
  711SOL    HW1 2132   0.336   2.377   0.725  0.0683  1.7101 -2.6641
  711SOL    HW2 2133   0.194   2.447   0.682  1.9384  0.8197 -0.6250
  712SOL     OW 2134   0.314   2.029   2.297 -0.6766 -0.1157 -0.2649
  712SOL    HW1 2135   0.367   2.111   2.268 -1.6022 -1.4719  0.6213
  712SOL    HW2 2136   0.360   1.941   2.268 -1.4837 -0.1411 -1.6724
  713SOL     OW 2137   1.803   0.671   0.183  0.3175 -0.3027  0.1232
  713SOL    HW1 2138   1.728   0.603   0.178  1.1931  3.2749  0.0529
  713SOL    HW2 2139   1.769   0.761   0.142  0.0579  2.5196 -0.0922
  714SOL     OW 2140   1.430   1.937   0.249 -0.4873  0.0076  0.2000
  714SOL    HW1 2141   1.373   1.914   0.334 -1.7736  1.6119 -0.0553
  714SOL    HW2 2142   1.402   2.029   0.213  0.8137 -0.1238  1.8924
  715SOL     OW 2143   2.200   0.017   0.650 -0.2436  0.4158 -0.4667
  715SOL    HW1 2144   2.234   0.112   0.634  0.2512 -1.1041 -1.0909
  715SOL    HW2 2145   2.185   3.109   0.750  0.5041  0.2632  1.1776
  716SOL     OW 2146   0.470   0.848   2.268 -0.0937 -0.6570 -0.0843
  716SOL    HW1 2147   0.458   0.877   2.364  0.2271 -0.9213 -1.3762
  716SOL    HW2 2148   0.422   0.917   2.206 -0.5254 -0.5584 -0.4346
  717SOL     OW 2149   0.288   0.578   2.951  0.5700 -0.3645  0.6283
  717SOL    HW1 2150   0.242   0.573   2.858 -1.7446  0.1759  0.0474
  717SOL    HW2 2151   0.217   0.598   3.020 -1.4114  3.5164  2.5317
  718SOL     OW 2152   1.092   0.853   0.186 -0.3232 -0.2275  0.4190
  718SOL    HW1 2153   1.134   0.907   0.106  3.0943 -0.0697  1.5162
  718SOL    HW2 2154   1.143   0.772   0.226  0.8487  0.4224 -0.8189
  719SOL     OW 2155   2.676   2.211   3.004  0.1877  0.3418  0.0095
  719SOL    HW1 2156   2.654   2.111   3.004  0.4915 -2.8792  1.6895
  719SOL    HW2 2157   2.756   2.226   2.947 -2.9618  0.6366  0.6720
  720SOL     OW 2158   1.367   0.933   1.217 -0.5298  0.4292  0.1196
  720SOL    HW1 2159   1.302   0.878   1.165 -0.0114 -1.5292 -2.0512
  720SOL    HW2 2160   1.462   0.890   1.201  3.4837 -1.7162 -0.9799
  721SOL     OW 2161   2.827   0.656   0.653  0.0182  0.0418  0.4447
  721SOL    HW1 2162   2.731   0.674   0.626  0.5959 -2.0418 -0.3788
  721SOL    HW2 2163   2.878   0.741   0.674  2.8982  2.3083 -0.9933
  722SOL     OW 2164   1.076   2.009   2.514  0.1683  0.5239  0.2836
  722SOL    HW1 2165   1.117   2.019   2.606  2.2085  0.8467  1.7667
  722SOL    HW2 2166   0.982   2.032   2.518  3.5593  1.2091 -0.2225
  723SOL     OW 2167   0.519   0.981   0.368 -0.4073  0.1275 -0.0265
  723SOL    HW1 2168   0.579   1.045   0.430  2.3576  1.1837  2.1040
  723SOL    HW2 2169   0.421   1.007   0.378 -1.5651  0.2703  3.6096
  724SOL     OW 2170   0.914   1.898   1.838 -0.2590  0.6684  0.4627
  724SOL    HW1 2171   0.905   1.848   1.745  1.2367  0.0376 -2.5142
  724SOL    HW2 2172   0.838   1.870   1.898  1.2914 -1.7426  0.5617
  725SOL     OW 2173   3.041   1.074   1.274 -0.5479 -0.0338 -0.1953
  725SOL    HW1 2174   0.024   1.078   1.315  1.2269 -1.8215  1.5376
  725SOL    HW2 2175   2.978   1.137   1.320 -1.5480  0.3611 -0.5390
  726SOL     OW 2176   1.746   0.389   0.448  0.1094 -0.2358  0.1410
  726SOL    HW1 2177   1.662   0.336   0.469 -0.3585  0.9030 -1.3082
  726SOL    HW2 2178   1.786   0.416   0.538 -0.5109  3.6962 -0.8594
  727SOL     OW 2179   1.417   0.969   2.282  0.1481  0.5509 -0.2469
  727SOL    HW1 2180   1.429   1.061   2.238  1.3045  0.1946 -1.4539
  727SOL    HW2 2181   1.479   0.905   2.221  0.6487  0.9174 -0.5444
  728SOL     OW 2182   1.478   2.383   1.466 -0.3926  0.1609 -0.5526
  728SOL    HW1 2183   1.515   2.289   1.444  3.1684 -1.3415 -1.8399
  728SOL    HW2 2184   1.559   2.444   1.488  0.2386 -2.5229 -0.3478
  729SOL     OW 2185   1.545   0.631   1.390  0.1966  0.0548 -0.1707
  729SOL    HW1 2186   1.481   0.579   1.330 -1.3015 -2.2025  0.3551
  729SOL    HW2 2187   1.637   0.643   1.344  0.5328 -0.3229 -0.8254
  730SOL     OW 2188   0.671   1.922   2.077 -0.3807 -0.5427  0.2382
  730SOL    HW1 2189   0.757   1.977   2.090  1.4854  0.1448  0.4215
  730SOL    HW2 2190   0.590   1.979   2.042 -0.1978 -0.1846 -0.8353
  731SOL     OW 2191   0.510   0.502   0.172 -0.1594 -0.0800 -0.4515
  731SOL    HW1 2192   0.514   0.527   0.276 -0.8377 -0.2822  2.6051
  731SOL    HW2 2193   0.450   0.423   0.143  0.3084 -1.2006 -0.2556
  732SOL     OW 2194   0.776   0.506   2.809  0.2095  0.0303  0.0382
  732SOL    HW1 2195   0.820   0.418   2.843 -0.0609  0.5364  2.0344
  732SOL    HW2 2196   0.678   0.506   2.833  1.8396 -1.3995 -2.3703
  733SOL     OW 2197   1.606   2.144   1.458 -0.5837  0.2999 -0.3589
  733SOL    HW1 2198   1.652   2.158   1.368 -0.4464  1.0435  1.5744
  733SOL    HW2 2199   1.593   2.051   1.489  0.0492  4.8495 -2.1035
  734SOL     OW 2200   3.037   2.712   2.714 -0.0743 -0.2969  0.4373
  734SOL    HW1 2201   3.073   2.618   2.725 -0.6556  3.2246 -0.7350
  734SOL    HW2 2202   3.101   2.784   2.741 -0.6149  0.0575 -2.6924
  735SOL     OW 2203   0.719   2.715   0.780  0.3802  0.3287  0.7109
  735SOL    HW1 2204   0.782   2.790   0.812 -1.2498  1.5914  0.9079
  735SOL    HW2 2205   0.682   2.736   0.684 -1.2196  1.9391 -1.5677
  736SOL     OW 2206   1.539   1.032   2.706 -0.1466 -0.2020  0.1616
  736SOL    HW1 2207   1.464   0.993   2.651  2.2642 -1.5474  1.0071
  736SOL    HW2 2208   1.503   1.057   2.798  0.9537 -0.7255 -2.4077
  737SOL     OW 2209   0.149   0.523   0.510  0.1028 -0.4396  0.2574
  737SOL    HW1 2210   0.187   0.449   0.453 -2.4800  1.8492  0.0083
  737SOL    HW2 2211   0.057   0.495   0.536  1.5734  0.1848  1.3345
  738SOL     OW 2212   2.857   2.434   1.275 -0.2638 -0.1988 -0.2555
  738SOL    HW1 2213   2.784   2.369   1.267  1.1162 -1.5822  1.2288
  738SOL    HW2 2214   2.886   2.445   1.373 -0.5977 -2.0280 -0.6993
  739SOL     OW 2215   1.768   2.876   0.509 -0.5444  0.3612  0.1035
  739SOL    HW1 2216   1.690   2.857   0.571  1.9588  0.0891 -0.7652
  739SOL    HW2 2217   1.825   2.945   0.557  0.4262 -1.2935  1.6196
  740SOL     OW 2218   1.560   3.019   1.147 -0.6549  0.0372  0.2019
  740SOL    HW1 2219   1.472   3.040   1.108  1.7263 -0.3658  0.4909
  740SOL    HW2 2220   1.584   2.920   1.137 -1.1167  0.0618 -1.5288
  741SOL     OW 2221   2.356   0.239   0.587  0.2832 -0.1916  0.1720
  741SOL    HW1 2222   2.433   0.175   0.606 -2.3669 -2.7156  1.0487
  741SOL    HW2 2223   2.372   0.334   0.626  0.0856  0.5174  0.4442
  742SOL     OW 2224   1.453   2.083   2.063 -0.3648  0.1711  0.9332
  742SOL    HW1 2225   1.521   2.090   2.138 -0.4818  1.3235  0.3327
  742SOL    HW2 2226   1.482   2.128   1.980  1.2202 -0.4829  2.8235
  743SOL     OW 2227   2.554   0.483   1.857 -0.3279 -0.0876 -0.3326
  743SOL    HW1 2228   2.473   0.422   1.839  0.6459 -1.5979  0.9772
  743SOL    HW2 2229   2.575   0.541   1.779 -1.6178 -0.8639 -0.0742
  744SOL     OW 2230   2.260   0.364   1.036 -0.2992  0.6276  0.2570
  744SOL    HW1 2231   2.278   0.444   0.979 -0.3033 -1.7043 -0.3010
  744SOL    HW2 2232   2.211   0.385   1.123  3.2321 -1.1323 -2.4657
  745SOL     OW 2233   2.331   1.645   1.795 -0.8750 -0.8802  0.0611
  745SOL    HW1 2234   2.350   1.673   1.893  2.0913 -0.9677 -1.4824
  745SOL    HW2 2235   2.411   1.663   1.733 -1.3079 -1.5430 -2.0427
  746SOL     OW 2236   1.161   1.592   0.871  0.4395 -0.2514  0.5130
  746SOL    HW1 2237   1.072   1.641   0.885  1.6613 -0.8437 -1.0663
  746SOL    HW2 2238   1.227   1.622   0.944  2.2634 -1.9912  1.4991
  747SOL     OW 2239   1.700   1.335   1.048  0.6514  0.1209  0.4481
  747SOL    HW1 2240   1.645   1.277   1.114 -1.3586  1.4109 -2.9929
  747SOL    HW2 2241   1.800   1.338   1.067 -3.0024  1.9045  0.2051
  748SOL     OW 2242   0.023   0.114   0.379 -0.3635 -0.0989 -0.0522
  748SOL    HW1 2243   0.020   0.182   0.302  0.8360  0.7832 -2.8328
  748SOL    HW2 2244   0.102   0.049   0.373 -0.7604  0.4631  0.9411
  749SOL     OW 2245   0.179   0.480   2.273 -0.1554 -0.1416  0.2746
  749SOL    HW1 2246   0.280   0.506   2.258  2.5606  0.7139 -0.5299
  749SOL    HW2 2247   0.120   0.513   2.196  2.1790  2.2143  0.3864
  750SOL     OW 2248   1.984   2.984   1.710 -0.0633  0.4205 -0.1372
  750SOL    HW1 2249   1.965   3.064   1.653  1.4900 -0.9719  0.6086
  750SOL    HW2 2250   1.897   2.951   1.746  2.5638 -0.5260  1.2078
  751SOL     OW 2251   2.966   0.310   0.809 -0.1290 -0.4485 -0.4919
  751SOL    HW1 2252   2.994   0.367   0.734 -0.6841 -0.0543 -2.1798
  751SOL    HW2 2253   2.867   0.324   0.830 -1.5770 -0.7470  1.6757
  752SOL     OW 2254   0.276   2.902   0.927 -0.6002  0.0129 -0.3241
  752SOL    HW1 2255   0.302   2.805   0.926 -0.3352 -2.1405  1.0754
  752SOL    HW2 2256   0.191   2.917   0.865 -1.5395  2.0078 -0.2960
  753SOL     OW 2257   1.073   0.302   1.828 -0.5119 -0.5132 -0.0630
  753SOL    HW1 2258   1.023   0.366   1.761 -1.0477  1.6551 -2.6448
  753SOL    HW2 2259   1.139   0.238   1.778  0.1528  0.1093 -1.5245
  754SOL     OW 2260   1.192   2.689   1.993 -0.8060 -0.1399 -0.0111
  754SOL    HW1 2261   1.250   2.655   2.069 -0.7041 -1.2589  0.7634
  754SOL    HW2 2262   1.110   2.738   2.031  3.4944 -1.0051  1.1496
  755SOL     OW 2263   2.617   0.973   0.591 -0.3577  0.1282  0.2422
  755SOL    HW1 2264   2.694   1.009   0.644  0.7687  4.5221  1.6769
  755SOL    HW2 2265   2.585   1.042   0.518 -0.8755  2.8953  0.5275
  756SOL     OW 2266   1.969   1.888   2.584 -0.1363  0.1761 -0.1138
  756SOL    HW1 2267   1.890   1.885   2.651  3.2049 -0.1493  1.4548
  756SOL    HW2 2268   2.031   1.970   2.590  0.6365  1.8810 -1.1581
  757SOL     OW 2269   1.901   0.083   1.034  0.2551 -0.1178 -0.1805
  757SOL    HW1 2270   1.839   0.121   1.104 -0.2718 -1.7863 -0.2010
  757SOL    HW2 2271   1.844   0.037   0.966  0.6314  0.8063  2.4136
  758SOL     OW 2272   1.177   2.807   0.943  0.1484 -0.5287 -0.0770
  758SOL    HW1 2273   1.105   2.831   1.012 -1.2434  0.1403 -1.0547
  758SOL    HW2 2274   1.140   2.799   0.848  0.3380 -3.0242  0.6523
  759SOL     OW 2275   2.648   0.499   1.293 -0.5671  0.3076 -0.0889
  759SOL    HW1 2276   2.692   0.505   1.202 -0.9328  1.8520 -1.4369
  759SOL    HW2 2277   2.687   0.416   1.340 -2.0615 -1.0585 -0.6018
  760SOL     OW 2278   2.199   1.138   1.511  0.6592  0.2135 -0.3212
  760SOL    HW1 2279   2.273   1.139   1.441 -0.2270 -0.3702  0.6617
  760SOL    HW2 2280   2.206   1.217   1.570 -0.9347 -1.6798  0.3185
  761SOL     OW 2281   0.676   1.023   0.797 -0.6906  0.4027 -0.3028
  761SOL    HW1 2282   0.603   1.054   0.855 -0.8944 -2.3356 -0.9774
  761SOL    HW2 2283   0.704   0.931   0.833  1.3168 -0.4410  0.0714
  762SOL     OW 2284   2.123   1.747   1.380 -0.1212  1.1029 -0.5454
  762SOL    HW1 2285   2.154   1.743   1.282 -0.3983  0.6579 -0.4294
  762SOL    HW2 2286   2.022   1.728   1.386  1.5009 -1.3970 -1.0826
  763SOL     OW 2287   1.248   1.539   1.891 -0.2432 -0.2036  0.1214
  763SOL    HW1 2288   1.309   1.612   1.857 -0.9143  2.1849  0.5033
  763SOL    HW2 2289   1.225   1.558   1.995 -0.8528 -0.0046  4.6281
  764SOL     OW 2290   3.103   2.078   2.168 -0.1086 -0.4534  0.2304
  764SOL    HW1 2291   0.013   2.179   2.169  1.4868  2.7005 -0.4609
  764SOL    HW2 2292   0.050   2.021   2.222 -1.4142  2.2133 -0.9275
  765SOL     OW 2293   1.288   2.432   1.264  0.3843 -0.0843 -0.0736
  765SOL    HW1 2294   1.217   2.503   1.288 -1.7275  1.9381 -2.0281
  765SOL    HW2 2295   1.343   2.408   1.349  0.2819  0.7308 -1.6881
  766SOL     OW 2296   0.447   2.310   2.568  0.2247 -0.6704 -0.3816
  766SOL    HW1 2297   0.443   2.209   2.567 -1.6608 -0.2634  0.7454
  766SOL    HW2 2298   0.524   2.330   2.638  1.9775 -2.3618  0.1775
  767SOL     OW 2299   1.321   0.977   2.541  0.2429 -0.4400 -0.0225
  767SOL    HW1 2300   1.273   0.894   2.586 -2.3971 -0.1457 -0.2165
  767SOL    HW2 2301   1.360   0.958   2.450  1.3403  1.0103 -2.3286
  768SOL     OW 2302   1.302   2.682   2.972  0.1287  0.0296  0.2970
  768SOL    HW1 2303   1.213   2.629   2.971  2.4576 -0.5399 -0.6613
  768SOL    HW2 2304   1.383   2.615   2.964  1.8909 -3.3119  2.2385
  769SOL     OW 2305   3.056   2.720   1.408 -0.5572  0.1657  0.2086
  769SOL    HW1 2306   3.015   2.773   1.332  1.1542  0.9448 -1.4258
  769SOL    HW2 2307   0.033   2.675   1.383  0.5555  2.6933 -0.6766
  770SOL     OW 2308   1.133   0.368   2.879  0.0444 -0.4866 -0.0593
  770SOL    HW1 2309   1.035   0.330   2.861 -1.1957  0.3335  1.2025
  770SOL    HW2 2310   1.126   0.430   2.958  0.8693  1.8761  0.9638
  771SOL     OW 2311   0.520   0.229   2.267 -0.1957 -0.0071 -0.2143
  771SOL    HW1 2312   0.463   0.145   2.286  3.1852 -0.4447  0.1408
  771SOL    HW2 2313   0.514   0.297   2.342  1.7155 -1.1089  0.8384
  772SOL     OW 2314   2.592   0.004   2.004  0.4047 -0.1767  0.3324
  772SOL    HW1 2315   2.648   0.081   1.974 -4.1784 -1.3084  0.6625
  772SOL    HW2 2316   2.634   3.029   1.982 -0.8688  1.7791  0.4655
  773SOL     OW 2317   0.893   2.353   1.884 -0.1637  0.3117 -0.1915
  773SOL    HW1 2318   0.974   2.377   1.945 -2.7336  2.0325  0.7725
  773SOL    HW2 2319   0.829   2.312   1.951 -0.5638 -1.0827 -0.1646
  774SOL     OW 2320   1.272   0.414   1.986 -0.4454 -0.5153  0.1948
  774SOL    HW1 2321   1.344   0.340   1.983 -1.6706  0.5855  0.5205
  774SOL    HW2 2322   1.196   0.396   1.918 -0.8842 -0.4757 -1.0037
  775SOL     OW 2323   2.181   2.965   2.871  0.4776  0.2171  0.2307
  775SOL    HW1 2324   2.097   3.003   2.916 -3.7020  1.3370  1.9865
  775SOL    HW2 2325   2.215   3.021   2.792 -1.8428 -1.9085  0.9775
  776SOL     OW 2326   1.976   0.510   2.263 -0.3160  0.2712 -0.1955
  776SOL    HW1 2327   1.954   0.586   2.207  1.3276 -2.6292  1.9363
  776SOL    HW2 2328   1.932   0.420   2.243  0.7767  0.3310  0.7344
  777SOL     OW 2329   2.423   0.991   2.596 -0.0730 -0.2103 -0.1797
  777SOL    HW1 2330   2.495   1.039   2.539 -0.3646 -2.2692 -2.5331
  777SOL    HW2 2331   2.327   1.014   2.564  1.3828 -2.0093  3.3008
  778SOL     OW 2332   1.861   0.720   2.139  0.1259  0.2212  0.2866
  778SOL    HW1 2333   1.922   0.749   2.060  1.7681  1.1811 -1.6478
  778SOL    HW2 2334   1.783   0.663   2.112  0.9970 -0.5340  0.9388
  779SOL     OW 2335   0.083   0.359   0.181  0.0263 -0.4128  0.2102
  779SOL    HW1 2336   0.173   0.348   0.223 -1.3173  0.9609  1.6380
  779SOL    HW2 2337   0.081   0.326   0.085  0.5060  0.7281 -1.4541
  780SOL     OW 2338   2.386   0.496   2.978  0.5434 -0.2330  0.1465
  780SOL    HW1 2339   2.376   0.464   2.882  2.3887 -0.5787  0.0963
  780SOL    HW2 2340   2.316   0.569   3.005 -1.9817 -0.0883 -0.6126
  781SOL     OW 2341   0.398   2.707   1.360  0.0575  0.1489  0.0674
  781SOL    HW1 2342   0.398   2.783   1.290 -0.0408  3.1152 -1.5235
  781SOL    HW2 2343   0.313   2.653   1.342  1.4786  0.5478  1.6549
  782SOL     OW 2344   1.910   2.489   0.155  0.2165 -0.4876  0.1385
  782SOL    HW1 2345   1.845   2.428   0.206  2.0351 -1.2411  0.9498
  782SOL    HW2 2346   1.910   2.587   0.184 -1.6853  1.4898  2.1025
  783SOL     OW 2347   0.786   1.506   1.648 -0.0223 -0.1668  0.2426
  783SOL    HW1 2348   0.773   1.487   1.546  0.9271 -2.4518 -5.6569
  783SOL    HW2 2349   0.735   1.439   1.708 -0.8288 -0.4605  3.4615
  784SOL     OW 2350   1.555   0.844   2.099 -0.1169 -0.0092 -0.0597
  784SOL    HW1 2351   1.612   0.896   2.031 -0.2345 -2.0750 -1.3347
  784SOL    HW2 2352   1.574   0.742   2.089 -1.3313 -3.0166  1.6687
  785SOL     OW 2353   2.601   0.132   1.004 -0.2517 -0.9237  0.1409
  785SOL    HW1 2354   2.506   0.153   1.026  2.5605  1.9945 -0.3120
  785SOL    HW2 2355   2.615   0.053   0.938 -0.9440 -3.4811 -2.2486
  786SOL     OW 2356   1.541   2.800   1.432 -0.0118 -0.6062  0.2734
  786SOL    HW1 2357   1.564   2.706   1.467 -1.4065 -0.0047 -1.0906
  786SOL    HW2 2358   1.558   2.805   1.332 -0.9048 -0.4937  1.5765
  787SOL     OW 2359   1.421   0.110   1.346 -0.1794 -0.2276  0.4402
  787SOL    HW1 2360   1.325   0.101   1.384 -1.3654 -0.1617 -0.5048
  787SOL    HW2 2361   1.471   0.020   1.338  0.4792 -0.5800 -0.3159
  788SOL     OW 2362   2.874   1.077   0.218  0.0579  0.0101 -0.1055
  788SOL    HW1 2363   2.902   1.011   0.139  2.9676 -2.5248 -1.6930
  788SOL    HW2 2364   2.871   1.026   0.306 -2.2652 -1.5612  2.6528
  789SOL     OW 2365   0.524   1.274   1.954  0.5212  0.3581  0.2205
  789SOL    HW1 2366   0.542   1.321   2.040 -0.9179  0.3877  2.4460
  789SOL    HW2 2367   0.480   1.336   1.894  0.3209 -0.0672  1.3843
  790SOL     OW 2368   0.396   0.627   2.595 -0.4424 -0.3897 -0.0628
  790SOL    HW1 2369   0.458   0.665   2.669 -0.8134 -1.3011 -2.0548
  790SOL    HW2 2370   0.302   0.597   2.620  0.7274  0.2449 -3.0086
  791SOL     OW 2371   2.149   0.781   0.509 -0.2886 -0.5531  0.0128
  791SOL    HW1 2372   2.048   0.788   0.488  1.1150 -0.5831 -2.0829
  791SOL    HW2 2373   2.176   0.824   0.600 -1.0523 -1.5938  1.2598
  792SOL     OW 2374   1.197   3.039   1.243  0.3146  0.0825 -0.1584
  792SOL    HW1 2375   1.111   2.994   1.214  2.3042 -0.7401  0.3577
  792SOL    HW2 2376   1.253   3.063   1.163 -1.0603  1.4093  3.1547
  793SOL     OW 2377   0.385   2.913   1.191 -0.7356 -1.0829  0.2800
  793SOL    HW1 2378   0.351   2.929   1.098 -0.5420 -0.0669  0.8085
  793SOL    HW2 2379   0.318   2.949   1.255  1.0697 -1.6988 -1.9307
  794SOL     OW 2380   0.172   0.709   2.412 -0.7016 -0.2795  0.1474
  794SOL    HW1 2381   0.229   0.710   2.492  0.8765  0.6608 -1.1718
  794SOL    HW2 2382   0.180   0.618   2.359  0.4299  0.8712  0.4501
  795SOL     OW 2383   0.506   2.565   2.792 -0.4496  0.0458  0.0258
  795SOL    HW1 2384   0.608   2.585   2.783  2.6019  1.3037 -0.6449
  795SOL    HW2 2385   0.454   2.618   2.726 -0.8011  1.0163  2.4951
  796SOL     OW 2386   2.206   0.549   2.446 -0.5830 -0.1439 -0.8353
  796SOL    HW1 2387   2.179   0.617   2.519  0.8707 -0.0056  0.6197
  796SOL    HW2 2388   2.144   0.558   2.367  0.2009 -0.4245 -0.3325
  797SOL     OW 2389   2.534   2.567   2.512  0.2314 -0.7803  0.2300
  797SOL    HW1 2390   2.626   2.598   2.551 -0.7317  1.4024  2.8901
  797SOL    HW2 2391   2.454   2.602   2.571 -4.0150  2.7832  2.5179
  798SOL     OW 2392   0.439   0.414   1.717 -0.3117 -0.0923  0.0665
  798SOL    HW1 2393   0.439   0.463   1.806 -0.2744 -0.2986  1.2896
  798SOL    HW2 2394   0.359   0.357   1.701  0.5170  2.1935  0.9935
  799SOL     OW 2395   0.723   2.819   1.980 -0.2327  0.2853 -0.3844
  799SOL    HW1 2396   0.731   2.913   2.007  0.2334 -0.1456  0.8816
  799SOL    HW2 2397   0.636   2.785   2.011 -0.3346  0.7037 -1.7161
  800SOL     OW 2398   3.090   2.404   0.351  0.5298  0.6349 -0.1018
  800SOL    HW1 2399   3.019   2.441   0.413 -1.6220  0.3579  1.8223
  800SOL    HW2 2400   0.072   2.443   0.367  1.9632 -1.3112  0.3123
  801SOL     OW 2401   1.870   1.689   0.860 -0.1893 -0.0715  0.7864
  801SOL    HW1 2402   1.792   1.627   0.878 -2.4915 -1.1160 -3.2374
  801SOL    HW2 2403   1.849   1.776   0.809 -1.0847 -0.9789  2.6674
  802SOL     OW 2404   0.437   0.546   0.428 -1.2912  0.2337  0.3677
  802SOL    HW1 2405   0.456   0.507   0.523  2.1470 -0.3097  0.8935
  802SOL    HW2 2406   0.453   0.645   0.429  2.6983  1.4608 -0.4361
  803SOL     OW 2407   1.186   1.284   1.821 -0.2594 -0.3361 -0.3195
  803SOL    HW1 2408   1.255   1.235   1.763 -0.4187  2.7344 -0.5474
  803SOL    HW2 2409   1.217   1.385   1.828 -0.8462 -1.6718  1.4376
  804SOL     OW 2410   1.703   2.093   0.815  0.2510  0.2581 -0.6423
  804SOL    HW1 2411   1.757   2.078   0.903  0.3494 -0.7719  0.3536
  804SOL    HW2 2412   1.705   2.003   0.764  0.5448 -2.4798  0.3069
  805SOL     OW 2413   0.098   1.917   2.729  0.5399 -0.3145 -0.1243
  805SOL    HW1 2414   0.182   1.954   2.780  2.4173  0.3181  2.6609
  805SOL    HW2 2415   0.100   1.952   2.634 -1.4573  0.7382  1.4360
  806SOL     OW 2416   0.563   2.475   0.348 -0.0734  0.1389 -0.4707
  806SOL    HW1 2417   0.635   2.429   0.400 -1.6976  1.7803  0.3269
  806SOL    HW2 2418   0.518   2.533   0.420 -0.0640 -1.2974  0.6198
  807SOL     OW 2419   2.118   1.430   2.728  0.0885 -0.0358 -0.2927
  807SOL    HW1 2420   2.147   1.436   2.828  1.6460  2.4326  0.1738
  807SOL    HW2 2421   2.097   1.523   2.695  0.0484 -1.9153  0.2468
  808SOL     OW 2422   1.428   2.199   1.131 -0.6103  0.4811 -0.2869
  808SOL    HW1 2423   1.394   2.124   1.190 -0.4739 -1.3376 -2.9735
  808SOL    HW2 2424   1.380   2.288   1.161 -2.1211 -0.6553  2.5260
  809SOL     OW 2425   0.211   0.773   0.471 -0.1524  0.0479  0.4946
  809SOL    HW1 2426   0.198   0.839   0.549  0.0844 -1.4183 -1.0327
  809SOL    HW2 2427   0.179   0.678   0.493 -0.4348 -1.0506  1.1502
  810SOL     OW 2428   1.393   1.517   0.024 -0.1488  0.2042 -0.2582
  810SOL    HW1 2429   1.317   1.578   3.100  0.7576 -0.4377  0.1582
  810SOL    HW2 2430   1.431   1.573   0.101  0.5818  0.3293 -5.3757
  811SOL     OW 2431   1.693   2.266   1.145 -0.5196  0.5017 -0.5713
  811SOL    HW1 2432   1.736   2.319   1.069 -1.1768 -1.5135 -1.8968
  811SOL    HW2 2433   1.600   2.236   1.121  3.0783  0.0733 -0.7118
  812SOL     OW 2434   1.310   3.044   0.972 -0.1748  0.2268  0.2511
  812SOL    HW1 2435   1.272   2.950   0.959 -1.4082 -3.0298 -1.5275
  812SOL    HW2 2436   1.264   0.004   0.918 -1.9811  0.4980  0.0578
  813SOL     OW 2437   0.842   0.132   1.809  0.1700 -0.0443  0.3173
  813SOL    HW1 2438   0.895   0.215   1.792  0.1234  3.1924 -0.7615
  813SOL    HW2 2439   0.744   0.152   1.778 -0.7398 -1.2662 -0.4188
  814SOL     OW 2440   1.124   2.422   2.007 -0.6039  0.5472 -0.0722
  814SOL    HW1 2441   1.115   2.412   2.108 -0.6724  3.1755  0.5853
  814SOL    HW2 2442   1.176   2.510   1.987  1.0897 -0.4004  2.2794
  815SOL     OW 2443   0.556   0.220   2.655  0.3780 -0.0845 -0.3950
  815SOL    HW1 2444   0.637   0.157   2.641  1.1403 -1.7043  0.0604
  815SOL    HW2 2445   0.542   0.294   2.588  0.8810 -0.9683 -0.3374
  816SOL     OW 2446   2.150   0.993   0.178 -0.2282  0.2659  0.1964
  816SOL    HW1 2447   2.238   0.998   0.131 -0.5698  1.6802 -0.9310
  816SOL    HW2 2448   2.120   0.897   0.177  1.7688 -0.4774 -0.6847
  817SOL     OW 2449   2.895   2.388   2.262  0.2921 -0.0835  0.0016
  817SOL    HW1 2450   2.934   2.389   2.166 -0.7558  0.2772 -2.0422
  817SOL    HW2 2451   2.954   2.345   2.330 -2.0223 -1.1008 -0.8394
  818SOL     OW 2452   0.917   1.263   0.574  0.1635  0.3935  0.1499
  818SOL    HW1 2453   0.934   1.366   0.568 -2.1758 -1.8885  1.0036
  818SOL    HW2 2454   0.943   1.211   0.488  1.4799 -0.7703 -2.3920
  819SOL     OW 2455   1.711   1.182   2.532  0.0160  0.2723 -0.2929
  819SOL    HW1 2456   1.729   1.137   2.443  0.8089 -0.6034  0.2201
  819SOL    HW2 2457   1.633   1.132   2.580  0.2757 -2.4363 -0.3618
  820SOL     OW 2458   0.447   1.285   0.084 -0.0036 -0.4165  0.0909
  820SOL    HW1 2459   0.433   1.335   0.171  2.5463 -0.4347  2.2837
  820SOL    HW2 2460   0.378   1.211   0.078  1.0123  3.3452  1.4558
  821SOL     OW 2461   0.432   3.098   0.813  0.0958 -0.3644 -0.0969
  821SOL    HW1 2462   0.477   3.060   0.733 -0.7059 -1.2237  3.7140
  821SOL    HW2 2463   0.374   3.026   0.864 -0.9231 -1.7477  2.4860
  822SOL     OW 2464   2.220   2.307   2.733  0.1543 -0.4892  0.0381
  822SOL    HW1 2465   2.318   2.290   2.758 -0.3953  0.3739 -0.2901
  822SOL    HW2 2466   2.165   2.340   2.809 -1.4015 -0.3612  1.6541
  823SOL     OW 2467   1.203   0.482   2.638  0.2949 -0.4185  0.0952
  823SOL    HW1 2468   1.290   0.448   2.602 -0.9040 -0.6137  0.4232
  823SOL    HW2 2469   1.174   0.431   2.722 -0.2596 -2.7541 -1.5956
  824SOL     OW 2470   2.551   2.756   1.481 -0.0127  0.1890 -0.2231
  824SOL    HW1 2471   2.618   2.762   1.558  3.8867 -0.8190  2.9153
  824SOL    HW2 2472   2.578   2.812   1.402 -2.2875  1.2812  1.2449
  825SOL     OW 2473   0.197   2.385   2.526 -0.0037 -0.1837  0.0424
  825SOL    HW1 2474   0.222   2.461   2.466 -0.6856 -2.3776 -2.5519
  825SOL    HW2 2475   0.284   2.339   2.561 -0.4716 -2.1048 -0.8922
  826SOL     OW 2476   1.657   0.400   3.018 -0.6325  0.0826  0.2668
  826SOL    HW1 2477   1.649   0.414   0.007 -0.7922  1.1685  0.7822
  826SOL    HW2 2478   1.745   0.447   2.988  2.2504  2.1241  0.6960
  827SOL     OW 2479   3.065   1.677   1.806 -0.1471 -0.3128  0.5254
  827SOL    HW1 2480   3.061   1.574   1.812  0.3581  0.9179 -0.6621
  827SOL    HW2 2481   3.047   1.730   1.890 -1.8298 -1.7292 -0.6249
  828SOL     OW 2482   0.197   3.017   1.368  0.7602  0.3678 -0.5310
  828SOL    HW1 2483   0.218   0.007   1.353 -0.0914  1.3262  1.5926
  828SOL    HW2 2484   0.125   3.012   1.439  0.3814 -0.9483 -0.8995
  829SOL     OW 2485   0.833   2.298   2.389  0.2604 -0.6064  0.3218
  829SOL    HW1 2486   0.827   2.241   2.474 -1.0181 -1.4714  0.3170
  829SOL    HW2 2487   0.793   2.394   2.401  3.2991  2.9694  3.1519
  830SOL     OW 2488   0.681   0.807   1.584 -0.5129 -0.6716  0.0113
  830SOL    HW1 2489   0.709   0.759   1.502  1.1996  2.8688 -0.2578
  830SOL    HW2 2490   0.647   0.748   1.655  0.5870 -0.7574 -0.1752
  831SOL     OW 2491   2.589   1.953   2.905 -0.1093  0.1426  0.2647
  831SOL    HW1 2492   2.673   1.935   2.848  0.2038  0.2144 -0.1854
  831SOL    HW2 2493   2.578   1.876   2.976 -1.8374 -5.3302  0.4121
  832SOL     OW 2494   1.481   2.496   2.950  0.3151  0.2611 -0.0062
  832SOL    HW1 2495   1.545   2.494   3.032  1.3652  0.0462  0.0197
  832SOL    HW2 2496   1.536   2.481   2.864  0.0733 -2.8905 -0.4909
  833SOL     OW 2497   0.446   0.466   1.992 -0.0686 -0.0283  0.2643
  833SOL    HW1 2498   0.546   0.470   1.975  0.3239 -0.7957 -0.2718
  833SOL    HW2 2499   0.429   0.522   2.074 -1.7836 -0.3069 -1.0836
  834SOL     OW 2500   0.119   0.815   1.160  0.0990 -0.3112  0.3224
  834SOL    HW1 2501   0.201   0.756   1.179 -0.9920 -0.6602 -0.7594
  834SOL    HW2 2502   0.088   0.850   1.250  0.5595  0.0769  0.9145
  835SOL     OW 2503   2.451   0.399   0.332 -0.6557  0.4283  0.5492
  835SOL    HW1 2504   2.479   0.389   0.231  2.5571  0.2908 -1.0588
  835SOL    HW2 2505   2.408   0.489   0.347 -0.6387  1.5979  0.2433
  836SOL     OW 2506   1.130   2.318   0.230 -0.1322 -0.6735 -0.4397
  836SOL    HW1 2507   1.144   2.234   0.280 -0.8164 -1.5455  0.7637
  836SOL    HW2 2508   1.220   2.355   0.186  0.3042 -0.1343 -1.8445
  837SOL     OW 2509   1.800   1.674   0.415  0.0957 -0.1225 -0.1961
  837SOL    HW1 2510   1.821   1.620   0.334 -0.4908  1.7996  1.4536
  837SOL    HW2 2511   1.750   1.618   0.482  0.4903  0.5980 -0.0895
  838SOL     OW 2512   1.800   0.894   2.340  0.0141  0.1315  0.0956
  838SOL    HW1 2513   1.845   0.838   2.269 -0.5196 -0.5269  0.1537
  838SOL    HW2 2514   1.789   0.991   2.309 -1.8703  0.4218  1.2608
  839SOL     OW 2515   0.952   1.573   2.547 -0.3515 -0.0509  0.0523
  839SOL    HW1 2516   0.979   1.477   2.528 -1.1828  0.8627 -0.6132
  839SOL    HW2 2517   1.017   1.640   2.510 -1.7618 -1.8719  0.5585
  840SOL     OW 2518   1.024   1.466   0.029 -0.2041 -0.2059  0.7192
  840SOL    HW1 2519   0.950   1.471   0.094  2.0868 -0.7760 -0.7742
  840SOL    HW2 2520   1.019   1.373   3.101 -0.4802 -0.3924 -2.0983
  841SOL     OW 2521   1.570   2.281   0.056  0.5294 -0.5076  0.2828
  841SOL    HW1 2522   1.616   2.301   0.141 -0.3536  1.0593 -2.3162
  841SOL    HW2 2523   1.638   2.268   3.091 -0.1045 -0.4004 -1.0798
  842SOL     OW 2524   0.163   0.729   0.214  0.3408  0.0937 -0.5046
  842SOL    HW1 2525   0.239   0.781   0.168  0.3586  1.2307 -0.9132
  842SOL    HW2 2526   0.181   0.709   0.313  1.6089 -1.1695  0.8127
  843SOL     OW 2527   0.666   0.403   0.972 -0.2578 -0.4306 -0.1839
  843SOL    HW1 2528   0.667   0.311   0.934 -0.9288  2.8200  0.3133
  843SOL    HW2 2529   0.763   0.433   0.989 -0.8519  0.4871 -0.7196
  844SOL     OW 2530   2.055   2.628   2.392  0.1409  0.0521  0.1253
  844SOL    HW1 2531   2.071   2.526   2.414 -0.0194  0.4697  1.0769
  844SOL    HW2 2532   2.052   2.647   2.294  0.0576  2.1096  1.4908
  845SOL     OW 2533   0.083   2.562   1.820 -0.3102  0.1197 -0.0042
  845SOL    HW1 2534   3.099   2.583   1.805 -0.7923 -0.9993 -2.6727
  845SOL    HW2 2535   0.130   2.639   1.874  0.7472  1.7962 -0.6405
  846SOL     OW 2536   1.942   1.440   2.396 -0.3146 -0.0002 -0.3658
  846SOL    HW1 2537   1.848   1.459   2.430 -0.5099  1.8255  0.4046
  846SOL    HW2 2538   1.953   1.397   2.303  2.8905  0.6836 -3.2332
  847SOL     OW 2539   3.103   0.567   2.107  0.0623 -0.1755 -0.1587
  847SOL    HW1 2540   3.078   0.543   2.012 -1.1457  0.2542 -0.7693
  847SOL    HW2 2541   0.021   0.665   2.098 -1.6205  0.7963 -0.9173
  848SOL     OW 2542   2.561   2.821   2.795  0.0131 -0.1368 -0.9333
  848SOL    HW1 2543   2.661   2.846   2.811  1.4170  2.2682 -0.8492
  848SOL    HW2 2544   2.535   2.837   2.699 -0.0011  0.7616 -1.2196
  849SOL     OW 2545   0.291   2.874   0.534 -0.6080  0.1263  0.2281
  849SOL    HW1 2546   0.349   2.958   0.537  2.8094  2.0487 -2.2224
  849SOL    HW2 2547   0.229   2.871   0.612  1.1934 -0.0865  2.3138
  850SOL     OW 2548   0.785   2.317   0.503 -0.0458  0.0695 -0.1279
  850SOL    HW1 2549   0.851   2.388   0.470  2.2546 -3.7169 -0.3927
  850SOL    HW2 2550   0.779   2.303   0.600  0.1890  0.8565  1.8916
  851SOL     OW 2551   1.727   0.677   2.658 -0.3270 -0.1101 -0.0829
  851SOL    HW1 2552   1.662   0.706   2.583 -5.1283 -0.3537 -2.0548
  851SOL    HW2 2553   1.785   0.601   2.622  2.6239 -0.4417  0.6617
  852SOL     OW 2554   1.652   2.450   2.745  0.3947 -0.1135 -0.0160
  852SOL    HW1 2555   1.709   2.365   2.738 -0.6833  0.4168  3.1830
  852SOL    HW2 2556   1.715   2.532   2.746  0.8058  1.0661 -0.2988
  853SOL     OW 2557   3.036   2.638   0.175  0.1393  0.2224 -0.0830
  853SOL    HW1 2558   0.013   2.668   0.126 -0.5155 -3.5431  0.4827
  853SOL    HW2 2559   2.970   2.587   0.119  0.2269 -0.6967  0.9166
  854SOL     OW 2560   1.515   0.535   2.290 -0.4630  0.2716  0.0766
  854SOL    HW1 2561   1.414   0.557   2.277 -0.9187 -0.6848 -1.9975
  854SOL    HW2 2562   1.564   0.607   2.340 -0.8452  0.7318  0.5842
  855SOL     OW 2563   0.423   2.619   0.528 -0.4903 -0.5324 -0.0657
  855SOL    HW1 2564   0.369   2.552   0.581  0.8650  1.7507  0.4090
  855SOL    HW2 2565   0.378   2.712   0.530 -0.6168 -1.5017 -2.0922
  856SOL     OW 2566   0.354   2.684   2.605 -0.4353 -0.7436  0.8245
  856SOL    HW1 2567   0.413   2.761   2.568  1.4781 -2.0815 -1.3618
  856SOL    HW2 2568   0.293   2.644   2.533 -1.2566  0.1425  1.9945
  857SOL     OW 2569   1.106   2.928   1.659 -0.2716  0.1348  0.0771
  857SOL    HW1 2570   1.174   2.866   1.621 -0.1162  1.8718  2.6268
  857SOL    HW2 2571   1.043   2.974   1.596  0.5778  0.9393  1.1814
  858SOL     OW 2572   3.081   1.786   1.538  0.2545 -0.4775 -0.2134
  858SOL    HW1 2573   3.096   1.738   1.627 -0.1106  0.4458 -1.7633
  858SOL    HW2 2574   2.994   1.764   1.497  0.5186  1.2858  0.1508
  859SOL     OW 2575   1.936   2.375   2.075  0.0596  0.1816 -0.7816
  859SOL    HW1 2576   1.890   2.363   1.982  2.3603 -3.4689 -1.8689
  859SOL    HW2 2577   1.868   2.356   2.155 -1.4772 -2.0684  2.5542
  860SOL     OW 2578   1.409   0.222   0.678  0.2270 -0.6114 -0.3936
  860SOL    HW1 2579   1.388   0.314   0.714 -0.5411 -1.0526 -1.4657
  860SOL    HW2 2580   1.339   0.155   0.708 -0.0859  0.8405  3.0224
  861SOL     OW 2581   2.773   0.533   1.052 -0.2080 -0.1748 -0.2274
  861SOL    HW1 2582   2.752   0.479   0.970  1.3283 -1.3980  0.3034
  861SOL    HW2 2583   2.878   0.540   1.062  0.3654  0.2305 -1.2663
  862SOL     OW 2584   1.646   0.589   2.036 -0.1241 -0.1580  0.4346
  862SOL    HW1 2585   1.606   0.532   2.107  2.1572 -2.6390 -1.6071
  862SOL    HW2 2586   1.624   0.546   1.944  2.4215  1.2668 -3.3517
  863SOL     OW 2587   0.564   0.671   0.940  0.1866  0.6718 -0.0567
  863SOL    HW1 2588   0.549   0.571   0.944  0.9589 -2.4425  0.0249
  863SOL    HW2 2589   0.539   0.724   1.023 -2.0745 -1.1870  1.2842
  864SOL     OW 2590   3.091   2.734   2.090  0.2327 -0.4279  0.1949
  864SOL    HW1 2591   3.088   2.718   2.188 -0.9392  0.2735 -0.2135
  864SOL    HW2 2592   3.033   2.812   2.062  0.7854 -2.2432  2.8595
  865SOL     OW 2593   0.995   1.275   2.497  0.0520 -0.3692  0.2103
  865SOL    HW1 2594   1.049   1.222   2.433 -1.8436  3.0110  1.4852
  865SOL    HW2 2595   0.919   1.213   2.535 -1.7056 -3.2624 -1.9786
  866SOL     OW 2596   3.006   3.037   0.206 -0.5392  0.9217  0.3390
  866SOL    HW1 2597   3.005   3.092   0.291 -0.5730  1.2876  0.6145
  866SOL    HW2 2598   3.090   2.978   0.194  1.2157 -0.6387  0.4452
  867SOL     OW 2599   2.936   2.778   3.023 -0.1431  0.3363  0.2330
  867SOL    HW1 2600   2.932   2.677   3.038 -1.1247 -0.2071  0.8035
  867SOL    HW2 2601   2.884   2.828   3.096 -1.8066 -1.8489  0.7340
  868SOL     OW 2602   1.450   1.125   2.927 -0.3256  0.2546 -0.5106
  868SOL    HW1 2603   1.513   1.207   2.939  1.4559 -2.2677  2.3986
  868SOL    HW2 2604   1.375   1.126   2.997 -2.0076  2.0023  0.7374
  869SOL     OW 2605   2.950   2.133   0.490 -0.3768 -0.0771  0.6601
  869SOL    HW1 2606   2.901   2.171   0.408  0.1881 -0.1952 -0.7212
  869SOL    HW2 2607   2.994   2.213   0.534 -0.6970  2.2031 -0.2874
  870SOL     OW 2608   1.985   2.089   0.481  0.5865  0.0776  0.3642
  870SOL    HW1 2609   1.999   1.985   0.487  1.8974 -3.5436  2.1704
  870SOL    HW2 2610   2.058   2.126   0.420 -0.4991 -3.6904  0.9412
  871SOL     OW 2611   0.688   1.171   1.124 -0.0835  0.3313 -0.1974
  871SOL    HW1 2612   0.604   1.162   1.071  2.5225  0.0811  0.2139
  871SOL    HW2 2613   0.756   1.219   1.068 -0.4033  0.7859  2.0052
  872SOL     OW 2614   1.423   1.754   1.849 -0.0091 -0.4897  0.4312
  872SOL    HW1 2615   1.348   1.814   1.826  0.7630 -0.0800  0.2543
  872SOL    HW2 2616   1.501   1.801   1.891  1.3029 -2.1038  0.3043
  873SOL     OW 2617   0.731   2.295   2.124 -0.0677 -0.1990 -0.0114
  873SOL    HW1 2618   0.786   2.299   2.207 -0.9054 -0.2774 -0.4286
  873SOL    HW2 2619   0.666   2.373   2.110 -1.4530  0.1627 -0.7981
  874SOL     OW 2620   0.968   2.891   1.112 -0.1985  0.2102  0.3969
  874SOL    HW1 2621   0.931   2.894   1.018  2.7235 -1.1863 -1.9028
  874SOL    HW2 2622   0.896   2.858   1.174  0.8915  1.7629 -1.3522
  875SOL     OW 2623   3.095   0.234   1.046  0.0071 -0.1412  0.0039
  875SOL    HW1 2624   3.106   0.132   1.046  0.3840  0.4802  0.5777
  875SOL    HW2 2625   3.037   0.268   0.971 -3.8851 -1.0531  2.2757
  876SOL     OW 2626   0.644   0.895   0.149 -0.0574  0.7109  0.0077
  876SOL    HW1 2627   0.617   0.899   0.246 -0.6495  1.0446  0.5624
  876SOL    HW2 2628   0.731   0.843   0.140 -1.8980 -0.5501 -0.5136
  877SOL     OW 2629   0.035   0.677   1.426 -0.4130 -0.1448  0.4293
  877SOL    HW1 2630   0.105   0.606   1.412 -1.1543 -1.8007  1.6351
  877SOL    HW2 2631   0.044   0.726   1.516  0.6908 -1.7554 -0.5530
  878SOL     OW 2632   2.502   2.524   0.527 -0.1345 -0.0860  0.1153
  878SOL    HW1 2633   2.449   2.486   0.604  1.5689  0.7936 -1.3763
  878SOL    HW2 2634   2.477   2.621   0.515  0.0567 -0.4056  1.2162
  879SOL     OW 2635   2.490   1.320   1.262  0.3173 -0.1485  0.2471
  879SOL    HW1 2636   2.573   1.312   1.206  2.4447 -1.6955 -2.7624
  879SOL    HW2 2637   2.438   1.407   1.238  0.6557  0.9926  0.2507
  880SOL     OW 2638   1.581   2.729   1.154 -0.1238 -0.0536  0.2668
  880SOL    HW1 2639   1.670   2.732   1.107 -1.3739  0.9905  4.2895
  880SOL    HW2 2640   1.514   2.665   1.114  1.7358 -0.1166  0.4377
  881SOL     OW 2641   0.884   2.278   0.115  0.3749  0.0949  0.0165
  881SOL    HW1 2642   0.960   2.315   0.169 -3.5913 -1.5709 -3.5472
  881SOL    HW2 2643   0.821   2.224   0.176 -0.0419 -2.0474  2.8186
  882SOL     OW 2644   1.805   0.612   1.277  0.2711  0.4336  0.1410
  882SOL    HW1 2645   1.820   0.585   1.184  0.3308  0.8797  1.9798
  882SOL    HW2 2646   1.810   0.534   1.342  0.2430  0.9116  1.5624
  883SOL     OW 2647   1.417   0.511   1.598 -0.1066  0.0161  0.7537
  883SOL    HW1 2648   1.453   0.573   1.526 -2.7094 -0.5580  0.4658
  883SOL    HW2 2649   1.493   0.497   1.663  0.6482  0.0716 -1.7262
  884SOL     OW 2650   2.738   0.449   0.118 -0.1088  0.3282 -0.4158
  884SOL    HW1 2651   2.647   0.413   0.104  2.1684 -2.3111 -1.5379
  884SOL    HW2 2652   2.737   0.538   0.165  2.3303  0.0393  0.4238
  885SOL     OW 2653   1.149   1.690   3.073 -0.0860 -0.2785 -0.1933
  885SOL    HW1 2654   1.096   1.757   3.017 -1.2883  2.6716 -1.9705
  885SOL    HW2 2655   1.100   1.599   3.075  0.7661 -0.4617  1.5140
  886SOL     OW 2656   1.667   1.451   2.527  0.0628  0.6449  0.1093
  886SOL    HW1 2657   1.703   1.490   2.613  0.7489 -2.3754 -0.7405
  886SOL    HW2 2658   1.661   1.352   2.538 -0.3194  0.2152 -1.4520
  887SOL     OW 2659   1.629   0.170   1.535  0.8310  0.1993  0.1438
  887SOL    HW1 2660   1.531   0.161   1.507  0.7957  0.3205  0.5585
  887SOL    HW2 2661   1.650   0.126   1.623 -2.2766  1.7148 -1.6180
  888SOL     OW 2662   2.529   0.630   2.084  0.4398 -0.7106 -0.2445
  888SOL    HW1 2663   2.557   0.554   2.023  0.1151 -1.9322 -0.1343
  888SOL    HW2 2664   2.566   0.621   2.179 -1.6706  0.8513  2.8598
  889SOL     OW 2665   0.159   2.549   1.055 -0.3248 -0.5920 -0.5493
  889SOL    HW1 2666   0.086   2.558   0.987  1.7192  2.0126  1.5219
  889SOL    HW2 2667   0.246   2.584   1.008  1.5182 -0.3104 -1.8218
  890SOL     OW 2668   2.452   2.426   0.247 -0.4731 -0.4685 -0.6330
  890SOL    HW1 2669   2.369   2.480   0.217  1.2943 -1.4530  1.3544
  890SOL    HW2 2670   2.474   2.448   0.342 -0.7705 -0.7213 -1.4479
  891SOL     OW 2671   0.775   1.627   2.933 -0.0677 -0.1378  0.3149
  891SOL    HW1 2672   0.861   1.605   2.886 -0.4947  0.1990  0.4875
  891SOL    HW2 2673   0.743   1.552   3.000 -1.2764 -0.6894  2.0022
  892SOL     OW 2674   3.101   3.060   1.054  0.5360  0.6297  0.0929
  892SOL    HW1 2675   0.071   3.005   1.040 -2.0471 -0.2093 -2.4490
  892SOL    HW2 2676   3.012   3.012   1.022 -1.4312 -1.0715 -0.3594
  893SOL     OW 2677   1.196   0.071   1.513  0.6390 -0.2712  0.4656
  893SOL    HW1 2678   1.209   3.090   1.543  0.0229  0.5138 -0.3993
  893SOL    HW2 2679   1.112   0.082   1.459 -2.1847  1.0255 -1.1042
  894SOL     OW 2680   2.483   0.437   0.745 -0.0629  0.1400 -0.5309
  894SOL    HW1 2681   2.414   0.503   0.777 -3.3843  1.1061 -1.3981
  894SOL    HW2 2682   2.563   0.477   0.686  4.2598 -0.0540 -2.7317
  895SOL     OW 2683   2.207   2.249   2.041  0.2037 -0.1502  0.1700
  895SOL    HW1 2684   2.254   2.277   2.126  0.0956  1.1212  0.3791
  895SOL    HW2 2685   2.117   2.300   2.032  1.1430 -0.2796 -3.3419
  896SOL     OW 2686   1.402   0.143   1.914  0.7126  0.2862  0.1729
  896SOL    HW1 2687   1.356   0.195   1.836  1.1466 -1.2843 -2.2075
  896SOL    HW2 2688   1.366   0.047   1.908  0.0772 -2.5144  0.0441
  897SOL     OW 2689   0.472   1.735   1.854  0.2125 -0.4213 -0.1223
  897SOL    HW1 2690   0.408   1.750   1.932  0.8482  1.0494 -1.0282
  897SOL    HW2 2691   0.557   1.704   1.897 -2.9578 -0.7853 -0.9921
  898SOL     OW 2692   2.235   2.727   1.982 -0.5199  0.2267 -0.8296
  898SOL    HW1 2693   2.207   2.792   1.910 -0.5472 -4.0259  0.2159
  898SOL    HW2 2694   2.319   2.758   2.038  1.4808  1.7918 -0.5149
  899SOL     OW 2695   0.976   0.792   1.328 -0.4111 -0.1768  0.2569
  899SOL    HW1 2696   1.023   0.858   1.395 -1.2725  1.9606  1.2742
  899SOL    HW2 2697   0.919   0.837   1.251  0.0886  0.3372 -0.3192
  900SOL     OW 2698   1.744   2.158   2.932  0.8097 -0.2625  0.0464
  900SOL    HW1 2699   1.763   2.079   2.996  0.1292  0.8947 -0.4119
  900SOL    HW2 2700   1.723   2.124   2.839  0.1469  0.0006  0.3857
  901SOL     OW 2701   0.821   2.134   2.587  0.6678  0.2662  0.5834
  901SOL    HW1 2702   0.831   2.161   2.684  0.0183 -0.4623 -1.1831
  901SOL    HW2 2703   0.774   2.044   2.574  0.5836 -2.7930 -0.8086
  902SOL     OW 2704   2.111   1.408   0.197  0.6532  0.2155 -0.5794
  902SOL    HW1 2705   2.209   1.390   0.170  0.2211  2.3373 -2.0286
  902SOL    HW2 2706   2.060   1.330   0.244  1.6273  0.6171 -0.0371
  903SOL     OW 2707   1.866   0.817   0.446 -0.1466 -0.0844 -0.2653
  903SOL    HW1 2708   1.861   0.915   0.423  3.7143 -0.1971  2.8952
  903SOL    HW2 2709   1.822   0.758   0.375 -1.3659 -2.8875 -0.7494
  904SOL     OW 2710   0.622   1.103   3.093  0.0218  0.2673 -0.5055
  904SOL    HW1 2711   0.613   1.012   0.034 -1.2196 -1.9418  0.1726
  904SOL    HW2 2712   0.556   1.166   0.020 -0.2780 -2.0593  1.3274
  905SOL     OW 2713   2.312   0.088   1.059 -0.5708  0.1299  0.1352
  905SOL    HW1 2714   2.334   0.069   1.156  0.2617  0.8172 -0.9668
  905SOL    HW2 2715   2.295   0.186   1.035 -1.7160  1.0974 -0.8946
  906SOL     OW 2716   2.603   2.259   1.229 -0.2332 -0.5469 -0.6856
  906SOL    HW1 2717   2.536   2.215   1.292 -0.7995  0.7447 -0.9441
  906SOL    HW2 2718   2.575   2.351   1.209  2.0650 -2.4174  2.8510
  907SOL     OW 2719   1.145   0.655   0.362 -0.3124  0.3096  0.0388
  907SOL    HW1 2720   1.059   0.593   0.367 -1.7996 -1.6169  0.9909
  907SOL    HW2 2721   1.141   0.719   0.443 -0.5875  1.6747  2.8239
  908SOL     OW 2722   2.321   2.869   1.558 -0.2626  0.6284 -0.0112
  908SOL    HW1 2723   2.406   2.838   1.512 -2.0031  1.1884  1.6727
  908SOL    HW2 2724   2.253   2.890   1.487  2.5747 -0.9226  0.6552
  909SOL     OW 2725   2.765   0.943   1.516  0.0922 -0.0916 -0.5412
  909SOL    HW1 2726   2.811   0.898   1.435  0.7126 -2.1951  0.9314
  909SOL    HW2 2727   2.694   1.009   1.494  2.1326 -0.2631 -0.4549
  910SOL     OW 2728   1.570   2.721   2.335 -0.0145  0.3405 -0.3920
  910SOL    HW1 2729   1.510   2.669   2.270  2.2439  0.1716  2.5049
  910SOL    HW2 2730   1.595   2.818   2.305  2.3891  2.1096 -0.4568
  911SOL     OW 2731   2.261   0.342   2.119  0.8398  0.3876  0.3109
  911SOL    HW1 2732   2.221   0.439   2.120 -4.7462  2.9411  2.7019
  911SOL    HW2 2733   2.334   0.329   2.189 -2.0936 -0.3691 -0.9305
  912SOL     OW 2734   2.930   1.290   1.451  0.2845  0.4295  1.1610
  912SOL    HW1 2735   3.018   1.279   1.500  0.8960  0.7265 -2.8670
  912SOL    HW2 2736   2.924   1.378   1.397  0.5857  0.3165  0.8408
  913SOL     OW 2737   2.706   1.893   1.138  0.4441 -0.4762 -0.1895
  913SOL    HW1 2738   2.718   1.920   1.237  1.5019 -0.9142  0.0489
  913SOL    HW2 2739   2.701   1.979   1.079  1.0509 -1.1174 -1.0156
  914SOL     OW 2740   1.961   1.202   1.333  0.4306 -0.1591 -0.0862
  914SOL    HW1 2741   2.033   1.213   1.402 -2.7258 -1.8013 -1.8939
  914SOL    HW2 2742   1.897   1.130   1.350 -2.0083  2.6747  0.8983
  915SOL     OW 2743   0.903   1.211   1.510 -0.4365 -0.0708  0.0499
  915SOL    HW1 2744   0.812   1.259   1.518  0.5906 -1.6331 -1.1443
  915SOL    HW2 2745   0.936   1.180   1.606 -0.5883 -0.3163  1.6772
  916SOL     OW 2746   2.420   2.524   1.473 -0.3081  0.2239  0.2175
  916SOL    HW1 2747   2.446   2.459   1.545 -2.6114  0.3399 -0.6143
  916SOL    HW2 2748   2.469   2.611   1.483  1.8875  1.2273 -1.7858
  917SOL     OW 2749   2.505   2.148   0.170 -0.3966 -0.7283  0.2043
  917SOL    HW1 2750   2.464   2.142   0.079  1.2847 -1.1190  0.0419
  917SOL    HW2 2751   2.475   2.236   0.213  0.0790  0.8923 -0.7374
  918SOL     OW 2752   1.850   2.657   2.740  0.4616  0.7011  0.0552
  918SOL    HW1 2753   1.848   2.661   2.639  0.6893 -0.5873 -0.1477
  918SOL    HW2 2754   1.945   2.648   2.771  1.0578  0.2220  0.5688
  919SOL     OW 2755   1.398   2.035   1.628  0.4482 -0.1378  0.4034
  919SOL    HW1 2756   1.303   2.076   1.614  0.3717  0.6593 -2.0961
  919SOL    HW2 2757   1.462   2.094   1.684  0.5714  0.1439 -2.2845
  920SOL     OW 2758   2.893   0.136   2.696  0.3784  0.4032 -0.3994
  920SOL    HW1 2759   2.824   0.062   2.667 -1.1786 -2.9201 -0.1816
  920SOL    HW2 2760   2.850   0.226   2.710  2.4826 -2.1126 -0.8699
  921SOL     OW 2761   2.871   0.189   1.973 -0.3559  0.4786  0.6195
  921SOL    HW1 2762   2.972   0.164   1.983  1.5220  0.0308 -0.4370
  921SOL    HW2 2763   2.835   0.204   2.065  2.0596  0.2179  1.3276
  922SOL     OW 2764   2.213   2.149   0.304  0.5542  0.3889 -0.2127
  922SOL    HW1 2765   2.281   2.190   0.363  0.1394 -2.9566 -1.2563
  922SOL    HW2 2766   2.247   2.061   0.265  2.3840  2.6138 -1.3345
  923SOL     OW 2767   0.384   2.056   0.128 -0.1250  0.3785 -0.3002
  923SOL    HW1 2768   0.387   1.993   0.048 -1.3126  2.0674  0.6339
  923SOL    HW2 2769   0.437   2.142   0.105  1.2289  0.9672 -1.6291
  924SOL     OW 2770   0.778   0.486   0.114 -0.1712 -0.0478 -0.0075
  924SOL    HW1 2771   0.676   0.486   0.126 -1.7505  3.7004  1.3655
  924SOL    HW2 2772   0.811   0.585   0.108  1.4760 -0.0197 -0.8200
  925SOL     OW 2773   2.380   0.754   0.903 -0.0720 -0.1780 -0.7097
  925SOL    HW1 2774   2.385   0.845   0.852 -1.7879 -0.1205  0.7265
  925SOL    HW2 2775   2.344   0.778   0.995  0.8693  0.9152 -4.0139
  926SOL     OW 2776   2.893   0.893   0.879  0.3120 -0.3051 -0.3439
  926SOL    HW1 2777   2.800   0.850   0.899 -1.2020  0.5503  0.1263
  926SOL    HW2 2778   2.968   0.841   0.924  0.9104  1.4794 -1.3714
  927SOL     OW 2779   3.071   0.992   2.849  0.1352 -0.4242  0.1458
  927SOL    HW1 2780   0.030   0.940   2.799 -1.4610  0.1352  0.2090
  927SOL    HW2 2781   3.088   1.095   2.842  1.2048  3.3309 -1.7204
  928SOL     OW 2782   3.004   0.421   2.538 -0.4141 -0.1144 -0.5548
  928SOL    HW1 2783   3.060   0.337   2.514  0.6716 -1.1288 -1.2561
  928SOL    HW2 2784   2.923   0.404   2.603 -0.0521  2.2186 -2.2125
  929SOL     OW 2785   2.896   2.809   1.172 -0.4047 -0.3904  0.0544
  929SOL    HW1 2786   2.889   2.848   1.078 -2.3935  1.5026 -0.6907
  929SOL    HW2 2787   2.870   2.713   1.173  0.0206 -1.9628  1.9389
  930SOL     OW 2788   2.097   1.650   1.660 -0.6933  0.3240 -0.1306
  930SOL    HW1 2789   2.185   1.659   1.713  0.7439  3.2216 -2.7025
  930SOL    HW2 2790   2.093   1.729   1.597  0.2012 -0.7940  1.5267
  931SOL     OW 2791   1.561   1.629   0.714 -0.1717  0.4302  0.2083
  931SOL    HW1 2792   1.565   1.572   0.798  2.9768 -1.8775  3.3236
  931SOL    HW2 2793   1.498   1.706   0.714  1.9434  1.4420  0.6077
  932SOL     OW 2794   2.660   1.149   1.018 -0.4893  0.2726  0.2748
  932SOL    HW1 2795   2.647   1.078   1.089 -0.1487  0.2661 -0.3263
  932SOL    HW2 2796   2.673   1.243   1.055  3.0263 -1.5224  1.1898
  933SOL     OW 2797   2.420   1.575   1.217 -0.3431 -0.1675 -0.5985
  933SOL    HW1 2798   2.339   1.619   1.172 -0.9670 -0.3668 -0.7809
  933SOL    HW2 2799   2.412   1.570   1.319  0.4455 -0.4486  2.9138
  934SOL     OW 2800   1.769   2.922   1.874  0.0630  0.1004 -0.0149
  934SOL    HW1 2801   1.792   2.822   1.898 -0.8723  0.6036  0.1223
  934SOL    HW2 2802   1.676   2.919   1.835  1.7435 -0.5369  0.5158
  935SOL     OW 2803   0.039   1.709   0.843 -0.1582  0.0281 -0.4281
  935SOL    HW1 2804   3.052   1.688   0.865 -0.9084 -1.0787  0.3496
  935SOL    HW2 2805   0.085   1.741   0.929  1.1789 -0.4350 -1.5447
  936SOL     OW 2806   0.290   1.253   0.498  0.0861 -0.2310  0.4062
  936SOL    HW1 2807   0.271   1.169   0.439  1.1932 -1.4829 -2.9557
  936SOL    HW2 2808   0.367   1.296   0.448  2.2125 -1.7104 -0.8512
  937SOL     OW 2809   2.015   2.778   1.183 -0.4027  0.2201 -0.2564
  937SOL    HW1 2810   1.935   2.786   1.122  1.4207  0.1737  2.8341
  937SOL    HW2 2811   2.096   2.792   1.131 -1.4554  1.4228  3.0369
  938SOL     OW 2812   2.431   2.081   0.905  0.0864 -0.0642  0.7308
  938SOL    HW1 2813   2.375   2.145   0.960  3.2842  3.5136  0.4365
  938SOL    HW2 2814   2.519   2.076   0.953 -2.4134  0.1056  0.1012
  939SOL     OW 2815   0.775   2.106   0.309  0.3089  0.1483  0.4139
  939SOL    HW1 2816   0.812   2.027   0.359  0.3137 -0.6246 -0.9405
  939SOL    HW2 2817   0.758   2.185   0.370 -0.2131 -2.2294  0.9423
  940SOL     OW 2818   2.905   0.111   3.085  0.9492  0.5054  0.0590
  940SOL    HW1 2819   2.983   0.142   3.034 -0.4849 -2.9095  1.3551
  940SOL    HW2 2820   2.926   0.056   0.056 -0.7766 -0.2385  0.8318
  941SOL     OW 2821   1.076   0.163   0.023 -0.2054  0.0748  0.0145
  941SOL    HW1 2822   1.110   0.083   3.084  0.4258  0.4696 -0.8531
  941SOL    HW2 2823   1.146   0.237   0.026  0.2269 -1.6563 -1.9979
  942SOL     OW 2824   1.181   1.609   1.587  0.0010 -0.1671  0.3360
  942SOL    HW1 2825   1.105   1.659   1.635  0.4078  0.8769  2.8919
  942SOL    HW2 2826   1.157   1.571   1.497  0.1337  0.5934  1.1158
  943SOL     OW 2827   1.749   1.065   1.398  0.3670  0.0002 -0.0118
  943SOL    HW1 2828   1.727   1.046   1.496 -2.2222  0.0559 -0.4600
  943SOL    HW2 2829   1.793   0.987   1.348 -0.5171 -1.2137 -1.6938
  944SOL     OW 2830   1.819   0.497   1.669  0.3231 -0.1617  0.0263
  944SOL    HW1 2831   1.803   0.444   1.584 -2.3948 -1.8545 -1.4533
  944SOL    HW2 2832   1.865   0.586   1.653  0.6125 -1.4701  1.2463
  945SOL     OW 2833   0.061   0.140   0.667  0.1770  0.3838  0.4336
  945SOL    HW1 2834   3.098   0.200   0.697  1.9157 -0.6636  1.5749
  945SOL    HW2 2835   0.058   0.126   0.562  1.5874  2.7389 -0.4657
  946SOL     OW 2836   0.515   0.307   1.382 -0.5549  0.5488  0.1881
  946SOL    HW1 2837   0.569   0.385   1.426  0.9494  0.6083 -2.9080
  946SOL    HW2 2838   0.483   0.331   1.291 -1.5263  0.0436  2.9228
  947SOL     OW 2839   0.693   0.075   0.221  0.6838 -0.5266 -0.2142
  947SOL    HW1 2840   0.596   0.066   0.201  0.9279 -0.6066 -0.6804
  947SOL    HW2 2841   0.744   0.109   0.140  1.5998  2.9804 -2.0441
  948SOL     OW 2842   2.683   1.080   1.879  0.3359 -0.0069 -0.4750
  948SOL    HW1 2843   2.601   1.141   1.880  0.2388 -0.7156 -2.6321
  948SOL    HW2 2844   2.740   1.073   1.964  2.9489  1.1850 -0.1584
  949SOL     OW 2845   0.596   1.034   2.823  0.3166  0.3189  0.2204
  949SOL    HW1 2846   0.611   1.052   2.922 -0.2638 -3.0204  0.4321
  949SOL    HW2 2847   0.665   1.080   2.771 -2.9713 -0.6438 -2.2051
  950SOL     OW 2848   0.951   0.664   0.696 -0.2615  0.3497 -0.4867
  950SOL    HW1 2849   1.016   0.604   0.750 -1.2668 -1.4324  0.0369
  950SOL    HW2 2850   1.010   0.734   0.656  1.8557 -1.9383  0.6053
  951SOL     OW 2851   0.956   1.997   2.140 -0.1187  0.5701 -0.4992
  951SOL    HW1 2852   1.045   2.018   2.097  0.3727 -0.7045 -1.0730
  951SOL    HW2 2853   0.920   2.073   2.197 -2.7150 -0.0691  1.8868
  952SOL     OW 2854   0.726   1.646   0.180 -0.5069 -0.2524  0.4065
  952SOL    HW1 2855   0.814   1.685   0.213  3.5176  1.8580  1.7710
  952SOL    HW2 2856   0.664   1.723   0.159 -0.3259  2.8534 -0.2229
  953SOL     OW 2857   1.974   0.058   2.328  0.6768  0.6576  0.3021
  953SOL    HW1 2858   1.920   3.108   2.270 -0.3214  0.4043  0.0110
  953SOL    HW2 2859   2.051   0.085   2.272 -0.7278 -0.7309 -0.5342
  954SOL     OW 2860   1.359   1.172   0.765 -0.2342 -0.4482  0.4895
  954SOL    HW1 2861   1.447   1.187   0.811 -0.3903  0.7162 -0.2761
  954SOL    HW2 2862   1.293   1.248   0.781  0.1507 -1.6651  0.3409
  955SOL     OW 2863   0.418   2.275   2.271  0.1625 -0.0560  0.1079
  955SOL    HW1 2864   0.479   2.309   2.204 -0.2111 -0.3592 -1.4502
  955SOL    HW2 2865   0.448   2.300   2.371 -0.3457  1.0954  2.4160
  956SOL     OW 2866   1.933   0.156   1.592 -0.4093  0.1367 -0.0229
  956SOL    HW1 2867   1.970   0.224   1.657  1.8422 -0.6522 -0.2518
  956SOL    HW2 2868   1.855   0.194   1.544  1.2576 -1.0666  0.4316
  957SOL     OW 2869   1.738   1.906   2.795 -0.3909 -0.1924  0.3634
  957SOL    HW1 2870   1.649   1.898   2.749  2.7749  0.9178  3.2181
  957SOL    HW2 2871   1.723   1.882   2.889 -0.9734  1.5313 -3.1270
  958SOL     OW 2872   1.130   2.127   1.584  0.0073 -0.1463 -0.3328
  958SOL    HW1 2873   1.049   2.116   1.644  3.3847  2.1527  1.8993
  958SOL    HW2 2874   1.112   2.183   1.506 -1.3574 -0.4235  0.5813
  959SOL     OW 2875   2.008   2.162   2.940 -0.4834  0.5127 -0.0998
  959SOL    HW1 2876   2.027   2.232   3.015  0.8322  1.1906  2.0575
  959SOL    HW2 2877   1.907   2.152   2.925 -0.5149 -1.5688  1.6805
  960SOL     OW 2878   0.011   0.048   2.848  0.5294 -0.2267 -0.2186
  960SOL    HW1 2879   0.098   0.059   2.796  1.7363 -0.9438  0.4316
  960SOL    HW2 2880   3.041   0.072   2.788  0.9067  1.2696 -0.1736
  961SOL     OW 2881   0.949   0.957   2.737 -0.2821 -0.1578  0.6165
  961SOL    HW1 2882   1.016   1.022   2.781  0.5624  1.2817  1.5640
  961SOL    HW2 2883   0.975   0.920   2.648 -1.2854  2.4207 -0.0048
  962SOL     OW 2884   1.269   1.405   2.839 -0.0619  0.3330 -0.5648
  962SOL    HW1 2885   1.284   1.338   2.762  1.3838  0.6877 -0.2260
  962SOL    HW2 2886   1.357   1.423   2.881  1.2851 -1.5130 -0.1974
  963SOL     OW 2887   2.352   2.089   3.049 -0.1973  0.0279 -0.6174
  963SOL    HW1 2888   2.410   2.056   2.978 -2.1284  0.2303  2.1792
  963SOL    HW2 2889   2.288   2.159   3.015 -0.1012 -0.4433  0.1041
  964SOL     OW 2890   1.370   2.597   1.060 -0.2376 -0.2828  0.1906
  964SOL    HW1 2891   1.301   2.666   1.059  1.3921 -3.7593 -1.0159
  964SOL    HW2 2892   1.342   2.523   1.124 -1.0578  1.1455 -1.1294
  965SOL     OW 2893   1.139   1.756   0.663 -0.3323 -0.5357  0.6357
  965SOL    HW1 2894   1.137   1.834   0.726 -1.7104  0.5793  1.7780
  965SOL    HW2 2895   1.193   1.681   0.707  2.1882  1.1936  1.7033
  966SOL     OW 2896   3.104   1.222   0.070  0.3848  0.3092 -0.2810
  966SOL    HW1 2897   0.025   1.300   0.126 -1.5229 -0.4092  0.0011
  966SOL    HW2 2898   3.036   1.165   0.121  1.0172 -2.5906  2.9776
  967SOL     OW 2899   1.871   0.134   1.958 -0.1249  0.3197  0.8057
  967SOL    HW1 2900   1.856   0.199   2.030 -4.1190 -1.4674 -1.8008
  967SOL    HW2 2901   1.930   0.177   1.886  2.3414  0.9543 -0.1190
  968SOL     OW 2902   1.669   1.084   0.686  0.3933 -0.1033  0.7771
  968SOL    HW1 2903   1.703   1.174   0.663 -0.0348 -0.9653 -0.2456
  968SOL    HW2 2904   1.620   1.042   0.606  2.5656 -0.0981  0.5202
  969SOL     OW 2905   0.326   1.509   2.232  0.7172 -0.4120 -0.1896
  969SOL    HW1 2906   0.262   1.487   2.155  2.3517  0.1982 -0.0063
  969SOL    HW2 2907   0.420   1.482   2.198  3.7122  0.7060  2.3763
  970SOL     OW 2908   2.418   1.158   0.904  0.1775  0.4440  0.1077
  970SOL    HW1 2909   2.510   1.146   0.943 -1.5126 -0.7298  0.2030
  970SOL    HW2 2910   2.406   1.110   0.815 -1.8973  1.8059 -0.1261
  971SOL     OW 2911   0.392   0.021   1.605  0.3968  0.7546  0.0645
  971SOL    HW1 2912   0.328   0.087   1.568  4.2296  0.2424  0.2114
  971SOL    HW2 2913   0.388   3.056   1.536 -1.3827  1.6335 -1.4680
  972SOL     OW 2914   0.555   0.802   2.735  0.6054 -0.3310  0.8765
  972SOL    HW1 2915   0.550   0.741   2.815 -1.4716  0.0361 -0.2219
  972SOL    HW2 2916   0.576   0.895   2.775 -0.4519 -3.0058 -0.7059
  973SOL     OW 2917   0.186   1.052   0.983  0.2911 -0.1355  0.6870
  973SOL    HW1 2918   0.094   1.096   0.973  0.8978  1.1870  2.5250
  973SOL    HW2 2919   0.172   0.976   1.047  1.5993  1.5418 -0.5164
  974SOL     OW 2920   2.003   0.785   1.930  0.1855  0.0821 -0.5062
  974SOL    HW1 2921   1.987   0.753   1.834  0.6355 -0.5627 -1.9289
  974SOL    HW2 2922   2.097   0.819   1.940  0.7194 -0.2680 -2.0640
  975SOL     OW 2923   2.504   0.049   3.100  0.0458  0.2364  0.5777
  975SOL    HW1 2924   2.463   3.082   3.049  1.7124 -1.5619  1.6606
  975SOL    HW2 2925   2.514   0.031   0.091 -0.5406  0.1136  1.9634
  976SOL     OW 2926   0.058   1.233   1.592 -0.1303  0.9195  0.5203
  976SOL    HW1 2927   0.154   1.246   1.568 -0.7293 -2.0610 -0.3335
  976SOL    HW2 2928   0.047   1.153   1.654  2.0983 -0.5186 -0.5865
  977SOL     OW 2929   1.198   2.703   0.338 -0.1828 -0.0165 -0.0620
  977SOL    HW1 2930   1.242   2.727   0.249 -0.1725  0.7061  0.4360
  977SOL    HW2 2931   1.097   2.720   0.336  0.1337 -1.4261 -0.8569
  978SOL     OW 2932   0.723   1.437   0.365  0.4227  0.1386  0.0338
  978SOL    HW1 2933   0.712   1.513   0.299 -1.0421 -1.7401  1.1614
  978SOL    HW2 2934   0.771   1.354   0.324  2.1600 -1.5742  2.2281
  979SOL     OW 2935   1.571   1.670   1.331  0.4349  0.0333 -0.3151
  979SOL    HW1 2936   1.499   1.705   1.397  0.7039 -2.7668 -0.3512
  979SOL    HW2 2937   1.554   1.570   1.311 -0.0467 -4.2566 -0.1921
  980SOL     OW 2938   0.404   1.473   1.793  0.3557 -0.3854  0.0304
  980SOL    HW1 2939   0.429   1.569   1.817  0.8852  1.1939  0.8573
  980SOL    HW2 2940   0.438   1.449   1.699 -1.5646  0.9403 -2.6692
  981SOL     OW 2941   0.022   1.428   0.250  0.4944  0.3485 -0.0381
  981SOL    HW1 2942   0.030   1.404   0.352  1.2633  0.3173  1.4322
  981SOL    HW2 2943   0.047   1.525   0.231 -2.3571  0.1494  1.9804
  982SOL     OW 2944   2.410   2.852   2.136 -0.4658 -0.1534 -0.0770
  982SOL    HW1 2945   2.394   2.943   2.182 -0.7152  2.6401  2.6819
  982SOL    HW2 2946   2.505   2.848   2.092  1.6430  2.4776 -0.2822
  983SOL     OW 2947   1.306   0.577   1.225  0.0721 -0.0167  0.2363
  983SOL    HW1 2948   1.283   0.664   1.174 -2.4341  1.3611  1.6897
  983SOL    HW2 2949   1.329   0.491   1.175 -0.1453 -1.5053 -2.7056
  984SOL     OW 2950   1.062   3.042   2.631  0.6108  0.2045  1.1047
  984SOL    HW1 2951   1.120   0.012   2.640 -0.6339 -5.0722 -1.6660
  984SOL    HW2 2952   0.995   3.051   2.557  0.6820  0.0041  0.3487
  985SOL     OW 2953   1.878   2.255   1.608  0.0784  0.0165  0.4589
  985SOL    HW1 2954   1.885   2.282   1.509  2.3679  1.1487 -0.7435
  985SOL    HW2 2955   1.845   2.155   1.619 -0.0152 -3.2084 -0.7021
  986SOL     OW 2956   2.555   0.185   2.449 -0.2650  0.0981 -0.1783
  986SOL    HW1 2957   2.504   0.274   2.448 -1.7561 -1.3162  0.6526
  986SOL    HW2 2958   2.574   0.153   2.542  1.4174 -1.1034  0.4507
  987SOL     OW 2959   2.640   0.568   2.341 -0.4600 -0.1086 -0.5499
  987SOL    HW1 2960   2.734   0.562   2.295  0.8562  0.8057  1.3375
  987SOL    HW2 2961   2.623   0.666   2.371  2.3022  0.4013 -0.9123
  988SOL     OW 2962   2.460   0.729   2.725 -0.0260 -0.4183 -0.0689
  988SOL    HW1 2963   2.392   0.665   2.766  0.6162  1.1490  1.3409
  988SOL    HW2 2964   2.431   0.826   2.725 -1.0553  0.7177 -1.3037
  989SOL     OW 2965   2.352   1.709   2.060 -0.1680 -0.1315 -0.2075
  989SOL    HW1 2966   2.281   1.719   2.133 -1.8136 -0.9235  0.8741
  989SOL    HW2 2967   2.416   1.788   2.071  1.1002  0.6655 -1.1599
  990SOL     OW 2968   0.324   1.114   2.807  0.0730  0.6050  0.1719
  990SOL    HW1 2969   0.262   1.195   2.813 -1.1024  3.4658 -1.6705
  990SOL    HW2 2970   0.420   1.137   2.809  1.3847  1.9889  2.4477
  991SOL     OW 2971   0.415   2.040   2.607 -0.2656 -0.5341  0.2476
  991SOL    HW1 2972   0.351   1.984   2.552 -1.8758 -0.1985  1.4950
  991SOL    HW2 2973   0.373   2.053   2.701  2.5703 -1.4859  1.3220
  992SOL     OW 2974   2.742   1.768   1.930  0.4617  0.0418 -0.3154
  992SOL    HW1 2975   2.686   1.831   1.872  2.2859 -3.3079  0.6449
  992SOL    HW2 2976   2.704   1.753   2.019  3.5907 -1.0276 -0.9255
  993SOL     OW 2977   0.316   0.206   0.742 -0.3528 -0.1845  0.2749
  993SOL    HW1 2978   0.361   0.114   0.762  1.7458 -0.7669  0.5123
  993SOL    HW2 2979   0.219   0.191   0.712 -1.2186 -1.2260 -0.4164
  994SOL     OW 2980   0.332   1.743   1.482  0.1790  0.0567 -0.5188
  994SOL    HW1 2981   0.426   1.783   1.506  3.4075  0.1021 -2.9445
  994SOL    HW2 2982   0.258   1.815   1.473 -0.0470  2.0162 -0.4916
  995SOL     OW 2983   1.949   1.668   2.836  0.6820 -0.4270  0.4799
  995SOL    HW1 2984   1.971   1.605   2.910 -1.2446  3.8646  0.5068
  995SOL    HW2 2985   1.976   1.763   2.857 -0.5943  0.7168  0.8016
  996SOL     OW 2986   1.909   1.230   2.747  0.0660 -0.4307  0.0444
  996SOL    HW1 2987   1.957   1.316   2.718 -2.0062 -0.9660 -2.6649
  996SOL    HW2 2988   1.839   1.208   2.676 -1.3459 -1.4158 -0.9342
  997SOL     OW 2989   1.691   0.972   1.648 -0.0158  0.2099 -0.4118
  997SOL    HW1 2990   1.727   1.002   1.741 -1.7408 -0.1256  1.2005
  997SOL    HW2 2991   1.591   0.943   1.659 -1.8891  1.0363 -0.9992
  998SOL     OW 2992   2.084   2.055   1.071 -0.2844 -0.2566  0.1001
  998SOL    HW1 2993   2.127   2.001   0.996  0.3146  1.4870  2.8357
  998SOL    HW2 2994   2.156   2.114   1.120 -0.0533  0.5747 -1.8185
  999SOL     OW 2995   2.312   2.420   0.701 -0.3965 -0.0112  0.3053
  999SOL    HW1 2996   2.247   2.360   0.750 -1.7898 -0.1747 -0.6144
  999SOL    HW2 2997   2.288   2.521   0.717 -1.4255 -2.2501  0.7447
 1000SOL     OW 2998   1.058   2.843   2.819  0.2811 -0.0665  0.7258
 1000SOL    HW1 2999   1.050   2.900   2.735  1.5824  0.7629  0.0957
 1000SOL    HW2 3000   1.158   2.819   2.832  0.7808 -1.2817  0.0848
   3.11137   3.11137   3.11137
