1000 SPC/Fw water molecules t= 180.00000 step= 180000
 3000
    1SOL     OW    1   2.663   3.010   1.040 -0.2407  0.4882 -0.1791
    1SOL    HW1    2   2.606   3.092   1.065 -0.3570 -0.7749  0.9852
    1SOL    HW2    3   2.643   2.977   0.946  4.7289 -4.0638  1.3210
    2SOL     OW    4   1.616   1.837   1.984  0.4129  0.1312 -0.1391
    2SOL    HW1    5   1.591   1.751   1.940 -0.6301  1.5456  1.1479
    2SOL    HW2    6   1.591   1.919   1.930 -1.7326 -0.2995  0.2673
    3SOL     OW    7   1.665   2.466   2.158 -0.2298 -0.0692  0.0198
    3SOL    HW1    8   1.740   2.521   2.125  0.0575 -1.5451  0.6484
    3SOL    HW2    9   1.695   2.396   2.226 -1.3387  0.6453 -0.3955
    4SOL     OW   10   2.002   2.196   1.902 -0.3329 -0.5137 -0.4238
    4SOL    HW1   11   1.999   2.249   1.991 -1.0372  1.9751  3.2795
    4SOL    HW2   12   2.043   2.259   1.829 -3.3423  0.8804 -0.2405
    5SOL     OW   13   1.062   0.690   1.936 -0.1614 -0.0345  0.1959
    5SOL    HW1   14   1.143   0.754   1.957 -1.2443  0.9233  0.7645
    5SOL    HW2   15   0.995   0.727   1.870 -0.1040 -1.0590 -1.5071
    6SOL     OW   16   2.738   0.728   3.023  0.1343  0.0996 -0.4904
    6SOL    HW1   17   2.735   0.624   3.016 -2.9507 -1.6578  1.4435
    6SOL    HW2   18   2.646   0.764   3.063  0.2428 -1.6824  0.9538
    7SOL     OW   19   1.164   0.973   1.605  0.2337 -0.0954  0.1475
    7SOL    HW1   20   1.162   0.871   1.614  0.9008 -1.3792  2.1695
    7SOL    HW2   21   1.166   1.002   1.508  0.7184 -0.7396  0.1752
    8SOL     OW   22   0.980   0.109   1.248 -0.1979 -0.3064  0.5781
    8SOL    HW1   23   0.956   0.177   1.180 -0.2616  0.9383  1.6347
    8SOL    HW2   24   0.905   0.039   1.262 -1.3397 -0.7143 -1.7895
    9SOL     OW   25   0.767   1.021   0.000  0.4318  0.4823  0.3473
    9SOL    HW1   26   0.694   1.089   0.011  0.4832 -3.1801  0.2733
    9SOL    HW2   27   0.817   1.006   0.094  3.0291 -1.1057  2.2911
   10SOL     OW   28   0.334   2.823   0.255 -0.2567  0.1074 -0.2155
   10SOL    HW1   29   0.252   2.869   0.294 -0.1628 -0.3255 -1.6073
   10SOL    HW2   30   0.319   2.721   0.238  0.7808  0.2177  0.1806
   11SOL     OW   31   0.323   1.464   3.073 -0.1005  0.6237  0.5829
   11SOL    HW1   32   0.402   1.444   3.006  2.1099 -1.6776 -3.5659
   11SOL    HW2   33   0.238   1.483   3.017  0.4015 -0.9989  1.9545
   12SOL     OW   34   0.725   0.007   1.449 -0.2024 -0.5446  0.4006
   12SOL    HW1   35   0.803   3.099   1.511  1.1064  1.1124 -4.6112
   12SOL    HW2   36   0.648   3.039   1.467 -2.1007  1.8043 -2.3167
   13SOL     OW   37   1.015   2.923   0.445  0.3932 -0.5146 -0.1931
   13SOL    HW1   38   1.085   2.974   0.500  0.4466  0.1925  3.0873
   13SOL    HW2   39   0.920   2.960   0.479 -2.5156 -1.3900  1.5670
   14SOL     OW   40   1.149   2.028   1.426 -0.3296 -0.2167 -0.1124
   14SOL    HW1   41   1.073   2.037   1.494 -0.7873  0.6674  0.8235
   14SOL    HW2   42   1.206   1.941   1.429 -0.7260  0.6658  0.4597
   15SOL     OW   43   2.941   0.758   2.164  0.1032 -0.6631 -0.4077
   15SOL    HW1   44   2.888   0.819   2.228 -0.1784  0.6083  1.1468
   15SOL    HW2   45   2.919   0.659   2.178  1.7980  0.0364  0.9817
   16SOL     OW   46   1.271   2.871   2.664 -0.0046  0.6356 -0.3520
   16SOL    HW1   47   1.285   2.788   2.602  1.0501  0.9685 -1.4444
   16SOL    HW2   48   1.254   2.842   2.760  1.5005 -1.6409 -0.1622
   17SOL     OW   49   0.978   3.060   1.611  0.1533  0.2033 -0.2711
   17SOL    HW1   50   1.046   0.002   1.676  0.4888  0.8005 -1.2129
   17SOL    HW2   51   0.906   3.013   1.667 -0.0226 -1.3590  1.1205
   18SOL     OW   52   1.141   0.724   0.299 -0.0487 -0.1232 -0.4053
   18SOL    HW1   53   1.045   0.700   0.286 -0.0456  2.0323 -1.3238
   18SOL    HW2   54   1.201   0.675   0.232  0.0520  1.4877  0.2811
   19SOL     OW   55   2.126   1.661   2.937 -0.0038 -0.4585 -0.4554
   19SOL    HW1   56   2.049   1.723   2.911  0.7924 -1.4101  1.1780
   19SOL    HW2   57   2.207   1.677   2.877  1.7121  1.9943  1.2342
   20SOL     OW   58   2.034   1.558   1.800  0.2031 -0.0256 -0.5464
   20SOL    HW1   59   1.985   1.628   1.862  0.5752  0.5757  1.9358
   20SOL    HW2   60   1.993   1.568   1.707  1.8154 -0.1382  1.1023
   21SOL     OW   61   0.579   1.421   2.967 -0.1794 -0.0140  0.2908
   21SOL    HW1   62   0.579   1.523   2.979 -2.4882 -1.8220 -0.2454
   21SOL    HW2   63   0.616   1.401   2.876  1.6908  1.9689  0.3908
   22SOL     OW   64   2.640   0.003   1.333 -0.5578 -0.1421 -0.2300
   22SOL    HW1   65   2.551   3.057   1.341  0.5152  3.3883  1.7361
   22SOL    HW2   66   2.636   0.063   1.253  1.4783 -0.3981  4.6869
   23SOL     OW   67   3.028   0.855   1.580  0.3467  0.0282 -0.0323
   23SOL    HW1   68   3.014   0.918   1.507 -0.7744 -2.7498 -1.5412
   23SOL    HW2   69   2.992   0.760   1.543 -1.4449  0.6039  1.4034
   24SOL     OW   70   2.632   2.281   1.549  0.2630 -0.4321 -0.3328
   24SOL    HW1   71   2.598   2.374   1.527 -1.2002 -0.0579  2.0019
   24SOL    HW2   72   2.727   2.287   1.571 -0.3120 -2.9303  0.3034
   25SOL     OW   73   1.964   2.896   2.525  0.0741 -0.1128  0.2489
   25SOL    HW1   74   1.963   2.885   2.424 -0.1649 -0.3893  0.6449
   25SOL    HW2   75   1.868   2.898   2.555  3.4931  2.6702  0.4741
   26SOL     OW   76   1.364   2.947   3.083 -0.3928 -0.1884  0.6814
   26SOL    HW1   77   1.295   2.908   3.018 -0.0960 -0.4126 -0.6835
   26SOL    HW2   78   1.447   2.886   3.088  0.6012 -1.3229  1.6348
   27SOL     OW   79   0.491   2.351   2.988  0.2255 -0.2383  0.2237
   27SOL    HW1   80   0.488   2.309   3.077  0.3043  3.0324  0.5307
   27SOL    HW2   81   0.513   2.283   2.920 -0.9510  1.2950  3.2767
   28SOL     OW   82   0.116   1.415   1.297 -0.0957  0.4280  0.1697
   28SOL    HW1   83   0.149   1.431   1.203 -0.0934 -1.9634 -0.7748
   28SOL    HW2   84   0.186   1.446   1.361 -2.2207 -1.0510 -1.0347
   29SOL     OW   85   2.611   1.891   2.141 -0.1397 -0.4908 -0.0024
   29SOL    HW1   86   2.560   1.854   2.221  0.2630  0.3355 -0.3894
   29SOL    HW2   87   2.709   1.897   2.170  1.3302  0.7169 -4.1165
   30SOL     OW   88   1.170   3.050   0.950 -0.4819  0.0720  0.0625
   30SOL    HW1   89   1.189   2.988   1.027 -0.3229  0.1140 -0.8336
   30SOL    HW2   90   1.184   0.044   0.985 -2.5440 -0.8201  0.5437
   31SOL     OW   91   0.119   2.323   1.773  0.2358 -0.1738  0.1065
   31SOL    HW1   92   0.076   2.413   1.798 -0.3590 -1.1091 -0.2069
   31SOL    HW2   93   0.212   2.318   1.811  2.2742  2.3851 -0.2156
   32SOL     OW   94   1.284   0.961   1.877 -0.2213 -0.1170 -0.1448
   32SOL    HW1   95   1.275   0.976   1.776  1.6670  0.1177 -0.2492
   32SOL    HW2   96   1.252   1.045   1.932  0.0767 -0.1503 -1.0068
   33SOL     OW   97   0.190   2.703   2.245 -0.1600  0.1982  0.2088
   33SOL    HW1   98   0.120   2.632   2.250 -0.5504  0.0476 -1.5884
   33SOL    HW2   99   0.203   2.725   2.143 -0.4933  0.4773  0.0251
   34SOL     OW  100   2.136   0.256   0.742 -0.0202  0.1258  0.2547
   34SOL    HW1  101   2.162   0.184   0.676 -1.0816  1.7322 -0.7879
   34SOL    HW2  102   2.155   0.350   0.701 -1.9986 -1.8846 -1.2843
   35SOL     OW  103   2.317   0.764   1.513 -0.0449 -0.2051 -0.3380
   35SOL    HW1  104   2.272   0.850   1.532 -0.0017  0.9950 -2.1824
   35SOL    HW2  105   2.418   0.772   1.528 -0.7178  0.6878 -0.4217
   36SOL     OW  106   2.315   2.558   2.043 -0.0891  0.2200  0.3985
   36SOL    HW1  107   2.246   2.572   1.966  0.6879  0.1651  0.5884
   36SOL    HW2  108   2.275   2.564   2.133  0.6045 -0.7966 -2.6291
   37SOL     OW  109   0.776   2.266   2.394  0.0286  0.8212 -0.0902
   37SOL    HW1  110   0.834   2.229   2.322 -2.9256  2.1968  1.2847
   37SOL    HW2  111   0.831   2.326   2.459  0.7032  2.5290  2.2601
   38SOL     OW  112   2.673   0.269   2.814  0.2816 -0.1267 -0.6777
   38SOL    HW1  113   2.742   0.261   2.741  0.8953 -0.6328  1.6526
   38SOL    HW2  114   2.633   0.177   2.836 -1.5675 -0.3146 -0.9079
   39SOL     OW  115   1.896   1.742   1.933 -0.0330 -0.1722 -0.6428
   39SOL    HW1  116   1.799   1.766   1.927 -0.3424 -0.1354 -1.7336
   39SOL    HW2  117   1.957   1.820   1.953  2.3560  0.0802 -0.1859
   40SOL     OW  118   0.047   2.936   2.629 -0.0637  0.2348  0.1430
   40SOL    HW1  119   3.063   2.892   2.666 -1.5773 -0.2840  2.9077
   40SOL    HW2  120   0.113   2.876   2.581 -1.6007  0.2609 -0.3966
   41SOL     OW  121   1.855   0.483   1.190  0.1640 -0.0757 -0.4566
   41SOL    HW1  122   1.945   0.444   1.210 -1.1213  2.2101  2.3470
   41SOL    HW2  123   1.809   0.435   1.112  2.3279  1.3904  2.9999
   42SOL     OW  124   1.141   0.102   1.813 -0.0268  0.4763  0.1669
   42SOL    HW1  125   1.189   0.195   1.815 -0.2624  2.1373  1.3108
   42SOL    HW2  126   1.088   0.101   1.896  1.0655  0.0739 -0.5796
   43SOL     OW  127   2.281   0.845   2.249  0.7156  0.0210 -0.6804
   43SOL    HW1  128   2.282   0.920   2.319 -0.2550  0.1641 -1.4629
   43SOL    HW2  129   2.282   0.891   2.159  1.2021  4.2537 -0.7430
   44SOL     OW  130   0.076   2.980   0.286  0.5998 -0.7555 -0.0964
   44SOL    HW1  131   3.090   2.939   0.257 -1.4079  2.1240  1.3056
   44SOL    HW2  132   0.111   3.054   0.227 -0.7610 -1.6482  0.4093
   45SOL     OW  133   0.285   2.562   1.907 -0.4593 -0.1442  0.4129
   45SOL    HW1  134   0.264   2.656   1.932 -1.2576  1.2684  2.6314
   45SOL    HW2  135   0.289   2.548   1.808 -1.0118 -1.6222  2.3561
   46SOL     OW  136   1.995   2.322   2.157  0.4539 -0.1106 -0.0929
   46SOL    HW1  137   2.078   2.285   2.194 -2.1301 -0.6941  3.6222
   46SOL    HW2  138   1.972   2.402   2.208  1.6442 -1.1183 -1.4750
   47SOL     OW  139   1.631   2.086   1.355  0.8252 -0.6202 -0.7057
   47SOL    HW1  140   1.530   2.097   1.357  2.6803 -1.7409 -0.3014
   47SOL    HW2  141   1.676   2.176   1.367  0.4122 -1.0425  0.0944
   48SOL     OW  142   0.563   1.679   0.465 -0.4881 -0.2706 -0.0098
   48SOL    HW1  143   0.609   1.755   0.418 -0.9807 -1.1404  0.0337
   48SOL    HW2  144   0.561   1.695   0.566 -0.3141  0.0894 -1.2155
   49SOL     OW  145   2.653   0.484   2.391  0.0645  0.1523 -0.0844
   49SOL    HW1  146   2.596   0.564   2.414  0.4995 -0.9415 -0.6387
   49SOL    HW2  147   2.735   0.515   2.339  0.0921  1.4325  0.1426
   50SOL     OW  148   2.152   0.881   0.671 -0.1477 -0.5313 -0.2582
   50SOL    HW1  149   2.063   0.934   0.652 -1.6777  2.8382 -3.3111
   50SOL    HW2  150   2.217   0.944   0.715 -2.1688 -1.3964  1.7518
   51SOL     OW  151   1.447   0.292   0.860  0.5678 -0.0488  0.3779
   51SOL    HW1  152   1.352   0.258   0.887 -3.6034  0.8070 -1.3408
   51SOL    HW2  153   1.437   0.359   0.781 -1.9281  2.2216 -1.7827
   52SOL     OW  154   1.331   1.290   0.003 -0.3909 -0.2272  0.3317
   52SOL    HW1  155   1.286   1.244   0.079  0.7866  1.6276 -7.3378
   52SOL    HW2  156   1.356   1.389   0.028  0.0487  1.2689  0.0929
   53SOL     OW  157   0.838   1.900   2.648  0.1257  0.0541  0.1451
   53SOL    HW1  158   0.836   1.985   2.697  0.8570 -1.8231  0.3066
   53SOL    HW2  159   0.745   1.857   2.645  0.8757 -1.1389 -0.4425
   54SOL     OW  160   2.138   0.391   1.225  0.2745  0.1925  0.0732
   54SOL    HW1  161   2.161   0.492   1.220 -0.8182  2.0914  0.5915
   54SOL    HW2  162   2.194   0.352   1.297  0.5603  1.1550 -2.1715
   55SOL     OW  163   2.264   2.806   0.561 -0.3808 -0.4988 -0.7619
   55SOL    HW1  164   2.335   2.877   0.536 -1.6321 -1.7380 -0.0151
   55SOL    HW2  165   2.192   2.816   0.493  2.4869 -0.6361  0.5104
   56SOL     OW  166   0.488   2.944   1.414  0.2901  0.1512 -0.2947
   56SOL    HW1  167   0.404   2.973   1.464 -0.3247  0.9780  1.1784
   56SOL    HW2  168   0.508   2.844   1.426 -0.8521 -1.1042  0.1615
   57SOL     OW  169   1.599   1.253   0.698 -0.1216 -0.0181  0.2331
   57SOL    HW1  170   1.549   1.217   0.615  0.8599  1.7490  0.4115
   57SOL    HW2  171   1.662   1.326   0.668  0.7560  0.3420 -0.5683
   58SOL     OW  172   0.275   0.860   2.323  0.2004 -0.1167 -0.4914
   58SOL    HW1  173   0.258   0.945   2.267 -0.2417  2.1925 -2.3726
   58SOL    HW2  174   0.186   0.822   2.355  1.4128  2.5076 -2.0635
   59SOL     OW  175   0.929   2.916   2.262  0.7283 -0.7184  0.3473
   59SOL    HW1  176   1.009   2.917   2.318 -0.5126  1.8553 -0.6743
   59SOL    HW2  177   0.863   2.974   2.312  0.0593 -2.7870  0.0646
   60SOL     OW  178   2.499   2.567   0.999  0.6143  0.2152  0.3314
   60SOL    HW1  179   2.433   2.640   0.986  2.6571 -0.5292 -2.0361
   60SOL    HW2  180   2.462   2.500   1.064  2.4605  3.7801 -0.1891
   61SOL     OW  181   1.199   2.026   0.937 -0.0335 -0.2738  0.3327
   61SOL    HW1  182   1.144   2.112   0.960 -0.8403 -2.0240  0.9881
   61SOL    HW2  183   1.232   1.974   1.020 -1.7670  0.0509 -1.6502
   62SOL     OW  184   2.082   2.370   2.675 -0.3049  0.0320  0.0968
   62SOL    HW1  185   2.079   2.303   2.752 -1.4345  0.7796 -1.2604
   62SOL    HW2  186   2.145   2.446   2.699  1.6737 -1.1970  1.9715
   63SOL     OW  187   2.315   0.683   2.880  0.0991 -0.4654  0.4444
   63SOL    HW1  188   2.216   0.691   2.904 -2.0372 -1.1587  1.3324
   63SOL    HW2  189   2.345   0.586   2.858  1.3976 -0.4620 -2.5230
   64SOL     OW  190   0.915   1.168   2.907 -0.7108  0.2107  0.0870
   64SOL    HW1  191   0.944   1.243   2.965 -1.1619  1.2986 -1.4307
   64SOL    HW2  192   0.843   1.112   2.954  0.4122  0.7743 -0.9396
   65SOL     OW  193   1.266   2.284   0.644  0.0473 -0.1499 -0.4717
   65SOL    HW1  194   1.204   2.350   0.690  0.3333 -2.0155 -1.5817
   65SOL    HW2  195   1.225   2.262   0.553 -0.1857 -3.6060  4.4372
   66SOL     OW  196   0.687   1.088   1.646 -0.2727 -0.5881 -0.1130
   66SOL    HW1  197   0.628   1.017   1.684 -0.3502  3.1763 -0.2514
   66SOL    HW2  198   0.782   1.085   1.665 -1.1641 -2.1999  0.4127
   67SOL     OW  199   2.420   2.829   2.422 -0.5406  0.4500  0.1830
   67SOL    HW1  200   2.356   2.830   2.502  0.4351 -1.2815  0.9937
   67SOL    HW2  201   2.419   2.918   2.377  0.1744 -3.1140 -2.7982
   68SOL     OW  202   0.702   1.520   1.144  0.2857 -0.0874 -0.5909
   68SOL    HW1  203   0.787   1.580   1.165 -0.3094  0.8257 -2.3788
   68SOL    HW2  204   0.733   1.422   1.155  0.8419  0.7170 -0.9642
   69SOL     OW  205   1.533   2.416   0.227  0.0021  0.2606 -0.1818
   69SOL    HW1  206   1.568   2.360   0.303  1.0052  0.1126  1.9762
   69SOL    HW2  207   1.527   2.515   0.244  0.0939  0.8141 -0.6114
   70SOL     OW  208   3.097   1.002   2.540 -0.0566  0.3408  0.3571
   70SOL    HW1  209   3.009   1.019   2.591  2.9841  0.9781  3.4281
   70SOL    HW2  210   3.082   0.930   2.466 -1.0254 -2.0757 -0.3822
   71SOL     OW  211   3.044   1.574   2.646 -0.2184  0.3508  0.1040
   71SOL    HW1  212   0.004   1.579   2.564  1.6212 -0.3370 -0.9376
   71SOL    HW2  213   3.085   1.625   2.728  0.7701  1.1837 -0.6225
   72SOL     OW  214   2.583   2.462   0.443 -0.2223 -0.0195 -0.6627
   72SOL    HW1  215   2.618   2.495   0.354 -1.4566  0.9114 -3.0217
   72SOL    HW2  216   2.491   2.497   0.469  0.8201  2.4812  0.2160
   73SOL     OW  217   0.686   1.896   0.378 -0.4216  0.3112 -0.9130
   73SOL    HW1  218   0.619   1.973   0.370 -0.1918 -1.3154 -0.1417
   73SOL    HW2  219   0.757   1.933   0.440 -1.4741  3.0927 -0.4194
   74SOL     OW  220   2.905   1.309   2.672 -0.5481 -0.7732 -0.3499
   74SOL    HW1  221   2.974   1.357   2.616  0.0002 -0.4519  0.1059
   74SOL    HW2  222   2.823   1.284   2.615 -2.0744  1.2705  0.9301
   75SOL     OW  223   1.661   1.433   1.966 -0.6920 -0.2334  0.3849
   75SOL    HW1  224   1.667   1.453   2.066 -0.4444  1.1350  1.2281
   75SOL    HW2  225   1.600   1.499   1.921  1.8823  0.0217  0.9794
   76SOL     OW  226   1.746   2.332   1.380  0.7905  0.3092  0.1685
   76SOL    HW1  227   1.744   2.382   1.471 -2.6914 -1.0487  0.3910
   76SOL    HW2  228   1.776   2.391   1.299 -0.4904 -0.9316 -1.1031
   77SOL     OW  229   2.564   0.973   1.233 -0.4107 -0.0742  0.0655
   77SOL    HW1  230   2.637   0.901   1.244 -1.4900  0.8637 -1.1166
   77SOL    HW2  231   2.493   0.951   1.161 -0.8021  1.2811 -1.7197
   78SOL     OW  232   1.347   0.942   0.583  0.1722 -0.1082  0.0034
   78SOL    HW1  233   1.304   0.992   0.656 -1.5511 -0.6570 -3.2509
   78SOL    HW2  234   1.409   1.004   0.535 -0.8024  0.9357  3.1825
   79SOL     OW  235   0.212   1.762   1.739 -0.2016 -0.1432 -0.0298
   79SOL    HW1  236   0.258   1.827   1.680  1.3474  1.8528  0.2716
   79SOL    HW2  237   0.257   1.671   1.738 -1.9349 -0.9068 -0.4653
   80SOL     OW  238   1.515   1.022   1.643 -0.5035  0.0690 -0.2141
   80SOL    HW1  239   1.530   0.920   1.625  0.3775 -1.4763 -0.2545
   80SOL    HW2  240   1.495   1.071   1.555 -1.2200  1.0306 -0.6117
   81SOL     OW  241   0.866   0.153   0.719 -0.3668 -0.1850 -0.0149
   81SOL    HW1  242   0.768   0.164   0.738  4.8873  1.8218 -1.1051
   81SOL    HW2  243   0.894   0.228   0.652 -0.8236  0.5938 -1.2049
   82SOL     OW  244   1.522   2.726   1.531 -0.5082 -0.0692 -0.0959
   82SOL    HW1  245   1.520   2.815   1.485  0.5127  0.7051  3.2638
   82SOL    HW2  246   1.611   2.726   1.572 -0.1747 -0.1309 -0.9861
   83SOL     OW  247   0.780   2.161   0.926 -0.5556  0.7164  0.1606
   83SOL    HW1  248   0.685   2.156   0.962  1.1961  0.0569 -1.6770
   83SOL    HW2  249   0.831   2.080   0.965 -1.5476 -0.7136  0.8265
   84SOL     OW  250   0.309   1.435   2.627 -0.0732 -0.3077 -0.1579
   84SOL    HW1  251   0.245   1.368   2.583  0.0245  1.4649  0.7221
   84SOL    HW2  252   0.347   1.498   2.558  1.7135 -0.6575  1.2138
   85SOL     OW  253   0.114   2.305   1.336  0.4158 -0.0186 -0.1831
   85SOL    HW1  254   0.065   2.252   1.408  0.0627  2.2515  1.5344
   85SOL    HW2  255   0.170   2.384   1.372 -1.5808  0.5418  0.9659
   86SOL     OW  256   2.376   2.258   1.655 -0.6211 -0.3044  0.2189
   86SOL    HW1  257   2.392   2.330   1.731 -0.2532 -0.8613  1.5190
   86SOL    HW2  258   2.454   2.251   1.591 -3.5930  0.4968 -0.8743
   87SOL     OW  259   2.488   2.199   0.181  0.1704 -0.0398  0.1638
   87SOL    HW1  260   2.435   2.169   0.265 -0.7935 -0.3054  2.8836
   87SOL    HW2  261   2.567   2.136   0.168  0.3671 -0.5906  2.4190
   88SOL     OW  262   0.490   1.622   0.981  0.0073  0.9338 -0.2571
   88SOL    HW1  263   0.401   1.609   1.030 -0.0811 -0.5640 -1.9893
   88SOL    HW2  264   0.566   1.589   1.040 -0.4610  3.6222 -0.5312
   89SOL     OW  265   1.071   2.752   1.833  0.2422  0.5150 -0.2003
   89SOL    HW1  266   1.070   2.721   1.738  2.5962  3.4793  2.2926
   89SOL    HW2  267   1.141   2.825   1.842 -1.1492 -1.0720  0.5865
   90SOL     OW  268   2.990   1.773   1.381  0.1501 -0.0387 -0.1099
   90SOL    HW1  269   2.924   1.695   1.391 -0.0731  0.3750 -3.7525
   90SOL    HW2  270   3.085   1.741   1.371  0.4371  0.7661  1.0931
   91SOL     OW  271   1.516   1.816   1.175 -0.2416 -0.0703  0.3424
   91SOL    HW1  272   1.436   1.802   1.235 -0.9699  0.1185  1.1871
   91SOL    HW2  273   1.516   1.913   1.143 -1.6442 -0.4008  1.0734
   92SOL     OW  274   2.510   2.536   1.437 -0.0749 -0.1735 -0.4454
   92SOL    HW1  275   2.438   2.555   1.507  3.5741  1.4636 -0.9867
   92SOL    HW2  276   2.562   2.622   1.412  0.2154  0.8276  0.1967
   93SOL     OW  277   2.548   1.508   2.459  0.1430 -0.4006 -0.6573
   93SOL    HW1  278   2.527   1.435   2.392  2.0571  0.3408 -0.1358
   93SOL    HW2  279   2.644   1.512   2.481 -2.2657 -2.2388 -1.4698
   94SOL     OW  280   2.778   2.700   2.001  0.5739 -0.5043 -0.8139
   94SOL    HW1  281   2.856   2.649   2.040 -1.3261 -0.7030 -0.4410
   94SOL    HW2  282   2.699   2.646   2.032 -1.8844 -0.4450  2.9804
   95SOL     OW  283   1.636   0.138   1.598  0.3493  0.2373 -0.3589
   95SOL    HW1  284   1.684   0.144   1.686 -1.2044 -0.3347 -0.8201
   95SOL    HW2  285   1.696   0.100   1.524  0.2710  1.9472  1.6018
   96SOL     OW  286   3.059   2.850   1.458  0.1348 -0.1786  0.3266
   96SOL    HW1  287   2.993   2.929   1.435 -0.4516  1.0282  1.4708
   96SOL    HW2  288   3.045   2.773   1.387 -0.4118 -2.0186 -0.8101
   97SOL     OW  289   2.249   0.291   1.454  0.2499 -0.0431 -0.3340
   97SOL    HW1  290   2.333   0.336   1.488  2.1560  0.0551 -1.3695
   97SOL    HW2  291   2.165   0.319   1.509 -5.1040 -1.2961  2.7417
   98SOL     OW  292   1.405   2.324   1.549 -0.2996  0.1110 -0.4717
   98SOL    HW1  293   1.362   2.414   1.550 -1.2379  1.6075  3.6485
   98SOL    HW2  294   1.506   2.332   1.557 -0.6551  0.6977 -0.5778
   99SOL     OW  295   3.088   2.988   1.843 -0.7214 -0.4576  0.1089
   99SOL    HW1  296   0.029   2.901   1.812  1.7997  2.5199 -2.1832
   99SOL    HW2  297   3.098   3.010   1.944 -0.0465  0.8728  3.2945
  100SOL     OW  298   3.046   1.072   2.264 -0.3946 -0.2081  0.0907
  100SOL    HW1  299   3.032   1.177   2.258  0.7368  0.1013  0.7386
  100SOL    HW2  300   2.959   1.018   2.287  3.1439  1.6967  0.2580
  101SOL     OW  301   2.018   0.812   0.270  0.2670 -0.1876  0.1472
  101SOL    HW1  302   2.099   0.804   0.333 -0.7141  1.1832  0.3939
  101SOL    HW2  303   2.043   0.850   0.181 -2.0700 -0.8694  3.1334
  102SOL     OW  304   0.007   0.590   1.268 -0.3855  0.9479 -0.5853
  102SOL    HW1  305   3.067   0.565   1.176  0.2579 -2.7588 -1.6279
  102SOL    HW2  306   0.059   0.675   1.269 -2.9573  0.0920  1.9936
  103SOL     OW  307   2.423   0.858   2.717  0.4020 -0.1179  0.9170
  103SOL    HW1  308   2.376   0.791   2.777  0.4338  0.8379  1.6709
  103SOL    HW2  309   2.415   0.951   2.749 -2.4575 -4.9043 -0.6217
  104SOL     OW  310   0.126   0.087   2.351 -0.2788 -0.5540  0.4986
  104SOL    HW1  311   0.032   0.064   2.366 -1.3533  0.0539  0.9918
  104SOL    HW2  312   0.161   0.180   2.377 -0.7232  2.7025  1.3461
  105SOL     OW  313   2.100   1.011   1.767 -0.4547 -0.6875 -0.2606
  105SOL    HW1  314   2.099   0.989   1.670  0.4755  1.2222  2.9168
  105SOL    HW2  315   2.094   1.114   1.783 -1.6352 -1.6788 -2.2226
  106SOL     OW  316   1.144   3.082   0.657  0.0534 -0.4945 -0.5260
  106SOL    HW1  317   1.110   0.078   0.648  0.2678 -2.0526  1.8043
  106SOL    HW2  318   1.157   3.056   0.757  0.1061  0.2201  0.1338
  107SOL     OW  319   0.030   1.552   1.047 -0.1711  0.3977  0.2871
  107SOL    HW1  320   3.092   1.647   1.033 -2.0091 -0.5193 -1.7398
  107SOL    HW2  321   3.045   1.491   1.050 -1.1175 -0.8423  0.0099
  108SOL     OW  322   0.336   3.031   2.402 -0.2250 -0.5444  0.0869
  108SOL    HW1  323   0.311   2.943   2.441 -0.2657  2.3722 -2.0954
  108SOL    HW2  324   0.249   3.086   2.383 -2.4698 -0.5471 -1.3045
  109SOL     OW  325   2.441   0.194   0.402 -0.1383  0.6016  0.1532
  109SOL    HW1  326   2.387   0.189   0.314 -0.8313 -1.4176 -0.4752
  109SOL    HW2  327   2.524   0.138   0.381  0.2959  0.8766 -0.2168
  110SOL     OW  328   0.253   2.309   2.747  0.6679  0.0903 -0.1038
  110SOL    HW1  329   0.170   2.275   2.699 -0.6038 -1.2006 -1.8058
  110SOL    HW2  330   0.307   2.377   2.689  1.5193  0.6474 -0.2557
  111SOL     OW  331   1.769   2.918   2.048 -0.3082  0.0234 -0.5174
  111SOL    HW1  332   1.694   2.918   1.980  0.0710 -0.2107 -0.1782
  111SOL    HW2  333   1.825   3.006   2.048  0.9515 -1.6964  1.1776
  112SOL     OW  334   2.016   2.583   2.959  0.2477  0.6124 -0.0081
  112SOL    HW1  335   1.973   2.493   2.962  0.6326 -0.2117  3.0418
  112SOL    HW2  336   1.942   2.654   2.948 -0.6219 -1.4801  1.6401
  113SOL     OW  337   2.770   2.096   1.862 -0.2702  0.1338  0.1866
  113SOL    HW1  338   2.749   1.994   1.856 -1.7813 -1.0483 -2.3479
  113SOL    HW2  339   2.871   2.102   1.869 -0.4105 -2.9511  0.3657
  114SOL     OW  340   2.438   0.906   1.014  0.3176  0.0130 -0.1155
  114SOL    HW1  341   2.362   0.841   1.040 -0.3982 -0.8187  2.8086
  114SOL    HW2  342   2.410   0.974   0.943 -1.8547 -1.2855  0.6507
  115SOL     OW  343   0.047   1.702   2.847  0.8977  0.2882 -0.0767
  115SOL    HW1  344   0.144   1.665   2.852 -1.0006 -0.9722 -0.4835
  115SOL    HW2  345   0.042   1.803   2.846  1.3292 -2.1951  0.6305
  116SOL     OW  346   0.196   1.387   2.296  0.1827 -0.2810  0.2949
  116SOL    HW1  347   0.280   1.361   2.350  0.4508 -1.4096 -1.4019
  116SOL    HW2  348   0.211   1.357   2.203 -3.0985  0.4408 -2.2001
  117SOL     OW  349   2.560   0.254   0.837  0.1533  0.3647 -0.2782
  117SOL    HW1  350   2.469   0.225   0.872 -2.5292  4.1427  0.6196
  117SOL    HW2  351   2.556   0.271   0.734  3.4354  1.7013 -2.0854
  118SOL     OW  352   0.461   2.068   1.612  0.1751  0.6435  0.3898
  118SOL    HW1  353   0.465   2.099   1.513  2.2456  3.3277 -1.0790
  118SOL    HW2  354   0.521   1.986   1.629 -0.0126 -2.1043 -0.3385
  119SOL     OW  355   1.676   2.350   0.484 -0.2950 -0.1737 -0.4079
  119SOL    HW1  356   1.772   2.371   0.454 -2.4235  1.2334  0.7453
  119SOL    HW2  357   1.661   2.251   0.509 -0.1043  0.3957 -1.2844
  120SOL     OW  358   0.363   1.614   2.443  0.2245 -0.4362 -0.7637
  120SOL    HW1  359   0.352   1.712   2.465 -1.1478  0.1639  1.8631
  120SOL    HW2  360   0.397   1.594   2.349 -0.9762 -3.0236 -0.7750
  121SOL     OW  361   2.237   2.105   1.332 -0.7308 -0.2176 -0.5633
  121SOL    HW1  362   2.211   2.022   1.389  1.0390 -2.9553 -1.3990
  121SOL    HW2  363   2.337   2.106   1.308  0.5068  0.5617 -1.7302
  122SOL     OW  364   2.343   1.892   2.080 -0.9156  0.6072 -0.1128
  122SOL    HW1  365   2.334   1.792   2.089 -0.4508 -0.6127  0.3216
  122SOL    HW2  366   2.442   1.918   2.090 -1.0179 -0.1983 -1.3577
  123SOL     OW  367   2.890   3.079   0.826  0.2910 -0.2360  0.2941
  123SOL    HW1  368   2.880   0.070   0.875  0.8071  1.4828  0.3835
  123SOL    HW2  369   2.976   3.035   0.854 -0.6536 -1.2586 -0.8366
  124SOL     OW  370   1.599   0.556   2.494  0.4112 -0.4571  0.5931
  124SOL    HW1  371   1.631   0.563   2.395  1.3615 -0.6377 -0.8506
  124SOL    HW2  372   1.573   0.457   2.504  0.6378 -4.0537 -2.0223
  125SOL     OW  373   0.236   1.379   0.233  0.3576 -0.3425 -0.3653
  125SOL    HW1  374   0.288   1.392   0.144  2.8865 -3.6581 -0.3184
  125SOL    HW2  375   0.247   1.279   0.255  0.2615  0.8060 -0.2534
  126SOL     OW  376   2.336   2.118   0.398  0.2238 -0.6139 -0.3252
  126SOL    HW1  377   2.247   2.071   0.386 -0.3351  0.0037 -3.0510
  126SOL    HW2  378   2.325   2.175   0.481 -2.2210  1.2113  0.9811
  127SOL     OW  379   0.279   1.621   1.147 -0.5615 -0.0209  0.3203
  127SOL    HW1  380   0.211   1.618   1.072  0.9137 -2.3808 -1.2516
  127SOL    HW2  381   0.236   1.650   1.231 -0.5617  0.7102  2.0649
  128SOL     OW  382   0.781   0.813   2.917  0.3509  0.3670 -0.6786
  128SOL    HW1  383   0.692   0.788   2.872 -1.0456  0.1256 -0.9362
  128SOL    HW2  384   0.763   0.888   2.984  0.2479  0.2067 -2.3300
  129SOL     OW  385   2.475   1.471   0.930  0.4160 -0.5213 -0.1257
  129SOL    HW1  386   2.547   1.536   0.958  1.0319 -1.9644  1.6453
  129SOL    HW2  387   2.494   1.421   0.844  0.6409  0.2678 -2.0649
  130SOL     OW  388   2.244   1.759   1.270 -0.0778 -0.1923 -0.4710
  130SOL    HW1  389   2.254   1.801   1.176  1.5972 -1.8226 -0.0539
  130SOL    HW2  390   2.180   1.675   1.263 -2.1180  0.9217  2.2359
  131SOL     OW  391   2.859   0.912   2.869 -0.3314  0.1516 -0.9220
  131SOL    HW1  392   2.809   0.843   2.921 -0.9286  0.7699  2.5815
  131SOL    HW2  393   2.950   0.926   2.910  1.4777 -1.6113  0.7019
  132SOL     OW  394   2.767   1.815   1.903  0.2630  0.6576  0.1785
  132SOL    HW1  395   2.866   1.797   1.931  1.0085  0.3380  1.1947
  132SOL    HW2  396   2.713   1.814   1.985  0.1280 -2.2475 -0.8419
  133SOL     OW  397   3.087   0.842   0.776 -0.4281 -0.1294  0.2839
  133SOL    HW1  398   0.071   0.824   0.829 -1.3156  0.2541 -0.1922
  133SOL    HW2  399   3.009   0.830   0.839  0.5721 -1.2425  0.4916
  134SOL     OW  400   0.237   1.115   0.216 -0.1725  0.2226 -0.3416
  134SOL    HW1  401   0.241   1.017   0.254 -1.6564 -1.2449  0.6822
  134SOL    HW2  402   0.297   1.129   0.138 -2.4902  1.1778  2.6927
  135SOL     OW  403   1.934   1.317   1.145  0.3590 -0.3578  0.6480
  135SOL    HW1  404   1.875   1.238   1.174  1.3293 -1.8769  1.1577
  135SOL    HW2  405   1.924   1.341   1.051 -1.3396 -0.8905 -0.3502
  136SOL     OW  406   1.788   1.087   1.155 -0.1974  0.3963 -0.2526
  136SOL    HW1  407   1.743   1.057   1.240 -0.4041 -2.8612 -1.4054
  136SOL    HW2  408   1.725   1.079   1.070 -2.2679  0.8231  0.4529
  137SOL     OW  409   2.525   1.723   0.716  0.3006 -0.2327  0.4200
  137SOL    HW1  410   2.453   1.718   0.644 -0.7832  0.4205  1.6721
  137SOL    HW2  411   2.495   1.762   0.805  0.4203 -0.9911 -0.2461
  138SOL     OW  412   1.486   0.528   2.002  0.3232 -0.2635  0.0442
  138SOL    HW1  413   1.586   0.507   2.028  4.1091 -0.6311  2.4097
  138SOL    HW2  414   1.478   0.606   1.935 -1.3202  0.8658  1.7189
  139SOL     OW  415   2.133   0.117   2.950  0.1470 -0.1105 -0.3463
  139SOL    HW1  416   2.195   0.061   2.892  0.2818 -0.7626 -0.7077
  139SOL    HW2  417   2.182   0.194   2.987  1.5384 -3.9410 -1.3963
  140SOL     OW  418   1.389   2.234   2.476  0.0688  0.3971  0.0602
  140SOL    HW1  419   1.479   2.260   2.519  0.7088 -0.7368  2.0453
  140SOL    HW2  420   1.384   2.140   2.443 -4.0267  0.1714  0.4928
  141SOL     OW  421   1.368   1.441   1.592  0.3671 -0.4524 -0.1337
  141SOL    HW1  422   1.425   1.388   1.658 -1.6791  1.9390  1.1036
  141SOL    HW2  423   1.409   1.533   1.586 -1.9611  1.2387  0.8495
  142SOL     OW  424   2.569   0.033   2.877  0.2244 -0.6265 -0.4065
  142SOL    HW1  425   2.549   3.077   2.961 -1.3405 -1.0047 -0.3039
  142SOL    HW2  426   2.513   3.095   2.800 -1.0409 -2.3517 -1.6268
  143SOL     OW  427   0.502   2.531   2.801  0.1670 -0.0353 -0.1160
  143SOL    HW1  428   0.463   2.461   2.866 -1.6642 -1.1751  0.1485
  143SOL    HW2  429   0.449   2.614   2.823  2.0912  0.2812  2.3981
  144SOL     OW  430   0.912   2.912   1.987 -0.2674  0.2799  0.3718
  144SOL    HW1  431   0.943   2.923   2.082  0.4030  0.0025 -2.4630
  144SOL    HW2  432   0.976   2.850   1.936 -1.5557  1.0277 -0.8449
  145SOL     OW  433   2.437   1.436   0.412  0.0245 -0.1162 -0.0490
  145SOL    HW1  434   2.428   1.343   0.370 -2.4986 -0.8758 -0.8472
  145SOL    HW2  435   2.461   1.424   0.507  2.5482  0.2351  0.2250
  146SOL     OW  436   2.807   3.017   2.746  0.6096  0.3272  0.0688
  146SOL    HW1  437   2.731   3.041   2.681 -1.0900 -0.9500 -0.4951
  146SOL    HW2  438   2.814   3.087   2.818 -1.3284 -1.2947  0.3950
  147SOL     OW  439   2.766   2.574   1.049  0.1319 -0.5826  0.7608
  147SOL    HW1  440   2.798   2.661   1.095 -1.1798  2.6449  2.3107
  147SOL    HW2  441   2.663   2.569   1.039 -2.6757 -0.1828 -2.3911
  148SOL     OW  442   1.731   0.135   0.090 -1.2762 -0.3622  0.0312
  148SOL    HW1  443   1.683   0.094   0.175  2.1591 -4.6356  0.4324
  148SOL    HW2  444   1.820   0.087   0.062  2.9963 -2.2596  2.2686
  149SOL     OW  445   0.824   1.194   2.617  0.3228 -0.1372 -0.3134
  149SOL    HW1  446   0.877   1.187   2.705 -0.3788  1.2677  3.6753
  149SOL    HW2  447   0.882   1.180   2.534 -0.2733  1.9176 -0.5686
  150SOL     OW  448   1.128   2.688   0.865 -0.2571 -0.4101  0.2928
  150SOL    HW1  449   1.054   2.751   0.895  1.4073  2.8484  1.5890
  150SOL    HW2  450   1.090   2.625   0.792 -1.3373  0.1521 -1.0909
  151SOL     OW  451   0.276   2.011   0.048  0.0876 -0.0110  0.1480
  151SOL    HW1  452   0.287   1.913   0.069 -0.3878 -1.8942 -0.5301
  151SOL    HW2  453   0.302   2.031   3.052  2.4127  0.9683  0.4201
  152SOL     OW  454   0.358   1.191   0.549  0.1162  0.4089 -0.6227
  152SOL    HW1  455   0.432   1.212   0.488 -1.4154  0.1994 -0.5088
  152SOL    HW2  456   0.264   1.214   0.510 -2.4371 -1.0977 -0.5007
  153SOL     OW  457   2.435   2.490   2.944 -0.8881  0.0127  0.5283
  153SOL    HW1  458   2.499   2.470   3.021  0.1509 -2.0263 -0.3051
  153SOL    HW2  459   2.480   2.447   2.860  0.0006  1.0554 -1.0678
  154SOL     OW  460   0.683   0.251   1.061  0.1505  0.5533 -0.0878
  154SOL    HW1  461   0.654   0.168   1.006  1.1152 -0.4728  1.1568
  154SOL    HW2  462   0.659   0.240   1.157  1.4394 -0.3106  1.9686
  155SOL     OW  463   2.997   2.028   1.087 -0.5202  0.2656  0.1455
  155SOL    HW1  464   3.010   1.932   1.052 -2.9667  2.0398 -2.4705
  155SOL    HW2  465   2.977   2.035   1.185 -0.2012 -1.8578 -0.6900
  156SOL     OW  466   2.238   2.190   0.068  0.1472 -0.3461 -0.0989
  156SOL    HW1  467   2.209   2.093   0.096  0.5305  1.4493 -0.7207
  156SOL    HW2  468   2.330   2.207   0.100 -3.2191 -1.4917  1.1722
  157SOL     OW  469   0.783   2.437   0.954 -0.4162  0.2512  0.2508
  157SOL    HW1  470   0.775   2.337   0.930 -2.8565 -1.0852 -1.2931
  157SOL    HW2  471   0.786   2.443   1.054 -1.0325 -1.6813 -0.8599
  158SOL     OW  472   1.981   0.706   2.764  0.5351  0.1103 -0.1838
  158SOL    HW1  473   1.977   0.680   2.862  1.4395 -1.2982 -0.3593
  158SOL    HW2  474   1.891   0.737   2.734  2.8959 -1.7596  0.5680
  159SOL     OW  475   0.757   0.299   2.628  0.4625  0.4171 -0.1022
  159SOL    HW1  476   0.748   0.205   2.669  1.5449 -1.2233  0.6091
  159SOL    HW2  477   0.803   0.372   2.688 -0.1556  1.6432 -1.1675
  160SOL     OW  478   1.008   1.952   0.347 -0.2399 -0.2431 -0.0842
  160SOL    HW1  479   0.977   1.943   0.441  2.0406 -0.9204 -1.2532
  160SOL    HW2  480   1.021   1.866   0.300  0.6517  2.8134 -1.3944
  161SOL     OW  481   2.841   2.161   3.037 -0.2318  0.1038  0.0837
  161SOL    HW1  482   2.934   2.148   3.066 -2.4464 -0.4177  2.7640
  161SOL    HW2  483   2.816   2.260   3.028  2.2934 -2.4820  2.6876
  162SOL     OW  484   0.404   2.512   0.897 -0.5548 -0.5931  0.1748
  162SOL    HW1  485   0.495   2.466   0.902  1.6849  1.5300  0.6458
  162SOL    HW2  486   0.364   2.531   0.987 -1.9109 -1.1711 -1.9281
  163SOL     OW  487   2.482   0.772   3.084 -0.0842 -0.1362  0.3807
  163SOL    HW1  488   2.477   0.707   0.066 -2.9556  1.4151  2.2546
  163SOL    HW2  489   2.416   0.745   3.008 -1.9303  0.2180  0.6942
  164SOL     OW  490   0.008   2.713   0.509  0.8164 -0.0422 -0.2608
  164SOL    HW1  491   3.068   2.677   0.418  0.6209 -0.0615  0.0838
  164SOL    HW2  492   3.053   2.793   0.545 -2.7250 -0.9773 -0.2824
  165SOL     OW  493   2.467   0.452   1.241  0.3333 -0.3318  0.2500
  165SOL    HW1  494   2.509   0.429   1.330 -1.3669 -1.0453  1.1946
  165SOL    HW2  495   2.377   0.507   1.252 -0.6365  0.9416 -0.2095
  166SOL     OW  496   2.023   0.186   1.060 -0.1978  0.2919 -0.1778
  166SOL    HW1  497   2.052   0.167   0.964 -0.2967  2.1136 -0.6602
  166SOL    HW2  498   2.069   0.268   1.097 -0.4894  1.4820  0.4684
  167SOL     OW  499   0.356   0.602   1.340 -0.1652 -0.3256  0.1722
  167SOL    HW1  500   0.307   0.554   1.413  2.5631  0.3612  2.2806
  167SOL    HW2  501   0.292   0.678   1.319 -1.3105 -0.1852 -1.0784
  168SOL     OW  502   2.671   2.983   2.135  0.2779  0.0246 -0.4765
  168SOL    HW1  503   2.595   2.982   2.202 -1.2698 -2.1516  0.4599
  168SOL    HW2  504   2.662   2.906   2.070  0.1452  0.4916  1.4884
  169SOL     OW  505   0.041   1.502   0.721  0.1901  0.0907  0.5348
  169SOL    HW1  506   0.041   1.604   0.711 -0.3957  2.2312  0.8473
  169SOL    HW2  507   3.048   1.471   0.748 -1.3474 -1.2871  0.1633
  170SOL     OW  508   2.956   0.595   1.506  0.3297 -0.2900  0.0205
  170SOL    HW1  509   2.994   0.584   1.417 -0.5627 -0.3152  1.1488
  170SOL    HW2  510   2.961   0.507   1.558 -0.9190  0.1258 -1.6188
  171SOL     OW  511   0.981   2.229   1.529 -1.0820  0.0161  0.3994
  171SOL    HW1  512   1.027   2.277   1.604  0.2603  0.5960 -0.8140
  171SOL    HW2  513   0.882   2.222   1.540  2.3036 -1.8065 -0.4668
  172SOL     OW  514   0.374   2.305   1.130  0.2039  0.4055 -0.1544
  172SOL    HW1  515   0.429   2.244   1.071 -0.9186  2.1085 -2.0154
  172SOL    HW2  516   0.278   2.287   1.104  3.7660 -0.3124 -1.5481
  173SOL     OW  517   1.091   0.156   0.273 -0.5057  0.7920  0.8166
  173SOL    HW1  518   1.052   0.147   0.178  1.7232  1.3870 -4.6734
  173SOL    HW2  519   1.191   0.163   0.265 -3.0397  2.7022 -3.1119
  174SOL     OW  520   0.762   2.658   2.624 -0.2856 -0.3144  0.7332
  174SOL    HW1  521   0.803   2.569   2.622  2.0491  4.1652  1.3071
  174SOL    HW2  522   0.780   2.702   2.713  0.0116  0.0005 -1.3250
  175SOL     OW  523   1.412   0.659   3.017  0.3932 -0.0992 -0.2364
  175SOL    HW1  524   1.508   0.677   3.006  2.6164  1.4961 -0.8299
  175SOL    HW2  525   1.364   0.661   2.925 -2.1293 -3.0307 -1.4167
  176SOL     OW  526   1.392   0.387   0.275 -0.0932 -0.1492 -0.0170
  176SOL    HW1  527   1.376   0.298   0.224  1.4318  0.5762 -0.6261
  176SOL    HW2  528   1.376   0.382   0.377  1.6605  2.1789  1.0981
  177SOL     OW  529   1.375   0.950   0.979  0.1465  0.0546  0.1620
  177SOL    HW1  530   1.347   1.035   0.934  2.1188 -1.4058 -1.1642
  177SOL    HW2  531   1.300   0.904   1.036 -0.5314 -3.0286  1.7495
  178SOL     OW  532   2.252   1.815   2.499 -0.3750  0.8917 -0.0835
  178SOL    HW1  533   2.294   1.898   2.541 -0.9388  0.5035  1.5006
  178SOL    HW2  534   2.280   1.732   2.555  3.7920 -3.1982 -1.0906
  179SOL     OW  535   0.596   2.803   2.478 -0.4885  0.3879 -0.7553
  179SOL    HW1  536   0.667   2.738   2.519  1.9363 -0.3739  1.1834
  179SOL    HW2  537   0.527   2.743   2.427 -1.1368  1.6271  0.4289
  180SOL     OW  538   1.562   2.074   1.805 -0.3314  0.5671  0.1163
  180SOL    HW1  539   1.625   2.129   1.862  0.9709 -1.5138 -1.4455
  180SOL    HW2  540   1.619   2.027   1.730  1.1168  3.3553 -2.1046
  181SOL     OW  541   1.425   1.253   2.405  0.2349 -0.4623 -0.2075
  181SOL    HW1  542   1.437   1.302   2.490  0.0799 -2.1992  2.9528
  181SOL    HW2  543   1.335   1.270   2.362  0.3405  2.1481 -0.9702
  182SOL     OW  544   3.050   0.595   2.598 -0.3351  0.2699  0.3598
  182SOL    HW1  545   2.950   0.624   2.589 -1.6754  1.6927 -0.5879
  182SOL    HW2  546   3.064   0.505   2.643 -1.7795 -1.4909 -0.6657
  183SOL     OW  547   1.360   0.200   2.733  0.2264 -0.2853  0.3652
  183SOL    HW1  548   1.324   0.230   2.641 -1.4105  1.4679 -0.3843
  183SOL    HW2  549   1.415   0.271   2.778  0.7578 -1.7213 -0.5654
  184SOL     OW  550   0.970   0.750   1.556 -0.0094  0.2208 -0.5044
  184SOL    HW1  551   0.934   0.765   1.654  0.7744  2.0879 -1.0067
  184SOL    HW2  552   0.911   0.798   1.490  0.4626  1.3313  2.8290
  185SOL     OW  553   2.922   1.311   0.808 -0.1412  0.0844 -0.3672
  185SOL    HW1  554   2.924   1.286   0.910  0.3317 -2.0584  2.2425
  185SOL    HW2  555   2.935   1.227   0.757  2.6107  3.0788  0.3295
  186SOL     OW  556   0.540   1.717   2.971 -1.1699 -0.2599  0.1004
  186SOL    HW1  557   0.558   1.763   3.062 -0.5266 -0.4800  0.2284
  186SOL    HW2  558   0.502   1.779   2.898  0.7722  1.0695 -2.4329
  187SOL     OW  559   2.507   1.211   0.273 -0.6779  0.2453  0.2252
  187SOL    HW1  560   2.592   1.259   0.302  0.0135  2.6383  3.1874
  187SOL    HW2  561   2.512   1.181   0.176  1.0313  2.6403  0.7061
  188SOL     OW  562   3.075   2.270   0.612  0.2583 -0.0954 -0.3531
  188SOL    HW1  563   0.035   2.290   0.534  2.0364  0.9396 -1.7941
  188SOL    HW2  564   2.979   2.299   0.587 -1.2736  1.1129  3.2895
  189SOL     OW  565   2.672   0.810   0.340 -0.2367 -0.6566  0.2284
  189SOL    HW1  566   2.763   0.820   0.300  0.2831 -3.8760  0.2972
  189SOL    HW2  567   2.675   0.741   0.407  0.0687  1.4568 -0.8384
  190SOL     OW  568   1.316   1.628   2.240 -0.0489  0.1367  0.2530
  190SOL    HW1  569   1.418   1.648   2.240  1.0489  0.3863  1.0105
  190SOL    HW2  570   1.280   1.624   2.334 -0.5075  0.3643 -0.9223
  191SOL     OW  571   2.522   0.387   1.527  0.4779  0.2821  0.1955
  191SOL    HW1  572   2.566   0.297   1.540  1.1484 -1.8230  1.1505
  191SOL    HW2  573   2.489   0.414   1.614  5.0262 -0.1030 -2.7598
  192SOL     OW  574   2.103   0.215   1.770  0.5166  0.0298 -0.2318
  192SOL    HW1  575   2.092   0.122   1.733 -1.8320 -0.3336  1.2741
  192SOL    HW2  576   2.193   0.225   1.818  1.4502  1.1419 -0.2376
  193SOL     OW  577   0.878   0.626   0.294  0.2203  0.6620 -0.0353
  193SOL    HW1  578   0.827   0.590   0.376 -0.0663 -2.4198  0.5500
  193SOL    HW2  579   0.825   0.697   0.247 -1.9743 -1.4757 -4.2106
  194SOL     OW  580   1.075   2.906   1.402 -0.2804  0.7277  0.1177
  194SOL    HW1  581   1.129   2.965   1.341  1.4358  0.6078 -0.5907
  194SOL    HW2  582   1.019   2.966   1.465 -1.9018 -1.3767  0.6872
  195SOL     OW  583   2.208   0.763   1.036 -0.1552  0.3101  0.2513
  195SOL    HW1  584   2.224   0.717   0.947 -0.5298 -2.5352 -1.6443
  195SOL    HW2  585   2.122   0.824   1.039  0.5867  0.8395  0.1011
  196SOL     OW  586   1.734   2.203   1.958  0.4105 -0.3808  0.1917
  196SOL    HW1  587   1.818   2.172   1.908  2.4950  0.8758 -0.2817
  196SOL    HW2  588   1.750   2.202   2.059 -1.0646 -1.3913  4.9695
  197SOL     OW  589   0.224   0.093   0.147  0.3051  0.5624  0.3420
  197SOL    HW1  590   0.273   0.106   0.233  0.5717 -1.7562 -4.1569
  197SOL    HW2  591   0.290   0.079   0.074 -2.7894 -0.6318  0.3403
  198SOL     OW  592   1.213   1.081   0.762  0.1701  0.0861  0.4101
  198SOL    HW1  593   1.189   1.170   0.723 -2.3432  0.8328  2.7948
  198SOL    HW2  594   1.134   1.020   0.768  1.7349  0.2029 -0.3401
  199SOL     OW  595   3.065   1.006   1.997  0.0108  0.3300 -0.2762
  199SOL    HW1  596   0.022   0.924   1.993  2.3356  2.9958  0.2983
  199SOL    HW2  597   3.064   1.057   2.084  0.5901  2.1931 -3.1223
  200SOL     OW  598   2.747   1.868   2.642 -0.1081  0.3181 -0.1000
  200SOL    HW1  599   2.659   1.914   2.610 -1.0792  1.4546 -1.4701
  200SOL    HW2  600   2.771   1.893   2.741 -2.2709  2.2463 -0.5087
  201SOL     OW  601   2.517   0.156   1.119 -0.4608 -0.4514  0.5945
  201SOL    HW1  602   2.473   0.222   1.182  1.5419  0.4431 -2.0922
  201SOL    HW2  603   2.458   0.156   1.038  1.1849 -0.5009  1.6094
  202SOL     OW  604   2.251   0.782   0.430 -0.5497 -1.1110  0.1425
  202SOL    HW1  605   2.232   0.784   0.531  0.3686 -1.1746  0.5394
  202SOL    HW2  606   2.335   0.841   0.408  2.8552 -0.2916 -2.7513
  203SOL     OW  607   1.642   2.024   2.409  0.3187 -0.2680 -0.1280
  203SOL    HW1  608   1.541   2.012   2.386  1.8754 -4.2688  0.6421
  203SOL    HW2  609   1.680   1.934   2.438 -1.5084  2.1032  0.9323
  204SOL     OW  610   0.953   1.802   2.186 -0.0404  0.1596  0.5039
  204SOL    HW1  611   0.916   1.711   2.213  1.5378 -1.1995  0.3732
  204SOL    HW2  612   0.995   1.852   2.265  2.7299  1.0838 -1.5206
  205SOL     OW  613   0.931   1.782   1.572 -0.3014 -0.0156 -0.5065
  205SOL    HW1  614   0.875   1.842   1.511  0.0585  1.4365  0.0296
  205SOL    HW2  615   1.012   1.828   1.608  0.1617 -2.6400  0.1082
  206SOL     OW  616   3.015   0.487   3.022  0.1173 -0.0943  0.0928
  206SOL    HW1  617   2.966   0.408   3.054 -3.0714  0.4844 -2.4007
  206SOL    HW2  618   2.945   0.530   2.962 -1.0367 -1.4316  0.6227
  207SOL     OW  619   1.857   2.638   2.067  0.0364  0.8117  0.0580
  207SOL    HW1  620   1.820   2.730   2.041  1.9847  0.8193 -0.0092
  207SOL    HW2  621   1.906   2.601   1.987 -0.5316 -2.8353 -0.0583
  208SOL     OW  622   0.465   2.142   1.334  0.3047 -0.3889 -0.4253
  208SOL    HW1  623   0.407   2.209   1.280  0.2233  1.6342 -2.2466
  208SOL    HW2  624   0.457   2.046   1.302  0.2873 -1.3214 -0.7974
  209SOL     OW  625   1.412   0.944   2.433  0.3658 -0.3130 -0.3692
  209SOL    HW1  626   1.319   0.988   2.430  1.9429  1.9974 -3.2438
  209SOL    HW2  627   1.465   0.968   2.350 -0.9336 -1.4223 -0.6483
  210SOL     OW  628   1.980   0.913   1.066  0.1318  0.3780 -0.0857
  210SOL    HW1  629   1.944   0.997   1.108  0.5708 -0.6140  1.2374
  210SOL    HW2  630   1.906   0.841   1.086 -0.2269 -1.0063 -1.5314
  211SOL     OW  631   0.596   0.104   0.680  0.3003 -0.1494  0.5223
  211SOL    HW1  632   0.585   0.180   0.612  0.4134  0.0987  1.5651
  211SOL    HW2  633   0.526   0.032   0.666  1.2483  0.8238  0.4176
  212SOL     OW  634   1.738   1.417   0.152 -0.2143 -0.2531  0.2995
  212SOL    HW1  635   1.813   1.358   0.111  3.1807 -2.4776 -0.1267
  212SOL    HW2  636   1.652   1.361   0.144 -0.1539  0.1715 -0.7513
  213SOL     OW  637   1.644   0.259   2.486  0.0326  0.0239 -0.1843
  213SOL    HW1  638   1.544   0.254   2.487 -0.4769 -0.1116  1.7923
  213SOL    HW2  639   1.680   0.187   2.548  0.4493  0.1029 -1.2096
  214SOL     OW  640   1.721   1.250   2.358 -0.5252  0.0666  0.5946
  214SOL    HW1  641   1.777   1.328   2.325  1.0632 -0.2939  2.3994
  214SOL    HW2  642   1.626   1.267   2.322 -1.1550 -2.3275  0.3919
  215SOL     OW  643   0.280   1.871   0.431  0.4729  0.2531 -0.6566
  215SOL    HW1  644   0.308   1.801   0.363 -0.4544 -1.0880 -0.6623
  215SOL    HW2  645   0.250   1.958   0.385  0.4625 -2.0862  1.5652
  216SOL     OW  646   0.607   2.842   2.105  0.5414 -0.4897 -0.1067
  216SOL    HW1  647   0.695   2.811   2.075 -0.8221  1.0670 -0.1836
  216SOL    HW2  648   0.569   2.771   2.169  1.3835 -1.2011  0.9966
  217SOL     OW  649   2.560   1.139   0.592 -0.6960 -0.0062 -0.1343
  217SOL    HW1  650   2.643   1.086   0.600 -0.2932 -2.4369 -0.3821
  217SOL    HW2  651   2.514   1.106   0.510  1.9787  0.8294 -1.2358
  218SOL     OW  652   2.077   1.945   1.991  0.2086 -0.0810 -0.8625
  218SOL    HW1  653   2.054   2.034   1.969  0.7489 -3.0285 -1.4431
  218SOL    HW2  654   2.174   1.938   2.027  0.3180  0.0052 -2.2162
  219SOL     OW  655   1.919   1.269   3.078  0.0944 -0.3100 -0.0469
  219SOL    HW1  656   2.005   1.324   3.087 -1.9690 -2.4018  0.0766
  219SOL    HW2  657   1.876   1.288   2.987 -1.5818  2.7948 -0.9771
  220SOL     OW  658   1.208   1.635   1.216 -0.1327  0.0891  0.1106
  220SOL    HW1  659   1.185   1.572   1.289 -0.1091  2.7615  0.8323
  220SOL    HW2  660   1.274   1.594   1.150  0.8929 -1.0076  0.4916
  221SOL     OW  661   0.533   0.759   2.827  0.5360 -0.0233  0.5285
  221SOL    HW1  662   0.552   0.732   2.732 -0.3886 -0.3998 -0.4745
  221SOL    HW2  663   0.496   0.679   2.878 -1.9996  1.7583 -0.2298
  222SOL     OW  664   0.894   1.713   1.179 -0.5786  0.7197 -0.8304
  222SOL    HW1  665   0.985   1.675   1.195  1.8122  0.8986 -1.8361
  222SOL    HW2  666   0.860   1.770   1.257 -0.4512  0.9975  1.5139
  223SOL     OW  667   1.463   3.065   2.603  0.3100  0.2438  0.1606
  223SOL    HW1  668   1.382   3.007   2.592  0.1641  1.3525 -0.6139
  223SOL    HW2  669   1.437   0.057   2.638  0.3537 -1.5514 -2.0522
  224SOL     OW  670   2.633   0.712   1.004  0.2978  0.1839  0.0227
  224SOL    HW1  671   2.575   0.627   1.001  0.0094 -3.6867  3.2685
  224SOL    HW2  672   2.575   0.795   0.989 -0.3693 -0.7638  0.9231
  225SOL     OW  673   1.183   0.573   1.521 -0.2654 -0.2121 -0.1190
  225SOL    HW1  674   1.173   0.516   1.438 -0.5121 -2.3872 -2.3054
  225SOL    HW2  675   1.103   0.631   1.537 -0.1838  0.9073  0.7911
  226SOL     OW  676   1.665   1.929   2.821 -0.2013  0.1126  0.3032
  226SOL    HW1  677   1.632   1.855   2.760 -1.1664 -0.6621 -1.2061
  226SOL    HW2  678   1.634   1.897   2.912 -0.6276 -0.4126  0.3964
  227SOL     OW  679   1.273   1.792   1.468 -0.9319  0.5539 -0.0252
  227SOL    HW1  680   1.368   1.755   1.484 -0.7225 -1.5408 -1.4924
  227SOL    HW2  681   1.224   1.817   1.555 -1.7010 -0.4570  1.0302
  228SOL     OW  682   0.566   1.716   0.732 -0.3757 -0.0908  0.2864
  228SOL    HW1  683   0.652   1.771   0.752 -0.0793  2.4072  0.6481
  228SOL    HW2  684   0.523   1.677   0.819  1.4945 -1.2495 -1.4340
  229SOL     OW  685   1.691   0.692   3.004  0.1791 -0.3236  0.3096
  229SOL    HW1  686   1.737   0.612   2.971 -0.5300  4.4476 -1.6539
  229SOL    HW2  687   1.726   0.719   3.095  1.2595 -1.6748 -0.1445
  230SOL     OW  688   0.918   0.436   2.280  0.8319 -0.2294 -0.1328
  230SOL    HW1  689   0.997   0.390   2.228  0.9010  0.7886 -0.6478
  230SOL    HW2  690   0.959   0.479   2.363  2.1338  2.1737  2.3140
  231SOL     OW  691   1.255   1.772   2.512  0.2261  0.9268 -0.0400
  231SOL    HW1  692   1.210   1.722   2.586  3.7027 -1.9234 -0.8350
  231SOL    HW2  693   1.185   1.838   2.476  3.8116  2.2091 -1.2064
  232SOL     OW  694   2.246   1.884   0.999 -0.0116 -0.6495 -0.3538
  232SOL    HW1  695   2.179   1.819   0.959  2.2038 -1.5638  1.5083
  232SOL    HW2  696   2.341   1.854   0.987  0.7219 -0.8695 -1.4378
  233SOL     OW  697   2.042   2.861   0.007 -0.3335  0.2551  0.8162
  233SOL    HW1  698   2.006   2.773   0.047 -3.5572 -2.7312  0.9907
  233SOL    HW2  699   2.141   2.861   0.002 -1.1383 -0.0895 -0.3599
  234SOL     OW  700   0.904   2.971   2.608 -0.1884  0.2653  0.0861
  234SOL    HW1  701   0.972   2.896   2.595  1.2566  2.3988 -1.7765
  234SOL    HW2  702   0.840   2.987   2.532 -2.7588  1.2496  3.3181
  235SOL     OW  703   2.465   2.807   2.720 -0.0090  0.4237  0.4136
  235SOL    HW1  704   2.368   2.805   2.689  3.6795 -1.1125  0.1680
  235SOL    HW2  705   2.470   2.822   2.822  0.1051  1.7356  0.5005
  236SOL     OW  706   2.467   2.221   2.402 -0.0181 -0.1774  0.5362
  236SOL    HW1  707   2.442   2.314   2.441 -2.7345  0.9512  1.3472
  236SOL    HW2  708   2.565   2.217   2.370 -0.9835 -0.3326  1.6799
  237SOL     OW  709   1.160   1.474   1.789 -0.0896  0.7955  0.1844
  237SOL    HW1  710   1.233   1.455   1.717 -0.3072  0.4436 -2.0387
  237SOL    HW2  711   1.200   1.519   1.874  3.0796  1.3893 -0.2266
  238SOL     OW  712   1.869   0.086   2.573  0.6536  0.2095 -0.8998
  238SOL    HW1  713   1.871   0.121   2.479  0.8036  0.3538  0.8698
  238SOL    HW2  714   1.907   3.092   2.580 -2.4340  0.4155  0.7886
  239SOL     OW  715   0.257   1.859   2.039 -0.4728 -0.6281  0.6495
  239SOL    HW1  716   0.329   1.812   2.098  2.7726 -1.3507  1.3816
  239SOL    HW2  717   0.222   1.799   1.966 -0.2383  1.5016 -0.7533
  240SOL     OW  718   2.673   2.910   0.776 -0.4484 -0.8743  0.2478
  240SOL    HW1  719   2.716   2.834   0.731  1.0783  3.0906 -0.3480
  240SOL    HW2  720   2.751   2.976   0.794  0.6139 -2.2456  3.4123
  241SOL     OW  721   1.880   1.858   0.691 -0.0949 -0.5937 -0.5708
  241SOL    HW1  722   1.950   1.834   0.623  0.8936  2.3349 -0.0753
  241SOL    HW2  723   1.792   1.864   0.647  0.8094 -0.0463 -0.2065
  242SOL     OW  724   1.303   1.854   2.808 -0.2126 -0.8067  0.1907
  242SOL    HW1  725   1.385   1.806   2.775 -0.2129  1.4949  1.5410
  242SOL    HW2  726   1.219   1.808   2.774  0.0845  0.4542  0.1077
  243SOL     OW  727   0.644   2.447   2.222  0.3745  0.0240  0.5691
  243SOL    HW1  728   0.714   2.522   2.217  1.1435  0.1469 -0.2555
  243SOL    HW2  729   0.690   2.368   2.264 -2.5548  2.2140  1.5346
  244SOL     OW  730   2.221   3.081   2.718  0.0913  0.2054 -0.5284
  244SOL    HW1  731   2.263   0.063   2.670  3.0786  0.1394  1.3531
  244SOL    HW2  732   2.200   3.009   2.646 -2.2292  0.4015  1.5067
  245SOL     OW  733   1.339   2.937   0.560 -0.1445 -0.2888 -0.4030
  245SOL    HW1  734   1.270   2.990   0.609 -0.3171 -0.3731 -1.6609
  245SOL    HW2  735   1.323   2.929   0.462  1.7343  1.8996  2.3489
  246SOL     OW  736   1.015   2.847   0.178 -0.0999  0.7362 -0.3666
  246SOL    HW1  737   1.094   2.783   0.167  2.6318 -2.0524  1.1358
  246SOL    HW2  738   1.011   2.876   0.278  0.0918 -0.8933  2.0133
  247SOL     OW  739   0.671   0.807   2.118  0.2368  0.0359 -0.6148
  247SOL    HW1  740   0.741   0.744   2.084 -2.6785 -1.4059  1.0765
  247SOL    HW2  741   0.613   0.763   2.189 -0.9760  2.0386  0.4941
  248SOL     OW  742   1.008   1.407   2.392  0.4077  0.1874  0.1399
  248SOL    HW1  743   0.981   1.487   2.342  0.9208  0.6878  0.1533
  248SOL    HW2  744   1.056   1.433   2.478  0.4220 -2.0692 -0.6877
  249SOL     OW  745   2.153   0.502   0.612 -0.0558 -0.5503  0.0251
  249SOL    HW1  746   2.201   0.562   0.682  0.0689  0.6328 -0.0687
  249SOL    HW2  747   2.065   0.545   0.600  0.6517 -0.2750  0.5691
  250SOL     OW  748   0.772   3.026   0.514 -0.3667 -0.0907 -0.2374
  250SOL    HW1  749   0.708   2.959   0.545  1.6618  0.8848 -1.6056
  250SOL    HW2  750   0.782   0.006   0.578  0.7081 -0.2764  1.8270
  251SOL     OW  751   1.604   0.099   2.960  0.0807  0.5838  0.9652
  251SOL    HW1  752   1.560   0.176   2.916 -0.1077 -2.1560  1.0378
  251SOL    HW2  753   1.653   0.126   3.043 -0.3726 -1.3155 -0.2768
  252SOL     OW  754   1.845   1.230   1.946 -0.3504  0.1758 -0.2101
  252SOL    HW1  755   1.833   1.176   2.030  2.4706  2.1532  2.5147
  252SOL    HW2  756   1.784   1.310   1.949 -1.1544 -0.8697 -1.1960
  253SOL     OW  757   2.691   2.503   1.823  0.1127  0.1261 -0.1023
  253SOL    HW1  758   2.730   2.441   1.894  1.2722 -1.6203  0.6488
  253SOL    HW2  759   2.761   2.543   1.760 -1.5009 -0.3688 -1.9970
  254SOL     OW  760   0.469   1.361   1.237 -0.1645 -0.8072 -0.2959
  254SOL    HW1  761   0.507   1.285   1.295  0.6489 -2.3021  0.9552
  254SOL    HW2  762   0.547   1.413   1.200  1.3728 -0.2127 -0.4835
  255SOL     OW  763   1.227   0.753   1.221  0.1484 -0.4924 -0.4172
  255SOL    HW1  764   1.143   0.710   1.190 -0.8114  0.9843  2.4544
  255SOL    HW2  765   1.198   0.847   1.262 -1.4507  0.5728  4.5960
  256SOL     OW  766   1.764   2.675   1.686  0.3336 -0.2400 -0.5847
  256SOL    HW1  767   1.724   2.617   1.759 -1.9368  1.6064  0.2417
  256SOL    HW2  768   1.856   2.642   1.657  0.1474 -1.4433  0.9769
  257SOL     OW  769   0.350   2.693   2.991  0.0867  0.3671  0.0484
  257SOL    HW1  770   0.311   2.784   3.004  1.1043 -1.7705  0.3487
  257SOL    HW2  771   0.440   2.691   3.038 -3.2497  1.9603 -1.3290
  258SOL     OW  772   0.826   2.646   2.205 -0.3117  0.4353 -0.2787
  258SOL    HW1  773   0.852   2.737   2.242  0.6655 -0.3436 -0.2699
  258SOL    HW2  774   0.891   2.603   2.140 -0.0633 -1.0693 -0.7752
  259SOL     OW  775   1.274   0.131   2.302  0.4848 -0.0940 -0.3294
  259SOL    HW1  776   1.356   0.104   2.252 -4.0639  0.6701  2.3567
  259SOL    HW2  777   1.224   0.052   2.338 -0.1624 -0.4514  0.2708
  260SOL     OW  778   1.699   0.350   0.995  0.2423 -0.2259 -0.1729
  260SOL    HW1  779   1.611   0.307   0.981  0.4761  2.8889 -1.8403
  260SOL    HW2  780   1.760   0.339   0.911  2.6475  0.2159 -1.5947
  261SOL     OW  781   0.176   0.341   2.459  0.1933 -0.1584  0.2795
  261SOL    HW1  782   0.147   0.323   2.556  2.5505  2.5518 -1.2389
  261SOL    HW2  783   0.244   0.416   2.454 -4.5016 -2.8410  1.4939
  262SOL     OW  784   2.934   2.509   2.093 -0.4476  0.0984  0.3903
  262SOL    HW1  785   2.977   2.516   2.187  2.5770  0.0891 -1.6044
  262SOL    HW2  786   2.993   2.549   2.018 -1.7638  1.7948 -0.1513
  263SOL     OW  787   2.809   1.487   2.316 -0.6670  0.0449 -0.2272
  263SOL    HW1  788   2.850   1.571   2.277 -0.1042  2.7164  1.0078
  263SOL    HW2  789   2.811   1.504   2.417 -0.7204 -0.2318 -0.5209
  264SOL     OW  790   0.725   0.940   0.799  0.0386  0.6516 -0.1545
  264SOL    HW1  791   0.687   1.009   0.863 -1.4633 -1.1710  0.7118
  264SOL    HW2  792   0.715   0.976   0.704 -3.5490 -0.7588  1.2291
  265SOL     OW  793   0.821   2.145   0.290 -0.0821  0.2380  0.6706
  265SOL    HW1  794   0.893   2.075   0.294  0.3791  0.0939  2.3898
  265SOL    HW2  795   0.730   2.117   0.334  1.1951  1.5484 -0.1231
  266SOL     OW  796   1.558   0.601   0.899  0.3105 -0.3336 -0.3834
  266SOL    HW1  797   1.609   0.541   0.965  2.8835  0.7834  1.7605
  266SOL    HW2  798   1.531   0.556   0.813 -0.7359 -1.1819 -0.9519
  267SOL     OW  799   2.888   0.807   0.142  0.1291  0.2835  0.7506
  267SOL    HW1  800   2.963   0.875   0.129 -0.6434  0.0805  0.6928
  267SOL    HW2  801   2.843   0.782   0.055 -0.6311  0.2684 -0.7943
  268SOL     OW  802   2.108   0.290   0.362  0.5943  0.0601 -0.4523
  268SOL    HW1  803   2.087   0.312   0.459  1.7990  1.6560 -0.4781
  268SOL    HW2  804   2.027   0.263   0.306  1.2728  1.1296  1.2009
  269SOL     OW  805   1.986   0.992   2.828 -0.0519  0.0197 -0.1334
  269SOL    HW1  806   2.007   0.895   2.838 -0.9115 -0.8947  1.4259
  269SOL    HW2  807   1.938   1.028   2.910 -0.1030 -2.1407  3.6263
  270SOL     OW  808   0.371   0.855   3.048  0.6115  0.0465 -0.5539
  270SOL    HW1  809   0.397   0.847   2.951 -0.2327 -1.0454 -1.2200
  270SOL    HW2  810   0.296   0.790   3.073  0.3228  0.7310  1.8937
  271SOL     OW  811   2.938   0.615   0.320  0.3991  0.6397 -0.3858
  271SOL    HW1  812   2.941   0.688   0.246  2.3050 -1.4721  0.8502
  271SOL    HW2  813   3.032   0.570   0.325  2.4496  0.2994 -0.8020
  272SOL     OW  814   0.056   2.023   2.882 -0.3982  0.3509 -0.7197
  272SOL    HW1  815   3.089   2.015   2.803 -1.2396 -0.7885 -0.4725
  272SOL    HW2  816   0.010   2.039   2.972  1.1736 -1.2352 -0.4708
  273SOL     OW  817   2.655   0.019   0.383 -0.8073  0.3347 -0.4352
  273SOL    HW1  818   2.696   3.085   0.297  1.0760 -1.5912 -0.6078
  273SOL    HW2  819   2.732   0.065   0.429 -0.6031 -1.2195  0.9718
  274SOL     OW  820   0.342   2.147   0.793 -0.7910  0.0646  0.1062
  274SOL    HW1  821   0.324   2.056   0.744  1.0714  0.2085  0.2334
  274SOL    HW2  822   0.349   2.229   0.732 -2.1759  0.4251  4.1286
  275SOL     OW  823   2.692   1.720   0.503  0.1980 -0.2140 -0.2388
  275SOL    HW1  824   2.613   1.724   0.567  0.8167 -0.4231 -1.6766
  275SOL    HW2  825   2.781   1.687   0.547 -2.0604 -1.3047  1.5581
  276SOL     OW  826   0.209   1.086   2.206 -0.2884  0.1448  0.2726
  276SOL    HW1  827   0.200   1.149   2.131  1.0880 -1.5406  0.6592
  276SOL    HW2  828   0.118   1.066   2.246 -0.2982 -1.2611 -0.3039
  277SOL     OW  829   2.100   2.644   1.149  0.4297  0.0959  0.5378
  277SOL    HW1  830   2.111   2.586   1.066 -2.5567  0.0514  0.6453
  277SOL    HW2  831   2.085   2.742   1.123  0.5148 -0.4297 -0.2153
  278SOL     OW  832   1.252   2.940   2.074 -0.1085 -0.6935  0.3361
  278SOL    HW1  833   1.183   3.019   2.090 -2.8082  1.0670  1.8676
  278SOL    HW2  834   1.267   2.932   1.972  0.2267  1.3206  3.6938
  279SOL     OW  835   1.570   1.850   0.731 -0.3499  0.2573  0.3283
  279SOL    HW1  836   1.622   1.901   0.799 -0.1698 -1.0182 -2.0840
  279SOL    HW2  837   1.481   1.899   0.718 -1.8407  1.3177 -1.5016
  280SOL     OW  838   3.021   1.779   0.982  0.0658  0.5707  0.0109
  280SOL    HW1  839   3.093   1.805   0.911  2.1761 -2.5570 -0.9795
  280SOL    HW2  840   2.930   1.750   0.936 -1.5142 -1.0410 -0.3576
  281SOL     OW  841   0.034   0.766   2.382 -0.4298  0.1973  0.4450
  281SOL    HW1  842   3.079   0.771   2.297  1.1395 -0.4281 -1.7811
  281SOL    HW2  843   3.099   0.694   2.446  0.2468 -1.2674  0.5558
  282SOL     OW  844   0.748   1.132   0.590 -0.1718 -0.5893 -0.0172
  282SOL    HW1  845   0.703   1.219   0.558 -1.9758  3.6224 -1.3987
  282SOL    HW2  846   0.841   1.123   0.552 -2.3630  1.3209 -1.3180
  283SOL     OW  847   1.755   2.309   0.086  0.8173  0.1836  0.4540
  283SOL    HW1  848   1.664   2.353   0.096  1.0763  0.8515 -0.5637
  283SOL    HW2  849   1.811   2.324   0.166 -1.7203 -0.0240 -1.8244
  284SOL     OW  850   1.246   0.557   0.116  0.4539 -0.1254 -0.0544
  284SOL    HW1  851   1.303   0.493   0.178 -0.7276 -3.0279  0.6826
  284SOL    HW2  852   1.315   0.597   0.053 -1.3720 -0.3232  1.1664
  285SOL     OW  853   2.223   1.201   2.867  0.1928  0.1457  0.1020
  285SOL    HW1  854   2.178   1.284   2.834  3.3287 -1.0136 -1.3158
  285SOL    HW2  855   2.151   1.125   2.863 -0.6100 -0.8460  1.1797
  286SOL     OW  856   1.458   2.631   1.271  0.0540  0.1507 -0.6473
  286SOL    HW1  857   1.500   2.651   1.363 -0.7816  1.9353  0.5469
  286SOL    HW2  858   1.368   2.582   1.284  0.2069 -0.0577 -0.4831
  287SOL     OW  859   1.005   0.899   0.820 -0.1773 -0.2432 -0.4179
  287SOL    HW1  860   1.021   0.809   0.782  0.0166  1.8374  2.7889
  287SOL    HW2  861   0.907   0.924   0.811 -2.7521 -0.5219 -1.3796
  288SOL     OW  862   1.225   2.599   0.131  0.0186  0.0508  0.6913
  288SOL    HW1  863   1.230   2.599   0.031  0.3579  1.9649  1.8717
  288SOL    HW2  864   1.317   2.621   0.173  0.2572  0.6077 -0.3681
  289SOL     OW  865   0.363   1.518   1.453  0.1324 -0.0457 -0.3271
  289SOL    HW1  866   0.438   1.566   1.499  1.3382  2.6637  0.3973
  289SOL    HW2  867   0.397   1.474   1.369 -0.0872  1.1983  1.5658
  290SOL     OW  868   1.732   2.430   0.845 -0.4010  0.1050  0.3547
  290SOL    HW1  869   1.650   2.424   0.783  1.7210 -3.7408  0.6773
  290SOL    HW2  870   1.764   2.526   0.864 -0.1207 -0.6319 -1.6626
  291SOL     OW  871   1.947   0.018   0.000  0.4213  0.5592  0.3428
  291SOL    HW1  872   2.008   0.061   3.033 -1.7107  0.4094 -0.1223
  291SOL    HW2  873   1.975   3.020   0.015  1.4527 -0.5742  1.2931
  292SOL     OW  874   0.855   0.606   2.091 -0.4958 -0.1025 -0.4916
  292SOL    HW1  875   0.936   0.638   2.039  0.7655  1.1192 -2.1715
  292SOL    HW2  876   0.885   0.555   2.171 -1.9415  1.3771 -2.2397
  293SOL     OW  877   1.958   2.319   0.675  0.3299  0.2404  0.1204
  293SOL    HW1  878   2.012   2.255   0.727 -1.3654  1.1829 -1.4981
  293SOL    HW2  879   1.872   2.329   0.735 -0.1851 -0.7689  0.2911
  294SOL     OW  880   0.503   0.718   2.312  0.1504 -0.2726 -0.0100
  294SOL    HW1  881   0.417   0.765   2.293  0.3169 -1.3330 -0.4650
  294SOL    HW2  882   0.491   0.641   2.380 -2.7940 -2.0087 -3.3625
  295SOL     OW  883   1.392   1.510   1.000  0.6783  0.9374  0.0959
  295SOL    HW1  884   1.405   1.407   1.003  0.0018 -1.4616  2.4960
  295SOL    HW2  885   1.474   1.559   1.008 -1.8432 -2.1162  2.4002
  296SOL     OW  886   2.508   1.911   0.345  0.2270 -0.4943  0.0137
  296SOL    HW1  887   2.456   1.994   0.380  0.0677  0.7917  0.5544
  296SOL    HW2  888   2.611   1.926   0.362  0.2977  0.5120  2.1604
  297SOL     OW  889   2.259   0.172   0.166  0.2321  0.0879  0.6628
  297SOL    HW1  890   2.200   0.230   0.221  1.6205 -1.3980 -0.5029
  297SOL    HW2  891   2.298   0.223   0.089 -0.2664 -2.1651  4.6673
  298SOL     OW  892   0.913   2.411   2.587  0.5935 -0.8016  0.2294
  298SOL    HW1  893   0.878   2.395   2.682 -0.7263 -1.4798  1.0995
  298SOL    HW2  894   1.006   2.453   2.579  0.6672  1.5309  1.5809
  299SOL     OW  895   1.243   2.547   2.106 -0.0131 -0.1316 -0.1353
  299SOL    HW1  896   1.264   2.630   2.161 -1.6668  0.7801 -2.6775
  299SOL    HW2  897   1.306   2.468   2.132 -1.2842 -1.9391  3.3250
  300SOL     OW  898   2.634   3.070   2.545  0.9610  0.2696 -0.3360
  300SOL    HW1  899   2.604   2.998   2.480  0.3437 -3.6116 -0.9330
  300SOL    HW2  900   2.632   0.060   2.502 -2.0980 -0.6499  0.6691
  301SOL     OW  901   1.347   0.527   2.242 -0.4384 -0.3418 -0.1142
  301SOL    HW1  902   1.274   0.454   2.223 -1.4387 -3.0768 -3.7008
  301SOL    HW2  903   1.413   0.535   2.164  1.6711 -0.8604  2.4852
  302SOL     OW  904   2.583   2.664   0.268  0.0581 -0.2277  0.3083
  302SOL    HW1  905   2.514   2.728   0.238  2.4356 -1.5998  2.2991
  302SOL    HW2  906   2.658   2.709   0.318  0.2535  0.2717 -0.8717
  303SOL     OW  907   2.732   2.302   2.059 -0.2290 -0.3051  0.3884
  303SOL    HW1  908   2.727   2.202   2.041  1.1191  2.5237 -0.7264
  303SOL    HW2  909   2.831   2.328   2.064  1.8454 -2.1566 -0.7409
  304SOL     OW  910   2.792   0.729   1.844 -0.0567  0.4783  0.4877
  304SOL    HW1  911   2.815   0.827   1.836  0.3379  0.2483  1.8058
  304SOL    HW2  912   2.801   0.696   1.942 -0.0656  0.1611  0.0912
  305SOL     OW  913   0.577   1.689   1.334  0.0082  0.4743  0.4597
  305SOL    HW1  914   0.625   1.641   1.257 -2.2364 -1.1924 -1.0021
  305SOL    HW2  915   0.606   1.651   1.427 -2.0166 -0.7213  1.1055
  306SOL     OW  916   3.058   1.082   1.731 -0.4614  0.1172 -0.1066
  306SOL    HW1  917   3.050   1.076   1.831 -2.6101  1.1792  0.2439
  306SOL    HW2  918   3.044   0.990   1.690 -1.3691  2.7692  0.0532
  307SOL     OW  919   1.085   0.449   1.801  0.0028 -0.0205  0.2082
  307SOL    HW1  920   1.083   0.540   1.846  1.4099 -2.0920 -1.5830
  307SOL    HW2  921   1.076   0.456   1.697 -0.8736 -1.1985 -4.1022
  308SOL     OW  922   2.764   0.774   1.238 -0.0816 -0.1122 -0.3050
  308SOL    HW1  923   2.733   0.718   1.318  1.3496 -1.2268  2.3474
  308SOL    HW2  924   2.722   0.730   1.156 -0.7251  2.3109  0.3962
  309SOL     OW  925   2.185   1.249   0.888  0.0059 -0.3183 -0.1345
  309SOL    HW1  926   2.079   1.252   0.896 -3.9063  0.2171 -0.9184
  309SOL    HW2  927   2.217   1.244   0.986 -0.8450 -0.5602  0.7496
  310SOL     OW  928   3.020   1.986   2.655  0.2671 -0.1958  0.2710
  310SOL    HW1  929   3.087   1.936   2.596 -0.7106  1.5066 -0.8683
  310SOL    HW2  930   2.936   1.932   2.642  2.6466 -0.7713 -1.4916
  311SOL     OW  931   2.937   2.790   2.700 -0.3105 -0.0850  0.3486
  311SOL    HW1  932   2.867   2.865   2.713  1.6166  0.4603 -0.6499
  311SOL    HW2  933   2.900   2.694   2.700  0.6593 -2.1466  1.8323
  312SOL     OW  934   2.182   1.915   0.149  0.4478  0.2974  0.3770
  312SOL    HW1  935   2.265   1.872   0.108 -0.8128  0.5037 -0.4400
  312SOL    HW2  936   2.098   1.882   0.099  0.0535  1.0429  2.8389
  313SOL     OW  937   2.484   2.978   0.545  0.4837  0.3589  0.4077
  313SOL    HW1  938   2.520   2.921   0.617 -2.1734 -1.1750  1.1568
  313SOL    HW2  939   2.562   3.015   0.490  2.1634  0.2726 -1.3796
  314SOL     OW  940   1.494   1.166   0.468  0.1261 -0.2669  0.0777
  314SOL    HW1  941   1.547   1.087   0.433 -3.3664  2.3459  0.9861
  314SOL    HW2  942   1.486   1.240   0.393 -1.0770  0.9163 -1.8569
  315SOL     OW  943   1.399   2.645   1.915 -0.2586 -0.7589 -0.1070
  315SOL    HW1  944   1.322   2.623   1.978  1.1735  1.8534  0.2828
  315SOL    HW2  945   1.451   2.722   1.956  2.5159  0.8504  2.7962
  316SOL     OW  946   0.193   0.855   0.318 -0.1698 -0.5047 -0.2837
  316SOL    HW1  947   0.160   0.815   0.234  3.3878  2.1314  1.4703
  316SOL    HW2  948   0.150   0.805   0.394  0.8065 -0.3442  1.2732
  317SOL     OW  949   0.511   3.028   0.213 -0.4424  0.3540  0.1935
  317SOL    HW1  950   0.451   3.094   0.266 -0.3675  0.1089  0.2838
  317SOL    HW2  951   0.461   2.936   0.227  0.3829  0.9663  2.5828
  318SOL     OW  952   2.332   2.536   0.528  0.0413 -0.1624 -0.3346
  318SOL    HW1  953   2.309   2.537   0.429 -0.2741  1.7005  0.3484
  318SOL    HW2  954   2.310   2.624   0.572 -0.6264  1.3642  2.7524
  319SOL     OW  955   1.048   1.691   3.063  0.4505 -0.4717 -0.2228
  319SOL    HW1  956   0.982   1.763   3.024  0.6435  0.5021  1.8556
  319SOL    HW2  957   1.046   1.603   3.013  2.7622  1.6342  0.4545
  320SOL     OW  958   0.233   2.386   2.105 -0.7200 -0.1835  0.3450
  320SOL    HW1  959   0.238   2.292   2.067  0.1688 -0.8605  0.5411
  320SOL    HW2  960   0.242   2.460   2.032 -0.8204  0.2403 -1.9075
  321SOL     OW  961   1.695   2.888   2.543 -0.2473 -0.1720  0.0310
  321SOL    HW1  962   1.659   2.872   2.451 -0.5380  0.3936  1.5645
  321SOL    HW2  963   1.646   2.958   2.590 -1.3744  0.5169 -2.9735
  322SOL     OW  964   3.029   1.334   2.254 -0.3459 -0.5149  0.3786
  322SOL    HW1  965   0.024   1.359   2.276 -3.0126 -0.4087  0.2754
  322SOL    HW2  966   2.956   1.400   2.273  2.6452 -0.4795  0.5039
  323SOL     OW  967   2.267   1.428   0.691 -0.1260 -0.2481 -0.0607
  323SOL    HW1  968   2.252   1.377   0.777 -2.3208 -1.2281  0.6539
  323SOL    HW2  969   2.370   1.447   0.673  0.5007  4.0654  1.8707
  324SOL     OW  970   2.986   0.046   2.493  0.0056  0.3108 -0.4768
  324SOL    HW1  971   2.922   0.106   2.540 -0.8869 -1.8537 -2.1637
  324SOL    HW2  972   3.035   3.090   2.561 -0.4439 -0.2141  0.4303
  325SOL     OW  973   1.261   0.701   2.791  0.2645 -0.5283 -0.4293
  325SOL    HW1  974   1.264   0.675   2.692  0.0176  3.1878 -2.2076
  325SOL    HW2  975   1.186   0.764   2.804  2.1238  1.0147  0.8173
  326SOL     OW  976   2.208   2.864   1.794  0.5415  0.4920  0.2246
  326SOL    HW1  977   2.259   2.832   1.713  0.6585 -1.5472  1.2054
  326SOL    HW2  978   2.262   2.932   1.848  0.6014  0.3433  0.1263
  327SOL     OW  979   2.236   0.343   3.061 -0.1132 -0.0506  0.2664
  327SOL    HW1  980   2.311   0.388   3.012 -0.9230  1.9320  0.0032
  327SOL    HW2  981   2.174   0.415   3.095  3.1530 -0.6623  0.0527
  328SOL     OW  982   0.103   1.250   2.505  0.3245  0.1214  0.2795
  328SOL    HW1  983   0.054   1.161   2.499  1.5362 -1.3211 -0.7548
  328SOL    HW2  984   0.138   1.276   2.409  0.4341 -1.9482 -1.3544
  329SOL     OW  985   2.058   3.058   1.702  0.3866 -0.3279  0.0186
  329SOL    HW1  986   1.960   3.058   1.680 -0.1038  0.6950 -0.1761
  329SOL    HW2  987   2.077   2.975   1.750 -0.0351  3.9516 -2.7298
  330SOL     OW  988   2.863   1.361   1.120  0.0643 -0.2290  0.1628
  330SOL    HW1  989   2.769   1.318   1.111 -2.2153 -0.2332  0.3736
  330SOL    HW2  990   2.899   1.346   1.211  0.4590  0.0836  0.1335
  331SOL     OW  991   0.457   1.721   2.182 -0.3124 -0.2480  0.4029
  331SOL    HW1  992   0.527   1.767   2.240 -0.1605  2.1299 -1.3066
  331SOL    HW2  993   0.505   1.677   2.107  1.1313 -3.0848  1.3967
  332SOL     OW  994   0.084   2.748   1.678 -0.0352 -0.5503 -0.0905
  332SOL    HW1  995   0.172   2.723   1.639 -2.3358 -1.3718 -1.0891
  332SOL    HW2  996   0.025   2.797   1.610 -0.0973 -2.2604  0.7123
  333SOL     OW  997   2.134   2.517   0.926 -0.3306 -0.4905 -0.3099
  333SOL    HW1  998   2.164   2.419   0.934  0.3812  1.2458 -2.1122
  333SOL    HW2  999   2.078   2.531   0.844 -0.2933  1.1230  0.0423
  334SOL     OW 1000   0.840   1.793   0.788  0.6976  0.4642 -0.3313
  334SOL    HW1 1001   0.874   1.699   0.811  0.2912  3.4414  0.3226
  334SOL    HW2 1002   0.867   1.855   0.862  0.2186 -0.7731  1.7203
  335SOL     OW 1003   0.185   2.495   2.935  0.1861 -0.3215  0.3481
  335SOL    HW1 1004   0.222   2.419   2.873  1.2016 -0.0170 -0.5704
  335SOL    HW2 1005   0.252   2.570   2.948 -1.2355 -1.9559  0.9105
  336SOL     OW 1006   0.478   3.083   2.135 -0.4393 -0.3477  0.0656
  336SOL    HW1 1007   0.410   3.050   2.203 -0.2182  1.3828 -3.8700
  336SOL    HW2 1008   0.533   2.999   2.108  1.2526  0.5123  1.3314
  337SOL     OW 1009   2.464   1.948   2.952  0.0996 -0.6085 -0.5982
  337SOL    HW1 1010   2.448   1.936   3.050  1.6143 -0.8053  0.0724
  337SOL    HW2 1011   2.394   2.004   2.908  3.2831 -0.0654 -0.2518
  338SOL     OW 1012   1.005   1.322   0.971 -0.3180  0.4061  0.5740
  338SOL    HW1 1013   0.948   1.391   0.921 -0.4324  1.3754  0.1570
  338SOL    HW2 1014   1.043   1.373   1.054  1.5650  0.4389  3.6756
  339SOL     OW 1015   0.141   0.780   1.720  0.4635  0.5451 -0.1989
  339SOL    HW1 1016   0.114   0.759   1.819 -0.5430  0.3219  0.1498
  339SOL    HW2 1017   0.062   0.809   1.663  2.2518 -2.6259 -0.2239
  340SOL     OW 1018   1.499   2.681   0.251  0.4319 -0.6560  0.4590
  340SOL    HW1 1019   1.494   2.706   0.348 -0.1027 -0.6333 -0.7749
  340SOL    HW2 1020   1.516   2.763   0.191 -1.0046 -0.1563 -0.7930
  341SOL     OW 1021   1.899   1.274   0.864  0.5972  0.3880  0.1365
  341SOL    HW1 1022   1.837   1.194   0.885  1.4115 -0.2176  2.3891
  341SOL    HW2 1023   1.855   1.350   0.816 -2.6918 -0.9892  1.0923
  342SOL     OW 1024   2.497   2.919   3.033  0.1070  0.1751  0.0641
  342SOL    HW1 1025   2.458   2.877   0.015 -0.3393 -0.1620 -3.3108
  342SOL    HW2 1026   2.577   2.863   2.999 -0.8553  1.2492  0.4538
  343SOL     OW 1027   1.375   2.143   1.340  0.2953  0.4737  0.4177
  343SOL    HW1 1028   1.390   2.229   1.388 -0.9949  0.1759 -1.2448
  343SOL    HW2 1029   1.281   2.110   1.359 -0.7881 -0.6728  0.7124
  344SOL     OW 1030   2.296   2.268   0.913  0.6277 -0.3479 -0.3837
  344SOL    HW1 1031   2.247   2.245   0.996  0.7885  2.3146 -1.0276
  344SOL    HW2 1032   2.395   2.255   0.922  0.8249  0.9735 -1.6681
  345SOL     OW 1033   2.602   2.434   0.073 -0.7163 -0.4504  0.4128
  345SOL    HW1 1034   2.557   2.351   0.098 -1.4395  1.7327  0.4036
  345SOL    HW2 1035   2.587   2.509   0.139  1.5346 -0.9072  0.1682
  346SOL     OW 1036   2.845   1.433   0.574 -0.4909  0.1257  0.3113
  346SOL    HW1 1037   2.881   1.530   0.573  1.3219  4.0051  0.3396
  346SOL    HW2 1038   2.869   1.383   0.656 -2.3445 -0.7483 -2.8421
  347SOL     OW 1039   2.000   2.174   1.428 -0.0163 -0.0845 -0.5058
  347SOL    HW1 1040   1.935   2.156   1.356 -1.2156  0.7732 -1.8055
  347SOL    HW2 1041   2.096   2.150   1.399  1.4666  0.9196 -0.1779
  348SOL     OW 1042   0.827   1.858   2.971  0.0191  0.2322 -0.6801
  348SOL    HW1 1043   0.803   1.937   2.909  0.2139 -2.7200 -1.6696
  348SOL    HW2 1044   0.754   1.818   3.028 -0.0968 -0.4380 -0.7957
  349SOL     OW 1045   2.349   1.351   1.827  0.4028  0.1123 -0.4674
  349SOL    HW1 1046   2.256   1.314   1.833  1.1310  1.0525  0.3335
  349SOL    HW2 1047   2.354   1.451   1.841  1.4829 -2.1694  1.2608
  350SOL     OW 1048   2.867   2.437   0.809 -0.1034 -0.0632  0.5039
  350SOL    HW1 1049   2.815   2.499   0.870 -1.2507 -1.7888  1.0425
  350SOL    HW2 1050   2.965   2.443   0.823 -2.6448 -4.2218 -2.0061
  351SOL     OW 1051   0.334   0.367   2.169 -0.3441  0.0231  0.1567
  351SOL    HW1 1052   0.373   0.337   2.255 -0.2024  1.1712 -1.0443
  351SOL    HW2 1053   0.288   0.293   2.116 -3.6251 -0.2613 -0.2166
  352SOL     OW 1054   0.420   1.908   1.220 -0.3736  0.5735 -0.7908
  352SOL    HW1 1055   0.472   1.819   1.223 -0.5407 -1.6781 -1.5227
  352SOL    HW2 1056   0.327   1.887   1.188 -1.2974  0.2033 -0.7345
  353SOL     OW 1057   1.522   1.729   2.700 -0.5872  0.7182  0.2605
  353SOL    HW1 1058   1.484   1.719   2.608 -3.0558 -1.8893 -1.3300
  353SOL    HW2 1059   1.584   1.657   2.727 -1.7086  1.2098 -3.0239
  354SOL     OW 1060   1.299   0.574   1.003  0.4975  0.2614 -0.0126
  354SOL    HW1 1061   1.393   0.578   0.969  0.4965 -1.5591 -0.2175
  354SOL    HW2 1062   1.281   0.651   1.068  1.3543 -0.6553 -1.5521
  355SOL     OW 1063   2.759   0.931   0.638 -0.1512 -0.4274 -0.1303
  355SOL    HW1 1064   2.796   0.840   0.632 -0.5173  0.6880 -1.5774
  355SOL    HW2 1065   2.752   0.967   0.737 -3.3885  1.7047  0.3105
  356SOL     OW 1066   2.466   1.765   2.322  0.1934 -0.2207  0.6335
  356SOL    HW1 1067   2.369   1.771   2.354 -1.4735  1.5819  0.1305
  356SOL    HW2 1068   2.510   1.686   2.363  1.4620 -0.6543  0.3789
  357SOL     OW 1069   0.530   2.484   1.266 -0.0039  0.5415 -0.2211
  357SOL    HW1 1070   0.629   2.481   1.229  0.9036 -2.6779 -3.3101
  357SOL    HW2 1071   0.468   2.407   1.227 -1.5057 -2.3113  0.9649
  358SOL     OW 1072   2.491   0.829   1.874  0.5679 -0.2449  0.7515
  358SOL    HW1 1073   2.469   0.858   1.776 -1.0664 -1.3748  2.2698
  358SOL    HW2 1074   2.568   0.762   1.867 -0.4556 -0.9509 -1.9311
  359SOL     OW 1075   2.545   2.340   2.732  0.6361  0.0721 -0.1353
  359SOL    HW1 1076   2.512   2.365   2.638 -0.4022  0.9620  0.5676
  359SOL    HW2 1077   2.622   2.270   2.732 -0.9050 -0.7947  2.0832
  360SOL     OW 1078   1.942   0.635   0.893 -0.0896 -0.5229  0.2180
  360SOL    HW1 1079   1.982   0.713   0.846 -1.7202 -1.8040  2.4270
  360SOL    HW2 1080   1.919   0.659   0.987  0.1865 -1.5769 -1.2523
  361SOL     OW 1081   2.309   0.166   0.938  0.3750  0.0808 -0.9585
  361SOL    HW1 1082   2.272   0.204   0.853  2.2763 -0.2257 -0.6607
  361SOL    HW2 1083   2.287   0.069   0.953 -1.2271  0.3876  0.5208
  362SOL     OW 1084   1.184   1.374   0.460 -0.2014  0.0497 -0.2223
  362SOL    HW1 1085   1.182   1.347   0.558  0.6204  1.1257  2.9634
  362SOL    HW2 1086   1.217   1.468   0.442 -1.1162 -0.2375 -0.9426
  363SOL     OW 1087   2.375   1.617   2.653 -0.2793 -0.1902 -0.3198
  363SOL    HW1 1088   2.417   1.640   2.746  0.6937 -0.9585 -0.6313
  363SOL    HW2 1089   2.441   1.572   2.591 -1.0476 -0.0403 -1.5669
  364SOL     OW 1090   0.838   0.534   1.469  0.4931  0.5942 -0.3408
  364SOL    HW1 1091   0.876   0.624   1.489 -1.0930 -0.8572  1.3587
  364SOL    HW2 1092   0.837   0.478   1.554 -1.3300 -0.6104  2.5601
  365SOL     OW 1093   0.153   3.032   0.545  0.1412  0.1094 -0.2249
  365SOL    HW1 1094   0.117   3.022   0.455  0.7885 -0.4474  3.1921
  365SOL    HW2 1095   0.092   2.976   0.609 -1.3377 -0.2335 -2.8115
  366SOL     OW 1096   2.876   1.295   3.053 -0.0981  0.4867 -0.2227
  366SOL    HW1 1097   2.885   1.381   0.008  0.1564 -1.3927  0.8463
  366SOL    HW2 1098   2.963   1.242   3.052  0.6290  2.8426 -1.2667
  367SOL     OW 1099   2.834   2.542   2.743 -0.3722  0.4314  0.2082
  367SOL    HW1 1100   2.744   2.577   2.708 -1.8496  0.0513 -0.5150
  367SOL    HW2 1101   2.830   2.503   2.842 -1.5191 -2.9990  2.0045
  368SOL     OW 1102   0.092   1.839   0.773 -0.2354 -0.0863 -0.8402
  368SOL    HW1 1103   0.024   1.907   0.736  2.4014  0.4286  1.2468
  368SOL    HW2 1104   0.182   1.865   0.744 -2.5701 -1.1633  0.7772
  369SOL     OW 1105   0.726   0.096   0.278  0.4616 -0.2416 -0.4782
  369SOL    HW1 1106   0.645   0.054   0.234  1.2862 -1.9824  1.8989
  369SOL    HW2 1107   0.751   0.039   0.361 -2.0676 -2.0668  1.7957
  370SOL     OW 1108   0.388   1.020   0.754 -0.0938 -0.6196  0.0295
  370SOL    HW1 1109   0.356   1.085   0.679 -1.1141 -0.4985 -0.6734
  370SOL    HW2 1110   0.452   1.074   0.815 -0.0708 -0.0854  0.3142
  371SOL     OW 1111   1.968   2.856   0.691  0.2762 -0.2876  0.0732
  371SOL    HW1 1112   2.009   2.765   0.692 -0.2056 -1.1156 -0.7602
  371SOL    HW2 1113   1.991   2.904   0.603  0.5629  2.0170  0.8766
  372SOL     OW 1114   0.209   0.977   2.734  0.4680 -0.3148  0.0574
  372SOL    HW1 1115   0.155   0.992   2.651  0.7652  0.0381  4.6020
  372SOL    HW2 1116   0.255   1.063   2.772  1.7090  0.2525  1.7349
  373SOL     OW 1117   2.785   1.726   0.853 -0.2204  0.0683  0.0834
  373SOL    HW1 1118   2.757   1.673   0.932 -0.5297  4.2426 -0.4656
  373SOL    HW2 1119   2.704   1.755   0.798 -3.1742  0.3579  3.1535
  374SOL     OW 1120   0.339   2.505   0.194  0.4329  0.8493  0.4115
  374SOL    HW1 1121   0.280   2.440   0.143 -1.2483 -0.6447 -2.3080
  374SOL    HW2 1122   0.430   2.466   0.225  0.9243  1.6016  1.4713
  375SOL     OW 1123   0.238   0.470   0.179  0.2707  0.1334 -0.2053
  375SOL    HW1 1124   0.326   0.487   0.231  0.8576 -0.7811  2.5836
  375SOL    HW2 1125   0.259   0.405   0.103 -2.1531 -1.0620  2.6781
  376SOL     OW 1126   0.415   2.856   1.812 -0.1393 -0.4871  0.5730
  376SOL    HW1 1127   0.515   2.845   1.841  2.6892 -0.6059 -0.8837
  376SOL    HW2 1128   0.392   2.951   1.779  1.4878  0.3104 -2.9852
  377SOL     OW 1129   1.118   2.176   2.546 -0.1924 -0.0622  0.6519
  377SOL    HW1 1130   1.058   2.246   2.591 -2.2743  2.6665  0.5826
  377SOL    HW2 1131   1.213   2.218   2.524 -0.2245  1.9118  0.3264
  378SOL     OW 1132   1.234   0.689   0.563  0.6843  0.0863  0.6588
  378SOL    HW1 1133   1.192   0.702   0.477  3.8604  0.7083 -0.4919
  378SOL    HW2 1134   1.300   0.765   0.583 -0.5496  1.2232 -1.5317
  379SOL     OW 1135   0.997   1.703   0.219  0.1601 -0.6212  0.2512
  379SOL    HW1 1136   1.008   1.689   0.118 -0.4584  2.7176 -0.7821
  379SOL    HW2 1137   0.951   1.622   0.265 -1.1992  0.0241  1.4631
  380SOL     OW 1138   3.050   1.813   1.779 -0.6396 -0.1940 -0.4482
  380SOL    HW1 1139   2.984   1.793   1.704  0.1258  1.0315  0.2161
  380SOL    HW2 1140   0.051   1.801   1.762  0.2533 -0.7981  0.5171
  381SOL     OW 1141   0.206   1.203   1.783  0.1065 -0.2461 -0.1589
  381SOL    HW1 1142   0.106   1.194   1.764  1.7891  2.7179 -0.6856
  381SOL    HW2 1143   0.255   1.126   1.742 -1.5593 -0.3951  0.6213
  382SOL     OW 1144   2.557   2.134   0.644 -0.1199 -0.0222 -0.3996
  382SOL    HW1 1145   2.465   2.175   0.654  0.8689 -3.3624  0.9270
  382SOL    HW2 1146   2.611   2.204   0.592 -1.0935  0.5861 -2.9813
  383SOL     OW 1147   2.003   1.961   2.544 -0.0096 -0.4261 -0.0263
  383SOL    HW1 1148   2.084   1.898   2.532 -0.9994  0.5054  1.5025
  383SOL    HW2 1149   2.024   2.060   2.519 -0.4586  1.0830 -0.1766
  384SOL     OW 1150   0.625   1.862   2.331  0.3152 -0.4085 -0.1644
  384SOL    HW1 1151   0.621   1.933   2.403 -0.3144 -1.7520  0.2272
  384SOL    HW2 1152   0.660   1.895   2.246 -1.0729  1.0401  2.6027
  385SOL     OW 1153   2.799   2.209   0.972  0.2082 -0.6451 -0.0697
  385SOL    HW1 1154   2.825   2.289   0.908 -2.7563  0.5869 -1.8102
  385SOL    HW2 1155   2.874   2.144   1.003  2.8831  0.6190  2.3894
  386SOL     OW 1156   1.750   0.756   0.177  0.0580 -0.5788 -0.3852
  386SOL    HW1 1157   1.725   0.667   0.220 -0.1770 -1.3110  1.2089
  386SOL    HW2 1158   1.842   0.787   0.207 -0.5868  0.8495  1.0178
  387SOL     OW 1159   0.344   0.969   1.719 -0.0680 -0.2662 -0.0398
  387SOL    HW1 1160   0.287   0.885   1.725  2.6496  2.5128 -0.7653
  387SOL    HW2 1161   0.430   0.951   1.773  1.0792  0.0238 -2.3238
  388SOL     OW 1162   2.565   0.943   2.353 -0.1358  0.1467  0.1329
  388SOL    HW1 1163   2.568   0.971   2.253  0.9434 -0.5766  3.2267
  388SOL    HW2 1164   2.477   0.977   2.391  0.8020  1.1592 -0.0619
  389SOL     OW 1165   1.550   0.928   2.207 -0.4599 -0.6362 -0.3175
  389SOL    HW1 1166   1.523   0.973   2.120 -0.1943 -0.2142 -0.8709
  389SOL    HW2 1167   1.652   0.909   2.202  4.0365 -2.4081  1.4976
  390SOL     OW 1168   1.880   2.696   0.148 -0.2303 -0.0733 -0.3708
  390SOL    HW1 1169   1.832   2.676   0.231  2.1666  0.7207 -2.9173
  390SOL    HW2 1170   1.836   2.651   0.066 -1.3618  1.2092  0.2353
  391SOL     OW 1171   1.830   2.178   1.034 -0.6011  0.2280 -0.1211
  391SOL    HW1 1172   1.933   2.173   1.039  2.4576  0.5742 -1.1519
  391SOL    HW2 1173   1.803   2.272   1.051  1.3370  0.1865  2.3271
  392SOL     OW 1174   2.964   2.453   1.421  0.9883  0.0819 -0.0950
  392SOL    HW1 1175   3.022   2.523   1.370  3.3263  1.7824 -1.4119
  392SOL    HW2 1176   2.901   2.405   1.356 -2.5407  0.7993 -0.5221
  393SOL     OW 1177   1.972   1.873   3.074 -0.1089 -0.0978  0.1500
  393SOL    HW1 1178   1.934   1.789   0.020 -2.7982 -2.1855 -0.6843
  393SOL    HW2 1179   1.940   1.892   2.977  1.3644  1.0825 -3.7759
  394SOL     OW 1180   0.430   0.059   3.075 -1.1068 -0.0577  0.4503
  394SOL    HW1 1181   0.477   3.098   0.043  1.9017  0.4973 -0.9716
  394SOL    HW2 1182   0.478   0.052   2.981  0.8996  0.8096 -1.5273
  395SOL     OW 1183   1.500   1.101   1.390 -0.5756  0.2879 -0.0823
  395SOL    HW1 1184   1.489   1.181   1.327  1.2992  0.1005  1.6949
  395SOL    HW2 1185   1.505   1.013   1.343  0.0516 -1.2847 -0.6171
  396SOL     OW 1186   1.667   0.999   0.100 -0.4757 -0.5291  0.3381
  396SOL    HW1 1187   1.752   1.045   0.135  0.3821 -1.7049  2.7794
  396SOL    HW2 1188   1.676   0.900   0.108  1.9027 -0.3574 -0.4119
  397SOL     OW 1189   0.203   0.695   2.729 -0.2208 -0.5284 -0.5519
  397SOL    HW1 1190   0.109   0.688   2.697  2.5952 -2.0515  0.2664
  397SOL    HW2 1191   0.233   0.793   2.734 -2.3196  0.5784 -1.3732
  398SOL     OW 1192   1.341   0.153   0.169  0.0567  0.1442  0.0711
  398SOL    HW1 1193   1.276   0.109   0.104 -1.7595 -2.7274 -2.6925
  398SOL    HW2 1194   1.422   0.096   0.191 -0.7290 -3.9045  0.8655
  399SOL     OW 1195   2.470   2.760   1.974 -0.1472  0.1451  0.0431
  399SOL    HW1 1196   2.521   2.757   1.887 -2.2562 -0.3814 -0.1837
  399SOL    HW2 1197   2.430   2.669   1.992 -0.7403 -1.8382 -1.4906
  400SOL     OW 1198   0.049   1.608   2.410  0.3716 -0.1259  0.6994
  400SOL    HW1 1199   0.110   1.530   2.382  1.2374 -4.1810 -0.9532
  400SOL    HW2 1200   3.066   1.616   2.349  0.1510  2.5217 -2.1522
  401SOL     OW 1201   0.493   0.387   2.661 -0.4100  0.0833 -0.0425
  401SOL    HW1 1202   0.475   0.434   2.750  0.1772  0.0495  0.3173
  401SOL    HW2 1203   0.586   0.347   2.656  0.8985 -0.4328  0.4128
  402SOL     OW 1204   0.416   2.295   1.798 -0.2748  0.4861  0.0398
  402SOL    HW1 1205   0.432   2.225   1.726  0.5102  2.8957  0.5134
  402SOL    HW2 1206   0.484   2.370   1.783 -1.1251  0.7561 -1.4523
  403SOL     OW 1207   0.832   1.156   1.385  0.0825  0.4889  0.0260
  403SOL    HW1 1208   0.827   1.055   1.393 -1.0962 -1.9588  0.8968
  403SOL    HW2 1209   0.794   1.198   1.471  0.9903 -0.1462  0.4009
  404SOL     OW 1210   2.869   2.600   1.633  0.1203  0.0250 -0.4605
  404SOL    HW1 1211   2.802   2.673   1.613  1.8988 -0.6038  0.7504
  404SOL    HW2 1212   2.904   2.551   1.551 -0.4635 -1.6996 -0.3769
  405SOL     OW 1213   3.018   0.182   1.858 -0.1785 -0.7756  0.2915
  405SOL    HW1 1214   3.098   0.122   1.834 -0.8134 -0.3125 -1.7841
  405SOL    HW2 1215   3.006   0.201   1.957  0.0682  0.1426  2.1837
  406SOL     OW 1216   1.535   2.566   2.846 -0.3899  0.2229  0.2387
  406SOL    HW1 1217   1.535   2.469   2.810  0.6954 -1.1866 -1.1441
  406SOL    HW2 1218   1.574   2.631   2.780  0.0192 -1.7914  1.3120
  407SOL     OW 1219   1.671   1.457   1.571  0.5388  0.0431  0.0339
  407SOL    HW1 1220   1.664   1.366   1.619 -1.4311 -1.2512 -1.1849
  407SOL    HW2 1221   1.767   1.487   1.570 -0.2505 -3.5584 -1.6615
  408SOL     OW 1222   0.635   0.177   2.080  0.0913 -0.1860  0.1842
  408SOL    HW1 1223   0.559   0.115   2.094  0.1211  1.7903  0.8013
  408SOL    HW2 1224   0.696   0.174   2.159  0.2184  0.7413  0.5513
  409SOL     OW 1225   2.785   2.343   0.566  0.3061  0.0242  0.4523
  409SOL    HW1 1226   2.714   2.397   0.520 -0.4587  0.9454 -0.6812
  409SOL    HW2 1227   2.789   2.366   0.663 -0.9128 -1.2212  1.0501
  410SOL     OW 1228   2.375   1.708   0.480  0.1674 -1.0916  0.8233
  410SOL    HW1 1229   2.399   1.613   0.452  0.1924 -1.5556  0.7801
  410SOL    HW2 1230   2.427   1.780   0.421  0.1273  1.8534 -0.6323
  411SOL     OW 1231   0.132   0.585   0.885 -0.2254 -0.0545 -0.0088
  411SOL    HW1 1232   0.158   0.534   0.803 -0.0871  1.1632 -3.2812
  411SOL    HW2 1233   0.190   0.667   0.891 -0.2109 -0.7471 -1.3385
  412SOL     OW 1234   1.929   0.647   0.504 -0.3047 -0.3883 -0.0474
  412SOL    HW1 1235   1.891   0.737   0.539  2.1227  3.3728  1.2448
  412SOL    HW2 1236   1.941   0.643   0.403 -0.3989  1.9484 -0.6650
  413SOL     OW 1237   0.875   0.466   1.204 -0.0825  0.7135  0.3652
  413SOL    HW1 1238   0.793   0.427   1.160 -1.4111  0.6472  2.2010
  413SOL    HW2 1239   0.856   0.493   1.301 -1.2523  1.1787  1.5853
  414SOL     OW 1240   0.259   1.740   0.055 -0.4640  0.1054  0.4626
  414SOL    HW1 1241   0.284   1.671   3.079 -0.4511  1.9098 -0.8819
  414SOL    HW2 1242   0.282   1.700   0.145  0.5533  0.7877  1.3611
  415SOL     OW 1243   0.213   2.300   0.045  0.0237 -0.1755 -0.4324
  415SOL    HW1 1244   0.310   2.276   0.043 -1.2607  1.2390 -2.3256
  415SOL    HW2 1245   0.182   2.353   3.067 -0.9795 -1.0369  2.4865
  416SOL     OW 1246   1.649   0.967   0.376  0.0395 -0.5777  0.0098
  416SOL    HW1 1247   1.666   0.926   0.285  1.0566 -1.8249 -1.1408
  416SOL    HW2 1248   1.713   0.932   0.444  0.6012 -0.8075  3.7066
  417SOL     OW 1249   0.396   0.869   0.530  0.0643  0.5371 -0.1640
  417SOL    HW1 1250   0.305   0.885   0.486 -1.6726 -0.7174  0.8698
  417SOL    HW2 1251   0.398   0.901   0.626  0.7464 -0.7296  2.9154
  418SOL     OW 1252   2.652   1.188   2.593  0.1697 -0.0951 -0.0993
  418SOL    HW1 1253   2.600   1.201   2.507 -0.0749 -0.3054  2.0895
  418SOL    HW2 1254   2.581   1.185   2.667  1.8703 -0.5890 -1.0173
  419SOL     OW 1255   0.357   0.331   3.067 -0.1030 -0.1405  0.2483
  419SOL    HW1 1256   0.380   0.236   3.051 -0.6893  1.8866  1.3266
  419SOL    HW2 1257   0.290   0.363   2.998 -1.3667 -0.9032  2.1559
  420SOL     OW 1258   0.307   1.192   1.067  0.2528 -0.2822 -0.2589
  420SOL    HW1 1259   0.272   1.218   0.973 -1.0611 -1.0140 -1.6092
  420SOL    HW2 1260   0.341   1.267   1.122 -2.5076 -0.7571 -1.6041
  421SOL     OW 1261   0.539   2.115   0.398 -0.1994  0.3532 -0.0849
  421SOL    HW1 1262   0.436   2.114   0.396 -2.8190 -1.0739  0.2729
  421SOL    HW2 1263   0.566   2.191   0.460 -1.3933 -1.0116 -1.0840
  422SOL     OW 1264   2.678   0.595   1.440 -0.4902  0.7388 -0.4106
  422SOL    HW1 1265   2.777   0.585   1.457 -0.5785  0.6134  0.9630
  422SOL    HW2 1266   2.624   0.517   1.480  0.6220  1.9233  0.0996
  423SOL     OW 1267   1.669   1.463   1.272  0.2416 -0.2070 -0.2669
  423SOL    HW1 1268   1.616   1.458   1.356 -0.5834  0.3882  1.7355
  423SOL    HW2 1269   1.763   1.494   1.291 -0.3304 -0.1981  0.8176
  424SOL     OW 1270   2.024   1.230   0.382  0.0806  0.3237 -0.0704
  424SOL    HW1 1271   2.109   1.230   0.323 -1.7349  2.8540  0.4274
  424SOL    HW2 1272   2.006   1.327   0.396 -0.1437 -1.5678 -0.3923
  425SOL     OW 1273   0.123   3.031   2.121  0.6024  0.0105  0.0276
  425SOL    HW1 1274   0.143   3.077   2.211  0.9349  1.9318  0.9576
  425SOL    HW2 1275   0.038   2.974   2.128  1.4355  4.0658 -0.1207
  426SOL     OW 1276   2.645   2.653   2.566 -0.2928  0.7490  0.5434
  426SOL    HW1 1277   2.580   2.708   2.624 -1.2164  0.5431  1.0947
  426SOL    HW2 1278   2.646   2.688   2.471  1.8084  0.3048  0.0501
  427SOL     OW 1279   0.866   0.986   2.219  0.1818  0.0825  0.5136
  427SOL    HW1 1280   0.794   0.923   2.185 -0.5612  1.6337  0.1333
  427SOL    HW2 1281   0.895   0.944   2.308  1.0758 -0.3810  2.0367
  428SOL     OW 1282   2.007   0.798   2.467 -0.0187 -0.1435  0.4837
  428SOL    HW1 1283   1.947   0.759   2.536  0.3649 -1.1719  0.4772
  428SOL    HW2 1284   2.014   0.900   2.484  0.0756 -0.3532  0.9480
  429SOL     OW 1285   2.442   0.380   0.602  0.1250 -0.0013  0.0711
  429SOL    HW1 1286   2.431   0.302   0.535 -0.2958 -2.9341  0.3493
  429SOL    HW2 1287   2.369   0.449   0.610  2.0096  1.4834 -0.0053
  430SOL     OW 1288   2.150   1.134   2.139  0.0746 -0.0876 -0.0118
  430SOL    HW1 1289   2.052   1.123   2.168 -0.2704  0.0004 -0.2668
  430SOL    HW2 1290   2.174   1.053   2.074  0.9069 -1.3798 -2.5108
  431SOL     OW 1291   2.956   2.037   1.353 -0.4232 -0.1760  0.1290
  431SOL    HW1 1292   2.995   2.107   1.413 -3.6370 -0.8678 -1.3758
  431SOL    HW2 1293   2.990   1.940   1.375  2.4731  1.1623  0.0659
  432SOL     OW 1294   1.567   2.881   2.283  0.3622  0.9018  0.1931
  432SOL    HW1 1295   1.566   2.979   2.261  1.1139 -1.9699 -0.8277
  432SOL    HW2 1296   1.611   2.826   2.210  2.2888  0.9466  0.0670
  433SOL     OW 1297   1.541   2.924   1.891 -0.0044 -0.2597  0.2116
  433SOL    HW1 1298   1.504   2.911   1.797  0.6101 -0.8166  1.8757
  433SOL    HW2 1299   1.527   3.025   1.914 -0.6700 -1.2626  1.7825
  434SOL     OW 1300   0.265   2.322   2.389  0.6289 -0.8369 -0.0338
  434SOL    HW1 1301   0.291   2.394   2.456  1.1676 -2.8672  0.3649
  434SOL    HW2 1302   0.223   2.356   2.307 -0.1225 -2.3114  2.7553
  435SOL     OW 1303   3.068   2.087   0.063  0.1854 -0.1249 -0.4321
  435SOL    HW1 1304   0.070   2.074   0.063  0.9154  0.3804  0.5455
  435SOL    HW2 1305   3.027   2.041   0.142 -2.0881  0.7177  1.3474
  436SOL     OW 1306   0.947   1.096   1.716 -0.3154 -1.0044  0.0371
  436SOL    HW1 1307   1.030   1.056   1.673 -0.5521  1.5758  1.6041
  436SOL    HW2 1308   0.957   1.094   1.816  1.4124  1.2410 -0.4403
  437SOL     OW 1309   0.546   0.158   2.477 -0.0540 -0.1480  0.2724
  437SOL    HW1 1310   0.550   0.240   2.530 -0.2285 -3.3152 -0.0493
  437SOL    HW2 1311   0.467   0.101   2.500  0.5719 -1.3825 -1.6421
  438SOL     OW 1312   0.569   1.604   1.608  0.6087 -0.1231  0.3962
  438SOL    HW1 1313   0.608   1.695   1.618 -1.6122  0.2403 -1.0633
  438SOL    HW2 1314   0.627   1.526   1.643 -1.0220  2.1535 -3.0382
  439SOL     OW 1315   2.060   0.935   0.030 -0.1396 -0.3973 -0.1350
  439SOL    HW1 1316   2.012   0.999   0.100 -0.1544  2.1398  2.0662
  439SOL    HW2 1317   2.151   0.975   0.005  0.5472  0.2234 -0.9067
  440SOL     OW 1318   0.852   1.028   0.274 -0.0836 -0.1182  0.1712
  440SOL    HW1 1319   0.919   1.040   0.351  1.4833 -0.8409  2.0050
  440SOL    HW2 1320   0.760   1.000   0.307  0.4311 -1.3618 -0.5748
  441SOL     OW 1321   0.565   2.687   1.459  0.0990 -0.3411  0.1217
  441SOL    HW1 1322   0.563   2.618   1.386  0.9834 -1.1207  2.1960
  441SOL    HW2 1323   0.654   2.680   1.508 -1.4862  0.5136 -0.1701
  442SOL     OW 1324   2.773   1.970   0.584 -0.6720 -0.0900  0.2085
  442SOL    HW1 1325   2.686   2.010   0.608 -0.0589 -1.5141 -1.5310
  442SOL    HW2 1326   2.758   1.871   0.566 -3.8768  0.0887 -0.1532
  443SOL     OW 1327   2.777   1.587   2.596  0.0869 -0.2872 -0.2962
  443SOL    HW1 1328   2.758   1.688   2.597 -1.0254  2.3583 -1.4901
  443SOL    HW2 1329   2.874   1.576   2.619 -0.9957 -1.1313 -3.8654
  444SOL     OW 1330   1.201   1.214   0.235 -0.2928 -0.7969  0.1068
  444SOL    HW1 1331   1.177   1.119   0.259 -1.9855 -1.0953  1.5844
  444SOL    HW2 1332   1.204   1.285   0.310 -1.0260  1.5495  0.6735
  445SOL     OW 1333   2.446   2.418   1.852 -0.1515 -0.3479 -0.2157
  445SOL    HW1 1334   2.544   2.443   1.840 -1.5712  0.5307  0.4364
  445SOL    HW2 1335   2.403   2.470   1.927 -1.9790  2.2200 -0.7450
  446SOL     OW 1336   2.933   1.696   0.626 -0.3757 -0.0083  0.1719
  446SOL    HW1 1337   3.022   1.727   0.586  2.1191 -0.2158  0.6824
  446SOL    HW2 1338   2.904   1.741   0.710  1.1660 -1.8563 -1.4592
  447SOL     OW 1339   0.962   2.307   1.243 -0.5726  0.0369  0.5255
  447SOL    HW1 1340   0.989   2.238   1.308  0.6926  2.3009 -1.4385
  447SOL    HW2 1341   1.023   2.310   1.161  0.1023  2.4782 -0.3461
  448SOL     OW 1342   1.494   1.632   1.870  0.0095  0.2659  0.0341
  448SOL    HW1 1343   1.401   1.604   1.903  3.9545  2.2969 -1.9916
  448SOL    HW2 1344   1.486   1.680   1.779 -1.4094 -1.1148  0.0273
  449SOL     OW 1345   0.029   1.976   2.157  0.3735 -0.5290  0.6423
  449SOL    HW1 1346   3.096   2.030   2.077  2.3301  0.1015  0.6651
  449SOL    HW2 1347   0.108   1.924   2.130 -0.4636  2.1265  0.6687
  450SOL     OW 1348   2.958   1.711   2.255 -0.4073  0.8170  0.2918
  450SOL    HW1 1349   2.929   1.806   2.281  4.5054 -1.2896 -0.2422
  450SOL    HW2 1350   2.979   1.706   2.155 -2.1881  0.9561  0.8506
  451SOL     OW 1351   2.114   0.644   1.643 -0.2007  0.0387 -0.2836
  451SOL    HW1 1352   2.194   0.683   1.593 -1.4327  2.8021  1.5813
  451SOL    HW2 1353   2.102   0.543   1.630 -0.4038 -1.3930 -0.3375
  452SOL     OW 1354   0.883   1.524   0.836 -0.7027  0.3158 -0.1480
  452SOL    HW1 1355   0.783   1.504   0.840  0.1324 -1.0661  1.4910
  452SOL    HW2 1356   0.915   1.543   0.740 -0.7574  3.1326  0.7466
  453SOL     OW 1357   1.385   2.382   1.043  0.2537 -0.4500 -0.5747
  453SOL    HW1 1358   1.396   2.451   0.968 -0.3099  0.3750 -2.2954
  453SOL    HW2 1359   1.370   2.437   1.126 -1.8427 -1.0994 -2.6647
  454SOL     OW 1360   3.096   1.447   0.348  0.4904 -0.1290 -0.2496
  454SOL    HW1 1361   3.081   1.385   0.425  0.4398  0.2162 -1.4451
  454SOL    HW2 1362   0.087   1.430   0.309 -3.1217 -0.3909  1.5864
  455SOL     OW 1363   0.983   1.179   0.492 -0.3112 -0.5450 -0.3177
  455SOL    HW1 1364   1.057   1.113   0.477 -2.0613  1.7713 -0.9968
  455SOL    HW2 1365   1.020   1.274   0.482  0.5186 -0.6367 -0.7062
  456SOL     OW 1366   2.027   2.589   0.655  0.8657 -0.2101  0.5493
  456SOL    HW1 1367   1.977   2.501   0.646 -0.8500 -1.5867  0.4460
  456SOL    HW2 1368   2.042   2.624   0.562 -0.0218  0.3718 -0.7450
  457SOL     OW 1369   1.733   2.955   2.884 -0.1853  0.7226  0.5550
  457SOL    HW1 1370   1.645   3.008   2.889 -0.2353 -0.1365  1.6785
  457SOL    HW2 1371   1.807   3.022   2.900  1.3900  3.0007  2.7542
  458SOL     OW 1372   2.517   0.607   0.220 -0.3130  0.5697  0.4845
  458SOL    HW1 1373   2.424   0.566   0.247 -1.0985 -1.9982  0.2467
  458SOL    HW2 1374   2.547   0.694   0.262  2.0057  0.0054  1.0459
  459SOL     OW 1375   2.240   0.246   2.239 -0.0384 -0.6060  0.3296
  459SOL    HW1 1376   2.166   0.314   2.215 -0.7883  0.8710 -0.7436
  459SOL    HW2 1377   2.331   0.288   2.227 -1.6219 -0.7996 -1.0764
  460SOL     OW 1378   2.797   0.631   2.611  0.2655 -0.3788  0.1216
  460SOL    HW1 1379   2.781   0.689   2.687 -1.2643 -0.4591 -1.4194
  460SOL    HW2 1380   2.716   0.636   2.541  0.5409  0.9201 -1.5632
  461SOL     OW 1381   0.055   2.415   0.848  0.2781 -0.1908  0.5502
  461SOL    HW1 1382   0.101   2.361   0.925  1.2557 -3.8942 -0.0518
  461SOL    HW2 1383   0.030   2.349   0.772 -0.4586 -0.6122  1.7594
  462SOL     OW 1384   2.803   2.834   1.191  0.1653 -0.2700 -0.1420
  462SOL    HW1 1385   2.752   2.914   1.155  2.1580 -0.6921 -1.5006
  462SOL    HW2 1386   2.907   2.848   1.181  1.1629 -2.2076 -2.0967
  463SOL     OW 1387   2.123   1.457   0.016 -0.2813  0.2787  0.3290
  463SOL    HW1 1388   2.222   1.426   0.029  0.9521  0.0558  1.0643
  463SOL    HW2 1389   2.110   1.535   3.052  0.4567 -0.0338  0.0105
  464SOL     OW 1390   0.797   2.524   1.217  0.3367  0.0526 -0.0499
  464SOL    HW1 1391   0.863   2.453   1.236 -2.3100  1.0921 -1.4866
  464SOL    HW2 1392   0.841   2.617   1.219  1.1272  1.2456  1.1380
  465SOL     OW 1393   1.006   0.270   1.535  0.4054  0.1673 -0.1991
  465SOL    HW1 1394   1.012   0.175   1.505  0.8757  0.9116 -2.6038
  465SOL    HW2 1395   0.919   0.289   1.579 -0.4609  1.2179 -1.4836
  466SOL     OW 1396   1.647   2.514   1.868  0.0529 -0.5922 -0.0091
  466SOL    HW1 1397   1.660   2.446   1.943 -0.9629 -0.4834  1.5389
  466SOL    HW2 1398   1.565   2.566   1.883  2.8289 -0.3941  0.1226
  467SOL     OW 1399   0.725   2.171   1.386 -0.0509 -0.2370 -0.0403
  467SOL    HW1 1400   0.625   2.167   1.399  0.4247  0.2116  0.4001
  467SOL    HW2 1401   0.750   2.258   1.341  1.1168  0.6857 -0.1665
  468SOL     OW 1402   2.604   1.511   2.101  0.2837  0.1594  0.1710
  468SOL    HW1 1403   2.651   1.457   2.171 -0.9572  1.5994  1.7808
  468SOL    HW2 1404   2.643   1.485   2.012 -0.5245 -1.8081 -1.3040
  469SOL     OW 1405   0.878   1.958   0.573  0.7836 -0.7135  0.0681
  469SOL    HW1 1406   0.878   2.048   0.625 -0.7827 -0.4358  1.3999
  469SOL    HW2 1407   0.840   1.887   0.632 -0.0075  1.0071  0.5895
  470SOL     OW 1408   1.890   1.083   2.192  0.0592 -0.2988  0.3228
  470SOL    HW1 1409   1.859   0.984   2.199  2.3446 -1.2151 -1.1271
  470SOL    HW2 1410   1.845   1.148   2.264 -0.0226  0.5611 -0.4180
  471SOL     OW 1411   0.625   2.440   0.202 -0.0114 -0.1962  0.2262
  471SOL    HW1 1412   0.639   2.498   0.285  1.1582  0.4740  0.5530
  471SOL    HW2 1413   0.718   2.412   0.158 -0.6745  3.1113 -2.5125
  472SOL     OW 1414   0.217   2.821   1.981 -0.5517  0.3754 -0.3884
  472SOL    HW1 1415   0.193   2.915   2.013  0.1051  0.5521  1.0477
  472SOL    HW2 1416   0.295   2.823   1.912 -0.5846  0.6769 -1.7179
  473SOL     OW 1417   0.598   2.673   0.018  0.2356  0.1357 -0.0245
  473SOL    HW1 1418   0.629   2.743   0.089  1.5309  1.3955  2.7374
  473SOL    HW2 1419   0.602   2.577   0.055  1.3751  1.4643 -2.6663
  474SOL     OW 1420   2.267   3.002   1.008 -0.4300 -0.3194  0.0500
  474SOL    HW1 1421   2.176   2.984   1.056 -1.6366  2.0584 -0.6960
  474SOL    HW2 1422   2.295   2.919   0.957 -3.0291 -0.9717  0.7600
  475SOL     OW 1423   1.797   2.962   1.657  0.1696 -0.1601  0.2071
  475SOL    HW1 1424   1.798   2.860   1.665 -0.8885 -0.3233 -2.6228
  475SOL    HW2 1425   1.731   2.992   1.586  1.9717  1.4432 -0.9040
  476SOL     OW 1426   0.579   1.401   0.803 -0.1147  0.3619  0.0076
  476SOL    HW1 1427   0.496   1.446   0.787  0.1496 -1.5823 -0.3246
  476SOL    HW2 1428   0.572   1.308   0.837  2.5603 -0.1342 -2.5447
  477SOL     OW 1429   0.330   1.884   0.685 -0.2798  0.5919 -0.1147
  477SOL    HW1 1430   0.392   1.815   0.729 -2.7888 -0.6441 -0.0054
  477SOL    HW2 1431   0.334   1.879   0.583 -0.2005 -0.2398 -1.1108
  478SOL     OW 1432   3.020   2.565   2.329  0.5029 -0.4217 -0.3988
  478SOL    HW1 1433   2.991   2.664   2.336  3.1186  1.0946 -0.7557
  478SOL    HW2 1434   2.970   2.508   2.399 -2.8799 -0.1434 -2.3218
  479SOL     OW 1435   3.028   0.209   1.460 -0.1050  0.0802  0.2764
  479SOL    HW1 1436   0.020   0.253   1.432  1.9397 -0.7545 -0.2054
  479SOL    HW2 1437   2.992   0.245   1.547 -0.6321 -3.2901 -2.8077
  480SOL     OW 1438   2.792   2.478   2.993 -0.1769  0.6860 -0.2424
  480SOL    HW1 1439   2.878   2.499   3.042  0.4662 -0.5395  0.1021
  480SOL    HW2 1440   2.719   2.461   3.064 -1.6390 -1.1481 -1.2312
  481SOL     OW 1441   2.264   1.888   1.750 -0.0652  0.0719 -0.0477
  481SOL    HW1 1442   2.184   1.905   1.809  0.9035  0.5580 -3.2926
  481SOL    HW2 1443   2.343   1.943   1.785 -0.5878 -2.6573  0.0230
  482SOL     OW 1444   1.707   2.156   2.650 -0.2337 -0.2724  0.0366
  482SOL    HW1 1445   1.700   2.093   2.728 -0.0744  1.2708 -0.2492
  482SOL    HW2 1446   1.689   2.113   2.560  0.8803 -1.2134 -0.2683
  483SOL     OW 1447   0.846   1.562   2.222 -0.3533  0.2087 -0.1687
  483SOL    HW1 1448   0.767   1.546   2.284  1.9769  0.0501 -1.9765
  483SOL    HW2 1449   0.838   1.504   2.138 -1.5578 -1.3227 -1.7529
  484SOL     OW 1450   0.146   0.356   1.394 -0.5140  0.7521 -0.0476
  484SOL    HW1 1451   0.106   0.419   1.325  0.8283 -1.2526 -1.1515
  484SOL    HW2 1452   0.170   0.405   1.476 -1.4691  2.3713 -1.9221
  485SOL     OW 1453   2.444   0.973   0.383 -0.5100  0.3090  0.0324
  485SOL    HW1 1454   2.524   0.907   0.370  0.5986 -1.0871 -1.7938
  485SOL    HW2 1455   2.461   1.053   0.319 -0.6449  0.3671  1.3571
  486SOL     OW 1456   1.525   0.037   2.202 -0.2364 -0.7047  0.2495
  486SOL    HW1 1457   1.515   0.054   2.103 -0.9173 -0.9228 -0.3065
  486SOL    HW2 1458   1.595   0.101   2.241 -1.5665  1.7858  2.0777
  487SOL     OW 1459   0.772   1.901   1.374 -0.1058 -0.0460 -0.0181
  487SOL    HW1 1460   0.752   1.997   1.371  0.7536 -0.8622  0.0926
  487SOL    HW2 1461   0.684   1.850   1.359 -1.6989  0.1778  0.1610
  488SOL     OW 1462   2.429   1.388   0.013 -0.0496  0.5352 -0.2628
  488SOL    HW1 1463   2.488   1.472   0.014 -0.4916  0.2872  0.3285
  488SOL    HW2 1464   2.437   1.341   3.023  3.3559  0.9738 -0.9470
  489SOL     OW 1465   2.257   0.069   0.559  0.0566  0.3109 -0.5835
  489SOL    HW1 1466   2.332   0.002   0.563 -0.1362 -1.9023 -2.9432
  489SOL    HW2 1467   2.288   0.140   0.490  1.6192 -1.0200 -2.6840
  490SOL     OW 1468   1.184   2.823   2.915 -0.2087  0.0229  0.3966
  490SOL    HW1 1469   1.213   2.729   2.937 -1.7912 -1.2678 -1.7721
  490SOL    HW2 1470   1.089   2.848   2.947 -2.0930 -0.3006 -0.8237
  491SOL     OW 1471   1.032   1.044   1.061  0.1663 -0.0274  0.3242
  491SOL    HW1 1472   1.051   1.132   1.019  1.2449 -2.9074  3.1110
  491SOL    HW2 1473   1.043   0.970   0.995 -1.2944 -0.3308  1.4308
  492SOL     OW 1474   1.353   0.316   2.476 -0.3452  0.2670 -0.1540
  492SOL    HW1 1475   1.313   0.408   2.459 -1.3354  1.4814  1.0927
  492SOL    HW2 1476   1.311   0.241   2.421  0.1698  2.7753 -0.0376
  493SOL     OW 1477   1.800   2.029   0.126  0.5416  0.1784  1.0404
  493SOL    HW1 1478   1.773   2.129   0.108 -1.8496 -0.0698 -2.0620
  493SOL    HW2 1479   1.871   1.998   0.058 -1.0603 -0.5532 -1.0373
  494SOL     OW 1480   0.678   1.438   0.520  0.5189  0.4873  0.2417
  494SOL    HW1 1481   0.644   1.522   0.478  1.3614 -1.9659 -0.4598
  494SOL    HW2 1482   0.678   1.441   0.627  2.0184  0.8781  1.8264
  495SOL     OW 1483   2.792   2.681   0.671  0.3600 -0.6249 -0.1064
  495SOL    HW1 1484   2.886   2.650   0.665 -1.4868  4.8013  0.2619
  495SOL    HW2 1485   2.730   2.613   0.707 -1.9697  2.1721  0.3336
  496SOL     OW 1486   2.654   0.144   1.556 -0.2539 -0.6062 -0.2081
  496SOL    HW1 1487   2.668   0.084   1.474 -0.1509  0.1555  2.2065
  496SOL    HW2 1488   2.580   0.110   1.620  0.7437  1.8191 -0.6968
  497SOL     OW 1489   2.277   1.286   2.550  0.1806 -0.0183  0.1896
  497SOL    HW1 1490   2.293   1.375   2.596 -1.7007 -1.1013 -0.1642
  497SOL    HW2 1491   2.182   1.275   2.538 -1.2288 -2.1157  0.9257
  498SOL     OW 1492   0.508   2.097   1.012  0.2544  0.0436 -0.4633
  498SOL    HW1 1493   0.442   2.115   0.936 -0.7852 -0.9357 -0.3822
  498SOL    HW2 1494   0.481   2.021   1.077 -0.5402 -2.5617  1.1793
  499SOL     OW 1495   0.738   2.226   1.683  0.1361  0.2561  0.0619
  499SOL    HW1 1496   0.707   2.322   1.707  1.5775  1.1101  1.0143
  499SOL    HW2 1497   0.668   2.154   1.674 -2.6589  0.4022  0.7091
  500SOL     OW 1498   1.143   2.200   0.397 -0.3589 -0.3932 -0.2520
  500SOL    HW1 1499   1.087   2.118   0.417  0.7514  1.6512 -0.3483
  500SOL    HW2 1500   1.244   2.174   0.376  2.2619  1.5842  2.1329
  501SOL     OW 1501   2.390   2.978   1.295 -0.2510  0.7550  0.2869
  501SOL    HW1 1502   2.309   2.971   1.356 -0.9950 -1.4105 -1.3690
  501SOL    HW2 1503   2.373   2.995   1.198  1.1709  0.3593  2.2278
  502SOL     OW 1504   2.862   0.306   1.649 -0.7054 -0.2478  0.0912
  502SOL    HW1 1505   2.908   0.253   1.722  1.1218 -1.2145 -3.3626
  502SOL    HW2 1506   2.775   0.263   1.625  0.5027  0.8409 -0.2720
  503SOL     OW 1507   2.797   1.002   1.922  0.7769 -0.0787  0.2286
  503SOL    HW1 1508   2.873   1.057   1.950  0.8919 -1.9275 -1.7404
  503SOL    HW2 1509   2.719   1.011   1.989  0.0928 -0.5803  0.9252
  504SOL     OW 1510   1.415   0.724   1.837  0.4119 -0.5621 -0.1782
  504SOL    HW1 1511   1.470   0.714   1.755  2.8090  0.9569  1.6102
  504SOL    HW2 1512   1.368   0.817   1.833 -1.8558  3.7502 -0.2809
  505SOL     OW 1513   0.969   0.128   2.038  0.2247  0.0878  0.0525
  505SOL    HW1 1514   0.906   0.099   1.969  1.5579  1.1391  0.9206
  505SOL    HW2 1515   0.929   0.134   2.130  0.5469  1.1592  1.7674
  506SOL     OW 1516   0.309   0.257   0.831  0.5336  0.3764 -0.2491
  506SOL    HW1 1517   0.236   0.241   0.760  4.2278 -0.9235  2.7582
  506SOL    HW2 1518   0.322   0.168   0.879  0.6785  0.3273  2.4767
  507SOL     OW 1519   2.066   0.520   0.119 -0.0160  0.3308 -0.1672
  507SOL    HW1 1520   2.128   0.541   0.201 -0.6986  0.6686  0.7432
  507SOL    HW2 1521   1.997   0.452   0.146  1.1157 -0.3760  1.6818
  508SOL     OW 1522   1.829   0.213   2.292  0.9446 -0.3505 -0.2342
  508SOL    HW1 1523   1.886   0.293   2.267  1.6243  0.0971 -1.8384
  508SOL    HW2 1524   1.760   0.241   2.359  3.0099 -0.7454  1.3501
  509SOL     OW 1525   0.970   1.365   1.636  0.7943 -0.0226 -0.4897
  509SOL    HW1 1526   1.040   1.416   1.685 -0.9402 -1.1042  0.1589
  509SOL    HW2 1527   0.972   1.268   1.665 -1.7511  3.1663 -0.0152
  510SOL     OW 1528   2.740   1.020   0.896 -0.1396  0.2470 -0.1038
  510SOL    HW1 1529   2.802   0.974   0.962 -1.7043 -0.6864  2.2088
  510SOL    HW2 1530   2.668   1.069   0.950  1.2672  0.1471 -0.6863
  511SOL     OW 1531   1.842   1.916   1.216 -0.9972  0.2883 -0.4690
  511SOL    HW1 1532   1.840   1.951   1.122  0.7511  0.0740  1.8606
  511SOL    HW2 1533   1.778   1.970   1.273  0.9352 -1.0516 -2.1490
  512SOL     OW 1534   0.029   1.751   0.437 -0.1729  0.8014  0.2877
  512SOL    HW1 1535   0.042   1.653   0.412 -1.2875 -0.6019 -1.3253
  512SOL    HW2 1536   0.117   1.802   0.429 -3.1227 -1.4885  1.8442
  513SOL     OW 1537   2.871   2.255   0.320 -0.3463 -0.7052  0.0518
  513SOL    HW1 1538   2.805   2.201   0.261 -1.4868 -0.5118 -1.8231
  513SOL    HW2 1539   2.832   2.294   0.408 -0.9779  2.1559  1.0690
  514SOL     OW 1540   2.377   2.025   2.626  0.4651 -0.1190 -0.0240
  514SOL    HW1 1541   2.366   2.104   2.559 -0.6874  0.3336 -0.6148
  514SOL    HW2 1542   2.345   2.042   2.722  0.7729 -0.8802 -1.6002
  515SOL     OW 1543   2.042   1.510   0.558 -0.0128 -0.7288  0.9051
  515SOL    HW1 1544   2.078   1.512   0.464 -0.6758 -0.4203  2.5140
  515SOL    HW2 1545   2.120   1.508   0.622 -1.2453 -0.2209 -0.2402
  516SOL     OW 1546   2.008   3.069   0.477 -0.0212 -0.5260  0.5814
  516SOL    HW1 1547   1.950   0.051   0.492  2.8751 -0.8226  0.7682
  516SOL    HW2 1548   2.106   3.080   0.506  1.5326 -1.3493 -1.5728
  517SOL     OW 1549   0.815   2.098   2.837  0.6812 -0.3300 -0.0362
  517SOL    HW1 1550   0.885   2.150   2.886 -1.3226  1.0743  1.4650
  517SOL    HW2 1551   0.724   2.144   2.836 -1.1681 -0.6786 -1.4099
  518SOL     OW 1552   0.430   0.607   1.933 -0.4811  0.0916 -0.6041
  518SOL    HW1 1553   0.516   0.555   1.960 -3.4506  1.5361 -0.1687
  518SOL    HW2 1554   0.389   0.644   2.021  0.0378 -3.3081 -0.6288
  519SOL     OW 1555   3.069   1.000   0.114 -0.1806  0.1756 -0.1682
  519SOL    HW1 1556   0.000   1.011   0.016 -1.7255  0.9563  0.9853
  519SOL    HW2 1557   0.045   1.035   0.172  1.6687 -0.0275 -3.1181
  520SOL     OW 1558   2.781   1.747   1.640  0.1819  0.3297 -0.1426
  520SOL    HW1 1559   2.770   1.764   1.739 -0.0291 -0.4250  2.2821
  520SOL    HW2 1560   2.714   1.809   1.588 -0.0631  1.3248 -0.5502
  521SOL     OW 1561   0.457   2.653   2.266  0.4335  0.1992 -0.1229
  521SOL    HW1 1562   0.498   2.559   2.252  0.6709  1.2334  0.3854
  521SOL    HW2 1563   0.356   2.662   2.254  1.2336 -2.6845 -0.8342
  522SOL     OW 1564   1.888   0.055   2.080 -0.4838 -0.2338  0.2725
  522SOL    HW1 1565   1.990   0.043   2.085  0.9607 -2.2163  1.5214
  522SOL    HW2 1566   1.852   0.105   2.158 -1.8417 -0.3731 -0.2053
  523SOL     OW 1567   1.924   1.821   1.467  0.3797 -0.3534  0.1057
  523SOL    HW1 1568   2.008   1.864   1.508 -2.6049 -2.2013  0.5911
  523SOL    HW2 1569   1.901   1.866   1.379 -2.1622 -1.9052  0.7609
  524SOL     OW 1570   0.713   2.829   0.195 -0.4572  0.4239  0.3102
  524SOL    HW1 1571   0.659   2.910   0.219  2.1767 -2.2288  1.7670
  524SOL    HW2 1572   0.810   2.846   0.202 -3.4588 -0.8966 -2.0020
  525SOL     OW 1573   2.969   0.264   0.268  0.3025  0.6195  0.3282
  525SOL    HW1 1574   2.888   0.320   0.257  2.0310 -0.0416  0.2485
  525SOL    HW2 1575   3.043   0.321   0.303  0.8509  0.1968  1.0010
  526SOL     OW 1576   0.630   2.804   0.619  0.1929  0.1020 -0.1663
  526SOL    HW1 1577   0.688   2.773   0.699  1.6778 -1.0424  3.7152
  526SOL    HW2 1578   0.545   2.743   0.628  0.9886 -0.0738  2.6226
  527SOL     OW 1579   2.501   1.850   0.951  0.4043 -0.8943 -0.2910
  527SOL    HW1 1580   2.568   1.800   1.008  0.7209 -0.6779 -2.0113
  527SOL    HW2 1581   2.553   1.939   0.933  4.1196 -0.5166 -1.4480
  528SOL     OW 1582   2.862   0.514   2.208  0.7396  0.3202  0.1510
  528SOL    HW1 1583   2.957   0.474   2.236 -0.3862 -1.2471  0.5321
  528SOL    HW2 1584   2.816   0.453   2.139  2.0084 -0.4729  3.1347
  529SOL     OW 1585   1.161   1.480   2.618  0.0011 -0.3850  0.9928
  529SOL    HW1 1586   1.259   1.452   2.644  2.7911  0.3973  2.3067
  529SOL    HW2 1587   1.098   1.478   2.695 -0.0998  0.5463 -0.5448
  530SOL     OW 1588   1.887   1.031   2.574 -0.4090 -0.0634 -0.2790
  530SOL    HW1 1589   1.792   1.070   2.593  0.9420 -0.1537  1.6412
  530SOL    HW2 1590   1.925   1.007   2.662 -1.1215  2.6024 -2.7756
  531SOL     OW 1591   0.646   1.699   2.564 -0.3096 -0.4984 -0.2680
  531SOL    HW1 1592   0.689   1.740   2.484  1.7579  1.2154  1.7229
  531SOL    HW2 1593   0.559   1.646   2.548 -0.0826 -1.0530  1.4375
  532SOL     OW 1594   1.793   1.443   0.666  0.2588 -0.3528  0.6485
  532SOL    HW1 1595   1.876   1.470   0.614  1.8426  0.4550  1.1980
  532SOL    HW2 1596   1.717   1.494   0.619 -0.4619  1.0363  0.2729
  533SOL     OW 1597   0.210   0.194   1.961 -0.1642 -0.0326  0.4354
  533SOL    HW1 1598   0.299   0.141   1.937  0.8395  0.9081  0.5460
  533SOL    HW2 1599   0.147   0.119   1.983  2.0576  1.6489 -1.6027
  534SOL     OW 1600   0.729   2.760   2.888 -0.1306 -0.2875 -0.8972
  534SOL    HW1 1601   0.681   2.716   2.963 -0.7150 -2.4255 -0.1433
  534SOL    HW2 1602   0.809   2.810   2.928 -2.7529 -0.0393 -1.0161
  535SOL     OW 1603   0.372   0.096   0.388 -0.5049 -0.0474 -0.2511
  535SOL    HW1 1604   0.436   0.156   0.441  1.0766 -1.1061  0.8947
  535SOL    HW2 1605   0.314   0.039   0.456 -0.2702  0.6085  0.0383
  536SOL     OW 1606   0.308   1.453   1.723 -0.0547  0.5331 -0.0976
  536SOL    HW1 1607   0.248   1.368   1.723 -0.8961  0.9420  0.8142
  536SOL    HW2 1608   0.348   1.467   1.631  0.2920  0.5974  1.5420
  537SOL     OW 1609   1.084   2.692   1.580  0.2686  0.6326  0.0103
  537SOL    HW1 1610   1.081   2.764   1.509  2.6011  0.8850  2.1661
  537SOL    HW2 1611   1.171   2.641   1.581 -1.4934  1.2642  1.0172
  538SOL     OW 1612   2.974   1.964   0.301 -0.0156  0.2476 -0.0417
  538SOL    HW1 1613   3.022   1.879   0.332 -2.3450 -1.4901  0.9600
  538SOL    HW2 1614   2.923   2.002   0.376  0.1483  0.7453 -0.9858
  539SOL     OW 1615   2.811   0.974   2.626 -0.6439 -0.5957  0.0270
  539SOL    HW1 1616   2.843   0.947   2.720 -1.9091  0.4494 -1.4057
  539SOL    HW2 1617   2.754   1.058   2.626  0.5167  0.5592  2.4704
  540SOL     OW 1618   1.597   1.008   1.943 -0.4336  0.2606 -0.3619
  540SOL    HW1 1619   1.659   0.932   1.923  0.6428 -1.9282  2.4730
  540SOL    HW2 1620   1.510   0.995   1.895  1.4580 -1.9128  1.7531
  541SOL     OW 1621   0.847   0.784   1.800 -0.4502  0.0836 -0.3485
  541SOL    HW1 1622   0.759   0.731   1.786 -1.7867 -1.2770 -0.0580
  541SOL    HW2 1623   0.819   0.878   1.830  0.1286 -1.3329 -1.6564
  542SOL     OW 1624   2.389   0.424   2.829 -0.2148 -0.3026 -0.0701
  542SOL    HW1 1625   2.478   0.401   2.794 -2.1023  0.5699 -0.6012
  542SOL    HW2 1626   2.320   0.401   2.762  1.5612  2.3610  1.7602
  543SOL     OW 1627   0.997   0.083   2.942 -0.3314  0.2761 -0.5446
  543SOL    HW1 1628   0.951   0.136   3.017 -2.8715  3.1252  0.5718
  543SOL    HW2 1629   1.101   0.093   2.948  1.1657  0.6729  1.0313
  544SOL     OW 1630   2.958   1.421   1.941  0.0493  0.0585  0.0059
  544SOL    HW1 1631   2.990   1.348   1.999  1.1603  1.1756 -1.7083
  544SOL    HW2 1632   2.887   1.385   1.877  1.2340 -3.2823  0.9195
  545SOL     OW 1633   2.110   2.307   1.646 -0.3026 -0.3066  0.4247
  545SOL    HW1 1634   2.049   2.272   1.570 -0.9975  2.6699 -1.5455
  545SOL    HW2 1635   2.203   2.269   1.636 -2.3709 -0.9915  1.0228
  546SOL     OW 1636   0.152   0.061   2.750 -0.5108 -0.5603  0.1098
  546SOL    HW1 1637   0.130   3.070   2.711  1.2392  2.4422  0.9379
  546SOL    HW2 1638   0.242   0.100   2.724 -0.2085  0.7413 -0.6316
  547SOL     OW 1639   1.698   1.097   0.905  0.1291  0.0836  0.1016
  547SOL    HW1 1640   1.665   1.146   0.820 -0.2987 -0.4607 -1.0969
  547SOL    HW2 1641   1.684   0.994   0.899  0.0131 -1.4533 -1.1525
  548SOL     OW 1642   1.591   1.719   2.242  0.1376  0.4316 -0.2216
  548SOL    HW1 1643   1.591   1.752   2.142  2.9593  0.4614  0.5217
  548SOL    HW2 1644   1.666   1.760   2.297 -2.2389 -1.0788 -2.7124
  549SOL     OW 1645   1.715   0.495   0.574  0.2720  0.2259 -0.1977
  549SOL    HW1 1646   1.780   0.571   0.574 -0.1636  0.5697 -0.0683
  549SOL    HW2 1647   1.750   0.435   0.652  2.3297  3.1040 -0.6945
  550SOL     OW 1648   2.003   1.744   0.931  0.1173 -0.1559 -0.3221
  550SOL    HW1 1649   1.944   1.697   1.000  1.7110  1.2061  3.4068
  550SOL    HW2 1650   1.955   1.762   0.845  2.8099 -0.7733 -0.2344
  551SOL     OW 1651   0.801   2.677   1.615  0.3234  0.1416 -0.4399
  551SOL    HW1 1652   0.900   2.672   1.608 -1.8438  2.1057  1.0969
  551SOL    HW2 1653   0.777   2.761   1.669 -1.1048 -2.3456 -0.9109
  552SOL     OW 1654   0.040   2.254   2.566 -0.7934  0.2074 -0.4698
  552SOL    HW1 1655   0.011   2.169   2.616  1.0682 -3.5432  0.5476
  552SOL    HW2 1656   0.120   2.226   2.500 -0.1739 -0.3060 -0.4116
  553SOL     OW 1657   0.301   3.070   0.913  0.2930 -0.1908 -0.0091
  553SOL    HW1 1658   0.380   3.049   0.855  0.5976  1.4607  1.4585
  553SOL    HW2 1659   0.327   3.035   1.003  1.3593  0.6569  0.6933
  554SOL     OW 1660   2.481   2.048   1.783 -0.1868  0.4069  0.4922
  554SOL    HW1 1661   2.562   2.087   1.830  2.6310 -0.2104 -0.1415
  554SOL    HW2 1662   2.424   2.120   1.737  0.3303 -1.5783 -0.4432
  555SOL     OW 1663   1.161   2.113   1.940 -0.0848 -0.0387 -0.0665
  555SOL    HW1 1664   1.232   2.136   1.866  1.3553 -0.1807  1.4892
  555SOL    HW2 1665   1.078   2.172   1.929  2.4146 -2.3241 -0.2707
  556SOL     OW 1666   1.156   1.898   1.695  0.0371  0.4330  0.1852
  556SOL    HW1 1667   1.216   1.983   1.699  0.9483 -0.5384  2.9279
  556SOL    HW2 1668   1.125   1.871   1.786  2.4078 -0.8346  2.4506
  557SOL     OW 1669   1.736   2.232   2.246 -0.0756  0.2792 -0.1781
  557SOL    HW1 1670   1.836   2.230   2.260 -0.9040  1.6170 -1.8403
  557SOL    HW2 1671   1.686   2.156   2.291  1.0531  0.4455  0.2406
  558SOL     OW 1672   0.751   2.924   1.772 -0.0233  0.0885  0.0730
  558SOL    HW1 1673   0.800   2.897   1.858 -1.6970 -1.2974 -3.3640
  558SOL    HW2 1674   0.711   3.016   1.781 -2.5869  2.4957  2.4393
  559SOL     OW 1675   2.302   2.726   0.842 -0.7743 -0.0947  0.6381
  559SOL    HW1 1676   2.298   2.753   0.744  0.8942 -2.4361 -2.3674
  559SOL    HW2 1677   2.237   2.653   0.861  2.9346  3.2130  0.1722
  560SOL     OW 1678   1.927   2.409   0.427 -0.0473  0.3750 -0.1211
  560SOL    HW1 1679   1.969   2.384   0.518 -0.8586 -0.5824 -0.6141
  560SOL    HW2 1680   1.980   2.364   0.360 -1.8611  0.0900  2.1705
  561SOL     OW 1681   0.980   0.454   0.101 -0.1033 -0.4387  0.5412
  561SOL    HW1 1682   1.082   0.466   0.086 -0.9935  0.4554  1.8108
  561SOL    HW2 1683   0.942   0.504   0.179  0.6698  0.2676 -2.6320
  562SOL     OW 1684   0.688   0.484   2.422  0.1611 -0.0413 -0.6031
  562SOL    HW1 1685   0.720   0.416   2.491  4.4183 -0.0987 -1.1672
  562SOL    HW2 1686   0.741   0.461   2.345 -1.4827 -1.7258  2.1733
  563SOL     OW 1687   1.786   1.651   3.017  0.1964 -0.1815  0.5290
  563SOL    HW1 1688   1.731   1.733   3.040 -1.2893  2.4713 -0.1243
  563SOL    HW2 1689   1.829   1.607   0.001  3.0355  0.7636  2.2142
  564SOL     OW 1690   2.353   1.075   1.385  0.3398 -0.0352  0.1228
  564SOL    HW1 1691   2.372   1.138   1.464 -0.4980 -1.8072  1.1530
  564SOL    HW2 1692   2.433   1.056   1.328 -0.0270  1.0945  0.1664
  565SOL     OW 1693   0.862   0.539   2.706 -0.1411 -0.1160  0.1352
  565SOL    HW1 1694   0.790   0.609   2.687 -1.5559  2.6832  0.0054
  565SOL    HW2 1695   0.889   0.539   2.799 -2.9253 -1.8723 -1.6390
  566SOL     OW 1696   1.946   0.269   2.773  0.0090 -0.6675 -0.0335
  566SOL    HW1 1697   1.914   0.218   2.692 -1.0745  1.5495 -4.2135
  566SOL    HW2 1698   1.997   0.208   2.838  1.5086  1.6687  1.5973
  567SOL     OW 1699   2.126   1.764   0.530  0.3845 -0.0125 -0.1695
  567SOL    HW1 1700   2.224   1.754   0.499  1.0727  0.2172  0.6593
  567SOL    HW2 1701   2.075   1.676   0.540  1.0654 -1.5266  0.0604
  568SOL     OW 1702   1.630   1.895   0.318  0.2593  0.6000 -0.4880
  568SOL    HW1 1703   1.716   1.928   0.271  0.3038 -0.5909  0.2080
  568SOL    HW2 1704   1.550   1.905   0.257  2.1382 -0.3727  2.1885
  569SOL     OW 1705   2.285   1.077   0.007  0.0929  0.2457  0.0556
  569SOL    HW1 1706   2.283   1.113   3.010 -1.8960  0.2686 -1.0126
  569SOL    HW2 1707   2.383   1.060   0.041  1.0360 -0.2951  0.8783
  570SOL     OW 1708   0.357   2.638   1.649 -0.2718 -0.1261  0.4110
  570SOL    HW1 1709   0.375   2.728   1.688  0.0564 -0.5302 -1.4865
  570SOL    HW2 1710   0.444   2.605   1.612  0.2723 -3.8601 -0.4555
  571SOL     OW 1711   0.604   0.957   1.899 -0.2474  0.1436 -0.0186
  571SOL    HW1 1712   0.592   1.056   1.915 -0.3845 -1.0640  0.9055
  571SOL    HW2 1713   0.614   0.907   1.986  1.1188  0.7296  0.0542
  572SOL     OW 1714   0.975   1.585   0.611  0.0884  0.2704 -0.9482
  572SOL    HW1 1715   0.975   1.564   0.510 -0.3895  1.7983  0.2546
  572SOL    HW2 1716   1.035   1.666   0.626 -0.9551  0.2376  2.6040
  573SOL     OW 1717   1.628   1.882   3.069 -0.7343  0.2493  0.0045
  573SOL    HW1 1718   1.536   1.869   0.014  0.0633 -2.3581 -1.3780
  573SOL    HW2 1719   1.683   1.949   0.026 -0.3633  2.0836  0.9431
  574SOL     OW 1720   0.938   0.223   0.970  0.4159 -0.3466  0.2107
  574SOL    HW1 1721   0.845   0.228   1.005  1.9451  2.5138  0.2687
  574SOL    HW2 1722   0.930   0.170   0.881 -0.4019 -0.3576 -2.3692
  575SOL     OW 1723   0.332   0.925   1.443  0.1061 -0.2563  0.1419
  575SOL    HW1 1724   0.316   0.924   1.543  0.3182 -1.2965  0.8387
  575SOL    HW2 1725   0.389   1.008   1.411 -0.5082  0.5804 -1.4923
  576SOL     OW 1726   2.053   2.717   1.411 -0.4553  0.0094  0.4252
  576SOL    HW1 1727   2.123   2.796   1.422  0.9850  2.3286  0.4886
  576SOL    HW2 1728   2.089   2.662   1.332  0.4043 -0.6529 -0.4388
  577SOL     OW 1729   0.982   1.082   1.984 -0.3179 -0.1188  0.3440
  577SOL    HW1 1730   1.075   1.113   1.999 -2.6055  0.5778 -2.1343
  577SOL    HW2 1731   0.939   1.036   2.070 -0.3330 -2.2664  0.9140
  578SOL     OW 1732   1.738   0.742   2.639 -0.4252 -0.1491  0.1326
  578SOL    HW1 1733   1.686   0.677   2.584 -1.7085 -0.2013 -1.2639
  578SOL    HW2 1734   1.669   0.813   2.666  1.4509  1.4285  0.3782
  579SOL     OW 1735   1.988   2.546   1.618 -0.0751  0.1798  0.2489
  579SOL    HW1 1736   2.026   2.456   1.625 -4.2552  5.4113 -0.3325
  579SOL    HW2 1737   1.997   2.591   1.528  0.0169  3.6963 -1.5306
  580SOL     OW 1738   1.907   1.432   2.280 -0.3032  0.2614 -0.1980
  580SOL    HW1 1739   1.899   1.530   2.285 -0.4388 -0.3790 -2.8654
  580SOL    HW2 1740   1.997   1.405   2.244 -2.9638  1.2169 -1.6763
  581SOL     OW 1741   1.419   1.374   2.659  0.1780 -0.0352 -0.0078
  581SOL    HW1 1742   1.521   1.381   2.646  2.5081  2.8892  1.7041
  581SOL    HW2 1743   1.412   1.313   2.741  0.6952 -0.8240  0.1408
  582SOL     OW 1744   0.855   1.675   1.856  0.2953 -0.2825 -0.4426
  582SOL    HW1 1745   0.893   1.589   1.894 -0.1592 -0.0681 -0.6822
  582SOL    HW2 1746   0.928   1.741   1.830  1.7827  0.9484  0.2093
  583SOL     OW 1747   1.729   1.200   1.690 -0.1585  0.4416 -0.0521
  583SOL    HW1 1748   1.649   1.132   1.691  1.4236  0.8561  0.4970
  583SOL    HW2 1749   1.789   1.180   1.769  0.5874  2.7718  0.5547
  584SOL     OW 1750   2.047   2.740   0.390  0.4847  0.1082  0.0910
  584SOL    HW1 1751   1.948   2.720   0.383  1.6715  0.0853  2.7577
  584SOL    HW2 1752   2.092   2.679   0.321 -2.0584  0.0095 -1.5009
  585SOL     OW 1753   2.206   2.812   2.605  0.4750 -0.0212 -0.3190
  585SOL    HW1 1754   2.115   2.850   2.582 -0.0595 -0.6919  0.0768
  585SOL    HW2 1755   2.199   2.733   2.672  1.8831 -0.6142 -1.4750
  586SOL     OW 1756   2.780   2.360   1.216 -0.0023 -0.0630  0.3749
  586SOL    HW1 1757   2.771   2.456   1.182  3.4073 -0.0641  0.5768
  586SOL    HW2 1758   2.805   2.298   1.140 -0.2036 -0.9116  1.9435
  587SOL     OW 1759   1.426   1.955   0.164  0.0866 -0.2445  0.1130
  587SOL    HW1 1760   1.416   2.052   0.138 -1.1989 -0.7363 -2.3080
  587SOL    HW2 1761   1.353   1.905   0.113  0.8566 -0.4802 -0.9315
  588SOL     OW 1762   0.483   0.426   0.941 -0.2717  0.0243  0.1500
  588SOL    HW1 1763   0.575   0.387   0.963  1.6945 -2.3120 -1.7152
  588SOL    HW2 1764   0.423   0.352   0.913 -0.4663  3.9237  1.8128
  589SOL     OW 1765   0.985   0.338   0.481 -0.4434 -0.4285  0.0686
  589SOL    HW1 1766   0.932   0.422   0.455  0.8632  0.3832 -1.4651
  589SOL    HW2 1767   0.994   0.275   0.405  1.0702  0.3974 -1.2077
  590SOL     OW 1768   1.499   0.376   2.869  0.2278 -0.0210  0.2468
  590SOL    HW1 1769   1.457   0.425   2.946  1.7303 -0.1128 -2.1029
  590SOL    HW2 1770   1.597   0.412   2.853  3.9574 -0.5269 -1.0517
  591SOL     OW 1771   2.874   2.014   2.255 -0.0644 -0.1379  0.4111
  591SOL    HW1 1772   2.837   2.101   2.297 -2.2859  3.0475  0.1452
  591SOL    HW2 1773   2.975   2.020   2.236  1.1712  1.1906 -0.1988
  592SOL     OW 1774   2.153   1.391   2.208  0.1044 -0.3527 -0.4566
  592SOL    HW1 1775   2.162   1.293   2.190 -2.1055  0.2749 -0.3801
  592SOL    HW2 1776   2.210   1.443   2.142 -4.1233  0.6183 -0.8999
  593SOL     OW 1777   1.461   1.271   1.826 -0.3939 -0.2665  0.0030
  593SOL    HW1 1778   1.487   1.201   1.763 -0.8935  0.3959  0.6052
  593SOL    HW2 1779   1.530   1.292   1.895 -0.4429 -1.8875 -0.1343
  594SOL     OW 1780   2.689   1.127   2.941 -0.2738  0.3076  0.4821
  594SOL    HW1 1781   2.753   1.201   2.969  2.7845  3.4175 -0.1517
  594SOL    HW2 1782   2.738   1.042   2.911  1.3155 -0.0729  0.7872
  595SOL     OW 1783   0.429   0.586   0.589 -0.3774 -0.3028 -0.2824
  595SOL    HW1 1784   0.436   0.689   0.576  0.1127  1.8729 -0.8428
  595SOL    HW2 1785   0.471   0.545   0.672  2.5444  1.2870  1.5978
  596SOL     OW 1786   3.083   1.079   1.400 -0.2713  0.1090 -0.6179
  596SOL    HW1 1787   3.041   1.164   1.378  0.3821 -3.3392 -0.2712
  596SOL    HW2 1788   0.068   1.080   1.460  1.5924  0.7030  1.8865
  597SOL     OW 1789   1.223   1.903   1.168  0.2760 -0.0603  0.5925
  597SOL    HW1 1790   1.220   1.800   1.173 -0.2027 -1.4537  1.3876
  597SOL    HW2 1791   1.198   1.958   1.250 -1.9500  1.3009  2.1330
  598SOL     OW 1792   0.337   0.007   1.737  0.1431  0.5668 -0.0869
  598SOL    HW1 1793   0.399   0.084   1.709  0.5053  1.6116 -2.5805
  598SOL    HW2 1794   0.278   3.071   1.658  0.1878  0.5806 -0.2535
  599SOL     OW 1795   0.290   1.618   2.824 -0.1168  0.7076  0.0109
  599SOL    HW1 1796   0.308   1.543   2.759 -0.5470 -0.0021 -2.1278
  599SOL    HW2 1797   0.378   1.664   2.857  0.2233 -1.1838 -1.1744
  600SOL     OW 1798   0.391   1.120   3.086  0.2999  0.3660 -0.2916
  600SOL    HW1 1799   0.364   1.158   2.996  3.0572 -2.0772  2.7270
  600SOL    HW2 1800   0.384   1.024   3.075  2.1409  2.7998 -0.7635
  601SOL     OW 1801   0.553   0.877   1.171 -0.2565  0.1683  0.3126
  601SOL    HW1 1802   0.652   0.883   1.136  3.0002 -2.2999  0.0384
  601SOL    HW2 1803   0.510   0.785   1.147  0.1035 -0.7744 -0.2537
  602SOL     OW 1804   0.895   0.206   0.059  0.3797 -0.4630  0.0646
  602SOL    HW1 1805   0.935   0.298   0.054  0.2178 -0.8477  0.6725
  602SOL    HW2 1806   0.839   0.196   0.148  0.6471  0.1519  1.3363
  603SOL     OW 1807   1.402   2.351   2.221 -0.4295  0.4918  0.1328
  603SOL    HW1 1808   1.490   2.397   2.202 -0.6719  0.5972  2.2684
  603SOL    HW2 1809   1.379   2.359   2.317  1.1646  2.8709 -1.8583
  604SOL     OW 1810   0.527   2.893   2.740  0.1620  0.2735  0.3700
  604SOL    HW1 1811   0.545   2.877   2.642 -1.0448 -0.2455  1.7864
  604SOL    HW2 1812   0.592   2.847   2.800 -3.8892 -1.5166 -1.9365
  605SOL     OW 1813   2.423   1.252   1.583  0.1195  0.0034 -0.1347
  605SOL    HW1 1814   2.498   1.300   1.540 -2.0517 -1.8938 -1.0048
  605SOL    HW2 1815   2.418   1.277   1.680 -2.2604 -1.4860 -2.1058
  606SOL     OW 1816   0.997   1.488   2.834  0.2222 -0.0450  0.0757
  606SOL    HW1 1817   1.005   1.435   2.924 -2.5127 -1.0123  1.0850
  606SOL    HW2 1818   0.895   1.502   2.809 -0.5398  1.9428 -1.7732
  607SOL     OW 1819   0.754   0.529   0.500  0.9090 -0.1791  0.9013
  607SOL    HW1 1820   0.683   0.454   0.494  0.9951  0.9567  0.8541
  607SOL    HW2 1821   0.779   0.542   0.595 -1.4538 -2.5407 -1.3351
  608SOL     OW 1822   2.833   1.559   1.482  0.1412  0.8518 -0.3137
  608SOL    HW1 1823   2.819   1.631   1.557  0.8050 -0.9135  0.3318
  608SOL    HW2 1824   2.756   1.495   1.467  1.1501  0.8953  1.0060
  609SOL     OW 1825   2.342   0.623   0.771  0.1754  0.1629 -0.3218
  609SOL    HW1 1826   2.384   0.567   0.842  1.6410  2.9855 -1.8290
  609SOL    HW2 1827   2.404   0.701   0.747 -0.1593  0.7423 -1.8196
  610SOL     OW 1828   0.270   2.527   1.382 -0.1691 -0.0251  0.1328
  610SOL    HW1 1829   0.290   2.555   1.477 -1.6518 -2.7117 -1.3593
  610SOL    HW2 1830   0.356   2.509   1.328  1.1663 -0.8708  3.1254
  611SOL     OW 1831   1.489   1.651   0.314  0.2281 -0.1660  0.6800
  611SOL    HW1 1832   1.517   1.620   0.407  1.8557 -1.1019  0.5397
  611SOL    HW2 1833   1.563   1.710   0.271  0.0389  1.5446  2.8199
  612SOL     OW 1834   0.656   0.057   1.847 -0.1599 -0.5843  0.4053
  612SOL    HW1 1835   0.652   0.096   1.943  0.9220 -1.3465 -0.1291
  612SOL    HW2 1836   0.613   0.120   1.782  1.2548  1.0294 -0.7295
  613SOL     OW 1837   0.638   2.318   0.559 -0.2853  0.0415 -0.0097
  613SOL    HW1 1838   0.680   2.397   0.509  0.1148 -0.0662 -0.7776
  613SOL    HW2 1839   0.550   2.343   0.604 -3.8981  2.9739 -0.7874
  614SOL     OW 1840   2.197   3.098   2.125 -0.0428 -0.3676  0.1541
  614SOL    HW1 1841   2.200   0.098   2.163 -0.2504  2.9203  1.8170
  614SOL    HW2 1842   2.275   3.066   2.068  0.0527 -0.8467  1.0628
  615SOL     OW 1843   1.236   1.754   0.644  0.7260  0.5236  0.3951
  615SOL    HW1 1844   1.214   1.712   0.552 -0.5291  1.1460 -3.1210
  615SOL    HW2 1845   1.267   1.849   0.625  0.7691 -1.4755  0.1946
  616SOL     OW 1846   1.576   1.581   0.554 -0.3721  0.3966 -0.6443
  616SOL    HW1 1847   1.522   1.525   0.625 -0.2211 -2.4802  0.6235
  616SOL    HW2 1848   1.560   1.682   0.559  0.7472  2.0557  0.9609
  617SOL     OW 1849   1.402   1.193   2.855  0.2673 -0.6468  0.3407
  617SOL    HW1 1850   1.472   1.121   2.868  0.1169 -0.6478 -0.2379
  617SOL    HW2 1851   1.356   1.210   2.946  3.1366 -3.3122 -0.2659
  618SOL     OW 1852   0.646   0.449   1.993 -0.5472 -0.0684 -0.0122
  618SOL    HW1 1853   0.730   0.483   2.036 -0.9068  2.5907 -0.8763
  618SOL    HW2 1854   0.630   0.353   2.026  1.9324 -1.6670 -3.1484
  619SOL     OW 1855   2.980   1.341   1.371  0.1827 -0.0853  0.4567
  619SOL    HW1 1856   2.937   1.426   1.408  1.4336  3.2610 -3.3615
  619SOL    HW2 1857   3.067   1.368   1.334 -2.0846  2.0279  1.7867
  620SOL     OW 1858   2.612   0.231   2.400  0.4714 -0.0104  0.3037
  620SOL    HW1 1859   2.626   0.334   2.403 -3.1471  0.4411  1.8755
  620SOL    HW2 1860   2.681   0.179   2.352 -3.7614  1.5584  1.2677
  621SOL     OW 1861   2.188   1.991   2.869  0.0402  0.6856  0.0018
  621SOL    HW1 1862   2.154   2.070   2.927 -0.9891  1.2313  1.9678
  621SOL    HW2 1863   2.110   1.921   2.853  0.3039 -3.4796 -2.7474
  622SOL     OW 1864   1.030   0.848   2.772 -0.2264  0.0794  0.3493
  622SOL    HW1 1865   0.941   0.842   2.825 -0.9503 -0.4120  0.3966
  622SOL    HW2 1866   1.078   0.938   2.766 -0.4424 -1.1947  1.6981
  623SOL     OW 1867   0.811   1.360   2.012 -0.2812  0.1845 -0.0783
  623SOL    HW1 1868   0.892   1.295   2.015 -0.3473 -1.8179 -0.2485
  623SOL    HW2 1869   0.735   1.309   1.975  2.7925  1.0802  0.2260
  624SOL     OW 1870   2.948   0.106   0.498 -0.1700 -0.7860 -0.4241
  624SOL    HW1 1871   2.960   0.149   0.407  0.5313 -0.5384  0.3311
  624SOL    HW2 1872   2.930   0.178   0.571 -1.2600 -3.0518  0.0648
  625SOL     OW 1873   1.061   2.468   0.722 -0.5599  0.1752 -0.3305
  625SOL    HW1 1874   1.027   2.530   0.650  0.7039 -1.0068  1.8811
  625SOL    HW2 1875   0.997   2.386   0.722  1.2449  0.6495 -2.3495
  626SOL     OW 1876   2.323   1.022   2.458  0.1052 -0.5677 -0.3747
  626SOL    HW1 1877   2.299   0.951   2.524  2.0312  0.6974  0.4685
  626SOL    HW2 1878   2.305   1.122   2.487 -0.3032  2.5718  0.6555
  627SOL     OW 1879   1.306   2.156   2.788 -0.0929  0.6692 -0.7102
  627SOL    HW1 1880   1.239   2.149   2.713  2.4494  1.8786  1.1992
  627SOL    HW2 1881   1.306   2.063   2.830 -0.4450 -2.6033  0.8749
  628SOL     OW 1882   2.875   2.884   2.341  0.6635 -0.1809 -0.0651
  628SOL    HW1 1883   2.790   2.828   2.333 -0.6765 -1.7122 -0.2297
  628SOL    HW2 1884   2.900   2.892   2.436  1.9426  1.8042  0.5845
  629SOL     OW 1885   1.367   2.644   2.515 -0.1448  0.4981  0.3827
  629SOL    HW1 1886   1.365   2.691   2.428  1.3073 -0.1624  1.8941
  629SOL    HW2 1887   1.462   2.623   2.537 -1.2010  0.1713  3.8872
  630SOL     OW 1888   0.824   0.146   2.274  0.2151  0.4985  0.2066
  630SOL    HW1 1889   0.840   0.236   2.315  1.3995  0.8673  0.0937
  630SOL    HW2 1890   0.785   0.085   2.347 -4.1480 -0.6692  1.1444
  631SOL     OW 1891   1.961   1.098   0.610  0.2159 -0.4904  0.3303
  631SOL    HW1 1892   1.972   1.159   0.689 -1.8422 -1.0204  1.2913
  631SOL    HW2 1893   1.962   1.149   0.521  0.1705 -0.5515  0.2633
  632SOL     OW 1894   2.529   0.102   1.804  0.1439 -0.4149  0.4998
  632SOL    HW1 1895   2.450   0.156   1.839  1.5480  1.9831 -0.4485
  632SOL    HW2 1896   2.601   0.109   1.876  0.9659 -0.7490 -2.6352
  633SOL     OW 1897   1.199   1.644   0.393 -0.1961  0.0254 -0.2049
  633SOL    HW1 1898   1.290   1.656   0.353 -2.8620 -0.0202 -0.2906
  633SOL    HW2 1899   1.129   1.669   0.323 -1.3133  0.3484 -0.7660
  634SOL     OW 1900   2.651   2.789   1.751 -0.1917  0.2956  0.0021
  634SOL    HW1 1901   2.729   2.857   1.730  0.3829  4.0878 -2.2537
  634SOL    HW2 1902   2.684   2.730   1.825  1.7731  1.6726  1.0964
  635SOL     OW 1903   1.666   0.480   0.306 -0.0300 -0.2987  0.3790
  635SOL    HW1 1904   1.575   0.432   0.295 -1.6113 -0.4604  2.6602
  635SOL    HW2 1905   1.686   0.473   0.405 -0.3920 -3.6263 -3.3310
  636SOL     OW 1906   0.593   1.258   0.089 -0.4204  0.1928  0.4293
  636SOL    HW1 1907   0.517   1.191   0.073 -1.3398 -0.2686 -0.4552
  636SOL    HW2 1908   0.580   1.326   0.020  0.2607 -3.3520  0.1290
  637SOL     OW 1909   2.728   2.059   0.174  0.1519  0.3753  0.1708
  637SOL    HW1 1910   2.793   1.993   0.215  1.0310  0.1691  0.6107
  637SOL    HW2 1911   2.760   2.078   0.079  0.3882 -0.5394 -2.0172
  638SOL     OW 1912   1.189   2.475   2.652  0.1957 -0.4763  0.2863
  638SOL    HW1 1913   1.258   2.528   2.598  3.5050  2.2953  0.4894
  638SOL    HW2 1914   1.226   2.463   2.750  0.3590 -0.2411  0.3364
  639SOL     OW 1915   1.599   1.689   0.952  0.1896  0.0413 -0.4669
  639SOL    HW1 1916   1.565   1.746   1.027  3.4993 -0.9008 -0.2841
  639SOL    HW2 1917   1.580   1.724   0.859  0.4976 -0.2091  0.2183
  640SOL     OW 1918   2.203   3.026   0.231 -0.4998 -0.1008  0.1163
  640SOL    HW1 1919   2.111   3.019   0.262  1.7639  0.2184 -0.3220
  640SOL    HW2 1920   2.222   0.025   0.205 -0.9917 -1.0733  0.0942
  641SOL     OW 1921   2.747   0.465   2.995 -0.4389  0.2993 -0.6685
  641SOL    HW1 1922   2.745   0.430   3.088  0.8545 -0.4306 -0.1521
  641SOL    HW2 1923   2.693   0.407   2.929 -0.9070  1.8616 -1.6039
  642SOL     OW 1924   0.450   0.647   1.085  0.3776  0.1783 -0.2644
  642SOL    HW1 1925   0.399   0.623   1.176 -2.5031 -1.9468  1.8341
  642SOL    HW2 1926   0.454   0.560   1.031  0.0253 -2.0553 -0.5450
  643SOL     OW 1927   0.621   1.442   2.358  0.3683  0.6786 -0.3029
  643SOL    HW1 1928   0.661   1.352   2.336  2.0151 -0.9047  0.8973
  643SOL    HW2 1929   0.525   1.427   2.385  0.3211 -2.5360  0.8323
  644SOL     OW 1930   2.042   2.077   0.793 -0.2285 -0.1232  0.0089
  644SOL    HW1 1931   1.980   2.002   0.760  0.3797  2.0749  0.5728
  644SOL    HW2 1932   2.105   2.043   0.869  1.4603 -0.8612  1.1321
  645SOL     OW 1933   1.652   2.124   0.812  0.1096  0.4760  0.1517
  645SOL    HW1 1934   1.555   2.135   0.830  0.1813 -2.0916 -0.4030
  645SOL    HW2 1935   1.707   2.135   0.897  0.0174  0.8369 -0.8150
  646SOL     OW 1936   0.314   2.071   2.879  0.7210  0.0097 -0.2044
  646SOL    HW1 1937   0.300   2.169   2.846 -4.5557  3.6528  0.7452
  646SOL    HW2 1938   0.215   2.036   2.898  1.5629  0.5285  0.9182
  647SOL     OW 1939   1.186   0.070   1.393 -0.0144 -0.2581 -0.1424
  647SOL    HW1 1940   1.111   0.102   1.332  0.6077 -1.9490  0.0404
  647SOL    HW2 1941   1.264   0.137   1.402  0.1264  1.2138 -0.3889
  648SOL     OW 1942   1.182   0.311   0.929 -0.1742  0.0643  0.0043
  648SOL    HW1 1943   1.093   0.275   0.964  3.4002 -0.2926  2.7221
  648SOL    HW2 1944   1.190   0.407   0.958 -1.8643 -1.5668 -1.2362
  649SOL     OW 1945   1.393   2.124   0.381 -0.0095 -0.1825  0.0415
  649SOL    HW1 1946   1.389   2.041   0.319  1.6282 -1.9392  0.0838
  649SOL    HW2 1947   1.460   2.115   0.456 -1.1452 -0.5646  0.6552
  650SOL     OW 1948   2.297   1.624   1.783 -0.2508  0.1209  0.1179
  650SOL    HW1 1949   2.299   1.715   1.739 -2.8886 -0.8529  0.5289
  650SOL    HW2 1950   2.202   1.587   1.789 -2.1468  1.6285 -1.4593
  651SOL     OW 1951   1.759   2.706   2.971  0.2148 -0.1575 -0.1686
  651SOL    HW1 1952   1.755   2.801   2.926 -1.3120  2.5307 -0.0751
  651SOL    HW2 1953   1.674   2.651   2.945 -2.2671  0.4743 -1.9577
  652SOL     OW 1954   2.719   1.582   0.263 -0.3051 -0.4766 -0.1633
  652SOL    HW1 1955   2.721   1.634   0.351 -0.6454 -3.8124  1.2001
  652SOL    HW2 1956   2.688   1.490   0.283  0.3273  0.9659 -1.0692
  653SOL     OW 1957   2.903   0.020   1.149  0.3213 -0.3451 -0.0344
  653SOL    HW1 1958   2.896   0.115   1.170  1.2434 -2.3765  1.1744
  653SOL    HW2 1959   2.831   3.088   1.084 -0.1523  0.1469 -0.1674
  654SOL     OW 1960   2.848   2.972   1.690 -0.1899 -0.0866 -0.0755
  654SOL    HW1 1961   2.849   3.009   1.595  2.3519  1.2595  2.1568
  654SOL    HW2 1962   2.930   2.995   1.740 -1.8038 -4.0988 -4.2735
  655SOL     OW 1963   0.367   2.350   0.654  0.2783  0.3621 -0.2109
  655SOL    HW1 1964   0.355   2.403   0.742 -0.2397 -0.5304  2.0503
  655SOL    HW2 1965   0.319   2.398   0.580  2.4543 -0.8343  3.6275
  656SOL     OW 1966   2.812   0.078   2.289 -0.3246 -0.2514  0.4144
  656SOL    HW1 1967   2.877   0.058   2.365 -2.5557 -0.3812 -0.4564
  656SOL    HW2 1968   2.781   3.090   2.243  1.5527 -0.0040  0.4580
  657SOL     OW 1969   0.017   1.259   2.885 -0.0794  0.2268 -0.2996
  657SOL    HW1 1970   3.038   1.258   2.826  3.3757  1.2866  1.0169
  657SOL    HW2 1971   0.018   1.350   2.929 -0.2689 -3.2882  0.6160
  658SOL     OW 1972   2.634   1.818   1.207  0.0789 -0.3544  0.1020
  658SOL    HW1 1973   2.705   1.869   1.260  1.0325  1.9548  0.7335
  658SOL    HW2 1974   2.565   1.769   1.262 -1.3566  2.0881  3.7141
  659SOL     OW 1975   1.606   2.857   0.049  0.2156 -0.7929 -0.2831
  659SOL    HW1 1976   1.647   2.948   0.068 -2.1860 -3.1857 -1.8130
  659SOL    HW2 1977   1.659   2.799   3.083 -0.2503  1.3124  0.5612
  660SOL     OW 1978   1.527   1.225   0.188  0.1502 -0.2665  0.2102
  660SOL    HW1 1979   1.591   1.147   0.162  0.5076  1.0936  2.6483
  660SOL    HW2 1980   1.463   1.243   0.113  1.1911 -2.0936  1.3058
  661SOL     OW 1981   0.076   2.246   1.068 -0.5218 -0.4750  0.6697
  661SOL    HW1 1982   0.007   2.179   1.051  1.3763  1.3429  0.2012
  661SOL    HW2 1983   0.089   2.261   1.162 -0.9108  0.8135 -1.9326
  662SOL     OW 1984   0.141   0.700   0.073  0.2668  0.9156  0.3237
  662SOL    HW1 1985   0.041   0.689   0.058  0.9287  1.9344 -0.4063
  662SOL    HW2 1986   0.183   0.622   0.118  0.5213 -1.0059  0.6078
  663SOL     OW 1987   2.042   1.554   1.245 -0.2291  0.0349 -0.4877
  663SOL    HW1 1988   2.018   1.457   1.209  1.7352  0.6698 -0.1646
  663SOL    HW2 1989   1.976   1.621   1.206 -0.5518 -0.9980 -1.4651
  664SOL     OW 1990   1.004   1.375   1.231  0.5917 -0.8149 -0.3187
  664SOL    HW1 1991   1.075   1.324   1.273 -4.9579  1.7945 -1.3233
  664SOL    HW2 1992   0.967   1.432   1.306 -1.6104 -0.9021 -1.4953
  665SOL     OW 1993   2.044   2.603   2.281  0.0935  0.1535  0.5081
  665SOL    HW1 1994   1.975   2.636   2.209 -4.6538 -0.4743 -1.1023
  665SOL    HW2 1995   2.008   2.626   2.375  2.3957 -0.3283  1.1730
  666SOL     OW 1996   3.002   2.810   2.975  0.8799 -0.1598 -0.0771
  666SOL    HW1 1997   3.005   2.785   2.876  0.0695 -0.1739 -0.6975
  666SOL    HW2 1998   3.016   2.913   2.983  2.4767 -0.4133 -0.2502
  667SOL     OW 1999   2.591   1.013   2.071 -0.2045  0.0513 -0.2082
  667SOL    HW1 2000   2.548   0.945   2.006 -1.2054 -0.1383  2.8675
  667SOL    HW2 2001   2.526   1.094   2.080 -0.9808  0.9323 -0.4424
  668SOL     OW 2002   0.398   0.984   2.546  0.0752 -0.2105  0.0946
  668SOL    HW1 2003   0.345   0.957   2.632  2.3387  0.6677  1.4803
  668SOL    HW2 2004   0.367   0.936   2.463  0.7183  1.1549  1.3115
  669SOL     OW 2005   2.069   2.204   2.464 -0.6420  0.2362  0.3930
  669SOL    HW1 2006   2.137   2.225   2.389  0.3854  0.5239  0.5191
  669SOL    HW2 2007   2.075   2.282   2.528 -0.7596 -1.6229 -1.2100
  670SOL     OW 2008   2.399   1.211   2.061  0.0658  0.5749  0.4158
  670SOL    HW1 2009   2.388   1.249   1.968 -3.0978 -0.2178 -0.7177
  670SOL    HW2 2010   2.305   1.186   2.105 -1.9498 -1.4783 -1.2206
  671SOL     OW 2011   2.742   1.298   0.349 -0.1751 -0.7224  0.3660
  671SOL    HW1 2012   2.817   1.247   0.303 -0.3447  0.9778 -5.4295
  671SOL    HW2 2013   2.778   1.340   0.431 -4.3405 -1.0565  0.2960
  672SOL     OW 2014   2.356   0.576   2.304 -0.7156  0.2687 -0.2174
  672SOL    HW1 2015   2.264   0.559   2.346 -0.5725  0.2136 -1.0889
  672SOL    HW2 2016   2.372   0.676   2.286  1.1290  0.1231 -3.1814
  673SOL     OW 2017   2.752   0.092   1.954 -0.4085  0.7029 -0.0509
  673SOL    HW1 2018   2.845   0.078   1.921 -3.2344 -0.1751 -0.3033
  673SOL    HW2 2019   2.718   0.015   2.015  0.5156  2.8834  1.5553
  674SOL     OW 2020   1.688   1.939   1.604 -0.2637  0.2857  0.7131
  674SOL    HW1 2021   1.769   1.881   1.592 -0.3098 -0.3734 -0.0794
  674SOL    HW2 2022   1.661   1.983   1.517  1.6812  1.7543 -2.5089
  675SOL     OW 2023   0.863   0.466   0.754  0.3139  0.2185 -0.4808
  675SOL    HW1 2024   0.815   0.540   0.804  1.6249 -1.4574 -1.4163
  675SOL    HW2 2025   0.953   0.504   0.727 -1.6758  1.7553  1.0782
  676SOL     OW 2026   1.613   0.850   0.844  0.1095 -0.3248  0.0493
  676SOL    HW1 2027   1.540   0.884   0.902 -0.6353  0.1362  1.7856
  676SOL    HW2 2028   1.627   0.747   0.857 -0.8249  1.6980  1.7516
  677SOL     OW 2029   2.478   1.262   2.341 -0.0926 -0.2981 -0.1031
  677SOL    HW1 2030   2.449   1.248   2.244  0.6206 -0.3829  1.2512
  677SOL    HW2 2031   2.398   1.282   2.397  2.4351 -1.3184 -3.8175
  678SOL     OW 2032   2.716   1.580   1.067 -0.1584  0.2849 -0.0706
  678SOL    HW1 2033   2.780   1.499   1.091  2.0324 -1.6362 -0.9411
  678SOL    HW2 2034   2.698   1.638   1.147  1.8709 -1.8403  0.8258
  679SOL     OW 2035   2.256   2.650   3.098 -0.3925  0.3039 -0.5729
  679SOL    HW1 2036   2.166   2.638   3.049 -0.6488 -1.2144 -0.0254
  679SOL    HW2 2037   2.331   2.608   3.042  1.5253  0.8334  0.5009
  680SOL     OW 2038   0.372   2.114   2.016 -0.1565  0.2148 -0.1129
  680SOL    HW1 2039   0.306   2.033   2.005 -1.1342 -1.2214  1.3251
  680SOL    HW2 2040   0.385   2.169   1.931  0.5450  0.0996  3.6859
  681SOL     OW 2041   0.518   1.085   1.340  0.3853 -0.1412  0.1764
  681SOL    HW1 2042   0.500   1.026   1.255  1.6315 -0.8953 -2.2821
  681SOL    HW2 2043   0.602   1.067   1.388  1.0979  1.3099  1.3366
  682SOL     OW 2044   1.385   2.592   0.849  0.0135  0.1692 -0.1899
  682SOL    HW1 2045   1.397   2.537   0.762  0.0584 -0.7651 -0.3372
  682SOL    HW2 2046   1.290   2.634   0.865 -0.3019  2.3111  1.2534
  683SOL     OW 2047   2.556   1.398   0.662  0.0762  0.2078  0.1523
  683SOL    HW1 2048   2.549   1.298   0.637 -0.6660 -0.9916  2.6867
  683SOL    HW2 2049   2.653   1.431   0.652  1.1042  0.6000 -1.6545
  684SOL     OW 2050   0.577   1.951   1.935  0.8647  0.4148  0.0689
  684SOL    HW1 2051   0.656   1.956   1.999  0.2844 -0.5683  2.1413
  684SOL    HW2 2052   0.507   2.018   1.968 -3.4435  0.7353 -0.5031
  685SOL     OW 2053   1.919   1.624   0.165  0.0418  0.4201 -0.4687
  685SOL    HW1 2054   2.009   1.584   0.169 -1.3213 -0.5953  3.2059
  685SOL    HW2 2055   1.846   1.554   0.186 -1.8665  2.6824  1.1108
  686SOL     OW 2056   0.287   0.802   0.925  0.5636 -0.2585 -0.0754
  686SOL    HW1 2057   0.320   0.899   0.901  1.9723  0.4051  2.7624
  686SOL    HW2 2058   0.344   0.753   0.996  2.2471  0.4121 -0.3803
  687SOL     OW 2059   0.944   2.305   2.971 -0.1783 -0.6556  0.1082
  687SOL    HW1 2060   0.929   2.339   3.064 -0.8027  1.7412  0.7078
  687SOL    HW2 2061   0.874   2.344   2.909  0.4706  1.0709 -1.7225
  688SOL     OW 2062   2.356   1.603   2.046  0.2954  0.6941  0.2086
  688SOL    HW1 2063   2.452   1.575   2.079  3.1477 -1.3635  0.8451
  688SOL    HW2 2064   2.347   1.606   1.948 -1.5667  1.0792  2.1006
  689SOL     OW 2065   2.063   0.673   2.108 -0.3094  0.4019  0.4508
  689SOL    HW1 2066   2.134   0.730   2.154 -2.1807 -0.8622 -2.2716
  689SOL    HW2 2067   1.985   0.728   2.077  0.0801  0.5838  0.6996
  690SOL     OW 2068   2.111   0.967   1.493 -0.1836  0.0947 -0.7487
  690SOL    HW1 2069   2.036   1.033   1.464 -0.4474  2.6381 -0.9195
  690SOL    HW2 2070   2.199   0.999   1.453  0.7950  2.1223 -0.6436
  691SOL     OW 2071   0.646   1.881   1.678  0.0571 -0.2544  0.1659
  691SOL    HW1 2072   0.642   1.902   1.777  2.2212  3.2256 -3.3807
  691SOL    HW2 2073   0.741   1.856   1.651 -0.3138 -0.5964 -1.3253
  692SOL     OW 2074   2.093   0.107   1.341 -0.1787  0.3582  0.3380
  692SOL    HW1 2075   2.168   0.170   1.373  1.5782  1.0826  0.5083
  692SOL    HW2 2076   2.062   0.140   1.249  2.6807 -3.0676  0.0970
  693SOL     OW 2077   0.546   1.058   2.278  0.4865  0.4305  0.6977
  693SOL    HW1 2078   0.630   1.112   2.304 -0.5217  0.1786  1.2630
  693SOL    HW2 2079   0.562   0.964   2.306 -2.1257 -0.9813  1.0078
  694SOL     OW 2080   1.839   2.559   1.180  0.0305 -0.0402  0.6688
  694SOL    HW1 2081   1.940   2.578   1.182 -1.4820  0.3189  0.1607
  694SOL    HW2 2082   1.791   2.590   1.096 -0.3837  1.3987  0.5864
  695SOL     OW 2083   1.225   1.180   2.031 -0.1329  0.3377  0.8669
  695SOL    HW1 2084   1.218   1.204   2.131 -1.7341  1.6199  1.9835
  695SOL    HW2 2085   1.309   1.221   1.995  1.4427 -1.7287  2.0645
  696SOL     OW 2086   1.604   2.992   0.645 -0.1236 -0.0817 -0.1580
  696SOL    HW1 2087   1.510   3.022   0.629  2.1926  3.0404 -1.0396
  696SOL    HW2 2088   1.647   2.944   0.567 -0.3468  1.7326  0.2881
  697SOL     OW 2089   1.223   0.268   0.646 -0.2611  0.0947 -0.7407
  697SOL    HW1 2090   1.203   0.293   0.741  1.4996 -2.4778  1.7396
  697SOL    HW2 2091   1.156   0.316   0.587 -0.2136 -3.0279 -0.1608
  698SOL     OW 2092   1.634   1.143   2.590 -0.3805 -0.0537 -0.0630
  698SOL    HW1 2093   1.543   1.100   2.570 -1.5154 -0.3867 -1.0785
  698SOL    HW2 2094   1.667   1.183   2.502  1.8822 -0.1492 -0.3303
  699SOL     OW 2095   1.270   1.357   1.361  0.1263 -0.1965 -0.2728
  699SOL    HW1 2096   1.338   1.338   1.292  0.5933  0.3192  2.0545
  699SOL    HW2 2097   1.314   1.401   1.443  0.1479  0.7377 -2.1544
  700SOL     OW 2098   1.462   0.187   0.525  0.1896  0.2714  0.4472
  700SOL    HW1 2099   1.380   0.218   0.575  0.5178  1.0074 -0.1823
  700SOL    HW2 2100   1.544   0.190   0.586  0.5347 -0.5600 -3.8977
  701SOL     OW 2101   0.500   0.246   1.687 -0.1913  0.0443 -0.0172
  701SOL    HW1 2102   0.554   0.300   1.619 -0.3477 -2.3925 -2.4936
  701SOL    HW2 2103   0.432   0.300   1.735 -2.6411 -0.1177  2.6568
  702SOL     OW 2104   1.301   2.940   0.273 -0.3804 -0.0188 -0.2718
  702SOL    HW1 2105   1.212   2.991   0.258 -1.6521  1.4974  0.8152
  702SOL    HW2 2106   1.352   2.951   0.186  1.7484  0.8341 -0.8604
  703SOL     OW 2107   2.641   2.748   2.312  0.3478 -0.4723 -0.2616
  703SOL    HW1 2108   2.550   2.776   2.349 -0.7767 -2.1423  0.3879
  703SOL    HW2 2109   2.628   2.665   2.252 -0.3388 -0.8746  0.1848
  704SOL     OW 2110   0.890   2.250   0.688  0.0599  0.4160  0.2311
  704SOL    HW1 2111   0.814   2.281   0.630  0.8522  0.7766  2.0642
  704SOL    HW2 2112   0.855   2.215   0.776 -0.5683  1.9296 -2.0181
  705SOL     OW 2113   0.059   0.704   1.971  0.0616  0.5380  0.1687
  705SOL    HW1 2114   0.132   0.662   2.031 -0.0757  1.7560 -1.0301
  705SOL    HW2 2115   3.072   0.709   2.018  1.9396 -0.0529 -0.7218
  706SOL     OW 2116   1.563   0.015   0.297  0.0813 -0.2961  0.4346
  706SOL    HW1 2117   1.623   3.056   0.351  0.5386 -1.3442 -0.6699
  706SOL    HW2 2118   1.501   0.067   0.363 -0.0664  0.9776  4.9312
  707SOL     OW 2119   1.368   1.986   2.386  0.0031  0.2070 -0.2063
  707SOL    HW1 2120   1.329   1.913   2.445  0.3530 -1.8086  0.5198
  707SOL    HW2 2121   1.290   2.027   2.328 -2.3190  1.4149 -2.0666
  708SOL     OW 2122   3.077   2.216   1.546 -0.2994  0.6229 -0.2045
  708SOL    HW1 2123   3.025   2.296   1.516  0.7394 -1.4324 -3.0868
  708SOL    HW2 2124   0.036   2.241   1.628  1.6801  1.8146  1.5892
  709SOL     OW 2125   2.014   0.389   1.565  0.0145 -0.0171 -0.4062
  709SOL    HW1 2126   2.005   0.318   1.634 -1.2533 -1.3806  2.5654
  709SOL    HW2 2127   1.928   0.405   1.518  0.7489 -1.5110  1.1311
  710SOL     OW 2128   2.891   3.057   1.447  0.7888 -0.0181  0.0899
  710SOL    HW1 2129   2.812   3.036   1.393 -1.3698  1.6099  0.0250
  710SOL    HW2 2130   2.909   0.058   1.443  0.8577  2.2240 -1.5731
  711SOL     OW 2131   0.065   2.310   0.282  0.3652  0.0103  0.0308
  711SOL    HW1 2132   0.092   2.295   0.188 -2.2082  0.6833  2.1572
  711SOL    HW2 2133   3.070   2.269   0.291 -0.3352 -0.9794  1.3700
  712SOL     OW 2134   0.564   2.120   2.476 -0.3665  0.5555 -0.1585
  712SOL    HW1 2135   0.490   2.120   2.401 -0.7533  0.1456 -4.9060
  712SOL    HW2 2136   0.649   2.172   2.444 -0.1834  0.0013 -0.2456
  713SOL     OW 2137   2.088   0.708   3.018  0.6942  0.2734 -0.2580
  713SOL    HW1 2138   2.068   0.635   3.085  1.2781  0.5399  1.1318
  713SOL    HW2 2139   2.077   0.798   3.059 -2.0030 -1.7897 -0.4431
  714SOL     OW 2140   1.360   2.025   0.713  0.0398  0.1618 -0.2355
  714SOL    HW1 2141   1.302   2.020   0.801 -2.0882 -0.6753  1.5350
  714SOL    HW2 2142   1.323   2.104   0.659 -0.0072 -1.2556  1.0188
  715SOL     OW 2143   1.868   0.191   0.503 -0.0349  0.6636 -1.0116
  715SOL    HW1 2144   1.794   0.192   0.566 -0.4371 -1.6012 -1.7266
  715SOL    HW2 2145   1.854   0.249   0.423 -0.7873 -0.3562  2.0765
  716SOL     OW 2146   0.607   0.628   1.729 -0.9059 -0.0423  0.0270
  716SOL    HW1 2147   0.531   0.635   1.793 -1.7224  1.2497 -1.7551
  716SOL    HW2 2148   0.592   0.692   1.651  1.3908  1.4811  0.8295
  717SOL     OW 2149   0.180   0.459   2.908  0.1426  0.0828  0.2821
  717SOL    HW1 2150   0.216   0.552   2.878  0.1158  0.3772  1.2707
  717SOL    HW2 2151   0.101   0.473   2.973 -3.3800 -0.2021  0.2340
  718SOL     OW 2152   1.137   0.974   0.400 -0.0754 -0.0747  0.4211
  718SOL    HW1 2153   1.215   0.963   0.468  1.9584 -0.6823 -0.7322
  718SOL    HW2 2154   1.144   0.896   0.342  0.3479  2.5531  1.1705
  719SOL     OW 2155   2.602   1.625   0.004  0.1483 -0.8211 -0.3075
  719SOL    HW1 2156   2.653   1.586   3.022 -0.4235  1.0514  2.6915
  719SOL    HW2 2157   2.645   1.617   0.095  1.1275  0.9479  0.7023
  720SOL     OW 2158   1.545   0.891   1.189  0.3384 -0.0943 -0.2121
  720SOL    HW1 2159   1.480   0.914   1.118  1.7931 -0.3057 -1.2609
  720SOL    HW2 2160   1.519   0.800   1.225  1.2097  1.7333  0.1573
  721SOL     OW 2161   2.870   0.549   0.589 -0.0289  0.2645 -0.2040
  721SOL    HW1 2162   2.937   0.578   0.516  0.7830  1.6208 -1.7271
  721SOL    HW2 2163   2.777   0.554   0.549  3.0232 -2.0301  2.1136
  722SOL     OW 2164   1.057   1.750   2.751 -0.4062  0.2198  0.0841
  722SOL    HW1 2165   0.975   1.796   2.710 -2.0212  0.3657 -0.6220
  722SOL    HW2 2166   1.027   1.666   2.798  0.0171 -2.8978 -1.2912
  723SOL     OW 2167   0.571   0.980   0.345  0.1638  0.1395 -0.3856
  723SOL    HW1 2168   0.563   1.084   0.354 -2.0399  0.2433  0.9508
  723SOL    HW2 2169   0.516   0.945   0.424  1.7710  2.4434 -2.7167
  724SOL     OW 2170   0.934   2.265   1.932 -0.2704 -0.3477  0.0962
  724SOL    HW1 2171   0.879   2.252   1.847  0.3499 -2.8640 -0.9247
  724SOL    HW2 2172   0.949   2.363   1.946  1.7656 -0.5079 -1.0460
  725SOL     OW 2173   2.709   1.023   1.660  0.0570  0.0155  0.0104
  725SOL    HW1 2174   2.758   1.104   1.620  1.1215  2.9154 -1.2235
  725SOL    HW2 2175   2.726   1.026   1.765  0.9462  0.5274  3.7668
  726SOL     OW 2176   1.763   2.948   0.441  0.0190 -0.0641 -0.3334
  726SOL    HW1 2177   1.855   2.983   0.456 -1.0934 -3.4897 -1.0611
  726SOL    HW2 2178   1.759   2.851   0.407  0.4310  0.4629 -1.6891
  727SOL     OW 2179   1.152   1.030   2.494  0.8256 -0.1888 -0.0232
  727SOL    HW1 2180   1.159   1.086   2.581  2.0343 -0.6353  2.1632
  727SOL    HW2 2181   1.076   0.962   2.489 -2.8873  0.7261 -1.8629
  728SOL     OW 2182   1.242   2.911   1.157  0.0470  0.5568 -0.0488
  728SOL    HW1 2183   1.311   2.842   1.136 -0.2949  1.6013  0.0745
  728SOL    HW2 2184   1.283   2.993   1.193 -0.3714 -0.3976 -1.0895
  729SOL     OW 2185   1.470   0.655   1.333 -0.0247 -0.0230  0.2087
  729SOL    HW1 2186   1.376   0.680   1.304 -0.7021 -1.4046  0.0281
  729SOL    HW2 2187   1.477   0.568   1.383 -0.0007  1.5241 -2.0500
  730SOL     OW 2188   0.768   2.000   2.133 -0.2605  0.0413 -0.4262
  730SOL    HW1 2189   0.821   2.086   2.168  0.8805  1.8036 -0.7420
  730SOL    HW2 2190   0.832   1.918   2.141  3.0088  0.5834  1.4846
  731SOL     OW 2191   0.563   0.300   0.467  0.6176  0.1822 -0.5616
  731SOL    HW1 2192   0.506   0.361   0.415  0.2411  0.2287  0.3143
  731SOL    HW2 2193   0.645   0.276   0.412 -2.0390  0.2878 -1.3065
  732SOL     OW 2194   0.531   0.487   2.943 -0.5724  0.1466  0.2794
  732SOL    HW1 2195   0.628   0.485   2.975 -0.1846 -0.2608 -0.7963
  732SOL    HW2 2196   0.470   0.427   3.001 -0.3303 -1.7647 -0.0053
  733SOL     OW 2197   1.215   2.505   1.286 -0.5666 -0.4828  0.2924
  733SOL    HW1 2198   1.171   2.418   1.323  1.8093 -1.8272  0.6863
  733SOL    HW2 2199   1.143   2.575   1.266  0.9207  1.2071 -1.1487
  734SOL     OW 2200   2.919   2.406   2.527 -0.1624  0.3262  0.6313
  734SOL    HW1 2201   3.001   2.353   2.551 -1.8018  0.3031  1.8667
  734SOL    HW2 2202   2.895   2.463   2.605  0.0340 -0.6023 -2.0071
  735SOL     OW 2203   0.942   2.861   0.941 -0.0589  0.5722 -0.0493
  735SOL    HW1 2204   0.868   2.903   0.996  2.9936  1.0427 -1.8791
  735SOL    HW2 2205   1.024   2.924   0.944 -1.4897 -0.3647  2.2137
  736SOL     OW 2206   1.624   1.026   2.902  0.0618 -0.3263 -0.3859
  736SOL    HW1 2207   1.617   0.943   2.840 -1.4682  0.5412 -1.6086
  736SOL    HW2 2208   1.639   0.999   2.999  2.2676 -0.9768  0.2606
  737SOL     OW 2209   0.134   0.208   0.632  0.2135  0.4413  0.2752
  737SOL    HW1 2210   0.133   0.116   0.586 -2.6881  1.0529 -2.8574
  737SOL    HW2 2211   0.039   0.230   0.651 -0.1957 -2.0267 -0.2181
  738SOL     OW 2212   2.575   2.784   1.341 -0.4584  0.3762  0.0281
  738SOL    HW1 2213   2.663   2.787   1.294 -1.4013 -0.3669  0.6647
  738SOL    HW2 2214   2.512   2.855   1.303 -0.1519 -0.1808 -1.5567
  739SOL     OW 2215   1.505   2.694   0.510  0.3172  0.4951 -0.4300
  739SOL    HW1 2216   1.469   2.774   0.558 -1.5433  0.9060  0.7200
  739SOL    HW2 2217   1.482   2.609   0.558  0.0886 -0.1654  1.1166
  740SOL     OW 2218   2.021   2.913   1.130  0.4791 -0.1615  0.9697
  740SOL    HW1 2219   1.953   2.916   1.205 -2.0252 -0.5331  0.7003
  740SOL    HW2 2220   1.967   2.938   1.045  0.6717  0.3121  0.0391
  741SOL     OW 2221   1.865   0.359   0.766 -0.1594  0.1349 -0.1978
  741SOL    HW1 2222   1.922   0.277   0.743 -1.6334  0.2647 -1.0728
  741SOL    HW2 2223   1.922   0.434   0.798 -3.3963 -1.5559 -1.3498
  742SOL     OW 2224   1.224   2.141   2.232  0.2127 -0.1692 -0.1297
  742SOL    HW1 2225   1.283   2.223   2.244 -2.5806  2.1618  0.3704
  742SOL    HW2 2226   1.230   2.104   2.133 -0.1611 -2.0791 -4.8384
  743SOL     OW 2227   2.334   0.282   1.909 -0.1652  0.3359  0.1696
  743SOL    HW1 2228   2.376   0.346   1.840  2.3812 -0.4933 -2.4932
  743SOL    HW2 2229   2.352   0.302   2.009  0.8184  0.3372  1.0505
  744SOL     OW 2230   2.255   0.617   1.256  0.1999  0.1251  0.2872
  744SOL    HW1 2231   2.257   0.673   1.339 -0.0911  0.4119 -2.3148
  744SOL    HW2 2232   2.237   0.675   1.173  0.6781  0.8985 -0.3564
  745SOL     OW 2233   2.084   1.296   1.851 -0.5453 -0.7022  0.2061
  745SOL    HW1 2234   2.011   1.256   1.905 -1.1854  2.2663 -2.0055
  745SOL    HW2 2235   2.060   1.391   1.827  0.6273 -0.5908 -0.3283
  746SOL     OW 2236   1.145   1.349   0.736  0.4842 -0.4438  0.6250
  746SOL    HW1 2237   1.222   1.412   0.741  2.3741 -0.8299  4.3705
  746SOL    HW2 2238   1.111   1.338   0.831  3.0146  1.0381 -0.5465
  747SOL     OW 2239   1.470   1.293   1.175  0.0721  0.1655 -0.2299
  747SOL    HW1 2240   1.485   1.235   1.095 -2.6457  0.7295  0.6990
  747SOL    HW2 2241   1.549   1.352   1.200 -0.9059  0.8459  0.8639
  748SOL     OW 2242   2.977   2.934   0.599  0.4044  0.0256 -0.1116
  748SOL    HW1 2243   2.968   3.024   0.553 -2.3240  0.4188 -1.3344
  748SOL    HW2 2244   2.929   2.947   0.688  0.3072 -1.4683 -0.9877
  749SOL     OW 2245   3.011   0.204   2.145  0.3887  0.1257  0.3615
  749SOL    HW1 2246   2.932   0.179   2.205  0.9358  0.3485  0.1991
  749SOL    HW2 2247   3.062   0.281   2.179 -3.1134 -2.6647 -1.3152
  750SOL     OW 2248   1.852   0.066   1.432  0.4226  0.0089 -0.1117
  750SOL    HW1 2249   1.951   0.072   1.415  0.9457 -2.2886 -0.0640
  750SOL    HW2 2250   1.809   0.067   1.343  0.5892  0.0348  1.7068
  751SOL     OW 2251   2.953   0.282   0.688 -0.3768  0.3547  0.4446
  751SOL    HW1 2252   2.962   0.382   0.684 -2.4846 -0.1304  0.5264
  751SOL    HW2 2253   2.889   0.253   0.760  1.8917 -0.9620 -0.0533
  752SOL     OW 2254   0.281   2.742   1.049  0.0046 -0.1399 -0.4864
  752SOL    HW1 2255   0.314   2.823   1.105  1.3718 -0.0532  2.8879
  752SOL    HW2 2256   0.177   2.733   1.049 -4.9584 -1.0787  0.7042
  753SOL     OW 2257   1.305   0.315   1.900  0.6656  0.3110  0.5867
  753SOL    HW1 2258   1.228   0.356   1.844 -1.0900  1.2857 -1.7844
  753SOL    HW2 2259   1.379   0.383   1.923 -0.1358  0.3802  0.4067
  754SOL     OW 2260   1.327   2.584   1.639 -0.2461 -0.0762  0.0584
  754SOL    HW1 2261   1.406   2.637   1.602 -2.1740 -0.2692 -1.3935
  754SOL    HW2 2262   1.335   2.582   1.743  0.3804  3.2801 -2.9266
  755SOL     OW 2263   2.986   1.098   0.658 -0.3348  0.1025  0.5962
  755SOL    HW1 2264   2.900   1.061   0.615 -0.3500 -2.1983  0.8001
  755SOL    HW2 2265   3.034   1.022   0.703  0.7285  1.3751 -0.9657
  756SOL     OW 2266   1.894   1.605   2.619 -0.6390 -0.0030  0.0940
  756SOL    HW1 2267   1.883   1.703   2.588  0.4065  0.3250 -0.8953
  756SOL    HW2 2268   1.828   1.584   2.695  0.3022  0.0881 -0.9946
  757SOL     OW 2269   1.900   3.003   0.895  0.0994 -0.5672 -0.7182
  757SOL    HW1 2270   1.801   2.971   0.884 -1.0602 -0.7083 -2.5941
  757SOL    HW2 2271   1.947   2.975   0.810 -0.7034  0.3076  1.3590
  758SOL     OW 2272   0.767   2.684   0.822  0.2457  0.3221  0.0820
  758SOL    HW1 2273   0.775   2.588   0.857 -0.8029 -1.8538 -0.0957
  758SOL    HW2 2274   0.844   2.739   0.856  0.4066 -2.2053  1.9476
  759SOL     OW 2275   3.016   0.490   1.019 -0.3068  0.5660 -0.6150
  759SOL    HW1 2276   0.004   0.519   0.976 -2.4073 -0.5790 -0.8436
  759SOL    HW2 2277   2.934   0.516   0.970  1.4182 -1.2928  1.1541
  760SOL     OW 2278   2.218   1.227   1.174 -0.4640  0.2456 -0.3158
  760SOL    HW1 2279   2.245   1.154   1.239 -1.0561 -1.5581 -0.0197
  760SOL    HW2 2280   2.115   1.246   1.180 -0.2193  0.6615 -0.0661
  761SOL     OW 2281   0.821   0.879   1.124  0.1220  0.8140 -0.0416
  761SOL    HW1 2282   0.860   0.971   1.107 -0.6816  0.4249  0.3728
  761SOL    HW2 2283   0.880   0.808   1.082  1.2753  0.8189  1.2528
  762SOL     OW 2284   2.172   1.907   1.511  0.2774  1.0360 -0.5480
  762SOL    HW1 2285   2.209   1.842   1.440  2.4130 -0.8819 -0.9083
  762SOL    HW2 2286   2.225   1.896   1.602 -1.2201 -0.3936 -2.2371
  763SOL     OW 2287   1.229   1.612   1.997 -0.0300 -0.1306  0.2328
  763SOL    HW1 2288   1.252   1.608   2.099 -2.0685 -1.5032  1.5108
  763SOL    HW2 2289   1.176   1.702   1.985  1.4415  0.5597 -1.4630
  764SOL     OW 2290   0.066   1.890   2.425  0.2135 -0.8644  0.1735
  764SOL    HW1 2291   0.066   1.933   2.333 -0.9846  1.2764 -1.5174
  764SOL    HW2 2292   0.064   1.787   2.411 -0.3839 -1.7707  1.5856
  765SOL     OW 2293   1.014   2.694   1.248 -0.1354  0.5003  0.1669
  765SOL    HW1 2294   1.052   2.770   1.305  1.4763 -0.9177 -0.1548
  765SOL    HW2 2295   1.025   2.720   1.150 -0.4460  0.2539  1.2865
  766SOL     OW 2296   0.749   2.400   2.813 -0.0301 -0.3948 -0.2220
  766SOL    HW1 2297   0.690   2.323   2.794 -0.8671  1.3521  0.3619
  766SOL    HW2 2298   0.689   2.481   2.827  1.2285 -1.1604  0.6279
  767SOL     OW 2299   1.497   0.892   2.696 -0.7822 -0.2061 -0.2281
  767SOL    HW1 2300   1.418   0.853   2.744 -0.2175 -0.2057  0.4940
  767SOL    HW2 2301   1.483   0.889   2.592 -2.3059 -0.7813 -0.8267
  768SOL     OW 2302   1.321   2.573   2.984 -0.3288 -1.0181 -0.2054
  768SOL    HW1 2303   1.420   2.589   2.949  3.7852  0.3400 -0.5984
  768SOL    HW2 2304   1.301   2.475   2.983  1.3901  1.7398  0.1808
  769SOL     OW 2305   0.010   2.614   1.285 -0.4341 -0.1079  0.5219
  769SOL    HW1 2306   0.008   2.673   1.203 -1.8237 -0.4025  2.1492
  769SOL    HW2 2307   0.106   2.593   1.309  1.7186 -0.8901 -0.2132
  770SOL     OW 2308   0.784   0.065   2.768  0.2038 -0.3564  0.0809
  770SOL    HW1 2309   0.807   3.090   2.703 -0.4173 -0.6296  2.5628
  770SOL    HW2 2310   0.861   0.074   2.837  0.5699 -1.3170  0.2719
  771SOL     OW 2311   0.719   3.040   2.413 -0.0559 -0.2364  0.4054
  771SOL    HW1 2312   0.669   2.952   2.423 -0.3218  2.7813  1.6130
  771SOL    HW2 2313   0.644   0.009   2.423  0.4117 -2.9679  2.3143
  772SOL     OW 2314   2.383   2.999   1.956 -0.3988 -0.2586  0.7503
  772SOL    HW1 2315   2.440   3.066   1.903 -0.1427  2.1756 -1.9268
  772SOL    HW2 2316   2.435   2.913   1.986  2.7267 -4.2746  0.5841
  773SOL     OW 2317   0.651   2.479   1.731 -0.4681  0.4431 -0.3555
  773SOL    HW1 2318   0.711   2.550   1.689 -0.6562  0.6614  1.4286
  773SOL    HW2 2319   0.628   2.507   1.824  0.8553  2.5006 -1.8671
  774SOL     OW 2320   1.167   0.341   2.163 -0.3710 -0.3684  0.3037
  774SOL    HW1 2321   1.197   0.257   2.209  2.2029 -0.3325 -1.8608
  774SOL    HW2 2322   1.201   0.340   2.065 -0.8961  0.0641 -1.9780
  775SOL     OW 2323   2.218   2.610   2.788  0.4734  0.3172 -0.2026
  775SOL    HW1 2324   2.149   2.604   2.863  3.2023  2.6000 -0.2218
  775SOL    HW2 2325   2.305   2.563   2.816 -0.0434 -1.4123  0.3696
  776SOL     OW 2326   2.010   0.421   2.228  0.2427  0.0062 -0.4951
  776SOL    HW1 2327   2.071   0.458   2.301  1.5581 -3.1243  1.5875
  776SOL    HW2 2328   1.959   0.496   2.179 -0.6545 -1.3415 -0.5279
  777SOL     OW 2329   2.831   0.921   2.343  0.1912 -0.6424  0.6016
  777SOL    HW1 2330   2.854   0.945   2.438  0.4257 -0.3031 -3.1427
  777SOL    HW2 2331   2.737   0.951   2.329  2.6763 -1.9639 -1.3810
  778SOL     OW 2332   2.124   0.552   2.421 -0.4198  0.7586  0.5863
  778SOL    HW1 2333   2.085   0.647   2.434 -1.5617  2.8346  1.6583
  778SOL    HW2 2334   2.151   0.521   2.512 -2.2347 -0.1325 -0.7438
  779SOL     OW 2335   3.086   0.180   0.042  0.0980  0.7055  0.1607
  779SOL    HW1 2336   3.032   0.207   0.121  2.0344  0.2480 -0.1497
  779SOL    HW2 2337   0.082   0.165   0.072  0.8795  1.1442  1.2058
  780SOL     OW 2338   2.326   0.208   2.528 -0.5644  1.0817 -0.0800
  780SOL    HW1 2339   2.419   0.246   2.528 -1.8011 -0.1094 -1.9721
  780SOL    HW2 2340   2.285   0.231   2.439  0.5323 -0.1270  0.9724
  781SOL     OW 2341   0.215   3.008   1.511  0.6581  0.0469  0.0505
  781SOL    HW1 2342   0.126   2.959   1.488 -1.2817  1.0444  0.8400
  781SOL    HW2 2343   0.226   3.090   1.450  0.0969  2.0619 -1.2848
  782SOL     OW 2344   1.788   2.671   0.434  0.5076 -0.2672  0.0726
  782SOL    HW1 2345   1.693   2.678   0.477  1.9092  2.4867 -1.3288
  782SOL    HW2 2346   1.821   2.574   0.444 -2.1824 -0.0169 -2.4047
  783SOL     OW 2347   0.701   1.376   1.683  0.3498  0.3608 -0.3233
  783SOL    HW1 2348   0.800   1.383   1.668 -3.2408 -0.2139  0.2868
  783SOL    HW2 2349   0.681   1.273   1.691  0.9768 -1.6041  1.0155
  784SOL     OW 2350   1.637   0.620   2.240 -0.3695 -0.6311 -0.2851
  784SOL    HW1 2351   1.546   0.653   2.219  1.8003 -0.0814  0.0367
  784SOL    HW2 2352   1.688   0.609   2.150  0.4572  3.5918 -1.4653
  785SOL     OW 2353   2.815   0.223   0.940  0.2492  0.6753 -0.2292
  785SOL    HW1 2354   2.835   0.260   1.036 -1.7600  1.1572  3.1886
  785SOL    HW2 2355   2.716   0.240   0.912 -2.3435 -0.0526  0.3801
  786SOL     OW 2356   1.745   3.082   1.133 -0.2161 -0.2165  0.1558
  786SOL    HW1 2357   1.836   0.018   1.105 -1.0214  1.9249 -0.3800
  786SOL    HW2 2358   1.708   3.024   1.059 -0.0058  1.6935  2.2996
  787SOL     OW 2359   1.454   3.087   1.203 -0.1772  0.5542  0.3430
  787SOL    HW1 2360   1.425   0.080   1.241  1.6037  1.7874 -0.3655
  787SOL    HW2 2361   1.529   3.096   1.135  1.2464  0.1750  1.4393
  788SOL     OW 2362   0.080   0.736   0.547 -0.0728 -0.1396  0.2276
  788SOL    HW1 2363   0.047   0.789   0.633  0.9616  2.1832 -0.1020
  788SOL    HW2 2364   0.096   0.638   0.574 -1.9304  0.6952  3.6031
  789SOL     OW 2365   0.570   1.201   2.010 -0.4199  0.2876 -0.1398
  789SOL    HW1 2366   0.552   1.153   2.094  0.7921 -0.4466 -4.1452
  789SOL    HW2 2367   0.503   1.276   2.000  0.4705 -0.1406  2.1075
  790SOL     OW 2368   0.344   0.553   2.514  0.3594 -0.4583 -0.1998
  790SOL    HW1 2369   0.415   0.498   2.569  1.9416 -3.4324  0.3663
  790SOL    HW2 2370   0.290   0.610   2.577 -0.2217 -1.6826  0.3398
  791SOL     OW 2371   2.262   0.531   0.304  0.1052 -0.2357 -0.1195
  791SOL    HW1 2372   2.243   0.455   0.368 -1.5738 -2.7247 -0.0740
  791SOL    HW2 2373   2.254   0.624   0.354  1.0657  0.8815  0.1750
  792SOL     OW 2374   1.113   0.385   1.326  0.3586 -0.5588  0.1527
  792SOL    HW1 2375   1.045   0.417   1.259 -1.5259 -1.0616  0.0950
  792SOL    HW2 2376   1.074   0.342   1.410  2.6836 -0.0898 -0.4249
  793SOL     OW 2377   0.350   2.977   1.174  0.8173 -0.3411 -0.2756
  793SOL    HW1 2378   0.426   2.986   1.238 -0.3018 -1.8589  0.8994
  793SOL    HW2 2379   0.265   3.022   1.213  0.2623  3.3160  2.1376
  794SOL     OW 2380   0.241   0.622   2.150 -0.4822  0.6283 -0.6182
  794SOL    HW1 2381   0.269   0.675   2.229  1.0565  2.5871 -1.9174
  794SOL    HW2 2382   0.274   0.524   2.153  0.9711 -0.2726  1.4537
  795SOL     OW 2383   0.428   2.451   2.564  0.6975 -0.6890 -0.3988
  795SOL    HW1 2384   0.482   2.452   2.479 -0.3325 -0.8746 -1.7702
  795SOL    HW2 2385   0.480   2.487   2.647  1.6042  2.8219  1.1348
  796SOL     OW 2386   2.148   0.486   2.688  0.4064  0.1066 -0.0570
  796SOL    HW1 2387   2.111   0.577   2.713  1.5290  2.6602 -2.8790
  796SOL    HW2 2388   2.087   0.411   2.718 -0.7937  0.1270  2.6163
  797SOL     OW 2389   2.752   1.934   2.887 -0.6673 -0.5088 -0.1575
  797SOL    HW1 2390   2.804   2.008   2.939  1.8514  0.7021  1.1134
  797SOL    HW2 2391   2.655   1.939   2.916  2.0009 -0.5629 -1.6110
  798SOL     OW 2392   0.223   0.536   1.595  0.1715  0.3461  0.4274
  798SOL    HW1 2393   0.245   0.474   1.668  0.8399  1.9493 -0.0193
  798SOL    HW2 2394   0.183   0.622   1.632  0.3679 -1.2562  0.9525
  799SOL     OW 2395   0.796   0.361   1.704 -0.8028 -0.0614  0.1876
  799SOL    HW1 2396   0.872   0.357   1.774  0.6653 -0.0905 -2.2471
  799SOL    HW2 2397   0.719   0.424   1.737 -0.0518 -0.3036  2.1670
  800SOL     OW 2398   3.073   2.570   0.246 -0.2172  0.1103 -0.4045
  800SOL    HW1 2399   3.091   2.585   0.149 -2.5411  1.9239  3.4016
  800SOL    HW2 2400   3.084   2.476   0.275 -1.5890  4.1205 -0.9797
  801SOL     OW 2401   1.834   1.674   1.116  0.2414 -0.0264 -0.3700
  801SOL    HW1 2402   1.742   1.637   1.093 -1.1715 -1.5711  3.7067
  801SOL    HW2 2403   1.832   1.766   1.163 -2.2615  0.7451  2.8516
  802SOL     OW 2404   0.455   0.531   0.327  0.3522 -0.2039 -0.0317
  802SOL    HW1 2405   0.432   0.557   0.426  0.3520 -0.5663  1.7820
  802SOL    HW2 2406   0.533   0.588   0.291  0.2844 -0.0595 -2.8763
  803SOL     OW 2407   1.175   1.216   2.285 -0.0597 -0.4641 -0.3035
  803SOL    HW1 2408   1.144   1.137   2.338  0.5096  0.9343  1.8291
  803SOL    HW2 2409   1.126   1.302   2.314 -2.2116 -0.9158 -1.6720
  804SOL     OW 2410   2.115   2.129   1.076  0.7894 -0.0746 -0.4468
  804SOL    HW1 2411   2.136   2.118   1.175  0.7938  2.0540  0.6646
  804SOL    HW2 2412   2.149   2.043   1.031 -0.2751 -1.2571  0.4485
  805SOL     OW 2413   0.448   1.870   2.780  0.3470 -0.1937 -0.5098
  805SOL    HW1 2414   0.402   1.955   2.812 -0.5273  0.1251 -1.6738
  805SOL    HW2 2415   0.413   1.847   2.687  1.0422 -1.2114  0.8065
  806SOL     OW 2416   0.700   2.549   0.441  0.2985  0.5146 -0.5965
  806SOL    HW1 2417   0.661   2.638   0.471  0.2943  0.2284  1.0808
  806SOL    HW2 2418   0.803   2.560   0.437 -3.6057 -2.1097  0.1144
  807SOL     OW 2419   2.470   1.152   2.784  1.0159  0.6762  0.0438
  807SOL    HW1 2420   2.543   1.157   2.854  2.0756  1.2129 -1.8757
  807SOL    HW2 2421   2.380   1.186   2.820 -1.0862  1.0269 -0.4116
  808SOL     OW 2422   1.527   2.097   1.084  0.1907  0.3973 -0.3233
  808SOL    HW1 2423   1.466   2.179   1.095 -1.2175  2.4038  1.5320
  808SOL    HW2 2424   1.598   2.101   1.158 -0.5836 -0.5030  0.5773
  809SOL     OW 2425   0.192   0.475   0.632 -0.2296  0.1365  0.2353
  809SOL    HW1 2426   0.281   0.517   0.615  2.4217 -2.2538  0.6653
  809SOL    HW2 2427   0.188   0.371   0.630  0.2792 -1.6948 -1.4477
  810SOL     OW 2428   1.344   1.540   0.101 -0.2109  0.4972 -0.3852
  810SOL    HW1 2429   1.353   1.604   0.027  1.2580  0.1964  3.0154
  810SOL    HW2 2430   1.411   1.571   0.177  0.9381  1.6041  1.0121
  811SOL     OW 2431   1.592   2.962   1.395  0.3176 -0.4338 -0.8706
  811SOL    HW1 2432   1.673   2.909   1.368 -2.7680  0.3804 -1.3075
  811SOL    HW2 2433   1.545   3.013   1.323  1.0149 -2.6369  0.9776
  812SOL     OW 2434   1.618   2.967   0.910 -0.5634  0.3513 -0.1228
  812SOL    HW1 2435   1.596   2.991   0.810  0.8177  2.1578 -4.4504
  812SOL    HW2 2436   1.583   2.874   0.939  0.1466 -1.9432  1.8875
  813SOL     OW 2437   1.251   2.959   1.794  0.3908 -0.0664 -0.2918
  813SOL    HW1 2438   1.234   3.061   1.808 -0.3487 -0.1886  0.9330
  813SOL    HW2 2439   1.280   2.944   1.700 -0.4421 -0.8326  2.2790
  814SOL     OW 2440   0.989   2.531   1.997 -0.5679  1.0019  0.3615
  814SOL    HW1 2441   0.995   2.615   1.935  0.0020  3.2397 -0.5066
  814SOL    HW2 2442   1.078   2.511   2.045  0.4864  1.0642 -1.3729
  815SOL     OW 2443   0.518   0.050   2.833 -0.2616 -0.3864  0.1328
  815SOL    HW1 2444   0.512   3.057   2.787  0.1402 -0.5867  1.4270
  815SOL    HW2 2445   0.613   0.092   2.820  3.0571 -0.3041  0.7823
  816SOL     OW 2446   2.529   1.037   0.057  0.1481  0.4400  0.2059
  816SOL    HW1 2447   2.568   1.076   3.072 -1.1106  0.5010  1.2466
  816SOL    HW2 2448   2.546   0.936   0.062 -1.1592 -0.7830 -0.2769
  817SOL     OW 2449   2.772   2.257   2.356  0.6079 -0.4096 -0.3345
  817SOL    HW1 2450   2.809   2.315   2.431  1.6253  0.8668  0.6904
  817SOL    HW2 2451   2.795   2.295   2.265 -0.5284 -0.9884  2.1763
  818SOL     OW 2452   0.866   1.475   0.325 -0.0666  0.2666 -0.1468
  818SOL    HW1 2453   0.802   1.447   0.404 -0.5436  0.1708  2.2635
  818SOL    HW2 2454   0.880   1.394   0.261  1.5290 -4.1234 -0.8575
  819SOL     OW 2455   1.774   1.264   2.808 -0.4943 -0.6569 -0.8703
  819SOL    HW1 2456   1.808   1.264   2.715 -0.3610  0.6602  2.3431
  819SOL    HW2 2457   1.712   1.186   2.821 -1.2439 -1.9910 -0.6790
  820SOL     OW 2458   0.553   1.259   0.359  0.0311 -0.2946  0.2438
  820SOL    HW1 2459   0.591   1.326   0.423  1.4955  0.6888  0.9639
  820SOL    HW2 2460   0.582   1.271   0.262 -1.4884 -0.3201 -0.1294
  821SOL     OW 2461   0.540   2.866   0.948 -0.0398 -0.7382  0.1855
  821SOL    HW1 2462   0.604   2.810   0.891 -0.3852 -0.0613 -0.2350
  821SOL    HW2 2463   0.458   2.812   0.971  1.6080 -1.8867 -2.0189
  822SOL     OW 2464   2.063   2.249   2.938  0.5588 -0.4430 -0.4330
  822SOL    HW1 2465   2.114   2.267   3.031  3.2778 -0.3073  1.5808
  822SOL    HW2 2466   1.968   2.284   2.936  1.7857 -2.4110  0.3176
  823SOL     OW 2467   1.057   0.609   2.484 -0.5437 -0.5424 -0.5920
  823SOL    HW1 2468   1.159   0.628   2.478 -2.8756  1.7690  1.0845
  823SOL    HW2 2469   1.033   0.572   2.573  3.9915 -2.0839 -1.2050
  824SOL     OW 2470   2.384   2.788   1.588 -0.1794  0.0883 -0.1204
  824SOL    HW1 2471   2.473   2.814   1.629 -1.0587 -3.4610 -0.6129
  824SOL    HW2 2472   2.392   2.755   1.494  1.5757 -0.3571  1.4022
  825SOL     OW 2473   0.334   1.902   2.510 -0.5027 -0.0490 -0.2976
  825SOL    HW1 2474   0.408   1.952   2.456 -0.0903  1.2590  0.3293
  825SOL    HW2 2475   0.244   1.918   2.472 -1.4808 -1.2973 -3.1123
  826SOL     OW 2476   1.883   0.335   0.213 -0.2626 -0.2237  0.4003
  826SOL    HW1 2477   1.796   0.382   0.243 -0.4641  0.8369 -0.5727
  826SOL    HW2 2478   1.861   0.276   0.138  2.3073  0.6190  1.0862
  827SOL     OW 2479   2.999   1.676   1.998 -0.3010  0.0656  0.8012
  827SOL    HW1 2480   2.995   1.579   1.974 -0.8636  1.9134  0.3390
  827SOL    HW2 2481   3.027   1.728   1.917  0.1409 -1.0322  2.5196
  828SOL     OW 2482   0.294   0.129   1.359  0.0911  0.8928 -0.2754
  828SOL    HW1 2483   0.249   0.216   1.377 -0.7909  0.0496 -1.5794
  828SOL    HW2 2484   0.385   0.150   1.322 -0.4911 -1.7836  0.6915
  829SOL     OW 2485   1.038   1.926   2.433 -0.3655 -0.3799 -0.3523
  829SOL    HW1 2486   1.066   2.024   2.432 -1.9606  1.2728  1.9480
  829SOL    HW2 2487   0.982   1.909   2.516 -2.1713  0.9153  2.5990
  830SOL     OW 2488   0.783   0.864   1.410  0.4262 -0.1107  0.1797
  830SOL    HW1 2489   0.780   0.845   1.315  0.2074 -2.8406  2.3609
  830SOL    HW2 2490   0.699   0.831   1.455  1.6211 -1.8694 -1.3705
  831SOL     OW 2491   2.724   1.516   2.869  0.1445  0.5081  0.8744
  831SOL    HW1 2492   2.724   1.553   2.772 -1.6808  0.7249  0.4046
  831SOL    HW2 2493   2.777   1.431   2.873 -3.4211  1.9778 -1.2606
  832SOL     OW 2494   1.216   2.316   2.979 -0.0593 -0.0798  0.1463
  832SOL    HW1 2495   1.112   2.322   2.984 -3.1720  2.4190  0.2462
  832SOL    HW2 2496   1.245   2.262   2.900 -2.7831 -0.2683 -0.1552
  833SOL     OW 2497   0.290   0.393   1.810  0.0238  0.1334 -0.5321
  833SOL    HW1 2498   0.327   0.482   1.845  0.5622  2.1045 -0.0906
  833SOL    HW2 2499   0.268   0.328   1.882  2.0404  0.3875 -3.4515
  834SOL     OW 2500   0.158   0.803   1.286  0.2569 -0.2267 -0.0687
  834SOL    HW1 2501   0.230   0.857   1.335  0.4304  0.3694 -0.4478
  834SOL    HW2 2502   0.118   0.858   1.213  1.2042  1.4688  2.0989
  835SOL     OW 2503   2.618   0.573   0.510  0.0678  0.1127 -0.3242
  835SOL    HW1 2504   2.587   0.546   0.417  0.3635 -1.4979  0.0242
  835SOL    HW2 2505   2.566   0.520   0.579  1.1097 -0.4374  0.7957
  836SOL     OW 2506   0.875   2.360   0.135 -0.7977 -1.0925 -0.3992
  836SOL    HW1 2507   0.926   2.426   0.197 -0.1720  0.0445 -1.6438
  836SOL    HW2 2508   0.875   2.266   0.185  1.1141 -3.8963  1.3368
  837SOL     OW 2509   1.614   2.089   0.534 -0.3774 -0.1133 -0.1107
  837SOL    HW1 2510   1.623   2.003   0.485 -0.0330  1.2363 -0.7730
  837SOL    HW2 2511   1.631   2.079   0.634  1.3022  1.8720 -1.0972
  838SOL     OW 2512   1.841   0.828   2.232  0.4246  0.0598 -0.0147
  838SOL    HW1 2513   1.777   0.744   2.236  0.8056 -2.5398 -1.8204
  838SOL    HW2 2514   1.896   0.834   2.316 -0.5473 -0.5680 -0.7995
  839SOL     OW 2515   1.137   1.110   2.761  0.1222  0.6259  0.2352
  839SOL    HW1 2516   1.078   1.137   2.841 -1.3493  3.2465 -1.3764
  839SOL    HW2 2517   1.234   1.122   2.783 -2.0001 -1.5336 -2.5233
  840SOL     OW 2518   0.859   1.273   0.156  0.4575  0.3834 -1.1261
  840SOL    HW1 2519   0.872   1.181   0.208 -1.1794 -1.2197  0.4761
  840SOL    HW2 2520   0.785   1.264   0.088  1.9429  1.4841 -0.9215
  841SOL     OW 2521   1.387   2.214   0.079 -0.0697 -0.4177 -0.5340
  841SOL    HW1 2522   1.422   2.292   0.138  1.2826  1.9812  1.2924
  841SOL    HW2 2523   1.305   2.245   0.024 -0.2161 -0.1374 -0.2861
  842SOL     OW 2524   0.060   0.464   0.394 -0.0273 -0.4721  0.7115
  842SOL    HW1 2525   0.115   0.476   0.481  0.1898  3.0889 -2.4463
  842SOL    HW2 2526   0.131   0.462   0.319  1.2780 -0.3739 -0.2044
  843SOL     OW 2527   0.775   0.675   0.889  0.0557  0.1720  0.6923
  843SOL    HW1 2528   0.733   0.765   0.856 -0.3303 -0.0416 -1.0683
  843SOL    HW2 2529   0.749   0.656   0.982 -1.3345  1.3927 -0.5779
  844SOL     OW 2530   2.312   2.608   2.319 -0.3128  0.5445 -0.0482
  844SOL    HW1 2531   2.366   2.688   2.354  0.0557 -1.1154 -0.1444
  844SOL    HW2 2532   2.210   2.615   2.325 -0.3122  1.0967  0.0575
  845SOL     OW 2533   3.065   2.554   1.833  0.4850  0.2467 -0.1268
  845SOL    HW1 2534   0.007   2.645   1.799  0.2162  1.6171  4.9223
  845SOL    HW2 2535   2.971   2.541   1.797 -0.7991 -2.7307 -1.7205
  846SOL     OW 2536   2.013   1.277   2.505  0.4434 -0.2808 -0.0321
  846SOL    HW1 2537   1.968   1.184   2.510  0.1358 -2.3203  0.6372
  846SOL    HW2 2538   1.969   1.330   2.431 -0.4856 -1.2746  0.3193
  847SOL     OW 2539   2.695   0.501   1.761 -0.4920 -0.5935  0.1789
  847SOL    HW1 2540   2.734   0.599   1.770 -0.3508  1.3519 -0.4498
  847SOL    HW2 2541   2.765   0.432   1.733 -1.5488 -0.2900  0.0330
  848SOL     OW 2542   2.703   2.759   2.933 -0.1545  0.0675  0.1834
  848SOL    HW1 2543   2.793   2.808   2.931  3.9197  3.1247  0.2411
  848SOL    HW2 2544   2.717   2.656   2.925 -0.6769 -0.0616  1.4923
  849SOL     OW 2545   0.423   3.020   0.664 -0.5102  0.3086 -0.2537
  849SOL    HW1 2546   0.474   2.931   0.666  1.6018  2.4224 -1.4605
  849SOL    HW2 2547   0.328   3.002   0.633 -2.0798 -2.8993  0.9402
  850SOL     OW 2548   0.998   2.632   0.513 -0.1031 -0.3338 -0.1812
  850SOL    HW1 2549   0.996   2.732   0.494  1.6351  2.2175  1.0205
  850SOL    HW2 2550   1.039   2.586   0.431  0.0475  3.2784 -0.6677
  851SOL     OW 2551   1.780   0.487   2.843 -0.5106  0.0784 -0.2297
  851SOL    HW1 2552   1.771   0.546   2.762  2.7863  2.1410 -0.4109
  851SOL    HW2 2553   1.858   0.426   2.833 -0.0321 -1.8620 -0.2930
  852SOL     OW 2554   1.631   2.626   2.571  0.8762 -0.0922  0.1154
  852SOL    HW1 2555   1.703   2.555   2.578  0.1939 -3.1355 -1.6377
  852SOL    HW2 2556   1.674   2.713   2.547  1.8523 -3.0352  2.3911
  853SOL     OW 2557   3.060   2.558   3.062 -0.4119  0.0898  0.2104
  853SOL    HW1 2558   0.037   2.524   3.005 -0.6026 -1.6729 -0.1788
  853SOL    HW2 2559   3.045   2.660   3.047 -0.9420  1.6563  0.7626
  854SOL     OW 2560   1.316   0.673   2.509  0.1422 -0.2914  0.3660
  854SOL    HW1 2561   1.397   0.619   2.486 -0.0538  0.5595  0.5815
  854SOL    HW2 2562   1.325   0.770   2.473  0.2697 -1.7271 -2.9893
  855SOL     OW 2563   0.223   2.504   0.455 -0.4772  0.2906 -0.4015
  855SOL    HW1 2564   0.240   2.506   0.357 -2.1923  1.6936  0.6759
  855SOL    HW2 2565   0.139   2.552   0.467  3.9611  0.5164  0.8031
  856SOL     OW 2566   0.202   2.768   2.497  0.5294  0.3637  0.3387
  856SOL    HW1 2567   0.197   2.745   2.396  1.1751  1.8920  0.9603
  856SOL    HW2 2568   0.225   2.689   2.556 -1.2894  2.0483  1.4209
  857SOL     OW 2569   1.367   3.014   1.557 -0.5552 -0.3695  0.5544
  857SOL    HW1 2570   1.276   3.041   1.519 -0.3245  0.2585 -0.2406
  857SOL    HW2 2571   1.445   3.021   1.492 -0.1002  2.3436 -1.6201
  858SOL     OW 2572   0.176   1.964   1.548  0.2812  0.0346 -0.5427
  858SOL    HW1 2573   0.098   2.030   1.567 -0.9521  0.6694  0.8379
  858SOL    HW2 2574   0.257   2.016   1.569 -3.3902 -1.0841 -0.0638
  859SOL     OW 2575   2.110   2.599   1.848 -0.3277  0.6822  0.3462
  859SOL    HW1 2576   2.175   2.674   1.844  0.2231 -0.9207  0.3368
  859SOL    HW2 2577   2.056   2.587   1.761  1.0230  1.5012  0.5212
  860SOL     OW 2578   1.664   0.139   0.703 -0.3782  0.2055 -0.5203
  860SOL    HW1 2579   1.643   0.181   0.794 -0.6955  2.2540 -1.3713
  860SOL    HW2 2580   1.666   0.038   0.700  2.6153  1.6719  1.1522
  861SOL     OW 2581   2.800   0.566   0.858 -0.2881 -0.0072 -0.2148
  861SOL    HW1 2582   2.801   0.572   0.757 -1.6218  0.3407 -1.2866
  861SOL    HW2 2583   2.742   0.635   0.907 -1.4947 -1.2136  2.4361
  862SOL     OW 2584   1.750   0.606   2.007 -0.1220  0.1715  1.0524
  862SOL    HW1 2585   1.821   0.557   1.954 -1.3036  2.8888 -0.0135
  862SOL    HW2 2586   1.761   0.707   1.979 -0.2771  1.9168 -0.7857
  863SOL     OW 2587   1.011   0.654   1.079 -0.0273  0.2033 -0.0171
  863SOL    HW1 2588   1.005   0.646   0.975 -2.0386  0.5632 -2.9638
  863SOL    HW2 2589   0.967   0.576   1.127  2.5681  1.3245  2.4037
  864SOL     OW 2590   2.992   2.910   2.097  0.0419  0.2765 -0.0047
  864SOL    HW1 2591   2.927   2.864   2.032 -1.7133  0.7811  0.9230
  864SOL    HW2 2592   2.938   2.923   2.182  1.7339  1.6009 -3.6233
  865SOL     OW 2593   0.937   0.848   2.440  0.2620 -0.4765 -0.0597
  865SOL    HW1 2594   0.984   0.760   2.449 -0.6616  1.5653 -0.6789
  865SOL    HW2 2595   0.856   0.859   2.502  1.5805  0.3315 -1.5035
  866SOL     OW 2596   2.765   2.814   0.409 -0.1035  0.1772 -0.1518
  866SOL    HW1 2597   2.846   2.850   0.363 -3.1150 -0.9934 -1.8487
  866SOL    HW2 2598   2.789   2.767   0.496 -0.8211 -2.0979  1.9019
  867SOL     OW 2599   2.967   2.819   0.183 -0.2064 -0.3746 -0.2163
  867SOL    HW1 2600   2.992   2.732   0.218 -1.2281  1.9870  0.7622
  867SOL    HW2 2601   2.937   2.806   0.083  1.4322  1.7930  0.0477
  868SOL     OW 2602   1.893   1.098   0.177 -0.2125 -0.1913 -0.1482
  868SOL    HW1 2603   1.893   1.171   0.102  0.7683  0.4398 -1.5259
  868SOL    HW2 2604   1.925   1.138   0.265  0.0007 -0.7201  0.0087
  869SOL     OW 2605   3.024   2.008   0.676 -0.3632  0.2426  0.2627
  869SOL    HW1 2606   2.927   2.001   0.654 -1.0957  4.4376 -0.9166
  869SOL    HW2 2607   3.049   2.102   0.652 -0.9326  0.3685 -0.4356
  870SOL     OW 2608   2.074   2.034   0.371 -0.6601 -0.4123 -0.0292
  870SOL    HW1 2609   2.098   2.000   0.466 -0.4064 -1.1850 -0.2637
  870SOL    HW2 2610   2.109   1.973   0.294  0.0851 -2.8245 -1.8716
  871SOL     OW 2611   0.555   1.153   0.957 -0.1624  0.5210  0.1244
  871SOL    HW1 2612   0.463   1.160   0.999  3.2466 -0.1792  2.1367
  871SOL    HW2 2613   0.620   1.175   1.030 -0.5357  0.8607 -2.8031
  872SOL     OW 2614   1.094   1.857   1.963  0.2338  0.0029 -0.3787
  872SOL    HW1 2615   1.118   1.961   1.960 -0.3989  3.1701 -2.9189
  872SOL    HW2 2616   1.050   1.833   2.055 -3.7460  1.5405 -0.1209
  873SOL     OW 2617   0.548   2.500   1.973  0.0588  0.3898  0.4280
  873SOL    HW1 2618   0.583   2.480   2.068 -1.6385  1.3701 -2.2031
  873SOL    HW2 2619   0.447   2.518   1.964 -2.9697 -0.3287  0.4952
  874SOL     OW 2620   0.782   2.971   1.178 -0.3511  0.0460  0.0792
  874SOL    HW1 2621   0.762   2.939   1.272 -2.2627  1.1872 -0.6137
  874SOL    HW2 2622   0.689   2.977   1.131 -2.1383 -0.6199  1.8217
  875SOL     OW 2623   2.931   0.281   1.201 -0.0386  0.4451 -0.1014
  875SOL    HW1 2624   2.974   0.352   1.140  0.2319 -0.7230 -3.3615
  875SOL    HW2 2625   2.983   0.254   1.284 -0.3090 -1.0234  1.7964
  876SOL     OW 2626   0.608   0.735   0.207  0.1400 -0.5130 -0.3407
  876SOL    HW1 2627   0.580   0.810   0.273  0.6169  0.0787  2.2564
  876SOL    HW2 2628   0.592   0.761   0.110  1.0672  0.1828 -3.0897
  877SOL     OW 2629   0.578   0.426   1.472  0.1653 -0.1022  0.1396
  877SOL    HW1 2630   0.666   0.467   1.454  0.0055 -1.3900  2.3376
  877SOL    HW2 2631   0.499   0.486   1.451  3.7129  0.8159 -0.1799
  878SOL     OW 2632   2.382   2.825   0.182  0.0764  0.2119  0.4248
  878SOL    HW1 2633   2.336   2.753   0.125 -0.7211 -1.5607 -1.1701
  878SOL    HW2 2634   2.313   2.896   0.209  0.7843  1.2737  3.0675
  879SOL     OW 2635   2.573   1.449   1.426  0.3681 -0.1934 -0.0266
  879SOL    HW1 2636   2.522   1.442   1.340  2.3840  1.4206  3.9344
  879SOL    HW2 2637   2.565   1.551   1.453  1.3185  3.0526  1.7906
  880SOL     OW 2638   1.460   2.459   0.615 -0.1854  0.1510 -0.3491
  880SOL    HW1 2639   1.542   2.417   0.572  0.0636  0.9009  2.4473
  880SOL    HW2 2640   1.383   2.386   0.613  0.5729 -1.4486  2.2110
  881SOL     OW 2641   1.064   2.460   0.302  0.3439  0.1239  0.1824
  881SOL    HW1 2642   1.121   2.502   0.227  2.5530  1.2069 -1.1784
  881SOL    HW2 2643   1.097   2.370   0.324  0.7947  0.9445 -1.4031
  882SOL     OW 2644   1.788   0.742   1.134  0.0047  0.1288 -0.9289
  882SOL    HW1 2645   1.798   0.654   1.178  0.4105  1.7980  0.1197
  882SOL    HW2 2646   1.698   0.782   1.158  2.7887 -0.4386 -2.5725
  883SOL     OW 2647   1.564   0.759   1.581 -0.0195  0.5782 -0.3148
  883SOL    HW1 2648   1.662   0.738   1.586 -1.4651  1.2472 -0.3355
  883SOL    HW2 2649   1.536   0.718   1.493 -0.0502  0.7819  1.7155
  884SOL     OW 2650   2.766   0.446   0.205 -0.2597  0.6119  0.1403
  884SOL    HW1 2651   2.679   0.499   0.198 -0.1247 -0.4916 -1.4153
  884SOL    HW2 2652   2.837   0.506   0.248 -2.0337 -1.5130  0.8346
  885SOL     OW 2653   1.300   1.801   3.060  0.6137 -0.2944  0.3435
  885SOL    HW1 2654   1.210   1.772   3.085 -1.6976  0.8190 -0.4741
  885SOL    HW2 2655   1.298   1.820   2.959 -1.2955 -1.6927  0.8551
  886SOL     OW 2656   1.699   1.523   2.801 -0.6339 -0.2166  0.2988
  886SOL    HW1 2657   1.739   1.562   2.888  1.4985 -0.6628 -0.6428
  886SOL    HW2 2658   1.720   1.424   2.793 -0.8859  3.1321  0.6841
  887SOL     OW 2659   1.518   0.361   1.493  0.4429  0.0469  0.1021
  887SOL    HW1 2660   1.466   0.407   1.567  0.1614 -2.7213  1.7791
  887SOL    HW2 2661   1.579   0.293   1.533 -2.3092 -0.0934 -1.7334
  888SOL     OW 2662   2.419   0.503   1.745 -0.0507  0.0656  0.4237
  888SOL    HW1 2663   2.519   0.519   1.737  0.1697 -1.5741  1.6257
  888SOL    HW2 2664   2.360   0.586   1.764  2.7560 -2.3050 -3.0111
  889SOL     OW 2665   0.055   2.685   0.769 -0.1461 -0.8855 -0.2844
  889SOL    HW1 2666   0.061   2.608   0.837 -1.2396  0.1396 -2.5013
  889SOL    HW2 2667   0.065   2.656   0.673 -1.0003 -1.1751  1.6051
  890SOL     OW 2668   2.192   2.552   0.249 -0.6846  0.1941 -0.4182
  890SOL    HW1 2669   2.249   2.578   0.170 -2.1282 -0.6024 -0.5672
  890SOL    HW2 2670   2.160   2.454   0.246 -0.6357 -1.3440  0.7155
  891SOL     OW 2671   0.558   1.275   2.712 -0.2038  0.0817  0.2876
  891SOL    HW1 2672   0.645   1.234   2.678 -0.3393  0.9139 -1.7280
  891SOL    HW2 2673   0.512   1.339   2.641 -0.2877  2.0493 -2.0284
  892SOL     OW 2674   0.089   3.083   1.230  0.5332  0.0486 -0.1636
  892SOL    HW1 2675   0.144   0.057   1.267 -0.0129 -2.3120 -0.6881
  892SOL    HW2 2676   3.092   0.014   1.212  1.2419 -0.6486 -2.5054
  893SOL     OW 2677   1.367   0.283   1.290  0.2995 -0.3232 -0.1551
  893SOL    HW1 2678   1.432   0.309   1.362  1.4441 -1.6150  0.2715
  893SOL    HW2 2679   1.280   0.342   1.286 -3.1325  1.6863  0.1833
  894SOL     OW 2680   2.476   0.833   0.701  0.1080  0.0660 -0.3659
  894SOL    HW1 2681   2.447   0.905   0.769 -2.3116 -2.5948 -3.6465
  894SOL    HW2 2682   2.558   0.860   0.650 -0.9992  2.9165 -0.6097
  895SOL     OW 2683   1.824   1.817   2.415  0.0110  0.7726  0.1004
  895SOL    HW1 2684   1.878   1.895   2.453 -1.1204 -2.2181  1.3151
  895SOL    HW2 2685   1.886   1.751   2.371 -2.4107 -2.6419  1.6699
  896SOL     OW 2686   1.509   0.095   1.902  0.0250  0.3509 -0.4198
  896SOL    HW1 2687   1.434   0.164   1.884 -2.9892 -0.7776  0.9075
  896SOL    HW2 2688   1.586   0.109   1.840 -0.7600  2.3768  1.4027
  897SOL     OW 2689   0.588   1.672   1.955  0.5973 -0.2987 -0.5854
  897SOL    HW1 2690   0.667   1.636   1.903 -0.6773 -1.8991  2.3797
  897SOL    HW2 2691   0.572   1.771   1.933 -0.4558  0.1399 -0.3374
  898SOL     OW 2692   2.614   2.533   2.139  0.1370  0.1457  0.1603
  898SOL    HW1 2693   2.514   2.506   2.134  0.5229 -0.3566 -0.6760
  898SOL    HW2 2694   2.668   2.447   2.115 -0.7316  0.6050  0.0677
  899SOL     OW 2695   1.205   1.002   1.328 -0.0638 -0.5166 -0.0383
  899SOL    HW1 2696   1.131   1.034   1.265  2.3204  0.3041 -1.7889
  899SOL    HW2 2697   1.265   1.080   1.354 -0.7112 -1.2306 -0.8951
  900SOL     OW 2698   1.510   2.329   2.743 -0.8224  0.6557  0.0286
  900SOL    HW1 2699   1.437   2.260   2.772 -1.0738  0.3963 -1.9177
  900SOL    HW2 2700   1.596   2.283   2.721 -0.3489  0.0150 -0.4701
  901SOL     OW 2701   0.573   2.171   2.765 -0.2475  0.4919 -0.2789
  901SOL    HW1 2702   0.502   2.116   2.811 -0.3960 -0.4348 -0.0102
  901SOL    HW2 2703   0.569   2.158   2.662 -0.8552 -1.4672 -1.7385
  902SOL     OW 2704   2.162   1.523   0.316 -0.1060 -0.7425  0.0408
  902SOL    HW1 2705   2.217   1.453   0.262 -3.0795  3.1996  0.5885
  902SOL    HW2 2706   2.199   1.614   0.289 -2.2722 -1.3442 -2.0588
  903SOL     OW 2707   2.240   1.249   0.215 -0.6306 -0.4515  0.0198
  903SOL    HW1 2708   2.337   1.275   0.200 -3.5557 -1.2194  1.4182
  903SOL    HW2 2709   2.224   1.166   0.157 -0.0253  1.0083 -0.9058
  904SOL     OW 2710   0.684   0.949   2.525 -0.0330 -0.1571  0.3351
  904SOL    HW1 2711   0.584   0.963   2.528  2.1460 -1.9445 -0.4850
  904SOL    HW2 2712   0.731   1.034   2.552  0.0033 -0.6450  1.0561
  905SOL     OW 2713   2.478   0.491   0.971 -0.0450 -0.3111 -0.5506
  905SOL    HW1 2714   2.526   0.410   0.928 -1.4415 -0.2661 -1.0210
  905SOL    HW2 2715   2.483   0.482   1.074 -0.3631  0.8936  0.1253
  906SOL     OW 2716   2.548   2.137   0.933  0.2764 -0.3353  0.4040
  906SOL    HW1 2717   2.558   2.157   0.835  0.6393 -0.7543 -1.8725
  906SOL    HW2 2718   2.641   2.160   0.978  0.0522  3.5079  2.4676
  907SOL     OW 2719   1.438   0.522   0.660 -0.8407 -0.2471 -0.4712
  907SOL    HW1 2720   1.519   0.519   0.597  0.8613 -1.0595  0.1292
  907SOL    HW2 2721   1.360   0.566   0.610 -2.0405  0.1524 -0.7003
  908SOL     OW 2722   2.161   2.963   1.452 -0.0927 -0.7457  0.1803
  908SOL    HW1 2723   2.134   3.043   1.399 -2.7906 -1.2118  2.3845
  908SOL    HW2 2724   2.139   2.976   1.549 -0.6005 -0.1581  2.8067
  909SOL     OW 2725   2.567   0.800   1.600  0.5775  0.2271 -0.7477
  909SOL    HW1 2726   2.601   0.726   1.538 -1.1228  1.6008 -0.3196
  909SOL    HW2 2727   2.634   0.875   1.614 -1.3313  0.7758 -0.3734
  910SOL     OW 2728   1.331   2.765   2.266  0.3531 -0.5363 -0.1939
  910SOL    HW1 2729   1.272   2.834   2.219 -2.6565  1.0902 -2.3250
  910SOL    HW2 2730   1.430   2.789   2.261  3.3669  1.5722  0.4273
  911SOL     OW 2731   1.965   0.475   1.881 -0.2160 -0.0409 -0.0768
  911SOL    HW1 2732   2.002   0.382   1.870 -1.5537 -0.8724 -2.3903
  911SOL    HW2 2733   2.032   0.538   1.924  1.3114 -1.6046 -2.5633
  912SOL     OW 2734   2.583   1.908   1.569  0.0722 -0.1854  0.5011
  912SOL    HW1 2735   2.607   1.979   1.500  0.7236  0.7010 -0.5886
  912SOL    HW2 2736   2.545   1.946   1.653  3.2377 -1.4787 -1.2556
  913SOL     OW 2737   2.698   2.080   1.382  0.1977 -0.2328 -0.7407
  913SOL    HW1 2738   2.675   2.169   1.425  1.0972 -0.7803 -3.1956
  913SOL    HW2 2739   2.799   2.072   1.367  2.3881 -0.2109 -2.6646
  914SOL     OW 2740   2.163   1.364   1.490 -0.1639  0.2041 -0.0910
  914SOL    HW1 2741   2.246   1.340   1.546  1.6157  2.4458  0.8200
  914SOL    HW2 2742   2.190   1.425   1.416 -0.6890  0.5533 -0.5458
  915SOL     OW 2743   0.753   1.246   1.132  0.2577 -0.3606 -0.0345
  915SOL    HW1 2744   0.793   1.236   1.224 -0.4465  0.2603 -0.7267
  915SOL    HW2 2745   0.836   1.254   1.075 -1.7900 -0.9081  1.2188
  916SOL     OW 2746   2.434   2.429   1.201 -0.1555 -0.1532 -0.2876
  916SOL    HW1 2747   2.430   2.333   1.220 -0.2281  3.0280 -0.2799
  916SOL    HW2 2748   2.455   2.477   1.291  2.0408 -0.1953  0.4079
  917SOL     OW 2749   2.449   1.836   0.107  0.2199 -0.1782 -0.4451
  917SOL    HW1 2750   2.474   1.857   0.205 -0.7925  0.5425 -2.4098
  917SOL    HW2 2751   2.485   1.749   0.072  0.1725  1.0609  0.9412
  918SOL     OW 2752   1.809   2.424   2.617 -0.0811  0.2924 -0.0398
  918SOL    HW1 2753   1.766   2.333   2.604  1.1918  2.7101  0.4575
  918SOL    HW2 2754   1.898   2.412   2.666  4.0048 -0.5756  1.8665
  919SOL     OW 2755   1.310   2.126   1.724  0.0568  0.1687 -0.0005
  919SOL    HW1 2756   1.391   2.075   1.752 -1.6867 -0.3086  0.9179
  919SOL    HW2 2757   1.336   2.205   1.662  2.0900 -0.4964 -0.1144
  920SOL     OW 2758   2.867   0.287   2.623  0.3864  0.1392 -0.1614
  920SOL    HW1 2759   2.951   0.314   2.675  3.4958 -2.5791 -0.1848
  920SOL    HW2 2760   2.821   0.364   2.581  0.6190  1.0077 -0.1152
  921SOL     OW 2761   2.737   0.365   2.008  0.2214  0.1171 -0.4041
  921SOL    HW1 2762   2.730   0.267   1.980  1.4883  0.9628 -1.7949
  921SOL    HW2 2763   2.705   0.422   1.927 -0.4385  1.9779 -0.4462
  922SOL     OW 2764   2.103   2.284   0.260 -0.1191 -0.7920  0.4292
  922SOL    HW1 2765   2.157   2.265   0.173 -2.5892  2.3313  1.2360
  922SOL    HW2 2766   2.078   2.195   0.306 -0.9983 -1.0123 -0.7148
  923SOL     OW 2767   0.284   2.108   0.318  0.1917 -0.3818  0.1996
  923SOL    HW1 2768   0.274   2.093   0.218  1.0357  0.2466  0.3315
  923SOL    HW2 2769   0.221   2.185   0.350 -1.2237  1.6525  3.3304
  924SOL     OW 2770   0.798   0.545   2.988  0.5553  0.2266 -0.3285
  924SOL    HW1 2771   0.853   0.538   3.077  0.2334  0.0352 -0.3395
  924SOL    HW2 2772   0.789   0.639   2.951  2.0893  0.3096 -0.7074
  925SOL     OW 2773   2.363   1.048   0.803 -0.0018  0.7270 -0.5192
  925SOL    HW1 2774   2.419   1.088   0.728  0.3247  0.0119 -1.0059
  925SOL    HW2 2775   2.308   1.122   0.843 -1.3506 -0.0851 -0.6497
  926SOL     OW 2776   2.948   0.895   1.041  0.1534 -0.0345  0.3325
  926SOL    HW1 2777   2.898   0.857   1.120 -1.8023 -1.5367  2.3417
  926SOL    HW2 2778   3.032   0.953   1.068  2.0356  1.6085 -0.1900
  927SOL     OW 2779   0.033   1.003   2.953  0.6260  0.1762 -0.2650
  927SOL    HW1 2780   0.089   0.946   2.893  0.1134 -1.7398 -1.2769
  927SOL    HW2 2781   0.039   1.102   2.927 -2.3644  1.5267  0.9339
  928SOL     OW 2782   0.038   0.452   2.229  0.4047 -0.2582  0.1814
  928SOL    HW1 2783   0.103   0.515   2.186  2.7697 -0.7332  0.5460
  928SOL    HW2 2784   0.063   0.420   2.323 -0.8770 -4.4807  0.3361
  929SOL     OW 2785   0.013   2.839   1.115  0.3223  0.5502 -0.1600
  929SOL    HW1 2786   0.044   2.911   1.179  0.6389  0.4559  1.3497
  929SOL    HW2 2787   0.002   2.878   1.021 -2.0017  0.2684  1.7242
  930SOL     OW 2788   1.946   1.555   1.546  0.1668  0.5621 -0.0587
  930SOL    HW1 2789   2.016   1.499   1.503 -0.2246 -1.8603  0.5114
  930SOL    HW2 2790   1.947   1.650   1.521  0.1003 -2.9851 -1.2990
  931SOL     OW 2791   1.365   1.555   0.745 -0.3821 -0.1296  0.5777
  931SOL    HW1 2792   1.377   1.554   0.843 -1.5055 -1.2100 -2.5665
  931SOL    HW2 2793   1.305   1.630   0.708  1.2589 -0.5035 -0.4436
  932SOL     OW 2794   2.626   1.197   1.101  0.1942 -0.7186 -0.4811
  932SOL    HW1 2795   2.625   1.121   1.169 -2.2614 -1.6328  0.1446
  932SOL    HW2 2796   2.548   1.258   1.123  0.8472 -1.6205 -3.2005
  933SOL     OW 2797   2.465   1.706   1.425 -0.0585 -0.0262 -0.0609
  933SOL    HW1 2798   2.376   1.738   1.389 -2.4496 -1.2699  1.9681
  933SOL    HW2 2799   2.509   1.775   1.485 -1.4006  1.6439  0.5931
  934SOL     OW 2800   1.800   2.802   1.341  0.0502  0.4217 -0.3472
  934SOL    HW1 2801   1.882   2.800   1.404 -0.3961  0.7229 -2.0832
  934SOL    HW2 2802   1.807   2.724   1.281 -2.9483  3.4964  3.0083
  935SOL     OW 2803   0.206   1.300   0.827  0.1159  0.6976 -0.7839
  935SOL    HW1 2804   0.159   1.391   0.818  1.0823  0.1452 -0.5590
  935SOL    HW2 2805   0.215   1.265   0.736 -0.8619  1.5534 -1.2756
  936SOL     OW 2806   0.085   1.277   0.563 -0.3756  0.4801 -0.2154
  936SOL    HW1 2807   0.012   1.205   0.578 -0.1038  0.3225 -0.0469
  936SOL    HW2 2808   0.066   1.355   0.624  1.6459 -0.5446 -2.2830
  937SOL     OW 2809   1.788   2.687   0.920 -0.5417 -0.5462  0.2026
  937SOL    HW1 2810   1.705   2.717   0.967  0.1231  0.0046 -0.8561
  937SOL    HW2 2811   1.849   2.765   0.886  2.0902  2.1660 -0.3242
  938SOL     OW 2812   2.554   2.514   0.729  0.1045  0.3971  0.0535
  938SOL    HW1 2813   2.473   2.530   0.669 -0.8386  3.3107 -0.6515
  938SOL    HW2 2814   2.522   2.520   0.827  0.0638  0.0573  2.0636
  939SOL     OW 2815   0.466   2.225   0.117  0.2765  0.1003 -0.5388
  939SOL    HW1 2816   0.520   2.303   0.167  1.6049  3.1467  2.1614
  939SOL    HW2 2817   0.477   2.136   0.167  2.1439  0.9130  0.7286
  940SOL     OW 2818   3.079   3.067   2.982 -0.8416 -0.1082 -0.0730
  940SOL    HW1 2819   3.070   0.051   3.041  2.4602 -1.8876  0.5872
  940SOL    HW2 2820   0.055   3.092   2.920 -1.3458  0.9079  0.4808
  941SOL     OW 2821   1.272   0.097   2.999 -0.2018  0.8065  0.2213
  941SOL    HW1 2822   1.321   0.007   3.020  0.9398  1.6350  0.5390
  941SOL    HW2 2823   1.305   0.138   2.912  1.3605  1.7286  0.3193
  942SOL     OW 2824   0.922   1.544   1.411  0.0675  0.3828  0.2239
  942SOL    HW1 2825   0.924   1.482   1.489  0.3743 -1.3048  1.6414
  942SOL    HW2 2826   0.925   1.634   1.452 -0.3701 -1.6825 -0.1780
  943SOL     OW 2827   1.951   1.170   1.460  0.4361 -0.0397 -0.0966
  943SOL    HW1 2828   1.875   1.194   1.525 -0.6408 -0.7221  1.8117
  943SOL    HW2 2829   2.025   1.237   1.464 -2.8247 -2.9674  2.4930
  944SOL     OW 2830   1.843   0.676   1.618  0.1704  0.0602 -0.1993
  944SOL    HW1 2831   1.817   0.591   1.568 -1.5056  1.5630  1.4997
  944SOL    HW2 2832   1.940   0.676   1.649  0.1129  0.5132 -1.2324
  945SOL     OW 2833   0.052   2.967   0.879  0.4245 -0.0308  0.3476
  945SOL    HW1 2834   0.086   2.879   0.831 -0.7115 -0.9807  3.1133
  945SOL    HW2 2835   0.136   3.022   0.906 -1.4377  1.3289  0.3476
  946SOL     OW 2836   0.537   0.757   1.482 -0.8354 -0.7215  0.0124
  946SOL    HW1 2837   0.507   0.696   1.408  2.7398  3.8436 -0.5036
  946SOL    HW2 2838   0.470   0.837   1.497  1.2623  1.7745  1.1821
  947SOL     OW 2839   0.399   2.697   0.685  0.3940  0.4611 -0.9029
  947SOL    HW1 2840   0.306   2.681   0.644 -0.8905 -0.1177 -1.1105
  947SOL    HW2 2841   0.410   2.636   0.767  0.9565  2.7888  1.7854
  948SOL     OW 2842   2.735   1.386   1.791 -0.2827 -0.3050  0.8030
  948SOL    HW1 2843   2.662   1.457   1.759 -2.7094  0.4388 -0.3482
  948SOL    HW2 2844   2.769   1.326   1.716 -0.4613  1.5800 -0.5138
  949SOL     OW 2845   0.398   1.256   2.415  0.5115  0.0738  0.4815
  949SOL    HW1 2846   0.418   1.191   2.342  1.2845  3.0412  0.1080
  949SOL    HW2 2847   0.423   1.219   2.505 -1.5174 -0.3547 -0.8168
  950SOL     OW 2848   1.112   0.616   0.801 -0.9481 -0.3659  0.0265
  950SOL    HW1 2849   1.181   0.616   0.876  1.8032  0.6536  0.2101
  950SOL    HW2 2850   1.160   0.629   0.711  0.9048 -0.2403 -0.9957
  951SOL     OW 2851   0.946   2.206   2.190 -0.0880  0.9433  0.5564
  951SOL    HW1 2852   0.961   2.229   2.089  0.2889  1.0851  0.8126
  951SOL    HW2 2853   1.036   2.184   2.232  1.8253  1.6511 -0.2094
  952SOL     OW 2854   0.642   1.806   0.111  0.0825 -0.0600  0.3524
  952SOL    HW1 2855   0.640   1.858   0.195 -1.9910 -0.6252 -1.9262
  952SOL    HW2 2856   0.671   1.708   0.119  0.2231 -3.2066  2.3844
  953SOL     OW 2857   1.968   2.870   2.245  0.1907  0.1456  0.0826
  953SOL    HW1 2858   2.025   2.939   2.195  0.3487  2.9488  1.0632
  953SOL    HW2 2859   1.893   2.839   2.187  0.8927 -1.2256  2.0242
  954SOL     OW 2860   1.416   1.235   0.882  0.4481 -0.3950 -0.2255
  954SOL    HW1 2861   1.489   1.252   0.817 -0.2205  0.2449  1.4867
  954SOL    HW2 2862   1.334   1.192   0.838  0.9733  1.6767 -3.1938
  955SOL     OW 2863   0.373   2.099   2.289  0.2635 -0.3571 -0.0823
  955SOL    HW1 2864   0.373   2.099   2.186  0.3144  0.2561  2.0618
  955SOL    HW2 2865   0.330   2.181   2.324 -0.9152 -1.1860  1.2779
  956SOL     OW 2866   1.763   0.466   1.442  0.5825 -0.0712  0.3624
  956SOL    HW1 2867   1.794   0.490   1.345  0.4200  3.0243 -1.5573
  956SOL    HW2 2868   1.675   0.422   1.431  4.2737 -2.0728 -0.9175
  957SOL     OW 2869   1.933   1.893   2.808 -0.5179  0.0427  0.2904
  957SOL    HW1 2870   1.964   1.929   2.716 -1.7658 -0.8366  1.0910
  957SOL    HW2 2871   1.833   1.912   2.824  1.6130 -0.6293  3.3192
  958SOL     OW 2872   1.108   2.290   1.005  0.3226 -0.2728  0.1045
  958SOL    HW1 2873   1.207   2.300   1.024 -3.4619  0.7748 -0.9444
  958SOL    HW2 2874   1.078   2.349   0.929  0.1293 -1.0139  0.4884
  959SOL     OW 2875   1.826   2.368   2.929 -0.0746 -0.1032  0.0539
  959SOL    HW1 2876   1.790   2.348   3.023 -0.3942  1.1577  0.0969
  959SOL    HW2 2877   1.742   2.360   2.875  0.9760  0.1726  1.6037
  960SOL     OW 2878   0.039   0.323   2.707  0.3428  0.3786  0.0841
  960SOL    HW1 2879   0.044   0.222   2.717 -3.1270  0.3300 -0.2803
  960SOL    HW2 2880   0.089   0.366   2.788  0.8481  0.5243  3.2177
  961SOL     OW 2881   0.773   1.207   2.327  0.1293  0.4490 -0.0504
  961SOL    HW1 2882   0.856   1.267   2.348 -0.6345  1.8391 -3.0521
  961SOL    HW2 2883   0.800   1.132   2.269 -0.1795 -0.6011  0.2800
  962SOL     OW 2884   1.035   1.357   3.048 -0.5933 -0.0428  0.3358
  962SOL    HW1 2885   1.136   1.344   3.063  0.1924 -0.0848  0.4626
  962SOL    HW2 2886   0.979   1.322   0.028  0.5321 -0.3779 -0.9090
  963SOL     OW 2887   2.453   1.691   2.887 -0.2404  0.4244 -0.2762
  963SOL    HW1 2888   2.494   1.661   2.974 -1.9265 -1.8149 -1.4754
  963SOL    HW2 2889   2.454   1.792   2.876 -2.0895  1.1592  0.1860
  964SOL     OW 2890   1.544   2.737   1.012 -0.3620 -0.8033 -0.0655
  964SOL    HW1 2891   1.491   2.681   0.945  0.4934  1.0282  0.0237
  964SOL    HW2 2892   1.528   2.715   1.106  0.3698 -0.2616 -3.4057
  965SOL     OW 2893   0.921   1.927   1.017  0.5274 -0.2156  0.5763
  965SOL    HW1 2894   0.919   1.846   1.078 -0.3712  3.5061 -1.0409
  965SOL    HW2 2895   1.021   1.949   1.002 -0.1919  0.2344 -1.5565
  966SOL     OW 2896   0.018   1.497   3.012 -0.1782 -0.0324  0.8040
  966SOL    HW1 2897   0.023   1.578   2.945  0.7627  3.7761 -0.4830
  966SOL    HW2 2898   3.051   1.519   3.085  1.9740 -1.3028  0.1583
  967SOL     OW 2899   1.786   0.081   1.828  1.0493  0.5343 -0.1349
  967SOL    HW1 2900   1.858   0.076   1.900 -0.5393  0.8483  0.8523
  967SOL    HW2 2901   1.780   3.097   1.770  0.0504  2.8215  1.1174
  968SOL     OW 2902   1.803   0.881   0.636  0.2295 -0.0586  0.3066
  968SOL    HW1 2903   1.720   0.885   0.692  1.8048  0.3710 -2.4155
  968SOL    HW2 2904   1.863   0.964   0.640  0.8938 -0.6849 -1.9683
  969SOL     OW 2905   0.209   1.292   2.042 -0.3638  0.2990  0.4480
  969SOL    HW1 2906   0.277   1.363   2.019 -0.2032 -0.6310  0.3845
  969SOL    HW2 2907   0.199   1.230   1.957 -0.1285 -0.2124 -1.0708
  970SOL     OW 2908   2.433   1.368   1.187  0.3904  0.2366 -0.0172
  970SOL    HW1 2909   2.346   1.312   1.193  2.4327  1.1197 -0.7761
  970SOL    HW2 2910   2.427   1.428   1.106  2.4689  0.2595 -0.7036
  971SOL     OW 2911   0.585   0.206   1.301 -0.4575  0.1909 -0.2520
  971SOL    HW1 2912   0.569   0.292   1.353 -2.2087 -0.2077 -1.3958
  971SOL    HW2 2913   0.625   0.130   1.354  0.9531 -0.2739 -2.2483
  972SOL     OW 2914   0.647   0.690   2.593  0.4930  0.2206 -0.1841
  972SOL    HW1 2915   0.668   0.786   2.571  0.8812 -0.8513 -2.2892
  972SOL    HW2 2916   0.657   0.628   2.512  0.4849  0.8446  1.0508
  973SOL     OW 2917   0.073   1.018   1.141  0.5374  0.0643 -0.2063
  973SOL    HW1 2918   0.046   1.047   1.232  2.3253  0.6531  0.9754
  973SOL    HW2 2919   0.142   1.081   1.104 -0.5355  0.6426 -0.7621
  974SOL     OW 2920   2.245   0.938   1.982  0.1899 -0.3033 -0.2717
  974SOL    HW1 2921   2.180   0.951   1.905  1.3090  1.6843  0.3921
  974SOL    HW2 2922   2.329   0.882   1.962  0.5451 -0.7624 -0.1900
  975SOL     OW 2923   2.727   0.004   0.135 -0.2078  0.3962 -0.5714
  975SOL    HW1 2924   2.810   0.021   0.080 -1.0245 -3.4576  1.4382
  975SOL    HW2 2925   2.654   3.044   0.096 -2.4400  1.7610 -1.1611
  976SOL     OW 2926   2.875   1.242   1.603  0.4404 -0.3924 -0.0203
  976SOL    HW1 2927   2.899   1.276   1.512 -1.3730 -0.5491  1.1321
  976SOL    HW2 2928   2.957   1.201   1.652  2.1687 -1.3245  1.3167
  977SOL     OW 2929   0.932   2.902   3.000 -0.0832 -0.1944  0.0074
  977SOL    HW1 2930   0.931   2.993   2.954  1.1015  0.3157 -1.1992
  977SOL    HW2 2931   0.950   2.915   0.002 -1.0043 -0.2182 -0.8870
  978SOL     OW 2932   0.356   1.625   0.295  0.9024 -0.0964  0.5889
  978SOL    HW1 2933   0.309   1.535   0.303 -1.0704  0.5071  0.3869
  978SOL    HW2 2934   0.433   1.625   0.362 -0.7342 -0.7098 -1.9871
  979SOL     OW 2935   1.523   1.687   1.557  0.3403 -0.0524  0.6028
  979SOL    HW1 2936   1.555   1.785   1.564 -0.7752  1.8641  0.9226
  979SOL    HW2 2937   1.591   1.619   1.526 -1.3379 -1.1927  0.1547
  980SOL     OW 2938   0.434   1.436   1.956 -0.2692  0.6457 -0.0127
  980SOL    HW1 2939   0.504   1.506   1.959 -2.6861 -0.8841 -1.4584
  980SOL    HW2 2940   0.386   1.441   1.868  3.3167  0.3969  0.2390
  981SOL     OW 2941   2.943   1.504   0.129  0.3489  0.0111 -0.1974
  981SOL    HW1 2942   2.859   1.544   0.169 -0.0588 -1.0908 -0.0987
  981SOL    HW2 2943   2.995   1.474   0.208 -1.7371  1.8054  0.9677
  982SOL     OW 2944   2.460   2.468   2.499  0.1849 -0.4772 -0.4914
  982SOL    HW1 2945   2.399   2.520   2.436 -0.0828  1.1019 -1.7644
  982SOL    HW2 2946   2.547   2.522   2.519  0.2908  2.4563 -0.3125
  983SOL     OW 2947   1.372   0.498   1.686  0.4928  0.1293 -0.3967
  983SOL    HW1 2948   1.381   0.561   1.766  1.6670 -0.1989  1.9699
  983SOL    HW2 2949   1.290   0.518   1.626 -0.1696  0.8095 -1.1142
  984SOL     OW 2950   1.117   0.084   2.621  0.1936 -0.1089  0.1074
  984SOL    HW1 2951   1.171   0.108   2.703 -1.4549 -1.2214  1.3864
  984SOL    HW2 2952   1.020   0.060   2.645 -1.2601 -1.2475  0.1692
  985SOL     OW 2953   1.677   2.332   1.656 -0.1077 -0.0146  0.5446
  985SOL    HW1 2954   1.673   2.416   1.709 -0.8571 -0.2872 -0.5775
  985SOL    HW2 2955   1.627   2.257   1.699  0.2708 -0.8533 -2.2084
  986SOL     OW 2956   2.455   3.098   2.291  0.3597  0.1490  0.1541
  986SOL    HW1 2957   2.380   0.008   2.228  0.5898 -0.3382  1.1226
  986SOL    HW2 2958   2.481   0.084   2.346  1.1859  0.6871 -0.2106
  987SOL     OW 2959   2.465   0.374   2.162 -0.1050  0.2784  0.0050
  987SOL    HW1 2960   2.558   0.378   2.121 -1.1607 -2.4116  1.8657
  987SOL    HW2 2961   2.450   0.455   2.224 -1.7031  2.5707 -0.5595
  988SOL     OW 2962   2.566   0.716   2.504 -0.0772 -0.1536 -0.7437
  988SOL    HW1 2963   2.509   0.747   2.584 -3.0384 -0.9679  4.3112
  988SOL    HW2 2964   2.583   0.802   2.452 -1.8222 -1.4205  0.1802
  989SOL     OW 2965   2.253   2.217   2.234  0.1110  0.5804  0.8754
  989SOL    HW1 2966   2.264   2.153   2.156 -1.4507  1.5619  0.8594
  989SOL    HW2 2967   2.332   2.213   2.294 -0.4120 -2.1868 -3.6355
  990SOL     OW 2968   0.311   1.224   2.847 -0.1478 -0.9361 -0.5551
  990SOL    HW1 2969   0.238   1.292   2.829  2.2947  0.2432 -0.9376
  990SOL    HW2 2970   0.405   1.259   2.821 -0.5007 -0.3744  2.6488
  991SOL     OW 2971   0.753   1.524   2.744 -0.5396 -0.0897 -0.2726
  991SOL    HW1 2972   0.769   1.446   2.680  3.1499  0.0036 -1.9228
  991SOL    HW2 2973   0.707   1.601   2.701  1.3635 -1.8225 -0.4203
  992SOL     OW 2974   3.036   2.087   1.907 -0.4178 -0.3917 -0.2430
  992SOL    HW1 2975   3.077   2.169   1.863  0.0078 -0.9639  1.4283
  992SOL    HW2 2976   3.057   1.997   1.864 -3.6875 -1.3750  0.9219
  993SOL     OW 2977   0.595   0.026   0.941 -0.3221 -0.2737  0.3682
  993SOL    HW1 2978   0.567   3.026   0.947  1.1487 -0.3546 -0.0370
  993SOL    HW2 2979   0.599   0.064   0.846  1.9660 -0.0128  2.7508
  994SOL     OW 2980   0.170   1.739   1.389  0.4477  0.0310 -0.5839
  994SOL    HW1 2981   0.237   1.672   1.430  0.0405 -0.5493 -0.7402
  994SOL    HW2 2982   0.160   1.822   1.446  1.9325 -2.9681 -0.4374
  995SOL     OW 2983   2.032   1.693   2.320  0.0148  0.6230  1.0562
  995SOL    HW1 2984   2.104   1.739   2.371  0.7453  0.0849 -0.4396
  995SOL    HW2 2985   2.074   1.646   2.242  1.7923 -0.3188 -0.5752
  996SOL     OW 2986   2.084   1.420   2.769  0.2471 -0.4238 -0.8302
  996SOL    HW1 2987   2.105   1.492   2.833 -1.5951 -0.5711 -1.8176
  996SOL    HW2 2988   2.031   1.464   2.694  0.5814  2.7098  0.3688
  997SOL     OW 2989   1.826   0.829   1.853  0.8081 -0.2658  0.1510
  997SOL    HW1 2990   1.798   0.766   1.775 -2.0563 -2.4053 -3.1967
  997SOL    HW2 2991   1.910   0.878   1.833 -0.8311 -2.9645  2.2229
  998SOL     OW 2992   2.485   2.151   1.225  1.1242 -0.1032  0.2849
  998SOL    HW1 2993   2.492   2.139   1.125  0.9344 -1.1269  0.2201
  998SOL    HW2 2994   2.566   2.126   1.275 -0.2527 -0.7076 -0.9751
  999SOL     OW 2995   2.307   2.264   0.638 -0.1302 -0.0710  0.0750
  999SOL    HW1 2996   2.283   2.265   0.736 -1.4737  2.2877 -1.0610
  999SOL    HW2 2997   2.301   2.359   0.603 -1.9231 -1.8879 -0.0678
 1000SOL     OW 2998   1.155   2.999   2.418  0.6588  0.1947  0.1526
 1000SOL    HW1 2999   1.127   3.066   2.491 -2.3539 -2.5734  1.4884
 1000SOL    HW2 3000   1.236   2.943   2.447 -0.0434 -1.6736  1.4573
   3.09923   3.09923   3.09923
